/*--------------------------------*- C++ -*----------------------------------*\
| =========                 |                                                 |
| \\      /  F ield         | OpenFOAM: The Open Source CFD Toolbox           |
|  \\    /   O peration     | Version:  2412                                  |
|   \\  /    A nd           | Website:  www.openfoam.com                      |
|    \\/     M anipulation  |                                                 |
\*---------------------------------------------------------------------------*/
FoamFile
{
    version     2.0;
    format      ascii;
    arch        "LSB;label=32;scalar=64";
    class       volScalarField;
    location    "0.2";
    object      k;
}
// * * * * * * * * * * * * * * * * * * * * * * * * * * * * * * * * * * * * * //

dimensions      [0 2 -2 0 0 0 0];

internalField   nonuniform List<scalar> 
78408
(
249.1
262.049
215.511
185.533
170.217
160.655
153.574
148.192
144.42
141.914
140.243
138.959
137.907
136.97
136.262
135.751
135.665
135.895
136.719
137.909
139.875
142.181
145.525
149.087
154.013
158.871
165.502
171.698
180.493
188.642
201.491
214.215
235.216
255.022
286.742
313.726
360.587
404.399
498.016
603.416
774.914
895.483
1030.68
1058.74
1123.15
1110.02
1227.03
1273.51
1466.96
1521.4
1811.83
1963.77
2942.15
3072.52
2334.58
1948.44
1723.73
1612.76
1626.48
1682.85
1691.59
1621.22
1515.72
1394.99
1278.95
1169.21
1070.11
979.01
899.124
830.071
777.558
744.627
742.437
774.272
836.122
901.442
950.717
970.859
964.661
936.636
895.191
845.798
793.613
741.723
692.118
646.337
604.475
567.382
533.918
505.034
478.672
456.425
435.134
417.848
399.271
385.703
367.212
357.3
337.14
852.525
639.197
322.833
191.568
137.117
115.037
108.187
108.734
111.9
115.106
117.147
118.059
118.05
117.62
116.906
116.303
115.675
115.452
115.316
115.813
116.396
117.868
119.27
121.94
124.317
128.509
132.325
138.78
144.844
155.744
167.97
188.784
211.917
243.822
276.16
319.072
369.466
448.317
582.483
780.542
1039.78
1257.32
1418.89
1461.78
1463.53
1451.65
1530.51
1641.1
1781.19
1887.28
2041.92
2287.48
2678.38
3165.67
3147.86
2688.31
2392.47
2273.12
2399.12
2455.33
2407.07
2230.57
2057.82
1876.93
1718.49
1562.74
1425.01
1293.62
1181.47
1084.34
1017.92
985.106
1012.34
1100.77
1240.47
1377.96
1477.55
1517.29
1504.97
1450.88
1372.05
1278.89
1181.62
1085.39
994.484
910.921
835.598
769.033
710.362
659.685
615.125
577.139
543.269
514.546
488.721
466.357
446.625
428.783
411.774
194.719
261.11
170.32
120.473
96.1612
85.4607
82.0941
82.6891
85.1777
88.085
90.46
91.8742
92.3228
92.0056
91.2026
90.1709
89.1163
88.1847
87.5086
87.156
87.2069
87.685
88.646
90.0559
92.058
94.5356
97.7263
101.859
107.444
116.234
129.986
150.989
179.482
213.635
255.144
301.71
368.198
463.161
642.413
899.275
1233.99
1504.59
1701.93
1736.67
1732.43
1691.91
1800.91
1921.79
2094.37
2175.21
2335.02
2585.42
2983.63
3079.68
3340.33
3017.01
2793.05
2650.94
2802.44
2862.18
2803.5
2608.76
2424.08
2210.18
2030.04
1840.12
1680.59
1520.16
1389.11
1271.12
1194.87
1160.32
1202.15
1322.42
1504.24
1681.4
1808.08
1859.27
1844.3
1777.12
1678.41
1561.64
1439.25
1317.95
1203.03
1097.14
1001.5
916.701
841.894
776.967
719.986
671.08
627.743
590.822
556.949
528.906
501.082
480.302
454.904
76.7001
104.939
100.869
96.1839
92.6777
90.5511
89.7783
90.1085
91.0949
92.0715
92.5513
92.2347
91.1215
89.3247
87.0835
84.6008
82.1006
79.7124
77.5865
75.7927
74.4078
73.4844
73.0276
73.11
73.6877
74.9365
76.732
79.814
84.4862
93.3388
108.47
132.137
164.965
203.905
252.126
305.817
383.35
495.166
705.435
1007.74
1393.23
1704.9
1923.4
1959.92
1947
1901.2
2026.61
2170.48
2356.98
2439.6
2597.5
2867.94
3315.94
3333.59
3571.57
3321.41
3112.46
2954.13
3096.3
3155.75
3098.82
2907.41
2714.49
2481.83
2279.57
2067.27
1886.78
1706.83
1558.17
1425.67
1339.55
1303.32
1354.27
1496.44
1706.99
1911.04
2055.76
2114.41
2097.18
2020.65
1907.79
1774.28
1633.99
1494.81
1362.71
1240.81
1130.6
1032.71
946.304
871.129
805.192
748.414
698.244
655.348
616.267
583.62
551.655
527.369
499.219
65.6794
83.9752
97.4864
103.496
105.019
104.658
104.053
103.776
103.726
103.398
102.442
100.657
98.1052
94.9127
91.3213
87.5108
83.7077
80.0189
76.6038
73.5074
70.824
68.5795
66.8043
65.5571
64.8047
64.7647
65.3653
67.497
71.9204
81.5034
99.0671
125.616
162.396
205.358
258.838
318.668
405.009
531.446
766.575
1106.07
1531.42
1876.12
2109.89
2148.78
2127.89
2082.01
2220.86
2386.89
2581.69
2669.87
2825.56
3115.34
3614.47
3638.19
3821.2
3600.03
3385.05
3207.69
3329.53
3388.17
3341.11
3159.85
2960.9
2713.64
2491.81
2261.48
2062.76
1866.91
1702.97
1558.5
1463.78
1426.06
1484.29
1644.08
1877.38
2102.49
2261.06
2325.21
2305.86
2221.63
2097.26
1950.18
1795.37
1641.67
1495.63
1360.76
1238.74
1130.27
1034.5
951.069
877.935
814.849
759.227
711.564
668.447
632.146
597.213
570.106
540.27
67.726
91.1463
106.694
113.366
115.992
116.549
116.419
116.165
115.745
114.742
112.907
110.131
106.547
102.321
97.7162
92.9129
88.1413
83.497
79.1423
75.1013
71.4822
68.2752
65.5501
63.3084
61.6013
60.5784
60.4152
62.0134
66.9355
77.9106
98.1682
127.224
166.954
212.915
270.276
335.119
428.759
568.055
824.633
1196.34
1655.38
2027.95
2273.73
2314.45
2286.35
2242.06
2393.24
2579.23
2779.48
2873.04
3026.51
3333.46
3880.11
3934.13
4070.95
3856.64
3625.23
3425.08
3521.23
3580.84
3549.97
3381.8
3177.92
2917.96
2678.74
2432.84
2218.1
2008.4
1830.96
1676.01
1573.73
1534.74
1599.36
1774.34
2026.96
2269.68
2439.63
2508.16
2486.76
2395.82
2261.52
2102.76
1935.46
1769.29
1611.26
1465.25
1333.12
1215.59
1111.82
1021.36
942.119
873.697
813.488
761.826
715.359
676.055
638.756
609.387
578.277
72.8091
100.068
115.08
121.319
124.336
125.656
126.258
126.439
126.07
124.777
122.407
118.95
114.613
109.613
104.237
98.6795
93.175
87.8179
82.7696
78.0449
73.7572
69.8761
66.4961
63.5808
61.2522
59.6164
59.1018
60.6865
66.6471
79.3828
102.023
133.126
175.004
223.302
283.656
352.742
452.705
603.612
879.427
1279.93
1768.53
2165.35
2421
2463.03
2428.36
2386.4
2549.14
2752.96
2956.7
3054.75
3205.9
3527.79
4118.33
4210.58
4312.69
4094.35
3840.27
3613.62
3681.2
3745.02
3735.23
3581.36
3373.02
3101.53
2846.67
2586.91
2357.83
2135.72
1946.13
1781.74
1672.71
1632.62
1703.06
1891.57
2161.12
2419.09
2598.76
2670.89
2647.54
2550.6
2407.51
2238.4
2060.06
1882.85
1714.23
1558.38
1417.33
1291.83
1181.05
1084.44
999.866
926.81
862.642
807.543
758.224
716.392
677.142
645.933
613.826
76.968
107.43
121.696
127.443
130.672
132.661
134.058
134.851
134.751
133.395
130.706
126.772
121.871
116.273
110.293
104.143
98.0617
92.1485
86.5626
81.3174
76.5265
72.1518
68.3008
64.9223
62.1893
60.2103
59.6356
61.5995
68.8637
83.4197
108.054
140.887
184.459
234.729
297.555
370.379
475.995
637.563
930.944
1357.61
1872.59
2290.94
2554.98
2597.95
2557.26
2518.04
2691.6
2911.3
3116.93
3218.54
3367.18
3701.91
4333.16
4466.45
4542.99
4315.16
4034.15
3777.61
3815.35
3887.38
3902.32
3762.99
3550.32
3268.17
2999.1
2726.86
2484.79
2251.38
2050.71
1877.72
1762.56
1721.53
1797.3
1998.01
2282.63
2554.04
2742.19
2817.4
2792.22
2689.87
2538.88
2360.5
2172.25
1985.13
1807.01
1642.36
1493.33
1360.73
1243.71
1141.64
1052.38
975.247
907.626
849.543
797.778
753.799
712.934
680.223
647.356
80.4078
113.305
126.826
132.14
135.534
138.117
140.286
141.735
142.002
140.708
137.839
133.57
128.242
122.179
115.72
109.095
102.551
96.1921
90.1762
84.5194
79.333
74.5797
70.3731
66.6631
63.6617
61.5148
61.0709
63.6591
72.3093
88.5921
114.916
149.263
194.27
246.287
311.255
387.451
498.204
669.636
979.147
1429.74
1968.44
2406.14
2677.44
2721.19
2674.99
2638.77
2822.36
3056.12
3262.26
3366.57
3512.47
3858.08
4527.09
4702.47
4760.31
4520.24
4209.12
3919.76
3927.69
4012.2
4054.36
3929.2
3712.19
3420.13
3138.08
2854.52
2600.62
2356.88
2146.03
1965.14
1844.39
1802.51
1883.14
2094.89
2392.99
2676.35
2871.97
2949.88
2923.01
2815.79
2657.68
2470.94
2273.75
2077.7
1891.02
1718.44
1562.25
1423.28
1300.69
1193.77
1100.34
1019.62
948.984
888.307
834.451
788.649
746.467
712.537
679.135
83.1901
117.911
130.76
135.72
139.269
142.394
145.281
147.365
148.023
146.853
143.893
139.389
133.741
127.317
120.479
113.476
106.557
99.8395
93.4756
87.4881
81.9845
76.9329
72.4502
68.4972
65.3192
63.1231
62.9402
66.2961
76.3201
94.1848
121.962
157.654
203.914
257.506
324.37
403.643
519.085
699.647
1023.95
1496.42
2056.48
2511.68
2789.39
2833.91
2782.7
2749.67
2942.39
3188.5
3393.9
3500.16
3643.1
3997.66
4701.58
4919.4
4963.82
4710.21
4366.51
4041.86
4021.09
4122.27
4193.14
4081.42
3859.99
3558.74
3264.84
2971.03
2706.32
2453.09
2232.88
2044.71
1918.8
1876.16
1961.18
2182.87
2493.02
2787.03
2989.28
3069.58
3041.2
2929.61
2765.1
2570.84
2365.58
2161.46
1967.07
1787.34
1624.72
1480.05
1352.49
1241.25
1144.15
1060.27
987.017
924.098
868.473
821.142
777.916
743.017
709.298
85.374
121.445
133.712
138.397
142.109
145.734
149.277
151.946
152.978
151.956
148.958
144.293
138.408
131.708
124.574
117.272
110.056
103.051
96.407
90.1539
84.3951
79.1076
74.4092
70.2789
66.9928
64.8353
65.0079
69.2119
80.5499
99.8394
128.873
165.757
213.112
268.125
336.675
418.759
538.469
727.446
1065.22
1557.6
2136.81
2607.94
2891.37
2936.77
2881.04
2851.35
3052.24
3309.03
3512.57
3620.11
3759.88
4121.53
4857.46
5117.76
5152.96
4885.32
4507.08
4145.37
4097.78
4219.45
4319.63
4220.41
3994.53
3684.81
3380.12
3077.05
2802.46
2540.55
2311.71
2116.85
1986.19
1942.8
2031.73
2262.31
2583.15
2886.61
3094.76
3177.21
3147.51
3032.04
2861.82
2660.81
2448.32
2236.95
2035.63
1849.5
1681.12
1531.36
1399.39
1284.33
1184.01
1097.38
1021.87
957.038
899.945
851.355
807.343
771.702
737.882
87.0329
124.071
135.839
140.32
144.208
148.303
152.441
155.631
156.999
156.122
153.116
148.343
142.286
135.382
128.024
120.493
113.046
105.815
98.9494
92.4863
86.5249
81.053
76.1889
71.9344
68.5966
66.5478
67.1477
72.2387
84.8058
105.363
135.475
173.401
221.702
277.986
348.024
432.663
556.224
752.891
1102.79
1613.17
2209.43
2695.02
2983.65
3030.16
2970.39
2944.16
3152.14
3418.05
3618.68
3726.94
3863.33
4230.22
4995.18
5297.81
5327.28
5045.61
4631.33
4231.45
4159.5
4304.95
4434.31
4346.56
4116.25
3798.83
3484.36
3172.98
2889.39
2619.57
2382.81
2181.83
2046.78
2002.63
2094.97
2333.37
2663.6
2975.38
3188.75
3273.16
3242.35
3123.5
2948.23
2741.23
2522.29
2304.46
2096.96
1905.12
1731.63
1577.37
1441.52
1323.12
1220.01
1131.01
1053.6
987.155
928.88
879.283
834.733
798.562
764.85
88.2392
125.92
137.26
141.597
145.675
150.216
154.889
158.533
160.189
159.439
156.44
151.597
145.42
138.372
130.852
123.154
115.533
108.133
101.097
94.4731
88.3553
82.744
77.7575
73.4248
70.084
68.2035
69.286
75.2736
88.9699
110.639
141.663
180.484
229.581
286.985
358.316
445.252
572.236
775.848
1136.52
1662.95
2274.21
2772.94
3066.33
3114.25
3050.98
3028.28
3242.23
3515.72
3712.47
3820.97
3953.78
4324.06
5114.91
5459.64
5486.43
5190.97
4739.56
4301.12
4207.66
4379.52
4537.35
4460.03
4225.39
3901.08
3577.83
3259.06
2967.31
2690.34
2446.34
2239.79
2100.68
2055.76
2150.95
2396.12
2734.46
3053.48
3271.43
3357.64
3325.94
3204.19
3024.54
2812.29
2587.67
2364.14
2151.19
1954.33
1776.36
1618.15
1478.93
1357.65
1252.16
1161.15
1082.17
1014.41
955.23
904.866
860.014
823.511
790.114
89.0569
127.1
138.067
142.31
146.593
151.555
156.709
160.74
162.631
161.984
158.994
154.108
147.855
140.712
133.084
125.272
117.53
110.011
102.851
96.1109
89.8783
84.168
79.0983
74.7284
71.429
69.7689
71.3757
78.2471
92.9635
115.593
147.369
186.937
236.679
295.046
367.471
456.444
586.411
796.192
1166.22
1706.77
2331.03
2841.61
3139.41
3189.11
3122.9
3103.78
3322.55
3602.1
3794.11
3902.39
4031.46
4403.28
5216.74
5603.25
5630.06
5321.23
4832.03
4355.28
4243.38
4443.59
4628.71
4560.84
4322.07
3991.72
3660.67
3335.44
3036.34
2752.99
2502.43
2290.83
2147.98
2102.24
2199.72
2450.57
2795.74
3120.94
3342.86
3430.73
3398.37
3274.22
3090.83
2874.08
2644.54
2416.07
2198.38
1997.16
1815.31
1653.72
1511.63
1387.9
1280.42
1187.76
1107.53
1038.74
978.906
928.005
883.077
846.431
813.551
89.5421
127.703
138.337
142.527
147.022
152.384
157.966
162.32
164.392
163.819
160.837
155.927
149.631
142.437
134.747
126.87
119.054
111.459
104.219
97.4016
91.0923
85.3198
80.2029
75.8336
72.617
71.2232
73.3841
81.1085
96.73
120.172
152.544
192.711
242.946
302.115
375.431
466.168
598.664
813.811
1191.76
1744.46
2379.72
2900.94
3202.85
3254.74
3186.19
3170.67
3393.08
3677.23
3863.69
3971.38
4096.56
4468.07
5300.69
5728.58
5757.91
5436.19
4908.96
4394.8
4267.58
4497.37
4708.28
4648.95
4406.37
4070.86
3732.99
3402.18
3096.57
2807.57
2551.12
2335.02
2188.73
2142.1
2241.28
2496.72
2847.45
3177.79
3403.08
3492.48
3459.7
3333.65
3147.17
2926.63
2692.93
2460.25
2238.54
2033.62
1848.5
1684.06
1539.57
1413.83
1304.75
1210.77
1129.59
1060.04
999.798
948.578
903.791
867.182
835.013
89.7437
127.809
138.136
142.3
147.012
152.751
158.71
163.327
165.53
165.001
162.021
157.1
150.789
143.579
135.869
127.968
120.12
112.49
105.207
98.3505
91.9993
86.1985
81.068
76.7351
73.6398
72.5532
75.2865
83.8191
100.227
124.336
157.153
197.772
248.347
308.153
382.151
474.371
608.924
828.607
1213.01
1775.87
2420.16
2950.81
3256.56
3311.12
3240.84
3228.95
3453.83
3741.14
3921.33
4028.08
4149.22
4518.59
5366.78
5835.59
5869.77
5535.68
4970.58
4420.5
4281.03
4540.92
4775.87
4724.31
4478.3
4138.56
3794.84
3459.37
3148.05
2854.16
2592.49
2372.41
2222.98
2175.37
2275.64
2534.57
2889.57
3224.01
3452.1
3542.89
3509.94
3382.48
3193.57
2969.98
2732.86
2496.72
2271.67
2063.69
1875.88
1709.12
1562.72
1435.37
1325.06
1230.09
1148.25
1078.19
1017.79
966.454
922.012
885.61
854.339
89.7045
127.488
137.522
141.678
146.605
152.695
158.984
163.807
166.093
165.58
162.594
157.672
151.368
144.174
136.478
128.591
120.747
113.119
105.829
98.9653
92.6043
86.8066
81.6942
77.4312
74.494
73.7504
77.0638
86.348
103.423
128.057
161.173
202.099
252.859
313.131
387.596
481.009
617.138
840.499
1229.86
1800.88
2452.25
2991.14
3300.5
3358.2
3286.85
3278.58
3504.78
3793.86
3967.14
4072.63
4189.62
4555.01
5415.04
5924.26
5965.47
5619.56
5017.19
4433.17
4284.32
4574.21
4831.32
4786.86
4537.92
4194.89
3846.3
3507.05
3190.84
2892.81
2626.59
2403.06
2250.78
2202.1
2302.83
2564.13
2922.12
3259.63
3489.93
3582
3549.11
3420.74
3230.05
3004.13
2764.35
2525.45
2297.77
2087.37
1897.45
1728.88
1581.01
1452.47
1341.29
1245.64
1163.42
1093.09
1032.74
981.499
937.593
901.564
871.369
89.4616
126.802
136.547
140.701
145.836
152.25
158.82
163.796
166.122
165.599
162.598
157.683
151.405
144.252
136.603
128.761
120.955
113.361
106.095
99.2555
92.9143
87.1491
82.0846
77.9238
75.1794
74.8095
78.7002
88.6707
106.293
131.317
164.589
205.678
256.468
317.032
391.744
486.051
623.262
849.429
1242.25
1819.41
2475.91
3021.87
3334.62
3395.95
3324.19
3319.57
3545.95
3835.47
4001.26
4105.22
4217.94
4577.54
5445.6
5994.63
6044.92
5687.74
5049.11
4433.59
4277.97
4597.19
4874.47
4836.59
4585.28
4239.93
3887.43
3545.29
3225.01
2923.59
2653.49
2427.04
2272.19
2222.33
2322.89
2585.43
2945.14
3284.69
3516.62
3609.85
3577.27
3448.49
3256.65
3029.12
2787.41
2546.5
2316.86
2104.66
1913.19
1743.32
1594.43
1465.08
1353.36
1257.34
1175
1104.64
1044.56
993.588
950.398
914.897
885.944
89.0474
125.808
135.258
139.408
144.737
151.443
158.25
163.33
165.656
165.098
162.077
157.173
150.937
143.849
136.27
128.503
120.765
113.233
106.02
99.2322
92.9381
87.2329
82.2449
78.2171
75.6983
75.7273
80.1834
90.7679
108.821
134.102
167.394
208.504
259.169
319.847
394.584
489.479
627.273
855.359
1250.12
1831.42
2491.14
3042.97
3358.9
3424.36
3352.89
3351.91
3577.4
3866.06
4023.88
4126.04
4234.39
4586.43
5458.62
6046.81
6108.12
5740.21
5066.72
4422.5
4262.41
4609.77
4905.25
4873.53
4620.49
4273.79
3918.34
3574.2
3250.65
2946.59
2673.29
2444.44
2287.29
2236.14
2335.89
2598.56
2958.72
3299.28
3532.27
3626.53
3594.5
3465.79
3273.45
3045.02
2802.11
2559.89
2328.96
2115.58
1923.12
1752.43
1602.95
1473.17
1361.25
1265.13
1182.93
1112.75
1053.13
1002.61
960.302
925.477
897.921
88.4901
124.555
133.699
137.835
143.338
150.303
157.299
162.437
164.729
164.117
161.067
156.18
150
142.994
135.511
127.843
120.197
112.754
105.619
98.9081
92.6864
87.0668
82.1825
78.3175
76.0552
76.5029
81.5035
92.6249
110.993
136.406
169.588
210.58
260.966
321.579
396.114
491.287
629.163
858.276
1253.48
1836.93
2497.97
3054.47
3373.36
3443.46
3372.96
3375.65
3599.2
3885.8
4035.22
4135.33
4239.22
4581.99
5454.37
6080.99
6155.11
5777.03
5070.46
4400.62
4238.02
4611.91
4923.62
4897.77
4643.68
4296.62
3939.16
3593.89
3267.88
2961.93
2686.1
2455.37
2296.19
2243.63
2341.95
2603.62
2962.97
3303.53
3537
3632.17
3600.92
3472.77
3280.56
3051.93
2808.54
2565.7
2334.15
2120.19
1927.27
1756.24
1606.59
1476.73
1364.92
1268.98
1187.15
1117.36
1058.39
1008.48
967.203
933.191
907.172
87.8138
123.089
131.909
136.013
141.665
148.851
155.992
161.147
163.373
162.689
159.606
154.741
148.627
141.721
134.351
126.804
119.274
111.942
104.908
98.2968
92.1708
86.6612
81.9069
78.2334
76.256
77.1365
82.653
94.2312
112.805
138.23
171.176
211.914
261.871
322.237
396.345
491.482
628.941
858.192
1252.36
1835.99
2496.47
3056.47
3378.08
3453.29
3384.48
3390.85
3611.49
3894.87
4035.54
4133.38
4232.72
4564.57
5433.21
6097.45
6186.03
5798.35
5060.82
4368.64
4205.14
4603.6
4929.63
4909.45
4655.04
4308.59
3950.07
3604.52
3276.85
2969.76
2692.06
2459.95
2299.02
2244.93
2341.19
2600.78
2958.07
3297.63
3531.01
3626.96
3596.72
3469.6
3278.13
3049.99
2806.82
2564.06
2332.52
2118.57
1925.72
1754.8
1605.38
1475.79
1364.39
1268.87
1187.63
1118.43
1060.27
1011.13
971.021
937.951
913.596
87.0398
121.448
129.927
133.975
139.744
147.112
154.353
159.485
161.619
160.849
157.729
152.89
146.853
140.06
132.821
125.413
118.017
110.817
103.904
97.4133
91.4048
86.028
81.4293
77.9749
76.3086
77.6298
83.6266
95.5802
114.254
139.579
172.17
212.524
261.902
321.84
395.297
490.084
626.635
855.142
1246.83
1828.7
2486.81
3049.09
3373.19
3453.96
3387.54
3397.62
3614.45
3893.54
4025.17
4120.53
4215.23
4534.59
5395.58
6096.53
6201.09
5804.4
5038.34
4327.24
4164.09
4584.87
4923.4
4908.78
4654.83
4309.93
3951.26
3606.27
3277.75
2970.24
2691.33
2458.35
2295.93
2240.21
2333.8
2590.22
2944.24
3281.81
3514.54
3611.14
3582.12
3456.49
3266.37
3039.39
2797.14
2555.13
2324.22
2110.85
1918.56
1748.2
1599.39
1470.4
1359.69
1264.84
1184.4
1115.96
1058.76
1010.52
971.708
939.696
917.115
86.1862
119.67
127.786
131.749
137.601
145.107
152.403
157.477
159.495
158.628
155.47
150.661
144.71
138.042
130.948
123.694
116.449
109.398
102.625
96.2735
90.4028
85.1808
80.7624
77.5537
76.2217
77.9854
84.4212
96.6687
115.343
140.462
172.588
212.429
261.085
320.416
393
487.128
622.287
849.188
1236.98
1815.21
2469.18
3032.54
3358.86
3445.61
3382.27
3396.11
3608.3
3882.09
4004.46
4097.13
4187.13
4492.53
5342.04
6078.7
6200.55
5795.5
5003.61
4277.07
4115.19
4555.86
4905.14
4896.05
4643.32
4300.91
3943
3599.39
3270.79
2963.59
2684.12
2450.76
2287.11
2229.65
2319.98
2572.2
2921.76
3256.37
3487.9
3585
3557.42
3433.72
3245.54
3020.38
2779.71
2539.09
2309.43
2097.18
1905.95
1736.56
1588.72
1460.65
1350.89
1256.94
1177.48
1109.96
1053.86
1006.65
969.243
938.397
917.684
85.2688
117.786
125.52
129.366
135.259
142.858
150.167
155.147
157.03
156.058
152.86
148.087
142.229
135.696
128.759
121.673
114.594
107.706
101.089
94.8944
89.1804
84.1345
79.9206
76.9832
76.0055
78.2072
85.0358
97.497
116.08
140.893
172.449
211.658
259.451
318
389.495
482.658
615.961
840.417
1222.97
1795.73
2443.83
3007.07
3335.33
3428.43
3368.85
3386.48
3593.29
3860.87
3973.82
4063.61
4148.85
4438.92
5273.23
6044.46
6184.79
5772.06
4957.26
4218.77
4058.79
4516.75
4875.14
4871.6
4620.86
4281.85
3925.57
3584.12
3256.22
2950.02
2670.63
2437.38
2272.76
2213.46
2299.98
2546.99
2890.96
3221.66
3451.44
3548.92
3522.96
3401.62
3215.95
2993.23
2754.8
2516.2
2288.37
2077.76
1888.05
1720.05
1573.53
1446.66
1338.09
1245.24
1166.94
1100.49
1045.61
999.557
963.64
934.057
915.288
84.3013
115.825
123.158
126.851
132.743
140.388
147.664
152.521
154.251
153.167
149.932
145.199
139.442
133.053
126.283
119.375
112.474
105.762
99.3158
93.2938
87.7548
82.9054
78.92
76.2781
75.6708
78.2998
85.4711
98.0683
116.473
140.89
171.781
210.241
257.04
314.635
384.832
476.734
607.733
828.938
1204.95
1770.49
2411.07
2973.01
3302.88
3402.67
3347.49
3368.97
3569.72
3830.26
3933.71
4020.42
4100.84
4374.35
5189.89
5994.43
6154.22
5734.56
4899.96
4152.94
3995.23
4467.79
4833.75
4835.82
4587.86
4253.1
3899.31
3560.79
3234.33
2929.82
2651.13
2418.44
2253.12
2191.9
2274.07
2514.91
2852.19
3178.08
3405.58
3503.3
3479.15
3360.57
3177.95
2958.29
2722.71
2486.74
2261.29
2052.84
1865.09
1698.85
1553.97
1428.58
1321.44
1229.88
1152.89
1087.65
1034.1
989.296
954.946
926.71
909.943
83.2956
113.812
120.727
124.231
130.076
137.717
144.918
149.622
151.185
149.985
146.715
142.027
136.378
130.141
123.545
116.825
110.111
103.588
97.3251
91.4905
86.144
81.5115
77.778
75.4541
75.2292
78.2686
85.73
98.3886
116.535
140.474
170.61
208.216
253.893
310.371
379.071
469.426
597.698
814.884
1183.14
1739.79
2371.27
2930.71
3261.87
3368.61
3318.45
3343.84
3537.96
3790.7
3884.59
3968.06
4043.61
4299.46
5092.85
5929.3
6109.34
5683.57
4832.38
4080.19
3924.89
4409.33
4781.42
4789.18
4544.75
4215.07
3864.57
3529.71
3205.42
2903.26
2625.87
2394.22
2228.45
2165.22
2242.56
2476.35
2805.89
3126.1
3350.8
3448.61
3426.43
3311.01
3131.95
2915.93
2683.79
2451.02
2228.5
2022.68
1837.3
1673.2
1530.26
1406.6
1301.09
1211
1135.47
1071.55
1019.43
975.964
943.241
916.425
901.698
82.2617
111.769
118.254
121.531
127.28
134.867
141.951
146.475
147.858
146.541
143.239
138.602
133.066
126.986
120.572
114.047
107.53
101.205
95.1373
89.5043
84.3677
79.9722
76.5136
74.5281
74.6927
78.1199
85.8168
98.466
116.283
139.668
168.971
205.621
250.061
305.264
372.279
460.814
585.964
798.409
1157.77
1703.94
2324.81
2880.6
3212.68
3326.58
3282.02
3311.36
3498.36
3742.65
3827.01
3907.07
3977.7
4214.94
4983
5849.81
6050.71
5619.73
4755.25
4001.09
3848.19
4341.78
4718.65
4732.2
4492.02
4168.2
3821.78
3491.27
3169.84
2870.66
2595.16
2364.97
2199.01
2133.73
2205.8
2431.68
2752.52
3066.21
3287.62
3385.37
3365.32
3253.41
3078.4
2866.57
2638.44
2409.42
2190.31
1987.58
1804.98
1643.33
1502.62
1380.94
1277.26
1188.79
1114.84
1052.36
1001.74
959.689
928.637
903.3
890.635
81.2086
109.715
115.761
118.775
124.378
131.859
138.785
143.103
144.296
142.862
139.532
134.951
129.535
123.617
117.39
111.065
104.752
98.6345
92.7739
87.3561
82.4467
78.3085
75.1471
73.5178
74.0734
77.8603
85.7375
98.311
115.735
138.498
166.897
202.5
245.595
299.377
364.53
450.99
572.651
779.686
1129.1
1663.31
2272.15
2823.14
3155.75
3276.97
3238.53
3271.87
3451.34
3686.62
3761.51
3838.01
3903.68
4121.52
4861.34
5756.76
5978.95
5543.73
4669.31
3916.22
3765.55
4265.61
4646
4665.42
4430.2
4112.97
3771.36
3445.87
3127.97
2832.37
2559.31
2331.01
2165.11
2097.74
2164.13
2381.35
2692.57
2998.96
3216.61
3314.15
3296.36
3188.29
3017.79
2810.66
2587.08
2362.31
2147.1
1947.88
1768.42
1609.56
1471.33
1351.84
1250.16
1163.47
1091.21
1030.26
981.207
940.628
911.275
887.464
876.865
80.1438
107.668
113.269
115.985
121.392
128.716
135.441
139.53
140.526
138.975
135.622
131.102
125.81
120.059
114.023
107.904
101.802
95.8996
90.2568
85.0681
80.4034
76.5427
73.7001
72.4412
73.3836
77.4969
85.4992
97.9358
114.908
136.993
164.424
198.899
240.551
292.776
355.908
440.052
557.893
758.902
1097.42
1618.28
2213.76
2758.85
3091.57
3220.18
3188.33
3225.72
3397.35
3623.12
3688.66
3761.46
3822.15
4019.97
4728.9
5651.03
5894.75
5456.33
4575.3
3826.14
3677.46
4181.37
4564.08
4589.46
4359.86
4049.88
3713.78
3393.92
3080.18
2788.73
2518.65
2292.64
2127.05
2057.57
2117.95
2325.81
2626.58
2924.94
3138.36
3235.56
3220.15
3116.22
2950.65
2748.71
2530.16
2310.13
2099.26
1903.94
1727.97
1572.17
1436.67
1319.57
1220.05
1135.27
1064.79
1005.45
958.018
918.964
891.325
869.075
860.524
79.074
105.642
110.798
113.181
118.343
125.458
131.944
135.781
136.572
134.906
131.535
127.083
121.919
116.338
110.497
104.588
98.7022
93.0231
87.6093
82.6638
78.2619
74.6989
72.1948
71.3163
72.6351
77.0373
85.1105
97.3538
113.826
135.18
161.591
194.865
234.99
285.535
346.498
428.109
541.833
736.261
1063.02
1569.27
2150.17
2688.27
3020.66
3156.66
3131.81
3173.29
3336.84
3552.72
3609.07
3678.03
3733.72
3911.06
4586.78
5533.53
5798.83
5358.34
4473.98
3731.39
3584.39
4089.64
4473.55
4504.95
4281.58
3979.48
3649.54
3335.88
3026.9
2740.13
2473.53
2250.2
2085.16
2013.59
2067.65
2265.54
2555.09
2844.75
3053.53
3150.22
3137.29
3037.79
2877.54
2681.22
2468.17
2253.31
2047.19
1856.14
1683.96
1531.5
1398.96
1284.43
1187.21
1104.44
1035.83
978.171
932.397
894.907
868.981
848.312
841.777
78.0049
103.649
108.365
110.385
115.252
122.107
128.314
131.879
132.459
130.681
127.299
122.918
117.887
112.479
106.836
101.141
95.4769
90.0291
84.8558
80.1682
76.0478
72.8025
70.6542
70.1608
71.839
76.4891
84.5807
96.58
112.508
133.09
158.437
190.449
228.972
277.726
336.392
415.274
524.62
711.979
1026.23
1516.72
2081.89
2611.98
2943.58
3086.9
3069.4
3114.99
3270.31
3475.99
3523.35
3588.35
3639.04
3795.61
4436.12
5405.22
5691.96
5250.6
4366.1
3632.51
3486.86
3991.05
4375.12
4412.57
4195.99
3902.33
3579.14
3272.21
2968.55
2686.95
2424.3
2204.02
2039.78
1966.13
2013.66
2201.03
2478.71
2759.04
2962.77
3058.82
3048.44
2953.61
2799.02
2608.73
2401.59
2192.32
1991.32
1804.87
1636.79
1487.91
1358.51
1246.71
1151.92
1071.27
1004.6
948.675
904.585
868.683
844.457
825.378
820.81
76.9414
101.7
105.984
107.614
112.139
118.684
124.575
127.848
128.212
126.325
122.937
118.635
113.739
108.507
103.064
97.5865
92.1505
86.9427
82.0222
77.6084
73.7885
70.8797
69.1012
68.9915
71.0061
75.8601
83.9198
95.6298
110.979
130.754
155.002
185.699
222.56
269.427
325.686
401.663
506.413
686.278
987.369
1461.08
2009.5
2530.58
2860.9
3011.41
3001.53
3051.24
3198.24
3393.5
3432.11
3493.05
3538.75
3674.45
4278.1
5267.07
5574.96
5133.97
4252.42
3530.05
3385.41
3886.29
4269.51
4313
4103.73
3818.99
3503.12
3203.39
2905.56
2629.6
2371.35
2154.44
1991.26
1915.58
1956.39
2132.81
2398.01
2668.45
2866.77
2962.03
2954.27
2864.31
2715.7
2531.8
2330.95
2127.63
1932.1
1750.56
1586.82
1441.74
1315.67
1206.75
1114.5
1036.05
971.38
917.23
874.838
840.538
817.986
800.493
797.827
75.8878
99.8038
103.669
104.885
109.023
115.209
120.748
123.712
123.857
121.865
118.477
114.256
109.5
104.447
99.2066
93.9499
88.7485
83.7902
79.1362
75.0128
71.5128
68.9576
67.558
67.8237
70.1455
75.1578
83.1385
94.5194
109.26
128.201
151.324
180.668
215.817
260.716
314.477
387.4
487.371
659.387
946.784
1402.81
1933.55
2444.68
2773.23
2930.72
2928.66
2982.49
3121.16
3305.86
3336
3392.8
3433.52
3548.4
4113.91
5120.1
5448.66
5009.36
4133.7
3424.51
3280.59
3776.04
4157.47
4206.95
4005.44
3730.07
3422.02
3129.92
2838.39
2568.48
2315.03
2101.82
1939.92
1862.3
1896.28
2061.38
2313.61
2573.67
2766.24
2860.55
2855.44
2770.54
2628.17
2450.98
2256.77
2059.73
1869.97
1693.6
1534.45
1393.36
1270.78
1164.87
1075.25
999.082
936.452
884.114
843.425
810.73
789.815
773.891
773.049
74.8477
97.9669
101.43
102.214
105.922
111.704
116.855
119.493
119.416
117.323
113.941
109.807
105.194
100.321
95.2876
90.2568
85.2977
80.5999
76.2274
72.412
69.2506
67.0628
66.0454
66.6708
69.2653
74.3899
82.2479
93.2654
107.375
125.461
147.444
175.403
208.807
251.674
302.862
372.606
467.658
631.539
904.815
1342.38
1854.62
2354.91
2681.17
2845.37
2851.26
2909.18
3039.57
3213.65
3235.65
3288.22
3324
3418.28
3944.76
4965.33
5313.94
4877.66
4010.67
3316.42
3172.94
3661.03
4039.75
4095.14
3901.79
3636.16
3336.38
3052.3
2767.49
2504
2255.73
2046.52
1886.14
1806.67
1833.75
1987.26
2226.11
2475.36
2661.87
2755.09
2752.66
2672.95
2537.06
2366.86
2179.57
1989.11
1805.38
1634.44
1480.07
1343.15
1224.2
1121.4
1034.49
960.667
900.113
849.611
810.622
779.524
760.199
745.815
746.707
73.8242
96.1951
99.2771
99.6136
102.854
108.187
112.92
115.215
114.914
112.726
109.355
105.313
100.846
96.1568
91.333
86.5341
81.8265
77.4019
73.3273
69.8379
67.032
65.2211
64.5818
65.5442
68.3725
73.5637
81.2593
91.8843
105.347
122.566
143.399
169.955
201.592
242.376
290.939
357.404
447.437
602.966
861.803
1280.25
1773.28
2261.9
2585.35
2755.93
2769.83
2831.78
2954.02
3117.49
3131.67
3179.97
3210.86
3284.92
3771.85
4803.81
5171.67
4739.79
3884.07
3206.29
3063.03
3541.98
3917.13
3978.29
3793.43
3537.87
3246.76
2971.01
2693.32
2436.58
2193.82
1988.88
1830.26
1749.06
1769.25
1910.98
2136.13
2374.2
2554.36
2646.35
2646.6
2572.19
2442.98
2280
2099.89
1916.24
1738.79
1573.47
1424.06
1291.47
1176.25
1076.67
992.542
921.113
862.662
814.01
776.709
747.191
729.4
716.516
719.041
72.8201
94.4929
97.2179
97.0967
99.8357
104.679
108.962
110.902
110.376
108.096
104.743
100.798
96.4811
91.9785
87.3698
82.8103
78.3655
74.2285
70.4694
67.3233
64.8868
63.4559
63.1827
64.4524
67.4727
72.6863
80.184
90.3928
103.197
119.544
139.227
164.37
194.231
232.9
278.804
341.917
426.867
573.897
818.084
1216.9
1690.12
2166.28
2486.4
2662.95
2684.85
2750.76
2865
3017.96
3024.7
3068.69
3094.74
3149.12
3596.36
4636.57
5022.75
4596.63
3754.6
3094.6
2951.41
3419.61
3790.38
3857.12
3681.02
3435.79
3153.69
2886.57
2616.32
2366.62
2129.69
1929.26
1772.62
1689.82
1703.18
1833.05
2044.26
2270.85
2444.43
2535.03
2537.93
2468.9
2346.51
2190.94
2018.22
1841.62
1670.63
1511.11
1366.82
1238.67
1127.3
1031.01
949.721
880.725
824.392
777.597
741.963
714.001
697.681
686.246
690.296
71.8377
92.8635
95.258
94.6736
96.8811
101.198
105.004
106.575
105.824
103.458
100.13
96.2863
92.124
87.8134
83.4266
79.116
74.9474
71.1141
67.6884
64.9009
62.8426
61.7874
61.8601
63.4016
66.5705
71.7647
79.0334
88.8074
100.949
116.422
134.964
158.696
186.785
223.32
266.552
326.263
406.108
544.555
773.989
1152.78
1605.67
2068.66
2384.93
2567.01
2596.81
2666.58
2773.05
2915.65
2915.33
2955
2976.28
3011.64
3419.48
4464.65
4868.07
4449.09
3622.94
2981.86
2838.63
3294.66
3660.24
3732.35
3565.23
3330.52
3057.73
2799.47
2536.95
2294.54
2063.7
1868.02
1713.56
1629.33
1635.98
1753.96
1951.1
2165.97
2332.74
2421.82
2427.33
2363.72
2248.25
2100.25
1935.09
1765.69
1601.33
1447.76
1308.72
1185.12
1077.67
984.742
906.332
839.797
785.592
740.652
706.66
680.221
665.302
655.257
660.717
70.8789
91.309
93.402
92.3532
94.0045
97.7616
101.066
102.259
101.284
98.838
95.5404
91.8044
87.8021
83.6898
79.5339
75.4841
71.6072
68.0946
65.0193
62.6019
60.9236
60.2312
60.622
62.3955
65.6693