/*--------------------------------*- C++ -*----------------------------------*\
| =========                 |                                                 |
| \\      /  F ield         | OpenFOAM: The Open Source CFD Toolbox           |
|  \\    /   O peration     | Version:  2412                                  |
|   \\  /    A nd           | Website:  www.openfoam.com                      |
|    \\/     M anipulation  |                                                 |
\*---------------------------------------------------------------------------*/
FoamFile
{
    version     2.0;
    format      ascii;
    arch        "LSB;label=32;scalar=64";
    class       volScalarField;
    location    "0.2";
    object      nut;
}
// * * * * * * * * * * * * * * * * * * * * * * * * * * * * * * * * * * * * * //

dimensions      [0 2 -1 0 0 0 0];

internalField   nonuniform List<scalar> 
78408
(
0.00128383
0.00129756
0.00115925
0.00105941
0.000999373
0.000955972
0.000919996
0.000889168
0.000863257
0.000841275
0.000821875
0.000803711
0.000786262
0.000769179
0.000752762
0.000736871
0.000722081
0.000708078
0.000695497
0.000683677
0.00067354
0.000663893
0.000656244
0.000648618
0.000643312
0.000637192
0.000633778
0.000628597
0.000626993
0.000622889
0.000624731
0.000624313
0.000633429
0.000638158
0.000654206
0.000660834
0.000683188
0.000696163
0.000741718
0.000782773
0.000850705
0.000876046
0.000899169
0.000869387
0.000851937
0.000802508
0.000796287
0.000762609
0.00076712
0.0007284
0.000737588
0.000707023
0.000784854
0.000813618
0.000718339
0.000694162
0.000690373
0.000703061
0.000740949
0.000790779
0.000830981
0.000850639
0.000858165
0.000857313
0.000853396
0.000847043
0.000840085
0.000831986
0.000824548
0.00081828
0.000816879
0.00082331
0.000845357
0.000886832
0.00094663
0.00100991
0.00106554
0.00110572
0.00113104
0.00114287
0.00114499
0.00113979
0.00113002
0.0011175
0.00110363
0.0010898
0.00107642
0.0010646
0.00105379
0.00104535
0.00103759
0.00103261
0.00102718
0.00102514
0.00102025
0.0010206
0.00101326
0.00101671
0.00100433
0.00386349
0.00386682
0.00265638
0.0020316
0.001719
0.00156171
0.00150811
0.00152271
0.00156774
0.00160992
0.00163433
0.00163688
0.00162234
0.0015948
0.00156038
0.00152157
0.00148229
0.00144234
0.00140538
0.00136936
0.00133783
0.00130755
0.00128232
0.00125739
0.0012388
0.00121914
0.00120783
0.00119737
0.00119948
0.00121173
0.00125596
0.00132279
0.00143651
0.00154505
0.00170464
0.00182461
0.00207072
0.00234077
0.00301928
0.00377179
0.00466952
0.00500694
0.00515598
0.00472851
0.00442403
0.00390992
0.00390409
0.00370207
0.00366705
0.00329448
0.0030936
0.00291882
0.00255449
0.00228351
0.00295692
0.0030816
0.00341954
0.00347491
0.00396894
0.00416308
0.0043585
0.00428998
0.0043651
0.00425175
0.00428644
0.00415406
0.0041473
0.00400645
0.00397748
0.00387495
0.00391889
0.00402261
0.00439927
0.00500156
0.00579058
0.00650378
0.00704258
0.00734112
0.00745756
0.00741611
0.00727991
0.00706812
0.00681937
0.00654357
0.00626207
0.00598259
0.00571435
0.00546428
0.00523198
0.00502649
0.00483632
0.00467727
0.00452489
0.00440976
0.00427743
0.0042104
0.00408094
0.00407828
0.003914
0.00159684
0.00247296
0.0021517
0.00198212
0.00199915
0.00213482
0.00230071
0.00243823
0.00254086
0.00260048
0.00262259
0.0026024
0.00255151
0.00247172
0.00237913
0.00227458
0.00217405
0.00207083
0.0019812
0.0018921
0.00182127
0.0017495
0.00169954
0.00164256
0.00161193
0.00156661
0.00155223
0.00152197
0.00153991
0.0015628
0.00169627
0.00186306
0.00220305
0.00249345
0.0029984
0.00333201
0.0041011
0.0048563
0.00677909
0.00874382
0.0110138
0.0117179
0.0120317
0.0108826
0.0102155
0.00893918
0.0091515
0.00865094
0.00869964
0.00763081
0.00724966
0.0067252
0.00635082
0.0046163
0.00578359
0.00625926
0.00715257
0.0072138
0.00808272
0.0085451
0.00914894
0.00924206
0.00953678
0.00932735
0.00939786
0.0090945
0.00906706
0.00875104
0.00867765
0.00845292
0.00855634
0.00883778
0.00975202
0.0112073
0.0130355
0.0146275
0.0157711
0.0163634
0.0165507
0.0164026
0.0160559
0.0155557
0.0149803
0.0143525
0.0137138
0.0130825
0.0124751
0.0119079
0.0113764
0.0109024
0.0104579
0.010081
0.00971435
0.00943132
0.00909802
0.00891816
0.00856097
0.00853169
0.0080933
0.001943
0.00192842
0.00246316
0.0030299
0.00363554
0.00423519
0.00473315
0.00505636
0.0052084
0.00520198
0.00508891
0.00489345
0.00465473
0.00438162
0.00410244
0.00381619
0.00354842
0.00328621
0.00305529
0.00283393
0.0026495
0.00247242
0.0023359
0.00219898
0.00210607
0.00200456
0.0019535
0.00189545
0.00192564
0.00200046
0.00230051
0.0026849
0.00339096
0.00399374
0.00496616
0.00564331
0.00705149
0.00848537
0.0117431
0.0149571
0.0183855
0.0193904
0.0196767
0.0178641
0.0167097
0.0148518
0.0152173
0.014566
0.0145474
0.0128979
0.0122498
0.011455
0.0112843
0.00839109
0.00939128
0.0100206
0.0111623
0.0111789
0.012282
0.0131224
0.0142884
0.0147033
0.0151993
0.0149316
0.0149633
0.01452
0.0144139
0.0139534
0.0137934
0.0134764
0.0136245
0.0141235
0.0156018
0.0179369
0.0207752
0.0231837
0.0248521
0.0256718
0.0258752
0.025586
0.0250063
0.0242107
0.0233101
0.0223423
0.0213648
0.0204062
0.0194889
0.0186363
0.0178404
0.0171316
0.0164691
0.0159056
0.0153603
0.0149341
0.0144538
0.0141654
0.013664
0.0135793
0.0130005
0.00630936
0.00459187
0.00586978
0.00674985
0.00744049
0.00805849
0.00857209
0.00890651
0.00902942
0.00891628
0.00862336
0.00819539
0.00770127
0.00716602
0.00663322
0.00610322
0.00560969
0.00513356
0.00470851
0.0043031
0.00395511
0.00362203
0.00335202
0.00308643
0.0028905
0.00269059
0.00257839
0.0024766
0.00255431
0.00275347
0.00337593
0.00410005
0.00528551
0.00623585
0.00769049
0.00872033
0.0107491
0.0128835
0.0173171
0.0215968
0.0258832
0.0271044
0.027245
0.0248504
0.0231749
0.020888
0.0213553
0.0206387
0.0204523
0.0183496
0.0174134
0.0164251
0.0165013
0.0129037
0.0134482
0.0139957
0.0151067
0.01501
0.016296
0.0176168
0.0194216
0.020197
0.0208335
0.0205008
0.0204473
0.0198772
0.0196655
0.0190764
0.0188135
0.0184217
0.0186101
0.0193405
0.0213689
0.0245434
0.0283012
0.0314296
0.0335363
0.0345258
0.0347075
0.0342609
0.0334439
0.0323614
0.0311513
0.0298664
0.0285777
0.0273233
0.0261308
0.0250288
0.0240074
0.0231008
0.0222608
0.0215464
0.0208641
0.0203268
0.0197455
0.0193745
0.0187909
0.0186592
0.0180204
0.0161366
0.0118382
0.0126209
0.0126713
0.0127272
0.0129109
0.0131447
0.0132966
0.0132733
0.0129975
0.0125049
0.0118428
0.0110959
0.010303
0.00951946
0.00874987
0.00803282
0.00734641
0.00672779
0.00613918
0.00562414
0.00513055
0.00471811
0.00431312
0.00400249
0.00369272
0.00352151
0.0033984
0.003613
0.00406906
0.00517282
0.00629712
0.00794255
0.0091782
0.0110169
0.0123418
0.0148846
0.0176533
0.0230281
0.0281679
0.033075
0.0344575
0.0343982
0.0315017
0.0293161
0.0267108
0.0272436
0.0265033
0.0260933
0.0236371
0.0224195
0.0212991
0.0215831
0.0176029
0.0176351
0.0179483
0.0188353
0.0185765
0.0200375
0.0219255
0.0243959
0.0255127
0.0262238
0.0258095
0.0256432
0.0249535
0.0246236
0.0239157
0.023544
0.0230881
0.023314
0.0242751
0.0268247
0.0307779
0.0353572
0.0391142
0.0415873
0.0427049
0.0428425
0.0422348
0.0411866
0.0398324
0.0383328
0.0367552
0.0351823
0.0336607
0.0322229
0.0309012
0.029685
0.0286096
0.0276233
0.0267856
0.0259979
0.0253743
0.0247237
0.0242936
0.0236687
0.0235028
0.0228539
0.0295319
0.0222195
0.0213707
0.0199024
0.0188881
0.0183442
0.0180912
0.0179034
0.0176168
0.0171036
0.0163743
0.0154694
0.014477
0.0134431
0.0124286
0.0114419
0.010523
0.00964992
0.00885929
0.00811092
0.00744898
0.00681712
0.00627968
0.00575585
0.00534708
0.00495261
0.00475832
0.00468823
0.00517111
0.00603512
0.0076874
0.00917852
0.0111616
0.0125877
0.0146809
0.0162335
0.0191676
0.0224788
0.028576
0.0344051
0.039768
0.0412812
0.0410058
0.0376812
0.0350177
0.0321749
0.0327472
0.0320013
0.0313403
0.0286058
0.0271256
0.0259148
0.0263479
0.0221863
0.0217384
0.0217393
0.0222833
0.0218357
0.023483
0.0260061
0.0291355
0.0305509
0.031279
0.0307686
0.0304741
0.0296704
0.0292175
0.028398
0.0279167
0.0274038
0.0276644
0.0288481
0.0318826
0.0365475
0.0418553
0.0461601
0.0489413
0.0501568
0.0502386
0.0494732
0.0482053
0.046598
0.0448304
0.0429845
0.0411524
0.0393891
0.0377316
0.0362146
0.0348282
0.0336065
0.0324971
0.0315564
0.0306857
0.0299942
0.029296
0.0288237
0.0281836
0.0279947
0.0273661
0.0435019
0.0338468
0.0310285
0.0278053
0.0255257
0.0240916
0.0232159
0.022572
0.0219252
0.0211043
0.0200967
0.0189323
0.0176949
0.0164315
0.0152031
0.0140197
0.0129203
0.0118832
0.0109427
0.0100584
0.00927214
0.00852737
0.00788821
0.00727415
0.00679467
0.00635702
0.0061947
0.00627925
0.00715904
0.00853261
0.0106921
0.012466
0.0146514
0.0161933
0.0184358
0.0201638
0.0233842
0.0271493
0.033793
0.0401814
0.0458893
0.0475174
0.0470303
0.043343
0.0402431
0.0372237
0.0378169
0.0370717
0.0361494
0.0331938
0.0314741
0.0301991
0.0307247
0.0265068
0.0256359
0.0252934
0.0254287
0.0247816
0.0266335
0.0298403
0.0336003
0.0352646
0.0359642
0.0353483
0.0349187
0.0340063
0.03343
0.0325052
0.0319161
0.0313516
0.0316437
0.0330376
0.0365179
0.0418273
0.0477785
0.0525604
0.055602
0.0568932
0.0569137
0.0559983
0.0545254
0.0526845
0.0506708
0.0485797
0.0465121
0.0445301
0.042675
0.0409835
0.0394467
0.0380967
0.0368818
0.0358534
0.0349159
0.0341697
0.0334389
0.0329362
0.0322977
0.0320943
0.0315044
0.0569455
0.0457138
0.0409687
0.0359817
0.0323788
0.029976
0.0283935
0.0272107
0.0261302
0.0249454
0.0236235
0.0221826
0.0206976
0.0192119
0.0177824
0.0164183
0.0151556
0.0139728
0.0129003
0.0118991
0.0110072
0.0101701
0.00944954
0.00877035
0.00824716
0.00780793
0.00773574
0.00807282
0.00943809
0.0113447
0.0139091
0.0158793
0.0181656
0.0197799
0.0221021
0.0239707
0.0273978
0.0315406
0.0385977
0.0454483
0.0514269
0.0531618
0.052478
0.0484851
0.0449929
0.0418436
0.0424446
0.0417002
0.040517
0.0373842
0.0354488
0.0341245
0.0346953
0.0305004
0.0292662
0.0285754
0.0282705
0.0274231
0.0294994
0.0334203
0.0377699
0.0396345
0.0402728
0.0395468
0.0389809
0.0379653
0.0372677
0.0362435
0.0355501
0.034938
0.035258
0.0368475
0.0407339
0.0466229
0.0531406
0.0583379
0.0616004
0.0629504
0.0629081
0.0618525
0.0601904
0.0581359
0.0558974
0.0535832
0.0513018
0.0491219
0.0470891
0.0452411
0.0435707
0.0421071
0.0408006
0.0396967
0.0387042
0.0379133
0.0371601
0.036636
0.0360094
0.0357984
0.0352581
0.0694948
0.0573495
0.0508522
0.0441871
0.0392727
0.0358733
0.033535
0.0317572
0.0301906
0.0286009
0.026938
0.0252076
0.023473
0.0217705
0.0201501
0.0186181
0.0172059
0.0158917
0.0147018
0.0135984
0.0126153
0.0117016
0.0109158
0.0101912
0.00964762
0.00924317
0.00931416
0.00998112
0.0118688
0.0142676
0.0171209
0.0192176
0.0215417
0.0232073
0.0255683
0.0275545
0.0311308
0.0355881
0.0429603
0.0501998
0.0563979
0.0582355
0.0573746
0.053126
0.0492852
0.0460429
0.046642
0.0458955
0.0444578
0.0411822
0.0390545
0.0376881
0.0382666
0.0341469
0.0326043
0.0315736
0.0308191
0.0297751
0.0320944
0.0367443
0.0416357
0.0436576
0.0442124
0.0433758
0.0426756
0.0415625
0.0407475
0.0396295
0.038836
0.0381795
0.0385236
0.0402928
0.0445462
0.0509533
0.0579683
0.0635267
0.066977
0.0683731
0.0682692
0.0670841
0.065249
0.063
0.0605574
0.0580408
0.0555658
0.0532072
0.0510143
0.0490258
0.0472363
0.0456719
0.0442853
0.0431157
0.0420775
0.0412496
0.0404816
0.0399425
0.0393349
0.0391218
0.0386373
0.0811175
0.0685557
0.0604995
0.0522709
0.0460893
0.0416943
0.0385754
0.0361669
0.0340792
0.0320572
0.0300361
0.0280084
0.0260244
0.0241107
0.0223084
0.0206194
0.0190694
0.0176358
0.0163402
0.0151463
0.0140838
0.0131057
0.0122675
0.0115131
0.010969
0.0106303
0.0108896
0.0119384
0.0143398
0.0171525
0.0201901
0.0223627
0.0246889
0.0263964
0.0287734
0.0308613
0.0345455
0.0392655
0.0468801
0.0544515
0.0608324
0.0627702
0.061754
0.0572933
0.0531445
0.0498398
0.0504297
0.0496771
0.0479948
0.0446037
0.0423053
0.0408992
0.0414567
0.037448
0.0356459
0.0342901
0.0330896
0.0318563
0.0344328
0.0398134
0.0451967
0.0473399
0.0477974
0.0468526
0.0460227
0.0448178
0.0438901
0.0426836
0.0417949
0.0410966
0.0414607
0.043393
0.0479751
0.0548426
0.0622926
0.0681643
0.0717744
0.0732065
0.0730436
0.0717404
0.0697483
0.0673234
0.064696
0.0619965
0.0593469
0.0568271
0.0544903
0.0523757
0.05048
0.0488259
0.047369
0.0461421
0.0450656
0.0442071
0.0434301
0.0428814
0.0422975
0.0420871
0.0416622
0.0919054
0.0792649
0.0698199
0.0601419
0.0527488
0.0473749
0.0434665
0.0404069
0.0377771
0.0353071
0.0329187
0.0305915
0.0283607
0.0262423
0.0242668
0.0224308
0.0207535
0.0192108
0.0178198
0.0165453
0.0154131
0.0143805
0.0135007
0.0127295
0.0122023
0.0119559
0.0124403
0.0138981
0.016771
0.0199057
0.0230427
0.0252557
0.0275649
0.0293098
0.03169
0.0338672
0.0376292
0.0425691
0.0503715
0.0582286
0.0647649
0.0668012
0.0656518
0.0610177
0.0565996
0.0532568
0.0538305
0.0530682
0.0511533
0.0476689
0.04522
0.0437732
0.0442884
0.0404163
0.0383979
0.0367346
0.0350993
0.0336855
0.0365285
0.0426306
0.0484569
0.0506924
0.0510452
0.0499967
0.0490428
0.0477518
0.0467164
0.0454271
0.0444479
0.0437099
0.0440897
0.0461682
0.0510422
0.0583161
0.0661446
0.0722873
0.0760329
0.0774934
0.0772754
0.0758653
0.0737317
0.0711486
0.0683549
0.0654907
0.0626839
0.0600192
0.0575533
0.0553259
0.0533355
0.0516017
0.0500834
0.0488065
0.0476981
0.0468145
0.0460332
0.0454794
0.0449228
0.0447194
0.0443566
0.101981
0.0894719
0.0787737
0.0677467
0.0591983
0.0528692
0.0481728
0.0444536
0.0412719
0.0383472
0.0355896
0.0329648
0.0304927
0.0281771
0.0260375
0.0240639
0.022269
0.0206267
0.0191494
0.017803
0.0166097
0.0155312
0.0146194
0.0138426
0.0133481
0.0132174
0.013955
0.0158274
0.0191088
0.0224745
0.0256462
0.0278745
0.0301565
0.0319355
0.0343115
0.0365673
0.0403844
0.045508
0.0534556
0.0615596
0.0682294
0.0703631
0.0691023
0.0643297
0.0596789
0.0563177
0.0568691
0.0560934
0.0539586
0.0503993
0.0478182
0.0463279
0.0467851
0.0430689
0.040873
0.0389202
0.0368656
0.0352805
0.0383947
0.0452006
0.0514235
0.0537287
0.0539742
0.0528277
0.0517564
0.0503849
0.0492471
0.0478801
0.0468154
0.0460395
0.0464303
0.0486381
0.0537685
0.0613979
0.0695537
0.0759296
0.0797901
0.0812729
0.0810041
0.0794984
0.0772382
0.0745136
0.0715709
0.0685592
0.0656116
0.0628172
0.060236
0.0579079
0.0558335
0.0540292
0.0524571
0.0511369
0.0500024
0.0490985
0.0483168
0.0477621
0.0472359
0.0470435
0.0467447
0.111465
0.0992014
0.0873507
0.0750568
0.0654038
0.0581452
0.0526689
0.04829
0.0445553
0.0411769
0.0380535
0.035137
0.0324312
0.0299272
0.0276327
0.025531
0.0236276
0.0218945
0.0203393
0.0189289
0.0176825
0.016566
0.0156309
0.0148591
0.0144121
0.0144177
0.0154284
0.017703
0.0213192
0.0248336
0.027992
0.0302179
0.0324668
0.0342763
0.0366429
0.0389671
0.0428215
0.0480975
0.0561559
0.0644729
0.0712581
0.0734884
0.0721376
0.0672583
0.062409
0.0590453
0.0595693
0.058776
0.0564346
0.052816
0.0501194
0.0485818
0.0489697
0.0454248
0.0430856
0.0408615
0.0384054
0.0366581
0.0400434
0.0475288
0.0541057
0.0564634
0.0566025
0.0553644
0.0541826
0.0527359
0.0515012
0.0500617
0.0489161
0.0481039
0.048501
0.0508208
0.0561734
0.0641107
0.0725469
0.0791222
0.0830795
0.08458
0.0842654
0.0826749
0.0803023
0.0774523
0.0743769
0.0712338
0.0681606
0.0652506
0.0625669
0.0601494
0.0580008
0.0561344
0.0545158
0.0531585
0.0520028
0.0510832
0.0503049
0.0497529
0.0492597
0.0490822
0.0488492
0.120462
0.108491
0.0955578
0.0820599
0.0713448
0.0631815
0.0569373
0.0519051
0.0476228
0.0437973
0.040316
0.0371166
0.0341866
0.0315038
0.0290641
0.0268436
0.0248407
0.0230251
0.0214
0.0199333
0.0186412
0.0174942
0.0165442
0.0157876
0.0154022
0.0155622
0.0168581
0.019508
0.0233821
0.0269749
0.0300852
0.0322952
0.0345072
0.0363425
0.0386956
0.0410783
0.0449553
0.0503559
0.058496
0.0669953
0.0738801
0.0762067
0.0747866
0.0698299
0.0648145
0.0614613
0.061953
0.0611382
0.0586034
0.0549388
0.0521421
0.0505527
0.0508632
0.0475023
0.0450513
0.0425731
0.0397344
0.0378335
0.0414859
0.0496213
0.0565136
0.0589113
0.0589471
0.0576244
0.056339
0.0548225
0.0534963
0.0519891
0.0507673
0.0499198
0.0503182
0.0527332
0.058275
0.0664752
0.0751488
0.0818928
0.0859311
0.0874459
0.0870906
0.0854259
0.0829548
0.0799942
0.0768017
0.0735423
0.0703579
0.0673456
0.0645712
0.0620748
0.0598612
0.0579406
0.0562821
0.0548933
0.0537212
0.05279
0.0520184
0.0514727
0.051015
0.0508561
0.0506905
0.129063
0.117384
0.103412
0.088755
0.0770107
0.0679646
0.0609666
0.0552922
0.0504729
0.0462113
0.0423833
0.0389122
0.0357688
0.0329177
0.0303426
0.0280126
0.0259189
0.024029
0.0223417
0.0208259
0.0194952
0.018325
0.0173686
0.0166372
0.0163272
0.0166573
0.0182428
0.0212303
0.0252873
0.0289
0.0319373
0.0341208
0.0362926
0.0381484
0.040484
0.0429153
0.046802
0.052302
0.060498
0.0691512
0.0761216
0.0785446
0.0770754
0.0720688
0.0669174
0.0635857
0.0640402
0.0632001
0.060485
0.0567862
0.0539033
0.0522576
0.052485
0.0493193
0.0467847
0.0440693
0.0408675
0.038821
0.0427326
0.0514847
0.0586581
0.0610868
0.061024
0.0596237
0.0582416
0.0566604
0.055248
0.0536779
0.0523843
0.0515026
0.0518972
0.0543906
0.0600896
0.0685101
0.0773813
0.0842663
0.0883718
0.0898982
0.0895078
0.0877791
0.0852224
0.0821656
0.0788706
0.0755091
0.0722272
0.0691249
0.066271
0.0637055
0.0614354
0.0594679
0.0577757
0.0563606
0.0551764
0.0542375
0.0534758
0.0529397
0.0525197
0.0523831
0.0522866
0.137341
0.125924
0.110936
0.0951483
0.082398
0.0724875
0.0647507
0.0584483
0.0531063
0.0484228
0.0442619
0.040532
0.0371871
0.0341785
0.0314782
0.0290479
0.0268721
0.0249157
0.0231736
0.0216157
0.0202536
0.0190676
0.018113
0.0174171
0.0171959
0.0177094
0.0195814
0.0228613
0.0270313
0.0306167
0.0335627
0.035711
0.0378393
0.0397094
0.0420233
0.0444934
0.0483782
0.0539542
0.0621825
0.0709629
0.078006
0.0805259
0.0790272
0.0739968
0.0687378
0.0654367
0.0658492
0.0649802
0.0620978
0.0583751
0.055419
0.0537124
0.0538526
0.050892
0.0482999
0.0453634
0.041818
0.0396337
0.043793
0.0531259
0.0605499
0.0630036
0.062848
0.0613773
0.059905
0.058264
0.0567709
0.0551424
0.0537812
0.052866
0.0532517
0.0558069
0.0616323
0.0702328
0.0792645
0.0862651
0.0904257
0.0919618
0.0915417
0.0897591
0.0871293
0.0839897
0.0806061
0.077156
0.0737893
0.0706088
0.0676859
0.0650605
0.0627417
0.0607341
0.0590139
0.0575775
0.0563852
0.0554423
0.0546932
0.0541698
0.0537896
0.0536788
0.0536532
0.145357
0.134153
0.118155
0.101251
0.0875087
0.076748
0.0682875
0.0613733
0.0555257
0.0504369
0.0459586
0.0419839
0.0384502
0.0352955
0.0324801
0.0299587
0.0277091
0.025694
0.0239045
0.0223114
0.020925
0.0197304
0.0187865
0.0181365
0.018017
0.0187246
0.020873
0.0243954
0.0286151
0.0321353
0.0349768
0.0370823
0.0391634
0.0410411
0.0433289
0.0458281
0.0496999
0.05533
0.0635684
0.0724505
0.0795544
0.0821719
0.0806629
0.0756334
0.0702937
0.0670308
0.0673965
0.0664954
0.0634584
0.059721
0.0567035
0.0549319
0.054982
0.0522355
0.0496099
0.0464676
0.0425987
0.0402839
0.0446762
0.0545522
0.0621998
0.0646747
0.0644329
0.0628986
0.0613425
0.0596467
0.058078
0.0563955
0.0549707
0.0540228
0.0543943
0.0569949
0.0629169
0.071659
0.0808167
0.0879097
0.0921143
0.0936591
0.0932147
0.0913878
0.0886969
0.0854876
0.0820284
0.0785025
0.0750629
0.0718152
0.0688331
0.0661564
0.0637965
0.061755
0.060012
0.0585589
0.0573622
0.0564185
0.0556846
0.055177
0.0548384
0.0547566
0.0548036
0.15316
0.142111
0.125097
0.107078
0.0923488
0.0807477
0.0715779
0.0640698
0.0577352
0.0522594
0.0474804
0.0432759
0.0395664
0.0362771
0.0333569
0.0307535
0.0284384
0.026372
0.0245423
0.022921
0.0215173
0.0203217
0.0193974
0.018804
0.018799
0.0197085
0.0221171
0.0258293
0.0300429
0.0334678
0.0361948
0.0382504
0.0402805
0.0421585
0.0444156
0.0469342
0.0507825
0.0564458
0.0646727
0.0736321
0.0807857
0.0835019
0.0820009
0.0769962
0.0716013
0.0683831
0.0686972
0.0677612
0.0645819
0.0608382
0.0577703
0.0559296
0.0558876
0.0533636
0.0507267
0.0473936
0.0432209
0.0407828
0.0453907
0.0557708
0.0636183
0.0661124
0.0657912
0.0642002
0.0625665
0.0608205
0.0591813
0.057449
0.0559646
0.0549844
0.0553364
0.0579665
0.0639562
0.0728032
0.0820545
0.0892185
0.0934575
0.0950101
0.0945472
0.0926853
0.0899447
0.0866778
0.0831556
0.079566
0.076065
0.0727605
0.0697283
0.0670084
0.0646141
0.0625447
0.0607839
0.059318
0.0581204
0.0571788
0.0564626
0.0559732
0.0556781
0.0556283
0.0557494
0.160787
0.149835
0.131791
0.112647
0.0969271
0.0844913
0.0746257
0.0665418
0.0597402
0.0538967
0.0488347
0.0444157
0.0405438
0.0371314
0.0341165
0.03144
0.0290675
0.0269574
0.0250944
0.0234518
0.0220381
0.0208494
0.019954
0.0194284
0.0195502
0.0206663
0.0233131
0.0271619
0.0313207
0.0346264
0.0372314
0.0392303
0.041205
0.0430759
0.0452974
0.0478258
0.0516403
0.0573166
0.0655115
0.0745245
0.0817173
0.0845335
0.0830582
0.0781013
0.0726752
0.0695074
0.0697652
0.0687917
0.0654822
0.0617399
0.0586317
0.0567185
0.0565828
0.0542888
0.0516613
0.0481519
0.0436956
0.0411412
0.0459447
0.0567891
0.0648156
0.0673283
0.0669348
0.0652936
0.0635884
0.0617965
0.0600918
0.0583139
0.0567737
0.0557615
0.0560889
0.0587327
0.0647623
0.0736794
0.0829938
0.0902088
0.0944734
0.0960336
0.0955577
0.0936699
0.0908905
0.0875779
0.0840044
0.0803625
0.0768109
0.0734593
0.0703859
0.0676302
0.0652079
0.063116
0.0613418
0.059867
0.0586713
0.0577347
0.0570382
0.0565693
0.0563192
0.0563041
0.0565006
0.168268
0.157357
0.138263
0.117977
0.101255
0.0879859
0.0774365
0.0687954
0.0615472
0.0553559
0.0500287
0.0454109
0.0413901
0.0378662
0.0347665
0.0320257
0.0296037
0.0274572
0.0255681
0.0239111
0.0224949
0.0213213
0.0204647
0.0200183
0.0202784
0.0216026
0.024461
0.0283938
0.0324561
0.0356237
0.0381004
0.0400361
0.0419507
0.0438069
0.0459875
0.0485163
0.052287
0.0579569
0.0660993
0.0751432
0.082365
0.0852827
0.0838504
0.0789633
0.0735289
0.0704165
0.0706133
0.0696001
0.0661723
0.0624383
0.0592991
0.0573104
0.0570798
0.0550229
0.052424
0.0487525
0.0440327
0.0413689
0.0463459
0.0576145
0.0658015
0.0683333
0.0678746
0.0661895
0.0644186
0.0625852
0.0608199
0.0590003
0.0574079
0.0563641
0.0566618
0.059304
0.0653467
0.0743004
0.0836491
0.0908967
0.0951791
0.0967469
0.0962635
0.0943584
0.0915509
0.0882036
0.0845902
0.080907
0.0773149
0.0739255
0.0708189
0.0680345
0.0655902
0.0634808
0.0616972
0.0602169
0.0590258
0.0580964
0.0574213
0.056975
0.0567712
0.0567932
0.0570662
0.175625
0.164708
0.144541
0.123087
0.105346
0.0912405
0.080018
0.0708375
0.0631634
0.0566443
0.0510702
0.0462692
0.0421129
0.0384887
0.035314
0.0325177
0.030054
0.0278782
0.0259701
0.0243059
0.0228949
0.0217451
0.0209379
0.0205825
0.0209917
0.0225219
0.0255608
0.0295273
0.0334576
0.0364718
0.0388149
0.0406809
0.0425304
0.0443642
0.0464986
0.0490184
0.0527354
0.05838
0.0664502
0.0755028
0.0827438
0.0857645
0.0843919
0.0795956
0.0741746
0.0711219
0.0712535
0.070199
0.0666642
0.0629448
0.0597834
0.0577166
0.0573901
0.0555767
0.0530243
0.0492045
0.0442416
0.0414755
0.0466018
0.0582545
0.0665856
0.0691378
0.068621
0.0668982
0.0650672
0.0631964
0.0613751
0.0595179
0.0578769
0.0568017
0.0570645
0.0596904
0.0657203
0.0746788
0.0840345
0.0912975
0.0955904
0.0971662
0.0966808
0.0947669
0.0919412
0.08857
0.0849275
0.0812133
0.0775905
0.0741719
0.0710397
0.0682332
0.0657724
0.06365
0.0618607
0.0603779
0.0591937
0.0582736
0.0576213
0.0571993
0.0570427
0.0571038
0.0574543
0.182874
0.171914
0.150652
0.127999
0.109214
0.0942658
0.0823788
0.0726764
0.0645968
0.0577699
0.0519667
0.0469982
0.0427194
0.0390062
0.0357662
0.0329226
0.0304249
0.0282272
0.0263072
0.0246432
0.0232455
0.0221288
0.0213821
0.02113
0.021698
0.0234283
0.0266135
0.0305657
0.0343342
0.0371827
0.0393874
0.0411771
0.0429562
0.0447598
0.0468425
0.0493441
0.0529976
0.0585987
0.0665772
0.075617
0.082868
0.0859931
0.0846961
0.0800106
0.0746238
0.0716348
0.0716972
0.0705998
0.0669693
0.0632704
0.0600948
0.0579478
0.0575245
0.0559603
0.0534709
0.0495166
0.0443311
0.0414698
0.0467198
0.0587166
0.0671773
0.0697517
0.069184
0.0674293
0.0655435
0.0636394
0.0617668
0.0598757
0.0581895
0.0570832
0.0573063
0.0599017
0.0658939
0.0748266
0.0841636
0.0914257
0.0957227
0.097307
0.0968249
0.0949104
0.0920762
0.0886914
0.08503
0.0812947
0.0776502
0.0742108
0.0710603
0.0682377
0.0657654
0.0636342
0.0618426
0.06036
0.0591846
0.0582754
0.057647
0.0572507
0.0571419
0.0572437
0.0576721
0.190024
0.178998
0.156621
0.132733
0.112875
0.0970738
0.0845291
0.0743212
0.0658557
0.0587406
0.0527262
0.0476053
0.043217
0.0394256
0.0361297
0.0332471
0.0307231
0.0285107
0.0265861
0.02493
0.0235544
0.0224809
0.0218066
0.0216703
0.0224053
0.0243259
0.0276205
0.0315138
0.0350954
0.037768
0.0398298
0.0415365
0.0432396
0.0450052
0.0470305
0.0495049
0.0530853
0.0586253
0.0664931
0.0754993
0.0827511
0.0859818
0.0847757
0.0802202
0.0748872
0.0719655
0.0719551
0.0708139
0.0670985
0.0634252
0.0602429
0.0580142
0.0574935
0.0561832
0.0537723
0.0496971
0.0443098
0.0413603
0.0467072
0.0590083
0.0675857
0.0701846
0.0695729
0.0677919
0.0658567
0.063923
0.0620037
0.0600824
0.0583543
0.0572172
0.057396
0.0599471
0.0658779
0.0747557
0.0840495
0.0912956
0.0955906
0.0971842
0.0967108
0.0948034
0.0919701
0.0885813
0.0849109
0.0811639
0.0775065
0.074054
0.0708918
0.0680589
0.0655799
0.0634437
0.0616526
0.0601725
0.0590075
0.0581107
0.0575069
0.0571373
0.0570765
0.0572205
0.057727
0.197082
0.185978
0.162474
0.137313
0.116347
0.0996778
0.0864798
0.0757814
0.0669492
0.059565
0.0533566
0.0480982
0.0436129
0.039754
0.0364113
0.033498
0.0309553
0.0287354
0.026814
0.0251739
0.0238298
0.0228102
0.0222213
0.0222135
0.0231219
0.0252188
0.0285838
0.0323771
0.035751
0.038239
0.0401536
0.0417705
0.0433919
0.0451115
0.0470737
0.0495118
0.0530097
0.0584715
0.0662102
0.0751625
0.0824062
0.0857436
0.0846427
0.0802353
0.0749749
0.0721239
0.0720376
0.0708518
0.0670621
0.0634192
0.0602369
0.0579256
0.057307
0.0562546
0.0539364
0.0497538
0.0441854
0.041155
0.0465713
0.0591372
0.0678196
0.0704456
0.0697968
0.067995
0.0660154
0.064056
0.0620942
0.0601464
0.0583798
0.0572121
0.0573421
0.0598359
0.0656827
0.0744779
0.0837053
0.0909209
0.0952086
0.0968123
0.0963526
0.09446
0.0916364
0.0882532
0.084583
0.0808332
0.0771711
0.0737129
0.0705454
0.0677075
0.065226
0.0630883
0.0613004
0.0598248
0.0586715
0.0577881
0.0572093
0.0568672
0.0568544
0.0570415
0.0576258
0.204047
0.192872
0.168232
0.14176
0.119647
0.102092
0.0882428
0.0770676
0.0678867
0.0602517
0.053866
0.0484845
0.0439146
0.0399985
0.036618
0.033682
0.0311282
0.0289085
0.0269981
0.0253829
0.0240806
0.0231269
0.022637
0.0227702
0.023856
0.026111
0.0295063
0.0331621
0.0363108
0.0386068
0.0403699
0.04189
0.0434237
0.0450894
0.0469825
0.0493755
0.0527819
0.0581491
0.0657406
0.0746195
0.0818464
0.085291
0.0843087
0.0800665
0.0748963
0.0721194
0.0719546
0.0707239
0.0668702
0.0632618
0.0600859
0.0576914
0.0569746
0.0561832
0.0539708
0.0496944
0.0439657
0.0408616
0.0463191
0.0591111
0.0678878
0.0705439
0.0698646
0.0680471
0.066028
0.0640465
0.0620467
0.0600758
0.0582739
0.0570758
0.0571531
0.0595772
0.0653184
0.0740046
0.0831436
0.0903154
0.0945905
0.0962053
0.0957644
0.0938939
0.0910886
0.0877197
0.0840588
0.0803147
0.0766558
0.0731988
0.070032
0.067194
0.064714
0.062578
0.0607955
0.0593261
0.0581856
0.0573164
0.0567626
0.0564484
0.056483
0.056714
0.0573754
0.210919
0.19969
0.173918
0.146096
0.122794
0.104331
0.0898308
0.0781907
0.0686779
0.0608098
0.0542629
0.0487722
0.0441293
0.0401661
0.0367567
0.0338061
0.0312489
0.0290373
0.0271467
0.0255658
0.0243167
0.0234419
0.0230658
0.0233519
0.0246162
0.0270068
0.0303915
0.0338759
0.036785
0.0388823
0.0404894
0.0419056
0.0433455
0.0449493
0.0467674
0.0491067
0.0524125
0.0576693
0.0650965
0.0738829
0.0810842
0.0846363
0.0837852
0.0797241
0.0746609
0.071961
0.0717157
0.0704403
0.0665323
0.0629623
0.0597985
0.057321
0.0565059
0.0559772
0.0538828
0.0495261
0.0436578
0.0404873
0.0459581
0.0589377
0.0677991
0.0704881
0.0697849
0.0679567
0.0659029
0.0639028
0.0618692
0.0598786
0.0580445
0.0568165
0.0568372
0.05918
0.0647953
0.0733475
0.0823772
0.0894924
0.0937504
0.0953773
0.0949599
0.0931186
0.0903397
0.0869938
0.0833506
0.0796203
0.075972
0.0725228
0.0693622
0.0665288
0.064054
0.0619225
0.0601474
0.0586857
0.0575587
0.0567041
0.0561753
0.055889
0.0559704
0.0562454
0.0569829
0.217692
0.206442
0.17955
0.150344
0.125807
0.106412
0.0912571
0.0791622
0.0693332
0.0612484
0.0545557
0.0489693
0.0442649
0.0402644
0.0368348
0.0338776
0.0313252
0.0291301
0.0272684
0.0257326
0.0245492
0.0237677
0.0235208
0.023971
0.0254112
0.0279105
0.0312436
0.0345261
0.0371836
0.0390762
0.0405227
0.0418279
0.0431677
0.0447015
0.0464386
0.0487155
0.0519122
0.0570436
0.0642898
0.0729652
0.0801323
0.0837915
0.083083
0.0792179
0.0742774
0.0716577
0.0713304
0.0700106
0.0660579
0.0625296
0.0593833
0.0568233
0.0559102
0.055645
0.0536795
0.0492559
0.0432688
0.0400393
0.0454953
0.0586249
0.0675619
0.0702868
0.0695661
0.067732
0.0656482
0.0636329
0.0615696
0.0595626
0.0576993
0.0564418
0.0564025
0.0586532
0.0641236
0.0725181
0.0814187
0.0884653
0.0927017
0.0943418
0.0939527
0.0921472
0.0894026
0.0860878
0.0824705
0.0787617
0.075131
0.0716958
0.0685468
0.0657223
0.0632561
0.0611316
0.0593657
0.057913
0.0567998
0.0559602
0.0554559
0.0551974
0.0553243
0.0556435
0.0564555
0.224358
0.213133
0.185145
0.154524
0.128706
0.108351
0.0925358
0.0799943
0.0698633
0.0615773
0.0547535
0.0490841
0.0443293
0.0403011
0.0368601
0.0339046
0.0313655
0.0291959
0.0273735
0.0258945
0.0247911
0.0241187
0.0240169
0.0246405
0.0262498
0.0288266
0.0320675
0.035121
0.0375168
0.0391991
0.0404804
0.0416672
0.0429005
0.0443561
0.0460061
0.0482122
0.0512915
0.0562831
0.0633326
0.071879
0.0790032
0.0827687
0.082213
0.0785576
0.0737545
0.0712179
0.0708079
0.0694445
0.0654563
0.0619725
0.0588483
0.0562071
0.0551967
0.0551943
0.0533678
0.0488909
0.0428053
0.0395242
0.0449382
0.0581807
0.0671848
0.0699486
0.0692165
0.0673811
0.0652718
0.0632446
0.0611555
0.0591354
0.0572459
0.0559595
0.0558571
0.0580057
0.0633134
0.0715279
0.0802807
0.0872474
0.0914581
0.0931124
0.0927562
0.090993
0.08829
0.0850142
0.0814304
0.0777505
0.0741441
0.0707289
0.0675963
0.0647848
0.0623302
0.0602152
0.05846
0.0570172
0.0559183
0.0550937
0.0546131
0.054382
0.0545529
0.0549159
0.0558006
0.230907
0.219764
0.190718
0.158657
0.131512
0.110166
0.0936818
0.0806996
0.0702793
0.0618067
0.0548656
0.0491256
0.0443311
0.0402847
0.0368411
0.033896
0.0313793
0.029245
0.0274736
0.0260649
0.0250573
0.0245111
0.0245705
0.0253743
0.0271406
0.0297596
0.0328689
0.0356693
0.0377949
0.0392614