/*--------------------------------*- C++ -*----------------------------------*\
| =========                 |                                                 |
| \\      /  F ield         | OpenFOAM: The Open Source CFD Toolbox           |
|  \\    /   O peration     | Version:  2412                                  |
|   \\  /    A nd           | Website:  www.openfoam.com                      |
|    \\/     M anipulation  |                                                 |
\*---------------------------------------------------------------------------*/
FoamFile
{
    version     2.0;
    format      ascii;
    arch        "LSB;label=32;scalar=64";
    class       volScalarField;
    location    "0.2";
    object      p;
}
// * * * * * * * * * * * * * * * * * * * * * * * * * * * * * * * * * * * * * //

dimensions      [0 2 -2 0 0 0 0];

internalField   nonuniform List<scalar> 
78408
(
124647
116604
115528
114786
114012
113581
113349
113178
113052
112918
112784
112627
112466
112276
112080
111843
111604
111302
111007
110627
110266
109785
109354
108736
108237
107447
106892
105875
105314
103963
103490
101620
101380
98674.9
98931.1
94910.9
96120.3
90036.8
93018.5
83685
89767.5
75599.8
86430.5
65520.6
83127.6
52545
79241
32546.4
70820.3
-1014.32
56730.6
-57366
19663.9
-271701
-15164.6
-77389.1
6343.56
-43440.8
18394.9
-10570.8
27751.8
8701.13
35043.8
23903.4
42050.4
35608
47756.1
44206.4
52175.2
50430.4
55629.8
54968.3
58451.2
58479.5
61109.7
61683.5
63870.8
64714.2
66472.8
67362.7
68740.2
69579
70623.6
71380.1
72157.8
72839.8
73418.9
74045
74473.6
75102.8
75398.7
76087.7
76248.8
77101.4
77069.6
78288.1
77886.4
79893.5
78538.7
122694
116033
115398
114756
113998
113572
113344
113174
113049
112915
112781
112624
112463
112272
112076
111839
111600
111298
111002
110621
110261
109778
109348
108728
108229
107438
106883
105865
105304
103952
103478
101607
101367
98660.9
98916.3
94895
96103.3
90019.1
92998.3
83665.3
89743.2
75579.2
86403.6
65500.3
83099.4
52523.7
79205.1
32514.6
70766.2
-1059.34
56654.1
-57459.5
19646.2
-270417
-14950.4
-77509.4
6316.22
-43451.3
18368.7
-10588.2
27733.7
8692.03
35033.9
23897.5
42043.3
35603
47750.6
44202.1
52170.8
50426.9
55626.4
54965.2
58448.4
58476.4
61106.2
61679.4
63866.2
64709.8
66468.9
67359.2
68737.1
69576.3
70621.2
71377.9
72155.8
72837.9
73417
74043.3
74471.7
75101.1
75396.7
76086
76246.5
77099.6
77066.7
78286.5
77882.2
79891.9
78533.4
122341
116167
115442
114755
113989
113565
113339
113171
113047
112913
112779
112621
112460
112269
112073
111836
111596
111294
110998
110616
110256
109773
109342
108722
108222
107431
106875
105856
105295
103942
103468
101595
101355
98646.6
98901.8
94877.7
96085.3
89998.4
92973.2
83638.5
89707.8
75548.3
86363.5
65470.6
83058.7
52493.3
79152.1
32467.3
70683.9
-1127.21
56536.4
-57604
19551.5
-268916
-14762.7
-77639.8
6289.45
-43468.9
18328.7
-10613.1
27708.2
8680.42
35022
23891.3
42035.6
35598.2
47745
44198.3
52166.7
50423.7
55623.2
54962.3
58445.4
58472.5
61101.1
61673.1
63859.5
64703.4
66463.4
67354.7
68733.4
69573.4
70618.8
71376
72154
72836.3
73415.2
74042
74469.9
75099.8
75394.8
76084.8
76244.1
77098.6
77063.2
78286.1
77876.8
79893
78526.1
122282
116258
115437
114734
113976
113558
113336
113169
113045
112911
112777
112619
112458
112266
112070
111833
111592
111290
110994
110612
110251
109767
109336
108716
108216
107423
106868
105848
105287
103932
103460
101584
101345
98632.8
98888.7
94860.8
96068.4
89977.8
92949.2
83611.5
89673.4
75517.1
86324.7
65440.7
83020
52463.2
79101.9
32420.6
70604.1
-1195.15
56420.2
-57750.3
19432.6
-267555
-14587.6
-77744.8
6270.53
-43486.2
18292.6
-10636.4
27686.5
8671.06
35013.5
23887
42030.5
35595
47741.5
44195.7
52164.2
50421.5
55621.3
54960.1
58443.4
58469.4
61096.8
61667.4
63853.3
64697.5
66458.5
67350.7
68730.3
69571
70616.9
71374.4
72152.5
72835
73413.7
74041
74468.3
75098.7
75392.9
76083.8
76241.7
77097.9
77059.6
78286.3
77871.1
79895.5
78518.1
121953
116224
115413
114714
113966
113552
113332
113166
113043
112909
112775
112617
112455
112264
112067
111829
111589
111286
110990
110607
110246
109762
109331
108709
108210
107416
106861
105839
105280
103922
103451
101572
101334
98618.3
98875.5
94843
96051.5
89956.4
92926.1
83585
89642
75487.2
86289.6
65412.1
82985.1
52434.4
79056.8
32376.2
70531.1
-1260.61
56312.1
-57890.4
19325.3
-266228
-14390.5
-77840.4
6254.42
-43503.1
18261
-10656.9
27669.6
8663.85
35007.6
23883.6
42026.9
35592.3
47739.2
44193.6
52162.5
50419.6
55619.9
54958.3
58442
58466.7
61093.3
61662.3
63848.1
64692.3
66454.3
67347.2
68727.6
69568.9
70615.1
71372.9
72151.1
72833.7
73412.2
74039.9
74466.7
75097.6
75391
76082.8
76239.3
77097.2
77056
78286.6
77865.3
79898.2
78509.8
121636
116196
115406
114693
113954
113544
113328
113163
113041
112907
112773
112614
112453
112261
112064
111826
111585
111282
110986
110602
110241
109756
109325
108703
108204
107408
106854
105830
105272
103912
103442
101559
101323
98602.7
98861.7
94824.2
96034.3
89934.2
92903.4
83558.4
89612
75458
86256.3
65384.1
82952.1
52406.2
79014
32332.5
70460.9
-1325.35
56207.3
-58026.9
19231.5
-264881
-14178.4
-77936.8
6237.55
-43521.4
18230.6
-10676.1
27655.3
8657.61
35002.5
23880
42023.5
35589.3
47736.9
44191.2
52160.8
50417.5
55618.5
54956.2
58440.5
58463.9
61089.8
61657.4
63843
64687.3
66450.3
67343.7
68725
69566.7
70613.3
71371.4
72149.6
72832.3
73410.6
74038.8
74465
75096.3
75389
76081.8
76236.7
77096.4
77052.3
78286.7
77859.3
79901
78501.1
121371
116167
115401
114668
113942
113537
113323
113160
113039
112904
112770
112612
112450
112258
112061
111822
111582
111278
110981
110597
110236
109750
109320
108696
108197
107400
106847
105821
105264
103900
103432
101546
101311
98586.3
98847.6
94804.8
96017.1
89911.6
92881
83532
89583.2
75429.4
86224.2
65356.7
82920.3
52378.5
78972.5
32289.4
70392.2
-1389.35
56104.3
-58159.9
19147.3
-263526
-13962.7
-78034.5
6219.44
-43541.2
18200.4
-10694.3
27642.7
8651.78
34997.5
23875.7
42019.6
35585.7
47734.3
44188.2
52158.7
50414.9
55616.8
54953.8
58438.8
58460.8
61086.1
61652.3
63837.9
64682.2
66446.2
67340.2
68722.2
69564.4
70611.4
71369.6
72147.9
72830.8
73408.9
74037.5
74463.1
75095
75386.9
76080.6
76234
77095.6
77048.3
78286.8
77853
79903.8
78492.2
121116
116130
115392
114642
113929
113530
113319
113157
113037
112902
112768
112609
112448
112255
112058
111819
111578
111273
110977
110592
110232
109744
109314
108689
108191
107392
106840
105811
105255
103889
103423
101531
101300
98569.6
98833.5
94785.2
96000.2
89888.9
92859.3
83506.1
89555.5
75401.7
86193.4
65330.1
82889.8
52351.6
78932.5
32247.2
70325.2
-1452.1
56003.6
-58288.1
19071.3
-262174
-13747.6
-78132.9
6200.18
-43562.2
18170.7
-10711.6
27631.6
8646.17
34992.2
23870.7
42015.3
35581.5
47731.3
44184.8
52156.4
50412
55614.7
54951
58436.7
58457.3
61082.2
61647.1
63832.7
64677.1
66442.1
67336.6
68719.4
69562
70609.3
71367.8
72146.1
72829.1
73407
74036
74461.1
75093.6
75384.6
76079.3
76231.1
77094.6
77044.2
78286.7
77846.5
79906.5
78482.9
120868
116092
115382
114616
113917
113523
113315
113155
113035
112900
112766
112607
112445
112252
112055
111815
111574
111269
110973
110588
110227
109738
109308
108682
108184
107384
106832
105801
105247
103877
103412
101517
101288
98552.6
98819.6
94765.6
95983.7
89866.5
92838.4
83480.8
89529
75374.8
86163.9
65304.4
82860.4
52325.4
78893.9
32206.1
70259.9
-1513.4
55905.3
-58411.1
19003
-260829
-13534.3
-78232
6179.77
-43584.4
18141.5
-10727.8
27621.7
8640.62
34986.7
23865
42010.5
35576.6
47727.9
44180.9
52153.6
50408.6
55612.4
54947.9
58434.4
58453.6
61078.1
61641.7
63827.5
64672
66438
67333
68716.4
69559.4
70607.1
71365.7
72144.1
72827.3
73405
74034.5
74459
75092
75382.2
76077.9
76228.1
77093.5
77039.9
78286.5
77839.8
79909.1
78473.4
120630
116053
115371
114590
113905
113516
113311
113152
113033
112898
112764
112605
112443
112249
112052
111812
111571
111265
110969
110583
110222
109733
109302
108675
108178
107376
106825
105791
105238
103864
103402
101502
101276
98535.7
98806
94746
95967.5
89844.2
92818.2
83456.1
89503.6
75348.9
86135.6
65279.6
82832.2
52300.1
78856.5
32165.9
70196.2
-1573.24
55809.2
-58528.9
18941.8
-259489
-13323.3
-78331.8
6158.23
-43607.6
18112.7
-10743.2
27613
8635.02
34980.8
23858.7
42005.1
35571.2
47724
44176.4
52150.5
50404.7
55609.7
54944.4
58431.7
58449.5
61073.8
61636.2
63822.2
64666.8
66433.8
67329.2
68713.3
69556.7
70604.7
71363.6
72142
72825.4
73402.9
74032.8
74456.8
75090.3
75379.7
76076.4
76225
77092.2
77035.4
78286.1
77832.9
79911.5
78463.7
120404
116015
115358
114564
113893
113508
113306
113149
113031
112896
112762
112602
112441
112247
112049
111809
111567
111261
110965
110578
110217
109727
109297
108668
108171
107367
106818
105781
105229
103852
103392
101488
101265
98518.9
98792.6
94726.6
95951.9
89822.3
92798.7
83431.9
89479.3
75323.7
86108.5
65255.5
82805.1
52275.5
78820.4
32126.7
70134
-1631.67
55715.3
-58641.7
18887.1
-258157
-13115
-78432.2
6135.65
-43631.8
18084.3
-10757.7
27605
8629.28
34974.5
23851.6
41999.2
35565.1
47719.7
44171.5
52147
50400.5
55606.7
54940.5
58428.7
58445.1
61069.3
61630.5
63816.9
64661.5
66429.5
67325.3
68710.1
69553.8
70602.2
71361.2
72139.8
72823.3
73400.6
74031
74454.4
75088.6
75377.1
76074.8
76221.7
77090.9
77030.7
78285.5
77825.8
79913.8
78453.8
120187
115978
115344
114538
113881
113501
113303
113147
113029
112894
112760
112600
112438
112244
112047
111806
111564
111258
110961
110573
110213
109721
109291
108662
108165
107359
106810
105771
105221
103840
103382
101473
101253
98502.2
98779.6
94707.5
95936.7
89800.7
92779.9
83408.4
89455.9
75299.3
86082.3
65232.2
82778.9
52251.7
78785.3
32088.4
70073.1
-1688.73
55623.4
-58749.6
18838.3
-256832
-12909.6
-78533.1
6112.11
-43656.7
18056.3
-10771.6
27597.8
8623.32
34967.7
23843.9
41992.8
35558.5
47714.9
44166.2
52143.1
50396
55603.4
54936.3
58425.5
58440.4
61064.5
61624.7
63811.4
64656.1
66425.1
67321.3
68706.8
69550.8
70599.6
71358.8
72137.4
72821.1
73398.2
74029.1
74452
75086.7
75374.3
76073.1
76218.4
77089.4
77025.9
78284.8
77818.4
79916
78443.7
119978
115941
115329
114513
113869
113494
113299
113144
113028
112892
112758
112598
112436
112241
112044
111802
111561
111254
110957
110569
110208
109716
109286
108655
108159
107351
106803
105761
105212
103827
103373
101459
101242
98485.7
98766.9
94688.6
95921.9
89779.5
92761.7
83385.4
89433.4
75275.6
86057.1
65209.7
82753.6
52228.5
78751.2
32050.9
70013.5
-1744.49
55533.5
-58852.8
18794.9
-255515
-12707.1
-78634.3
6087.73
-43682.5
18028.6
-10784.8
27591.2
8617.1
34960.5
23835.6
41986
35551.4
47709.8
44160.4
52139
50391.1
55599.9
54931.8
58421.9
58435.4
61059.5
61618.6
63805.8
64650.6
66420.7
67317.2
68703.4
69547.7
70596.8
71356.2
72134.9
72818.8
73395.7
74027.1
74449.4
75084.7
75371.5
76071.3
76214.9
77087.9
77020.9
78283.9
77810.9
79917.9
78433.5
119778
115905
115313
114487
113857
113487
113295
113142
113026
112891
112756
112596
112434
112239
112041
111799
111557
111250
110953
110564
110203
109710
109281
108648
108152
107343
106796
105751
105204
103815
103363
101445
101232
98469.4
98754.6
94669.9
95907.6
89758.6
92744.1
83362.9
89411.7
75252.6
86032.8
65187.8
82729.1
52206
78718
32014.3
69955.1
-1799
55445.3
-58951.5
18756.5
-254206
-12507.4
-78735.6
6062.61
-43708.9
18001.3
-10797.5
27585
8610.6
34952.8
23826.7
41978.6
35543.8
47704.3
44154.3
52134.5
50385.8
55596.1
54927
58418.1
58430.1
61054.3
61612.4
63800.1
64645
66416.1
67313.1
68699.9
69544.5
70594
71353.6
72132.3
72816.4
73393.2
74025.1
74446.8
75082.7
75368.6
76069.4
76211.3
77086.2
77015.9
78282.8
77803.3
79919.7
78423.2
119586
115868
115296
114462
113846
113480
113291
113140
113024
112889
112754
112594
112431
112236
112039
111796
111554
111246
110949
110560
110199
109705
109275
108642
108146
107335
106789
105740
105195
103803
103354
101431
101221
98453.3
98742.6
94651.5
95893.7
89738
92727.1
83340.8
89390.7
75230.2
86009.3
65166.6
82705.4
52184.1
78685.8
31978.5
69897.8
-1852.31
55359
-59045.8
18722.6
-252906
-12310.4
-78836.7
6036.84
-43735.9
17974.2
-10809.7
27579.2
8603.79
34944.7
23817.2
41970.9
35535.8
47698.5
44147.7
52129.8
50380.3
55592
54922
58414.1
58424.6
61048.9
61606.1
63794.2
64639.3
66411.5
67308.8
68696.3
69541.2
70591
71350.8
72129.7
72814
73390.5
74022.9
74444.1
75080.6
75365.5
76067.5
76207.6
77084.4
77010.6
78281.6
77795.5
79921.3
78412.8
119401
115832
115277
114437
113834
113473
113288
113138
113023
112887
112753
112592
112429
112234
112036
111793
111551
111242
110946
110555
110195
109699
109270
108635
108140
107327
106782
105730
105187
103791
103345
101417
101211
98437.3
98730.9
94633.3
95880.2
89717.8
92710.6
83319.3
89370.4
75208.4
85986.6
65146
82682.5
52162.9
78654.3
31943.4
69841.5
-1904.47
55274.2
-59135.9
18693
-251615
-12115.8
-78937.5
6010.53
-43763.5
17947.4
-10821.6
27573.6
8596.65
34936.2
23807.3
41962.7
35527.3
47692.3
44140.9
52124.8
50374.6
55587.7
54916.7
58409.8
58418.8
61043.3
61599.5
63788.3
64633.5
66406.7
67304.4
68692.6
69537.8
70588
71348
72126.9
72811.4
73387.8
74020.7
74441.3
75078.4
75362.5
76065.4
76203.8
77082.5
77005.3
78280.3
77787.5
79922.7
78402.3
119222
115797
115258
114412
113823
113466
113284
113136
113021
112885
112751
112589
112427
112231
112033
111790
111548
111239
110942
110551
110190
109694
109265
108629
108134
107319
106774
105720
105179
103780
103336
101403
101201
98421.6
98719.4
94615.4
95867
89697.8
92694.5
83298.1
89350.8
75187.1
85964.5
65126
82660.1
52142.2
78623.7
31909.1
69786.3
-1955.53
55191.1
-59222.1
18667.2
-250334
-11923.6
-79037.9
5983.76
-43791.6
17920.8
-10833.1
27568.1
8589.17
34927.3
23796.8
41954.1
35518.5
47685.8
44133.7
52119.6
50368.5
55583.2
54911.2
58405.2
58412.8
61037.4
61592.8
63782.2
64627.6
66401.8
67299.9
68688.8
69534.3
70584.8
71345
72124.1
72808.8
73385
74018.4
74438.4
75076.1
75359.3
76063.3
76199.9
77080.5
76999.9
78278.8
77779.4
79924
78391.7
119050
115761
115238
114387
113812
113460
113281
113134
113020
112884
112749
112587
112425
112229
112031
111787
111545
111235
110938
110546
110186
109689
109260
108622
108128
107310
106767
105710
105171
103768
103327
101390
101191
98406
98708.3
94597.6
95854.2
89678.1
92679
83277.4
89331.7
75166.4
85943.1
65106.5
82638.5
52122.1
78593.7
31875.5
69732
-2005.53
55109.5
-59304.4
18645
-249061
-11733.4
-79137.7
5956.61
-43820.2
17894.4
-10844.4
27562.8
8581.35
34917.9
23785.9
41945.2
35509.2
47679
44126.3
52114.1
50362.3
55578.5
54905.5
58400.5
58406.6
61031.4
61586
63776
64621.6
66396.9
67295.3
68684.9
69530.7
70581.6
71342
72121.2
72806.1
73382.1
74016
74435.5
75073.8
75356.1
76061.1
76196
77078.4
76994.4
78277.1
77771.2
79925.1
78381.1
118884
115726
115217
114363
113801
113453
113278
113132
113019
112882
112747
112585
112423
112226
112028
111784
111542
111232
110935
110542
110182
109683
109255
108616
108122
107302
106760
105700
105163
103756
103319
101377
101182
98390.7
98697.4
94580.2
95841.7
89658.8
92663.8
83257
89313.2
75146.1
85922.3
65087.5
82617.4
52102.5
78564.5
31842.6
69678.6
-2054.52
55029.3
-59383
18626.2
-247799
-11545.3
-79236.7
5929.16
-43849.2
17868.2
-10855.5
27557.5
8573.17
34908.2
23774.5
41935.9
35499.6
47672
44118.6
52108.4
50355.8
55573.7
54899.5
58395.6
58400.1
61025.2
61579
63769.7
64615.5
66391.8
67290.6
68680.8
69527
70578.3
71338.9
72118.2
72803.4
73379.2
74013.6
74432.5
75071.4
75352.8
76058.9
76192
77076.3
76988.7
78275.3
77762.8
79926
78370.5
118724
115691
115196
114339
113790
113446
113275
113130
113017
112881
112746
112584
112421
112224
112026
111781
111539
111228
110931
110538
110178
109678
109250
108609
108116
107294
106753
105690
105155
103745
103310
101363
101172
98375.4
98686.7
94562.9
95829.5
89639.6
92649.1
83237
89295.1
75126.2
85902
65069
82596.8
52083.4
78535.9
31810.3
69626.1
-2102.52
54950.6
-59458
18610.5
-246546
-11358.9
-79334.8
5901.48
-43878.7
17842.1
-10866.6
27552.2
8564.64
34898
23762.7
41926.3
35489.7
47664.7
44110.6
52102.6
50349.2
55568.6
54893.4
58390.5
58393.5
61018.9
61571.8
63763.2
64609.3
66386.6
67285.8
68676.7
69523.2
70574.9
71335.8
72115.1
72800.5
73376.2
74011.1
74429.5
75069
75349.4
76056.5
76187.9
77074.1
76983
78273.4
77754.4
79926.7
78359.8
118570
115656
115173
114316
113780
113440
113272
113128
113016
112879
112744
112582
112419
112222
112024
111779
111536
111225
110928
110534
110173
109673
109245
108603
108110
107286
106746
105680
105148
103734
103302
101350
101163
98360.4
98676.3
94545.8
95817.6
89620.8
92634.7
83217.3
89277.6
75106.7
85882.3
65050.9
82576.7
52064.7
78508
31778.7
69574.5
-2149.59
54873.2
-59529.6
18597.7
-245302
-11174.1
-79431.8
5873.64
-43908.4
17816.1
-10877.6
27546.8
8555.74
34887.6
23750.6
41916.4
35479.5
47657.2
44102.4
52096.5
50342.4
55563.5
54887.2
58385.2
58386.8
61012.4
61564.5
63756.6
64602.9
66381.4
67280.9
68672.5
69519.4
70571.4
71332.5
72112
72797.7
73373.2
74008.5
74426.4
75066.5
75346
76054.2
76183.7
77071.7
76977.2
78271.4
77745.8
79927.2
78349.1
118420
115621
115150
114292
113769
113434
113269
113126
113015
112878
112743
112580
112417
112219
112021
111776
111533
111221
110924
110529
110169
109668
109240
108596
108104
107278
106739
105671
105140
103722
103294
101337
101154
98345.5
98666
94528.9
95805.9
89602.2
92620.7
83197.9
89260.4
75087.6
85863
65033.2
82557.1
52046.6
78480.7
31747.8
69523.7
-2195.75
54797.1
-59597.9
18587.6
-244069
-10990.8
-79527.8
5845.7
-43938.6
17790.3
-10888.6
27541.3
8546.49
34876.7
23738.1
41906.2
35469
47649.4
44094
52090.3
50335.4
55558.2
54880.8
58379.8
58379.8
61005.7
61557.1
63749.9
64596.4
66376
67275.9
68668.3
69515.4
70567.9
71329.2
72108.9
72794.8
73370.1
74006
74423.2
75064
75342.6
76051.7
76179.5
77069.3
76971.4
78269.2
77737.2
79927.5
78338.4
118276
115586
115127
114269
113759
113427
113266
113125
113014
112876
112741
112578
112415
112217
112019
111773
111530
111218
110921
110525
110165
109662
109235
108590
108098
107270
106732
105661
105133
103711
103286
101324
101145
98330.8
98656
94512.2
95794.5
89583.8
92606.9
83178.9
89243.6
75068.8
85844.1
65015.9
82537.9
52028.8
78454
31717.4
69473.6
-2241.03
54722.3
-59663
18579.9
-242846
-10808.8
-79622.4
5817.73
-43969
17764.5
-10899.7
27535.7
8536.87
34865.5
23725.2
41895.7
35458.2
47641.4
44085.4
52083.9
50328.3
55552.8
54874.3
58374.3
58372.8
60998.9
61549.5
63743.1
64589.9
66370.5
67270.8
68663.9
69511.4
70564.3
71325.9
72105.6
72791.8
73367
74003.3
74420.1
75061.5
75339.1
76049.3
76175.3
77066.9
76965.4
78266.9
77728.4
79927.7
78327.7
118136
115552
115103
114247
113749
113421
113263
113123
113013
112875
112740
112576
112413
112215
112017
111770
111528
111215
110918
110521
110161
109657
109230
108583
108093
107262
106726
105651
105125
103700
103278
101312
101136
98316.2
98646.2
94495.7
95783.4
89565.6
92593.5
83160.1
89227.2
75050.3
85825.6
64998.9
82519.2
52011.6
78427.9
31687.7
69424.3
-2285.47
54648.7
-59725.1
18574.5
-241632
-10627.9
-79715.7
5789.77
-43999.7
17738.8
-10910.9
27529.8
8526.89
34854
23712
41884.9
35447.1
47633.3
44076.7
52077.4
50321
55547.2
54867.6
58368.7
58365.6
60992
61541.8
63736.2
64583.2
66364.9
67265.6
68659.4
69507.3
70560.6
71322.5
72102.3
72788.8
73363.8
74000.7
74416.8
75058.8
75335.5
76046.7
76171
77064.3
76959.4
78264.5
77719.6
79927.6
78317
118001
115517
115079
114224
113738
113415
113260
113122
113012
112874
112738
112574
112411
112213
112014
111768
111525
111211
110914
110517
110157
109652
109225
108577
108087
107254
106719
105642
105118
103689
103270
101299
101128
98301.7
98636.6
94479.3
95772.4
89547.7
92580.4
83141.5
89211.1
75032.1
85807.4
64982.3
82500.8
51994.7
78402.3
31658.5
69375.7
-2329.1
54576.3
-59784.3
18571.3
-240429
-10448
-79807.5
5761.89
-44030.7
17713.1
-10922.3
27523.7
8516.55
34842.2
23698.5
41873.9
35435.9
47624.9
44067.7
52070.8
50313.7
55541.6
54860.9
58363
58358.3
60985
61534
63729.1
64576.4
66359.2
67260.3
68654.9
69503.1
70556.8
71319
72099
72785.7
73360.6
73998
74413.6
75056.2
75331.9
76044.2
76166.6
77061.7
76953.3
78261.9
77710.6
79927.4
78306.2
117871
115483
115054
114202
113729
113409
113258
113120
113011
112872
112737
112573
112409
112211
112012
111765
111522
111208
110911
110513
110153
109647
109220
108571
108081
107246
106712
105632
105111
103679
103263
101287
101120
98287.4
98627.1
94463.1
95761.7
89529.9
92567.5
83123.2
89195.3
75014.2
85789.5
64965.9
82482.7
51978.2
78377.3
31630
69327.9
-2371.95
54505
-59840.6
18569.9
-239235
-10269
-79897.8
5734.13
-44061.9
17687.5
-10933.9
27517.4
8505.85
34830
23684.7
41862.7
35424.4
47616.4
44058.6
52064.1
50306.2
55535.9
54854.1
58357.2
58351
60977.9
61526.1
63721.9
64569.5
66353.4
67255
68650.2
69498.9
70553
71315.5
72095.7
72782.7
73357.3
73995.2
74410.3
75053.5
75328.3
76041.6
76162.2
77059.1
76947.2
78259.3
77701.6
79927
78295.5
117745
115448
115029
114181
113719
113403
113255
113119
113010
112871
112735
112571
112408
112209
112010
111762
111519
111205
110908
110509
110149
109642
109216
108564
108075
107238
106705
105623
105104
103668
103255
101274
101111
98273.2
98617.8
94447.1
95751.2
89512.4
92554.9
83105.1
89179.7
74996.4
85771.9
64949.7
82464.9
51962
78352.7
31602
69280.6
-2414.06
54434.8
-59894.2
18570.4
-238051
-10090.8
-79986.4
5706.55
-44093.3
17661.9
-10945.8
27510.7
8494.78
34817.6
23670.6
41851.3
35412.7
47607.8
44049.4
52057.3
50298.7
55530.2
54847.2
58351.3
58343.5
60970.7
61518.1
63714.7
64562.5
66347.5
67249.5
68645.5
69494.5
70549.1
71311.9
72092.3
72779.6
73354.1
73992.5
74407
75050.8
75324.7
76038.9
76157.7
77056.4
76941
78256.5
77692.6
79926.3
78284.7
117623
115414
115003
114159
113709
113397
113253
113118
113009
112870
112734
112569
112406
112206
112008
111760
111517
111202
110905
110505
110145
109637
109211
108558
108069
107230
106699
105613
105097
103657
103248
101262
101103
98259.1
98608.6
94431.1
95740.8
89495
92542.5
83087.2
89164.4
74978.8
85754.6
64933.8
82447.5
51946.2
78328.7
31574.5
69234.1
-2455.45
54365.7
-59945.3
18572.4
-236878
-9913.18
-80073.2
5679.18
-44125
17636.2
-10958.1
27503.7
8483.36
34804.9
23656.2
41839.6
35400.8
47599
44040
52050.4
50291
55524.4
54840.3
58345.5
58336
60963.4
61510
63707.3
64555.3
66341.5
67243.9
68640.7
69490.2
70545.2
71308.3
72088.8
72776.4
73350.8
73989.7
74403.7
75048.1
75321
76036.2
76153.3
77053.6
76934.8
78253.6
77683.4
79925.5
78274
117505
115380
114978
114138
113699
113391
113250
113116
113009
112869
112733
112568
112404
112204
112006
111757
111514
111198
110901
110501
110142
109632
109206
108551
108063
107221
106692
105604
105090
103647
103241
101250
101095
98245.1
98599.6
94415.4
95730.7
89477.8
92530.3
83069.4
89149.3
74961.4
85737.4
64918.1
82430.3
51930.8
78305.1
31547.6
69188.2
-2496.16
54297.5
-59993.9
18575.9
-235714
-9736.06
-80158.3
5652.07
-44156.8
17610.6
-10970.7
27496.4
8471.58
34791.9
23641.7
41827.8
35388.7
47590.1
44030.6
52043.4
50283.4
55518.6
54833.4
58339.5
58328.5
60956
61501.8
63699.8
64548.1
66335.4
67238.3
68635.9
69485.7
70541.3
71304.6
72085.3
72773.2
73347.5
73986.9
74400.3
75045.4
75317.3
76033.5
76148.8
77050.8
76928.5
78250.6
77674.2
79924.5
78263.2
117390
115346
114952
114118
113690
113385
113248
113115
113008
112868
112732
112566
112402
112202
112004
111755
111512
111195
110898
110497
110138
109627
109201
108545
108057
107213
106686
105594
105083
103636
103233
101238
101087
98231.2
98590.7
94399.7
95720.7
89460.7
92518.3
83051.8
89134.3
74944.2
85720.4
64902.5
82413.3
51915.6
78282
31521.1
69142.9
-2536.22
54230.4
-60040.1
18580.6
-234560
-9559.34
-80241.4
5625.26
-44188.8
17584.9
-10983.7
27488.7
8459.45
34778.7
23626.8
41815.8
35376.5
47581.1
44021
52036.3
50275.6
55512.7
54826.4
58333.6
58320.9
60948.6
61493.5
63692.2
64540.8
66329.1
67232.6
68630.9
69481.2
70537.2
71301
72081.8
72770.1
73344.2
73984
74397
75042.6
75313.6
76030.8
76144.2
77047.9
76922.2
78247.5
77665
79923.3
78252.4
117280
115313
114926
114097
113681
113380
113246
113114
113007
112867
112730
112564
112401
112200
112002
111752
111509
111192
110895
110493
110134
109621
109196
108538
108051
107205
106679
105585
105077
103626
103226
101226
101079
98217.5
98582
94384.1
95710.8
89443.8
92506.4
83034.4
89119.5
74927
85703.6
64887.1
82396.5
51900.8
78259.3
31495.2
69098.1
-2575.67
54164.3
-60084.1
18586.6
-233415
-9382.93
-80322.6
5598.78
-44221
17559.2
-10997.2
27480.6
8446.98
34765.3
23611.8
41803.6
35364.1
47572
44011.4
52029.3
50267.9
55506.9
54819.5
58327.7
58313.4
60941.2
61485.2
63684.6
64533.4
66322.8
67226.7
68625.9
69476.6
70533.2
71297.2
72078.3
72766.9
73340.8
73981.2
74393.6
75039.8
75309.8
76028.1
76139.7
77045
76915.9
78244.3
77655.6
79921.9
78241.6
117173
115279
114900
114077
113672
113374
113244
113113
113006
112866
112729
112563
112399
112198
112000
111750
111506
111189
110892
110489
110130
109616
109191
108531
108045
107197
106672
105576
105070
103615
103219
101214
101071
98203.7
98573.3
94368.7
95701.1
89427
92494.7
83017
89104.9
74909.9
85686.8
64871.8
82379.9
51886.2
78237.1
31469.8
69053.9
-2614.53
54099
-60125.9
18593.5
-232280
-9206.71
-80401.7
5572.68
-44253.3
17533.4
-11011.1
27472.1
8434.15
34751.6
23596.6
41791.3
35351.6
47562.8
44001.6
52022.1
50260.1
55501
54812.5
58321.8
58305.8
60933.7
61476.8
63676.8
64525.9
66316.4
67220.8
68620.8
69472
70529.1
71293.5
72074.7
72763.6
73337.5
73978.4
74390.2
75037.1
75306.1
76025.3
76135.1
77042
76909.5
78241
77646.3
79920.3
78230.9
117070
115246
114873
114058
113663
113369
113242
113112
113006
112865
112728
112561
112398
112196
111998
111747
111504
111186
110889
110485
110126
109611
109186
108525
108040
107189
106666
105567
105063
103605
103212
101202
101064
98190.1
98564.8
94353.3
95691.4
89410.3
92483.1
82999.8
89090.3
74892.9
85670.2
64856.6
82363.5
51871.9
78215.3
31444.8
69010.3
-2652.85
54034.7
-60165.7
18601.3
-231155
-9030.61
-80478.7
5546.97
-44285.8
17507.5
-11025.6
27463.2
8420.99
34737.7
23581.2
41778.9
35339
47553.5
43991.9
52015
50252.3
55495.1
54805.5
58315.9
58298.3
60926.3
61468.3
63669
64518.3
66309.9
67214.8
68615.7
69467.3
70524.9
71289.7
72071.2
72760.4
73334.1
73975.5
74386.8
75034.3
75302.4
76022.5
76130.5
77039.1
76903.1
78237.6
77636.8
79918.5
78220.1
116970
115213
114847
114039
113654
113364
113240
113111
113005
112863
112727
112560
112396
112194
111995
111745
111501
111183
110886
110481
110122
109606
109181
108518
108034
107181
106660
105557
105057
103594
103205
101190
101056
98176.6
98556.3
94338.1
95682
89393.7
92471.7
82982.6
89075.9
74876
85653.7
64841.4
82347.2
51857.8
78193.9
31420.3
68967.1
-2690.64
53971.2
-60203.5
18609.8
-230039
-8854.55
-80553.5
5521.7
-44318.4
17481.6
-11040.7
27453.8
8407.49
34723.6
23565.6
41766.3
35326.2
47544.2
43982
52007.8
50244.5
55489.3
54798.6
58310
58290.7
60918.8
61459.8
63661.1
64510.6
66303.3
67208.8
68610.4
69462.6
70520.7
71285.9
72067.6
72757.2
73330.8
73972.6
74383.4
75031.5
75298.6
76019.7
76125.9
77036
76896.7
78234.2
77627.4
79916.6
78209.3
116873
115181
114821
114020
113645
113358
113238
113110
113005
112862
112725
112558
112394
112192
111993
111742
111499
111180
110882
110477
110118
109600
109176
108511
108027
107173
106653
105548
105050
103584
103198
101178
101049
98163.1
98548
94322.9
95672.6
89377.2
92460.3
82965.5
89061.5
74859.1
85637.1
64826.3
82331
51844
78172.9
31396.1
68924.5
-2727.95
53908.5
-60239.4
18618.9
-228933
-8678.45
-80626.1
5496.88
-44351.1
17455.7
-11056.3
27444
8393.66
34709.3
23549.8
41753.7
35313.4
47534.8
43972.2
52000.7
50236.6
55483.5
54791.7
58304.3
58283.3
60911.3
61451.3
63653.1
64502.8
66296.7
67202.6
68605.1
69457.9
70516.5
71282.1
72064
72753.9
73327.4
73969.8
74380
75028.7
75294.8
76016.9
76121.3
77033
76890.3
78230.6
77617.8
79914.4
78198.4
116779
115148
114795
114001
113637
113353
113236
113109
113004
112861
112724
112557
112393
112191
111991
111740
111496
111176
110879
110472
110114
109595
109171
108504
108021
107164
106647
105539
105043
103574
103191
101166
101041
98149.6
98539.7
94307.7
95663.3
89360.8
92449.1
82948.5
89047.2
74842.1
85620.7
64811.2
82315
51830.3
78152.3
31372.4
68882.3
-2764.8
53846.7
-60273.7
18628.4
-227836
-8502.23
-80696.5
5472.54
-44384
17429.6
-11072.6
27433.7
8379.5
34694.9
23533.9
41741
35300.5
47525.4
43962.2
51993.5
50228.8
55477.8
54784.9
58298.5
58275.8
60903.9
61442.7
63645
64494.9
66289.9
67196.4
68599.8
69453.1
70512.3
71278.3
72060.4
72750.7
73324
73966.9
74376.6
75025.9
75291.1
76014.1
76116.7
77029.9
76883.8
78227
77608.3
79912
78187.6
116689
115116
114769
113983
113629
113348
113234
113109
113004
112861
112723
112555
112391
112189
111989
111737
111494
111173
110876
110468
110109
109589
109166
108497
108015
107156
106640
105530
105037
103563
103184
101154
101034
98136.2
98531.5
94292.6
95654.1
89344.4
92437.9
82931.4
89032.9
74825.2
85604.3
64796
82299.1
51816.9
78132.1
31349.1
68840.5
-2801.23
53785.6
-60306.2
18638.3
-226747
-8325.83
-80764.6
5448.71
-44417
17403.5
-11089.5
27423
8365.02
34680.3
23517.9
41728.1
35287.5
47515.9
43952.3
51986.4
50221.1
55472.1
54778.1
58292.9
58268.5
60896.5
61434.1
63636.9
64487
66283.1
67190.1
68594.4
69448.2
70508
71274.5
72056.8
72747.5
73320.7
73964.1
74373.3
75023.1
75287.3
76011.2
76112.1
77026.8
76877.3
78223.3
77598.7
79909.5
78176.7
116601
115084
114743
113966
113621
113344
113233
113108
113003
112860
112722
112554
112390
112187
111987
111735
111491
111170
110872
110464
110105
109583
109160
108490
108009
107148
106634
105521
105030
103553
103177
101143
101026
98122.8
98523.3
94277.6
95644.9
89328.1
92426.8
82914.3
89018.7
74808.2
85587.8
64780.9
82283.2
51803.6
78112.2
31326.1
68799.2
-2837.28
53725.3
-60337.2
18648.4
-225668
-8149.2
-80830.3
5425.39
-44450.1
17377.2
-11107.1
27411.8
8350.23
34665.6
23501.7
41715.3
35274.4
47506.5
43942.4
51979.3
50213.3
55466.4
54771.4
58287.4
58261.2
60889.1
61425.5
63628.8
64479
66276.2
67183.7
68588.9
69443.3
70503.7
71270.6
72053.2
72744.2
73317.3
73961.2
74369.9
75020.3
75283.6
76008.4
76107.4
77023.7
76870.8
78219.5
77589
79906.8
78165.8
116516
115053
114717
113949
113613
113339
113231
113107
113003
112859
112721
112552
112388
112185
111985
111732
111488
111166
110869
110459
110100
109578
109155
108483
108003
107140
106627
105511
105024
103543
103171
101131
101019
98109.4
98515.2
94262.5
95635.9
89311.8
92415.7
82897.3
89004.4
74791.2
85571.4
64765.7
82267.4
51790.4
78092.6
31303.4
68758.3
-2872.97
53665.8
-60366.7
18658.6
-224598
-7972.26
-80893.6
5402.6
-44483.4
17350.9
-11125.4
27400.2
8335.14
34650.7