/*--------------------------------*- C++ -*----------------------------------*\
| =========                 |                                                 |
| \\      /  F ield         | OpenFOAM: The Open Source CFD Toolbox           |
|  \\    /   O peration     | Version:  2412                                  |
|   \\  /    A nd           | Website:  www.openfoam.com                      |
|    \\/     M anipulation  |                                                 |
\*---------------------------------------------------------------------------*/
FoamFile
{
    version     2.0;
    format      ascii;
    arch        "LSB;label=32;scalar=64";
    class       surfaceScalarField;
    location    "0.2";
    object      phi;
}
// * * * * * * * * * * * * * * * * * * * * * * * * * * * * * * * * * * * * * //

dimensions      [0 3 -1 0 0 0 0];

oriented        oriented;

internalField   nonuniform List<scalar> 
155925
(
0.00839597
-0.000820215
0.00775245
0.000643531
0.00852622
-0.000773767
0.00872756
-0.000201339
0.00861868
0.000108883
0.00837495
0.000243728
0.00808189
0.000293065
0.00779278
0.000289116
0.00754846
0.000244326
0.00733014
0.000218324
0.0071383
0.000191846
0.0069535
0.000184803
0.00678456
0.000168945
0.006618
0.000166576
0.0064688
0.000149205
0.00632143
0.00014737
0.00619831
0.000123129
0.00607195
0.000126372
0.00597618
9.57678e-05
0.00587035
0.00010584
0.00580251
6.78517e-05
0.00571342
8.90969e-05
0.00567603
3.73913e-05
0.00559589
8.01543e-05
0.00558786
8.02744e-06
0.00550484
8.3033e-05
0.00552509
-2.02482e-05
0.00542517
9.99301e-05
0.00548642
-6.12498e-05
0.00536019
0.000126238
0.00549781
-0.000137622
0.00535357
0.000144247
0.0056059
-0.000252328
0.00543281
0.000173094
0.00580205
-0.000369238
0.00556268
0.000239376
0.00605492
-0.000492239
0.00577423
0.000280698
0.00640298
-0.000628749
0.0061193
0.00028369
0.00671249
-0.000593194
0.00626496
0.000447535
0.00677439
-0.000509424
0.00607357
0.00070082
0.00661997
-0.000546396
0.00571055
0.000909421
0.00643416
-0.000723612
0.00547693
0.00095723
0.00634565
-0.000868714
0.00533687
0.00100878
0.00640723
-0.00107036
0.00581116
0.000596076
0.0077842
-0.00197305
0.00506349
0.00272074
0.00551684
-0.000453394
0.00445009
0.00106675
0.00517347
-0.000723393
0.0045753
0.000598172
0.00544134
-0.000866048
0.00538885
5.24886e-05
0.00618024
-0.000791394
0.00599518
0.000185066
0.00640315
-0.000407971
0.00608379
0.000319357
0.00633617
-0.000252387
0.00604782
0.000288346
0.00623628
-0.000188455
0.00600624
0.00023003
0.00615023
-0.000143978
0.00598878
0.000161442
0.00612295
-0.000134187
0.00606635
5.66052e-05
0.00623863
-0.000172279
0.00631478
-7.61536e-05
0.00653638
-0.000221602
0.00668895
-0.000152566
0.00690771
-0.000218765
0.00705867
-0.000150966
0.00723105
-0.000172382
0.00734392
-0.000112863
0.00746282
-0.000118906
0.00754093
-7.81076e-05
0.00762136
-8.04337e-05
0.00768139
-6.00303e-05
0.00773994
-5.85512e-05
0.00779554
-5.56001e-05
0.00784318
-4.76445e-05
0.0079022
-5.90248e-05
0.00793986
-3.76619e-05
0.00800812
-6.82545e-05
0.00803151
-2.33973e-05
0.00811261
-8.11061e-05
0.00810743
5.18386e-06
0.00820439
-9.69721e-05
0.00813402
7.03804e-05
0.00826615
-0.000132138
0.00805133
0.000214816
0.00831176
-0.000260424
0.000464277
0.0110414
-0.00428589
0.0100303
0.00165462
0.0100069
-0.000750338
0.00995626
-0.000150687
0.00985301
0.000212139
0.00969513
0.000401617
0.00947356
0.000514629
0.00920483
0.000557856
0.00892968
0.000519472
0.00865886
0.000489155
0.00840843
0.000442274
0.00817249
0.000420753
0.00795778
0.000383661
0.00775432
0.000370039
0.00757057
0.000332953
0.00739475
0.000323199
0.00724185
0.000276038
0.00709288
0.000275346
0.00697047
0.000218183
0.00684688
0.00022943
0.00675468
0.000160062
0.00665289
0.000190891
0.00659205
9.82337e-05
0.00650666
0.000165556
0.00647522
3.94692e-05
0.0063997
0.000158561
0.00639596
-1.65111e-05
0.00631787
0.000178028
0.00634637
-8.97478e-05
0.00626168
0.000210931
0.00634526
-0.000221198
0.00627027
0.00021924
0.00643201
-0.000414059
0.00636455
0.00024056
0.00658902
-0.000593716
0.00650603
0.000322377
0.00677277
-0.000758982
0.00669211
0.000361363
0.00698622
-0.000922858
0.00692431
0.0003456
0.007163
-0.000831882
0.00701977
0.000590764
0.00717264
-0.000662286
0.00688235
0.000991111
0.00699034
-0.000654392
0.00658342
0.00131634
0.00673686
-0.000877051
0.0063506
0.00134349
0.00660516
-0.00112327
0.00628511
0.00132884
0.00666886
-0.00145411
0.00685938
0.000405552
0.00809915
-0.00321282
0.00662774
0.00419217
0.00598017
0.000194156
0.00532789
0.00171902
0.00551895
-0.000914454
0.00539075
0.00072637
0.00589524
-0.00137054
0.00619385
-0.000246116
0.00670697
-0.00130452
0.0067618
0.000130234
0.00693168
-0.000577846
0.00681317
0.000437868
0.00687598
-0.000315204
0.00675149
0.000412834
0.00679039
-0.000227353
0.00668754
0.00033288
0.00671853
-0.000174965
0.00665258
0.000227386
0.00670071
-0.000182326
0.00670304
5.42759e-05
0.00680783
-0.000277071
0.0069098
-0.000178118
0.00708711
-0.000398919
0.00725922
-0.000324674
0.00745754
-0.000417086
0.00762827
-0.000321691
0.00779334
-0.000337457
0.00792449
-0.000244015
0.00804433
-0.000238748
0.00814017
-0.000173942
0.00822964
-0.000169912
0.00830799
-0.000138376
0.00838371
-0.000134269
0.00845811
-0.000130006
0.00853014
-0.00011968
0.008607
-0.00013588
0.0086764
-0.000107061
0.00875784
-0.000149702
0.00882134
-8.68922e-05
0.00890625
-0.000166021
0.00895341
-4.19768e-05
0.00904134
-0.000184904
0.00905102
6.07017e-05
0.00914168
-0.000222806
0.00907019
0.000286314
0.009204
-0.000394234
0.000642199
0.00899276
-0.00570289
0.00976084
0.000886549
0.0103632
-0.00135271
0.0103993
-0.000186769
0.0102653
0.000346145
0.0100768
0.000590118
0.00985057
0.000740853
0.00959661
0.000811816
0.00933771
0.00077838
0.00907856
0.000748302
0.00883214
0.000688701
0.0085974
0.000655494
0.00838155
0.000599518
0.00817878
0.000572806
0.00799532
0.000516419
0.00782257
0.000495953
0.00767094
0.00042767
0.00752627
0.000420025
0.0074048
0.000339648
0.0072857
0.000348539
0.00719312
0.00025264
0.00709594
0.000288082
0.00703257
0.00016161
0.00695236
0.000245764
0.00691601
7.58222e-05
0.00684613
0.000228447
0.00683479
-5.16891e-06
0.00676543
0.000247397
0.00678319
-0.00010751
0.00671456
0.000279567
0.00677895
-0.000285592
0.00672622
0.00027198
0.00684086
-0.000528699
0.00680035
0.000281074
0.00694686
-0.000740233
0.00690766
0.00036158
0.0070718
-0.000923119
0.00704399
0.000389175
0.0072121
-0.00109096
0.00719957
0.000358127
0.00732624
-0.000958554
0.0072571
0.000659908
0.00730806
-0.000713247
0.007124
0.00117518
0.00710742
-0.000637816
0.00683207
0.0015917
0.00682584
-0.000870827
0.00659072
0.00157862
0.00668428
-0.00121684
0.00655865
0.00145448
0.00676836
-0.00166381
0.00717448
-5.72056e-07
0.00815983
-0.00419817
0.00711762
0.00523438
0.00620622
0.00110554
0.00564276
0.00228248
0.00569983
-0.00097152
0.005709
0.000717193
0.0061485
-0.00181004
0.00653029
-0.000627905
0.00694861
-0.00172284
0.007043
3.58432e-05
0.00713684
-0.000671683
0.00706662
0.000508084
0.00707903
-0.000327612
0.00699742
0.000494443
0.00699651
-0.00022645
0.00692783
0.000401565
0.00692961
-0.000176749
0.0068913
0.000265698
0.00691956
-0.000210595
0.00693957
3.42737e-05
0.00702768
-0.000365182
0.00713636
-0.000286798
0.00730168
-0.000564239
0.00747793
-0.000500924
0.00767
-0.000609162
0.00784414
-0.000495827
0.00800574
-0.000499057
0.00814003
-0.000378308
0.00825901
-0.000357721
0.00835896
-0.0002739
0.008451
-0.000261946
0.00853517
-0.000222547
0.00861712
-0.000216216
0.0086989
-0.000211789
0.0087805
-0.000201281
0.00886558
-0.000220962
0.00894785
-0.000189336
0.00903689
-0.000238741
0.00911676
-0.000166756
0.0092064
-0.00025567
0.00927472
-0.000110291
0.00935963
-0.000269821
0.00939977
2.05686e-05
0.00947133
-0.000294375
0.00945175
0.000305896
0.00952883
-0.000471311
0.000739773
0.00890735
-0.00703448
0.00951247
0.000281429
0.010161
-0.0020012
0.0102914
-0.000317159
0.0102336
0.000403853
0.010083
0.000740747
0.00987863
0.000945245
0.00964595
0.00104449
0.00940802
0.00101631
0.00917042
0.000985905
0.00894265
0.000916476
0.00872491
0.000873237
0.00852299
0.000801435
0.00833377
0.000762029
0.00816195
0.000688245
0.00800171
0.000656193
0.00786054
0.000568848
0.00772801
0.000552553
0.00761585
0.000451815
0.00750828
0.000456112
0.00742337
0.000337552
0.0073369
0.000374552
0.0072788
0.000219713
0.0072085
0.000316068
0.00717478
0.000109546
0.00711398
0.00028925
0.00710247
6.3474e-06
0.00704305
0.000306822
0.0070576
-0.000122063
0.00700251
0.000334664
0.00705195
-0.000335029
0.00701036
0.000313575
0.00708609
-0.000604434
0.00705613
0.000311044
0.00715102
-0.000835124
0.00713085
0.000381748
0.00723809
-0.00103036
0.00723077
0.0003965
0.00734007
-0.00120026
0.00734212
0.00035607
0.00742179
-0.00103822
0.00737679
0.000704907
0.00738743
-0.000723885
0.00724033
0.00132228
0.00717385
-0.000571341
0.00694435
0.0018212
0.00687462
-0.000801105
0.00669548
0.00175776
0.00673178
-0.00125314
0.00668339
0.00150287
0.00683152
-0.00181195
0.00731598
-0.000485028
0.00818609
-0.00506829
0.00734701
0.00607347
0.00634254
0.00211
0.0058174
0.00280762
0.00582928
-0.000983398
0.00590666
0.000639809
0.00633224
-0.00223563
0.00673825
-0.00103392
0.00710191
-0.0020865
0.00719631
-5.8557e-05
0.00725412
-0.000729488
0.00720032
0.000561885
0.00719306
-0.000320361
0.00712742
0.000560091
0.00711072
-0.000209755
0.00705495
0.000457338
0.00704573
-0.000167526
0.00701906
0.000292361
0.00704108
-0.000232617
0.00706965
5.69997e-06
0.00715313
-0.000448659
0.00726584
-0.000399509
0.00742764
-0.000726031
0.00760556
-0.000678847
0.00779474
-0.000798347
0.00796896
-0.000670039
0.00812784
-0.000657946
0.00826187
-0.000512332
0.00837932
-0.000475174
0.00847998
-0.000374563
0.00857257
-0.000354536
0.00865898
-0.000308954
0.00874372
-0.000300958
0.00882911
-0.000297174
0.00891546
-0.000287633
0.00900506
-0.000310568
0.0090939
-0.000278171
0.00918756
-0.000332402
0.00927568
-0.000254886
0.00936893
-0.000348916
0.00944766
-0.000189017
0.00953285
-0.000355017
0.00958729
-3.38718e-05
0.00965199
-0.00035907
0.00965602
0.000301866
0.00970839
-0.000523678
0.000799104
0.00893494
-0.00839366
0.00953688
-0.000320505
0.00998668
-0.002451
0.0101191
-0.000449618
0.0101043
0.000418691
0.00998667
0.000858378
0.00980614
0.00112577
0.00959335
0.00125729
0.00937247
0.00123719
0.00915181
0.00120657
0.00893966
0.00112862
0.00873702
0.00107588
0.00854837
0.000990082
0.00837201
0.000938389
0.00821146
0.000848801
0.00806285
0.000804801
0.00793166
0.000700046
0.00781035
0.00067386
0.00770732
0.000554856
0.00761087
0.000552562
0.00753421
0.000414211
0.00745894
0.000449829
0.0074077
0.000270951
0.00734871
0.000375067
0.00731999
0.000138259
0.00727044
0.000338813
0.00726138
1.54043e-05
0.00721393
0.000354273
0.0072265
-0.000134629
0.00718441
0.000376757
0.00721867
-0.000369289
0.00718615
0.000346095
0.00723399
-0.000652273
0.0072126
0.000332432
0.00727659
-0.000899112
0.0072677
0.000390636
0.00734358
-0.00110624
0.00734636
0.000393713
0.0074256
-0.00127949
0.00743272
0.00034895
0.00748802
-0.00109353
0.00745224
0.000740693
0.00744208
-0.00071372
0.00731027
0.00145409
0.00721795
-0.000479019
0.00700727
0.00203188
0.00690601
-0.000699846
0.00675319
0.00191058
0.00676561
-0.00126556
0.00675587
0.00151261
0.00687873
-0.0019348
0.00739706
-0.00100335
0.00820541
-0.00587665
0.0074709
0.00680799
0.00643315
0.00314774
0.00593491
0.00330586
0.00593356
-0.000982043
0.00605598
0.000517389
0.00648023
-0.00265988
0.00688991
-0.0014436
0.00721236
-0.00240894
0.0072966
-0.000142802
0.00733292
-0.000765807
0.00728607
0.000608732
0.00726916
-0.000303446
0.00721087
0.00061838
0.00718621
-0.000185102
0.00713655
0.000507006
0.00712232
-0.000153296
0.00710206
0.000312613
0.00712229
-0.000252843
0.0071565
-2.85091e-05
0.00723937
-0.000531529
0.00735544
-0.000515584
0.00751641
-0.000886998
0.00769518
-0.000857622
0.00788233
-0.000985493
0.00805541
-0.000843123
0.00821165
-0.000814186
0.00834421
-0.000644891
0.00845979
-0.000590754
0.00855993
-0.000474701
0.00865224
-0.000446852
0.0087395
-0.000396211
0.00882565
-0.000387108
0.00891308
-0.000384603
0.00900223
-0.000376786
0.0090947
-0.000403034
0.0091875
-0.000370975
0.00928427
-0.000429173
0.00937732
-0.000347933
0.00947319
-0.000444791
0.00955789
-0.000273712
0.00964393
-0.00044106
0.00970612
-9.60687e-05
0.00976781
-0.000420757
0.00978407
0.000285608
0.00982351
-0.000563123
0.000838172
0.00873627
-0.00955417
0.00949914
-0.00108338
0.00986173
-0.00281359
0.00998518
-0.000573061
0.0099841
0.000419772
0.00988108
0.000961399
0.0097147
0.00129215
0.00951565
0.00145634
0.00930743
0.00144542
0.00909954
0.00141446
0.00889954
0.00132862
0.00870879
0.00126664
0.0085309
0.00116797
0.00836491
0.00110439
0.00821354
0.00100016
0.00807414
0.000944202
0.00795092
0.000823273
0.00783826
0.00078652
0.00774237
0.000650751
0.00765443
0.000640503
0.00758423
0.000484408
0.00751771
0.000516356
0.007472
0.000316655
0.00742233
0.000424749
0.00739787
0.000162714
0.00735831
0.000378376
0.00735138
2.23353e-05
0.00731519
0.00039047
0.00732524
-0.000144681
0.0072949
0.000407101
0.00731783
-0.000392216
0.00729468
0.00036925
0.00732674
-0.000684336
0.00731349
0.000345686
0.00736046
-0.000946091
0.00735912
0.000391978
0.00741739
-0.0011645
0.00742595
0.000385155
0.00748832
-0.00134186
0.00749718
0.000340092
0.00753763
-0.00113397
0.00750544
0.000772883
0.00748225
-0.000690535
0.00735735
0.00157899
0.00724893
-0.000370595
0.00704681
0.002234
0.00692729
-0.000580333
0.00678968
0.0020482
0.00679144
-0.00126733
0.00680489
0.00149917
0.00691641
-0.00204632
0.0074515
-0.00153844
0.00822118
-0.00664633
0.00754575
0.00748341
0.00649892
0.00419457
0.00602391
0.00378087
0.00602357
-0.0009817
0.00618023
0.000360727
0.00660571
-0.00308536
0.00700936
-0.00184725
0.00729694
-0.00269652
0.00736853
-0.000214396
0.0073903
-0.000787579
0.00734699
0.000652044
0.0073245
-0.000280952
0.00727015
0.000672728
0.00724077
-0.000155721
0.00719455
0.000553221
0.00717782
-0.000136558
0.00716187
0.000328554
0.00718208
-0.000273049
0.0072207
-6.71271e-05
0.00730452
-0.000615349
0.00742358
-0.000634644
0.00758462
-0.00104804
0.0077637
-0.00103671
0.00794891
-0.00117071
0.00812021
-0.00101442
0.00827367
-0.000967653
0.00840419
-0.000775409
0.00851766
-0.000704223
0.00861669
-0.000573731
0.00870829
-0.000538448
0.00879571
-0.000483638
0.00888256
-0.000473956
0.00897123
-0.000473277
0.0090622
-0.000467752
0.00915663
-0.000497468
0.00925211
-0.000466452
0.0093511
-0.000528165
0.0094474
-0.000444232
0.0095452
-0.000542596
0.00963369
-0.000362199
0.00972054
-0.000527913
0.00978739
-0.000162914
0.00984746
-0.00048083
0.00987068
0.000262384
0.0099022
-0.00059464
0.000865664
0.00862554
-0.0106039
0.00943563
-0.00189348
0.00975977
-0.00313773
0.00987739
-0.000690682
0.0098797
0.000417462
0.00978156
0.00105954
0.00962223
0.00145149
0.00943201
0.00164655
0.0092332
0.00164424
0.00903542
0.00161223
0.00884543
0.00151862
0.00866455
0.00144751
0.00849579
0.00133674
0.00833851
0.00126167
0.00819496
0.00114372
0.00806319
0.00107597
0.00794663
0.000939831
0.00784091
0.000892247
0.00775083
0.000740831
0.00766948
0.000721855
0.0076044
0.000549494
0.00754448
0.000576279
0.00750304
0.000358096
0.00746035
0.000467442
0.00743904
0.000184025
0.00740714
0.000410276
0.00740153
2.79501e-05
0.00737442
0.00041758
0.00738246
-0.000152722
0.00736214
0.000427423
0.00737908
-0.000409163
0.00736464
0.000383692
0.00738916
-0.000708858
0.00738295
0.000351901
0.00742079
-0.000983932
0.00742476
0.000388007
0.00747269
-0.00121243
0.00748489
0.000372964
0.0075369
-0.00139388
0.00754606
0.000330936
0.00757624
-0.00116415
0.00754507
0.000804048
0.00751259
-0.000658054
0.00739078
0.0017008
0.00727108
-0.000250888
0.00707305
0.00243203
0.006942
-0.000449282
0.00681476
0.00217544
0.00681209
-0.00126466
0.00684136
0.0014699
0.0069477
-0.00215266
0.00749173
-0.00208247
0.00823381
-0.00738841
0.00759516
0.00812206
0.00655002
0.0052397
0.00609683
0.00423407
0.00610468
-0.000989556
0.00628907
0.00017634
0.00671509
-0.00351138
0.00710714
-0.0022393
0.00736379
-0.00295317
0.00742267
-0.000273283
0.00743391
-0.000798814
0.0073927
0.000693254
0.00736663
-0.000254881
0.00731462
0.000724738
0.00728213
-0.000123235
0.00723817
0.000597179
0.00722019
-0.000118571
0.00720757
0.000341165
0.0072286
-0.000294073
0.00727096
-0.000109489
0.00735636
-0.000700751
0.00747805
-0.00075633
0.00763936
-0.00120936
0.00781827
-0.00121561
0.00800139
-0.00135383
0.00817044
-0.00118347
0.00832095
-0.00111817
0.00844907
-0.000903523
0.00856025
-0.000815407
0.00865784
-0.000671314
0.00874844
-0.000629055
0.00883563
-0.00057083
0.00892275
-0.000561073
0.00901217
-0.0005627
0.00910436
-0.000559936
0.0092002
-0.000593308
0.00929756
-0.000563819
0.00939819
-0.000628791
0.00949676
-0.000542807
0.00959598
-0.000641818
0.00968702
-0.000453238
0.00977449
-0.000615376
0.00984429
-0.000232717
0.00990327
-0.000539818
0.0099307
0.000234963
0.00995668
-0.000620624
0.000886072
0.00855358
-0.0115818
0.00936566
-0.00270556
0.0096709
-0.00344296
0.00978524
-0.000805023
0.00978683
0.00041588
0.00968891
0.00115745
0.00953244
0.00160796
0.00934777
0.00183122
0.00915609
0.00183592
0.00896661
0.00180171
0.00878519
0.00170005
0.00861292
0.00161978
0.00845222
0.00149744
0.00830264
0.00141124
0.00816607
0.00128029
0.00804101
0.00120103
0.00793039
0.00105046
0.00783062
0.000992019
0.00774564
0.000825812
0.00766977
0.000797729
0.00760907
0.000610196
0.00755443
0.000630918
0.00751656
0.000395964
0.00747925
0.000504761
0.00746049
0.000202785
0.00743436
0.000436402
0.00742982
3.24889e-05
0.00740985
0.000437556
0.00741727
-0.000160144
0.00740518
0.000439516
0.00742002
-0.000423999
0.00741291
0.000390805
0.00743434
-0.000730295
0.00743386
0.000352381
0.00746674
-0.0010168
0.00747454
0.000380203
0.00751604
-0.00125393
0.00753064
0.000358369
0.00757573
-0.00143897
0.00758442
0.00032225
0.00760681
-0.00118654
0.0075753
0.000835558
0.00753558
-0.000618327
0.00741491
0.00182146
0.00728672
-0.000122694
0.00709071
0.00262804
0.00695209
-0.000310668
0.00683293
0.00229461
0.00682915
-0.00126088
0.00687021
0.00142884
0.00697442
-0.00225688
0.00752322
-0.00263126
0.00824368
-0.00810888
0.0076299
0.00873585
0.0065919
0.0062777
0.00615996
0.004666
0.00617985
-0.00100945
0.00638722
-3.10251e-05
0.00681191
-0.00393608
0.00718883
-0.00261622
0.00741745
-0.00318179
0.00746444
-0.000320278
0.00746777
-0.00080214
0.007428
0.000733028
0.00739946
-0.000226344
0.00734894
0.000775253
0.0073143
-8.85899e-05
0.00727201
0.000639463
0.00725352
-0.000100078
0.00724371
0.000350973
0.00726597
-0.000316335
0.00731164
-0.000155162
0.00739884
-0.000787947
0.00752277
-0.000880263
0.00768427
-0.00137085
0.00786252
-0.00139386
0.0080433
-0.00153462
0.0082097
-0.00134987
0.0083571
-0.00126556
0.00848255
-0.00102898
0.00859131
-0.000924168
0.00868723
-0.000767229
0.00877665
-0.000718476
0.00886333
-0.000657516
0.00895043
-0.000648164
0.00904026
-0.000652536
0.00913326
-0.000652934
0.0092301
-0.000690147
0.00932883
-0.000662556
0.00943066
-0.000730614
0.00953085
-0.000643004
0.00963109
-0.000742052
0.00972387
-0.000546021
0.00981171
-0.000703214
0.00988342
-0.00030443
0.0099415
-0.000597902
0.00997149
0.000204977
0.00999318
-0.000642315
0.000902136
0.00849751
-0.0125035
0.00929637
-0.00350442
0.00959053
-0.00373712
0.00970278
-0.000917271
0.0097018
0.000416859
0.00960185
0.0012574
0.00944586
0.00176395
0.00926462
0.00201246
0.00907846
0.00202208
0.00889598
0.00198419
0.00872208
0.00187394
0.0085575
0.00178436
0.00840414
0.0016508
0.00826158
0.00155381
0.00813143
0.00141043
0.0080125
0.00131997
0.00790734
0.00115561
0.00781296
0.00108641
0.00773266
0.000906107
0.00766164
0.000868753
0.00760494
0.000666899
0.00755482
0.000681037
0.0075202
0.000430587
0.00748728
0.000537676
0.00747085
0.00021922
0.0074493
0.000457955
0.00744603
3.57541e-05
0.00743193
0.000451659
0.00744008
-0.000168291
0.00743474
0.000444852
0.00744962
-0.000438874
0.00744845
0.000391972
0.007469
-0.000750838
0.00747308
0.000348301
0.00750317
-0.00104689
0.00751377
0.0003696
0.00755101
-0.00129117
0.0075672
0.000342174
0.00760728
-0.00147905
0.007615
0.00031453
0.00763105
-0.00120259
0.00759839
0.000868224
0.00755266
-0.0005726
0.0074321
0.00194202
0.00729726
1.21481e-05
0.00710231
0.00282299
0.00695878
-0.000167143
0.00684654
0.00240685
0.00684362
-0.00125796
0.00689401
0.00137846
0.00699768
-0.00236054
0.00754873
-0.00318231
0.00825114
-0.00881129
0.00765543
0.00933156
0.00662773
0.00730539
0.00621686
0.00507688
0.00625082
-0.00104341
0.00647727
-0.000257477
0.00689835
-0.00435715
0.00725777
-0.00297564
0.00746077
-0.00338478
0.00749699
-0.000356496
0.00749426
-0.000799417
0.00745559
0.0007717
0.00742527
-0.000196018
0.00737577
0.000824748
0.00733959
-5.2408e-05
0.00729868
0.000680368
0.00728017
-8.15613e-05
0.00727285
0.000358285
0.00729658
-0.000340061
0.00734523
-0.000203809
0.00743422
-0.00087694
0.00756
-0.00100604
0.00772141
-0.00153227
0.00789854
-0.00157098
0.00807669
-0.00171277
0.00824011
-0.00151329
0.0083842
-0.00140965
0.00850681
-0.00115159
0.00861304
-0.00103039
0.00870711
-0.000861304
0.0087952
-0.000806565
0.00888118
-0.000743494
0.00896802
-0.000735004
0.00905801
-0.000742528
0.00915151
-0.000746437
0.00924904
-0.000787675
0.00934875
-0.000762266
0.00945142
-0.000833288
0.00955276
-0.000744336
0.00965366
-0.000842954
0.0097476
-0.000639965
0.00983559
-0.000791206
0.0099085
-0.00037734
0.00996571
-0.000655113
0.00999721
0.000173474
0.0100153
-0.000660411
0.000915512
0.00844989
-0.0133777
0.00922953
-0.00428406
0.00951602
-0.00402362
0.00962662
-0.00102787
0.00962219
0.000421287
0.00951908
0.00136051
0.00936224
0.00192079
0.0091831
0.00219159
0.00900133
0.00220385
0.00882487
0.00216066
0.0086577
0.00204111
0.0085001
0.00194197
0.0083535
0.0017974
0.00821744
0.00168987
0.00809331
0.00153456
0.00798008
0.0014332
0.0078801
0.0012556
0.00779071
0.0011758
0.00771485
0.000981971
0.00764828
0.000935321
0.00759536
0.000719821
0.00754931
0.00072709
0.00751777
0.00046213
0.00748868
0.000566765
0.00747452
0.000233381
0.00745686
0.000475617
0.00745524
3.7379e-05
0.00744627
0.000460627
0.0074561
-0.000178122
0.00745641
0.000444549
0.00747237
-0.00045484
0.00747602
0.000388324
0.00749669
-0.000771512
0.00750437
0.000340625
0.00753282
-0.00107534
0.00754545
0.000356967
0.00757968
-0.00132539
0.00759688
0.000324974
0.00763306
-0.00151523
0.00763946
0.000308125
0.00765004
-0.00121317
0.00761567
0.000902589
0.00756477
-0.000521699
0.00744375
0.00206305
0.0073036
0.000152303
0.00710935
0.00301724
0.00696285
-2.06485e-05
0.00685697
0.00251274
0.00685613
-0.00125713
0.00691418
0.00132041
0.00701816
-0.00246452
0.00756981
-0.00373396
0.0082565
-0.00949798
0.00767481
0.00991324
0.00665954
0.00832066
0.00626967
0.00546675
0.00631866
-0.00109241
0.00656077
-0.000499583
0.00697587
-0.00477225
0.00731619
-0.00331597
0.00749568
-0.00356427
0.00752231
-0.000383126
0.00751492
-0.000792028
0.00747717
0.000809452
0.0074455
-0.00016435
0.00739675
0.000873497
0.00735948
-1.51385e-05
0.00731981
0.000720036
0.00730161
-6.33607e-05
0.0072966
0.000363295
0.0073219
-0.000365363
0.00737323
-0.000255135
0.0074639
-0.000967613
0.0075911
-0.00113324
0.00775211
-0.00169328
0.00792766
-0.00174653
0.00810286
-0.00188796
0.00826301
-0.00167345
0.00840363
-0.00155027
0.00852323
-0.00127119
0.00862682
-0.00113398
0.00871894
-0.000953421
0.00880558
-0.000893201
0.00889069
-0.000828605
0.0089771
-0.000821414
0.00906703
-0.00083246
0.00916079
-0.000840196
0.00925874
-0.000885631
0.0093591
-0.00086262
0.00946233
-0.000936516
0.00956441
-0.000846418
0.00966569
-0.000944236
0.00976035
-0.000734623
0.00984826
-0.000879121
0.00992184
-0.00045092
0.00997813
-0.000711406
0.0100104
0.000141181
0.0100253
-0.000675302
0.000927433
0.00840752
-0.0142094
0.00916531
-0.00504184
0.00944578
-0.00430408
0.00955481
-0.0011369
0.00954645
0.000429644
0.00943961
0.00146736
0.00928118
0.00207922
0.00910331
0.00236946
0.00892516
0.002382
0.00875398
0.00233183
0.0085929
0.0022022
0.00844172
0.00209315
0.00830142
0.0019377
0.00817144
0.00181984
0.00805299
0.00165302
0.00794516
0.00154102
0.0078501
0.00135066
0.00776545
0.00126045
0.00769383
0.00105359
0.00763146
0.000997695
0.00758217
0.000769106
0.0075399
0.000769367
0.00751135
0.00049068
0.00748574
0.000592374
0.00747388
0.000245242
0.00745974
0.00048976
0.00746014
3.69812e-05
0.00745589
0.000464871
0.00746799
-0.000190214
0.00747309
0.000439446
0.0074906
-0.000472352
0.00749818
0.000380749
0.00751942
-0.000792757
0.00752993
0.000330117
0.00755734
-0.00110275
0.00757141
0.000342889
0.00760334
-0.00135732
0.0076211
0.000307219
0.00765402
-0.00154815
0.00765884
0.000303308
0.00766449
-0.00121882
0.00762805
0.000939025
0.00757256
-0.000466204
0.00745079
0.00218482
0.00730637
0.000296716
0.0071128
0.00321082
0.00696485
0.000127298
0.00686505
0.00261254
0.00686709
-0.00125916
0.00693161
0.00125588
0.00703635
-0.00256926
0.0075874
-0.00428501
0.00825998
-0.0101706
0.00768988
0.0104833
0.00668864
0.00932191
0.00631975
0.00583564
0.00638406
-0.00115672
0.00663869
-0.000754214
0.00704552
-0.00517909
0.00736569
-0.00363614
0.00752357
-0.00372215
0.00754177
-0.00040133
0.00753078
-0.000781035
0.00749384
0.000846392
0.00746114
-0.000131648
0.00741298
0.000921659
0.00737497
2.28719e-05
0.00733648
0.000758525
0.00731885
-4.57296e-05
0.00731599
0.000366147
0.00734291
-0.000392282
0.00739666
-0.000308882
0.00748882
-0.00105978
0.00761703
-0.00126145
0.00777724
-0.00185349
0.00795078
-0.00192007
0.00812272
-0.00205991
0.00827933
-0.00183006
0.00841634
-0.00168728
0.00853279
-0.00138764
0.00863366
-0.00123486
0.00872372
-0.00104347
0.0088088
-0.000978282
0.00889291
-0.000912714
0.00897873
-0.00090724
0.00906843
-0.000922156
0.00916223
-0.000933997
0.00926038
-0.000983783
0.00936111
-0.000963351
0.00946463
-0.00104004
0.00956714
-0.000948923
0.00966853
-0.00104563
0.00976353
-0.000829625
0.00985116
-0.000966747
0.009925
-0.000524757
0.00998029
-0.000766695
0.0100128
0.000108631
0.0100248
-0.000687224
0.000938713
0.00836878
-0.0150024
0.00910358
-0.00577664
0.00937879
-0.0045793
0.00948613
-0.00124424
0.00947354
0.000442229
0.0093627
0.0015782
0.00920231
0.00223961
0.00902522
0.00254656
0.00885017
0.00255705
0.00868374
0.00249827
0.00852823
0.0023577
0.00838299
0.0022384
0.00824858
0.00207211
0.00812433
0.00194409
0.00801128
0.00176607
0.00790859
0.00164372
0.00781824
0.00144101
0.00773811
0.00134058
0.00767059
0.00112112
0.00761222
0.00105607
0.00756646
0.000814864
0.00752776
0.000808063
0.00750215
0.000516297
0.0074798
0.000614728
0.00747029
0.000254752
0.00745949
0.000500559
0.00746225
3.42166e-05
0.00746247
0.00046466
0.00747713
-0.000204879
0.00748637
0.000430205
0.00750559
-0.000491564
0.0075164
0.000369937
0.00753836
-0.00081472
0.00755108
0.0003174
0.00757774
-0.00112941
0.0075928
0.000327832
0.00762286
-0.00138738
0.00764079
0.000289293
0.00767085
-0.00157821
0.00767385
0.000300311
0.00767494
-0.00121991
0.00763614
0.000977821
0.00757649
-0.000406556
0.00745385
0.00230747
0.00730605
0.000444506
0.00711332
0.00340355
0.00696517
0.000275447
0.00687136
0.00270634
0.00687679
-0.00126459
0.00694687
0.0011858
0.00705257
-0.00267497
0.00760211
-0.00483455
0.00826178
-0.0108302
0.00770183
0.0110433
0.00671592
0.0103078
0.006368
0.00618356
0.00644745
-0.00123618
0.0067117
-0.00101846
0.00710814
-0.00557553
0.00740748
-0.00393547
0.00754551
-0.00386018
0.00755637
-0.000412194
0.0075426
-0.000767269
0.0075064
0.000882593
0.00747289
-9.81389e-05
0.00742523
0.000969321
0.00738676
6.13407e-05
0.00734944
0.000795843
0.00733258
-2.88646e-05
0.00733178
0.000366943
0.00736032
-0.000420817
0.00741623
-0.000364793
0.00750965
-0.0011532
0.00763844
-0.00139023
0.00779747
-0.00201253
0.00796858
-0.00209117
0.00813696
-0.00222829
0.00828978
-0.00198288
0.00842303
-0.00182053
0.00853623
-0.00150084
0.00863431
-0.00133294
0.00872221
-0.00113137
0.00880565
-0.00106172
0.00888864
-0.000995706
0.00897374
-0.000992345
0.00906304
-0.00101145
0.00915669
-0.00102765
0.00925484
-0.00108193
0.0093557
-0.00106421
0.00945927
-0.00114361
0.00956191
-0.00105157
0.00966318
-0.0011469
0.00975821
-0.000924659
0.00984535
-0.00105388
0.00991911
-0.000598518
0.00997329
-0.000820878
0.0100057
7.62389e-05
0.0100148
-0.000696297
0.000950063
0.00833276
-0.0157594
0.00904413
-0.00648801
0.00931441
-0.00484957
0.00941979
-0.00134962
0.00940277
0.000459255
0.00928784
0.00169313
0.00912532
0.00240213
0.00894874
0.00272314
0.00877644
0.00272935
0.00861435
0.00266036
0.00846402
0.00250803
0.00832432
0.0023781
0.00819546
0.00220098
0.00807663
0.00206292
0.00796871
0.00187399
0.00787093
0.0017415
0.00778512
0.00152681
0.00770933
0.00141637
0.00764577
0.00118467
0.00759125
0.00111059
0.00754893
0.000857184
0.00751366
0.000843332
0.00749094
0.000539018
0.0074717
0.000633972
0.00746461
0.000261844
0.00745708
0.00050809
0.0074625
2.8797e-05
0.00746696
0.000460202
0.00748431
-0.000222226
0.00749716
0.000417357
0.00751805
-0.000512464
0.00753155
0.000356446
0.00755423
-0.000837407
0.00756866
0.000302975
0.00759472
-0.00115547
0.00761039
0.000312163
0.00763883
-0.00141582
0.00765661
0.000271514
0.00768404
-0.00160564
0.00768503
0.000299317
0.00768179
-0.00121667
0.00764041
0.0010192
0.00757695
-0.000343093
0.00745341
0.00243101
0.007303
0.000594908
0.00711139
0.00359517
0.00696411
0.000422731
0.0068763
0.00279416
0.00688544
-0.00127373
0.00696033
0.00111091
0.00706707
-0.0027817
0.00761436
-0.00538184
0.00826208
-0.0114779
0.00771145
0.0115939
0.00674203
0.0112772
0.00641501
0.00651057
0.00650913
-0.00133029
0.00678029
-0.00128962
0.00716438
-0.00595962
0.00744252
-0.00421361
0.00756232
-0.00397999
0.00756684
-0.000416713
0.00755096
-0.000751387
0.00751544
0.000918111
0.0074813
-6.39943e-05
0.00743409
0.00101652
0.00739541
0.000100027
0.00735928
0.000831971
0.00734334
-1.29215e-05
0.00734451
0.00036577
0.00737462
-0.000450929
0.00743245
-0.000422627
0.00752689
-0.00124764
0.00765584
-0.00151919
0.0078133
-0.00216999
0.00798157
-0.00225944
0.00814611
-0.00239282
0.00829492
-0.00213169
0.00842428
-0.00194988
0.00853412
-0.00161069
0.00862936
-0.00142817
0.00871503
-0.00121705
0.00879675
-0.00114344
0.00887852
-0.00107748
0.00896278
-0.00107661
0.00905153