/*--------------------------------*- C++ -*----------------------------------*\
| =========                 |                                                 |
| \\      /  F ield         | OpenFOAM: The Open Source CFD Toolbox           |
|  \\    /   O peration     | Version:  2412                                  |
|   \\  /    A nd           | Website:  www.openfoam.com                      |
|    \\/     M anipulation  |                                                 |
\*---------------------------------------------------------------------------*/
FoamFile
{
    version     2.0;
    format      ascii;
    arch        "LSB;label=32;scalar=64";
    class       volScalarField;
    location    "0.6";
    object      k;
}
// * * * * * * * * * * * * * * * * * * * * * * * * * * * * * * * * * * * * * //

dimensions      [0 2 -2 0 0 0 0];

internalField   nonuniform List<scalar> 
78408
(
249.455
262.07
214.645
184.111
169.526
162.321
158.723
157.1
156.715
156.993
157.571
158.12
158.561
158.825
159.046
159.233
159.619
160.13
160.987
162.011
163.484
165.094
167.322
169.63
172.757
175.888
180.174
184.294
190.127
195.44
203.224
210
220.261
228.917
242.575
253.456
271.857
285.315
310.432
326.907
361.968
381.693
431.644
453.614
525.64
546.777
654.155
680.62
855.564
901.372
1203.6
1272
2257.75
2497.05
1786.36
1358.32
1137.65
995.045
895.784
816.678
753.972
697.04
650.302
605.436
568.402
532.451
503.327
475.906
454.683
434.698
418.299
400.961
384.162
365.925
347.964
330.027
313.223
297.57
283.331
270.414
258.74
248.395
239.32
232.156
227.181
225.377
225.802
227.766
228.502
228.3
225.374
222.114
216.529
212.116
205.335
201.241
193.755
190.825
183.059
854.133
640.567
323.623
191.542
136.03
112.346
103.865
103.452
107.048
112.432
118.192
123.769
128.753
133.117
136.672
139.592
141.712
143.457
144.679
145.926
146.878
148.209
149.246
151.007
152.405
154.905
156.841
160.423
163.002
168.075
171.63
178.702
183.738
193.596
200.182
213.783
222.012
240.984
251.009
277.76
289.576
328.102
341.7
398.779
414.413
501.176
526.299
662.162
706.947
891.974
942.024
1160.31
1166.16
2275.01
2683.36
2143.64
1716.13
1431.23
1279.77
1141.28
1059.84
973.854
919.041
855.478
811.917
762.397
728.38
692.276
668.258
641.258
619.337
590.037
560.194
525.075
490.758
456.468
425.731
397.798
373.766
352.787
334.981
319.894
307.871
299.574
296.121
298.116
303.665
309.428
311.764
309.976
303.901
295.74
285.548
275.548
264.967
255.393
246.026
237.801
228.976
195.052
262.206
170.619
120.321
96.2397
86.7221
84.7856
86.3425
89.2793
92.5387
95.7054
98.6307
101.34
103.862
106.238
108.458
110.496
112.295
113.883
115.234
116.439
117.507
118.557
119.562
120.74
121.987
123.59
125.368
127.692
130.231
133.522
137.128
141.471
146.611
152.283
159.529
166.757
176.872
185.968
200.177
211.441
231.812
245.888
276.38
295.635
345.529
385.121
477.701
549.93
669.946
734.684
892.854
855.829
1273.07
2265.2
2160.75
1885.82
1568.51
1427.8
1258.93
1186.44
1084.47
1037.73
965.331
926.516
871.454
839.99
800.935
777.886
748.329
723.178
688.113
650.134
605.937
562.178
519.084
480.358
445.602
415.783
390.085
368.485
350.516
336.587
327.561
324.898
329.096
337.638
345.923
349.732
348.001
341.093
331.192
319.07
306.693
293.524
281.657
268.739
258.919
245.829
76.2416
104.838
99.8529
95.8327
94.1339
94.2646
95.3231
96.6708
97.9992
99.0509
99.8032
100.279
100.619
100.92
101.3
101.783
102.387
103.02
103.657
104.194
104.645
104.961
105.214
105.376
105.591
105.838
106.275
106.897
107.836
109.103
110.758
112.959
115.382
118.814
122.174
127.308
131.726
139.152
144.744
155.373
162.233
177.579
186.154
209.326
222.517
262.972
301.261
385.973
464.138
569.379
639.931
783.594
814.578
901.877
1854.95
2109.22
1971.59
1673.75
1531.4
1355.47
1279.33
1174.14
1125.9
1052.03
1011.96
955.786
923.291
883.551
859.274
827.98
799.162
759.337
715.03
664.166
613.594
564.305
519.974
480.461
446.574
417.54
393.221
373.175
357.866
348.351
346.301
352.102
362.669
372.588
377.291
375.608
368.182
357.241
343.884
330.015
315.359
301.836
287.387
275.826
261.496
64.9775
82.0908
95.75
103.55
107.579
109.45
110.247
110.482
110.404
109.991
109.312
108.414
107.437
106.473
105.647
104.984
104.522
104.162
103.88
103.542
103.146
102.602
101.98
101.223
100.468
99.689
99.0236
98.491
98.168
98.1592
98.3854
99.1849
100.038
101.897
103.487
106.789
109.17
114.429
117.606
125.581
129.515
141.457
146.456
165.095
174.613
210.151
249.818
331.552
418.523
518.798
603.652
742.316
846.302
812.411
1524.25
1999.22
1997.8
1745.77
1606.98
1432.48
1352.54
1247.54
1196.94
1123.24
1081.38
1025.06
991.258
951.247
925.45
892.442
859.996
815.796
766.005
709.613
653.547
599.386
550.703
507.533
470.526
438.931
412.519
390.882
374.542
364.737
363.288
370.436
382.563
393.66
398.959
397.294
389.492
377.827
363.578
348.636
332.913
318.162
302.698
289.783
274.737
66.7781
88.6801
105.015
114
119.372
121.959
122.729
122.42
121.538
120.255
118.736
117.066
115.389
113.783
112.358
111.119
110.09
109.159
108.296
107.348
106.322
105.105
103.786
102.282
100.755
99.1364
97.6092
96.1265
94.8363
93.7453
92.8906
92.45
92.1304
92.5645
92.8732
94.4869
95.4601
98.693
100.314
105.811
108.027
116.866
120.031
134.748
143.342
175.256
220.574
300.546
399.784
499.06
599.211
738.34
895.729
835.299
1302.68
1860.45
1978.48
1787.73
1660.23
1492.89
1411.21
1308.23
1255.9
1183.12
1139.82
1083.78
1048.9
1008.76
981.406
946.589
910.536
862.152
807.379
746.163
685.452
627.279
575.072
528.977
489.49
455.866
427.797
404.917
387.808
377.883
377.075
385.444
398.869
410.883
416.617
414.96
406.875
394.67
379.742
363.974
347.42
331.711
315.465
301.485
285.89
71.6536
97.2991
113.577
122.552
128.472
131.595
132.603
132.176
130.919
129.148
127.128
125.003
122.933
120.996
119.281
117.771
116.465
115.23
114.021
112.68
111.215
109.511
107.674
105.61
103.502
101.258
99.0938
96.9085
94.9187
93.0253
91.3999
90.0221
88.874
88.2
87.6126
87.8752
87.8906
89.4367
90.0586
93.4224
94.6635
100.789
103.222
114.613
124.335
154.018
207.846
287.972
399.156
499.923
611.474
753.95
948.151
892.936
1181.65
1720.95
1927.27
1803.9
1694.62
1539.05
1458.12
1358.62
1305.47
1234.15
1189.92
1134.47
1098.78
1058.57
1029.66
992.891
953.224
900.769
841.371
775.852
711.131
649.59
594.484
546.02
504.538
469.291
439.903
416.052
398.389
388.493
388.383
397.912
412.479
425.255
431.335
429.69
421.387
408.765
393.298
376.869
359.639
343.154
326.258
311.419
295.365
75.6121
104.422
120.407
129.3
135.562
139.128
140.464
140.137
138.763
136.749
134.446
132.061
129.777
127.679
125.84
124.218
122.786
121.389
119.967
118.358
116.573
114.504
112.267
109.774
107.219
104.501
101.855
99.1519
96.6478
94.1766
91.999
89.9549
88.224
86.7619
85.5557
84.8483
84.2196
84.5234
84.5098
86.2499
86.9664
90.9799
93.3474
102.281
114.482
143.786
206.705
289.096
409.518
513.072
631.895
778.815
999.377
956.783
1132.13
1599.36
1857.54
1799.28
1713.08
1572.92
1495.15
1400.36
1347.36
1277.97
1233.29
1178.68
1142.43
1102.18
1071.68
1032.8
989.495
933.052
869.321
799.928
731.722
667.346
609.852
559.471
516.391
479.853
449.423
424.825
406.79
397.055
397.707
408.373
423.99
437.437
443.813
442.186
433.712
420.757
404.849
387.874
370.079
352.946
335.492
319.945
303.493
78.8593
110.104
125.791
134.663
141.206
145.145
146.816
146.686
145.342
143.243
140.809
138.297
135.919
133.77
131.906
130.266
128.792
127.313
125.75
123.944
121.908
119.547
116.987
114.147
111.229
108.135
105.107
102.005
99.1037
96.2034
93.6124
91.0901
88.934
86.9208
85.2766
83.9031
82.834
82.2879
81.8669
82.4882
82.945
85.5095
88.1926
95.6944
111.04
141.801
212.734
298.848
425.808
532.664
655.958
807.504
1048.2
1018.52
1125.14
1504.14
1781.02
1779.25
1718.44
1596.24
1523.74
1434.73
1382.76
1315.7
1271.03
1217.47
1180.88
1140.56
1108.41
1067.27
1020.28
959.937
892.138
819.253
748.022
681.273
621.833
569.923
525.581
488.032
456.795
431.643
413.392
403.938
405.421
417.224
433.839
447.901
454.543
452.939
444.326
431.093
414.815
397.377
379.1
361.414
343.475
327.328
310.527
81.4546
114.559
130.03
138.963
145.771
150.033
152.019
152.118
150.885
148.807
146.345
143.806
141.424
139.301
137.481
135.881
134.418
132.9
131.239
129.279
127.036
124.43
121.593
118.461
115.236
111.829
108.483
105.057
101.834
98.5993
95.6822
92.802
90.3195
87.9105
85.941
84.108
82.7248
81.6118
80.9219
80.8191
81.1688
82.8548
86.058
93.0762
111.71
145.221
222.706
313.263
444.982
555.254
681.371
837.4
1094.36
1076.24
1140.77
1436.26
1706.89
1749.12
1713.54
1610.69
1545.14
1462.77
1412.59
1348.21
1303.94
1251.58
1214.8
1174.39
1140.51
1096.95
1046.26
982.099
910.49
834.474
760.639
691.933
630.937
577.838
532.528
494.212
462.371
436.83
418.502
409.438
411.82
424.773
442.357
456.998
463.884
462.304
453.571
440.099
423.501
405.663
386.965
368.803
350.436
333.772
316.663
83.4572
117.986
133.341
142.422
149.497
154.049
156.321
156.655
155.576
153.583
151.171
148.678
146.359
144.321
142.596
141.078
139.659
138.133
136.4
134.313
131.89
129.069
125.99
122.602
119.108
115.432
111.811
108.114
104.619
101.11
97.9243
94.7632
92.0177
89.312
87.0882
84.9283
83.3095
81.8159
80.9419
80.3876
80.7215
81.951
85.7858
93.046
114.84
151.764
234.666
329.914
465.379
578.993
706.987
867.224
1137.84
1129.83
1167.63
1392.46
1641.13
1713.67
1701.14
1617.9
1560.46
1485.34
1437.59
1376.17
1332.63
1281.6
1244.75
1204.17
1168.45
1122.35
1067.93
1000.07
924.911
846.107
770.064
699.78
637.582
583.6
537.58
498.711
466.441
440.658
422.373
413.798
417.145
431.268
449.803
464.998
472.109
470.546
461.702
448.016
431.135
412.945
393.876
375.295
356.55
339.436
322.053
84.9417
120.547
135.887
145.192
152.548
157.367
159.899
160.461
159.555
157.691
155.381
152.991
150.788
148.883
147.29
145.885
144.533
143.018
141.231
139.034
136.451
133.439
130.141
126.524
122.79
118.876
115.013
111.08
107.348
103.608
100.192
96.8018
93.836
90.8979
88.4668
86.0648
84.2612
82.5068
81.5033
80.6769
81.0552
82.1186
86.653
94.6445
119.385
159.96
247.549
347.495
486.127
602.922
732.222
896.34
1178.76
1179.6
1199.69
1367.87
1586.7
1676.81
1683.79
1619.41
1570.74
1503.23
1458.39
1400.13
1357.58
1307.97
1271.11
1230.29
1192.63
1143.85
1085.71
1014.28
935.845
854.592
776.712
705.206
642.128
587.534
541.035
501.798
469.254
443.355
425.221
417.222
421.596
436.91
456.384
472.106
479.42
477.865
468.91
455.027
437.89
419.385
399.987
381.035
361.954
344.443
326.818
85.9813
122.375
137.785
147.386
155.038
160.113
162.883
163.66
162.933
161.222
159.054
156.81
154.766
153.03
151.6
150.33
149.062
147.571
145.742
143.448
140.72
137.533
134.035
130.211
126.26
122.131
118.051
113.909
109.967
106.027
102.41
98.8261
95.6705
92.5436
89.9377
87.3497
85.3961
83.4591
82.3639
81.3839
81.8509
82.9457
88.2266
97.2553
124.729
168.974
260.796
365.33
506.761
626.539
756.775
924.422
1217.2
1225.95
1233.81
1357.64
1544.3
1641.48
1663.69
1616.62
1576.9
1517.13
1475.54
1420.57
1379.2
1331.06
1294.21
1253.04
1213.34
1161.78
1099.96
1025.11
943.677
860.309
780.95
708.55
644.887
589.926
543.15
503.709
471.025
445.119
427.229
419.885
425.339
441.86
462.258
478.481
485.974
484.41
475.343
461.272
443.9
425.111
405.417
386.136
366.754
348.893
331.05
86.6413
123.575
139.13
149.088
157.052
162.377
165.368
166.344
165.798
164.256
162.255
160.191
158.338
156.802
155.558
154.44
153.268
151.81
149.947
147.565
144.704
141.355
137.675
133.661
129.51
125.188
120.91
116.581
112.451
108.333
104.538
100.786
97.4639
94.1794
91.4226
88.6875
86.6091
84.5427
83.384
82.3314
82.9236
84.1868
90.2498
100.497
130.514
178.357
274.111
383.07
527.027
649.576
780.486
951.305
1253.27
1269.23
1268.36
1357.69
1513.22
1609.6
1642.67
1610.82
1579.8
1527.65
1489.5
1437.89
1397.82
1351.17
1314.34
1272.7
1230.85
1176.44
1110.99
1032.9
948.756
863.601
783.103
710.117
646.137
591.028
544.154
504.651
471.941
446.122
428.556
421.934
428.512
446.25
467.55
484.242
491.886
490.295
481.111
466.859
449.27
430.222
410.262
390.686
371.037
352.864
334.828
86.9789
124.239
139.996
150.362
158.655
164.227
167.426
168.589
168.217
166.853
165.04
163.179
161.544
160.23
159.19
158.237
157.17
155.75
153.859
151.397
148.412
144.915
141.064
136.876
132.542
128.043
123.585
119.087
114.785
110.51
106.553
102.655
99.1845
95.7657
92.8768
90.0226
87.8391
85.681
84.4819
83.4148
84.1645
85.6951
92.5676
104.134
136.536
187.868
287.329
400.524
546.776
671.885
803.267
976.901
1287.04
1309.73
1302.47
1364.87
1491.98
1582.25
1622.12
1603.08
1580.18
1535.35
1500.7
1452.43
1413.76
1368.56
1331.71
1289.49
1245.39
1188.07
1119.09
1037.95
951.395
864.778
783.467
710.179
646.126
591.064
544.248
504.803
472.164
446.512
429.337
423.491
431.229
450.182
472.354
489.478
497.242
495.607
486.299
471.872
454.08
434.796
414.597
394.757
374.871
356.422
338.213
87.0439
124.444
140.447
151.262
159.898
165.717
169.114
170.45
170.249
169.065
167.452
165.814
164.417
163.342
162.521
161.742
160.784
159.407
157.492
154.957
151.856
148.22
144.212
139.861
135.359
130.697
126.075
121.422
116.965
112.548
108.446
104.418
100.814
97.2795
94.2738
91.3221
89.0497
86.8285
85.609
84.5716
85.5091
87.3817
95.0843
108.02
142.669
197.372
300.35
417.583
565.919
693.379
825.067
1001.16
1318.58
1347.67
1335.66
1376.87
1478.9
1559.82
1603.02
1594.3
1578.69
1540.71
1509.51
1464.51
1427.25
1383.45
1346.53
1303.6
1257.17
1196.92
1124.51
1040.55
951.887
864.126
782.309
708.984
645.077
590.233
543.607
504.323
471.836
446.415
429.686
424.661
433.579
453.732
476.739
494.253
502.108
500.409
490.971
476.373
458.394
438.894
418.481
398.404
378.31
359.616
341.257
86.8797
124.257
140.538
151.832
160.823
166.89
170.477
171.976
171.937
170.936
169.531
168.129
166.985
166.163
165.57
164.97
164.125
162.793
160.858
158.253
155.044
151.279
147.124
142.624
137.966
133.156
128.382
123.59
118.99
114.444
110.211
106.067
102.343
98.7078
95.5984
92.5662
90.2191
87.9574
86.7359
85.7643
86.9183
89.1917
97.7381
112.061
148.837
206.79
313.111
434.175
584.393
714.007
845.858
1024.07
1347.95
1383.24
1367.69
1392.05
1472.33
1542.26
1585.97
1585.18
1575.88
1544.16
1516.26
1474.38
1438.53
1396.04
1358.97
1315.21
1266.38
1203.19
1127.51
1040.96
950.5
861.905
779.875
706.753
643.188
588.709
542.387
503.347
471.078
445.94
429.699
425.526
435.632
456.96
480.753
498.614
506.527
504.748
495.176
480.414
462.26
442.565
421.96
401.675
381.398
362.488
343.998
86.5241
123.738
140.314
152.109
161.464
167.781
171.55
173.203
173.32
172.5
171.309
170.152
169.272
168.714
168.354
167.937
167.206
165.92
163.966
161.297
157.986
154.1
149.809
145.171
140.369
135.423
130.51
125.59
120.861
116.199
111.846
107.599
103.767
100.043
96.8414
93.7433
91.3342
89.0511
87.8451
86.9699
88.3684
91.09
100.488
116.194
154.988
216.072
325.562
450.25
602.153
733.731
865.619
1045.6
1375.2
1416.57
1398.42
1409.26
1470.85
1529.19
1571.28
1576.23
1572.18
1546.05
1521.23
1482.3
1447.78
1406.51
1369.2
1324.48
1273.19
1207.11
1128.31
1039.43
947.485
858.357
776.387
703.688
640.635
586.646
540.72
501.993
469.992
445.176
429.456
426.154
437.44
459.903
484.429
502.589
510.531
508.657
498.95
484.031
465.717
445.846
425.074
404.603
384.17
365.069
346.47
86.0097
122.938
139.819
152.127
161.851
168.418
172.365
174.163
174.429
173.788
172.814
171.909
171.3
171.011
170.889
170.655
170.038
168.796
166.826
164.095
160.69
156.69
152.273
147.508
142.574
137.502
132.462
127.427
122.579
117.813
113.35
109.011
105.081
101.281
97.9976
94.8462
92.3871
90.0994
88.9262
88.175
89.8449
93.0537
103.304
120.376
161.087
225.18
337.667
465.77
619.166
752.527
884.338
1065.76
1400.36
1447.79
1427.78
1427.65
1473.23
1520.13
1559.06
1567.81
1567.95
1546.69
1524.66
1488.46
1455.18
1415
1377.34
1331.55
1277.78
1208.86
1127.14
1036.2
943.073
853.702
772.045
699.965
637.572
584.177
538.721
500.357
468.663
444.2
429.02
426.594
439.041
462.587
487.785
506.198
514.142
512.162
502.319
487.252
468.795
448.766
427.849
407.217
386.653
367.387
348.697
85.3648
121.904
139.088
151.914
162.008
168.826
172.946
174.881
175.291
174.826
174.07
173.42
173.087
173.07
173.187
173.136
172.63
171.432
169.446
166.658
163.162
159.058
154.523
149.641
144.585
139.4
134.244
129.103
124.147
119.287
114.725
110.305
106.286
102.419
99.0644
95.871
93.3732
91.0963
89.9732
89.3716
91.3391
95.0671
106.165
124.574
167.106
234.087
349.391
480.7
635.401
770.374
902.004
1084.54
1423.48
1476.98
1455.73
1446.66
1478.53
1514.5
1549.21
1560.14
1563.44
1546.33
1526.76
1493.05
1460.89
1421.65
1383.54
1336.57
1280.31
1208.63
1124.21
1031.47
937.479
848.14
767.029
695.74
634.132
581.415
536.484
498.522
467.163
443.069
428.44
426.886
440.459
465.025
490.831
509.449
517.372
515.277
505.304
490.099
471.515
451.349
430.309
409.539
388.867
369.46
350.699
84.6135
120.676
138.156
151.496
161.959
169.026
173.314
175.381
175.927
175.635
175.096
174.704
174.649
174.905
175.26
175.388
174.99
173.835
171.834
168.99
165.411
161.209
156.565
151.575
146.409
141.119
135.858
130.622
125.568
120.624
115.973
111.479
107.382
103.458
100.04
96.8155
94.2903
92.0389
90.9832
90.5556
92.8455
97.119
109.054
128.764
173.025
242.768
360.706
495.012
650.836
787.256
918.609
1101.94
1444.58
1504.22
1482.27
1465.87
1485.95
1511.74
1541.58
1553.34
1558.85
1545.17
1527.71
1496.22
1465.04
1426.58
1387.91
1339.67
1280.92
1206.6
1119.71
1025.46
930.899
841.852
761.498
691.15
630.429
578.452
534.089
496.554
465.546
441.832
427.754
427.054
441.706
467.221
493.567
512.347
520.227
518.014
507.916
492.588
473.893
453.611
432.47
411.585
390.829
371.304
352.49
83.7768
119.289
137.051
150.896
161.723
169.037
173.487
175.679
176.357
176.235
175.912
175.778
176
176.528
177.117
177.42
177.128
176.012
173.995
171.1
167.441
163.149
158.405
153.317
148.049
142.666
137.308
131.988
126.846
121.826
117.095
112.537
108.369
104.396
100.925
97.679
95.1374
92.9259
91.9553
91.7252
94.3611
99.2006
111.958
132.928
178.824
251.2
371.585
508.68
665.448
803.159
934.146
1117.97
1463.71
1529.58
1507.4
1484.98
1494.9
1511.33
1535.92
1547.44
1554.31
1543.37
1527.65
1498.1
1467.74
1429.91
1390.57
1340.98
1279.77
1202.93
1113.82
1018.35
923.51
834.999
755.59
686.31
626.557
575.368
531.598
494.505
463.856
440.524
426.989
427.114
442.787
469.171
495.989
514.888
522.709
520.378
510.166
494.728
475.943
455.564
434.345
413.368
392.551
372.929
354.082
82.8724
117.775
135.801
150.136
161.318
168.875
173.483
175.793
176.598
176.641
176.533
176.654
177.153
177.95
178.768
179.241
179.048
177.97
175.937
172.992
169.26
164.884
160.048
154.87
149.51
144.043
138.6
133.203
127.982
122.895
118.092
113.479
109.249
105.236
101.72
98.4614
95.9148
93.7572
92.89
92.8803
95.8839
101.305
114.864
137.05
184.488
259.364
382.003
521.68
679.218
818.073
948.611
1132.62
1480.89
1553.1
1531.12
1503.75
1504.89
1512.79
1531.97
1542.42
1549.89
1541.05
1526.71
1498.82
1469.1
1431.74
1391.61
1340.6
1277
1197.8
1106.72
1010.32
915.475
827.724
749.425
681.317
622.593
572.222
529.061
492.415
462.126
439.17
426.162
427.074
443.699
470.868
498.088
517.068
524.817
522.371
512.057
496.526
477.671
457.218
435.944
414.895
394.04
374.344
355.481
81.9157
116.162
134.429
149.234
160.76
168.555
173.314
175.738
176.664
176.868
176.972
177.347
178.119
179.179
180.221
180.858
180.759
179.715
177.666
174.674
170.872
166.418
161.498
156.241
150.798
145.255
139.735
134.271
128.979
123.835
118.968
114.307
110.023
105.977
102.424
99.1636
96.6233
94.5339
93.7886
94.0216
97.4129
103.426
117.763
141.115
190.002
267.241
391.936
533.991
692.132
831.988
962
1145.92
1496.16
1574.85
1553.46
1522.03
1515.53
1515.72
1529.48
1538.22
1545.63
1538.32
1524.99
1498.47
1469.22
1432.15
1391.14
1338.66
1272.74
1191.35
1098.58
1001.51
906.937
820.15
743.104
676.251
618.598
569.062
526.513
490.313
460.378
437.788
425.283
426.935
444.434
472.299
499.853
518.879
526.549
523.994
513.593
497.988
479.084
458.578
437.271
416.174
395.303
375.552
356.693
80.9196
114.472
132.957
148.207
160.064
168.089
172.993
175.525
176.568
176.93
177.242
177.867
178.907
180.225
181.483
182.276
182.266
181.252
179.186
176.149
172.283
167.759
162.762
157.432
151.915
146.306
140.718
135.195
129.841
124.646
119.724
115.023
110.692
106.622
103.041
99.7866
97.2643
95.2576
94.6532
95.1507
98.9471
105.559
120.646
145.113
195.353
274.812
401.366
545.594
704.174
844.895
974.309
1157.86
1509.55
1594.86
1574.42
1539.7
1526.54
1519.76
1528.18
1534.74
1541.55
1535.22
1522.57
1497.14
1468.17
1431.24
1389.25
1335.26
1267.11
1183.72
1089.52
992.082
898.022
812.383
736.711
671.174
614.619
565.923
523.982
488.218
458.627
436.386
424.356
426.692
444.98
473.45
501.272
520.313
527.898
525.244
514.774
499.116
480.185
459.647
438.331
417.206
396.342
376.556
357.719
79.895
112.726
131.403
147.073
159.244
167.491
172.533
175.167
176.321
176.837
177.353
178.224
179.527
181.095
182.562
183.503
183.574
182.586
180.504
177.424
173.497
168.909
163.844
158.449
152.867
147.2
141.552
135.979
130.571
125.333
120.363
115.628
111.258
107.17
103.57
100.332
97.8397
95.9307
95.4864
96.2693
100.486
107.698
123.503
149.033
200.529
282.061
410.272
556.47
715.335
856.79
985.539
1168.45
1521.11
1613.17
1594.03
1556.66
1537.66
1524.6
1527.84
1531.87
1537.62
1531.8
1519.51
1494.9
1466.03
1429.07
1386.02
1330.5
1260.23
1175.05
1079.7
982.152
888.841
804.512
730.311
666.136
610.689
562.827
521.482
486.142
456.881
434.969
423.38
426.338
445.324
474.305
502.333
521.36
528.861
526.12
515.599
499.909
480.974
460.428
439.125
417.995
397.159
377.357
358.561
78.8513
110.943
129.785
145.844
158.313
166.77
171.943
174.672
175.933
176.599
177.315
178.427
179.986
181.796
183.462
184.543
184.69
183.725
181.624
178.503
174.521
169.874
164.747
159.296
153.657
147.94
142.24
136.625
131.17
125.897
120.886
116.126
111.723
107.626
104.013
100.802
98.3519
96.5557
96.2912
97.3795
102.028
109.838
126.329
152.866
205.518
288.972
418.638
566.607
725.604
867.668
995.688
1177.71
1530.88
1629.83
1612.31
1572.85
1548.72
1529.99
1528.24
1529.51
1533.82
1528.1
1515.86
1491.81
1462.86
1425.72
1381.53
1324.49
1252.22
1165.46
1069.23
971.835
879.488
796.611
723.958
661.17
606.831
559.788
519.022
484.09
455.141
433.537
422.348
425.861
445.45
474.849
503.021
522.013
529.43
526.618
516.067
500.367
481.451
460.92
439.654
418.538
397.752
377.954
359.215
77.7964
109.138
128.117
144.535
157.281
165.938
171.233
174.052
175.415
176.226
177.138
178.483
180.292
182.335
184.191
185.402
185.618
184.671
182.551
179.392
175.359
170.66
165.478
159.978
154.289
148.531
142.787
137.136
131.643
126.342
121.296
116.517
112.089
107.989
104.374
101.198
98.8035
97.1359
97.0706
98.4833
103.574
111.975
129.116
156.602
210.309
295.532
426.45
575.992
734.976
877.526
1004.76
1185.64
1538.88
1644.88
1629.28
1588.2
1559.55
1535.71
1529.17
1527.55
1530.12
1524.13
1511.66
1487.92
1458.73
1421.25
1375.86
1317.31
1243.19
1155.07
1058.23
961.231
870.042
788.737
717.689
656.3
603.056
556.813
516.605
482.06
453.405
432.083
421.253
425.248
445.342
475.066
503.326
522.261
529.6
526.733
516.175
500.488
481.616
461.122
439.915
418.836
398.12
378.345
359.681
76.7369
107.322
126.412
143.156
156.16
165.003
170.411
173.313
174.773
175.726
176.828
178.402
180.45
182.718
184.752
186.085
186.362
185.431
183.291
180.095
176.015
171.269
166.04
160.498
154.767
148.975
143.195
137.516
131.991
126.668
121.596
116.803
112.357
108.263
104.653
101.522
99.1974
97.6744
97.8281
99.5827
105.121
114.103
131.857
160.234
214.895
301.727
433.696
584.615
743.446
886.366
1012.75
1192.26
1545.18
1658.34
1644.97
1602.68
1570.02
1541.57
1530.47
1525.87
1526.45
1519.88
1506.94
1483.28
1453.67
1415.73
1369.08
1309.05
1233.24
1143.97
1046.79
950.424
860.568
780.935
711.53
651.538
599.37
553.9
514.226
480.049
451.667
430.601
420.085
424.486
444.985
474.943
503.235
522.098
529.366
526.463
515.92
500.271
481.467
461.033
439.908
418.885
398.261
378.526
359.955
75.6784
105.509
124.683
141.72
154.959
163.975
169.486
172.465
174.017
175.105
176.393
178.188
180.469
182.949
185.153
186.598
186.93
186.008
183.849
180.618
176.495
171.708
166.437
160.861
155.096
149.276
143.467
137.768
132.217
126.88
121.787
116.988
112.531
108.448
104.853
101.779
99.537
98.1752
98.5669
100.679
106.668
116.218
134.546
163.756
219.265
307.548
440.366
592.469
751.012
894.189
1019.68
1197.58
1549.81
1670.27
1659.38
1616.26
1580.05
1547.42
1531.98
1524.36
1522.78
1515.37
1501.71
1477.92
1447.75
1409.21
1361.27
1299.8
1222.45
1132.27
1035
939.486
851.119
773.236
705.498
646.89
595.77
551.043
511.879
478.048
449.919
429.081
418.833
423.562
444.364
474.466
502.74
521.516
528.723
525.803
515.3
499.713
481.001
460.65
439.629
418.684
398.171
378.494
360.033
74.6253
103.706
122.939
140.236
153.687
162.862
168.466
171.514
173.153
174.373
175.839
177.849
180.352
183.035
185.397
186.944
187.324
186.409
184.229
180.965
176.803
171.98
166.675
161.071
155.278
149.438
143.608
137.894
132.325
126.979
121.872
117.073
112.612
108.548
104.977
101.97
99.8259
98.642
99.2906
101.775
108.213
118.315
137.178
167.159
223.413
312.984
446.453
599.55
757.674
900.997
1025.54
1201.63
1552.84
1680.7
1672.56
1628.92
1589.54
1553.13
1533.56
1522.94
1519.06
1510.57
1496.01
1471.88
1441
1401.75
1352.49
1289.64
1210.91
1120.06
1022.94
928.477
841.733
765.663
699.599
642.352
592.247
548.233
509.552
476.046
448.151
427.513
417.484
422.461
443.466
473.624
501.833
520.51
527.666
524.751
514.312
498.812
480.216
459.971
439.076
418.228
397.846
378.245
359.91
73.5817
101.921
121.189
138.713
152.353
161.671
167.357
170.467
172.188
173.534
175.174
177.389
180.105
182.98
185.489
187.129
187.549
186.638
184.436
181.141
176.944
172.091
166.757
161.131
155.318
149.465
143.619
137.898
132.317
126.968
121.854
117.061
112.603
108.566
105.027
102.099
100.068
99.079
100.002
102.87
109.755
120.389
139.748
170.439
227.331
318.028
451.951
605.854
763.435
906.798
1030.34
1204.42
1554.3
1689.68
1684.52
1640.64
1598.43
1558.59
1535.11
1521.51
1515.22
1505.48
1489.82
1465.19
1433.46
1393.4
1342.8
1278.63
1198.71
1107.39
1010.68
917.446
832.44
758.226
693.832
637.916
588.79
545.457
507.234
474.033
446.35
425.884
416.027
421.172
442.279
472.408
500.505
519.076
526.193
523.304
512.954
497.566
479.109
458.993
438.246
417.516
397.283
377.774
359.582
72.5506
100.161
119.441
137.158
150.965
160.409
166.167
169.331
171.128
172.595
174.402
176.815
179.733
182.789
185.433
187.157
187.611
186.7
184.475
181.151
176.923
172.045
166.688
161.047
155.22
149.36
143.506
137.783
132.196
126.851
121.734
116.954
112.505
108.503
105.007
102.169
100.267
99.4904
100.705
103.966
111.291
122.437
142.25
173.589
231.015
322.674
456.857
611.382
768.3
911.598
1034.1
1205.98
1554.25
1697.24
1695.3
1651.41
1606.66
1563.71
1536.51
1520
1511.24
1500.08
1483.18
1457.86
1425.16
1384.2
1332.26
1266.86
1185.92
1094.36
998.261
906.431
823.26
750.931
688.189
633.569
585.384
542.699
504.909
471.993
444.505
424.185
414.45
419.683
440.793
470.811
498.754
517.209
524.302
521.46
511.224
495.972
477.68
457.715
437.136
416.542
396.478
377.078
359.045
71.5346
98.4309
117.7
135.58
149.53
159.084
164.902
168.112
169.979
171.562
173.529
176.132
179.242
182.466
185.235
187.033
187.515
186.599
184.352
181
176.745
171.846
166.472
160.823
154.988
149.127
143.27
137.551
131.965
126.629
121.516
116.755
112.323
108.362
104.92
102.184
100.428
99.8806
101.403
105.063
112.818
124.453
144.68
176.605
234.459
326.916
461.171
616.136
772.275
915.406
1036.82
1206.32
1552.76
1703.45
1704.91
1661.23
1614.2
1568.4
1537.68
1518.34
1507.06
1494.36
1476.07
1449.92
1416.15
1374.21
1320.93
1254.38
1172.6
1081.02
985.74
895.462
814.204
743.774
682.66
629.295
582.011
539.943
502.563
469.915
442.603
422.402
412.742
417.984
439
468.827
496.577
514.91
521.99
519.218
509.12
494.029
475.924
456.132
435.743
415.305
395.428
376.152
358.293
70.5359
96.7346
115.974
133.984
148.054
157.702
163.567
166.816
168.747
170.439
172.56
175.343
178.635
182.016
184.899
186.762
187.264
186.34
184.07
180.693
176.414
171.5
166.114
160.461
154.625
148.769
142.916
137.207
131.627
126.305
121.203
116.466
112.058
108.148
104.77
102.149
100.555
100.254
102.097
106.162
114.334
126.434
147.034
179.484
237.66
330.754
464.893
620.121
775.369
918.235
1038.52
1205.48
1549.89
1708.33
1713.39
1670.1
1621
1572.6
1538.56
1516.46
1502.65
1488.3
1468.51
1441.4
1406.44
1363.46
1308.87
1241.25
1158.81
1067.41
973.153
884.558
805.276
736.747
677.229
625.076
578.654
537.173
500.18
467.784
440.632
420.525
410.893
416.068
436.895
466.455
493.972
512.177
519.258
516.578
506.643
491.736
473.842
454.245
434.066
413.801
394.128
374.993
357.322
69.5561
95.0753
114.266
132.377
146.544
156.268
162.17
165.449
167.437
169.233
171.5
174.454
177.916
181.443
184.428
186.347
186.863
185.929
183.635
180.235
175.936
171.01
165.618
159.968
154.135
148.291
142.447
136.753
131.184
125.883
120.797
116.09
111.713
107.862
104.56
102.068
100.653
100.614
102.79
107.26
115.835
128.376
149.308
182.22
240.617
334.185
468.028
623.343
777.594
920.097
1039.22
1203.47
1545.7
1711.94
1720.77
1678.02
1627.05
1576.27
1539.06
1514.3
1497.96
1481.89
1460.49
1432.3
1396.09
1352
1296.12
1227.54
1144.62
1053.6
960.529
873.735
796.474
729.838
671.877
620.892
575.294
534.371
497.746
465.587
438.581
418.543
408.894
413.926
434.474
463.694
490.94
509.013
516.109
513.54
503.792
489.093
471.433
452.051
432.101
412.029
392.576
373.597
356.129
68.5965
93.4555
112.58
130.763
145.005
154.789
160.714
164.016
166.055
167.948
170.353
173.469
177.09
180.751
183.828
185.793
186.318
185.37
183.053
179.63
175.315
170.382
164.989
159.346
153.524
147.695
141.866
136.193
130.641
125.364
120.301
115.631
111.293
107.509
104.295
101.945
100.727
100.966
103.484
108.359
117.32
130.274
151.5
184.811
243.327
337.211
470.581
625.813
778.962
921.008
1038.92
1200.34
1540.25
1714.33
1727.08
1684.99
1632.31
1579.35
1539.15
1511.83
1492.98
1475.11
1452.02
1422.64
1385.1
1339.87
1282.73
1213.3
1130.06
1039.61
947.894
862.999
787.793
723.031
666.585
616.723
571.911
531.52
495.246
463.312
436.437
416.447
406.739
411.556
431.737
460.544
487.484
505.419
512.543
510.108
500.569
486.101
468.696
449.55
429.849
409.986
390.77
371.961
354.711
67.6582
91.8768
110.919
129.148
143.443
153.27
159.207
162.522
164.606
166.589
169.125
172.392
176.162
179.945
183.102
185.105
185.633
184.668
182.327
178.884
174.556
169.62
164.231
158.601
152.793
146.986
141.177
135.529
130
124.754
119.718
115.091
110.8
107.093
103.979
101.787