/*--------------------------------*- C++ -*----------------------------------*\
| =========                 |                                                 |
| \\      /  F ield         | OpenFOAM: The Open Source CFD Toolbox           |
|  \\    /   O peration     | Version:  2412                                  |
|   \\  /    A nd           | Website:  www.openfoam.com                      |
|    \\/     M anipulation  |                                                 |
\*---------------------------------------------------------------------------*/
FoamFile
{
    version     2.0;
    format      ascii;
    arch        "LSB;label=32;scalar=64";
    class       volScalarField;
    location    "0.6";
    object      nut;
}
// * * * * * * * * * * * * * * * * * * * * * * * * * * * * * * * * * * * * * //

dimensions      [0 2 -1 0 0 0 0];

internalField   nonuniform List<scalar> 
78408
(
0.0012847
0.00129762
0.00115696
0.00105533
0.000997102
0.000960364
0.000934486
0.000914568
0.000898287
0.000883891
0.000870239
0.000856415
0.000842186
0.000827399
0.00081242
0.000797267
0.000782505
0.000767973
0.000754141
0.000740559
0.000727828
0.000715172
0.000703581
0.000691879
0.000681465
0.000670658
0.000661568
0.000651617
0.000644053
0.000634905
0.000628916
0.000620442
0.00061603
0.000608203
0.000605631
0.000598095
0.000597653
0.000589923
0.000591935
0.000583402
0.000588483
0.000578215
0.000587005
0.000573181
0.000586093
0.000566236
0.000584568
0.00056073
0.000588777
0.000563328
0.00060367
0.000571743
0.000690059
0.000736044
0.000630691
0.000581822
0.000563327
0.000555502
0.000554247
0.000555149
0.00055837
0.000560879
0.000564981
0.000567558
0.000571646
0.000574251
0.000578668
0.0005824
0.000588496
0.000594227
0.000601455
0.000607124
0.000612253
0.000615128
0.000616987
0.000617527
0.00061778
0.000617877
0.000618221
0.000618902
0.000619989
0.000621734
0.000624207
0.000628395
0.000634913
0.000645524
0.000659418
0.000675917
0.000690962
0.000704744
0.000714201
0.000722855
0.000727291
0.000733245
0.00073457
0.00074019
0.000739006
0.000746029
0.000743054
0.00386854
0.00387112
0.00266117
0.00203268
0.00171995
0.00155844
0.00149427
0.0014953
0.00153174
0.00157578
0.00161548
0.00164491
0.00166546
0.00167687
0.00168137
0.00167845
0.00166966
0.00165387
0.00163429
0.00160927
0.00158275
0.00155241
0.00152245
0.00148911
0.00145867
0.00142498
0.00139603
0.00136379
0.00133766
0.00130732
0.00128507
0.00125759
0.00123902
0.00121633
0.00120079
0.00118286
0.00116898
0.00115641
0.001143
0.0011369
0.0011215
0.00112427
0.00110456
0.00112114
0.001097
0.00113599
0.00112419
0.00119507
0.0011935
0.00124402
0.00117949
0.00120744
0.000918249
0.00131702
0.00202858
0.00214592
0.0023319
0.00222987
0.00238369
0.00228354
0.00244083
0.00238717
0.00254885
0.00252949
0.00267686
0.00268271
0.00281984
0.00285664
0.0029858
0.00302939
0.00310251
0.00309196
0.00306496
0.00298299
0.00289817
0.00279571
0.00270771
0.00262368
0.00255804
0.00250337
0.00246558
0.00244168
0.00243802
0.00246262
0.00252825
0.00264394
0.00279157
0.00294049
0.00305152
0.00312146
0.00314116
0.00314049
0.00310639
0.00307869
0.0030158
0.00299145
0.00290498
0.00290728
0.00278348
0.00159727
0.0024756
0.00214786
0.00197676
0.00202778
0.00226373
0.00257201
0.00281785
0.00295158
0.00297303
0.00292831
0.00284567
0.00275711
0.00266995
0.00259696
0.00253248
0.00248214
0.00243208
0.00238981
0.00233968
0.00229419
0.00223648
0.00218625
0.00212021
0.00206825
0.00199823
0.00194971
0.0018796
0.00183978
0.0017706
0.0017417
0.00167401
0.00165166
0.00158728
0.00157322
0.00151192
0.00150632
0.00144619
0.00144905
0.00138908
0.0013995
0.00133934
0.00135772
0.00130026
0.00133547
0.00129696
0.00140664
0.00142355
0.00162692
0.0015801
0.00169829
0.0016545
0.00158203
0.00123628
0.00249265
0.00308379
0.00373705
0.00376295
0.00418151
0.00408888
0.00446039
0.00441643
0.00478231
0.00479654
0.00513045
0.00519195
0.00550378
0.00562194
0.00590205
0.0060068
0.00613446
0.00609244
0.00599992
0.00580275
0.00559709
0.00536385
0.00515911
0.00496729
0.00481192
0.00468135
0.00458528
0.00452099
0.00450155
0.00454845
0.00469041
0.00494918
0.00528304
0.00562465
0.00588491
0.00605787
0.00611813
0.00613161
0.00606444
0.00600885
0.0058693
0.00580579
0.00559088
0.00557789
0.00528059
0.0019229
0.00189243
0.00239668
0.0030061
0.00378884
0.00468134
0.00549359
0.00603434
0.00625548
0.00618663
0.00594276
0.00560543
0.00525485
0.0049182
0.00462641
0.00437228
0.00416702
0.00398418
0.0038334
0.00368392
0.00355256
0.00340863
0.00328152
0.00313367
0.00300941
0.00286129
0.00274615
0.00260393
0.00250587
0.00237298
0.00229606
0.00217399
0.00211394
0.00200262
0.00195889
0.00185787
0.0018301
0.00173629
0.00172319
0.00163392
0.0016338
0.00154658
0.00156054
0.00147669
0.00152446
0.00147031
0.00167975
0.00172038
0.00216744
0.00209421
0.0024757
0.00241173
0.00304747
0.00150811
0.00278645
0.00381598
0.00487176
0.00513721
0.00580383
0.00584381
0.00640553
0.00646413
0.00700042
0.00711137
0.00759868
0.00775934
0.00821698
0.00843946
0.0088368
0.00899738
0.00914461
0.00905473
0.00888284
0.00857168
0.00824883
0.00789615
0.00758525
0.00729798
0.00706279
0.00686532
0.00671769
0.00661918
0.00659086
0.00667066
0.00690616
0.007331
0.00787604
0.00843167
0.00885939
0.00914947
0.00926414
0.0093013
0.00921202
0.00913267
0.00893194
0.0088254
0.00852102
0.00846719
0.00806006
0.00622949
0.00433792
0.00566162
0.00676336
0.00787654
0.00898819
0.00994386
0.0105625
0.0107844
0.0106163
0.0101848
0.00959687
0.00896956
0.0083523
0.00779731
0.00730038
0.00688137
0.00650285
0.00617951
0.00586497
0.00558392
0.00528955
0.00502561
0.00473553
0.00448465
0.00420266
0.00397257
0.00370684
0.00350824
0.0032641
0.00310322
0.00288374
0.00275776
0.00256228
0.00246718
0.00229487
0.00222928
0.00207611
0.00203671
0.00189873
0.0018818
0.00175482
0.00176152
0.00164608
0.00171469
0.0016531
0.00203683
0.00212499
0.00297425
0.0028848
0.00367857
0.00361977
0.00531601
0.00239313
0.00312436
0.00440993
0.00581231
0.00633323
0.00723565
0.00745672
0.00820753
0.00841016
0.00910738
0.00933949
0.009965
0.0102374
0.0108225
0.0111479
0.0116355
0.0118358
0.0119768
0.0118275
0.011569
0.0111498
0.0107184
0.010261
0.00985826
0.0094911
0.00918975
0.00893815
0.00874982
0.00862717
0.00860057
0.00872645
0.00907363
0.00968531
0.0104609
0.0112428
0.0118457
0.012255
0.0124274
0.0124877
0.0123806
0.0122759
0.0120213
0.0118696
0.011494
0.0113917
0.0109008
0.0159554
0.0113146
0.0123185
0.0128498
0.0136039
0.014476
0.0152663
0.0157652
0.0158859
0.0155963
0.0150041
0.014215
0.0133621
0.0125093
0.0117242
0.0110059
0.0103804
0.00980208
0.00928965
0.00878537
0.00832237
0.00784189
0.00740274
0.00693178
0.00651593
0.00606206
0.00568107
0.00525481
0.0049226
0.00453011
0.00425497
0.00390027
0.00368241
0.00336448
0.00319589
0.00291478
0.0027949
0.00254607
0.00247039
0.00224984
0.00221332
0.00201652
0.00202266
0.00185167
0.00197784
0.00190503
0.00262514
0.00278038
0.0042413
0.00411794
0.00541168
0.00537969
0.00818133
0.00404646
0.00371103
0.0049547
0.0066331
0.00739343
0.00851317
0.00892906
0.00986709
0.0102318
0.0110845
0.0114467
0.0121995
0.0125847
0.0132819
0.0137012
0.0142558
0.014479
0.0145942
0.0143781
0.0140304
0.0135101
0.01298
0.0124318
0.0119507
0.0115178
0.0111629
0.010869
0.0106505
0.0105138
0.0104998
0.0106854
0.0111627
0.0119815
0.0130049
0.0140217
0.0148021
0.0153272
0.0155542
0.0156319
0.015506
0.0153711
0.015065
0.0148648
0.0144275
0.0142716
0.0137109
0.0292632
0.0214597
0.0210659
0.0203904
0.0203735
0.0207113
0.0211285
0.0213581
0.0212788
0.0208208
0.0200643
0.0191007
0.0180635
0.017022
0.0160505
0.0151489
0.0143448
0.0135858
0.012892
0.0121989
0.0115464
0.0108698
0.0102403
0.0095747
0.00897671
0.00833686
0.00778795
0.00718735
0.00670475
0.0061493
0.00574276
0.00523573
0.00490863
0.00444743
0.00418866
0.00377351
0.00358489
0.00321075
0.00308891
0.00275289
0.00269463
0.0023941
0.00241247
0.00215686
0.00241032
0.00233528
0.00363624
0.00388878
0.00611315
0.00591396
0.00766897
0.007671
0.0114123
0.00635824
0.0047083
0.00553927
0.00739807
0.00836439
0.009679
0.0102861
0.0114049
0.0119366
0.0129381
0.0134311
0.0143012
0.0147948
0.0155897
0.0160905
0.0166919
0.0169218
0.0169972
0.0167099
0.0162732
0.0156598
0.0150409
0.0144145
0.0138674
0.013381
0.0129837
0.0126578
0.0124183
0.0122766
0.0122856
0.0125445
0.0131701
0.0142158
0.0155024
0.0167599
0.0177162
0.0183498
0.0186243
0.018711
0.0185617
0.0183907
0.0180323
0.0177798
0.0172836
0.0170718
0.0164496
0.0431629
0.0328974
0.0308153
0.0287499
0.0277834
0.0274363
0.0273502
0.0272033
0.0268408
0.0261611
0.025218
0.0240837
0.0228833
0.0216832
0.0205573
0.0195026
0.0185439
0.0176229
0.0167588
0.0158842
0.0150439
0.0141725
0.0133501
0.0124895
0.0117057
0.0108802
0.0101597
0.00938618
0.00874938
0.008033
0.0074901
0.00683198
0.00638822
0.00578294
0.00542588
0.00487096
0.00460466
0.00409353
0.00391821
0.00344851
0.00336779
0.00294035
0.00299055
0.00263296
0.00312198
0.00309488
0.00524042
0.005621
0.00860666
0.00827702
0.0103548
0.0103802
0.014822
0.00909707
0.00618423
0.00624444
0.00816468
0.00928735
0.0107714
0.0115566
0.0128457
0.0135406
0.0146823
0.0153016
0.0162783
0.0168729
0.0177514
0.0183204
0.0189503
0.0191727
0.019198
0.0188373
0.018314
0.0176156
0.0169179
0.0162251
0.0156233
0.0150942
0.0146641
0.014315
0.0140625
0.0139239
0.0139654
0.0143107
0.0151024
0.0163939
0.017957
0.0194578
0.0205848
0.0213167
0.0216289
0.0217146
0.0215357
0.0213219
0.0209093
0.0206006
0.0200457
0.0197763
0.0190981
0.0565437
0.0446111
0.0409364
0.0375274
0.0355775
0.0344805
0.033815
0.0332173
0.0325066
0.0315561
0.0303976
0.0290838
0.0277263
0.0263834
0.0251221
0.023933
0.022835
0.0217638
0.0207371
0.019687
0.0186624
0.0176002
0.0165872
0.0155364
0.0145693
0.0135644
0.0126754
0.0117368
0.0109489
0.010081
0.00940406
0.00860522
0.00804505
0.00730631
0.00684994
0.0061643
0.00581733
0.00517518
0.004943
0.00434117
0.00423973
0.00368379
0.00379209
0.00334561
0.00420732
0.00433638
0.00750088
0.0080223
0.0116169
0.0111102
0.0133388
0.0133612
0.0182772
0.012066
0.0080989
0.00713546
0.00898545
0.0101982
0.011823
0.0127672
0.0142126
0.0150614
0.0163321
0.0170697
0.0181417
0.018828
0.0197763
0.0203997
0.021042
0.0212446
0.0212122
0.0207777
0.0201718
0.0193967
0.0186302
0.0178819
0.0172356
0.0166736
0.0162191
0.0158541
0.0155956
0.0154672
0.01555
0.0159943
0.0169693
0.0185243
0.0203742
0.0221176
0.0234067
0.0242245
0.0245629
0.0246371
0.0244215
0.0241586
0.0236888
0.0233206
0.0227067
0.0223781
0.0216479
0.0690253
0.0561174
0.0510834
0.0464739
0.0435818
0.0417234
0.0404395
0.0393421
0.0382339
0.0369713
0.0355687
0.0340609
0.0325439
0.0310637
0.0296761
0.0283621
0.0271319
0.0259162
0.0247302
0.0235079
0.0223016
0.021053
0.0198531
0.0186183
0.017473
0.0162965
0.0152449
0.0141507
0.0132178
0.0122095
0.0114043
0.0104775
0.00980527
0.00894752
0.00839514
0.00759437
0.0071682
0.00641127
0.00612279
0.00540553
0.0052883
0.00462437
0.00482289
0.00433945
0.00571501
0.00614699
0.0103489
0.0110014
0.0149833
0.0142733
0.0164966
0.0164916
0.0216893
0.0151302
0.0103467
0.0082551
0.00990405
0.0111283
0.0128609
0.0139408
0.0155258
0.0165151
0.0179017
0.018747
0.0199025
0.0206696
0.0216741
0.0223382
0.0229788
0.023151
0.0230556
0.0225482
0.0218648
0.0210215
0.0201962
0.0194025
0.0187215
0.018135
0.0176635
0.0172892
0.0170304
0.0169183
0.0170506
0.017606
0.018781
0.020615
0.0227591
0.0247406
0.0261803
0.0270697
0.027422
0.027474
0.0272148
0.0268968
0.0263673
0.0259364
0.0252634
0.0248742
0.0240949
0.0805664
0.0672085
0.0610698
0.0554329
0.0516764
0.0490767
0.0471604
0.0455333
0.0439918
0.0423837
0.0407113
0.0389935
0.0373101
0.0356918
0.0341801
0.0327436
0.0313828
0.0300231
0.0286778
0.0272843
0.025898
0.0244664
0.0230839
0.0216712
0.0203536
0.0190136
0.0178063
0.0165658
0.0154949
0.014357
0.0134304
0.0123881
0.0116098
0.0106472
0.0100042
0.00910483
0.00860367
0.00775147
0.00741042
0.00660183
0.0064773
0.00574094
0.00606667
0.00562964
0.0076381
0.00851254
0.0136336
0.0143939
0.0185474
0.0176287
0.0197262
0.0196745
0.0250022
0.018202
0.01281
0.00961922
0.0109531
0.0121045
0.0139079
0.0150967
0.0168022
0.0179155
0.0194033
0.0203439
0.0215704
0.0224069
0.0234542
0.0241458
0.0247718
0.0249052
0.024743
0.0241648
0.0234099
0.0225071
0.0216326
0.0208035
0.0200966
0.0194933
0.0190113
0.0186331
0.018379
0.0182888
0.018478
0.019156
0.0205463
0.0226729
0.0251146
0.0273262
0.0289023
0.0298482
0.0302017
0.0302214
0.0299121
0.0295338
0.0289422
0.0284466
0.0277144
0.0272635
0.0264378
0.0912527
0.0778092
0.0707985
0.0643071
0.0597778
0.0564751
0.0539288
0.0517555
0.0497558
0.0477764
0.0458122
0.0438691
0.04201
0.0402491
0.0386109
0.0370498
0.0355556
0.0340492
0.0325425
0.0309771
0.0294116
0.0278001
0.0262389
0.0246543
0.0231705
0.0216746
0.0203185
0.0189405
0.017739
0.016481
0.0154402
0.014293
0.0134153
0.0123604
0.0116328
0.01065
0.0100795
0.00915092
0.00876331
0.00788913
0.00776917
0.00700301
0.00749643
0.00720462
0.00992657
0.0113384
0.017186
0.0180283
0.0221804
0.0210626
0.0229508
0.0228382
0.0281819
0.0212249
0.0153882
0.0112173
0.0121535
0.0131487
0.0149825
0.0162504
0.0180554
0.0192741
0.0208471
0.0218694
0.0231539
0.0240478
0.0251249
0.0258315
0.0264316
0.026519
0.026288
0.025642
0.0248221
0.0238687
0.0229547
0.0220993
0.0213749
0.0207619
0.020275
0.0198976
0.0196523
0.0195886
0.0198416
0.0206529
0.0222725
0.0247023
0.0274413
0.0298716
0.031568
0.0325548
0.0328974
0.0328755
0.0325102
0.0320675
0.0314119
0.03085
0.0300589
0.0295459
0.0286762
0.101204
0.0879084
0.0802232
0.0730363
0.0678284
0.0638698
0.0607061
0.0579801
0.0555057
0.0531355
0.0508618
0.0486794
0.046635
0.0447247
0.0429544
0.0412636
0.0396307
0.0379728
0.0363009
0.0345621
0.0328177
0.0310289
0.029293
0.0275421
0.0258981
0.0242535
0.0227555
0.021248
0.0199227
0.0185533
0.017405
0.0161624
0.0151918
0.0140551
0.0132493
0.0121959
0.0115622
0.0105741
0.0101475
0.00923232
0.00913161
0.00837988
0.00908305
0.00903515
0.0125077
0.0144946
0.0208586
0.0217602
0.0257877
0.0244889
0.0261157
0.0259323
0.0312095
0.0241631
0.0180056
0.0130184
0.0135111
0.0142765
0.0160988
0.0174143
0.0192962
0.0206003
0.0222413
0.0233309
0.0246603
0.0255994
0.0266937
0.0274032
0.0279677
0.0280034
0.0277029
0.0269929
0.0261151
0.02512
0.0241759
0.0233032
0.0225689
0.0219524
0.0214656
0.0210927
0.0208598
0.0208265
0.0211493
0.0221038
0.023965
0.0267055
0.0297375
0.0323722
0.0341716
0.0351837
0.035504
0.0354325
0.0350063
0.034496
0.0337753
0.0331462
0.0322969
0.0317219
0.0308095
0.110537
0.0975256
0.0893274
0.0815853
0.0757883
0.0712219
0.0674615
0.0641835
0.0612244
0.0584494
0.0558522
0.0534185
0.0511792
0.0491117
0.0472021
0.0453743
0.0435956
0.0417802
0.039939
0.0380247
0.0361017
0.034138
0.0322313
0.0303193
0.028521
0.0267344
0.0251011
0.0234713
0.022029
0.0205557
0.0193065
0.0179764
0.0169191
0.0157095
0.0148315
0.0137183
0.013028
0.011995
0.0115379
0.0106042
0.0105396
0.00984527
0.0107997
0.0110834
0.015303
0.017852
0.0245383
0.0254817
0.0293044
0.0278466
0.0291836
0.0289229
0.034076
0.0269942
0.0206088
0.0149795
0.0150181
0.015497
0.0172667
0.0185973
0.0205324
0.0219008
0.0235925
0.0247343
0.0260954
0.0270675
0.028167
0.0288683
0.0293887
0.0293682
0.0289986
0.028229
0.0273009
0.0262731
0.0253083
0.0244267
0.0236897
0.0230752
0.0225926
0.0222273
0.0220094
0.0220098
0.0224079
0.0235143
0.0256273
0.0286826
0.0319997
0.0348217
0.0367063
0.0377288
0.0380166
0.0378887
0.037398
0.0368177
0.0360315
0.035335
0.0344286
0.0337919
0.0328381
0.119358
0.106694
0.0981121
0.0899351
0.0836309
0.078504
0.0741708
0.0703462
0.0668974
0.063708
0.0607765
0.0580816
0.0556385
0.0534055
0.0513483
0.0493752
0.0474429
0.0454634
0.0434483
0.0413566
0.0392553
0.037119
0.0350454
0.0329774
0.0310306
0.0291082
0.027346
0.0256005
0.0240474
0.022477
0.0211329
0.0197223
0.0185842
0.0173092
0.0163648
0.015201
0.0144606
0.0133952
0.0129169
0.011985
0.0119751
0.0113787
0.0126234
0.0133093
0.0182384
0.0212998
0.0281456
0.0291179
0.0326891
0.0310943
0.0321302
0.0317881
0.0367788
0.0297053
0.0231613
0.0170538
0.0166558
0.0168121
0.0184914
0.0198054
0.0217692
0.0231807
0.0249052
0.0260843
0.0274641
0.0284571
0.0295503
0.0302332
0.0307021
0.0306223
0.0301849
0.029361
0.0283905
0.027339
0.0263624
0.02548
0.0247468
0.0241391
0.023664
0.0233088
0.0231078
0.0231446
0.0236224
0.0248883
0.027261
0.0306314
0.0342222
0.0372131
0.0391649
0.0401842
0.0404306
0.0402408
0.039683
0.0390316
0.0381799
0.0374166
0.0364545
0.0357571
0.0347634
0.127756
0.115454
0.106588
0.0980776
0.0913388
0.0856964
0.0808152
0.076452
0.0725121
0.0689024
0.065629
0.0626647
0.0600097
0.0576028
0.0553893
0.053262
0.0511678
0.0490177
0.0468244
0.0445534
0.0422744
0.039968
0.0377313
0.0355123
0.0334225
0.0313705
0.0294853
0.0276304
0.0259724
0.024311
0.0228777
0.0213926
0.0201792
0.0188453
0.01784
0.0166335
0.0158494
0.0147625
0.0142727
0.0133615
0.0134259
0.0129651
0.0145347
0.015674
0.0212492
0.0247515
0.0316284
0.0326205
0.0359172
0.0342061
0.034941
0.0345151
0.0393195
0.0322894
0.0256395
0.0191968
0.0183984
0.018217
0.0197738
0.0210412
0.0230097
0.0244433
0.0261831
0.0273846
0.0287703
0.0297725
0.0308485
0.0315036
0.031915
0.0317736
0.0312708
0.0303982
0.0293935
0.0283273
0.0273478
0.026472
0.0257484
0.0251516
0.0246867
0.0243431
0.0241604
0.0242355
0.0247969
0.0262283
0.0288659
0.0325484
0.0363983
0.0395385
0.0415404
0.0425441
0.0427419
0.0424862
0.0418597
0.0411367
0.0402205
0.0393912
0.0383753
0.0376185
0.0365867
0.135806
0.123845
0.114772
0.106012
0.0989014
0.0927849
0.0873795
0.0824878
0.0780581
0.0740248
0.0704041
0.0671642
0.0642901
0.0617012
0.0593225
0.0570321
0.0547679
0.0524409
0.0500653
0.0476137
0.0451577
0.0426839
0.0402882
0.0379231
0.0356957
0.0335196
0.0315173
0.0295587
0.0278015
0.0260546
0.0245375
0.0229834
0.0216998
0.0203127
0.0192517
0.0180092
0.0171878
0.0160894
0.0155985
0.0147252
0.0148845
0.0145939
0.0165177
0.0181415
0.0242817
0.0281437
0.0349551
0.0359606
0.0389756
0.0371666
0.0376079
0.0370971
0.0417022
0.0347439
0.0280282
0.0213692
0.020217
0.0197017
0.0211106
0.022305
0.0242548
0.0256901
0.0274281
0.0286377
0.030017
0.0310171
0.0320659
0.0326848
0.0330335
0.0328293
0.0322642
0.0313492
0.0303187
0.0292467
0.0282728
0.0274105
0.0267017
0.0261191
0.0256661
0.0253351
0.0251715
0.0252861
0.0259338
0.0275353
0.0304405
0.0344284
0.0385206
0.0417901
0.0438258
0.0448035
0.0449468
0.0446225
0.0439268
0.0431328
0.0421534
0.0412598
0.040192
0.0393775
0.0383094
0.143569
0.131905
0.122683
0.113742
0.106313
0.0997593
0.0938522
0.0884425
0.0835262
0.0790684
0.0750971
0.0715766
0.0684771
0.0656986
0.0631461
0.0606838
0.0582418
0.055732
0.0531709
0.0505376
0.0479059
0.0452676
0.0427169
0.0402105
0.0378508
0.0355562
0.0334422
0.0313855
0.0295343
0.0277071
0.0261112
0.024493
0.0231441
0.0217089
0.0205973
0.0193248
0.0184727
0.0173717
0.0168904
0.0160718
0.0163469
0.0162582
0.0185587
0.0206795
0.0272933
0.0314322
0.038109
0.039123
0.0418594
0.0399682
0.040128
0.0395318
0.0439326
0.0370689
0.0303187
0.0235387
0.0220828
0.0212519
0.0224951
0.0235942
0.0255035
0.0269215
0.0286414
0.0298454
0.0312065
0.0321939
0.0332062
0.0337813
0.0340634
0.0337962
0.0331725
0.0322216
0.0311738
0.0301047
0.0291445
0.028302
0.0276125
0.0270466
0.0266068
0.0262886
0.0261441
0.0262989
0.0270348
0.0288092
0.0319817
0.0362651
0.040581
0.0439602
0.0460152
0.0469578
0.0470426
0.0466482
0.0458838
0.0450198
0.0439792
0.0430232
0.0419059
0.0410356
0.0399334
0.151097
0.139672
0.130342
0.121274
0.113571
0.106613
0.100224
0.0943071
0.0889087
0.0840273
0.0797037
0.075899
0.0725685
0.0695933
0.0668587
0.0642161
0.0615891
0.0588913
0.0561419
0.0533267
0.0505208
0.0477211
0.0450195
0.0423767
0.0398898
0.0374821
0.0352618
0.0331119
0.031172
0.0292693
0.0275993
0.0259216
0.0245119
0.0230333
0.0218759
0.0205791
0.0197027
0.0186078
0.0181473
0.0173996
0.0178118
0.0179533
0.0206461
0.0232596
0.030251
0.0345884
0.041083
0.0421017
0.0445687
0.0426084
0.0425014
0.0418197
0.0460172
0.0392666
0.0325066
0.0256797
0.0239692
0.0228509
0.023918
0.0249045
0.0267535
0.0281368
0.0298232
0.0310089
0.0323408
0.0333054
0.0342727
0.0347974
0.0350099
0.0346801
0.0340023
0.0330224
0.0319658
0.0309083
0.0299692
0.0291523
0.0284856
0.0279382
0.0275121
0.0272065
0.0270806
0.0272754
0.0281005
0.0300488
0.0334854
0.0380518
0.0425716
0.0460417
0.0481031
0.0490037
0.0490272
0.0485624
0.0477305
0.0467985
0.0456989
0.0446827
0.0435185
0.0425944
0.0414603
0.15843
0.147179
0.137769
0.128616
0.120677
0.113341
0.106489
0.100075
0.0941992
0.0888962
0.08422
0.0801284
0.0765624
0.0733837
0.0704592
0.0676286
0.06481
0.0619198
0.0589801
0.0559829
0.053005
0.0500472
0.0471991
0.0444246
0.0418158
0.0392999
0.0369785
0.0347405
0.0327165
0.0307429
0.0290033
0.0272704
0.0258044
0.0242866
0.0230883
0.0217726
0.0208784
0.0197981
0.0193702
0.0187093
0.0192797
0.0196765
0.0227696
0.025857
0.0331304
0.037595
0.0438767
0.0448967
0.047107
0.0450885
0.0447304
0.0439637
0.047963
0.0413405
0.0345903
0.027773
0.0258528
0.0244811
0.0253682
0.0262297
0.0280011
0.0293341
0.0309732
0.0321286
0.0334211
0.0343537
0.0352682
0.035737
0.0358777
0.0354867
0.0347597
0.0337579
0.0327011
0.0316632
0.0307525
0.029966
0.029325
0.0287971
0.0283845
0.0280905
0.0279822
0.0282165
0.0291305
0.031252
0.034947
0.0397814
0.0444849
0.0480283
0.0500851
0.0509384
0.0508992
0.0503648
0.0494673
0.0484696
0.0473137
0.04624
0.0450316
0.0440561
0.0428922
0.1656
0.154457
0.144983
0.135779
0.127632
0.119941
0.112642
0.105739
0.0993923
0.0936706
0.0886424
0.0842625
0.0804567
0.0770685
0.0739469
0.0709211
0.0679052
0.0648189
0.0616874
0.0585092
0.0553616
0.0522492
0.049259
0.0463577
0.0436319
0.0410129
0.0385953
0.0362739
0.0341706
0.0321303
0.0303256
0.0285415
0.0270234
0.0254706
0.024236
0.0229065
0.0220016
0.0209442
0.0205613
0.0200029
0.0207525
0.0214262
0.0249199
0.0284506
0.0359139
0.0404434
0.0464936
0.0475119
0.0494797
0.0474117
0.0468188
0.0459674
0.049777
0.0432947
0.0365702
0.0298043
0.027714
0.026125
0.0268336
0.0275625
0.0292418
0.0305112
0.0320903
0.0332048
0.0344485
0.0353406
0.0361955
0.0366035
0.0366712
0.0362211
0.0354501
0.0344337
0.0333851
0.0323748
0.0314987
0.0307469
0.0301337
0.0296255
0.0292255
0.0289418
0.0288497
0.0291222
0.0301241
0.032416
0.0363611
0.0414466
0.0463137
0.0499144
0.0519576
0.05276
0.052658
0.0520556
0.0510951
0.0500345
0.0488253
0.0476969
0.046447
0.0454226
0.0442313
0.172633
0.161531
0.152004
0.142772
0.13444
0.126413
0.11868
0.111296
0.104483
0.0983468
0.0929681
0.0882987
0.0842498
0.0806466
0.0773212
0.0740939
0.0708757
0.0675903
0.0642665
0.0609084
0.0575939
0.0543309
0.0512031
0.0481796
0.0453419
0.0426246
0.0401157
0.0377154
0.0355372
0.0334345
0.0315687
0.0297373
0.0281713
0.0265874
0.0253214
0.0239833
0.0230746
0.0220488
0.0217239
0.021284
0.0222331
0.0232014
0.0270886
0.0310223
0.0385897
0.0431305
0.0489397
0.0499531
0.0516932
0.049583
0.048771
0.0478357
0.0514662
0.045134
0.0384483
0.0317639
0.0295373
0.0277664
0.0283021
0.0288951
0.0304707
0.0316651
0.0331733
0.0342373
0.0354236
0.0362676
0.037057
0.0374004
0.0373946
0.0368878
0.0360785
0.035055
0.0340227
0.0330474
0.0322116
0.0314978
0.0309136
0.0304249
0.0300361
0.0297609
0.0296833
0.0299922
0.0310798
0.0335379
0.0377224
0.0430408
0.0480518
0.0516956
0.0537181
0.0544675
0.0543037
0.0536357
0.0526152
0.051495
0.0502355
0.0490554
0.0477669
0.0466963
0.0454798
0.179548
0.168427
0.15885
0.149605
0.141105
0.132755
0.124598
0.116742
0.109469
0.102921
0.0971943
0.0922352
0.0879401
0.0841168
0.0805817
0.0771473
0.0737226
0.0702361
0.06672
0.0631837
0.0597056
0.0562959
0.0530351
0.0498943
0.0469495
0.0441387
0.0415433
0.0390684
0.0368197
0.0346585
0.0327357
0.0308606
0.0292508
0.0276399
0.0263473
0.0250057
0.0241009
0.0231155
0.0228623
0.0225569
0.0237248
0.0250014
0.029268
0.0335573
0.0411503
0.0456574
0.0512221
0.0522277
0.0537545
0.0516078
0.0505922
0.0495737
0.0530374
0.0468634
0.0402273
0.0336452
0.0313105
0.0293908
0.0297619
0.0302194
0.0316823
0.0327928
0.0342206
0.0352258
0.036347
0.0371363
0.0378549
0.0381306
0.0380516
0.0374913
0.0366497
0.0356263
0.0346183
0.0336847
0.0328942
0.032221
0.0316663
0.0311959
0.0308166
0.0305479
0.0304825
0.0308256
0.0319959
0.034614
0.0390254
0.0445574
0.0496936
0.0533682
0.0553647
0.0560606
0.0558369
0.0551063
0.0540293
0.0528528
0.0515465
0.0503179
0.0489938
0.0478795
0.0466401
0.186359
0.175165
0.165536
0.156289
0.147631
0.13897
0.130396
0.122074
0.114347
0.107392
0.101319
0.0960699
0.0915263
0.0874784
0.0837283
0.080082
0.0764475
0.0727585
0.0690506
0.0653386
0.0617002
0.0581481
0.0547589
0.0515055
0.0484586
0.045559
0.0428815
0.0403364
0.0380213
0.0358055
0.0338296
0.0319145
0.0302649
0.0286308
0.0273167
0.0259771
0.0250839
0.0241484
0.0239812
0.0238263
0.0252311
0.0268255
0.0314508
0.0360434
0.0435916
0.0480276
0.0533487
0.0543432
0.0556706
0.0534923
0.0522876
0.0511867
0.0544971
0.0484879
0.0419105
0.0354446
0.0330246
0.0309856
0.0312023
0.0315273
0.0328714
0.033891
0.0352304
0.0361697
0.0372192
0.0379478
0.0385915
0.0387971
0.0386458
0.0380355
0.0371677
0.0361517
0.0351754
0.0342899
0.0335489
0.0329179
0.0323924
0.0319389
0.031567
0.0313023
0.0312468
0.0316214
0.0328704
0.0356409
0.0402648
0.0459909
0.0512347
0.0549298
0.0568967
0.0575397
0.0572588
0.0564692
0.0553393
0.0541103
0.0527606
0.0514867
0.0501299
0.0489746
0.0477147
0.193077
0.181764
0.172078
0.162832
0.154024
0.145059
0.136072
0.12729
0.119114
0.111756
0.10534
0.0998014
0.095007
0.0907307
0.0867609
0.0828985
0.0790518
0.0751597
0.0712614
0.0673762
0.0635814
0.0598912
0.0563784
0.0530173
0.0498729
0.046889
0.044134
0.0415228
0.0391455
0.0368787
0.0348536
0.0329021
0.0312168
0.0295635
0.0282329
0.026901
0.026028
0.0251522
0.0250859
0.0250978
0.0267559
0.028673
0.0336301
0.0384705
0.0459121
0.0502463
0.0553271
0.0563075
0.0574486
0.0552426
0.0538624
0.0526801
0.0558516
0.0500127
0.0435015
0.0371603
0.0346732
0.0325407
0.0326134
0.0328114
0.0340327
0.0349565
0.0362012
0.0370684
0.0380406
0.0387034
0.0392686
0.0394027
0.0391806
0.0385242
0.0376363
0.0366348
0.0356974
0.0348654
0.0341771
0.0335894
0.0330923
0.0326537
0.0322866
0.0320235
0.0319753
0.0323784
0.0337014
0.0366152
0.0414358
0.0473361
0.0526714
0.0563785
0.0583139
0.0589056
0.0585709
0.0577262
0.0565476
0.0552699
0.0538803
0.0525643
0.0511778
0.0499844
0.0487061
0.199709
0.188239
0.178488
0.169244
0.160289
0.151024
0.141628
0.13239
0.123768
0.116013
0.109256
0.103428
0.0983815
0.0938732
0.0896797
0.085598
0.0815371
0.0774421
0.0733552
0.0693
0.0653528
0.061529
0.0578973
0.0544332
0.0511963
0.0481325
0.0453043
0.042631
0.0401954
0.0378814
0.035811
0.0338266
0.0321096
0.0304412
0.0290995
0.0277812
0.0269374
0.0261318
0.0261823
0.0263768
0.0283026
0.0305427
0.0357996
0.0408311
0.0481123
0.0523196
0.0571651
0.0581282
0.0590951
0.0568647
0.055322
0.0540591
0.0571071
0.0514429
0.0450044
0.0387919
0.036252
0.0340476
0.033987
0.0340648
0.0351615
0.0359862
0.0371312
0.0379215
0.0388115
0.0394042
0.0398882
0.0399498
0.0396589
0.0389607
0.0380591
0.0370789
0.0361868
0.0354131
0.0347801
0.0342358
0.0337656
0.0333396
0.0329748
0.0327107
0.0326672
0.0330954
0.0344868
0.0375335
0.0425339
0.0485889
0.0540011
0.0577135
0.0596166
0.0601597
0.0597752
0.0588798
0.0576565
0.056334
0.0549081
0.0535534
0.0521401
0.0509113
0.0496169
0.206257
0.194603
0.18478
0.175533
0.166431
0.156867
0.147064
0.137373
0.12831
0.120161
0.113065
0.10695
0.101649
0.0969056
0.092485
0.0881814
0.0839054
0.0796082
0.0753349
0.0711132
0.0670179
0.0630652
0.0593195
0.0557571
0.0524322
0.049293
0.0463959
0.0436644
0.0411745
0.0388168
0.0367048
0.0346911
0.0329467
0.0312673
0.0299202
0.0286219
0.0278169
0.0270928
0.0272762
0.0276691
0.0298746
0.0324332
0.0379533
0.043119
0.0501939
0.0542541
0.0588698
0.0598126
0.0606165
0.0583645
0.0566714
0.0553289
0.0582694
0.0527834
0.0464229
0.0403404
0.0377587
0.0355
0.0353162
0.0352814
0.0362533
0.0369772
0.0380189
0.0387284
0.0395324
0.0400514
0.0404521
0.040441
0.0400839
0.0393483
0.0384391
0.0374867
0.0366459
0.0359345
0.0353585
0.034857
0.0344119
0.0339958
0.0336307
0.033363
0.0333214
0.0337711
0.0352248
0.038393
0.0435555
0.049746
0.0552218
0.0589344
0.0608059
0.0613038
0.0608738
0.0599322
0.0586686
0.0573054
0.0558468
0.0544566
0.0530194
0.0517581
0.0504497
0.212722
0.200867
0.190963
0.181708
0.172455
0.162591
0.15238
0.14224
0.132739
0.124198
0.116768
0.110365
0.104809
0.0998277
0.0951773
0.0906499
0.0861585
0.0816604
0.0772036
0.0728192
0.0685802
0.0645033
0.0606485
0.0569926
0.0535842
0.0503739
0.047412
0.0446264
0.042086
0.0396881
0.0375382
0.0354987
0.0337311
0.0320453
0.0306987
0.0294273
0.0286715
0.0280408
0.028374
0.0289804
0.0314748
0.0343428
0.0400858
0.04533
0.0521598
0.0560564
0.0604482
0.0613674
0.0620188
0.0597476
0.0579153
0.0564944
0.059344
0.0540393
0.0477611
0.0418074
0.0391919
0.0368932
0.0365956
0.036456
0.0373043
0.0379271
0.0388629
0.0394888
0.0402035
0.0406461
0.0409622
0.0408787
0.0404582
0.0396898
0.038779
0.0378607
0.0370763
0.0364305
0.0359123
0.0354527
0.0350303
0.0346215
0.0342532
0.0339794
0.033937
0.0344045
0.0359136
0.039191
0.0444972
0.0508046
0.0563325
0.0600416
0.0618832
0.0623399
0.0618693
0.0608862
0.0595866
0.0581867
0.0566989
0.0552766
0.0538185
0.0525272
0.0512071
0.219104
0.207039
0.197046
0.187774
0.178366
0.1682
0.157579
0.146989
0.137054
0.128126
0.120363
0.113673
0.10786
0.10264
0.0977571
0.0930048
0.0882984
0.0836013
0.0789642
0.0744212
0.0700431
0.0658469
0.0618878
0.0581429
0.0546558
0.0513786
0.0483561
0.0455199
0.0429328
0.0404983
0.0383143
0.0362528
0.0344663
0.0327785
0.031439
0.0302018
0.0295065
0.0289818
0.029482
0.0303163
0.0331057
0.0362691
0.0421921
0.0474612
0.0540134
0.057733
0.0619065
0.0627991
0.0633076
0.0610194
0.0590586
0.0575605
0.0603363
0.0552153
0.0490229
0.0431951
0.0405517
0.0382239
0.0378211
0.0375845
0.0383113
0.0388335
0.0396622
0.0402022
0.0408255
0.0411895
0.0414202
0.0412651
0.0407844
0.0399881
0.0390816
0.0382028
0.0374796
0.0369018
0.0364416
0.0360221
0.0356197
0.0352154
0.0348416
0.0345592
0.0345133
0.0349946
0.0365519
0.0399253
0.0453565
0.051763
0.0573326
0.0610361
0.0628503
0.0632704
0.0627641
0.0617444
0.0604133
0.0589806
0.0574673
0.0560161
0.0545398
0.0532214
0.0518916
0.225399
0.213127
0.203039
0.19374
0.184168
0.173696
0.162663
0.151624
0.141256
0.131944
0.12385