/*--------------------------------*- C++ -*----------------------------------*\
| =========                 |                                                 |
| \\      /  F ield         | OpenFOAM: The Open Source CFD Toolbox           |
|  \\    /   O peration     | Version:  2412                                  |
|   \\  /    A nd           | Website:  www.openfoam.com                      |
|    \\/     M anipulation  |                                                 |
\*---------------------------------------------------------------------------*/
FoamFile
{
    version     2.0;
    format      ascii;
    arch        "LSB;label=32;scalar=64";
    class       volScalarField;
    location    "0.6";
    object      p;
}
// * * * * * * * * * * * * * * * * * * * * * * * * * * * * * * * * * * * * * //

dimensions      [0 2 -2 0 0 0 0];

internalField   nonuniform List<scalar> 
78408
(
119842
111799
110814
110127
109296
108673
108153
107656
107227
106835
106502
106201
105947
105705
105489
105259
105038
104769
104511
104185
103881
103486
103135
102645
102244
101638
101180
100419
99905.1
98922.9
98368.1
97074.9
96498.5
94748.7
94211.5
91783.1
91402.4
87923.4
87940.5
82802.6
83639.2
75828.8
78318.3
66143.7
72010.6
52604.9
65293.2
33341.7
58046.1
3195.26
46692.4
-52350.1
15342.7
-273662
-35726.1
-68426
5639.49
-31319.1
16828.3
-6260.93
24288
11708
31604.5
25550.6
38582.5
36297.6
44988.4
44805.6
50770.5
51629.3
55793.8
57007.4
59878
61073.8
63074.3
64167.1
65631.5
66622.2
67751.9
68654.6
69587.1
70420
71221
72008.3
72720.3
73488.1
74126.8
74871.1
75405.4
76129.9
76522.8
77241.3
77470.5
78229.1
78254.8
79133.9
78872.6
80016.5
79301.2
117889
111228
110687
110099
109283
108661
108143
107646
107218
106827
106496
106195
105942
105700
105485
105254
105034
104764
104506
104181
103876
103481
103129
102639
102237
101631
101172
100411
99896.9
98914
98358.8
97064.6
96487.7
94736.7
94198.9
91769.1
91387.6
87907
87922.8
82783.2
83617.8
75805.7
78292
66116.5
71978.7
52574.5
65254.9
33307.6
57996.1
3150.29
46615.3
-52433.9
15290.8
-272530
-35591.6
-68557.4
5604.18
-31332
16809.3
-6271.71
24273.6
11698
31592.5
25541.3
38572.3
36289
44979.5
44797.7
50762.5
51622
55786.5
57000.7
59871.5
61067.9
63068.9
64162.1
65626.9
66617.9
67747.9
68650.7
69583.4
70416.4
71217.5
72004.9
72716.9
73484.6
74123.3
74867.7
75401.9
76126.7
76519.5
77238.5
77467.5
78226.7
78251.9
79132
78869.6
80015
79298.3
117537
111361
110731
110099
109273
108651
108135
107639
107212
106822
106491
106190
105938
105696
105482
105251
105030
104760
104503
104176
103872
103476
103124
102633
102232
101624
101166
100404
99889.7
98905.6
98350.4
97054.7
96478
94725.1
94187.6
91755.3
91374.2
87890.5
87906.6
82763.3
83597.8
75781.7
78267.1
66087.9
71947.9
52542.2
65216.5
33270.5
57943
3100.01
46529.3
-52532.7
15261.2
-271183
-35474.8
-68717.1
5567.55
-31350.2
16784.1
-6285.8
24254.5
11684.9
31576.5
25529.1
38558.7
36277.9
44967.8
44787.4
50752
51612.3
55776.7
56991.7
59863.1
61060.4
63062.1
64155.9
65621.4
66612.8
67743.3
68646.3
69579.3
70412.5
71213.6
72001.2
72713.1
73481
74119.4
74864.2
75398
76123.3
76515.8
77235.6
77464
78224.6
78248.4
79130.7
78865.8
80014.8
79294.1
117477
111452
110728
110079
109259
108641
108127
107632
107206
106816
106486
106186
105934
105693
105478
105248
105027
104757
104499
104172
103868
103471
103119
102628
102227
101619
101160
100397
99883.1
98897.7
98343
97045.5
96469.5
94714.3
94177.7
91742.5
91362.7
87875.3
87892.7
82745
83581
75759.5
78246.4
66061.4
71922.5
52512.4
65185.1
33236.7
57898.3
3055.03
46453.8
-52622.6
15243.7
-269902
-35339.5
-68863.7
5540.67
-31366.8
16763.3
-6298.52
24238.3
11673.2
31563
25518.3
38547.2
36268
44957.8
44778.3
50742.8
51603.6
55768.1
56983.5
59855.5
61053.4
63055.8
64150.2
65616.3
66608.1
67739.1
68642.3
69575.5
70408.9
71210.2
71997.9
72709.8
73477.9
74116
74861.1
75394.4
76120.4
76512.4
77233.2
77460.7
78222.8
78245
79130
78861.8
80015.4
79289.4
117147
111419
110706
110059
109248
108632
108118
107624
107199
106810
106480
106181
105930
105689
105475
105244
105023
104753
104495
104168
103864
103466
103114
102622
102221
101612
101154
100390
99876.6
98889.7
98335.6
97036.1
96461.1
94703.3
94168.2
91729.4
91351.7
87859.7
87879.8
82726.2
83565.6
75736.7
78227.4
66034.2
71899.6
52481.4
65156.8
33201.7
57857.1
3009.09
46381.3
-52714.1
15208.2
-268616
-35161.6
-69010
5518.9
-31382.4
16746.1
-6310.48
24224.7
11662.2
31551.5
25508.3
38537.5
36259.1
44949.3
44770.2
50734.9
51595.7
55760.4
56976.1
59848.6
61046.9
63050.1
64145
65611.7
66603.7
67735.2
68638.5
69571.9
70405.5
71206.9
71994.9
72706.7
73475
74112.9
74858.3
75391.3
76117.8
76509.2
77231.1
77457.6
78221.3
78241.6
79129.4
78857.8
80016.3
79284.3
116831
111392
110701
110039
109235
108621
108109
107615
107192
106803
106475
106176
105926
105685
105472
105241
105020
104749
104491
104164
103859
103461
103109
102617
102216
101606
101148
100383
99869.9
98881.4
98328.1
97026.4
96452.7
94691.9
94158.8
91715.8
91341
87843.5
87867.3
82706.6
83550.7
75712.8
78209.4
66005.3
71877.9
52448.3
65129.8
33164.1
57815.9
2959.66
46306.5
-52812.2
15156.4
-267305
-34957.3
-69161.8
5498.89
-31398.1
16730.5
-6322.64
24212
11651.1
31540.7
25498.3
38528.3
36250.2
44941.2
44762
50727.2
51587.9
55752.9
56968.7
59841.9
61040.6
63044.6
64139.8
65607.1
66599.3
67731.3
68634.8
69568.4
70402.1
71203.6
71991.8
72703.7
73472.2
74109.9
74855.8
75388.2
76115.3
76506.2
77229.1
77454.5
78220
78238.2
79129
78853.7
80017.4
79279
116566
111365
110697
110014
109221
108610
108099
107607
107184
106796
106469
106171
105921
105681
105468
105237
105016
104745
104487
104159
103855
103456
103104
102611
102210
101599
101142
100375
99863
98872.7
98320.4
97016.3
96444.1
94680.1
94149.2
91701.8
91330.2
87826.8
87854.9
82686.3
83536.3
75688
78192.2
65975.3
71857.3
52413.5
65103.1
33124.2
57773.8
2906.96
46229.4
-52915.6
15099.2
-265987
-34740.2
-69315.7
5480.18
-31414.4
16715.8
-6335.11
24199.7
11639.8
31530.2
25488.2
38519.2
36241.2
44933.1
44753.7
50719.4
51580
55745.4
56961.3
59835.2
61034.3
63039.1
64134.6
65602.5
66594.9
67727.4
68631
69564.9
70398.7
71200.4
71988.8
72700.7
73469.6
74107
74853.3
75385.2
76113
76503.2
77227.2
77451.4
78218.7
78234.8
79128.7
78849.5
80018.8
79273.4
116312
111329
110691
109989
109207
108599
108089
107598
107177
106790
106463
106166
105917
105677
105464
105233
105012
104741
104483
104155
103850
103451
103099
102605
102204
101593
101136
100367
99856
98863.9
98312.6
97005.9
96435.4
94667.9
94139.5
91687.3
91319.4
87809.5
87842.6
82665.3
83522.1
75662.4
78175.3
65944
71837.2
52377.1
65075.8
33082
57730.5
2851.51
46150.8
-53022
15042.2
-264674
-34515.7
-69468.6
5462.76
-31431.1
16702
-6347.84
24188
11628.2
31520
25477.8
38510.3
36232
44925
44745.3
50711.7
51571.9
55737.8
56953.8
59828.6
61028
63033.7
64129.4
65598
66590.6
67723.6
68627.2
69561.3
70395.4
71197.1
71985.9
72697.8
73467
74104.2
74851
75382.4
76110.8
76500.2
77225.4
77448.4
78217.4
78231.3
79128.5
78845.2
80020.3
79267.6
116064
111291
110683
109964
109193
108587
108079
107589
107169
106783
106457
106161
105913
105673
105461
105230
105009
104738
104479
104150
103846
103446
103094
102599
102199
101586
101130
100360
99848.9
98854.9
98304.8
96995.4
96426.7
94655.5
94129.8
91672.5
91308.5
87791.8
87830.3
82643.8
83507.9
75636
78158.6
65911.7
71816.9
52338.8
65047.6
33037.4
57686.2
2793.87
46071.6
-53129.7
14986.7
-263366
-34286
-69619
5446.58
-31448.3
16689.1
-6360.79
24176.7
11616.5
31510
25467.4
38501.5
36222.7
44917.1
44736.8
50704
51563.7
55730.3
56946.3
59822.1
61021.7
63028.3
64124.3
65593.5
66586.2
67719.7
68623.5
69557.8
70392
71193.9
71982.9
72694.9
73464.4
74101.5
74848.7
75379.6
76108.6
76497.3
77223.6
77445.3
78216.3
78227.9
79128.4
78840.9
80022
79261.6
115826
111253
110673
109938
109179
108575
108069
107580
107161
106776
106451
106156
105908
105669
105457
105226
105005
104734
104475
104146
103841
103441
103089
102594
102193
101579
101123
100352
99841.9
98845.9
98296.9
96984.8
96417.9
94643
94120
91657.5
91297.5
87773.7
87817.9
82621.7
83493.7
75608.8
78141.9
65878.2
71796.1
52298.7
65018.5
32990.8
57641.4
2734.7
45992.3
-53237.4
14933.5
-262065
-34052.6
-69766.6
5431.61
-31465.9
16677
-6373.98
24165.8
11604.5
31500.2
25456.7
38492.8
36213.3
44909.1
44728.1
50696.2
51555.5
55722.8
56938.8
59815.5
61015.5
63023
64119.2
65589.1
66581.9
67715.9
68619.7
69554.3
70388.6
71190.7
71980
72692.1
73462
74098.8
74846.6
75376.8
76106.6
76494.5
77221.9
77442.3
78215.2
78224.4
79128.4
78836.5
80023.8
79255.5
115600
111216
110663
109913
109164
108564
108059
107570
107153
106769
106446
106151
105904
105665
105454
105222
105002
104730
104471
104141
103837
103436
103084
102588
102187
101573
101117
100344
99834.9
98836.9
98289.1
96974.1
96409.1
94630.3
94110.3
91642.3
91286.6
87755.3
87805.5
82599.1
83479.5
75580.9
78125.1
65843.6
71774.8
52256.8
64988.9
32942.8
57596.7
2674.67
45913.3
-53343.9
14883.2
-260770
-33816.7
-69911.1
5417.83
-31483.8
16665.7
-6387.39
24155.3
11592.3
31490.7
25445.9
38484.2
36203.7
44901.1
44719.3
50688.3
51547.1
55715.3
56931.3
59809.1
61009.2
63017.7
64114.1
65584.7
66577.6
67712.1
68615.9
69550.8
70385.3
71187.5
71977.1
72689.3
73459.6
74096.2
74844.5
75374.1
76104.6
76491.6
77220.2
77439.3
78214.1
78220.8
79128.4
78832
80025.8
79249.1
115383
111180
110650
109887
109150
108552
108048
107561
107145
106762
106440
106146
105900
105661
105450
105219
104998
104726
104468
104137
103833
103431
103079
102582
102182
101566
101111
100336
99828
98827.9
98281.3
96963.4
96400.5
94617.7
94100.6
91627
91275.8
87736.8
87793.2
82576.3
83465.4
75552.5
78108.2
65808.1
71753.1
52213.5
64959.2
32893.9
57552.3
2614.26
45834.9
-53448.7
14836
-259483
-33579.5
-70052.7
5405.24
-31502
16655
-6401.03
24145.1
11580
31481.2
25434.9
38475.7
36194
44893.2
44710.3
50680.4
51538.6
55707.7
56923.7
59802.6
61003
63012.4
64109
65580.3
66573.3
67708.4
68612.2
69547.3
70381.9
71184.3
71974.2
72686.5
73457.3
74093.7
74842.4
75371.5
76102.6
76488.8
77218.6
77436.2
78213.1
78217.3
79128.4
78827.4
80027.9
79242.6
115175
111143
110637
109861
109136
108540
108038
107552
107137
106754
106433
106140
105895
105657
105447
105215
104995
104722
104464
104133
103828
103426
103074
102576
102176
101559
101105
100329
99821.2
98819
98273.6
96952.8
96391.9
94605
94091
91611.7
91265
87718.1
87781
82553.3
83451.4
75523.7
78091.2
65771.8
71731
52169.2
64929.7
32844.6
57508.4
2553.87
45757.4
-53551.2
14792
-258203
-33341.6
-70191.6
5393.78
-31520.5
16645
-6414.89
24135.3
11567.4
31472
25423.8
38467.2
36184.1
44885.2
44701.2
50672.5
51530
55700.2
56916.1
59796.2
60996.8
63007.3
64103.9
65576
66569
67704.6
68608.4
69543.8
70378.6
71181.2
71971.4
72683.8
73455
74091.2
74840.4
75368.9
76100.7
76486
77217
77433.2
78212.1
78213.7
79128.5
78822.9
80030.1
79236
114976
111107
110622
109836
109122
108527
108027
107542
107129
106747
106427
106135
105891
105654
105443
105212
104991
104719
104460
104128
103824
103421
103069
102571
102171
101553
101099
100321
99814.4
98810.1
98266
96942.2
96383.3
94592.3
94081.5
91596.3
91254.4
87699.4
87768.9
82530.1
83437.4
75494.6
78074.3
65734.8
71708.9
52124.3
64900.6
32795.2
57465.2
2493.76
45680.7
-53651.1
14751.2
-256932
-33103.8
-70327.9
5383.35
-31539.1
16635.5
-6428.97
24125.7
11554.7
31462.8
25412.5
38458.7
36174.1
44877.1
44691.9
50664.4
51521.4
55692.6
56908.5
59789.9
60990.6
63002.1
64098.9
65571.7
66564.7
67700.9
68604.7
69540.4
70375.2
71178
71968.6
72681.1
73452.8
74088.7
74838.5
75366.3
76098.8
76483.3
77215.5
77430.1
78211.2
78210.1
79128.7
78818.2
80032.4
79229.3
114784
111071
110607
109810
109108
108515
108017
107533
107121
106740
106421
106130
105886
105650
105440
105208
104988
104715
104456
104124
103820
103416
103065
102565
102166
101546
101093
100313
99807.7
98801.2
98258.5
96931.7
96374.9
94579.7
94072.1
91581
91243.9
87680.7
87757
82506.8
83423.6
75465.2
78057.4
65697.2
71686.7
52079
64872
32745.9
57422.8
2434.1
45605.1
-53748.3
14713.7
-255668
-32866.5
-70461.9
5373.81
-31557.8
16626.6
-6443.26
24116.3
11541.7
31453.8
25401
38450.3
36163.9
44869.1
44682.5
50656.4
51512.6
55685
56900.9
59783.6
60984.4
62997
64093.9
65567.5
66560.5
67697.1
68601
69536.9
70371.9
71174.9
71965.8
72678.5
73450.6
74086.3
74836.6
75363.7
76097
76480.5
77214
77427.1
78210.2
78206.5
79128.9
78813.5
80034.9
79222.4
114599
111036
110590
109785
109093
108503
108006
107523
107113
106733
106415
106125
105882
105646
105437
105205
104985
104711
104453
104120
103816
103411
103060
102559
102160
101540
101087
100306
99801.1
98792.4
98251.1
96921.2
96366.6
94567.1
94062.8
91565.7
91233.5
87662
87745.2
82483.5
83409.9
75435.7
78040.5
65659.2
71664.7
52033.5
64844
32696.9
57381.1
2375.01
45530.5
-53842.7
14679.3
-254413
-32630
-70593.8
5365.03
-31576.6
16618.1
-6457.76
24107.2
11528.5
31444.8
25389.3
38441.9
36153.5
44861
44673
50648.3
51503.7
55677.4
56893.3
59777.3
60978.3
62992
64088.9
65563.2
66556.3
67693.5
68597.2
69533.4
70368.5
71171.7
71963
72675.9
73448.4
74083.9
74834.7
75361.1
76095.1
76477.7
77212.5
77424
78209.3
78202.9
79129.1
78808.8
80037.3
79215.4
114421
111001
110572
109759
109079
108490
107996
107514
107105
106726
106409
106120
105878
105642
105433
105202
104981
104708
104449
104116
103812
103406
103055
102554
102155
101533
101081
100298
99794.6
98783.7
98243.8
96910.7
96358.4
94554.6
94053.6
91550.5
91223.2
87643.2
87733.5
82460.1
83396.4
75405.9
78023.7
65620.9
71642.8
51988
64816.6
32648.2
57340.3
2316.58
45456.9
-53934.1
14647.8
-253166
-32394.5
-70723.9
5356.88
-31595.6
16610
-6472.49
24098.2
11515.1
31435.9
25377.5
38433.4
36143
44852.8
44663.3
50640.1
51494.8
55669.9
56885.7
59771.1
60972.2
62987
64084
65559.1
66552
67689.8
68593.5
69530
70365.2
71168.6
71960.3
72673.3
73446.3
74081.4
74832.8
75358.5
76093.3
76474.9
77211
77421
78208.4
78199.3
79129.4
78804.1
80039.9
79208.3
114249
110966
110553
109734
109065
108478
107985
107504
107096
106718
106403
106114
105874
105638
105430
105198
104978
104704
104445
104112
103808
103401
103050
102548
102150
101527
101075
100291
99788.1
98775
98236.5
96900.4
96350.2
94542.2
94044.6
91535.2
91213.1
87624.5
87722
82436.6
83383
75376
78006.9
65582.3
71621.2
51942.7
64789.9
32600
57300.2
2258.85
45384.4
-54022.5
14619.3
-251928
-32160.1
-70852.2
5349.21
-31614.7
16602.2
-6487.44
24089.4
11501.5
31427.1
25365.5
38425
36132.4
44844.6
44653.4
50631.9
51485.8
55662.3
56878.1
59764.9
60966.1
62982.1
64079.1
65554.9
66547.9
67686.1
68589.8
69526.5
70361.9
71165.5
71957.6
72670.7
73444.2
74079
74830.9
75356
76091.5
76472.1
77209.5
77417.9
78207.6
78195.6
79129.6
78799.2
80042.6
79201.2
114083
110930
110533
109709
109051
108465
107974
107494
107088
106711
106397
106109
105869
105634
105427
105195
104975
104701
104442
104107
103804
103396
103046
102543
102145
101521
101070
100283
99781.7
98766.4
98229.3
96890.1
96342.2
94529.8
94035.6
91520.1
91203.1
87605.8
87710.6
82413.2
83369.6
75345.9
77990.1
65543.6
71599.9
51897.6
64763.8
32552.2
57260.9
2201.83
45312.9
-54108.1
14593.5
-250698
-31927.1
-70979
5341.94
-31633.9
16594.7
-6502.62
24080.7
11487.7
31418.3
25353.3
38416.6
36121.5
44836.3
44643.5
50623.6
51476.8
55654.8
56870.5
59758.8
60960.1
62977.2
64074.2
65550.8
66543.7
67682.5
68586.1
69523.1
70358.6
71162.4
71954.9
72668.1
73442.1
74076.6
74829
75353.4
76089.7
76469.3
77208
77414.8
78206.7
78191.9
79130
78794.4
80045.3
79193.9
113923
110896
110512
109683
109036
108452
107964
107485
107080
106704
106391
106104
105865
105631
105424
105192
104972
104697
104438
104103
103800
103392
103041
102538
102140
101515
101064
100276
99775.4
98757.8
98222.2
96879.8
96334.3
94517.4
94026.7
91505
91193.1
87587.2
87699.3
82389.7
83356.4
75315.8
77973.5
65504.7
71578.9
51852.7
64738.3
32504.8
57222.4
2145.55
45242.4
-54190.8
14570.3
-249477
-31695.3
-71104.1
5334.96
-31653.3
16587.5
-6518.03
24072.1
11473.6
31409.5
25340.9
38408.1
36110.6
44828
44633.4
50615.3
51467.6
55647.3
56862.9
59752.7
60954.1
62972.4
64069.3
65546.8
66539.5
67678.9
68582.4
69519.7
70355.3
71159.3
71952.2
72665.6
73439.9
74074.2
74827.1
75350.8
76087.8
76466.5
77206.5
77411.7
78205.9
78188.2
79130.3
78789.5
80048.1
79186.5
113768
110861
110490
109658
109022
108439
107953
107475
107072
106697
106385
106099
105861
105627
105420
105189
104969
104694
104435
104100
103796
103387
103037
102532
102135
101508
101058
100269
99769.1
98749.4
98215.2
96869.6
96326.4
94505.1
94018
91489.9
91183.3
87568.6
87688.1
82366.2
83343.3
75285.5
77956.8
65465.7
71558.3
51808.2
64713.4
32457.9
57184.5
2089.99
45172.9
-54270.6
14549.7
-248264
-31465
-71227.9
5328.2
-31673
16580.4
-6533.7
24063.5
11459.3
31400.7
25328.3
38399.6
36099.4
44819.6
44623.2
50607
51458.5
55639.8
56855.3
59746.7
60948.2
62967.6
64064.5
65542.7
66535.4
67675.3
68578.7
69516.2
70352
71156.2
71949.5
72663
73437.8
74071.7
74825.2
75348.1
76086
76463.7
77205.1
77408.6
78205.1
78184.4
79130.6
78784.6
80050.9
79179.1
113619
110826
110468
109633
109007
108426
107942
107465
107064
106690
106379
106094
105857
105623
105417
105186
104966
104690
104432
104096
103792
103383
103033
102527
102130
101502
101053
100262
99763
98740.9
98208.3
96859.5
96318.6
94492.9
94009.3
91474.9
91173.6
87550
87677.1
82342.7
83330.2
75255.1
77940.3
65426.7
71538
51763.9
64689.1
32411.4
57147.4
2035.15
45104.4
-54347.6
14531.4
-247059
-31236
-71350.1
5321.61
-31692.8
16573.4
-6549.62
24055
11444.7
31391.9
25315.6
38391.1
36088.1
44811.2
44612.8
50598.6
51449.2
55632.3
56847.7
59740.8
60942.2
62962.9
64059.8
65538.8
66531.3
67671.7
68575
69512.8
70348.6
71153.1
71946.7
72660.4
73435.7
74069.3
74823.3
75345.5
76084.2
76460.9
77203.6
77405.5
78204.2
78180.7
79131
78779.6
80053.8
79171.5
113475
110791
110445
109608
108993
108414
107931
107456
107055
106682
106373
106089
105853
105620
105414
105182
104963
104687
104428
104092
103788
103378
103028
102522
102125
101496
101047
100255
99756.9
98732.6
98201.4
96849.4
96310.9
94480.7
94000.7
91459.9
91164
87531.4
87666.1
82319.2
83317.2
75224.6
77923.9
65387.8
71518.1
51719.9
64665.2
32365.4
57110.9
1981.02
45036.8
-54422
14515.5
-245863
-31008.4
-71471
5315.14
-31713
16566.5
-6565.81
24046.4
11429.9
31383.1
25302.6
38382.6
36076.6
44802.7
44602.3
50590.2
51440
55624.9
56840.2
59734.9
60936.4
62958.2
64055
65534.8
66527.2
67668.1
68571.4
69509.4
70345.3
71150
71944
72657.8
73433.5
74066.8
74821.4
75342.8
76082.4
76458
77202.1
77402.3
78203.4
78176.9
79131.4
78774.6
80056.8
79164
113335
110757
110421
109584
108978
108400
107921
107446
107047
106675
106367
106084
105849
105616
105411
105179
104960
104684
104425
104088
103784
103374
103024
102517
102120
101490
101042
100248
99750.8
98724.2
98194.6
96839.4
96303.3
94468.6
93992.2
91445
91154.5
87512.9
87655.2
82295.6
83304.3
75194.1
77907.5
65348.9
71498.5
51676.3
64641.9
32319.8
57075
1927.59
44970.1
-54493.6
14501.7
-244676
-30782.1
-71590.4
5308.76
-31733.4
16559.6
-6582.27
24037.9
11414.9
31374.3
25289.5
38374
36065
44794.2
44591.8
50581.8
51430.7
55617.5
56832.7
59729.1
60930.5
62953.6
64050.3
65530.9
66523.1
67664.6
68567.7
69505.9
70342
71146.9
71941.3
72655.2
73431.3
74064.2
74819.4
75340.2
76080.5
76455.1
77200.7
77399.2
78202.6
78173.1
79131.8
78769.6
80059.8
79156.3
113200
110722
110396
109559
108963
108387
107910
107436
107039
106668
106361
106079
105844
105613
105408
105176
104957
104681
104422
104084
103781
103369
103020
102512
102115
101484
101037
100241
99744.8
98716
98187.9
96829.5
96295.8
94456.5
93983.8
91430.2
91145.1
87494.3
87644.4
82272
83291.4
75163.4
77891.2
65310
71479.2
51632.9
64619.1
32274.6
57039.7
1874.83
44904.3
-54562.7
14490
-243497
-30557.3
-71708.5
5302.45
-31754.2
16552.7
-6599
24029.3
11399.6
31365.4
25276.1
38365.3
36053.2
44785.6
44581.1
50573.4
51421.4
55610.1
56825.2
59723.3
60924.8
62949.1
64045.7
65527
66519.1
67661.1
68564
69502.5
70338.7
71143.8
71938.6
72652.5
73429.1
74061.7
74817.4
75337.5
76078.7
76452.3
77199.2
77396
78201.9
78169.3
79132.3
78764.5
80062.8
79148.6
113069
110688
110371
109534
108949
108374
107899
107427
107031
106661
106356
106074
105841
105609
105405
105173
104954
104677
104419
104080
103777
103365
103016
102507
102111
101478
101031
100234
99738.9
98707.8
98181.2
96819.6
96288.3
94444.5
93975.5
91415.3
91135.8
87475.8
87633.7
82248.4
83278.6
75132.7
77875
65271.3
71460.3
51589.9
64596.6
32229.8
57005
1822.74
44839.4
-54629.2
14480.3
-242327
-30333.8
-71825.2
5296.2
-31775.2
16545.8
-6616.02
24020.6
11384.1
31356.5
25262.6
38356.6
36041.3
44776.9
44570.3
50565
51412
55602.8
56817.7
59717.7
60919
62944.6
64041.1
65523.2
66515.1
67657.5
68560.3
69499.1
70335.3
71140.6
71935.8
72649.8
73426.9
74059
74815.4
75334.7
76076.8
76449.4
77197.8
77392.8
78201.1
78165.5
79132.7
78759.4
80065.9
79140.8
112942
110653
110346
109510
108934
108361
107888
107417
107023
106654
106350
106069
105837
105606
105403
105171
104951
104674
104416
104077
103773
103360
103011
102502
102106
101473
101026
100227
99733.1
98699.7
98174.6
96809.8
96280.9
94432.6
93967.2
91400.6
91126.5
87457.4
87623.1
82224.7
83265.8
75101.9
77859
65232.6
71441.8
51547.2
64574.7
32185.4
56970.8
1771.29
44775.3
-54693.2
14472.4
-241165
-30111.6
-71940.4
5289.99
-31796.5
16538.9
-6633.31
24011.9
11368.3
31347.5
25248.9
38347.9
36029.2
44768.2
44559.4
50556.5
51402.7
55595.5
56810.3
59712
60913.3
62940.2
64036.5
65519.4
66511
67654
68556.6
69495.7
70332
71137.5
71933
72647.1
73424.6
74056.4
74813.3
75332
76074.9
76446.5
77196.3
77389.7
78200.3
78161.6
79133.2
78754.3
80069.1
79132.9
112820
110619
110320
109486
108919
108348
107877
107407
107015
106647
106344
106064
105833
105602
105400
105168
104949
104671
104412
104073
103770
103356
103007
102497
102101
101467
101021
100220
99727.3
98691.6
98168.1
96800
96273.6
94420.7
93959
91385.8
91117.3
87438.9
87612.4
82201
83253
75071
77843
65194.1
71423.5
51504.7
64553.1
32141.4
56937.2
1720.48
44712
-54754.8
14466.4
-240011
-29890.8
-72054.3
5283.84
-31818.1
16532
-6650.87
24003.2
11352.3
31338.5
25235
38339
36017
44759.5
44548.4
50548.1
51393.3
55588.3
56802.9
59706.5
60907.7
62935.8
64031.9
65515.6
66507
67650.5
68553
69492.2
70328.6
71134.3
71930.2
72644.4
73422.2
74053.7
74811.2
75329.2
76073
76443.6
77194.9
77386.5
78199.5
78157.8
79133.6
78749.1
80072.2
79125
112701
110585
110293
109461
108904
108334
107866
107398
107006
106640
106338
106059
105829
105599
105397
105165
104946
104668
104409
104070
103766
103352
103003
102492
102097
101461
101016
100213
99721.5
98683.5
98161.6
96790.2
96266.3
94408.8
93950.9
91371.1
91108.2
87420.4
87601.9
82177.3
83240.2
75040.1
77827.1
65155.7
71405.6
51462.5
64531.9
32097.8
56904.1
1670.29
44649.6
-54814.1
14462
-238866
-29671.4
-72166.7
5277.73
-31840
16525
-6668.71
23994.3
11336
31329.4
25220.9
38330.2
36004.6
44750.7
44537.4
50539.6
51383.9
55581.1
56795.5
59701
60902.1
62931.5
64027.4
65511.9
66503
67647
68549.3
69488.8
70325.2
71131.1
71927.4
72641.6
73419.8
74050.9
74809.1
75326.4
76071.1
76440.6
77193.4
77383.3
78198.8
78153.9
79134.1
78743.9
80075.4
79117
112586
110550
110267
109437
108889
108321
107855
107388
106998
106632
106333
106054
105825
105596
105394
105162
104943
104665
104406
104066
103763
103348
102999
102487
102092
101455
101011
100206
99715.8
98675.5
98155.2
96780.6
96259.1
94397
93942.9
91356.4
91099.1
87401.9
87591.3
82153.5
83227.4
75009.2
77811.4
65117.5
71387.9
51420.6
64511
32054.5
56871.4
1620.71
44587.9
-54871
14459.3
-237729
-29453.2
-72277.7
5271.68
-31862.2
16517.9
-6686.81
23985.4
11319.5
31320.2
25206.7
38321.3
35992
44741.9
44526.2
50531.2
51374.5
55574
56788.2
59695.5
60896.5
62927.2
64022.9
65508.1
66499
67643.5
68545.6
69485.3
70321.8
71127.9
71924.5
72638.7
73417.4
74048.2
74806.9
75323.5
76069.2
76437.7
77192
77380
78198
78150
79134.6
78738.7
80078.7
79109
112475
110516
110239
109413
108874
108308
107844
107378
106990
106625
106327
106050
105821
105593
105392
105160
104941
104662
104403
104063
103759
103344
102995
102482
102088
101450
101006
100200
99710.2
98667.6
98148.9
96770.9
96252
94385.2
93934.9
91341.8
91090.1
87383.4
87580.8
82129.6
83214.6
74978.2
77795.8
65079.4
71370.5
51378.9
64490.5
32011.6
56839.3
1571.72
44527.1
-54925.7
14458.1
-236601
-29236.3
-72387.3
5265.68
-31884.7
16510.8
-6705.17
23976.3
11302.8
31311
25192.2
38312.3
35979.4
44733
44515
50522.7
51365.1
55566.9
56780.9
59690.1
60891
62923
64018.4
65504.4
66495
67640
68541.9
69481.8
70318.4
71124.7
71921.6
72635.8
73414.9
74045.3
74804.8
75320.7
76067.3
76434.7
77190.5
77376.8
78197.3
78146.2
79135.1
78733.5
80082
79101
112367
110482
110212
109389
108859
108294
107834
107368
106982
106619
106321
106045
105818
105589
105389
105157
104938
104659
104401
104059
103756
103340
102991
102477
102083
101444
101001
100193
99704.6
98659.7
98142.6
96761.3
96244.9
94373.5
93926.9
91327.1
91081.1
87364.9
87570.3
82105.6
83201.9
74947.2
77780.3
65041.5
71353.4
51337.5
64470.3
31969.1
56807.6
1523.32
44466.9
-54978.2
14458.4
-235481
-29020.8
-72495.4
5259.76
-31907.3
16503.6
-6723.78
23967.2
11285.8
31301.7
25177.6
38303.3
35966.6
44724.1
44503.7
50514.3
51355.7
55559.9
56773.6
59684.8
60885.5
62918.8
64013.9
65500.8
66491
67636.5
68538.2
69478.4
70315
71121.4
71918.7
72632.9
73412.4
74042.4
74802.5
75317.8
76065.4
76431.7
77189
77373.6
78196.5
78142.2
79135.6
78728.3
80085.3
79092.9
112263
110448
110184
109366
108844
108281
107823
107359
106974
106612
106316
106040
105814
105586
105386
105154
104936
104657
104398
104056
103753
103336
102988
102473
102079
101439
100996
100187
99699.1
98651.8
98136.3
96751.8
96237.9
94361.8
93919
91312.5
91072.1
87346.4
87559.7
82081.6
83189.1
74916.1
77765
65003.7
71336.5
51296.3
64450.5
31926.8
56776.3
1475.49
44407.6
-55028.5
14460.1
-234370
-28806.5
-72602
5253.9
-31930.2
16496.3
-6742.63
23958
11268.7
31292.4
25162.8
38294.2
35953.7
44715.2
44492.4
50505.9
51346.3
55553
56766.4
59679.5
60880
62914.6
64009.5
65497.1
66487.1
67633
68534.5
69474.9
70311.5
71118.1
71915.7
72629.9
73409.9
74039.5
74800.3
75314.8
76063.4
76428.7
77187.6
77370.3
78195.8
78138.3
79136.2
78723
80088.6
79084.7
112161
110414
110156
109342
108829
108267
107812
107349
106966
106605
106310
106036
105810
105583
105384
105152
104933
104654
104395
104052
103749
103332
102984
102468
102075
101433
100991
100180
99693.6
98644
98130.1
96742.3
96230.9
94350.1
93911.2
91297.9
91063.2
87327.8
87549.2
82057.5
83176.3
74885.1
77749.7
64966.1
71319.9
51255.4
64430.9
31884.9
56745.5
1428.22
44348.9
-55076.7
14463.1
-233267
-28593.4
-72707.2
5248.13
-31953.3
16489
-6761.7
23948.7
11251.3
31283
25147.9
38285.1
35940.6
44706.2
44481
50497.6
51336.9
55546.1
56759.2
59674.3
60874.6
62910.5
64005
65493.4
66483.1
67629.6
68530.8
69471.4
70308.1
71114.8
71912.7
72626.9
73407.2
74036.6
74798
75311.9
76061.5
76425.7
77186.1
77367.1
78195.1
78134.4
79136.7
78717.7
80092
79076.5
112063
110381
110128
109319
108814
108254
107801
107339
106958
106598
106305
106031
105807
105580
105381
105149
104931
104651
104392
104049
103746
103328
102980
102463
102071
101428
100986
100174
99688.2
98636.3
98124
96732.8
96224
94338.4
93903.4
91283.3
91054.3
87309.2
87538.7
82033.3
83163.6
74854
77734.7
64928.7
71303.4
51214.7
64411.6
31843.3
56715.1
1381.5
44291
-55122.9
14467.3
-232172
-28381.7
-72810.9
5242.46
-31976.7
16481.7
-6780.99
23939.4
11233.7
31273.6
25132.8
38276
35927.4
44697.2
44469.5
50489.2
51327.5
55539.2
56752
59669.2
60869.2
62906.4
64000.6
65489.8
66479.1
67626.1
68527.1
69467.9
70304.6
71111.4
71909.6
72623.8
73404.6
74033.5
74795.7
75308.9
76059.5
76422.7
77184.7
77363.8
78194.3
78130.5
79137.2
78712.3
80095.4
79068.3
111968
110347
110099
109295
108798
108240
107790
107330
106950
106591
106299
106027
105803
105577
105379
105147
104929
104648
104389
104046
103743
103324
102976
102459
102066
101422
100982
100167
99682.8
98628.6
98117.9
96723.4
96217.1
94326.8
93895.6
91268.7
91045.4
87290.5
87528.1
82009.1
83150.8
74822.9
77719.7
64891.4
71287.2
51174.2
64392.6
31802.1
56685.1
1335.33
44233.8
-55167.1
14472.7
-231085
-28171.2
-72913.1
5236.88
-32000.2
16474.3
-6800.49
23930
11215.9
31264.1
25117.5
38266.8
35914.1
44688.2
44458
50480.9
51318.1
55532.4
56744.9
59664
60863.8
62902.4
63996.2
65486.2
66475.2
67622.6
68523.3
69464.3
70301.1
71108.1
71906.5
72620.7
73401.9
74030.5
74793.4
75305.9
76057.5
76419.7
77183.2
77360.5
78193.6
78126.5
79137.8
78707
80098.8
79060
111875
110313
110071
109272
108783
108227
107779
107320
106942
106584
106294
106022
105800
105574
105376
105144
104926
104646
104387
104043
103740
103320
102973
102454
102062
101417
100977
100161
99677.5
98620.9
98111.8
96714
96210.2
94315.2
93887.9
91254.1
91036.5
87271.8
87517.5
81984.7
83138
74791.9
77704.9
64854.3
71271.2
51133.9
64373.8
31761.1
56655.5
1289.69
44177.2
-55209.3
14479.2
-230007
-27961.9
-73013.8
5231.42
-32023.8
16466.9
-6820.17
23920.4
11197.9
31254.5
25102.1
38257.5
35900.7
44679.2
44446.4
50472.6
51308.8
55525.7
56737.8
59659
60858.5
62898.4
63991.9
65482.6
66471.2
67619.1
68519.6
69460.8
70297.6
71104.7
71903.4
72617.5
73399.1
74027.4
74791
75302.9
76055.5
76416.7
77181.7
77357.2
78192.9
78122.6
79138.4
78701.6
80102.2
79051.7
111785
110280
110042
109249
108768
108213
107768
107311
106934
106577
106288
106018
105796
105571
105374
105142
104924
104643
104384
104039
103737
103316
102969
102450
102058
101411
100972
100154
99672.1
98613.2
98105.8
96704.6
96203.4
94303.6
93880.1
91239.5
91027.5
87253
87506.8
81960.3
83125.3
74760.9
77690.2
64817.3
71255.4
51093.9
64355.3
31720.5
56626.3
1244.57
44121.4
-55249.6
14486.6
-228937
-27753.9
-73113
5226.09
-32047.6
16459.5
-6840.04
23910.9
11179.8
31244.9
25086.6
38248.3
35887.2
44670.2
44434.8
50464.4
51299.4
55519
56730.7
59653.9
60853.1
62894.4
63987.5
65479
66467.2
67615.6
68515.9
69457.3
70294
71101.2
71900.3
72614.3
73396.4
74024.3
74788.6
75299.9
76053.5
76413.6
77180.3
77354
78192.2
78118.6
79138.9
78696.2
80105.7
79043.4
111698
110247
110013
109226
108752
108200
107757
107301
106926
106571
106283
106014
105793
105569
105372
105140
104922
104640
104381
104036
103734
103312
102965
102445
102054
101406
100968
100148
99666.9
98605.6
98099.8
96695.3
96196.7
94292.1
93872.4
91224.8
91018.6
87234.1
87496.1
81935.8
83112.5
74729.9
77675.7
64780.5
71239.8
51054
64337.1
31680.1
56597.5
1199.98
44066.2
-55288
14495.1
-227875
-27547.1
-73210.7
5220.88