/*--------------------------------*- C++ -*----------------------------------*\
| =========                 |                                                 |
| \\      /  F ield         | OpenFOAM: The Open Source CFD Toolbox           |
|  \\    /   O peration     | Version:  2412                                  |
|   \\  /    A nd           | Website:  www.openfoam.com                      |
|    \\/     M anipulation  |                                                 |
\*---------------------------------------------------------------------------*/
FoamFile
{
    version     2.0;
    format      ascii;
    arch        "LSB;label=32;scalar=64";
    class       surfaceScalarField;
    location    "0.6";
    object      phi;
}
// * * * * * * * * * * * * * * * * * * * * * * * * * * * * * * * * * * * * * //

dimensions      [0 3 -1 0 0 0 0];

oriented        oriented;

internalField   nonuniform List<scalar> 
155925
(
0.00839088
-0.000815121
0.00770175
0.00068913
0.00845138
-0.000749627
0.00868796
-0.00023658
0.00869698
-9.02261e-06
0.00861671
8.02739e-05
0.00848732
0.000129391
0.00832512
0.000162194
0.00816299
0.000162133
0.0079867
0.000176295
0.00780868
0.000178014
0.00761922
0.000189464
0.00743394
0.000185283
0.00724585
0.000188086
0.00707145
0.000174404
0.00690056
0.00017089
0.0067516
0.000148959
0.0066017
0.000149905
0.00647581
0.000125883
0.00634195
0.000133864
0.00623416
0.000107796
0.00611035
0.000123805
0.00602134
8.90116e-05
0.00590244
0.000118901
0.0058322
7.02398e-05
0.0057166
0.000115604
0.00566721
4.93914e-05
0.00555157
0.000115645
0.00552905
2.25151e-05
0.00540501
0.00012404
0.0054154
-1.03896e-05
0.00527419
0.00014122
0.00532557
-5.13888e-05
0.00515764
0.000167941
0.00526261
-0.000104972
0.00505311
0.000209495
0.00522842
-0.000175305
0.00495521
0.000273213
0.00522311
-0.000267907
0.00486127
0.000361845
0.00524788
-0.000386613
0.00476325
0.000484635
0.00529556
-0.000532323
0.00463747
0.000658087
0.00534495
-0.000707474
0.00445602
0.000888929
0.00540071
-0.000944694
0.00430137
0.00109935
0.00554149
-0.00124012
0.00430173
0.00123977
0.0058249
-0.00152317
0.00483293
0.000991973
0.0076004
-0.00276747
0.00417809
0.0034223
0.00454306
-0.000364961
0.00327219
0.00127088
0.00408377
-0.000811579
0.00334991
0.000733855
0.00408616
-0.000736246
0.00349618
0.000589975
0.00406329
-0.000567107
0.00360009
0.000463198
0.00400949
-0.0004094
0.00366734
0.000342149
0.003953
-0.000285654
0.00371148
0.000241512
0.00390504
-0.000193557
0.0037478
0.00015724
0.00389073
-0.000142924
0.00381834
7.23908e-05
0.0039533
-0.00013496
0.00396039
-7.08255e-06
0.0040933
-0.000132908
0.00413844
-4.51376e-05
0.00424965
-0.000111213
0.00429734
-4.76858e-05
0.00437744
-8.01035e-05
0.0044183
-4.08569e-05
0.00447314
-5.48503e-05
0.00450686
-3.37163e-05
0.00454508
-3.8221e-05
0.00457636
-3.12834e-05
0.00460672
-3.03608e-05
0.00464644
-3.97219e-05
0.00468643
-3.99913e-05
0.00475882
-7.23884e-05
0.00483094
-7.21271e-05
0.00494488
-0.000113936
0.00502945
-8.45685e-05
0.00516013
-0.000130687
0.0052222
-6.20671e-05
0.00535611
-0.000133917
0.00537739
-2.12836e-05
0.00552354
-0.000146143
0.00548762
3.59168e-05
0.00567271
-0.000185099
0.00554268
0.000130038
0.00582855
-0.000285871
0.000270292
0.0110389
-0.00427823
0.0099921
0.00173589
0.00994277
-0.000700293
0.00990199
-0.0001958
0.00985861
3.43561e-05
0.00981273
0.000126154
0.00973902
0.000203097
0.00962173
0.000279484
0.00947833
0.000305533
0.009306
0.000348625
0.00911898
0.00036504
0.00891531
0.000393134
0.0087078
0.000392791
0.00849449
0.000401399
0.00828858
0.000380316
0.00808575
0.000373718
0.00790101
0.000333701
0.0077208
0.000330119
0.00756189
0.00028479
0.00740341
0.000292346
0.00726689
0.00024432
0.00712417
0.000266521
0.00700846
0.00020472
0.00687693
0.000250436
0.00678027
0.0001669
0.00665751
0.000238369
0.0065806
0.000126298
0.00646373
0.000232513
0.00641045
7.57962e-05
0.00629566
0.000238829
0.00626979
1.54852e-05
0.00615374
0.00025727
0.00616103
-5.86798e-05
0.00603531
0.000293667
0.00608178
-0.000151448
0.00593707
0.000354208
0.00603259
-0.000270827
0.00585557
0.000450233
0.00601209
-0.000424424
0.00578827
0.000585661
0.00601967
-0.000618016
0.00572867
0.000775642
0.00604536
-0.000849021
0.00565452
0.00104893
0.0060599
-0.00111286
0.00553681
0.00141202
0.00605359
-0.00146147
0.00544506
0.00170787
0.00611756
-0.00191262
0.00550659
0.00185074
0.0063257
-0.00234229
0.00612539
0.00119228
0.00818756
-0.00482964
0.00596778
0.00564207
0.00519838
0.000404447
0.00424433
0.00222494
0.00448673
-0.00105398
0.00418754
0.00103305
0.00448005
-0.00102876
0.00426904
0.000800982
0.00448824
-0.0007863
0.00431364
0.000637794
0.0044578
-0.000553556
0.00432244
0.000477504
0.00441428
-0.000377492
0.00431486
0.00034093
0.00437184
-0.000250528
0.00430941
0.000219665
0.00436213
-0.000195641
0.00435632
7.81991e-05
0.00444083
-0.000219471
0.00449835
-6.45938e-05
0.00461184
-0.000246398
0.00469632
-0.000129613
0.00480294
-0.000217839
0.00487981
-0.000124556
0.00496312
-0.000163409
0.00502493
-0.000102673
0.00508688
-0.000116805
0.0051353
-8.21319e-05
0.00518176
-8.46775e-05
0.00522231
-7.18415e-05
0.00526101
-6.90609e-05
0.00530465
-8.33624e-05
0.00535307
-8.84104e-05
0.00542414
-0.000143457
0.00550584
-0.000153828
0.00561334
-0.000221443
0.00571277
-0.000183997
0.0058316
-0.000249518
0.00591938
-0.00014985
0.00603398
-0.000248517
0.00609723
-8.4535e-05
0.00621359
-0.000262497
0.00624639
3.116e-06
0.00638004
-0.000318754
0.00636523
0.000144853
0.00655216
-0.000472808
0.000344875
0.00899295
-0.00569542
0.00973005
0.000998801
0.0103061
-0.00127639
0.0103519
-0.000241538
0.0102774
0.00010885
0.0101902
0.000213385
0.0100928
0.000300467
0.00997553
0.000396742
0.00984533
0.000435735
0.00969453
0.000499423
0.00952951
0.000530059
0.00934764
0.000575007
0.00915773
0.000582696
0.00895919
0.00059994
0.00876243
0.000577075
0.00856586
0.000570296
0.00838151
0.000518043
0.0082009
0.000510736
0.00803694
0.000448745
0.00787521
0.000454082
0.00773158
0.000387945
0.00758592
0.000412183
0.0074624
0.000328239
0.00732976
0.000383082
0.00722506
0.000271602
0.00710335
0.000360075
0.00701776
0.000211889
0.00690447
0.000345803
0.00684073
0.000139535
0.00673228
0.000347286
0.00669323
5.45367e-05
0.00658646
0.000364041
0.00657705
-4.92759e-05
0.00646572
0.000405003
0.00649061
-0.000176345
0.00636674
0.000478085
0.00643383
-0.000337926
0.00628624
0.000597828
0.00640532
-0.000543503
0.00622186
0.000769122
0.00640435
-0.000800507
0.00616749
0.0010125
0.00642076
-0.00110229
0.00610142
0.00136827
0.00642402
-0.00143546
0.00599763
0.00183842
0.00639863
-0.00186248
0.00592615
0.00218036
0.00642612
-0.00241259
0.00600046
0.0022764
0.00659327
-0.00293509
0.00664449
0.00114106
0.00841784
-0.006603
0.00663341
0.0074265
0.00567928
0.00135858
0.00472801
0.00317621
0.00477714
-0.00110311
0.00456175
0.00124844
0.0047268
-0.00119382
0.00460763
0.000920159
0.0047308
-0.000909471
0.00462912
0.000739471
0.00470027
-0.0006247
0.00461668
0.000561088
0.00465471
-0.000415522
0.00459003
0.000405611
0.00460915
-0.000269644
0.0045701
0.000258716
0.00459992
-0.000225466
0.00461302
6.50993e-05
0.00468791
-0.000294362
0.00476201
-0.000138685
0.00487313
-0.00035752
0.00497117
-0.000227657
0.00507897
-0.000325635
0.00516665
-0.000212235
0.00525332
-0.00025008
0.00532395
-0.000173307
0.0053907
-0.00018355
0.00544636
-0.000137791
0.00549802
-0.000136341
0.00554405
-0.000117877
0.00558774
-0.000112752
0.00563475
-0.000130364
0.0056875
-0.000141163
0.00575897
-0.000214929
0.00584312
-0.000237982
0.00594671
-0.000325032
0.00604791
-0.000285198
0.00615999
-0.000361599
0.00625331
-0.000243164
0.00635989
-0.000355104
0.00643586
-0.000160507
0.00654016
-0.000366794
0.00659611
-5.28327e-05
0.00670812
-0.000430763
0.00673337
0.000119595
0.00687894
-0.00061838
0.000361781
0.00890882
-0.00702849
0.00947593
0.000431694
0.0101038
-0.00190427
0.0102416
-0.000379298
0.0102409
0.000109542
0.0101921
0.000262159
0.010118
0.000374616
0.0100228
0.000491887
0.00991381
0.000544741
0.00978618
0.000627049
0.0096438
0.000672441
0.00948512
0.000733689
0.00931645
0.000751361
0.00913828
0.000778109
0.00895855
0.000756814
0.00877717
0.000751673
0.0086035
0.000691713
0.00843229
0.000681944
0.00827335
0.000607685
0.00811696
0.000610476
0.00797498
0.000529921
0.00783319
0.00055398
0.00770957
0.000451852
0.00758108
0.000511576
0.00747542
0.000377261
0.00735876
0.000476733
0.00727141
0.000299243
0.00716433
0.000452879
0.00709742
0.000206445
0.00699652
0.000448189
0.00695224
9.88144e-05
0.00685439
0.000461894
0.00683722
-3.21072e-05
0.00673702
0.000505208
0.00675121
-0.000190539
0.0066413
0.000588005
0.00669399
-0.00039062
0.00656406
0.000727758
0.00666426
-0.000643701
0.00650307
0.000930313
0.00666143
-0.000958876
0.00645263
0.0012213
0.00667573
-0.0013254
0.00639224
0.00165176
0.00667648
-0.0017197
0.00630149
0.00221341
0.00664151
-0.0022025
0.00624617
0.0025757
0.00663198
-0.0027984
0.00631546
0.00259292
0.00674747
-0.0033671
0.00694366
0.000944867
0.00847177
-0.0081311
0.00707861
0.00881965
0.00608151
0.00235568
0.0050994
0.00415832
0.00503115
-0.00103486
0.00482578
0.00145381
0.00492649
-0.00129453
0.00483711
0.00100954
0.00491646
-0.000988814
0.00484109
0.00081484
0.00487985
-0.000663466
0.00481478
0.00062616
0.00482898
-0.000429727
0.00477624
0.000458353
0.00477883
-0.000272227
0.0047483
0.000289248
0.00476953
-0.000246699
0.00479143
4.31987e-05
0.00486462
-0.000367555
0.00494724
-0.000221305
0.0050591
-0.000469373
0.00516372
-0.000332275
0.00527284
-0.000434755
0.00536562
-0.000305021
0.0054544
-0.000338862
0.00552956
-0.000248467
0.00559933
-0.000253316
0.00565924
-0.000197699
0.00571441
-0.000191513
0.00576419
-0.000167658
0.0058115
-0.000160069
0.00586152
-0.000180385
0.00591765
-0.000197285
0.00599025
-0.000287535
0.00607531
-0.000323044
0.00617584
-0.000425557
0.00627552
-0.000384881
0.00638219
-0.000468266
0.00647558
-0.000336554
0.00657694
-0.000456468
0.00665722
-0.000240783
0.00675558
-0.000465154
0.00682141
-0.000118666
0.0069239
-0.000533253
0.00696753
7.59642e-05
0.00709439
-0.000745242
0.000349789
0.00893959
-0.00839232
0.00949879
-0.000127502
0.00992666
-0.00233214
0.0100673
-0.000519904
0.010114
6.28325e-05
0.0101047
0.00027145
0.0100605
0.000418798
0.00998949
0.000562899
0.0098993
0.000634929
0.00978865
0.000737705
0.00966128
0.000799805
0.00951726
0.00087771
0.00936198
0.00090665
0.00919704
0.000943045
0.009029
0.000924851
0.00885901
0.000921666
0.00869442
0.000856301
0.00853221
0.000844151
0.00837959
0.000760314
0.00823014
0.000759925
0.00809242
0.000667637
0.00795665
0.000689748
0.00783591
0.000572596
0.00771357
0.000633913
0.00760988
0.00048096
0.0075
0.000586609
0.0074138
0.000385444
0.00731448
0.000552198
0.00724748
0.000273444
0.0071556
0.000540068
0.00710944
0.000144982
0.00702188
0.000549449
0.00700043
-1.06551e-05
0.00691219
0.000593447
0.00691938
-0.000197733
0.00682346
0.000683929
0.00686594
-0.000433102
0.00675247
0.000841231
0.00683881
-0.00073004
0.00669694
0.00107218
0.00683749
-0.00109943
0.00665165
0.00140715
0.00685262
-0.00152636
0.0065981
0.00190628
0.00685358
-0.00197518
0.00652383
0.00254316
0.00680924
-0.00248791
0.00648014
0.0029048
0.00676048
-0.00307874
0.00652981
0.00282359
0.00682985
-0.00366714
0.00712108
0.000653635
0.0084354
-0.00944542
0.00740731
0.00984773
0.00639767
0.00336534
0.00541209
0.0051439
0.00525986
-0.000882628
0.00504311
0.00167055
0.00509967
-0.00135109
0.00501958
0.00108963
0.00507214
-0.00104137
0.00500779
0.000879183
0.00502781
-0.000683486
0.00497069
0.000683286
0.00497129
-0.000430332
0.00492351
0.000506132
0.00491696
-0.000265675
0.00489063
0.00031558
0.00490824
-0.000264309
0.0049359
1.55434e-05
0.00500986
-0.000441518
0.00509815
-0.00030959
0.00521127
-0.000582498
0.00531964
-0.000440637
0.00542952
-0.000544644
0.00552488
-0.00040038
0.00561473
-0.00042871
0.00569232
-0.000326057
0.0057639
-0.000324895
0.00582643
-0.000260233
0.00588399
-0.000249073
0.00593644
-0.000220102
0.00598651
-0.000210142
0.00603913
-0.000233003
0.00609805
-0.000256212
0.00617188
-0.000361364
0.00625719
-0.000408354
0.00635491
-0.000523272
0.00645199
-0.00048196
0.00655384
-0.000570121
0.0066455
-0.000428219
0.0067427
-0.000553665
0.00682423
-0.000322316
0.00691876
-0.000559676
0.00698942
-0.000189328
0.00708659
-0.000630427
0.00714005
2.25025e-05
0.00725652
-0.00086171
0.000321256
0.00873557
-0.00955214
0.00946157
-0.000853498
0.00979878
-0.00266935
0.00993304
-0.000654165
0.00999964
-3.76692e-06
0.0100127
0.000258361
0.00998975
0.000441776
0.00993742
0.000615224
0.00986214
0.000710212
0.0097642
0.000835641
0.00964746
0.000916545
0.00951312
0.00101205
0.00936628
0.00105349
0.00920946
0.00109987
0.00904858
0.00108573
0.00888572
0.00108453
0.0087271
0.00101492
0.00857117
0.00100008
0.0084234
0.000908085
0.00827954
0.000903787
0.00814578
0.000801395
0.00801533
0.000820196
0.00789774
0.000690191
0.00778094
0.00075071
0.00767971
0.000582184
0.00757591
0.000690414
0.0074915
0.000469857
0.00739915
0.000644547
0.00733292
0.000339671
0.00724935
0.000623639
0.00720246
0.000191872
0.00712479
0.000627126
0.00710046
1.36742e-05
0.00702407
0.000669832
0.00702576
-0.000199424
0.00694404
0.000765655
0.00697781
-0.000466876
0.00688123
0.000937816
0.00695518
-0.000803996
0.00683305
0.00119432
0.0069573
-0.00122369
0.0067945
0.00156995
0.00697493
-0.0017068
0.0067496
0.0021316
0.00697669
-0.00220227
0.00669363
0.00282622
0.0069197
-0.00271398
0.0066519
0.0031726
0.00683677
-0.00326361
0.00667361
0.00298676
0.00687584
-0.00386937
0.00722823
0.000301242
0.00838538
-0.0106026
0.00762912
0.010604
0.00663446
0.00436
0.00568013
0.00609824
0.00546825
-0.000670753
0.00523404
0.00190476
0.00525575
-0.00137279
0.00517623
0.00116915
0.00520941
-0.00107455
0.00514958
0.000939009
0.00515688
-0.00069078
0.00510336
0.000736801
0.00509495
-0.000421923
0.00504942
0.000551665
0.00503712
-0.000253372
0.00501343
0.000339269
0.00502968
-0.000280556
0.00506187
-1.66538e-05
0.00513753
-0.000517174
0.00523008
-0.000402137
0.00534442
-0.000696844
0.00545503
-0.000551238
0.00556513
-0.00065475
0.00566167
-0.000496918
0.00575183
-0.00051887
0.00583064
-0.000404872
0.00590322
-0.000397476
0.0059674
-0.00032441
0.00602659
-0.000308267
0.00608098
-0.000274486
0.00613319
-0.000262357
0.006188
-0.000287815
0.00624925
-0.000317461
0.00632409
-0.000436201
0.00640913
-0.000493397
0.00650405
-0.000618189
0.00659808
-0.000575989
0.0066955
-0.000667548
0.00678479
-0.00051751
0.00687841
-0.000647281
0.00695991
-0.000403818
0.00705156
-0.000651328
0.00712476
-0.000262521
0.00721846
-0.000724125
0.00727775
-3.67917e-05
0.00738758
-0.000971539
0.000282359
0.00862129
-0.0105977
0.00939718
-0.00162939
0.00969447
-0.00296664
0.00982641
-0.000786101
0.00990293
-8.02912e-05
0.00992895
0.000232349
0.00992027
0.000450451
0.00988183
0.000653669
0.00981826
0.000773776
0.00973034
0.000923564
0.00962179
0.0010251
0.00949454
0.0011393
0.00935363
0.0011944
0.00920225
0.00125124
0.0090461
0.00124188
0.00888792
0.00124271
0.00873334
0.00116951
0.00858178
0.00115164
0.00843763
0.00105223
0.008298
0.00104342
0.00816752
0.000931876
0.00804131
0.000946407
0.00792653
0.000804972
0.00781416
0.000863075
0.00771525
0.0006811
0.00761624
0.000789422
0.00753357
0.000552528
0.00744669
0.000731429
0.00738135
0.000405008
0.00730439
0.000700607
0.00725715
0.000239103
0.00718762
0.000696659
0.00716108
4.02192e-05
0.00709495
0.000735964
0.00709194
-0.000196421
0.00702322
0.000834385
0.00704902
-0.000492685
0.00696884
0.001018
0.00703079
-0.000865944
0.00692889
0.00129622
0.00703651
-0.00133131
0.00689843
0.00170803
0.00705679
-0.00186515
0.00686421
0.00232418
0.00705802
-0.00239608
0.00682493
0.0030593
0.00698726
-0.00287631
0.00677421
0.00338565
0.0068816
-0.00337101
0.00676876
0.0030996
0.00690476
-0.00400537
0.00729573
-8.97271e-05
0.0083488
-0.0116556
0.00777113
0.0111817
0.00680594
0.0053252
0.005909
0.00699518
0.00565776
-0.000419519
0.00540658
0.00215594
0.00539916
-0.00136537
0.0053162
0.00125211
0.00533392
-0.00109227
0.00527545
0.000997478
0.0052732
-0.000688535
0.00522126
0.000788744
0.00520631
-0.000406971
0.00516183
0.000596147
0.00514565
-0.000237191
0.00512398
0.000360937
0.00514008
-0.00029666
0.00517622
-5.27899e-05
0.00525392
-0.00059488
0.00534986
-0.000498067
0.00546519
-0.000812177
0.00557707
-0.000663116
0.00568691
-0.000764594
0.00578374
-0.000593745
0.00587365
-0.000608781
0.00595292
-0.000484142
0.00602593
-0.000470484
0.00609109
-0.000389567
0.00615138
-0.00036856
0.00620718
-0.000330294
0.00626108
-0.000316257
0.00631772
-0.000344452
0.00638084
-0.00038058
0.00645633
-0.000511697
0.00654065
-0.000577709
0.00663269
-0.000710231
0.00672347
-0.000666775
0.00681679
-0.000760863
0.00690351
-0.000604233
0.00699397
-0.000737737
0.00707486
-0.000484712
0.00716419
-0.000740653
0.00723874
-0.00033708
0.00732992
-0.0008153
0.00739293
-9.98045e-05
0.00749807
-0.00107668
0.000236461
0.00854717
-0.0115691
0.00932549
-0.00240771
0.00960398
-0.00324513
0.00973667
-0.000918791
0.00981925
-0.00016287
0.00985355
0.000198041
0.00985495
0.000449058
0.00982697
0.000681642
0.00977273
0.000828016
0.0096929
0.0010034
0.00959095
0.00112704
0.00946927
0.00126098
0.00933288
0.00133079
0.0091855
0.00139862
0.00903276
0.00139462
0.00887795
0.00139752
0.00872635
0.0013211
0.00857807
0.00129992
0.00843681
0.00119349
0.00830054
0.00117969
0.00817286
0.00105956
0.00805011
0.00106916
0.00793784
0.000917242
0.00782905
0.000971865
0.00773226
0.000777892
0.00763703
0.000884653
0.007556
0.00063356
0.00747332
0.00081411
0.00740892
0.000469405
0.00733697
0.000772561
0.00728966
0.000286408
0.00722639
0.000759934
0.00719821
6.83953e-05
0.00714018
0.00079399
0.00713334
-0.000189577
0.00707537
0.000892357
0.00709421
-0.000511523
0.00702846
0.00108375
0.00707921
-0.000916698
0.0069964
0.00137903
0.00708748
-0.00142239
0.00697447
0.00182104
0.00710924
-0.00199992
0.00695195
0.00248147
0.00710809
-0.00255221
0.00692435
0.00324303
0.00702737
-0.00297933
0.00685803
0.00355499
0.00690941
-0.00342238
0.00683207
0.00317693
0.00692539
-0.00409868
0.00734058
-0.000504921
0.0083253
-0.0126404
0.00786147
0.0116455
0.00692982
0.00625684
0.00610246
0.00782255
0.00582863
-0.000145692
0.00556416
0.00242041
0.00553212
-0.00133333
0.00544402
0.00134021
0.00544875
-0.001097
0.00539003
0.00105621
0.00538019
-0.000678703
0.00532879
0.000840143
0.00530883
-0.00038701
0.00526485
0.000640126
0.00524598
-0.000218321
0.00522609
0.00038083
0.00524279
-0.000313359
0.00528249
-9.249e-05
0.00536233
-0.00067472
0.005461
-0.000596735
0.00557703
-0.000928203
0.00568948
-0.000775571
0.00579865
-0.000873764
0.00589514
-0.000690232
0.00598438
-0.000698021
0.00606355
-0.000563315
0.00613656
-0.000543499
0.00620223
-0.000455235
0.00626323
-0.000429555
0.00632007
-0.000387137
0.00637529
-0.000371476
0.00643341
-0.000402575
0.00649797
-0.000445136
0.00657373
-0.000587457
0.00665689
-0.000660876
0.00674597
-0.000799307
0.00683347
-0.000754275
0.00692297
-0.000850364
0.00700713
-0.000688394
0.00709477
-0.000825377
0.00717479
-0.000564736
0.00726215
-0.000828008
0.00733743
-0.000412358
0.00742663
-0.000904509
0.00749213
-0.000165303
0.0075937
-0.00117825
0.000185621
0.0084895
-0.0124828
0.00925435
-0.00317256
0.00952266
-0.00351345
0.00965773
-0.00105386
0.00974475
-0.000249889
0.00978507
0.000157726
0.00979398
0.00044015
0.00977414
0.000701479
0.00972741
0.000874744
0.00965421
0.0010766
0.00955772
0.00122353
0.00944056
0.00137815
0.00930778
0.00146357
0.00916351
0.00154289
0.00901341
0.00154472
0.0088612
0.00154973
0.008712
0.00147031
0.00856638
0.00144553
0.0084276
0.00133227
0.00829419
0.0013131
0.00816901
0.00118473
0.00804923
0.00118894
0.00793927
0.0010272
0.00783351
0.00107763
0.00773871
0.000872691
0.00764658
0.000976785
0.00756712
0.000713012
0.00748778
0.000893451
0.00742439
0.000532802
0.00735631
0.000840644
0.00730919
0.000333525
0.00725067
0.000818449
0.00722144
9.76286e-05
0.0071696
0.000845827
0.00715986
-0.000179829
0.00711029
0.000941919
0.00712348
-0.00052471
0.00706948
0.00113775
0.00711061
-0.00095783
0.00704426
0.00144539
0.00712022
-0.00149836
0.00703036
0.0019109
0.00714209
-0.00211165
0.00701893
0.00260463
0.00713808
-0.00267137
0.00699704
0.00338408
0.00705254
-0.00303484
0.0069145
0.00369303
0.00692817
-0.00343606
0.00687531
0.0032298
0.00694153
-0.0041649
0.00737202
-0.000935411
0.00830998
-0.0135783
0.00791995
0.0120355
0.00702115
0.00715564
0.0062643
0.0085794
0.00598092
0.000137688
0.00570836
0.00269298
0.00565579
-0.00128077
0.00556212
0.00143388
0.00555572
-0.0010906
0.00549594
0.00111598
0.00547988
-0.00066264
0.00542852
0.000891503
0.00540461
-0.000363098
0.0053609
0.00068383
0.00534018
-0.000197596
0.00532198
0.000399026
0.00533975
-0.000331126
0.00538274
-0.000135475
0.00546466
-0.000756641
0.00556553
-0.000697602
0.00568192
-0.0010446
0.0057944
-0.000888044
0.00590253
-0.0009819
0.0059982
-0.000785898
0.00608642
-0.000786245
0.0061651
-0.000641991
0.00623779
-0.000616195
0.00630362
-0.000521067
0.00636502
-0.000490948
0.00642259
-0.000444708
0.00647883
-0.000427715
0.00653812
-0.000461872
0.00660371
-0.000510719
0.00667933
-0.000663084
0.006761
-0.000742541
0.00684705
-0.00088536
0.0069313
-0.000838527
0.00701728
-0.000936337
0.00709898
-0.000770101
0.0071841
-0.000910493
0.00726315
-0.000643786
0.0073488
-0.00091366
0.00742441
-0.000487969
0.00751201
-0.000992109
0.00757922
-0.000232515
0.00767792
-0.00127695
0.000131139
0.00844053
-0.0133476
0.00918577
-0.0039178
0.00944787
-0.00377554
0.00958616
-0.00119215
0.00967694
-0.000340672
0.00972208
0.000112586
0.00973695
0.000425287
0.00972362
0.000714804
0.00968304
0.000915323
0.00961534
0.0011443
0.00952338
0.00131549
0.00940995
0.00149158
0.00928013
0.00159339
0.00913836
0.00168466
0.00899041
0.00169268
0.00884034
0.0016998
0.00869318
0.00161747
0.00854987
0.00158884
0.00841332
0.00146882
0.00828245
0.00144397
0.00815961
0.00130758
0.00804248
0.00130607
0.00793471
0.00113497
0.00783161
0.00118073
0.00773872
0.000965576
0.00764926
0.00106625
0.00757137
0.000790901
0.0074948
0.000970017
0.00743249
0.000595121
0.00736751
0.000905621
0.00732081
0.00038022
0.00726602
0.000873247
0.00723622
0.000127422
0.00718914
0.000892913
0.00717735
-0.00016804
0.00713424
0.000985023
0.00714313
-0.000533597
0.00709832
0.00118256
0.00713175
-0.000991254
0.00707873
0.0014984
0.00714195
-0.00156158
0.0070718
0.00198105
0.00716322
-0.00220307
0.00706969
0.00269816
0.00715735
-0.00275903
0.00704893
0.0034925
0.00706997
-0.00305588
0.00695298
0.00381002
0.00694185
-0.00342492
0.00690596
0.00326569
0.0069549
-0.00421385
0.00739515
-0.00137566
0.00829937
-0.0144825
0.00795907
0.0123758
0.00709022
0.00802449
0.00639859
0.00927103
0.00611509
0.000421183
0.00583995
0.00296812
0.00577075
-0.00121157
0.00567194
0.00153269
0.00565594
-0.0010746
0.00559482
0.0011771
0.00557357
-0.000641388
0.00552204
0.00094304
0.00549497
-0.000336035
0.00545149
0.000727314
0.00542954
-0.000175647
0.00541304
0.000415526
0.00543219
-0.000350271
0.00547822
-0.000181504
0.00556208
-0.000840504
0.00566467
-0.000800188
0.0057811
-0.00116103
0.00589312
-0.00100007
0.0059999
-0.00108868
0.00609436
-0.000880359
0.00618129
-0.000873171
0.00625916
-0.00071986
0.00633128
-0.000688322
0.00639701
-0.000586795
0.00645856
-0.000552502
0.00651662
-0.00050277
0.00657363
-0.000484719
0.00663381
-0.000522052
0.00670003
-0.000576942
0.00677515
-0.000738199
0.00685502
-0.000822412
0.00693803
-0.000968374
0.00701913
-0.000919625
0.00710186
-0.00101906
0.00718126
-0.000849503
0.00726412
-0.000993352
0.00734217
-0.000721834
0.00742631
-0.000997804
0.00750201
-0.000563673
0.00758825
-0.00107834
0.00765666
-0.000300929
0.00775297
-0.00137326
7.39359e-05
0.00839695
-0.0141688
0.00911999
-0.00464085
0.00937796
-0.00403351
0.00951993
-0.00133412
0.00961418
-0.000434928
0.00966351
6.3255e-05
0.00968334
0.000405459
0.00967538
0.000722764
0.0096399
0.000950807
0.00957677
0.00120743
0.00948861
0.00140365
0.00937828
0.00160191
0.00925089
0.00172078
0.00911119
0.00182436
0.00896503
0.00183884
0.00881679
0.00184804
0.00867145
0.00176282
0.00853022
0.00173006
0.00839576
0.00160328
0.00826724
0.00157249
0.00814662
0.0014282
0.00803194
0.00142075
0.00792628
0.00124063
0.00782561
0.0012814
0.00773459
0.0010566
0.00764752
0.00115332
0.00757118
0.000867239
0.00749703
0.00104417
0.00743585
0.000656303
0.00737348
0.00096799
0.00732739
0.000426305
0.00727561
0.000925036
0.00724564
0.000157388
0.0072023
0.00093625
0.00718917
-0.00015491
0.00715108
0.00102312
0.00715683
-0.000539343
0.00711915
0.00122023
0.00714666
-0.00101877
0.00710415
0.00154091
0.00715724
-0.00161467
0.00710307
0.00203523
0.00717794
-0.00227794
0.00710821
0.00276788
0.0071715
-0.00282231
0.00708602
0.00357797
0.00708311
-0.00305297
0.00698002
0.0039131
0.00695241
-0.00339731
0.00692858
0.00328952
0.00696638
-0.00425164
0.00741291
-0.0018222
0.00829149
-0.0153611
0.00798634
0.012681
0.00714374
0.00886709
0.00650944
0.00990533
0.00623213
0.000698492
0.00595949
0.00324075
0.0058774
-0.00112947
0.00577434
0.00163575
0.00575017
-0.00105043
0.00568773
0.00123954
0.00566216
-0.000615819
0.00561041
0.000994786
0.00558085
-0.000306469
0.00553763
0.000770536
0.00551495
-0.000152973
0.00550018
0.000430297
0.0055209
-0.000370993
0.00556974
-0.000230341
0.00565535
-0.000926109
0.00575922
-0.000904055
0.00587535
-0.00127717
0.00598651
-0.00111122
0.00609163
-0.0011938
0.00618457
-0.000973298
0.00626997
-0.000958569
0.00634678
-0.000796671
0.00641814
-0.000759683
0.00648355
-0.00065221
0.00654508
-0.000614028
0.00660344
-0.000561126
0.00666099
-0.000542271
0.00672178
-0.000582849
0.00678829
-0.00064345
0.00686256
-0.000812468
0.00694041
-0.000900266
0.00702041
-0.00104837
0.0070985
-0.000997717
0.00717825
-0.00109882
0.00725552
-0.000926771
0.00733635
-0.00107418
0.00741341
-0.000798896
0.0074962
-0.0010806
0.00757184
-0.000639313
0.00765688
-0.00116338
0.00772614
-0.000370187
0.00782037
-0.00146749
1.46497e-05
0.00835707
-0.0149501
0.00905688
-0.00534066
0.0093119
-0.00428852
0.00945776
-0.00147999
0.00955536
-0.000532527
0.00960854
1.00817e-05
0.00963267
0.000381323
0.00962925
0.000726186
0.00959805
0.000982009
0.00953875
0.00126673
0.00945375
0.00148865
0.009346
0.00170966
0.00922064
0.00184614
0.00908264
0.00196235
0.00893802
0.00198347
0.00879139
0.00199466
0.00864772
0.00190648
0.00850843
0.00186936
0.00837597
0.00173574
0.00824968
0.00169878
0.00813119
0.00154669
0.00801885
0.00153309
0.00791523
0.00134426
0.00781684
0.00137978
0.00772765
0.00114579
0.00764278
0.00123819
0.00756799
0.000942029
0.00749601
0.00111614
0.00743603
0.000716288
0.00737593
0.00102809
0.0073306
0.000471636
0.00728135
0.000974284
0.00725151
0.000187231
0.00721122
0.000976532
0.00719729
-0.000140977
0.00716317
0.00105724
0.0071667
-0.000542866
0.0071346
0.00125233
0.00715769
-0.00104186
0.00712343
0.00157517
0.00716872
-0.00165996
0.00712722
0.00207672
0.00718928
-0.00233999
0.00713788
0.00281928
0.00718311
-0.00286754
0.00711315
0.00364793
0.00709359
-0.00303341
0.00699974
0.00400695
0.00696089
-0.00335845
0.00694592
0.00330449
0.00697647
-0.00428219
0.00742701
-0.00227274
0.00828522
-0.0162193
0.00800617
0.01296
0.0071862
0.00968706
0.00660085
0.0104907
0.00633346
0.000965878
0.0060675
0.00350671
0.00597601
-0.00103797
0.00586992
0.00174184
0.00583893
-0.00101945
0.00577539
0.00130308
0.00574628
-0.000586702
0.0056944
0.00104666
0.00566288
-0.000274951
0.00562002
0.000813395
0.00559704
-0.000129987
0.00558404
0.000443294
0.00560646
-0.000393412
0.00565787
-0.000281754
0.00574499
-0.00101322
0.00584971
-0.00100878
0.00596521
-0.00139267
0.00607513
-0.00122113
0.00617833
-0.001297
0.00626947
-0.00106444
0.00635315
-0.00104224
0.00642871
-0.000872233
0.00649914
-0.000830117
0.00656409
-0.000717154
0.00662543
-0.000675376
0.00668392
-0.000619609
0.00674182
-0.000600179
0.00680299
-0.000644016
0.00686946
-0.00070992
0.0069426
-0.000885604
0.00701827
-0.000975943
0.00709532
-0.00112542
0.00717057
-0.00107297
0.00724761
-0.00117585
0.00732291
-0.00100207
0.0074019
-0.00115318
0.00747801
-0.000875003
0.00755958
-0.00116217
0.00763505
-0.000714783
0.00771901
-0.00124733
0.00778885
-0.000440023
0.00788125
-0.00155989
-4.62223e-05
0.00831996
-0.0156943
0.00899627
-0.00601697
0.00924903
-0.00454129
0.00939886
-0.00162982
0.00949973
-0.000633399
0.00955654
-4.67223e-05
0.00958454
0.000353323
0.00958504
0.000725688
0.00955747
0.00100958
0.00950139
0.0013228
0.00941902
0.00157102
0.0093134
0.00181529
0.0091897
0.00196984
0.00905314
0.00209891
0.00890984
0.00212677
0.00876467
0.00213983
0.00862257
0.00204858
0.00848512
0.00200681
0.00835459
0.00186627
0.00823045
0.00182292
0.00811406
0.00166309
0.00800394
0.0016432
0.00790233
0.00144587
0.00780611
0.001476
0.00771872
0.00123318
0.00763592
0.001321
0.00756268
0.00101527
0.00749271
0.00118611
0.00743396
0.000775039
0.00737591
0.00108614
0.00733144
0.000516107
0.00728441
0.00102132
0.00725491
0.000216732
0.0072172
0.00101424
0.00720287
-0.000126643
0.00717201
0.0010881
0.007174
-0.000544858
0.00714637
0.00127996
0.0071662
-0.00106169
0.00713848
0.00160289
0.00717787
-0.00169935
0.00714644
0.00210816
0.0071988
-0.00239236
0.00716126
0.00285682
0.00719326
-0.00289953
0.00713368
0.00370751
0.00710227
-0.003002
0.00701466
0.00409456
0.00696793
-0.00331172
0.00695968
0.00331274
0.00698552
-0.00430802
0.00743852
-0.00272574
0.00827993
-0.0170607
0.00802116
0.0132188
0.00722072
0.0104875
0.00667644
0.011035
0.00642077
0.00122155
0.0061646
0.00376288
0.00606686
-0.000940229
0.00595911
0.00184958
0.00592262
-0.000982956
0.00585835
0.00136735
0.00582639
-0.000554744
0.00577454
0.00109851
0.00574155
-0.000241964
0.0056992
0.000855751
0.00567625
-0.000107038
0.00566507
0.000454475
0.00568924
-0.000417586
0.00574299
-0.000335501
0.00583134
-0.00110157
0.00593651
-0.00111395
0.00605105
-0.0015072
0.00615938
-0.00132946
0.0062604
-0.00139803
0.00634953
-0.00115356
0.00643131
-0.00112403
0.00650547
-0.000946391
0.00657485
-0.000899503
0.0066392
-0.000781504
0.00670025
-0.000736429
0.00675874
-0.000678091
0.00681684
-0.00065828
0.00687815
-0.00070533
0.00694429
-0.000776066
0.00701606
-0.000957368
0.00708946
-0.00104935
0.00716367
-0.00119963
0.00723626
-0.00114555