/*--------------------------------*- C++ -*----------------------------------*\
| =========                 |                                                 |
| \\      /  F ield         | OpenFOAM: The Open Source CFD Toolbox           |
|  \\    /   O peration     | Version:  2412                                  |
|   \\  /    A nd           | Website:  www.openfoam.com                      |
|    \\/     M anipulation  |                                                 |
\*---------------------------------------------------------------------------*/
FoamFile
{
    version     2.0;
    format      ascii;
    arch        "LSB;label=32;scalar=64";
    class       volScalarField;
    location    "0.5";
    object      epsilon;
}
// * * * * * * * * * * * * * * * * * * * * * * * * * * * * * * * * * * * * * //

dimensions      [0 2 -3 0 0 0 0];

internalField   nonuniform List<scalar> 
78408
(
4.35928e+06
4.76356e+06
3.58496e+06
2.89394e+06
2.60092e+06
2.48094e+06
2.44015e+06
2.43935e+06
2.46213e+06
2.49734e+06
2.53946e+06
2.58299e+06
2.62787e+06
2.67327e+06
2.72289e+06
2.77638e+06
2.83932e+06
2.90879e+06
2.99128e+06
3.08171e+06
3.18987e+06
3.30717e+06
3.45097e+06
3.60493e+06
3.7973e+06
4.00099e+06
4.26224e+06
4.53345e+06
4.89489e+06
5.25796e+06
5.75771e+06
6.25127e+06
6.95538e+06
7.63546e+06
8.6514e+06
9.594e+06
1.11033e+07
1.24172e+07
1.47326e+07
1.65797e+07
2.02825e+07
2.2864e+07
2.90361e+07
3.25835e+07
4.36532e+07
4.98811e+07
7.19895e+07
8.3689e+07
1.24683e+08
1.44347e+08
2.33102e+08
2.74179e+08
6.92616e+08
7.81244e+08
4.6602e+08
2.9458e+08
2.16366e+08
1.71701e+08
1.42157e+08
1.19652e+08
1.01703e+08
8.66004e+07
7.47004e+07
6.48732e+07
5.77576e+07
5.19826e+07
4.78519e+07
4.37923e+07
4.00423e+07
3.59335e+07
3.20158e+07
2.82625e+07
2.49701e+07
2.20915e+07
1.96647e+07
1.76045e+07
1.58716e+07
1.44068e+07
1.31822e+07
1.21936e+07
1.14705e+07
1.10533e+07
1.08958e+07
1.08699e+07
1.07831e+07
1.05676e+07
1.01823e+07
9.71242e+06
9.1545e+06
8.61408e+06
8.04197e+06
7.54288e+06
7.01778e+06
6.59651e+06
6.12214e+06
5.78773e+06
5.34603e+06
5.10226e+06
4.68434e+06
1.69721e+07
9.53892e+06
3.54063e+06
1.62332e+06
967983
728914
651433
648832
681915
734401
792786
851799
904593
951372
989296
1.02315e+06
1.05068e+06
1.08009e+06
1.10658e+06
1.14022e+06
1.17208e+06
1.21593e+06
1.25613e+06
1.31539e+06
1.36748e+06
1.44831e+06
1.51594e+06
1.62768e+06
1.7145e+06
1.87234e+06
1.99347e+06
2.21852e+06
2.3882e+06
2.71547e+06
2.95e+06
3.43759e+06
3.76101e+06
4.51332e+06
4.9612e+06
6.16191e+06
6.78644e+06
8.79193e+06
9.69096e+06
1.32492e+07
1.49458e+07
2.19942e+07
2.54534e+07
3.75308e+07
4.139e+07
6.14941e+07
7.09972e+07
1.04666e+08
1.39236e+08
3.59564e+08
3.23396e+08
1.96029e+08
1.16537e+08
8.63953e+07
6.58504e+07
5.5733e+07
4.52335e+07
3.91834e+07
3.26433e+07
2.86566e+07
2.48309e+07
2.24672e+07
2.0398e+07
1.87277e+07
1.70304e+07
1.52539e+07
1.35218e+07
1.18946e+07
1.0457e+07
9.22517e+06
8.18859e+06
7.32375e+06
6.60009e+06
5.99602e+06
5.49567e+06
5.0983e+06
4.81331e+06
4.64656e+06
4.56772e+06
4.51012e+06
4.41445e+06
4.26038e+06
4.05717e+06
3.82623e+06
3.58587e+06
3.34898e+06
3.12375e+06
2.91248e+06
2.72132e+06
2.53977e+06
2.39571e+06
2.23475e+06
2.13875e+06
1.98768e+06
1.93293e+06
2.14362e+06
2.49897e+06
1.21923e+06
658586
410613
298840
251842
239052
244871
262127
285393
312051
339087
365615
389850
412460
432269
451436
468741
487299
505057
526170
546798
573212
599116
633852
667525
714410
758644
822959
881758
972512
1.05238e+06
1.18295e+06
1.29147e+06
1.4846e+06
1.63237e+06
1.92751e+06
2.13023e+06
2.5985e+06
2.8789e+06
3.66295e+06
4.07865e+06
5.5426e+06
6.51256e+06
9.88158e+06
1.1837e+07
1.73304e+07
1.87501e+07
2.70963e+07
2.99211e+07
4.47162e+07
4.53441e+07
1.21419e+08
1.86227e+08
1.37201e+08
8.63022e+07
6.02676e+07
4.55807e+07
3.70013e+07
3.03447e+07
2.57601e+07
2.17941e+07
1.89648e+07
1.6677e+07
1.50997e+07
1.38655e+07
1.27585e+07
1.16007e+07
1.03417e+07
9.07786e+06
7.9022e+06
6.86418e+06
5.99119e+06
5.26337e+06
4.66866e+06
4.1775e+06
3.77602e+06
3.44916e+06
3.19705e+06
3.02397e+06
2.93072e+06
2.89206e+06
2.8596e+06
2.79753e+06
2.69366e+06
2.55866e+06
2.40396e+06
2.24556e+06
2.08723e+06
1.93969e+06
1.79828e+06
1.6734e+06
1.5526e+06
1.45389e+06
1.35054e+06
1.2778e+06
1.18626e+06
1.13346e+06
272043
522412
374270
274898
210395
170814
148959
139623
138602
143392
151753
162513
174345
186807
199000
211065
222215
233262
243349
253929
263814
275191
285977
299649
312658
330406
347093
371199
393086
426665
455215
502959
541272
609930
661116
762719
830765
985881
1.07611e+06
1.32188e+06
1.44195e+06
1.8547e+06
2.03636e+06
2.84706e+06
3.3986e+06
5.45213e+06
6.5662e+06
9.73049e+06
1.04771e+07
1.49013e+07
1.61586e+07
2.40179e+07
2.26105e+07
5.17112e+07
1.11245e+08
1.04498e+08
7.11723e+07
4.92923e+07
3.69249e+07
2.93399e+07
2.40518e+07
2.02459e+07
1.72396e+07
1.49918e+07
1.33041e+07
1.21028e+07
1.1195e+07
1.03252e+07
9.37356e+06
8.31689e+06
7.24214e+06
6.24757e+06
5.37308e+06
4.64526e+06
4.04378e+06
3.55832e+06
3.16183e+06
2.84215e+06
2.58541e+06
2.39115e+06
2.26166e+06
2.19609e+06
2.17296e+06
2.15405e+06
2.11204e+06
2.03695e+06
1.93679e+06
1.81959e+06
1.69828e+06
1.57555e+06
1.46059e+06
1.34964e+06
1.25125e+06
1.15623e+06
1.07633e+06
995854
934766
864710
818487
60989.7
139744
145779
142749
132209
119897
109971
104015
101796
102726
105853
110568
116159
122353
128668
135127
141276
147465
153160
159064
164474
170562
176142
183200
189668
198753
206963
219504
230338
248332
262586
288810
308015
346467
372083
429792
463291
552409
595316
737734
792183
1.03436e+06
1.12003e+06
1.62373e+06
1.95913e+06
3.29623e+06
4.04622e+06
6.10765e+06
6.76949e+06
9.51008e+06
1.04308e+07
1.51849e+07
1.47528e+07
2.78163e+07
6.75656e+07
8.05663e+07
6.03443e+07
4.27102e+07
3.19488e+07
2.51538e+07
2.05831e+07
1.7272e+07
1.47625e+07
1.28662e+07
1.14956e+07
1.05121e+07
9.77008e+06
9.02168e+06
8.1695e+06
7.21417e+06
6.23956e+06
5.34259e+06
4.55841e+06
3.91055e+06
3.37912e+06
2.95359e+06
2.60896e+06
2.33355e+06
2.11448e+06
1.95071e+06
1.84347e+06
1.79132e+06
1.7758e+06
1.76524e+06
1.73639e+06
1.67983e+06
1.60106e+06
1.5064e+06
1.40657e+06
1.30438e+06
1.20757e+06
1.11377e+06
1.02973e+06
948944
879659
811316
757093
698232
656581
25149
62568.3
80652.6
91118
94262.1
92402.5
88694.7
85466.1
83651.1
83502.7
84731.4
87057.5
90072.4
93586.4
97290.1
101151
104878
108621
112039
115494
118563
121896
124814
128464
131652
136264
140251
146717
152044
161621
168792
183186
193016
214709
228008
261265
278607
330950
352662
437698
464225
611907
657319
982934
1.20829e+06
2.1111e+06
2.7305e+06
4.20832e+06
4.88622e+06
6.79838e+06
7.62779e+06
1.08619e+07
1.11913e+07
1.82519e+07
4.26524e+07
6.19366e+07
5.12493e+07
3.77541e+07
2.84706e+07
2.2405e+07
1.83331e+07
1.53857e+07
1.31943e+07
1.15401e+07
1.03705e+07
9.52915e+06
8.88339e+06
8.2024e+06
7.40334e+06
6.50599e+06
5.59331e+06
4.75902e+06
4.03443e+06
3.43955e+06
2.95469e+06
2.56864e+06
2.25796e+06
2.01116e+06
1.8162e+06
1.67159e+06
1.57803e+06
1.53393e+06
1.52328e+06
1.51877e+06
1.49937e+06
1.45573e+06
1.39146e+06
1.31188e+06
1.22617e+06
1.13741e+06
1.05226e+06
969500
894550
822803
760350
699601
649911
597992
559464
15787.4
39734.4
55197.9
66392.7
72937.2
75180.5
74767.6
73486.2
72423.3
72142.1
72698.1
74023.3
75892.4
78176.1
80652.8
83262.2
85787.9
88285.3
90519.2
92686.3
94518.8
96404.9
97936.5
99816.4
101329
103629
105483
108785
111340
116440
120035
127988
133091
145438
152539
171880
181229
212248
223867
275188
289206
380691
408679
622904
798964
1.44632e+06
2.01038e+06
3.15425e+06
3.83431e+06
5.29279e+06
6.07372e+06
8.49328e+06
9.26748e+06
1.37555e+07
2.87493e+07
4.7629e+07
4.32944e+07
3.35459e+07
2.5713e+07
2.03618e+07
1.67049e+07
1.40543e+07
1.20976e+07
1.06265e+07
9.59969e+06
8.85827e+06
8.27188e+06
7.62886e+06
6.85896e+06
5.99792e+06
5.12822e+06
4.3396e+06
3.65953e+06
3.10441e+06
2.65449e+06
2.29776e+06
2.01206e+06
1.78601e+06
1.60835e+06
1.47733e+06
1.3934e+06
1.35511e+06
1.34832e+06
1.34871e+06
1.33652e+06
1.30236e+06
1.24851e+06
1.17967e+06
1.10393e+06
1.02461e+06
947620
872552
803905
738401
680713
625180
578715
531535
495254
11918.8
29866.2
42430.6
52441.4
59572
63431.6
64782.7
64822.7
64487.8
64403.6
64791.7
65713.9
67063.1
68756.3
70624.3
72592.8
74486
76310.2
77889.6
79338.3
80476.9
81556.6
82320.7
83230.3
83835.8
84887.7
85608.3
87211.2
88312.7
90997.2
92725.3
97166.6
99811.5
106978
110862
122348
127596
146312
152908
184338
192534
250087
270746
416402
572620
1.07186e+06
1.59735e+06
2.53581e+06
3.20001e+06
4.38617e+06
5.1277e+06
7.0756e+06
8.10449e+06
1.13152e+07
2.09213e+07
3.69406e+07
3.64078e+07
2.98027e+07
2.33631e+07
1.87127e+07
1.54335e+07
1.30419e+07
1.12752e+07
9.95166e+06
9.03399e+06
8.36602e+06
7.81667e+06
7.19388e+06
6.43962e+06
5.60329e+06
4.76652e+06
4.0146e+06
3.37093e+06
2.84838e+06
2.4269e+06
2.09381e+06
1.82796e+06
1.6182e+06
1.45395e+06
1.3334e+06
1.25696e+06
1.22346e+06
1.22018e+06
1.22476e+06
1.21824e+06
1.19125e+06
1.14517e+06
1.08429e+06
1.01593e+06
943582
872600
803185
739167
678222
624043
572311
528255
484517
449931
9896.7
24495.2
34878
43599.1
50492.8
54932
57226.6
58144
58417
58630.4
59071.8
59876.1
61012
62430.2
63995
65625.9
67171.1
68610.7
69806
70827.4
71549.6
72148
72456
72796.3
72874.9
73208.7
73285.4
73924.7
74214.7
75539.3
76236.1
78702.5
80006.1
84247.7
86386
93406.4
96457.2
108089
112068
131842
137213
174488
192323
297892
444697
855830
1.34861e+06
2.15304e+06
2.79371e+06
3.80387e+06
4.51076e+06
6.16367e+06
7.34678e+06
9.84003e+06
1.63437e+07
2.91331e+07
3.0598e+07
2.64495e+07
2.12897e+07
1.73115e+07
1.43873e+07
1.22297e+07
1.06261e+07
9.4269e+06
8.59648e+06
7.98382e+06
7.4567e+06
6.8428e+06
6.09629e+06
5.27837e+06
4.46916e+06
3.74902e+06
3.13711e+06
2.64288e+06
2.24586e+06
1.93285e+06
1.68363e+06
1.48732e+06
1.33404e+06
1.22204e+06
1.15186e+06
1.12266e+06
1.12272e+06
1.13097e+06
1.12901e+06
1.10756e+06
1.0674e+06
1.01259e+06
949845
882819
816425
751320
690836
633355
581862
533015
490853
449697
416435
8649.75
21087.9
29880
37509.7
43942.7
48506.6
51292.3
52784.7
53536.8
54057.9
54648.6
55479
56563.9
57876.7
59303.5
60760.6
62112.2
63324.7
64284.2
65037.5
65495
65788.3
65807.3
65791.7
65543
65436.7
65122.3
65181.3
64987.9
65503.8
65594.5
66896.5
67423
69948
71084.4
75492.7
77299.7
84783.7
87314.2
100223
104142
129428
146325
229161
369942
726590
1.19221e+06
1.90504e+06
2.52107e+06
3.41075e+06
4.08741e+06
5.544e+06
6.82679e+06
8.87736e+06
1.35251e+07
2.35002e+07
2.58241e+07
2.34751e+07
1.94378e+07
1.60852e+07
1.34955e+07
1.15528e+07
1.00939e+07
9.00231e+06
8.24366e+06
7.67301e+06
7.15768e+06
6.54525e+06
5.80202e+06
4.99926e+06
4.21482e+06
3.52374e+06
2.94079e+06
2.47214e+06
2.09693e+06
1.80157e+06
1.56674e+06
1.38193e+06
1.23795e+06
1.1332e+06
1.0685e+06
1.04331e+06
1.04659e+06
1.05808e+06
1.05982e+06
1.04268e+06
1.00712e+06
957023
898666
835798
773002
711272
653568
598797
549420
502829
462190
423038
390840
7779.79
18683.5
26296.6
33049.8
38992.3
43478.1
46499.9
48363.2
49482.3
50286.6
51063
51992.9
53116.6
54420.6
55804.4
57182.6
58430.5
59507.5
60318.2
60896.7
61178.4
61268.6
61094.7
60844.2
60380.3
59988.9
59422.6
59112.3
58613.2
58621.7
58334.2
58914.3
58962.3
60432.7
60959
63775.9
64834.9
69809.3
71485.5
80263.4
83387.5
101579
118296
188242
324781
646574
1.09055e+06
1.73846e+06
2.33163e+06
3.13507e+06
3.78567e+06
5.10505e+06
6.45625e+06
8.21413e+06
1.16967e+07
1.94462e+07
2.1984e+07
2.08767e+07
1.77831e+07
1.49954e+07
1.27175e+07
1.09729e+07
9.64463e+06
8.64783e+06
7.94917e+06
7.41028e+06
6.89918e+06
6.28337e+06
5.54111e+06
4.75212e+06
3.9912e+06
3.32763e+06
2.77182e+06
2.32683e+06
1.97148e+06
1.69196e+06
1.46986e+06
1.29509e+06
1.15916e+06
1.06073e+06
1.00096e+06
979581
985940
1.0003e+06
1.00504e+06
991310
959351
912970
858093
798537
738620
679591
624121
571520
523849
479064
439672
402117
370792
7115.44
16852.3
23569.7
29624.6
35110.4
39430.5
42542.3
44639.3
46034.5
47086.1
48055.4
49120.6
50333.3
51685.1
53082.8
54439.4
55638.5
56636.6
57352.6
57814.2
57975.2
57925
57617.1
57204.8
56592.9
56008.1
55271.4
54714.6
54012
53686.8
53150.5
53261.2
52998.5
53790.3
53923.7
55727.4
56309.6
59704.4
60844.3
67057.7
69729
83676.7
100544
163119
296877
595845
1.02303e+06
1.62356e+06
2.19654e+06
2.93606e+06
3.56431e+06
4.784e+06
6.18454e+06
7.7389e+06
1.04549e+07
1.65121e+07
1.89426e+07
1.86405e+07
1.63123e+07
1.40203e+07
1.20289e+07
1.04664e+07
9.25687e+06
8.34434e+06
7.69618e+06
7.18088e+06
6.66843e+06
6.04621e+06
5.3041e+06
4.52864e+06
3.79085e+06
3.15391e+06
2.62393e+06
2.20111e+06
1.86407e+06
1.59893e+06
1.38822e+06
1.22233e+06
1.09348e+06
1.00066e+06
945383
927633
936908
953775
960966
949930
920825
877409
825331
768455
710880
654051
600411
549581
503312
460001
421647
385390
354796
6574
15377.2
21397.6
26893.6
31973.5
36096.7
39213.1
41451
43051.3
44312.9
45468.1
46683.6
48012.1
49444.9
50891.1
52261.7
53446.8
54402.1
55058.4
55440.8
55517.4
55367.5
54963.8
54436.4
53719
52998.2
52141.5
51413.8
50569.9
50015.9
49308.7
49101.2
48628
48963.4
48831.1
49961.8
50223.8
52583.3
53367.8
57934.6
60348
71725.7
88922.3
147315
279550
563399
977727
1.54285e+06
2.09838e+06
2.78919e+06
3.39828e+06
4.54313e+06
5.98065e+06
7.3883e+06
9.57837e+06
1.43649e+07
1.65531e+07
1.67399e+07
1.50139e+07
1.31465e+07
1.1414e+07
1.00177e+07
8.91641e+06
8.07907e+06
7.47348e+06
6.97512e+06
6.45723e+06
5.82693e+06
5.08516e+06
4.3237e+06
3.60912e+06
2.99824e+06
2.49304e+06
2.0911e+06
1.77103e+06
1.51902e+06
1.31858e+06
1.16061e+06
1.03805e+06
950247
899114
884796
896790
915840
925025
916128
889300
848273
798476
743798
688158
633148
581031
531670
486574
444485
407007
371825
341850
6111.85
14139
19604.5
24649.1
29374.8
33295.9
36368.2
38684
40434.8
41871.9
43199.3
44567.9
46025.3
47557.8
49073.2
50480
51673.3
52609.7
53229.8
53558.7
53575.4
53353.7
52879.8
52268.6
51474.2
50654.9
49711.5
48861.3
47916.1
47200.1
46370.9
45940
45318.2
45335.5
45015.5
45682.1
45718.7
47373.7
47912.3
51388.2
53665.6
63481
81125.5
137268
269007
542861
947420
1.48555e+06
2.0261e+06
2.67895e+06
3.27155e+06
4.35861e+06
5.82456e+06
7.12376e+06
8.94001e+06
1.27713e+07
1.46788e+07
1.51391e+07
1.38752e+07
1.23639e+07
1.0862e+07
9.61629e+06
8.61344e+06
7.84321e+06
7.27336e+06
6.78645e+06
6.26023e+06
5.62117e+06
4.88064e+06
4.13406e+06
3.443e+06
2.85772e+06
2.37635e+06
1.99412e+06
1.68979e+06
1.44981e+06
1.25864e+06
1.10778e+06
990829
907543
860233
849140
863638
884572
895372
888177
863177
824097
776180
723329
669309
615826
564994
516871
472770
431710
394982
360702
331260
5704.51
13067.8
18082.5
22758
27176.6
30902.3
33903.7
36255
38114.4
39696.7
41180
42697.9
44288.4
45929.9
47526.1
48982.8
50198.6
51131.9
51732
52025.1
51999.4
51725.4
51199.9
50526.7
49675
48783.2
47775.5
46835.8
45816
44982
44063.4
43470.9
42740.4
42529.1
42071.6
42407.1
42278.7
43438.1
43800.7
46535.3
48759.5
57639.1
75821.3
130938
262983
530343
927502
1.44473e+06
1.97241e+06
2.59511e+06
3.17342e+06
4.2147e+06
5.70274e+06
6.92053e+06
8.46313e+06
1.15704e+07
1.32053e+07
1.37988e+07
1.28823e+07
1.16643e+07
1.0365e+07
9.25459e+06
8.3409e+06
7.63043e+06
7.09036e+06
6.61038e+06
6.07389e+06
5.42618e+06
4.68826e+06
3.95765e+06
3.29046e+06
2.73034e+06
2.27184e+06
1.90818e+06
1.61846e+06
1.38949e+06
1.20672e+06
1.06223e+06
950302
871098
827313
819222
835994
858539
870643
864803
841282
803803
757456
706141
653497
601312
551583
504517
461272
421091
385014
351502
322524
5337.62
12120.5
16761.9
21132
25283.8
28826.4
31743.1
34101
36037.3
37738.8
39361.4
41020.7
42743.3
44496.9
46179.7
47693.8
48941
49881.9
50473.2
50743.3
50688
50375.9
49812.1
49092.8
48198.3
47252.5
46196.6
45190.2
44114.5
43193.1
42207.2
41495.2
40683
40302.9
39741.5
39833.9
39580.5
40380.9
40614.9
42836.7
45067.8
53415.3
72204.9
127102
260053
523363
914915
1.41572e+06
1.93229e+06
2.53066e+06
3.09648e+06
4.10063e+06
5.60574e+06
6.76195e+06
8.09936e+06
1.06517e+07
1.20409e+07
1.268e+07
1.202e+07
1.10401e+07
9.91661e+06
8.92691e+06
8.09357e+06
7.4361e+06
6.92055e+06
6.4438e+06
5.89588e+06
5.24023e+06
4.50656e+06
3.79308e+06
3.15006e+06
2.61457e+06
2.17797e+06
1.83176e+06
1.55557e+06
1.33667e+06
1.1615e+06
1.02274e+06
915314
839802
799257
793932
812745
836653
849801
845042
822726
786579
741559
691555
640095
589032
540260
494110
451615
412194
376690
343838
315271
5002.42
11269.5
15596.1
19709.9
23629.4
27002.8
29828.8
32174
34163
35961.9
37707.5
39498.7
41348.6
43213.4
44984.2
46559.5
47843.2
48798.6
49389
49645.4
49569.7
49230.4
48638.5
47885.1
46958.5
45972.4
44880.3
43823.9
42705.9
41718.5
40681.5
39879.2
39004.2
38496.6
37854.7
37764.1
37413.2
37947.1
38086.2
39950.6
42234.3
50318.7
69769.3
124994
259282
520267
907554
1.39529e+06
1.90219e+06
2.48066e+06
3.03547e+06
4.00875e+06
5.52674e+06
6.63643e+06
7.817e+06
9.93882e+06
1.11146e+07
1.17469e+07
1.12731e+07
1.04839e+07
9.51163e+06
8.62874e+06
7.86741e+06
7.25671e+06
6.76103e+06
6.28453e+06
5.72467e+06
5.06224e+06
4.33462e+06
3.6394e+06
3.02072e+06
2.50925e+06
2.09351e+06
1.76366e+06
1.49996e+06
1.29025e+06
1.12196e+06
988335
884955
812780
775199
772398
793019
818066
832042
828147
806823
771799
727916
679047
628622
578540
530614
485269
443438
404683
369692
337415
309218
4693.34
10496.5
14552.9
18448.8
22164.5
25382.8
28116.7
30436.4
32459.7
34337.6
36191.3
38103.6
40074.1
42046.4
43903.9
45541.2
46863.8
47838.1
48432.9
48682.3
48593.6
48235.2
47623.1
46844.9
45894.7
44878.6
43759.5
42665.5
41515.4
40478.1
39401.5
38530.2
37606
37000.5
36294.4
36063.1
35634.2
35966.5
36035.8
37652.4
40025
48030.9
68181.7
124107
260025
519907
903922
1.38114e+06
1.87955e+06
2.44152e+06
2.98649e+06
3.93353e+06
5.46071e+06
6.53562e+06
7.59449e+06
9.37826e+06
1.0372e+07
1.09678e+07
1.06269e+07
9.98898e+06
9.14542e+06
8.35645e+06
7.65924e+06
7.08955e+06
6.60963e+06
6.13103e+06
5.55928e+06
4.89156e+06
4.17186e+06
3.49589e+06
2.90157e+06
2.41339e+06
2.01745e+06
1.70286e+06
1.45067e+06
1.24934e+06
1.08725e+06
958248
858492
789329
754444
753922
776122
802106
816733
813528
793031
758967
716076
668204
618699
569488
522321
477692
436460
398298
363770
332002
304143
4406.73
9788.72
13609.7
17317.2
20853
23929.5
26572.6
28858.3
30901.9
32843.6
34791.7
36814.2
38897.1
40971.4
42912.2
44610.2
45972.4
46967.9
47570.8
47818.3
47721.9
47351
46725
45929.1
44962.1
43924.2
42785.3
41663.3
40489.1
39413.7
38306.6
37381.9
36418.6
35736.6
34978.6
34636.9
34144.4
34321.8
34340.9
35790.3
38281.3
46338.4
67215.5
124096
261825
521460
902924
1.37157e+06
1.86243e+06
2.41055e+06
2.94666e+06
3.87083e+06
5.40386e+06
6.45333e+06
7.41673e+06
8.9321e+06
9.77189e+06
1.03158e+07
1.0068e+07
9.54862e+06
8.81387e+06
8.10694e+06
7.46649e+06
6.93248e+06
6.46474e+06
5.98223e+06
5.39912e+06
4.72781e+06
4.01784e+06
3.36199e+06
2.79187e+06
2.32615e+06
1.9489e+06
1.6485e+06
1.40688e+06
1.21317e+06
1.05669e+06
931830
835323
768874
736425
737937
761494
788234
803364
800715
780917
747688
705676
658695
610019
561596
515119
471141
430456
392828
358727
327413
299866
4140.04
9137.25
12749.8
16292.3
19667.8
22614.4
25169.4
27415.8
29469
31461.8
33491.8
35613.7
37800.3
39969.9
41989.1
43745.2
45146.1
46163.9
46777.2
47026.3
46926.6
46548.2
45913.4
45105.9
44127.5
43074.4
41921.4
40779.1
39587
38482.9
37352
36385.8
35391.2
34648.6
33847.7
33418.1
32872.7
32929.9
32915.3
34258.3
36892
45093.1
66710.8
124715
264342
524317
903735
1.36531e+06
1.84937e+06
2.38573e+06
2.91375e+06
3.81753e+06
5.35326e+06
6.3849e+06
7.27288e+06
8.57302e+06
9.28292e+06
9.7682e+06
9.58402e+06
9.15668e+06
8.51325e+06
7.87755e+06
7.28702e+06
6.7838e+06
6.32511e+06
5.8374e+06
5.24381e+06
4.57077e+06
3.87226e+06
3.23718e+06
2.69094e+06
2.24675e+06
1.88708e+06
1.59983e+06
1.36789e+06
1.1811e+06
1.02968e+06
908544
814948
750935
720672
723975
748679
776012
791522
789322
770126
737638
696420
650249
602335
554635
508797
465416
425240
388101
354399
323495
296243
3891.43
8535.44
11960.9
15356.5
18587.8
21415.3
23885.7
26089.5
28144.2
30177.5
32278.2
34489.1
36770.1
39027.4
41119.4
42929.8
44367.5
45407.5
46032.6
46286.1
46186.3
45804.5
45165.1
44350.7
43365.5
42302.6
41140.4
39983.9
38778.9
37653.4
36504.3
35505.8
34485.8
33694.7
32857.7
32357.1
31767.2
31730.9
31696.5
32980.9
35777.7
44189.5
66551.1
125783
267321
528017
905724
1.36139e+06
1.83924e+06
2.36549e+06
2.88601e+06
3.7712e+06
5.30665e+06
6.32674e+06
7.15493e+06
8.28097e+06
8.88124e+06
9.30644e+06
9.16407e+06
8.80745e+06
8.24017e+06
7.66596e+06
7.119e+06
6.64212e+06
6.18981e+06
5.69604e+06
5.09315e+06
4.4203e+06
3.73481e+06
3.12098e+06
2.59814e+06
2.17449e+06
1.83127e+06
1.55618e+06
1.33309e+06
1.15259e+06
1.00573e+06
887933
796944
735111
706791
711649
737297
765078
780866
779034
760368
728551
688064
642643
595440
548415
503178
460354
420659
383974
350650
320124
293151
3659.49
7978.17
11233.8
14496.6
17596.8
20314.6
22704.1
24863.6
26913.6
28978.3
31139.6
33429.5
35795.8
38132.8
40291.2
42151.3
43623.3
44684.7
45322.2
45581.8
45484.5
45102.6
44462.1
43644.9
42656.7
41588.5
40421.1
39255.4
38041.7
36900.7
35737.8
34714.3
33673.4
32843.2
31975.3
31416.8
30789.1
30680.2
30638.9
31903.1
34879.7
43550.1
66649
127160
270560
532201
908401
1.35903e+06
1.83114e+06
2.34859e+06
2.86209e+06
3.72993e+06
5.26224e+06
6.27604e+06
7.05686e+06
8.04105e+06
8.54856e+06
8.91516e+06
8.79867e+06
8.49572e+06
7.99151e+06
7.47008e+06
6.9609e+06
6.5063e+06
6.0581e+06
5.55782e+06
4.94705e+06
4.2763e+06
3.60524e+06
3.01292e+06
2.51285e+06
2.1087e+06
1.78084e+06
1.51694e+06
1.30195e+06
1.12715e+06
984399
869607
780951
721060
694451
700633
727037
755132
771116
769590
751401
720204
680402
635688
589162
542775
498112
455818
416583
380326
347366
317192
290490
3443.03
7461.4
10561
13702
16682.2
19298.2
21610.6
23725
25765.3
27854
30066.9
32426.3
34868.6
37277.1
39495.1
41400.1
42903.1
43984.5
44634.4
44901.3
44808.6
44429.2
43790.5
42973.8
41986
40916.3
39747
38576.3
37357.5
36205.7
35032.6
33989.8
32931.8
32069.7
31175.1
30568.7
29908.8
29744.6
29708.2
30984.1
34154.1
43116.9
66937.1
128740
273902
536589
911374
1.35765e+06
1.82437e+06
2.33404e+06
2.84088e+06
3.69223e+06
5.21863e+06
6.23056e+06
6.97407e+06
7.84197e+06
8.27072e+06
8.58181e+06
8.47959e+06
8.21676e+06
7.76445e+06
7.28806e+06
6.81136e+06
6.3754e+06
5.92944e+06
5.42254e+06
4.80545e+06
4.13867e+06
3.48325e+06
2.91253e+06
2.43448e+06
2.04876e+06
1.73518e+06
1.4816e+06
1.27399e+06
1.10437e+06
965323
853229
766659
708492
683369
690656
717633
745926
762034
760768
743020
712408
673262
629225
583351
537580
493474
451688
412901
377053
344449
314608
288171
3241.07
6981.77
9936.8
12964.7
15833.8
18354.9
20593.6
22662.7
24689.6
26795.8
29052.2
31472.1
33981.4
36453.1
38723.8
40668.4
42198.9
43298.5
43960.3
44235.3
44148.5
43774
43139.4
42326.2
41341.4
40273.4
39105.3
37933.1
36712.1
35553.5
34373.2
33315.5
32243.4
31355.2
30437
29790.8
29103.7
28898.7
28878.6
30192.8
33567.3
42845.2
67362.5
130437
277218
540952
914330
1.35676e+06
1.81835e+06
2.32105e+06
2.82148e+06
3.65688e+06
5.17469e+06
6.18851e+06
6.90296e+06
7.67508e+06
8.03669e+06
8.29611e+06
8.19978e+06
7.96635e+06
7.55644e+06
7.11822e+06
6.66921e+06
6.24863e+06
5.8034e+06
5.29006e+06
4.66834e+06
4.00731e+06
3.36852e+06
2.8193e+06
2.36244e+06
1.99408e+06
1.69376e+06
1.44965e+06
1.24878e+06
1.08386e+06
948172
838506
753800
697155
673307
681484
708866
737250
753425
752383
735053
705004
666496
623118
577882
532712
489153
447864
409517
374067
341814
312291
286118
3052.69
6536.42
9356.41
12278.1
15043.3
17475.5
19643.9
21667.8
23678.2
25796.3
28088.7
30560.7
33128.4
35655.2
37971.4
39950.1
41504.3
42620
43293
43576.3
43496.6
43128.6
42500.3
41692.9
40713.7
39650.1
38485.7
37314.9
36094.3
34932.1
33747
32678.3
31594.3
30684.5
29745.3
29065.9
28356
28122.9
28130.1
29505.5
33092.8
42699.6
67882.5
132181
280406
545110
917019
1.35596e+06
1.8126e+06
2.30897e+06
2.80319e+06
3.62291e+06
5.12954e+06
6.14845e+06
6.84071e+06
7.53366e+06
7.8378e+06
8.04967e+06
7.95318e+06
7.7407e+06
7.36514e+06
6.95907e+06
6.53344e+06
6.12534e+06
5.67964e+06
5.16031e+06
4.53568e+06
3.88209e+06
3.26072e+06
2.73274e+06
2.29617e+06
1.9441e+06
1.65606e+06
1.42066e+06
1.22595e+06
1.0653e+06
932656
825181
742144
686834
664057
672923
700549
728927
745120
744279
727352
697856
659977
617249
572646
528069
485054
444255
406348
371287
339386
310173
284266
2877.06
6122.86
8815.92
11636.7
14304.1
16652.4
18753.4
20732.4
22724.1
24849.3
27171
29687.1
32304.8
34878.6
37233.2
39240.5
40814.5
41943.9
42626.9
42918.7
42846.7
42486.7
41866.3
41066.9
40095.2
39038.5
37880
36713.2
35495
34332
33144.1
32067.3
30973.2
30045.4
29087.3
28380.2
27651.8
27402.1
27447.6
28903.9
32709.7
42652.2
68462.1
133913
283378
548913
919235
1.35494e+06
1.80676e+06
2.29727e+06
2.78538e+06
3.58952e+06
5.08245e+06
6.10921e+06
6.78507e+06
7.41241e+06
7.66714e+06
7.83558e+06
7.73464e+06
7.53648e+06
7.18846e+06
6.80925e+06
6.40313e+06
6.00496e+06
5.55791e+06
5.03324e+06
4.40746e+06
3.76282e+06
3.15947e+06
2.65235e+06
2.23512e+06
1.89831e+06
1.62164e+06
1.39424e+06
1.20516e+06
1.04841e+06
918524
813031
731488
677341
655444
664804
692525
720808
736979
736323
719793
690846
653595
611517
567548
523564
481094
440784
403319
368647
337100
308192
282556
2713.42
5738.84
8311.98
11036.3
13610.7
15879.3
17915.7
19850.2
21821.1
23949.1
26294
28846.8
31506.4
34119.3
36505.6
38535.8
40125.5
41266.1
41957.9
42257.9
42194.3
41843.3
41232.3
40442.6
39480.3
38432.4
37281.6
36121
34907
33745.4
32556.4
31473.9
30371.2
29428.2
28452.9
27722.7
26980.2
26724.6
26819.2
28373.3
32401.1
42679.8
69072.5
135588
286066
552241
920812
1.35345e+06
1.80051e+06
2.28552e+06
2.76757e+06
3.55607e+06
5.03289e+06
6.06983e+06
6.7342e+06
7.30713e+06
7.51921e+06
7.64813e+06
7.53975e+06
7.35071e+06
7.02451e+06
6.66754e+06
6.27749e+06
5.88705e+06
5.43803e+06
4.90883e+06
4.28362e+06
3.64932e+06
3.06439e+06
2.57762e+06
2.17877e+06
1.85622e+06
1.59006e+06
1.37003e+06
1.1861e+06
1.03292e+06
905551
801858
721654
668513
647317
656988
684662
712768
728882
728400
712269
683874
647257
605832
562504
519117
477201
437383
400366
366083
334898
306294
280934
2561
5382.3
7841.72
10473
12958.5
15151
17125.1
19015.7
20964.1
23091.2
25453.5
28036
30729.8
33374.3
35785.3
37833
39434.5
40583.6
41282.8
41590.6
41535.6
41194.5
40594
39815.5
38864.1
37826.8
36685.3
35532.7
34324.5
33166
31977.3
30891
29780.8
28824.9
27833.8
27084.8
26332.6
26081.4
26235.7
27902
32152.9
42763.5
69689.5
137164
288413
554995
921616
1.35127e+06
1.79358e+06
2.27335e+06
2.74936e+06
3.52204e+06
4.98042e+06
6.02953e+06
6.68665e+06
7.21443e+06
7.38953e+06
7.48263e+06
7.36475e+06
7.18081e+06
6.87161e+06
6.53286e+06
6.15583e+06
5.7712e+06
5.31983e+06
4.78706e+06
4.16409e+06
3.54136e+06
2.97508e+06
2.50808e+06
2.12662e+06
1.81739e+06
1.56095e+06
1.3477e+06
1.16851e+06
1.0186e+06
893540
791491
712489
660211
639546
649355
676848
704702
720729
720414
704687
676852
640881
600119
557442
514663
473309
433991
397432
363543
332728
304429
279356
2419.12
5051.35
7402.58
9943.75
12343.8
14463.1
16377
18224.1
20148.7
22271.4
24645.9
27251.5
29972.1
32640.9
35070.2
37130
38739.2
39894.2
40599.2
40914.2
40867.9
40537.4
39948.3
39182.2
38243
37217.7
36087
34943.8
33742.6
32588.9
31401.5
30312.8
29195.9
28228.9
27223.4
26459.4
25702.3
25465.5
25689.7
27480.5
31953.7
42887.3
70292.7
138610
290371
557096
921538
1.34823e+06
1.78577e+06
2.26047e+06
2.73039e+06
3.48699e+06
4.92473e+06
5.98769e+06
6.64119e+06
7.13157e+06
7.27448e+06
7.33514e+06
7.20643e+06
7.02449e+06
6.72826e+06
6.40422e+06
6.03753e+06
5.65709e+06
5.2032e+06
4.66791e+06
4.04878e+06
3.43866e+06
2.89112e+06
2.44323e+06
2.0782e+06
1.78139e+06
1.53396e+06
1.32696e+06
1.15214e+06
1.00524e+06
882317
781776
703857
652312
632019
641802
668989
696522
712435
712285
696969
669708
634395
594311
552300
510139
469362
430555
394465
360978
330544
302555
277779
2287.1
4744.22
6992.32
9445.86
11763.3
13812
15667.5
17471.5
19371
21486.2
23868
26490.4
29231
31917
34358.2
36424.9
38037.9
39196.1
39905.4
40226.8
40189.2
39869.7
39292.8
38540
37614.1
36602.1
35483.1
34350.7
33157.6
32009.7
30824.4
29734.5
28611.5
27634.9
26616.1
25840.9
25084.2
24871.6
25175.8
27101.1
31793.6
43037.7
70864.9
139897
291904
558482
920495
1.34418e+06
1.7769e+06
2.24662e+06
2.7104e+06
3.45059e+06
4.86557e+06
5.9438e+06
6.59685e+06
7.0563e+06
7.17109e+06
7.20242e+06
7.06207e+06
6.87972e+06
6.5931e+06
6.28076e+06
5.92206e+06
5.54445e+06
5.08806e+06
4.55134e+06
3.93756e+06
3.34096e+06
2.81211e+06
2.38261e+06
2.03308e+06
1.74785e+06
1.50876e+06
1.30756e+06
1.13678e+06
992681
871727
772580
695639
644710
624643
634247
661010
688155
703930
703944
689050
662376
627740
588350
547022
505496
465311
427028
391421
358347
328306
300633
276167
2164.28
4459.26
6608.89
8977
11214.2
13194.5
14993.1
16754.4
18627.7
20732.4
23117
25750.3
28504.2
31200.8
33647.9
35716.5
37329.5
38488.3
39200.1
39527.1
39498
39189.7
38625.5
37886.9
36975.2
35977.4
34871.2
33750.5
32566.2
31425.2
30242.4
29152.1
28023.4
27038.4
26007.7
25225
24474.4
24295.8
24689.2
26757.2
31664.1
43202.9
71391.5
141003
292983
559104
918419
1.33903e+06
1.76684e+06
2.23162e+06
2.68915e+06
3.41257e+06
4.80281e+06
5.89744e+06
6.5528e+06
6.98679e+06
7.0769e+06
7.08173e+06
6.92931e+06
6.74477e+06
6.46494e+06
6.16169e+06
5.80895e+06
5.43305e+06
4.97433e+06
4.43732e+06
3.8303e+06
3.24796e+06
2.73762e+06
2.32578e+06
1.99084e+06
1.71642e+06
1.48507e+06
1.28925e+06
1.12223e+06
980744
861634
763784
687734
637314
617337
626618
652846
679541
695155
695333
680874
654803
620863
582185
541561
500687
461112
423368
388260
355610
325977
298628
274486
2050.06
4194.91
6250.45
8535.1
10694.3
12607.9
14350.9
16069.9
17915.8
20007.5
22390.5
25029.3
27790.1
30491
32938.1
35003.8
36613.1
37769.8
38482.6
38814.4
38793.3
38496.3
37945.3
37221.4
36324.6
35341.8
34249.2
33140.8
31966.1
30832.5
29652.6
28562.5
27428.3
26435.8
25394.8
24608.5
23870.1
23735.2
24226.7
26443.3
31558
43373.2
71860.4
141909
293587
558926
915262
1.33268e+06
1.75547e+06
2.2153e+06
2.66647e+06
3.3727e+06
4.73634e+06
5.84831e+06
6.50838e+06
6.92151e+06
6.98989e+06
6.97078e+06
6.80616e+06
6.61809e+06
6.34273e+06
6.04633e+06
5.69781e+06
5.32272e+06
4.86195e+06
4.32581e+06
3.72682e+06
3.15935e+06
2.66726e+06
2.27232e+06
1.95111e+06
1.68678e+06
1.46264e+06
1.27184e+06
1.10832e+06
969294
851918
755285
680050
630046
610034
618858
644446
670633
686065
686408
672395
646946
613721
575777
535876