/*--------------------------------*- C++ -*----------------------------------*\
| =========                 |                                                 |
| \\      /  F ield         | OpenFOAM: The Open Source CFD Toolbox           |
|  \\    /   O peration     | Version:  2412                                  |
|   \\  /    A nd           | Website:  www.openfoam.com                      |
|    \\/     M anipulation  |                                                 |
\*---------------------------------------------------------------------------*/
FoamFile
{
    version     2.0;
    format      ascii;
    arch        "LSB;label=32;scalar=64";
    class       volScalarField;
    location    "0.5";
    object      nut;
}
// * * * * * * * * * * * * * * * * * * * * * * * * * * * * * * * * * * * * * //

dimensions      [0 2 -1 0 0 0 0];

internalField   nonuniform List<scalar> 
78408
(
0.00128469
0.00129762
0.00115706
0.00105571
0.000997962
0.000961866
0.000936262
0.000915939
0.000898552
0.00088257
0.000867174
0.000851712
0.000836137
0.000820373
0.000804797
0.000789321
0.000774418
0.000759792
0.000745892
0.000732203
0.000719393
0.000706641
0.00069505
0.000683366
0.000673134
0.000662525
0.000653847
0.000644281
0.000637361
0.000628739
0.00062346
0.000615678
0.000612137
0.000605039
0.000603425
0.000596539
0.000597118
0.000589833
0.000592943
0.000584453
0.000590798
0.000579775
0.000590127
0.000574672
0.000591222
0.000574494
0.000601018
0.000582387
0.000609966
0.000583409
0.000619105
0.000585867
0.000699478
0.000742037
0.000635554
0.000587885
0.000571651
0.000567865
0.000570187
0.000573891
0.000577921
0.00058072
0.000584579
0.00058831
0.000595568
0.000603874
0.000615935
0.000626296
0.000635983
0.000640945
0.000643533
0.000643178
0.000642132
0.000640547
0.000639535
0.00063905
0.000639436
0.000640665
0.000642964
0.000646935
0.000653821
0.000665405
0.000681999
0.000701833
0.000720898
0.000737249
0.000749283
0.000758405
0.000764084
0.00076889
0.000771234
0.000774377
0.000775033
0.000777989
0.000777295
0.000781045
0.000778447
0.00078407
0.000779299
0.00386847
0.003871
0.00266041
0.0020317
0.00171929
0.00155794
0.00149248
0.00149172
0.00152732
0.00157268
0.00161552
0.00164853
0.0016714
0.00168278
0.00168467
0.00167705
0.00166252
0.00164063
0.00161534
0.00158507
0.00155417
0.00152013
0.00148752
0.0014523
0.001421
0.0013871
0.00135877
0.00132755
0.00130304
0.00127424
0.00125415
0.00122974
0.00121349
0.0011939
0.00118057
0.00116594
0.00115413
0.0011452
0.00113352
0.0011317
0.00111763
0.00112673
0.00111139
0.00114414
0.0011651
0.0012584
0.0013381
0.0013926
0.00138407
0.00135864
0.00128366
0.00127874
0.000991497
0.00134401
0.00205534
0.00217147
0.00235286
0.00225298
0.00241016
0.0023213
0.00248155
0.00243033
0.0025954
0.0026004
0.00279728
0.00287339
0.00305704
0.00309091
0.00312154
0.00303148
0.00293924
0.00280426
0.00269853
0.00258985
0.00251388
0.00244521
0.00240202
0.00236934
0.00236142
0.0023808
0.00245225
0.00258897
0.00278477
0.00299337
0.00316522
0.00327877
0.00333237
0.00334441
0.00332167
0.00328593
0.00323012
0.00317905
0.00311013
0.0030604
0.00298004
0.00294581
0.00285343
0.0028482
0.00272732
0.00159722
0.0024755
0.00214796
0.00197879
0.00203398
0.00227302
0.00257291
0.00279502
0.00289839
0.00289595
0.00284131
0.00276347
0.00269068
0.00262438
0.00257172
0.00252211
0.00247968
0.00242961
0.00238186
0.00232145
0.00226454
0.00219437
0.00213387
0.00205864
0.00200103
0.00192677
0.00187752
0.00180737
0.00177052
0.00170374
0.00167769
0.00161458
0.00159592
0.00153715
0.00152721
0.00147141
0.00146997
0.00141484
0.00142195
0.00136649
0.00138231
0.00132753
0.00136309
0.00133151
0.00149519
0.00158091
0.00197273
0.00195637
0.00225421
0.00198734
0.00212319
0.00194722
0.00190652
0.00133322
0.00256808
0.00315306
0.00380855
0.00384228
0.00427634
0.00419502
0.00457407
0.00452573
0.0049044
0.00497339
0.00541981
0.00562637
0.00600228
0.00607107
0.00608648
0.0058748
0.00564892
0.00535176
0.00510999
0.00487161
0.00469619
0.00454064
0.00443475
0.00435465
0.00432726
0.00436592
0.00452719
0.00484885
0.00531675
0.00582617
0.00625634
0.00655256
0.00670363
0.0067509
0.00670748
0.00662704
0.00649287
0.00636544
0.00619182
0.00606013
0.00585037
0.00574651
0.00549084
0.00545016
0.0051292
0.00192269
0.00189321
0.0024027
0.00302277
0.0038183
0.00471014
0.00549234
0.00597471
0.00612775
0.00600452
0.00573462
0.00540264
0.00508396
0.00479499
0.00455509
0.00434496
0.00416992
0.00399936
0.00384621
0.00368125
0.00352858
0.00335916
0.00320887
0.00303951
0.00289978
0.00273965
0.0026188
0.0024738
0.00237786
0.00224873
0.00217733
0.00206251
0.00200868
0.00190728
0.00187083
0.00178017
0.00175948
0.00167538
0.00166914
0.00158869
0.00159776
0.00152104
0.00157026
0.00153771
0.00186102
0.00204665
0.00287151
0.00288904
0.00360607
0.0031345
0.00352851
0.003179
0.00380251
0.00179228
0.00296422
0.00396132
0.00502963
0.00531689
0.00602699
0.00608447
0.00665973
0.00670316
0.00725923
0.00745171
0.00810804
0.00846422
0.00897612
0.0090624
0.00903054
0.00869665
0.00834078
0.00790029
0.0075383
0.00718995
0.00692941
0.00670078
0.00654156
0.00642313
0.00638568
0.00645984
0.00674026
0.00729415
0.00809095
0.0089516
0.00967402
0.0101706
0.0104262
0.0105091
0.0104431
0.0103134
0.0100975
0.00988751
0.00960709
0.00938482
0.00906053
0.00886658
0.00848002
0.00836811
0.00790674
0.00622846
0.00434569
0.00568493
0.00680736
0.00793797
0.00903294
0.0099266
0.0104477
0.0105652
0.0103175
0.00985087
0.00927558
0.00870139
0.0081612
0.00768924
0.00726205
0.0068899
0.00652919
0.00619976
0.00585877
0.00554194
0.00520604
0.00490396
0.00457897
0.00430207
0.00399988
0.00375891
0.00348737
0.00329029
0.00305121
0.0028993
0.00269121
0.00257526
0.00239574
0.00231273
0.00215792
0.00210413
0.0019682
0.00194011
0.00181874
0.00181794
0.00171226
0.00179108
0.00177666
0.00240046
0.00277061
0.0042597
0.00434435
0.00557676
0.00489015
0.00555983
0.00504325
0.00650938
0.00298717
0.00347654
0.00467176
0.00609474
0.006655
0.00763924
0.00788988
0.00866075
0.00883399
0.00955337
0.00988733
0.010725
0.0112188
0.0118223
0.0119037
0.0118072
0.0113578
0.0108829
0.0103223
0.00986115
0.00942662
0.00909996
0.00881633
0.0086177
0.00847432
0.00844042
0.0085699
0.00900067
0.00983047
0.0109992
0.0122364
0.0132547
0.0139405
0.0142852
0.0143877
0.0142879
0.0140989
0.0137975
0.0134998
0.0131147
0.0127986
0.012367
0.0120812
0.0115827
0.0113914
0.0108165
0.0159523
0.0113336
0.0123676
0.0129288
0.0137008
0.0145299
0.0152195
0.0155788
0.0155598
0.0151702
0.0145402
0.0137778
0.0130036
0.0122575
0.0115812
0.0109482
0.0103727
0.00980397
0.0092698
0.00872014
0.00820259
0.00766419
0.00717367
0.00665818
0.0062098
0.005732
0.00533875
0.00490703
0.00457845
0.00419415
0.00393303
0.00359512
0.00339203
0.00309742
0.00294734
0.00269206
0.00259056
0.00236838
0.00231118
0.00211822
0.00211167
0.00195508
0.00211171
0.00214105
0.00331975
0.00397819
0.00632208
0.00644746
0.00815828
0.00723796
0.00811564
0.00747114
0.00969845
0.00496737
0.00430594
0.00537926
0.00708271
0.00789929
0.00914406
0.00960399
0.0105668
0.0108841
0.0117555
0.0122322
0.0132251
0.0138356
0.0144952
0.0145543
0.0143841
0.0138289
0.0132488
0.0125903
0.0120502
0.0115509
0.0111755
0.010853
0.0106279
0.0104722
0.0104555
0.0106603
0.0112722
0.0124175
0.0139903
0.0156127
0.0169139
0.0177645
0.0181739
0.0182748
0.0181268
0.0178671
0.0174756
0.0170854
0.0165977
0.0161863
0.0156531
0.0152765
0.0146796
0.0144072
0.0137369
0.0292567
0.0214908
0.0211454
0.0205091
0.0204974
0.0207648
0.0210373
0.0210826
0.0208294
0.0202542
0.0194617
0.0185422
0.0176102
0.0167017
0.0158566
0.0150437
0.0142784
0.0135075
0.0127656
0.0120017
0.0112732
0.0105235
0.00983273
0.00911837
0.00848706
0.00782599
0.00726909
0.00666895
0.0061965
0.00565629
0.00527148
0.00478885
0.00448324
0.00405353
0.00382112
0.00344028
0.00327838
0.00294069
0.00284807
0.00255312
0.00255116
0.0023233
0.00264745
0.00278834
0.0048415
0.00587912
0.00909455
0.009189
0.0112291
0.0100618
0.0110368
0.01031
0.0131141
0.00752772
0.00557909
0.00617418
0.00806141
0.00909778
0.0105807
0.0112446
0.0123886
0.0128501
0.0138603
0.0144722
0.015595
0.0162992
0.0169865
0.0170107
0.0167638
0.0161145
0.0154446
0.0147085
0.014108
0.0135622
0.0131528
0.0128047
0.0125637
0.0124063
0.0124189
0.0127178
0.0135398
0.0150348
0.017033
0.0190365
0.020597
0.0215823
0.0220296
0.0221074
0.0218971
0.0215563
0.0210702
0.0205839
0.0199954
0.0194886
0.0188589
0.0183933
0.0177086
0.0173555
0.0166034
0.0431514
0.0329398
0.0309273
0.0289101
0.0279319
0.0274783
0.0271979
0.0268196
0.0262503
0.0254396
0.0244654
0.0233943
0.0223237
0.021277
0.020285
0.0193102
0.0183669
0.0174022
0.0164565
0.0154822
0.014544
0.0135862
0.0126963
0.0117877
0.0109751
0.0101368
0.00941788
0.00865617
0.00804052
0.00735094
0.0068407
0.00621775
0.00580536
0.00524101
0.00491971
0.00440814
0.00417877
0.0037141
0.00358337
0.00317127
0.00319322
0.00289538
0.00352284
0.00390777
0.00709132
0.00853541
0.0124573
0.0124425
0.0146275
0.0132109
0.0141741
0.01339
0.016589
0.0104187
0.00731223
0.00713206
0.00908902
0.0102924
0.011984
0.0128337
0.0141412
0.0147381
0.0158713
0.0166057
0.0178335
0.0186088
0.019301
0.0192823
0.01896
0.0182297
0.0174858
0.0166911
0.016047
0.01547
0.0150386
0.0146749
0.0144262
0.0142754
0.014328
0.014738
0.015796
0.0176684
0.0201027
0.0224727
0.0242629
0.0253513
0.0258108
0.025846
0.0255612
0.0251309
0.024547
0.0239622
0.0232747
0.0226732
0.0219518
0.0213995
0.0206358
0.0202032
0.0193802
0.0565256
0.0446632
0.0410814
0.0377288
0.0357453
0.0344981
0.0335832
0.0327053
0.031756
0.030664
0.0294823
0.0282512
0.027045
0.0258685
0.0247385
0.0236092
0.0224932
0.0213397
0.0201942
0.0190148
0.0178718
0.016713
0.01563
0.0145361
0.0135489
0.0125439
0.0116702
0.0107589
0.0100068
0.00918102
0.00855061
0.00780097
0.007285
0.00659894
0.00618959
0.00555806
0.00526046
0.00467657
0.00451031
0.00398905
0.0040646
0.00373675
0.00483139
0.00563826
0.0100261
0.0118361
0.016216
0.0160366
0.0182027
0.0165459
0.0174091
0.0165818
0.0200194
0.0134572
0.00942793
0.00830508
0.0102131
0.0115174
0.0133821
0.0143907
0.015839
0.0165561
0.0177943
0.0186353
0.0199439
0.0207691
0.0214484
0.0213823
0.0209894
0.020192
0.0193903
0.0185544
0.0178816
0.0172861
0.016842
0.0164702
0.0162197
0.0160818
0.016183
0.0167191
0.0180356
0.0203057
0.0231768
0.0258907
0.0278782
0.029039
0.0294876
0.0294641
0.029095
0.0285691
0.0278853
0.027201
0.0264169
0.0257222
0.0249136
0.0242772
0.0234399
0.0229314
0.0220467
0.0689993
0.0561777
0.0512611
0.0467142
0.0437613
0.0417017
0.0401079
0.03868
0.0373035
0.0358921
0.0344768
0.0330711
0.0317229
0.0304146
0.0291458
0.0278619
0.0265731
0.0252322
0.0238894
0.0225097
0.0211674
0.0198154
0.0185468
0.0172771
0.0161239
0.0149632
0.0139435
0.0128949
0.0120151
0.011067
0.0103244
0.00946345
0.00885067
0.00805976
0.00756759
0.0068342
0.00647247
0.00578928
0.00559542
0.0049931
0.00516164
0.00488371
0.00660232
0.0079964
0.0134745
0.0155781
0.0201787
0.0198097
0.0218345
0.0199546
0.0206548
0.0197914
0.0233418
0.0165253
0.0118091
0.00971638
0.011468
0.0127988
0.0147954
0.0159308
0.0174933
0.0183116
0.019635
0.0205649
0.0219313
0.022787
0.0234395
0.0233247
0.0228684
0.0220184
0.0211752
0.0203141
0.0196256
0.0190218
0.018572
0.0181971
0.0179485
0.0178278
0.0179847
0.0186599
0.0202532
0.0229339
0.0262336
0.0292633
0.0314149
0.0326201
0.0330382
0.0329433
0.0324829
0.0318574
0.0310731
0.0302897
0.0294115
0.0286259
0.0277343
0.027017
0.0261109
0.0255301
0.0245913
0.0805311
0.0672754
0.0612791
0.0557088
0.0518579
0.048999
0.0467073
0.0446983
0.0428609
0.0411001
0.0394277
0.037831
0.0363296
0.0348811
0.0334667
0.0320229
0.0305577
0.0290284
0.0274897
0.0259135
0.0243774
0.0228395
0.0213929
0.0199568
0.0186462
0.0173401
0.0161834
0.0150087
0.01401
0.012952
0.0121058
0.0111475
0.0104458
0.00956618
0.00899834
0.00818231
0.00776356
0.00700551
0.00679648
0.00615306
0.00646144
0.00633882
0.0087992
0.010882
0.0172273
0.0195533
0.0241918
0.0236323
0.0254347
0.0233537
0.0238497
0.0229523
0.0265194
0.01955
0.014343
0.0113598
0.0128721
0.0141543
0.0162377
0.0174643
0.0191121
0.0200103
0.0213981
0.0223981
0.0238007
0.0246697
0.0252853
0.0251229
0.0246125
0.0237248
0.022856
0.0219841
0.0212911
0.0206868
0.020236
0.0198609
0.0196162
0.0195156
0.0197336
0.0205583
0.0224427
0.0255396
0.0292521
0.0325661
0.0348499
0.0360748
0.0364466
0.0362707
0.0357146
0.0349876
0.0341036
0.0332223
0.0322531
0.0313795
0.0304092
0.0296142
0.0286439
0.0279943
0.0270078
0.0912072
0.0778812
0.0710378
0.0646136
0.0599502
0.0563233
0.053331
0.050724
0.0484031
0.0462702
0.044321
0.0425169
0.0408486
0.0392484
0.0376782
0.0360663
0.0344191
0.032699
0.0309648
0.0291956
0.0274708
0.0257538
0.0241368
0.0225428
0.0210832
0.019641
0.0183558
0.0170648
0.0159555
0.0147982
0.0138564
0.0128126
0.0120299
0.0110755
0.0104397
0.00955849
0.00909144
0.00828292
0.0080746
0.0074347
0.00793405
0.00807802
0.011343
0.0141373
0.0211004
0.0235929
0.0281461
0.0274099
0.0289424
0.026684
0.0269521
0.0260197
0.029532
0.0224862
0.0169398
0.0132057
0.0144252
0.0155926
0.0177161
0.0189973
0.0207005
0.0216561
0.0230874
0.0241386
0.0255572
0.0264244
0.0269961
0.0267894
0.0262356
0.0253253
0.0244461
0.0235763
0.0228881
0.0222889
0.0218399
0.0214656
0.0212253
0.0211462
0.0214292
0.0224117
0.0245968
0.0281087
0.0322125
0.0357781
0.0381642
0.0393881
0.0397013
0.0394382
0.038784
0.0379554
0.0369733
0.0359965
0.0349397
0.0339812
0.0329365
0.0320673
0.0310371
0.0303221
0.0292934
0.101147
0.0879842
0.0804906
0.0733678
0.0679788
0.0636212
0.0599391
0.0567276
0.0539093
0.0513881
0.0491459
0.0471192
0.0452699
0.0435046
0.0417666
0.039977
0.0381414
0.0362276
0.0342981
0.0323388
0.0304303
0.0285409
0.0267607
0.0250168
0.023416
0.0218462
0.0204402
0.0190416
0.0178292
0.0165816
0.0155517
0.0144323
0.0135754
0.012558
0.011862
0.0109306
0.0104248
0.00958829
0.009399
0.00880769
0.00955002
0.0100618
0.0141386
0.0176019
0.0249566
0.0275766
0.0319699
0.031078
0.0323178
0.0299051
0.0299344
0.0289641
0.0323702
0.0253068
0.0195342
0.0152102
0.0161131
0.017114
0.019232
0.0205317
0.0222607
0.023251
0.0247052
0.0257891
0.0272055
0.0280581
0.0285812
0.0283353
0.0277501
0.0268322
0.025957
0.0251008
0.0244244
0.023834
0.0233875
0.0230137
0.0227771
0.0227198
0.0230704
0.0242166
0.0267076
0.0306274
0.0350967
0.0388812
0.041343
0.0425488
0.0427946
0.0424404
0.0416879
0.040759
0.0396814
0.038612
0.0374715
0.0364316
0.0353166
0.0343769
0.033291
0.0325138
0.0314478
0.110468
0.0976038
0.0896208
0.0819352
0.0759029
0.0708551
0.0665003
0.062685
0.059362
0.0564415
0.0538935
0.0516309
0.0495865
0.0476422
0.045724
0.0437469
0.0417162
0.0396058
0.0374813
0.035335
0.0332476
0.031192
0.0292553
0.0273691
0.0256344
0.0239447
0.0224252
0.0209265
0.0196182
0.0182878
0.0171765
0.0159896
0.0150651
0.0139944
0.0132455
0.0122767
0.0117419
0.0108978
0.0107476
0.0102484
0.0112835
0.0122443
0.0170932
0.0211412
0.0287044
0.031426
0.0356198
0.0345952
0.0355363
0.032991
0.0327795
0.0317673
0.0350315
0.0279964
0.0220815
0.0173243
0.0179123
0.0187116
0.0207821
0.0220664
0.0237925
0.024796
0.0262531
0.0273521
0.0287498
0.0295771
0.0300495
0.0297708
0.0291669
0.0282563
0.0273985
0.0265652
0.0259061
0.0253261
0.0248815
0.0245064
0.0242718
0.0242357
0.0246552
0.0259687
0.028767
0.0330821
0.0378887
0.0418606
0.044375
0.0455493
0.0457217
0.0452749
0.0444252
0.0433985
0.0422289
0.0410705
0.0398501
0.0387327
0.0375516
0.0365448
0.0354074
0.0345713
0.0334722
0.119275
0.106774
0.0984289
0.0902962
0.0836948
0.0779974
0.0729897
0.0685765
0.0647463
0.0614199
0.0585565
0.0560459
0.0537933
0.0516565
0.0495457
0.0473715
0.0451398
0.0428302
0.0405113
0.0381811
0.0359196
0.0337038
0.0316174
0.0295956
0.0277342
0.0259315
0.0243054
0.0227134
0.0213153
0.0199089
0.0187224
0.0174748
0.0164886
0.0153727
0.0145779
0.0135825
0.0130288
0.0121958
0.0121059
0.0117401
0.0131127
0.0145797
0.0201258
0.0246542
0.0322879
0.0350943
0.039072
0.037937
0.0385842
0.0359259
0.0354776
0.0344192
0.0375178
0.0305469
0.0245523
0.0195008
0.0197936
0.0203725
0.022359
0.0235977
0.0252944
0.0262906
0.0277321
0.0288296
0.030194
0.0309872
0.0314086
0.0311051
0.0304957
0.0296066
0.0287783
0.0279758
0.0273372
0.0267676
0.026323
0.0259441
0.0257091
0.0256927
0.0261815
0.0276638
0.0307665
0.0354603
0.0405744
0.0447047
0.047252
0.0483847
0.0484802
0.0479411
0.0469969
0.0458756
0.0446179
0.0433745
0.0420785
0.0408874
0.0396442
0.0385742
0.037389
0.0364973
0.0353689
0.127659
0.115533
0.106926
0.098442
0.0913361
0.0850274
0.0793881
0.0743857
0.0700499
0.066314
0.063128
0.0603594
0.0578862
0.0555442
0.0532293
0.0508493
0.048411
0.0459004
0.0433881
0.0408772
0.0384466
0.0360764
0.0338466
0.0316961
0.0297146
0.0278054
0.0260789
0.0243997
0.0229179
0.0214412
0.020185
0.0188828
0.0178405
0.0166862
0.0158521
0.0148397
0.0142774
0.0134727
0.0134653
0.0132713
0.0150193
0.0170245
0.0231708
0.0280709
0.0356768
0.0385567
0.0423162
0.0410906
0.0414555
0.0387012
0.0380241
0.0369152
0.0398336
0.0329556
0.026928
0.0216982
0.0217258
0.0220801
0.0239526
0.0251198
0.0267632
0.0277338
0.0291424
0.0302234
0.0315418
0.0322938
0.0326658
0.0323463
0.0317447
0.0308909
0.0301027
0.0293368
0.0287202
0.0281596
0.027712
0.0273261
0.0270879
0.0270895
0.0276467
0.0292972
0.032698
0.0377507
0.0431425
0.0474045
0.0499684
0.0510524
0.0510697
0.0504403
0.0494048
0.0481932
0.0468518
0.0455276
0.0441602
0.0428995
0.0415982
0.0404685
0.0392392
0.0382951
0.0371409
0.135694
0.123922
0.115127
0.106371
0.0988157
0.0919305
0.0856801
0.0800993
0.075262
0.0711158
0.0676022
0.0645669
0.061862
0.0593029
0.0567736
0.0541798
0.0515306
0.0488178
0.0461138
0.0434257
0.0408309
0.0383121
0.0359452
0.0336722
0.0315769
0.0295674
0.0277464
0.0259857
0.0244256
0.0228839
0.0215633
0.0202116
0.0191185
0.0179318
0.0170648
0.0160441
0.0154838
0.0147236
0.0148216
0.014835
0.0169879
0.0195397
0.0261772
0.0313467
0.0388578
0.0418029
0.0453503
0.0440513
0.044149
0.0413138
0.0404181
0.0392544
0.0419851
0.0352227
0.0291977
0.0238822
0.0236789
0.0238155
0.0255513
0.026626
0.0281951
0.0291237
0.0304841
0.0315348
0.0327964
0.0335019
0.0338275
0.0335015
0.0329212
0.0321153
0.0313762
0.030651
0.0300564
0.0295023
0.029048
0.0286515
0.028407
0.0284243
0.0290484
0.0308644
0.034554
0.0399433
0.0455834
0.0499536
0.0525212
0.0535518
0.0534915
0.0527747
0.0516522
0.0503547
0.0489343
0.0475339
0.0460995
0.0447732
0.0434176
0.042232
0.040962
0.0399686
0.0387911
0.143442
0.131979
0.123053
0.114086
0.106127
0.0986959
0.0918541
0.0857067
0.0803737
0.0758184
0.0719738
0.0686645
0.065718
0.0629313
0.060178
0.057364
0.0545005
0.0515851
0.0486913
0.0458301
0.0430762
0.0404145
0.0379166
0.0355272
0.0333241
0.03122
0.0293102
0.0274732
0.0258398
0.0242381
0.0228578
0.0214615
0.0203225
0.0191088
0.0182152
0.0171944
0.0166469
0.0159474
0.0161738
0.0164272
0.019005
0.0220912
0.0291076
0.034455
0.0418284
0.0448317
0.0481775
0.0468196
0.0466671
0.0437637
0.0426611
0.0414387
0.0439793
0.0373507
0.0313556
0.0260261
0.0256263
0.0255597
0.0271425
0.0281087
0.029586
0.0304584
0.031757
0.0327654
0.0339609
0.0346162
0.0348996
0.0345772
0.0340313
0.033285
0.0326023
0.0319201
0.031346
0.0307949
0.0303299
0.029919
0.0296651
0.0296955
0.0303841
0.0323613
0.0363276
0.0420297
0.0478902
0.0523479
0.0549091
0.0558839
0.0557478
0.0549476
0.0537429
0.0523645
0.0508699
0.0493978
0.0479008
0.046513
0.045107
0.043869
0.0425617
0.0415221
0.0403236
0.150954
0.139742
0.130723
0.121595
0.113268
0.105317
0.0979014
0.0911992
0.0853776
0.0804157
0.076238
0.0726487
0.0694518
0.0664281
0.063443
0.0604033
0.0573232
0.0542056
0.0511248
0.0480944
0.0451867
0.0423879
0.0397649
0.0372649
0.0349598
0.0327667
0.0307734
0.028865
0.0271633
0.0255059
0.0240705
0.022634
0.0214539
0.0202184
0.0193046
0.0182914
0.0177681
0.0171451
0.0175232
0.0180455
0.0210585
0.0246497
0.0319358
0.0373829
0.0445921
0.0476477
0.0508043
0.0493992
0.0490143
0.0460535
0.0447564
0.0434714
0.0458235
0.0393434
0.0333997
0.0281098
0.0275451
0.0272942
0.0287141
0.0295602
0.0309314
0.0317359
0.0329608
0.0339164
0.0350385
0.0356413
0.0358876
0.0355789
0.0350802
0.0344037
0.0337831
0.0331447
0.0325884
0.0320362
0.0315562
0.0311272
0.0308608
0.0309018
0.0316518
0.0337841
0.0380129
0.0440029
0.0500573
0.054585
0.0571323
0.0580508
0.057842
0.0569629
0.0556811
0.054227
0.0526632
0.0511242
0.0495688
0.0481237
0.0466709
0.045384
0.0440426
0.0429598
0.0417427
0.158269
0.147243
0.138157
0.128904
0.120238
0.111788
0.103815
0.09657
0.0902676
0.0849026
0.0803909
0.0765164
0.0730616
0.0697927
0.0665691
0.0632995
0.0600016
0.056683
0.0534184
0.0502234
0.0471671
0.0442368
0.0414945
0.0388898
0.0364883
0.0342113
0.0321396
0.0301646
0.0283991
0.0266903
0.0252042
0.0237315
0.0225152
0.0212628
0.0203352
0.0193376
0.0188503
0.0183199
0.0188727
0.019689
0.0231374
0.0271905
0.0346443
0.0401259
0.0471563
0.0502581
0.0532385
0.0517961
0.0511962
0.0481874
0.0467079
0.0453573
0.0475251
0.0412056
0.0353302
0.0301188
0.0294171
0.0290026
0.0302544
0.0309733
0.0322272
0.0329542
0.0340954
0.0349892
0.036032
0.0365812
0.0367962
0.0365117
0.0360718
0.0354742
0.0349197
0.0343243
0.0337824
0.0332248
0.0327256
0.032275
0.0319931
0.032042
0.0328497
0.0351297
0.0396047
0.0458574
0.0520814
0.0566641
0.0591923
0.0600553
0.0597777
0.058825
0.0574716
0.0559471
0.0543191
0.0527179
0.0511085
0.0496099
0.0481141
0.0467817
0.0454093
0.0442863
0.0430527
0.165421
0.154512
0.145375
0.136023
0.12704
0.118109
0.109592
0.101814
0.0950388
0.0892748
0.0844287
0.080265
0.0765457
0.0730249
0.0695573
0.066055
0.0625389
0.0590213
0.0555765
0.0522217
0.0490222
0.0459661
0.0431103
0.0404063
0.0379139
0.0355581
0.0334129
0.0313757
0.0295507
0.0277946
0.0262621
0.0247573
0.0235094
0.0222449
0.0213102
0.0203363
0.0198977
0.019476
0.0202262
0.021357
0.0252316
0.0296934
0.0372223
0.0426855
0.04953
0.0526719
0.0554888
0.0540173
0.0532193
0.0501704
0.0485207
0.0471013
0.0490916
0.0429423
0.0371489
0.0320434
0.031228
0.0306705
0.0317531
0.0323411
0.0334695
0.0341114
0.0351607
0.0359852
0.0369442
0.0374399
0.03763
0.0373797
0.0370098
0.0364984
0.0360123
0.0354582
0.0349265
0.034359
0.0338366
0.0333612
0.0330611
0.0331151
0.0339764
0.0363952
0.0410989
0.0475891
0.0539602
0.0585856
0.0610916
0.0619013
0.0615595
0.0605386
0.0591191
0.0575297
0.0558425
0.0541838
0.0525246
0.0509765
0.0494412
0.0480667
0.0466663
0.0455059
0.0442581
0.172435
0.161577
0.152396
0.142962
0.133676
0.124277
0.115228
0.106927
0.0996871
0.0935286
0.0883485
0.0838922
0.079903
0.0761245
0.0724089
0.0686722
0.0649385
0.0612245
0.0576036
0.054094
0.0507569
0.0475805
0.044617
0.0418191
0.039241
0.0368112
0.0345972
0.0325021
0.030622
0.0288224
0.0272476
0.0257147
0.0244399
0.0231683
0.0222336
0.0212918
0.020915
0.0206187
0.021588
0.0230493
0.0273315
0.0321421
0.0396643
0.0450664
0.0517228
0.0548986
0.057564
0.0560702
0.0550901
0.052008
0.0501998
0.0487092
0.05053
0.044559
0.0388587
0.0338774
0.0329674
0.0322861
0.0332013
0.0336576
0.0346549
0.0352061
0.0361569
0.0369059
0.0377778
0.0382211
0.0383928
0.0381867
0.0378966
0.0374775
0.0370607
0.0365449
0.0360191
0.0354374
0.0348881
0.034385
0.0340643
0.0341208
0.0350309
0.0375787
0.0424922
0.049195
0.0556929
0.060351
0.0628332
0.0635928
0.0631918
0.0621086
0.0606288
0.0589797
0.0572385
0.0555268
0.053822
0.0522283
0.0506569
0.0492435
0.047818
0.0466231
0.0453631
0.179331
0.168462
0.159237
0.149732
0.140152
0.130293
0.120721
0.111907
0.10421
0.0976613
0.0921478
0.0873962
0.0831325
0.079092
0.0751254
0.0711536
0.0672038
0.0632967
0.0595043
0.055845
0.0523759
0.0490849
0.0460191
0.0431326
0.0404739
0.0379749
0.0356966
0.0335477
0.0316167
0.0297774
0.0281644
0.0266073
0.0253104
0.024037
0.0231097
0.0222089
0.021908
0.021754
0.0229627
0.0247652
0.0294282
0.0345237
0.0419682
0.0472754
0.0537443
0.0569477
0.0594727
0.0579624
0.0568155
0.0537061
0.0517504
0.0501865
0.0518472
0.0460612
0.040463
0.0356173
0.0346278
0.03384
0.0345916
0.0349177
0.0357805
0.036237
0.0370841
0.0377528
0.0385356
0.0389281
0.0390884
0.0389358
0.0387342
0.0384119
0.0380639
0.037583
0.0370584
0.0364585
0.0358792
0.0353459
0.0350026
0.0350587
0.0360126
0.0386786
0.0437823
0.0506735
0.0572796
0.0619625
0.0644208
0.0651341
0.0646796
0.0635398
0.0620054
0.0603023
0.0585118
0.0567517
0.0550055
0.0533699
0.0517658
0.0503167
0.0488688
0.0476421
0.0463719
0.186122
0.175188
0.165914
0.156341
0.146471
0.13616
0.126072
0.116753
0.108604
0.10167
0.0958246
0.0907756
0.0862338
0.0819279
0.0777085
0.0735018
0.0693384
0.065242
0.0612829
0.0574793
0.0538838
0.0504839
0.0473212
0.0443513
0.041617
0.0390533
0.0367151
0.0345165
0.0325386
0.0306633
0.0290163
0.0274388
0.0261249
0.0248551
0.023943
0.0230929
0.0228828
0.0228882
0.024355
0.0265037
0.0315134
0.0368282
0.044135
0.0493204
0.0556036
0.0588283
0.0612232
0.0597014
0.0584019
0.0552704
0.053178
0.0515387
0.05305
0.0474542
0.0419657
0.0372618
0.0362044
0.0353249
0.0359182
0.0361172
0.0368442
0.0372033
0.037943
0.0385277
0.0392202
0.0395643
0.0397199
0.0396296
0.0395241
0.0393015
0.0390209
0.0385708
0.038043
0.0374212
0.0368091
0.0362438
0.035876
0.0359292
0.0369214
0.0396939
0.0449675
0.0520235
0.0587214
0.0634228
0.0658583
0.0665299
0.0660276
0.0648373
0.0632541
0.0615021
0.0596673
0.0578632
0.0560795
0.0544059
0.0527722
0.0512906
0.0498229
0.048567
0.0472886
0.192819
0.181772
0.172443
0.162799
0.15264
0.141878
0.13128
0.121462
0.11287
0.105555
0.0993773
0.0940294
0.0892067
0.0846329
0.0801601
0.0757198
0.0713457
0.0670643
0.0629437
0.0590014
0.0552852
0.0517818
0.0485278
0.0454794
0.0426743
0.0400504
0.0376566
0.0354122
0.0333913
0.0314838
0.0298068
0.0282132
0.0268875
0.0256269
0.0247387
0.0239495
0.0238457
0.0240278
0.0257691
0.0282632
0.0335793
0.0390486
0.046167
0.0512095
0.0573094
0.060549
0.0628234
0.0612946
0.0598558
0.0567067
0.0544875
0.0527716
0.0541445
0.0487436
0.0433709
0.0388112
0.0376947
0.0367357
0.0371766
0.0372529
0.0378441
0.0381047
0.0387343
0.0392322
0.0398341
0.0401327
0.0402905
0.0402704
0.040267
0.0401458
0.0399301
0.0395067
0.0389716
0.0383246
0.0376776
0.0370788
0.036685
0.0367326
0.0377574
0.0406241
0.046047
0.0532451
0.0600199
0.0647352
0.0671498
0.0677848
0.0672407
0.0660059
0.0643795
0.0625839
0.0607095
0.0588659
0.0570486
0.0553404
0.0536804
0.0521692
0.0506844
0.0494019
0.0481172
0.199429
0.18823
0.178836
0.169116
0.158665
0.147452
0.136347
0.126035
0.117005
0.109312
0.102805
0.0971569
0.0920512
0.0872083
0.0824821
0.0778103
0.0732292
0.0687676
0.0644908
0.0604156
0.0565843
0.052983
0.0496428
0.046521
0.0436498
0.04097
0.0385248
0.0362385
0.0341785
0.0322426
0.0305396
0.0289341
0.0276021
0.026357
0.0255018
0.0247846
0.0248037
0.0251795
0.0272089
0.0300416
0.035619
0.0411796
0.0480682
0.0529509
0.0588697
0.0621178
0.0642803
0.0627487
0.0611831
0.0580205
0.055684
0.0538902
0.0551368
0.0499344
0.0446827
0.0402666
0.0390973
0.0380691
0.0383639
0.0383224
0.0387793
0.038941
0.0394589
0.0398682
0.0403801
0.0406363
0.0408027
0.0408599
0.0409635
0.0409442
0.0407903
0.0403892
0.039843
0.0391683
0.0384848
0.0378513
0.0374302
0.0374699
0.0385211
0.0414693
0.0470206
0.0543389
0.0611772
0.0659032
0.0682998
0.0689035
0.0683236
0.0670504
0.0653863
0.0635524
0.061643
0.0597641
0.0579169
0.0561777
0.0544945
0.0529566
0.0514571
0.0501506
0.0488613
0.205955
0.194576
0.185105
0.175301
0.16455
0.152886
0.141274
0.130474
0.12101
0.112943
0.106107
0.100158
0.0947678
0.0896552
0.0846768
0.0797763
0.0749923
0.0703557
0.0659285
0.0617259
0.0577853
0.0540916
0.0506705
0.04748
0.0445473
0.0418158
0.0393233
0.0369989
0.0349038
0.032943
0.0312185
0.0296054
0.028273
0.0270501
0.026238
0.0256046
0.0257637
0.0263501
0.0286778
0.0318363
0.0376261
0.0432181
0.049843
0.0545522
0.0602919
0.0635423
0.0656009
0.0640703
0.0623896
0.0592173
0.0567723
0.0548999
0.0560328
0.0510318
0.0459052
0.0416301
0.0404124
0.0393229
0.0394781
0.0393242
0.0396492
0.0397124
0.040118
0.0404377
0.0408606
0.0410779
0.041259
0.0413996
0.0416138
0.0416957
0.0416
0.0412171
0.0406565
0.0399521
0.0392308
0.038562
0.0381127
0.0381418
0.0392135
0.0422297
0.0478886
0.0553062
0.0621961
0.0669304
0.0693124
0.0698904
0.069281
0.0679752
0.0662791
0.0644118
0.062472
0.060562
0.0586886
0.0569219
0.0552183
0.0536566
0.0521447
0.0508166
0.0495245
0.212399
0.20082
0.191262
0.181361
0.170303
0.158182
0.146063
0.134778
0.124885
0.116448
0.109283
0.103032
0.0973573
0.0919752
0.0867465
0.0816207
0.0766386
0.0718323
0.0672605
0.0629364
0.0588923
0.0551114
0.0516145
0.0483602
0.0453704
0.0425913
0.0400557
0.0376968
0.0355705
0.0335888
0.031847
0.0302311
0.0289045
0.027711
0.0269528
0.0264162
0.026733
0.0275458
0.0301784
0.0336442
0.0395949
0.0451623
0.0514966
0.0560211
0.0615828
0.0648294
0.0667915
0.0652656
0.0634807
0.0603021
0.057757
0.0558054
0.0568379
0.0520408
0.0470426
0.0429044
0.0416412
0.0404966
0.0405183
0.0402576
0.0404537
0.0404196
0.0407129
0.0409426
0.0412782
0.0414602
0.0416617
0.0418908
0.0422178
0.0423994
0.0423579
0.0419893
0.0414115
0.0406759
0.0399164
0.0392119
0.0387336
0.0387498
0.0398355
0.0429064
0.0486519
0.0561487
0.0630794
0.0678208
0.070192
0.0707502
0.0701173
0.068785
0.0670621
0.0651665
0.0632007
0.0612636
0.0593676
0.0575765
0.0558555
0.0542727
0.0527508
0.0514033
0.0501102
0.218758
0.20697
0.197315
0.187305
0.175928
0.163345
0.150718
0.13895
0.128632
0.119825
0.112333
0.105781
0.0998206
0.0941701
0.0886936
0.0833465
0.0781714
0.0732012
0.0684907
0.064051
0.0599089
0.0560463
0.0524786
0.049165
0.0461226
0.0433001
0.0407251
0.0383356
0.036182
0.0341831
0.0324288
0.030815
0.0295009
0.0283449
0.0276523
0.0272262
0.027719
0.028773
0.0317126
0.0354616
0.0415205
0.0470118
0.0530341
0.0573646
0.0627488
0.0659854
0.067858
0.0663402
0.0644615
0.0612798
0.0586425
0.0566116
0.0575577
0.0529662
0.0480987
0.0440923
0.0427852
0.0415902
0.0414844
0.0411224
0.0411933
0.0410635
0.0412453
0.0413852
0.0416355
0.0417857
0.0420127
0.0423345
0.0427754
0.0430542
0.0430631
0.0427053
0.0421081
0.0413403
0.0405422
0.0398021
0.0392943
0.0392952
0.0403884
0.0435003
0.049312
0.0568686
0.0638304
0.0685781
0.0709428
0.0714872
0.070837
0.0694838
0.0677396
0.0658204
0.063833
0.0618726
0.0599575
0.0581453
0.0564096
0.0548084
0.0532786
0.0519141
0.0506215
0.22503
0.213035
0.203273
0.193139
0.181432
0.16838
0.155242
0.142992
0.13225
0.123077
0.115258
0.108404
0.102159
0.0962417
0.0905207