/*--------------------------------*- C++ -*----------------------------------*\
| =========                 |                                                 |
| \\      /  F ield         | OpenFOAM: The Open Source CFD Toolbox           |
|  \\    /   O peration     | Version:  2412                                  |
|   \\  /    A nd           | Website:  www.openfoam.com                      |
|    \\/     M anipulation  |                                                 |
\*---------------------------------------------------------------------------*/
FoamFile
{
    version     2.0;
    format      ascii;
    arch        "LSB;label=32;scalar=64";
    class       surfaceScalarField;
    location    "0.5";
    object      phi;
}
// * * * * * * * * * * * * * * * * * * * * * * * * * * * * * * * * * * * * * //

dimensions      [0 3 -1 0 0 0 0];

oriented        oriented;

internalField   nonuniform List<scalar> 
155925
(
0.00839098
-0.000815222
0.00770322
0.000687764
0.00845722
-0.000754002
0.00870172
-0.000244495
0.00871921
-1.74974e-05
0.0086421
7.71132e-05
0.00850437
0.000137729
0.00832309
0.000181281
0.00813527
0.00018782
0.00793225
0.000203029
0.0077314
0.000200849
0.00752566
0.00020574
0.00733266
0.000192998
0.00714404
0.000188626
0.00697474
0.000169296
0.00681005
0.000164692
0.00666755
0.000142499
0.00652135
0.000146199
0.00639868
0.000122673
0.00626525
0.000133434
0.00615911
0.00010614
0.00603474
0.000124369
0.00594814
8.66014e-05
0.00582931
0.00011883
0.00576365
6.56672e-05
0.00564925
0.000114396
0.00560721
4.20406e-05
0.00549366
0.000113556
0.00548137
1.22863e-05
0.00535808
0.000123298
0.00538084
-2.27592e-05
0.00524026
0.000140578
0.0053073
-6.7039e-05
0.00513768
0.000169621
0.00526125
-0.000123577
0.00504588
0.000215372
0.00524331
-0.000197428
0.00495762
0.00028569
0.00525266
-0.000295044
0.00486746
0.000385207
0.00528905
-0.000421595
0.00475985
0.000529201
0.00534217
-0.000582332
0.00461148
0.000730695
0.00541422
-0.000802745
0.00448783
0.000926389
0.00554863
-0.0010608
0.0044475
0.00110113
0.00572782
-0.00128032
0.0044556
0.00127222
0.00596402
-0.00150842
0.00494962
0.00101441
0.00766155
-0.00271193
0.00421558
0.00344595
0.00460177
-0.00038617
0.0033464
0.00125538
0.00421641
-0.000870008
0.00351626
0.000700145
0.00428538
-0.000769118
0.00369851
0.000586867
0.00426878
-0.000570268
0.00379964
0.000469136
0.00420839
-0.000408742
0.0038709
0.000337489
0.00416577
-0.000294869
0.00396433
0.000201436
0.00420996
-0.000245628
0.00414439
6.5577e-05
0.00437322
-0.000228826
0.00437607
-2.84871e-06
0.00455003
-0.000173971
0.00455707
-7.02586e-06
0.00467026
-0.000113195
0.0046749
-4.63836e-06
0.00474942
-7.4529e-05
0.00475965
-1.02204e-05
0.00481375
-5.41041e-05
0.00483296
-1.92107e-05
0.00487739
-4.44392e-05
0.00490921
-3.1821e-05
0.0049642
-5.49886e-05
0.00503386
-6.9665e-05
0.00512804
-9.41797e-05
0.00524333
-0.000115289
0.00535454
-0.000111214
0.00547425
-0.000119707
0.00556385
-8.96018e-05
0.00566761
-0.000103759
0.00572518
-5.75767e-05
0.0058222
-9.70133e-05
0.00585034
-2.81452e-05
0.00595383
-0.000103492
0.00594799
5.84489e-06
0.0060705
-0.000122512
0.00601103
5.94712e-05
0.00617872
-0.000167693
0.00602211
0.000156612
0.00629617
-0.000274058
0.000314802
0.0110389
-0.00427836
0.00999333
0.00173333
0.00994827
-0.000708941
0.00991539
-0.000211614
0.00987976
1.81338e-05
0.0098384
0.000118476
0.00976309
0.00021304
0.00963574
0.000308631
0.00947371
0.000349844
0.00927673
0.000400008
0.00906332
0.00041426
0.00883556
0.000433506
0.00861026
0.000418294
0.00838679
0.000412099
0.00817852
0.000377572
0.00797791
0.0003653
0.00779824
0.000322166
0.00762261
0.000321831
0.0074682
0.000277079
0.00731211
0.000289529
0.00717835
0.000239906
0.00703657
0.000266149
0.0069236
0.000199565
0.0067932
0.000249239
0.00670087
0.000157989
0.00658031
0.000234965
0.00651018
0.00011217
0.00639669
0.000227045
0.0063529
5.60787e-05
0.00624298
0.000233218
0.00622931
-9.08853e-06
0.00611729
0.000252602
0.0061388
-8.85569e-05
0.00601574
0.000292685
0.00607851
-0.000186351
0.00593377
0.000360116
0.00604753
-0.000311195
0.00586608
0.000467149
0.00604307
-0.000472039
0.00580768
0.000620595
0.0060623
-0.000676212
0.00574602
0.000845477
0.00608888
-0.000925196
0.00566038
0.00115919
0.0061088
-0.00125117
0.00560389
0.0014313
0.00616748
-0.00162439
0.00561804
0.00165057
0.00627474
-0.00193702
0.00568467
0.0018623
0.00644725
-0.00227101
0.00625962
0.00120204
0.00822854
-0.00468085
0.00601775
0.00565673
0.00525496
0.000376627
0.00432879
0.00218155
0.00462507
-0.00116629
0.00437188
0.000953338
0.00470025
-0.00109748
0.00449804
0.000789076
0.00471935
-0.000791584
0.00453886
0.00064963
0.00467969
-0.000549571
0.00454593
0.00047125
0.00464685
-0.00039579
0.00458685
0.000261436
0.00470832
-0.000367099
0.00474759
2.63032e-05
0.0049077
-0.000388931
0.00498956
-8.47099e-05
0.00512842
-0.000312834
0.00519255
-7.11486e-05
0.00528784
-0.000208489
0.00533166
-4.84553e-05
0.00539874
-0.000141611
0.0054354
-4.68772e-05
0.00548846
-0.000107169
0.00552503
-5.57826e-05
0.00557173
-9.11359e-05
0.00561383
-7.39251e-05
0.00567083
-0.000111992
0.005743
-0.000141835
0.00583627
-0.000187445
0.00594609
-0.000225108
0.00605683
-0.000221955
0.00616958
-0.000232463
0.00626663
-0.000186647
0.00636543
-0.000202563
0.00644171
-0.000133862
0.006532
-0.000187297
0.00659108
-8.72268e-05
0.00668117
-0.000193583
0.00672168
-3.46717e-05
0.00682088
-0.00022171
0.00683441
4.59437e-05
0.00695422
-0.000287507
0.00691748
0.000193357
0.00709233
-0.000448909
0.000418479
0.00899287
-0.00569547
0.00973088
0.000995317
0.0103107
-0.00128874
0.0103634
-0.000264351
0.0102964
8.51242e-05
0.0102139
0.000201046
0.0101154
0.000311493
0.00998987
0.000434171
0.00984407
0.000495642
0.00967192
0.000572159
0.00948284
0.000603344
0.00927738
0.000638967
0.009068
0.000627668
0.00885589
0.000624209
0.00865227
0.00058119
0.00845358
0.000563999
0.00827062
0.000505118
0.00809235
0.000500104
0.00793168
0.000437757
0.00777246
0.000448741
0.00763213
0.000380243
0.00748878
0.000409493
0.00736914
0.000319208
0.00723928
0.000379098
0.00713993
0.000257339
0.00702192
0.000352985
0.00694372
0.000190363
0.00683505
0.000335719
0.006781
0.000110134
0.00667799
0.000336225
0.00665116
1.77363e-05
0.00654951
0.000354257
0.00655414
-9.31881e-05
0.00644662
0.000400212
0.00648731
-0.000227052
0.00636479
0.000482637
0.00644928
-0.000395685
0.00629905
0.000617385
0.00643711
-0.000610108
0.00624464
0.000813067
0.00644758
-0.000879156
0.00618998
0.00110308
0.00646376
-0.00119897
0.00612014
0.0015028
0.00646717
-0.00159819
0.00608849
0.00180998
0.00647988
-0.00201578
0.00610074
0.00202971
0.00652541
-0.00236169
0.00616771
0.00222
0.00666613
-0.00276943
0.00676735
0.00110083
0.00842323
-0.00633674
0.00669102
0.00738894
0.00572997
0.00133768
0.00481306
0.00309847
0.00491455
-0.00126778
0.00475096
0.00111692
0.00495189
-0.00129841
0.00484544
0.000895521
0.00496954
-0.000915675
0.00486293
0.000756231
0.00492919
-0.000615822
0.00484666
0.000553771
0.00489507
-0.000444197
0.00487236
0.000284143
0.004965
-0.000459732
0.00503542
-4.41143e-05
0.00518152
-0.00053503
0.00528771
-0.000190904
0.00541882
-0.000443943
0.00550123
-0.000153556
0.00559321
-0.000300471
0.00565093
-0.000106173
0.00571799
-0.000208673
0.00576531
-9.41959e-05
0.00582047
-0.000162337
0.00586503
-0.000100338
0.00591472
-0.000140832
0.00596208
-0.00012128
0.00602068
-0.000170599
0.00609279
-0.000213937
0.00618231
-0.000276972
0.00628485
-0.000327647
0.00638914
-0.000326243
0.00649408
-0.000337405
0.00658921
-0.000281773
0.00668377
-0.000297125
0.00676476
-0.000214855
0.00685269
-0.000275222
0.00692268
-0.000157218
0.00700931
-0.000280217
0.00706753
-9.28876e-05
0.00715782
-0.000312007
0.00719892
4.84607e-06
0.00729884
-0.000387426
0.00730691
0.000185289
0.00743911
-0.000581109
0.000458829
0.00890872
-0.00702843
0.00947689
0.000427145
0.010108
-0.00191989
0.0102522
-0.000408516
0.010259
7.8327e-05
0.0102155
0.000244603
0.0101408
0.000386097
0.0100379
0.000537122
0.00991388
0.000619654
0.00976575
0.00072029
0.00960019
0.00076891
0.00941845
0.000820707
0.00922992
0.000816198
0.00903672
0.000817412
0.00884759
0.00077032
0.00866118
0.000750405
0.00848601
0.000680288
0.00831506
0.000671051
0.00815805
0.000594768
0.00800398
0.000602815
0.00786561
0.000518618
0.00772727
0.000547825
0.00760867
0.000437809
0.0074846
0.000503172
0.00738551
0.000356429
0.0072741
0.000464399
0.00719506
0.0002694
0.00709384
0.000436938
0.00703715
0.00016683
0.00694243
0.000430944
0.00691054
4.96218e-05
0.00681845
0.000446351
0.00681541
-9.01453e-05
0.0067195
0.000496125
0.00674947
-0.000257023
0.00664129
0.000590814
0.00671128
-0.000465677
0.00657914
0.00074953
0.0066981
-0.000729076
0.00652863
0.000982542
0.00670679
-0.00105732
0.00647963
0.00133024
0.00672064
-0.00143998
0.00642624
0.0017972
0.00671463
-0.00188658
0.00641019
0.00211442
0.0066787
-0.00228429
0.00639425
0.00231416
0.00666295
-0.00263039
0.00644375
0.0024392
0.00677242
-0.0030981
0.00703645
0.000836793
0.0084537
-0.00775399
0.00713705
0.00870558
0.00611881
0.00235593
0.00517949
0.00403779
0.00516314
-0.00125142
0.00501349
0.00126657
0.00515007
-0.00143499
0.00507644
0.000969152
0.00515615
-0.00099539
0.00507693
0.00083545
0.00511002
-0.000648909
0.00504638
0.000617409
0.00507282
-0.000470631
0.0050658
0.000291157
0.00514928
-0.000543204
0.00523443
-0.000129271
0.00537683
-0.00067742
0.00549353
-0.000307608
0.00562156
-0.000571978
0.00571122
-0.000243208
0.0058016
-0.000390856
0.00586521
-0.000169784
0.00593255
-0.000276008
0.00598509
-0.000146734
0.00604198
-0.000219233
0.0060911
-0.000149457
0.00614329
-0.000193021
0.0061942
-0.000172194
0.00625435
-0.000230746
0.00632613
-0.000285718
0.00641197
-0.00036281
0.00650785
-0.000423532
0.00660535
-0.000423745
0.00670333
-0.000435387
0.00679483
-0.000373266
0.00688569
-0.00038799
0.00696759
-0.00029675
0.00705402
-0.000361655
0.00712875
-0.000231948
0.00721426
-0.000365729
0.00728098
-0.000159609
0.00736821
-0.000399237
0.00742275
-4.96973e-05
0.00751485
-0.000479525
0.007545
0.000155147
0.00765836
-0.000694472
0.000465637
0.00893943
-0.0083921
0.00949992
-0.000133346
0.00993116
-0.00235113
0.0100784
-0.000555748
0.0101328
2.3879e-05
0.0101289
0.000248548
0.0100842
0.000430808
0.010005
0.000616292
0.00989932
0.000725348
0.00976769
0.000851915
0.00961676
0.000919847
0.00944937
0.000988098
0.00927374
0.000991823
0.00909308
0.000998069
0.0089146
0.000948801
0.00873842
0.000926586
0.00857112
0.000847592
0.00840831
0.000833862
0.00825702
0.000746054
0.00810989
0.000749946
0.00797601
0.000652502
0.00784446
0.000679377
0.00772945
0.000552813
0.00761267
0.000619952
0.0075164
0.000452706
0.007413
0.000567793
0.00733585
0.000346549
0.00724355
0.000529241
0.00718727
0.000223112
0.00710248
0.000515735
0.00706887
8.32315e-05
0.00698779
0.000527436
0.00698053
-8.28914e-05
0.00689708
0.000579574
0.00692004
-0.000279986
0.00682611
0.000684747
0.00688589
-0.000525457
0.00677028
0.000865146
0.00687541
-0.000834213
0.00672549
0.00113246
0.00688559
-0.00121742
0.00668385
0.00153198
0.00689977
-0.0016559
0.00665002
0.00204694
0.00688171
-0.00211827
0.00663655
0.00235959
0.00679999
-0.00244773
0.00657995
0.00253419
0.006739
-0.00278943
0.00660861
0.00256958
0.00682771
-0.0033172
0.00718459
0.000479912
0.00841556
-0.00898497
0.00745099
0.00967015
0.00641639
0.00339054
0.00548274
0.00497144
0.00538274
-0.00115142
0.005225
0.00142431
0.0053177
-0.00152769
0.00525592
0.00103093
0.00530893
-0.0010484
0.0052419
0.000902485
0.00525614
-0.000663151
0.00520138
0.000672164
0.00521667
-0.000485922
0.00521897
0.000288861
0.00529991
-0.00062414
0.00539434
-0.000223706
0.0055358
-0.00081888
0.00565776
-0.000429568
0.00578343
-0.000697652
0.00587576
-0.000335534
0.0059643
-0.000479389
0.00603023
-0.000235714
0.00609721
-0.00034299
0.00615234
-0.000201871
0.00621024
-0.000277125
0.00626212
-0.000201344
0.00631615
-0.000247049
0.0063696
-0.000225644
0.00643097
-0.000292119
0.00650224
-0.000356985
0.00658468
-0.000445253
0.00667479
-0.000513643
0.00676626
-0.000515216
0.00685842
-0.000527541
0.0069463
-0.000461154
0.00703404
-0.000475727
0.00711564
-0.00037835
0.00720089
-0.000446906
0.00727796
-0.000309017
0.00736295
-0.000450719
0.00743438
-0.000231044
0.00752031
-0.000485164
0.00758242
-0.000111803
0.00767076
-0.000567868
0.00771338
0.000112523
0.00781676
-0.000797853
0.000452664
0.0087355
-0.00955184
0.00946275
-0.000860597
0.00980359
-0.00269198
0.00994484
-0.000696992
0.0100195
-5.07935e-05
0.010038
0.000230031
0.0100143
0.000454561
0.0099532
0.000677366
0.00986158
0.000816965
0.00974178
0.000971721
0.00960059
0.00106103
0.00944215
0.00114654
0.00927435
0.00115963
0.00910132
0.0011711
0.00892957
0.00112055
0.00876024
0.00109592
0.00859869
0.00100914
0.00844214
0.000990412
0.00829577
0.000892421
0.00815451
0.000891205
0.00802489
0.000782122
0.00789919
0.000805078
0.00778779
0.000664214
0.00767725
0.00073049
0.00758394
0.000546021
0.00748743
0.000664304
0.00741249
0.000421484
0.00732804
0.000613695
0.00727284
0.000278318
0.00719723
0.000591341
0.00716297
0.000117493
0.0070926
0.00059781
0.00708242
-7.2711e-05
0.00701156
0.000650426
0.00702887
-0.00029729
0.00694969
0.000763929
0.00700059
-0.000576366
0.00690218
0.000963559
0.00699482
-0.000926856
0.00686502
0.00126226
0.00700838
-0.00136078
0.00683304
0.00170733
0.00702333
-0.0018462
0.00681834
0.00225193
0.00698975
-0.00228968
0.00679272
0.00255662
0.00687422
-0.00252922
0.00669774
0.00271067
0.00678556
-0.00287725
0.00670999
0.00264515
0.00686274
-0.00346995
0.00727125
7.14021e-05
0.0083752
-0.0100889
0.0076546
0.0103907
0.00663493
0.00441021
0.00573797
0.00586841
0.00557882
-0.000992273
0.00540676
0.00159637
0.0054652
-0.00158614
0.00540644
0.00108969
0.00544067
-0.00108262
0.00537945
0.000963699
0.0053814
-0.0006651
0.00533163
0.000721936
0.00534083
-0.00049512
0.00535002
0.000279669
0.00543123
-0.000705351
0.00553243
-0.000324908
0.00567373
-0.000960175
0.00579827
-0.000554106
0.00592142
-0.000820802
0.00601403
-0.000428141
0.00610021
-0.000565569
0.00616653
-0.000302036
0.00623256
-0.000409027
0.00628884
-0.000258147
0.00634714
-0.00033542
0.00640073
-0.000254936
0.00645606
-0.000302384
0.00651133
-0.000280914
0.00657354
-0.000354327
0.00664405
-0.000427494
0.00672331
-0.000524514
0.00680841
-0.000598743
0.0068947
-0.000601507
0.00698202
-0.00061486
0.00706669
-0.000545832
0.00715181
-0.00056084
0.00723272
-0.000459263
0.00731696
-0.000531142
0.00739526
-0.000387321
0.0074799
-0.000535362
0.00755421
-0.000305349
0.00763948
-0.00057044
0.00770627
-0.00017859
0.00779253
-0.00065413
0.00784291
6.21431e-05
0.00794029
-0.000895225
0.000427105
0.00862129
-0.0105974
0.00939843
-0.00163774
0.00969963
-0.00299318
0.0098389
-0.000836258
0.00992382
-0.000135717
0.00995534
0.000198517
0.00994558
0.000464319
0.0098977
0.000725251
0.00981684
0.000897821
0.00970599
0.00108258
0.00957196
0.00119506
0.00941974
0.00129875
0.00925722
0.00132216
0.00908927
0.00133904
0.00892212
0.0012877
0.0087576
0.00126043
0.00860035
0.00116639
0.00844858
0.00114219
0.00830623
0.00103476
0.00816966
0.00102778
0.00804371
0.000908077
0.0079227
0.00092609
0.00781445
0.000772463
0.00770881
0.000836132
0.00761809
0.000636736
0.0075269
0.000755497
0.00745394
0.000494446
0.00737556
0.000692071
0.00732138
0.000332496
0.00725309
0.000659633
0.00721845
0.000152132
0.00715702
0.000659242
0.00714443
-6.01236e-05
0.00708473
0.000710133
0.00709697
-0.000309533
0.0070317
0.000829195
0.00707416
-0.000618822
0.00699302
0.0010447
0.00707308
-0.00100692
0.00696464
0.0013707
0.00709013
-0.00148627
0.00694427
0.00185318
0.00710457
-0.0020065
0.00694401
0.00241248
0.00705755
-0.00240322
0.00689745
0.00271672
0.00692163
-0.0025534
0.00677416
0.00285814
0.00681719
-0.00292027
0.00677576
0.00268657
0.00688843
-0.00358262
0.00732634
-0.000366509
0.00834796
-0.0111105
0.00778313
0.0109556
0.00679255
0.00540079
0.00595205
0.00670892
0.00575343
-0.000793656
0.00556739
0.00178241
0.00559765
-0.00161639
0.00553794
0.0011494
0.00555773
-0.00110242
0.00549935
0.00102208
0.00549262
-0.000658362
0.00544614
0.000768416
0.00545205
-0.000501036
0.00546706
0.000264667
0.00554989
-0.00078818
0.00565637
-0.000431392
0.00579756
-0.00110136
0.00592301
-0.00067955
0.00604326
-0.000941053
0.00613467
-0.000519556
0.00621803
-0.000648928
0.00628359
-0.000367591
0.00634823
-0.000473671
0.00640476
-0.000314679
0.00646303
-0.000393694
0.00651767
-0.000309568
0.00657389
-0.000358613
0.00663045
-0.00033747
0.00669311
-0.00041699
0.00676263
-0.000497011
0.0068389
-0.000600787
0.00691964
-0.000679485
0.00700153
-0.000683389
0.00708482
-0.000698157
0.00716673
-0.000627736
0.00724963
-0.000643739
0.00732973
-0.000539368
0.00741307
-0.000614479
0.00749203
-0.000466284
0.00757637
-0.000619704
0.00765253
-0.000381508
0.0077374
-0.000655311
0.00780729
-0.000248478
0.00789224
-0.000739082
0.00794778
6.60222e-06
0.00804115
-0.000988588
0.000392982
0.00854721
-0.0115688
0.00932685
-0.00241738
0.00960949
-0.00327582
0.00974984
-0.000976612
0.00984112
-0.000226997
0.00988098
0.000158655
0.00988094
0.000464364
0.00984277
0.000763421
0.0097702
0.000970388
0.0096663
0.00118648
0.00953779
0.00132357
0.00939024
0.0014463
0.00923161
0.00148079
0.00906739
0.00150326
0.00890371
0.00145139
0.0087429
0.00142124
0.00858915
0.00132014
0.00844125
0.00129009
0.00830237
0.00117365
0.00816969
0.00116045
0.00804697
0.00103081
0.00792982
0.00104323
0.00782438
0.000877905
0.00772266
0.00093785
0.00763428
0.00072512
0.00754722
0.000842554
0.00747604
0.000565627
0.00740229
0.000765824
0.00734911
0.000385674
0.00728636
0.000722384
0.00725157
0.000186928
0.00719705
0.000713756
0.00718257
-4.56448e-05
0.00713182
0.000760888
0.00713973
-0.000317442
0.00708628
0.000882643
0.00712102
-0.000653559
0.0070556
0.00111011
0.0071234
-0.00107471
0.00703596
0.00145814
0.00714276
-0.00159307
0.00702766
0.00196829
0.00715564
-0.00213448
0.00703511
0.00253301
0.00710124
-0.00246934
0.00696722
0.00285074
0.00695392
-0.0025401
0.00682571
0.00298635
0.00684044
-0.00293501
0.00682105
0.00270597
0.00690893
-0.00367051
0.00736413
-0.000821705
0.00833094
-0.0120773
0.00786523
0.0114213
0.00690726
0.00635876
0.0061301
0.00748608
0.00590767
-0.000571227
0.00571095
0.00197913
0.0057178
-0.00162325
0.00565552
0.00121168
0.00566372
-0.00111062
0.00560672
0.00107907
0.00559359
-0.000645228
0.00554966
0.000812349
0.00555406
-0.000505438
0.0055743
0.000244421
0.0056594
-0.000873275
0.0057701
-0.000542094
0.00591096
-0.00124222
0.0060361
-0.000804698
0.00615302
-0.00105797
0.00624226
-0.00060879
0.00632241
-0.000729084
0.00638646
-0.000431634
0.00644939
-0.000536606
0.00650562
-0.000370909
0.00656359
-0.00045166
0.00661881
-0.00036479
0.00667563
-0.000415436
0.00673306
-0.000394902
0.00679585
-0.000479782
0.0068642
-0.000565353
0.00693767
-0.00067426
0.00701462
-0.000756433
0.00709276
-0.00076153
0.0071727
-0.000778098
0.00725222
-0.00070726
0.00733323
-0.000724749
0.00741252
-0.000618652
0.00749503
-0.000696998
0.00757432
-0.00054557
0.00765836
-0.000703746
0.00773575
-0.000458898
0.00782031
-0.000739868
0.00789234
-0.000320507
0.00797636
-0.000823105
0.0080355
-5.25378e-05
0.00812595
-0.00107904
0.00035279
0.00848957
-0.0124826
0.00925583
-0.00318364
0.00952853
-0.00354853
0.00967159
-0.00111967
0.00976759
-0.000322997
0.00981347
0.000112776
0.00982054
0.000457302
0.00978969
0.000794271
0.00972354
0.00103653
0.0096251
0.00128493
0.00950093
0.00144774
0.009357
0.00159023
0.00920141
0.00163638
0.00904012
0.00166455
0.00887928
0.00161223
0.00872157
0.00157894
0.00857085
0.00147086
0.00842631
0.00143463
0.00829053
0.00130942
0.00816127
0.0012897
0.00804149
0.00115059
0.0079277
0.00115702
0.00782484
0.000980759
0.00772644
0.00103626
0.00764022
0.000811334
0.00755654
0.000926241
0.00748705
0.000635118
0.00741694
0.000835928
0.0073648
0.000437813
0.00730632
0.000780871
0.00727163
0.000221613
0.00722239
0.000762999
0.0072066
-2.98593e-05
0.00716274
0.00080475
0.00716726
-0.000321957
0.0071232
0.000926701
0.00715146
-0.000681818
0.00709919
0.00116239
0.00715603
-0.00113156
0.00708738
0.0015268
0.00717646
-0.00168215
0.00708991
0.00205483
0.00718831
-0.00223288
0.00709956
0.00262176
0.00713135
-0.00250113
0.00701472
0.00296737
0.00697729
-0.00250268
0.00686209
0.00310155
0.00685851
-0.00293142
0.006854
0.00271048
0.00692609
-0.0037426
0.00739168
-0.0012873
0.00831991
-0.0130056
0.00791926
0.0118219
0.00699268
0.00728535
0.00627702
0.00820174
0.0060426
-0.000336803
0.00583963
0.0021821
0.00582734
-0.00161096
0.00576211
0.00127692
0.00576084
-0.00110935
0.00570458
0.00113534
0.00568667
-0.00062732
0.00564499
0.000854027
0.00564908
-0.00050953
0.00567422
0.000219286
0.00576184
-0.0009609
0.00587589
-0.000656145
0.00601603
-0.00138235
0.00613994
-0.000928603
0.00625311
-0.00117115
0.00633945
-0.000695126
0.00641611
-0.000805744
0.00647815
-0.000493677
0.00653917
-0.000597626
0.00659475
-0.000426485
0.00665221
-0.000509129
0.00670774
-0.000420312
0.00676492
-0.000472623
0.00682292
-0.000452903
0.00688558
-0.000542437
0.00695262
-0.000632391
0.00702349
-0.000745136
0.00709714
-0.000830084
0.0071721
-0.000836491
0.00724922
-0.000855217
0.00732669
-0.000784731
0.00740607
-0.000804123
0.00748455
-0.000697131
0.00756631
-0.000778757
0.0076457
-0.000624961
0.00772941
-0.000787463
0.00780762
-0.000537103
0.00789189
-0.000824138
0.00796542
-0.000394041
0.00804872
-0.000906398
0.00811044
-0.000114265
0.00819862
-0.00116722
0.000308132
0.00844062
-0.0133475
0.00918737
-0.00393039
0.0094541
-0.00381525
0.0096007
-0.00126628
0.00970072
-0.000423017
0.0097514
6.21045e-05
0.00976395
0.000444748
0.00973874
0.000819479
0.00967762
0.00109765
0.00958345
0.00137909
0.00946271
0.00156848
0.00932164
0.00173129
0.00916849
0.00178953
0.00900963
0.00182342
0.00885122
0.00177064
0.00869623
0.00173393
0.00854827
0.00161883
0.00840677
0.00157614
0.00827388
0.00144231
0.00814774
0.00141585
0.00803072
0.00126761
0.00791995
0.00126779
0.00781954
0.00108117
0.00772405
0.00113174
0.00763992
0.000895472
0.00755912
0.00100703
0.0074913
0.000702947
0.00742421
0.000903015
0.00737319
0.000488832
0.00731811
0.000835952
0.0072838
0.000255925
0.00723866
0.000808136
0.00722211
-1.3313e-05
0.00718355
0.00084331
0.00718561
-0.000324011
0.00714882
0.00096349
0.00717202
-0.000705021
0.0071302
0.00120421
0.00717804
-0.00117941
0.00712503
0.00157981
0.00719894
-0.00175607
0.00713636
0.00211742
0.0072111
-0.00230763
0.00714517
0.00268769
0.00715361
-0.00250957
0.00704834
0.00307264
0.00699508
-0.00244942
0.0068889
0.00320773
0.00687309
-0.00291562
0.00687911
0.00270446
0.00694086
-0.00380434
0.00741278
-0.00175923
0.00831226
-0.0139051
0.00795626
0.0121779
0.00705794
0.00818367
0.0063977
0.00886198
0.00615965
-9.87594e-05
0.00595491
0.00238684
0.00592739
-0.00158343
0.00585957
0.00134474
0.00585059
-0.00110038
0.00579484
0.00119109
0.00577341
-0.000605888
0.00573393
0.000893507
0.00573857
-0.000514174
0.00576832
0.000189536
0.00585851
-0.00105108
0.00597513
-0.000772769
0.0061141
-0.00152132
0.00623598
-0.00105048
0.00634502
-0.00128019
0.00642793
-0.000778032
0.00650089
-0.000878697
0.00656061
-0.000553405
0.0066196
-0.000656614
0.00667431
-0.000481191
0.00673117
-0.000565987
0.00678679
-0.000475942
0.00684418
-0.000530014
0.00690251
-0.00051123
0.00696483
-0.000604751
0.0070305
-0.00069807
0.00709899
-0.000813626
0.00716978
-0.000900874
0.00724204
-0.000908742
0.00731675
-0.000929934
0.00739244
-0.000860414
0.00747037
-0.000882058
0.00754806
-0.000774821
0.00762909
-0.000859791
0.00770844
-0.000704304
0.0077918
-0.000870826
0.00787053
-0.000615829
0.00795449
-0.000908104
0.00802909
-0.000468636
0.00811176
-0.000989066
0.00817538
-0.000177886
0.00826169
-0.00125353
0.00026014
0.00839707
-0.0141688
0.00912172
-0.00465505
0.00938456
-0.00407808
0.00953515
-0.00141687
0.00963888
-0.00052674
0.00969366
7.32401e-06
0.00971065
0.00042775
0.00968989
0.000840247
0.00963269
0.00115485
0.00954188
0.0014699
0.00942381
0.00168655
0.00928502
0.00187008
0.00913387
0.00194069
0.00897706
0.00198023
0.00882083
0.00192688
0.00866833
0.00188642
0.00852295
0.00176421
0.00838429
0.0017148
0.00825415
0.00157245
0.00813091
0.00153909
0.00801653
0.00138199
0.00790856
0.00137576
0.00781051
0.00117922
0.00771769
0.00122456
0.00763557
0.000977593
0.00755736
0.00108524
0.00749118
0.000769123
0.00742672
0.000967482
0.00737689
0.000538661
0.00732465
0.000888184
0.00729093
0.000289649
0.00724911
0.000849957
0.00723224
3.55135e-06
0.00719786
0.000877697
0.00719824
-0.000324393
0.0071671
0.00099463
0.00718653
-0.000724456
0.0071529
0.00123785
0.00719371
-0.00122022
0.00715326
0.00162026
0.00721517
-0.00181798
0.00717145
0.00216113
0.00722868
-0.00236486
0.00717827
0.0027381
0.00717099
-0.00250228
0.00707318
0.00317045
0.00700915
-0.0023854
0.00690943
0.00330745
0.00688521
-0.0028914
0.006899
0.00269068
0.00695384
-0.00385918
0.00742956
-0.00223495
0.00830652
-0.014782
0.00798269
0.0125018
0.00710903
0.00905732
0.00649675
0.00947427
0.00626059
0.000137399
0.00605799
0.00258944
0.00601884
-0.00154429
0.00594919
0.00141439
0.00593403
-0.00108522
0.00587884
0.00124628
0.0058549
-0.00058195
0.00581768
0.000930724
0.00582352
-0.000520007
0.00585763
0.000155416
0.00595025
-0.0011437
0.00606873
-0.000891246
0.00620604
-0.00165863
0.00632521
-0.00116965
0.00642978
-0.00138476
0.00650887
-0.00085712
0.00657798
-0.000947807
0.0066352
-0.000610628
0.00669211
-0.000713523
0.00674583
-0.00053491
0.00680202
-0.000622182
0.00685763
-0.000531547
0.00691511
-0.000587493
0.00697358
-0.000569701
0.00703541
-0.00066658
0.00709972
-0.000762379
0.00716604
-0.000879949
0.00723434
-0.00096918
0.00730427
-0.00097867
0.00737692
-0.00100258
0.00745103
-0.000934518
0.00752766
-0.000958696
0.00760459
-0.000851744
0.00768492
-0.000940121
0.00776409
-0.00078348
0.00784706
-0.000953798
0.00792609
-0.000694853
0.00800972
-0.000991736
0.00808505
-0.000543966
0.00816714
-0.00107116
0.00823215
-0.000242897
0.00831687
-0.00133825
0.00020961
0.00835721
-0.0149503
0.00905875
-0.00535659
0.00931887
-0.00433821
0.00947367
-0.00157168
0.00958094
-0.00063401
0.00963944
-5.11687e-05
0.00966016
0.000407023
0.00964296
0.00085745
0.00958884
0.00120898
0.00950063
0.00155811
0.00938464
0.00180254
0.00924763
0.00200709
0.00909811
0.0020902
0.00894309
0.00213525
0.00878886
0.00208111
0.00863868
0.0020366
0.00849577
0.00190712
0.00835981
0.00185076
0.00823232
0.00169994
0.00811185
0.00165956
0.00800001
0.00149382
0.0078947
0.00148107
0.00779893
0.001275
0.00770861
0.00131488
0.00762847
0.00105773
0.00755264
0.00116108
0.00748811
0.000833648
0.007426
0.0010296
0.00737743
0.000587232
0.00732767
0.000937941
0.0072947
0.000322617
0.00725567
0.00088899
0.00723883
2.03944e-05
0.00720783
0.000908694
0.00720716
-0.00032372
0.00718049
0.00102129
0.00719721
-0.000741174
0.00717002
0.00126505
0.00720553
-0.00125574
0.00717507
0.00165073
0.00722789
-0.00187081
0.00719859
0.00219044
0.00724323
-0.0024095
0.00720322
0.00277811
0.00718512
-0.00248418
0.00709227
0.00326331
0.00702063
-0.00231376
0.00692567
0.00340241
0.00689551
-0.00286124
0.00691524
0.00267095
0.00696543
-0.00390937
0.00744329
-0.0027128
0.00830188
-0.0156406
0.00800234
0.0128013
0.00715004
0.00990962
0.00657834
0.010046
0.00634738
0.000368355
0.00614999
0.00278683
0.00610245
-0.00149674
0.00603192
0.00148492
0.00601195
-0.00106525
0.00595753
0.0013007
0.00593195
-0.000556366
0.00589712
0.000965554
0.00590461
-0.000527501
0.00594285
0.000117178
0.00603766
-0.00123852
0.0061573
-0.00101088
0.00629245
-0.00179378
0.00640833
-0.00128552
0.00650812
-0.00148456
0.0065831
-0.000932102
0.0066483
-0.001013
0.00670292
-0.00066525
0.00675775
-0.00076836
0.00681043
-0.000587589
0.00686595
-0.000677698
0.00692146
-0.00058706
0.00697894
-0.000644976
0.00703743
-0.000628185
0.00709868
-0.000727827
0.00716164
-0.000825343
0.00722601
-0.000944318
0.00729216
-0.00103533
0.00736007
-0.00104659
0.00743092
-0.00107343
0.00750361
-0.0010072
0.00757906
-0.00103415
0.00765522
-0.000927904
0.00773484
-0.00101974
0.00781375
-0.000862391
0.00789629
-0.00103633
0.00797544
-0.000773999
0.0080587
-0.001075
0.00813451
-0.00061978
0.00821605
-0.0011527
0.00828207
-0.000308923
0.00836536
-0.00142154
0.000157162
0.00832012
-0.0156946
0.00899826
-0.00603473
0.00925638
-0.00459633
0.00941545
-0.00173075
0.00952617
-0.000744726
0.00958811
-0.000113111
0.00961207
0.00038307
0.00959776
0.000871757
0.00954604
0.0012607
0.00945981
0.00164434
0.00934538
0.00191697
0.00920976
0.00214271
0.0090616
0.00223836
0.00890817
0.00228868
0.00875578
0.00223349
0.00860782
0.00218456
0.0084673
0.00204764
0.00833394
0.00198412
0.00820902
0.00182486
0.00809121
0.00177737
0.00798186
0.00160317
0.00787909
0.00158384
0.00778555
0.00136854
0.00769761
0.00140283
0.00761942
0.00113593
0.00754582
0.00123467
0.00748295
0.000896518
0.00742301
0.00108954
0.00737574
0.000634498
0.00732821
0.000985471
0.00729613
0.000354703
0.00725951
0.000925601
0.00724295
3.69569e-05
0.0072148
0.000936848
0.00721354
-0.000322461
0.00719053
0.0010443
0.00720533
-0.00075598
0.00718331
0.00128707
0.0072149
-0.00128732
0.00719246
0.00167317
0.00723859
-0.00191694
0.00722021
0.00220883
0.00725581
-0.00244511
0.00722278
0.00281114
0.00719697
-0.00245837
0.00710745
0.00335282
0.00703021
-0.00223651
0.00693888
0.00349374
0.00690443
-0.00282679
0.00692885
0.00264653
0.00697593
-0.00395645
0.00745476
-0.00319164
0.00829787
-0.0164837
0.00801748
0.0130817
0.00718377
0.0107433
0.00664601
0.0105837
0.00642204
0.000592322
0.00623204
0.00297683
0.00617891
-0.00144362
0.00610852
0.00155532
0.00608499
-0.00104173
0.00603163
0.00135406
0.00600515
-0.000529883
0.00597286
0.000997843
0.00598237
-0.000537005
0.00602446
7.50872e-05
0.00612116
-0.00133522
0.00624129
-0.00113102
0.00637377
-0.00192626
0.00648582
-0.00139758
0.00658059
-0.00157932
0.00665127
-0.00100278
0.00671253
-0.00107427
0.00676453
-0.000717248
0.00681735
-0.000821177
0.00686899
-0.000639229
0.00692384
-0.000732549
0.00697922
-0.000642439
0.00703666
-0.000702413
0.00709506
-0.000686588
0.00715567
-0.000788437
0.00721735
-0.000887029
0.00727997
-0.00100694
0.00734424
-0.00109959
0.0074104
-0.00111275
0.00747965
-0.00114268
0.00755103
-0.00107858
0.00762537