/*--------------------------------*- C++ -*----------------------------------*\
| =========                 |                                                 |
| \\      /  F ield         | OpenFOAM: The Open Source CFD Toolbox           |
|  \\    /   O peration     | Version:  2412                                  |
|   \\  /    A nd           | Website:  www.openfoam.com                      |
|    \\/     M anipulation  |                                                 |
\*---------------------------------------------------------------------------*/
FoamFile
{
    version     2.0;
    format      ascii;
    arch        "LSB;label=32;scalar=64";
    class       volVectorField;
    location    "0.5";
    object      U;
}
// * * * * * * * * * * * * * * * * * * * * * * * * * * * * * * * * * * * * * //

dimensions      [0 1 -1 0 0 0 0];

internalField   nonuniform List<vector> 
78408
(
(79.1797 -82.445 -1.58667e-14)
(101.193 -24.861 -4.62328e-17)
(113.104 14.7426 0)
(119.374 28.7769 0)
(123.216 33.0536 -2.10847e-14)
(124.656 34.3477 -1.18821e-18)
(124.841 34.7365 0)
(124.386 34.8657 4.30801e-14)
(123.676 34.9419 4.33334e-14)
(122.746 34.9634 0)
(121.739 34.949 0)
(120.635 34.8792 2.21375e-14)
(119.61 34.7921 -2.23666e-14)
(118.648 34.692 4.18091e-19)
(117.923 34.6191 0)
(117.311 34.5714 2.30874e-14)
(117.011 34.5938 0)
(116.766 34.6357 -2.35419e-14)
(116.829 34.7482 5.16932e-19)
(116.859 34.8705 0)
(117.251 35.0664 0)
(117.51 35.2629 -2.42955e-14)
(118.29 35.5697 0)
(118.799 35.8419 -2.45409e-14)
(120.017 36.2653 0)
(120.789 36.6311 0)
(122.565 37.1977 0)
(123.594 37.6685 0)
(126.102 38.4292 -2.46108e-14)
(127.359 39.001 0)
(130.645 39.9633 0)
(132.138 40.6679 -1.2915e-18)
(136.415 41.8828 -2.35639e-14)
(138.102 42.7279 -2.29325e-14)
(143.686 44.2624 2.26389e-14)
(145.4 45.2418 2.17988e-14)
(152.761 47.2038 0)
(154.208 48.2744 0)
(163.98 50.8137 -1.99712e-14)
(164.731 51.9347 -1.8438e-14)
(177.923 55.2678 1.82425e-14)
(177.082 56.3117 -1.61005e-14)
(194.995 60.7354 0)
(190.965 61.475 0)
(215.4 67.4739 0)
(208.671 68.2124 9.50861e-15)
(242.83 76.8367 0)
(235.703 77.9768 0)
(281.038 89.3497 9.266e-15)
(272.164 90.293 0)
(335.828 106.305 0)
(325.993 106.812 -1.43461e-14)
(486.564 157.61 2.82728e-18)
(490.276 11.4151 1.79823e-15)
(315.346 -70.1252 1.75313e-15)
(261.037 -60.2295 0)
(244.53 -55.3676 0)
(242.744 -52.4854 1.92884e-15)
(229.908 -51.4056 5.48036e-19)
(226.652 -49.0285 0)
(214.328 -47.7573 4.65342e-19)
(208.81 -45.3446 0)
(197.761 -43.967 2.07879e-15)
(192.215 -41.8761 3.29537e-19)
(183.358 -40.6445 -2.60275e-15)
(179.045 -39.1038 2.48197e-15)
(173.187 -38.2633 6.10617e-15)
(171.529 -37.4862 3.09779e-15)
(168.833 -37.1335 3.53665e-15)
(168.467 -36.7665 -3.72099e-15)
(166.289 -36.4448 -4.12068e-15)
(164.792 -35.9267 -2.48366e-19)
(161.913 -35.4001 -9.49384e-15)
(159.393 -34.7282 2.24702e-19)
(156.224 -34.0966 -5.32765e-15)
(153.424 -33.4095 5.57644e-15)
(150.392 -32.7834 5.82062e-15)
(147.696 -32.143 -1.89324e-19)
(144.956 -31.5733 0)
(142.524 -31.0306 -6.33776e-15)
(140.311 -30.5683 0)
(138.778 -30.2282 0)
(137.872 -30.0357 -6.25677e-15)
(137.73 -29.9874 0)
(137.75 -29.9753 -6.0605e-15)
(137.872 -29.9785 -6.04283e-15)
(137.588 -29.882 6.08018e-15)
(137.225 -29.7913 0)
(136.328 -29.5764 -6.26131e-15)
(135.574 -29.4024 0)
(134.284 -29.0986 -6.51084e-15)
(133.419 -28.9112 -6.63372e-15)
(131.804 -28.5355 -6.77942e-15)
(131.06 -28.3851 0)
(128.851 -27.8677 7.035e-15)
(128.549 -27.833 -7.15073e-15)
(125.343 -27.1041 0)
(125.861 -27.2656 -7.38281e-15)
(121.735 -26.2177 0)
(129.35 45.2827 1.07675e-14)
(138.402 49.9432 -2.21877e-14)
(136.575 43.6107 0)
(137.241 40.0723 0)
(139.398 39.4005 1.52272e-14)
(141.242 39.9376 -3.02445e-14)
(142.621 40.6074 0)
(143.457 41.1443 -1.44629e-14)
(143.642 41.4604 -1.42546e-14)
(143.305 41.5987 0)
(142.56 41.5938 -1.41393e-14)
(141.562 41.4989 -5.71541e-19)
(140.438 41.3428 0)
(139.324 41.1826 1.4353e-14)
(138.33 41.03 0)
(137.502 40.9416 1.45525e-14)
(136.91 40.9098 0)
(136.533 40.9544 0)
(136.381 41.0405 6.01484e-19)
(136.406 41.2104 -1.49444e-14)
(136.652 41.4003 0)
(137.029 41.6895 1.51372e-14)
(137.67 41.9993 0)
(138.441 42.4123 0)
(139.505 42.834 1.54053e-14)
(140.691 43.3995 0)
(142.265 43.949 0)
(143.908 44.6959 0)
(146.099 45.4068 0)
(148.274 46.3606 0)
(151.248 47.2741 0)
(153.949 48.4741 -1.48312e-14)
(157.926 49.6428 2.94586e-14)
(161.152 51.1067 1.42807e-14)
(166.359 52.5668 0)
(170.066 54.3337 -1.35178e-14)
(176.876 56.1693 1.32616e-14)
(180.979 58.2537 -1.25227e-14)
(189.886 60.5828 2.4116e-18)
(194.187 63.0178 1.12793e-14)
(206.017 66.0128 0)
(209.99 68.7625 9.74286e-15)
(225.768 72.6504 9.7768e-15)
(228.201 75.5521 -7.82236e-15)
(249.395 80.7042 8.08185e-15)
(250.577 83.9096 0)
(280.295 91.4274 0)
(282.639 95.5038 0)
(322.414 105.832 0)
(325.643 110.627 1.83372e-16)
(384.118 126.466 0)
(384.953 130.314 7.42092e-15)
(546.256 187.449 1.04429e-15)
(605.824 -5.77069 -1.01303e-15)
(394.478 -84.8497 0)
(320.522 -68.859 0)
(286.821 -62.7493 -1.59587e-16)
(284.096 -60.4138 -7.76676e-16)
(265.164 -57.9136 7.74222e-16)
(263.199 -55.9948 0)
(246.14 -53.5806 5.87686e-16)
(241.308 -51.4327 2.85141e-16)
(226.326 -49.1533 0)
(220.734 -47.1494 6.63998e-16)
(208.856 -45.2589 9.8448e-16)
(204.062 -43.6966 0)
(196.449 -42.5129 -2.27907e-15)
(194.414 -41.7377 -2.65517e-19)
(191.207 -41.3233 0)
(190.667 -40.9697 2.88145e-15)
(188.421 -40.655 1.62881e-15)
(186.846 -40.1352 -1.77649e-15)
(183.867 -39.6028 1.96406e-15)
(181.204 -38.9098 2.12404e-15)
(177.867 -38.2628 2.29212e-15)
(174.866 -37.5444 -2.43997e-15)
(171.615 -36.8906 0)
(168.676 -36.2069 -1.78127e-19)
(165.678 -35.5981 0)
(162.959 -35.0015 2.87731e-15)
(160.423 -34.4811 0)
(158.508 -34.0777 2.83529e-15)
(157.157 -33.8088 2.73348e-15)
(156.507 -33.6778 0)
(156.013 -33.5658 5.14283e-15)
(155.658 -33.4854 2.55452e-15)
(154.992 -33.3023 -2.57706e-15)
(154.327 -33.1707 0)
(153.233 -32.8999 1.22521e-19)
(152.324 -32.7229 0)
(150.961 -32.3803 2.87803e-15)
(150.016 -32.2223 2.97127e-15)
(148.438 -31.8092 6.16691e-15)
(147.598 -31.7101 0)
(145.782 -31.189 -6.59587e-15)
(145.159 -31.2113 3.38527e-15)
(142.867 -30.5127 3.50895e-15)
(142.632 -30.7365 3.58344e-15)
(140.036 -29.7688 3.7112e-15)
(96.417 37.6885 0)
(131.742 40.8215 -1.20039e-17)
(141.013 38.5434 -1.25162e-14)
(143.751 39.3137 0)
(145.652 40.5809 0)
(146.899 41.529 1.14652e-14)
(147.88 42.1576 0)
(148.647 42.67 -1.00278e-14)
(149.086 43.0561 9.7509e-15)
(149.172 43.3339 0)
(148.929 43.4916 9.77684e-15)
(148.412 43.5572 -9.92725e-15)
(147.725 43.542 0)
(146.961 43.4993 0)
(146.247 43.4362 0)
(145.614 43.4172 -2.11177e-14)
(145.177 43.4359 0)
(144.897 43.5206 -1.07877e-14)
(144.851 43.6405 1.09066e-14)
(144.948 43.8465 1.10155e-14)
(145.31 44.0726 -1.11487e-14)
(145.774 44.4068 1.12658e-14)
(146.571 44.764 0)
(147.445 45.2313 0)
(148.718 45.7121 -1.1671e-14)
(150.018 46.344 0)
(151.856 46.9631 0)
(153.615 47.7875 0)
(156.136 48.5802 0)
(158.407 49.6182 0)
(161.763 50.6169 0)
(164.568 51.9257 0)
(168.984 53.1808 -1.1198e-18)
(172.337 54.7881 -1.14269e-14)
(178.063 56.3354 -1.12996e-14)
(181.916 58.2887 1.09162e-14)
(189.346 60.2112 -2.1421e-14)
(193.609 62.5339 1.01959e-14)
(203.269 64.9508 9.95905e-15)
(207.75 67.6921 0)
(220.496 70.7736 0)
(224.689 73.9155 8.03402e-15)
(241.585 77.8947 -2.31456e-18)
(244.367 81.2997 6.41872e-15)
(266.911 86.5951 -6.30652e-15)
(268.887 90.4302 0)
(299.248 97.9366 0)
(302.302 102.556 1.94059e-15)
(341.694 112.662 0)
(346.415 118.254 -1.23934e-16)
(405.392 134.38 0)
(408.847 139.262 -4.92974e-15)
(567.085 197.238 0)
(644.741 -10.2763 8.27009e-16)
(439.975 -92.3104 0)
(353.466 -74.3473 0)
(311.346 -67.5471 2.00269e-16)
(304.527 -64.3296 4.73775e-16)
(283.561 -61.5159 -2.29839e-16)
(280.181 -59.2379 -1.12828e-16)
(262.096 -56.6533 0)
(256.23 -54.24 -1.64234e-16)
(240.409 -51.8299 0)
(233.885 -49.6086 3.75279e-16)
(221.298 -47.6135 -5.51689e-16)
(215.826 -45.9139 -5.2081e-16)
(207.869 -44.7113 6.33118e-16)
(205.599 -43.9109 -6.48407e-16)
(202.304 -43.5187 0)
(201.691 -43.1533 -1.62702e-15)
(199.346 -42.8304 -1.45805e-19)
(197.691 -42.2822 0)
(194.609 -41.7342 0)
(191.864 -41.0161 0)
(188.43 -40.3574 0)
(185.346 -39.6194 1.14927e-19)
(182.001 -38.9542 0)
(178.971 -38.2515 -1.63437e-15)
(175.871 -37.6277 1.70349e-15)
(173.04 -37.0104 0)
(170.363 -36.4691 0)
(168.253 -36.0369 -1.68965e-15)
(166.626 -35.7219 0)
(165.61 -35.5266 0)
(164.724 -35.3333 -1.47007e-15)
(163.994 -35.1793 0)
(163.032 -34.9265 0)
(162.129 -34.7521 0)
(160.89 -34.4395 1.53956e-15)
(159.86 -34.2515 -1.59456e-15)
(158.457 -33.8839 0)
(157.454 -33.738 0)
(155.902 -33.3008 -1.80409e-15)
(155.029 -33.2367 0)
(153.259 -32.67 3.93191e-15)
(152.634 -32.767 0)
(150.391 -31.9731 -2.13472e-15)
(150.18 -32.3494 0)
(147.539 -31.1966 -2.30852e-15)
(99.0054 17.52 0)
(127.184 30.0754 2.51229e-14)
(137.052 36.0086 2.11366e-14)
(141.589 39.239 0)
(144.779 40.6893 0)
(146.728 41.5633 7.67124e-15)
(148.116 42.2454 -6.90287e-15)
(149.206 42.8571 6.44828e-15)
(149.978 43.3441 -1.25162e-14)
(150.429 43.7352 6.25844e-15)
(150.579 44.0117 0)
(150.468 44.2022 0)
(150.181 44.3068 0)
(149.79 44.3782 0)
(149.41 44.4136 0)
(149.066 44.4824 7.37876e-15)
(148.871 44.5711 7.53972e-15)
(148.795 44.7197 7.69058e-15)
(148.927 44.8898 -7.84348e-15)
(149.188 45.1495 0)
(149.71 45.4197 3.21298e-19)
(150.336 45.8097 -3.75817e-19)
(151.302 46.2125 0)
(152.35 46.7434 -8.71535e-15)
(153.812 47.2726 8.91998e-15)
(155.305 47.9787 -9.08874e-15)
(157.351 48.6481 0)
(159.319 49.5581 0)
(162.066 50.4 0)
(164.557 51.5359 9.64061e-15)
(168.143 52.5749 -9.79584e-15)
(171.186 54.0016 9.72873e-15)
(175.839 55.2828 -8.6337e-19)
(179.461 57.0381 0)
(185.439 58.5937 9.62332e-15)
(189.602 60.7361 9.38327e-15)
(197.3 62.641 1.15077e-18)
(201.929 65.2086 0)
(211.879 67.5729 0)
(216.807 70.6368 0)
(229.864 73.6178 -7.98878e-15)
(234.632 77.1923 -7.16747e-15)
(251.875 81.022 -1.40464e-14)
(255.52 85.0312 5.66664e-15)
(278.487 90.198 5.19439e-15)
(281.788 94.7848 3.26127e-15)
(311.235 101.77 0)
(315.014 106.865 -1.39404e-15)
(352.517 116.183 0)
(358.64 122.418 0)
(416.355 138.081 0)
(422.504 143.759 -2.97859e-18)
(574.644 200.53 0)
(664.899 -9.30811 -6.4002e-16)
(473.209 -97.4339 0)
(380.185 -79.1555 8.51514e-16)
(330.848 -71.4447 -7.62794e-17)
(320.022 -67.3112 -3.48087e-16)
(296.968 -64.2126 -1.65522e-16)
(292.26 -61.5572 7.97491e-17)
(273.258 -58.8504 -2.38849e-16)
(266.595 -56.1996 -1.13731e-16)
(250.12 -53.7084 -3.15797e-16)
(242.943 -51.3135 -2.57494e-16)
(229.863 -49.2638 0)
(223.98 -47.4746 3.55367e-16)
(215.844 -46.2892 0)
(213.47 -45.4801 -4.44485e-16)
(210.118 -45.1114 0)
(209.418 -44.7197 9.67474e-20)
(206.942 -44.3755 -1.29473e-15)
(205.154 -43.7806 0)
(201.931 -43.2032 8.00393e-16)
(199.069 -42.4483 8.74302e-16)
(195.524 -41.7697 0)
(192.352 -41.0079 1.02574e-15)
(188.924 -40.3296 0)
(185.824 -39.6102 0)
(182.655 -38.9756 -2.4121e-15)
(179.756 -38.3459 0)
(176.998 -37.7952 0)
(174.763 -37.3473 0)
(172.935 -37.0011 -1.10175e-15)
(171.63 -36.7543 0)
(170.427 -36.4955 0)
(169.391 -36.2791 -9.79993e-16)
(168.185 -35.9699 9.85935e-16)
(167.087 -35.7561 0)
(165.722 -35.4101 0)
(164.588 -35.2066 1.07961e-15)
(163.14 -34.8198 0)
(162.084 -34.6749 -1.17572e-15)
(160.54 -34.2225 0)
(159.634 -34.1734 0)
(157.899 -33.5833 -2.70589e-15)
(157.252 -33.7148 1.40715e-15)
(155.073 -32.8758 0)
(154.833 -33.3281 -1.53421e-15)
(152.241 -32.0791 0)
(103.847 22.5953 0)
(126.976 34.1253 -1.62477e-14)
(134.739 36.1435 -6.61462e-15)
(139.021 38.4543 -6.1446e-15)
(142.694 40.0038 0)
(145.236 41.102 -4.9537e-15)
(147.114 41.9513 4.53835e-15)
(148.574 42.678 -4.28893e-15)
(149.64 43.2529 4.18651e-15)
(150.345 43.7249 -2.19435e-19)
(150.732 44.0758 0)
(150.851 44.3398 0)
(150.79 44.5134 0)
(150.619 44.6524 0)
(150.449 44.7491 0)
(150.303 44.8772 5.08554e-15)
(150.29 45.0169 -1.68879e-19)
(150.383 45.2164 -5.37946e-15)
(150.673 45.429 5.52985e-15)
(151.087 45.7356 0)
(151.757 46.045 5.85963e-15)
(152.538 46.4842 -2.82837e-19)
(153.656 46.9265 6.23865e-15)
(154.871 47.5132 1.28828e-14)
(156.496 48.0834 -6.65982e-15)
(158.174 48.8552 6.86968e-15)
(160.397 49.5667 0)
(162.572 50.5546 0)
(165.508 51.4367 -7.51779e-15)
(168.228 52.6657 -1.53361e-14)
(172.007 53.7362 7.88093e-15)
(175.302 55.2754 -7.94816e-15)
(180.145 56.5724 -8.1112e-15)
(184.048 58.4677 0)
(190.212 60.0163 0)
(194.696 62.3372 -1.61229e-14)
(202.571 64.2019 8.02637e-15)
(207.575 67.0012 7.80734e-15)
(217.688 69.2789 -7.6969e-15)
(223.069 72.6502 0)
(236.268 75.4825 7.15494e-15)
(241.621 79.4752 0)
(258.995 83.098 1.45208e-18)
(263.576 87.7095 -4.9878e-15)
(286.59 92.6633 -1.25835e-18)
(291.006 97.8671 -5.01719e-15)
(318.977 104.166 2.15794e-15)
(323.117 109.547 0)
(358.884 118.129 0)
(365.893 124.773 0)
(422.451 139.972 0)
(430.448 146.099 -2.0979e-18)
(578.137 201.564 0)
(673.969 -8.46964 -4.29838e-16)
(496.876 -100.923 4.1812e-16)
(402.505 -83.0545 -7.21024e-16)
(347.628 -74.7327 0)
(333.079 -69.7865 0)
(307.998 -66.4178 1.31609e-16)
(301.982 -63.3992 -6.23482e-17)
(282.153 -60.5873 1.85579e-16)
(274.789 -57.7251 1.74585e-16)
(257.787 -55.1752 2.42676e-16)
(250.091 -52.6383 1.96231e-16)
(236.654 -50.5605 2.88819e-16)
(230.495 -48.7134 -2.70927e-16)
(222.278 -47.5635 -3.32365e-16)
(219.852 -46.7582 7.42719e-20)
(216.456 -46.4113 0)
(215.646 -45.9879 4.35663e-16)
(213.014 -45.6132 6.61147e-20)
(211.054 -44.9632 0)
(207.661 -44.3478 -1.24139e-15)
(204.653 -43.5499 -6.77376e-16)
(200.979 -42.8459 0)
(197.704 -42.0572 0)
(194.189 -41.3637 0)
(191.018 -40.6274 0)
(187.787 -39.9828 4.71359e-20)
(184.833 -39.3432 0)
(182.014 -38.7865 0)
(179.683 -38.3275 0)
(177.691 -37.9562 1.65863e-15)
(176.149 -37.6666 0)
(174.684 -37.3545 0)
(173.399 -37.0871 2.90814e-20)
(171.994 -36.7327 -7.35999e-16)
(170.734 -36.4861 0)
(169.261 -36.113 -7.78049e-16)
(168.038 -35.8948 0)
(166.545 -35.4924 0)
(165.439 -35.3446 1.96338e-20)
(163.89 -34.8805 0)
(162.952 -34.8381 0)
(161.234 -34.232 4.34301e-20)
(160.56 -34.3819 -1.06678e-15)
(158.424 -33.5142 0)
(158.149 -34.0116 -2.14636e-20)
(155.597 -32.6995 0)
(103.629 22.5864 0)
(125.856 33.9168 8.72271e-15)
(133.109 35.2668 0)
(137.159 37.791 3.83582e-15)
(140.938 39.4404 0)
(143.769 40.6276 3.39159e-15)
(145.962 41.5764 0)
(147.695 42.3938 3.0817e-15)
(148.983 43.0433 -3.03262e-15)
(149.871 43.58 -3.04659e-15)
(150.413 43.9853 -3.10802e-15)
(150.672 44.2979 0)
(150.741 44.5137 0)
(150.696 44.6919 0)
(150.647 44.8237 0)
(150.62 44.9863 -3.65524e-15)
(150.723 45.1568 -3.76807e-15)
(150.932 45.3888 3.88514e-15)
(151.334 45.6299 4.0085e-15)
(151.862 45.9689 0)
(152.644 46.3063 0)
(153.542 46.7804 -8.89273e-15)
(154.776 47.251 -9.23272e-15)
(156.117 47.8778 -4.79746e-15)
(157.867 48.4775 0)
(159.686 49.2972 5.18722e-15)
(162.044 50.0392 0)
(164.378 51.0858 0)
(167.461 51.9976 5.81728e-15)
(170.366 53.2998 6.0034e-15)
(174.297 54.3952 -6.22223e-15)
(177.806 56.0264 0)
(182.801 57.3363 0)
(186.952 59.3497 0)
(193.265 60.8916 0)
(198.039 63.3665 6.79291e-15)
(206.052 65.1933 0)
(211.4 68.1964 -6.75063e-15)
(221.63 70.3904 9.47843e-19)
(227.427 74.035 6.45282e-15)
(240.711 76.7227 -6.32689e-15)
(246.603 81.0905 0)
(264.036 84.5215 5.4345e-15)
(269.511 89.6749 0)
(292.273 94.365 -9.48869e-19)
(297.365 99.9573 1.83942e-15)
(323.941 105.636 -1.52797e-15)
(328.239 111.174 0)
(362.824 119.228 9.79394e-16)
(370.382 126.115 0)
(426.173 140.976 6.87353e-16)
(435.406 147.302 7.73644e-16)
(580.158 201.62 -1.60432e-16)
(677.594 -8.04752 2.86201e-16)
(512.959 -102.894 -2.18478e-18)
(420.974 -86.1033 0)
(362.353 -77.5314 0)
(344.564 -71.9123 0)
(317.58 -68.2946 0)
(310.302 -64.9434 5.15191e-17)
(289.715 -62.0331 1.52852e-16)
(281.718 -58.9858 -1.42495e-16)
(264.274 -56.3875 0)
(256.145 -53.7349 -3.19251e-16)
(242.442 -51.6434 -2.35656e-16)
(236.089 -49.7622 4.41945e-16)
(227.846 -48.6567 2.72553e-16)
(225.395 -47.8634 6.11736e-20)
(221.952 -47.5342 0)
(221.014 -47.0758 -3.59658e-16)
(218.205 -46.6636 4.14873e-16)
(216.046 -45.9541 0)
(212.462 -45.2954 4.7746e-20)
(209.289 -44.4517 0)
(205.473 -43.7191 0)
(202.086 -42.9024 -6.51992e-16)
(198.478 -42.1923 0)
(195.234 -41.4392 0)
(191.943 -40.7846 7.62876e-16)
(188.938 -40.1362 0)
(186.066 -39.5745 0)
(183.651 -39.1054 0)
(181.516 -38.7117 -6.6112e-16)
(179.77 -38.3852 0)
(178.087 -38.029 0)
(176.597 -37.72 5.81311e-16)
(175.026 -37.3293 5.86038e-16)
(173.632 -37.0557 0)
(172.066 -36.6605 6.21576e-16)
(170.766 -36.4294 0)
(169.23 -36.0139 0)
(168.078 -35.8624 7.09588e-16)
(166.516 -35.3881 0)
(165.548 -35.3489 0)
(163.835 -34.7299 8.21249e-16)
(163.134 -34.8909 0)
(161.024 -34.001 0)
(160.714 -34.5294 9.43583e-16)
(158.186 -33.1687 0)
(103.559 21.6601 0)
(124.7 33.2321 -2.59079e-15)
(131.686 34.5881 0)
(135.694 37.2472 0)
(139.51 38.9302 0)
(142.483 40.1723 -2.64779e-19)
(144.866 41.192 2.41448e-15)
(146.788 42.0807 2.36305e-15)
(148.241 42.7926 2.34583e-15)
(149.265 43.3835 0)
(149.92 43.8327 2.40588e-15)
(150.274 44.1823 0)
(150.427 44.4273 0)
(150.459 44.631 2.62022e-15)
(150.486 44.7842 2.69933e-15)
(150.536 44.9677 0)
(150.717 45.1569 0)
(151.006 45.4095 0)
(151.49 45.6691 -3.0497e-15)
(152.101 46.0301 0)
(152.968 46.3864 0)
(153.954 46.8844 6.80309e-15)
(155.275 47.374 7.0788e-15)
(156.709 48.0283 0)
(158.55 48.6474 0)
(160.471 49.4999 -2.60739e-19)
(162.927 50.2618 0)
(165.377 51.3489 0)
(168.565 52.2802 0)
(171.604 53.6345 0)
(175.649 54.7463 4.91084e-15)
(179.316 56.4455 0)
(184.429 57.7638 0)
(188.768 59.8674 5.37618e-15)
(195.198 61.4028 0)
(200.202 63.9999 0)
(208.324 65.795 0)
(213.957 68.9652 5.70112e-15)
(224.278 71.0879 1.13707e-14)
(230.432 74.9624 -5.57283e-15)
(243.776 77.5259 5.44411e-15)
(250.144 82.2146 0)
(267.6 85.4886 0)
(273.849 91.0837 0)
(296.164 95.4782 -7.04836e-19)
(301.581 101.28 0)
(327.153 106.51 1.10327e-15)
(331.552 112.145 -5.01153e-16)
(365.412 119.846 -1.45974e-15)
(373.346 126.879 0)
(428.658 141.502 -5.16894e-16)
(438.775 147.873 0)
(581.495 201.209 1.21147e-16)
(679.047 -7.68055 1.98334e-16)
(523.52 -103.753 -2.66001e-16)
(435.98 -88.4338 0)
(375.252 -79.9052 -4.76627e-17)
(354.826 -73.7613 0)
(326.12 -69.9287 0)
(317.659 -66.279 0)
(296.377 -63.2782 -6.6432e-20)
(287.804 -60.068 1.21084e-16)
(269.981 -57.4289 -1.68874e-16)
(261.484 -54.6809 2.70857e-16)
(247.58 -52.5862 2.00531e-16)
(241.092 -50.6881 -3.7647e-16)
(232.856 -49.6318 -2.33273e-16)
(230.39 -48.8543 4.8155e-16)
(226.892 -48.5379 0)
(225.807 -48.0409 5.02289e-20)
(222.802 -47.5854 0)
(220.427 -46.8136 -3.92468e-16)
(216.638 -46.1078 4.39547e-16)
(213.287 -45.2171 -4.77569e-16)
(209.323 -44.4541 -5.20176e-16)
(205.817 -43.6093 3.84915e-20)
(202.115 -42.8819 0)
(198.797 -42.1126 6.23705e-16)
(195.445 -41.4481 0)
(192.392 -40.7914 0)
(189.469 -40.2248 0)
(186.975 -39.7454 0)
(184.709 -39.3307 0)
(182.787 -38.9719 0)
(180.919 -38.5787 0)
(179.257 -38.2356 0)
(177.547 -37.8152 -4.87559e-16)
(176.039 -37.5195 0)
(174.394 -37.106 0)
(173.026 -36.8639 0)
(171.448 -36.437 0)
(170.255 -36.2816 0)
(168.676 -35.7982 0)
(167.679 -35.7604 0)
(165.965 -35.1303 0)
(165.237 -35.2984 0)
(163.141 -34.3899 0)
(162.799 -34.9414 0)
(160.282 -33.5401 0)
(103.466 20.9278 0)
(123.636 32.4864 -1.76348e-15)
(130.425 33.9823 0)
(134.46 36.7435 0)
(138.297 38.4563 1.94526e-15)
(141.351 39.7437 -3.87276e-15)
(143.856 40.8176 -1.91473e-15)
(145.911 41.7636 -1.54199e-19)
(147.485 42.528 0)
(148.612 43.1653 0)
(149.352 43.6518 -1.95513e-15)
(149.774 44.0315 -2.00067e-15)
(149.986 44.2991 2.05248e-15)
(150.071 44.5208 -2.10731e-15)
(150.15 44.6882 -2.16378e-15)
(150.255 44.8854 0)
(150.494 45.0866 0)
(150.843 45.3531 0)
(151.39 45.6255 0)
(152.068 46.0017 0)
(153.001 46.3713 0)
(154.057 46.8863 -1.33513e-19)
(155.447 47.3889 -2.82678e-15)
(156.952 48.0624 0)
(158.864 48.6945 -3.07241e-15)
(160.861 49.5695 -6.40932e-15)
(163.392 50.3443 -3.34465e-15)
(165.926 51.4592 -3.48626e-15)
(169.193 52.4025 -3.63679e-15)
(172.328 53.793 3.78168e-15)
(176.458 54.9145 -3.94033e-15)
(180.238 56.6619 -4.07787e-15)
(185.438 57.9839 -4.2376e-15)
(189.913 60.1533 -8.71564e-15)
(196.432 61.6813 0)
(201.604 64.3704 4.59349e-15)
(209.811 66.1385 0)
(215.658 69.4386 -4.73711e-15)
(226.051 71.503 -4.735e-15)
(232.485 75.5616 0)
(245.876 78.0248 4.55136e-15)
(252.642 82.9757 0)
(270.104 86.1266 0)
(276.931 92.0397 0)
(298.794 96.1621 -1.64835e-15)
(304.359 102.081 0)
(329.301 107.016 -1.65428e-15)
(333.788 112.723 4.93912e-19)
(367.212 120.182 1.13824e-15)
(375.431 127.307 -2.02828e-17)
(430.441 141.756 0)
(441.242 148.082 -4.48278e-16)
(582.448 200.561 9.62094e-17)
(679.642 -7.33996 -1.47955e-16)
(530.442 -103.949 -2.04625e-16)
(447.975 -90.1613 0)
(386.44 -81.8908 4.24249e-17)
(364.025 -75.3696 0)
(333.82 -71.3659 0)
(324.281 -67.4533 3.90032e-17)
(302.371 -64.3724 -2.29871e-16)
(293.278 -61.0187 -5.69361e-20)
(275.128 -58.3461 4.75103e-20)
(266.315 -55.519 -1.18351e-16)
(252.261 -53.4298 -1.75844e-16)
(245.679 -51.5273 1.65291e-16)
(237.47 -50.5228 4.11515e-16)
(234.99 -49.7621 -4.73259e-20)
(231.424 -49.4532 0)
(230.175 -48.9137 2.74341e-16)
(226.958 -48.4099 3.16351e-16)
(224.352 -47.5734 6.93757e-16)
(220.349 -46.8182 -3.87759e-16)
(216.813 -45.8801 4.20346e-16)
(212.697 -45.0861 3.14473e-20)
(209.071 -44.2136 4.87949e-16)
(205.274 -43.4692 0)
(201.882 -42.6843 -1.09035e-15)
(198.472 -42.0103 0)
(195.37 -41.3457 5.69359e-16)
(192.398 -40.7737 0)
(189.826 -40.2837 0)
(187.439 -39.8489 -4.67495e-16)
(185.362 -39.4616 0)
(183.336 -39.0372 0)
(181.529 -38.666 4.13284e-16)
(179.702 -38.2213 -4.18565e-16)
(178.097 -37.9071 0)
(176.382 -37.4783 -4.47225e-16)
(174.954 -37.2268 0)
(173.338 -36.7901 0)
(172.106 -36.6308 0)
(170.508 -36.1393 0)
(169.483 -36.1017 0)
(167.763 -35.4617 5.96537e-16)
(167.009 -35.6343 6.26326e-16)
(164.92 -34.7095 0)
(164.547 -35.2789 -6.88734e-16)
(162.032 -33.8425 0)
(103.349 20.2384 0)
(122.659 31.6983 2.6509e-15)
(129.281 33.4077 0)
(133.369 36.2664 0)
(137.226 38.0109 -1.54831e-15)
(140.335 39.3392 1.56981e-15)
(142.926 40.4575 -1.57593e-15)
(145.075 41.451 -1.30091e-19)
(146.741 42.2603 0)
(147.946 42.938 0)
(148.75 43.457 1.64579e-15)
(149.223 43.8622 1.68121e-15)
(149.477 44.1482 -1.72002e-15)
(149.601 44.3836 0)
(149.719 44.5611 -1.80307e-15)
(149.865 44.7677 0)
(150.15 44.9772 0)
(150.549 45.2536 0)
(151.149 45.5352 0)
(151.882 45.9228 -2.08789e-15)
(152.872 46.3023 0)
(153.985 46.8299 -4.50117e-15)
(155.433 47.3419 -2.34204e-15)
(156.997 48.0295 2.43904e-15)
(158.968 48.6706 2.54262e-15)
(161.025 49.5618 2.64945e-15)
(163.616 50.345 5.52553e-15)
(166.215 51.4796 2.87659e-15)
(169.545 52.4301 5.99542e-15)
(172.752 53.8463 -3.1142e-15)
(176.947 54.9728 6.48335e-15)
(180.809 56.7548 3.35386e-15)
(186.078 58.0769 3.15055e-19)
(190.65 60.2942 3.58391e-15)
(197.238 61.8137 -3.68969e-15)
(202.53 64.5708 -7.57182e-15)
(210.804 66.3153 0)
(216.804 69.714 0)
(227.256 71.7304 3.91916e-15)
(233.897 75.9316 3.90036e-15)
(247.331 78.3162 -3.73812e-15)
(254.406 83.4721 -3.43132e-15)
(271.875 86.5263 0)
(279.083 92.6467 0)
(300.604 96.5593 0)
(306.244 102.554 0)
(330.804 107.299 6.4647e-16)
(335.373 113.061 2.98222e-16)
(368.531 120.348 -4.62063e-16)
(376.982 127.53 3.22886e-17)
(431.796 141.845 0)
(443.159 148.072 7.29336e-16)
(583.157 199.78 -1.60388e-16)
(679.863 -7.03496 1.15527e-16)
(535.123 -103.784 1.15849e-18)
(457.463 -91.3954 0)
(396.034 -83.522 0)
(372.248 -76.7593 0)
(340.796 -72.6325 -7.58522e-17)
(330.305 -68.4946 -3.48623e-17)
(307.835 -65.3456 1.02836e-16)
(298.277 -61.8663 -9.42823e-17)
(279.846 -59.1673 4.16602e-20)
(270.764 -56.2749 0)
(256.599 -54.1984 -1.57486e-16)
(249.954 -52.3011 -1.4831e-16)
(241.783 -51.3493 -1.85453e-16)
(239.284 -50.6047 -1.92151e-16)
(235.635 -50.2976 2.28372e-16)
(234.203 -49.7114 0)
(230.76 -49.1549 -5.71668e-16)
(227.913 -48.2522 -6.25408e-16)
(223.69 -47.4462 3.4891e-16)
(219.965 -46.4611 0)
(215.696 -45.6363 4.09458e-16)
(211.951 -44.7371 0)
(208.061 -43.9762 0)
(204.597 -43.1766 2.78063e-20)
(201.131 -42.4937 0)
(197.982 -41.8215 -2.38387e-20)
(194.959 -41.2437 0)
(192.312 -40.7427 -4.47485e-16)
(189.813 -40.2888 4.0756e-16)
(187.599 -39.8763 -3.79052e-16)
(185.437 -39.4256 0)
(183.507 -39.0311 -3.62421e-16)
(181.58 -38.5662 1.41666e-20)
(179.891 -38.2368 0)
(178.112 -37.795 7.8925e-16)
(176.632 -37.5353 -4.13061e-16)
(174.979 -37.0899 0)
(173.711 -36.9269 -4.55295e-16)
(172.093 -36.428 -4.78207e-16)
(171.041 -36.3899 0)
(169.312 -35.7409 -5.28536e-16)
(168.532 -35.9163 1.15622e-21)
(166.444 -34.9768 0)
(166.044 -35.5605 6.11033e-16)
(163.523 -34.093 -6.4047e-16)
(103.227 19.5659 0)
(121.746 30.9036 -3.5456e-19)
(128.222 32.8555 0)
(132.375 35.8097 0)
(136.255 37.5872 0)
(139.408 38.9543 0)
(142.063 40.1112 1.27356e-19)
(144.283 41.1456 -1.35241e-15)
(146.017 41.9942 -1.37178e-15)
(147.281 42.7075 0)
(148.133 43.2551 0)
(148.643 43.6826 0)
(148.929 43.9839 -1.48194e-15)
(149.081 44.2301 1.51382e-15)
(149.229 44.4152 1.54758e-15)
(149.41 44.6286 0)
(149.734 44.844 0)
(150.176 45.1279 0)
(150.823 45.4165 0)
(151.604 45.8131 7.46216e-20)
(152.644 46.2003 1.85177e-15)
(153.808 46.7377 3.84661e-15)
(155.306 47.2569 9.53232e-20)
(156.921 47.9552 -4.16281e-15)
(158.942 48.6029 2.16767e-15)
(161.051 49.5062 0)
(163.693 50.2952 -4.69857e-15)
(166.346 51.4444 2.44155e-15)
(169.728 52.3991 -1.75718e-19)
(172.992 53.8343 0)
(177.242 54.9629 -2.73714e-15)
(181.168 56.7702 0)
(186.492 58.0903 2.93145e-15)
(191.136 60.3431 -3.00812e-15)
(197.781 61.8534 3.09485e-15)
(203.16 64.6615 3.16839e-15)
(211.489 66.3847 0)
(217.6 69.8579 0)
(228.103 71.8345 -6.52839e-15)
(234.892 76.1448 -3.23461e-15)
(248.371 78.4682 3.05566e-15)
(255.679 83.7799 1.04404e-18)
(273.164 86.7571 2.0941e-15)
(280.609 93.0086 0)
(301.901 96.7746 9.2349e-16)
(307.586 102.827 5.43629e-16)
(331.905 107.445 -5.24949e-16)
(336.549 113.248 0)
(369.537 120.403 0)
(378.187 127.62 -2.62027e-17)
(432.87 141.829 0)
(444.718 147.92 -6.14822e-16)
(583.697 198.918 6.90143e-17)
(679.898 -6.75923 -9.51593e-17)
(538.451 -103.425 1.29803e-16)
(464.945 -92.2409 0)
(404.178 -84.8373 0)
(379.563 -77.9488 0)
(347.124 -73.7473 6.8765e-17)
(335.817 -69.4213 0)
(312.86 -66.2178 9.32096e-17)
(302.892 -62.6295 8.53075e-17)
(284.221 -59.9109 1.19988e-16)
(274.91 -56.9652 0)
(260.667 -54.9076 1.43446e-16)
(253.983 -53.0231 1.3539e-16)
(245.854 -52.1236 0)
(243.326 -51.393 1.7626e-16)
(239.577 -51.0817 -3.51998e-20)
(237.947 -50.4449 0)
(234.264 -49.8319 3.14347e-20)
(231.168 -48.8619 5.72153e-16)
(226.721 -48.0045 3.18516e-16)
(222.808 -46.9733 -3.43593e-16)
(218.388 -46.1184 0)
(214.526 -45.194 0)
(210.546 -44.4175 0)
(207.014 -43.6045 4.39911e-16)
(203.493 -42.9131 0)
(200.298 -42.2337 -4.5355e-16)
(197.225 -41.6498 -4.33785e-16)
(194.503 -41.1374 3.97803e-16)
(191.902 -40.6656 0)
(189.567 -40.231 3.36656e-16)
(187.288 -39.758 0)
(185.252 -39.3442 3.23729e-16)
(183.237 -38.8625 3.29517e-16)
(181.474 -38.5201 -3.40597e-16)
(179.64 -38.0672 -3.54645e-16)
(178.11 -37.8004 3.71709e-16)
(176.423 -37.3473 -3.89895e-16)
(175.121 -37.1809 4.10399e-16)
(173.483 -36.675 4.31165e-16)
(172.405 -36.636 0)
(170.664 -35.9785 0)
(169.86 -36.1556 -5.01455e-16)
(167.769 -35.2026 0)
(167.343 -35.7981 0)
(164.811 -34.3023 5.77671e-16)
(103.106 18.9152 0)
(120.883 30.1217 -1.78748e-15)
(127.228 32.3224 0)
(131.452 35.3684 0)
(135.357 37.1798 0)
(138.55 38.585 0)
(141.256 39.7769 2.31116e-15)
(143.53 40.8479 0)
(145.315 41.7315 8.20979e-20)
(146.623 42.4766 0)
(147.51 43.0499 0)
(148.048 43.4969 0)
(148.356 43.8113 1.30422e-15)
(148.529 44.0663 -1.33058e-15)
(148.702 44.257 1.35869e-15)
(148.912 44.4756 1.38989e-15)
(149.271 44.6952 0)
(149.752 44.985 0)
(150.441 45.2793 0)
(151.266 45.6831 1.56494e-15)
(152.352 46.0767 -1.62252e-15)
(153.562 46.6221 -3.36862e-15)
(155.106 47.1469 3.50194e-15)
(156.766 47.854 1.82019e-15)
(158.833 48.5067 -3.78781e-15)
(160.987 49.4195 0)
(163.675 50.2126 4.09401e-15)
(166.374 51.3729 -2.1236e-15)
(169.802 52.3301 -2.20603e-15)
(173.114 53.7797 0)
(177.411 54.9088 -2.36633e-15)
(181.389 56.7355 0)
(186.761 58.0522 2.5226e-15)
(191.464 60.3321 2.58063e-15)
(198.157 61.833 0)
(203.602 64.68 0)
(211.979 66.3839 2.74254e-15)
(218.171 69.9146 0)
(228.721 71.8572 2.75478e-15)
(235.62 76.2516 -2.70146e-15)
(249.146 78.5268 -5.02812e-15)
(256.632 83.9561 2.19094e-15)
(274.141 86.8718 -1.62238e-15)
(281.734 93.209 1.05785e-15)
(302.875 96.8753 -7.34296e-16)
(308.588 102.974 -4.38787e-16)
(332.745 107.501 4.41203e-16)
(337.457 113.337 0)
(370.333 120.386 0)
(379.16 127.62 2.18447e-17)
(433.751 141.74 0)
(446.032 147.674 2.66088e-16)
(584.114 198.002 6.05819e-17)
(679.83 -6.50467 0)
(540.949 -102.958 0)
(470.871 -92.7905 3.10643e-16)
(411.044 -85.8789 3.00692e-17)
(386.04 -78.9564 0)
(352.863 -74.7253 6.27118e-17)
(340.88 -70.2475 -2.89779e-17)
(317.509 -67.0031 -1.70884e-16)
(307.183 -63.3215 -3.90712e-17)
(288.312 -60.5901 1.10202e-16)
(278.809 -57.6017 0)
(264.516 -55.5684 0)
(257.81 -53.7022 -1.25144e-16)
(249.722 -52.8535 1.57571e-16)
(247.153 -52.1339 -1.63778e-16)
(243.285 -51.8126 -1.95136e-16)
(241.441 -51.1212 -2.11472e-16)
(237.507 -50.4485 2.43115e-16)
(234.157 -49.4107 -5.29361e-16)
(229.484 -48.5017 -2.941e-16)
(225.385 -47.426 3.16542e-16)
(220.818 -46.5422 0)
(216.844 -45.5943 0)
(212.778 -44.8035 0)
(209.18 -43.9782 4.02931e-16)
(205.608 -43.2791 0)
(202.369 -42.593 0)
(199.246 -42.0026 3.92708e-16)
(196.453 -41.4789 3.5836e-16)
(193.756 -40.9904 0)
(191.314 -40.5364 0)
(188.934 -40.0446 0)
(186.806 -39.6146 -5.87052e-16)
(184.714 -39.1187 -2.9947e-16)
(182.885 -38.7653 6.20323e-16)
(181 -38.3027 0)
(179.426 -38.0298 3.39356e-16)
(177.705 -37.5698 3.56235e-16)
(176.372 -37.3999 0)
(174.712 -36.8876 0)
(173.608 -36.8473 0)
(171.854 -36.1819 0)
(171.027 -36.3598 0)
(168.929 -35.3943 0)
(168.479 -35.9995 0)
(165.932 -34.4778 5.28404e-16)
(102.988 18.2893 0)
(120.062 29.3592 1.54986e-15)
(126.287 31.8054 0)
(130.582 34.9387 8.97989e-16)
(134.516 36.785 -9.47146e-16)
(137.747 38.2281 0)
(140.495 39.4531 -9.86698e-20)
(142.812 40.5575 0)
(144.635 41.473 7.35697e-20)
(145.976 42.2471 -1.09681e-15)
(146.887 42.8434 -1.12098e-15)
(147.443 43.3078 0)
(147.767 43.6334 1.16689e-15)
(147.957 43.8955 0)
(148.151 44.0906 -1.2143e-15)
(148.387 44.313 -1.24181e-15)
(148.777 44.5359 -1.27359e-15)