/*--------------------------------*- C++ -*----------------------------------*\
| =========                 |                                                 |
| \\      /  F ield         | OpenFOAM: The Open Source CFD Toolbox           |
|  \\    /   O peration     | Version:  2412                                  |
|   \\  /    A nd           | Website:  www.openfoam.com                      |
|    \\/     M anipulation  |                                                 |
\*---------------------------------------------------------------------------*/
FoamFile
{
    version     2.0;
    format      ascii;
    arch        "LSB;label=32;scalar=64";
    class       volScalarField;
    location    "0.9";
    object      k;
}
// * * * * * * * * * * * * * * * * * * * * * * * * * * * * * * * * * * * * * //

dimensions      [0 2 -2 0 0 0 0];

internalField   nonuniform List<scalar> 
13156
(
249.458
262.068
214.618
184.008
169.22
161.613
157.563
155.61
155.171
155.75
156.976
158.448
159.975
161.383
162.693
163.843
165.006
166.111
167.384
168.714
170.412
172.243
174.684
177.252
180.629
184.049
188.557
192.916
198.845
204.268
211.998
218.654
228.618
236.882
249.919
260.142
277.53
290.074
313.667
329.03
361.847
380.575
427.409
450.154
518.797
545.406
647.369
676.041
832.741
863.438
1142.2
1184.59
2159.35
2417.39
1726.01
1303.53
1091.18
946.308
844.072
756.388
687.851
625.381
576.092
530.259
495.253
462.469
437.93
413.756
394.385
373.993
356.106
337.423
320.579
303.782
288.72
274.346
261.585
249.768
239.251
229.556
220.684
212.424
204.531
197.098
189.75
182.868
175.944
169.606
163.097
157.414
151.403
146.521
141.022
137.126
132.111
129.508
124.919
124.123
120.534
854.152
640.588
323.702
191.643
136.118
112.526
104.097
103.608
106.931
111.826
116.95
121.897
126.463
130.787
134.802
138.666
142.14
145.451
148.299
151.044
153.325
155.739
157.695
160.178
162.228
165.223
167.649
171.547
174.472
179.678
183.243
190.206
195.045
204.549
210.791
223.741
231.457
249.349
258.698
283.746
294.765
330.495
343.188
395.182
409.592
487.158
503.709
619.018
638.465
803.489
840.632
1040.53
1056.82
2212.65
2625.13
2081.78
1672.02
1396.58
1250.39
1099.09
1004.89
902.481
838.252
769.248
727.099
681.591
653.722
621.3
598.232
569.85
546.201
518.885
494.89
469.571
447.312
425.338
406.21
387.984
371.977
356.796
342.851
329.338
316.299
303.505
290.882
278.635
266.566
255.094
243.896
233.572
223.504
214.54
205.793
198.368
191.104
185.467
179.813
176.879
172.245
195.058
262.226
170.643
120.302
96.1019
86.3603
84.2566
85.8503
89.0492
92.7028
96.2645
99.4767
102.333
104.886
107.265
109.557
111.839
114.102
116.388
118.64
120.888
123.075
125.253
127.344
129.531
131.667
134.044
136.436
139.245
142.106
145.669
149.26
153.663
158.487
164.053
170.717
177.711
186.967
195.716
208.704
219.493
238.04
251.226
278.397
294.58
335.86
356.805
420.877
448.622
545.937
583.755
738.246
655.494
1187.11
2220.77
2112.21
1851.95
1546.89
1415.72
1234.4
1145.48
1022.69
961.193
880.288
841.027
789.772
764.344
728.704
706.115
674.316
648.906
617.472
590.339
560.733
534.925
509.038
486.519
464.963
445.79
427.536
410.54
393.955
377.817
361.877
346.129
330.761
315.686
301.263
287.328
274.351
261.915
250.655
239.897
230.584
221.559
214.55
207.271
203.703
197.855
76.2483
104.845
99.7621
95.555
93.6076
93.495
94.474
96.0069
97.804
99.5331
101.042
102.209
103.068
103.655
104.095
104.472
104.91
105.437
106.14
106.989
108.02
109.169
110.444
111.75
113.15
114.549
116.059
117.604
119.333
121.174
123.34
125.739
128.396
131.68
135.063
139.726
144.031
150.702
156.105
165.665
172.262
186.051
193.937
214.174
223.636
254.374
266.892
315.359
333.254
409.563
433.89
576.426
532.182
739.703
1797.03
2066.46
1947.06
1662.55
1533.06
1343.62
1249.26
1119.22
1053.18
968.092
926.584
873.663
847.258
810.584
786.642
753.032
725.296
691.227
661.181
628.641
599.877
571.205
545.996
521.961
500.358
479.774
460.449
441.536
423.053
404.755
386.674
369
351.71
335.133
319.195
304.296
290.132
277.22
265.029
254.339
244.204
236.084
228.015
223.665
217.592
64.9871
82.0575
95.5693
103.136
106.885
108.556
109.367
109.906
110.421
110.804
110.991
110.881
110.499
109.861
109.073
108.203
107.382
106.649
106.113
105.764
105.666
105.756
106.055
106.452
106.979
107.53
108.161
108.814
109.551
110.386
111.356
112.6
113.882
115.793
117.537
120.524
122.885
127.498
130.567
137.562
141.323
151.802
156.18
171.918
176.972
201.21
208.062
246.968
258.213
321.412
340.412
469.405
506.72
565.241
1416.6
1949.68
1979.23
1743.61
1620.52
1431.6
1332.05
1198.85
1128.12
1040.97
996.899
943.298
915.6
878.384
853
818.036
788.185
752.02
719.469
684.557
653.305
622.357
594.894
568.792
545.144
522.588
501.279
480.386
459.907
439.617
419.574
399.973
380.841
362.489
344.902
328.435
312.858
298.609
285.26
273.462
262.444
253.438
244.798
239.788
233.639
66.7904
88.6251
104.784
113.506
118.582
121.009
121.877
121.985
121.809
121.405
120.791
119.903
118.768
117.397
115.886
114.293
112.744
111.275
110.004
108.92
108.101
107.477
107.089
106.799
106.659
106.513
106.448
106.339
106.3
106.258
106.326
106.532
106.802
107.477
108.065
109.541
110.587
113.318
114.895
119.519
121.594
129.035
131.511
143.231
146.137
164.786
169.138
199.926
208.827
260.761
281.864
397.225
517.953
533.191
1124.07
1788.03
1959.43
1792.24
1683.69
1501.68
1399.23
1265.41
1191.02
1103
1056.83
1003.08
974.297
936.808
910.17
874.124
842.435
804.506
769.792
732.86
699.46
666.553
637.13
609.213
583.755
559.434
536.342
513.662
491.386
469.309
447.514
426.208
405.454
385.551
366.529
348.708
331.913
316.521
302.181
289.445
277.677
267.929
258.821
253.256
247.062
71.6683
97.2277
113.302
121.984
127.596
130.597
131.789
131.894
131.452
130.633
129.534
128.146
126.516
124.668
122.696
120.657
118.673
116.779
115.088
113.589
112.358
111.315
110.508
109.777
109.189
108.555
107.991
107.318
106.713
106.007
105.422
104.83
104.375
104.086
103.873
104.152
104.317
105.518
106.144
108.779
109.873
114.694
116.233
124.446
126.593
140.393
144.329
168.103
177.726
219.945
247.808
354.133
544.74
566.655
939.77
1612.39
1899.13
1811.3
1725.37
1555.88
1453.4
1321.08
1244.33
1156.4
1108.79
1055.32
1025.78
988.249
960.598
923.693
890.431
850.993
814.398
775.705
740.42
705.783
674.612
645.055
617.944
591.995
567.244
542.899
518.952
495.22
471.813
448.947
426.72
405.418
385.109
366.083
348.208
331.809
316.598
303.043
290.619
280.231
270.712
264.674
258.443
75.6291
104.335
120.089
128.656
134.607
138.085
139.69
140.01
139.559
138.563
137.187
135.475
133.506
131.329
129.041
126.707
124.446
122.296
120.363
118.632
117.17
115.89
114.832
113.827
112.942
111.972
111.053
109.975
108.955
107.767
106.708
105.538
104.564
103.58
102.809
102.227
101.795
101.884
101.899
103.052
103.576
106.383
107.513
112.963
115.098
125.031
129.725
147.888
160.065
194.755
231.456
335.353
578.192
620.221
851.097
1448.95
1811.22
1804.59
1747.7
1595.66
1496.07
1367.23
1289.46
1202.52
1154.14
1101.37
1071.43
1034.09
1005.67
968.112
933.52
892.79
854.554
814.313
777.357
741.168
708.412
677.346
648.694
621.21
594.886
568.96
543.426
518.132
493.212
468.895
445.303
422.719
401.237
381.119
362.27
344.97
328.981
314.7
301.692
290.742
280.855
274.402
268.132
78.8785
110.001
125.429
133.943
140.169
144.055
146.084
146.715
146.399
145.382
143.871
141.958
139.759
137.348
134.838
132.301
129.86
127.553
125.48
123.623
122.036
120.623
119.415
118.233
117.143
115.933
114.748
113.367
112.031
110.483
109.067
107.476
106.114
104.637
103.463
102.282
101.433
100.76
100.367
100.503
100.685
102.094
103.076
106.58
109.037
116.231
122.186
136.402
151.855
181.775
227.148
333.835
614.074
675.991
825.98
1313.86
1709.23
1776.86
1752.86
1622.24
1528.31
1404.79
1327.33
1242.23
1193.77
1142.11
1112.13
1075.2
1046.26
1008.24
972.537
930.71
891.04
849.439
810.991
773.398
739.189
706.716
676.608
647.656
619.819
592.372
565.316
538.531
512.175
486.491
461.625
437.852
415.288
394.173
374.438
356.323
339.634
324.702
311.172
299.721
289.499
282.677
276.359
81.4761
114.44
129.622
138.165
144.648
148.897
151.33
152.306
152.205
151.266
149.717
147.693
145.344
142.772
140.106
137.432
134.874
132.475
130.328
128.41
126.763
125.28
123.98
122.68
121.437
120.046
118.649
117.03
115.438
113.611
111.908
109.998
108.333
106.495
105.013
103.412
102.255
101.067
100.386
99.852
99.8163
100.317
101.271
103.533
106.422
111.919
119.228
131.116
149.78
177.637
230.252
342.505
650.346
729.051
834.823
1213
1605.25
1733.5
1743.25
1636.86
1551.02
1434.47
1358.6
1276.16
1228.27
1178.12
1148.45
1112.16
1082.94
1044.64
1008.03
965.294
924.377
881.582
841.797
802.929
767.376
733.577
702.079
671.711
642.409
613.485
584.958
556.739
529.014
502.034
475.97
451.087
427.522
405.489
384.946
366.09
348.768
333.251
319.249
307.348
296.824
289.665
283.292
83.481
117.851
132.887
141.542
148.287
152.868
155.678
157.005
157.16
156.358
154.842
152.775
150.337
147.66
144.891
142.128
139.501
137.057
134.881
132.947
131.281
129.767
128.411
127.028
125.666
124.128
122.554
120.737
118.929
116.871
114.929
112.764
110.851
108.737
107.009
105.101
103.706
102.161
101.266
100.292
100.109
100.044
101.026
102.565
105.903
110.509
119.085
129.934
151.405
179.259
237.515
356.403
686.056
778.559
859.427
1144.81
1508.64
1680.09
1721.55
1640.85
1565.04
1456.92
1383.8
1304.8
1258.09
1209.85
1180.82
1145.4
1116.11
1077.71
1040.39
996.919
954.927
911.087
870.103
830.074
793.271
758.214
725.379
693.636
662.905
632.544
602.588
572.987
543.948
515.737
488.542
462.622
438.128
415.249
393.965
374.436
356.541
340.494
326.068
313.762
302.962
295.492
289.057
84.9677
120.397
135.384
144.23
151.249
156.144
159.308
160.978
161.405
160.779
159.343
157.283
154.806
152.07
149.238
146.426
143.768
141.315
139.145
137.226
135.569
134.051
132.663
131.218
129.758
128.095
126.365
124.378
122.379
120.124
117.974
115.598
113.473
111.138
109.203
107.062
105.473
103.673
102.611
101.345
101.058
100.652
101.69
102.857
106.636
110.906
120.621
131.315
155.154
184.29
246.953
372.695
720.776
824.724
890.626
1103.78
1425.32
1621.85
1690.61
1635.62
1571.25
1472.72
1403.39
1328.53
1283.59
1237.64
1209.56
1175.23
1146.08
1107.77
1069.91
1025.86
982.954
938.207
896.15
855.059
817.087
780.831
746.703
713.62
681.491
649.726
618.381
587.444
557.145
527.762
499.5
472.609
447.251
423.593
401.63
381.488
363.075
346.551
331.743
319.07
308.019
300.26
293.756
86.0097
122.208
137.234
146.339
153.65
158.849
162.349
164.349
165.052
164.624
163.3
161.286
158.807
156.049
153.192
150.364
147.706
145.273
143.135
141.256
139.629
138.124
136.719
135.226
133.683
131.909
130.04
127.898
125.729
123.299
120.964
118.405
116.094
113.575
111.461
109.135
107.382
105.394
104.194
102.733
102.369
101.767
102.881
103.905
108.116
112.41
123.149
134.233
160.086
191.198
257.455
389.948
754.323
867.954
924.15
1083.28
1357.95
1563.25
1653.25
1622.7
1570.54
1482.47
1417.81
1347.71
1305.09
1261.76
1234.93
1201.89
1173.08
1135.02
1096.8
1052.33
1008.66
963.13
920.114
878.053
838.985
801.581
766.198
731.804
698.307
665.169
632.473
600.244
568.736
538.238
508.969
481.169
455.01
430.634
408.052
387.354
368.472
351.518
336.366
323.362
312.082
304.052
297.473
86.6721
123.392
138.528
147.955
155.575
161.075
164.896
167.213
168.191
167.971
166.781
164.84
162.391
159.642
156.788
153.973
151.342
148.953
146.87
145.049
143.469
141.99
140.578
139.048
137.429
135.554
133.557
131.275
128.948
126.36
123.857
121.137
118.658
115.981
113.708
111.231
109.335
107.203
105.887
104.292
103.872
103.169
104.376
105.407
110.045
114.591
126.262
138.052
165.659
199.082
268.425
407.444
786.623
908.638
958.043
1077.27
1306.58
1507.71
1612.19
1603.64
1563.86
1486.75
1427.49
1362.69
1322.84
1282.45
1257.15
1225.6
1197.32
1159.67
1121.24
1076.49
1032.19
986.003
942.135
899.186
859.087
820.581
783.978
748.301
713.462
678.983
644.974
611.496
578.831
547.273
517.055
488.406
461.505
436.47
413.324
392.121
372.819
355.48
340.02
326.716
315.229
306.943
300.283
87.0121
124.04
139.344
149.141
157.09
162.893
167.024
169.645
170.891
170.882
169.841
167.994
165.599
162.884
160.06
157.283
154.702
152.378
150.368
148.621
147.099
145.656
144.245
142.683
140.995
139.028
136.91
134.498
132.023
129.29
126.631
123.766
121.134
118.319
115.902
113.297
111.275
109.028
107.613
105.927
105.468
104.728
106.043
107.182
112.247
117.188
129.722
142.391
171.57
207.437
279.546
424.819
817.655
947.097
991.415
1081.03
1269.58
1457.53
1569.81
1579.99
1552.17
1486.2
1432.87
1373.77
1337.11
1299.95
1276.42
1246.53
1218.95
1181.85
1143.37
1098.47
1053.67
1006.94
962.321
918.561
877.491
837.925
800.133
763.2
727.048
691.259
655.975
621.295
587.522
554.96
523.849
494.409
466.824
441.186
417.529
395.871
376.193
358.509
342.775
329.201
317.526
309.001
302.253
87.0796
124.228
139.743
149.953
158.246
164.355
168.789
171.703
173.209
173.413
172.528
170.789
168.468
165.809
163.036
160.318
157.807
155.567
153.645
151.984
150.531
149.13
147.725
146.137
144.384
142.329
140.097
137.563
134.95
132.082
129.279
126.279
123.507
120.567
118.02
115.305
113.169
110.83
109.329
107.582
107.097
106.365
107.803
109.121
114.618
120.043
133.386
147.024
177.642
215.987
290.65
441.885
847.418
983.584
1023.87
1091.16
1244.62
1413.97
1528.07
1553.19
1536.41
1481.43
1434.37
1381.3
1348.16
1314.46
1292.9
1264.85
1238.11
1201.71
1163.32
1118.39
1073.22
1026.05
980.764
936.263
894.276
853.69
814.741
776.578
739.142
702.077
665.558
629.722
594.893
561.38
529.434
499.26
471.047
444.858
420.74
398.676
378.664
360.674
344.697
330.882
319.037
310.286
303.447
86.918
124.026
139.782
150.434
159.084
165.504
170.237
173.435
175.192
175.605
174.881
173.26
171.028
168.442
165.74
163.1
160.677
158.536
156.717
155.152
153.774
152.422
151.026
149.414
147.601
145.463
143.122
140.471
137.728
134.733
131.794
128.672
125.769
122.716
120.05
117.236
114.998
112.583
111.007
109.221
108.723
108.033
109.609
111.158
117.093
123.06
137.167
151.815
183.776
224.577
301.643
458.544
875.921
1018.3
1055.24
1105.35
1229.24
1377.46
1488.45
1524.59
1517.53
1473.08
1432.45
1385.57
1356.22
1326.18
1306.78
1280.69
1254.94
1219.36
1181.18
1136.35
1090.92
1043.4
997.54
952.365
909.513
867.942
827.866
788.502
749.813
711.507
673.796
636.852
601.019
566.611
533.885
503.034
474.245
447.559
423.028
400.602
380.296
362.036
345.847
331.817
319.82
310.857
303.923
86.565
123.491
139.506
150.622
159.641
166.378
171.406
174.878
176.88
177.497
176.934
175.439
173.307
170.81
168.194
165.647
163.328
161.301
159.595
158.136
156.839
155.538
154.155
152.52
150.65
148.431
145.987
143.226
140.358
137.245
134.178
130.941
127.916
124.761
121.983
119.083
116.751
114.274
112.632
110.825
110.324
109.703
111.432
113.252
119.632
126.177
141.011
156.682
189.912
233.124
312.477
474.744
903.18
1051.4
1085.46
1122.03
1221.25
1347.83
1451.98
1495.32
1496.42
1461.77
1427.53
1386.93
1361.55
1335.29
1318.2
1294.2
1269.56
1234.9
1197.06
1152.44
1106.85
1059.08
1012.72
966.929
923.259
880.741
839.568
799.032
759.122
719.615
680.756
642.753
605.97
570.723
537.272
505.798
476.487
449.354
424.456
401.712
381.15
362.656
346.282
332.062
319.93
310.768
303.738
86.0533
122.676
138.959
150.551
159.947
167.004
172.326
176.066
178.303
179.119
178.717
177.353
175.329
172.932
170.416
167.978
165.776
163.874
162.291
160.944
159.734
158.486
157.117
155.462
153.535
151.241
148.696
145.829
142.844
139.619
136.431
133.087
129.948
126.698
123.817
120.84
118.422
115.892
114.193
112.379
111.888
111.357
113.255
115.377
122.21
129.354
144.883
161.574
196.014
241.579
323.123
490.455
929.209
1083
1114.55
1140.19
1218.82
1324.52
1419.28
1466.35
1473.91
1448.1
1420.06
1385.68
1364.38
1342
1327.34
1305.5
1282.09
1248.45
1211.04
1166.73
1121.09
1073.14
1026.35
980.01
935.568
892.137
849.9
808.224
767.129
726.462
686.502
647.492
609.814
573.782
539.663
507.621
477.838
450.307
425.086
402.065
381.283
362.588
346.057
331.672
319.421
310.074
302.947
85.4111
121.627
138.177
150.251
160.026
167.408
173.022
177.025
179.49
180.498
180.255
179.023
177.114
174.827
172.424
170.105
168.033
166.267
164.815
163.586
162.465
161.274
159.919
158.245
156.264
153.894
151.254
148.287
145.189
141.857
138.555
135.111
131.864
128.527
125.55
122.504
120.008
117.435
115.687
113.877
113.406
112.985
115.068
117.519
124.811
132.568
148.762
166.461
202.061
249.917
333.563
505.664
954.026
1113.2
1142.51
1159.15
1220.52
1306.8
1390.6
1438.44
1450.69
1432.64
1410.47
1382.15
1364.97
1346.5
1334.34
1314.73
1292.62
1260.09
1223.21
1179.29
1133.68
1085.65
1038.5
991.659
946.489
902.181
858.912
816.129
773.889
732.105
691.094
651.131
612.612
575.853
541.121
508.563
478.36
450.477
424.977
401.719
380.751
361.887
345.224
330.696
318.343
308.826
301.603
84.6627
120.385
137.193
149.747
159.903
167.612
173.518
177.778
180.463
181.658
181.57
180.471
178.683
176.513
174.231
172.044
170.11
168.489
167.176
166.069
165.04
163.905
162.565
160.872
158.838
156.397
153.664
150.601
147.395
143.963
140.553
137.015
133.668
130.25
127.184
124.075
121.508
118.899
117.11
115.315
114.875
114.58
116.864
119.668
127.425
135.799
152.632
171.322
208.04
258.119
343.789
520.36
977.65
1142.08
1169.39
1178.46
1225.25
1293.87
1365.97
1412.13
1427.4
1415.92
1399.16
1376.65
1363.55
1348.96
1339.34
1322
1301.26
1269.91
1233.65
1190.21
1144.71
1096.66
1049.22
1001.92
956.068
910.918
866.652
822.799
779.454
736.601
694.59
653.729
614.427
576.998
541.707
508.687
478.112
449.923
424.185
400.727
379.607
360.603
343.834
329.186
316.745
307.072
299.758
83.8288
118.985
136.039
149.063
159.598
167.636
173.832
178.344
181.243
182.617
182.681
181.715
180.05
178.003
175.851
173.804
172.019
170.55
169.381
168.4
167.464
166.386
165.061
163.349
161.263
158.753
155.931
152.775
149.467
145.939
142.428
138.802
135.36
131.868
128.718
125.553
122.92
120.283
118.461
116.691
116.293
116.139
118.642
121.817
130.044
139.037
156.483
176.144
213.941
266.177
353.791
534.54
1000.1
1169.71
1195.22
1197.82
1232.17
1284.95
1345.19
1387.8
1404.55
1398.42
1386.53
1369.47
1360.35
1349.58
1342.51
1327.45
1308.13
1278
1242.43
1199.53
1154.23
1106.22
1058.55
1010.85
964.348
918.393
873.165
828.281
783.877
740.004
697.048
655.346
615.318
577.275
541.48
508.049
477.15
448.7
422.764
399.143
377.902
358.787
341.935
327.188
314.676
304.861
297.459
82.9274
117.459
134.74
148.221
159.13
167.496
173.981
178.74
181.846
183.395
183.605
182.771
181.23
179.312
177.297
175.398
173.768
172.457
171.436
170.584
169.742
168.72
167.41
165.679
163.543
160.965
158.057
154.813
151.408
147.79
144.181
140.473
136.942
133.381
130.154
126.939
124.247
121.588
119.74
118.004
117.659
117.662
120.399
123.964
132.664
142.273
160.308
180.917
219.758
274.085
363.566
548.201
1021.39
1196.13
1220.03
1217.02
1240.66
1279.33
1327.99
1365.66
1382.53
1380.55
1372.92
1360.91
1355.6
1348.53
1343.98
1331.18
1313.31
1284.44
1249.63
1207.33
1162.29
1114.38
1066.53
1018.48
971.373
924.648
878.497
832.624
787.207
742.368
698.523
656.038
615.343
576.742
540.498
506.707
475.53
446.862
420.765
397.016
375.684
356.487
339.574
324.749
312.18
302.239
294.757
81.9736
115.834
133.32
147.241
158.515
167.208
173.98
178.981
182.289
184.005
184.358
183.652
182.238
180.452
178.578
176.834
175.366
174.218
173.349
172.626
171.878
170.912
169.615
167.866
165.68
163.037
160.046
156.718
153.22
149.517
145.817
142.032
138.418
134.793
131.494
128.233
125.488
122.814
120.947
119.254
118.974
119.149
122.136
126.106
135.282
145.5
164.101
185.636
225.489
281.837
373.107
561.343
1041.55
1221.39
1243.86
1235.93
1250.26
1276.42
1313.99
1345.81
1361.65
1362.68
1358.66
1351.24
1349.52
1345.99
1343.89
1333.32
1316.9
1289.32
1255.31
1213.68
1168.95
1121.2
1073.22
1024.85
977.183
929.726
882.693
835.874
789.496
743.744
699.069
655.86
614.556
575.456
538.815
504.714
473.305
444.46
418.24
394.396
373.002
353.747
336.795
321.913
309.303
299.25
291.696
80.9805
114.133
131.802
146.139
157.768
166.786
173.841
179.081
182.584
184.461
184.951
184.372
183.084
181.433
179.706
178.12
176.819
175.839
175.124
174.532
173.877
172.965
171.681
169.914
167.679
164.972
161.902
158.493
154.906
151.122
147.337
143.48
139.788
136.104
132.739
129.439
126.645
123.962
122.084
120.442
120.239
120.601
123.855
128.244
137.895
148.713
167.858
190.297
231.128
289.429
382.411
573.964
1060.6
1245.53
1266.74
1254.44
1260.61
1275.67
1302.83
1328.23
1342.12
1345.1
1344.05
1340.7
1342.31
1342.12
1342.39
1333.97
1319.01
1292.73
1259.55
1218.62
1174.26
1126.72
1078.66
1030.02
981.819
933.668
885.795
838.078
790.791
744.184
698.738
654.866
613.013
573.469
536.485
502.123
470.526
441.545
415.236
391.329
369.9
350.614
333.644
318.724
306.086
295.939
288.322
79.959
112.377
130.204
144.933
156.905
166.243
173.577
179.052
182.744
184.775
185.397
184.942
183.78
182.265
180.688
179.266
178.135
177.326
176.767
176.304
175.742
174.883
173.611
171.823
169.541
166.772
163.626
160.14
156.469
152.61
148.744
144.82
141.054
137.318
133.891
130.556
127.72
125.033
123.151
121.571
121.457
122.019
125.555
130.376
140.5
151.91
171.576
194.896
236.674
296.86
391.472
586.066
1078.55
1268.59
1288.71
1272.51
1271.45
1276.66
1294.14
1312.85
1324.06
1328.06
1329.32
1329.52
1334.17
1337.08
1339.6
1333.26
1319.71
1294.73
1262.42
1222.22
1178.28
1130.98
1082.89
1034.01
985.322
936.517
887.848
839.282
791.141
743.737
697.582
653.109
610.765
570.835
533.559
498.984
467.243
438.163
411.8
387.861
366.423
347.13
330.161
315.221
302.571
292.346
284.678
78.9185
110.585
128.544
143.638
155.938
165.589
173.199
178.902
182.778
184.957
185.706
185.372
184.335
182.957
181.533
180.277
179.32
178.683
178.28
177.947
177.476
176.668
175.406
173.599
171.27
168.441
165.222
161.663
157.912
153.982
150.039
146.053
142.22
138.435
134.951
131.587
128.714
126.03
124.152
122.641
122.628
123.406
127.24
132.503
143.098
155.086
175.253
199.432
242.124
304.124
400.287
597.649
1095.44
1290.6
1309.79
1290.07
1282.57
1279.02
1287.58
1299.55
1307.54
1311.73
1314.7
1317.92
1325.27
1331.03
1335.64
1331.28
1319.12
1295.41
1263.97
1224.54
1181.05
1134.04
1085.94
1036.87
987.732
938.314
888.895
839.532
790.593
742.454
695.653
650.639
607.865
567.603
530.087
495.346
463.501
434.362
407.976
384.034
362.613
343.335
326.386
311.446
298.798
288.511
280.802
77.8668
108.771
126.836
142.266
154.878
164.836
172.717
178.643
182.696
185.018
185.889
185.671
184.757
183.518
182.247
181.161
180.38
179.916
179.67
179.465
179.082
178.323
177.07
175.243
172.867
169.981
166.691
163.064
159.237
155.24
151.227
147.183
143.287
139.457
135.922
132.533
129.629
126.953
125.087
123.655
123.757
124.764
128.911
134.625
145.685
158.24
178.887
203.901
247.476
311.22
408.851
608.715
1111.3
1311.58
1330
1307.1
1293.82
1282.45
1282.82
1288.15
1292.56
1296.27
1300.36
1306.07
1315.78
1324.12
1330.66
1328.14
1317.3
1294.84
1264.29
1225.63
1182.62
1135.93
1087.87
1038.63
989.089
939.098
888.978
838.871
789.195
740.383
692.997
647.505
604.36
563.822
526.117
491.255
459.347
430.184
403.808
379.891
358.51
339.269
322.359
307.436
294.803
284.47
276.735
76.8105
106.949
125.095
140.83
153.738
163.994
172.138
178.283
182.507
184.965
185.952
185.848
185.056
183.954
182.839
181.923
181.319
181.029
180.938
180.859
180.563
179.851
178.604
176.757
174.336
171.395
168.037
164.344
160.447
156.387
152.307
148.211
144.256
140.387
136.806
133.397
130.466
127.805
125.958
124.615
124.844
126.096
130.57
136.742
148.261
161.367
182.475
208.302
252.728
318.145
417.161
619.266
1126.13
1331.56
1349.38
1323.57
1305.09
1286.72
1279.59
1278.5
1279.09
1281.74
1286.45
1294.14
1305.85
1316.47
1324.75
1323.94
1314.35
1293.1
1263.42
1225.56
1183.05
1136.71
1088.72
1039.35
989.432
938.912
888.14
837.345
786.993
737.57
689.665
643.757
600.298
559.539
521.693
486.756
454.824
425.671
399.335
375.47
354.152
334.969
318.116
303.226
290.622
280.261
272.511
75.7552
105.129
123.331
139.341
152.527
163.071
171.473
177.829
182.218
184.806
185.905
185.91
185.237
184.273
183.314
182.569
182.143
182.026
182.089
182.134
181.921
181.253
180.012
178.144
175.679
172.684
169.262
165.507
161.543
157.425
153.283
149.138
145.13
141.226
137.603
134.179
131.228
128.588
126.769
125.523
125.894
127.405
132.218
138.854
150.824
164.468
186.017
212.633
257.877
324.894
425.211
629.306
1139.99
1350.57
1367.95
1339.49
1316.27
1291.62
1277.63
1270.41
1267.07
1268.22
1273.06
1282.25
1295.61
1308.2
1318.02
1318.78
1310.36
1290.25
1261.44
1224.37
1182.39
1136.42
1088.52
1039.05
988.802
937.796
886.423
834.998
784.031
734.063
685.701
639.439
595.725
554.798
516.86
481.889
449.972
420.864
394.596
370.809
349.576
330.471
313.691
298.851
286.29
275.916
268.165
74.7055
103.321
121.555
137.81
151.255
162.076
170.727
177.29
181.837
184.549
185.754
185.864
185.309
184.481
183.677
183.104
182.855
182.911
183.126
183.292
183.159
182.532
181.296
179.406
176.898
173.851
170.368
166.554
162.527
158.356
154.157
149.968
145.911
141.976
138.316
134.881
131.916
129.302
127.52
126.383
126.909
128.693
133.858
140.962
153.372
167.539
189.511
216.894
262.921
331.466
433
638.838
1152.88
1368.63
1385.72
1354.83
1327.29
1296.99
1276.74
1263.71
1256.42
1255.7
1260.29
1270.52
1285.18
1299.44
1310.59
1312.74
1305.39
1286.38
1258.41
1222.12
1180.67
1135.09
1087.32
1037.79
987.238
935.791
883.869
831.872
780.354
729.904
681.151
634.596
590.684
549.641
511.659
476.697
444.83
415.799
389.628
365.943
344.817
325.808
309.117
294.342
281.837
271.467
263.728
73.6652
101.533
119.776
136.246
149.93
161.017
169.91
176.671
181.37
184.2
185.505
185.717
185.276
184.583
183.934
183.532
183.46
183.686
184.05
184.334
184.278
183.691
182.457
180.546
177.995
174.899
171.357
167.489
163.403
159.182
154.93
150.701
146.6
142.638
138.947
135.505
132.531
129.951
128.214
127.196
127.892
129.963
135.49
143.065
155.906
170.579
192.956
221.083
267.858
337.857
440.522
647.865
1164.85
1385.77
1402.72
1369.6
1338.1
1302.69
1276.72
1258.23
1247.03
1244.2
1248.18
1259.05
1274.66
1290.27
1302.54
1305.92
1299.54
1281.55
1254.39
1218.87
1177.96
1132.78
1085.16
1035.59
984.779
932.936
880.52
828.01
776.004
725.139
676.058
629.27
585.217
544.11
506.129
471.216
439.436
410.512
384.464
360.906
339.905
321.012
304.425
289.731
277.294
266.942
259.229
72.6375
99.7698
118.001
134.656
148.56
159.9
169.026
175.978
180.823
183.764
185.165
185.474
185.145
184.585
184.091
183.859
183.962
184.356
184.867
185.264
185.282
184.731
183.497
181.564
178.972
175.828
172.232
168.311
164.171
159.905
155.604
151.34
147.199
143.215
139.496
136.053
133.077
130.536
128.855
127.966
128.846
131.218
137.117
145.163
158.422
173.586
196.35
225.198
272.686
344.065
447.775
656.393
1175.92
1402.01
1418.97
1383.8
1348.65
1308.61
1277.41
1253.82
1238.8
1233.68
1236.76
1247.89
1264.13
1280.8
1293.96
1298.39
1292.86
1275.82
1249.43
1214.66
1174.3
1129.53
1082.08
1032.49
981.465
929.272
876.417
823.454
771.025
719.808
670.463
623.503
579.364
538.243
500.307
465.483
433.823
405.038
379.138
355.728
334.872
316.111
299.643
285.045
272.687
262.37
254.695
71.6249
98.0378
116.238
133.048
147.153
158.734
168.082
175.218
180.201
183.247
184.738
185.141
184.921
184.493
184.151
184.087
184.363
184.923
185.576
186.085
186.172
185.654
184.419
182.464
179.832
176.642
172.993
169.025
164.834
160.527
156.182
151.886
147.71
143.707
139.966
136.527
133.554
131.059
129.443
128.695
129.774
132.46
138.74
147.255
160.92
176.559
199.693
229.239
277.404
350.087
454.757
664.427
1186.12
1417.38
1434.49
1397.42
1358.91
1314.66
1278.67
1250.34
1231.63
1224.11
1226.05
1237.1
1253.67
1271.11
1284.93
1290.23
1285.44
1269.26
1243.59
1209.55
1169.73
1125.38
1078.12
1028.55
977.335
924.839
871.598
818.244
765.457
713.953
664.407
617.334
573.162
532.076
494.228
459.532
428.025
399.406
373.68
350.44
329.747
311.135
294.799
280.309
268.043
257.773
250.148
70.6296
96.3407
114.491
131.429
145.715
157.523
167.085
174.395
179.509
182.655
184.23
184.722
184.609
184.309
184.118
184.221
184.668
185.391
186.182
186.796
186.95
186.462
185.225
183.247
180.575
177.343
173.644
169.632
165.394
161.049
156.664
152.342
148.134
144.118
140.359
136.928
133.965
131.524
129.983
129.387
130.68
133.693
140.359
149.341
163.398
179.497
202.984
233.203
282.009
355.92
461.465
671.975
1195.49
1431.9
1449.29
1410.46
1368.85
1320.76
1280.39
1247.66
1225.4
1215.42
1216.04
1226.72
1243.34
1261.25
1275.53
1281.51
1277.33
1261.92
1236.93
1203.59
1164.3
1120.37
1073.31
1023.79
972.427
919.674
866.105
812.421
759.339
707.613
657.927
610.799
566.648
525.643
487.925
453.393
422.071
393.646
368.116
345.067
324.554
306.107
289.917
275.549
263.384
253.175
245.611
69.6533
94.6816
112.766
129.805
144.252
156.273
166.038
173.515
178.753
181.991
183.646
184.223
184.213
184.04
183.997
184.264
184.879
185.76
186.687
187.402
187.618
187.157
185.916
183.915
181.206
177.932
174.187
170.133
165.853
161.474
157.054
152.708
148.474
144.448
140.676
137.258
134.311
131.931
130.476
130.045
131.566
134.918
141.976
151.421
165.855
182.397
206.221
237.091
286.499
361.563
467.898
679.042
1204.05
1445.6
1463.39
1422.94
1378.44
1326.85
1282.46
1245.65
1220.03
1207.57
1206.72
1216.78
1233.18
1251.3
1265.81
1272.3
1268.61
1253.87
1229.51
1196.83
1158.05
1114.54
1067.71
1018.25
966.781
913.818
859.976
806.022
752.71
700.826
651.061
603.933
559.854
518.977
481.43
447.096
415.99
387.785
362.475
339.635
319.32
301.051
285.02
270.785
258.732
248.595
241.103
68.6972
93.0628
111.065
128.18
142.77
154.991
164.947
172.582
177.936
181.26
182.99
183.647
183.737
183.688
183.792
184.22
184.999
186.035
187.092
187.905
188.178
187.742
186.495
184.471
181.724
178.411
174.623
170.532
166.212
161.804
157.352
152.987
148.73
144.699
140.92
137.519
134.596
132.285
130.926
130.672
132.435
136.137
143.59
153.492
168.289
185.259
209.405
240.9
290.873
367.013
474.054
685.637
1211.85
1458.5
1476.82
1434.86
1387.67
1332.87
1284.8
1244.21
1215.41
1200.49
1198.05
1207.28
1223.22
1241.29
1255.84
1262.65
1259.32
1245.17
1221.36
1189.31
1151.03
1107.95
1061.34
1011.98
960.433
907.308
853.248
799.087
745.607
693.627
643.843
596.771
552.813
512.108
474.77
440.669
409.807
381.849
356.778
334.168
314.064
295.989
280.128
266.038
254.105
244.053
236.641
67.7624
91.4862
109.393
126.559
141.274
153.679
163.816
171.6
177.063
180.467
182.265
183
183.186
183.258
183.505
184.092
185.031
186.218
187.4
188.305
188.633
188.217
186.964
184.916
182.134