/*--------------------------------*- C++ -*----------------------------------*\
| =========                 |                                                 |
| \\      /  F ield         | OpenFOAM: The Open Source CFD Toolbox           |
|  \\    /   O peration     | Version:  2412                                  |
|   \\  /    A nd           | Website:  www.openfoam.com                      |
|    \\/     M anipulation  |                                                 |
\*---------------------------------------------------------------------------*/
FoamFile
{
    version     2.0;
    format      ascii;
    arch        "LSB;label=32;scalar=64";
    class       volVectorField;
    location    "0.9";
    object      U;
}
// * * * * * * * * * * * * * * * * * * * * * * * * * * * * * * * * * * * * * //

dimensions      [0 1 -1 0 0 0 0];

internalField   nonuniform List<vector> 
13156
(
(79.1804 -82.4456 -1.54812e-14)
(101.178 -24.855 -4.62351e-17)
(113.034 14.7424 0)
(119.146 28.7583 0)
(122.693 32.9863 -2.06184e-14)
(123.719 34.1827 -1.11101e-18)
(123.663 34.4846 0)
(123.304 34.5842 4.22883e-14)
(123.073 34.7147 4.24309e-14)
(122.94 34.8773 0)
(122.913 35.0724 0)
(122.831 35.2524 2.129e-14)
(122.722 35.4209 -2.13671e-14)
(122.49 35.5549 6.47412e-19)
(122.242 35.6701 0)
(121.891 35.7588 2.17345e-14)
(121.65 35.8633 0)
(121.365 35.9484 -2.20471e-14)
(121.301 36.0713 5.49508e-19)
(121.231 36.1947 0)
(121.507 36.3819 0)
(121.74 36.5826 -2.25925e-14)
(122.475 36.8918 0)
(123.036 37.1849 -2.2741e-14)
(124.225 37.6175 0)
(125.06 38.0087 0)
(126.738 38.5713 0)
(127.784 39.0537 0)
(130.06 39.7771 -2.27244e-14)
(131.264 40.334 0)
(134.268 41.2492 0)
(135.577 41.8918 -1.17812e-18)
(139.395 43.0098 -2.2005e-14)
(140.818 43.7539 -2.14733e-14)
(145.745 45.1378 2.13144e-14)
(147.193 45.9935 2.06031e-14)
(153.676 47.7492 0)
(154.96 48.6943 0)
(163.567 50.9614 -1.91789e-14)
(164.45 51.9942 -1.7851e-14)
(176.042 54.9638 1.76951e-14)
(176.134 56.0519 -1.58293e-14)
(191.905 59.9987 0)
(190.651 61.1131 0)
(212.232 66.4368 0)
(208.545 67.41 9.94768e-15)
(237.794 74.6047 0)
(230.167 75.1801 0)
(270.442 85.0199 8.99862e-15)
(258.218 85.1063 0)
(319.83 100.119 0)
(305.626 99.6342 -1.50824e-14)
(469.851 149.67 4.01306e-18)
(477.775 10.6825 1.81188e-15)
(304.223 -67.9197 2.16061e-15)
(248.161 -57.5182 0)
(229.288 -52.1649 0)
(221.905 -48.3394 1.92425e-15)
(204.469 -46.1444 6.22208e-19)
(199.005 -43.2804 0)
(185.73 -41.6418 4.813e-19)
(180.889 -39.3543 0)
(170.121 -37.9852 2.25746e-15)
(165.057 -36.004 3.05122e-19)
(156.151 -34.7627 -2.83044e-15)
(151.31 -33.0982 2.73136e-15)
(144.146 -32.0035 6.68236e-15)
(139.852 -30.6528 3.36991e-15)
(134.07 -29.6844 3.80265e-15)
(130.221 -28.5713 -3.91274e-15)
(125.353 -27.7026 -4.25335e-15)
(121.805 -26.7409 -2.23209e-19)
(117.664 -25.9572 -9.41499e-15)
(114.448 -25.1303 2.05844e-19)
(110.946 -24.4368 -5.15407e-15)
(108.137 -23.7425 5.35399e-15)
(105.214 -23.145 5.57659e-15)
(102.883 -22.5783 -1.80641e-19)
(100.536 -22.0898 0)
(98.6623 -21.6531 -6.15465e-15)
(96.8594 -21.2676 0)
(95.4541 -20.9422 0)
(94.1139 -20.6502 -6.70976e-15)
(93.0652 -20.4101 0)
(92.0082 -20.1749 -7.0913e-15)
(91.1509 -19.9824 -7.28393e-15)
(90.206 -19.7608 7.48329e-15)
(89.4448 -19.5977 0)
(88.4643 -19.3756 -7.87908e-15)
(87.7427 -19.2191 0)
(86.7061 -18.9786 -8.26405e-15)
(86.0756 -18.846 -8.42557e-15)
(84.9113 -18.5727 -8.62095e-15)
(84.5017 -18.4927 0)
(83.1087 -18.1559 8.92824e-15)
(83.1514 -18.1858 -9.0083e-15)
(81.4344 -17.7687 0)
(82.0169 -17.9437 -9.1403e-15)
(80.9366 -17.5565 0)
(129.35 45.2833 1.0506e-14)
(138.394 49.9394 -2.16121e-14)
(136.513 43.6046 0)
(137.02 40.0456 0)
(138.916 39.3177 1.48649e-14)
(140.487 39.7749 -2.95834e-14)
(141.593 40.3367 0)
(142.296 40.7888 -1.41815e-14)
(142.619 41.0944 -1.39278e-14)
(142.757 41.3287 0)
(142.797 41.5271 -1.36404e-14)
(142.801 41.7182 -8.11335e-19)
(142.754 41.8911 0)
(142.655 42.0558 1.36266e-14)
(142.495 42.1863 0)
(142.268 42.3111 1.37423e-14)
(142.033 42.4205 0)
(141.814 42.5362 0)
(141.671 42.6469 6.36707e-19)
(141.627 42.8053 -1.3988e-14)
(141.771 42.9767 0)
(142.06 43.2405 1.40601e-14)
(142.635 43.5422 0)
(143.375 43.9456 0)
(144.414 44.3772 1.41091e-14)
(145.588 44.9394 0)
(147.112 45.4982 0)
(148.692 46.2241 0)
(150.74 46.9227 0)
(152.75 47.8155 0)
(155.374 48.6599 0)
(157.837 49.7669 -1.3512e-14)
(161.295 50.8203 2.69848e-14)
(164.197 52.1489 1.31061e-14)
(168.694 53.4435 0)
(172.017 55.0332 -1.25366e-14)
(177.917 56.6556 1.23927e-14)
(181.646 58.5345 -1.1766e-14)
(189.412 60.6012 2.1761e-18)
(193.502 62.8341 1.07638e-14)
(203.868 65.5041 0)
(208.192 68.1355 9.48327e-15)
(222.196 71.6582 9.49125e-15)
(226.512 74.7528 -7.8679e-15)
(245.606 79.5037 8.18447e-15)
(249.249 82.9673 0)
(275.04 89.4135 0)
(276.732 92.9923 0)
(312.467 102.006 0)
(311.369 105.489 2.52389e-16)
(368.455 120.455 0)
(363.317 122.626 8.59436e-15)
(530.92 179.631 7.82902e-16)
(592.165 -5.54836 -1.04984e-15)
(382.069 -82.2693 0)
(306.002 -65.8109 0)
(270.034 -59.1071 -3.96009e-17)
(261.175 -55.5942 -7.67491e-16)
(236.901 -51.8411 7.46277e-16)
(231.811 -49.3335 0)
(213.644 -46.5962 6.25305e-16)
(209.234 -44.5801 3.56887e-16)
(194.819 -42.3814 0)
(189.908 -40.5371 7.31572e-16)
(178.171 -38.6672 1.05613e-15)
(173.129 -37.0298 0)
(163.796 -35.4733 -2.45647e-15)
(159.096 -34.0875 -2.27595e-19)
(151.704 -32.7873 0)
(147.406 -31.6198 2.83291e-15)
(141.349 -30.5123 1.52991e-15)
(137.37 -29.4917 -1.58975e-15)
(132.343 -28.5372 1.68959e-15)
(128.727 -27.6528 1.76152e-15)
(124.565 -26.8378 1.85228e-15)
(121.388 -26.0894 -1.92841e-15)
(117.991 -25.409 0)
(115.327 -24.7923 -1.51445e-19)
(112.679 -24.2576 0)
(110.569 -23.7893 2.24334e-15)
(108.586 -23.3798 0)
(107.041 -23.0425 2.40658e-15)
(105.6 -22.7392 2.49445e-15)
(104.473 -22.4983 0)
(103.361 -22.2561 5.3709e-15)
(102.456 -22.0678 2.78718e-15)
(101.475 -21.8371 -2.89424e-15)
(100.673 -21.6832 0)
(99.6618 -21.4457 1.3642e-19)
(98.8919 -21.3007 0)
(97.8202 -21.0374 3.33819e-15)
(97.1259 -20.9237 3.43809e-15)
(95.9696 -20.624 7.10973e-15)
(95.4451 -20.5714 0)
(94.1898 -20.212 -7.50315e-15)
(93.9988 -20.2831 3.80579e-15)
(92.6534 -19.8497 3.91206e-15)
(92.8121 -20.0903 3.90466e-15)
(92.2257 -19.6864 4.01052e-15)
(96.4178 37.6886 0)
(131.738 40.8288 -1.19992e-17)
(140.965 38.5532 -1.22111e-14)
(143.569 39.3047 0)
(145.224 40.52 0)
(146.185 41.3841 1.12715e-14)
(146.913 41.9117 0)
(147.557 42.3428 -9.82738e-15)
(148.095 42.7043 9.45738e-15)
(148.564 43.0449 0)
(148.982 43.3624 9.23261e-15)
(149.353 43.6734 -9.27557e-15)
(149.675 43.9626 0)
(149.924 44.2426 0)
(150.113 44.4847 0)
(150.208 44.7194 -1.96636e-14)
(150.286 44.9311 0)
(150.331 45.1399 -1.01346e-14)
(150.439 45.3326 1.02688e-14)
(150.587 45.5641 1.03704e-14)
(150.921 45.797 -1.04638e-14)
(151.34 46.1181 1.05193e-14)
(152.071 46.4697 0)
(152.899 46.9212 0)
(154.099 47.4012 -1.06328e-14)
(155.35 48.0154 0)
(157.07 48.6291 0)
(158.731 49.4176 0)
(161.037 50.1839 0)
(163.127 51.1503 0)
(166.095 52.0801 0)
(168.625 53.2729 0)
(172.483 54.4152 -9.92126e-19)
(175.482 55.862 -1.01921e-14)
(180.459 57.2511 -1.01615e-14)
(183.907 58.9988 9.84717e-15)
(190.378 60.7178 -1.95075e-14)
(194.258 62.8013 9.33663e-15)
(202.71 64.9674 9.20285e-15)
(206.98 67.4669 0)
(218.177 70.2365 0)
(222.728 73.2153 7.67325e-15)
(237.745 76.8407 -2.18009e-18)
(242.369 80.3895 6.43292e-15)
(262.701 85.2537 -6.63242e-15)
(266.793 89.2988 0)
(294.095 95.893 0)
(296.431 100.185 2.78524e-15)
(333.956 109.421 0)
(333.762 113.723 -2.09168e-16)
(393.112 129.21 0)
(389.403 132.271 -6.98396e-15)
(557.556 190.756 0)
(633.126 -9.95992 9.46127e-16)
(427.915 -89.9258 0)
(338.816 -71.2468 0)
(294.343 -63.7805 4.9964e-17)
(281.086 -59.2836 4.72418e-16)
(254.466 -55.1711 -2.23113e-16)
(247.506 -52.2532 -7.0191e-17)
(228.085 -49.3331 0)
(222.514 -47.0502 -2.0564e-16)
(207.283 -44.7294 0)
(201.514 -42.6823 4.14505e-16)
(189.136 -40.716 -5.94111e-16)
(183.378 -38.915 -5.68842e-16)
(173.492 -37.2748 6.80704e-16)
(168.191 -35.7574 -6.80069e-16)
(160.332 -34.384 0)
(155.549 -33.1138 -1.54358e-15)
(149.116 -31.9454 -1.18937e-19)
(144.753 -30.8464 0)
(139.425 -29.8433 0)
(135.507 -28.9002 0)
(131.106 -28.0473 0)
(127.698 -27.2567 9.26601e-20)
(124.119 -26.5487 0)
(121.29 -25.9053 -1.12766e-15)
(118.515 -25.354 1.17103e-15)
(116.305 -24.8737 0)
(114.252 -24.4578 0)
(112.655 -24.1185 -1.31167e-15)
(111.182 -23.8142 0)
(110.029 -23.5757 0)
(108.905 -23.3327 -1.48224e-15)
(107.984 -23.1477 0)
(106.996 -22.9137 0)
(106.176 -22.7634 0)
(105.16 -22.519 1.75354e-15)
(104.364 -22.3791 -1.82336e-15)
(103.287 -22.1044 0)
(102.555 -21.9994 0)
(101.394 -21.6811 -2.03895e-15)
(100.821 -21.6465 0)
(99.5626 -21.2554 4.34247e-15)
(99.3163 -21.3655 0)
(97.9738 -20.8739 -2.28112e-15)
(98.0802 -21.2017 0)
(97.4337 -20.6961 -2.34838e-15)
(99.006 17.5211 0)
(127.178 30.0773 2.44858e-14)
(137.008 36.013 2.06702e-14)
(141.423 39.2371 0)
(144.386 40.643 0)
(146.04 41.4309 7.58359e-15)
(147.156 42.0052 -6.8137e-15)
(148.109 42.5291 6.30937e-15)
(148.969 42.9835 -1.20644e-14)
(149.781 43.4252 5.92351e-15)
(150.555 43.8445 0)
(151.282 44.2612 0)
(151.957 44.6544 0)
(152.557 45.0413 0)
(153.095 45.3884 0)
(153.536 45.731 6.77087e-15)
(153.953 46.0458 6.99071e-15)
(154.322 46.3578 7.20286e-15)
(154.736 46.6425 -7.40177e-15)
(155.162 46.9642 0)
(155.747 47.2712 3.23295e-19)
(156.387 47.6662 -3.68075e-19)
(157.312 48.0733 0)
(158.309 48.586 -8.04413e-15)
(159.666 49.1081 8.12474e-15)
(161.061 49.7804 -8.17253e-15)
(162.929 50.4305 0)
(164.735 51.2829 0)
(167.199 52.0849 0)
(169.45 53.1272 8.33605e-15)
(172.604 54.0935 -8.40561e-15)
(175.319 55.3805 8.35928e-15)
(179.375 56.5514 -7.45184e-19)
(182.599 58.1202 0)
(187.8 59.5278 8.35614e-15)
(191.527 61.437 8.16947e-15)
(198.245 63.1565 9.92338e-19)
(202.466 65.4513 0)
(211.186 67.5903 0)
(215.878 70.3685 0)
(227.363 73.0705 -7.30296e-15)
(232.446 76.4183 -6.6836e-15)
(247.771 79.9218 -1.3291e-14)
(253.087 83.9624 5.67998e-15)
(273.748 88.638 5.82801e-15)
(278.77 93.3394 4.31702e-15)
(306.433 99.6747 0)
(310.026 104.826 -2.5216e-15)
(347.903 113.718 0)
(349.383 119.076 0)
(408.905 134.151 0)
(407.966 138.398 -4.90629e-18)
(569.692 195.699 0)
(657.686 -8.96149 -8.90643e-16)
(463.326 -95.6913 0)
(366.403 -76.2175 9.22689e-16)
(314.392 -67.74 -1.93385e-17)
(296.798 -62.2349 -3.54111e-16)
(267.896 -57.8081 -1.63963e-16)
(259.209 -54.4591 5.05576e-17)
(238.682 -51.4027 -2.59581e-16)
(232.13 -48.8598 -1.44774e-16)
(216.228 -46.4585 -3.41632e-16)
(209.795 -44.232 -2.88439e-16)
(196.925 -42.2052 0)
(190.646 -40.2711 3.9175e-16)
(180.351 -38.5775 0)
(174.621 -36.9575 -4.64352e-16)
(166.42 -35.5353 0)
(161.291 -34.1857 7.24787e-20)
(154.581 -32.9752 -1.12859e-15)
(149.944 -31.8161 0)
(144.397 -30.7787 6.18883e-16)
(140.265 -29.7913 6.43395e-16)
(135.692 -28.9119 0)
(132.121 -28.0904 7.03472e-16)
(128.415 -27.3643 0)
(125.474 -26.703 0)
(122.619 -26.1428 -1.58603e-15)
(120.347 -25.6561 0)
(118.253 -25.2391 0)
(116.626 -24.9004 0)
(115.138 -24.5975 -9.30933e-16)
(113.971 -24.3612 0)
(112.841 -24.1183 0)
(111.908 -23.9345 -1.06255e-15)
(110.915 -23.6979 1.11133e-15)
(110.079 -23.5472 0)
(109.057 -23.2974 0)
(108.239 -23.1574 1.26553e-15)
(107.154 -22.8748 0)
(106.391 -22.7712 -1.36917e-15)
(105.223 -22.4417 0)
(104.611 -22.4132 0)
(103.35 -22.0054 -3.0393e-15)
(103.055 -22.1324 1.55073e-15)
(101.722 -21.6115 0)
(101.777 -21.9882 -1.60359e-15)
(101.101 -21.4212 0)
(103.847 22.5955 0)
(126.971 34.1281 -1.5859e-14)
(134.694 36.1545 -6.48181e-15)
(138.846 38.4561 -6.05797e-15)
(142.283 39.9585 0)
(144.52 40.9689 -4.90614e-15)
(146.117 41.7065 4.47656e-15)
(147.441 42.3402 -4.18448e-15)
(148.602 42.8773 4.01756e-15)
(149.679 43.3957 -2.50663e-19)
(150.701 43.8861 0)
(151.665 44.3737 0)
(152.57 44.8354 0)
(153.397 45.2921 0)
(154.16 45.7079 0)
(154.83 46.1219 4.64776e-15)
(155.475 46.506 -2.14809e-19)
(156.073 46.8903 -5.0359e-15)
(156.711 47.2416 5.22538e-15)
(157.355 47.6326 0)
(158.145 47.9992 5.56523e-15)
(158.98 48.457 -2.78803e-19)
(160.078 48.9129 5.83591e-15)
(161.243 49.4819 1.18903e-14)
(162.747 50.0425 -6.04869e-15)
(164.291 50.7692 6.1364e-15)
(166.292 51.4512 0)
(168.249 52.3624 0)
(170.847 53.1927 -6.40514e-15)
(173.264 54.305 -1.29404e-14)
(176.563 55.2964 6.57413e-15)
(179.471 56.6712 -6.61251e-15)
(183.675 57.8585 -6.72343e-15)
(187.13 59.5392 0)
(192.486 60.9493 0)
(196.495 63.0063 -1.34668e-14)
(203.369 64.7057 6.77614e-15)
(207.937 67.1961 6.63373e-15)
(216.807 69.2797 -6.62289e-15)
(221.926 72.3183 0)
(233.544 74.9127 6.32075e-15)
(239.163 78.6086 0)
(254.59 81.9333 1.36624e-18)
(260.597 86.4421 -5.06843e-15)
(281.315 90.8481 -1.67605e-18)
(287.262 96.1823 -7.81647e-15)
(314.937 102.145 4.39132e-15)
(319.792 108.138 0)
(357.581 116.535 0)
(360.76 122.941 0)
(419.78 137.372 0)
(421.686 142.788 -4.37973e-18)
(575.919 198.181 0)
(671.392 -7.89646 -7.18262e-16)
(490.806 -100.2 6.48369e-16)
(390.581 -80.4833 -8.16474e-16)
(332.368 -71.2352 0)
(310.616 -64.801 0)
(279.499 -60.0772 1.33827e-16)
(269.121 -56.3082 -4.0633e-17)
(247.574 -53.1316 2.06757e-16)
(240.103 -50.3449 2.27323e-16)
(223.614 -47.8778 2.6813e-16)
(216.593 -45.4907 2.23965e-16)
(203.315 -43.4178 3.20386e-16)
(196.597 -41.3702 -3.01993e-16)
(185.972 -39.6366 -3.60688e-16)
(179.889 -37.9316 5.8816e-20)
(171.411 -36.472 0)
(165.997 -35.0568 4.01004e-16)
(159.063 -33.8132 4.82192e-20)
(154.201 -32.6047 0)
(148.473 -31.5398 -9.45834e-16)
(144.164 -30.5163 -4.91139e-16)
(139.451 -29.616 0)
(135.748 -28.77 0)
(131.941 -28.0307 0)
(128.913 -27.3565 0)
(125.996 -26.7912 3.69499e-20)
(123.678 -26.3016 0)
(121.556 -25.8859 0)
(119.909 -25.5491 0)
(118.411 -25.249 1.43217e-15)
(117.233 -25.0148 0)
(116.097 -24.7723 0)
(115.153 -24.5886 3.75936e-20)
(114.152 -24.3493 -8.60269e-16)
(113.3 -24.1967 0)
(112.268 -23.9418 -9.42084e-16)
(111.427 -23.7993 0)
(110.331 -23.5098 0)
(109.539 -23.4045 3.22296e-20)
(108.359 -23.0664 0)
(107.712 -23.0392 0)
(106.443 -22.6201 4.34733e-20)
(106.106 -22.7559 -1.21137e-15)
(104.776 -22.2159 0)
(104.788 -22.6266 7.55961e-21)
(104.085 -22.0154 0)
(103.63 22.5866 0)
(125.852 33.9216 8.51799e-15)
(133.061 35.2791 0)
(136.973 37.7956 3.7845e-15)
(140.502 39.3972 0)
(143.015 40.4942 3.35835e-15)
(144.92 41.3264 0)
(146.519 42.0446 2.99772e-15)
(147.916 42.6506 -2.89987e-15)
(149.197 43.2305 -2.85793e-15)
(150.402 43.7752 -2.86367e-15)
(151.535 44.3146 0)
(152.598 44.8246 0)
(153.575 45.3292 0)
(154.485 45.7907 0)
(155.298 46.2508 -3.34333e-15)
(156.085 46.6787 -3.48677e-15)
(156.825 47.1084 3.63461e-15)
(157.603 47.5015 3.78063e-15)
(158.388 47.9364 0)
(159.312 48.3414 0)
(160.28 48.841 -8.35041e-15)
(161.501 49.3301 -8.57095e-15)
(162.789 49.9392 -4.38734e-15)
(164.403 50.5277 0)
(166.066 51.2951 4.57491e-15)
(168.172 52.0015 0)
(170.251 52.9582 0)
(172.956 53.8103 4.85971e-15)
(175.511 54.9776 4.9508e-15)
(178.924 55.9882 -5.05964e-15)
(181.997 57.4335 0)
(186.318 58.6334 0)
(189.969 60.4053 0)
(195.446 61.8158 0)
(199.698 63.995 5.44309e-15)
(206.688 65.6746 0)
(211.56 68.3301 -5.48507e-15)
(220.534 70.3609 7.84072e-19)
(226.034 73.6235 5.38397e-15)
(237.728 76.1148 -5.37798e-15)
(243.83 80.1145 0)
(259.288 83.265 5.08039e-15)
(265.913 88.1863 0)
(286.601 92.3265 -1.41694e-18)
(293.368 98.2222 3.52386e-15)
(320.944 103.814 -3.92846e-15)
(326.926 110.56 0)
(364.492 118.467 3.05638e-15)
(369.213 125.809 0)
(427.51 139.609 1.92916e-15)
(431.897 145.997 2.29964e-15)
(579.472 199.258 -1.81316e-16)
(677.213 -7.39255 5.0517e-16)
(511.157 -103.252 -3.20999e-18)
(411.683 -84.0391 0)
(348.873 -74.3616 0)
(323.322 -67.1107 0)
(290.077 -62.1065 0)
(278.043 -57.9426 3.45174e-17)
(255.526 -54.6504 1.74965e-16)
(247.174 -51.6389 -1.90216e-16)
(230.145 -49.11 0)
(222.579 -46.579 -3.7164e-16)
(208.939 -44.465 -2.65783e-16)
(201.829 -42.3188 4.98048e-16)
(190.919 -40.5512 2.97445e-16)
(184.527 -38.7737 4.83449e-20)
(175.811 -37.2822 0)
(170.147 -35.8113 -3.28661e-16)
(163.018 -34.5392 3.54134e-16)
(157.957 -33.2885 0)
(152.072 -32.2 3.50647e-20)
(147.608 -31.1459 0)
(142.772 -30.2279 0)
(138.955 -29.3618 -4.39773e-16)
(135.061 -28.6121 0)
(131.959 -27.9283 0)
(128.991 -27.3604 4.97797e-16)
(126.635 -26.8699 0)
(124.492 -26.4571 0)
(122.829 -26.1232 0)
(121.322 -25.8262 -5.90534e-16)
(120.136 -25.5942 0)
(118.993 -25.3521 0)
(118.037 -25.1679 6.79868e-16)
(117.025 -24.9257 7.12746e-16)
(116.156 -24.7703 0)
(115.11 -24.51 7.81989e-16)
(114.246 -24.3641 0)
(113.134 -24.0678 0)
(112.313 -23.9596 8.8725e-16)
(111.119 -23.6136 0)
(110.438 -23.5859 0)
(109.158 -23.1574 9.85796e-16)
(108.782 -23.2989 0)
(107.45 -22.7437 0)
(107.424 -23.182 1.0438e-15)
(106.694 -22.5349 0)
(103.56 21.6605 0)
(124.695 33.2382 -2.52963e-15)
(131.635 34.603 0)
(135.496 37.2569 0)
(139.049 38.8918 0)
(141.69 40.0407 -2.45204e-19)
(143.779 40.9376 2.37283e-15)
(145.57 41.7198 2.2921e-15)
(147.147 42.3818 2.23579e-15)
(148.591 43.0125 0)
(149.942 43.6019 2.21158e-15)
(151.206 44.1832 0)
(152.391 44.7314 0)
(153.478 45.2725 2.36281e-15)
(154.492 45.7677 2.44771e-15)
(155.404 46.2607 0)
(156.285 46.7182 0)
(157.117 47.1776 0)
(157.985 47.597 -2.85938e-15)
(158.858 48.0593 0)
(159.867 48.4875 0)
(160.921 49.0129 6.30127e-15)
(162.223 49.5222 6.46912e-15)
(163.593 50.1568 0)
(165.285 50.7631 0)
(167.031 51.5578 -2.34356e-19)
(169.215 52.2804 0)
(171.384 53.2686 0)
(174.169 54.1355 0)
(176.827 55.3422 0)
(180.326 56.3657 3.90356e-15)
(183.522 57.8622 0)
(187.933 59.0704 0)
(191.734 60.9102 4.17599e-15)
(197.301 62.3198 0)
(201.74 64.5918 0)
(208.818 66.2542 0)
(213.931 69.0386 4.44954e-15)
(222.98 71.0251 8.99474e-15)
(228.792 74.4676 -4.45952e-15)
(240.536 76.8712 4.47112e-15)
(247.041 81.1209 0)
(262.504 84.1207 0)
(269.658 89.3878 0)
(290.284 93.2939 -1.18256e-18)
(297.761 99.6661 0)
(325.192 104.928 3.41419e-15)
(332.161 112.316 -1.88067e-15)
(369.438 119.788 -5.29037e-15)
(375.533 127.925 0)
(433.001 141.164 -1.58962e-15)
(439.266 148.215 0)
(581.585 199.458 1.25302e-16)
(678.785 -6.96799 3.30756e-16)
(525.051 -104.84 -5.06791e-16)
(429.681 -86.9309 0)
(364.03 -77.1592 -1.29527e-17)
(335.204 -69.2217 0)
(299.961 -63.9644 0)
(286.327 -59.4323 0)
(262.88 -56.029 -7.77052e-20)
(253.678 -52.8086 1.65777e-16)
(236.138 -50.2203 -1.95294e-16)
(228.056 -47.5579 3.21516e-16)
(214.085 -45.4055 2.2979e-16)
(206.615 -43.1714 -4.28615e-16)
(195.449 -41.3732 -2.55907e-16)
(188.776 -39.5319 5.0205e-16)
(179.846 -38.0119 0)
(173.955 -36.4919 3.64783e-20)
(166.65 -35.1941 0)
(161.408 -33.9063 -3.12307e-16)
(155.379 -32.7966 3.31918e-16)
(150.775 -31.7157 -3.4425e-16)
(145.827 -30.7822 -3.62398e-16)
(141.906 -29.8989 2.76301e-20)
(137.935 -29.1408 0)
(134.767 -28.4498 4.09621e-16)
(131.756 -27.8809 0)
(129.369 -27.3909 0)
(127.207 -26.9818 0)
(125.531 -26.6514 0)
(124.016 -26.3578 0)
(122.82 -26.1277 0)
(121.668 -25.8857 0)
(120.699 -25.7006 0)
(119.675 -25.4551 -6.16762e-16)
(118.786 -25.2962 0)
(117.725 -25.0303 0)
(116.837 -24.8802 0)
(115.707 -24.577 0)
(114.857 -24.4651 0)
(113.644 -24.1116 0)
(112.931 -24.0824 0)
(111.637 -23.6455 0)
(111.225 -23.7909 0)
(109.885 -23.2227 0)
(109.826 -23.685 0)
(109.068 -23.0066 0)
(103.467 20.9283 0)
(123.63 32.4939 -1.72151e-15)
(130.37 34.0004 0)
(134.25 36.7593 0)
(137.811 38.4244 1.92889e-15)
(140.52 39.6153 -3.82779e-15)
(142.725 40.5599 -1.87795e-15)
(144.652 41.3913 -1.45266e-19)
(146.368 42.0988 0)
(147.944 42.7723 0)
(149.416 43.4002 -1.79257e-15)
(150.79 44.0174 -1.81287e-15)
(152.073 44.598 1.84942e-15)
(153.25 45.1693 -1.89988e-15)
(154.344 45.6917 -1.96128e-15)
(155.33 46.2101 0)
(156.28 46.6896 0)
(157.176 47.17 0)
(158.104 47.607 0)
(159.035 48.0869 0)
(160.101 48.5294 0)
(161.212 49.0706 -1.29127e-19)
(162.568 49.5915 -2.53171e-15)
(163.994 50.2423 0)
(165.742 50.8591 -2.65025e-15)
(167.547 51.6717 -5.42222e-15)
(169.788 52.4043 -2.77398e-15)
(172.022 53.4138 -2.8411e-15)
(174.867 54.2899 -2.91203e-15)
(177.6 55.5238 2.98667e-15)
(181.164 56.5551 -3.06696e-15)
(184.449 58.0875 -3.14591e-15)
(188.93 59.3 -3.23344e-15)
(192.838 61.1881 -6.61725e-15)
(198.474 62.595 0)
(203.049 64.934 3.46189e-15)
(210.193 66.5812 0)
(215.481 69.4613 -3.58547e-15)
(224.588 71.4111 -3.63484e-15)
(230.633 74.9907 0)
(242.413 77.3228 3.65669e-15)
(249.231 81.7685 0)
(264.692 84.6447 0)
(272.269 90.1895 0)
(292.83 93.9015 -3.31461e-15)
(300.891 100.663 0)
(328.172 105.65 -5.73333e-15)
(335.977 113.568 2.25769e-18)
(372.939 120.671 4.37611e-15)
(380.209 129.45 -1.0709e-16)
(436.817 142.203 0)
(444.317 149.588 -1.38063e-15)
(582.859 199.141 9.028e-17)
(678.763 -6.56917 -2.24073e-16)
(533.744 -105.3 -3.95762e-16)
(444.586 -89.1938 0)
(377.795 -79.6311 1.20589e-17)
(346.354 -71.1549 0)
(309.297 -65.6832 0)
(294.145 -60.8119 2.77955e-17)
(269.806 -57.3041 -2.78082e-16)
(259.786 -53.8889 -6.24033e-20)
(241.759 -51.2437 5.39664e-20)
(233.186 -48.4597 -1.43124e-16)
(218.904 -46.2712 -2.04481e-16)
(211.096 -43.9569 1.8991e-16)
(199.695 -42.1306 4.53445e-16)
(192.76 -40.2318 -3.75168e-20)
(183.635 -38.6859 0)
(177.534 -37.1217 2.48527e-16)
(170.065 -35.8004 2.67952e-16)
(164.655 -34.479 5.51182e-16)
(158.494 -33.3499 -2.92954e-16)
(153.758 -32.2449 3.03821e-16)
(148.706 -31.2974 2.46028e-20)
(144.69 -30.3992 3.32591e-16)
(140.647 -29.6341 0)
(137.421 -28.9376 -7.24203e-16)
(134.371 -28.3689 0)
(131.955 -27.8806 3.94187e-16)
(129.777 -27.4756 0)
(128.088 -27.149 0)
(126.566 -26.8587 -4.52139e-16)
(125.359 -26.6304 0)
(124.198 -26.3881 0)
(123.214 -26.2016 5.23577e-16)
(122.175 -25.9524 -5.49708e-16)
(121.265 -25.7895 0)
(120.185 -25.5176 -6.0457e-16)
(119.271 -25.3627 0)
(118.121 -25.0524 0)
(117.242 -24.9362 0)
(116.01 -24.5752 0)
(115.263 -24.5438 0)
(113.953 -24.0991 7.64111e-16)
(113.506 -24.2473 7.83412e-16)
(112.157 -23.6675 0)
(112.067 -24.1514 -8.09591e-16)
(111.279 -23.445 0)
(103.351 20.2391 0)
(122.651 31.7072 2.5874e-15)
(129.221 33.4294 0)
(133.147 36.2889 0)
(136.716 37.9865 -1.53439e-15)
(139.468 39.215 1.54985e-15)
(141.752 40.197 -1.54245e-15)
(143.78 41.0676 -1.22064e-19)
(145.605 41.8128 0)
(147.29 42.5231 0)
(148.865 43.1846 1.50457e-15)
(150.333 43.8335 1.52002e-15)
(151.701 44.4428 -1.54737e-15)
(152.952 45.0405 0)
(154.112 45.5863 -1.63109e-15)
(155.157 46.1257 0)
(156.159 46.6226 0)
(157.103 47.119 0)
(158.075 47.5685 0)
(159.047 48.0603 -1.90766e-15)
(160.152 48.5116 0)
(161.302 49.0627 -4.01351e-15)
(162.697 49.5903 -2.05186e-15)
(164.164 50.2512 2.09635e-15)
(165.952 50.8741 2.14115e-15)
(167.802 51.6985 2.18804e-15)
(170.087 52.4372 4.47518e-15)
(172.371 53.4612 2.29095e-15)
(175.264 54.3428 4.69566e-15)
(178.053 55.5955 -2.4081e-15)
(181.668 56.631 4.9457e-15)
(185.019 58.1886 2.53746e-15)
(189.553 59.4023 2.4573e-19)
(193.539 61.3246 2.67092e-15)
(199.229 62.7272 -2.74731e-15)
(203.901 65.1142 -5.59745e-15)
(211.097 66.7472 0)
(216.51 69.6969 0)
(225.663 71.6158 2.9507e-15)
(231.874 75.2972 2.9643e-15)
(243.685 77.5712 -2.98331e-15)
(250.73 82.1655 -2.92531e-15)
(266.192 84.9423 0)
(274.084 90.7025 0)
(294.596 94.2591 0)
(303.109 101.329 0)
(330.261 106.093 2.33836e-15)
(338.734 114.431 1.35203e-15)
(375.398 121.234 -1.7417e-15)
(383.592 130.499 1.70847e-16)
(439.416 142.84 0)
(447.679 150.309 2.00658e-15)
(583.633 198.526 -1.37605e-16)
(678.265 -6.22481 1.59241e-16)
(538.93 -105.105 1.84543e-18)
(456.587 -90.8828 0)
(390.093 -81.7711 0)
(356.773 -72.9143 0)
(318.142 -67.2764 -8.72798e-17)
(301.581 -62.0985 -2.55793e-17)
(276.396 -58.4953 1.27815e-16)
(265.594 -54.8987 -1.35573e-16)
(247.101 -52.1998 4.82613e-20)
(238.058 -49.3026 0)
(223.483 -47.0801 -1.856e-16)
(215.355 -44.6921 -1.71773e-16)
(203.734 -42.8398 -2.0509e-16)
(196.555 -40.8884 -2.00243e-16)
(187.246 -39.3185 2.22248e-16)
(180.948 -37.7137 0)
(173.326 -36.3706 -4.83473e-16)
(167.757 -35.0185 -4.97015e-16)
(161.471 -33.8715 2.64262e-16)
(156.611 -32.7445 0)
(151.463 -31.7844 2.88708e-16)
(147.357 -30.8729 0)
(143.248 -30.1022 0)
(139.967 -29.4015 2.16243e-20)
(136.881 -28.8338 0)
(134.44 -28.3479 -2.15157e-20)
(132.247 -27.9474 0)
(130.545 -27.6247 -3.91156e-16)
(129.014 -27.3375 4.10468e-16)
(127.796 -27.1107 -4.31181e-16)
(126.623 -26.8678 0)
(125.623 -26.6794 -4.7648e-16)
(124.567 -26.4261 2.29906e-20)
(123.635 -26.2586 0)
(122.534 -25.9803 1.10204e-15)
(121.594 -25.8202 -5.76838e-16)
(120.421 -25.5026 0)
(119.511 -25.3816 -6.27627e-16)
(118.257 -25.0132 -6.52087e-16)
(117.479 -24.9789 0)
(116.151 -24.5269 -6.96999e-16)
(115.67 -24.677 -1.0178e-20)
(114.307 -24.0866 0)
(114.189 -24.5903 7.38421e-16)
(113.37 -23.8581 -7.48348e-16)
(103.229 19.5668 0)
(121.737 30.9139 -3.54835e-19)
(128.157 32.8811 0)
(132.141 35.8394 0)
(135.72 37.5711 0)
(138.505 38.8352 0)
(140.848 39.8485 1.15441e-19)
(142.953 40.7513 -1.30022e-15)
(144.867 41.5284 -1.29406e-15)
(146.644 42.2706 0)
(148.308 42.9622 0)
(149.858 43.6397 0)
(151.299 44.275 -1.32999e-15)
(152.615 44.8965 1.35948e-15)
(153.831 45.463 1.3955e-15)
(154.925 46.0208 0)
(155.969 46.5322 0)
(156.949 47.0413 0)
(157.954 47.5001 0)
(158.957 48.0003 7.57837e-20)
(160.091 48.4573 1.6443e-15)
(161.27 49.0146 3.35983e-15)
(162.694 49.5457 8.87285e-20)
(164.192 50.213 -3.49473e-15)
(166.013 50.8394 1.78194e-15)
(167.898 51.6717 0)
(170.219 52.414 -3.71644e-15)
(172.543 53.4482 1.90055e-15)
(175.475 54.3328 -1.44004e-19)
(178.309 55.599 0)
(181.966 56.6364 -2.04757e-15)
(185.368 58.2118 0)
(189.945 59.4248 2.15603e-15)
(193.991 61.3717 -2.20545e-15)
(199.725 62.7691 2.26656e-15)
(204.467 65.1907 2.30724e-15)
(211.706 66.8102 0)
(217.209 69.8108 0)
(226.401 71.7029 -4.85927e-15)
(232.729 75.4595 -2.43803e-15)
(244.568 77.6854 2.45384e-15)
(251.775 82.3911 8.3512e-19)
(267.245 85.0877 2.40119e-15)
(275.365 91.0115 0)
(295.848 94.4452 2.22243e-15)
(304.695 101.751 1.81493e-15)
(331.753 106.343 -1.87853e-15)
(340.728 115.001 0)
(377.144 121.564 0)
(385.998 131.169 -1.2932e-16)
(441.189 143.174 0)
(449.948 150.585 -1.46909e-15)
(584.101 197.739 5.48698e-17)
(677.647 -5.92626 -1.21124e-16)
(542.078 -104.608 2.25213e-16)
(466.032 -92.0768 0)
(400.872 -83.5788 0)
(366.432 -74.4981 0)
(326.511 -68.7492 8.17584e-17)
(308.676 -63.3009 0)
(282.7 -59.6134 1.18921e-16)
(271.157 -55.8491 1.25524e-16)
(252.22 -53.1002 1.47805e-16)
(242.729 -50.0978 0)
(227.874 -47.8434 1.71078e-16)
(219.444 -45.3871 1.57865e-16)
(207.615 -43.5106 0)
(200.205 -41.5108 1.83597e-16)
(190.724 -39.9186 -2.67313e-20)
(184.238 -38.2764 0)
(176.472 -36.913 2.4111e-20)
(170.753 -35.5324 4.55485e-16)
(164.347 -34.3686 2.42232e-16)
(159.37 -33.2214 -2.51182e-16)
(154.129 -32.2498 0)
(149.938 -31.3266 0)
(145.768 -30.5511 0)
(142.435 -29.8474 3.00514e-16)
(139.316 -29.2815 0)
(136.85 -28.7985 -3.28284e-16)
(134.643 -28.4027 -3.43876e-16)
(132.929 -28.0839 3.60587e-16)
(131.387 -27.7996 0)
(130.156 -27.5739 3.98173e-16)
(128.97 -27.3299 0)
(127.952 -27.1392 4.40584e-16)
(126.877 -26.8813 4.63105e-16)
(125.921 -26.7087 -4.86578e-16)
(124.797 -26.4238 -5.10242e-16)
(123.829 -26.258 5.34377e-16)
(122.631 -25.9328 -5.58065e-16)
(121.691 -25.8067 5.81689e-16)
(120.414 -25.4309 6.04303e-16)
(119.604 -25.3933 0)
(118.255 -24.9342 0)
(117.742 -25.0857 -6.62645e-16)
(116.364 -24.4853 0)
(116.218 -25.0073 0)
(115.367 -24.2511 6.92026e-16)
(103.108 18.9162 0)
(120.873 30.1335 -1.74419e-15)
(127.158 32.3521 0)
(131.204 35.4058 0)
(134.798 37.1727 0)
(137.611 38.4715 0)
(140.001 39.5127 2.25179e-15)
(142.169 40.443 0)
(144.156 41.2476 8.22897e-20)
(146.011 42.018 0)
(147.753 42.7366 0)
(149.375 43.4403 0)
(150.882 44.0995 1.16701e-15)
(152.255 44.7429 -1.19106e-15)
(153.519 45.3283 1.22e-15)
(154.654 45.9024 1.25239e-15)
(155.734 46.4265 0)
(156.744 46.9461 0)
(157.774 47.4123 0)
(158.8 47.9185 1.38524e-15)
(159.956 48.3791 -1.41422e-15)
(161.158 48.9402 -2.8824e-15)
(162.605 49.473 2.93451e-15)
(164.129 50.1444 1.49333e-15)
(165.977 50.7725 -3.04167e-15)
(167.891 51.6102 0)
(170.243 52.3546 3.16489e-15)
(172.601 53.396 -1.61685e-15)
(175.567 54.2822 -1.65491e-15)
(178.438 55.5582 0)
(182.131 56.5962 -1.73693e-15)
(185.574 58.1846 0)
(190.189 59.3957 1.82448e-15)
(194.281 61.3605 1.86336e-15)
(200.053 62.7521 0)
(204.85 65.1992 0)
(212.126 66.8061 1.9864e-15)
(217.696 69.8444 0)
(226.922 71.713 2.03729e-15)
(233.336 75.5257 -2.03526e-15)
(245.203 77.711 -4.09847e-15)
(252.525 82.5004 1.99911e-15)
(268.01 85.1315 -1.99376e-15)
(276.294 91.1792 1.83842e-15)
(296.767 94.515 -1.8247e-15)
(305.856 102.001 -1.47841e-15)
(332.856 106.457 1.51007e-15)
(342.195 115.353 0)
(378.418 121.726 0)
(387.713 131.554 9.61595e-17)
(442.426 143.297 0)
(451.549 150.576 5.52719e-16)
(584.371 196.849 4.51292e-17)
(677.013 -5.65909 0)
(544.119 -103.993 0)
(473.354 -92.8679 4.61919e-16)
(410.146 -85.0651 9.26243e-18)
(375.294 -75.904 0)
(334.396 -70.1026 7.69257e-17)
(315.447 -64.4231 -2.25833e-17)
(288.745 -60.6646 -2.23525e-16)
(276.507 -56.747 -5.87434e-17)
(257.148 -53.9525 1.38276e-16)
(247.232 -50.8524 0)
(232.112 -48.5684 0)
(223.394 -46.0488 -1.46737e-16)
(211.369 -44.1499 1.75105e-16)
(203.739 -42.1052 -1.7045e-16)
(194.095 -40.4921 -1.89254e-16)
(187.431 -38.8153 -1.90558e-16)
(179.528 -37.4326 2.05661e-16)
(173.664 -36.0256 -4.22669e-16)
(167.145 -34.8461 -2.24872e-16)
(162.055 -33.6803 2.33198e-16)
(156.726 -32.6981 0)
(152.454 -31.7644 0)
(148.225 -30.9851 0)
(144.844 -30.2793 2.79515e-16)
(141.694 -29.7157 0)
(139.204 -29.236 0)
(136.983 -28.8451 3.2073e-16)
(135.255 -28.5301 3.36577e-16)
(133.702 -28.2484 0)
(132.457 -28.0234 0)
(131.255 -27.7779 0)
(130.217 -27.5843 -8.24995e-16)
(129.121 -27.3214 -4.33765e-16)
(128.139 -27.1433 9.12e-16)
(126.992 -26.8514 0)
(125.994 -26.6794 5.01098e-16)
(124.771 -26.3466 5.23408e-16)
(123.799 -26.215 0)
(122.497 -25.8316 0)
(121.655 -25.7905 0)
(120.285 -25.3244 0)
(119.739 -25.4768 0)
(118.344 -24.8669 0)
(118.172 -25.4061 0)
(117.287 -24.6274 6.47844e-16)
(102.991 18.2906 0)
(120.052 29.3726 1.51214e-15)
(126.212 31.8395 0)
(130.321 34.9843 8.8626e-16)
(133.932 36.7875 -9.37095e-16)
(136.773 38.121 0)
(139.203 39.1877 -8.88976e-20)
(141.424 40.1423 0)
(143.473 40.9711 7.35355e-20)
(145.396 41.7667 -1.00722e-15)
(147.206 42.5099 -1.01377e-15)
(148.893 43.2378 0)
(150.457 43.9192 1.0404e-15)
(151.881 44.583 0)
(153.188 45.1859 -1.08494e-15)
(154.359 45.7749 -1.11155e-15)
(155.468 46.3103 -1.1393e-15)