/*--------------------------------*- C++ -*----------------------------------*\
| =========                 |                                                 |
| \\      /  F ield         | OpenFOAM: The Open Source CFD Toolbox           |
|  \\    /   O peration     | Version:  2412                                  |
|   \\  /    A nd           | Website:  www.openfoam.com                      |
|    \\/     M anipulation  |                                                 |
\*---------------------------------------------------------------------------*/
FoamFile
{
    version     2.0;
    format      ascii;
    arch        "LSB;label=32;scalar=64";
    class       volScalarField;
    location    "1";
    object      epsilon;
}
// * * * * * * * * * * * * * * * * * * * * * * * * * * * * * * * * * * * * * //

dimensions      [0 2 -3 0 0 0 0];

internalField   nonuniform List<scalar> 
13068
(
381.006
386.141
393.774
406.558
430.111
474.534
554.25
682.553
864.253
1091.74
1348.73
1617.15
1879.71
2117.68
2307.97
2429.85
2473.47
2451.35
2392.31
2332.24
2294.63
2291.4
2320.54
2380.83
2465.39
2575.77
2706.11
2863.48
3041.68
3254.53
3492.81
3779.94
4100.11
4492.78
4929.89
5479.22
6090.41
6883.81
7770.68
8977.06
10354.3
12348.6
14695.5
18237.3
22342.3
28363.6
34613.5
42913
50289.9
58771.5
65785
62783.9
61581
43396.6
34078
29993.8
28072.5
26084.4
25258.2
23772.7
22323.4
20013.8
17812.8
15451
13503.5
11706.3
10276.2
9008.86
8007.68
7153.23
6496.21
5956.35
5547.83
5211.66
4946.79
4714.72
4512.5
4318.84
4131.55
3941.4
3747.59
3550.28
3349.82
3152.87
2958.74
2777.55
2604.84
2452.13
2309.15
2188.7
2074.14
1981.5
1887.99
1815.26
1734.48
1673.98
1599.73
1546.77
1477.17
380.925
385.964
393.485
406.113
429.413
473.433
552.606
680.368
861.772
1089.45
1347.19
1616.8
1880.6
2119.48
2310.07
2431.8
2475.23
2453.26
2394.77
2335.42
2298.37
2295.44
2324.62
2384.81
2469.22
2579.48
2709.74
2867.1
3045.35
3258.32
3496.77
3784.17
4104.65
4497.73
4935.32
5485.3
6097.27
6891.76
7780
8988.29
10367.8
12365
14714.9
18259.2
22366
28386.9
34636.1
42930.4
50303.6
58750.7
65712.2
62619.6
61225.2
42976
33643.7
29582.1
27713.5
25803.5
25058.1
23638.7
22238.3
19963.4
17786.2
15439.1
13500.1
11707.3
10279.4
9013.29
8012.83
7158.67
6501.61
5961.39
5552.31
5215.47
4949.92
4717.21
4514.44
4320.32
4132.7
3942.33
3748.42
3551.12
3350.74
3153.93
2959.94
2778.89
2606.28
2453.61
2310.6
2190.04
2075.31
1982.43
1888.64
1815.55
1734.4
1673.43
1598.74
1545.16
1475.07
380.844
385.79
393.201
405.674
428.723
472.343
550.975
678.193
859.297
1087.16
1345.65
1616.44
1881.49
2121.26
2312.16
2433.74
2476.99
2455.19
2397.27
2338.62
2302.14
2299.48
2328.7
2388.8
2473.06
2583.2
2713.37
2870.72
3049.02
3262.12
3500.74
3788.4
4109.19
4502.69
4940.75
5491.38
6104.14
6899.71
7789.32
8999.5
10381.4
12381.4
14734.2
18281.2
22389.7
28410.1
34658.9
42947.9
50317.6
58730.4
65640.3
62457.5
60875.5
42565.5
33221.6
29182.9
27365.6
25531.2
24863.9
23508.4
22155.4
19914.3
17760.1
15427.6
13496.9
11708.4
10282.7
9017.78
8018.03
7164.16
6507.05
5966.47
5556.83
5219.32
4953.09
4719.73
4516.4
4321.83
4133.88
3943.3
3749.29
3551.99
3351.69
3155.01
2961.17
2780.26
2607.74
2455.11
2312.05
2191.39
2076.48
1983.36
1889.29
1815.85
1734.35
1672.91
1597.78
1543.58
1473.01
380.765
385.618
392.92
405.242
428.043
471.266
549.359
676.032
856.833
1084.87
1344.12
1616.07
1882.36
2123.01
2314.21
2435.66
2478.75
2457.13
2399.78
2341.84
2305.9
2303.53
2332.78
2392.77
2476.89
2586.9
2717
2874.33
3052.68
3265.9
3504.7
3792.61
4113.71
4507.62
4946.17
5497.44
6110.97
6907.63
7798.6
9010.67
10394.9
12397.7
14753.5
18303
22413.2
28433.3
34681.6
42965.4
50331.5
58710.3
65568.8
62297.2
60531.2
42164.4
32811.3
28795.5
27028.1
25267
24675.1
23381.5
22074.4
19866.1
17734.5
15416.3
13493.8
11709.5
10286
9022.25
8023.22
7169.63
6512.49
5971.54
5561.36
5223.17
4956.26
4722.26
4518.38
4323.35
4135.07
3944.27
3750.17
3552.87
3352.64
3156.09
2962.4
2781.62
2609.19
2456.6
2313.51
2192.74
2077.65
1984.3
1889.94
1816.15
1734.3
1672.39
1596.83
1542.03
1470.98
380.687
385.449
392.644
404.816
427.372
470.202
547.758
673.886
854.382
1082.6
1342.59
1615.71
1883.22
2124.74
2316.23
2437.55
2480.48
2459.06
2402.29
2345.06
2309.67
2307.56
2336.84
2396.74
2480.71
2590.59
2720.6
2877.93
3056.32
3269.66
3508.64
3796.8
4118.21
4512.53
4951.55
5503.46
6117.77
6915.5
7807.83
9021.77
10408.2
12413.9
14772.6
18324.6
22436.6
28456.3
34704.2
42982.7
50345.2
58690.1
65497.5
62138.3
60192.2
41772.3
32412.1
28419.5
26700.5
25010.4
24491.3
23257.6
21995
19818.8
17709.2
15405
13490.6
11710.5
10289.3
9026.66
8028.36
7175.08
6517.91
5976.6
5565.87
5227.01
4959.43
4724.78
4520.35
4324.87
4136.26
3945.25
3751.04
3553.75
3353.6
3157.18
2963.62
2782.98
2610.64
2458.08
2314.95
2194.08
2078.82
1985.22
1890.59
1816.45
1734.25
1671.88
1595.89
1540.49
1468.97
380.61
385.282
392.372
404.395
426.71
469.15
546.172
671.757
851.944
1080.33
1341.07
1615.34
1884.07
2126.44
2318.22
2439.41
2482.21
2461
2404.81
2348.28
2313.43
2311.59
2340.89
2400.69
2484.51
2594.27
2724.19
2881.51
3059.94
3273.4
3512.55
3800.97
4122.68
4517.41
4956.9
5509.45
6124.52
6923.32
7816.99
9032.8
10421.5
12430
14791.5
18346.1
22459.8
28479.1
34726.6
42999.9
50358.6
58669.8
65426.4
61981
59858.2
41388.8
32023.6
28054.3
26382.4
24761.1
24312.3
23136.5
21917.2
19772.2
17684.3
15393.8
13487.4
11711.5
10292.4
9031
8033.44
7180.47
6523.28
5981.63
5570.36
5230.83
4962.57
4727.29
4522.3
4326.38
4137.44
3946.22
3751.91
3554.62
3354.54
3158.25
2964.83
2784.33
2612.07
2459.56
2316.38
2195.41
2079.97
1986.14
1891.24
1816.75
1734.2
1671.38
1594.96
1538.97
1466.98
380.534
385.117
392.103
403.981
426.056
468.11
544.601
669.644
849.521
1078.08
1339.55
1614.98
1884.91
2128.13
2320.19
2441.24
2483.92
2462.93
2407.33
2351.5
2317.19
2315.6
2344.93
2404.62
2488.29
2597.92
2727.77
2885.06
3063.54
3277.12
3516.44
3805.11
4127.12
4522.25
4962.21
5515.39
6131.22
6931.09
7826.09
9043.75
10434.7
12446
14810.3
18367.5
22482.8
28501.7
34748.7
43016.9
50371.8
58649.4
65355.6
61825
59529
41013.8
31645.4
27699.6
26073.5
24518.7
24137.9
23018.2
21840.8
19726.3
17659.5
15382.6
13484.1
11712.3
10295.5
9035.25
8038.44
7185.8
6528.61
5986.62
5574.81
5234.63
4965.7
4729.78
4524.25
4327.88
4138.61
3947.18
3752.78
3555.48
3355.48
3159.31
2966.03
2785.66
2613.49
2461.01
2317.8
2196.72
2081.12
1987.05
1891.88
1817.05
1734.15
1670.87
1594.03
1537.46
1465.01
380.459
384.955
391.839
403.573
425.412
467.083
543.047
667.546
847.112
1075.83
1338.04
1614.62
1885.74
2129.79
2322.12
2443.05
2485.61
2464.86
2409.85
2354.72
2320.93
2319.61
2348.95
2408.54
2492.06
2601.56
2731.32
2888.6
3067.12
3280.82
3520.3
3809.22
4131.53
4527.06
4967.48
5521.29
6137.88
6938.8
7835.12
9054.62
10447.8
12461.9
14829
18388.6
22505.6
28524.2
34770.7
43033.7
50384.7
58628.9
65284.8
61670.3
59204.7
40646.8
31277.2
27355
25773.2
24282.9
23967.8
22902.5
21765.8
19681
17635
15371.5
13480.7
11713.1
10298.4
9039.42
8043.37
7191.07
6533.89
5991.57
5579.23
5238.4
4968.8
4732.25
4526.17
4329.36
4139.77
3948.13
3753.63
3556.34
3356.4
3160.36
2967.22
2786.98
2614.9
2462.45
2319.2
2198.02
2082.25
1987.95
1892.51
1817.34
1734.1
1670.38
1593.11
1535.97
1463.07
380.385
384.795
391.578
403.17
424.777
466.069
541.507
665.466
844.717
1073.6
1336.53
1614.26
1886.56
2131.44
2324.03
2444.84
2487.3
2466.79
2412.37
2357.94
2324.68
2323.6
2352.96
2412.43
2495.81
2605.18
2734.85
2892.12
3070.67
3284.49
3524.14
3813.3
4135.9
4531.83
4972.72
5527.14
6144.48
6946.45
7844.09
9065.41
10460.8
12477.6
14847.5
18409.6
22528.3
28546.4
34792.5
43050.3
50397.3
58608.2
65214.3
61517.1
58885
40287.7
30918.6
27020.1
25481.4
24053.4
23801.7
22789.1
21692
19636.3
17610.6
15360.3
13477.3
11713.7
10301.2
9043.48
8048.21
7196.27
6539.1
5996.47
5583.62
5242.13
4971.87
4734.69
4528.08
4330.83
4140.92
3949.08
3754.48
3557.18
3357.32
3161.4
2968.39
2788.28
2616.29
2463.88
2320.59
2199.31
2083.37
1988.84
1893.13
1817.63
1734.05
1669.88
1592.21
1534.49
1461.14
380.312
384.637
391.321
402.774
424.15
465.067
539.983
663.401
842.337
1071.38
1335.04
1613.9
1887.38
2133.06
2325.91
2446.6
2488.97
2468.71
2414.9
2361.16
2328.41
2327.57
2356.95
2416.32
2499.53
2608.78
2738.36
2895.61
3074.21
3288.13
3527.95
3817.36
4140.25
4536.57
4977.91
5532.95
6151.03
6954.04
7852.99
9076.12
10473.7
12493.2
14865.9
18430.4
22550.7
28568.5
34814.1
43066.7
50409.6
58587.4
65143.9
61365.2
58570
39936.2
30569.4
26694.5
25197.6
23829.9
23639.6
22678.1
21619.4
19592.1
17586.4
15349.1
13473.7
11714.2
10304
9047.44
8052.96
7201.39
6544.26
6001.32
5587.96
5245.84
4974.92
4737.12
4529.96
4332.28
4142.05
3950
3755.31
3558.01
3358.22
3162.42
2969.55
2789.57
2617.66
2465.29
2321.96
2200.58
2084.47
1989.72
1893.75
1817.91
1733.99
1669.39
1591.3
1533.03
1459.24
380.24
384.482
391.068
402.383
423.532
464.077
538.474
661.352
839.971
1069.17
1333.55
1613.54
1888.19
2134.67
2327.77
2448.34
2490.63
2470.64
2417.43
2364.38
2332.14
2331.54
2360.92
2420.18
2503.24
2612.36
2741.86
2899.08
3077.72
3291.75
3531.73
3821.38
4144.56
4541.27
4983.07
5538.72
6157.54
6961.57
7861.81
9086.74
10486.5
12508.7
14884.1
18451
22572.9
28590.3
34835.4
43082.8
50421.7
58566.5
65073.7
61214.7
58259.4
39592
30229.1
26378
24921.6
23612.2
23481.1
22569.2
21547.9
19548.4
17562.3
15337.8
13470.1
11714.6
10306.6
9051.31
8057.63
7206.45
6549.36
6006.13
5592.26
5249.5
4977.93
4739.51
4531.83
4333.72
4143.17
3950.92
3756.13
3558.83
3359.11
3163.43
2970.69
2790.84
2619.01
2466.68
2323.32
2201.84
2085.57
1990.59
1894.36
1818.19
1733.94
1668.9
1590.41
1531.58
1457.35
380.169
384.329
390.819
401.998
422.922
463.099
536.981
659.32
837.62
1066.97
1332.07
1613.18
1888.99
2136.25
2329.6
2450.06
2492.28
2472.57
2419.97
2367.6
2335.85
2335.49
2364.88
2424.02
2506.93
2615.92
2745.33
2902.54
3081.2
3295.35
3535.49
3825.38
4148.84
4545.94
4988.18
5544.44
6163.99
6969.05
7870.57
9097.28
10499.2
12524
14902.1
18471.5
22594.9
28612
34856.5
43098.7
50433.4
58545.4
65003.7
61065.5
57953.3
39255
29897.5
26070.2
24653
23399.9
23326.2
22462.3
21477.5
19505.1
17538.4
15326.5
13466.3
11714.9
10309.1
9055.06
8062.21
7211.42
6554.4
6010.88
5596.52
5253.14
4980.92
4741.89
4533.67
4335.13
4144.27
3951.82
3756.94
3559.64
3359.99
3164.43
2971.82
2792.1
2620.35
2468.05
2324.66
2203.08
2086.65
1991.45
1894.96
1818.46
1733.88
1668.41
1589.52
1530.15
1455.49
380.1
384.178
390.573
401.619
422.321
462.133
535.503
657.304
835.284
1064.78
1330.59
1612.83
1889.78
2137.82
2331.4
2451.75
2493.92
2474.49
2422.5
2370.81
2339.56
2339.42
2368.82
2427.85
2510.6
2619.46
2748.78
2905.96
3084.67
3298.92
3539.22
3829.34
4153.09
4550.57
4993.25
5550.11
6170.39
6976.46
7879.26
9107.73
10511.8
12539.2
14920
18491.7
22616.8
28633.4
34877.5
43114.5
50444.9
58524.3
64933.9
60917.7
57651.5
38924.9
29574.2
25770.7
24391.5
23192.9
23174.6
22357.4
21408.1
19462.3
17514.5
15315.2
13462.4
11715
10311.4
9058.71
8066.69
7216.32
6559.37
6015.58
5600.74
5256.73
4983.87
4744.23
4535.49
4336.53
4145.35
3952.71
3757.73
3560.44
3360.85
3165.41
2972.93
2793.33
2621.67
2469.41
2325.98
2204.31
2087.72
1992.3
1895.55
1818.73
1733.82
1667.92
1588.64
1528.73
1453.64
380.031
384.029
390.331
401.245
421.729
461.179
534.039
655.304
832.962
1062.6
1329.13
1612.48
1890.56
2139.37
2333.18
2453.43
2495.55
2476.42
2425.04
2374.02
2343.26
2343.34
2372.74
2431.65
2514.25
2622.97
2752.21
2909.37
3088.11
3302.47
3542.92
3833.28
4157.31
4555.16
4998.29
5555.74
6176.73
6983.82
7887.88
9118.1
10524.3
12554.3
14937.8
18511.8
22638.4
28654.6
34898.2
43130
50456.1
58503
64864.2
60771.2
57354.1
38601.5
29259
25479.3
24136.9
22991
23026.2
22254.2
21339.6
19419.8
17490.8
15303.8
13458.4
11715.1
10313.7
9062.25
8071.07
7221.13
6564.27
6020.22
5604.9
5260.29
4986.79
4746.55
4537.29
4337.9
4146.42
3953.58
3758.51
3561.22
3361.7
3166.37
2974.02
2794.55
2622.98
2470.75
2327.29
2205.53
2088.77
1993.14
1896.14
1818.99
1733.76
1667.44
1587.77
1527.32
1451.82
379.963
383.883
390.092
400.876
421.144
460.237
532.591
653.32
830.655
1060.44
1327.67
1612.13
1891.34
2140.9
2334.94
2455.09
2497.17
2478.35
2427.58
2377.23
2346.95
2347.25
2376.64
2435.44
2517.88
2626.47
2755.61
2912.76
3091.52
3305.99
3546.59
3837.18
4161.49
4559.72
5003.28
5561.32
6183.02
6991.11
7896.42
9128.37
10536.7
12569.3
14955.4
18531.7
22659.8
28675.7
34918.6
43145.2
50467
58481.6
64794.9
60626
57060.8
38284.7
28951.7
25195.6
23888.7
22793.8
22880.8
22152.9
21271.9
19377.7
17467.1
15292.3
13454.3
11715
10315.8
9065.67
8075.36
7225.87
6569.1
6024.8
5609.02
5263.8
4989.68
4748.84
4539.07
4339.26
4147.48
3954.44
3759.28
3561.98
3362.53
3167.32
2975.1
2795.76
2624.26
2472.08
2328.58
2206.72
2089.81
1993.97
1896.71
1819.25
1733.7
1666.96
1586.9
1525.93
1450.01
379.896
383.738
389.857
400.513
420.568
459.306
531.158
651.353
828.363
1058.29
1326.22
1611.78
1892.11
2142.42
2336.68
2456.74
2498.79
2480.28
2430.13
2380.44
2350.63
2351.14
2380.53
2439.2
2521.49
2629.95
2759
2916.12
3094.92
3309.48
3550.24
3841.06
4165.64
4564.24
5008.23
5566.85
6189.26
6998.34
7904.89
9138.57
10548.9
12584.1
14972.8
18551.4
22681
28696.5
34938.9
43160.3
50477.6
58460.1
64725.7
60482.1
56771.8
37974.2
28651.8
24919.4
23646.9
22601.1
22738.3
22053.1
21205.1
19336
17443.5
15280.8
13450.1
11714.7
10317.8
9068.99
8079.56
7230.52
6573.86
6029.33
5613.1
5267.28
4992.53
4751.1
4540.81
4340.6
4148.51
3955.29
3760.03
3562.74
3363.35
3168.26
2976.16
2796.94
2625.53
2473.38
2329.86
2207.91
2090.84
1994.78
1897.28
1819.5
1733.63
1666.48
1586.03
1524.54
1448.22
379.83
383.596
389.626
400.155
420
458.388
529.739
649.402
826.086
1056.15
1324.78
1611.43
1892.87
2143.91
2338.4
2458.36
2500.4
2482.22
2432.67
2383.64
2354.3
2355.01
2384.39
2442.95
2525.08
2633.4
2762.36
2919.46
3098.28
3312.95
3553.85
3844.9
4169.75
4568.72
5013.13
5572.34
6195.45
7005.5
7913.29
9148.67
10561.1
12598.8
14990
18570.9
22702
28717.1
34958.9
43175.1
50487.9
58438.5
64656.8
60339.6
56486.8
37669.9
28359.3
24650.4
23411.1
22412.8
22598.5
21954.9
21139
19294.5
17419.9
15269.2
13445.7
11714.4
10319.7
9072.2
8083.65
7235.09
6578.55
6033.8
5617.12
5270.71
4995.35
4753.33
4542.54
4341.91
4149.53
3956.11
3760.77
3563.48
3364.15
3169.17
2977.2
2798.11
2626.78
2474.67
2331.11
2209.07
2091.86
1995.59
1897.84
1819.75
1733.57
1666
1585.18
1523.18
1446.45
379.765
383.456
389.398
399.803
419.439
457.48
528.335
647.467
823.824
1054.02
1323.34
1611.09
1893.63
2145.4
2340.1
2459.97
2502.01
2484.15
2435.22
2386.84
2357.96
2358.87
2388.24
2446.67
2528.65
2636.84
2765.71
2922.77
3101.63
3316.4
3557.44
3848.71
4173.83
4573.16
5018
5577.78
6201.58
7012.61
7921.61
9158.68
10573.2
12613.4
15007.1
18590.3
22722.8
28737.4
34978.7
43189.8
50498
58416.9
64588.1
60198.5
56205.8
37371.5
28073.8
24388.4
23181
22228.7
22461.3
21858.2
21073.7
19253.4
17396.4
15257.5
13441.3
11713.9
10321.4
9075.29
8087.65
7239.57
6583.17
6038.2
5621.09
5274.1
4998.13
4755.53
4544.24
4343.21
4150.53
3956.92
3761.49
3564.2
3364.94
3170.07
2978.23
2799.26
2628.01
2475.94
2332.35
2210.22
2092.86
1996.38
1898.39
1819.99
1733.5
1665.53
1584.33
1521.82
1444.69
379.701
383.317
389.173
399.456
418.887
456.584
526.946
645.548
821.578
1051.9
1321.92
1610.75
1894.38
2146.86
2341.77
2461.57
2503.61
2486.09
2437.77
2390.04
2361.61
2362.71
2392.07
2450.38
2532.19
2640.25
2769.03
2926.07
3104.95
3319.81
3561
3852.49
4177.88
4577.56
5022.82
5583.17
6207.66
7019.65
7929.86
9168.61
10585.1
12627.8
15024.1
18609.4
22743.4
28757.6
34998.3
43204.1
50507.8
58395.1
64519.7
60058.6
55928.9
37079
27795.1
24132.9
22956.5
22048.5
22326.6
21762.9
21009.1
19212.5
17372.9
15245.8
13436.7
11713.2
10323.1
9078.28
8091.55
7243.97
6587.72
6042.55
5625.01
5277.45
5000.88
4757.7
4545.91
4344.48
4151.51
3957.72
3762.2
3564.91
3365.71
3170.96
2979.24
2800.39
2629.22
2477.19
2333.58
2211.36
2093.85
1997.16
1898.94
1820.23
1733.43
1665.06
1583.48
1520.48
1442.96
379.638
383.181
388.951
399.114
418.342
455.7
525.572
643.645
819.346
1049.8
1320.5
1610.41
1895.13
2148.32
2343.43
2463.15
2505.21
2488.03
2440.32
2393.23
2365.24
2366.53
2395.87
2454.06
2535.72
2643.64
2772.32
2929.33
3108.24
3323.2
3564.54
3856.24
4181.89
4581.93
5027.6
5588.51
6213.68
7026.63
7938.04
9178.44
10596.9
12642.1
15040.8
18628.3
22763.8
28777.6
35017.7
43218.3
50517.3
58373.3
64451.6
59920.1
55655.8
36792.2
27522.9
23883.9
22737.2
21872.1
22194.2
21668.9
20945.1
19171.9
17349.4
15234
13431.9
11712.5
10324.6
9081.16
8095.35
7248.28
6592.19
6046.84
5628.88
5280.76
5003.59
4759.83
4547.56
4345.73
4152.47
3958.5
3762.89
3565.6
3366.47
3171.83
2980.23
2801.5
2630.42
2478.42
2334.78
2212.48
2094.82
1997.93
1899.47
1820.46
1733.35
1664.59
1582.65
1519.15
1441.24
379.576
383.047
388.733
398.777
417.806
454.826
524.212
641.758
817.13
1047.71
1319.1
1610.08
1895.87
2149.75
2345.07
2464.72
2506.8
2489.97
2442.88
2396.42
2368.87
2370.34
2399.66
2457.73
2539.22
2647.01
2775.6
2932.58
3111.51
3326.56
3568.04
3859.96
4185.86
4586.26
5032.33
5593.8
6219.64
7033.54
7946.14
9188.18
10608.7
12656.2
15057.4
18647.1
22784
28797.3
35036.8
43232.3
50526.5
58351.4
64383.7
59783
55386.7
36510.9
27257.1
23641.1
22523
21699.3
22064.1
21576.2
20881.8
19131.5
17326
15222.1
13427.1
11711.6
10326
9083.92
8099.06
7252.51
6596.6
6051.06
5632.7
5284.02
5006.26
4761.94
4549.18
4346.96
4153.41
3959.26
3763.57
3566.28
3367.21
3172.68
2981.21
2802.59
2631.59
2479.64
2335.97
2213.58
2095.79
1998.69
1900
1820.68
1733.28
1664.12
1581.81
1517.83
1439.54
379.515
382.915
388.519
398.445
417.276
453.964
522.867
639.888
814.929
1045.63
1317.7
1609.74
1896.6
2151.17
2346.7
2466.28
2508.39
2491.91
2445.43
2399.6
2372.48
2374.13
2403.43
2461.37
2542.7
2650.35
2778.85
2935.8
3114.75
3329.9
3571.51
3863.64
4189.8
4590.54
5037.03
5599.04
6225.55
7040.39
7954.16
9197.84
10620.3
12670.3
15073.9
18665.7
22803.9
28816.8
35055.7
43246
50535.5
58329.4
64316.2
59647.1
55121.3
36235
26997.5
23404.2
22313.7
21530
21936.2
21484.6
20819
19091.4
17302.6
15210.1
13422.2
11710.6
10327.2
9086.58
8102.67
7256.65
6600.93
6055.22
5636.46
5287.23
5008.9
4764.02
4550.78
4348.17
4154.34
3960.01
3764.23
3566.94
3367.94
3173.51
2982.16
2803.67
2632.75
2480.83
2337.14
2214.67
2096.73
1999.44
1900.51
1820.9
1733.2
1663.65
1580.99
1516.52
1437.85
379.454
382.785
388.307
398.118
416.755
453.113
521.536
638.034
812.744
1043.57
1316.31
1609.42
1897.33
2152.58
2348.3
2467.83
2509.98
2493.86
2447.99
2402.77
2376.08
2377.9
2407.17
2464.98
2546.16
2653.67
2782.07
2938.99
3117.97
3333.2
3574.95
3867.3
4193.71
4594.79
5041.67
5604.23
6231.41
7047.17
7962.11
9207.4
10631.8
12684.1
15090.1
18684.1
22823.7
28836.1
35074.4
43259.5
50544.2
58307.3
64249
59512.6
54859.8
35964.4
26743.8
23173
22109.1
21364
21810.3
21394.3
20756.9
19051.5
17279.3
15198.1
13417.1
11709.5
10328.4
9089.14
8106.18
7260.71
6605.18
6059.32
5640.18
5290.41
5011.49
4766.06
4552.35
4349.35
4155.24
3960.73
3764.88
3567.59
3368.64
3174.33
2983.1
2804.72
2633.89
2482.01
2338.29
2215.74
2097.67
2000.18
1901.02
1821.11
1733.12
1663.18
1580.17
1515.22
1436.18
379.395
382.656
388.098
397.795
416.24
452.273
520.22
636.196
810.574
1041.52
1314.93
1609.09
1898.05
2153.98
2349.89
2469.36
2511.56
2495.81
2450.55
2405.94
2379.66
2381.66
2410.9
2468.58
2549.59
2656.97
2785.28
2942.16
3121.16
3336.48
3578.36
3870.91
4197.58
4599
5046.28
5609.38
6237.2
7053.89
7969.98
9216.86
10643.1
12697.9
15106.3
18702.2
22843.2
28855.2
35092.9
43272.8
50552.7
58285.3
64182
59379.5
54602
35698.9
26495.9
22947.3
21908.9
21201.2
21686.4
21305.1
20695.3
19011.8
17255.9
15186
13412
11708.3
10329.5
9091.59
8109.6
7264.69
6609.37
6063.36
5643.84
5293.53
5014.06
4768.08
4553.89
4350.52
4156.13
3961.45
3765.51
3568.22
3369.34
3175.13
2984.02
2805.76
2635.01
2483.17
2339.43
2216.8
2098.59
2000.9
1901.52
1821.32
1733.03
1662.72
1579.35
1513.94
1434.53
379.336
382.53
387.893
397.478
415.734
451.443
518.918
634.374
808.42
1039.48
1313.56
1608.77
1898.77
2155.36
2351.46
2470.89
2513.15
2497.76
2453.1
2409.11
2383.23
2385.39
2414.6
2472.15
2553
2660.25
2788.45
2945.31
3124.32
3339.73
3581.75
3874.5
4201.41
4603.17
5050.83
5614.47
6242.94
7060.54
7977.78
9226.24
10654.4
12711.5
15122.2
18720.2
22862.5
28874.1
35111.1
43285.8
50560.9
58263.1
64115.5
59247.7
54347.9
35438.3
26253.6
22726.9
21713
21041.3
21564.3
21216.9
20634.2
18972.4
17232.7
15173.8
13406.7
11706.9
10330.4
9093.94
8112.92
7268.58
6613.48
6067.34
5647.44
5296.62
5016.58
4770.06
4555.41
4351.66
4157
3962.14
3766.12
3568.83
3370.01
3175.91
2984.92
2806.78
2636.11
2484.31
2340.55
2217.84
2099.49
2001.62
1902.01
1821.52
1732.95
1662.26
1578.54
1512.67
1432.9
379.278
382.406
387.691
397.165
415.234
450.625
517.63
632.568
806.281
1037.46
1312.2
1608.45
1899.48
2156.73
2353.02
2472.4
2514.73
2499.72
2455.66
2412.26
2386.79
2389.1
2418.28
2475.7
2556.39
2663.5
2791.61
2948.43
3127.46
3342.95
3585.1
3878.05
4205.2
4607.29
5055.35
5619.51
6248.62
7067.12
7985.49
9235.52
10665.6
12724.9
15138
18738
22881.6
28892.7
35129.1
43298.7
50568.8
58241
64049.2
59117.2
54097.5
35182.7
26016.6
22511.7
21521.3
20884.4
21444.1
21129.8
20573.7
18933.1
17209.4
15161.6
13401.4
11705.5
10331.2
9096.19
8116.16
7272.4
6617.52
6071.25
5651
5299.66
5019.07
4772.01
4556.9
4352.78
4157.85
3962.82
3766.72
3569.43
3370.67
3176.67
2985.8
2807.78
2637.19
2485.43
2341.65
2218.87
2100.38
2002.32
1902.5
1821.72
1732.86
1661.8
1577.74
1511.41
1431.28
379.221
382.283
387.492
396.858
414.742
449.817
516.356
630.779
804.159
1035.44
1310.85
1608.14
1900.18
2158.08
2354.57
2473.91
2516.31
2501.68
2458.22
2415.41
2390.33
2392.8
2421.94
2479.23
2559.76
2666.73
2794.74
2951.53
3130.57
3346.15
3588.42
3881.57
4208.96
4611.38
5059.82
5624.5
6254.25
7073.64
7993.13
9244.7
10676.6
12738.2
15153.6
18755.6
22900.5
28911.1
35146.9
43311.3
50576.5
58218.8
63983.3
58988.1
53850.7
34931.9
25784.9
22301.3
21333.4
20730.2
21325.6
21043.7
20513.7
18894.1
17186.2
15149.4
13395.9
11703.9
10331.9
9098.34
8119.3
7276.13
6621.49
6075.11
5654.5
5302.66
5021.51
4773.93
4558.36
4353.88
4158.68
3963.48
3767.3
3570.02
3371.32
3177.42
2986.67
2808.76
2638.25
2486.53
2342.73
2219.87
2101.26
2003.01
1902.97
1821.91
1732.77
1661.34
1576.94
1510.16
1429.68
379.165
382.162
387.296
396.554
414.257
449.019
515.097
629.006
802.052
1033.45
1309.51
1607.82
1900.89
2159.42
2356.1
2475.4
2517.89
2503.64
2460.78
2418.56
2393.86
2396.47
2425.57
2482.73
2563.1
2669.93
2797.84
2954.6
3133.65
3349.31
3591.71
3885.06
4212.68
4615.42
5064.24
5629.44
6259.81
7080.09
8000.69
9253.79
10687.5
12751.4
15169
18773
22919.2
28929.3
35164.4
43323.8
50584
58196.6
63917.8
58860.3
53607.5
34685.7
25558.3
22095.7
21149.4
20578.7
21208.7
20958.5
20454.2
18855.3
17163
15137.1
13390.4
11702.3
10332.6
9100.39
8122.36
7279.78
6625.39
6078.9
5657.96
5305.61
5023.93
4775.82
4559.8
4354.95
4159.49
3964.12
3767.87
3570.58
3371.94
3178.15
2987.51
2809.72
2639.29
2487.61
2343.8
2220.87
2102.13
2003.69
1903.43
1822.1
1732.67
1660.88
1576.15
1508.92
1428.09
379.11
382.043
387.103
396.256
413.779
448.232
513.851
627.249
799.961
1031.46
1308.18
1607.52
1901.58
2160.75
2357.61
2476.89
2519.47
2505.6
2463.33
2421.69
2397.37
2400.13
2429.19
2486.21
2566.41
2673.11
2800.92
2957.64
3136.71
3352.45
3594.97
3888.51
4216.37
4619.43
5068.62
5634.33
6265.32
7086.48
8008.17
9262.79
10698.3
12764.4
15184.3
18790.3
22937.6
28947.3
35181.7
43336
50591.3
58174.4
63852.7
58733.9
53367.8
34444.1
25336.6
21894.7
20969.1
20429.7
21093.5
20874.3
20395.1
18816.7
17139.9
15124.7
13384.8
11700.5
10333.1
9102.35
8125.33
7283.35
6629.22
6082.63
5661.36
5308.52
5026.3
4777.68
4561.22
4356.01
4160.28
3964.75
3768.42
3571.14
3372.55
3178.87
2988.34
2810.66
2640.31
2488.68
2344.85
2221.84
2102.98
2004.36
1903.89
1822.28
1732.58
1660.42
1575.36
1507.7
1426.52
379.055
381.926
386.912
395.962
413.308
447.456
512.62
625.508
797.887
1029.49
1306.86
1607.21
1902.28
2162.07
2359.12
2478.37
2521.04
2507.57
2465.89
2424.81
2400.87
2403.76
2432.78
2489.66
2569.7
2676.26
2803.98
2960.66
3139.74
3355.55
3598.2
3891.93
4220.02
4623.39
5072.95
5639.16
6270.77
7092.8
8015.57
9271.69
10709
12777.3
15199.4
18807.3
22955.9
28965.1
35198.8
43348
50598.3
58152.2
63788
58608.8
53131.7
34207
25119.7
21698.2
20792.2
20283.2
20979.8
20791
20336.6
18778.3
17116.9
15112.3
13379.1
11698.7
10333.5
9104.23
8128.21
7286.85
6632.98
6086.31
5664.7
5311.38
5028.64
4779.51
4562.61
4357.04
4161.06
3965.36
3768.95
3571.67
3373.15
3179.56
2989.15
2811.59
2641.32
2489.73
2345.88
2222.81
2103.82
2005.02
1904.34
1822.46
1732.48
1659.97
1574.58
1506.48
1424.97
379.002
381.81
386.725
395.672
412.843
446.69
511.402
623.784
795.828
1027.54
1305.55
1606.91
1902.97
2163.38
2360.61
2479.84
2522.62
2509.54
2468.44
2427.93
2404.35
2407.37
2436.34
2493.09
2572.97
2679.39
2807.01
2963.65
3142.74
3358.63
3601.39
3895.31
4223.63
4627.31
5077.23
5643.95
6276.16
7099.04
8022.89
9280.5
10719.6
12790.1
15214.3
18824.1
22973.9
28982.6
35215.7
43359.8
50605
58130
63723.7
58485.2
52899.1
33974.2
24907.4
21505.9
20618.7
20139.1
20867.7
20708.5
20278.5
18740.2
17093.9
15099.9
13373.3
11696.7
10333.9
9106.01
8131.02
7290.27
6636.67
6089.92
5668
5314.2
5030.94
4781.31
4563.97
4358.05
4161.82
3965.96
3769.47
3572.19
3373.73
3180.24
2989.95
2812.49
2642.31
2490.76
2346.89
2223.75
2104.64
2005.67
1904.78
1822.63
1732.38
1659.52
1573.8
1505.28
1423.43
378.949
381.697
386.541
395.387
412.386
445.934
510.199
622.076
793.786
1025.59
1304.25
1606.62
1903.65
2164.68
2362.08
2481.31
2524.2
2511.51
2470.99
2431.03
2407.81
2410.96
2439.88
2496.5
2576.21
2682.49
2810.01
2966.61
3145.71
3361.68
3604.56
3898.66
4227.2
4631.19
5081.47
5648.68
6281.49
7105.23
8030.14
9289.21
10730.1
12802.7
15229.1
18840.7
22991.7
29000
35232.4
43371.3
50611.6
58107.8
63659.8
58362.8
52669.9
33745.8
24699.7
21317.7
20448.4
19997.2
20757
20627
20221
18702.2
17070.9
15087.5
13367.5
11694.7
10334.1
9107.71
8133.74
7293.62
6640.3
6093.48
5671.25
5316.98
5033.21
4783.08
4565.31
4359.04
4162.55
3966.54
3769.98
3572.7
3374.29
3180.9
2990.72
2813.38
2643.27
2491.77
2347.89
2224.68
2105.45
2006.3
1905.21
1822.79
1732.28
1659.07
1573.03
1504.08
1421.91
378.897
381.585
386.359
395.106
411.936
445.188
509.009
620.384
791.761
1023.67
1302.96
1606.33
1904.33
2165.96
2363.55
2482.76
2525.77
2513.48
2473.54
2434.13
2411.25
2414.53
2443.4
2499.88
2579.43
2685.57
2812.99
2969.55
3148.66
3364.7
3607.69
3901.97
4230.73
4635.03
5085.66
5653.36
6286.77
7111.34
8037.3
9297.82
10740.4
12815.2
15243.7
18857.2
23009.3
29017.1
35248.8
43382.7
50618
58085.7
63596.3
58241.9
52444.1
33521.6
24496.3
21133.5
20281.3
19857.6
20647.7
20546.3
20163.9
18664.5
17048.1
15075
13361.6
11692.6
10334.3
9109.34
8136.38
7296.89
6643.86
6096.98
5674.45
5319.72
5035.44
4784.82
4566.63
4360.02
4163.28
3967.1
3770.47
3573.19
3374.83
3181.55
2991.48
2814.25
2644.22
2492.76
2348.87
2225.6
2106.25
2006.93
1905.63
1822.95
1732.17
1658.62
1572.26
1502.9
1420.4
378.845
381.474
386.18
394.83
411.492
444.453
507.833
618.709
789.751
1021.75
1301.68
1606.04
1905
2167.24
2365
2484.21
2527.35
2515.45
2476.09
2437.21
2414.68
2418.07
2446.89
2503.23
2582.62
2688.62
2815.94
2972.46
3151.58
3367.69
3610.79
3905.25
4234.23
4638.82
5089.81
5657.99
6291.98
7117.38
8044.38
9306.34
10750.7
12827.5
15258.1
18873.4
23026.7
29034
35265
43393.9
50624.1
58063.6
63533.3
58122.3
52221.8
33301.5
24297.2
20953.1
20117.2
19720
20539.7
20466.4
20107.2
18627.1
17025.3
15062.6
13355.6
11690.5
10334.4
9110.88
8138.95
7300.09
6647.35
6100.42
5677.6
5322.42
5037.64
4786.53
4567.92
4360.97
4163.98
3967.65
3770.94
3573.66
3375.36
3182.18
2992.22
2815.1
2645.15
2493.73
2349.83
2226.5
2107.03
2007.54
1906.05
1823.1
1732.06
1658.17
1571.5
1501.73
1418.91
378.795
381.366
386.004
394.558
411.055
443.727
506.671
617.049
787.759
1019.86
1300.41
1605.76
1905.68
2168.5
2366.44
2485.66
2528.92
2517.42
2478.63
2440.29
2418.09
2421.59
2450.36
2506.56
2585.78
2691.64
2818.87
2975.34
3154.47
3370.64
3613.86
3908.49
4237.68
4642.58
5093.9
5662.56
6297.14
7123.36
8051.39
9314.76
10760.8
12839.7
15272.3
18889.4
23043.9
29050.7
35281
43404.9
50630
58041.5
63470.7
58004.1
52002.8
33085.5
24102.3
20776.5
19956
19584.6
20433.2
20387.4
20051.1
18589.9
17002.7
15050.2
13349.6
11688.3
10334.4
9112.34
8141.45
7303.23
6650.79
6103.8
5680.7
5325.07
5039.8
4788.21
4569.18
4361.9
4164.67
3968.18
3771.4
3574.12
3375.88
3182.79
2992.94
2815.93
2646.07
2494.69
2350.78
2227.38
2107.8
2008.15
1906.46
1823.25
1731.96
1657.73
1570.75
1500.57
1417.43
378.745
381.259
385.831
394.29
410.624
443.011
505.523
615.406
785.783
1017.97
1299.15
1605.48
1906.34
2169.75
2367.87
2487.1
2530.5
2519.4
2481.17
2443.35
2421.48
2425.09
2453.8
2509.86
2588.92
2694.64
2821.76
2978.2
3157.33
3373.57
3616.89
3911.7
4241.1
4646.29
5097.96
5667.08
6302.23
7129.26
8058.31
9323.09
10770.8
12851.7
15286.4
18905.3
23060.9
29067.1
35296.8
43415.7
50635.7
58019.5
63408.7
57887.3
51787.2
32873.5
23911.4
20603.5
19797.6
19451.1
20327.9
20309.1
19995.4
18552.9
16980.1
15037.7
13343.6
11686
10334.4
9113.74
8143.87
7306.29
6654.16
6107.13
5683.75
5327.69
5041.93
4789.87
4570.43
4362.81
4165.34
3968.69
3771.84
3574.57
3376.38
3183.38
2993.64
2816.75
2646.96
2495.63
2351.71
2228.25
2108.56
2008.74
1906.86
1823.4
1731.84
1657.28
1570
1499.42
1415.97
378.696
381.153
385.66
394.026
410.2
442.305
504.388
613.78
783.824
1016.1
1297.9
1605.2
1907.01
2170.99
2369.29
2488.53
2532.07
2521.37
2483.7
2446.4
2424.85
2428.57
2457.21
2513.14
2592.03
2697.61
2824.64
2981.03
3160.16
3376.47
3619.89
3914.87
4244.48
4649.95
5101.96
5671.55
6307.27
7135.1
8065.15
9331.31
10780.7
12863.6
15300.3
18920.9
23077.6
29083.4
35312.3
43426.3
50641.3
57997.5
63347.1
57771.9
51575
32665.4
23724.5
20434
19642
19319.5
20223.9
20231.7
19940.2
18516.2
16957.6
15025.3
13337.6
11683.6
10334.3
9115.07
8146.23
7309.29
6657.47
6110.41
5686.75
5330.26
5044.03
4791.49
4571.65
4363.7
4165.99
3969.2
3772.27
3575
3376.86
3183.96
2994.33
2817.54
2647.84
2496.55
2352.62
2229.1
2109.31
2009.32
1907.25
1823.54
1731.73
1656.84
1569.26
1498.29
1414.52
378.648
381.05
385.492
393.766
409.782
441.609
503.267
612.17
781.882
1014.25
1296.66
1604.93
1907.67
2172.23
2370.7
2489.96
2533.65
2523.35
2486.23
2449.43
2428.19
2432.02
2460.6
2516.38
2595.11
2700.56
2827.48
2983.83
3162.96
3379.33
3622.86
3918.01
4247.82
4653.58
5105.92
5675.97
6312.24
7140.87
8071.91
9339.45