/*--------------------------------*- C++ -*----------------------------------*\
| =========                 |                                                 |
| \\      /  F ield         | OpenFOAM: The Open Source CFD Toolbox           |
|  \\    /   O peration     | Version:  2412                                  |
|   \\  /    A nd           | Website:  www.openfoam.com                      |
|    \\/     M anipulation  |                                                 |
\*---------------------------------------------------------------------------*/
FoamFile
{
    version     2.0;
    format      ascii;
    arch        "LSB;label=32;scalar=64";
    class       volScalarField;
    location    "1";
    object      k;
}
// * * * * * * * * * * * * * * * * * * * * * * * * * * * * * * * * * * * * * //

dimensions      [0 2 -2 0 0 0 0];

internalField   nonuniform List<scalar> 
13068
(
37.7725
38.1913
38.8608
40.0339
42.127
45.6505
50.9849
58.0443
66.1898
74.473
82.0708
88.5361
93.7095
97.5187
99.8497
100.702
100.302
99.2488
98.2366
97.8596
98.2769
99.4494
101.151
103.335
105.856
108.812
112.07
115.825
119.895
124.595
129.639
135.521
141.782
149.201
157.035
166.523
176.463
188.864
201.805
218.648
236.379
260.59
286.222
321.784
357.721
405.419
447.745
500.033
541.019
586.391
618.899
585.933
567.726
428.444
347.575
315.293
316.396
321.19
330.477
324.788
315.352
295.574
276.792
255.344
237.612
220.034
205.803
192.341
181.575
171.863
164.314
157.745
152.652
148.134
144.372
140.768
137.401
133.944
130.446
126.79
123.02
119.18
115.29
111.498
107.759
104.288
100.93
97.9565
95.0681
92.615
90.1327
88.1078
85.8897
84.164
82.0704
80.5239
78.4642
77.0394
75.0054
37.767
38.1789
38.8399
40.0008
42.0759
45.5763
50.889
57.9388
66.0961
74.4144
82.0643
88.5865
93.8081
97.6464
99.9854
100.831
100.421
99.3613
98.3476
97.9695
98.3831
99.5493
101.244
103.421
105.938
108.89
112.146
115.901
119.972
124.673
129.719
135.605
141.87
149.293
157.132
166.628
176.577
188.989
201.945
218.805
236.555
260.783
286.429
321.994
357.927
405.603
447.917
500.157
541.106
586.236
618.432
584.886
565.558
425.798
345.031
313.168
314.823
320.098
329.757
324.317
315.063
295.415
276.728
255.34
237.645
220.086
205.868
192.414
181.654
171.943
164.392
157.816
152.714
148.186
144.415
140.801
137.428
133.965
130.464
126.807
123.038
119.2
115.312
111.523
107.787
104.318
100.961
97.9866
95.0957
92.6387
90.1507
88.1185
85.892
84.1552
82.0501
80.4878
78.4125
76.9658
74.9143
37.7616
38.1667
38.8192
39.9681
42.0254
45.5026
50.7934
57.8336
66.0024
74.3557
82.0576
88.6367
93.9061
97.7734
100.12
100.959
100.539
99.4737
98.4585
98.0795
98.4893
99.6492
101.337
103.508
106.02
108.969
112.223
115.978
120.049
124.752
129.8
135.688
141.957
149.385
157.23
166.734
176.691
189.115
202.085
218.962
236.731
260.977
286.637
322.204
358.132
405.786
448.089
500.282
541.194
586.085
617.969
583.851
563.415
423.194
342.534
311.083
313.279
319.025
329.048
323.851
314.776
295.257
276.665
255.338
237.679
220.139
205.933
192.488
181.733
172.023
164.469
157.887
152.777
148.238
144.457
140.835
137.455
133.987
130.483
126.825
123.057
119.22
115.335
111.549
107.815
104.348
100.992
98.0169
95.1235
92.6625
90.1689
88.1294
85.8945
84.1468
82.0302
80.4523
78.3616
76.8932
74.8245
37.7562
38.1546
38.7989
39.9358
41.9753
45.4296
50.6985
57.7287
65.9089
74.297
82.0508
88.6866
94.0037
97.8995
100.254
101.086
100.657
99.5856
98.5692
98.1892
98.5951
99.7487
101.429
103.594
106.101
109.047
112.299
116.054
120.125
124.83
129.88
135.772
142.044
149.477
157.328
166.838
176.804
189.24
202.224
219.118
236.906
261.169
286.843
322.412
358.337
405.969
448.261
500.407
541.281
585.933
617.509
582.825
561.296
420.629
340.08
309.037
311.763
317.968
328.346
323.389
314.492
295.101
276.602
255.334
237.711
220.191
205.997
192.56
181.812
172.103
164.547
157.958
152.839
148.29
144.5
140.869
137.481
134.009
130.502
126.843
123.075
119.24
115.358
111.575
107.844
104.378
101.023
98.047
95.1512
92.6862
90.1871
88.1403
85.8971
84.1385
82.0106
80.4171
78.3111
76.8214
74.7355
37.7509
38.1428
38.7788
39.9039
41.9258
45.3572
50.6041
57.6243
65.8156
74.2383
82.0439
88.7363
94.1007
98.0247
100.386
101.212
100.773
99.6969
98.6794
98.2985
98.7006
99.8479
101.521
103.68
106.182
109.125
112.375
116.129
120.201
124.907
129.96
135.855
142.13
149.569
157.424
166.942
176.917
189.364
202.362
219.273
237.079
261.361
287.047
322.619
358.54
406.15
448.431
500.531
541.367
585.782
617.049
581.806
559.199
418.101
337.668
307.028
310.272
316.927
327.653
322.931
314.209
294.944
276.538
255.33
237.742
220.241
206.06
192.632
181.889
172.182
164.623
158.028
152.9
148.342
144.542
140.902
137.508
134.03
130.521
126.86
123.093
119.261
115.381
111.601
107.872
104.408
101.053
98.0769
95.1787
92.7097
90.2051
88.1511
85.8996
84.1302
81.9911
80.3822
78.261
76.7502
74.6475
37.7457
38.131
38.7589
39.8724
41.8768
45.2854
50.5104
57.5203
65.7226
74.1798
82.0371
88.7857
94.1971
98.1489
100.518
101.337
100.889
99.8075
98.7892
98.4073
98.8056
99.9465
101.613
103.766
106.263
109.202
112.451
116.204
120.276
124.984
130.039
135.937
142.216
149.659
157.52
167.046
177.029
189.488
202.499
219.427
237.252
261.55
287.25
322.825
358.741
406.33
448.6
500.653
541.451
585.629
616.591
580.795
557.123
415.61
335.297
305.055
308.807
315.901
326.966
322.476
313.927
294.787
276.473
255.324
237.771
220.29
206.122
192.702
181.965
172.26
164.699
158.098
152.961
148.393
144.583
140.935
137.534
134.052
130.539
126.878
123.111
119.28
115.403
111.626
107.9
104.438
101.084
98.1065
95.2059
92.733
90.223
88.1618
85.9021
84.122
81.9717
80.3475
78.2113
76.6796
74.5602
37.7406
38.1195
38.7394
39.8413
41.8284
45.2143
50.4173
57.4168
65.6299
74.1214
82.0302
88.8349
94.293
98.2722
100.648
101.461
101.004
99.9174
98.8983
98.5156
98.91
100.045
101.704
103.851
106.343
109.279
112.526
116.279
120.351
125.06
130.117
136.018
142.301
149.749
157.616
167.148
177.14
189.61
202.635
219.58
237.423
261.738
287.451
323.028
358.94
406.508
448.767
500.773
541.532
585.476
616.133
579.791
555.07
413.155
332.965
303.116
307.365
314.888
326.286
322.025
313.646
294.63
276.407
255.317
237.799
220.337
206.182
192.771
182.041
172.337
164.774
158.166
153.021
148.444
144.624
140.968
137.56
134.073
130.557
126.895
123.129
119.3
115.425
111.651
107.927
104.468
101.114
98.1357
95.2327
92.756
90.2406
88.1723
85.9044
84.1137
81.9523
80.3131
78.162
76.6096
74.4738
37.7355
38.1081
38.7201
39.8106
41.7805
45.1439
50.3248
57.3139
65.5375
74.0631
82.0232
88.8839
94.3883
98.3945
100.777
101.583
101.118
100.027
99.007
98.6234
99.014
100.142
101.795
103.935
106.423
109.356
112.601
116.353
120.426
125.136
130.195
136.1
142.386
149.838
157.71
167.25
177.25
189.731
202.77
219.732
237.592
261.925
287.651
323.23
359.138
406.685
448.932
500.891
541.612
585.322
615.677
578.794
553.037
410.734
330.671
301.21
305.946
313.888
325.613
321.576
313.366
294.473
276.34
255.308
237.826
220.383
206.24
192.839
182.115
172.413
164.848
158.234
153.081
148.493
144.665
141
137.586
134.093
130.575
126.912
123.147
119.319
115.447
111.676
107.954
104.497
101.143
98.1646
95.2593
92.7787
90.2579
88.1826
85.9067
84.1054
81.9331
80.2788
78.113
76.5402
74.3882
37.7305
38.0969
38.7011
39.7803
41.7332
45.074
50.233
57.2114
65.4453
74.0049
82.0163
88.9326
94.483
98.5158
100.904
101.705
101.23
100.135
99.115
98.7307
99.1174
100.239
101.885
104.019
106.502
109.432
112.675
116.426
120.5
125.212
130.273
136.18
142.47
149.927
157.804
167.351
177.359
189.852
202.904
219.882
237.76
262.11
287.848
323.43
359.333
406.86
449.096
501.008
541.689
585.167
615.221
577.805
551.025
408.348
328.415
299.336
304.548
312.901
324.945
321.129
313.086
294.315
276.272
255.298
237.851
220.427
206.297
192.905
182.187
172.488
164.921
158.301
153.14
148.543
144.705
141.032
137.611
134.114
130.593
126.929
123.164
119.339
115.469
111.7
107.981
104.525
101.172
98.1932
95.2855
92.8012
90.2751
88.1928
85.9088
84.097
81.9138
80.2447
78.0644
76.4714
74.3033
37.7256
38.0858
38.6823
39.7503
41.6863
45.0048
50.1418
57.1094
65.3535
73.9469
82.0093
88.9811
94.5772
98.6362
101.031
101.825
101.342
100.243
99.2225
98.8375
99.2203
100.336
101.974
104.103
106.581
109.507
112.748
116.499
120.573
125.286
130.349
136.26
142.553
150.015
157.897
167.451
177.468
189.971
203.037
220.031
237.927
262.293
288.044
323.628
359.527
407.033
449.258
501.123
541.764
585.011
614.766
576.823
549.034
405.994
326.195
297.493
303.172
311.926
324.283
320.685
312.807
294.157
276.203
255.287
237.874
220.47
206.353
192.97
182.259
172.562
164.993
158.368
153.198
148.591
144.744
141.063
137.635
134.134
130.61
126.945
123.181
119.357
115.49
111.724
108.008
104.553
101.201
98.2213
95.3114
92.8233
90.292
88.2027
85.9108
84.0887
81.8947
80.2108
78.0161
76.4032
74.2192
37.7208
38.0749
38.6638
39.7208
41.64
44.9363
50.0512
57.0079
65.262
73.889
82.0023
89.0294
94.6707
98.7557
101.156
101.944
101.453
100.35
99.3295
98.9437
99.3226
100.432
102.063
104.186
106.659
109.583
112.822
116.572
120.646
125.361
130.426
136.339
142.636
150.102
157.99
167.55
177.575
190.09
203.169
220.179
238.092
262.474
288.238
323.824
359.719
407.204
449.417
501.236
541.837
584.854
614.312
575.848
547.063
403.674
324.01
295.68
301.816
310.963
323.626
320.244
312.529
293.998
276.133
255.274
237.896
220.511
206.407
193.033
182.329
172.635
165.064
158.433
153.255
148.64
144.783
141.094
137.66
134.153
130.627
126.961
123.198
119.376
115.511
111.748
108.034
104.581
101.23
98.2492
95.337
92.8452
90.3086
88.2125
85.9127
84.0802
81.8756
80.1771
77.9681
76.3355
74.1359
37.716
38.0641
38.6455
39.6916
41.5943
44.8684
49.9613
56.907
65.1708
73.8312
81.9953
89.0774
94.7637
98.8742
101.28
102.062
101.563
100.457
99.4359
99.0494
99.4244
100.528
102.152
104.268
106.737
109.657
112.894
116.644
120.718
125.434
130.501
136.418
142.718
150.189
158.081
167.649
177.682
190.208
203.299
220.326
238.256
262.655
288.431
324.018
359.909
407.373
449.576
501.348
541.908
584.696
613.859
574.88
545.113
401.385
321.859
293.897
300.479
310.011
322.975
319.805
312.251
293.839
276.062
255.26
237.916
220.55
206.46
193.095
182.398
172.707
165.135
158.498
153.312
148.687
144.822
141.124
137.684
134.173
130.644
126.977
123.214
119.394
115.532
111.771
108.059
104.609
101.258
98.2767
95.3622
92.8667
90.325
88.2221
85.9145
84.0718
81.8565
80.1437
77.9205
76.2685
74.0533
37.7112
38.0535
38.6275
39.6628
41.549
44.8011
49.8721
56.8065
65.0799
73.7736
81.9882
89.1252
94.8561
98.9917
101.403
102.179
101.672
100.563
99.5417
99.1545
99.5256
100.622
102.24
104.35
106.814
109.731
112.966
116.715
120.79
125.507
130.576
136.495
142.799
150.274
158.172
167.746
177.787
190.324
203.429
220.471
238.418
262.833
288.621
324.211
360.097
407.541
449.732
501.457
541.977
584.538
613.407
573.92
543.183
399.127
319.742
292.142
299.161
309.069
322.328
319.367
311.973
293.68
275.99
255.244
237.935
220.588
206.511
193.156
182.466
172.777
165.204
158.562
153.368
148.734
144.86
141.154
137.707
134.192
130.66
126.993
123.23
119.412
115.552
111.794
108.085
104.636
101.285
98.3038
95.3871
92.888
90.3412
88.2315
85.9162
84.0633
81.8375
80.1104
77.8732
76.202
73.9715
37.7066
38.043
38.6097
39.6343
41.5043
44.7344
49.7834
56.7066
64.9893
73.716
81.9811
89.1727
94.9479
99.1083
101.525
102.295
101.781
100.668
99.647
99.2591
99.6263
100.717
102.327
104.432
106.891
109.805
113.038
116.786
120.861
125.58
130.651
136.573
142.88
150.359
158.262
167.843
177.892
190.44
203.557
220.615
238.579
263.01
288.81
324.401
360.284
407.707
449.886
501.565
542.044
584.379
612.956
572.967
541.273
396.9
317.658
290.414
297.862
308.137
321.687
318.932
311.696
293.52
275.917
255.227
237.952
220.625
206.561
193.215
182.533
172.847
165.272
158.625
153.423
148.78
144.897
141.184
137.731
134.211
130.677
127.008
123.246
119.43
115.572
111.817
108.11
104.663
101.313
98.3305
95.4117
92.9089
90.3571
88.2407
85.9177
84.0548
81.8186
80.0772
77.8262
76.136
73.8904
37.702
38.0327
38.5922
39.6063
41.46
44.6684
49.6954
56.6072
64.899
73.6587
81.974
89.2199
95.0391
99.224
101.646
102.409
101.888
100.772
99.7517
99.3631
99.7263
100.811
102.414
104.512
106.967
109.877
113.109
116.857
120.932
125.652
130.724
136.649
142.959
150.443
158.351
167.939
177.996
190.554
203.684
220.758
238.739
263.185
288.997
324.59
360.468
407.871
450.039
501.672
542.109
584.219
612.507
572.022
539.383
394.704
315.605
288.712
296.579
307.216
321.049
318.499
311.42
293.359
275.843
255.209
237.968
220.66
206.609
193.273
182.598
172.915
165.34
158.687
153.478
148.826
144.934
141.213
137.753
134.229
130.692
127.023
123.262
119.447
115.591
111.839
108.134
104.689
101.34
98.3569
95.436
92.9296
90.3728
88.2498
85.9192
84.0462
81.7997
80.0443
77.7796
76.0706
73.8101
37.6975
38.0225
38.5749
39.5786
41.4163
44.603
49.6081
56.5083
64.8091
73.6015
81.9669
89.2669
95.1297
99.3387
101.765
102.523
101.995
100.876
99.8559
99.4665
99.8258
100.904
102.501
104.593
107.042
109.95
113.179
116.926
121.002
125.723
130.798
136.725
143.039
150.527
158.44
168.034
178.099
190.667
203.81
220.899
238.897
263.358
289.182
324.777
360.651
408.034
450.19
501.776
542.172
584.059
612.059
571.084
537.514
392.536
313.583
287.036
295.313
306.303
320.417
318.068
311.143
293.198
275.767
255.189
237.982
220.693
206.656
193.33
182.662
172.983
165.406
158.748
153.532
148.871
144.97
141.241
137.776
134.247
130.708
127.038
123.277
119.464
115.611
111.861
108.158
104.715
101.366
98.383
95.4599
92.95
90.3883
88.2586
85.9205
84.0377
81.7809
80.0116
77.7333
76.0058
73.7305
37.693
38.0124
38.5578
39.5512
41.3731
44.5383
49.5214
56.4099
64.7195
73.5444
81.9597
89.3136
95.2197
99.4524
101.884
102.635
102.101
100.979
99.9594
99.5694
99.9248
100.996
102.586
104.673
107.117
110.022
113.249
116.996
121.071
125.794
130.87
136.801
143.117
150.61
158.527
168.128
178.201
190.78
203.935
221.039
239.053
263.53
289.365
324.962
360.831
408.194
450.339
501.879
542.232
583.898
611.612
570.153
535.663
390.398
311.591
285.385
294.064
305.4
319.788
317.638
310.868
293.037
275.691
255.168
237.995
220.726
206.701
193.385
182.725
173.049
165.471
158.809
153.585
148.915
145.006
141.269
137.798
134.265
130.723
127.052
123.292
119.48
115.63
111.882
108.182
104.741
101.393
98.4086
95.4834
92.9701
90.4034
88.2673
85.9217
84.029
81.7621
79.979
77.6873
75.9415
73.6516
37.6886
38.0025
38.541
39.5242
41.3304
44.4741
49.4354
56.3121
64.6303
73.4875
81.9525
89.36
95.309
99.5652
102.001
102.747
102.206
101.082
100.062
99.6717
100.023
101.088
102.671
104.752
107.192
110.093
113.319
117.065
121.14
125.864
130.942
136.875
143.195
150.692
158.614
168.221
178.302
190.891
204.059
221.178
239.208
263.7
289.547
325.145
361.01
408.353
450.486
501.98
542.291
583.737
611.167
569.23
533.833
388.289
309.629
283.758
292.83
304.505
319.164
317.211
310.592
292.875
275.614
255.146
238.006
220.756
206.746
193.44
182.787
173.114
165.536
158.869
153.637
148.959
145.041
141.297
137.819
134.282
130.738
127.066
123.307
119.497
115.648
111.904
108.206
104.766
101.418
98.4339
95.5067
92.9898
90.4184
88.2757
85.9228
84.0204
81.7434
79.9467
77.6416
75.8777
73.5734
37.6843
37.9928
38.5244
39.4976
41.2881
44.4106
49.35
56.2149
64.5414
73.4307
81.9453
89.4062
95.3978
99.677
102.118
102.857
102.31
101.184
100.165
99.7733
100.121
101.18
102.756
104.83
107.266
110.164
113.388
117.133
121.208
125.934
131.013
136.949
143.272
150.773
158.7
168.314
178.402
191.002
204.181
221.316
239.362
263.868
289.726
325.326
361.187
408.51
450.632
502.079
542.348
583.575
610.723
568.314
532.023
386.208
307.696
282.154
291.611
303.619
318.543
316.785
310.317
292.713
275.536
255.123
238.016
220.785
206.788
193.492
182.847
173.178
165.6
158.927
153.689
149.002
145.076
141.324
137.841
134.299
130.753
127.08
123.321
119.513
115.667
111.925
108.229
104.791
101.444
98.4588
95.5296
93.0093
90.4331
88.284
85.9237
84.0117
81.7248
79.9145
77.5963
75.8145
73.496
37.68
37.9832
38.5081
39.4713
41.2464
44.3477
49.2652
56.1181
64.4529
73.3741
81.9381
89.4521
95.4859
99.788
102.233
102.967
102.413
101.285
100.267
99.8744
100.218
101.271
102.84
104.909
107.34
110.234
113.456
117.2
121.276
126.003
131.084
137.022
143.348
150.853
158.785
168.405
178.501
191.111
204.303
221.452
239.514
264.035
289.904
325.505
361.362
408.666
450.775
502.177
542.404
583.413
610.281
567.407
530.231
384.154
305.79
280.573
290.407
302.74
317.927
316.361
310.043
292.551
275.457
255.098
238.025
220.813
206.83
193.544
182.907
173.241
165.662
158.986
153.74
149.044
145.11
141.351
137.861
134.316
130.767
127.093
123.335
119.528
115.684
111.945
108.252
104.815
101.469
98.4834
95.5521
93.0285
90.4475
88.2921
85.9246
84.003
81.7062
79.8825
77.5512
75.7518
73.4192
37.6758
37.9737
38.492
39.4453
41.2052
44.2854
49.1811
56.0219
64.3647
73.3177
81.9308
89.4977
95.5734
99.8979
102.347
103.075
102.515
101.386
100.368
99.9749
100.314
101.361
102.924
104.986
107.412
110.304
113.524
117.267
121.343
126.071
131.154
137.095
143.424
150.933
158.87
168.496
178.599
191.219
204.423
221.587
239.664
264.2
290.08
325.682
361.535
408.819
450.917
502.273
542.457
583.25
609.841
566.506
528.46
382.127
303.912
279.014
289.216
301.87
317.314
315.939
309.769
292.388
275.377
255.073
238.032
220.84
206.87
193.594
182.965
173.303
165.724
159.043
153.79
149.086
145.144
141.377
137.882
134.332
130.781
127.107
123.349
119.544
115.702
111.965
108.274
104.839
101.494
98.5076
95.5743
93.0474
90.4617
88.3
85.9253
83.9942
81.6876
79.8507
77.5065
75.6896
73.3432
37.6716
37.9643
38.4761
39.4197
41.1644
44.2238
49.0977
55.9263
64.2769
73.2615
81.9235
89.543
95.6603
100.007
102.46
103.183
102.617
101.486
100.468
100.075
100.41
101.451
103.006
105.063
107.485
110.373
113.591
117.334
121.41
126.139
131.223
137.167
143.499
151.012
158.953
168.586
178.696
191.326
204.542
221.72
239.813
264.363
290.254
325.858
361.706
408.971
451.057
502.367
542.508
583.088
609.402
565.614
526.708
380.128
302.061
277.476
288.04
301.008
316.706
315.518
309.495
292.225
275.297
255.046
238.039
220.865
206.908
193.643
183.022
173.364
165.785
159.099
153.84
149.127
145.177
141.402
137.902
134.348
130.794
127.12
123.362
119.559
115.719
111.985
108.296
104.863
101.518
98.5314
95.5962
93.0659
90.4757
88.3078
85.9259
83.9854
81.6691
79.8191
77.4621
75.628
73.2678
37.6675
37.9551
38.4604
39.3945
41.1242
44.1627
49.0149
55.8312
64.1895
73.2054
81.9162
89.588
95.7465
100.115
102.572
103.289
102.718
101.585
100.568
100.174
100.505
101.539
103.089
105.14
107.557
110.442
113.658
117.4
121.476
126.206
131.292
137.238
143.573
151.09
159.036
168.675
178.793
191.432
204.66
221.852
239.96
264.525
290.426
326.031
361.875
409.121
451.196
502.459
542.558
582.925
608.966
564.729
524.975
378.155
300.236
275.959
286.877
300.153
316.101
315.1
309.223
292.062
275.215
255.018
238.044
220.889
206.946
193.691
183.078
173.424
165.845
159.155
153.889
149.168
145.209
141.428
137.921
134.364
130.808
127.132
123.375
119.574
115.736
112.004
108.317
104.886
101.542
98.5548
95.6178
93.0842
90.4894
88.3153
85.9264
83.9766
81.6507
79.7876
77.418
75.5669
73.1932
37.6635
37.946
38.4449
39.3695
41.0844
44.1023
48.9328
55.7367
64.1025
73.1495
81.9089
89.6328
95.8322
100.222
102.683
103.395
102.818
101.684
100.668
100.273
100.6
101.628
103.17
105.215
107.628
110.51
113.724
117.465
121.541
126.272
131.36
137.309
143.646
151.168
159.118
168.763
178.888
191.537
204.776
221.983
240.106
264.685
290.596
326.203
362.043
409.269
451.332
502.55
542.606
582.761
608.531
563.852
523.262
376.208
298.437
274.462
285.726
299.305
315.5
314.683
308.95
291.898
275.134
254.989
238.047
220.912
206.982
193.737
183.132
173.483
165.903
159.21
153.937
149.208
145.241
141.453
137.941
134.379
130.821
127.144
123.388
119.588
115.753
112.023
108.339
104.909
101.565
98.5779
95.639
93.1022
90.5029
88.3227
85.9268
83.9677
81.6323
79.7564
77.3743
75.5063
73.1192
37.6595
37.9371
38.4297
39.3449
41.0451
44.0425
48.8513
55.6428
64.0158
73.0938
81.9015
89.6772
95.9171
100.328
102.793
103.5
102.917
101.782
100.767
100.371
100.694
101.716
103.251
105.291
107.698
110.578
113.789
117.53
121.606
126.338
131.427
137.379
143.719
151.244
159.199
168.85
178.982
191.641
204.892
222.112
240.251
264.843
290.765
326.372
362.208
409.415
451.467
502.64
542.652
582.598
608.099
562.983
521.568
374.287
296.662
272.985
284.588
298.464
314.902
314.268
308.679
291.735
275.051
254.959
238.05
220.933
207.017
193.783
183.186
173.541
165.961
159.264
153.984
149.247
145.273
141.477
137.96
134.394
130.833
127.156
123.401
119.602
115.769
112.042
108.359
104.932
101.588
98.6006
95.6599
93.1199
90.5161
88.3298
85.9271
83.9588
81.614
79.7253
77.3308
75.4462
73.0459
37.6556
37.9283
38.4147
39.3207
41.0062
43.9833
48.7705
55.5494
63.9295
73.0383
81.8941
89.7213
96.0015
100.434
102.901
103.603
103.016
101.879
100.865
100.468
100.787
101.803
103.332
105.365
107.769
110.645
113.854
117.594
121.67
126.403
131.494
137.448
143.791
151.32
159.279
168.936
179.075
191.744
205.006
222.241
240.393
265
290.932
326.54
362.371
409.56
451.6
502.727
542.697
582.435
607.669
562.122
519.893
372.391
294.913
271.527
283.462
297.631
314.309
313.855
308.408
291.572
274.968
254.929
238.052
220.954
207.051
193.827
183.239
173.597
166.018
159.317
154.031
149.286
145.304
141.501
137.978
134.408
130.846
127.168
123.413
119.616
115.785
112.06
108.38
104.954
101.611
98.6229
95.6804
93.1373
90.5291
88.3368
85.9272
83.9499
81.5957
79.6944
77.2877
75.3866
72.9732
37.6517
37.9196
38.3999
39.2967
40.9679
43.9247
48.6903
55.4566
63.8437
72.983
81.8867
89.7652
96.0851
100.538
103.009
103.706
103.114
101.976
100.962
100.565
100.88
101.889
103.412
105.439
107.838
110.711
113.919
117.658
121.734
126.468
131.56
137.516
143.862
151.395
159.358
169.021
179.168
191.846
205.119
222.367
240.535
265.154
291.096
326.706
362.533
409.702
451.731
502.814
542.74
582.271
607.24
561.268
518.238
370.521
293.187
270.087
282.349
296.804
313.719
313.444
308.138
291.408
274.884
254.897
238.052
220.973
207.083
193.87
183.29
173.653
166.075
159.369
154.077
149.324
145.334
141.525
137.996
134.423
130.858
127.179
123.425
119.629
115.8
112.078
108.4
104.975
101.633
98.6449
95.7006
93.1544
90.5419
88.3436
85.9273
83.941
81.5775
79.6637
77.2448
75.3275
72.9013
37.6479
37.911
38.3853
39.2731
40.93
43.8667
48.6108
55.3644
63.7582
72.9278
81.8793
89.8087
96.1682
100.641
103.116
103.807
103.211
102.072
101.059
100.661
100.972
101.975
103.491
105.513
107.907
110.777
113.982
117.721
121.797
126.532
131.626
137.584
143.933
151.469
159.437
169.106
179.259
191.947
205.231
222.493
240.674
265.307
291.259
326.87
362.693
409.843
451.86
502.898
542.781
582.108
606.815
560.423
516.602
368.676
291.486
268.665
281.246
295.985
313.133
313.036
307.869
291.245
274.8
254.865
238.051
220.991
207.115
193.912
183.34
173.708
166.13
159.421
154.122
149.362
145.364
141.548
138.014
134.437
130.87
127.191
123.436
119.642
115.815
112.095
108.419
104.997
101.655
98.6665
95.7204
93.1712
90.5544
88.3503
85.9272
83.932
81.5593
79.6332
77.2023
75.269
72.8299
37.6442
37.9026
38.3709
39.2498
40.8925
43.8093
48.532
55.2728
63.6732
72.8729
81.8718
89.8519
96.2505
100.744
103.221
103.908
103.307
102.167
101.156
100.756
101.063
102.06
103.569
105.586
107.975
110.842
114.046
117.783
121.859
126.595
131.69
137.651
144.003
151.543
159.515
169.189
179.349
192.046
205.341
222.617
240.813
265.459
291.42
327.032
362.85
409.983
451.988
502.981
542.821
581.944
606.391
559.586
514.985
366.855
289.807
267.262
280.156
295.172
312.551
312.629
307.601
291.082
274.715
254.832
238.05
221.008
207.145
193.953
183.39
173.762
166.184
159.472
154.167
149.399
145.393
141.57
138.031
134.45
130.881
127.201
123.448
119.655
115.83
112.113
108.439
105.018
101.677
98.6877
95.74
93.1877
90.5666
88.3567
85.927
83.923
81.5412
79.6029
77.1601
75.2109
72.7593
37.6405
37.8942
38.3567
39.2268
40.8556
43.7525
48.4539
55.1818
63.5885
72.8182
81.8644
89.8948
96.3323
100.845
103.326
104.008
103.402
102.262
101.251
100.851
101.154
102.144
103.647
105.658
108.043
110.907
114.108
117.845
121.921
126.658
131.755
137.718
144.072
151.616
159.591
169.272
179.439
192.145
205.451
222.739
240.949
265.608
291.579
327.192
363.006
410.12
452.114
503.062
542.859
581.781
605.97
558.757
513.387
365.059
288.152
265.875
279.076
294.366
311.973
312.224
307.334
290.919
274.631
254.798
238.047
221.024
207.175
193.993
183.438
173.815
166.238
159.522
154.211
149.435
145.422
141.592
138.048
134.463
130.892
127.212
123.459
119.668
115.845
112.129
108.458
105.038
101.698
98.7086
95.7592
93.204
90.5787
88.363
85.9267
83.914
81.5232
79.5727
77.1182
75.1534
72.6893
37.6368
37.886
38.3427
39.2041
40.8191
43.6963
48.3764
55.0914
63.5043
72.7637
81.8569
89.9373
96.4133
100.946
103.43
104.107
103.497
102.356
101.346
100.945
101.244
102.228
103.725
105.73
108.11
110.971
114.17
117.906
121.982
126.72
131.818
137.783
144.14
151.687
159.667
169.353
179.527
192.242
205.559
222.861
241.084
265.756
291.737
327.35
363.16
410.256
452.238
503.142
542.895
581.618
605.552
557.937
511.809
363.287
286.519
264.506
278.008
293.566
311.398
311.822
307.068
290.756
274.545
254.763
238.044
221.039
207.203
194.031
183.485
173.867
166.29
159.571
154.254
149.471
145.451
141.614
138.065
134.476
130.903
127.222
123.469
119.68
115.859
112.146
108.476
105.058
101.719
98.7291
95.7781
93.2199
90.5905
88.3691
85.9263
83.9049
81.5053
79.5428
77.0766
75.0963
72.6199
37.6332
37.878
38.3289
39.1818
40.783
43.6408
48.2996
55.0016
63.4206
72.7095
81.8493
89.9796
96.4937
101.046
103.532
104.205
103.591
102.45
101.44
101.038
101.333
102.311
103.801
105.801
108.177
111.034
114.232
117.967
122.043
126.781
131.881
137.848
144.207
151.758
159.742
169.434
179.614
192.339
205.666
222.981
241.218
265.902
291.892
327.506
363.312
410.39
452.361
503.221
542.931
581.456
605.136
557.124
510.249
361.539
284.908
263.153
276.95
292.773
310.828
311.422
306.803
290.594
274.46
254.728
238.04
221.053
207.23
194.069
183.531
173.918
166.342
159.619
154.297
149.506
145.479
141.636
138.081
134.489
130.914
127.232
123.48
119.691
115.872
112.162
108.494
105.078
101.74
98.7493
95.7966
93.2356
90.602
88.3751
85.9258
83.8959
81.4874
79.513
77.0353
75.0398
72.5512
37.6297
37.87
38.3154
39.1597
40.7474
43.5858
48.2234
54.9124
63.3373
72.6554
81.8418
90.0215
96.5734
101.144
103.634
104.302
103.684
102.542
101.534
101.131
101.421
102.394
103.877
105.871
108.243
111.097
114.293
118.027
122.103
126.842
131.943
137.912
144.274
151.829
159.817
169.514
179.701
192.434
205.772
223.099
241.35
266.047
292.046
327.661
363.462
410.522
452.482
503.298
542.964
581.293
604.723
556.32
508.709
359.815
283.319
261.817
275.903
291.987
310.262
311.024
306.54
290.432
274.375
254.692
238.035
221.066
207.256
194.106
183.577
173.968
166.393
159.667
154.338
149.541
145.506
141.657
138.097
134.501
130.924
127.241
123.49
119.703
115.886
112.178
108.512
105.097
101.76
98.7691
95.8148
93.2509
90.6134
88.3808
85.9252
83.8868
81.4695
79.4834
76.9943
74.9837
72.4832
37.6262
37.8622
38.302
39.138
40.7122
43.5314
48.148
54.8238
63.2544
72.6016
81.8342
90.0631
96.6524
101.242
103.735
104.398
103.777
102.634
101.627
101.223
101.509
102.475
103.952
105.941
108.308
111.159
114.353
118.086
122.162
126.902
132.004
137.976
144.34
151.898
159.89
169.592
179.786
192.528
205.876
223.216
241.48
266.189
292.197
327.813
363.61
410.653
452.601
503.373
542.997
581.132
604.313
555.524
507.188
358.115
281.752
260.497
274.866
291.208
309.699
310.629
306.278
290.271
274.289
254.656
238.029
221.078
207.282
194.142
183.621
174.017
166.443
159.714
154.38
149.575
145.533
141.677
138.113
134.513
130.934
127.251
123.5
119.714
115.899
112.193
108.529
105.116
101.779
98.7885
95.8327
93.266
90.6245
88.3864
85.9245
83.8777
81.4518
79.4541
76.9536
74.9282
72.4158
37.6228
37.8544
38.2888
39.1165
40.6775
43.4776
48.0732
54.7359
63.172
72.5481
81.8266
90.1043
96.7308
101.339
103.834
104.494
103.868
102.726
101.719
101.314
101.596
102.556
104.027
106.01
108.373
111.221
114.413
118.145
122.221
126.961
132.065
138.039
144.405
151.967
159.963
169.67
179.87
192.621
205.98
223.332
241.609
266.33
292.347
327.964
363.757
410.782
452.718
503.447
543.028
580.97
603.906
554.737
505.687
356.439
280.206
259.192
273.84
290.435
309.142
310.237
306.017
290.11
274.203
254.619
238.022
221.089
207.306
194.177
183.664
174.065
166.492
159.76
154.42
149.609
145.56
141.697
138.128
134.525
130.944
127.26
123.509
119.725
115.912
112.208
108.546
105.135
101.799
98.8076
95.8503
93.2808
90.6354
88.3919
85.9237
83.8686
81.4341
79.4249
76.9133
74.8731
72.349
37.6194
37.8468
38.2758
39.0954
40.6433
43.4244
47.9991
54.6486
63.0901
72.4947
81.819
90.1452
96.8084
101.435
103.933
104.588
103.959
102.816
101.811
101.404
101.682
102.637
104.101
106.078
108.437
111.282
114.472
118.203
122.279
127.02
132.125
138.101
144.47
152.035
160.034
169.747
179.954
192.713
206.082
223.446
241.736
266.47
292.495
328.112
363.901
410.909
452.834
503.52
543.058
580.809
603.502
553.959
504.204
354.785
278.681
257.904
272.825
289.669
308.588
309.847
305.758
289.95
274.118
254.582
238.015
221.1
207.33
194.211
183.707
174.112
166.541
159.806
154.46
149.642
145.586
141.717
138.143
134.537
130.953
127.269
123.518
119.736
115.924
112.222
108.563
105.153
101.818
98.8264
95.8676
93.2954
90.646
88.3971
85.9228
83.8594
81.4165
79.3959
76.8733
74.8185
72.2829
37.6161
37.8393
38.263
39.0746
40.6094
43.3718
47.9256
54.5619
63.0086
72.4417
81.8114
90.1858
96.8854
101.53
104.03
104.681
104.049
102.906
101.902
101.494
101.768
102.716
104.174
106.146
108.5
111.343
114.53
118.261
122.336
127.078
132.184
138.162
144.534
152.102
160.105
169.823
180.036
192.804
206.183
223.559
241.862
266.607
292.641
328.259
364.044
411.034
452.948
503.591
543.086
580.649
603.101
553.188
502.741
353.155
277.177
256.63
271.819
288.91
308.039
309.46
305.501
289.791
274.032
254.545
238.008
221.11
207.353
194.244
183.749
174.159
166.589
159.85
154.5
149.674
145.611
141.737
138.157
134.548
130.963
127.277
123.527
119.746
115.936
112.237
108.579
105.171
101.836
98.8448
95.8845
93.3096
90.6564
88.4023
85.9219
83.8503
81.3989
79.3671
76.8335
74.7645
72.2173
37.6128
37.832
38.2504
39.054
40.5761
43.3198
47.8529
54.4759
62.9276
72.3888
81.8037
90.226
96.9617
101.624
104.127
104.774
104.139
102.996
101.992
101.583
101.853
102.795
104.247
106.213
108.563
111.402
114.588
118.318
122.393