/*--------------------------------*- C++ -*----------------------------------*\
| =========                 |                                                 |
| \\      /  F ield         | OpenFOAM: The Open Source CFD Toolbox           |
|  \\    /   O peration     | Version:  2412                                  |
|   \\  /    A nd           | Website:  www.openfoam.com                      |
|    \\/     M anipulation  |                                                 |
\*---------------------------------------------------------------------------*/
FoamFile
{
    version     2.0;
    format      ascii;
    arch        "LSB;label=32;scalar=64";
    class       volScalarField;
    location    "1";
    object      nut;
}
// * * * * * * * * * * * * * * * * * * * * * * * * * * * * * * * * * * * * * //

dimensions      [0 2 -1 0 0 0 0];

internalField   nonuniform List<scalar> 
13068
(
0.337025
0.339957
0.345159
0.354793
0.37135
0.395244
0.422105
0.444248
0.45623
0.457215
0.449465
0.436248
0.420455
0.404164
0.388783
0.37561
0.366066
0.361649
0.363054
0.369552
0.37882
0.388459
0.39682
0.403652
0.409062
0.4137
0.417709
0.421653
0.425336
0.429295
0.433051
0.437292
0.441256
0.445933
0.45019
0.455485
0.460152
0.466348
0.471682
0.479291
0.485669
0.494926
0.501721
0.510989
0.51547
0.521542
0.521265
0.524385
0.523825
0.526562
0.524028
0.492141
0.471057
0.380693
0.319055
0.298292
0.32094
0.355947
0.389154
0.399361
0.400935
0.392867
0.387094
0.379784
0.376301
0.372221
0.370947
0.369585
0.37055
0.371623
0.374052
0.375988
0.378029
0.378944
0.379216
0.378261
0.376536
0.37387
0.370672
0.36708
0.363449
0.36007
0.357111
0.35487
0.353218
0.35241
0.351969
0.352181
0.352257
0.352711
0.352507
0.352595
0.351661
0.351202
0.3495
0.348612
0.346369
0.345337
0.342766
0.336999
0.339893
0.34504
0.354595
0.371052
0.394877
0.421768
0.444057
0.456249
0.457456
0.449905
0.43684
0.421139
0.404879
0.389484
0.37627
0.366672
0.362187
0.3635
0.369879
0.379021
0.388556
0.396852
0.403654
0.409058
0.413702
0.41772
0.421674
0.425367
0.429334
0.433097
0.437343
0.441311
0.445993
0.450255
0.455555
0.460229
0.46643
0.47177
0.479381
0.485757
0.495004
0.501788
0.511041
0.515516
0.521587
0.521324
0.524434
0.523851
0.526472
0.523817
0.491671
0.470182
0.379685
0.318461
0.298379
0.321872
0.35738
0.390555
0.400459
0.40173
0.393433
0.387495
0.380065
0.376499
0.372367
0.371065
0.369686
0.370635
0.371688
0.374095
0.376009
0.378032
0.378934
0.379198
0.378242
0.37652
0.373861
0.370674
0.367094
0.363475
0.360105
0.357153
0.354914
0.353258
0.352442
0.351989
0.352185
0.352241
0.352675
0.35245
0.352516
0.35156
0.351073
0.349342
0.348413
0.346126
0.345037
0.34242
0.336973
0.339829
0.344923
0.354398
0.370756
0.39451
0.42143
0.443864
0.456267
0.457698
0.450346
0.437432
0.421822
0.405594
0.390183
0.376928
0.367274
0.362722
0.363942
0.370202
0.379218
0.388651
0.396883
0.403656
0.409054
0.413703
0.417731
0.421696
0.425398
0.429373
0.433142
0.437394
0.441367
0.446053
0.45032
0.455625
0.460305
0.466512
0.471857
0.47947
0.485845
0.495083
0.501855
0.511093
0.515563
0.521632
0.521382
0.524483
0.523877
0.526381
0.523607
0.491204
0.469307
0.378672
0.317854
0.298447
0.322776
0.358773
0.391914
0.401521
0.402501
0.393984
0.387887
0.380341
0.376693
0.372511
0.371181
0.369784
0.370718
0.371751
0.374136
0.376028
0.378033
0.378922
0.37918
0.378222
0.376503
0.373852
0.370675
0.367107
0.363499
0.360139
0.357193
0.354956
0.353298
0.352474
0.352008
0.352187
0.352225
0.352639
0.352394
0.352438
0.351459
0.350944
0.349184
0.348215
0.345885
0.344738
0.342077
0.336948
0.339766
0.344807
0.354203
0.370461
0.394143
0.421091
0.443669
0.456283
0.457938
0.450786
0.438024
0.422503
0.406305
0.390878
0.377581
0.367873
0.363252
0.36438
0.370521
0.379413
0.388744
0.396913
0.403658
0.40905
0.413705
0.417743
0.421718
0.425429
0.429412
0.433187
0.437445
0.441422
0.446113
0.450384
0.455695
0.46038
0.466594
0.471944
0.479559
0.485932
0.495161
0.501922
0.511145
0.51561
0.521677
0.521441
0.524531
0.523901
0.52629
0.523398
0.490738
0.468432
0.377655
0.317235
0.298497
0.32365
0.360127
0.393231
0.402551
0.40325
0.39452
0.388269
0.380611
0.376884
0.372651
0.371293
0.36988
0.370798
0.371812
0.374174
0.376045
0.378032
0.378908
0.379159
0.378201
0.376486
0.373842
0.370676
0.367119
0.363523
0.360172
0.357233
0.354999
0.353338
0.352506
0.352026
0.35219
0.352209
0.352603
0.352337
0.352359
0.351359
0.350816
0.349027
0.348018
0.345645
0.344441
0.341736
0.336923
0.339704
0.344692
0.35401
0.370169
0.393778
0.420752
0.443472
0.456298
0.458176
0.451224
0.438613
0.423182
0.407013
0.39157
0.37823
0.368467
0.363778
0.364813
0.370837
0.379605
0.388836
0.396942
0.403659
0.409045
0.413706
0.417754
0.42174
0.42546
0.429451
0.433232
0.437495
0.441477
0.446173
0.450448
0.455764
0.460455
0.466675
0.472031
0.479647
0.486018
0.495238
0.501988
0.511197
0.515656
0.521721
0.521498
0.524578
0.523924
0.526198
0.523188
0.490275
0.467557
0.376632
0.316604
0.298527
0.324496
0.361443
0.39451
0.40355
0.403977
0.395043
0.388644
0.380875
0.37707
0.372789
0.371404
0.369974
0.370876
0.371872
0.374211
0.37606
0.378029
0.378893
0.379138
0.378178
0.376467
0.373831
0.370675
0.367131
0.363546
0.360205
0.357272
0.35504
0.353376
0.352536
0.352044
0.352192
0.352192
0.352566
0.352281
0.352281
0.351258
0.350689
0.348871
0.347822
0.345407
0.344146
0.341398
0.336898
0.339642
0.344579
0.353819
0.369878
0.393413
0.420412
0.443275
0.456311
0.458414
0.451661
0.439201
0.423859
0.407718
0.392257
0.378875
0.369056
0.364299
0.365242
0.371149
0.379795
0.388926
0.39697
0.403659
0.40904
0.413706
0.417764
0.421761
0.42549
0.429489
0.433277
0.437545
0.441531
0.446231
0.450512
0.455833
0.46053
0.466756
0.472116
0.479735
0.486104
0.495314
0.502054
0.511247
0.515701
0.521765
0.521554
0.524624
0.523946
0.526106
0.522978
0.489813
0.466683
0.375606
0.31596
0.298537
0.325313
0.362722
0.395751
0.40452
0.404684
0.395553
0.38901
0.381135
0.377254
0.372924
0.371512
0.370066
0.370953
0.371929
0.374247
0.376074
0.378026
0.378877
0.379116
0.378155
0.376448
0.373819
0.370674
0.367141
0.363568
0.360237
0.35731
0.35508
0.353414
0.352566
0.352062
0.352193
0.352176
0.35253
0.352224
0.352203
0.351159
0.350562
0.348716
0.347627
0.34517
0.343853
0.341062
0.336873
0.339581
0.344467
0.353629
0.369588
0.393049
0.420071
0.443075
0.456322
0.458649
0.452097
0.439787
0.424533
0.408419
0.39294
0.379515
0.369641
0.364815
0.365667
0.371456
0.379981
0.389015
0.396998
0.40366
0.409035
0.413707
0.417775
0.421781
0.42552
0.429526
0.43332
0.437594
0.441585
0.44629
0.450574
0.455901
0.460604
0.466835
0.472201
0.479822
0.486189
0.49539
0.502118
0.511298
0.515746
0.521807
0.521609
0.524668
0.523966
0.526014
0.522769
0.489352
0.46581
0.374575
0.315304
0.298529
0.326101
0.363963
0.396955
0.40546
0.405373
0.396052
0.38937
0.381391
0.377435
0.373057
0.371618
0.370157
0.371029
0.371986
0.374282
0.376087
0.378021
0.37886
0.379092
0.378131
0.376428
0.373807
0.370673
0.367151
0.363589
0.360268
0.357348
0.35512
0.353451
0.352596
0.352079
0.352195
0.352159
0.352494
0.352168
0.352126
0.351059
0.350436
0.348561
0.347433
0.344935
0.343561
0.340728
0.336849
0.339521
0.344356
0.353442
0.369301
0.392686
0.41973
0.442874
0.456332
0.458883
0.452531
0.440371
0.425203
0.409116
0.393619
0.38015
0.370222
0.365327
0.366087
0.371761
0.380165
0.389102
0.397025
0.403659
0.409029
0.413707
0.417785
0.421802
0.425549
0.429564
0.433364
0.437643
0.441638
0.446348
0.450637
0.455968
0.460677
0.466914
0.472286
0.479907
0.486273
0.495465
0.502182
0.511347
0.51579
0.52185
0.521664
0.524712
0.523986
0.525921
0.522559
0.488894
0.464937
0.373541
0.314635
0.2985
0.32686
0.365168
0.398123
0.406374
0.406043
0.396539
0.389723
0.381642
0.377613
0.373188
0.371723
0.370246
0.371103
0.372041
0.374316
0.3761
0.378016
0.378843
0.379068
0.378106
0.376407
0.373795
0.370671
0.367161
0.36361
0.360298
0.357385
0.355159
0.353487
0.352624
0.352095
0.352196
0.352142
0.352458
0.352112
0.352049
0.35096
0.350311
0.348407
0.34724
0.344701
0.343272
0.340397
0.336826
0.339462
0.344247
0.353256
0.369015
0.392324
0.419388
0.442672
0.45634
0.459116
0.452963
0.440953
0.425871
0.40981
0.394293
0.380781
0.370797
0.365834
0.366502
0.372061
0.380347
0.389188
0.397051
0.403659
0.409023
0.413707
0.417795
0.421822
0.425579
0.4296
0.433407
0.437691
0.441691
0.446405
0.450698
0.456035
0.460749
0.466993
0.472369
0.479993
0.486356
0.495539
0.502246
0.511396
0.515834
0.521891
0.521717
0.524754
0.524004
0.525827
0.52235
0.488438
0.464066
0.372504
0.313955
0.298451
0.32759
0.366338
0.399258
0.407263
0.406697
0.397017
0.390071
0.38189
0.377788
0.373318
0.371827
0.370333
0.371176
0.372096
0.374348
0.376111
0.378009
0.378824
0.379044
0.378081
0.376386
0.373781
0.370668
0.36717
0.36363
0.360328
0.357421
0.355198
0.353523
0.352653
0.352112
0.352197
0.352126
0.352422
0.352057
0.351972
0.350862
0.350186
0.348254
0.347048
0.344468
0.342985
0.340068
0.336802
0.339404
0.344139
0.353071
0.368732
0.391964
0.419046
0.442468
0.456346
0.459346
0.453394
0.441532
0.426536
0.410499
0.394963
0.381406
0.371368
0.366337
0.366913
0.372358
0.380526
0.389272
0.397076
0.403658
0.409017
0.413707
0.417804
0.421842
0.425607
0.429637
0.433449
0.437739
0.441743
0.446461
0.45076
0.456101
0.460821
0.46707
0.472452
0.480077
0.486439
0.495612
0.502308
0.511445
0.515877
0.521932
0.521769
0.524795
0.524022
0.525733
0.522142
0.487984
0.463197
0.371464
0.313264
0.298383
0.328292
0.367473
0.40036
0.408126
0.407336
0.397485
0.390412
0.382135
0.377962
0.373445
0.371929
0.37042
0.371248
0.372149
0.374381
0.376122
0.378002
0.378805
0.379018
0.378055
0.376365
0.373768
0.370665
0.367179
0.36365
0.360357
0.357456
0.355235
0.353558
0.352681
0.352128
0.352198
0.352109
0.352386
0.352002
0.351896
0.350764
0.350062
0.348102
0.346858
0.344237
0.3427
0.339742
0.336779
0.339346
0.344032
0.352889
0.36845
0.391604
0.418704
0.442263
0.45635
0.459576
0.453823
0.442109
0.427198
0.411185
0.395628
0.382027
0.371934
0.366834
0.36732
0.372651
0.380702
0.389354
0.397101
0.403656
0.409011
0.413706
0.417813
0.421861
0.425636
0.429673
0.433492
0.437786
0.441795
0.446518
0.45082
0.456167
0.460893
0.467147
0.472533
0.48016
0.48652
0.495685
0.50237
0.511493
0.515919
0.521972
0.521821
0.524836
0.524038
0.525639
0.521933
0.487532
0.462329
0.370421
0.31256
0.298295
0.328966
0.368574
0.401431
0.408967
0.407959
0.397944
0.390749
0.382377
0.378134
0.373572
0.37203
0.370506
0.371319
0.372202
0.374412
0.376132
0.377995
0.378785
0.378993
0.378029
0.376343
0.373754
0.370662
0.367187
0.363669
0.360386
0.357491
0.355273
0.353593
0.352708
0.352144
0.352199
0.352092
0.352351
0.351947
0.35182
0.350667
0.349938
0.34795
0.346668
0.344007
0.342417
0.339418
0.336756
0.339289
0.343926
0.352708
0.36817
0.391246
0.418361
0.442056
0.456353
0.459803
0.454249
0.442684
0.427856
0.411866
0.396288
0.382643
0.372494
0.367327
0.367722
0.37294
0.380875
0.389435
0.397124
0.403655
0.409004
0.413706
0.417822
0.42188
0.425663
0.429708
0.433533
0.437833
0.441846
0.446573
0.45088
0.456232
0.460963
0.467223
0.472615
0.480243
0.486601
0.495756
0.502432
0.51154
0.515961
0.522011
0.521871
0.524875
0.524053
0.525545
0.521725
0.487082
0.461464
0.369377
0.311846
0.298187
0.329611
0.369642
0.402472
0.409787
0.408569
0.398395
0.391081
0.382616
0.378304
0.373697
0.37213
0.37059
0.371389
0.372254
0.374443
0.376141
0.377987
0.378765
0.378967
0.378002
0.376321
0.37374
0.370658
0.367195
0.363688
0.360414
0.357525
0.355309
0.353627
0.352736
0.352159
0.352199
0.352076
0.352315
0.351892
0.351744
0.350571
0.349815
0.3478
0.34648
0.343779
0.342136
0.339096
0.336734
0.339233
0.343821
0.352529
0.367892
0.390888
0.418019
0.441848
0.456354
0.460028
0.454674
0.443256
0.428511
0.412543
0.396944
0.383255
0.37305
0.367815
0.36812
0.373225
0.381046
0.389515
0.397147
0.403652
0.408997
0.413705
0.41783
0.421898
0.425691
0.429743
0.433574
0.437879
0.441897
0.446628
0.450939
0.456296
0.461033
0.467299
0.472695
0.480325
0.486681
0.495827
0.502492
0.511587
0.516003
0.52205
0.521921
0.524913
0.524067
0.52545
0.521517
0.486634
0.4606
0.368331
0.311121
0.29806
0.330229
0.370679
0.403485
0.410585
0.409166
0.398838
0.391409
0.382852
0.378473
0.373821
0.372229
0.370674
0.371459
0.372306
0.374473
0.376151
0.377978
0.378745
0.37894
0.377976
0.376298
0.373726
0.370654
0.367202
0.363707
0.360441
0.357559
0.355345
0.35366
0.352762
0.352174
0.3522
0.352059
0.35228
0.351838
0.35167
0.350475
0.349693
0.34765
0.346293
0.343552
0.341857
0.338777
0.336712
0.339178
0.343718
0.352352
0.367616
0.390532
0.417675
0.441638
0.456353
0.460252
0.455097
0.443826
0.429163
0.413216
0.397595
0.383861
0.373601
0.368298
0.368512
0.373507
0.381215
0.389593
0.397169
0.40365
0.40899
0.413703
0.417839
0.421917
0.425718
0.429778
0.433615
0.437925
0.441947
0.446682
0.450998
0.45636
0.461102
0.467373
0.472774
0.480406
0.48676
0.495898
0.502552
0.511633
0.516043
0.522089
0.52197
0.524951
0.52408
0.525356
0.52131
0.486189
0.459739
0.367283
0.310385
0.297913
0.330819
0.371684
0.40447
0.411364
0.409751
0.399274
0.391733
0.383086
0.37864
0.373944
0.372327
0.370757
0.371528
0.372357
0.374503
0.376159
0.37797
0.378724
0.378914
0.377949
0.376276
0.373711
0.37065
0.367209
0.363725
0.360469
0.357592
0.355381
0.353694
0.352789
0.35219
0.352201
0.352043
0.352246
0.351784
0.351595
0.350379
0.349572
0.347502
0.346107
0.343327
0.34158
0.33846
0.33669
0.339123
0.343616
0.352176
0.367342
0.390178
0.417332
0.441427
0.45635
0.460474
0.455518
0.444393
0.429811
0.413884
0.39824
0.384462
0.374147
0.368776
0.368901
0.373784
0.38138
0.389669
0.397191
0.403647
0.408982
0.413702
0.417847
0.421935
0.425745
0.429812
0.433655
0.437971
0.441997
0.446736
0.451056
0.456423
0.461171
0.467447
0.472853
0.480486
0.486838
0.495967
0.502611
0.511679
0.516084
0.522126
0.522018
0.524987
0.524093
0.525261
0.521103
0.485746
0.45888
0.366235
0.30964
0.297747
0.331383
0.37266
0.405429
0.412125
0.410325
0.399704
0.392053
0.383319
0.378806
0.374066
0.372425
0.37084
0.371597
0.372408
0.374533
0.376168
0.377961
0.378703
0.378887
0.377922
0.376253
0.373697
0.370646
0.367216
0.363742
0.360495
0.357625
0.355416
0.353726
0.352815
0.352204
0.352201
0.352026
0.352211
0.351731
0.351521
0.350284
0.349451
0.347354
0.345922
0.343103
0.341305
0.338146
0.336668
0.339069
0.343515
0.352002
0.36707
0.389824
0.416989
0.441215
0.456346
0.460693
0.455936
0.444957
0.430455
0.414548
0.398881
0.385057
0.374687
0.369249
0.369284
0.374058
0.381544
0.389744
0.397212
0.403643
0.408975
0.4137
0.417854
0.421952
0.425771
0.429846
0.433695
0.438015
0.442046
0.44679
0.451114
0.456486
0.461239
0.467521
0.472931
0.480565
0.486916
0.496036
0.50267
0.511724
0.516123
0.522163
0.522066
0.525022
0.524104
0.525165
0.520897
0.485305
0.458025
0.365186
0.308884
0.297562
0.331921
0.373607
0.406364
0.412869
0.410888
0.400128
0.39237
0.383549
0.378971
0.374188
0.372522
0.370922
0.371665
0.372458
0.374563
0.376177
0.377952
0.378682
0.37886
0.377895
0.376231
0.373682
0.370642
0.367223
0.36376
0.360521
0.357657
0.35545
0.353759
0.35284
0.352219
0.352201
0.35201
0.352177
0.351678
0.351448
0.35019
0.349332
0.347207
0.345739
0.342881
0.341032
0.337834
0.336647
0.339016
0.343416
0.35183
0.3668
0.389472
0.416645
0.441002
0.456339
0.460911
0.456353
0.445519
0.431096
0.415208
0.399517
0.385648
0.375223
0.369717
0.369663
0.374329
0.381704
0.389818
0.397231
0.403639
0.408967
0.413698
0.417861
0.421969
0.425797
0.429879
0.433734
0.43806
0.442094
0.446842
0.451171
0.456548
0.461306
0.467593
0.473008
0.480644
0.486992
0.496104
0.502728
0.511768
0.516163
0.5222
0.522112
0.525057
0.524114
0.52507
0.520691
0.484867
0.457172
0.364137
0.308119
0.297359
0.332434
0.374527
0.407275
0.413597
0.411442
0.400547
0.392684
0.383777
0.379134
0.374308
0.372618
0.371003
0.371733
0.372509
0.374592
0.376185
0.377943
0.378661
0.378833
0.377867
0.376208
0.373667
0.370637
0.367229
0.363777
0.360547
0.357689
0.355484
0.353791
0.352866
0.352234
0.352202
0.351994
0.352143
0.351625
0.351375
0.350097
0.349212
0.347061
0.345556
0.342661
0.340761
0.337524
0.336626
0.338963
0.343317
0.35166
0.366532
0.389121
0.416302
0.440787
0.456331
0.461127
0.456767
0.446077
0.431733
0.415863
0.400148
0.386233
0.375753
0.37018
0.370038
0.374595
0.381862
0.38989
0.397251
0.403635
0.408958
0.413695
0.417868
0.421986
0.425822
0.429912
0.433773
0.438103
0.442142
0.446895
0.451227
0.456609
0.461373
0.467665
0.473085
0.480721
0.487068
0.496171
0.502785
0.511812
0.516201
0.522235
0.522158
0.525091
0.524124
0.524975
0.520486
0.484432
0.456323
0.363088
0.307345
0.297137
0.332921
0.37542
0.408164
0.414309
0.411986
0.40096
0.392995
0.384004
0.379297
0.374428
0.372713
0.371084
0.3718
0.372558
0.374621
0.376193
0.377934
0.378639
0.378806
0.37784
0.376185
0.373652
0.370632
0.367236
0.363793
0.360573
0.35772
0.355518
0.353822
0.352891
0.352248
0.352202
0.351978
0.352109
0.351573
0.351303
0.350004
0.349094
0.346916
0.345375
0.342441
0.340492
0.337217
0.336605
0.338911
0.34322
0.351491
0.366266
0.388772
0.415958
0.440571
0.456322
0.461341
0.457178
0.446632
0.432366
0.416513
0.400773
0.386813
0.376278
0.370637
0.370408
0.374858
0.382018
0.38996
0.397269
0.403631
0.40895
0.413693
0.417875
0.422003
0.425847
0.429944
0.433811
0.438147
0.44219
0.446946
0.451283
0.456669
0.461439
0.467736
0.47316
0.480798
0.487143
0.496237
0.502841
0.511855
0.516239
0.522271
0.522203
0.525123
0.524133
0.524879
0.520282
0.483999
0.455477
0.362039
0.306562
0.296897
0.333385
0.376288
0.409032
0.415008
0.412523
0.401368
0.393303
0.38423
0.379459
0.374547
0.372808
0.371164
0.371867
0.372608
0.37465
0.376201
0.377924
0.378618
0.378779
0.377813
0.376162
0.373637
0.370627
0.367242
0.363809
0.360598
0.357751
0.355551
0.353853
0.352916
0.352262
0.352203
0.351962
0.352076
0.351521
0.351231
0.349912
0.348977
0.346772
0.345195
0.342224
0.340226
0.336912
0.336585
0.33886
0.343124
0.351325
0.366002
0.388424
0.415615
0.440354
0.45631
0.461553
0.457588
0.447185
0.432995
0.417158
0.401393
0.387388
0.376798
0.37109
0.370773
0.375117
0.38217
0.390029
0.397287
0.403626
0.408941
0.41369
0.417881
0.422019
0.425872
0.429976
0.433849
0.438189
0.442236
0.446997
0.451338
0.456729
0.461504
0.467807
0.473235
0.480874
0.487217
0.496303
0.502897
0.511898
0.516277
0.522306
0.522247
0.525155
0.524141
0.524784
0.520078
0.483569
0.454635
0.360991
0.30577
0.29664
0.333825
0.377131
0.40988
0.415693
0.413051
0.401772
0.393609
0.384454
0.37962
0.374666
0.372903
0.371245
0.371934
0.372658
0.374679
0.37621
0.377915
0.378597
0.378752
0.377786
0.37614
0.373622
0.370622
0.367247
0.363825
0.360622
0.357781
0.355584
0.353884
0.35294
0.352276
0.352203
0.351947
0.352043
0.35147
0.35116
0.34982
0.34886
0.346629
0.345016
0.342008
0.339961
0.33661
0.336564
0.338809
0.343029
0.351159
0.36574
0.388078
0.415272
0.440136
0.456297
0.461763
0.457994
0.447734
0.43362
0.417799
0.402009
0.387958
0.377313
0.371538
0.371133
0.375372
0.382321
0.390097
0.397304
0.403621
0.408932
0.413686
0.417887
0.422034
0.425896
0.430008
0.433886
0.438232
0.442283
0.447048
0.451393
0.456789
0.461568
0.467876
0.473309
0.48095
0.487291
0.496368
0.502952
0.51194
0.516314
0.52234
0.52229
0.525187
0.524148
0.524689
0.519875
0.483142
0.453797
0.359945
0.304971
0.296366
0.334243
0.377952
0.41071
0.416365
0.413572
0.402172
0.393913
0.384677
0.37978
0.374784
0.372997
0.371324
0.372
0.372707
0.374708
0.376218
0.377906
0.378576
0.378725
0.377758
0.376117
0.373607
0.370617
0.367253
0.363841
0.360646
0.357811
0.355616
0.353914
0.352964
0.35229
0.352204
0.351931
0.35201
0.351419
0.35109
0.349729
0.348744
0.346487
0.344839
0.341793
0.339698
0.33631
0.336545
0.33876
0.342935
0.350996
0.365479
0.387733
0.414929
0.439917
0.456282
0.46197
0.458399
0.44828
0.434241
0.418434
0.402618
0.388522
0.377822
0.37198
0.371489
0.375624
0.382469
0.390163
0.39732
0.403615
0.408923
0.413683
0.417893
0.42205
0.42592
0.430039
0.433923
0.438273
0.442329
0.447098
0.451447
0.456847
0.461632
0.467945
0.473383
0.481024
0.487363
0.496432
0.503007
0.511982
0.516351
0.522373
0.522333
0.525217
0.524154
0.524593
0.519673
0.482717
0.452962
0.3589
0.304164
0.296075
0.334638
0.37875
0.411522
0.417027
0.414086
0.402568
0.394215
0.384899
0.37994
0.374901
0.373091
0.371403
0.372066
0.372756
0.374737
0.376226
0.377897
0.378555
0.378699
0.377731
0.376094
0.373592
0.370612
0.367258
0.363856
0.36067
0.357841
0.355648
0.353944
0.352988
0.352304
0.352204
0.351916
0.351977
0.351369
0.35102
0.349639
0.348629
0.346346
0.344663
0.34158
0.339437
0.336012
0.336525
0.33871
0.342843
0.350834
0.365221
0.38739
0.414586
0.439697
0.456265
0.462176
0.4588
0.448822
0.434857
0.419065
0.403223
0.38908
0.378326
0.372418
0.37184
0.375872
0.382614
0.390228
0.397336
0.403609
0.408913
0.413679
0.417899
0.422065
0.425943
0.430069
0.433959
0.438315
0.442374
0.447147
0.4515
0.456905
0.461695
0.468013
0.473455
0.481098
0.487435
0.496495
0.503061
0.512023
0.516387
0.522407
0.522375
0.525246
0.52416
0.524498
0.519472
0.482296
0.452132
0.357857
0.30335
0.295767
0.335013
0.379528
0.412318
0.417677
0.414594
0.402961
0.394514
0.385119
0.380099
0.375018
0.373184
0.371482
0.372132
0.372805
0.374766
0.376234
0.377888
0.378534
0.378672
0.377704
0.376072
0.373577
0.370607
0.367263
0.363871
0.360694
0.35787
0.35568
0.353974
0.353012
0.352318
0.352205
0.351901
0.351945
0.351319
0.35095
0.34955
0.348515
0.346206
0.344488
0.341369
0.339179
0.335717
0.336506
0.338662
0.342751
0.350674
0.364965
0.387048
0.414243
0.439476
0.456246
0.462379
0.459199
0.449361
0.435469
0.41969
0.403822
0.389633
0.378824
0.37285
0.372187
0.376116
0.382757
0.390291
0.397351
0.403603
0.408904
0.413675
0.417904
0.422079
0.425966
0.430099
0.433995
0.438355
0.442419
0.447196
0.451553
0.456963
0.461758
0.468081
0.473527
0.48117
0.487505
0.496558
0.503114
0.512064
0.516422
0.522439
0.522416
0.525275
0.524164
0.524403
0.519272
0.481877
0.451307
0.356816
0.302529
0.295445
0.335368
0.380286
0.413099
0.418318
0.415096
0.40335
0.394812
0.385339
0.380257
0.375135
0.373276
0.371561
0.372198
0.372854
0.374795
0.376242
0.377879
0.378513
0.378645
0.377678
0.376049
0.373562
0.370601
0.367268
0.363886
0.360717
0.357899
0.355711
0.354003
0.353036
0.352331
0.352205
0.351886
0.351914
0.35127
0.350882
0.349461
0.348402
0.346067
0.344314
0.341159
0.338922
0.335424
0.336487
0.338614
0.342661
0.350515
0.364711
0.386708
0.413901
0.439253
0.456226
0.462581
0.459596
0.449897
0.436077
0.420311
0.404415
0.390181
0.379317
0.373277
0.372529
0.376357
0.382897
0.390353
0.397365
0.403596
0.408894
0.413671
0.417909
0.422094
0.425989
0.430129
0.43403
0.438395
0.442463
0.447244
0.451605
0.45702
0.46182
0.468148
0.473598
0.481242
0.487575
0.49662
0.503167
0.512104
0.516457
0.522471
0.522456
0.525303
0.524169
0.524308
0.519073
0.481461
0.450486
0.355777
0.301702
0.295107
0.335703
0.381026
0.413865
0.418949
0.415593
0.403737
0.395109
0.385558
0.380414
0.375251
0.373369
0.371639
0.372263
0.372902
0.374824
0.376251
0.37787
0.378492
0.378619
0.377651
0.376027
0.373547
0.370596
0.367273
0.363901
0.360739
0.357927
0.355741
0.354032
0.353059
0.352345
0.352206
0.351872
0.351882
0.351221
0.350813
0.349373
0.348289
0.345929
0.344142
0.340951
0.338667
0.335134
0.336468
0.338567
0.342571
0.350359
0.364459
0.386369
0.413559
0.43903
0.456204
0.46278
0.459989
0.450429
0.436681
0.420926
0.405003
0.390723
0.379805
0.373699
0.372866
0.376594
0.383035
0.390414
0.397378
0.403589
0.408883
0.413667
0.417913
0.422108
0.426011
0.430158
0.434065
0.438435
0.442506
0.447291
0.451657
0.457076
0.461881
0.468214
0.473668
0.481314
0.487645
0.496681
0.503218
0.512144
0.516492
0.522503
0.522496
0.525331
0.524172
0.524213
0.518874
0.481049
0.44967
0.354741
0.30087
0.294754
0.33602
0.381748
0.414618
0.419572
0.416085
0.40412
0.395403
0.385775
0.380571
0.375366
0.373461
0.371716
0.372328
0.372951
0.374852
0.376259
0.377861
0.378472
0.378593
0.377624
0.376004
0.373532
0.37059
0.367278
0.363915
0.360762
0.357955
0.355772
0.354061
0.353082
0.352358
0.352206
0.351857
0.351851
0.351172
0.350746
0.349285
0.348178
0.345791
0.34397
0.340744
0.338415
0.334846
0.336449
0.33852
0.342483
0.350203
0.364209
0.386033
0.413218
0.438806
0.45618
0.462976
0.46038
0.450957
0.43728
0.421536
0.405585
0.39126
0.380287
0.374116
0.373199
0.376827
0.383171
0.390473
0.397391
0.403582
0.408873
0.413662
0.417918
0.422121
0.426033
0.430187
0.434099
0.438474
0.44255
0.447338
0.451708
0.457131
0.461941
0.468279
0.473737
0.481384
0.487713
0.496742
0.50327
0.512183
0.516526
0.522534
0.522535
0.525357
0.524175
0.524119
0.518677
0.480639
0.448858
0.353709
0.300031
0.294387
0.33632
0.382454
0.415359
0.420186
0.416572
0.404501
0.395696
0.385992
0.380727
0.375481
0.373552
0.371794
0.372393
0.372999
0.374881
0.376268
0.377853
0.378451
0.378566
0.377598
0.375982
0.373518
0.370585
0.367282
0.363929
0.360784
0.357982
0.355801
0.354089
0.353104
0.352371
0.352207
0.351843
0.35182
0.351124
0.350679
0.349199
0.348067
0.345655
0.3438
0.340539
0.338164
0.33456
0.336431
0.338474
0.342396
0.35005
0.363962
0.385698
0.412877
0.438581
0.456155
0.463171
0.460767
0.451482
0.437874
0.422141
0.406162
0.391791
0.380764
0.374527
0.373527
0.377057
0.383304
0.390531
0.397403
0.403574
0.408862
0.413657
0.417922
0.422135
0.426054
0.430215
0.434133
0.438513
0.442592
0.447385
0.451758
0.457186
0.462001
0.468344
0.473806
0.481453
0.487781
0.496801
0.50332
0.512222
0.51656
0.522565
0.522574
0.525383
0.524177
0.524024
0.518481
0.480233
0.448052
0.35268
0.299188
0.294007
0.336603
0.383145
0.416089
0.420794
0.417055
0.404879
0.395988
0.386207
0.380883
0.375596
0.373643
0.371871
0.372457
0.373048
0.37491
0.376276
0.377844
0.378431
0.37854
0.377572
0.37596
0.373503
0.370579
0.367286
0.363943
0.360805
0.358009
0.355831
0.354117
0.353127
0.352384
0.352208
0.351829
0.35179
0.351077
0.350612
0.349113
0.347957
0.34552
0.343632
0.340335
0.337915
0.334276
0.336413
0.338429
0.34231
0.349898
0.363716
0.385365
0.412536
0.438355
0.456128
0.463363
0.461152
0.452003
0.438463
0.42274
0.406733
0.392316
0.381235
0.374934
0.373851
0.377283
0.383435
0.390588
0.397415
0.403566
0.408851
0.413652
0.417926
0.422148
0.426075
0.430243
0.434166
0.438551
0.442634
0.447431
0.451808
0.457241
0.46206
0.468407
0.473874
0.481522
0.487847
0.49686
0.50337
0.51226
0.516593
0.522595
0.522612
0.525409
0.524179
0.52393
0.518286
0.47983
0.447251
0.351655
0.29834
0.293614
0.33687
0.383821
0.416807
0.421394
0.417534
0.405255
0.396278
0.386422
0.381038
0.37571
0.373734
0.371947
0.372521
0.373096
0.374939
0.376285
0.377836
0.378411
0.378515
0.377545
0.375938
0.373488
0.370573
0.36729
0.363956
0.360826
0.358036
0.35586
0.354144
0.353149
0.352397
0.352209
0.351815
0.35176
0.35103
0.350546
0.349028
0.347848
0.345386
0.343464
0.340133
0.337669
0.333995
0.336395
0.338384
0.342225
0.349748
0.363472
0.385033
0.412196
0.438128
0.456099
0.463553
0.461534
0.45252
0.439048
0.423334
0.407299
0.392836
0.381701
0.375335
0.37417
0.377505
0.383563
0.390643
0.397426
0.403558
0.40884
0.413647
0.417929
0.42216
0.426096
0.430271
0.434199
0.438588
0.442675
0.447476
0.451857
0.457294
0.462119
0.468471
0.473941
0.48159
0.487913
0.496919
0.50342
0.512297
0.516626
0.522625
0.522649
0.525433
0.52418
0.523837
0.518091
0.479431
0.446456
0.350634
0.297488
0.293208
0.337122
0.384485
0.417516
0.421989
0.418009
0.405629
0.396567
0.386636
0.381192
0.375823
0.373824
0.372023
0.372585
0.373144
0.374967
0.376294
0.377828
0.378391
0.378489
0.377519
0.375916
0.373473
0.370568
0.367294
0.363969
0.360847
0.358062
0.355888
0.354172
0.353171
0.35241
0.352209
0.351802
0.35173
0.350983
0.350481
0.348943
0.34774
0.345253
0.343298
0.339932
0.337424
0.333716
0.336378
0.33834
0.342142
0.3496
0.363231
0.384704
0.411857
0.437901
0.456068
0.463741
0.461913
0.453033
0.439628
0.423923
0.407859
0.393349
0.382162
0.375731
0.374484
0.377724
0.38369
0.390697
0.397436
0.403549
0.408829
0.413641
0.417932
0.422172
0.426116
0.430298
0.434232
0.438625
0.442716
0.447521
0.451906
0.457347
0.462177
0.468533
0.474007
0.481657
0.487978
0.496976
0.503469
0.512334
0.516658
0.522654
0.522686
0.525457
0.524181
0.523743
0.517899
0.479034
0.445666
0.349617
0.296633
0.292791
0.337361
0.385136
0.418216
0.422577
0.418481
0.406001
0.396854
0.386848
0.381345
0.375936
0.373913
0.372099
0.372649
0.373191
0.374996
0.376303
0.37782
0.378371
0.378464
0.377494
0.375894
0.373458
0.370562
0.367298
0.363982
0.360868
0.358088
0.355917
0.354198
0.353193
0.352423
0.35221
0.351788
0.351701
0.350937
0.350416
0.348859
0.347632
0.345121
0.343133
0.339733
0.337181
0.33344
0.33636
0.338297
0.342059
0.349453
0.362992
0.384376
0.411519
0.437673
0.456036
0.463926
0.462288
0.453542
0.440203
0.424506
0.408413
0.393858
0.382617
0.376122
0.374794
0.37794
0.383813
0.39075
0.397446
0.40354
0.408818
0.413636
0.417935
0.422184
0.426136
0.430324
0.434264
0.438662
0.442757
0.447565
0.451954
0.457399
0.462234
0.468595
0.474072
0.481723
0.488043
0.497033
0.503517
0.512371
0.51669
0.522683
0.522722
0.525481
0.524181
0.52365
0.517707
0.478641
0.444882
0.348605
0.295774
0.292362
0.337586
0.385776
0.418908
0.423161
0.418949
0.40637
0.39714
0.38706
0.381498
0.376048
0.374002
0.372174
0.372712
0.373239
0.375025
0.376312
0.377812
0.378352
0.378439
0.377468
0.375873
0.373444
0.370556
0.367302
0.363995
0.360888
0.358114
0.355944
0.354225
0.353214
0.352436
0.352211
0.351775
0.351672
0.350892
0.350352
0.348776
0.347526
0.34499
0.342969
0.339535
0.336941
0.333166
0.336343
0.338254
0.341977
0.349308
0.362754
0.384051
0.411181
0.437445
0.456003
0.464109
0.462661
0.454047
0.440773
0.425084
0.408961
0.39436
0.383066
0.376508
0.3751
0.378152
0.383935
0.390801
0.397455
0.403531
0.408806
0.41363
0.417938
0.422196
0.426155
0.43035
0.434295
0.438698
0.442796
0.447608
0.452001
0.457451
0.46229
0.468656
0.474137
0.481789
0.488106
0.497089
0.503564
0.512407
0.516722
0.522711
0.522757
0.525504
0.52418
0.523557
0.517517
0.478252
0.444104
0.347598
0.294912
0.291923
0.337799
0.386406
0.419593
0.423739
0.419414
0.406738
0.397424
0.387271
0.38165
0.37616
0.374091
0.372249
0.372775
0.373286
0.375053
0.376321
0.377805
0.378332
0.378414
0.377443
0.375851
0.373429
0.37055
0.367305
0.364007
0.360908
0.358139
0.355972
0.354251
0.353235
0.352448
0.352212
0.351762
0.351643
0.350847
0.350289
0.348694
0.34742
0.344859
0.342807
0.339339
0.336702
0.332894
0.336327
0.338211
0.341897
0.349164
0.362519