/*--------------------------------*- C++ -*----------------------------------*\
| =========                 |                                                 |
| \\      /  F ield         | OpenFOAM: The Open Source CFD Toolbox           |
|  \\    /   O peration     | Version:  2412                                  |
|   \\  /    A nd           | Website:  www.openfoam.com                      |
|    \\/     M anipulation  |                                                 |
\*---------------------------------------------------------------------------*/
FoamFile
{
    version     2.0;
    format      ascii;
    arch        "LSB;label=32;scalar=64";
    class       volScalarField;
    location    "1";
    object      p;
}
// * * * * * * * * * * * * * * * * * * * * * * * * * * * * * * * * * * * * * //

dimensions      [0 2 -2 0 0 0 0];

internalField   nonuniform List<scalar> 
13068
(
104281
104249
104200
104118
104032
103907
103788
103625
103473
103273
103097
102871
102679
102420
102201
101889
101631
101249
100955
100494
100176
99617.7
99279.4
98587.1
98236.5
97362.7
97017.5
95896
95586.4
94120.9
93896.6
91945.8
91887.9
89242.8
89482.3
85830
86577.4
81445.1
83037
75702
78678
68021.9
73248.8
57523.3
66401.9
42856.3
57658.8
21922.1
46297.1
-8690.91
31057.3
-53736.8
11797.1
-111120
-3771.5
-71807.9
4079.12
-35621.6
15162.8
-8500.04
24598.6
10393.5
31966.1
23904.6
38258.9
34133.5
43904.6
42175.7
48981.6
48654.5
53515.6
53966.7
57520.4
58356.9
61002.5
61989.8
63988.4
65002.6
66531.6
67519.4
68699.1
69650
70556.6
71485.8
72160.3
73100.5
73552
74552.9
74758.2
75891
75790
77156.9
76642.5
78393.3
77296.2
79650
77718.1
80985.9
77865.6
104275
104243
104194
104112
104027
103902
103784
103621
103470
103271
103096
102870
102678
102419
102200
101888
101630
101247
100953
100492
100174
99615.7
99277.4
98584.7
98234.3
97359.9
97015
95892.7
95583.6
94117
93893.5
91941.2
91884.5
89237.2
89478.5
85823.3
86573.2
81437
83032.5
75692.2
78673.2
68010.3
73243.9
57509.8
66397.2
42841.3
57654.1
21906.4
46292
-8701.15
31056.4
-53705.4
11819.8
-110939
-3720.38
-71776.1
4098.45
-35621.9
15165.9
-8510.59
24596.7
10383.9
31965.5
23898.3
38259.4
34129.1
43905.1
42172.2
48981.5
48651.3
53514.8
53963.4
57518.7
58353.5
61000.2
61986.5
63985.9
64999.6
66529.3
67517
68697
69648.2
70555
71484.7
72158.9
73099.9
73550.6
74552.8
74756.7
75891.4
75788
77157.8
76639.9
78394.9
77293
79652.3
77714.7
80988.8
77862.5
104268
104237
104188
104107
104022
103898
103780
103618
103468
103269
103094
102869
102677
102419
102200
101887
101629
101246
100952
100491
100173
99613.7
99275.5
98582.3
98232.1
97357.1
97012.6
95889.4
95580.9
94113.1
93890.4
91936.6
91881
89231.7
89474.7
85816.7
86569
81428.9
83028
75682.4
78668.4
67998.7
73239
57496.4
66392.5
42826.4
57649.4
21890.7
46286.9
-8711.23
31055.6
-53673.9
11842.6
-110759
-3669.53
-71744.4
4117.46
-35622.4
15169
-8521.03
24594.8
10374.5
31965
23892.1
38260
34124.7
43905.5
42168.6
48981.4
48648.1
53513.9
53960.1
57517.1
58350.1
60998
61983.2
63983.5
64996.6
66527
67514.6
68695
69646.4
70553.3
71483.5
72157.4
73099.4
73549.2
74552.8
74755.1
75891.8
75786
77158.8
76637.4
78396.4
77289.9
79654.5
77711.3
80991.5
77859.5
104262
104231
104182
104102
104017
103894
103777
103615
103465
103267
103093
102868
102676
102418
102199
101886
101628
101245
100951
100489
100171
99611.7
99273.6
98580
98229.9
97354.4
97010.1
95886.2
95578.1
94109.3
93887.4
91932.1
91877.7
89226.2
89470.9
85810.1
86564.9
81420.9
83023.5
75672.8
78663.6
67987.2
73234.1
57483
66387.7
42811.5
57644.7
21875.1
46281.8
-8721.13
31054.9
-53642.5
11865.5
-110580
-3619.01
-71713
4136.19
-35623
15172.1
-8531.36
24593
10365.1
31964.5
23886
38260.5
34120.4
43905.9
42165.1
48981.3
48644.8
53513
53956.9
57515.4
58346.7
60995.8
61979.9
63981.1
64993.7
66524.7
67512.2
68693.1
69644.7
70551.6
71482.4
72156
73098.8
73547.8
74552.7
74753.5
75892.2
75784
77159.7
76634.9
78398
77286.9
79656.7
77707.9
80994.3
77856.5
104256
104225
104177
104096
104012
103889
103773
103612
103462
103265
103091
102866
102675
102417
102198
101885
101627
101243
100949
100488
100169
99609.8
99271.7
98577.7
98227.8
97351.7
97007.7
95883.1
95575.4
94105.6
93884.4
91927.6
91874.3
89220.8
89467.2
85803.6
86560.8
81413
83019.1
75663.3
78658.9
67975.8
73229.3
57469.8
66383.1
42796.7
57640
21859.7
46276.9
-8730.91
31054.3
-53611.2
11888.3
-110404
-3568.93
-71681.7
4154.75
-35623.7
15175
-8541.67
24591.2
10355.8
31963.9
23879.8
38261
34116
43906.3
42161.5
48981.1
48641.6
53512.2
53953.6
57513.8
58343.4
60993.6
61976.7
63978.8
64990.8
66522.5
67509.9
68691.1
69643
70550
71481.3
72154.6
73098.2
73546.4
74552.6
74751.9
75892.6
75782.1
77160.6
76632.4
78399.5
77283.8
79658.9
77704.6
80997
77853.5
104249
104219
104171
104091
104007
103885
103769
103608
103459
103263
103089
102865
102674
102416
102197
101884
101626
101242
100948
100486
100168
99607.9
99269.9
98575.4
98225.7
97349
97005.3
95879.9
95572.8
94101.8
93881.4
91923.1
91871
89215.5
89463.6
85797.1
86556.8
81405.2
83014.7
75653.8
78654.2
67964.5
73224.5
57456.7
66378.4
42782.1
57635.4
21844.4
46272
-8740.57
31053.8
-53580
11911
-110229
-3519.32
-71650.6
4173.16
-35624.4
15177.9
-8551.96
24589.3
10346.6
31963.4
23873.7
38261.4
34111.7
43906.7
42158
48981
48638.4
53511.3
53950.4
57512.1
58340.1
60991.4
61973.5
63976.4
64988
66520.3
67507.6
68689.2
69641.3
70548.4
71480.2
72153.2
73097.7
73545
74552.5
74750.4
75893
75780.1
77161.5
76629.9
78401
77280.8
79661
77701.2
80999.6
77850.6
104243
104214
104165
104086
104002
103881
103765
103605
103457
103260
103088
102864
102673
102416
102197
101884
101625
101241
100947
100484
100166
99606
99268
98573.2
98223.6
97346.4
97003
95876.8
95570.1
94098.1
93878.4
91918.6
91867.7
89210.1
89459.9
85790.6
86552.8
81397.4
83010.3
75644.4
78649.6
67953.3
73219.8
57443.7
66373.8
42767.6
57630.8
21829.2
46267.1
-8750.11
31053.3
-53549
11933.6
-110055
-3470.18
-71619.8
4191.41
-35625.2
15180.6
-8562.24
24587.5
10337.4
31962.8
23867.6
38261.9
34107.4
43907
42154.6
48980.8
48635.3
53510.4
53947.2
57510.5
58336.8
60989.3
61970.3
63974.1
64985.1
66518
67505.3
68687.3
69639.6
70546.8
71479.1
72151.8
73097.1
73543.7
74552.5
74748.8
75893.4
75778.2
77162.4
76627.4
78402.5
77277.8
79663.2
77698
81002.3
77847.7
104237
104208
104160
104081
103998
103877
103761
103602
103454
103258
103086
102863
102672
102415
102196
101883
101624
101240
100946
100483
100165
99604.1
99266.2
98570.9
98221.5
97343.7
97000.6
95873.7
95567.5
94094.4
93875.5
91914.2
91864.4
89204.8
89456.3
85784.3
86548.8
81389.7
83006
75635
78645
67942.1
73215
57430.8
66369.2
42753.2
57626.3
21814.2
46262.3
-8759.54
31052.9
-53518.2
11956
-109883
-3421.49
-71589.1
4209.5
-35626
15183.3
-8572.48
24585.6
10328.2
31962.2
23861.6
38262.4
34103.1
43907.4
42151.1
48980.7
48632.1
53509.6
53944.1
57508.9
58333.6
60987.1
61967.1
63971.8
64982.3
66515.9
67503
68685.3
69637.9
70545.2
71478
72150.4
73096.6
73542.3
74552.4
74747.3
75893.8
75776.3
77163.3
76625
78404
77274.8
79665.3
77694.7
81004.9
77844.8
104231
104202
104154
104076
103993
103873
103757
103599
103451
103256
103084
102862
102672
102414
102195
101882
101623
101238
100944
100481
100163
99602.2
99264.4
98568.7
98219.4
97341.1
96998.3
95870.6
95564.9
94090.8
93872.5
91909.9
91861.2
89199.6
89452.7
85777.9
86544.8
81382
83001.7
75625.8
78640.4
67931.1
73210.4
57418
66364.6
42738.9
57621.8
21799.3
46257.6
-8768.84
31052.5
-53487.5
11978.3
-109713
-3373.26
-71558.7
4227.42
-35626.9
15185.8
-8582.7
24583.7
10319.1
31961.7
23855.6
38262.8
34098.9
43907.8
42147.7
48980.5
48629
53508.7
53941
57507.3
58330.3
60985
61964
63969.5
64979.5
66513.7
67500.7
68683.4
69636.2
70543.6
71476.9
72149
73096
73540.9
74552.3
74745.8
75894.2
75774.4
77164.2
76622.5
78405.5
77271.9
79667.4
77691.5
81007.5
77842
104225
104196
104149
104071
103988
103869
103754
103596
103449
103254
103083
102861
102671
102413
102195
101881
101622
101237
100943
100480
100162
99600.4
99262.6
98566.5
98217.4
97338.5
96996
95867.5
95562.3
94087.1
93869.6
91905.5
91857.9
89194.4
89449.1
85771.6
86540.9
81374.4
82997.4
75616.6
78635.8
67920.1
73205.7
57405.3
66360.1
42724.7
57617.3
21784.5
46252.9
-8778.03
31052.2
-53457
12000.6
-109545
-3325.49
-71528.4
4245.18
-35627.7
15188.3
-8592.88
24581.8
10310.1
31961.1
23849.7
38263.3
34094.7
43908.1
42144.3
48980.4
48625.9
53507.9
53937.8
57505.7
58327.1
60982.9
61960.9
63967.2
64976.8
66511.5
67498.4
68681.6
69634.6
70542
71475.9
72147.6
73095.5
73539.6
74552.2
74744.3
75894.5
75772.5
77165.1
76620.1
78406.9
77268.9
79669.4
77688.3
81010
77839.2
104219
104191
104143
104066
103984
103865
103750
103593
103446
103252
103081
102859
102670
102413
102194
101880
101621
101236
100942
100478
100160
99598.5
99260.8
98564.3
98215.3
97335.9
96993.7
95864.5
95559.7
94083.5
93866.8
91901.2
91854.7
89189.2
89445.6
85765.4
86537
81366.9
82993.2
75607.5
78631.3
67909.3
73201.1
57392.7
66355.7
42710.6
57612.9
21769.8
46248.2
-8787.11
31052
-53426.6
12022.7
-109378
-3278.18
-71498.4
4262.78
-35628.7
15190.7
-8603.03
24579.8
10301.1
31960.5
23843.8
38263.7
34090.5
43908.5
42140.9
48980.2
48622.9
53507
53934.8
57504.2
58324
60980.8
61957.8
63964.9
64974
66509.4
67496.2
68679.7
69633
70540.4
71474.8
72146.2
73094.9
73538.3
74552.2
74742.7
75894.9
75770.6
77165.9
76617.7
78408.4
77266
79671.5
77685.2
81012.6
77836.4
104213
104185
104138
104061
103979
103861
103746
103590
103443
103250
103080
102858
102669
102412
102193
101879
101620
101235
100941
100477
100159
99596.7
99259.1
98562.1
98213.3
97333.4
96991.4
95861.5
95557.2
94080
93863.9
91897
91851.5
89184.1
89442
85759.2
86533.1
81359.4
82989
75598.5
78626.9
67898.5
73196.5
57380.2
66351.2
42696.7
57608.4
21755.3
46243.6
-8796.07
31051.8
-53396.5
12044.6
-109212
-3231.31
-71468.6
4280.21
-35629.6
15193
-8613.14
24577.9
10292.2
31959.9
23837.9
38264.1
34086.4
43908.8
42137.5
48980
48619.8
53506.2
53931.7
57502.6
58320.8
60978.7
61954.7
63962.7
64971.3
66507.2
67494
68677.8
69631.3
70538.9
71473.7
72144.9
73094.4
73536.9
74552.1
74741.2
75895.3
75768.7
77166.8
76615.4
78409.8
77263.2
79673.5
77682
81015.1
77833.7
104207
104180
104133
104057
103975
103857
103743
103587
103441
103248
103078
102857
102668
102411
102192
101878
101619
101234
100939
100475
100157
99594.9
99257.3
98560
98211.3
97330.8
96989.2
95858.5
95554.6
94076.4
93861.1
91892.7
91848.4
89179
89438.6
85753.1
86529.3
81351.9
82984.8
75589.5
78622.4
67887.8
73192
57367.8
66346.8
42682.8
57604.1
21740.9
46239.1
-8804.91
31051.7
-53366.4
12066.5
-109049
-3184.9
-71439
4297.48
-35630.6
15195.3
-8623.2
24576
10283.4
31959.4
23832.1
38264.5
34082.2
43909.1
42134.2
48979.9
48616.8
53505.3
53928.6
57501
58317.7
60976.7
61951.7
63960.5
64968.6
66505.1
67491.8
68676
69629.7
70537.3
71472.7
72143.5
73093.9
73535.6
74552
74739.8
75895.7
75766.9
77167.7
76613
78411.2
77260.3
79675.5
77678.9
81017.5
77831
104201
104174
104127
104052
103970
103853
103739
103584
103438
103246
103076
102856
102667
102410
102192
101878
101618
101233
100938
100474
100156
99593.1
99255.6
98557.8
98209.3
97328.3
96986.9
95855.5
95552.1
94072.9
93858.3
91888.5
91845.3
89174
89435.1
85747
86525.5
81344.6
82980.7
75580.6
78618
67877.2
73187.5
57355.5
66342.4
42669.1
57599.8
21726.6
46234.6
-8813.65
31051.6
-53336.6
12088.2
-108887
-3138.94
-71409.6
4314.58
-35631.6
15197.4
-8633.22
24574.1
10274.6
31958.8
23826.3
38265
34078.2
43909.5
42130.9
48979.7
48613.8
53504.5
53925.6
57499.5
58314.6
60974.7
61948.7
63958.3
64965.9
66503
67489.6
68674.2
69628.1
70535.8
71471.7
72142.2
73093.3
73534.3
74551.9
74738.3
75896
75765.1
77168.5
76610.7
78412.7
77257.5
79677.5
77675.9
81020
77828.3
104195
104169
104122
104047
103966
103849
103736
103581
103436
103244
103075
102855
102666
102410
102191
101877
101617
101231
100937
100473
100154
99591.4
99253.9
98555.7
98207.4
97325.8
96984.7
95852.6
95549.6
94069.4
93855.5
91884.4
91842.2
89169
89431.7
85741
86521.7
81337.3
82976.6
75571.8
78613.7
67866.7
73183.1
57343.3
66338.1
42655.5
57595.5
21712.5
46230.2
-8822.27
31051.6
-53306.9
12109.8
-108726
-3093.42
-71380.4
4331.52
-35632.6
15199.5
-8643.18
24572.1
10265.9
31958.2
23820.6
38265.4
34074.1
43909.8
42127.6
48979.6
48610.8
53503.7
53922.6
57498
58311.5
60972.6
61945.7
63956.1
64963.2
66501
67487.5
68672.4
69626.5
70534.2
71470.6
72140.9
73092.8
73533
74551.9
74736.8
75896.4
75763.2
77169.4
76608.4
78414.1
77254.7
79679.5
77672.9
81022.4
77825.7
104190
104163
104117
104043
103961
103845
103732
103578
103433
103242
103073
102854
102666
102409
102190
101876
101616
101230
100936
100471
100153
99589.6
99252.2
98553.6
98205.4
97323.4
96982.5
95849.7
95547.1
94066
93852.7
91880.3
91839.1
89164
89428.3
85735
86518
81330.1
82972.5
75563.1
78609.4
67856.3
73178.6
57331.2
66333.8
42642
57591.2
21698.4
46225.8
-8830.78
31051.6
-53277.4
12131.3
-108567
-3048.35
-71351.4
4348.29
-35633.7
15201.6
-8653.09
24570.2
10257.2
31957.6
23814.9
38265.8
34070.1
43910.1
42124.3
48979.4
48607.9
53502.9
53919.7
57496.5
58308.5
60970.6
61942.7
63953.9
64960.6
66498.9
67485.3
68670.6
69624.9
70532.7
71469.6
72139.5
73092.3
73531.7
74551.8
74735.4
75896.8
75761.4
77170.2
76606.1
78415.4
77251.9
79681.5
77669.9
81024.8
77823.1
104184
104158
104112
104038
103957
103841
103729
103575
103431
103240
103072
102853
102665
102408
102190
101875
101616
101229
100935
100470
100151
99587.9
99250.5
98551.6
98203.5
97320.9
96980.3
95846.8
95544.7
94062.5
93850
91876.2
91836
89159.1
89424.9
85729.1
86514.3
81322.9
82968.5
75554.4
78605.1
67846
73174.2
57319.2
66329.5
42628.7
57587
21684.5
46221.5
-8839.19
31051.7
-53248
12152.7
-108410
-3003.73
-71322.7
4364.9
-35634.8
15203.5
-8662.94
24568.3
10248.6
31957.1
23809.3
38266.2
34066.1
43910.4
42121.1
48979.3
48604.9
53502
53916.7
57495
58305.4
60968.6
61939.8
63951.8
64958
66496.9
67483.2
68668.8
69623.4
70531.2
71468.6
72138.2
73091.8
73530.5
74551.7
74733.9
75897.1
75759.6
77171.1
76603.8
78416.8
77249.2
79683.4
77666.9
81027.2
77820.5
104178
104153
104107
104033
103953
103837
103725
103572
103428
103238
103070
102852
102664
102408
102189
101874
101615
101228
100934
100468
100150
99586.1
99248.8
98549.5
98201.6
97318.5
96978.2
95843.9
95542.3
94059.1
93847.3
91872.1
91833
89154.2
89421.5
85723.2
86510.6
81315.8
82964.5
75545.8
78600.8
67835.7
73169.9
57307.3
66325.3
42615.4
57582.8
21670.8
46217.2
-8847.48
31051.8
-53218.9
12173.9
-108254
-2959.54
-71294.2
4381.34
-35635.9
15205.4
-8672.73
24566.3
10240.1
31956.5
23803.7
38266.6
34062.2
43910.8
42117.9
48979.1
48602
53501.2
53913.8
57493.5
58302.4
60966.7
61936.9
63949.6
64955.4
66494.8
67481.1
68667
69621.8
70529.7
71467.6
72136.9
73091.3
73529.2
74551.7
74732.5
75897.5
75757.8
77171.9
76601.6
78418.2
77246.5
79685.3
77664
81029.5
77818
104173
104148
104102
104029
103948
103834
103722
103569
103426
103236
103069
102851
102663
102407
102188
101873
101614
101227
100932
100467
100149
99584.4
99247.1
98547.4
98199.7
97316.1
96976
95841.1
95539.9
94055.8
93844.6
91868.1
91830
89149.4
89418.2
85717.4
86506.9
81308.7
82960.5
75537.3
78596.6
67825.6
73165.6
57295.6
66321.1
42602.3
57578.7
21657.1
46213
-8855.67
31052
-53189.9
12194.9
-108100
-2915.79
-71265.9
4397.62
-35637
15207.3
-8682.46
24564.4
10231.7
31955.9
23798.2
38267
34058.3
43911.1
42114.7
48978.9
48599.1
53500.4
53910.9
57492
58299.5
60964.7
61934
63947.5
64952.8
66492.8
67479
68665.3
69620.3
70528.3
71466.6
72135.6
73090.7
73527.9
74551.6
74731.1
75897.8
75756.1
77172.7
76599.3
78419.5
77243.8
79687.2
77661.1
81031.8
77815.4
104167
104143
104097
104024
103944
103830
103719
103566
103423
103235
103068
102849
102662
102406
102188
101873
101613
101226
100931
100466
100147
99582.7
99245.5
98545.4
98197.8
97313.7
96973.9
95838.3
95537.5
94052.4
93841.9
91864.1
91827
89144.6
89414.9
85711.6
86503.3
81301.7
82956.6
75528.9
78592.4
67815.5
73161.3
57283.9
66316.9
42589.3
57574.6
21643.6
46208.8
-8863.75
31052.2
-53161.1
12215.9
-107947
-2872.48
-71237.8
4413.74
-35638.2
15209.1
-8692.12
24562.5
10223.3
31955.4
23792.7
38267.4
34054.4
43911.4
42111.6
48978.8
48596.3
53499.6
53908
57490.5
58296.5
60962.8
61931.1
63945.4
64950.3
66490.8
67476.9
68663.5
69618.7
70526.8
71465.6
72134.3
73090.2
73526.7
74551.5
74729.6
75898.2
75754.3
77173.5
76597.1
78420.9
77241.1
79689.1
77658.2
81034.1
77813
104162
104138
104092
104020
103940
103826
103715
103563
103421
103233
103066
102848
102662
102406
102187
101872
101612
101225
100930
100464
100146
99581
99243.9
98543.4
98195.9
97311.4
96971.8
95835.5
95535.1
94049.1
93839.2
91860.2
91824.1
89139.9
89411.6
85705.9
86499.7
81294.8
82952.7
75520.5
78588.3
67805.5
73157.1
57272.3
66312.8
42576.4
57570.5
21630.2
46204.7
-8871.72
31052.4
-53132.5
12236.7
-107796
-2829.6
-71210
4429.7
-35639.3
15210.9
-8701.72
24560.6
10215
31954.8
23787.3
38267.8
34050.6
43911.7
42108.5
48978.6
48593.5
53498.8
53905.2
57489.1
58293.6
60960.8
61928.3
63943.3
64947.7
66488.9
67474.9
68661.8
69617.2
70525.3
71464.6
72133.1
73089.7
73525.4
74551.5
74728.2
75898.5
75752.6
77174.3
76594.9
78422.2
77238.5
79690.9
77655.4
81036.4
77810.5
104156
104133
104087
104015
103936
103823
103712
103561
103419
103231
103065
102847
102661
102405
102186
101871
101611
101224
100929
100463
100145
99579.4
99242.3
98541.4
98194.1
97309
96969.7
95832.7
95532.8
94045.8
93836.6
91856.2
91821.2
89135.2
89408.4
85700.2
86496.2
81287.9
82948.8
75512.2
78584.1
67795.6
73152.9
57260.9
66308.7
42563.6
57566.4
21617
46200.6
-8879.59
31052.7
-53104
12257.4
-107646
-2787.15
-71182.4
4445.49
-35640.5
15212.6
-8711.24
24558.8
10206.8
31954.3
23781.9
38268.1
34046.7
43912
42105.4
48978.4
48590.6
53498
53902.4
57487.6
58290.7
60958.9
61925.5
63941.3
64945.2
66486.9
67472.8
68660.1
69615.7
70523.9
71463.6
72131.8
73089.2
73524.2
74551.4
74726.8
75898.9
75750.9
77175.1
76592.8
78423.5
77235.9
79692.8
77652.6
81038.6
77808.1
104151
104128
104082
104011
103932
103819
103709
103558
103416
103229
103063
102846
102660
102404
102186
101870
101610
101223
100928
100461
100143
99577.7
99240.7
98539.5
98192.2
97306.7
96967.6
95830
95530.4
94042.6
93834
91852.4
91818.3
89130.5
89405.2
85694.6
86492.6
81281.1
82945
75504
78580.1
67785.9
73148.7
57249.5
66304.6
42550.9
57562.4
21603.8
46196.6
-8887.36
31053.1
-53075.8
12277.9
-107498
-2745.14
-71155
4461.13
-35641.7
15214.3
-8720.69
24556.9
10198.6
31953.7
23776.6
38268.5
34043
43912.3
42102.3
48978.3
48587.8
53497.3
53899.5
57486.2
58287.8
60957.1
61922.7
63939.2
64942.7
66485
67470.8
68658.4
69614.2
70522.5
71462.7
72130.6
73088.8
73523
74551.3
74725.5
75899.2
75749.1
77175.9
76590.6
78424.8
77233.3
79694.6
77649.8
81040.8
77805.7
104146
104123
104078
104007
103928
103815
103705
103555
103414
103227
103062
102845
102659
102404
102185
101869
101609
101222
100927
100460
100142
99576.1
99239.1
98537.5
98190.4
97304.4
96965.6
95827.3
95528.1
94039.4
93831.4
91848.5
91815.4
89125.9
89402
85689
86489.2
81274.4
82941.2
75495.8
78576
67776.2
73144.6
57238.2
66300.6
42538.3
57558.5
21590.8
46192.6
-8895.02
31053.4
-53047.7
12298.3
-107352
-2703.55
-71127.9
4476.61
-35642.9
15216
-8730.06
24555.1
10190.5
31953.2
23771.3
38268.9
34039.2
43912.6
42099.3
48978.1
48585.1
53496.5
53896.8
57484.8
58285
60955.2
61919.9
63937.2
64940.3
66483
67468.8
68656.7
69612.8
70521
71461.7
72129.3
73088.3
73521.7
74551.3
74724.1
75899.6
75747.5
77176.7
76588.5
78426.1
77230.7
79696.4
77647
81043
77803.3
104141
104118
104073
104002
103924
103812
103702
103552
103412
103226
103061
102844
102659
102403
102184
101869
101609
101221
100926
100459
100141
99574.5
99237.5
98535.6
98188.6
97302.1
96963.5
95824.6
95525.8
94036.2
93828.9
91844.7
91812.5
89121.3
89398.9
85683.5
86485.7
81267.7
82937.4
75487.8
78572
67766.5
73140.5
57227.1
66296.6
42525.9
57554.6
21577.9
46188.7
-8902.58
31053.8
-53019.9
12318.5
-107207
-2662.39
-71100.9
4491.93
-35644.1
15217.6
-8739.36
24553.2
10182.5
31952.7
23766
38269.3
34035.5
43912.9
42096.2
48978
48582.3
53495.7
53894
57483.4
58282.1
60953.3
61917.2
63935.2
64937.8
66481.1
67466.8
68655
69611.3
70519.6
71460.8
72128.1
73087.8
73520.5
74551.2
74722.7
75899.9
75745.8
77177.5
76586.3
78427.4
77228.2
79698.2
77644.3
81045.2
77801
104136
104113
104068
103998
103920
103808
103699
103550
103409
103224
103059
102843
102658
102402
102184
101868
101608
101220
100925
100458
100139
99572.9
99236
98533.7
98186.8
97299.9
96961.5
95821.9
95523.6
94033
93826.3
91840.9
91809.7
89116.8
89395.7
85678
86482.3
81261.1
82933.7
75479.8
78568.1
67757
73136.4
57216
66292.7
42513.6
57550.7
21565.2
46184.8
-8910.04
31054.3
-52992.2
12338.6
-107063
-2621.66
-71074.2
4507.09
-35645.2
15219.2
-8748.58
24551.4
10174.6
31952.2
23760.8
38269.6
34031.8
43913.2
42093.3
48977.8
48579.6
53494.9
53891.3
57482
58279.3
60951.5
61914.5
63933.2
64935.4
66479.2
67464.8
68653.4
69609.8
70518.2
71459.8
72126.9
73087.3
73519.3
74551.1
74721.4
75900.3
75744.1
77178.2
76584.2
78428.6
77225.7
79699.9
77641.6
81047.3
77798.7
104130
104108
104064
103994
103916
103805
103696
103547
103407
103222
103058
102842
102657
102402
102183
101867
101607
101219
100924
100456
100138
99571.3
99234.4
98531.8
98185.1
97297.6
96959.5
95819.3
95521.3
94029.9
93823.8
91837.2
91806.9
89112.3
89392.6
85672.6
86478.9
81254.5
82930
75471.9
78564.1
67747.6
73132.4
57205.1
66288.7
42501.3
57546.8
21552.5
46181
-8917.4
31054.8
-52964.7
12358.6
-106922
-2581.35
-71047.8
4522.11
-35646.4
15220.8
-8757.72
24549.6
10166.7
31951.7
23755.7
38270
34028.2
43913.4
42090.3
48977.6
48576.9
53494.2
53888.6
57480.6
58276.6
60949.7
61911.8
63931.2
64933
66477.4
67462.9
68651.7
69608.4
70516.8
71458.9
72125.6
73086.8
73518.1
74551.1
74720.1
75900.6
75742.4
77179
76582.2
78429.9
77223.2
79701.7
77639
81049.4
77796.4
104125
104103
104059
103990
103912
103801
103693
103544
103405
103220
103057
102841
102656
102401
102182
101866
101606
101217
100923
100455
100137
99569.7
99232.9
98529.9
98183.3
97295.4
96957.6
95816.7
95519.1
94026.8
93821.3
91833.5
91804.1
89107.8
89389.6
85667.2
86475.5
81248
82926.3
75464
78560.2
67738.2
73128.4
57194.2
66284.9
42489.3
57543
21540
46177.2
-8924.66
31055.3
-52937.5
12378.4
-106781
-2541.46
-71021.5
4536.97
-35647.6
15222.3
-8766.77
24547.8
10159
31951.2
23750.6
38270.4
34024.6
43913.7
42087.4
48977.5
48574.3
53493.4
53885.9
57479.2
58273.8
60947.8
61909.1
63929.3
64930.7
66475.5
67461
68650.1
69607
70515.5
71457.9
72124.4
73086.3
73517
74551
74718.7
75900.9
75740.8
77179.8
76580.1
78431.1
77220.7
79703.4
77636.4
81051.5
77794.2
104120
104099
104055
103986
103908
103798
103690
103542
103403
103219
103055
102841
102656
102400
102182
101866
101605
101216
100922
100454
100135
99568.2
99231.4
98528
98181.6
97293.2
96955.6
95814.1
95516.9
94023.7
93818.9
91829.8
91801.4
89103.4
89386.5
85661.9
86472.1
81241.6
82922.7
75456.3
78556.4
67729
73124.5
57183.5
66281
42477.3
57539.2
21527.7
46173.4
-8931.82
31055.9
-52910.4
12398
-106642
-2501.98
-70995.5
4551.68
-35648.8
15223.8
-8775.75
24546.1
10151.3
31950.7
23745.6
38270.7
34021
43914
42084.5
48977.3
48571.6
53492.7
53883.2
57477.8
58271.1
60946.1
61906.5
63927.3
64928.3
66473.7
67459
68648.5
69605.6
70514.1
71457
72123.2
73085.9
73515.8
74550.9
74717.4
75901.3
75739.2
77180.5
76578.1
78432.4
77218.3
79705.1
77633.8
81053.6
77792
104115
104094
104050
103982
103904
103795
103687
103539
103401
103217
103054
102840
102655
102400
102181
101865
101604
101216
100921
100452
100134
99566.6
99229.9
98526.2
98179.9
97291
96953.7
95811.5
95514.7
94020.7
93816.4
91826.2
91798.7
89099.1
89383.5
85656.6
86468.8
81235.2
82919.1
75448.6
78552.6
67719.8
73120.6
57172.9
66277.2
42465.4
57535.5
21515.4
46169.7
-8938.88
31056.5
-52883.5
12417.5
-106505
-2462.93
-70969.8
4566.24
-35649.9
15225.3
-8784.63
24544.4
10143.6
31950.2
23740.6
38271.1
34017.5
43914.3
42081.6
48977.2
48569
53491.9
53880.6
57476.5
58268.4
60944.3
61903.9
63925.4
64926
66471.8
67457.1
68646.9
69604.2
70512.7
71456.1
72122.1
73085.4
73514.6
74550.9
74716.1
75901.6
75737.6
77181.3
76576
78433.6
77215.9
79706.8
77631.2
81055.6
77789.8
104111
104090
104046
103978
103901
103791
103684
103537
103398
103215
103053
102839
102654
102399
102181
101864
101604
101215
100920
100451
100133
99565.1
99228.4
98524.4
98178.2
97288.9
96951.7
95809
95512.6
94017.7
93814
91822.6
91796
89094.7
89380.5
85651.4
86465.6
81228.9
82915.5
75441
78548.8
67710.7
73116.7
57162.3
66273.4
42453.6
57531.8
21503.3
46166.1
-8945.85
31057.1
-52856.9
12436.9
-106369
-2424.29
-70944.2
4580.66
-35651.1
15226.8
-8793.43
24542.7
10136.1
31949.7
23735.6
38271.4
34014
43914.5
42078.7
48977
48566.4
53491.2
53878
57475.1
58265.7
60942.5
61901.3
63923.5
64923.7
66470
67455.3
68645.3
69602.8
70511.4
71455.2
72120.9
73084.9
73513.5
74550.8
74714.8
75901.9
75736
77182
76574
78434.8
77213.5
79708.4
77628.7
81057.6
77787.6
104106
104085
104041
103974
103897
103788
103681
103534
103396
103214
103051
102838
102654
102398
102180
101863
101603
101214
100919
100450
100132
99563.6
99227
98522.6
98176.5
97286.8
96949.8
95806.5
95510.4
94014.7
93811.6
91819
91793.3
89090.5
89377.6
85646.2
86462.3
81222.6
82912
75433.4
78545
67701.7
73112.8
57151.9
66269.7
42442
57528.1
21491.3
46162.5
-8952.72
31057.7
-52830.4
12456.1
-106235
-2386.07
-70918.9
4594.93
-35652.2
15228.3
-8802.14
24541
10128.6
31949.2
23730.7
38271.8
34010.5
43914.8
42075.9
48976.8
48563.8
53490.5
53875.4
57473.8
58263.1
60940.8
61898.7
63921.6
64921.4
66468.2
67453.4
68643.8
69601.4
70510.1
71454.3
72119.7
73084.5
73512.3
74550.7
74713.5
75902.2
75734.4
77182.7
76572.1
78436
77211.1
79710.1
77626.1
81059.6
77785.5
104101
104081
104037
103970
103893
103785
103678
103532
103394
103212
103050
102837
102653
102398
102179
101863
101602
101213
100918
100449
100131
99562.1
99225.5
98520.8
98174.8
97284.7
96947.9
95804
95508.3
94011.7
93809.2
91815.5
91790.7
89086.2
89374.7
85641.1
86459.1
81216.4
82908.5
75426
78541.3
67692.8
73109
57141.6
66266
42430.5
57524.4
21479.4
46158.9
-8959.49
31058.4
-52804.2
12475.1
-106102
-2348.26
-70893.8
4609.06
-35653.3
15229.7
-8810.76
24539.3
10121.2
31948.7
23725.9
38272.2
34007.1
43915.1
42073.1
48976.7
48561.3
53489.7
53872.9
57472.5
58260.4
60939
61896.2
63919.7
64919.1
66466.5
67451.6
68642.2
69600
70508.8
71453.4
72118.6
73084
73511.2
74550.7
74712.3
75902.5
75732.8
77183.5
76570.1
78437.1
77208.8
79711.7
77623.7
81061.6
77783.4
104096
104076
104033
103966
103889
103782
103675
103529
103392
103210
103049
102836
102652
102397
102179
101862
101601
101212
100917
100448
100129
99560.7
99224.1
98519
98173.2
97282.6
96946.1
95801.5
95506.2
94008.8
93806.9
91812
91788.1
89082
89371.8
85636
86455.9
81210.3
82905.1
75418.6
78537.6
67684
73105.3
57131.3
66262.3
42419.1
57520.8
21467.6
46155.4
-8966.17
31059.1
-52778.1
12494
-105970
-2310.85
-70869
4623.04
-35654.4
15231.2
-8819.3
24537.7
10113.9
31948.3
23721.1
38272.5
34003.7
43915.3
42070.3
48976.5
48558.7
53489
53870.3
57471.2
58257.8
60937.3
61893.7
63917.9
64916.9
66464.7
67449.7
68640.7
69598.7
70507.4
71452.5
72117.4
73083.6
73510.1
74550.6
74711
75902.9
75731.3
77184.2
76568.1
78438.3
77206.5
79713.3
77621.2
81063.5
77781.3
104092
104072
104029
103962
103886
103778
103672
103527
103390
103209
103048
102835
102652
102397
102178
101861
101601
101211
100916
100446
100128
99559.2
99222.7
98517.3
98171.5
97280.5
96944.2
95799.1
95504.1
94005.9
93804.6
91808.5
91785.5
89077.9
89368.9
85631
86452.8
81204.2
82901.6
75411.2
78534
67675.3
73101.6
57121.2
66258.7
42407.8
57517.3
21456
46151.9
-8972.76
31059.9
-52752.3
12512.7
-105840
-2273.86
-70844.4
4636.89
-35655.5
15232.6
-8827.74
24536
10106.7
31947.8
23716.4
38272.8
34000.3
43915.6
42067.6
48976.4
48556.2
53488.3
53867.8
57469.9
58255.3
60935.6
61891.2
63916.1
64914.6
66463
67447.9
68639.1
69597.3
70506.2
71451.7
72116.3
73083.1
73509
74550.6
74709.7
75903.2
75729.7
77184.9
76566.2
78439.5
77204.2
79714.9
77618.8
81065.4
77779.2
104087
104067
104024
103958
103882
103775
103669
103524
103388
103207
103046
102834
102651
102396
102178
101861
101600
101210
100915
100445
100127
99557.8
99221.3
98515.5
98169.9
97278.5
96942.4
95796.7
95502.1
94003
93802.3
91805.1
91782.9
89073.8
89366.1
85626.1
86449.6
81198.2
82898.3
75404
78530.4
67666.7
73097.9
57111.2
66255.1
42396.6
57513.8
21444.5
46148.5
-8979.25
31060.6
-52726.7
12531.3
-105712
-2237.28
-70820
4650.6
-35656.5
15234
-8836.09
24534.4
10099.5
31947.4
23711.7
38273.2
33997
43915.8
42064.8
48976.2
48553.7
53487.6
53865.3
57468.6
58252.7
60934
61888.7
63914.2
64912.4
66461.2
67446.1
68637.6
69596
70504.9
71450.8
72115.1
73082.7
73507.9
74550.5
74708.5
75903.5
75728.2
77185.6
76564.3
78440.6
77201.9
79716.5
77616.4
81067.3
77777.2
104082
104063
104020
103955
103879
103772
103666
103522
103386
103206
103045
102833
102650
102396
102177
101860
101599
101209
100914
100444
100126
99556.3
99219.9
98513.8
98168.3
97276.4
96940.6
95794.3
95500
94000.2
93800
91801.7
91780.4
89069.7
89363.2
85621.1
86446.5
81192.3
82894.9
75396.8
78526.8
67658.1
73094.2
57101.3
66251.5
42385.6
57510.3
21433.1
46145.2
-8985.65
31061.4
-52701.3
12549.7
-105585
-2201.1
-70795.8
4664.17
-35657.6
15235.4
-8844.34
24532.9
10092.5
31947
23707
38273.5
33993.7
43916.1
42062.1
48976
48551.3
53486.9
53862.8
57467.3
58250.2
60932.3
61886.3
63912.4
64910.3
66459.5
67444.4
68636.1
69594.7
70503.6
71450
72114
73082.3
73506.8
74550.4
74707.3
75903.8
75726.7
77186.3
76562.4
78441.7
77199.7
79718.1
77614
81069.2
77775.2
104078
104059
104016
103951
103875
103769
103663
103520
103384
103204
103044
102832
102650
102395
102176
101859
101598
101208
100913
100443
100125
99554.9
99218.5
98512.1
98166.7
97274.4
96938.8
95791.9
95498
93997.4
93797.7
91798.3
91777.9
89065.7
89360.5
85616.3
86443.5
81186.4
82891.6
75389.7
78523.3
67649.7
73090.6
57091.5
66248
42374.6
57506.8
21421.8
46141.8
-8991.97
31062.2
-52676.1
12567.9
-105460
-2165.32
-70771.9
4677.6
-35658.6
15236.8
-8852.51
24531.3
10085.5
31946.6
23702.4
38273.9
33990.4
43916.3
42059.5
48975.9
48548.9
53486.2
53860.4
57466.1
58247.7
60930.6
61883.8
63910.7
64908.1
66457.8
67442.6
68634.7
69593.4
70502.3
71449.1
72112.9
73081.8
73505.7
74550.4
74706.1
75904.1
75725.2
77187
76560.6
78442.9
77197.4
79719.6
77611.7
81071
77773.2
104073
104055
104012
103947
103872
103766
103661
103517
103382
103203
103043
102832
102649
102394
102176
101858
101598
101207
100912
100442
100124