/*--------------------------------*- C++ -*----------------------------------*\
| =========                 |                                                 |
| \\      /  F ield         | OpenFOAM: The Open Source CFD Toolbox           |
|  \\    /   O peration     | Version:  2412                                  |
|   \\  /    A nd           | Website:  www.openfoam.com                      |
|    \\/     M anipulation  |                                                 |
\*---------------------------------------------------------------------------*/
FoamFile
{
    version     2.0;
    format      ascii;
    arch        "LSB;label=32;scalar=64";
    class       surfaceScalarField;
    location    "1";
    object      phi;
}
// * * * * * * * * * * * * * * * * * * * * * * * * * * * * * * * * * * * * * //

dimensions      [0 3 -1 0 0 0 0];

oriented        oriented;

internalField   nonuniform List<scalar> 
25905
(
0.00747802
-0.012909
0.00739632
-0.0111755
0.00732927
-0.00958658
0.00727428
-0.00824134
0.00722919
-0.00709779
0.00719148
-0.00615258
0.0071605
-0.00512099
0.00713658
-0.00370808
0.00712105
-0.00167084
0.00711545
0.000902918
0.00712181
0.00368861
0.00714224
0.00625851
0.00717785
0.00823706
0.00722781
0.00942173
0.00728839
0.00974544
0.00735372
0.00934093
0.00741684
0.00839554
0.00747271
0.00726712
0.00751905
0.0061582
0.00755738
0.00530796
0.0075898
0.0046322
0.00761868
0.00416067
0.00764435
0.00369029
0.00766797
0.00336795
0.00768887
0.00296961
0.00770838
0.00274662
0.00772539
0.0023972
0.00774159
0.00226257
0.00775522
0.00191969
0.00776869
0.00187926
0.00777928
0.001507
0.00779032
0.00155277
0.00779792
0.00111548
0.00780685
0.00127648
0.0078115
0.000742098
0.0078186
0.0010457
0.00782015
0.000362305
0.00782576
0.000873255
0.00782393
-3.09388e-05
0.00782819
0.000749555
0.00782271
-0.000409798
0.00782651
0.000781363
0.00781864
-0.000615589
0.00782528
0.00114857
0.00781931
-0.000494644
0.0078342
0.00179434
0.00783336
-0.000516148
0.00785261
0.00128316
0.0078452
-0.0025666
0.00783704
-0.00405661
0.00778686
-0.0103506
0.00764223
-0.0249739
0.00737529
-0.0413297
0.00744857
0.0102517
0.00765105
0.0304319
0.00776803
0.0164612
0.00780832
0.00649198
0.00784335
0.00640459
0.00784804
0.00246879
0.0078547
0.00242276
0.00783821
-0.000822348
0.00782807
-0.000224714
0.00780721
-0.00184659
0.00779734
-0.000658681
0.00778304
-0.0013736
0.00777862
-0.000184842
0.00777168
-0.000548023
0.00777246
0.000394256
0.00777178
0.000140813
0.00777681
0.000797312
0.00778044
0.000553783
0.00778707
0.000895248
0.0077913
0.000576371
0.0077959
0.000631734
0.00779722
0.000234131
0.00779726
9.15699e-05
0.00779388
-0.000323444
0.00778849
-0.000564689
0.00778019
-0.000918322
0.00777002
-0.00115238
0.00775783
-0.00140006
0.00774429
-0.00158656
0.00772993
-0.00169419
0.00771488
-0.00182024
0.00770023
-0.00178618
0.00768533
-0.00187662
0.0076718
-0.00172517
0.00765804
-0.00182151
0.00764647
-0.0015574
0.00763398
-0.00172862
0.00762436
-0.00136841
0.00761262
-0.00164599
0.00760467
-0.00118449
0.00759306
-0.00157227
0.00758654
-0.0010123
0.00757499
-0.00144492
0.00757019
-0.000798831
0.00755994
-0.0011712
-0.000183351
0.00747798
-0.0128113
0.00739618
-0.0110937
0.00732896
-0.00951936
0.00727375
-0.00818613
0.00722843
-0.00705246
0.00719046
-0.00611462
0.00715928
-0.0050898
0.00713524
-0.00368404
0.00711974
-0.00165534
0.00711438
0.000908274
0.0071212
0.0036818
0.00714223
0.00623747
0.00717851
0.00820078
0.00722907
0.00937116
0.0072901
0.00968442
0.00735567
0.00927536
0.00741885
0.00833236
0.00747471
0.00721127
0.00752103
0.00611187
0.00755939
0.00526961
0.00759186
0.00459972
0.00762081
0.00413172
0.00764653
0.00366457
0.00767021
0.00334427
0.00769115
0.00294867
0.00771069
0.00272708
0.00772774
0.00238015
0.00774396
0.00224635
0.00775762
0.00190603
0.00777111
0.00186577
0.00778172
0.00149639
0.00779278
0.00154171
0.0078004
0.00110787
0.00780935
0.00126753
0.00781401
0.000737432
0.00782113
0.00103858
0.0078227
0.000360732
0.00782833
0.00086763
0.00782652
-2.9128e-05
0.00783079
0.000745278
0.00782535
-0.000404357
0.00782919
0.000777522
0.0078214
-0.00060779
0.00782809
0.00114187
0.00782219
-0.000488741
0.00783708
0.00177945
0.00783622
-0.000515283
0.0078553
0.00126408
0.00784767
-0.00255897
0.00783903
-0.00404797
0.0077882
-0.0102998
0.00764246
-0.0248281
0.00737427
-0.0410615
0.0074476
0.0101783
0.00765079
0.0302287
0.00776808
0.016344
0.00780866
0.0064514
0.00784401
0.00636924
0.00784898
0.00246382
0.00785588
0.00241586
0.00783959
-0.000806064
0.00782961
-0.000214736
0.00780888
-0.00182586
0.00779908
-0.000648879
0.0077848
-0.00135932
0.00778038
-0.000180427
0.00777344
-0.000541076
0.0077742
0.000393487
0.00777349
0.000141525
0.00777848
0.00079232
0.00778208
0.000550191
0.00778866
0.000888663
0.00779286
0.000572177
0.00779742
0.000627165
0.00779873
0.000232824
0.00779877
9.15335e-05
0.00779539
-0.000320068
0.00779002
-0.000559314
0.00778174
-0.000910043
0.00777159
-0.00114223
0.00775944
-0.00138791
0.00774593
-0.00157305
0.0077316
-0.00167987
0.00771658
-0.00180522
0.00770195
-0.00177155
0.00768707
-0.00186174
0.00767355
-0.00171165
0.00765979
-0.00180776
0.00764822
-0.00154583
0.00763572
-0.00171612
0.0076261
-0.00135878
0.00761437
-0.00163426
0.00760643
-0.00117654
0.00759485
-0.00156069
0.00758835
-0.00100581
0.00757688
-0.00143345
0.00757214
-0.000794085
0.00756203
-0.00116109
-0.000184106
0.00747794
-0.0127135
0.00739603
-0.0110118
0.00732865
-0.00945198
0.00727324
-0.00813072
0.00722767
-0.0070069
0.00718947
-0.00607641
0.00715807
-0.00505841
0.00713391
-0.00365988
0.00711845
-0.00163988
0.00711333
0.00091339
0.00712059
0.00367454
0.00714223
0.00621583
0.00717916
0.00816385
0.00723033
0.00932
0.00729179
0.00962296
0.00735759
0.00920955
0.00742083
0.00826912
0.00747667
0.00715543
0.00752299
0.00606556
0.00756137
0.00523123
0.00759391
0.00456718
0.00762292
0.00410271
0.0076487
0.00363879
0.00767242
0.00332055
0.00769341
0.00292768
0.00771298
0.0027075
0.00773006
0.00236308
0.00774631
0.0022301
0.00775999
0.00189234
0.0077735
0.00185226
0.00778414
0.00148576
0.00779522
0.00153062
0.00780286
0.00110023
0.00781182
0.00125857
0.00781651
0.000732746
0.00782364
0.00103145
0.00782524
0.000359139
0.00783088
0.000861991
0.00782909
-2.73405e-05
0.00783339
0.000740981
0.00782798
-0.000398955
0.00783186
0.000773642
0.00782413
-0.000600058
0.00783088
0.00113513
0.00782505
-0.000482906
0.00783994
0.00176455
0.00783905
-0.000514392
0.00785798
0.00124515
0.00785012
-0.00255111
0.00784099
-0.00403884
0.00778953
-0.0102483
0.00764268
-0.0246813
0.00737326
-0.0407921
0.00744664
0.0101049
0.00765054
0.0300248
0.00776813
0.0162264
0.007809
0.00641053
0.00784466
0.00633358
0.00784991
0.00245856
0.00785705
0.00240872
0.00784097
-0.000789985
0.00783116
-0.000204924
0.00781054
-0.00180524
0.0078008
-0.000639139
0.00778655
-0.00134507
0.00778214
-0.000176016
0.00777518
-0.000534124
0.00777594
0.000392736
0.0077752
0.000142262
0.00778015
0.000787366
0.0077837
0.00054664
0.00779025
0.000882121
0.0077944
0.000568019
0.00779894
0.000622624
0.00780024
0.000231533
0.00780027
9.15032e-05
0.0077969
-0.000316697
0.00779153
-0.000553952
0.00778328
-0.000901787
0.00777316
-0.00113211
0.00776104
-0.00137579
0.00774756
-0.00155957
0.00773327
-0.00166558
0.00771827
-0.00179022
0.00770366
-0.00175695
0.0076888
-0.00184687
0.00767529
-0.00169814
0.00766154
-0.00179401
0.00764997
-0.00153426
0.00763747
-0.00170362
0.00762784
-0.00134916
0.00761611
-0.00162253
0.00760818
-0.00116861
0.00759663
-0.00154915
0.00759016
-0.000999344
0.00757877
-0.00142206
0.00757408
-0.000789392
0.00756411
-0.00115112
-0.000184932
0.00747791
-0.0126156
0.00739589
-0.0109298
0.00732834
-0.00938443
0.00727272
-0.0080751
0.00722693
-0.00696111
0.00718848
-0.00603796
0.00715688
-0.0050268
0.0071326
-0.0036356
0.00711718
-0.00162445
0.0071123
0.000918267
0.00712
0.00366684
0.00714224
0.00619359
0.00717983
0.00812626
0.00723158
0.00926824
0.00729347
0.00956107
0.0073595
0.00914352
0.0074228
0.00820582
0.00747862
0.0070996
0.00752493
0.00601925
0.00756334
0.00519282
0.00759593
0.00453459
0.00762501
0.00407364
0.00765085
0.00361295
0.00767462
0.00329678
0.00769565
0.00290665
0.00771526
0.00268789
0.00773237
0.00234597
0.00774864
0.00221383
0.00776235
0.00187863
0.00777589
0.00183873
0.00778654
0.0014751
0.00779765
0.00151951
0.0078053
0.00109258
0.00781428
0.00124958
0.00781899
0.00072804
0.00782614
0.0010243
0.00782775
0.000357527
0.00783341
0.000856338
0.00783164
-2.55769e-05
0.00783596
0.000736664
0.0078306
-0.000393593
0.00783452
0.000769724
0.00782685
-0.000592392
0.00783365
0.00112832
0.00782788
-0.000477136
0.00784279
0.00174964
0.00784187
-0.000513476
0.00786063
0.00122639
0.00785255
-0.00254303
0.00784295
-0.00402924
0.00779085
-0.0101962
0.0076429
-0.0245333
0.00737225
-0.0405214
0.00744569
0.0100315
0.00765029
0.0298202
0.00776819
0.0161085
0.00780934
0.00636938
0.00784531
0.00629762
0.00785084
0.00245303
0.00785821
0.00240135
0.00784234
-0.000774109
0.00783269
-0.000195277
0.00781219
-0.00178474
0.00780251
-0.00062946
0.00778829
-0.00133085
0.00778388
-0.000171607
0.00777692
-0.000527168
0.00777766
0.000392002
0.00777689
0.000143024
0.00778181
0.000782448
0.00778532
0.000543129
0.00779182
0.000875621
0.00779594
0.000563898
0.00780046
0.000618112
0.00780173
0.000230259
0.00780176
9.14788e-05
0.00779839
-0.000313332
0.00779304
-0.000548605
0.00778481
-0.000893553
0.00777471
-0.00112202
0.00776262
-0.0013637
0.00774918
-0.00154612
0.00773492
-0.00165132
0.00771995
-0.00177525
0.00770537
-0.00174237
0.00769052
-0.00183202
0.00767702
-0.00168464
0.00766327
-0.00178026
0.0076517
-0.00152269
0.0076392
-0.00169111
0.00762957
-0.00133953
0.00761784
-0.00161081
0.00760992
-0.00116068
0.0075984
-0.00153763
0.00759196
-0.000992904
0.00758065
-0.00141075
0.00757601
-0.000784751
0.00756618
-0.00114129
-0.00018583
0.00747787
-0.0125177
0.00739575
-0.0108477
0.00732804
-0.00931673
0.00727222
-0.00801927
0.00722619
-0.00691508
0.00718751
-0.00599928
0.00715569
-0.00499499
0.0071313
-0.00361121
0.00711592
-0.00160907
0.00711128
0.000922905
0.00711943
0.0036587
0.00714226
0.00617076
0.0071805
0.00808803
0.00723283
0.0092159
0.00729514
0.00949876
0.00736139
0.00907727
0.00742475
0.00814246
0.00748056
0.00704379
0.00752685
0.00597296
0.00756529
0.00515438
0.00759794
0.00450194
0.00762708
0.0040445
0.00765298
0.00358705
0.00767681
0.00327295
0.00769788
0.00288558
0.00771752
0.00266825
0.00773466
0.00232883
0.00775096
0.00219753
0.0077647
0.0018649
0.00777825
0.00182518
0.00778893
0.00146443
0.00780005
0.00150839
0.00780773
0.00108491
0.00781673
0.00124058
0.00782145
0.000723315
0.00782862
0.00101714
0.00783025
0.000355894
0.00783592
0.000850669
0.00783418
-2.38367e-05
0.00783852
0.000732326
0.00783319
-0.00038827
0.00783715
0.000765766
0.00782955
-0.000584791
0.0078364
0.00112147
0.0078307
-0.000471431
0.00784561
0.00173473
0.00784466
-0.000512532
0.00786327
0.00120779
0.00785496
-0.00253472
0.00784488
-0.00401917
0.00779215
-0.0101435
0.00764311
-0.0243843
0.00737125
-0.0402496
0.00744475
0.00995801
0.00765005
0.0296149
0.00776825
0.0159903
0.00780967
0.00632796
0.00784595
0.00626134
0.00785177
0.00244721
0.00785937
0.00239375
0.0078437
-0.000758435
0.00783421
-0.000185793
0.00781383
-0.00176435
0.00780421
-0.000619844
0.00779002
-0.00131665
0.00778561
-0.000167204
0.00777865
-0.000520206
0.00777937
0.000391284
0.00777858
0.000143812
0.00778346
0.000777566
0.00778693
0.000539659
0.00779339
0.000869163
0.00779748
0.000559813
0.00780196
0.000613627
0.00780322
0.000229002
0.00780324
9.14603e-05
0.00779988
-0.000309972
0.00779454
-0.00054327
0.00778633
-0.00088534
0.00777626
-0.00111195
0.0077642
-0.00135164
0.00775079
-0.00153271
0.00773656
-0.0016371
0.00772162
-0.00176031
0.00770707
-0.00172781
0.00769223
-0.00181719
0.00767875
-0.00167115
0.007665
-0.00176651
0.00765343
-0.00151112
0.00764092
-0.0016786
0.00763129
-0.0013299
0.00761957
-0.00159909
0.00761165
-0.00115276
0.00760016
-0.00152615
0.00759375
-0.000986489
0.00758252
-0.00139952
0.00757793
-0.000780161
0.00756823
-0.00113159
-0.000186798
0.00747783
-0.0124198
0.00739561
-0.0107655
0.00732774
-0.00924886
0.00727172
-0.00796325
0.00722546
-0.00686882
0.00718654
-0.00596036
0.00715453
-0.00496298
0.00713002
-0.00358671
0.00711468
-0.00159373
0.00711028
0.000927303
0.00711887
0.00365011
0.00714229
0.00614734
0.00718117
0.00804915
0.00723408
0.00916299
0.0072968
0.00943605
0.00736326
0.00901081
0.00742668
0.00807904
0.00748247
0.006988
0.00752876
0.00592667
0.00756723
0.0051159
0.00759994
0.00446923
0.00762914
0.00401529
0.0076551
0.00356109
0.00767897
0.00324908
0.00770009
0.00286447
0.00771977
0.00264857
0.00773694
0.00231166
0.00775326
0.0021812
0.00776702
0.00185114
0.0077806
0.00181161
0.0077913
0.00145373
0.00780244
0.00149724
0.00781013
0.00107721
0.00781915
0.00123156
0.0078239
0.000718569
0.00783108
0.00100996
0.00783273
0.000354242
0.00783841
0.000844987
0.0078367
-2.21204e-05
0.00784105
0.000727969
0.00783577
-0.000382986
0.00783977
0.000761771
0.00783223
-0.000577256
0.00783914
0.00111457
0.0078335
-0.000465792
0.00784841
0.00171982
0.00784744
-0.000511562
0.00786588
0.00118935
0.00785735
-0.00252619
0.0078468
-0.00400862
0.00779344
-0.0100901
0.00764332
-0.0242342
0.00737026
-0.0399765
0.00744382
0.00988446
0.00764982
0.0294089
0.00776831
0.0158718
0.00781001
0.00628626
0.00784659
0.00622476
0.00785268
0.00244111
0.00786052
0.00238591
0.00784505
-0.000742962
0.00783572
-0.000176471
0.00781545
-0.00174408
0.0078059
-0.000610289
0.00779173
-0.00130249
0.00778733
-0.000162803
0.00778037
-0.000513241
0.00778107
0.000390582
0.00778026
0.000144624
0.0077851
0.00077272
0.00778853
0.000536229
0.00779495
0.000862748
0.007799
0.000555763
0.00780345
0.00060917
0.0078047
0.00022776
0.00780471
9.14474e-05
0.00780135
-0.000306616
0.00779603
-0.000537949
0.00778784
-0.000877149
0.0077778
-0.00110191
0.00776577
-0.00133961
0.00775239
-0.00151933
0.0077382
-0.0016229
0.00772328
-0.00174539
0.00770875
-0.00171328
0.00769393
-0.00180237
0.00768046
-0.00165767
0.00766671
-0.00175276
0.00765514
-0.00149956
0.00764263
-0.00166608
0.007633
-0.00132027
0.00762128
-0.00158737
0.00761337
-0.00114485
0.00760191
-0.00151469
0.00759552
-0.000980099
0.00758437
-0.00138836
0.00757983
-0.000775622
0.00757026
-0.00112202
-0.000187836
0.00747779
-0.0123218
0.00739547
-0.0106832
0.00732745
-0.00918083
0.00727122
-0.00790703
0.00722474
-0.00682233
0.00718559
-0.00592121
0.00715337
-0.00493076
0.00712876
-0.00356209
0.00711346
-0.00157843
0.0071093
0.000931461
0.00711833
0.00364109
0.00714234
0.00612333
0.00718185
0.00800963
0.00723534
0.00910951
0.00729845
0.00937293
0.00736512
0.00894415
0.00742859
0.00801557
0.00748437
0.00693222
0.00753065
0.00588039
0.00756915
0.0050774
0.00760192
0.00443646
0.00763119
0.00398602
0.00765721
0.00353507
0.00768113
0.00322516
0.00770228
0.00284331
0.007722
0.00262885
0.0077392
0.00229446
0.00775555
0.00216485
0.00776934
0.00183735
0.00778293
0.00179801
0.00779365
0.00144301
0.00780481
0.00148608
0.00781253
0.0010695
0.00782156
0.00122252
0.00782633
0.000713805
0.00783352
0.00100276
0.00783519
0.00035257
0.00784089
0.00083929
0.0078392
-2.04271e-05
0.00784358
0.000723591
0.00783833
-0.000377741
0.00784236
0.000757737
0.00783489
-0.000569785
0.00784185
0.00110761
0.00783627
-0.000460215
0.00785119
0.0017049
0.00785019
-0.000510565
0.00786847
0.00117106
0.00785972
-0.00251744
0.0078487
-0.0039976
0.00779472
-0.0100362
0.00764352
-0.024083
0.00736928
-0.0397023
0.0074429
0.00981084
0.00764958
0.0292022
0.00776837
0.015753
0.00781034
0.00624428
0.00784722
0.00618789
0.00785359
0.00243474
0.00786166
0.00237785
0.00784638
-0.000727688
0.00783722
-0.00016731
0.00781707
-0.00172393
0.00780757
-0.000600794
0.00779343
-0.00128835
0.00778904
-0.000158408
0.00778207
-0.000506272
0.00778276
0.000389895
0.00778192
0.000145459
0.00778673
0.00076791
0.00779012
0.000532839
0.0077965
0.000856373
0.00780051
0.000551749
0.00780494
0.000604741
0.00780617
0.000226534
0.00780617
9.14403e-05
0.00780282
-0.000303267
0.00779752
-0.000532642
0.00778935
-0.00086898
0.00777933
-0.0010919
0.00776733
-0.00132761
0.00775398
-0.00150598
0.00773982
-0.00160874
0.00772493
-0.0017305
0.00771043
-0.00169877
0.00769562
-0.00178757
0.00768216
-0.00164421
0.00766841
-0.00173902
0.00765685
-0.00148799
0.00764433
-0.00165356
0.00763469
-0.00131064
0.00762298
-0.00157565
0.00761507
-0.00113694
0.00760365
-0.00150327
0.00759729
-0.000973735
0.00758621
-0.00137729
0.00758172
-0.000771132
0.00757228
-0.00111258
-0.000188942
0.00747776
-0.0122238
0.00739534
-0.0106007
0.00732715
-0.00911265
0.00727074
-0.00785061
0.00722402
-0.00677562
0.00718465
-0.00588184
0.00715223
-0.00489835
0.00712751
-0.00353737
0.00711225
-0.00156317
0.00710833
0.00093538
0.0071178
0.00363162
0.00714239
0.00609873
0.00718254
0.00796948
0.00723658
0.00905547
0.0073001
0.00930941
0.00736697
0.00887728
0.00743048
0.00795206
0.00748625
0.00687646
0.00753252
0.00583411
0.00757106
0.00503886
0.00760389
0.00440363
0.00763322
0.00395669
0.00765929
0.003509
0.00768326
0.00320119
0.00770446
0.00282211
0.00772421
0.0026091
0.00774144
0.00227722
0.00775782
0.00214847
0.00777163
0.00182355
0.00778525
0.0017844
0.00779599
0.00143227
0.00780717
0.0014749
0.0078149
0.00106176
0.00782396
0.00121347
0.00782874
0.000709021
0.00783595
0.000995554
0.00783764
0.000350879
0.00784335
0.000833579
0.00784168
-1.87572e-05
0.00784608
0.000719193
0.00784087
-0.000372534
0.00784494
0.000753666
0.00783754
-0.000562377
0.00784454
0.0011006
0.00783903
-0.000454701
0.00785395
0.00168998
0.00785293
-0.000509541
0.00787105
0.00115294
0.00786207
-0.00250846
0.00785059
-0.00398611
0.00779599
-0.00998156
0.00764372
-0.0239307
0.00736831
-0.0394269
0.00744199
0.00973716
0.00764935
0.0289948
0.00776843
0.0156339
0.00781067
0.00620203
0.00784785
0.00615071
0.00785449
0.0024281
0.00786279
0.00236955
0.00784771
-0.000712612
0.00783871
-0.000158308
0.00781867
-0.00170389
0.00780923
-0.000591361
0.00779512
-0.00127424
0.00779074
-0.000154019
0.00778376
-0.000499301
0.00778444
0.000389224
0.00778358
0.000146319
0.00778835
0.000763135
0.0077917
0.000529488
0.00779804
0.00085004
0.00780201
0.00054777
0.00780642
0.000600339
0.00780763
0.000225324
0.00780763
9.14389e-05
0.00780428
-0.000299922
0.00779899
-0.000527347
0.00779084
-0.000860831
0.00778085
-0.00108191
0.00776889
-0.00131564
0.00775556
-0.00149265
0.00774143
-0.00159461
0.00772657
-0.00171564
0.00771209
-0.00168429
0.0076973
-0.00177278
0.00768385
-0.00163075
0.0076701
-0.00172527
0.00765854
-0.00147642
0.00764601
-0.00164103
0.00763638
-0.00130101
0.00762467
-0.00156395
0.00761677
-0.00112904
0.00760538
-0.00149188
0.00759904
-0.000967396
0.00758804
-0.00136629
0.0075836
-0.000766693
0.00757429
-0.00110327
-0.000190117
0.00747772
-0.0121258
0.0073952
-0.0105182
0.00732687
-0.00904432
0.00727025
-0.00779399
0.00722332
-0.00672868
0.00718372
-0.00584223
0.00715111
-0.00486574
0.00712627
-0.00351254
0.00711106
-0.00154795
0.00710738
0.000939059
0.00711728
0.00362172
0.00714246
0.00607355
0.00718324
0.0079287
0.00723783
0.00900088
0.00730173
0.00924551
0.0073688
0.00881022
0.00743236
0.00788849
0.00748811
0.00682071
0.00753438
0.00578784
0.00757295
0.00500029
0.00760584
0.00437075
0.00763523
0.0039273
0.00766137
0.00348287
0.00768539
0.00317717
0.00770662
0.00280088
0.00772641
0.00258932
0.00774367
0.00225996
0.00776007
0.00213207
0.00777391
0.00180971
0.00778754
0.00177076
0.00779831
0.00142151
0.00780951
0.0014637
0.00781726
0.00105401
0.00782633
0.0012044
0.00783113
0.000704217
0.00783836
0.00098833
0.00784007
0.000349169
0.00784579
0.000827854
0.00784415
-1.71103e-05
0.00784856
0.000714776
0.0078434
-0.000367366
0.0078475
0.000749557
0.00784016
-0.000555033
0.00784722
0.00109354
0.00784177
-0.000449249
0.00785669
0.00167506
0.00785564
-0.000508489
0.0078736
0.00113498
0.00786441
-0.00249927
0.00785246
-0.00397416
0.00779724
-0.00992634
0.00764392
-0.0237774
0.00736734
-0.0391503
0.00744108
0.00966341
0.00764913
0.0287868
0.00776849
0.0155146
0.007811
0.00615952
0.00784847
0.00611324
0.00785539
0.00242118
0.00786391
0.00236103
0.00784903
-0.000697731
0.00784018
-0.000149464
0.00782026
-0.00168396
0.00781088
-0.000581989
0.0077968
-0.00126016
0.00779242
-0.000149635
0.00778545
-0.000492327
0.0077861
0.000388567
0.00778522
0.000147201
0.00778996
0.000758395
0.00779327
0.000526177
0.00779956
0.000843747
0.00780351
0.000543826
0.00780788
0.000595964
0.00780908
0.00022413
0.00780907
9.14433e-05
0.00780573
-0.000296583
0.00780045
-0.000522066
0.00779233
-0.000852704
0.00778236
-0.00107195
0.00777043
-0.00130371
0.00775714
-0.00147936
0.00774304
-0.00158051
0.0077282
-0.00170081
0.00771374
-0.00166983
0.00769897
-0.00175801
0.00768553
-0.00161731
0.00767178
-0.00171153
0.00766022
-0.00146486
0.00764769
-0.0016285
0.00763806
-0.00129137
0.00762635
-0.00155224
0.00761846
-0.00112115
0.0076071
-0.00148052
0.00760078
-0.000961081
0.00758986
-0.00135536
0.00758547
-0.000762301
0.00757629
-0.00109409
-0.00019136
0.00747768
-0.0120277
0.00739507
-0.0104356
0.00732658
-0.00897583
0.00726977
-0.00773719
0.00722262
-0.00668153
0.0071828
-0.00580241
0.00714999
-0.00483294
0.00712506
-0.0034876
0.00710988
-0.00153278
0.00710644
0.000942499
0.00711678
0.00361138
0.00714254
0.00604779
0.00718394
0.00788731
0.00723908
0.00894574
0.00730336
0.00918123
0.00737061
0.00874296
0.00743422
0.00782488
0.00748995
0.00676498
0.00753622
0.00574157
0.00757483
0.00496169
0.00760778
0.0043378
0.00763724
0.00389784
0.00766342
0.00345668
0.00768749
0.0031531
0.00770877
0.0027796
0.00772859
0.0025695
0.00774588
0.00224267
0.00776231
0.00211564
0.00777617
0.00179586
0.00778983
0.0017571
0.00780061
0.00141072
0.00781183
0.00145248
0.0078196
0.00104623
0.00782869
0.00119531
0.00783351
0.000699395
0.00784075
0.000981092
0.00784248
0.00034744
0.00784822
0.000822114
0.0078466
-1.54869e-05
0.00785103
0.00071034
0.0078459
-0.000362236
0.00785005
0.000745411
0.00784277
-0.000547752
0.00784987
0.00108644
0.00784448
-0.000443858
0.00785941
0.00166013
0.00785833
-0.000507408
0.00787613
0.00111718
0.00786672
-0.00248986
0.00785431
-0.00396175
0.00779848
-0.00987051
0.00764411
-0.023623
0.00736638
-0.0388726
0.00744019
0.0095896
0.00764891
0.0285781
0.00776855
0.0153949
0.00781132
0.00611675
0.00784908
0.00607548
0.00785627
0.00241399
0.00786502
0.00235228
0.00785033
-0.000683047
0.00784165
-0.000140777
0.00782183
-0.00166415
0.00781252
-0.000572678
0.00779847
-0.00124611
0.00779409
-0.000145258
0.00778711
-0.000485352
0.00778776
0.000387923
0.00778685
0.000148105
0.00779156
0.000753688
0.00779483
0.000522904
0.00780108
0.000837495
0.00780499
0.000539916
0.00780934
0.000591616
0.00781052
0.000222951
0.00781051
9.14529e-05
0.00780718
-0.000293249
0.00780191
-0.000516798
0.0077938
-0.000844598
0.00778387
-0.00106201
0.00777196
-0.0012918
0.0077587
-0.0014661
0.00774463
-0.00156644
0.00772982
-0.001686
0.00771538
-0.0016554
0.00770062
-0.00174325
0.00768719
-0.00160388
0.00767345
-0.00169779
0.00766189
-0.00145329
0.00764936
-0.00161597
0.00763972
-0.00128174
0.00762802
-0.00154054
0.00762013
-0.00111327
0.0076088
-0.00146919
0.00760251
-0.00095479
0.00759167
-0.00134451
0.00758732
-0.000757959
0.00757826
-0.00108503
-0.00019267
0.00747765
-0.0119296
0.00739494
-0.0103529
0.0073263
-0.00890719
0.0072693
-0.00768019
0.00722193
-0.00663416
0.00718189
-0.00576236
0.00714889
-0.00479995
0.00712385
-0.00346255
0.00710872
-0.00151765
0.00710552
0.000945698
0.0071163
0.0036006
0.00714263
0.00602146
0.00718465
0.00784529
0.00724032
0.00889007
0.00730497
0.00911658
0.00737241
0.00867553
0.00743607
0.00776123
0.00749178
0.00670926
0.00753805
0.00569531
0.00757669
0.00492304
0.0076097
0.00430479
0.00763922
0.00386831
0.00766547
0.00343043
0.00768958
0.00312899
0.0077109
0.00275828
0.00773075
0.00254965
0.00774808
0.00222535
0.00776453
0.00209918
0.00777841
0.00178198
0.00779209
0.00174342
0.0078029
0.00139992
0.00781413
0.00144124
0.00782193
0.00103844
0.00783103
0.00118621
0.00783587
0.000694554
0.00784312
0.000973838
0.00784487
0.000345691
0.00785063
0.00081636
0.00784903
-1.38859e-05
0.00785348
0.000705883
0.00784839
-0.000357143
0.00785257
0.000741227
0.00784535
-0.000540533
0.00785251
0.00107928
0.00784718
-0.000438528
0.00786211
0.00164521
0.007861
-0.0005063
0.00787865
0.00109953
0.00786902
-0.00248023
0.00785615
-0.00394888
0.00779971
-0.00981407
0.00764429
-0.0234676
0.00736542
-0.0385937
0.0074393
0.00951572
0.00764869
0.0283687
0.00776861
0.015275
0.00781164
0.00607372
0.00784969
0.00603743
0.00785715
0.00240653
0.00786612
0.00234331
0.00785163
-0.000668555
0.0078431
-0.000132245
0.00782339
-0.00164444
0.00781414
-0.000563426
0.00780012
-0.00123209
0.00779575
-0.000140888
0.00778877
-0.000478376
0.0077894
0.000387294
0.00778848
0.000149033
0.00779315
0.000749015
0.00779638
0.000519669
0.00780259
0.000831283
0.00780647
0.000536041
0.00781079
0.000587295
0.00781195
0.000221788
0.00781194
9.1468e-05
0.00780861
-0.00028992
0.00780336
-0.000511543
0.00779527
-0.000836512
0.00778536
-0.0010521
0.00777348
-0.00127992
0.00776025
-0.00145287
0.00774621
-0.0015524
0.00773143
-0.00167121
0.00771701
-0.00164098
0.00770227
-0.0017285
0.00768885
-0.00159046
0.00767511
-0.00168406
0.00766355
-0.00144173
0.00765101
-0.00160343
0.00764137
-0.0012721
0.00762968
-0.00152884
0.0076218
-0.00110539
0.0076105
-0.0014579
0.00760423
-0.000948523
0.00759346
-0.00133374
0.00758916
-0.000753663
0.00758023
-0.0010761
-0.000194046
0.00747761
-0.0118315
0.00739481
-0.0102701
0.00732602
-0.0088384
0.00726883
-0.00762301
0.00722125
-0.00658658
0.00718099
-0.0057221
0.00714781
-0.00476677
0.00712266
-0.0034374
0.00710758
-0.00150257
0.00710462
0.000948659
0.00711583
0.00358939
0.00714273
0.00599455
0.00718536
0.00780267
0.00724156
0.00883386
0.00730658
0.00905156
0.0073742
0.00860791
0.00743789
0.00769753
0.00749359
0.00665356
0.00753986
0.00564904
0.00757854
0.00488436
0.00761161
0.00427173
0.00764119
0.00383873
0.00766749
0.00340413
0.00769166
0.00310483
0.00771302
0.00273692
0.0077329
0.00252976
0.00775025
0.002208
0.00776673
0.0020827
0.00778064
0.00176807
0.00779434
0.00172972
0.00780516
0.00138909
0.00781642
0.00142999
0.00782423
0.00103062
0.00783335
0.00117709
0.00783821
0.000689694
0.00784548
0.000966571
0.00784725
0.000343924
0.00785302
0.000810593
0.00785144
-1.2308e-05
0.00785591
0.000701406
0.00785086
-0.000352088
0.00785508
0.000737008
0.00784792
-0.000533376
0.00785513
0.00107208
0.00784985
-0.000433256
0.00786479
0.00163028
0.00786365
-0.000505163
0.00788114
0.00108204
0.00787129
-0.00247038
0.00785797
-0.00393555
0.00780092
-0.00975702
0.00764448
-0.0233111
0.00736448
-0.0383137
0.00743842
0.00944178
0.00764847
0.0281586
0.00776866
0.0151548
0.00781195
0.00603043
0.00785029
0.0059991
0.00785801
0.0023988
0.00786721
0.00233411
0.00785291
-0.000654255
0.00784453
-0.000123868
0.00782494
-0.00162485
0.00781575
-0.000554236
0.00780176
-0.00121809
0.0077974
-0.000136525
0.00779042
-0.000471398
0.00779104
0.000386676
0.00779009
0.000149981
0.00779473
0.000744376
0.00779792
0.000516472
0.0078041
0.000825111
0.00780794
0.0005322
0.00781223
0.000583
0.00781338
0.00022064
0.00781336
9.14885e-05
0.00781003
-0.000286596
0.00780479
-0.000506301
0.00779673
-0.000828447
0.00778684
-0.00104221
0.00777499
-0.00126807
0.00776179
-0.00143967
0.00774778
-0.0015384
0.00773302
-0.00165646
0.00771863
-0.00162659
0.0077039
-0.00171377
0.00769049
-0.00157705
0.00767676
-0.00167032
0.00766519
-0.00143017
0.00765265
-0.00159089
0.00764301
-0.00126246
0.00763132
-0.00151715
0.00762345
-0.00109752
0.00761218
-0.00144663
0.00760594
-0.00094228
0.00759524
-0.00132304
0.00759099
-0.000749415
0.00758218
-0.00106729
-0.000195488
0.00747758
-0.0117333
0.00739468
-0.0101872
0.00732574
-0.00876946
0.00726837
-0.00756564
0.00722058
-0.00653878
0.0071801
-0.00568162
0.00714673
-0.00473341
0.00712148
-0.00341215
0.00710645
-0.00148754
0.00710373
0.000951381
0.00711537
0.00357775
0.00714285
0.00596707
0.00718607
0.00775945
0.0072428
0.00877714
0.00730817
0.00898618
0.00737597
0.00854012
0.0074397
0.0076338
0.00749539
0.00659787
0.00754166
0.00560277
0.00758037
0.00484565
0.0076135
0.0042386
0.00764315
0.00380908
0.00766951
0.00337777
0.00769372
0.00308062
0.00771512
0.00271552
0.00773503
0.00250984
0.00775242
0.00219062
0.00776892
0.0020662
0.00778285
0.00175414
0.00779657
0.001716
0.00780742
0.00137825
0.00781869
0.00141871
0.00782652
0.00102279
0.00783566
0.00116795
0.00784054
0.000684815
0.00784782
0.000959289
0.00784961
0.000342138
0.00785539
0.000804812
0.00785383
-1.07527e-05
0.00785833
0.00069691
0.00785331
-0.00034707
0.00785757
0.000732751
0.00785047
-0.00052628
0.00785772
0.00106482
0.00785251
-0.000428044
0.00786744
0.00161534
0.00786628
-0.000503998
0.00788361
0.0010647
0.00787355
-0.00246032
0.00785977
-0.00392177
0.00780212
-0.00969938
0.00764465
-0.0231537
0.00736354
-0.0380326
0.00743755
0.00936776
0.00764826
0.0279479
0.00776872
0.0150344
0.00781226
0.00598689
0.00785088
0.00596048
0.00785887
0.00239081
0.00786829
0.0023247
0.00785418
-0.000640147
0.00784596
-0.000115645
0.00782648
-0.00160537
0.00781735
-0.000545106
0.00780339
-0.00120413
0.00779903
-0.00013217
0.00779205
-0.000464421
0.00779266
0.000386071
0.00779169
0.000150951
0.00779629
0.00073977
0.00779945
0.000513313
0.00780559
0.000818979
0.00780939
0.000528392
0.00781366
0.000578732
0.00781479
0.000219508
0.00781477
9.15142e-05
0.00781145
-0.000283277
0.00780622
-0.000501071
0.00779818
-0.000820402
0.00778831
-0.00103235
0.00777649
-0.00125625
0.00776332
-0.00142649
0.00774934
-0.00152442
0.00773461
-0.00164172
0.00772024
-0.00161223
0.00770553
-0.00169906
0.00769213
-0.00156365
0.00767839
-0.00165658
0.00766683
-0.0014186
0.00765429
-0.00157834
0.00764465
-0.00125282
0.00763296
-0.00150546
0.00762509
-0.00108965
0.00761385
-0.00143539
0.00760763
-0.00093606
0.00759701
-0.00131241
0.00759281
-0.000745213
0.00758411
-0.00105859
-0.000196995
0.00747754
-0.0116351
0.00739455
-0.0101042
0.00732547
-0.00870038
0.00726792
-0.00750809
0.00721991
-0.00649077
0.00717922
-0.00564094
0.00714567
-0.00469986
0.00712032
-0.00338681
0.00710533
-0.00147255
0.00710285