/*--------------------------------*- C++ -*----------------------------------*\
| =========                 |                                                 |
| \\      /  F ield         | OpenFOAM: The Open Source CFD Toolbox           |
|  \\    /   O peration     | Version:  2412                                  |
|   \\  /    A nd           | Website:  www.openfoam.com                      |
|    \\/     M anipulation  |                                                 |
\*---------------------------------------------------------------------------*/
FoamFile
{
    version     2.0;
    format      ascii;
    arch        "LSB;label=32;scalar=64";
    class       volVectorField;
    location    "1";
    object      U;
}
// * * * * * * * * * * * * * * * * * * * * * * * * * * * * * * * * * * * * * //

dimensions      [0 1 -1 0 0 0 0];

internalField   nonuniform List<vector> 
13068
(
(100.007 0.648069 0)
(100.234 1.8614 -4.37338e-17)
(100.704 3 -4.25114e-17)
(101.367 3.99754 0)
(102.224 4.87732 0)
(103.225 5.64298 0)
(104.369 6.47783 0)
(105.647 7.57964 6.12991e-17)
(107.097 9.11632 0)
(108.732 11.0274 -2.87893e-17)
(110.61 13.1078 0)
(112.754 15.0721 0)
(115.243 16.6816 0)
(118.062 17.7978 0)
(121.245 18.3778 0)
(124.662 18.4995 3.09445e-17)
(128.291 18.2861 -3.10784e-17)
(131.925 17.9479 3.07426e-17)
(135.62 17.6316 2.99418e-17)
(139.225 17.4803 2.86977e-17)
(142.967 17.46 2.73369e-17)
(146.678 17.5801 -5.32518e-22)
(150.658 17.7326 2.47727e-17)
(154.609 17.9782 -2.36441e-17)
(158.928 18.2188 -5.16794e-22)
(163.178 18.5703 0)
(167.924 18.8907 0)
(172.533 19.349 1.99724e-17)
(177.811 19.7372 -1.92233e-17)
(182.844 20.3055 0)
(188.781 20.7526 1.755e-17)
(194.307 21.4438 0)
(201.066 21.9447 0)
(207.168 22.7818 1.47994e-17)
(214.96 23.3345 -2.8465e-17)
(221.732 24.3524 0)
(230.841 24.9573 1.25817e-17)
(238.399 26.2035 -1.12593e-17)
(249.207 26.8644 6.02066e-22)
(257.692 28.4054 -9.42419e-18)
(270.724 29.1523 1.85516e-17)
(280.336 31.1065 7.53425e-18)
(296.364 32.0377 -5.15388e-22)
(307.473 34.5729 5.62167e-18)
(327.713 35.8186 6.11591e-18)
(341.043 38.9692 3.69792e-18)
(367.288 40.472 -4.70404e-18)
(383.884 43.6868 1.67343e-18)
(418.041 45.0711 -3.31576e-18)
(438.834 46.5795 5.78899e-19)
(481.463 47.316 1.92348e-18)
(507.417 40.5594 3.26276e-18)
(549.601 38.3607 1.316e-21)
(578.228 2.45607 -4.5539e-19)
(553.377 -17.5691 0)
(542.102 -27.6711 -6.64944e-18)
(507.655 -31.6089 0)
(491.275 -30.5095 0)
(461.695 -30.9961 0)
(445.915 -29.9105 0)
(420.967 -30.2623 0)
(406.094 -28.8281 0)
(385.334 -28.4218 3.20889e-18)
(372.099 -26.7106 0)
(355.172 -25.9831 6.49567e-23)
(343.628 -24.3895 4.0023e-18)
(329.744 -23.6469 -5.35387e-18)
(319.63 -22.316 4.47357e-22)
(308.086 -21.6598 6.40059e-18)
(299.176 -20.607 -4.32874e-22)
(289.421 -20.0764 -7.38255e-18)
(281.481 -19.2933 -7.63415e-18)
(273.04 -18.9059 2.4277e-22)
(265.83 -18.3603 8.68193e-18)
(258.324 -18.0905 0)
(251.668 -17.7137 9.7624e-18)
(244.854 -17.5042 4.03335e-22)
(238.659 -17.2194 -1.09095e-17)
(232.396 -17.0123 -1.15465e-17)
(226.626 -16.7591 0)
(220.838 -16.5125 3.79139e-22)
(215.49 -16.2567 1.33616e-17)
(210.136 -15.9491 0)
(205.225 -15.6846 -2.33508e-22)
(200.276 -15.3128 1.50822e-17)
(195.818 -15.057 -1.56421e-17)
(191.233 -14.629 0)
(187.239 -14.4146 -1.66345e-17)
(182.954 -13.9394 0)
(179.43 -13.8023 9.89627e-23)
(175.35 -13.2786 4.69636e-22)
(172.314 -13.2456 0)
(168.315 -12.6614 -6.27614e-22)
(165.816 -12.7386 0)
(161.746 -12.0807 -1.98387e-17)
(159.882 -12.2364 0)
(155.569 -11.5091 0)
(154.492 -11.6768 0)
(149.762 -10.6961 0)
(100.007 0.642086 -4.46282e-17)
(100.233 1.84426 4.37474e-17)
(100.701 2.97239 -4.25257e-17)
(101.362 3.96091 0)
(102.215 4.83291 0)
(103.212 5.59228 0)
(104.352 6.42116 0)
(105.628 7.51672 -3.06646e-17)
(107.076 9.04628 0)
(108.713 10.9493 2.87762e-17)
(110.596 13.0204 0)
(112.749 14.9742 -2.89486e-17)
(115.248 16.5724 2.94211e-17)
(118.078 17.6777 2.9962e-17)
(121.27 18.2489 0)
(124.694 18.3651 -3.08941e-17)
(128.326 18.1503 0)
(131.961 17.8139 -6.14006e-17)
(135.656 17.5007 -2.99083e-17)
(139.261 17.3516 -2.86752e-17)
(143.005 17.3321 -2.73241e-17)
(146.719 17.4515 -5.18966e-17)
(150.701 17.6028 -4.95453e-17)
(154.654 17.8465 2.36449e-17)
(158.975 18.0852 -2.27165e-17)
(163.227 18.434 0)
(167.975 18.752 2.09243e-17)
(172.586 19.2069 0)
(177.866 19.5923 1.92224e-17)
(182.9 20.1564 0)
(188.84 20.6004 -1.75485e-17)
(194.368 21.2864 0)
(201.13 21.7839 0)
(207.234 22.6148 0)
(215.029 23.1636 1.42314e-17)
(221.804 24.174 0)
(230.916 24.7748 -1.25796e-17)
(238.477 26.0118 1.12584e-17)
(249.288 26.6684 1.09293e-17)
(257.778 28.198 1.21491e-21)
(270.814 28.9402 -9.27469e-18)
(280.432 30.8801 -1.50662e-17)
(296.465 31.8053 -7.64783e-18)
(307.584 34.3215 0)
(327.83 35.5584 -1.22314e-17)
(341.172 38.6841 3.69537e-18)
(367.42 40.1744 4.70319e-18)
(384.026 43.3615 1.67103e-18)
(418.175 44.7323 3.31592e-18)
(438.97 46.2225 -5.79056e-19)
(481.56 46.9448 0)
(507.49 40.2254 -3.26624e-18)
(549.561 38.0282 -6.83122e-19)
(578.111 2.44165 4.56603e-19)
(553.347 -17.4123 0)
(542.094 -27.4524 0)
(507.669 -31.3615 0)
(491.305 -30.2687 0)
(461.745 -30.7528 0)
(445.974 -29.6778 0)
(421.038 -30.0288 0)
(406.169 -28.6071 0)
(385.414 -28.2054 -3.20572e-18)
(372.18 -26.5085 -2.54402e-18)
(355.253 -25.7872 -4.27278e-18)
(343.705 -24.2061 -4.00089e-18)
(329.819 -23.4692 -5.35249e-18)
(319.701 -22.1485 5.34231e-18)
(308.154 -21.4975 0)
(299.241 -20.4529 -4.32332e-22)
(289.483 -19.9265 -7.38175e-18)
(281.54 -19.1493 7.63403e-18)
(273.095 -18.7647 8.33635e-18)
(265.882 -18.2232 -8.6825e-18)
(258.374 -17.9551 0)
(251.716 -17.5809 -9.76326e-18)
(244.901 -17.3728 1.03941e-17)
(238.706 -17.09 0)
(232.442 -16.8844 1.15461e-17)
(226.672 -16.6331 0)
(220.883 -16.3882 1.27573e-17)
(215.535 -16.1345 -2.67215e-17)
(210.181 -15.8291 0)
(205.27 -15.5669 -2.9102e-17)
(200.32 -15.1979 -1.50811e-17)
(195.862 -14.9444 0)
(191.276 -14.5198 0)
(187.282 -14.3074 0)
(182.995 -13.8357 0)
(179.472 -13.7 -1.75933e-17)
(175.389 -13.1802 1.79243e-17)
(172.354 -13.1475 0)
(168.353 -12.5678 -3.77285e-17)
(165.855 -12.6441 0)
(161.783 -11.9916 1.98485e-17)
(159.921 -12.1451 0)
(155.608 -11.4246 0)
(154.533 -11.5894 0)
(149.805 -10.6186 0)
(100.007 0.636129 4.46375e-17)
(100.232 1.8272 0)
(100.698 2.94489 8.5087e-17)
(101.356 3.92444 -4.08307e-17)
(102.206 4.78869 0)
(103.2 5.54179 -3.56136e-17)
(104.336 6.36468 0)
(105.609 7.45392 -3.06782e-17)
(107.056 8.97624 0)
(108.694 10.871 0)
(110.582 12.9328 0)
(112.744 14.8759 5.78236e-17)
(115.254 16.4628 -2.93763e-17)
(118.094 17.5572 -2.99125e-17)
(121.296 18.1196 0)
(124.726 18.2305 0)
(128.36 18.0145 0)
(131.996 17.6798 6.13163e-17)
(135.691 17.3698 0)
(139.297 17.2228 0)
(143.043 17.2041 4.40497e-22)
(146.759 17.3228 2.5944e-17)
(150.743 17.4728 4.74661e-22)
(154.698 17.7146 -2.36469e-17)
(159.022 17.9515 -2.27177e-17)
(163.275 18.2976 -2.17341e-17)
(168.025 18.6132 -2.09255e-17)
(172.638 19.0647 0)
(177.92 19.4473 -1.92226e-17)
(182.956 20.0072 0)
(188.898 20.448 1.75482e-17)
(194.429 21.1289 0)
(201.193 21.6229 0)
(207.299 22.4476 0)
(215.097 22.9926 0)
(221.875 23.9955 0)
(230.99 24.5921 1.25786e-17)
(238.555 25.8198 0)
(249.37 26.4721 1.0927e-17)
(257.863 27.9904 1.20419e-21)
(270.904 28.7278 0)
(280.528 30.6533 7.53195e-18)
(296.566 31.5727 0)
(307.694 34.0699 0)
(327.946 35.2978 4.36181e-22)
(341.3 38.3986 -3.6954e-18)
(367.551 39.8764 -4.7031e-18)
(384.167 43.036 -1.67103e-18)
(418.307 44.3933 -3.31534e-18)
(439.105 45.8655 5.80549e-19)
(481.657 46.5737 0)
(507.563 39.8919 0)
(549.521 37.6965 6.87129e-19)
(577.994 2.42719 -4.56343e-19)
(553.318 -17.256 0)
(542.087 -27.2339 0)
(507.683 -31.1143 0)
(491.335 -30.028 3.06352e-18)
(461.794 -30.5097 0)
(446.034 -29.4451 -7.2391e-19)
(421.107 -29.7953 0)
(406.245 -28.3861 0)
(385.495 -27.9889 0)
(372.261 -26.3063 2.54229e-18)
(355.333 -25.5912 0)
(343.783 -24.0226 0)
(329.894 -23.2913 -5.01046e-23)
(319.773 -21.981 5.3402e-18)
(308.223 -21.3351 0)
(299.306 -20.2987 -6.54457e-18)
(289.544 -19.7764 7.38124e-18)
(281.598 -19.0053 0)
(273.15 -18.6234 0)
(265.934 -18.0859 0)
(258.424 -17.8196 0)
(251.765 -17.4481 0)
(244.948 -17.2413 0)
(238.752 -16.9606 0)
(232.487 -16.7563 -1.15465e-17)
(226.717 -16.5069 0)
(220.928 -16.2638 0)
(215.58 -16.0122 1.33598e-17)
(210.226 -15.7092 0)
(205.315 -15.4491 1.45497e-17)
(200.364 -15.0831 0)
(195.907 -14.8318 -1.56402e-17)
(191.319 -14.4105 0)
(187.325 -14.2001 0)
(183.036 -13.732 0)
(179.513 -13.5976 0)
(175.429 -13.0817 0)
(172.394 -13.0494 0)
(168.39 -12.4742 1.88701e-17)
(165.894 -12.5495 0)
(161.821 -11.9024 0)
(159.961 -12.0539 2.08805e-17)
(155.647 -11.34 0)
(154.573 -11.5021 -2.21912e-17)
(149.847 -10.541 0)
(100.007 0.630198 0)
(100.231 1.81021 0)
(100.696 2.91751 -4.25612e-17)
(101.35 3.88811 4.08571e-17)
(102.197 4.74464 0)
(103.187 5.49148 3.56496e-17)
(104.32 6.30837 3.28597e-17)
(105.59 7.39127 3.0694e-17)
(107.035 8.90626 0)
(108.675 10.7927 0)
(110.569 12.8449 -2.86376e-17)
(112.738 14.7773 -2.88751e-17)
(115.259 16.3527 0)
(118.11 17.4362 0)
(121.321 17.9899 0)
(124.757 18.0956 -3.07934e-17)
(128.394 17.8784 0)
(132.031 17.5456 -3.75026e-22)
(135.726 17.2387 0)
(139.333 17.0939 -2.86299e-17)
(143.08 17.076 4.32308e-22)
(146.798 17.1939 0)
(150.785 17.3427 2.47725e-17)
(154.742 17.5826 0)
(159.068 17.8176 2.27198e-17)
(163.323 18.161 2.17358e-17)
(168.075 18.4743 0)
(172.69 18.9223 1.99717e-17)
(177.974 19.3021 0)
(183.012 19.8578 0)
(188.956 20.2954 -1.75467e-17)
(194.489 20.9712 0)
(201.256 21.4617 -1.58839e-17)
(207.365 22.2802 0)
(215.165 22.8214 0)
(221.946 23.8167 -1.30401e-17)
(231.064 24.4093 -1.25764e-17)
(238.632 25.6277 0)
(249.45 26.2756 -1.09259e-17)
(257.948 27.7825 1.88369e-17)
(270.993 28.5152 9.27132e-18)
(280.623 30.4264 -7.52889e-18)
(296.667 31.3397 7.64565e-18)
(307.804 33.8179 0)
(328.062 35.0369 4.34352e-22)
(341.427 38.1128 -3.69286e-18)
(367.681 39.5781 0)
(384.307 42.7103 0)
(418.438 44.0542 3.3155e-18)
(439.24 45.5084 -5.80705e-19)
(481.752 46.2029 0)
(507.635 39.559 3.26741e-18)
(549.481 37.3658 -6.88499e-19)
(577.879 2.41265 4.57575e-19)
(553.29 -17.1002 0)
(542.081 -27.0156 0)
(507.698 -30.8672 -3.74125e-19)
(491.365 -29.7875 -3.05218e-18)
(461.843 -30.2666 0)
(446.093 -29.2126 1.44506e-18)
(421.177 -29.5619 0)
(406.32 -28.1652 9.79096e-19)
(385.575 -27.7724 0)
(372.341 -26.1041 2.53928e-18)
(355.412 -25.3951 0)
(343.86 -23.839 3.99663e-18)
(329.968 -23.1134 5.34969e-18)
(319.844 -21.8133 -5.33902e-18)
(308.291 -21.1725 6.39698e-18)
(299.371 -20.1444 0)
(289.605 -19.6262 7.38052e-18)
(281.656 -18.8611 -7.63252e-18)
(273.204 -18.4821 0)
(265.986 -17.9485 0)
(258.473 -17.684 0)
(251.813 -17.3152 -9.76351e-18)
(244.995 -17.1098 0)
(238.798 -16.8311 0)
(232.533 -16.6283 0)
(226.762 -16.3808 0)
(220.972 -16.1395 0)
(215.625 -15.8898 0)
(210.27 -15.5892 0)
(205.359 -15.3313 0)
(200.408 -14.9682 0)
(195.951 -14.7191 1.2044e-22)
(191.362 -14.3011 1.60885e-17)
(187.368 -14.0927 0)
(183.077 -13.6283 0)
(179.555 -13.4951 0)
(175.468 -12.9832 0)
(172.434 -12.9512 0)
(168.428 -12.3805 0)
(165.933 -12.4549 0)
(161.858 -11.8133 0)
(160 -11.9626 -2.08931e-17)
(155.686 -11.2554 -2.08831e-17)
(154.614 -11.4148 -7.4688e-22)
(149.89 -10.4634 0)
(100.007 0.624291 0)
(100.23 1.79329 4.37772e-17)
(100.693 2.89024 0)
(101.345 3.85193 0)
(102.188 4.70077 0)
(103.175 5.44135 3.56826e-17)
(104.304 6.25224 -3.28887e-17)
(105.571 7.32873 0)
(107.016 8.8363 0)
(108.657 10.7143 -2.87342e-17)
(110.556 12.7568 2.86119e-17)
(112.733 14.6783 -2.8838e-17)
(115.264 16.2423 0)
(118.127 17.3149 0)
(121.346 17.8599 0)
(124.788 17.9606 3.07442e-17)
(128.428 17.7423 0)
(132.065 17.4114 -3.05754e-17)
(135.761 17.1076 0)
(139.369 16.965 2.86084e-17)
(143.118 16.9477 5.45775e-17)
(146.838 17.0648 0)
(150.827 17.2125 0)
(154.786 17.4504 0)
(159.113 17.6836 0)
(163.37 18.0243 0)
(168.125 18.3353 2.09263e-17)
(172.741 18.7798 -1.99723e-17)
(178.028 19.1568 -1.92214e-17)
(183.068 19.7082 -1.8246e-17)
(189.014 20.1427 1.75463e-17)
(194.549 20.8134 -1.65245e-17)
(201.318 21.3004 1.58832e-17)
(207.429 22.1126 1.4792e-17)
(215.233 22.6501 1.42265e-17)
(222.016 23.6378 9.88891e-22)
(231.137 24.2262 1.25754e-17)
(238.708 25.4354 1.1251e-17)
(249.53 26.079 1.09237e-17)
(258.032 27.5744 -9.41692e-18)
(271.081 28.3024 -5.53998e-22)
(280.718 30.1991 7.52839e-18)
(296.766 31.1065 -1.52901e-17)
(307.913 33.5656 5.61492e-18)
(328.176 34.7757 6.11465e-18)
(341.553 37.8266 3.69288e-18)
(367.81 39.2795 -4.70177e-18)
(384.446 42.3843 0)
(418.568 43.7149 -3.31495e-18)
(439.373 45.1513 -5.8216e-19)
(481.847 45.8322 1.92711e-18)
(507.706 39.2265 -3.27085e-18)
(549.441 37.036 0)
(577.765 2.39806 4.57354e-19)
(553.262 -16.9449 0)
(542.074 -26.7976 0)
(507.712 -30.6204 3.73168e-19)
(491.394 -29.5472 0)
(461.891 -30.0237 0)
(446.151 -28.9801 -1.44329e-18)
(421.246 -29.3285 0)
(406.395 -27.9441 -9.77845e-19)
(385.654 -27.5559 0)
(372.421 -25.9018 -5.07459e-18)
(355.491 -25.1989 0)
(343.936 -23.6553 -3.99531e-18)
(330.042 -22.9353 0)
(319.915 -21.6456 0)
(308.358 -21.0098 -6.39587e-18)
(299.435 -19.99 0)
(289.666 -19.4759 -1.476e-17)
(281.713 -18.7169 7.63251e-18)
(273.258 -18.3406 0)
(266.038 -17.811 0)
(258.523 -17.5483 0)
(251.861 -17.1822 9.76445e-18)
(245.041 -16.9782 1.03952e-17)
(238.844 -16.7016 0)
(232.578 -16.5002 0)
(226.807 -16.2546 0)
(221.017 -16.0151 0)
(215.67 -15.7674 1.33575e-17)
(210.314 -15.4691 -1.39552e-17)
(205.404 -15.2135 0)
(200.452 -14.8532 1.50768e-17)
(195.994 -14.6064 3.12773e-17)
(191.404 -14.1917 -1.60884e-17)
(187.411 -13.9853 0)
(183.118 -13.5244 0)
(179.596 -13.3926 0)
(175.506 -12.8847 0)
(172.474 -12.853 0)
(168.465 -12.2867 0)
(165.972 -12.3603 -1.9699e-17)
(161.895 -11.724 1.98743e-17)
(160.039 -11.8713 0)
(155.725 -11.1708 4.17955e-17)
(154.654 -11.3275 2.22318e-17)
(149.932 -10.3857 0)
(100.007 0.61841 0)
(100.229 1.77644 -8.75782e-17)
(100.69 2.86308 0)
(101.339 3.8159 -4.09033e-17)
(102.18 4.65707 0)
(103.163 5.39142 -3.57185e-17)
(104.289 6.19629 0)
(105.552 7.26632 0)
(106.996 8.76636 2.9369e-17)
(108.639 10.6358 5.74418e-17)
(110.543 12.6685 2.85854e-17)
(112.729 14.5789 2.88019e-17)
(115.27 16.1313 -2.92427e-17)
(118.143 17.1931 2.97654e-17)
(121.372 17.7297 0)
(124.819 17.8253 0)
(128.462 17.6061 0)
(132.099 17.2771 0)
(135.795 16.9764 2.97763e-17)
(139.404 16.8359 0)
(143.155 16.8194 -2.72775e-17)
(146.877 16.9357 0)
(150.868 17.0822 2.47718e-17)
(154.829 17.3181 -2.36505e-17)
(159.159 17.5495 0)
(163.418 17.8875 0)
(168.174 18.1961 -5.12048e-22)
(172.792 18.6372 1.99716e-17)
(178.081 19.0114 1.92216e-17)
(183.123 19.5586 1.82459e-17)
(189.071 19.9899 1.75449e-17)
(194.609 20.6554 1.6524e-17)
(201.38 21.1389 1.58815e-17)
(207.493 21.9449 -1.47913e-17)
(215.3 22.4785 -1.42257e-17)
(222.086 23.4587 9.81237e-22)
(231.21 24.043 0)
(238.784 25.2429 -2.24989e-17)
(249.609 25.8821 -5.76518e-22)
(258.116 27.3662 0)
(271.169 28.0893 -9.2691e-18)
(280.812 29.9717 -7.52538e-18)
(296.865 30.8729 7.64451e-18)
(308.021 33.3131 -5.61486e-18)
(328.29 34.5142 0)
(341.678 37.5402 -3.69038e-18)
(367.938 38.9806 4.70168e-18)
(384.584 42.058 0)
(418.697 43.3754 6.62989e-18)
(439.505 44.7942 1.16527e-18)
(481.941 45.4616 -1.92807e-18)
(507.776 38.8946 0)
(549.402 36.7071 0)
(577.651 2.38342 -9.16487e-19)
(553.234 -16.7901 2.8773e-19)
(542.068 -26.5797 0)
(507.726 -30.3736 0)
(491.423 -29.307 -3.03086e-18)
(461.939 -29.7809 -1.24474e-18)
(446.21 -28.7476 7.20384e-19)
(421.314 -29.095 0)
(406.469 -27.7231 0)
(385.733 -27.3393 -3.19354e-18)
(372.5 -25.6994 2.53534e-18)
(355.569 -25.0026 0)
(344.012 -23.4714 3.993e-18)
(330.115 -22.7571 -5.3471e-18)
(319.985 -21.4777 0)
(308.425 -20.847 0)
(299.499 -19.8355 0)
(289.726 -19.3255 1.47589e-17)
(281.77 -18.5725 0)
(273.312 -18.199 0)
(266.09 -17.6735 -8.68264e-18)
(258.572 -17.4125 -9.32884e-18)
(251.908 -17.0492 -9.7644e-18)
(245.087 -16.8466 -1.03961e-17)
(238.889 -16.572 0)
(232.622 -16.372 -1.15463e-17)
(226.852 -16.1283 0)
(221.061 -15.8906 0)
(215.714 -15.645 -2.67134e-17)
(210.358 -15.349 3.20834e-22)
(205.448 -15.0956 -1.45456e-17)
(200.495 -14.7382 -1.50758e-17)
(196.038 -14.4936 -1.56379e-17)
(191.447 -14.0823 0)
(187.453 -13.8777 1.66374e-17)
(183.159 -13.4205 0)
(179.636 -13.2901 -1.76039e-17)
(175.545 -12.786 -1.79364e-17)
(172.513 -12.7547 -1.86103e-17)
(168.503 -12.1929 0)
(166.011 -12.2656 -3.7984e-22)
(161.932 -11.6348 -7.75519e-22)
(160.077 -11.78 0)
(155.763 -11.0861 -4.18239e-17)
(154.694 -11.2402 -2.2253e-17)
(149.974 -10.3081 0)
(100.007 0.612553 0)
(100.228 1.75966 8.75992e-17)
(100.687 2.83604 0)
(101.334 3.78002 4.09291e-17)
(102.171 4.61355 3.85993e-17)
(103.151 5.34167 -3.57516e-17)
(104.273 6.14051 0)
(105.534 7.20402 0)
(106.977 8.69645 -7.70188e-22)
(108.622 10.5572 -2.87077e-17)
(110.53 12.5799 -4.5706e-22)
(112.724 14.4792 -2.87653e-17)
(115.276 16.02 5.83979e-17)
(118.159 17.0709 -2.97175e-17)
(121.397 17.5991 0)
(124.85 17.6898 -3.06465e-17)
(128.495 17.4697 0)
(132.133 17.1427 0)
(135.829 16.8451 -5.94894e-17)
(139.439 16.7067 -2.85651e-17)
(143.192 16.6909 0)
(146.916 16.8064 0)
(150.909 16.9517 -2.47722e-17)
(154.872 17.1857 2.36525e-17)
(159.204 17.4152 0)
(163.464 17.7505 0)
(168.223 18.0568 -2.09282e-17)
(172.843 18.4944 -6.49665e-22)
(178.133 18.8658 0)
(183.177 19.4088 1.82443e-17)
(189.128 19.8369 -1.75445e-17)
(194.668 20.4973 0)
(201.441 20.9772 -3.17611e-17)
(207.557 21.7771 -1.47889e-17)
(215.366 22.3068 -1.42237e-17)
(222.155 23.2794 9.73535e-22)
(231.282 23.8596 -1.25717e-17)
(238.86 25.0503 1.1248e-17)
(249.688 25.685 -1.0921e-17)
(258.199 27.1577 9.4116e-18)
(271.256 27.8759 0)
(280.905 29.7439 7.52488e-18)
(296.963 30.6391 7.6432e-18)
(308.128 33.0602 0)
(328.403 34.2523 0)
(341.803 37.2534 7.37958e-18)
(368.065 38.6813 0)
(384.721 41.7316 0)
(418.826 43.0357 -3.31494e-18)
(439.636 44.437 -5.83111e-19)
(482.034 45.0913 0)
(507.846 38.5632 0)
(549.362 36.3791 0)
(577.539 2.36871 4.59143e-19)
(553.207 -16.6358 -4.30501e-19)
(542.062 -26.3621 0)
(507.741 -30.1271 -3.76301e-19)
(491.452 -29.0669 3.02069e-18)
(461.987 -29.5382 1.24103e-18)
(446.268 -28.5152 0)
(421.382 -28.8617 0)
(406.542 -27.5021 0)
(385.811 -27.1226 5.79858e-23)
(372.579 -25.4969 0)
(355.647 -24.8062 4.26342e-18)
(344.087 -23.2875 -7.98297e-18)
(330.187 -22.5788 5.34578e-18)
(320.055 -21.3097 -5.33386e-18)
(308.492 -20.6841 -6.39367e-18)
(299.562 -19.6808 -6.53931e-18)
(289.786 -19.175 -1.47579e-17)
(281.827 -18.428 0)
(273.366 -18.0574 0)
(266.141 -17.5358 1.73662e-17)
(258.621 -17.2767 9.32975e-18)
(251.956 -16.916 1.95302e-17)
(245.133 -16.7148 1.03963e-17)
(238.935 -16.4423 0)
(232.667 -16.2438 1.15468e-17)
(226.896 -16.002 -1.21215e-17)
(221.105 -15.7661 1.27536e-17)
(215.758 -15.5225 1.33559e-17)
(210.401 -15.2289 1.3953e-17)
(205.492 -14.9776 2.90889e-17)
(200.538 -14.6231 1.50742e-17)
(196.081 -14.3808 0)
(191.488 -13.9727 -1.60872e-17)
(187.495 -13.7702 -1.6638e-17)
(183.199 -13.3166 -1.70216e-17)
(179.677 -13.1874 3.52129e-17)
(175.583 -12.6873 3.58794e-17)
(172.552 -12.6563 1.86151e-17)
(168.54 -12.099 1.88914e-17)
(166.049 -12.1709 3.94307e-17)
(161.969 -11.5455 -1.98927e-17)
(160.115 -11.6887 -2.0933e-17)
(155.801 -11.0015 2.09265e-17)
(154.733 -11.153 2.22727e-17)
(150.015 -10.2304 2.19654e-17)
(100.007 0.606721 0)
(100.227 1.74295 -8.76201e-17)
(100.684 2.80911 0)
(101.329 3.74428 0)
(102.163 4.57019 -3.86327e-17)
(103.139 5.2921 3.57874e-17)
(104.258 6.0849 0)
(105.516 7.14185 0)
(106.958 8.62656 -2.93711e-17)
(108.604 10.4784 0)
(110.518 12.491 -5.7068e-17)
(112.72 14.3791 2.87296e-17)
(115.282 15.9083 -2.91556e-17)
(118.176 16.9483 2.96695e-17)
(121.422 17.4681 0)
(124.88 17.5541 6.11973e-17)
(128.528 17.3332 0)
(132.167 17.0082 -3.04543e-17)
(135.863 16.7138 3.68916e-22)
(139.474 16.5774 2.85445e-17)
(143.228 16.5623 0)
(146.954 16.6769 2.59226e-17)
(150.95 16.8211 2.47717e-17)
(154.915 17.0531 0)
(159.248 17.2808 0)
(163.511 17.6134 2.17399e-17)
(168.271 17.9173 0)
(172.893 18.3515 -1.99723e-17)
(178.186 18.7201 0)
(183.232 19.2588 -1.82442e-17)
(189.185 19.6837 0)
(194.726 20.339 0)
(201.502 20.8154 1.58796e-17)
(207.621 21.609 1.47882e-17)
(215.432 22.1349 2.84453e-17)
(222.224 23.0999 1.30338e-17)
(231.354 23.676 1.25707e-17)
(238.935 24.8574 0)
(249.767 25.4877 0)
(258.282 26.949 -1.15658e-21)
(271.342 27.6624 0)
(280.997 29.516 7.52193e-18)
(297.061 30.4051 -1.52853e-17)
(308.235 32.807 0)
(328.515 33.9901 0)
(341.926 36.9664 -1.2391e-21)
(368.191 38.3818 0)
(384.857 41.4048 0)
(418.953 42.6958 3.31443e-18)
(439.765 44.0798 -5.8452e-19)
(482.127 44.721 1.92991e-18)
(507.915 38.2323 0)
(549.323 36.052 -7.00643e-19)
(577.428 2.35395 0)
(553.18 -16.482 1.42467e-19)
(542.056 -26.1447 -6.62417e-18)
(507.755 -29.8807 7.52503e-19)
(491.481 -28.827 0)
(462.034 -29.2955 0)
(446.325 -28.2828 -7.19738e-19)
(421.449 -28.6283 2.16039e-18)
(406.615 -27.281 0)
(385.888 -26.9059 3.18792e-18)
(372.657 -25.2943 0)
(355.724 -24.6096 -8.52322e-18)
(344.162 -23.1034 4.97895e-22)
(330.259 -22.4004 5.34457e-18)
(320.124 -21.1415 4.35823e-22)
(308.558 -20.5211 6.39262e-18)
(299.625 -19.526 1.30768e-17)
(289.846 -19.0244 7.3785e-18)
(281.883 -18.2834 0)
(273.419 -17.9156 8.33696e-18)
(266.191 -17.398 -8.6836e-18)
(258.669 -17.1408 -9.33003e-18)
(252.003 -16.7828 -9.76586e-18)
(245.179 -16.583 -1.03972e-17)
(238.98 -16.3126 0)
(232.711 -16.1155 -1.15465e-17)
(226.94 -15.8756 2.4243e-17)
(221.148 -15.6415 -1.27534e-17)
(215.802 -15.4 -1.33547e-17)
(210.444 -15.1087 -1.39515e-17)
(205.535 -14.8596 -1.45433e-17)
(200.581 -14.508 -3.01463e-17)
(196.124 -14.2679 0)
(191.53 -13.8632 1.60871e-17)
(187.537 -13.6625 -1.66386e-17)
(183.239 -13.2126 3.48344e-22)
(179.717 -13.0847 -3.52181e-17)
(175.622 -12.5886 -1.7943e-17)
(172.591 -12.5579 -1.86204e-17)
(168.576 -12.0051 -3.77943e-17)
(166.087 -12.0761 3.73808e-22)
(162.005 -11.4562 0)
(160.154 -11.5974 2.09454e-17)
(155.839 -10.9168 0)
(154.772 -11.0657 -2.22937e-17)
(150.057 -10.1528 -2.19875e-17)
(100.007 0.600912 0)
(100.226 1.7263 4.38216e-17)
(100.682 2.78228 0)
(101.324 3.70868 0)
(102.155 4.52701 0)
(103.127 5.24271 3.58204e-17)
(104.243 6.02946 -3.29995e-17)
(105.498 7.07979 3.07687e-17)
(106.939 8.55668 2.93711e-17)
(108.587 10.3996 0)
(110.506 12.4019 2.85086e-17)
(112.716 14.2787 0)
(115.288 15.7961 0)
(118.192 16.8254 -2.96225e-17)
(121.446 17.3369 0)
(124.911 17.4182 -3.05514e-17)
(128.561 17.1966 0)
(132.2 16.8737 3.58215e-22)
(135.897 16.5823 2.96824e-17)
(139.508 16.448 0)
(143.264 16.4335 2.72437e-17)
(146.993 16.5474 -2.59191e-17)
(150.99 16.6903 -4.48931e-22)
(154.957 16.9204 0)
(159.293 17.1463 0)
(163.557 17.4762 -5.81523e-22)
(168.32 17.7777 -2.09291e-17)
(172.943 18.2085 0)
(178.238 18.5743 1.92202e-17)
(183.286 19.1087 0)
(189.241 19.5305 0)
(194.784 20.1806 0)
(201.563 20.6534 1.58779e-17)
(207.683 21.4408 0)
(215.498 21.9629 -1.42216e-17)
(222.292 22.9203 0)
(231.425 23.4922 0)
(239.009 24.6643 -1.12429e-17)
(249.844 25.2902 -1.09173e-17)
(258.364 26.74 -9.40868e-18)
(271.428 27.4486 9.26451e-18)
(281.089 29.2877 -7.52145e-18)
(297.158 30.1707 4.86969e-22)
(308.34 32.5536 0)
(328.627 33.7277 0)
(342.049 36.679 -1.22912e-21)
(368.316 38.082 0)
(384.992 41.0779 0)
(419.079 42.3558 -3.31462e-18)
(439.894 43.7226 5.84678e-19)
(482.218 44.351 -1.95704e-23)
(507.983 37.9019 0)
(549.284 35.7257 -1.30765e-21)
(577.317 2.33913 4.5955e-19)
(553.154 -16.3287 1.38794e-19)
(542.05 -25.9275 6.62559e-18)
(507.768 -29.6344 1.59405e-21)
(491.509 -28.5872 0)
(462.081 -29.053 0)
(446.382 -28.0506 7.18203e-19)
(421.516 -28.395 -1.66889e-22)
(406.688 -27.06 0)
(385.965 -26.6892 0)
(372.734 -25.0916 0)
(355.8 -24.413 8.5197e-18)
(344.236 -22.9192 4.94118e-22)
(330.331 -22.2219 -5.34328e-18)
(320.193 -20.9733 5.33128e-18)
(308.624 -20.358 0)
(299.688 -19.3712 -6.53746e-18)
(289.905 -18.8736 7.37789e-18)
(281.939 -18.1387 7.6304e-18)
(273.472 -17.7737 -2.29364e-22)
(266.242 -17.2602 0)
(258.717 -17.0048 9.33097e-18)
(252.05 -16.6495 0)
(245.224 -16.4512 0)
(239.024 -16.1828 0)
(232.755 -15.9872 2.30937e-17)
(226.984 -15.7492 -1.21214e-17)
(221.191 -15.5169 0)
(215.845 -15.2774 2.67079e-17)
(210.487 -14.9884 3.1421e-22)
(205.578 -14.7416 0)
(200.623 -14.3928 1.50721e-17)
(196.166 -14.155 0)
(191.571 -13.7535 -1.60864e-17)
(187.578 -13.5549 1.58516e-23)
(183.279 -13.1085 3.46103e-22)
(179.757 -12.9819 3.52233e-17)
(175.659 -12.4898 0)
(172.63 -12.4594 -2.1455e-22)
(168.613 -11.9112 3.78051e-17)
(166.125 -11.9813 -3.94635e-17)
(162.041 -11.3668 -1.99094e-17)
(160.191 -11.5061 0)
(155.877 -10.8321 0)
(154.811 -10.9786 -7.10887e-22)
(150.098 -10.0751 0)
(100.007 0.595127 0)
(100.225 1.70973 -4.38295e-17)
(100.679 2.75557 0)
(101.318 3.67322 0)
(102.147 4.48399 0)
(103.116 5.1935 -1.40336e-21)
(104.228 5.97418 3.30289e-17)
(105.48 7.01785 -3.07851e-17)
(106.92 8.48683 -7.49765e-22)
(108.57 10.3206 2.86672e-17)
(110.494 12.3125 0)
(112.712 14.1778 0)
(115.295 15.6836 0)
(118.208 16.7021 0)
(121.471 17.2054 0)
(124.941 17.2821 -3.05042e-17)
(128.593 17.0599 -3.06638e-17)
(132.233 16.7391 3.54929e-22)
(135.93 16.4508 -2.96515e-17)
(139.542 16.3185 2.85029e-17)
(143.3 16.3047 -2.72334e-17)
(147.031 16.4177 -2.59148e-17)
(151.03 16.5594 -4.45182e-22)
(154.999 16.7876 0)
(159.337 17.0117 2.27295e-17)
(163.603 17.3389 -2.17428e-17)
(168.367 17.638 4.186e-17)
(172.993 18.0653 -1.99717e-17)
(178.289 18.4283 -3.84404e-17)
(183.339 18.9585 0)
(189.297 19.377 1.75414e-17)
(194.842 20.022 0)
(201.623 20.4913 -3.17541e-17)
(207.746 21.2725 1.47842e-17)
(215.563 21.7907 -1.42197e-17)
(222.36 22.7405 -1.30292e-17)
(231.496 23.3082 0)
(239.083 24.4711 2.24828e-17)
(249.922 25.0925 1.09163e-17)
(258.445 26.5309 9.40553e-18)
(271.513 27.2346 -9.26372e-18)
(281.181 29.0593 0)
(297.254 29.9361 7.64132e-18)
(308.445 32.2998 0)
(328.737 33.4649 -6.11218e-18)
(342.17 36.3913 -3.68681e-18)
(368.441 37.7819 0)
(385.125 40.7507 0)
(419.204 42.0156 0)
(440.022 43.3653 0)
(482.309 43.9811 -1.60359e-23)
(508.05 37.572 0)
(549.245 35.4003 7.04758e-19)
(577.208 2.32425 -7.05069e-22)
(553.128 -16.1759 -1.9703e-21)
(542.044 -25.7105 0)
(507.782 -29.3883 -3.77039e-19)
(491.537 -28.3476 0)
(462.127 -28.8106 1.2315e-18)
(446.438 -27.8183 7.18412e-19)
(421.582 -28.1616 -2.15357e-18)
(406.759 -26.8389 -9.669e-19)
(386.041 -26.4724 0)
(372.811 -24.8888 -2.52594e-18)
(355.876 -24.2163 -4.25809e-18)
(344.309 -22.7349 3.98655e-18)
(330.402 -22.0433 0)
(320.262 -20.8049 0)
(308.689 -20.1947 0)
(299.75 -19.2161 0)
(289.964 -18.7227 -1.47549e-17)
(281.995 -17.9938 -7.63047e-18)
(273.524 -17.6317 -1.6675e-17)
(266.292 -17.1223 -8.68367e-18)
(258.765 -16.8687 0)
(252.096 -16.5162 0)
(245.269 -16.3193 1.03981e-17)
(239.069 -16.053 1.09113e-17)
(232.798 -15.8588 -1.15472e-17)
(227.027 -15.6227 0)
(221.234 -15.3923 0)
(215.888 -15.1548 -1.33532e-17)
(210.53 -14.8682 1.39495e-17)
(205.621 -14.6235 0)
(200.665 -14.2776 0)
(196.209 -14.042 1.56348e-17)
(191.613 -13.6438 3.21724e-17)
(187.619 -13.4471 1.57674e-23)
(183.318 -13.0044 1.70254e-17)
(179.797 -12.8791 -1.76142e-17)
(175.697 -12.3909 0)
(172.668 -12.3609 1.86301e-17)
(168.649 -11.8172 -1.89082e-17)
(166.162 -11.8865 -3.67792e-22)
(162.077 -11.2774 1.99188e-17)
(160.229 -11.4148 0)
(155.914 -10.7473 -2.09676e-17)
(154.85 -10.8914 2.23332e-17)
(150.138 -9.99733 0)
(100.007 0.589366 -4.46858e-17)
(100.224 1.69321 4.3842e-17)
(100.676 2.72896 0)
(101.313 3.6379 4.10207e-17)
(102.138 4.44113 0)
(103.104 5.14446 -1.392e-21)
(104.213 5.91907 3.3056e-17)
(105.463 6.95603 0)
(106.902 8.417 -2.93737e-17)
(108.553 10.2415 -5.67799e-22)
(110.482 12.2229 0)
(112.709 14.0767 0)
(115.301 15.5706 0)
(118.225 16.5783 0)
(121.496 17.0736 0)
(124.97 17.1458 6.09159e-17)
(128.625 16.9232 3.06206e-17)
(132.265 16.6044 6.06763e-17)
(135.963 16.3192 2.96217e-17)
(139.576 16.1889 -2.84833e-17)
(143.336 16.1757 2.72225e-17)
(147.068 16.2879 2.59116e-17)
(151.07 16.4284 -2.47723e-17)
(155.041 16.6546 2.36578e-17)
(159.381 16.8769 -2.27317e-17)
(163.649 17.2014 -2.17434e-17)
(168.415 17.4982 -2.0931e-17)
(173.042 17.922 1.99724e-17)
(178.341 18.2822 1.92202e-17)
(183.392 18.8081 0)
(189.352 19.2235 -5.35171e-22)
(194.899 19.8633 0)
(201.683 20.3291 1.58762e-17)
(207.808 21.104 -2.95662e-17)
(215.628 21.6183 1.42189e-17)
(222.427 22.5606 2.60559e-17)
(231.566 23.1241 1.25656e-17)
(239.157 24.2777 -1.124e-17)
(249.998 24.8946 1.09142e-17)
(258.526 26.3216 -1.1285e-21)
(271.598 27.0204 0)
(281.271 28.8305 0)
(297.35 29.7011 7.64007e-18)
(308.55 32.0458 0)
(328.847 33.2017 6.11221e-18)
(342.291 36.1033 0)
(368.564 37.4816 0)
(385.258 40.4233 0)
(419.328 41.6752 0)
(440.148 43.0081 0)
(482.398 43.6114 -1.93274e-18)
(508.116 37.2427 0)
(549.206 35.0758 0)
(577.099 2.3093 -4.6143e-19)
(553.102 -16.0236 -1.37453e-19)
(542.039 -25.4937 0)
(507.796 -29.1423 0)
(491.565 -28.1081 2.98388e-18)
(462.173 -28.5683 -1.22827e-18)
(446.494 -27.5861 -7.16968e-19)
(421.648 -27.9283 2.15003e-18)
(406.831 -26.6178 8.3872e-22)
(386.116 -26.2555 3.17973e-18)
(372.887 -24.686 2.52444e-18)
(355.951 -24.0195 0)
(344.382 -22.5505 -3.98437e-18)
(330.473 -21.8645 0)
(320.33 -20.6364 0)
(308.754 -20.0313 0)
(299.812 -19.061 -6.53483e-18)
(290.022 -18.5717 1.4754e-17)
(282.05 -17.8489 -7.62967e-18)
(273.577 -17.4896 2.2612e-22)
(266.342 -16.9842 8.68443e-18)
(258.813 -16.7325 -9.33192e-18)
(252.142 -16.3828 0)
(245.314 -16.1873 -2.07977e-17)
(239.113 -15.9231 -1.09121e-17)
(232.842 -15.7304 1.1547e-17)
(227.07 -15.4962 1.21206e-17)
(221.277 -15.2676 0)
(215.931 -15.0321 0)
(210.572 -14.7478 -1.39481e-17)
(205.664 -14.5053 0)
(200.707 -14.1623 1.50695e-17)
(196.251 -13.9289 -1.56342e-17)
(191.653 -13.5341 -1.6086e-17)
(187.66 -13.3393 3.32809e-17)
(183.357 -12.9002 -1.70262e-17)
(179.836 -12.7762 0)
(175.734 -12.292 -1.79517e-17)
(172.706 -12.2623 -1.86353e-17)
(168.685 -11.7231 0)
(166.199 -11.7916 1.97478e-17)
(162.113 -11.188 0)
(160.266 -11.3235 2.09845e-17)
(155.951 -10.6626 2.09823e-17)
(154.889 -10.8042 -2.23539e-17)
(150.179 -9.91958 2.20498e-17)
(100.007 0.583628 4.46945e-17)
(100.223 1.67677 0)
(100.674 2.70246 0)
(101.308 3.60272 -8.20893e-17)
(102.13 4.39844 0)
(103.093 5.0956 -7.18484e-17)
(104.199 5.86412 -3.30855e-17)
(105.445 6.89432 0)
(106.883 8.34718 0)
(108.537 10.1623 -2.86417e-17)
(110.471 12.133 0)