/*--------------------------------*- C++ -*----------------------------------*\
| =========                 |                                                 |
| \\      /  F ield         | OpenFOAM: The Open Source CFD Toolbox           |
|  \\    /   O peration     | Version:  2412                                  |
|   \\  /    A nd           | Website:  www.openfoam.com                      |
|    \\/     M anipulation  |                                                 |
\*---------------------------------------------------------------------------*/
FoamFile
{
    version     2.0;
    format      ascii;
    arch        "LSB;label=32;scalar=64";
    class       volScalarField;
    location    "0.9";
    object      epsilon;
}
// * * * * * * * * * * * * * * * * * * * * * * * * * * * * * * * * * * * * * //

dimensions      [0 2 -3 0 0 0 0];

internalField   nonuniform List<scalar> 
13068
(
380.781
385.805
394.111
410.106
442.756
506.075
615.406
778.196
987.707
1225.43
1470.05
1703.27
1907.03
2061.4
2148.02
2163.03
2121.9
2056.73
1997.65
1964.29
1960.32
1984.85
2031.73
2099.89
2184.24
2287.86
2406.39
2547.44
2705.47
2893.79
3103.37
3356.31
3636.91
3982.3
4364.68
4847.96
5382.51
6082.47
6861.2
7934.52
9156.93
10950.3
13044.6
16212.1
19796.8
24993.3
30157.6
36926
42767.8
49579.7
55300
52079.1
50898.8
35177.6
27027.4
23370
22067.5
21006.1
20862
19714.7
18400.6
16290.3
14379.6
12408.8
10851.5
9422.89
8307.14
7316.85
6552.36
5903.87
5417.91
5018
4718.21
4464.82
4260.51
4072.61
3901.99
3731.43
3561.43
3385.85
3206.21
3024.85
2843.51
2669.4
2501.94
2350.1
2208.66
2086.91
1974.06
1880.68
1790.84
1718.62
1643.39
1584.58
1516.91
1465.34
1401.09
1353.68
1290.47
380.703
385.633
393.817
409.614
441.915
504.69
613.348
775.561
984.875
1222.95
1468.43
1702.71
1907.32
2062.12
2148.84
2164
2123.33
2058.89
2000.52
1967.63
1963.83
1988.35
2035.11
2103.12
2187.35
2290.89
2409.4
2550.48
2708.6
2897.06
3106.82
3360.01
3640.9
3986.68
4369.51
4853.39
5388.67
6089.66
6869.68
7944.74
9169.22
10965
13061.6
16230.9
19816.6
25012.3
30176.6
36941.5
42781.2
49562
55234.9
51935.6
50589
34827.4
26682.5
23057.5
21809.8
20816.2
20732.5
19631.7
18350.8
16263.5
14367.7
12405.4
10852.6
9426.01
8311.37
7321.69
6557.54
5909.03
5422.79
5022.35
4721.94
4467.9
4262.96
4074.52
3903.46
3732.56
3562.35
3386.67
3207.03
3025.75
2844.54
2670.57
2503.24
2351.49
2210.07
2088.28
1975.32
1881.76
1791.7
1719.21
1643.68
1584.51
1516.49
1464.44
1399.75
1351.72
1288.04
380.626
385.463
393.527
409.128
441.084
503.316
611.302
772.935
982.048
1220.48
1466.81
1702.14
1907.61
2062.83
2149.66
2164.98
2124.79
2061.07
2003.41
1970.98
1967.36
1991.85
2038.48
2106.36
2190.46
2293.93
2412.41
2553.53
2711.73
2900.33
3110.28
3363.72
3644.9
3991.06
4374.33
4858.82
5394.83
6096.85
6878.16
7954.97
9181.51
10979.7
13078.6
16249.7
19836.4
25031.4
30195.7
36957.1
42794.9
49544.7
55170.6
51793.9
50284.1
34485.4
26347.6
22754.8
21560.1
20631.8
20606.3
19550.4
18301.8
16237
14355.9
12402.1
10853.6
9429.11
8315.58
7326.52
6562.71
5914.19
5427.67
5026.71
4725.69
4470.98
4265.44
4076.44
3904.94
3733.72
3563.3
3387.51
3207.88
3026.68
2845.59
2671.76
2504.56
2352.89
2211.49
2089.65
1976.58
1882.85
1792.57
1719.81
1643.99
1584.45
1516.08
1463.56
1398.43
1349.79
1285.65
380.55
385.296
393.241
408.649
440.262
501.955
609.269
770.322
979.231
1218.02
1465.2
1701.58
1907.9
2063.54
2150.49
2165.98
2126.26
2063.28
2006.31
1974.33
1970.89
1995.35
2041.86
2109.59
2193.57
2296.96
2415.42
2556.57
2714.85
2903.59
3113.72
3367.41
3648.88
3995.42
4379.14
4864.23
5400.98
6104.01
6886.6
7965.15
9193.74
10994.3
13095.6
16268.4
19856.1
25050.4
30214.7
36972.7
42808.4
49527.4
55106.5
51653.6
49983.8
34150.9
26022
22461.3
21317.8
20452.4
20482.9
19470.5
18253.4
16210.8
14344
12398.7
10854.5
9432.12
8319.71
7331.28
6567.83
5919.31
5432.52
5031.05
4729.41
4474.06
4267.9
4078.36
3906.42
3734.87
3564.24
3388.36
3208.73
3027.61
2846.64
2672.95
2505.87
2354.28
2212.9
2091.02
1977.84
1883.94
1793.44
1720.41
1644.3
1584.4
1515.68
1462.69
1397.13
1347.89
1283.28
380.475
385.131
392.959
408.176
439.45
500.607
607.252
767.723
976.426
1215.57
1463.6
1701.02
1908.17
2064.23
2151.3
2166.97
2127.74
2065.49
2009.21
1977.69
1974.41
1998.84
2045.22
2112.8
2196.66
2299.98
2418.41
2559.6
2717.95
2906.83
3117.14
3371.08
3652.84
3999.76
4383.92
4869.61
5407.08
6111.13
6894.99
7975.27
9205.89
11008.9
13112.4
16287
19875.7
25069.3
30233.7
36988.1
42821.6
49510
55042.6
51514.5
49687.7
33823.7
25705.2
22176.4
21082.4
20277.8
20362.2
19392
18205.5
16184.6
14332.1
12395.1
10855.3
9434.98
8323.72
7335.93
6572.86
5924.37
5437.32
5035.35
4733.11
4477.1
4270.34
4080.26
3907.89
3736.01
3565.18
3389.2
3209.57
3028.52
2847.68
2674.13
2507.16
2355.66
2214.3
2092.38
1979.09
1885.02
1794.3
1721
1644.61
1584.35
1515.28
1461.83
1395.84
1346
1280.94
380.401
384.968
392.681
407.71
438.649
499.272
605.251
765.141
973.635
1213.12
1462
1700.46
1908.45
2064.92
2152.11
2167.97
2129.24
2067.71
2012.12
1981.03
1977.92
2002.32
2048.57
2116.01
2199.74
2302.99
2421.39
2562.61
2721.04
2910.06
3120.54
3374.73
3656.77
4004.07
4388.67
4874.95
5413.14
6118.2
6903.32
7985.32
9217.95
11023.3
13129
16305.4
19895.1
25088
30252.4
37003.3
42834.6
49492.5
54978.8
51376.6
49395.7
33503.4
25397
21899.9
20853.7
20107.5
20244.1
19314.7
18158.1
16158.5
14320.1
12391.3
10855.9
9437.7
8327.59
7340.48
6577.81
5929.35
5442.06
5039.61
4736.77
4480.11
4272.75
4082.14
3909.33
3737.13
3566.1
3390.03
3210.4
3029.43
2848.71
2675.3
2508.45
2357.03
2215.69
2093.73
1980.32
1886.09
1795.15
1721.59
1644.91
1584.3
1514.88
1460.98
1394.56
1344.14
1278.63
380.328
384.808
392.408
407.251
437.857
497.952
603.266
762.574
970.859
1210.69
1460.41
1699.9
1908.71
2065.59
2152.91
2168.97
2130.74
2069.94
2015.03
1984.38
1981.41
2005.78
2051.9
2119.2
2202.8
2305.98
2424.35
2565.6
2724.11
2913.27
3123.92
3378.35
3660.68
4008.36
4393.38
4880.25
5419.16
6125.22
6911.59
7995.29
9229.93
11037.6
13145.6
16323.7
19914.3
25106.5
30271
37018.4
42847.3
49474.7
54915.1
51239.8
49107.7
33189.8
25096.8
21631.3
20631.3
19941.5
20128.2
19238.5
18111
16132.4
14307.9
12387.4
10856.3
9440.25
8331.33
7344.91
6582.66
5934.25
5446.73
5043.81
4740.38
4483.09
4275.13
4083.99
3910.76
3738.24
3567.01
3390.85
3211.22
3030.33
2849.72
2676.45
2509.71
2358.38
2217.06
2095.06
1981.54
1887.15
1796
1722.17
1645.2
1584.25
1514.49
1460.13
1393.29
1342.29
1276.34
380.256
384.65
392.138
406.797
437.075
496.645
601.297
760.024
968.096
1208.27
1458.84
1699.35
1908.98
2066.26
2153.7
2169.96
2132.24
2072.17
2017.93
1987.71
1984.9
2009.23
2055.22
2122.37
2205.85
2308.95
2427.29
2568.58
2727.16
2916.45
3127.28
3381.95
3664.56
4012.6
4398.06
4885.52
5425.14
6132.19
6919.8
8005.19
9241.8
11051.8
13162
16341.8
19933.4
25124.9
30289.4
37033.2
42859.6
49456.8
54851.4
51104
48823.5
32882.6
24804.5
21370.3
20414.9
19779.4
20014.5
19163.3
18064.3
16106.3
14295.5
12383.2
10856.6
9442.64
8334.92
7349.23
6587.4
5939.07
5451.34
5047.95
4743.95
4486.03
4277.47
4085.81
3912.16
3739.33
3567.9
3391.65
3212.03
3031.21
2850.72
2677.58
2510.96
2359.71
2218.41
2096.37
1982.75
1888.19
1796.83
1722.74
1645.5
1584.19
1514.09
1459.29
1392.03
1340.47
1274.08
380.185
384.494
391.872
406.351
436.303
495.352
599.344
757.49
965.349
1205.87
1457.27
1698.8
1909.24
2066.91
2154.49
2170.97
2133.76
2074.41
2020.84
1991.04
1988.38
2012.67
2058.53
2125.53
2208.89
2311.9
2430.22
2571.53
2730.19
2919.61
3130.62
3385.52
3668.41
4016.82
4402.71
4890.74
5431.07
6139.11
6927.95
8015.01
9253.59
11065.9
13178.2
16359.8
19952.3
25143.1
30307.5
37047.8
42871.6
49438.6
54787.8
50969.3
48543.2
32581.6
24519.7
21116.6
20204.1
19621
19902.8
19089
18017.8
16080.1
14283.1
12378.9
10856.6
9444.87
8338.38
7353.42
6592.05
5943.8
5455.88
5052.05
4747.47
4488.93
4279.79
4087.61
3913.54
3740.4
3568.77
3392.44
3212.82
3032.07
2851.7
2678.7
2512.2
2361.03
2219.75
2097.67
1983.94
1889.22
1797.65
1723.3
1645.78
1584.13
1513.7
1458.45
1390.78
1338.65
1271.84
380.116
384.341
391.61
405.91
435.54
494.072
597.408
754.972
962.616
1203.48
1455.71
1698.25
1909.49
2067.56
2155.27
2171.97
2135.28
2076.65
2023.75
1994.36
1991.84
2016.09
2061.81
2128.67
2211.9
2314.84
2433.12
2574.47
2733.2
2922.75
3133.93
3389.07
3672.23
4021.01
4407.32
4895.92
5436.95
6145.97
6936.03
8024.75
9265.27
11079.9
13194.4
16377.5
19971.1
25161.1
30325.5
37062.1
42883.3
49420.3
54724.2
50835.7
48266.7
32286.6
24242
20869.8
19998.8
19466.2
19793.1
19015.6
17971.6
16053.9
14270.4
12374.4
10856.5
9446.93
8341.69
7357.49
6596.59
5948.46
5460.36
5056.09
4750.95
4491.8
4282.07
4089.38
3914.9
3741.45
3569.63
3393.21
3213.59
3032.92
2852.66
2679.8
2513.41
2362.33
2221.07
2098.95
1985.12
1890.24
1798.47
1723.86
1646.06
1584.07
1513.3
1457.62
1389.54
1336.86
1269.62
380.047
384.19
391.352
405.476
434.787
492.806
595.488
752.471
959.898
1201.1
1454.16
1697.71
1909.74
2068.2
2156.05
2172.98
2136.81
2078.9
2026.65
1997.67
1995.29
2019.5
2065.09
2131.8
2214.9
2317.76
2436.01
2577.39
2736.18
2925.87
3137.21
3392.59
3676.02
4025.16
4411.89
4901.07
5442.78
6152.77
6944.05
8034.41
9276.86
11093.7
13210.4
16395.2
19989.6
25179
30343.3
37076.2
42894.7
49401.8
54660.8
50703.2
47993.8
31997.3
23971.3
20629.6
19798.6
19314.7
19685.2
18943.1
17925.7
16027.7
14257.6
12369.7
10856.2
9448.83
8344.86
7361.44
6601.04
5953.03
5464.77
5060.07
4754.38
4494.62
4284.32
4091.12
3916.23
3742.48
3570.47
3393.96
3214.35
3033.76
2853.61
2680.88
2514.61
2363.61
2222.37
2100.22
1986.28
1891.25
1799.27
1724.41
1646.34
1584.01
1512.91
1456.79
1388.31
1335.08
1267.42
379.979
384.041
391.098
405.047
434.044
491.554
593.584
749.987
957.196
1198.73
1452.62
1697.17
1909.99
2068.84
2156.83
2173.99
2138.34
2081.15
2029.55
2000.97
1998.73
2022.89
2068.35
2134.91
2217.88
2320.67
2438.89
2580.28
2739.15
2928.97
3140.47
3396.08
3679.78
4029.28
4416.42
4906.17
5448.57
6159.52
6952
8043.99
9288.35
11107.4
13226.2
16412.7
20008
25196.6
30360.9
37090.1
42905.7
49383.1
54597.4
50571.7
47724.5
31713.8
23707.2
20395.8
19603.4
19166.4
19578.9
18871.2
17880
16001.4
14244.6
12364.8
10855.7
9450.57
8347.89
7365.27
6605.38
5957.52
5469.1
5063.99
4757.77
4497.4
4286.54
4092.83
3917.53
3743.49
3571.29
3394.7
3215.09
3034.57
2854.55
2681.95
2515.79
2364.87
2223.65
2101.47
1987.43
1892.24
1800.06
1724.94
1646.61
1583.94
1512.51
1455.97
1387.08
1333.32
1265.25
379.912
383.895
390.847
404.625
433.31
490.314
591.696
747.519
954.509
1196.38
1451.09
1696.64
1910.24
2069.47
2157.6
2175
2139.89
2083.41
2032.45
2004.27
2002.15
2026.26
2071.59
2138
2220.85
2323.56
2441.74
2583.16
2742.1
2932.04
3143.71
3399.55
3683.51
4033.37
4420.92
4911.22
5454.31
6166.21
6959.88
8053.49
9299.74
11121
13241.9
16430
20026.2
25214.1
30378.3
37103.8
42916.5
49364.2
54534.2
50441.4
47458.8
31435.6
23449.5
20168.1
19412.8
19021
19474.3
18800.1
17834.4
15975.1
14231.4
12359.7
10855
9452.15
8350.77
7368.98
6609.62
5961.92
5473.37
5067.86
4761.1
4500.15
4288.72
4094.51
3918.82
3744.48
3572.09
3395.42
3215.82
3035.38
2855.46
2682.99
2516.95
2366.11
2224.91
2102.7
1988.56
1893.22
1800.84
1725.47
1646.87
1583.87
1512.12
1455.15
1385.87
1331.57
1263.1
379.847
383.75
390.6
404.209
432.586
489.089
589.825
745.068
951.837
1194.04
1449.57
1696.11
1910.48
2070.09
2158.37
2176.02
2141.44
2085.67
2035.35
2007.55
2005.56
2029.63
2074.81
2141.07
2223.8
2326.42
2444.57
2586.02
2745.02
2935.09
3146.92
3402.99
3687.22
4037.42
4425.38
4916.24
5460
6172.85
6967.7
8062.91
9311.03
11134.5
13257.4
16447.1
20044.2
25231.4
30395.4
37117.2
42926.9
49345.2
54471.1
50312.1
47196.7
31162.7
23197.9
19946.1
19226.6
18878.5
19371.1
18729.6
17789
15948.7
14218.1
12354.4
10854.2
9453.56
8353.52
7372.58
6613.76
5966.24
5477.57
5071.67
4764.39
4502.85
4290.87
4096.16
3920.08
3745.44
3572.88
3396.12
3216.53
3036.16
2856.36
2684.02
2518.09
2367.33
2226.16
2103.91
1989.68
1894.18
1801.61
1726
1647.13
1583.8
1511.72
1454.33
1384.66
1329.84
1260.97
379.782
383.608
390.357
403.798
431.871
487.876
587.969
742.634
949.181
1191.71
1448.07
1695.59
1910.73
2070.71
2159.14
2177.05
2143
2087.94
2038.24
2010.83
2008.96
2032.97
2078.02
2144.13
2226.73
2329.28
2447.39
2588.86
2747.93
2938.12
3150.11
3406.4
3690.89
4041.44
4429.8
4921.21
5465.64
6179.43
6975.44
8072.24
9322.21
11147.9
13272.8
16464.1
20062.1
25248.5
30412.4
37130.5
42937
49326
54408.1
50183.9
46938
30894.9
22952.2
19729.7
19044.6
18738.6
19269.4
18659.8
17743.8
15922.2
14204.6
12349
10853.1
9454.83
8356.13
7376.05
6617.8
5970.47
5481.7
5075.43
4767.63
4505.51
4292.98
4097.79
3921.31
3746.39
3573.64
3396.81
3217.22
3036.93
2857.24
2685.03
2519.21
2368.54
2227.39
2105.11
1990.78
1895.13
1802.36
1726.51
1647.38
1583.72
1511.33
1453.52
1383.46
1328.13
1258.86
379.718
383.468
390.117
403.394
431.165
486.677
586.13
740.217
946.541
1189.4
1446.57
1695.08
1910.97
2071.33
2159.91
2178.08
2144.57
2090.21
2041.13
2014.09
2012.34
2036.3
2081.21
2147.18
2229.64
2332.11
2450.19
2591.68
2750.81
2941.13
3153.27
3409.78
3694.53
4045.42
4434.18
4926.13
5471.23
6185.95
6983.12
8081.5
9333.3
11161.1
13288.1
16480.9
20079.7
25265.4
30429.2
37143.4
42946.8
49306.7
54345.2
50056.8
46682.7
30632.1
22712.2
19518.7
18866.6
18601.2
19168.9
18590.4
17698.7
15895.7
14191
12343.3
10851.9
9455.93
8358.61
7379.41
6621.73
5974.62
5485.76
5079.12
4770.83
4508.14
4295.06
4099.38
3922.52
3747.31
3574.39
3397.48
3217.9
3037.68
2858.1
2686.02
2520.32
2369.72
2228.6
2106.29
1991.86
1896.07
1803.11
1727.01
1647.62
1583.64
1510.94
1452.71
1382.28
1326.43
1256.78
379.655
383.33
389.881
402.995
430.468
485.49
584.307
737.817
943.917
1187.1
1445.09
1694.57
1911.21
2071.94
2160.69
2179.12
2146.14
2092.49
2044.02
2017.35
2015.71
2039.61
2084.38
2150.2
2232.54
2334.92
2452.97
2594.48
2753.67
2944.11
3156.41
3413.14
3698.14
4049.37
4438.53
4931.02
5476.76
6192.41
6990.73
8090.66
9344.28
11174.2
13303.2
16497.5
20097.2
25282.2
30445.7
37156.2
42956.3
49287.2
54282.6
49930.7
46430.8
30374.1
22477.7
19312.7
18692.4
18466.2
19069.7
18521.7
17653.7
15869
14177.2
12337.5
10850.5
9456.89
8360.95
7382.65
6625.57
5978.68
5489.74
5082.76
4773.97
4510.72
4297.1
4100.95
3923.7
3748.21
3575.12
3398.14
3218.56
3038.41
2858.95
2687
2521.4
2370.89
2229.79
2107.45
1992.93
1897
1803.84
1727.51
1647.86
1583.56
1510.54
1451.91
1381.1
1324.74
1254.71
379.593
383.193
389.649
402.602
429.78
484.317
582.501
735.434
941.31
1184.82
1443.61
1694.06
1911.46
2072.55
2161.46
2180.16
2147.73
2094.77
2046.9
2020.59
2019.06
2042.91
2087.54
2153.2
2235.41
2337.72
2455.72
2597.26
2756.51
2947.06
3159.52
3416.47
3701.72
4053.29
4442.83
4935.85
5482.25
6198.81
6998.27
8099.75
9355.16
11187.2
13318.1
16514
20114.5
25298.7
30462.1
37168.7
42965.5
49267.5
54220
49805.8
46182.3
30120.8
22248.4
19111.5
18521.8
18333.5
18971.7
18453.4
17608.8
15842.3
14163.2
12331.5
10849
9457.7
8363.17
7385.77
6629.31
5982.67
5493.66
5086.34
4777.06
4513.26
4299.11
4102.48
3924.86
3749.1
3575.83
3398.77
3219.21
3039.13
2859.77
2687.95
2522.47
2372.03
2230.96
2108.59
1993.99
1897.91
1804.57
1728
1648.09
1583.48
1510.15
1451.11
1379.92
1323.07
1252.66
379.532
383.059
389.42
402.215
429.102
483.157
580.71
733.068
938.718
1182.55
1442.15
1693.57
1911.7
2073.16
2162.23
2181.21
2149.32
2097.05
2049.78
2023.82
2022.4
2046.19
2090.68
2156.19
2238.27
2340.49
2458.46
2600.02
2759.33
2950
3162.6
3419.76
3705.26
4057.17
4447.09
4940.65
5487.69
6205.16
7005.74
8108.74
9365.93
11200
13332.9
16530.3
20131.6
25315
30478.2
37181
42974.4
49247.8
54157.7
49682
45937
29872.1
22024.2
18915
18354.7
18202.8
18874.8
18385.5
17564.1
15815.5
14149.1
12325.3
10847.3
9458.36
8365.25
7388.79
6632.95
5986.57
5497.51
5089.86
4780.11
4515.75
4301.08
4103.99
3925.99
3749.96
3576.52
3399.39
3219.83
3039.83
2860.58
2688.89
2523.51
2373.16
2232.12
2109.72
1995.03
1898.81
1805.28
1728.48
1648.32
1583.39
1509.75
1450.32
1378.76
1321.42
1250.64
379.471
382.927
389.194
401.833
428.432
482.01
578.936
730.719
936.143
1180.3
1440.7
1693.07
1911.94
2073.76
2163
2182.27
2150.92
2099.33
2052.66
2027.05
2025.72
2049.45
2093.8
2159.16
2241.11
2343.25
2461.18
2602.75
2762.12
2952.91
3165.66
3423.03
3708.78
4061.01
4451.32
4945.4
5493.08
6211.44
7013.14
8117.65
9376.6
11212.7
13347.6
16546.4
20148.5
25331.2
30494.1
37193.1
42983.1
49227.9
54095.6
49559.3
45695.1
29627.8
21804.9
18722.9
18190.8
18074.2
18778.9
18318.2
17519.4
15788.7
14134.9
12319
10845.4
9458.88
8367.21
7391.69
6636.5
5990.38
5501.29
5093.32
4783.11
4518.21
4303.02
4105.47
3927.1
3750.8
3577.2
3399.99
3220.44
3040.51
2861.37
2689.8
2524.54
2374.27
2233.25
2110.83
1996.05
1899.69
1805.98
1728.94
1648.54
1583.3
1509.36
1449.53
1377.6
1319.78
1248.63
379.412
382.797
388.972
401.457
427.771
480.875
577.177
728.388
933.585
1178.06
1439.27
1692.59
1912.18
2074.36
2163.78
2183.33
2152.53
2101.62
2055.53
2030.26
2029.03
2052.69
2096.9
2162.11
2243.93
2345.99
2463.88
2605.47
2764.9
2955.79
3168.69
3426.27
3712.26
4064.82
4455.5
4950.1
5498.41
6217.66
7020.47
8126.48
9387.16
11225.3
13362.1
16562.3
20165.2
25347.2
30509.8
37204.9
42991.4
49207.9
54033.7
49437.7
45456.3
29387.8
21590.3
18535
18030
17947.5
18684
18251.2
17474.8
15761.8
14120.5
12312.6
10843.4
9459.26
8369.04
7394.48
6639.95
5994.12
5505.01
5096.73
4786.06
4520.63
4304.92
4106.91
3928.19
3751.61
3577.85
3400.57
3221.03
3041.18
2862.14
2690.7
2525.55
2375.36
2234.37
2111.93
1997.06
1900.56
1806.67
1729.41
1648.76
1583.2
1508.96
1448.74
1376.45
1318.15
1246.64
379.354
382.669
388.753
401.086
427.119
479.753
575.435
726.074
931.044
1175.84
1437.84
1692.11
1912.43
2074.97
2164.56
2184.4
2154.14
2103.91
2058.39
2033.45
2032.32
2055.91
2099.98
2165.04
2246.73
2348.71
2466.56
2608.16
2767.65
2958.65
3171.7
3429.48
3715.71
4068.59
4459.65
4954.75
5503.69
6223.83
7027.72
8135.21
9397.61
11237.8
13376.4
16578.1
20181.7
25362.9
30525.3
37216.5
42999.4
49187.8
53972
49317.2
45220.8
29152
21380.2
18351.2
17872.2
17822.7
18590
18184.6
17430.4
15734.8
14106
12305.9
10841.3
9459.51
8370.75
7397.17
6643.31
5997.78
5508.65
5100.08
4788.96
4523
4306.79
4108.33
3929.25
3752.41
3578.49
3401.14
3221.61
3041.82
2862.9
2691.58
2526.54
2376.43
2235.47
2113
1998.05
1901.42
1807.35
1729.86
1648.97
1583.1
1508.57
1447.96
1375.31
1316.54
1244.68
379.296
382.543
388.537
400.721
426.475
478.645
573.709
723.778
928.52
1173.63
1436.43
1691.64
1912.67
2075.57
2165.34
2185.48
2155.77
2106.21
2061.25
2036.64
2035.59
2059.12
2103.04
2167.96
2249.51
2351.41
2469.22
2610.83
2770.37
2961.48
3174.68
3432.66
3719.13
4072.32
4463.75
4959.37
5508.92
6229.93
7034.91
8143.86
9407.96
11250.1
13390.6
16593.7
20198.1
25378.5
30540.6
37227.9
43007.2
49167.6
53910.5
49197.8
44988.5
28920.4
21174.5
18171.3
17717.2
17699.5
18497
18118.5
17386
15707.8
14091.4
12299.2
10839
9459.63
8372.35
7399.76
6646.58
6001.36
5512.23
5103.37
4791.81
4525.34
4308.63
4109.72
3930.28
3753.19
3579.1
3401.69
3222.17
3042.45
2863.63
2692.44
2527.5
2377.48
2236.55
2114.06
1999.03
1902.26
1808.02
1730.3
1649.17
1583
1508.17
1447.18
1374.18
1314.94
1242.73
379.239
382.419
388.324
400.361
425.84
477.548
571.999
721.5
926.013
1171.44
1435.03
1691.18
1912.92
2076.17
2166.12
2186.57
2157.4
2108.5
2064.1
2039.81
2038.85
2062.31
2106.09
2170.85
2252.28
2354.08
2471.85
2613.48
2773.07
2964.29
3177.63
3435.81
3722.51
4076.02
4467.81
4963.93
5514.1
6235.97
7042.02
8152.42
9418.2
11262.3
13404.6
16609.1
20214.2
25393.9
30555.7
37239.1
43014.7
49147.3
53849.3
49079.6
44759.3
28692.8
20973
17995.1
17564.8
17578
18404.8
18052.7
17341.7
15680.7
14076.6
12292.3
10836.6
9459.63
8373.83
7402.24
6649.75
6004.85
5515.74
5106.61
4794.62
4527.64
4310.43
4111.08
3931.29
3753.94
3579.7
3402.22
3222.71
3043.06
2864.35
2693.28
2528.45
2378.51
2237.61
2115.1
1999.99
1903.09
1808.68
1730.74
1649.36
1582.9
1507.77
1446.4
1373.05
1313.36
1240.8
379.183
382.296
388.115
400.006
425.214
476.465
570.306
719.239
923.523
1169.26
1433.65
1690.72
1913.17
2076.77
2166.91
2187.66
2159.04
2110.8
2066.95
2042.97
2042.09
2065.48
2109.11
2173.72
2255.02
2356.74
2474.47
2616.11
2775.75
2967.08
3180.55
3438.93
3725.86
4079.68
4471.83
4968.45
5519.22
6241.94
7049.05
8160.89
9428.33
11274.4
13418.5
16624.3
20230.2
25409.1
30570.6
37250.1
43021.9
49127
53788.4
48962.5
44533.2
28469.1
20775.6
17822.5
17415
17458
18313.5
17987.3
17297.6
15653.6
14061.8
12285.2
10834
9459.5
8375.2
7404.62
6652.84
6008.28
5519.18
5109.79
4797.38
4529.89
4312.2
4112.42
3932.28
3754.68
3580.28
3402.73
3223.23
3043.66
2865.05
2694.1
2529.38
2379.52
2238.65
2116.12
2000.94
1903.91
1809.32
1731.16
1649.55
1582.79
1507.38
1445.63
1371.94
1311.79
1238.89
379.128
382.176
387.909
399.656
424.596
475.394
568.628
716.996
921.051
1167.1
1432.27
1690.28
1913.42
2077.37
2167.7
2188.76
2160.68
2113.09
2069.78
2046.12
2045.31
2068.63
2112.12
2176.57
2257.74
2359.38
2477.07
2618.72
2778.41
2969.84
3183.44
3442.02
3729.18
4083.3
4475.81
4972.92
5524.29
6247.86
7056.02
8169.28
9438.36
11286.3
13432.2
16639.4
20245.9
25424.1
30585.2
37260.8
43028.9
49106.6
53727.8
48846.5
44310.2
28249.3
20582.2
17653.3
17267.6
17339.5
18222.9
17922.2
17253.5
15626.4
14046.8
12278.1
10831.3
9459.26
8376.47
7406.91
6655.84
6011.62
5522.56
5112.92
4800.09
4532.11
4313.93
4113.72
3933.25
3755.39
3580.84
3403.23
3223.74
3044.24
2865.73
2694.9
2530.3
2380.51
2239.68
2117.13
2001.87
1904.71
1809.96
1731.58
1649.74
1582.68
1506.98
1444.86
1370.83
1310.23
1237
379.074
382.057
387.706
399.312
423.986
474.335
566.967
714.771
918.597
1164.96
1430.91
1689.84
1913.67
2077.98
2168.49
2189.87
2162.33
2115.39
2072.61
2049.25
2048.51
2071.76
2115.1
2179.41
2260.44
2362
2479.64
2621.3
2781.04
2972.57
3186.31
3445.08
3732.46
4086.89
4479.75
4977.34
5529.3
6253.71
7062.91
8177.57
9448.27
11298.1
13445.8
16654.3
20261.5
25438.9
30599.7
37271.3
43035.6
49086.1
53667.5
48731.8
44090.4
28033.3
20392.6
17487.3
17122.6
17222.5
18133.1
17857.5
17209.6
15599.3
14031.8
12270.8
10828.5
9458.91
8377.63
7409.1
6658.76
6014.9
5525.88
5115.99
4802.76
4534.29
4315.64
4115
3934.19
3756.08
3581.39
3403.71
3224.23
3044.8
2866.4
2695.69
2531.19
2381.49
2240.68
2118.12
2002.78
1905.5
1810.58
1731.99
1649.92
1582.57
1506.59
1444.1
1369.72
1308.69
1235.12
379.021
381.94
387.506
398.972
423.385
473.289
565.321
712.564
916.16
1162.83
1429.56
1689.4
1913.93
2078.58
2169.29
2190.99
2163.99
2117.69
2075.44
2052.36
2051.7
2074.87
2118.07
2182.22
2263.12
2364.59
2482.19
2623.86
2783.65
2975.28
3189.15
3448.11
3735.71
4090.44
4483.65
4981.71
5534.26
6259.5
7069.72
8185.77
9458.08
11309.8
13459.2
16669
20276.9
25453.5
30613.9
37281.7
43042.1
49065.6
53607.4
48618.1
43873.6
27821
20206.7
17324.5
16979.7
17106.8
18044.1
17793.2
17165.8
15572.1
14016.7
12263.4
10825.6
9458.45
8378.7
7411.2
6661.59
6018.1
5529.13
5119.01
4805.38
4536.43
4317.31
4116.25
3935.1
3756.76
3581.91
3404.18
3224.71
3045.34
2867.04
2696.45
2532.06
2382.44
2241.67
2119.09
2003.68
1906.28
1811.19
1732.39
1650.09
1582.45
1506.19
1443.34
1368.63
1307.16
1233.27
378.968
381.825
387.31
398.638
422.792
472.255
563.692
710.374
913.742
1160.72
1428.23
1688.98
1914.19
2079.19
2170.1
2192.11
2165.66
2119.98
2078.25
2055.46
2054.87
2077.96
2121.01
2185.01
2265.79
2367.17
2484.72
2626.4
2786.23
2977.96
3191.96
3451.11
3738.93
4093.95
4487.5
4986.04
5539.17
6265.23
7076.46
8193.89
9467.78
11321.3
13472.4
16683.6
20292.1
25467.9
30628
37291.8
43048.3
49045
53547.7
48505.7
43659.8
27612.3
20024.5
17164.7
16839
16992.4
17955.8
17729.2
17122.1
15545
14001.5
12256
10822.6
9457.89
8379.67
7413.22
6664.35
6021.23
5532.32
5121.97
4807.96
4538.53
4318.94
4117.48
3936
3757.41
3582.42
3404.62
3225.17
3045.86
2867.67
2697.2
2532.91
2383.38
2242.64
2120.04
2004.56
1907.04
1811.8
1732.78
1650.26
1582.33
1505.79
1442.58
1367.54
1305.64
1231.43
378.916
381.711
387.116
398.309
422.206
471.233
562.079
708.203
911.341
1158.63
1426.91
1688.56
1914.45
2079.79
2170.9
2193.24
2167.32
2122.28
2081.05
2058.55
2058.01
2081.02
2123.93
2187.78
2268.42
2369.72
2487.23
2628.91
2788.79
2980.61
3194.74
3454.08
3742.11
4097.42
4491.31
4990.32
5544.02
6270.89
7083.13
8201.91
9477.36
11332.7
13485.5
16697.9
20307.1
25482.1
30641.8
37301.7
43054.3
49024.4
53488.4
48394.4
43449.1
27407.2
19845.7
17007.9
16700.3
16879.3
17868.2
17665.6
17078.6
15517.8
13986.3
12248.4
10819.5
9457.23
8380.54
7415.15
6667.02
6024.29
5535.45
5124.89
4810.49
4540.59
4320.55
4118.68
3936.87
3758.05
3582.91
3405.05
3225.61
3046.37
2868.28
2697.93
2533.75
2384.29
2243.59
2120.98
2005.43
1907.79
1812.39
1733.17
1650.42
1582.21
1505.4
1441.83
1366.46
1304.14
1229.61
378.865
381.6
386.925
397.984
421.63
470.224
560.482
706.051
908.959
1156.55
1425.6
1688.15
1914.71
2080.4
2171.72
2194.38
2169
2124.57
2083.85
2061.62
2061.14
2084.07
2126.83
2190.53
2271.04
2372.25
2489.71
2631.41
2791.32
2983.24
3197.49
3457.01
3745.26
4100.86
4495.08
4994.55
5548.82
6276.49
7089.72
8209.84
9486.84
11344
13498.5
16712.1
20321.9
25496.1
30655.5
37311.4
43060.1
49003.9
53429.4
48284.4
43241.4
27205.7
19670.3
16853.8
16563.6
16767.4
17781.4
17602.4
17035.2
15490.7
13971
12240.8
10816.3
9456.48
8381.33
7417
6669.62
6027.28
5538.52
5127.75
4812.98
4542.62
4322.13
4119.85
3937.73
3758.67
3583.39
3405.47
3226.03
3046.87
2868.87
2698.64
2534.57
2385.19
2244.53
2121.9
2006.29
1908.52
1812.97
1733.54
1650.57
1582.09
1505
1441.08
1365.39
1302.65
1227.8
378.815
381.49
386.737
397.665
421.061
469.227
558.901
703.916
906.595
1154.49
1424.31
1687.75
1914.98
2081.01
2172.53
2195.53
2170.68
2126.87
2086.63
2064.67
2064.25
2087.1
2129.71
2193.26
2273.64
2374.76
2492.18
2633.87
2793.83
2985.84
3200.22
3459.91
3748.37
4104.25
4498.8
4998.74
5553.57
6282.02
7096.24
8217.68
9496.21
11355.2
13511.3
16726.1
20336.5
25510
30668.9
37320.9
43065.6
48983.3
53370.8
48175.5
43036.6
27007.5
19498.2
16702.4
16428.8
16656.7
17695.2
17539.5
16992
15463.7
13955.7
12233.1
10813
9455.65
8382.04
7418.76
6672.15
6030.2
5541.54
5130.56
4815.42
4544.61
4323.67
4121
3938.56
3759.27
3583.85
3405.87
3226.44
3047.34
2869.45
2699.33
2535.36
2386.07
2245.44
2122.81
2007.12
1909.25
1813.54
1733.91
1650.72
1581.96
1504.6
1440.34
1364.33
1301.17
1226.02
378.765
381.382
386.552
397.35
420.5
468.242
557.336
701.8
904.25
1152.45
1423.03
1687.36
1915.25
2081.62
2173.36
2196.68
2172.36
2129.16
2089.41
2067.71
2067.34
2090.1
2132.57
2195.96
2276.21
2377.25
2494.62
2636.32
2796.32
2988.42
3202.91
3462.79
3751.45
4107.61
4502.48
5002.87
5558.25
6287.5
7102.68
8225.44
9505.47
11366.2
13523.9
16739.9
20351
25523.6
30682.1
37330.2
43070.9
48962.7
53312.6
48067.9
42834.9
26812.8
19329.4
16553.6
16295.8
16547.2
17609.7
17477
16949
15436.7
13940.4
12225.4
10809.6
9454.74
8382.67
7420.46
6674.61
6033.06
5544.49
5133.32
4817.83
4546.57
4325.19
4122.12
3939.37
3759.85
3584.29
3406.25
3226.84
3047.8
2870.01
2700
2536.14
2386.93
2246.34
2123.69
2007.95
1909.96
1814.1
1734.27
1650.87
1581.83
1504.21
1439.6
1363.27
1299.71
1224.25
378.717
381.275
386.37
397.04
419.946
467.269
555.788
699.703
901.923
1150.42
1421.76
1686.97
1915.52
2082.24
2174.18
2197.84
2174.05
2131.44
2092.17
2070.73
2070.41
2093.09
2135.41
2198.65
2278.77
2379.71
2497.04
2638.74
2798.78
2990.96
3205.58
3465.63
3754.49
4110.93
4506.12
5006.96
5562.89
6292.9
7109.05
8233.1
9514.62
11377
13536.4
16753.6
20365.2
25537.1
30695.2
37339.3
43076
48942.1
53254.8
47961.4
42636.2
26621.5
19163.7
16407.3
16164.5
16438.8
17524.9
17414.9
16906.2
15409.7
13925.1
12217.5
10806.2
9453.75
8383.23
7422.08
6677
6035.86
5547.39
5136.03
4820.19
4548.49
4326.68
4123.22
3940.16
3760.41
3584.72
3406.62
3227.22
3048.25
2870.55
2700.66
2536.91
2387.78
2247.22
2124.56
2008.76
1910.66
1814.64
1734.62
1651
1581.7
1503.81
1438.86
1362.22
1298.26
1222.5
378.669
381.17
386.191
396.735
419.401
466.308
554.255
697.624
899.616
1148.41
1420.51
1686.6
1915.8
2082.85
2175.01
2199.01
2175.75
2133.73
2094.92
2073.73
2073.45
2096.05
2138.22
2201.31
2281.3
2382.16
2499.43
2641.14
2801.21
2993.48
3208.22
3468.43
3757.5
4114.21
4509.72
5010.99
5567.47
6298.25
7115.34
8240.67
9523.66
11387.8
13548.7
16767.1
20379.3
25550.3
30708
37348.2
43080.9
48921.6
53197.4
47856.2
42440.4
26433.4
19001
16263.5
16034.9
16331.5
17440.8
17353.2
16863.6
15382.9
13909.7
12209.7
10802.7
9452.69
8383.71
7423.63
6679.32
6038.6
5550.23
5138.7
4822.51
4550.38
4328.14
4124.3
3940.93
3760.96
3585.13
3406.97
3227.58
3048.68
2871.08
2701.3
2537.65
2388.6
2248.08
2125.42
2009.55
1911.34
1815.18
1734.97
1651.14
1581.56
1503.42
1438.13
1361.18
1296.82
1220.77
378.621
381.067
386.015
396.434
418.863
465.359
552.739
695.563
897.327
1146.42
1419.27
1686.23
1916.08
2083.47
2175.85
2200.18
2177.44
2136.01
2097.66
2076.72
2076.48
2098.99
2141.01
2203.95
2283.81
2384.58
2501.8
2643.51
2803.62
2995.98
3210.82
3471.21
3760.47
4117.45
4513.27
5014.98
5571.99
6303.53
7121.55
8248.14
9532.59
11398.4
13560.8
16780.4
20393.1
25563.4
30720.7
37357
43085.6
48901.1
53140.4
47752.2
42247.5
26248.7
18841.4
16122
15907
16225.2
17357.4
17291.9
16821.2
15356.1
13894.4
12201.8
10799.1
9451.58
8384.13
7425.12
6681.58
6041.28
5553.02
5141.32
4824.79
4552.23
4329.57
4125.35
3941.68
3761.49
3585.53
3407.31
3227.93
3049.09
2871.59
2701.92
2538.38
2389.41
2248.93
2126.26
2010.33
1912.02
1815.71
1735.3
1651.27
1581.43
1503.02
1437.4
1360.14
1295.4
1219.05
378.575
380.965
385.841
396.138
418.333
464.422
551.238
693.522
895.058
1144.45
1418.04
1685.87
1916.36
2084.09
2176.69
2201.36
2179.14
2138.28
2100.39
2079.68
2079.48
2101.9
2143.78
2206.57
2286.29
2386.97
2504.15
2645.86
2806
2998.44
3213.4
3473.95
3763.41
4120.65
4516.78
5018.92
5576.46
6308.74
7127.69
8255.53
9541.4
11408.9
13572.9
16793.5
20406.8
25576.3
30733.2
37365.5
43090.2
48880.6
53083.9
47649.5
42057.6
26067.1
18684.6
15982.8
15780.6
16120.1
17274.7
17231.1
16779.1
15329.5
13879.2
12193.9
10795.5
9450.4
8384.48
7426.54
6683.77
6043.9
5555.76
5143.89
4827.03
4554.05
4330.98
4126.38
3942.41
3762.01
3585.91
3407.64
3228.27
3049.49
2872.08
2702.53
2539.09
2390.2
2249.76
2127.08
2011.1
1912.68
1816.23
1735.63
1651.39
1581.29
1502.63
1436.68
1359.12
1293.98
1217.35
378.529
380.865
385.67
395.846
417.811
463.496
549.754
691.499
892.808
1142.49
1416.83
1685.52
1916.65
2084.72
2177.54
2202.54
2180.84
2140.55
2103.11
2082.63
2082.47
2104.8
2146.53
2209.16
2288.76
2389.35
2506.48
2648.18
2808.36
3000.88
3215.95
3476.66
3766.31
4123.81
4520.25
5022.81
5580.87
6313.9
7133.76