/*--------------------------------*- C++ -*----------------------------------*\
| =========                 |                                                 |
| \\      /  F ield         | OpenFOAM: The Open Source CFD Toolbox           |
|  \\    /   O peration     | Version:  2412                                  |
|   \\  /    A nd           | Website:  www.openfoam.com                      |
|    \\/     M anipulation  |                                                 |
\*---------------------------------------------------------------------------*/
FoamFile
{
    version     2.0;
    format      ascii;
    arch        "LSB;label=32;scalar=64";
    class       volScalarField;
    location    "0.9";
    object      k;
}
// * * * * * * * * * * * * * * * * * * * * * * * * * * * * * * * * * * * * * //

dimensions      [0 2 -2 0 0 0 0];

internalField   nonuniform List<scalar> 
13068
(
37.7643
38.204
38.987
40.4802
43.2252
47.7334
54.1309
61.8746
69.9391
77.3185
83.4395
88.1505
91.4306
93.2505
93.6273
92.8772
91.5944
90.5107
90.0712
90.4091
91.3525
92.7884
94.5574
96.6888
99.08
101.849
104.871
108.349
112.098
116.435
121.067
126.491
132.234
139.08
146.266
155.04
164.17
175.688
187.636
203.417
219.944
242.802
266.723
300.013
332.783
376.015
412.77
458.33
493.342
532.985
561.832
527.733
511.64
381.633
306.735
279.447
286.665
294.833
304.53
297.216
286.392
266.278
248.537
228.899
213.328
197.818
185.559
173.904
164.857
156.702
150.551
145.144
140.987
137.164
133.904
130.636
127.491
124.171
120.764
117.187
113.517
109.821
106.133
102.609
99.1986
96.1056
93.1551
90.5955
88.1096
86.0257
83.878
82.134
80.1655
78.6288
76.717
75.2834
73.371
72.0012
70.0234
37.759
38.1916
38.965
40.443
43.1656
47.6473
54.0242
61.7652
69.8512
77.2733
83.4473
88.2074
91.5209
93.3549
93.7322
92.9789
91.6956
90.6134
90.1733
90.507
91.4438
92.8729
94.6359
96.7628
99.1509
101.918
104.94
108.418
112.168
116.507
121.141
126.568
132.315
139.165
146.357
155.139
164.277
175.807
187.769
203.566
220.11
242.983
266.913
300.2
332.963
376.174
412.924
458.447
493.429
532.838
561.385
526.746
509.59
379.21
304.497
277.649
285.375
293.954
303.954
296.851
286.183
266.179
248.514
228.919
213.372
197.874
185.626
173.977
164.933
156.777
150.621
145.206
141.039
137.207
133.937
130.663
127.512
124.188
120.78
117.204
113.535
109.842
106.157
102.637
99.2284
96.1363
93.1852
90.6234
88.1337
86.0445
83.8903
82.138
80.1606
78.6123
76.6885
75.2384
73.3096
71.9172
69.9219
37.7537
38.1794
38.9432
40.4063
43.1065
47.5616
53.9179
61.6559
69.7632
77.2279
83.455
88.2641
91.6109
93.4589
93.8367
93.0805
91.7969
90.7162
90.2755
90.6049
91.5351
92.9573
94.7144
96.8369
99.2218
101.987
105.008
108.487
112.238
116.578
121.215
126.645
132.396
139.251
146.448
155.237
164.385
175.926
187.902
203.715
220.276
243.163
267.103
300.387
333.143
376.333
413.079
458.564
493.516
532.692
560.941
525.768
507.562
376.823
302.299
275.884
284.107
293.086
303.384
296.487
285.974
266.081
248.491
228.939
213.416
197.931
185.692
174.049
165.01
156.852
150.691
145.268
141.092
137.25
133.971
130.689
127.533
124.206
120.797
117.222
113.554
109.864
106.182
102.665
99.2584
96.1672
93.2154
90.6515
88.158
86.0636
83.9029
82.1424
80.156
78.5961
76.6605
75.1939
73.249
71.8343
69.8217
37.7485
38.1674
38.9217
40.3699
43.0478
47.4765
53.8119
61.5468
69.6753
77.1826
83.4626
88.3206
91.7004
93.5621
93.9405
93.1815
91.8978
90.8187
90.3774
90.7025
91.6261
93.0415
94.7927
96.9107
99.2925
102.056
105.076
108.555
112.307
116.65
121.289
126.722
132.477
139.337
146.539
155.336
164.492
176.045
188.034
203.864
220.442
243.343
267.291
300.573
333.322
376.491
413.232
458.681
493.603
532.547
560.498
524.799
505.556
374.469
300.138
274.152
282.858
292.228
302.818
296.126
285.766
265.982
248.466
228.958
213.458
197.986
185.757
174.121
165.085
156.927
150.761
145.33
141.144
137.292
134.005
130.716
127.555
124.224
120.814
117.239
113.574
109.886
106.207
102.693
99.2883
96.198
93.2455
90.6795
88.1821
86.0825
83.9154
82.1468
80.1516
78.5801
76.6327
75.1499
73.189
71.7522
69.7226
37.7434
38.1555
38.9004
40.3339
42.9897
47.392
53.7064
61.438
69.5876
77.1374
83.4702
88.3768
91.7893
93.6646
94.0435
93.2819
91.9983
90.9208
90.4789
90.7997
91.7167
93.1253
94.8706
96.9842
99.3628
102.124
105.144
108.623
112.376
116.721
121.363
126.799
132.557
139.422
146.63
155.433
164.598
176.162
188.165
204.011
220.606
243.521
267.479
300.758
333.5
376.648
413.385
458.797
493.688
532.401
560.057
523.835
503.568
372.149
298.013
272.448
281.627
291.379
302.255
295.765
285.557
265.882
248.441
228.975
213.499
198.04
185.82
174.192
165.16
157
150.83
145.391
141.196
137.334
134.039
130.742
127.576
124.242
120.83
117.256
113.593
109.908
106.232
102.721
99.3179
96.2285
93.2753
90.7072
88.2061
86.1013
83.9278
82.1511
80.1471
78.5642
76.6051
75.1062
73.1294
71.6708
69.6244
37.7383
38.1438
38.8794
40.2983
42.9321
47.308
53.6014
61.3296
69.5
77.0922
83.4778
88.4328
91.8776
93.7662
94.1456
93.3817
92.0982
91.0225
90.58
90.8965
91.8069
93.2087
94.9481
97.0572
99.4327
102.192
105.211
108.691
112.445
116.791
121.435
126.875
132.637
139.506
146.72
155.53
164.704
176.279
188.296
204.158
220.769
243.697
267.664
300.942
333.677
376.804
413.536
458.91
493.77
532.254
559.616
522.879
501.6
369.859
295.922
270.773
280.413
290.539
301.695
295.404
285.346
265.781
248.413
228.991
213.538
198.092
185.883
174.261
165.233
157.073
150.898
145.451
141.247
137.376
134.072
130.768
127.596
124.259
120.846
117.273
113.611
109.929
106.257
102.748
99.3472
96.2587
93.3048
90.7346
88.2298
86.1199
83.94
82.1554
80.1426
78.5483
76.5777
75.0628
73.0703
71.5902
69.5272
37.7333
38.1322
38.8587
40.2632
42.8751
47.2246
53.4969
61.2214
69.4126
77.0471
83.4853
88.4884
91.9653
93.867
94.247
93.4808
92.1977
91.1238
90.6806
90.9928
91.8966
93.2916
95.0252
97.1299
99.5022
102.26
105.278
108.758
112.513
116.861
121.508
126.95
132.716
139.59
146.809
155.626
164.808
176.395
188.425
204.303
220.93
243.873
267.848
301.123
333.851
376.958
413.686
459.022
493.85
532.106
559.175
521.928
499.65
367.599
293.864
269.125
279.215
289.706
301.137
295.043
285.135
265.677
248.384
229.005
213.575
198.143
185.943
174.329
165.305
157.145
150.965
145.51
141.297
137.417
134.104
130.793
127.616
124.277
120.862
117.289
113.63
109.951
106.281
102.775
99.3761
96.2885
93.3339
90.7617
88.2532
86.1382
83.952
82.1595
80.1381
78.5325
76.5503
75.0197
73.0117
71.5103
69.4309
37.7284
38.1208
38.8383
40.2284
42.8186
47.1418
53.3929
61.1137
69.3254
77.0021
83.4928
88.5438
92.0524
93.967
94.3475
93.5791
92.2965
91.2245
90.7807
91.0886
91.9858
93.3741
95.1018
97.2021
99.5713
102.328
105.345
108.825
112.58
116.931
121.579
127.025
132.794
139.673
146.897
155.722
164.912
176.51
188.554
204.447
221.09
244.046
268.031
301.303
334.024
377.111
413.833
459.133
493.928
531.957
558.735
520.984
497.718
365.369
291.837
267.503
278.033
288.88
300.582
294.683
284.923
265.573
248.353
229.016
213.611
198.192
186.002
174.395
165.376
157.215
151.031
145.569
141.347
137.457
134.136
130.818
127.636
124.293
120.878
117.306
113.648
109.972
106.305
102.801
99.4047
96.3179
93.3627
90.7884
88.2763
86.1563
83.9639
82.1634
80.1335
78.5167
76.5231
74.9768
72.9534
71.431
69.3355
37.7235
38.1095
38.8181
40.1941
42.7627
47.0597
53.2895
61.0063
69.2384
76.9572
83.5002
88.5989
92.1389
94.0662
94.4471
93.6768
92.3949
91.3247
90.8804
91.184
92.0745
93.4561
95.178
97.2738
99.64
102.394
105.411
108.891
112.648
117
121.651
127.1
132.872
139.755
146.984
155.816
165.015
176.625
188.681
204.59
221.249
244.218
268.211
301.481
334.196
377.262
413.979
459.241
494.004
531.806
558.295
520.046
495.805
363.168
289.842
265.906
276.864
288.061
300.029
294.323
284.71
265.466
248.32
229.026
213.644
198.239
186.06
174.46
165.446
157.285
151.097
145.627
141.396
137.497
134.168
130.843
127.656
124.31
120.894
117.322
113.666
109.992
106.328
102.828
99.4328
96.347
93.3912
90.8148
88.2991
86.1741
83.9755
82.1673
80.1288
78.5009
76.496
74.9342
72.8956
71.3524
69.2409
37.7188
38.0984
38.7982
40.1601
42.7072
46.9781
53.1866
60.8993
69.1516
76.9124
83.5076
88.6537
92.2248
94.1645
94.546
93.7739
92.4927
91.4245
90.9795
91.2788
92.1628
93.5376
95.2537
97.3452
99.7082
102.461
105.476
108.957
112.714
117.068
121.721
127.173
132.949
139.837
147.071
155.91
165.117
176.738
188.807
204.731
221.406
244.389
268.39
301.658
334.366
377.411
414.123
459.347
494.077
531.654
557.856
519.114
493.91
360.994
287.876
264.332
275.71
287.248
299.479
293.963
284.496
265.359
248.285
229.035
213.676
198.284
186.115
174.524
165.514
157.353
151.161
145.684
141.445
137.536
134.199
130.867
127.675
124.326
120.909
117.337
113.683
110.012
106.351
102.854
99.4606
96.3757
93.4192
90.8409
88.3217
86.1917
83.987
82.171
80.1241
78.4851
76.4691
74.8918
72.8381
71.2745
69.1473
37.714
38.0875
38.7786
40.1266
42.6524
46.8971
53.0843
60.7927
69.065
76.8677
83.515
88.7082
92.3101
94.2621
94.6441
93.8702
92.59
91.5238
91.0781
91.3731
92.2505
93.6187
95.3289
97.416
99.7759
102.527
105.541
109.022
112.78
117.136
121.791
127.246
133.026
139.918
147.158
156.003
165.219
176.85
188.932
204.872
221.562
244.558
268.568
301.833
334.534
377.559
414.266
459.452
494.147
531.501
557.417
518.188
492.032
358.848
285.939
262.782
274.568
286.442
298.93
293.602
284.28
265.249
248.249
229.041
213.706
198.328
186.17
174.586
165.582
157.421
151.225
145.741
141.493
137.575
134.229
130.891
127.694
124.342
120.924
117.353
113.701
110.032
106.374
102.879
99.488
96.4039
93.4469
90.8666
88.3439
86.209
83.9982
82.1745
80.1192
78.4694
76.4422
74.8497
72.7811
71.1972
69.0544
37.7094
38.0767
38.7592
40.0934
42.598
46.8168
52.9825
60.6864
68.9787
76.8232
83.5224
88.7625
92.3948
94.3588
94.7413
93.9659
92.6867
91.6225
91.1762
91.4668
92.3378
93.6992
95.4037
97.4864
99.8432
102.592
105.606
109.087
112.846
117.203
121.861
127.319
133.102
139.998
147.243
156.095
165.319
176.961
189.056
205.011
221.717
244.725
268.743
302.006
334.7
377.705
414.406
459.555
494.216
531.347
556.979
517.268
490.172
356.729
284.03
261.253
273.439
285.641
298.383
293.242
284.064
265.138
248.211
229.045
213.735
198.37
186.222
174.647
165.647
157.487
151.287
145.796
141.54
137.613
134.259
130.914
127.712
124.358
120.938
117.368
113.718
110.052
106.397
102.904
99.5149
96.4318
93.4742
90.8919
88.3658
86.2261
84.0093
82.1779
80.1143
78.4536
76.4154
74.8078
72.7245
71.1206
68.9624
37.7048
38.0661
38.7401
40.0606
42.5442
46.737
52.8813
60.5806
68.8926
76.7787
83.5297
88.8164
92.4789
94.4548
94.8378
94.061
92.7829
91.7208
91.2738
91.5601
92.4245
93.7793
95.478
97.5564
99.91
102.657
105.67
109.151
112.911
117.27
121.93
127.391
133.177
140.078
147.328
156.187
165.419
177.071
189.179
205.149
221.87
244.891
268.917
302.177
334.864
377.85
414.545
459.655
494.282
531.193
556.541
516.355
488.331
354.635
282.147
259.745
272.322
284.846
297.837
292.882
283.847
265.026
248.171
229.048
213.761
198.41
186.274
174.706
165.712
157.552
151.349
145.851
141.586
137.65
134.289
130.937
127.731
124.373
120.952
117.383
113.734
110.071
106.419
102.929
99.5415
96.4593
93.5011
90.9169
88.3874
86.2428
84.0201
82.1812
80.1094
78.4379
76.3887
74.7662
72.6682
71.0446
68.8713
37.7003
38.0556
38.7212
40.0282
42.4909
46.6579
52.7806
60.4751
68.8067
76.7343
83.5369
88.8701
92.5625
94.55
94.9336
94.1554
92.8786
91.8185
91.3709
91.6528
92.5107
93.8589
95.5519
97.6259
99.9764
102.722
105.734
109.215
112.976
117.336
121.998
127.462
133.251
140.157
147.411
156.277
165.517
177.181
189.301
205.285
222.021
245.055
269.089
302.346
335.027
377.993
414.683
459.754
494.346
531.037
556.105
515.448
486.506
352.568
280.291
258.257
271.217
284.056
297.293
292.521
283.628
264.912
248.13
229.049
213.786
198.449
186.323
174.764
165.776
157.616
151.41
145.905
141.632
137.687
134.318
130.959
127.748
124.388
120.966
117.397
113.75
110.09
106.44
102.953
99.5677
96.4863
93.5276
90.9416
88.4087
86.2594
84.0307
82.1843
80.1043
78.4222
76.3621
74.7248
72.6124
70.9693
68.781
37.6958
38.0452
38.7025
39.9962
42.4382
46.5794
52.6805
60.3701
68.7211
76.6901
83.5442
88.9234
92.6454
94.6444
95.0285
94.2492
92.9737
91.9157
91.4674
91.745
92.5964
93.938
95.6252
97.6949
100.042
102.786
105.797
109.278
113.04
117.402
122.066
127.533
133.325
140.235
147.495
156.367
165.615
177.289
189.422
205.42
222.171
245.218
269.26
302.514
335.188
378.134
414.818
459.852
494.408
530.88
555.669
514.548
484.7
350.525
278.46
256.789
270.122
283.271
296.751
292.161
283.409
264.797
248.087
229.049
213.81
198.486
186.371
174.821
165.838
157.68
151.47
145.959
141.677
137.724
134.346
130.981
127.765
124.402
120.98
117.411
113.766
110.108
106.461
102.977
99.5934
96.513
93.5538
90.9659
88.4296
86.2756
84.0412
82.1873
80.0992
78.4064
76.3357
74.6837
72.5569
70.8945
68.6915
37.6914
38.035
38.6841
39.9646
42.3859
46.5015
52.581
60.2655
68.6358
76.646
83.5514
88.9765
92.7278
94.7381
95.1227
94.3424
93.0683
92.0125
91.5634
91.8366
92.6815
94.0165
95.6981
97.7634
100.108
102.849
105.86
109.341
113.104
117.467
122.133
127.603
133.398
140.313
147.577
156.456
165.712
177.396
189.541
205.554
222.32
245.379
269.428
302.68
335.347
378.274
414.951
459.947
494.467
530.722
555.234
513.654
482.91
348.508
276.654
255.339
269.037
282.49
296.21
291.8
283.189
264.681
248.042
229.047
213.831
198.522
186.418
174.876
165.899
157.742
151.529
146.011
141.721
137.759
134.374
131.003
127.782
124.416
120.993
117.425
113.782
110.126
106.482
103.001
99.6188
96.5393
93.5796
90.9898
88.4503
86.2916
84.0514
82.1902
80.094
78.3907
76.3093
74.6428
72.5018
70.8204
68.6028
37.6871
38.0249
38.666
39.9333
42.3342
46.4242
52.482
60.1613
68.5507
76.602
83.5585
89.0293
92.8095
94.8309
95.2162
94.4349
93.1624
92.1086
91.6588
91.9277
92.7661
94.0946
95.7705
97.8315
100.173
102.913
105.922
109.404
113.167
117.532
122.2
127.672
133.471
140.389
147.659
156.544
165.808
177.502
189.66
205.687
222.467
245.538
269.595
302.844
335.505
378.412
415.083
460.04
494.525
530.564
554.8
512.767
481.139
346.514
274.872
253.907
267.963
281.714
295.671
291.439
282.968
264.563
247.996
229.043
213.851
198.556
186.463
174.93
165.959
157.803
151.587
146.063
141.765
137.794
134.401
131.024
127.799
124.43
121.006
117.439
113.797
110.144
106.503
103.024
99.6437
96.5651
93.6049
91.0134
88.4706
86.3074
84.0614
82.1929
80.0888
78.375
76.283
74.6021
72.4471
70.7469
68.5149
37.6829
38.015
38.6481
39.9024
42.2831
46.3475
52.3836
60.0575
68.4659
76.5582
83.5657
89.0818
92.8907
94.9231
95.3089
94.5268
93.256
92.2043
91.7537
92.0182
92.8502
94.1721
95.8424
97.899
100.237
102.975
105.984
109.465
113.229
117.596
122.266
127.741
133.543
140.465
147.739
156.632
165.903
177.608
189.777
205.818
222.613
245.696
269.76
303.007
335.66
378.548
415.213
460.132
494.58
530.404
554.368
511.887
479.385
344.544
273.113
252.492
266.897
280.943
295.134
291.079
282.746
264.444
247.948
229.038
213.87
198.588
186.507
174.983
166.017
157.863
151.644
146.114
141.808
137.829
134.428
131.044
127.815
124.444
121.019
117.452
113.812
110.162
106.523
103.046
99.6683
96.5906
93.6299
91.0367
88.4907
86.3228
84.0712
82.1954
80.0834
78.3593
76.2568
74.5617
72.3927
70.674
68.4277
37.6786
38.0052
38.6304
39.8719
42.2324
46.2714
52.2858
59.9542
68.3814
76.5145
83.5728
89.1339
92.9713
95.0144
95.4009
94.6182
93.349
92.2994
91.8481
92.1081
92.9337
94.2491
95.9137
97.9661
100.301
103.037
106.045
109.527
113.291
117.659
122.331
127.809
133.614
140.541
147.819
156.718
165.997
177.712
189.893
205.948
222.757
245.852
269.924
303.167
335.814
378.683
415.342
460.222
494.633
530.245
553.937
511.013
477.648
342.598
271.376
251.094
265.841
280.175
294.597
290.718
282.523
264.323
247.899
229.031
213.887
198.619
186.549
175.034
166.075
157.921
151.701
146.164
141.85
137.863
134.455
131.064
127.831
124.457
121.031
117.465
113.827
110.179
106.543
103.069
99.6924
96.6156
93.6546
91.0595
88.5104
86.338
84.0808
82.1978
80.078
78.3436
76.2307
74.5215
72.3388
70.6017
68.3414
37.6745
37.9956
38.613
39.8417
42.1823
46.196
52.1885
59.8513
68.2971
76.471
83.5798
89.1858
93.0512
95.1051
95.4922
94.7089
93.4414
92.394
91.9418
92.1975
93.0167
94.3256
95.9846
98.0327
100.365
103.099
106.106
109.587
113.352
117.722
122.396
127.877
133.685
140.615
147.899
156.803
166.09
177.815
190.008
206.077
222.9
246.006
270.085
303.326
335.966
378.816
415.468
460.31
494.684
530.084
553.507
510.146
475.929
340.675
269.661
249.712
264.794
279.412
294.063
290.358
282.3
264.202
247.849
229.023
213.902
198.649
186.59
175.084
166.131
157.979
151.756
146.213
141.891
137.896
134.48
131.084
127.846
124.47
121.043
117.477
113.841
110.195
106.562
103.09
99.7161
96.6403
93.6788
91.0821
88.5298
86.353
84.0902
82.2001
80.0725
78.328
76.2047
74.4815
72.2851
70.53
68.2558
37.6704
37.9861
38.5958
39.812
42.1326
46.1211
52.0919
59.7489
68.2131
76.4276
83.5869
89.2374
93.1306
95.1949
95.5827
94.799
93.5334
92.4881
92.035
92.2863
93.0991
94.4016
96.055
98.0988
100.428
103.16
106.166
109.648
113.413
117.785
122.46
127.944
133.755
140.689
147.977
156.888
166.182
177.917
190.122
206.204
223.041
246.159
270.245
303.483
336.117
378.947
415.593
460.396
494.733
529.923
553.078
509.286
474.227
338.775
267.967
248.345
263.755
278.653
293.529
289.998
282.077
264.08
247.798
229.013
213.916
198.677
186.63
175.133
166.186
158.036
151.81
146.261
141.932
137.929
134.506
131.103
127.861
124.482
121.055
117.49
113.855
110.212
106.581
103.112
99.7394
96.6645
93.7026
91.1042
88.5489
86.3676
84.0994
82.2022
80.067
78.3123
76.1788
74.4417
72.2319
70.4589
68.171
37.6664
37.9767
38.5788
39.7826
42.0835
46.0469
51.9959
59.647
68.1295
76.3843
83.5939
89.2886
93.2094
95.2841
95.6726
94.8884
93.6248
92.5816
92.1276
92.3745
93.1809
94.477
96.1248
98.1644
100.49
103.221
106.226
109.707
113.474
117.846
122.524
128.01
133.824
140.762
148.055
156.972
166.273
178.018
190.234
206.331
223.181
246.31
270.403
303.639
336.265
379.077
415.716
460.481
494.78
529.761
552.651
508.433
472.542
336.897
266.295
246.993
262.725
277.898
292.998
289.638
281.852
263.957
247.745
229.002
213.929
198.704
186.668
175.18
166.24
158.092
151.864
146.309
141.972
137.961
134.531
131.122
127.876
124.494
121.066
117.502
113.868
110.227
106.599
103.133
99.7623
96.6883
93.726
91.126
88.5677
86.382
84.1084
82.2042
80.0613
78.2966
76.153
74.4022
72.179
70.3884
68.087
37.6624
37.9675
38.5621
39.7535
42.0349
45.9733
51.9004
59.5455
68.0461
76.3413
83.6008
89.3396
93.2877
95.3725
95.7617
94.9773
93.7156
92.6745
92.2196
92.4621
93.2622
94.5518
96.1941
98.2294
100.552
103.281
106.285
109.767
113.533
117.908
122.587
128.075
133.892
140.835
148.131
157.055
166.363
178.118
190.346
206.455
223.319
246.459
270.559
303.792
336.412
379.205
415.837
460.564
494.825
529.599
552.226
507.587
470.876
335.042
264.642
245.655
261.702
277.147
292.468
289.278
281.628
263.832
247.691
228.989
213.94
198.729
186.705
175.226
166.293
158.147
151.917
146.356
142.012
137.992
134.555
131.141
127.89
124.506
121.077
117.513
113.882
110.243
106.618
103.154
99.7847
96.7117
93.7491
91.1475
88.5861
86.3962
84.1172
82.206
80.0556
78.281
76.1273
74.3629
72.1265
70.3184
68.0037
37.6585
37.9584
38.5456
39.7248
41.9869
45.9003
51.8056
59.4445
67.9631
76.2983
83.6077
89.3902
93.3653
95.4602
95.8502
95.0656
93.8059
92.7669
92.3111
92.5491
93.3428
94.6261
96.2629
98.294
100.614
103.341
106.343
109.825
113.593
117.968
122.649
128.14
133.96
140.906
148.208
157.137
166.453
178.217
190.456
206.579
223.455
246.607
270.714
303.944
336.557
379.331
415.956
460.645
494.868
529.437
551.802
506.748
469.226
333.208
263.01
244.331
260.687
276.399
291.94
288.919
281.403
263.708
247.636
228.976
213.95
198.754
186.741
175.271
166.344
158.2
151.968
146.402
142.051
138.023
134.579
131.159
127.904
124.517
121.087
117.524
113.894
110.258
106.635
103.174
99.8068
96.7347
93.7718
91.1685
88.6043
86.4101
84.1257
82.2077
80.0498
78.2653
76.1017
74.3239
72.0744
70.2491
67.9211
37.6547
37.9494
38.5293
39.6964
41.9393
45.828
51.7114
59.344
67.8804
76.2556
83.6146
89.4405
93.4423
95.5472
95.9379
95.1533
93.8957
92.8587
92.4019
92.6355
93.4229
94.6999
96.3312
98.358
100.675
103.4
106.401
109.883
113.651
118.028
122.711
128.205
134.027
140.977
148.283
157.218
166.541
178.315
190.565
206.701
223.591
246.753
270.866
304.093
336.7
379.455
416.074
460.724
494.91
529.274
551.381
505.916
467.594
331.396
261.397
243.02
259.68
275.656
291.413
288.561
281.178
263.582
247.58
228.961
213.959
198.776
186.775
175.315
166.395
158.253
152.019
146.448
142.089
138.054
134.602
131.176
127.917
124.528
121.098
117.535
113.907
110.273
106.653
103.194
99.8284
96.7573
93.7941
91.1893
88.6221
86.4237
84.1341
82.2093
80.0439
78.2497
76.0762
74.2851
72.0226
70.1803
67.8393
37.6509
37.9406
38.5132
39.6685
41.8922
45.7563
51.6178
59.244
67.798
76.213
83.6214
89.4905
93.5188
95.6334
96.025
95.2404
93.9849
92.9499
92.4921
92.7213
93.5024
94.7731
96.3989
98.4216
100.735
103.458
106.459
109.941
113.709
118.088
122.772
128.268
134.093
141.047
148.357
157.299
166.629
178.412
190.673
206.821
223.724
246.897
271.017
304.241
336.842
379.578
416.19
460.802
494.949
529.111
550.961
505.092
465.98
329.606
259.803
241.723
258.68
274.916
290.889
288.203
280.953
263.456
247.523
228.945
213.966
198.798
186.808
175.358
166.444
158.305
152.069
146.492
142.127
138.083
134.625
131.193
127.93
124.539
121.108
117.546
113.919
110.287
106.67
103.213
99.8496
96.7795
93.8159
91.2097
88.6396
86.437
84.1423
82.2107
80.038
78.2341
76.0508
74.2465
71.9712
70.112
67.7582
37.6471
37.9318
38.4974
39.6408
41.8457
45.6852
51.5248
59.1444
67.716
76.1705
83.6282
89.5402
93.5946
95.7189
96.1114
95.3269
94.0735
93.0406
92.5817
92.8064
93.5813
94.8457
96.4661
98.4845
100.795
103.516
106.516
109.998
113.767
118.146
122.832
128.331
134.159
141.117
148.431
157.378
166.715
178.508
190.779
206.941
223.856
247.04
271.166
304.388
336.981
379.7
416.304
460.878
494.987
528.948
550.543
504.275
464.383
327.838
258.228
240.438
257.687
274.18
290.366
287.846
280.728
263.329
247.465
228.928
213.973
198.818
186.84
175.399
166.493
158.356
152.118
146.536
142.163
138.113
134.647
131.21
127.943
124.55
121.117
117.556
113.931
110.302
106.686
103.232
99.8704
96.8013
93.8375
91.2297
88.6568
86.4501
84.1502
82.2119
80.032
78.2185
76.0255
74.2081
71.9201
70.0443
67.6778
37.6434
37.9232
38.4818
39.6135
41.7996
45.6147
51.4325
59.0454
67.6343
76.1283
83.635
89.5895
93.6699
95.8037
96.1971
95.4128
94.1616
93.1306
92.6707
92.891
93.6596
94.9177
96.5327
98.547
100.854
103.574
106.573
110.054
113.824
118.205
122.892
128.393
134.224
141.185
148.503
157.457
166.8
178.602
190.885
207.059
223.987
247.181
271.313
304.532
337.119
379.819
416.417
460.952
495.023
528.785
550.127
503.465
462.805
326.091
256.671
239.166
256.701
273.449
289.846
287.49
280.503
263.202
247.406
228.91
213.978
198.838
186.871
175.44
166.54
158.406
152.167
146.58
142.2
138.141
134.669
131.226
127.956
124.56
121.127
117.566
113.942
110.315
106.702
103.251
99.8908
96.8227
93.8586
91.2494
88.6738
86.463
84.158
82.2131
80.0259
78.2029
76.0003
74.1699
71.8694
69.9772
67.5981
37.6398
37.9148
38.4663
39.5866
41.7541
45.5448
51.3408
58.947
67.553
76.0862
83.6417
89.6385
93.7446
95.8878
96.2821
95.4981
94.2491
93.2201
92.759
92.9749
93.7373
94.9892
96.5988
98.6089
100.913
103.631
106.629
110.11
113.88
118.262
122.951
128.455
134.288
141.253
148.575
157.534
166.885
178.696
190.989
207.175
224.116
247.32
271.459
304.675
337.255
379.937
416.528
461.025
495.057
528.622
549.714
502.663
461.243
324.364
255.132
237.905
255.723
272.721
289.327
287.135
280.278
263.074
247.347
228.891
213.982
198.856
186.901
175.479
166.587
158.455
152.214
146.622
142.235
138.17
134.691
131.242
127.968
124.569
121.136
117.576
113.953
110.329
106.718
103.269
99.9108
96.8436
93.8793
91.2687
88.6904
86.4756
84.1656
82.2141
80.0197
78.1873
75.9751
74.132
71.819
69.9106
67.5192
37.6362
37.9064
38.4511
39.5599
41.709
45.4756
51.2497
58.849
67.472
76.0443
83.6484
89.6872
93.8187
95.9712
96.3665
95.5828
94.336
93.3089
92.8467
93.0582
93.8144
95.0601
96.6643
98.6703
100.972
103.687
106.684
110.165
113.936
118.319
123.01
128.516
134.352
141.32
148.647
157.611
166.968
178.789
191.092
207.291
224.243
247.458
271.602
304.815
337.389
380.054
416.637
461.097
495.09
528.459
549.303
501.869
459.7
322.659
253.611
236.657
254.751
271.997
288.811
286.781
280.054
262.946
247.286
228.871
213.985
198.873
186.93
175.517
166.632
158.503
152.261
146.664
142.27
138.197
134.712
131.258
127.979
124.579
121.145
117.585
113.964
110.342
106.734
103.287
99.9304
96.8642
93.8997
91.2877
88.7067
86.4879
84.1729
82.2149
80.0135
78.1718
75.9501
74.0943
71.769
69.8446
67.4409
37.6327
37.8982
38.4362
39.5337
41.6645
45.407
51.1593
58.7516
67.3914
76.0026
83.655
89.7356
93.8922
96.0539
96.4501
95.667
94.4224
93.3972
92.9338
93.1408
93.8909
95.1304
96.7293
98.7312
101.03
103.743
106.739
110.22
113.991
118.375
123.068
128.576
134.414
141.386
148.717
157.687
167.051
178.88
191.194
207.405
224.37
247.594
271.744
304.954
337.522
380.168
416.745
461.166
495.121
528.296
548.894
501.082
458.174
320.975
252.107
235.42
253.787
271.278
288.298
286.429
279.83
262.818
247.226
228.85
213.987
198.889
186.957
175.555
166.676
158.55
152.307
146.705
142.305
138.224
134.732
131.273
127.991
124.588
121.153
117.594
113.975
110.354
106.749
103.304
99.9496
96.8844
93.9197
91.3063
88.7227
86.5
84.1801
82.2157
80.0072
78.1562
75.9252
74.0569
71.7193
69.7791
67.3634
37.6292
37.8901
38.4214
39.5077
41.6204
45.339
51.0695
58.6548
67.3112
75.9611
83.6616
89.7836
93.9651
96.1358
96.5331
95.7505
94.5082
93.4848
93.0202
93.2228
93.9667
95.2001
96.7937
98.7915
101.087
103.799
106.793
110.274
114.046
118.431
123.125
128.635
134.476
141.452
148.786
157.762
167.133
178.971
191.295
207.517
224.494
247.728
271.884
305.092
337.653
380.282
416.851
461.235
495.151
528.134
548.488
500.303
456.666
319.312
250.621
234.195
252.829
270.562
287.787
286.077
279.606
262.69
247.164
228.828
213.988
198.904
186.984
175.591
166.72
158.596
152.352
146.745
142.338
138.251
134.752
131.288
128.002
124.597
121.161
117.602
113.985
110.366
106.763
103.321
99.9684
96.9042
93.9394
91.3246
88.7384
86.5118
84.1871
82.2163
80.0009
78.1407
75.9004
74.0196
71.67
69.7142
67.2865
37.6258
37.8821
38.4068
39.4821
41.5769
45.2717
50.9804
58.5585
67.2314
75.9198
83.6681
89.8312
94.0374
96.2171
96.6154
95.8334
94.5934
93.5718
93.1059
93.3041
94.0419
95.2692
96.8575
98.8512
101.144
103.854
106.847
110.328
114.1
118.486
123.181
128.694
134.538
141.517
148.855
157.836
167.213
179.06
191.394
207.628
224.617
247.861
272.023
305.227
337.782
380.393
416.955
461.302
495.179
527.971
548.084
499.532
455.177
317.669
249.152
232.981
251.878
269.852
287.279
285.728
279.383
262.562
247.103
228.806
213.988
198.918
187.01
175.626
166.762
158.641
152.396
146.785
142.372
138.277
134.772
131.302
128.013
124.605
121.169
117.611
113.995
110.378
106.778
103.338
99.9868
96.9236
93.9586
91.3425
88.7538
86.5234
84.1939
82.2168
79.9945
78.1252
75.8757
73.9827
71.6211
69.6498
67.2104
37.6224
37.8742
38.3924
39.4569
41.5338
45.205
50.892
58.4627
67.152
75.8787
83.6746
89.8785
94.1091
96.2977
96.6971
95.9157
94.678
93.6582
93.191
93.3847
94.1165
95.3377
96.9207
98.9104
101.2
103.908
106.9
110.381
114.153
118.541
123.237
128.752
134.598
141.581
148.923
157.909
167.293
179.148
191.492
207.738
224.738
247.992
272.159
305.361
337.909
380.503
417.058
461.367
495.206
527.809
547.683
498.769
453.705
316.048
247.699
231.778
250.935
269.145
286.774
285.38
279.162
262.434
247.041
228.783
213.988
198.931
187.034
175.66
166.804
158.686
152.44
146.824
142.404
138.303
134.791
131.316
128.023
124.614
121.176
117.619
114.004
110.39
106.792
103.354
100.005
96.9426
93.9775
91.3602
88.7689
86.5348
84.2005
82.2172
79.988
78.1098
75.8511
73.9459
71.5725
69.586
67.1349
37.6191
37.8665
38.3783
39.4319
41.4913
45.1389
50.8042
58.3676
67.073
75.8378
83.6811
89.9255
94.1802
96.3775
96.7781
95.9974
94.762
93.7439
93.2754
93.4647
94.1904
95.4056
96.9834
98.969
101.255
103.962
106.953
110.434
114.206
118.595
123.293
128.81
134.658
141.644
148.99
157.981
167.372
179.235
191.589
207.847
224.858
248.121
272.294
305.492
338.035
380.612
417.159
461.431
495.231
527.647
547.285
498.015
452.251
314.447
246.264
230.586
249.998
268.443
286.272
285.034
278.941
262.306
246.978
228.759
213.987
198.944
187.058
175.694
166.844
158.729
152.482
146.862
142.436
138.328
134.81
131.33
128.033
124.622
121.184
117.627
114.013
110.401
106.805
103.37
100.022
96.9613
93.996
91.3775
88.7837
86.5459
84.2069
82.2174
79.9815
78.0943
75.8267
73.9094
71.5243
69.5227
67.0601
37.6159
37.8588
38.3643
39.4073
41.4492
45.0735
50.7171
58.273
66.9944
75.7972
83.6875
89.9721
94.2507
96.4567
96.8584
96.0785
94.8454
93.829
93.3592
93.544
94.2637
95.4729
97.0455
99.0271
101.311
104.015
107.005
110.486
114.258
118.648
123.347
128.866
134.717
141.706
149.056
158.053
167.449
179.321
191.685
207.954
224.977
248.249
272.427
305.623
338.159
380.718
417.259
461.493
495.255
527.486
546.89
497.268
450.815
312.866
244.845
229.405
249.069
267.747
285.773
284.69
278.721
262.178
246.916
228.735
213.985
198.955
187.081
175.726
166.884
158.772
152.524
146.9
142.468
138.352
134.828
131.343
128.043
124.629
121.191
117.634
114.022
110.412
106.818
103.385
100.04
96.9795
94.0142
91.3944
88.7983
86.5567
84.2132
82.2175
79.975
78.0789
75.8023
73.8731
71.4764
69.4599
66.986
37.6126
37.8513
38.3506
39.383
41.4076
45.0087
50.6307
58.179
66.9162
75.7567
83.6938
90.0184
94.3206
96.5351
96.938
96.1589
94.9282
93.9135
93.4422
93.6226
94.3363
95.5396
97.107
99.0846
101.365
104.068
107.057
110.537
114.31
118.701
123.401
128.922
134.775
141.768
149.121
158.123
167.526
179.407
191.78
208.06
225.094
248.375
272.559
305.751
338.281
380.824
417.357
461.554
495.278
527.325
546.498
496.53
449.398
311.307
243.443
228.235
248.147
267.055
285.277
284.348
278.502
262.051
246.853
228.711
213.982
198.966
187.104
175.758
166.923
158.814
152.566
146.937
142.499
138.376
134.847
131.356
128.052
124.637
121.197
117.641
114.031
110.423
106.831
103.4
100.056
96.9974
94.032
91.4111
88.8125
86.5674
84.2193
82.2175
79.9684
78.0636
75.7781
73.8371
71.4289
69.3977
66.9126
37.6095
37.8439
38.337
39.359
41.3665
44.9445
50.5449
58.0856
66.8384
75.7164
83.7001
90.0643
94.3898
96.6129
97.017
96.2388
95.0103
93.9972
93.5246
93.7005
94.4082
95.6056
97.1679