/*--------------------------------*- C++ -*----------------------------------*\
| =========                 |                                                 |
| \\      /  F ield         | OpenFOAM: The Open Source CFD Toolbox           |
|  \\    /   O peration     | Version:  2412                                  |
|   \\  /    A nd           | Website:  www.openfoam.com                      |
|    \\/     M anipulation  |                                                 |
\*---------------------------------------------------------------------------*/
FoamFile
{
    version     2.0;
    format      ascii;
    arch        "LSB;label=32;scalar=64";
    class       volScalarField;
    location    "0.9";
    object      nut;
}
// * * * * * * * * * * * * * * * * * * * * * * * * * * * * * * * * * * * * * //

dimensions      [0 2 -1 0 0 0 0];

internalField   nonuniform List<scalar> 
13068
(
0.337078
0.340481
0.347107
0.35961
0.379798
0.405202
0.42852
0.442771
0.445713
0.439058
0.42624
0.41059
0.39452
0.37965
0.367291
0.35892
0.355841
0.35848
0.365507
0.374508
0.38314
0.390394
0.396066
0.400681
0.404496
0.40806
0.41133
0.414754
0.418019
0.421641
0.425073
0.429039
0.432711
0.437155
0.441139
0.446242
0.450655
0.456715
0.461821
0.469349
0.475463
0.484532
0.490832
0.499669
0.503466
0.50913
0.508467
0.511997
0.512179
0.515667
0.513726
0.481291
0.462875
0.372621
0.313303
0.300733
0.335151
0.372434
0.400078
0.40327
0.401174
0.391728
0.386614
0.380014
0.37744
0.373756
0.373041
0.371994
0.373301
0.37433
0.37651
0.377844
0.379161
0.379245
0.378761
0.377136
0.374901
0.371883
0.368546
0.365038
0.361717
0.358844
0.356521
0.354979
0.353978
0.353714
0.353611
0.353959
0.353939
0.354148
0.353577
0.353272
0.351947
0.35115
0.349192
0.3481
0.345799
0.344673
0.341964
0.337051
0.340412
0.346974
0.359381
0.379471
0.40485
0.428265
0.442705
0.445871
0.439431
0.426789
0.411256
0.395239
0.380368
0.367973
0.359546
0.356388
0.358918
0.365811
0.374683
0.383218
0.390417
0.396066
0.400678
0.404499
0.408072
0.411352
0.414784
0.418056
0.421683
0.42512
0.429091
0.432766
0.437214
0.441202
0.44631
0.450729
0.456795
0.461905
0.469433
0.475544
0.484602
0.490891
0.499713
0.503508
0.509172
0.508526
0.512043
0.512198
0.515566
0.513511
0.480817
0.461985
0.371603
0.312738
0.300899
0.336066
0.373593
0.401057
0.403981
0.401675
0.392082
0.386863
0.380184
0.377559
0.373847
0.373118
0.37206
0.373353
0.374362
0.376522
0.377838
0.379143
0.379219
0.378734
0.377112
0.374883
0.371876
0.36855
0.365054
0.361744
0.358879
0.356559
0.355014
0.354007
0.353732
0.353614
0.353945
0.353907
0.354099
0.35351
0.353186
0.351841
0.351017
0.34903
0.347897
0.345552
0.344367
0.341617
0.337026
0.340344
0.346841
0.359154
0.379146
0.404497
0.428008
0.442638
0.446029
0.439805
0.427339
0.411922
0.395956
0.381083
0.368653
0.360168
0.35693
0.359351
0.366111
0.374855
0.383295
0.390439
0.396066
0.400675
0.404502
0.408085
0.411373
0.414814
0.418093
0.421726
0.425167
0.429142
0.432821
0.437273
0.441266
0.446379
0.450803
0.456875
0.461989
0.469517
0.475625
0.484672
0.490949
0.499758
0.503549
0.509215
0.508585
0.512089
0.512217
0.515464
0.513297
0.480344
0.461095
0.37058
0.312158
0.30104
0.336943
0.37471
0.402002
0.404669
0.402164
0.392431
0.387108
0.380353
0.377677
0.373937
0.373194
0.372125
0.373404
0.374394
0.376534
0.377832
0.379125
0.379194
0.378707
0.377087
0.374866
0.371868
0.368555
0.36507
0.36177
0.358913
0.356596
0.35505
0.354035
0.353749
0.353617
0.353931
0.353876
0.35405
0.353443
0.3531
0.351735
0.350885
0.348869
0.347694
0.345306
0.344064
0.341273
0.337
0.340277
0.34671
0.358928
0.37882
0.404144
0.42775
0.44257
0.446186
0.440177
0.427887
0.412586
0.396671
0.381795
0.369327
0.360785
0.357467
0.359779
0.366408
0.375025
0.38337
0.39046
0.396065
0.400671
0.404505
0.408097
0.411395
0.414844
0.418129
0.421768
0.425214
0.429193
0.432876
0.437332
0.441329
0.446447
0.450877
0.456954
0.462073
0.469601
0.475705
0.484742
0.491008
0.499803
0.503591
0.509257
0.508643
0.512134
0.512235
0.515363
0.513084
0.479874
0.460205
0.36955
0.311562
0.301155
0.337784
0.375787
0.402914
0.405337
0.402642
0.392775
0.387352
0.380522
0.377795
0.374027
0.37327
0.372191
0.373454
0.374425
0.376546
0.377826
0.379107
0.379168
0.37868
0.377063
0.374848
0.371861
0.368559
0.365086
0.361796
0.358946
0.356632
0.355085
0.354064
0.353766
0.353619
0.353917
0.353845
0.354001
0.353378
0.353015
0.35163
0.350753
0.348709
0.347493
0.345062
0.343763
0.340932
0.336975
0.340211
0.34658
0.358703
0.378496
0.40379
0.427489
0.442499
0.44634
0.440549
0.428434
0.413247
0.397382
0.382503
0.369998
0.361397
0.357999
0.360202
0.3667
0.375192
0.383445
0.390481
0.396065
0.400668
0.404508
0.408109
0.411416
0.414873
0.418165
0.42181
0.425261
0.429244
0.43293
0.43739
0.441392
0.446515
0.45095
0.457032
0.462156
0.469684
0.475785
0.484811
0.491066
0.499847
0.503632
0.509299
0.5087
0.512178
0.512252
0.515261
0.51287
0.479405
0.459315
0.368514
0.31095
0.301245
0.338588
0.376825
0.403797
0.405986
0.40311
0.393114
0.387594
0.38069
0.377912
0.374117
0.373346
0.372256
0.373505
0.374457
0.376557
0.377821
0.379088
0.379143
0.378652
0.377038
0.374831
0.371853
0.368563
0.365102
0.361822
0.358979
0.356668
0.355119
0.354091
0.353783
0.353621
0.353903
0.353814
0.353953
0.353312
0.35293
0.351525
0.350623
0.34855
0.347294
0.344819
0.343463
0.340593
0.33695
0.340145
0.346451
0.35848
0.378173
0.403435
0.427227
0.442426
0.446494
0.440919
0.42898
0.413907
0.39809
0.383206
0.370663
0.362004
0.358526
0.360621
0.366989
0.375357
0.383517
0.390501
0.396063
0.400665
0.40451
0.408121
0.411437
0.414903
0.418201
0.421852
0.425307
0.429294
0.432984
0.437448
0.441454
0.446582
0.451023
0.45711
0.462238
0.469767
0.475864
0.484879
0.491123
0.499891
0.503673
0.50934
0.508756
0.512221
0.512268
0.51516
0.512657
0.478938
0.458425
0.367473
0.310323
0.301309
0.339356
0.377825
0.404651
0.406618
0.403569
0.393449
0.387834
0.380857
0.37803
0.374207
0.373422
0.372321
0.373556
0.374489
0.376569
0.377815
0.37907
0.379117
0.378625
0.377014
0.374813
0.371846
0.368567
0.365118
0.361848
0.359012
0.356704
0.355153
0.354119
0.353799
0.353624
0.353889
0.353783
0.353905
0.353247
0.352846
0.351421
0.350492
0.348392
0.347095
0.344578
0.343166
0.340257
0.336925
0.340081
0.346324
0.358259
0.377851
0.40308
0.426964
0.442352
0.446645
0.441287
0.429523
0.414564
0.398795
0.383905
0.371323
0.362605
0.359048
0.361035
0.367274
0.37552
0.383589
0.390521
0.396062
0.400661
0.404513
0.408132
0.411458
0.414931
0.418237
0.421893
0.425352
0.429344
0.433038
0.437506
0.441516
0.446649
0.451095
0.457188
0.46232
0.469849
0.475942
0.484947
0.49118
0.499934
0.503713
0.50938
0.508811
0.512263
0.512283
0.515057
0.512444
0.478472
0.457536
0.366427
0.309682
0.301348
0.34009
0.37879
0.405478
0.407234
0.404019
0.39378
0.388073
0.381024
0.378147
0.374296
0.373498
0.372387
0.373607
0.374521
0.376581
0.377809
0.379051
0.379091
0.378598
0.37699
0.374796
0.371838
0.368571
0.365133
0.361873
0.359045
0.35674
0.355187
0.354146
0.353816
0.353626
0.353876
0.353753
0.353858
0.353182
0.352763
0.351318
0.350363
0.348234
0.346897
0.344339
0.342871
0.339923
0.336901
0.340017
0.346198
0.358039
0.37753
0.402726
0.426699
0.442275
0.446795
0.441654
0.430065
0.415218
0.399495
0.3846
0.371978
0.363202
0.359565
0.361443
0.367555
0.37568
0.383659
0.39054
0.39606
0.400657
0.404515
0.408144
0.411478
0.41496
0.418272
0.421934
0.425398
0.429393
0.433091
0.437563
0.441577
0.446715
0.451166
0.457264
0.462401
0.469929
0.47602
0.485014
0.491236
0.499977
0.503753
0.50942
0.508866
0.512304
0.512297
0.514955
0.512232
0.478009
0.456647
0.365376
0.309025
0.301363
0.34079
0.37972
0.406279
0.407834
0.404462
0.394108
0.388311
0.38119
0.378264
0.374386
0.373574
0.372452
0.373658
0.374554
0.376594
0.377804
0.379033
0.379066
0.378571
0.376966
0.374779
0.371831
0.368575
0.365149
0.361899
0.359077
0.356775
0.355221
0.354173
0.353832
0.353629
0.353862
0.353723
0.35381
0.353118
0.35268
0.351215
0.350234
0.348078
0.346701
0.344101
0.342579
0.339592
0.336877
0.339954
0.346073
0.357821
0.377211
0.402371
0.426432
0.442196
0.446943
0.44202
0.430605
0.41587
0.400192
0.38529
0.372628
0.363793
0.360076
0.361847
0.367833
0.375837
0.383728
0.390558
0.396058
0.400652
0.404517
0.408155
0.411498
0.414988
0.418306
0.421974
0.425443
0.429442
0.433143
0.437619
0.441637
0.44678
0.451237
0.45734
0.462481
0.47001
0.476096
0.48508
0.491291
0.500019
0.503792
0.509459
0.508919
0.512344
0.51231
0.514852
0.512019
0.477547
0.455759
0.364322
0.308355
0.301353
0.341457
0.380618
0.407057
0.40842
0.404898
0.394433
0.388548
0.381357
0.378381
0.374476
0.37365
0.372517
0.37371
0.374586
0.376606
0.377798
0.379015
0.379041
0.378544
0.376941
0.374762
0.371823
0.368579
0.365164
0.361924
0.359109
0.356809
0.355254
0.3542
0.353849
0.353631
0.353849
0.353693
0.353764
0.353055
0.352597
0.351113
0.350107
0.347922
0.346506
0.343864
0.342288
0.339263
0.336854
0.339891
0.345949
0.357604
0.376892
0.402015
0.426164
0.442116
0.447089
0.442383
0.431143
0.416518
0.400886
0.385975
0.373273
0.364378
0.360581
0.362247
0.368107
0.375992
0.383795
0.390576
0.396056
0.400648
0.404518
0.408165
0.411518
0.415015
0.418341
0.422014
0.425487
0.429491
0.433195
0.437675
0.441697
0.446845
0.451308
0.457415
0.46256
0.470089
0.476172
0.485145
0.491346
0.500061
0.50383
0.509498
0.508972
0.512383
0.512322
0.514749
0.511807
0.477088
0.454873
0.363263
0.30767
0.301319
0.342092
0.381484
0.407812
0.408993
0.405328
0.394755
0.388784
0.381523
0.378499
0.374565
0.373726
0.372583
0.373761
0.374619
0.376619
0.377793
0.378997
0.379015
0.378517
0.376917
0.374744
0.371816
0.368583
0.365179
0.361948
0.35914
0.356844
0.355287
0.354226
0.353865
0.353633
0.353836
0.353664
0.353717
0.352991
0.352515
0.351012
0.349979
0.347767
0.346312
0.343629
0.341999
0.338937
0.33683
0.339829
0.345827
0.357389
0.376575
0.40166
0.425894
0.442033
0.447233
0.442745
0.431678
0.417164
0.401575
0.386655
0.373913
0.364958
0.361082
0.362641
0.368377
0.376145
0.383862
0.390593
0.396053
0.400643
0.40452
0.408176
0.411537
0.415043
0.418374
0.422053
0.425531
0.429539
0.433247
0.43773
0.441756
0.446909
0.451377
0.45749
0.462639
0.470167
0.476247
0.48521
0.4914
0.500102
0.503868
0.509536
0.509023
0.512421
0.512333
0.514646
0.511596
0.47663
0.453988
0.362201
0.306972
0.30126
0.342696
0.38232
0.408546
0.409554
0.405752
0.395075
0.38902
0.381689
0.378617
0.374655
0.373802
0.372648
0.373813
0.374652
0.376632
0.377788
0.378979
0.37899
0.37849
0.376894
0.374728
0.371809
0.368587
0.365194
0.361972
0.359171
0.356878
0.355319
0.354253
0.353881
0.353636
0.353823
0.353635
0.353671
0.352929
0.352434
0.350911
0.349853
0.347613
0.346119
0.343396
0.341713
0.338613
0.336807
0.339769
0.345706
0.357176
0.376259
0.401305
0.425624
0.441949
0.447375
0.443104
0.432211
0.417806
0.402259
0.38733
0.374547
0.365533
0.361577
0.363031
0.368643
0.376295
0.383926
0.39061
0.39605
0.400638
0.404521
0.408186
0.411556
0.41507
0.418408
0.422092
0.425574
0.429586
0.433298
0.437785
0.441815
0.446973
0.451446
0.457564
0.462717
0.470245
0.476322
0.485274
0.491454
0.500142
0.503906
0.509573
0.509074
0.512458
0.512343
0.514543
0.511384
0.476175
0.453105
0.361136
0.30626
0.301178
0.343269
0.383128
0.409261
0.410104
0.406171
0.395393
0.389255
0.381856
0.378734
0.374745
0.373878
0.372714
0.373865
0.374686
0.376645
0.377784
0.378961
0.378965
0.378463
0.37687
0.374711
0.371801
0.368591
0.365208
0.361997
0.359202
0.356911
0.355351
0.354279
0.353897
0.353639
0.353811
0.353606
0.353626
0.352867
0.352353
0.350811
0.349727
0.34746
0.345928
0.343164
0.341428
0.338291
0.336785
0.339708
0.345586
0.356964
0.375945
0.40095
0.425351
0.441862
0.447515
0.443462
0.432742
0.418445
0.40294
0.388
0.375175
0.366102
0.362066
0.363415
0.368905
0.376443
0.38399
0.390625
0.396047
0.400633
0.404522
0.408196
0.411574
0.415096
0.418441
0.422131
0.425617
0.429633
0.433348
0.437839
0.441873
0.447036
0.451514
0.457637
0.462794
0.470322
0.476395
0.485338
0.491507
0.500183
0.503943
0.50961
0.509124
0.512494
0.512352
0.514439
0.511174
0.475721
0.452223
0.360068
0.305536
0.301074
0.343813
0.383909
0.409957
0.410645
0.406585
0.395709
0.38949
0.382023
0.378852
0.374835
0.373954
0.37278
0.373917
0.374719
0.376659
0.377779
0.378944
0.37894
0.378437
0.376846
0.374694
0.371794
0.368594
0.365223
0.36202
0.359232
0.356945
0.355383
0.354304
0.353912
0.353641
0.353798
0.353577
0.353581
0.352805
0.352273
0.350712
0.349602
0.347308
0.345738
0.342933
0.341146
0.337972
0.336762
0.339649
0.345467
0.356754
0.375632
0.400595
0.425078
0.441774
0.447653
0.443818
0.433271
0.419081
0.403617
0.388666
0.375799
0.366665
0.36255
0.363795
0.369164
0.376589
0.384053
0.390641
0.396043
0.400627
0.404522
0.408205
0.411593
0.415122
0.418473
0.422169
0.425659
0.429679
0.433398
0.437892
0.441931
0.447098
0.451582
0.457709
0.46287
0.470398
0.476468
0.4854
0.491559
0.500222
0.503979
0.509646
0.509173
0.512529
0.51236
0.514336
0.510963
0.47527
0.451344
0.358998
0.304799
0.300946
0.344329
0.384665
0.410637
0.411176
0.406996
0.396024
0.389724
0.38219
0.378971
0.374925
0.37403
0.372846
0.373969
0.374753
0.376673
0.377775
0.378927
0.378916
0.378411
0.376823
0.374677
0.371787
0.368598
0.365237
0.362044
0.359262
0.356978
0.355415
0.35433
0.353928
0.353644
0.353786
0.353549
0.353536
0.352744
0.352193
0.350613
0.349478
0.347157
0.345549
0.342704
0.340866
0.337656
0.33674
0.33959
0.34535
0.356546
0.37532
0.40024
0.424803
0.441684
0.44779
0.444171
0.433797
0.419714
0.404289
0.389326
0.376416
0.367223
0.363029
0.36417
0.369419
0.376732
0.384114
0.390655
0.396039
0.400621
0.404523
0.408214
0.411611
0.415148
0.418506
0.422206
0.425701
0.429725
0.433447
0.437945
0.441988
0.44716
0.451649
0.457781
0.462945
0.470473
0.47654
0.485462
0.491611
0.500261
0.504015
0.509681
0.509222
0.512563
0.512367
0.514232
0.510753
0.474821
0.450467
0.357927
0.30405
0.300797
0.344818
0.385397
0.411301
0.411699
0.407402
0.396338
0.389959
0.382357
0.37909
0.375016
0.374106
0.372912
0.374021
0.374787
0.376687
0.377772
0.37891
0.378892
0.378384
0.3768
0.374661
0.37178
0.368602
0.365252
0.362067
0.359292
0.35701
0.355446
0.354355
0.353944
0.353647
0.353774
0.353521
0.353491
0.352683
0.352114
0.350515
0.349355
0.347007
0.345361
0.342477
0.340587
0.337341
0.336719
0.339532
0.345234
0.356339
0.37501
0.399885
0.424527
0.441592
0.447924
0.444523
0.43432
0.420343
0.404956
0.38998
0.377029
0.367775
0.363502
0.36454
0.369671
0.376873
0.384174
0.390669
0.396035
0.400615
0.404523
0.408223
0.411628
0.415173
0.418537
0.422243
0.425743
0.429771
0.433496
0.437998
0.442045
0.447221
0.451715
0.457852
0.46302
0.470548
0.476611
0.485523
0.491662
0.5003
0.504051
0.509716
0.509269
0.512597
0.512373
0.514128
0.510544
0.474375
0.449593
0.356853
0.30329
0.300626
0.345282
0.386107
0.411951
0.412214
0.407806
0.39665
0.390193
0.382524
0.379208
0.375106
0.374183
0.372978
0.374074
0.374822
0.376702
0.377768
0.378893
0.378867
0.378359
0.376777
0.374645
0.371773
0.368605
0.365266
0.36209
0.359322
0.357042
0.355477
0.354381
0.353959
0.353649
0.353762
0.353493
0.353448
0.352623
0.352036
0.350417
0.349232
0.346858
0.345174
0.342251
0.340311
0.337029
0.336697
0.339475
0.345119
0.356134
0.374701
0.399531
0.42425
0.441498
0.448056
0.444872
0.434841
0.420968
0.405619
0.39063
0.377635
0.368322
0.36397
0.364906
0.369918
0.377011
0.384232
0.390683
0.39603
0.400609
0.404523
0.408232
0.411645
0.415198
0.418569
0.42228
0.425784
0.429816
0.433544
0.43805
0.4421
0.447281
0.45178
0.457922
0.463094
0.470622
0.476681
0.485584
0.491713
0.500338
0.504086
0.509751
0.509316
0.512629
0.512379
0.514024
0.510336
0.473931
0.448721
0.355779
0.302518
0.300435
0.345721
0.386796
0.412588
0.412723
0.408207
0.396962
0.390428
0.382692
0.379328
0.375197
0.37426
0.373044
0.374127
0.374857
0.376717
0.377765
0.378877
0.378844
0.378333
0.376754
0.374629
0.371766
0.368609
0.36528
0.362113
0.359351
0.357074
0.355508
0.354406
0.353975
0.353652
0.35375
0.353466
0.353404
0.352563
0.351958
0.35032
0.349111
0.346709
0.344989
0.342027
0.340037
0.33672
0.336676
0.339418
0.345005
0.35593
0.374394
0.399177
0.423972
0.441402
0.448186
0.44522
0.435359
0.42159
0.406277
0.391274
0.378236
0.368862
0.364432
0.365266
0.370162
0.377148
0.38429
0.390696
0.396025
0.400603
0.404522
0.40824
0.411662
0.415223
0.418599
0.422316
0.425824
0.42986
0.433592
0.438101
0.442156
0.447341
0.451845
0.457992
0.463167
0.470694
0.476751
0.485644
0.491763
0.500375
0.50412
0.509784
0.509361
0.51266
0.512383
0.513921
0.510128
0.473489
0.447853
0.354704
0.301735
0.300223
0.346136
0.387466
0.413213
0.413226
0.408606
0.397274
0.390663
0.38286
0.379447
0.375288
0.374336
0.37311
0.37418
0.374892
0.376732
0.377762
0.378861
0.37882
0.378307
0.376731
0.374613
0.371759
0.368613
0.365293
0.362135
0.359379
0.357106
0.355538
0.35443
0.35399
0.353655
0.353738
0.353439
0.353361
0.352504
0.35188
0.350224
0.34899
0.346562
0.344804
0.341804
0.339765
0.336413
0.336655
0.339362
0.344892
0.355728
0.374088
0.398823
0.423692
0.441304
0.448314
0.445564
0.435874
0.422208
0.406931
0.391913
0.378831
0.369397
0.364889
0.365622
0.370403
0.377281
0.384346
0.390708
0.39602
0.400596
0.404522
0.408248
0.411679
0.415247
0.41863
0.422352
0.425864
0.429904
0.433639
0.438152
0.44221
0.4474
0.451909
0.45806
0.46324
0.470767
0.47682
0.485703
0.491812
0.500413
0.504154
0.509818
0.509406
0.512691
0.512387
0.513817
0.50992
0.47305
0.446987
0.353628
0.300943
0.299992
0.346529
0.388118
0.413827
0.413724
0.409003
0.397585
0.390898
0.383029
0.379567
0.375379
0.374413
0.373177
0.374233
0.374927
0.376747
0.37776
0.378845
0.378796
0.378282
0.376709
0.374597
0.371752
0.368616
0.365307
0.362158
0.359408
0.357137
0.355568
0.354455
0.354006
0.353658
0.353727
0.353412
0.353318
0.352445
0.351803
0.350128
0.348869
0.346415
0.344621
0.341583
0.339495
0.336108
0.336634
0.339307
0.344781
0.355528
0.373784
0.398469
0.423412
0.441204
0.44844
0.445907
0.436386
0.422822
0.40758
0.392547
0.379421
0.369927
0.36534
0.365973
0.37064
0.377413
0.384401
0.39072
0.396015
0.400589
0.404521
0.408256
0.411695
0.415271
0.41866
0.422387
0.425904
0.429947
0.433686
0.438202
0.442264
0.447459
0.451973
0.458128
0.463311
0.470838
0.476888
0.485761
0.491861
0.500449
0.504188
0.50985
0.50945
0.512721
0.51239
0.513713
0.509714
0.472614
0.446125
0.352553
0.30014
0.299742
0.346902
0.388753
0.414431
0.414217
0.409398
0.397896
0.391133
0.383197
0.379687
0.37547
0.37449
0.373243
0.374287
0.374963
0.376763
0.377757
0.37883
0.378773
0.378257
0.376686
0.374581
0.371746
0.368619
0.36532
0.36218
0.359436
0.357168
0.355598
0.354479
0.354021
0.353661
0.353716
0.353386
0.353276
0.352387
0.351727
0.350033
0.34875
0.34627
0.344439
0.341363
0.339227
0.335806
0.336614
0.339253
0.344671
0.355329
0.373481
0.398116
0.42313
0.441103
0.448564
0.446247
0.436895
0.423432
0.408224
0.393174
0.380005
0.37045
0.365786
0.366319
0.370873
0.377543
0.384455
0.390731
0.396009
0.400582
0.40452
0.408263
0.411711
0.415294
0.418689
0.422422
0.425943
0.42999
0.433732
0.438252
0.442318
0.447517
0.452036
0.458196
0.463382
0.470908
0.476955
0.485819
0.491909
0.500485
0.504221
0.509883
0.509494
0.51275
0.512392
0.51361
0.509508
0.47218
0.445267
0.351478
0.299329
0.299474
0.347255
0.389372
0.415027
0.414706
0.409792
0.398206
0.391369
0.383366
0.379807
0.375562
0.374567
0.37331
0.37434
0.374998
0.376779
0.377755
0.378814
0.37875
0.378232
0.376664
0.374565
0.371739
0.368623
0.365334
0.362201
0.359464
0.357198
0.355627
0.354503
0.354036
0.353664
0.353705
0.35336
0.353234
0.352329
0.351652
0.349939
0.348631
0.346125
0.344259
0.341145
0.33896
0.335506
0.336594
0.339199
0.344562
0.355132
0.37318
0.397764
0.422848
0.441
0.448686
0.446585
0.437401
0.424039
0.408863
0.393797
0.380583
0.370968
0.366226
0.36666
0.371103
0.37767
0.384507
0.390741
0.396003
0.400575
0.404518
0.40827
0.411726
0.415317
0.418718
0.422456
0.425981
0.430032
0.433777
0.438301
0.44237
0.447574
0.452098
0.458262
0.463452
0.470978
0.477021
0.485876
0.491956
0.500521
0.504253
0.509914
0.509537
0.512778
0.512394
0.513506
0.509303
0.47175
0.444412
0.350403
0.298508
0.299189
0.347589
0.389979
0.415615
0.415191
0.410185
0.398517
0.391605
0.383536
0.379927
0.375653
0.374644
0.373376
0.374394
0.375034
0.376796
0.377754
0.378799
0.378728
0.378208
0.376642
0.37455
0.371732
0.368626
0.365347
0.362223
0.359491
0.357228
0.355656
0.354527
0.354051
0.353667
0.353694
0.353334
0.353193
0.352272
0.351577
0.349846
0.348513
0.345981
0.344079
0.340928
0.338696
0.335208
0.336574
0.339146
0.344454
0.354937
0.37288
0.397412
0.422564
0.440895
0.448806
0.44692
0.437904
0.424641
0.409497
0.394414
0.381155
0.37148
0.366661
0.366997
0.371329
0.377795
0.384559
0.390752
0.395996
0.400567
0.404517
0.408277
0.411741
0.415339
0.418747
0.42249
0.426019
0.430074
0.433822
0.438349
0.442423
0.44763
0.452159
0.458328
0.463521
0.471047
0.477087
0.485932
0.492003
0.500556
0.504285
0.509945
0.509578
0.512806
0.512395
0.513403
0.509099
0.471322
0.443561
0.34933
0.297679
0.298887
0.347906
0.390572
0.416196
0.415673
0.410577
0.398827
0.391841
0.383705
0.380048
0.375744
0.37472
0.373443
0.374448
0.37507
0.376812
0.377752
0.378785
0.378705
0.378183
0.376621
0.374535
0.371726
0.368629
0.36536
0.362244
0.359518
0.357258
0.355685
0.354551
0.354066
0.35367
0.353683
0.353309
0.353152
0.352216
0.351502
0.349753
0.348396
0.345838
0.343901
0.340713
0.338434
0.334912
0.336555
0.339093
0.344347
0.354743
0.372583
0.397061
0.42228
0.440788
0.448923
0.447253
0.438403
0.425238
0.410125
0.395025
0.381721
0.371986
0.36709
0.367328
0.371551
0.377917
0.384609
0.390761
0.39599
0.400559
0.404515
0.408284
0.411756
0.415362
0.418775
0.422524
0.426057
0.430115
0.433867
0.438397
0.442474
0.447686
0.45222
0.458393
0.463589
0.471115
0.477151
0.485988
0.492049
0.50059
0.504317
0.509976
0.50962
0.512832
0.512395
0.5133
0.508896
0.470896
0.442715
0.348258
0.296842
0.298569
0.348207
0.391154
0.41677
0.416153
0.410968
0.399137
0.392077
0.383875
0.380169
0.375836
0.374797
0.37351
0.374501
0.375107
0.376829
0.377751
0.37877
0.378683
0.378159
0.376599
0.37452
0.371719
0.368633
0.365372
0.362265
0.359545
0.357288
0.355714
0.354574
0.354081
0.353673
0.353673
0.353284
0.353111
0.352159
0.351428
0.34966
0.34828
0.345697
0.343724
0.3405
0.338174
0.334619
0.336535
0.339041
0.344242
0.354552
0.372286
0.39671
0.421995
0.440679
0.449038
0.447583
0.438899
0.425832
0.410749
0.39563
0.382281
0.372486
0.367514
0.367656
0.37177
0.378038
0.384658
0.39077
0.395983
0.400552
0.404513
0.40829
0.411771
0.415383
0.418803
0.422557
0.426094
0.430156
0.433911
0.438444
0.442525
0.447742
0.45228
0.458457
0.463657
0.471182
0.477215
0.486042
0.492095
0.500624
0.504348
0.510006
0.50966
0.512858
0.512394
0.513197
0.508694
0.470474
0.441873
0.347187
0.295998
0.298235
0.348493
0.391726
0.41734
0.416631
0.411358
0.399448
0.392313
0.384045
0.380289
0.375927
0.374874
0.373576
0.374555
0.375143
0.376846
0.37775
0.378756
0.378661
0.378135
0.376578
0.374504
0.371713
0.368636
0.365385
0.362285
0.359571
0.357317
0.355742
0.354598
0.354096
0.353677
0.353663
0.353259
0.353071
0.352104
0.351355
0.349569
0.348164
0.345556
0.343548
0.340287
0.337916
0.334328
0.336516
0.33899
0.344138
0.354361
0.371992
0.39636
0.42171
0.440569
0.449152
0.44791
0.439392
0.426421
0.411368
0.39623
0.382836
0.372981
0.367932
0.367978
0.371986
0.378156
0.384706
0.390778
0.395976
0.400543
0.404511
0.408296
0.411785
0.415405
0.41883
0.422589
0.42613
0.430196
0.433954
0.438491
0.442576
0.447797
0.45234
0.458521
0.463724
0.471248
0.477279
0.486097
0.49214
0.500658
0.504378
0.510036
0.5097
0.512883
0.512393
0.513095
0.508493
0.470055
0.441035
0.346119
0.295147
0.297888
0.348766
0.392289
0.417905
0.417107
0.411749
0.399758
0.39255
0.384215
0.38041
0.376019
0.374951
0.373642
0.374609
0.37518
0.376864
0.37775
0.378742
0.378639
0.378112
0.376557
0.374489
0.371706
0.368639
0.365397
0.362306
0.359597
0.357345
0.35577
0.354621
0.35411
0.35368
0.353653
0.353235
0.353032
0.352049
0.351282
0.349478
0.348049
0.345416
0.343374
0.340077
0.33766
0.334039
0.336498
0.33894
0.344035
0.354173
0.371699
0.396011
0.421423
0.440457
0.449262
0.448235
0.439881
0.427006
0.411981
0.396823
0.383384
0.373469
0.368345
0.368296
0.372198
0.378272
0.384753
0.390786
0.395968
0.400535
0.404508
0.408302
0.411798
0.415426
0.418857
0.422621
0.426166
0.430235
0.433997
0.438537
0.442625
0.447851
0.452399
0.458584
0.46379
0.471314
0.477341
0.48615
0.492184
0.500691
0.504408
0.510065
0.509739
0.512908
0.512391
0.512992
0.508293
0.469639
0.440202
0.345053
0.29429
0.297526
0.349026
0.392844
0.418467
0.417582
0.412139
0.400069
0.392786
0.384385
0.380531
0.37611
0.375027
0.373709
0.374663
0.375216
0.376881
0.377749
0.378728
0.378618
0.378088
0.376536
0.374475
0.371699
0.368642
0.365409
0.362326
0.359623
0.357374
0.355797
0.354643
0.354125
0.353683
0.353643
0.353211
0.352992
0.351994
0.35121
0.349387
0.347935
0.345276
0.3432
0.339867
0.337405
0.333753
0.336479
0.33889
0.343933
0.353986
0.371409
0.395663
0.421136
0.440344
0.449371
0.448557
0.440367
0.427586
0.412589
0.397411
0.383927
0.373952
0.368752
0.368609
0.372407
0.378387
0.384799
0.390794
0.39596
0.400526
0.404505
0.408307
0.411812
0.415446
0.418884
0.422652
0.426202
0.430274
0.434039
0.438583
0.442675
0.447904
0.452457
0.458646
0.463855
0.471379
0.477402
0.486203
0.492228
0.500724
0.504438
0.510093
0.509777
0.512932
0.512389
0.51289
0.508094
0.469227
0.439375
0.34399
0.293426
0.297152
0.349275
0.393392
0.419025
0.418056
0.412528
0.400379
0.393023
0.384555
0.380652
0.376201
0.375104
0.373775
0.374716
0.375253
0.376899
0.377749
0.378715
0.378597
0.378065
0.376515
0.37446
0.371693
0.368644
0.365421
0.362345
0.359648
0.357402
0.355824
0.354666
0.354139
0.353687
0.353633
0.353187
0.352953
0.35194
0.351139
0.349298
0.347822
0.345138
0.343028
0.33966
0.337153
0.333469
0.336461
0.33884
0.343832
0.353801
0.37112
0.395316
0.420848
0.440229
0.449478
0.448876
0.440849
0.428162
0.413191
0.397993
0.384463
0.374429
0.369154
0.368917
0.372612
0.378498
0.384844
0.3908
0.395952
0.400518
0.404502
0.408312
0.411825
0.415467
0.41891
0.422683
0.426237
0.430313
0.43408
0.438627
0.442723
0.447957
0.452514
0.458708
0.46392
0.471443
0.477463
0.486255
0.492271
0.500756
0.504467
0.510122
0.509815
0.512955
0.512386
0.512789
0.507896
0.468817
0.438552
0.34293
0.292557
0.296766
0.349513
0.393935
0.419581
0.418529
0.412918
0.40069
0.39326
0.384725
0.380773
0.376292
0.37518
0.373841
0.37477
0.37529
0.376917
0.377749
0.378701
0.378576
0.378042
0.376494
0.374445
0.371686
0.368647
0.365433
0.362365
0.359673
0.357429
0.355851
0.354688
0.354154
0.35369
0.353624
0.353163
0.352915
0.351886
0.351068
0.349209
0.34771
0.345001
0.342857
0.339453
0.336903
0.333187
0.336443
0.338792
0.343732
0.353618
0.370832
0.394969
0.42056
0.440112
0.449582
0.449192
0.441328
0.428733
0.413788
0.39857
0.384994
0.3749
0.36955
0.369221
0.372814
0.378608
0.384887
0.390807
0.395944
0.400509
0.404499
0.408317
0.411838
0.415486
0.418936
0.422714
0.426271
0.430351
0.434121
0.438672
0.442771
0.448009
0.452571
0.458768
0.463983
0.471506
0.477523
0.486306
0.492314
0.500788
0.504496
0.510149
0.509852
0.512977
0.512382
0.512688
0.507699
0.468411
0.437734
0.341874
0.291683
0.296368
0.349743
0.394473
0.420136
0.419001
0.413308
0.401001
0.393497
0.384895
0.380893
0.376383
0.375256
0.373907
0.374823
0.375327
0.376935
0.377749
0.378688
0.378555
0.378019
0.376474
0.374431
0.37168
0.36865
0.365444
0.362384
0.359698
0.357456
0.355878
0.354711
0.354168
0.353694
0.353614
0.35314
0.352877
0.351833
0.350997
0.349121
0.347598
0.344865
0.342687
0.339249
0.336654
0.332907
0.336425
0.338744
0.343634
0.353436
0.370547
0.394624
0.420272
0.439993
0.449684
0.449505
0.441803
0.429299
0.414379
0.39914
0.385518
0.375365
0.369941
0.36952
0.373013
0.378716
0.38493
0.390813
0.395936
0.400499
0.404496
0.408322
0.41185
0.415506
0.418961
0.422744
0.426305
0.430388
0.434162
0.438716
0.442818
0.448061
0.452627
0.458828
0.464046
0.471568
0.477583
0.486357
0.492356
0.500819
0.504525
0.510177
0.509888
0.512999
0.512378
0.512587
0.507503
0.468008
0.436922
0.340821
0.290805
0.29596
0.349965
0.395007
0.420688
0.419473
0.413698
0.401311
0.393733
0.385065
0.381013
0.376473
0.375331
0.373972
0.374877
0.375363
0.376953
0.37775
0.378675
0.378534
0.377996
0.376454
0.374416
0.371673
0.368652
0.365455
0.362402
0.359722
0.357483
0.355904
0.354732
0.354182
0.353697
0.353605
0.353117
0.352839
0.351781
0.350927
0.349033
0.347487
0.344729
0.342518
0.339045
0.336408
0.33263
0.336408
0.338697
0.343536
0.353256
0.370264
0.394279
0.419983
0.439874
0.449784
0.449816
0.442274
0.429861
0.414965
0.399704
0.386037
0.375825
0.370327
0.369815
0.373208
0.378822
0.384971
0.390818
0.395927
0.40049
0.404492
0.408326
0.411862
0.415525
0.418986
0.422774
0.426339
0.430425
0.434202
0.438759
0.442865
0.448111
0.452682
0.458887
0.464108
0.47163
0.477641
0.486407
0.492397
0.50085
0.504553
0.510203
0.509924
0.51302
0.512374
0.512486
0.507309
0.467609
0.436116
0.339772
0.289922
0.295542
0.35018
0.395538
0.42124
0.419946
0.414087
0.401622
0.393969
0.385235
0.381133
0.376564
0.375406
0.374037
0.37493
0.3754
0.376971
0.37775
0.378663
0.378514
0.377974
0.376433
0.374402
0.371667
0.368654
0.365466
0.362421
0.359746
0.35751
0.35593
0.354754
0.354196
0.353701
0.353596
0.353095
0.352802
0.351728
0.350858
0.348946
0.347377
0.344595
0.342351
0.338844
0.336163
0.332355
0.336391
0.33865
0.34344
0.353078
0.369982
0.393936
0.419693
0.439752
0.449882
0.450124
0.442741
0.430417
0.415545
0.400262
0.386549
0.376278
0.370707
0.370105
0.3734
0.378926
0.385012
0.390823
0.395918
0.40048
0.404488
0.40833
0.411874
0.415544
0.41901
0.422803
0.426372
0.430462
0.434241
0.438801
0.442911
0.448162
0.452737
0.458946
0.46417
0.471691
0.477699
0.486456
0.492438
0.50088
0.50458
0.51023
0.509959
0.513041
0.512369
0.512386
0.507116
0.467213
0.435316
0.338728
0.289036
0.295114
0.350388
0.396067
0.421792
0.420418
0.414477
0.401932
0.394205
0.385404
0.381253
0.376654
0.375481
0.374102
0.374983
0.375437
0.376989
0.377751
0.37865
0.378494
0.377952
0.376413
0.374387
0.37166
0.368657
0.365477
0.362439
0.359769
0.357536
0.355955
0.354776
0.35421
0.353704
0.353588
0.353072
0.352765
0.351677
0.35079
0.34886
0.347268
0.344462
0.342185
0.338643
0.33592
0.332081
0.336374
0.338604
0.343345
0.352901
0.369703
0.393594
0.419404
0.43963
0.449977
0.450428