/*--------------------------------*- C++ -*----------------------------------*\
| =========                 |                                                 |
| \\      /  F ield         | OpenFOAM: The Open Source CFD Toolbox           |
|  \\    /   O peration     | Version:  2412                                  |
|   \\  /    A nd           | Website:  www.openfoam.com                      |
|    \\/     M anipulation  |                                                 |
\*---------------------------------------------------------------------------*/
FoamFile
{
    version     2.0;
    format      ascii;
    arch        "LSB;label=32;scalar=64";
    class       volScalarField;
    location    "0.9";
    object      p;
}
// * * * * * * * * * * * * * * * * * * * * * * * * * * * * * * * * * * * * * //

dimensions      [0 2 -2 0 0 0 0];

internalField   nonuniform List<scalar> 
13068
(
104571
104540
104491
104410
104326
104203
104086
103925
103777
103585
103418
103202
103017
102762
102542
102228
101968
101587
101297
100841
100528
99971.1
99636.2
98943.8
98596.8
97722.1
97380.6
96256.8
95950.5
94480.7
94259
92301.1
92244.6
89588.8
89828.2
86161.2
86905.9
81755
83340.3
75984.7
78948.2
68275.5
73482.3
57760.8
66613.9
43126.9
57904.2
22314.4
46658.4
-8140.48
31513
-53214.8
12216.7
-110855
-3234.62
-71528.6
4544.51
-35203.6
15652
-8333.18
24647.7
10213.7
31782.2
23664.3
38100.1
33993
43851.9
42161
49038.4
48752.2
53661
54141.3
57715
58563.5
61208.4
62195.7
64184.4
65194.1
66711.8
67695.4
68865.1
69813.3
70711
71638.8
72303.7
73243.9
73683.5
74685.6
74874.9
76010.1
75887.4
77258.3
76716.3
78472.8
77344
79704
77741.9
81010.1
77874.5
104565
104534
104485
104405
104321
104199
104082
103922
103775
103583
103417
103201
103016
102761
102541
102227
101967
101585
101296
100839
100526
99968.9
99634.1
98941.3
98594.5
97719.2
97378
96253.4
95947.6
94476.7
94255.8
92296.3
92241.1
89583.1
89824.3
86154.4
86901.6
81746.8
83335.7
75974.9
78943.4
68264
73477.6
57747.7
66609.6
43112.3
57899.9
22298.6
46653.1
-8151.6
31511.5
-53184.3
12239
-110674
-3182.79
-71495.9
4563.34
-35206.3
15652.8
-8345.1
24645.8
10204.8
31782.5
23658.8
38101.1
33988.8
43852.4
42157.3
49038.1
48748.6
53659.7
54137.5
57712.9
58559.7
61205.8
62192.2
64181.8
65191.1
66709.5
67693
68863.1
69811.5
70709.3
71637.7
72302.2
73243.2
73682
74685.4
74873.2
76010.4
75885.3
77259
76713.7
78474.1
77340.9
79706
77738.9
81012.4
77872.1
104559
104528
104480
104400
104316
104195
104079
103919
103772
103581
103416
103200
103015
102760
102540
102226
101965
101584
101294
100838
100524
99966.8
99632.1
98938.8
98592.2
97716.3
97375.4
96250
95944.8
94472.7
94252.6
92291.6
92237.5
89577.5
89820.4
86147.7
86897.3
81738.7
83331.2
75965.2
78938.7
68252.6
73473
57734.6
66605.4
43097.7
57895.7
22282.9
46647.9
-8162.51
31510.2
-53153.8
12261.5
-110495
-3131.31
-71463.5
4581.81
-35209.1
15653.6
-8356.85
24643.9
10196
31782.9
23653.2
38102.1
33984.5
43852.9
42153.6
49037.8
48745.1
53658.5
54133.8
57710.9
58555.9
61203.4
62188.7
64179.2
65188
66707.1
67690.6
68861.1
69809.8
70707.6
71636.5
72300.7
73242.6
73680.5
74685.2
74871.5
76010.6
75883.2
77259.8
76711.1
78475.5
77337.9
79707.9
77735.8
81014.7
77869.8
104552
104522
104474
104395
104311
104190
104075
103916
103770
103579
103414
103199
103014
102759
102539
102225
101964
101582
101293
100836
100522
99964.8
99630.1
98936.4
98590
97713.5
97372.9
96246.7
95941.9
94468.8
94249.4
92286.9
92234.1
89571.9
89816.5
86141
86893.2
81730.7
83326.7
75955.6
78934
68241.2
73468.4
57721.6
66601.1
43083.3
57891.4
22267.3
46642.8
-8173.23
31509
-53123.2
12284
-110317
-3080.19
-71431.4
4599.98
-35212
15654.5
-8368.44
24642.2
10187.2
31783.2
23647.6
38103
33980.3
43853.3
42149.9
49037.5
48741.5
53657.3
54130.2
57708.9
58552.2
61200.9
62185.2
64176.7
65185.1
66704.9
67688.2
68859.1
69808.1
70705.9
71635.3
72299.2
73241.9
73678.9
74685
74869.7
76010.8
75881.1
77260.5
76708.5
78476.8
77335
79709.8
77732.7
81017
77867.4
104546
104516
104469
104390
104307
104186
104071
103913
103767
103577
103413
103198
103013
102758
102538
102223
101963
101581
101291
100834
100521
99962.7
99628.1
98934
98587.7
97710.7
97370.4
96243.4
95939.1
94464.9
94246.3
92282.3
92230.6
89566.4
89812.7
86134.4
86889
81722.7
83322.2
75946
78929.4
68230
73463.8
57708.7
66596.9
43068.9
57887.2
22251.8
46637.8
-8183.81
31507.9
-53092.8
12306.4
-110140
-3029.55
-71399.5
4617.95
-35214.9
15655.3
-8379.96
24640.4
10178.5
31783.6
23642
38103.9
33976
43853.8
42146.2
49037.2
48738
53656.1
54126.5
57706.9
58548.6
61198.5
62181.8
64174.3
65182.1
66702.6
67685.9
68857.2
69806.3
70704.2
71634.2
72297.7
73241.3
73677.5
74684.8
74868
76011.1
75879
77261.2
76706
78478.1
77332
79711.6
77729.7
81019.2
77865.1
104540
104511
104463
104385
104302
104182
104068
103910
103765
103576
103411
103197
103012
102757
102537
102222
101962
101580
101290
100832
100519
99960.7
99626.2
98931.6
98585.5
97707.9
97367.9
96240.2
95936.4
94461
94243.2
92277.7
92227.1
89560.9
89808.9
86127.8
86884.9
81714.8
83317.8
75936.6
78924.8
68218.8
73459.3
57695.9
66592.7
43054.6
57883
22236.5
46632.8
-8194.27
31506.8
-53062.6
12328.7
-109966
-2979.39
-71367.9
4635.74
-35217.9
15656
-8391.43
24638.6
10169.9
31783.9
23636.5
38104.8
33971.8
43854.2
42142.6
49036.9
48734.5
53654.9
54122.9
57704.9
58544.9
61196.1
62178.4
64171.8
65179.2
66700.4
67683.6
68855.2
69804.6
70702.6
71633.1
72296.3
73240.7
73676
74684.6
74866.4
76011.3
75877
77261.9
76703.4
78479.3
77329.1
79713.5
77726.7
81021.4
77862.8
104534
104505
104458
104380
104297
104178
104064
103907
103762
103574
103410
103196
103011
102757
102536
102221
101961
101578
101288
100831
100517
99958.7
99624.2
98929.3
98583.3
97705.1
97365.5
96236.9
95933.6
94457.2
94240.1
92273.2
92223.7
89555.5
89805.2
86121.2
86880.8
81707
83313.4
75927.2
78920.2
68207.7
73454.8
57683.2
66588.5
43040.5
57878.8
22221.3
46627.8
-8204.6
31505.9
-53032.4
12350.9
-109793
-2929.71
-71336.4
4653.35
-35220.9
15656.7
-8402.84
24636.8
10161.3
31784.2
23631.1
38105.7
33967.6
43854.6
42139
49036.6
48731
53653.7
54119.3
57703
58541.3
61193.7
62175.1
64169.4
65176.3
66698.1
67681.2
68853.3
69802.9
70701
71631.9
72294.8
73240
73674.5
74684.4
74864.7
76011.5
75874.9
77262.7
76700.9
78480.6
77326.2
79715.3
77723.8
81023.5
77860.5
104528
104499
104452
104375
104293
104174
104061
103904
103760
103572
103408
103195
103010
102756
102535
102220
101960
101577
101287
100829
100516
99956.7
99622.3
98927
98581.1
97702.4
97363
96233.7
95930.9
94453.4
94237.1
92268.7
92220.4
89550.1
89801.4
86114.8
86876.7
81699.2
83309
75917.8
78915.7
68196.7
73450.3
57670.6
66584.4
43026.5
57874.7
22206.2
46623
-8214.8
31504.9
-53002.5
12373
-109621
-2880.5
-71305.2
4670.79
-35223.9
15657.3
-8414.19
24635.1
10152.8
31784.5
23625.6
38106.6
33963.5
43855
42135.4
49036.2
48727.6
53652.5
54115.8
57701
58537.7
61191.3
62171.7
64167
65173.5
66695.9
67679
68851.4
69801.3
70699.3
71630.8
72293.3
73239.4
73673
74684.2
74863
76011.8
75872.9
77263.4
76698.4
78481.9
77323.3
79717.1
77720.8
81025.7
77858.2
104522
104494
104447
104370
104288
104170
104057
103901
103758
103570
103407
103194
103009
102755
102534
102219
101958
101575
101286
100827
100514
99954.7
99620.4
98924.6
98579
97699.7
97360.6
96230.5
95928.1
94449.6
94234
92264.2
92217
89544.7
89797.7
86108.3
86872.7
81691.4
83304.7
75908.6
78911.1
68185.8
73445.9
57658.2
66580.3
43012.6
57870.6
22191.3
46618.1
-8224.88
31504.1
-52972.7
12395
-109451
-2831.76
-71274.2
4688.04
-35227
15657.9
-8425.47
24633.3
10144.4
31784.9
23620.3
38107.5
33959.4
43855.4
42131.8
49035.9
48724.1
53651.4
54112.2
57699.1
58534.2
61189
62168.4
64164.6
65170.6
66693.7
67676.7
68849.5
69799.6
70697.7
71629.7
72291.9
73238.8
73671.6
74684
74861.3
76012
75870.9
77264.1
76696
78483.1
77320.5
79718.9
77717.9
81027.8
77856
104516
104488
104441
104365
104284
104167
104054
103898
103755
103568
103406
103193
103009
102754
102534
102218
101957
101574
101284
100826
100512
99952.7
99618.5
98922.3
98576.8
97697
97358.2
96227.4
95925.4
94445.9
94231
92259.7
92213.7
89539.4
89794.1
86102
86868.7
81683.8
83300.4
75899.4
78906.7
68175
73441.5
57645.8
66576.2
42998.8
57866.5
22176.4
46613.4
-8234.84
31503.3
-52943
12416.8
-109283
-2783.5
-71243.5
4705.12
-35230.1
15658.4
-8436.67
24631.6
10136
31785.2
23614.9
38108.4
33955.3
43855.8
42128.3
49035.6
48720.7
53650.2
54108.7
57697.2
58530.7
61186.7
62165.1
64162.2
65167.8
66691.6
67674.4
68847.6
69797.9
70696.1
71628.6
72290.4
73238.1
73670.1
74683.8
74859.7
76012.2
75868.9
77264.8
76693.5
78484.4
77317.6
79720.6
77715.1
81029.9
77853.8
104510
104483
104436
104360
104279
104163
104050
103895
103753
103566
103404
103191
103008
102753
102533
102217
101956
101573
101283
100824
100511
99950.8
99616.6
98920
98574.7
97694.3
97355.8
96224.2
95922.8
94442.2
94228
92255.3
92210.3
89534.2
89790.4
86095.6
86864.7
81676.2
83296.2
75890.3
78902.2
68164.3
73437.1
57633.5
66572.1
42985.1
57862.5
22161.7
46608.6
-8244.67
31502.6
-52913.5
12438.6
-109117
-2735.7
-71212.9
4722.02
-35233.2
15658.9
-8447.8
24629.9
10127.7
31785.5
23609.6
38109.2
33951.3
43856.2
42124.8
49035.3
48717.4
53649
54105.3
57695.3
58527.2
61184.4
62161.9
64159.9
65165
66689.4
67672.2
68845.8
69796.3
70694.5
71627.5
72289
73237.5
73668.7
74683.6
74858.1
76012.4
75866.9
77265.4
76691.1
78485.6
77314.8
79722.4
77712.2
81031.9
77851.7
104504
104477
104431
104356
104275
104159
104047
103892
103750
103565
103403
103190
103007
102752
102532
102216
101955
101571
101281
100823
100509
99948.9
99614.8
98917.8
98572.6
97691.7
97353.4
96221.1
95920.1
94438.5
94225.1
92250.9
92207.1
89528.9
89786.8
86089.4
86860.8
81668.6
83291.9
75881.3
78897.8
68153.7
73432.8
57621.3
66568.1
42971.5
57858.5
22147.2
46604
-8254.38
31501.9
-52884.1
12460.2
-108952
-2688.37
-71182.6
4738.74
-35236.3
15659.3
-8458.86
24628.1
10119.5
31785.8
23604.4
38110.1
33947.3
43856.6
42121.3
49035
48714
53647.9
54101.8
57693.4
58523.7
61182.1
62158.6
64157.5
65162.2
66687.3
67670
68843.9
69794.6
70692.9
71626.4
72287.6
73236.9
73667.2
74683.4
74856.4
76012.6
75864.9
77266.1
76688.7
78486.8
77312.1
79724.1
77709.4
81034
77849.5
104499
104472
104426
104351
104271
104155
104043
103890
103748
103563
103401
103189
103006
102751
102531
102215
101954
101570
101280
100821
100508
99946.9
99612.9
98915.5
98570.5
97689.1
97351.1
96218
95917.5
94434.9
94222.1
92246.6
92203.8
89523.7
89783.2
86083.2
86856.9
81661.2
83287.7
75872.3
78893.5
68143.1
73428.5
57609.2
66564.1
42958
57854.5
22132.7
46599.4
-8263.97
31501.3
-52854.9
12481.7
-108788
-2641.51
-71152.5
4755.3
-35239.4
15659.7
-8469.84
24626.4
10111.3
31786.1
23599.2
38110.9
33943.3
43857
42117.9
49034.7
48710.7
53646.7
54098.4
57691.5
58520.3
61179.8
62155.4
64155.2
65159.4
66685.1
67667.8
68842.1
69793
70691.3
71625.3
72286.2
73236.3
73665.8
74683.2
74854.8
76012.9
75862.9
77266.8
76686.3
78488
77309.3
79725.8
77706.7
81036
77847.4
104493
104467
104421
104346
104266
104151
104040
103887
103746
103561
103400
103188
103005
102751
102530
102214
101953
101569
101279
100819
100506
99945
99611.1
98913.3
98568.5
97686.5
97348.7
96215
95914.9
94431.2
94219.2
92242.3
92200.6
89518.6
89779.7
86077
86853
81653.7
83283.6
75863.5
78889.2
68132.6
73424.2
57597.2
66560.2
42944.6
57850.6
22118.4
46594.8
-8273.44
31500.8
-52825.8
12503.1
-108626
-2595.1
-71122.7
4771.68
-35242.6
15660.1
-8480.73
24624.7
10103.2
31786.4
23594
38111.8
33939.3
43857.4
42114.4
49034.4
48707.4
53645.6
54095
57689.6
58516.9
61177.5
62152.3
64152.9
65156.7
66683
67665.6
68840.2
69791.4
70689.8
71624.2
72284.8
73235.7
73664.4
74683
74853.2
76013.1
75861
77267.5
76683.9
78489.2
77306.6
79727.5
77703.9
81038
77845.4
104487
104461
104416
104342
104262
104148
104037
103884
103744
103559
103399
103187
103004
102750
102529
102213
101952
101568
101277
100818
100504
99943.2
99609.3
98911.1
98566.4
97683.9
97346.4
96211.9
95912.3
94427.7
94216.3
92238
92197.4
89513.5
89776.1
86070.9
86849.1
81646.4
83279.4
75854.7
78884.9
68122.3
73420
57585.3
66556.2
42931.4
57846.7
22104.3
46590.3
-8282.79
31500.3
-52797
12524.4
-108466
-2549.15
-71093.1
4787.89
-35245.7
15660.5
-8491.54
24623.1
10095.2
31786.7
23588.9
38112.6
33935.4
43857.8
42111
49034.1
48704.2
53644.5
54091.7
57687.8
58513.5
61175.3
62149.1
64150.6
65154
66680.9
67663.4
68838.4
69789.8
70688.2
71623.2
72283.4
73235.1
73663
74682.9
74851.7
76013.3
75859.1
77268.2
76681.6
78490.4
77303.9
79729.2
77701.2
81039.9
77843.3
104482
104456
104410
104337
104258
104144
104033
103881
103741
103558
103397
103186
103003
102749
102528
102212
101951
101566
101276
100816
100503
99941.3
99607.5
98908.9
98564.4
97681.3
97344.1
96208.9
95909.7
94424.1
94213.5
92233.8
92194.2
89508.5
89772.6
86064.8
86845.3
81639.1
83275.4
75845.9
78880.6
68112
73415.8
57573.5
66552.3
42918.3
57842.8
22090.2
46585.8
-8292.02
31499.9
-52768.2
12545.6
-108307
-2503.66
-71063.7
4803.94
-35248.9
15660.8
-8502.26
24621.4
10087.3
31787
23583.8
38113.5
33931.6
43858.2
42107.7
49033.8
48700.9
53643.4
54088.3
57686
58510.1
61173.1
62146
64148.4
65151.3
66678.8
67661.3
68836.6
69788.2
70686.7
71622.1
72282
73234.5
73661.6
74682.7
74850.1
76013.5
75857.2
77268.8
76679.3
78491.6
77301.3
79730.9
77698.5
81041.9
77841.3
104476
104451
104406
104333
104254
104140
104030
103879
103739
103556
103396
103185
103003
102748
102527
102211
101949
101565
101275
100815
100501
99939.4
99605.7
98906.8
98562.3
97678.8
97341.9
96205.9
95907.2
94420.6
94210.6
92229.6
92191
89503.4
89769.2
86058.8
86841.5
81631.9
83271.3
75837.3
78876.4
68101.8
73411.7
57561.8
66548.5
42905.2
57839
22076.3
46581.4
-8301.14
31499.5
-52739.7
12566.6
-108150
-2458.63
-71034.5
4819.83
-35252.1
15661.1
-8512.9
24619.8
10079.4
31787.3
23578.8
38114.3
33927.7
43858.6
42104.3
49033.5
48697.7
53642.3
54085
57684.2
58506.8
61170.9
62142.9
64146.1
65148.6
66676.8
67659.2
68834.8
69786.7
70685.2
71621.1
72280.6
73233.9
73660.2
74682.5
74848.5
76013.7
75855.3
77269.5
76677
78492.7
77298.6
79732.5
77695.9
81043.8
77839.3
104471
104446
104401
104328
104250
104137
104027
103876
103737
103554
103395
103184
103002
102747
102526
102210
101948
101564
101274
100813
100500
99937.6
99603.9
98904.6
98560.3
97676.3
97339.6
96203
95904.6
94417.1
94207.8
92225.5
92187.9
89498.5
89765.7
86052.8
86837.8
81624.7
83267.3
75828.7
78872.2
68091.7
73407.5
57550.3
66544.6
42892.3
57835.2
22062.5
46577.1
-8310.14
31499.2
-52711.3
12587.5
-107995
-2414.05
-71005.6
4835.55
-35255.2
15661.4
-8523.44
24618.1
10071.6
31787.7
23573.8
38115.1
33923.9
43859
42101
49033.2
48694.5
53641.2
54081.7
57682.4
58503.5
61168.7
62139.8
64143.9
65146
66674.7
67657.1
68833.1
69785.1
70683.7
71620
72279.2
73233.3
73658.9
74682.3
74847
76013.9
75853.4
77270.1
76674.7
78493.9
77296
79734.1
77693.3
81045.7
77837.3
104465
104441
104396
104324
104245
104133
104024
103873
103735
103553
103394
103183
103001
102746
102526
102209
101947
101562
101272
100812
100498
99935.8
99602.2
98902.5
98558.3
97673.8
97337.4
96200.1
95902.1
94413.6
94205
92221.3
92184.8
89493.5
89762.3
86046.9
86834.1
81617.6
83263.3
75820.2
78868
68081.7
73403.4
57538.8
66540.8
42879.5
57831.4
22048.8
46572.8
-8319.02
31498.9
-52683.1
12608.3
-107841
-2369.91
-70976.9
4851.11
-35258.4
15661.7
-8533.9
24616.5
10063.8
31788
23568.8
38115.9
33920.1
43859.3
42097.8
49032.9
48691.4
53640.1
54078.5
57680.6
58500.3
61166.5
62136.7
64141.7
65143.4
66672.7
67655
68831.3
69783.6
70682.1
71619
72277.9
73232.7
73657.5
74682.1
74845.4
76014.2
75851.5
77270.8
76672.4
78495
77293.4
79735.7
77690.7
81047.5
77835.4
104460
104436
104391
104320
104241
104129
104020
103871
103732
103551
103392
103182
103000
102746
102525
102208
101946
101561
101271
100810
100497
99934
99600.4
98900.4
98556.4
97671.3
97335.2
96197.1
95899.6
94410.2
94202.2
92217.2
92181.7
89488.7
89758.9
86041.1
86830.4
81610.6
83259.3
75811.8
78863.9
68071.7
73399.4
57527.4
66537
42866.8
57827.6
22035.2
46568.5
-8327.79
31498.7
-52655
12628.9
-107689
-2326.23
-70948.5
4866.52
-35261.5
15662
-8544.25
24615
10056.1
31788.3
23564
38116.7
33916.4
43859.7
42094.5
49032.6
48688.2
53639
54075.3
57678.8
58497
61164.4
62133.7
64139.5
65140.7
66670.7
67652.9
68829.6
69782
70680.7
71618
72276.5
73232.2
73656.2
74681.9
74843.9
76014.4
75849.7
77271.4
76670.2
78496.1
77290.8
79737.3
77688.1
81049.4
77833.4
104455
104431
104386
104315
104237
104126
104017
103868
103730
103549
103391
103181
102999
102745
102524
102207
101945
101560
101270
100809
100495
99932.2
99598.7
98898.3
98554.4
97668.9
97333
96194.3
95897.2
94406.8
94199.5
92213.2
92178.7
89483.8
89755.6
86035.2
86826.7
81603.6
83255.4
75803.4
78859.8
68061.9
73395.4
57516.1
66533.3
42854.2
57823.9
22021.8
46564.3
-8336.44
31498.5
-52627.2
12649.5
-107538
-2282.99
-70920.2
4881.78
-35264.6
15662.3
-8554.52
24613.4
10048.5
31788.6
23559.1
38117.5
33912.7
43860.1
42091.3
49032.3
48685.1
53637.9
54072.1
57677.1
58493.8
61162.3
62130.7
64137.3
65138.2
66668.7
67650.8
68827.8
69780.5
70679.2
71616.9
72275.2
73231.6
73654.8
74681.8
74842.4
76014.6
75847.8
77272.1
76667.9
78497.3
77288.3
79738.9
77685.6
81051.2
77831.5
104449
104426
104381
104311
104233
104122
104014
103866
103728
103548
103390
103181
102998
102744
102523
102206
101944
101559
101269
100807
100494
99930.5
99597
98896.2
98552.5
97666.4
97330.8
96191.4
95894.7
94403.4
94196.8
92209.2
92175.7
89479
89752.3
86029.5
86823.1
81596.7
83251.5
75795.1
78855.8
68052.1
73391.4
57504.9
66529.6
42841.8
57820.2
22008.5
46560.2
-8344.99
31498.4
-52599.5
12669.8
-107389
-2240.19
-70892.3
4896.88
-35267.7
15662.5
-8564.68
24611.9
10041
31788.9
23554.3
38118.3
33909
43860.4
42088.1
49032
48682.1
53636.9
54068.9
57675.3
58490.6
61160.2
62127.8
64135.2
65135.6
66666.7
67648.8
68826.1
69779
70677.7
71615.9
72273.9
73231
73653.5
74681.6
74840.9
76014.8
75846
77272.7
76665.7
78498.4
77285.8
79740.4
77683.1
81053
77829.7
104444
104421
104377
104307
104229
104119
104011
103863
103726
103546
103389
103180
102998
102743
102522
102205
101943
101558
101267
100806
100492
99928.7
99595.3
98894.1
98550.6
97664
97328.6
96188.6
95892.3
94400
94194.1
92205.2
92172.7
89474.3
89749
86023.8
86819.5
81589.8
83247.7
75786.9
78851.8
68042.5
73387.4
57493.8
66525.9
42829.4
57816.6
21995.3
46556.1
-8353.42
31498.3
-52572
12690.1
-107241
-2197.84
-70864.5
4911.83
-35270.8
15662.8
-8574.75
24610.4
10033.6
31789.2
23549.5
38119.1
33905.3
43860.8
42084.9
49031.7
48679
53635.8
54065.8
57673.6
58487.5
61158.1
62124.8
64133
65133.1
66664.8
67646.7
68824.4
69777.5
70676.2
71614.9
72272.6
73230.5
73652.2
74681.4
74839.4
76015
75844.2
77273.3
76663.6
78499.5
77283.3
79741.9
77680.6
81054.7
77827.8
104439
104416
104372
104303
104225
104116
104008
103861
103724
103544
103387
103179
102997
102742
102521
102204
101942
101556
101266
100804
100491
99927
99593.6
98892.1
98548.7
97661.6
97326.5
96185.8
95889.9
94396.7
94191.4
92201.3
92169.7
89469.6
89745.7
86018.1
86815.9
81583
83243.8
75778.8
78847.8
68032.9
73383.5
57482.9
66522.3
42817.2
57813
21982.3
46552
-8361.74
31498.2
-52544.7
12710.2
-107095
-2155.92
-70837
4926.64
-35273.8
15663.1
-8584.72
24608.9
10026.2
31789.5
23544.8
38119.9
33901.7
43861.1
42081.8
49031.4
48676
53634.8
54062.7
57671.9
58484.3
61156
62121.9
64130.9
65130.6
66662.8
67644.7
68822.7
69776
70674.8
71613.9
72271.3
73229.9
73650.9
74681.2
74837.9
76015.2
75842.4
77273.9
76661.4
78500.5
77280.8
79743.4
77678.1
81056.5
77826
104434
104411
104368
104298
104222
104112
104005
103858
103722
103543
103386
103178
102996
102742
102521
102203
101941
101555
101265
100803
100489
99925.3
99592
98890.1
98546.8
97659.3
97324.4
96183
95887.6
94393.4
94188.7
92197.3
92166.8
89464.9
89742.4
86012.5
86812.4
81576.3
83240
75770.8
78843.9
68023.4
73379.6
57472
66518.6
42805
57809.4
21969.4
46548
-8369.95
31498.3
-52517.5
12730.2
-106950
-2114.44
-70809.7
4941.3
-35276.8
15663.3
-8594.59
24607.4
10018.9
31789.9
23540.1
38120.6
33898.1
43861.5
42078.6
49031.1
48673
53633.7
54059.6
57670.2
58481.2
61153.9
62119
64128.8
65128.1
66660.9
67642.7
68821.1
69774.5
70673.4
71612.9
72270
73229.3
73649.6
74681.1
74836.4
76015.4
75840.6
77274.6
76659.3
78501.6
77278.4
79744.9
77675.7
81058.2
77824.2
104429
104407
104363
104294
104218
104109
104002
103856
103720
103541
103385
103177
102995
102741
102520
102202
101940
101554
101264
100801
100488
99923.6
99590.3
98888.1
98544.9
97656.9
97322.3
96180.2
95885.2
94390.2
94186.1
92193.5
92163.9
89460.3
89739.2
86007
86808.9
81569.6
83236.3
75762.8
78840
68014
73375.8
57461.2
66515.1
42793
57805.9
21956.6
46544.1
-8378.05
31498.3
-52490.6
12750
-106807
-2073.39
-70782.7
4955.83
-35279.8
15663.6
-8604.35
24606
10011.7
31790.2
23535.5
38121.4
33894.6
43861.8
42075.6
49030.8
48670
53632.7
54056.5
57668.5
58478.2
61151.9
62116.1
64126.8
65125.6
66659
67640.8
68819.4
69773.1
70671.9
71612
72268.7
73228.8
73648.3
74680.9
74835
76015.6
75838.9
77275.2
76657.1
78502.7
77276
79746.4
77673.3
81059.9
77822.5
104424
104402
104358
104290
104214
104106
103999
103853
103718
103540
103384
103176
102995
102740
102519
102201
101939
101553
101263
100800
100487
99921.9
99588.7
98886.1
98543.1
97654.6
97320.2
96177.5
95882.9
94386.9
94183.5
92189.6
92161
89455.7
89736.1
86001.5
86805.4
81563
83232.6
75754.9
78836.1
68004.7
73372
57450.5
66511.5
42781.1
57802.3
21943.9
46540.2
-8386.05
31498.4
-52463.8
12769.7
-106665
-2032.78
-70755.9
4970.21
-35282.7
15663.9
-8614.01
24604.6
10004.5
31790.5
23530.9
38122.2
33891.1
43862.2
42072.5
49030.5
48667.1
53631.7
54053.5
57666.8
58475.1
61149.9
62113.3
64124.7
65123.1
66657.1
67638.8
68817.7
69771.6
70670.5
71611
72267.4
73228.2
73647
74680.7
74833.5
76015.8
75837.1
77275.8
76655
78503.7
77273.6
79747.9
77671
81061.6
77820.7
104419
104398
104354
104286
104210
104102
103996
103851
103716
103538
103383
103175
102994
102739
102518
102200
101938
101552
101261
100799
100485
99920.2
99587.1
98884.1
98541.3
97652.3
97318.1
96174.8
95880.6
94383.8
94180.9
92185.8
92158.1
89451.1
89732.9
85996
86802
81556.4
83228.9
75747
78832.3
67995.4
73368.2
57439.9
66508
42769.3
57798.9
21931.4
46536.3
-8393.93
31498.5
-52437.2
12789.3
-106525
-1992.59
-70729.3
4984.46
-35285.6
15664.2
-8623.57
24603.2
9997.42
31790.8
23526.4
38122.9
33887.6
43862.5
42069.5
49030.2
48664.2
53630.7
54050.5
57665.2
58472.1
61147.9
62110.5
64122.7
65120.7
66655.2
67636.9
68816.1
69770.2
70669.1
71610
72266.1
73227.7
73645.7
74680.6
74832.1
76016
75835.4
77276.4
76652.9
78504.8
77271.2
79749.3
77668.6
81063.3
77819
104414
104393
104350
104282
104206
104099
103993
103848
103714
103537
103381
103174
102993
102739
102517
102199
101937
101551
101260
100797
100484
99918.6
99585.5
98882.2
98539.4
97650
97316.1
96172.1
95878.3
94380.6
94178.4
92182.1
92155.3
89446.6
89729.8
85990.6
86798.6
81550
83225.2
75739.3
78828.5
67986.3
73364.5
57429.4
66504.5
42757.6
57795.4
21919
46532.5
-8401.72
31498.7
-52410.8
12808.7
-106387
-1952.84
-70703
4998.58
-35288.5
15664.5
-8633.03
24601.8
9990.42
31791.1
23521.9
38123.7
33884.1
43862.8
42066.5
49029.9
48661.3
53629.7
54047.5
57663.6
58469.1
61145.9
62107.7
64120.6
65118.3
66653.3
67634.9
68814.5
69768.8
70667.7
71609.1
72264.9
73227.2
73644.5
74680.4
74830.7
76016.2
75833.7
77277
76650.9
78505.8
77268.9
79750.7
77666.3
81064.9
77817.3
104409
104388
104345
104278
104203
104096
103990
103846
103712
103535
103380
103173
102992
102738
102517
102198
101936
101550
101259
100796
100483
99916.9
99583.9
98880.3
98537.6
97647.8
97314.1
96169.5
95876
94377.4
94175.8
92178.3
92152.5
89442.2
89726.7
85985.3
86795.2
81543.5
83221.6
75731.6
78824.7
67977.2
73360.7
57419.1
66501
42746
57792
21906.7
46528.8
-8409.39
31498.9
-52384.6
12827.9
-106250
-1913.51
-70676.9
5012.57
-35291.3
15664.8
-8642.38
24600.5
9983.49
31791.5
23517.4
38124.4
33880.7
43863.2
42063.5
49029.7
48658.4
53628.7
54044.6
57661.9
58466.2
61143.9
62104.9
64118.6
65115.9
66651.5
67633
68812.9
69767.4
70666.3
71608.1
72263.7
73226.6
73643.2
74680.2
74829.3
76016.4
75832
77277.6
76648.8
78506.8
77266.6
79752.1
77664
81066.5
77815.6
104405
104384
104341
104274
104199
104093
103987
103844
103710
103534
103379
103172
102992
102737
102516
102197
101935
101549
101258
100795
100481
99915.3
99582.4
98878.4
98535.9
97645.6
97312.1
96166.9
95873.7
94374.3
94173.3
92174.7
92149.7
89437.8
89723.6
85980
86791.9
81537.2
83218
75724
78821
67968.3
73357.1
57408.8
66497.6
42734.6
57788.6
21894.5
46525.1
-8416.96
31499.2
-52358.6
12847
-106114
-1874.6
-70651
5026.43
-35294.1
15665.1
-8651.62
24599.2
9976.63
31791.8
23513
38125.1
33877.3
43863.5
42060.5
49029.4
48655.6
53627.7
54041.7
57660.3
58463.2
61142
62102.2
64116.6
65113.6
66649.7
67631.1
68811.3
69766
70665
71607.2
72262.4
73226.1
73642
74680.1
74827.9
76016.6
75830.3
77278.1
76646.8
78507.8
77264.3
79753.5
77661.8
81068.1
77814
104400
104380
104337
104271
104196
104089
103985
103841
103708
103532
103378
103172
102991
102736
102515
102196
101934
101547
101257
100793
100480
99913.7
99580.8
98876.5
98534.1
97643.4
97310.1
96164.3
95871.5
94371.3
94170.9
92171
92146.9
89433.4
89720.6
85974.7
86788.6
81530.9
83214.5
75716.5
78817.3
67959.4
73353.4
57398.6
66494.2
42723.2
57785.2
21882.4
46521.4
-8424.43
31499.5
-52332.8
12866
-105980
-1836.12
-70625.4
5040.17
-35296.9
15665.5
-8660.76
24597.9
9969.85
31792.1
23508.7
38125.9
33874
43863.8
42057.6
49029.1
48652.7
53626.7
54038.8
57658.7
58460.3
61140.1
62099.5
64114.7
65111.2
66647.8
67629.3
68809.7
69764.6
70663.6
71606.3
72261.2
73225.6
73640.8
74679.9
74826.5
76016.8
75828.7
77278.7
76644.8
78508.8
77262
79754.9
77659.5
81069.7
77812.3
104395
104375
104333
104267
104192
104086
103982
103839
103706
103531
103377
103171
102990
102736
102514
102195
101933
101546
101256
100792
100479
99912.1
99579.3
98874.6
98532.4
97641.2
97308.1
96161.7
95869.3
94368.2
94168.4
92167.4
92144.2
89429.1
89717.6
85969.6
86785.3
81524.6
83211
75709
78813.7
67950.6
73349.8
57388.5
66490.8
42712
57781.9
21870.5
46517.8
-8431.8
31499.8
-52307.2
12884.8
-105847
-1798.06
-70600
5053.78
-35299.6
15665.8
-8669.8
24596.6
9963.14
31792.4
23504.3
38126.6
33870.7
43864.1
42054.7
49028.8
48650
53625.7
54035.9
57657.2
58457.5
61138.2
62096.8
64112.7
65108.9
66646
67627.4
68808.1
69763.2
70662.3
71605.3
72260
73225
73639.5
74679.7
74825.1
76017
75827
77279.3
76642.8
78509.8
77259.8
79756.3
77657.3
81071.2
77810.7
104391
104371
104328
104263
104188
104083
103979
103837
103704
103529
103376
103170
102989
102735
102513
102194
101933
101545
101255
100791
100477
99910.5
99577.8
98872.8
98530.6
97639
97306.2
96159.1
95867.1
94365.2
94166
92163.8
92141.5
89424.8
89714.6
85964.4
86782
81518.5
83207.5
75701.6
78810
67941.9
73346.3
57378.5
66487.5
42700.8
57778.6
21858.7
46514.2
-8439.06
31500.1
-52281.8
12903.4
-105716
-1760.41
-70574.9
5067.27
-35302.2
15666.2
-8678.72
24595.4
9956.51
31792.8
23500.1
38127.3
33867.4
43864.5
42051.8
49028.5
48647.2
53624.8
54033.1
57655.6
58454.6
61136.3
62094.1
64110.8
65106.6
66644.3
67625.6
68806.6
69761.8
70660.9
71604.4
72258.8
73224.5
73638.3
74679.6
74823.8
76017.1
75825.4
77279.8
76640.9
78510.8
77257.6
79757.6
77655.2
81072.8
77809.2
104386
104367
104324
104259
104185
104080
103976
103835
103702
103528
103375
103169
102989
102734
102513
102193
101932
101544
101254
100789
100476
99909
99576.3
98871
98528.9
97636.9
97304.2
96156.6
95865
94362.2
94163.6
92160.2
92138.8
89420.6
89711.7
85959.3
86778.8
81512.4
83204.1
75694.3
78806.5
67933.3
73342.7
57368.7
66484.2
42689.8
57775.4
21847.1
46510.7
-8446.22
31500.5
-52256.7
12921.9
-105587
-1723.19
-70549.9
5080.64
-35304.8
15666.6
-8687.54
24594.2
9949.95
31793.1
23495.8
38128
33864.1
43864.8
42049
49028.3
48644.5
53623.8
54030.3
57654
58451.8
61134.4
62091.5
64108.9
65104.3
66642.5
67623.8
68805.1
69760.5
70659.6
71603.5
72257.6
73224
73637.1
74679.4
74822.4
76017.3
75823.8
77280.4
76638.9
78511.7
77255.4
79758.9
77653
81074.3
77807.6
104382
104362
104320
104256
104182
104077
103974
103832
103700
103527
103374
103168
102988
102733
102512
102193
101931
101543
101253
100788
100475
99907.5
99574.8
98869.1
98527.2
97634.7
97302.3
96154.1
95862.8
94359.3
94161.2
92156.7
92136.2
89416.4
89708.7
85954.3
86775.7
81506.3
83200.7
75687.1
78802.9
67924.8
73339.2
57358.9
66480.9
42678.9
57772.1
21835.5
46507.2
-8453.29
31500.9
-52231.7
12940.3
-105458
-1686.37
-70525.3
5093.9
-35307.3
15667
-8696.26
24593
9943.46
31793.4
23491.7
38128.7
33860.9
43865.1
42046.2
49028
48641.8
53622.9
54027.5
57652.5
58449
61132.5
62088.9
64107
65102.1
66640.7
67622
68803.5
69759.1
70658.3
71602.6
72256.4
73223.5
73636
74679.3
74821.1
76017.5
75822.2
77281
76637
78512.7
77253.2
79760.2
77650.9
81075.8
77806.1
104377
104358
104316
104252
104178
104074
103971
103830
103699
103525
103373
103167
102987
102733
102511
102192
101930
101542
101252
100787
100473
99905.9
99573.3
98867.4
98525.6
97632.6
97300.5
96151.6
95860.7
94356.4
94158.8
92153.3
92133.5
89412.2
89705.9
85949.3
86772.5
81500.3
83197.3
75679.9
78799.4
67916.4
73335.8
57349.2
66477.7
42668.1
57769
21824.1
46503.8
-8460.25
31501.4
-52206.9
12958.5
-105332
-1649.98
-70500.8
5107.05
-35309.8
15667.5
-8704.87
24591.8
9937.05
31793.8
23487.5
38129.4
33857.7
43865.4
42043.4
49027.7
48639.1
53621.9
54024.7
57651
58446.2
61130.7
62086.3
64105.1
65099.9
66639
67620.2
68802
69757.8
70657
71601.7
72255.2
73223
73634.8
74679.1
74819.8
76017.7
75820.6
77281.5
76635.1
78513.6
77251.1
79761.5
77648.8
81077.2
77804.5
104373
104354
104312
104248
104175
104071
103968
103828
103697
103524
103372
103167
102987
102732
102511
102191
101929
101541
101251
100786
100472
99904.4
99571.8
98865.6
98523.9
97630.6
97298.6
96149.2
95858.6
94353.5
94156.5
92149.8
92130.9
89408.1
89703
85944.4
86769.4
81494.4
83193.9
75672.9
78795.9
67908
73332.3
57339.6
66474.5
42657.4
57765.8
21812.8
46500.4
-8467.11
31501.9
-52182.3
12976.5
-105206
-1613.99
-70476.6
5120.08
-35312.2
15667.9
-8713.37
24590.7
9930.71
31794.1
23483.4
38130.1
33854.6
43865.7
42040.6
49027.4
48636.4
53621
54022
57649.5
58443.5
61128.9
62083.7
64103.2
65097.6
66637.3
67618.4
68800.5
69756.5
70655.7
71600.8
72254.1
73222.5
73633.6
74678.9
74818.5
76017.9
75819
77282.1
76633.2
78514.6
77249
79762.8
77646.7
81078.7
77803
104368
104350
104308
104245
104171
104068
103966
103826
103695
103523
103371
103166
102986
102731
102510
102190
101928
101540
101250
100784
100471