/*--------------------------------*- C++ -*----------------------------------*\
| =========                 |                                                 |
| \\      /  F ield         | OpenFOAM: The Open Source CFD Toolbox           |
|  \\    /   O peration     | Version:  2412                                  |
|   \\  /    A nd           | Website:  www.openfoam.com                      |
|    \\/     M anipulation  |                                                 |
\*---------------------------------------------------------------------------*/
FoamFile
{
    version     2.0;
    format      ascii;
    arch        "LSB;label=32;scalar=64";
    class       surfaceScalarField;
    location    "0.9";
    object      phi;
}
// * * * * * * * * * * * * * * * * * * * * * * * * * * * * * * * * * * * * * //

dimensions      [0 3 -1 0 0 0 0];

oriented        oriented;

internalField   nonuniform List<scalar> 
25905
(
0.00747793
-0.0129325
0.00739583
-0.011255
0.00732786
-0.00973858
0.00727114
-0.00847694
0.00722365
-0.00738002
0.0071838
-0.00631569
0.00715237
-0.00487548
0.00713066
-0.00280202
0.00712053
-7.02246e-05
0.00712393
0.00298004
0.00714286
0.00586529
0.00717848
0.00813898
0.00722959
0.00951024
0.00729202
0.00992432
0.00735879
0.00948835
0.00742256
0.00850848
0.00747777
0.00729055
0.0075233
0.00619909
0.00756071
0.00530863
0.00759299
0.0046867
0.00762152
0.00415493
0.0076475
0.00375477
0.00767065
0.00332623
0.00769202
0.00304229
0.00771088
0.00267858
0.00772854
0.00248726
0.00774384
0.00216027
0.00775843
0.00204599
0.00777052
0.00171497
0.00778252
0.00168835
0.00779167
0.00132157
0.00780135
0.00137869
0.00780757
0.000942927
0.00781521
0.00111609
0.00781854
0.000580966
0.00782445
0.000900921
0.00782474
0.000215572
0.00782925
0.000750555
0.00782625
-0.000153786
0.00782962
0.000668285
0.00782332
-0.000476153
0.00782693
0.000790063
0.00781928
-0.000566631
0.00782716
0.00129783
0.00782301
-0.00031128
0.00784044
0.00202787
0.00784183
-0.000339784
0.00786238
0.00136092
0.00785484
-0.00262371
0.00784488
-0.004296
0.00779259
-0.0106573
0.00764438
-0.0254667
0.00737318
-0.0419806
0.0074402
0.00914817
0.00763996
0.0296729
0.00775838
0.0167531
0.00780089
0.00730897
0.00783631
0.00673978
0.00783706
0.00204922
0.0078383
0.00180051
0.00781741
-0.00135182
0.00780582
-0.000454055
0.0077856
-0.00185953
0.00777794
-0.000468468
0.00776613
-0.00111359
0.00776446
0.000133957
0.0077601
-0.000249226
0.00776351
0.000686113
0.0077651
0.000374333
0.00777202
0.000981631
0.00777677
0.000649531
0.00778374
0.000911483
0.00778742
0.0004973
0.00779081
0.000478684
0.00779036
1.41619e-05
0.00778831
-0.000169219
0.00778266
-0.000608865
0.00777501
-0.000851949
0.00776462
-0.00119052
0.00775264
-0.00139406
0.00773906
-0.00159873
0.00772458
-0.00173592
0.00770981
-0.00178914
0.00769481
-0.00186372
0.00768067
-0.00178169
0.00766661
-0.00183312
0.00765414
-0.0016538
0.00764153
-0.0017293
0.0076311
-0.00146187
0.00761963
-0.00162288
0.00761088
-0.0012798
0.00759989
-0.00153872
0.00759249
-0.00110793
0.0075815
-0.0014403
0.0075754
-0.000919089
0.00756487
-0.00122226
0.00756084
-0.000617332
0.007553
-0.000746767
0.000257976
0.00747789
-0.0128346
0.00739568
-0.0111728
0.00732752
-0.00967043
0.00727059
-0.00842
0.00722286
-0.00733229
0.00718279
-0.00627561
0.0071512
-0.00484389
0.00712948
-0.0027803
0.00711955
-6.02943e-05
0.00712335
0.00297624
0.00714286
0.00584579
0.00717912
0.00810272
0.00723082
0.00945855
0.00729367
0.00986146
0.00736066
0.00942136
0.00742448
0.00844467
0.00747968
0.00723535
0.00752523
0.00615354
0.00756269
0.00527117
0.00759504
0.00465435
0.00762364
0.00412633
0.00764969
0.00372872
0.00767289
0.00330302
0.00769431
0.00302088
0.0077132
0.00265968
0.0077309
0.00246957
0.00774622
0.00214495
0.00776084
0.00203137
0.00777295
0.00170285
0.00778497
0.00167633
0.00779414
0.0013124
0.00780384
0.00136899
0.00781008
0.000936687
0.00781774
0.00110843
0.0078211
0.000577613
0.00782701
0.000895005
0.00782733
0.000215253
0.00783186
0.000746029
0.00782888
-0.000150813
0.00783228
0.000664886
0.00782603
-0.000469899
0.00782968
0.00078641
0.00782211
-0.000559058
0.00783005
0.00128988
0.00782597
-0.000307194
0.00784339
0.00201045
0.00784474
-0.000341135
0.0078651
0.00134055
0.00785734
-0.00261595
0.00784689
-0.00428554
0.00779394
-0.0106044
0.00764461
-0.0253174
0.00737214
-0.0417081
0.00743917
0.00908113
0.00763963
0.0294724
0.00775841
0.0166343
0.00780129
0.00726609
0.00783705
0.00670401
0.00783809
0.00204818
0.00783958
0.00179903
0.00781888
-0.00133112
0.00780743
-0.000442607
0.0077873
-0.0018394
0.00777967
-0.000460838
0.00776787
-0.00110179
0.00776619
0.000135636
0.00776182
-0.000244849
0.0077652
0.000682727
0.00776676
0.000372777
0.00777364
0.000974747
0.00777835
0.000644827
0.00778528
0.000904553
0.00778893
0.000493644
0.0077923
0.000475322
0.00779184
1.46178e-05
0.00778979
-0.000167173
0.00778416
-0.000603232
0.00777654
-0.000844327
0.00776617
-0.00118015
0.00775423
-0.00138211
0.00774068
-0.00158518
0.00772623
-0.00172148
0.00771149
-0.0017744
0.00769652
-0.00184875
0.00768239
-0.00176756
0.00766833
-0.00181906
0.00765587
-0.00164134
0.00764325
-0.00171668
0.00763281
-0.00145143
0.00762134
-0.00161141
0.00761259
-0.00127105
0.00760161
-0.00152774
0.00759422
-0.00110054
0.00758328
-0.00142936
0.00757723
-0.000913033
0.00756681
-0.00121184
0.00756286
-0.000613384
0.00755519
-0.000739103
0.000254794
0.00747785
-0.0127367
0.00739552
-0.0110904
0.0073272
-0.0096021
0.00727005
-0.00836285
0.00722208
-0.00728433
0.00718178
-0.00623532
0.00715005
-0.00481215
0.00712832
-0.00275858
0.00711858
-5.05532e-05
0.00712278
0.00297203
0.00714285
0.00582571
0.00717975
0.00806582
0.00723203
0.00940627
0.0072953
0.0097982
0.0073625
0.00935416
0.00742637
0.0083808
0.00748157
0.00718015
0.00752713
0.00610798
0.00756464
0.00523365
0.00759707
0.00462192
0.00762574
0.00409766
0.00765185
0.00370261
0.00767511
0.00327976
0.00769657
0.00299942
0.00771551
0.00264074
0.00773323
0.00245185
0.00774858
0.0021296
0.00776322
0.00201673
0.00777536
0.00169071
0.00778741
0.00166428
0.0077966
0.00130321
0.00780632
0.00135927
0.00781258
0.000930427
0.00782026
0.00110075
0.00782363
0.000574239
0.00782956
0.000889072
0.0078299
0.000214913
0.00783445
0.000741486
0.0078315
-0.000147868
0.00783493
0.00066146
0.00782872
-0.000463692
0.00783242
0.000782709
0.00782492
-0.000551558
0.00783292
0.00128188
0.0078289
-0.00030317
0.00784631
0.00199304
0.00784762
-0.000342444
0.00786781
0.00132036
0.00785981
-0.00260794
0.00784887
-0.00427461
0.00779528
-0.0105508
0.00764483
-0.0251669
0.0073711
-0.0414344
0.00743816
0.00901408
0.00763931
0.0292713
0.00775845
0.0165152
0.00780168
0.00722286
0.00783779
0.00666791
0.00783912
0.00204685
0.00784084
0.0017973
0.00782034
-0.00131062
0.00780904
-0.000431301
0.00778899
-0.00181935
0.00778139
-0.000453239
0.0077696
-0.00109
0.00776792
0.000137322
0.00776353
-0.00024046
0.00776689
0.000679365
0.00776841
0.000371254
0.00777525
0.000967904
0.00777992
0.000640165
0.00778681
0.000897662
0.00779043
0.000490017
0.00779378
0.000471978
0.00779332
1.50793e-05
0.00779128
-0.000165133
0.00778566
-0.000597615
0.00777806
-0.000836728
0.00776772
-0.00116981
0.00775581
-0.0013702
0.00774229
-0.00157166
0.00772788
-0.00170706
0.00771316
-0.00175968
0.00769821
-0.0018338
0.0076841
-0.00175345
0.00767005
-0.00180501
0.00765759
-0.00162888
0.00764496
-0.00170406
0.00763452
-0.00144099
0.00762304
-0.00159993
0.00761429
-0.0012623
0.00760332
-0.00151678
0.00759595
-0.00109316
0.00758506
-0.00141848
0.00757905
-0.000907022
0.00756874
-0.00120152
0.00756487
-0.000609518
0.00755738
-0.000731611
0.000251495
0.0074778
-0.0126387
0.00739537
-0.011008
0.00732687
-0.0095336
0.00726951
-0.00830549
0.00722131
-0.00723612
0.00718079
-0.0061948
0.00714891
-0.00478026
0.00712717
-0.00273684
0.00711762
-4.1001e-05
0.00712222
0.00296743
0.00714286
0.00580507
0.00718039
0.00802829
0.00723324
0.00935342
0.00729691
0.00973453
0.00736431
0.00928676
0.00742824
0.00831687
0.00748343
0.00712495
0.00752901
0.0060624
0.00756658
0.00519609
0.00759909
0.00458941
0.00762783
0.00406891
0.007654
0.00367644
0.00767731
0.00325645
0.00769881
0.00297792
0.00771779
0.00262177
0.00773554
0.00243409
0.00775093
0.00211421
0.00776559
0.00200206
0.00777776
0.00167855
0.00778982
0.00165221
0.00779903
0.001294
0.00780877
0.00134953
0.00781505
0.000924145
0.00782275
0.00109305
0.00782615
0.000570845
0.0078321
0.000883123
0.00783246
0.00021455
0.00783702
0.000736926
0.0078341
-0.000144952
0.00783755
0.000658009
0.00783139
-0.000457533
0.00783514
0.00077896
0.00782772
-0.000544132
0.00783577
0.00127382
0.00783181
-0.00029921
0.00784922
0.00197563
0.00785048
-0.00034371
0.0078705
0.00130035
0.00786226
-0.00259971
0.00785085
-0.00426319
0.00779661
-0.0104966
0.00764504
-0.0250154
0.00737008
-0.0411594
0.00743715
0.00894701
0.00763898
0.0290695
0.00775848
0.0163957
0.00780207
0.00717927
0.00783851
0.00663146
0.00784013
0.00204523
0.0078421
0.00179534
0.0078218
-0.00129032
0.00781063
-0.000420135
0.00779067
-0.00179939
0.0077831
-0.000445672
0.00777132
-0.00107822
0.00776963
0.000139015
0.00776523
-0.00023606
0.00776857
0.000676028
0.00777006
0.000369764
0.00777686
0.000961104
0.00778148
0.000635545
0.00778833
0.00089081
0.00779193
0.000486419
0.00779525
0.000468653
0.00779479
1.55463e-05
0.00779275
-0.000163097
0.00778715
-0.000592014
0.00777957
-0.000829151
0.00776926
-0.0011595
0.00775738
-0.00135832
0.0077439
-0.00155818
0.00772951
-0.00169268
0.00771483
-0.001745
0.0076999
-0.00181886
0.0076858
-0.00173936
0.00767175
-0.00179096
0.00765929
-0.00161642
0.00764666
-0.00169143
0.00763622
-0.00143054
0.00762473
-0.00158845
0.00761598
-0.00125355
0.00760503
-0.00150582
0.00759767
-0.00108581
0.00758683
-0.00140764
0.00758086
-0.000901054
0.00757065
-0.00119131
0.00756687
-0.000605732
0.00755955
-0.000724291
0.00024808
0.00747776
-0.0125407
0.00739522
-0.0109255
0.00732656
-0.00946493
0.00726898
-0.00824791
0.00722055
-0.00718769
0.00717981
-0.00615407
0.00714778
-0.00474823
0.00712604
-0.0027151
0.00711668
-3.16377e-05
0.00712168
0.00296243
0.00714288
0.00578387
0.00718104
0.00799013
0.00723445
0.00930001
0.00729852
0.00967046
0.00736612
0.00921916
0.00743009
0.0082529
0.00748528
0.00706976
0.00753088
0.0060168
0.00756851
0.00515846
0.00760108
0.00455683
0.0076299
0.00404009
0.00765614
0.0036502
0.0076795
0.00323309
0.00770104
0.00295637
0.00772006
0.00260275
0.00773784
0.00241631
0.00775325
0.0020988
0.00776795
0.00198737
0.00778013
0.00166636
0.00779222
0.00164013
0.00780145
0.00128476
0.00781121
0.00133978
0.00781752
0.000917842
0.00782523
0.00108533
0.00782865
0.000567431
0.00783461
0.000877158
0.00783499
0.000214167
0.00783957
0.000732349
0.00783668
-0.000142063
0.00784016
0.000654531
0.00783405
-0.000451422
0.00783784
0.000775165
0.00783049
-0.000536779
0.0078386
0.00126571
0.0078347
-0.00029531
0.0078521
0.00195824
0.00785333
-0.000344933
0.00787316
0.00128051
0.0078647
-0.00259124
0.0078528
-0.0042513
0.00779793
-0.0104417
0.00764525
-0.0248627
0.00736906
-0.0408832
0.00743615
0.00887992
0.00763867
0.0288669
0.00775851
0.0162759
0.00780245
0.00713533
0.00783923
0.00659469
0.00784114
0.00204333
0.00784334
0.00179314
0.00782324
-0.00127022
0.00781221
-0.000409108
0.00779234
-0.00177951
0.0077848
-0.000438138
0.00777303
-0.00106645
0.00777133
0.000140714
0.00776692
-0.000231649
0.00777023
0.000672714
0.00777169
0.000368306
0.00777845
0.000954345
0.00778303
0.000630967
0.00778984
0.000883997
0.00779341
0.00048285
0.00779672
0.000465345
0.00779625
1.60186e-05
0.00779422
-0.000161066
0.00778863
-0.000586427
0.00778107
-0.000821596
0.00777079
-0.00114922
0.00775894
-0.00134646
0.00774549
-0.00154474
0.00773114
-0.00167833
0.00771648
-0.00173034
0.00770157
-0.00180395
0.00768749
-0.00172528
0.00767345
-0.00177692
0.00766099
-0.00160396
0.00764836
-0.00167879
0.0076379
-0.00142009
0.00762642
-0.00157696
0.00761766
-0.0012448
0.00760672
-0.00149488
0.00759938
-0.00107847
0.00758859
-0.00139685
0.00758266
-0.000895129
0.00757256
-0.00118121
0.00756885
-0.000602025
0.0075617
-0.00071714
0.000244549
0.00747772
-0.0124427
0.00739508
-0.0108428
0.00732624
-0.0093961
0.00726846
-0.00819013
0.00721979
-0.00713902
0.00717885
-0.00611312
0.00714667
-0.00471605
0.00712492
-0.00269336
0.00711575
-2.24633e-05
0.00712114
0.00295704
0.00714291
0.00576211
0.00718169
0.00795134
0.00723566
0.00924604
0.00730012
0.009606
0.00736791
0.00915137
0.00743193
0.00818888
0.00748712
0.00701457
0.00753274
0.00597118
0.00757042
0.00512078
0.00760307
0.00452418
0.00763196
0.0040112
0.00765825
0.00362391
0.00768167
0.00320968
0.00770326
0.00293479
0.00772231
0.0025837
0.00774013
0.00239849
0.00775557
0.00208336
0.00777028
0.00197265
0.00778249
0.00165415
0.0077946
0.00162802
0.00780386
0.00127551
0.00781364
0.00133
0.00781996
0.000911518
0.00782769
0.0010776
0.00783113
0.000563996
0.00783711
0.000871176
0.00783751
0.000213761
0.00784211
0.000727755
0.00783925
-0.000139203
0.00784275
0.000651028
0.00783669
-0.000445358
0.00784053
0.000771323
0.00783325
-0.000529498
0.00784141
0.00125754
0.00783758
-0.000291472
0.00785497
0.00194085
0.00785615
-0.000346114
0.00787581
0.00126085
0.00786711
-0.00258255
0.00785474
-0.00423893
0.00779923
-0.0103862
0.00764546
-0.0247089
0.00736804
-0.0406058
0.00743516
0.0088128
0.00763835
0.0286638
0.00775853
0.0161557
0.00780283
0.00709103
0.00783994
0.00655758
0.00784213
0.00204113
0.00784457
0.0017907
0.00782467
-0.00125032
0.00781378
-0.000398221
0.00779399
-0.00175972
0.00778649
-0.000430637
0.00777472
-0.00105468
0.00777302
0.000142419
0.0077686
-0.000227227
0.00777189
0.000669422
0.00777332
0.000366879
0.00778003
0.000947626
0.00778457
0.00062643
0.00779135
0.000877222
0.00779489
0.000479309
0.00779818
0.000462056
0.0077977
1.64963e-05
0.00779567
-0.000159041
0.0077901
-0.000580855
0.00778257
-0.000814062
0.00777232
-0.00113897
0.00776049
-0.00133464
0.00774708
-0.00153132
0.00773276
-0.00166401
0.00771813
-0.0017157
0.00770324
-0.00178906
0.00768917
-0.00171121
0.00767514
-0.00176288
0.00766268
-0.00159151
0.00765004
-0.00166615
0.00763958
-0.00140963
0.00762809
-0.00156546
0.00761933
-0.00123604
0.0076084
-0.00148394
0.00760108
-0.00107114
0.00759033
-0.0013861
0.00758445
-0.000889246
0.00757445
-0.00117121
0.00757083
-0.000598398
0.00756384
-0.000710155
0.000240906
0.00747769
-0.0123446
0.00739493
-0.0107601
0.00732593
-0.00932709
0.00726794
-0.00813214
0.00721905
-0.00709013
0.00717789
-0.00607197
0.00714557
-0.00468373
0.00712382
-0.00267161
0.00711484
-1.34775e-05
0.00712063
0.00295125
0.00714294
0.00573979
0.00718234
0.00791195
0.00723686
0.00919152
0.0073017
0.00954116
0.00736968
0.00908339
0.00743375
0.00812482
0.00748894
0.00695938
0.00753457
0.00592554
0.00757231
0.00508304
0.00760504
0.00449145
0.007634
0.00398224
0.00766036
0.00359755
0.00768383
0.00318621
0.00770546
0.00291315
0.00772455
0.00256462
0.0077424
0.00238064
0.00775786
0.0020679
0.0077726
0.00195791
0.00778484
0.00164192
0.00779697
0.00161589
0.00780625
0.00126623
0.00781604
0.0013202
0.00782239
0.000905174
0.00783014
0.00106985
0.00783359
0.00056054
0.00783959
0.00086518
0.00784002
0.000213335
0.00784463
0.000723144
0.00784179
-0.00013637
0.00784532
0.000647498
0.00783931
-0.000439342
0.00784319
0.000767436
0.00783599
-0.000522289
0.00784421
0.00124933
0.00784043
-0.000287693
0.00785781
0.00192346
0.00785895
-0.000347252
0.00787843
0.00124136
0.00786951
-0.00257362
0.00785666
-0.00422608
0.00780052
-0.01033
0.00764566
-0.0245541
0.00736704
-0.0403272
0.00743417
0.00874567
0.00763803
0.0284599
0.00775856
0.0160351
0.0078032
0.00704639
0.00784064
0.00652014
0.00784312
0.00203866
0.00784579
0.00178802
0.00782608
-0.00123061
0.00781533
-0.000387472
0.00779562
-0.00174001
0.00778816
-0.000423169
0.00777641
-0.00104293
0.0077747
0.000144128
0.00777027
-0.000222796
0.00777354
0.000666153
0.00777493
0.000365482
0.00778161
0.000940949
0.00778611
0.000621933
0.00779284
0.000870485
0.00779636
0.000475796
0.00779963
0.000458784
0.00779914
1.69792e-05
0.00779712
-0.00015702
0.00779157
-0.000575299
0.00778406
-0.000806551
0.00777383
-0.00112874
0.00776204
-0.00132285
0.00774866
-0.00151794
0.00773436
-0.00164971
0.00771976
-0.0017011
0.00770489
-0.00177419
0.00769084
-0.00169716
0.00767681
-0.00174885
0.00766436
-0.00157905
0.00765171
-0.0016535
0.00764125
-0.00139917
0.00762975
-0.00155397
0.007621
-0.00122729
0.00761007
-0.00147302
0.00760276
-0.00106383
0.00759207
-0.00137541
0.00758623
-0.000883405
0.00757634
-0.00116132
0.00757279
-0.000594848
0.00756597
-0.000703334
0.000237149
0.00747765
-0.0122465
0.00739479
-0.0106772
0.00732562
-0.00925793
0.00726743
-0.00807395
0.00721831
-0.00704101
0.00717695
-0.0060306
0.00714449
-0.00465127
0.00712273
-0.00264985
0.00711394
-4.68049e-06
0.00712012
0.00294506
0.00714299
0.00571692
0.007183
0.00787194
0.00723807
0.00913645
0.00730328
0.00947595
0.00737144
0.00901523
0.00743555
0.00806071
0.00749074
0.00690419
0.0075364
0.00587989
0.00757419
0.00504525
0.00760699
0.00445865
0.00763603
0.00395321
0.00766245
0.00357113
0.00768597
0.00316269
0.00770764
0.00289148
0.00772677
0.00254549
0.00774465
0.00236276
0.00776014
0.0020524
0.00777491
0.00194315
0.00778717
0.00162966
0.00779932
0.00160373
0.00780862
0.00125693
0.00781843
0.00131039
0.0078248
0.000898809
0.00783257
0.00106208
0.00783604
0.000557065
0.00784205
0.000859167
0.0078425
0.000212887
0.00784713
0.000718516
0.00784432
-0.000133565
0.00784788
0.000643943
0.00784191
-0.000433371
0.00784584
0.000763502
0.0078387
-0.000515151
0.00784698
0.00124105
0.00784326
-0.000283972
0.00786063
0.00190609
0.00786173
-0.000348346
0.00788104
0.00122205
0.00787188
-0.00256447
0.00785857
-0.00421276
0.00780179
-0.0102732
0.00764586
-0.0243982
0.00736604
-0.0400474
0.0074332
0.00867851
0.00763772
0.0282554
0.00775858
0.0159143
0.00780356
0.0070014
0.00784133
0.00648237
0.00784409
0.0020359
0.007847
0.00178511
0.00782748
-0.00121109
0.00781687
-0.000376862
0.00779725
-0.00172039
0.00778981
-0.000415735
0.00777808
-0.0010312
0.00777636
0.000145841
0.00777192
-0.000218356
0.00777517
0.000662905
0.00777654
0.000364116
0.00778317
0.000934311
0.00778763
0.000617477
0.00779433
0.000863786
0.00779782
0.000472311
0.00780107
0.00045553
0.00780058
1.74672e-05
0.00779857
-0.000155004
0.00779302
-0.000569757
0.00778553
-0.000799061
0.00777534
-0.00111855
0.00776357
-0.00131109
0.00775022
-0.00150459
0.00773596
-0.00163545
0.00772139
-0.00168653
0.00770654
-0.00175934
0.0076925
-0.00168313
0.00767848
-0.00173483
0.00766603
-0.0015666
0.00765337
-0.00164085
0.0076429
-0.0013887
0.0076314
-0.00154246
0.00762265
-0.00121853
0.00761174
-0.00146211
0.00760444
-0.00105654
0.0075938
-0.00136476
0.007588
-0.000877606
0.00757821
-0.00115153
0.00757473
-0.000591375
0.00756807
-0.000696675
0.000233282
0.00747761
-0.0121484
0.00739464
-0.0105942
0.00732531
-0.0091886
0.00726692
-0.00801556
0.00721759
-0.00699168
0.00717602
-0.00598903
0.00714342
-0.00461867
0.00712166
-0.0026281
0.00711305
3.92803e-06
0.00711963
0.00293848
0.00714305
0.0056935
0.00718367
0.00783132
0.00723927
0.00908085
0.00730485
0.00941037
0.00737319
0.00894689
0.00743734
0.00799656
0.00749252
0.00684901
0.00753821
0.0058342
0.00757606
0.0050074
0.00760894
0.00442578
0.00763804
0.0039241
0.00766452
0.00354465
0.00768809
0.00313912
0.00770981
0.00286976
0.00772897
0.00252633
0.00774688
0.00234484
0.00776241
0.00203688
0.0077772
0.00192836
0.00778948
0.00161738
0.00780165
0.00159156
0.00781097
0.00124761
0.00782081
0.00130056
0.00782719
0.000892424
0.00783498
0.0010543
0.00783847
0.000553569
0.0078445
0.000853138
0.00784497
0.000212419
0.00784961
0.000713871
0.00784684
-0.000130787
0.00785042
0.000640362
0.00784449
-0.000427447
0.00784847
0.000759523
0.0078414
-0.000508083
0.00784973
0.00123273
0.00784607
-0.00028031
0.00786343
0.00188872
0.00786448
-0.000349398
0.00788362
0.00120291
0.00787424
-0.00255508
0.00786046
-0.00419897
0.00780305
-0.0102158
0.00764605
-0.0242412
0.00736505
-0.0397664
0.00743223
0.00861132
0.00763741
0.0280502
0.0077586
0.0157931
0.00780392
0.00695608
0.00784201
0.00644428
0.00784505
0.00203285
0.00784819
0.00178197
0.00782887
-0.00119177
0.0078184
-0.00036639
0.00779886
-0.00170085
0.00779146
-0.000408335
0.00777973
-0.00101947
0.00777802
0.000147557
0.00777357
-0.000213908
0.0077768
0.000659678
0.00777813
0.000362779
0.00778473
0.000927713
0.00778915
0.000613061
0.00779581
0.000857124
0.00779927
0.000468854
0.0078025
0.000452294
0.00780201
1.79601e-05
0.0078
-0.000152993
0.00779447
-0.00056423
0.007787
-0.000791592
0.00777683
-0.00110837
0.0077651
-0.00129936
0.00775178
-0.00149127
0.00773755
-0.00162122
0.007723
-0.00167198
0.00770817
-0.00174452
0.00769415
-0.00166911
0.00768013
-0.00172081
0.00766768
-0.00155415
0.00765502
-0.00162819
0.00764455
-0.00137823
0.00763304
-0.00153095
0.00762429
-0.00120978
0.00761339
-0.00145121
0.00760611
-0.00104926
0.00759551
-0.00135417
0.00758975
-0.000871848
0.00758006
-0.00114184
0.00757667
-0.000587979
0.00757017
-0.000690177
0.000229305
0.00747757
-0.0120502
0.0073945
-0.0105112
0.00732501
-0.00911911
0.00726642
-0.00795697
0.00721687
-0.00694212
0.00717509
-0.00594726
0.00714236
-0.00458594
0.0071206
-0.00260634
0.00711218
1.23482e-05
0.00711915
0.00293151
0.00714312
0.00566953
0.00718434
0.0077901
0.00724046
0.00902473
0.00730641
0.00934442
0.00737492
0.00887838
0.00743911
0.00793236
0.00749429
0.00679382
0.00754
0.0057885
0.00757791
0.00496948
0.00761086
0.00439283
0.00764004
0.00389493
0.00766658
0.00351811
0.0076902
0.0031155
0.00771196
0.002848
0.00773116
0.00250713
0.0077491
0.0023269
0.00776466
0.00202133
0.00777947
0.00191354
0.00779177
0.00160507
0.00780397
0.00157937
0.00781331
0.00123827
0.00782316
0.0012907
0.00782957
0.000886018
0.00783737
0.00104649
0.00784089
0.000550054
0.00784693
0.000847094
0.00784742
0.000211929
0.00785208
0.00070921
0.00784933
-0.000128038
0.00785294
0.000636755
0.00784706
-0.00042157
0.00785108
0.000755499
0.00784409
-0.000501085
0.00785246
0.00122435
0.00784886
-0.000276706
0.00786621
0.00187136
0.00786722
-0.000350405
0.00788619
0.00118394
0.00787658
-0.00254548
0.00786233
-0.00418472
0.0078043
-0.0101578
0.00764624
-0.0240831
0.00736406
-0.0394842
0.00743128
0.00854411
0.0076371
0.0278444
0.00775861
0.0156716
0.00780427
0.00691042
0.00784268
0.00640587
0.007846
0.00202953
0.00784938
0.00177859
0.00783025
-0.00117265
0.00781991
-0.000356054
0.00780046
-0.00168139
0.00779309
-0.00040097
0.00778138
-0.00100776
0.00777966
0.000149276
0.0077752
-0.000209452
0.00777841
0.000656472
0.00777972
0.000361472
0.00778628
0.000921153
0.00779065
0.000608684
0.00779728
0.0008505
0.00780071
0.000465424
0.00780393
0.000449075
0.00780343
1.84584e-05
0.00780142
-0.000150987
0.00779591
-0.000558718
0.00778846
-0.000784145
0.00777832
-0.00109823
0.00776662
-0.00128766
0.00775333
-0.00147798
0.00773913
-0.00160701
0.0077246
-0.00165745
0.00770979
-0.00172971
0.00769579
-0.00165511
0.00768178
-0.0017068
0.00766933
-0.0015417
0.00765666
-0.00161552
0.00764619
-0.00136775
0.00763467
-0.00151944
0.00762592
-0.00120102
0.00761503
-0.00144033
0.00760777
-0.00104199
0.00759721
-0.00134361
0.0075915
-0.00086613
0.00758191
-0.00113225
0.00757859
-0.000584657
0.00757225
-0.000683837
0.000225219
0.00747753
-0.011952
0.00739436
-0.010428
0.00732472
-0.00904946
0.00726593
-0.00789819
0.00721616
-0.00689235
0.00717419
-0.00590528
0.00714132
-0.00455307
0.00711956
-0.00258458
0.00711133
2.05802e-05
0.00711868
0.00292416
0.0071432
0.00564501
0.00718501
0.00774829
0.00724166
0.00896808
0.00730795
0.00927813
0.00737663
0.0088097
0.00744086
0.00786813
0.00749605
0.00673864
0.00754178
0.00574277
0.00757975
0.00493151
0.00761277
0.0043598
0.00764202
0.00386568
0.00766862
0.0034915
0.0076923
0.00309182
0.0077141
0.0028262
0.00773333
0.0024879
0.00775131
0.00230893
0.00776689
0.00200575
0.00778172
0.00189871
0.00779405
0.00159274
0.00780627
0.00156715
0.00781563
0.0012289
0.0078255
0.00128083
0.00783193
0.000879592
0.00783975
0.00103868
0.00784328
0.000546519
0.00784934
0.000841034
0.00784985
0.000211419
0.00785453
0.000704532
0.00785181
-0.000125315
0.00785544
0.000633123
0.00784961
-0.000415737
0.00785368
0.00075143
0.00784675
-0.000494156
0.00785517
0.00121593
0.00785162
-0.000273157
0.00786897
0.00185401
0.00786994
-0.00035137
0.00788873
0.00116515
0.0078789
-0.00253564
0.00786418
-0.00417
0.00780554
-0.0100992
0.00764643
-0.023924
0.00736309
-0.0392008
0.00743033
0.00847687
0.0076368
0.0276379
0.00775862
0.0155498
0.0078046
0.00686444
0.00784333
0.00636714
0.00784694
0.00202593
0.00785055
0.00177498
0.00783161
-0.00115371
0.00782141
-0.000345855
0.00780204
-0.00166202
0.00779471
-0.000393639
0.00778301
-0.000996056
0.00778129
0.000150996
0.00777683
-0.00020499
0.00778001
0.000653285
0.00778129
0.000360193
0.00778781
0.000914632
0.00779215
0.000604347
0.00779874
0.000843912
0.00780214
0.000462021
0.00780534
0.000445873
0.00780484
1.89618e-05
0.00780284
-0.000148986
0.00779734
-0.00055322
0.00778991
-0.000776718
0.0077798
-0.00108811
0.00776812
-0.00127598
0.00775487
-0.00146473
0.00774069
-0.00159284
0.0077262
-0.00164296
0.00771141
-0.00171491
0.00769742
-0.00164112
0.00768341
-0.00169279
0.00767096
-0.00152926
0.00765829
-0.00160285
0.00764781
-0.00135727
0.00763629
-0.00150792
0.00762754
-0.00119227
0.00761666
-0.00142945
0.00760941
-0.00103474
0.00759891
-0.00133311
0.00759323
-0.000860453
0.00758374
-0.00112276
0.00758049
-0.00058141
0.00757431
-0.000677653
0.000221025
0.0074775
-0.0118537
0.00739423
-0.0103447
0.00732442
-0.00897965
0.00726544
-0.00783921
0.00721546
-0.00684236
0.00717329
-0.00586311
0.00714028
-0.00452006
0.00711853
-0.00256283
0.00711048
2.86244e-05
0.00711823
0.00291641
0.00714328
0.00561996
0.00718568
0.00770589
0.00724285
0.00891092
0.00730949
0.00921148
0.00737833
0.00874085
0.0074426
0.00780386
0.00749779
0.00668345
0.00754354
0.00569702
0.00758157
0.00489348
0.00761467
0.0043267
0.00764399
0.00383637
0.00767065
0.00346484
0.00769437
0.0030681
0.00771622
0.00280435
0.00773549
0.00246863
0.00775349
0.00229092
0.0077691
0.00199014
0.00778396
0.00188384
0.00779632
0.00158039
0.00780855
0.00155492
0.00781793
0.00121952
0.00782782
0.00127094
0.00783427
0.000873146
0.00784211
0.00103084
0.00784566
0.000542965
0.00785174
0.00083496
0.00785227
0.000210888
0.00785696
0.000699838
0.00785427
-0.000122619
0.00785792
0.000629466
0.00785214
-0.000409951
0.00785625
0.000747317
0.00784939
-0.000487295
0.00785787
0.00120745
0.00785437
-0.000269665
0.00787171
0.00183667
0.00787263
-0.000352291
0.00789126
0.00114652
0.0078812
-0.00252558
0.00786602
-0.00415483
0.00780676
-0.0100399
0.00764661
-0.0237638
0.00736212
-0.0389164
0.00742938
0.00840961
0.00763649
0.0274308
0.00775862
0.0154277
0.00780494
0.00681813
0.00784398
0.00632809
0.00784787
0.00202204
0.0078517
0.00177114
0.00783296
-0.00113497
0.0078229
-0.000335793
0.00780361
-0.00164273
0.00779631
-0.000386344
0.00778463
-0.000984369
0.00778291
0.000152717
0.00777844
-0.000200521
0.00778161
0.000650116
0.00778286
0.000358943
0.00778934
0.00090815
0.00779364
0.000600048
0.00780019
0.000837361
0.00780356
0.000458646
0.00780675
0.000442688
0.00780624
1.94699e-05
0.00780424
-0.000146989
0.00779876
-0.000547737
0.00779136
-0.000769312
0.00778127
-0.00107802
0.00776962
-0.00126434
0.0077564
-0.0014515
0.00774225
-0.00157869
0.00772778
-0.00162849
0.00771301
-0.00170014
0.00769903
-0.00162715
0.00768503
-0.00167879
0.00767259
-0.00151681
0.00765991
-0.00159018
0.00764943
-0.00134678
0.0076379
-0.00149639
0.00762914
-0.00118351
0.00761828
-0.00141859
0.00761105
-0.00102751
0.00760059
-0.00132265
0.00759495
-0.000854815
0.00758556
-0.00111337
0.00758239
-0.000578237
0.00757636
-0.000671623
0.000216725
0.00747746
-0.0117554
0.00739409
-0.0102614
0.00732413
-0.00890969
0.00726496
-0.00778004
0.00721477
-0.00679217
0.0071724
-0.00582074
0.00713927
-0.00448693
0.00711751
-0.00254107
0.00710965
3.6481e-05
0.00711779
0.00290827
0.00714338
0.00559437
0.00718636
0.00766291
0.00724403
0.00885325
0.00731102
0.0091445
0.00738002
0.00867185
0.00744432
0.00773956
0.00749951
0.00662827
0.00754529
0.00565124
0.00758338
0.00485539
0.00761655
0.00429353
0.00764594
0.00380698
0.00767266
0.00343812
0.00769644
0.00304433
0.00771832
0.00278246
0.00773763
0.00244932
0.00775567
0.00227288
0.0077713
0.0019745
0.00778619
0.00186896
0.00779856
0.00156802
0.00781082
0.00154266
0.00782022
0.00121011
0.00783013
0.00126103
0.0078366
0.00086668
0.00784445
0.00102299
0.00784802
0.000539391
0.00785411
0.000828869
0.00785466
0.000210337
0.00785937
0.000695127
0.00785671
-0.000119951
0.00786039
0.000625783
0.00785465
-0.000404209
0.0078588
0.000743159
0.00785201
-0.000480502
0.00786054
0.00119892
0.0078571
-0.000266227
0.00787443
0.00181935
0.00787531
-0.000353168
0.00789376
0.00112806
0.00788348
-0.0025153
0.00786784
-0.00413919
0.00780797
-0.00998002
0.00764678
-0.0236027
0.00736116
-0.0386307
0.00742845
0.00834231
0.00763619
0.027223
0.00775863
0.0153052
0.00780526
0.00677149
0.00784462
0.00628873
0.00784878
0.00201788
0.00785285
0.00176707
0.0078343
-0.00111642
0.00782437
-0.000325867
0.00780517
-0.00162352
0.00779791
-0.000379084
0.00778624
-0.000972698
0.00778451
0.000154439
0.00778004
-0.000196047
0.00778319
0.000646966
0.00778441
0.000357719
0.00779086
0.000901705
0.00779512
0.000595789
0.00780163
0.000830847
0.00780498
0.000455298
0.00780815
0.00043952
0.00780763
1.9983e-05
0.00780564
-0.000144998
0.00780017
-0.000542268
0.00779279
-0.000761926
0.00778272
-0.00106796
0.00777111
-0.00125272
0.00775791
-0.00143831
0.00774379
-0.00156457
0.00772935
-0.00161405
0.0077146
-0.00168539
0.00770064
-0.00161319
0.00768664
-0.00166479
0.0076742
-0.00150437
0.00766152
-0.0015775
0.00765103
-0.00133629
0.0076395
-0.00148487
0.00763074
-0.00117475
0.00761989
-0.00140774
0.00761267
-0.00102029
0.00760226
-0.00131223
0.00759666
-0.000849216
0.00758737
-0.00110408
0.00758427
-0.000575137
0.00757839
-0.000665745
0.00021232
0.00747742
-0.0116571
0.00739396
-0.0101779
0.00732384
-0.00883958
0.00726449
-0.00772069
0.00721409
-0.00674177
0.00717153
-0.00577818
0.00713826
-0.00445367
0.0071165
-0.00251931
0.00710884
4.41503e-05
0.00711736
0.00289976
0.00714348