/*--------------------------------*- C++ -*----------------------------------*\
| =========                 |                                                 |
| \\      /  F ield         | OpenFOAM: The Open Source CFD Toolbox           |
|  \\    /   O peration     | Version:  2412                                  |
|   \\  /    A nd           | Website:  www.openfoam.com                      |
|    \\/     M anipulation  |                                                 |
\*---------------------------------------------------------------------------*/
FoamFile
{
    version     2.0;
    format      ascii;
    arch        "LSB;label=32;scalar=64";
    class       volVectorField;
    location    "0.9";
    object      U;
}
// * * * * * * * * * * * * * * * * * * * * * * * * * * * * * * * * * * * * * //

dimensions      [0 1 -1 0 0 0 0];

internalField   nonuniform List<vector> 
13068
(
(100.007 0.632555 0)
(100.232 1.80846 -4.37841e-17)
(100.694 2.89807 -4.23858e-17)
(101.339 3.83829 0)
(102.164 4.68397 0)
(103.127 5.52495 0)
(104.245 6.62878 0)
(105.532 8.17033 6.17152e-17)
(107.035 10.1741 0)
(108.778 12.4132 -3.00375e-17)
(110.825 14.5777 0)
(113.199 16.369 0)
(115.955 17.6017 0)
(119.031 18.2305 0)
(122.401 18.3222 0)
(125.881 18.0653 3.24845e-17)
(129.44 17.6619 -3.20786e-17)
(132.914 17.3319 3.11232e-17)
(136.443 17.1451 2.9849e-17)
(139.925 17.1347 2.84237e-17)
(143.596 17.204 2.7131e-17)
(147.26 17.3673 -5.59593e-22)
(151.202 17.5442 2.4913e-17)
(155.116 17.8119 -2.3908e-17)
(159.405 18.0727 -5.44598e-22)
(163.623 18.4422 0)
(168.345 18.7753 0)
(172.925 19.2443 2.03804e-17)
(178.182 19.6383 -1.96336e-17)
(183.184 20.2129 0)
(189.102 20.6618 1.79476e-17)
(194.596 21.3572 0)
(201.338 21.8574 0)
(207.401 22.6987 1.51544e-17)
(215.179 23.2494 -2.91598e-17)
(221.906 24.2736 0)
(231.006 24.8761 1.28949e-17)
(238.509 26.1327 -1.15399e-17)
(249.315 26.7933 6.19159e-22)
(257.734 28.3551 -9.65919e-18)
(270.78 29.1135 1.90129e-17)
(280.323 31.1108 7.72401e-18)
(296.409 32.0755 -4.97824e-22)
(307.476 34.6739 5.7722e-18)
(327.863 35.959 6.28119e-18)
(341.207 39.1453 3.81153e-18)
(367.687 40.6357 -4.84227e-18)
(384.295 43.7854 1.74436e-18)
(418.628 45.0982 -3.41671e-18)
(439.299 46.4701 5.5378e-19)
(481.92 47.1603 1.98995e-18)
(507.687 40.2567 3.30324e-18)
(549.635 37.9247 1.31427e-21)
(577.861 1.74689 -4.64141e-19)
(552.478 -18.0027 0)
(541.413 -27.4316 -6.56844e-18)
(507.036 -31.032 0)
(490.953 -30.2682 0)
(461.156 -31.2326 0)
(445.184 -30.2661 0)
(419.885 -30.5324 0)
(404.98 -28.8994 0)
(384.198 -28.3498 3.19431e-18)
(371.139 -26.5181 0)
(354.323 -25.7529 1.14539e-22)
(342.96 -24.1337 3.96943e-18)
(329.187 -23.412 -5.31749e-18)
(319.22 -22.096 4.63346e-22)
(307.773 -21.4848 6.36025e-18)
(298.967 -20.4715 -4.76863e-22)
(289.268 -20.0028 -7.35401e-18)
(281.366 -19.2744 -7.62113e-18)
(272.918 -18.949 2.98833e-22)
(265.683 -18.4501 8.70599e-18)
(258.127 -18.2206 0)
(251.415 -17.8664 9.82359e-18)
(244.536 -17.6685 4.23316e-22)
(238.281 -17.3805 -1.09987e-17)
(231.96 -17.1595 -1.16431e-17)
(226.144 -16.8831 0)
(220.319 -16.6057 3.78966e-22)
(214.953 -16.3164 1.34373e-17)
(209.59 -15.9725 0)
(204.69 -15.6751 -2.39415e-22)
(199.757 -15.273 1.50793e-17)
(195.332 -14.994 -1.56151e-17)
(190.777 -14.5499 0)
(186.825 -14.3249 -1.65813e-17)
(182.57 -13.8496 0)
(179.086 -13.7087 5.80353e-23)
(175.027 -13.1978 5.0029e-22)
(172.023 -13.1549 0)
(168.036 -12.5917 -6.42281e-22)
(165.56 -12.6343 0)
(161.503 -12.0026 -1.98697e-17)
(159.653 -12.0748 0)
(155.375 -11.3769 0)
(154.302 -11.386 0)
(149.671 -10.4014 0)
(100.007 0.626635 -4.47426e-17)
(100.23 1.79158 4.37982e-17)
(100.69 2.87106 -4.24019e-17)
(101.333 3.80279 0)
(102.155 4.64116 0)
(103.114 5.4757 0)
(104.229 6.5725 0)
(105.514 8.10613 -3.08641e-17)
(107.018 10.1008 0)
(108.765 12.3297 3.00143e-17)
(110.82 14.4827 0)
(113.204 16.2617 -3.08074e-17)
(115.97 17.4827 3.14151e-17)
(119.056 18.1022 3.19708e-17)
(122.431 18.1888 0)
(125.914 17.9312 -3.24321e-17)
(129.473 17.5304 0)
(132.948 17.2038 -6.21769e-17)
(136.478 17.0195 -2.98271e-17)
(139.962 17.0095 -2.8413e-17)
(143.635 17.0784 -2.71269e-17)
(147.301 17.2403 -5.18439e-17)
(151.246 17.4157 -4.98298e-17)
(155.162 17.6813 2.3909e-17)
(159.453 17.9402 -2.30579e-17)
(163.673 18.3069 0)
(168.397 18.6375 2.13275e-17)
(172.978 19.1031 0)
(178.237 19.4943 1.96324e-17)
(183.242 20.0646 0)
(189.162 20.5103 -1.7946e-17)
(194.658 21.2006 0)
(201.402 21.6974 0)
(207.468 22.5325 0)
(215.249 23.0794 1.45788e-17)
(221.979 24.096 0)
(231.082 24.6945 -1.28927e-17)
(238.588 25.9418 1.1539e-17)
(249.398 26.5981 1.12021e-17)
(257.821 28.1485 1.23893e-21)
(270.872 28.9021 -9.50543e-18)
(280.422 30.8847 -1.54459e-17)
(296.513 31.8433 -7.84185e-18)
(307.591 34.422 0)
(327.984 35.6977 -1.25621e-17)
(341.34 38.8586 3.809e-18)
(367.822 40.3365 4.84146e-18)
(384.439 43.4591 1.74191e-18)
(418.763 44.7592 3.41692e-18)
(439.437 46.1141 -5.53944e-19)
(482.019 46.7902 0)
(507.761 39.9249 -3.30687e-18)
(549.595 37.5949 -7.19058e-19)
(577.74 1.73651 4.65416e-19)
(552.443 -17.8441 0)
(541.401 -27.2138 0)
(507.052 -30.7865 0)
(490.988 -30.0282 0)
(461.21 -30.9874 0)
(445.249 -30.0307 0)
(419.96 -30.2969 0)
(405.06 -28.6783 0)
(384.281 -28.1346 -3.1924e-18)
(371.22 -26.318 -2.51794e-18)
(354.403 -25.559 -4.24309e-18)
(343.036 -23.9524 -3.96862e-18)
(329.261 -23.2361 -5.31673e-18)
(319.29 -21.9304 5.30589e-18)
(307.839 -21.324 0)
(299.031 -20.3187 -4.75099e-22)
(289.327 -19.8535 -7.35373e-18)
(281.422 -19.1306 7.62154e-18)
(272.971 -18.8074 8.3401e-18)
(265.734 -18.3121 -8.7069e-18)
(258.176 -18.084 0)
(251.463 -17.7324 -9.82461e-18)
(244.583 -17.5358 1.04703e-17)
(238.327 -17.2499 0)
(232.005 -17.0305 1.16426e-17)
(226.19 -16.7562 0)
(220.365 -16.4809 1.28478e-17)
(214.998 -16.1939 -2.68729e-17)
(209.636 -15.8526 0)
(204.735 -15.5577 -2.91544e-17)
(199.801 -15.1588 -1.50787e-17)
(195.376 -14.8822 0)
(190.819 -14.4416 0)
(186.867 -14.2186 0)
(182.61 -13.7469 0)
(179.127 -13.6072 -1.75512e-17)
(175.066 -13.1001 1.78948e-17)
(172.062 -13.0574 0)
(168.074 -12.4985 -3.7737e-17)
(165.599 -12.5403 0)
(161.541 -11.914 1.98797e-17)
(159.693 -11.9843 0)
(155.416 -11.2931 0)
(154.345 -11.3004 0)
(149.717 -10.3256 0)
(100.007 0.620742 4.47519e-17)
(100.229 1.77479 0)
(100.687 2.84417 8.4843e-17)
(101.327 3.76746 -4.03987e-17)
(102.146 4.59854 0)
(103.101 5.42663 -3.48363e-17)
(104.213 6.51636 0)
(105.496 8.04196 -3.08693e-17)
(107.001 10.0274 0)
(108.752 12.2458 0)
(110.815 14.3872 0)
(113.209 16.1539 6.15209e-17)
(115.986 17.3633 -3.13617e-17)
(119.08 17.9736 -3.19146e-17)
(122.461 18.0551 0)
(125.946 17.7969 0)
(129.506 17.3988 0)
(132.982 17.0757 6.21078e-17)
(136.513 16.8937 0)
(139.999 16.8843 0)
(143.674 16.9526 4.7049e-22)
(147.342 17.1132 2.59225e-17)
(151.289 17.2871 5.01497e-22)
(155.207 17.5507 -2.39112e-17)
(159.5 17.8075 -2.30586e-17)
(163.722 18.1715 -2.21148e-17)
(168.448 18.4996 -2.13281e-17)
(173.031 18.9617 0)
(178.293 19.3501 -1.96323e-17)
(183.299 19.9161 0)
(189.222 20.3587 1.79455e-17)
(194.719 21.0438 0)
(201.466 21.5372 0)
(207.535 22.366 0)
(215.319 22.9092 0)
(222.051 23.9182 0)
(231.157 24.5126 1.28917e-17)
(238.667 25.7506 0)
(249.48 26.4026 1.11999e-17)
(257.908 27.9415 1.22839e-21)
(270.963 28.6905 0)
(280.52 30.6584 7.7219e-18)
(296.617 31.6107 0)
(307.704 34.1699 0)
(328.103 35.4362 4.02925e-22)
(341.471 38.5717 -3.80904e-18)
(367.955 40.0369 -4.84135e-18)
(384.582 43.1326 -1.74192e-18)
(418.896 44.42 -3.41636e-18)
(439.574 45.758 5.55585e-19)
(482.117 46.4203 0)
(507.834 39.5937 0)
(549.554 37.2661 7.23183e-19)
(577.621 1.72611 -4.65191e-19)
(552.408 -17.6861 0)
(541.389 -26.9964 0)
(507.068 -30.5413 0)
(491.023 -29.7883 2.89948e-18)
(461.264 -30.7424 0)
(445.314 -29.7953 -7.04275e-19)
(420.035 -30.0615 0)
(405.14 -28.4573 0)
(384.364 -27.9193 0)
(371.302 -26.1178 2.51692e-18)
(354.482 -25.365 0)
(343.113 -23.771 0)
(329.334 -23.0602 -5.52608e-23)
(319.36 -21.7646 5.30423e-18)
(307.906 -21.1631 0)
(299.093 -20.1657 -6.51099e-18)
(289.386 -19.7041 7.35379e-18)
(281.478 -18.9867 0)
(273.024 -18.6657 0)
(265.785 -18.1741 0)
(258.225 -17.9474 0)
(251.51 -17.5983 0)
(244.629 -17.403 0)
(238.373 -17.1192 0)
(232.051 -16.9013 -1.16429e-17)
(226.235 -16.6292 0)
(220.41 -16.3559 0)
(215.044 -16.0713 1.34356e-17)
(209.68 -15.7327 0)
(204.78 -15.4403 1.45762e-17)
(199.845 -15.0445 0)
(195.42 -14.7704 -1.56144e-17)
(190.862 -14.3332 0)
(186.91 -14.1122 0)
(182.651 -13.644 0)
(179.167 -13.5056 0)
(175.104 -13.0023 0)
(172.101 -12.9599 0)
(168.111 -12.4054 1.88746e-17)
(165.637 -12.4462 0)
(161.579 -11.8253 0)
(159.732 -11.8939 2.09278e-17)
(155.457 -11.2093 0)
(154.387 -11.2149 -2.22452e-17)
(149.763 -10.2499 0)
(100.007 0.614876 0)
(100.228 1.75807 0)
(100.684 2.81741 -4.24409e-17)
(101.321 3.73227 4.0428e-17)
(102.136 4.55609 0)
(103.088 5.37774 3.48696e-17)
(104.197 6.46037 3.24509e-17)
(105.479 7.97788 3.08764e-17)
(106.984 9.95395 0)
(108.74 12.1618 0)
(110.81 14.2914 -3.02256e-17)
(113.214 16.0457 -3.07138e-17)
(116.001 17.2434 0)
(119.104 17.8447 0)
(122.491 17.9213 0)
(125.978 17.6625 -3.23274e-17)
(129.538 17.2672 0)
(133.015 16.9474 -4.31014e-22)
(136.547 16.7678 0)
(140.035 16.7588 -2.8391e-17)
(143.713 16.8266 4.62834e-22)
(147.383 16.9859 0)
(151.332 17.1584 2.49185e-17)
(155.252 17.4198 0)
(159.547 17.6747 2.30603e-17)
(163.771 18.0359 2.2116e-17)
(168.499 18.3616 0)
(173.084 18.8202 2.03784e-17)
(178.347 19.2058 0)
(183.355 19.7675 0)
(189.281 20.207 -1.79438e-17)
(194.78 20.8869 0)
(201.53 21.3768 -1.62595e-17)
(207.601 22.1994 0)
(215.388 22.7388 0)
(222.123 23.7402 -1.33609e-17)
(231.232 24.3306 -1.28894e-17)
(238.746 25.5593 0)
(249.562 26.207 -1.11988e-17)
(257.995 27.7344 1.9307e-17)
(271.054 28.4785 9.5022e-18)
(280.617 30.4318 -7.71891e-18)
(296.72 31.3778 7.83992e-18)
(307.817 33.9174 0)
(328.222 35.1743 4.01837e-22)
(341.601 38.2844 -3.80652e-18)
(368.088 39.7371 0)
(384.724 42.8059 0)
(419.029 44.0806 3.41656e-18)
(439.709 45.4019 -5.55747e-19)
(482.213 46.0506 0)
(507.906 39.2629 3.30838e-18)
(549.514 36.9382 -7.24674e-19)
(577.503 1.71566 4.66489e-19)
(552.374 -17.5286 0)
(541.378 -26.7792 0)
(507.084 -30.2962 -3.97659e-19)
(491.058 -29.5486 -2.89134e-18)
(461.318 -30.4974 0)
(445.378 -29.5599 1.40726e-18)
(420.109 -29.8261 0)
(405.219 -28.2362 9.66914e-19)
(384.446 -27.7039 0)
(371.383 -25.9175 2.51472e-18)
(354.561 -25.171 0)
(343.188 -23.5894 3.96552e-18)
(329.406 -22.8841 5.31502e-18)
(319.429 -21.5988 -5.30351e-18)
(307.972 -21.002 6.35822e-18)
(299.156 -20.0126 0)
(289.445 -19.5546 7.35351e-18)
(281.534 -18.8427 -7.62081e-18)
(273.077 -18.524 0)
(265.836 -18.0359 0)
(258.274 -17.8107 0)
(251.558 -17.4642 -9.82497e-18)
(244.676 -17.2701 0)
(238.419 -16.9885 0)
(232.096 -16.7722 0)
(226.281 -16.5021 0)
(220.455 -16.231 0)
(215.089 -15.9486 0)
(209.725 -15.6128 0)
(204.825 -15.3228 0)
(199.889 -14.9302 0)
(195.463 -14.6585 1.37284e-22)
(190.904 -14.2247 1.60451e-17)
(186.952 -14.0057 0)
(182.691 -13.5412 0)
(179.208 -13.404 0)
(175.142 -12.9045 0)
(172.14 -12.8623 0)
(168.148 -12.3122 0)
(165.676 -12.3522 0)
(161.616 -11.7366 0)
(159.772 -11.8035 -2.09407e-17)
(155.497 -11.1254 -2.0927e-17)
(154.428 -11.1294 -6.16568e-22)
(149.808 -10.1742 0)
(100.007 0.609036 0)
(100.227 1.74142 4.38299e-17)
(100.681 2.79077 0)
(101.315 3.69725 0)
(102.127 4.51382 0)
(103.076 5.32903 3.49002e-17)
(104.182 6.40452 -3.24732e-17)
(105.461 7.91383 0)
(106.968 9.8804 0)
(108.727 12.0776 -2.99425e-17)
(110.805 14.1953 3.01895e-17)
(113.219 15.9371 -3.06669e-17)
(116.016 17.1232 0)
(119.128 17.7154 0)
(122.52 17.7872 0)
(126.01 17.528 3.22765e-17)
(129.571 17.1354 0)
(133.047 16.8191 -3.09865e-17)
(136.581 16.6418 0)
(140.072 16.6333 2.8381e-17)
(143.752 16.7006 5.4234e-17)
(147.424 16.8584 0)
(151.375 17.0296 0)
(155.296 17.2889 0)
(159.594 17.5418 0)
(163.819 17.9002 0)
(168.549 18.2235 2.13278e-17)
(173.136 18.6785 -2.03786e-17)
(178.402 19.0613 -1.96304e-17)
(183.411 19.6188 -1.86466e-17)
(189.339 20.0551 1.79433e-17)
(194.841 20.7299 -1.69063e-17)
(201.593 21.2162 1.62588e-17)
(207.666 22.0326 1.51467e-17)
(215.456 22.5682 1.45737e-17)
(222.194 23.5621 1.02402e-21)
(231.307 24.1484 1.28884e-17)
(238.823 25.3677 1.15314e-17)
(249.643 26.0111 1.11966e-17)
(258.081 27.527 -9.65203e-18)
(271.144 28.2664 -5.57418e-22)
(280.714 30.205 7.71849e-18)
(296.822 31.1447 -1.56789e-17)
(307.929 33.6646 5.76576e-18)
(328.339 34.9121 6.28022e-18)
(341.731 37.9967 3.80656e-18)
(368.219 39.4369 -4.84007e-18)
(384.865 42.4789 0)
(419.16 43.741 -3.41603e-18)
(439.844 45.0457 -5.57344e-19)
(482.309 45.6811 1.99366e-18)
(507.978 38.9327 -3.31197e-18)
(549.473 36.6112 0)
(577.385 1.70517 4.66307e-19)
(552.339 -17.3716 0)
(541.366 -26.5623 0)
(507.1 -30.0514 3.96735e-19)
(491.092 -29.3091 0)
(461.371 -30.2525 0)
(445.442 -29.3246 -1.40701e-18)
(420.183 -29.5907 0)
(405.297 -28.015 -9.66122e-19)
(384.527 -27.4885 0)
(371.463 -25.7171 -5.02684e-18)
(354.639 -24.9768 0)
(343.263 -23.4077 -3.96471e-18)
(329.479 -22.7079 0)
(319.499 -21.4328 0)
(308.037 -20.8409 -6.35759e-18)
(299.218 -19.8594 0)
(289.504 -19.405 -1.4707e-17)
(281.589 -18.6986 7.62123e-18)
(273.129 -18.3821 0)
(265.886 -17.8976 0)
(258.322 -17.6739 0)
(251.605 -17.3299 9.82597e-18)
(244.722 -17.1372 1.04714e-17)
(238.465 -16.8577 0)
(232.142 -16.643 0)
(226.326 -16.375 0)
(220.5 -16.106 0)
(215.134 -15.8259 1.34332e-17)
(209.77 -15.4927 -1.40082e-17)
(204.869 -15.2053 0)
(199.932 -14.8158 1.50758e-17)
(195.507 -14.5465 3.12281e-17)
(190.946 -14.1162 -1.60456e-17)
(186.994 -13.8992 0)
(182.731 -13.4382 0)
(179.248 -13.3022 0)
(175.18 -12.8066 0)
(172.179 -12.7646 0)
(168.185 -12.2189 0)
(165.714 -12.2581 -1.97239e-17)
(161.654 -11.6478 1.99062e-17)
(159.811 -11.7131 0)
(155.537 -11.0416 4.18842e-17)
(154.47 -11.044 2.22863e-17)
(149.853 -10.0984 0)
(100.007 0.603223 0)
(100.226 1.72485 -8.76845e-17)
(100.678 2.76425 0)
(101.31 3.66238 -4.04804e-17)
(102.118 4.47173 0)
(103.063 5.28049 -3.49337e-17)
(104.166 6.3488 0)
(105.444 7.84983 0)
(106.952 9.80677 3.01272e-17)
(108.716 11.9931 5.98383e-17)
(110.801 14.0988 3.01528e-17)
(113.224 15.8281 3.0621e-17)
(116.032 17.0026 -3.12027e-17)
(119.151 17.5859 3.17479e-17)
(122.549 17.653 0)
(126.041 17.3934 0)
(129.603 17.0036 0)
(133.08 16.6906 0)
(136.615 16.5157 2.97411e-17)
(140.108 16.5076 0)
(143.79 16.5744 -2.71141e-17)
(147.464 16.7309 0)
(151.417 16.9006 2.49213e-17)
(155.341 17.1578 -2.39155e-17)
(159.64 17.4088 0)
(163.867 17.7643 0)
(168.599 18.0852 -5.4142e-22)
(173.188 18.5367 2.03775e-17)
(178.455 18.9167 1.96303e-17)
(183.467 19.4699 1.86463e-17)
(189.397 19.903 1.79417e-17)
(194.901 20.5727 1.69057e-17)
(201.656 21.0555 1.62569e-17)
(207.732 21.8657 -1.5146e-17)
(215.524 22.3975 -1.45729e-17)
(222.265 23.3837 1.01608e-21)
(231.38 23.9659 0)
(238.901 25.176 -2.30598e-17)
(249.724 25.815 -5.92924e-22)
(258.166 27.3195 0)
(271.234 28.054 -9.50014e-18)
(280.81 29.9778 -7.71555e-18)
(296.924 30.9112 7.83899e-18)
(308.04 33.4115 -5.76577e-18)
(328.456 34.6495 0)
(341.859 37.7088 -3.80408e-18)
(368.35 39.1365 4.83997e-18)
(385.005 42.1517 0)
(419.291 43.4012 6.83211e-18)
(439.977 44.6895 1.11572e-18)
(482.404 45.3117 -1.99469e-18)
(508.048 38.603 0)
(549.433 36.2851 0)
(577.269 1.69466 -9.3452e-19)
(552.306 -17.215 2.48808e-19)
(541.355 -26.3456 0)
(507.115 -29.8067 0)
(491.126 -29.0697 -2.87677e-18)
(461.423 -30.0077 -1.25549e-18)
(445.505 -29.0893 7.02925e-19)
(420.256 -29.3553 0)
(405.375 -27.7939 0)
(384.608 -27.2729 -3.18512e-18)
(371.542 -25.5166 2.51212e-18)
(354.717 -24.7824 0)
(343.338 -23.2259 3.96293e-18)
(329.55 -22.5316 -5.31342e-18)
(319.567 -21.2667 0)
(308.102 -20.6796 0)
(299.28 -19.706 0)
(289.562 -19.2552 1.47067e-17)
(281.645 -18.5544 0)
(273.181 -18.2401 0)
(265.936 -17.7593 -8.70781e-18)
(258.37 -17.5371 -9.37259e-18)
(251.652 -17.1956 -9.82589e-18)
(244.768 -17.0043 -1.04722e-17)
(238.511 -16.7269 0)
(232.187 -16.5137 -1.16423e-17)
(226.371 -16.2479 0)
(220.544 -15.9809 0)
(215.179 -15.7032 -2.68647e-17)
(209.814 -15.3727 3.25387e-22)
(204.913 -15.0877 -1.45729e-17)
(199.976 -14.7014 -1.50752e-17)
(195.55 -14.4345 -1.56139e-17)
(190.988 -14.0076 0)
(187.035 -13.7926 1.65877e-17)
(182.77 -13.3352 0)
(179.287 -13.2004 -1.75639e-17)
(175.218 -12.7086 -1.79085e-17)
(172.217 -12.6669 -1.86018e-17)
(168.222 -12.1256 0)
(165.752 -12.164 -3.22631e-22)
(161.691 -11.5591 -7.52182e-22)
(159.849 -11.6227 0)
(155.577 -10.9577 -4.19133e-17)
(154.511 -10.9585 -2.23076e-17)
(149.898 -10.0227 0)
(100.007 0.597436 0)
(100.225 1.70835 8.77068e-17)
(100.675 2.73784 0)
(101.304 3.62765 4.05093e-17)
(102.11 4.42981 3.78601e-17)
(103.051 5.23213 -3.49645e-17)
(104.151 6.29321 0)
(105.427 7.78588 0)
(106.936 9.73306 -7.12575e-22)
(108.704 11.9084 -2.9896e-17)
(110.797 14.002 -4.19837e-22)
(113.229 15.7187 -3.05748e-17)
(116.047 16.8816 6.23017e-17)
(119.175 17.4561 -3.16938e-17)
(122.578 17.5185 0)
(126.072 17.2587 -3.21754e-17)
(129.634 16.8717 0)
(133.112 16.5621 0)
(136.649 16.3894 -5.94416e-17)
(140.143 16.3818 -2.83602e-17)
(143.828 16.448 0)
(147.504 16.6032 0)
(151.46 16.7715 -2.49235e-17)
(155.385 17.0266 2.39177e-17)
(159.686 17.2756 0)
(163.915 17.6283 0)
(168.649 17.9468 -2.13286e-17)
(173.239 18.3948 -6.82427e-22)
(178.509 18.7719 0)
(183.523 19.3209 1.86445e-17)
(189.455 19.7508 -1.79412e-17)
(194.961 20.4153 0)
(201.718 20.8946 -3.25118e-17)
(207.796 21.6986 -1.51434e-17)
(215.591 22.2266 -1.45708e-17)
(222.336 23.2052 1.00809e-21)
(231.454 23.7833 -1.28846e-17)
(238.978 24.9841 1.15283e-17)
(249.804 25.6188 -1.11939e-17)
(258.251 27.1117 9.64671e-18)
(271.323 27.8413 0)
(280.906 29.7505 7.71514e-18)
(297.025 30.6775 7.83781e-18)
(308.15 33.1581 0)
(328.573 34.3866 0)
(341.987 37.4206 7.60701e-18)
(368.479 38.8358 0)
(385.144 41.8243 0)
(419.42 43.0613 -3.41608e-18)
(440.109 44.3333 -5.58374e-19)
(482.498 44.9425 0)
(508.118 38.2739 0)
(549.393 35.96 0)
(577.154 1.68411 4.68225e-19)
(552.272 -17.059 -3.71931e-19)
(541.343 -26.1291 0)
(507.129 -29.5623 -3.99598e-19)
(491.159 -28.8304 2.8696e-18)
(461.475 -29.763 1.25299e-18)
(445.567 -28.8541 0)
(420.328 -29.1199 0)
(405.452 -27.5726 0)
(384.688 -27.0573 -3.00399e-23)
(371.621 -25.316 0)
(354.794 -24.588 4.23797e-18)
(343.412 -23.044 -7.92377e-18)
(329.621 -22.3552 5.31255e-18)
(319.635 -21.1005 -5.29949e-18)
(308.167 -20.5182 -6.35621e-18)
(299.341 -19.5526 -6.50743e-18)
(289.619 -19.1054 -1.47065e-17)
(281.699 -18.4101 0)
(273.233 -18.0981 0)
(265.986 -17.6209 1.74169e-17)
(258.418 -17.4002 9.3736e-18)
(251.699 -17.0613 1.96532e-17)
(244.813 -16.8713 1.04723e-17)
(238.556 -16.596 0)
(232.231 -16.3844 1.16426e-17)
(226.416 -16.1207 -1.22188e-17)
(220.589 -15.8558 1.28436e-17)
(215.223 -15.5804 1.34315e-17)
(209.858 -15.2526 1.40063e-17)
(204.957 -14.9701 2.9144e-17)
(200.019 -14.5869 1.50741e-17)
(195.593 -14.3224 0)
(191.029 -13.899 -1.60457e-17)
(187.077 -13.6859 -1.6589e-17)
(182.81 -13.2321 -1.69721e-17)
(179.327 -13.0986 3.51341e-17)
(175.256 -12.6107 3.58244e-17)
(172.256 -12.5692 1.86069e-17)
(168.258 -12.0323 1.88967e-17)
(165.79 -12.0698 3.9481e-17)
(161.728 -11.4703 -1.9925e-17)
(159.888 -11.5323 -2.09811e-17)
(155.617 -10.8739 2.09716e-17)
(154.552 -10.8732 2.23275e-17)
(149.943 -9.947 2.20205e-17)
(100.007 0.591675 0)
(100.224 1.69192 -8.77288e-17)
(100.673 2.71155 0)
(101.298 3.59308 0)
(102.101 4.38806 -3.78955e-17)
(103.039 5.18393 3.49981e-17)
(104.136 6.23776 0)
(105.411 7.72198 0)
(106.92 9.65927 -3.011e-17)
(108.692 11.8235 0)
(110.793 13.9049 -6.01621e-17)
(113.235 15.6089 3.05296e-17)
(116.063 16.7602 -3.10994e-17)
(119.199 17.3259 3.16397e-17)
(122.606 17.3839 0)
(126.103 17.1239 6.42524e-17)
(129.665 16.7397 0)
(133.144 16.4335 -3.08882e-17)
(136.682 16.2631 4.0774e-22)
(140.179 16.2559 2.83507e-17)
(143.865 16.3216 0)
(147.544 16.4753 2.59237e-17)
(151.501 16.6422 2.49247e-17)
(155.428 16.8953 0)
(159.732 17.1423 0)
(163.962 17.4922 2.21176e-17)
(168.698 17.8082 0)
(173.291 18.2527 -2.03773e-17)
(178.562 18.627 0)
(183.578 19.1717 -1.86442e-17)
(189.512 19.5984 0)
(195.021 20.2578 0)
(201.78 20.7336 1.62549e-17)
(207.861 21.5313 1.51427e-17)
(215.658 22.0555 2.91394e-17)
(222.405 23.0265 1.33543e-17)
(231.527 23.6005 1.28836e-17)
(239.054 24.792 0)
(249.884 25.4223 0)
(258.335 26.9036 -1.17994e-21)
(271.411 27.6284 0)
(281.001 29.5228 7.71226e-18)
(297.125 30.4434 -1.56747e-17)
(308.26 32.9044 0)
(328.688 34.1234 0)
(342.113 37.132 -1.23585e-21)
(368.608 38.5347 0)
(385.282 41.4966 0)
(419.549 42.7212 3.41559e-18)
(440.241 43.9771 -5.59922e-19)
(482.591 44.5734 1.99655e-18)
(508.187 37.9452 0)
(549.354 35.6357 -7.37318e-19)
(577.039 1.67353 0)
(552.239 -16.9035 1.22862e-19)
(541.332 -25.9128 -6.53387e-18)
(507.144 -29.318 7.99086e-19)
(491.191 -28.5913 0)
(461.526 -29.5184 0)
(445.629 -28.6189 -7.0374e-19)
(420.4 -28.8845 2.17304e-18)
(405.529 -27.3514 0)
(384.767 -26.8416 3.18151e-18)
(371.7 -25.1152 0)
(354.87 -24.3934 -8.47374e-18)
(343.485 -22.8619 4.80902e-22)
(329.692 -22.1786 5.31177e-18)
(319.703 -20.9342 4.48948e-22)
(308.231 -20.3566 6.35557e-18)
(299.402 -19.399 1.30138e-17)
(289.677 -18.9554 7.35319e-18)
(281.754 -18.2656 0)
(273.285 -17.9559 8.34239e-18)
(266.035 -17.4823 -8.70909e-18)
(258.465 -17.2632 -9.37388e-18)
(251.745 -16.9269 -9.82734e-18)
(244.859 -16.7382 -1.04732e-17)
(238.601 -16.465 0)
(232.276 -16.2551 -1.16422e-17)
(226.46 -15.9935 2.44371e-17)
(220.633 -15.7307 -1.28432e-17)
(215.267 -15.4576 -1.34302e-17)
(209.901 -15.1324 -1.40048e-17)
(205.001 -14.8524 -1.45711e-17)
(200.061 -14.4724 -3.01468e-17)
(195.636 -14.2103 0)
(191.07 -13.7903 1.60463e-17)
(187.118 -13.5792 -1.65902e-17)
(182.849 -13.129 3.76722e-22)
(179.366 -12.9967 -3.51402e-17)
(175.293 -12.5126 -1.79159e-17)
(172.294 -12.4714 -1.86123e-17)
(168.295 -11.9389 -3.78053e-17)
(165.827 -11.9757 3.17078e-22)
(161.765 -11.3814 0)
(159.926 -11.4419 2.09937e-17)
(155.656 -10.79 0)
(154.592 -10.7879 -2.23486e-17)
(149.987 -9.87129 -2.20427e-17)
(100.007 0.585939 0)
(100.223 1.67557 4.38765e-17)
(100.67 2.68538 0)
(101.293 3.55865 0)
(102.092 4.34648 0)
(103.027 5.1359 3.50291e-17)
(104.121 6.18244 -3.25579e-17)
(105.394 7.65812 3.09084e-17)
(106.905 9.58539 3.01004e-17)
(108.681 11.7383 0)
(110.789 13.8073 3.00456e-17)
(113.241 15.4987 0)
(116.078 16.6385 0)
(119.222 17.1955 -3.15867e-17)
(122.635 17.2491 0)
(126.133 16.989 -3.20776e-17)
(129.696 16.6077 0)
(133.176 16.3048 4.10499e-22)
(136.715 16.1366 2.96808e-17)
(140.214 16.1298 0)
(143.903 16.195 2.71045e-17)
(147.583 16.3474 -2.59247e-17)
(151.543 16.5129 -4.75156e-22)
(155.472 16.7638 0)
(159.777 17.0089 0)
(164.009 17.356 -6.1096e-22)
(168.747 17.6695 -2.13284e-17)
(173.341 18.1105 0)
(178.615 18.482 1.96279e-17)
(183.633 19.0224 0)
(189.569 19.4459 0)
(195.08 20.1001 0)
(201.842 20.5724 1.62531e-17)
(207.924 21.3639 0)
(215.725 21.8842 -1.45686e-17)
(222.475 22.8477 0)
(231.599 23.4175 0)
(239.129 24.5997 -1.15231e-17)
(249.963 25.2256 -1.11901e-17)
(258.419 26.6954 -9.64386e-18)
(271.499 27.4153 9.49577e-18)
(281.095 29.2949 -7.71186e-18)
(297.224 30.2091 4.72185e-22)
(308.369 32.6504 0)
(328.802 33.8599 0)
(342.239 36.8432 -1.22602e-21)
(368.736 38.2334 0)
(385.419 41.1687 0)
(419.676 42.3809 -3.41581e-18)
(440.371 43.6209 5.60084e-19)
(482.684 44.2046 -5.08758e-23)
(508.255 37.6171 0)
(549.314 35.3124 -1.31047e-21)
(576.926 1.66292 4.6874e-19)
(552.206 -16.7484 1.19032e-19)
(541.32 -25.6968 6.53444e-18)
(507.158 -29.0739 1.47299e-21)
(491.223 -28.3523 0)
(461.577 -29.2739 0)
(445.69 -28.3838 7.0276e-19)
(420.471 -28.6491 -1.55297e-22)
(405.604 -27.1301 0)
(384.846 -26.6259 0)
(371.777 -24.9144 0)
(354.946 -24.1988 8.47164e-18)
(343.558 -22.6798 4.77038e-22)
(329.762 -22.0019 -5.31089e-18)
(319.77 -20.7677 5.29757e-18)
(308.295 -20.195 0)
(299.463 -19.2453 -6.50633e-18)
(289.734 -18.8053 7.3529e-18)
(281.808 -18.1211 7.62032e-18)
(273.336 -17.8137 -2.77459e-22)
(266.084 -17.3437 0)
(258.513 -17.1261 9.37488e-18)
(251.791 -16.7924 0)
(244.904 -16.6051 0)
(238.645 -16.334 0)
(232.32 -16.1257 2.32847e-17)
(226.504 -15.8662 -1.22183e-17)
(220.676 -15.6055 0)
(215.311 -15.3347 2.68588e-17)
(209.945 -15.0122 3.18818e-22)
(205.044 -14.7347 0)
(200.104 -14.3578 1.50727e-17)
(195.678 -14.0981 0)
(191.111 -13.6815 -1.60462e-17)
(187.158 -13.4724 4.31542e-23)
(182.888 -13.0258 3.7416e-22)
(179.405 -12.8947 3.51464e-17)
(175.33 -12.4145 0)
(172.331 -12.3736 -1.69041e-22)
(168.331 -11.8454 3.78164e-17)
(165.865 -11.8815 -3.95142e-17)
(161.801 -11.2926 -1.99421e-17)
(159.964 -11.3515 0)
(155.695 -10.7061 0)
(154.633 -10.7026 -5.82797e-22)
(150.03 -9.79558 0)
(100.007 0.580229 0)
(100.222 1.65929 -4.38851e-17)
(100.667 2.65932 0)
(101.287 3.52437 0)
(102.084 4.30507 0)
(103.015 5.08804 -1.30906e-21)
(104.106 6.12725 3.25808e-17)
(105.378 7.59431 -3.09162e-17)
(106.889 9.51143 -6.92949e-22)
(108.67 11.653 2.98261e-17)
(110.785 13.7095 0)
(113.246 15.3881 0)
(116.094 16.5163 0)
(119.245 17.0647 0)
(122.663 17.1141 0)
(126.163 16.854 -3.2029e-17)
(129.727 16.4756 -3.16854e-17)
(133.207 16.176 4.06527e-22)
(136.748 16.01 -2.96608e-17)
(140.249 16.0036 2.83309e-17)
(143.94 16.0682 -2.71021e-17)
(147.622 16.2193 -2.59247e-17)
(151.584 16.3834 -4.71291e-22)
(155.515 16.6322 0)
(159.822 16.8753 2.30673e-17)
(164.056 17.2196 -2.21194e-17)
(168.796 17.5307 4.26576e-17)
(173.392 17.9682 -2.03758e-17)
(178.667 18.3368 -3.92552e-17)
(183.687 18.873 0)
(189.626 19.2933 1.79376e-17)
(195.138 19.9423 0)
(201.903 20.4111 -3.25043e-17)
(207.988 21.1963 1.51385e-17)
(215.791 21.7128 -1.45666e-17)
(222.544 22.6686 -1.33496e-17)
(231.671 23.2344 0)
(239.205 24.4072 2.30433e-17)
(250.042 25.0287 1.11891e-17)
(258.502 26.487 9.64071e-18)
(271.586 27.2019 -9.49506e-18)
(281.189 29.0668 0)
(297.323 29.9745 7.83625e-18)
(308.477 32.3961 0)
(328.916 33.5961 -6.27815e-18)
(342.364 36.554 -3.80057e-18)
(368.862 37.9318 0)
(385.555 40.8405 0)
(419.803 42.0404 0)
(440.5 43.2646 0)
(482.775 43.8359 -4.69244e-23)
(508.322 37.2895 0)
(549.275 34.9899 7.41688e-19)
(576.814 1.65226 -7.19599e-22)
(552.173 -16.5938 -2.02662e-21)
(541.309 -25.481 0)
(507.171 -28.8299 -4.00276e-19)
(491.255 -28.1135 0)
(461.627 -29.0294 1.24619e-18)
(445.75 -28.1487 7.03671e-19)
(420.541 -28.4137 -2.16843e-18)
(405.68 -26.9087 -9.57479e-19)
(384.924 -26.4101 0)
(371.854 -24.7135 -2.50526e-18)
(355.021 -24.004 -4.23472e-18)
(343.631 -22.4975 3.95827e-18)
(329.832 -21.8252 0)
(319.837 -20.6012 0)
(308.359 -20.0333 0)
(299.523 -19.0915 0)
(289.791 -18.6551 -1.47057e-17)
(281.862 -17.9765 -7.6207e-18)
(273.387 -17.6714 -1.66867e-17)
(266.133 -17.2051 -8.70931e-18)
(258.56 -16.989 0)
(251.837 -16.6578 0)
(244.949 -16.4719 1.04737e-17)
(238.69 -16.203 1.09995e-17)
(232.364 -15.9962 -1.16425e-17)
(226.548 -15.7389 0)
(220.72 -15.4802 0)
(215.355 -15.2118 -1.34286e-17)
(209.988 -14.8919 1.40029e-17)
(205.088 -14.6169 0)
(200.146 -14.2431 0)
(195.72 -13.9858 1.56129e-17)
(191.152 -13.5727 3.20931e-17)
(187.199 -13.3655 4.2834e-23)
(182.927 -12.9226 1.69777e-17)
(179.444 -12.7927 -1.75762e-17)
(175.367 -12.3163 0)
(172.369 -12.2757 1.86226e-17)
(168.367 -11.752 -1.89141e-17)
(165.902 -11.7873 -3.11554e-22)
(161.838 -11.2037 1.99517e-17)
(160.002 -11.2612 0)
(155.734 -10.6222 -2.10139e-17)
(154.673 -10.6174 2.23886e-17)
(150.074 -9.71987 0)
(100.007 0.574543 -4.48011e-17)
(100.221 1.64308 4.38981e-17)
(100.664 2.63337 0)
(101.282 3.49024 4.06138e-17)
(102.075 4.26383 0)
(103.003 5.04034 -1.29839e-21)
(104.092 6.07219 3.26017e-17)
(105.362 7.53053 0)
(106.874 9.43739 -3.00837e-17)
(108.659 11.5674 -5.19163e-22)
(110.782 13.6113 0)
(113.252 15.2771 0)
(116.109 16.3938 0)
(119.269 16.9337 0)
(122.691 16.979 0)
(126.193 16.7189 6.39633e-17)
(129.758 16.3434 3.16449e-17)
(133.238 16.0471 6.15893e-17)
(136.781 15.8833 2.96419e-17)
(140.283 15.8773 -2.8322e-17)
(143.977 15.9414 2.70989e-17)
(147.661 16.0911 2.59257e-17)
(151.625 16.2537 -2.49303e-17)
(155.558 16.5005 2.39237e-17)
(159.866 16.7416 -2.3069e-17)
(164.102 17.0831 -2.21193e-17)
(168.844 17.3918 -2.13292e-17)
(173.442 17.8258 2.03761e-17)
(178.719 18.1915 1.96273e-17)
(183.741 18.7234 0)
(189.682 19.1405 -5.65335e-22)
(195.196 19.7844 0)
(201.963 20.2496 1.62512e-17)
(208.051 21.0285 -3.02748e-17)
(215.857 21.5412 1.45658e-17)
(222.612 22.4894 2.66966e-17)
(231.742 23.051 1.28783e-17)
(239.279 24.2145 -1.15202e-17)
(250.12 24.8316 1.1187e-17)
(258.584 26.2783 -1.15125e-21)
(271.673 26.9883 0)
(281.281 28.8384 0)
(297.421 29.7396 7.83512e-18)
(308.584 32.1415 0)
(329.029 33.3319 6.27822e-18)
(342.488 36.2646 0)
(368.988 37.6299 0)
(385.689 40.5122 0)
(419.928 41.6998 0)
(440.627 42.9083 0)
(482.866 43.4673 -1.99951e-18)
(508.389 36.9624 0)
(549.235 34.6683 0)
(576.702 1.64158 -4.70766e-19)
(552.141 -16.4397 -1.17549e-19)
(541.297 -25.2655 0)
(507.184 -28.5862 0)
(491.285 -27.8748 2.84492e-18)
(461.676 -28.7851 -1.24401e-18)
(445.81 -27.9136 -7.02736e-19)
(420.611 -28.1783 2.16595e-18)
(405.754 -26.6874 7.82364e-22)
(385.001 -26.1941 3.17623e-18)
(371.931 -24.5124 2.50426e-18)
(355.096 -23.8091 0)
(343.703 -22.3151 -3.95652e-18)
(329.901 -21.6483 0)
(319.904 -20.4345 0)
(308.422 -19.8714 0)
(299.583 -18.9376 -6.50432e-18)
(289.847 -18.5048 1.47054e-17)
(281.915 -17.8317 -7.6201e-18)
(273.437 -17.5289 2.73154e-22)
(266.182 -17.0663 8.71019e-18)
(258.606 -16.8518 -9.3758e-18)
(251.883 -16.5232 0)
(244.993 -16.3386 -2.09488e-17)
(238.734 -16.0719 -1.10002e-17)
(232.407 -15.8667 1.1642e-17)
(226.592 -15.6115 1.2217e-17)
(220.763 -15.355 0)
(215.398 -15.0889 0)
(210.03 -14.7716 -1.40015e-17)
(205.13 -14.499 0)
(200.188 -14.1284 1.50708e-17)
(195.762 -13.8735 -1.56128e-17)
(191.192 -13.4638 -1.60469e-17)
(187.239 -13.2586 3.31879e-17)
(182.965 -12.8193 -1.6979e-17)
(179.483 -12.6906 0)
(175.404 -12.2181 -1.79256e-17)
(172.406 -12.1777 -1.8628e-17)
(168.402 -11.6584 0)
(165.938 -11.693 1.97734e-17)
(161.874 -11.1148 0)
(160.04 -11.1708 2.10332e-17)
(155.773 -10.5383 2.10288e-17)
(154.712 -10.5322 -2.24092e-17)
(150.117 -9.64416 2.21061e-17)
(100.007 0.568882 4.48099e-17)
(100.22 1.62693 0)
(100.661 2.60753 0)
(101.277 3.45624 -8.1282e-17)
(102.067 4.22274 0)
(102.992 4.9928 -7.02543e-17)
(104.077 6.01725 -3.26248e-17)
(105.346 7.4668 0)
(106.859 9.36326 0)