/*--------------------------------*- C++ -*----------------------------------*\
| =========                 |                                                 |
| \\      /  F ield         | OpenFOAM: The Open Source CFD Toolbox           |
|  \\    /   O peration     | Version:  2412                                  |
|   \\  /    A nd           | Website:  www.openfoam.com                      |
|    \\/     M anipulation  |                                                 |
\*---------------------------------------------------------------------------*/
FoamFile
{
    version     2.0;
    format      ascii;
    arch        "LSB;label=32;scalar=64";
    class       volScalarField;
    location    "0.2";
    object      epsilon;
}
// * * * * * * * * * * * * * * * * * * * * * * * * * * * * * * * * * * * * * //

dimensions      [0 2 -3 0 0 0 0];

internalField   nonuniform List<scalar> 
13156
(
4.34994e+06
4.76299e+06
3.60581e+06
2.92431e+06
2.60929e+06
2.42989e+06
2.30722e+06
2.22283e+06
2.17449e+06
2.15454e+06
2.15375e+06
2.16231e+06
2.17694e+06
2.19515e+06
2.21992e+06
2.25081e+06
2.29401e+06
2.3473e+06
2.41884e+06
2.50368e+06
2.61431e+06
2.74047e+06
2.90435e+06
3.08414e+06
3.31845e+06
3.56503e+06
3.88965e+06
4.22086e+06
4.67628e+06
5.14173e+06
5.84872e+06
6.61514e+06
7.86102e+06
9.17208e+06
1.13112e+07
1.34045e+07
1.71287e+07
2.11423e+07
3.00947e+07
4.1864e+07
6.35288e+07
8.23817e+07
1.06328e+08
1.1604e+08
1.33264e+08
1.38183e+08
1.7017e+08
1.91402e+08
2.52474e+08
2.85996e+08
4.00556e+08
4.90898e+08
9.92619e+08
1.04426e+09
6.82858e+08
4.92215e+08
3.87344e+08
3.32957e+08
3.21328e+08
3.22312e+08
3.09913e+08
2.78086e+08
2.40941e+08
2.04289e+08
1.72504e+08
1.45253e+08
1.22681e+08
1.03681e+08
8.82401e+07
7.57828e+07
6.66116e+07
6.06117e+07
5.86842e+07
6.08399e+07
6.64663e+07
7.24158e+07
7.6344e+07
7.67203e+07
7.40483e+07
6.90853e+07
6.29902e+07
5.64871e+07
5.01618e+07
4.43078e+07
3.90642e+07
3.44994e+07
3.05504e+07
2.72149e+07
2.43465e+07
2.19594e+07
1.98743e+07
1.8157e+07
1.65899e+07
1.53284e+07
1.40628e+07
1.31187e+07
1.19772e+07
1.13009e+07
1.01856e+07
1.69308e+07
9.50952e+06
3.5311e+06
1.62573e+06
984350
762634
698490
698803
718841
740683
755730
766341
773092
780725
788287
800079
812441
831719
851586
881539
911413
956256
998412
1.0643e+06
1.1228e+06
1.21915e+06
1.30473e+06
1.44767e+06
1.57416e+06
1.80161e+06
2.02176e+06
2.42482e+06
2.81362e+06
3.46293e+06
4.02653e+06
5.02168e+06
5.93292e+06
7.7278e+06
1.01136e+07
1.45374e+07
2.0838e+07
2.84158e+07
3.51423e+07
4.06705e+07
4.35741e+07
4.85061e+07
5.39999e+07
6.54741e+07
7.78654e+07
9.7303e+07
1.21298e+08
1.61343e+08
2.52746e+08
3.94976e+08
3.01602e+08
2.11069e+08
1.5065e+08
1.33827e+08
1.30518e+08
1.30331e+08
1.19642e+08
1.0438e+08
8.73098e+07
7.4571e+07
6.20067e+07
5.29104e+07
4.4067e+07
3.7592e+07
3.15849e+07
2.7309e+07
2.37962e+07
2.1712e+07
2.09659e+07
2.18036e+07
2.39162e+07
2.62754e+07
2.78996e+07
2.8224e+07
2.73339e+07
2.55463e+07
2.32732e+07
2.08259e+07
1.8427e+07
1.62032e+07
1.42141e+07
1.24829e+07
1.09969e+07
9.7409e+06
8.68032e+06
7.79203e+06
7.04133e+06
6.4093e+06
5.87036e+06
5.40351e+06
5.02553e+06
4.64897e+06
4.39915e+06
4.05733e+06
3.89888e+06
2.13697e+06
2.48126e+06
1.21336e+06
659007
416290
307903
263636
252386
256989
268530
280818
291915
300651
308227
314659
321716
328766
337975
347869
361322
375812
395529
416130
444370
473174
513420
553744
613524
674704
778045
896484
1.10131e+06
1.31601e+06
1.64735e+06
1.95399e+06
2.45876e+06
2.97512e+06
3.97559e+06
5.47898e+06
8.32389e+06
1.2443e+07
1.73872e+07
2.1667e+07
2.49428e+07
2.64421e+07
2.88202e+07
3.18959e+07
3.84229e+07
4.53782e+07
5.58053e+07
6.7687e+07
8.94542e+07
1.26154e+08
1.84909e+08
1.73629e+08
1.3088e+08
9.81608e+07
8.76757e+07
8.74497e+07
8.62818e+07
7.73167e+07
6.6274e+07
5.54542e+07
4.71344e+07
3.94659e+07
3.35085e+07
2.80348e+07
2.37664e+07
2.0013e+07
1.72032e+07
1.50174e+07
1.37106e+07
1.33371e+07
1.40436e+07
1.56225e+07
1.73946e+07
1.86559e+07
1.90132e+07
1.84965e+07
1.73286e+07
1.57907e+07
1.41096e+07
1.2445e+07
1.08922e+07
9.49816e+06
8.28082e+06
7.23604e+06
6.3513e+06
5.6073e+06
4.9834e+06
4.46113e+06
4.02056e+06
3.65083e+06
3.33107e+06
3.0685e+06
2.82309e+06
2.63959e+06
2.43353e+06
2.30121e+06
272497
513942
371758
274801
212629
174244
153262
144523
143392
146664
151489
156465
160542
163889
166369
168796
170962
174020
177322
182435
188068
196567
205477
218763
232038
252122
271258
302474
333610
391955
460300
585282
722281
936954
1.15202e+06
1.49153e+06
1.87565e+06
2.60059e+06
3.81393e+06
6.11066e+06
9.5019e+06
1.34912e+07
1.69211e+07
1.93525e+07
2.04176e+07
2.19038e+07
2.42911e+07
2.9108e+07
3.43691e+07
4.153e+07
4.95705e+07
6.46229e+07
8.76967e+07
1.19193e+08
1.22247e+08
9.90824e+07
7.81083e+07
7.02591e+07
7.0252e+07
6.83021e+07
6.04857e+07
5.17414e+07
4.3631e+07
3.71262e+07
3.12551e+07
2.64894e+07
2.22281e+07
1.87908e+07
1.58416e+07
1.3574e+07
1.18533e+07
1.08244e+07
1.05798e+07
1.12361e+07
1.26228e+07
1.41775e+07
1.53047e+07
1.56734e+07
1.52979e+07
1.43623e+07
1.30995e+07
1.17026e+07
1.03086e+07
9.00089e+06
7.82254e+06
6.79033e+06
5.90301e+06
5.1504e+06
4.5175e+06
3.98666e+06
3.543e+06
3.1694e+06
2.85665e+06
2.58825e+06
2.36482e+06
2.16409e+06
2.00447e+06
1.84329e+06
1.7253e+06
61534.1
138215
145717
142822
133407
122329
113675
108824
107240
107915
109528
111265
112477
113139
113152
112929
112418
112256
112165
113012
114142
116863
119824
125322
130762
140304
149138
165560
182253
217127
261642
346375
449061
608651
784049
1.04806e+06
1.3734e+06
1.973e+06
3.05406e+06
5.09824e+06
8.15477e+06
1.16876e+07
1.47054e+07
1.67223e+07
1.75842e+07
1.86772e+07
2.07864e+07
2.48442e+07
2.93297e+07
3.49618e+07
4.12635e+07
5.31795e+07
7.12548e+07
9.23208e+07
9.77186e+07
8.3341e+07
6.82655e+07
6.16945e+07
6.12249e+07
5.8647e+07
5.17296e+07
4.44929e+07
3.7873e+07
3.23278e+07
2.73297e+07
2.31564e+07
1.94732e+07
1.64435e+07
1.38735e+07
1.18667e+07
1.03621e+07
9.46351e+06
9.27894e+06
9.91181e+06
1.12084e+07
1.26582e+07
1.37199e+07
1.40937e+07
1.37875e+07
1.29654e+07
1.18367e+07
1.0577e+07
9.31264e+06
8.12141e+06
7.04467e+06
6.09916e+06
5.28507e+06
4.59375e+06
4.01198e+06
3.52404e+06
3.1162e+06
2.77346e+06
2.48648e+06
2.24183e+06
2.03661e+06
1.85629e+06
1.70826e+06
1.5677e+06
1.45781e+06
25582.4
63159
81177.6
91282.1
95141.2
94689.8
92798.3
91338.2
90838.9
91165.6
91750.1
92173.5
92078.9
91455.6
90274.2
88796
87043
85410
83789
82684.9
81767.7
81771.9
81963.5
83632.4
85328.1
89440
93283.6
101845
111606
134258
167671
231333
315847
444526
596762
818960
1.11155e+06
1.64512e+06
2.6577e+06
4.57293e+06
7.45654e+06
1.07417e+07
1.35264e+07
1.5304e+07
1.6048e+07
1.69375e+07
1.89212e+07
2.25904e+07
2.66466e+07
3.14292e+07
3.67707e+07
4.69541e+07
6.27792e+07
7.91327e+07
8.45777e+07
7.45826e+07
6.27973e+07
5.68356e+07
5.56914e+07
5.26337e+07
4.64916e+07
4.03443e+07
3.46603e+07
2.96908e+07
2.51845e+07
2.13471e+07
1.79826e+07
1.51796e+07
1.28151e+07
1.09498e+07
9.56063e+06
8.73269e+06
8.58223e+06
9.20619e+06
1.04582e+07
1.18532e+07
1.28805e+07
1.32579e+07
1.29908e+07
1.22315e+07
1.11761e+07
9.99041e+06
8.79511e+06
7.66512e+06
6.64125e+06
5.74042e+06
4.9638e+06
4.3037e+06
3.74781e+06
3.28164e+06
2.89186e+06
2.56485e+06
2.2909e+06
2.05854e+06
1.86285e+06
1.69322e+06
1.55145e+06
1.42203e+06
1.31691e+06
16155.5
40559.9
55772.6
66557.5
73662.3
77465.7
79303.6
80365.6
81196.7
81926.8
82355.7
82318.7
81663.6
80438.5
78679.6
76594.8
74250.6
71925.7
69596.1
67586.7
65728.6
64461.3
63372
63209.8
63149.4
64586.3
66067.8
70699.8
77307.5
93974.5
121858
173779
246951
356520
493257
689833
962290
1.45876e+06
2.43579e+06
4.28538e+06
7.07834e+06
1.02222e+07
1.28644e+07
1.44897e+07
1.51559e+07
1.59298e+07
1.78589e+07
2.13145e+07
2.51046e+07
2.9359e+07
3.41007e+07
4.32215e+07
5.79349e+07
7.19184e+07
7.70036e+07
6.94013e+07
5.95642e+07
5.38221e+07
5.19358e+07
4.85372e+07
4.30977e+07
3.77846e+07
3.27362e+07
2.81376e+07
2.39323e+07
2.02994e+07
1.71247e+07
1.44558e+07
1.22101e+07
1.04261e+07
9.10248e+06
8.31565e+06
8.18742e+06
8.81108e+06
1.00426e+07
1.14098e+07
1.24194e+07
1.28005e+07
1.25572e+07
1.18347e+07
1.08214e+07
9.67724e+06
8.51982e+06
7.42268e+06
6.42664e+06
5.54899e+06
4.79156e+06
4.14735e+06
3.60453e+06
3.14939e+06
2.76874e+06
2.44983e+06
2.18257e+06
1.95676e+06
1.76616e+06
1.60249e+06
1.46421e+06
1.34135e+06
1.23914e+06
12256.1
30688.8
42957
52570.8
60205.1
65744.8
69669
72506.6
74535.9
75883.8
76508.7
76398.9
75542.8
74050.1
72012.7
69624.8
66983.5
64310.8
61628.1
59167.1
56844.1
54944.2
53225
52149.2
51227.8
51325.2
51669.4
54386.3
59616.8
73400.3
98279.3
143303
209008
306226
432232
612297
872015
1.3475e+06
2.30814e+06
4.12826e+06
6.87728e+06
9.94069e+06
1.24922e+07
1.40148e+07
1.46252e+07
1.53302e+07
1.72416e+07
2.05766e+07
2.41877e+07
2.80869e+07
3.24206e+07
4.08415e+07
5.50003e+07
6.77347e+07
7.24565e+07
6.62564e+07
5.76e+07
5.18262e+07
4.91908e+07
4.55779e+07
4.07892e+07
3.61385e+07
3.15434e+07
2.71948e+07
2.31827e+07
1.96792e+07
1.66221e+07
1.40342e+07
1.18588e+07
1.01215e+07
8.83579e+06
8.07358e+06
7.96116e+06
8.5897e+06
9.81475e+06
1.11696e+07
1.21715e+07
1.25568e+07
1.23289e+07
1.16287e+07
1.06397e+07
9.51847e+06
8.38114e+06
7.3007e+06
6.31828e+06
5.45162e+06
4.70306e+06
4.06611e+06
3.52917e+06
3.07905e+06
2.70255e+06
2.38749e+06
2.12341e+06
1.90096e+06
1.71299e+06
1.55267e+06
1.41635e+06
1.29753e+06
1.19717e+06
10218.3
25275.2
35335
43674.4
51059.3
57274.7
62381
66444
69452.6
71431.1
72384.4
72384.6
71512.7
69930.5
67774.7
65241.9
62452
59599
56731.6
54030.7
51460.6
49221.9
47167.7
45603.4
44227.7
43618.1
43392
45179.1
49859.4
62264.1
85447.9
126275
186985
275995
394494
563632
815342
1.27953e+06
2.23551e+06
4.04797e+06
6.78107e+06
9.80128e+06
1.22943e+07
1.37452e+07
1.43134e+07
1.49767e+07
1.68906e+07
2.01579e+07
2.36398e+07
2.72854e+07
3.13232e+07
3.92571e+07
5.3163e+07
6.52513e+07
6.96863e+07
6.43536e+07
5.64017e+07
5.04247e+07
4.70655e+07
4.33508e+07
3.91689e+07
3.50573e+07
3.07958e+07
2.66205e+07
2.27362e+07
1.93162e+07
1.6333e+07
1.37939e+07
1.16594e+07
9.94792e+06
8.68338e+06
7.93583e+06
7.83525e+06
8.47161e+06
9.69833e+06
1.10504e+07
1.20509e+07
1.24409e+07
1.22235e+07
1.15368e+07
1.05614e+07
9.45201e+06
8.32408e+06
7.25067e+06
6.2734e+06
5.41046e+06
4.66468e+06
4.02987e+06
3.4946e+06
3.04597e+06
2.67073e+06
2.35703e+06
2.09413e+06
1.87317e+06
1.68642e+06
1.52793e+06
1.39267e+06
1.27642e+06
1.17732e+06
8962.59
21818.2
30260.7
37517.5
44448.9
50869
56644.8
61544.4
65317.2
67862.5
69176.4
69369.8
68581.3
67011.5
64831.6
62246.1
59392.6
56451.8
53489.6
50658.7
47952.3
45522.1
43278.1
41434.7
39801.9
38797.1
38278.5
39631.4
44168.5
55956.9
78192.4
116400
173722
257153
370357
532162
778984
1.23793e+06
2.1965e+06
4.01462e+06
6.74881e+06
9.74955e+06
1.22051e+07
1.36053e+07
1.41404e+07
1.47788e+07
1.67058e+07
1.99363e+07
2.33181e+07
2.67737e+07
3.05854e+07
3.81637e+07
5.19889e+07
6.37846e+07
6.80143e+07
6.32411e+07
5.5679e+07
4.93801e+07
4.53421e+07
4.16223e+07
3.80062e+07
3.43403e+07
3.03299e+07
2.62777e+07
2.24795e+07
1.91141e+07
1.6177e+07
1.36663e+07
1.15541e+07
9.85543e+06
8.60154e+06
7.86234e+06
7.77084e+06
8.41642e+06
9.64947e+06
1.10044e+07
1.20075e+07
1.24027e+07
1.21929e+07
1.15144e+07
1.05461e+07
9.4417e+06
8.31669e+06
7.24445e+06
6.26722e+06
5.40366e+06
4.65702e+06
4.02133e+06
3.48526e+06
3.03606e+06
2.6604e+06
2.34661e+06
2.08373e+06
1.8632e+06
1.67686e+06
1.5193e+06
1.38462e+06
1.27005e+06
1.17191e+06
8086.84
19362.3
26596.9
32978.8
39435.2
45844.7
51990
57452.8
61803.5
64826.5
66485.6
66903
66249.5
64752.7
62607.9
60028.6
57165.9
54194.4
51191.9
48295.2
45515.3
42975.4
40620.1
38610
36824
35589.3
34926.9
36112.5
40722.1
52302
74033.3
110576
165560
245117
354546
511395
755393
1.21292e+06
2.17835e+06
4.01e+06
6.75524e+06
9.75176e+06
1.21839e+07
1.35481e+07
1.40567e+07
1.46814e+07
1.66262e+07
1.98376e+07
2.31366e+07
2.64433e+07
3.00743e+07
3.73805e+07
5.12232e+07
6.29468e+07
6.70419e+07
6.26412e+07
5.52513e+07
4.85483e+07
4.38903e+07
4.02463e+07
3.7156e+07
3.38628e+07
3.00448e+07
2.6082e+07
2.23427e+07
1.90135e+07
1.61048e+07
1.36093e+07
1.15076e+07
9.81339e+06
8.56347e+06
7.82848e+06
7.74392e+06
8.39902e+06
9.64067e+06
1.10017e+07
1.20096e+07
1.24104e+07
1.22066e+07
1.15332e+07
1.0568e+07
9.46466e+06
8.33873e+06
7.26423e+06
6.28409e+06
5.41744e+06
4.66788e+06
4.02963e+06
3.4914e+06
3.04049e+06
2.66353e+06
2.34886e+06
2.0854e+06
1.8647e+06
1.67836e+06
1.52123e+06
1.3869e+06
1.27348e+06
1.17618e+06
7417.7
17478.3
23785.6
29464.7
35481.8
41782.6
48116.1
53948.4
58723
62130.8
64097.3
64740.5
64246.4
62858
60786.8
58253.7
55419.1
52456
49449.9
46528.9
43715.4
41115.7
38696.3
36585.3
34706.1
33337
32619.3
33793.1
38595.3
50192.3
71684.5
107149
160481
237289
343985
497465
739973
1.19843e+06
2.17293e+06
4.02221e+06
6.78364e+06
9.7855e+06
1.22037e+07
1.35431e+07
1.40299e+07
1.46484e+07
1.66122e+07
1.98137e+07
2.30393e+07
2.62249e+07
2.97054e+07
3.67926e+07
5.07054e+07
6.24999e+07
6.65191e+07
6.23727e+07
5.49991e+07
4.78386e+07
4.26279e+07
3.91253e+07
3.65207e+07
3.35421e+07
2.98738e+07
2.59778e+07
2.22799e+07
1.89753e+07
1.60836e+07
1.35953e+07
1.14966e+07
9.80178e+06
8.55158e+06
7.8181e+06
7.73868e+06
8.40275e+06
9.65357e+06
1.10221e+07
1.2036e+07
1.24427e+07
1.2244e+07
1.15739e+07
1.06099e+07
9.50536e+06
8.3765e+06
7.29798e+06
6.31345e+06
5.44249e+06
4.68904e+06
4.04744e+06
3.50644e+06
3.05334e+06
2.67468e+06
2.35882e+06
2.09454e+06
1.87341e+06
1.68691e+06
1.52998e+06
1.39595e+06
1.2834e+06
1.18696e+06
6871.4
15949.3
21525.2
26635.4
32263
38412.4
44821.2
50883.5
55956.9
59662.1
61889
62743.9
62416.2
61156.1
59183.5
56724.3
53945.2
51018.7
48035.7
45119.7
42300.5
39674.4
37221.9
35051.8
33117.7
31674.5
30960.2
32219.4
37281.6
49019.5
70426.2
105175
157302
232106
336771
487936
729760
1.19044e+06
2.1747e+06
4.043e+06
6.82235e+06
9.83509e+06
1.22458e+07
1.35687e+07
1.40378e+07
1.46551e+07
1.66362e+07
1.98317e+07
2.29884e+07
2.60714e+07
2.94221e+07
3.63231e+07
5.03281e+07
6.22883e+07
6.62805e+07
6.23109e+07
5.484e+07
4.71921e+07
4.15004e+07
3.81902e+07
3.60317e+07
3.33205e+07
2.97707e+07
2.59269e+07
2.22596e+07
1.89727e+07
1.60911e+07
1.36051e+07
1.15051e+07
9.80679e+06
8.55382e+06
7.82008e+06
7.74418e+06
8.416e+06
9.67532e+06
1.10515e+07
1.20717e+07
1.24843e+07
1.22903e+07
1.16231e+07
1.06593e+07
9.55273e+06
8.42021e+06
7.3371e+06
6.34775e+06
5.47216e+06
4.71462e+06
4.06953e+06
3.5257e+06
3.07035e+06
2.69001e+06
2.37293e+06
2.10786e+06
1.88628e+06
1.69965e+06
1.54286e+06
1.40923e+06
1.29742e+06
1.20196e+06
6403.83
14655.9
19640.6
24284.3
29570.9
35552.5
41964
48154.3
53425.5
57349.7
59787.6
60831.5
60666.8
59544
57685.8
55320.1
52616.7
49748.2
46808.8
43919.9
41115.8
38487.4
36024.1
33823.6
31861.4
30385.8
29718.2
31126.6
36483.5
48424.6
69826.5
104080
155283
228575
331665
481192
722744
1.18619e+06
2.17976e+06
4.06644e+06
6.86283e+06
9.88903e+06
1.22964e+07
1.36093e+07
1.40641e+07
1.46838e+07
1.66787e+07
1.9868e+07
2.2957e+07
2.595e+07
2.91852e+07
3.59189e+07
5.00166e+07
6.22056e+07
6.62119e+07
6.23665e+07
5.47154e+07
4.65698e+07
4.04702e+07
3.73899e+07
3.56385e+07
3.31562e+07
2.97024e+07
2.59019e+07
2.22589e+07
1.89863e+07
1.61112e+07
1.36253e+07
1.15216e+07
9.8186e+06
8.56156e+06
7.82645e+06
7.75256e+06
8.43037e+06
9.69656e+06
1.10794e+07
1.21056e+07
1.25241e+07
1.23349e+07
1.16704e+07
1.07069e+07
9.59855e+06
8.4626e+06
7.37521e+06
6.38137e+06
5.50152e+06
4.74025e+06
4.09202e+06
3.54568e+06
3.08837e+06
2.70662e+06
2.38853e+06
2.12288e+06
1.90099e+06
1.71441e+06
1.55785e+06
1.42478e+06
1.31372e+06
1.21942e+06
5990.26
13528.4
18024.1
22279.4
27267.3
33077.4
39443.2
45685.5
51072.8
55147.2
57748.3
58954.5
58942.7
57959.2
56224.3
53965.6
51352.8
48558.9
45679.2
42834.6
40062
37449.6
34992.6
32783.1
30813.1
29337
28749.9
30350.2
36014.8
48182.3
69610.9
103494
153941
226034
327825
476119
717509
1.18369e+06
2.18523e+06
4.08807e+06
6.89871e+06
9.93864e+06
1.2345e+07
1.36532e+07
1.40966e+07
1.47212e+07
1.67251e+07
1.99055e+07
2.29258e+07
2.58372e+07
2.89663e+07
3.55418e+07
4.97169e+07
6.21758e+07
6.62317e+07
6.24735e+07
5.45825e+07
4.59456e+07
3.95099e+07
3.66853e+07
3.53031e+07
3.30182e+07
2.96443e+07
2.58826e+07
2.22611e+07
1.9002e+07
1.61318e+07
1.36456e+07
1.15378e+07
9.82996e+06
8.56847e+06
7.83136e+06
7.75801e+06
8.43964e+06
9.71028e+06
1.1098e+07
1.21293e+07
1.25536e+07
1.23694e+07
1.17082e+07
1.07459e+07
9.63654e+06
8.49812e+06
7.4074e+06
6.41002e+06
5.52677e+06
4.76257e+06
4.11189e+06
3.56367e+06
3.10493e+06
2.72224e+06
2.40353e+06
2.13765e+06
1.91572e+06
1.72946e+06
1.5733e+06
1.44106e+06
1.33082e+06
1.23795e+06
5616.28
12524.3
16606.9
20533.4
25257.9
30897.7
37184.4
43420.7
48858.2
53023.5
55743.2
57083.5
57210.8
56363.4
54756.1
52613
50101.9
47395.2
44588.1
41801.6
39073.7
36492
34054.8
31853
29892.1
28441.5
27963.2
29783.2
35752.9
48143.4
69596.6
103170
152948
224026
324660
471919
713025
1.18147e+06
2.18893e+06
4.10452e+06
6.92507e+06
9.97723e+06
1.23836e+07
1.36913e+07
1.4126e+07
1.47572e+07
1.67646e+07
1.99312e+07
2.28803e+07
2.57155e+07
2.87449e+07
3.5164e+07
4.93895e+07
6.21434e+07
6.62797e+07
6.25818e+07
5.44101e+07
4.53021e+07
3.85993e+07
3.60456e+07
3.49961e+07
3.2883e+07
2.9578e+07
2.58536e+07
2.22534e+07
1.90089e+07
1.61439e+07
1.36585e+07
1.15472e+07
9.83544e+06
8.5698e+06
7.83044e+06
7.7562e+06
8.43911e+06
9.71119e+06
1.11015e+07
1.21365e+07
1.25663e+07
1.23874e+07
1.17306e+07
1.07706e+07
9.66183e+06
8.52243e+06
7.42987e+06
6.43033e+06
5.54495e+06
4.77893e+06
4.12678e+06
3.57753e+06
3.11807e+06
2.73507e+06
2.41625e+06
2.15061e+06
1.929e+06
1.7434e+06
1.5879e+06
1.45678e+06
1.34753e+06
1.25636e+06
5273.14
11616.3
15343.3
18986.5
23475.9
28948.7
35132
41317.5
46751.6
50957.3
53755.1
55201.7
55452.2
54734.5
53255
51232.6
48830.9
46220.9
43496.6
40779.2
38106.8
35567.5
33161.4
30981.2
29044.3
27641.9
27296.1
29352.5
35613.2
48205.2
69657.6
102936
152075
222230
321744
468008
708528
1.1784e+06
2.18921e+06
4.11319e+06
6.93815e+06
9.99957e+06
1.24058e+07
1.37165e+07
1.41451e+07
1.47841e+07
1.67886e+07
1.99354e+07
2.28098e+07
2.5572e+07
2.85059e+07
3.47653e+07
4.90049e+07
6.2067e+07
6.6311e+07
6.2653e+07
5.41752e+07
4.4628e+07
3.77226e+07
3.54461e+07
3.46944e+07
3.27325e+07
2.94893e+07
2.58033e+07
2.22262e+07
1.89988e+07
1.61409e+07
1.36583e+07
1.15451e+07
9.83096e+06
8.56199e+06
7.82038e+06
7.74384e+06
8.42522e+06
9.69527e+06
1.10852e+07
1.21223e+07
1.2557e+07
1.23841e+07
1.17329e+07
1.0777e+07
9.67059e+06
8.53217e+06
7.43964e+06
6.43967e+06
5.55372e+06
4.78725e+06
4.13481e+06
3.58556e+06
3.12624e+06
2.74366e+06
2.42535e+06
2.16047e+06
1.93961e+06
1.75507e+06
1.60053e+06
1.47087e+06
1.3628e+06
1.27365e+06
4955.4
10786.8
14202.2
17596.9
21873.7
27182.4
33244
39343.3
44730.4
48933.6
51773.6
53300.2
53656.9
53060.4
51706.2
49806.7
47519.2
45012.9
42379.1
39739.7
37131.5
34644.4
32279.1
30132.1
28233.1
26899.4
26706
29006.5
35535.2
48294.9
69704.8
102672
151157
220409
318764
463954
703442
1.17364e+06
2.18483e+06
4.11208e+06
6.93504e+06
1.00016e+07
1.24069e+07
1.37231e+07
1.41481e+07
1.47956e+07
1.67908e+07
1.99107e+07
2.27064e+07
2.53973e+07
2.8238e+07
3.43307e+07
4.85415e+07
6.19158e+07
6.62912e+07
6.26573e+07
5.38612e+07
4.3916e+07
3.68674e+07
3.4867e+07
3.43802e+07
3.25527e+07
2.93675e+07
2.57228e+07
2.2172e+07
1.89653e+07
1.61173e+07
1.36405e+07
1.15278e+07
9.81343e+06
8.54235e+06
7.7987e+06
7.71848e+06
8.39534e+06
9.6595e+06
1.10457e+07
1.20828e+07
1.25219e+07
1.23555e+07
1.17115e+07
1.07616e+07
9.6599e+06
8.52472e+06
7.43439e+06
6.43599e+06
5.55125e+06
4.78589e+06
4.1345e+06
3.58638e+06
3.12818e+06
2.74684e+06
2.4297e+06
2.16617e+06
1.94654e+06
1.76349e+06
1.61026e+06
1.48241e+06
1.37578e+06
1.28898e+06
4659.51
10023.8
13162
16334.9
20416.1
25563.1
31488.3
37473.1
42777.6
46942.3
49793
51375.2
51821.3
51335.9
50102.6
48325.6
46155
43756.9
41219.5
38664.7
36128
33701
31384.7
29281.7
27433.4
26187.5
26162.8
28707.4
35475.1
48359.9
69674.6
102291
150077
218395
315490
459432
697336
1.16656e+06
2.17483e+06
4.09971e+06
6.91361e+06
9.98023e+06
1.23828e+07
1.37067e+07
1.41306e+07
1.4787e+07
1.67663e+07
1.98518e+07
2.25643e+07
2.51844e+07
2.79331e+07
3.38494e+07
4.79836e+07
6.16667e+07
6.61944e+07
6.25718e+07
5.34567e+07
4.3162e+07
3.60236e+07
3.42921e+07
3.40395e+07
3.23331e+07
2.92045e+07
2.56055e+07
2.20853e+07
1.89039e+07
1.60693e+07
1.36019e+07
1.14927e+07
9.78053e+06
8.50889e+06
7.76359e+06
7.67832e+06
8.34751e+06
9.60168e+06
1.09806e+07
1.20153e+07
1.24582e+07
1.2299e+07
1.16637e+07
1.07221e+07
9.62752e+06
8.49808e+06
7.41235e+06
6.41773e+06
5.53614e+06
4.7736e+06
4.12471e+06
3.57895e+06
3.12288e+06
2.74366e+06
2.42842e+06
2.16685e+06
1.94897e+06
1.76786e+06
1.61632e+06
1.49064e+06
1.38573e+06
1.3016e+06
4383.1
9318.67
12207.1
15178.8
19077.4
24063.7
29840.4
35687.8
40880.5
44976.7
47810.9
49426.5
49945.7
49560.6
48442.2
46785.6
44732.4
42445.3
40008.1
37543
35083.3
32723
30462.9
28413.4
26628.7
25488
25644.5
28427.4
35400.1
48362
69521.8
101731
148752
216064
311753
454203
689890
1.15669e+06
2.15855e+06
4.07502e+06
6.87229e+06
9.93313e+06
1.23306e+07
1.36639e+07
1.4089e+07
1.47546e+07
1.67115e+07
1.97545e+07
2.23796e+07
2.49286e+07
2.75855e+07
3.33139e+07
4.73203e+07
6.13029e+07
6.60008e+07
6.2379e+07
5.29541e+07
4.23636e+07
3.51831e+07
3.37085e+07
3.36614e+07
3.20657e+07
2.89945e+07
2.54464e+07
2.1962e+07
1.88108e+07
1.59941e+07
1.35401e+07
1.14377e+07
9.73061e+06
8.46019e+06
7.71374e+06
7.62211e+06
8.28043e+06
9.52032e+06
1.08881e+07
1.1918e+07
1.23638e+07
1.22125e+07
1.15876e+07
1.06566e+07
9.57186e+06
8.45085e+06
7.37228e+06
6.38375e+06
5.50739e+06
4.74944e+06
4.10457e+06
3.56246e+06
3.10961e+06
2.7334e+06
2.42082e+06
2.16185e+06
1.94623e+06
1.76753e+06
1.61806e+06
1.49493e+06
1.39201e+06
1.3109e+06
4124.46
8665.46
11326.3
14112.6
17838.2
22663.8
28281.4
33972.5
39029.8
43032.6
45827
47456.2
48033.2
47737.3
46726.8
45186.7
43249.8
41074.5
38740
36368.1
33989.6
31701.3
29503.8
27516.9
25808.2
24788.8
25135.4
28145.4
35286
48273.7
69214.6
100951
147122
213329
307432
448094
680877
1.14368e+06
2.13553e+06
4.03732e+06
6.81011e+06
9.85873e+06
1.22483e+07
1.3592e+07
1.40207e+07
1.46956e+07
1.66238e+07
1.96164e+07
2.21498e+07
2.46265e+07
2.71915e+07
3.27197e+07
4.6545e+07
6.08128e+07
6.56957e+07
6.20662e+07
5.23491e+07
4.15203e+07
3.43394e+07
3.31059e+07
3.3238e+07
3.1745e+07
2.87331e+07
2.5242e+07
2.17992e+07
1.86838e+07
1.58895e+07
1.34534e+07
1.13616e+07
9.66255e+06
8.3953e+06
7.64832e+06
7.54908e+06
8.19329e+06
9.41452e+06
1.07671e+07
1.17896e+07
1.22375e+07
1.20947e+07
1.14821e+07
1.05641e+07
9.49188e+06
8.38208e+06
7.31331e+06
6.33331e+06
5.4643e+06
4.71278e+06
4.07349e+06
3.53636e+06
3.08781e+06
2.71553e+06
2.40636e+06
2.15063e+06
1.93782e+06
1.76198e+06
1.61498e+06
1.49476e+06
1.39414e+06
1.31635e+06
3882.33
8059.55
10511.1
13124.3
16683.7
21347.6
26796.8
32316
37218.8
41107.8
43842.9
45468.3
46088.4
45870.7
44960.3
43531.9
41708.9
39644.8
37413.8
35137.1
32842.9
30630.9
28501.8
26586
24965.6
24082.1
24623.9
27845.5
35114.9
48075.6
68732.2
99923.4
145152
210131
302447
440986
670145
1.12734e+06
2.10552e+06
3.98624e+06
6.72656e+06
9.75608e+06
1.21345e+07
1.34892e+07
1.39237e+07
1.4608e+07
1.65014e+07
1.94357e+07
2.18735e+07
2.42766e+07
2.67488e+07
3.2064e+07
4.56544e+07
6.01888e+07
6.52685e+07
6.16244e+07
5.16401e+07
4.06324e+07
3.34873e+07
3.24764e+07
3.27636e+07
3.13671e+07
2.84179e+07
2.49901e+07
2.1595e+07
1.85211e+07
1.57544e+07
1.33407e+07
1.12635e+07
9.57566e+06
8.31368e+06
7.56687e+06
7.45883e+06
8.08573e+06
9.28394e+06
1.06172e+07
1.16296e+07
1.20786e+07
1.19449e+07
1.13463e+07
1.04439e+07
9.38705e+06
8.2913e+06
7.23503e+06
6.266e+06
5.4065e+06
4.66328e+06
4.03115e+06
3.5003e+06
3.05715e+06
2.68972e+06
2.38472e+06
2.13286e+06
1.92338e+06
1.75086e+06
1.60672e+06
1.48975e+06
1.39172e+06
1.31755e+06
3655.67
7497.28
9755.21
12204.9
15603
20103.1
25375.6
30710.1
35442.8
39201.5
41860.9
43467.4
44117.6
43967.3
43148.6
41826.1
40113.2
38158.5
36030.6
33850
31642.2
29509.9
27454.3
25618.2
24098
23363
24101.5
27515.6
34874
47754.8
68062
98631.5
142817
206435
296748
432806
657610
1.10755e+06
2.06845e+06
3.92173e+06
6.62157e+06
9.62481e+06
1.19884e+07
1.33545e+07
1.37969e+07
1.44904e+07
1.63435e+07
1.92119e+07
2.15503e+07
2.38782e+07
2.62566e+07
3.13464e+07
4.46482e+07
5.94269e+07
6.47122e+07
6.10484e+07
5.08278e+07
3.97011e+07
3.26228e+07
3.18143e+07
3.22346e+07
3.093e+07
2.80474e+07
2.46897e+07
2.13485e+07
1.8322e+07
1.55881e+07
1.32016e+07
1.1143e+07
9.46967e+06
8.21511e+06
7.46924e+06
7.35134e+06
7.95783e+06
9.12869e+06
1.04386e+07
1.14381e+07
1.18871e+07
1.17632e+07
1.11804e+07
1.0296e+07
9.25728e+06
8.17842e+06
7.13736e+06
6.18174e+06
5.33391e+06
4.60084e+06
3.97741e+06
3.45415e+06
3.01749e+06
2.6558e+06
2.3557e+06
2.10833e+06
1.90269e+06
1.73392e+06
1.59302e+06
1.47963e+06
1.38448e+06
1.3142e+06
3443.61
6975.67
9053.51
11347.5
14587.4
18921.3
24009.5
29148.6
33698.9
37314.2
39884.6
41459.1
42127.4
42034
41298.7
40075.5
38468.1
36619.8
34593.5
32508.8
30388.5
28338.5
26361.7
24613.3
23205
22629.1
23562.1
27147.1
34554.5
47303.8
67198.1
97069.2
140111
202224
290313
423520
643242
1.08429e+06
2.02439e+06
3.84398e+06
6.49548e+06
9.46508e+06
1.18099e+07
1.31871e+07
1.36395e+07
1.43422e+07
1.61497e+07
1.89449e+07
2.1181e+07
2.34317e+07
2.57153e+07
3.05677e+07
4.35289e+07
5.85263e+07
6.40226e+07
6.03356e+07
4.99146e+07
3.87284e+07
3.17432e+07
3.11158e+07
3.16491e+07
3.04329e+07
2.76216e+07
2.43404e+07
2.10595e+07
1.80863e+07
1.53905e+07
1.30361e+07
1.10001e+07
9.34461e+06
8.0997e+06
7.35562e+06
7.22687e+06
7.81e+06
8.94932e+06
1.02318e+07
1.12157e+07
1.16638e+07
1.155e+07
1.09847e+07
1.01208e+07
9.10293e+06
8.04374e+06
7.02054e+06
6.08074e+06
5.2467e+06
4.52557e+06
3.91238e+06
3.39798e+06
2.96884e+06
2.61375e+06
2.31927e+06
2.07697e+06
1.87568e+06
1.71106e+06
1.57376e+06
1.46425e+06
1.37226e+06
1.30611e+06
3245.38
6492.13
8401.99
10546.8
13630.5
17795.2
22692.3
27627.3
31985.5
35447.2
37917.8
39449.2
40124.9
40078.6
39418
38287
36779.8
35033.9
33106.8
31117
29084.6
27119.3
25225.9
23573.6
22288.3
21879.6
23001.8
26733.9
34150.9
46719.1
66140.2
95237.7
137036
197501
283144
413130
627066
1.05765e+06
1.97359e+06
3.75344e+06
6.34897e+06
9.27754e+06
1.15995e+07
1.29872e+07
1.34514e+07
1.41631e+07
1.59204e+07
1.86358e+07
2.07668e+07
2.29385e+07
2.51261e+07
2.97303e+07
4.23011e+07
5.74885e+07
6.31984e+07
5.94862e+07
4.89044e+07
3.77165e+07
3.08466e+07
3.03785e+07
3.10067e+07
2.98765e+07
2.7141e+07
2.39429e+07
2.07287e+07
1.78145e+07
1.51621e+07
1.28444e+07
1.08353e+07
9.20083e+06
7.9678e+06
7.22639e+06
7.08597e+06
7.64296e+06
8.74677e+06
9.9979e+06
1.09635e+07
1.14095e+07
1.13064e+07
1.07602e+07
9.91899e+06
8.9247e+06
7.8879e+06
6.88513e+06
5.96349e+06
5.14527e+06
4.43784e+06
3.83635e+06
3.33201e+06
2.91141e+06
2.56373e+06
2.27554e+06
2.03887e+06
1.84238e+06
1.6823e+06
1.54894e+06
1.44357e+06
1.355e+06
1.29316e+06
3060.24
6044.38
7797.28
9798.3
12727.2
16719.5
21419.5
26143.4
30302.2
33602.5
35964.8
37443.9
38117.4
38108.7
37514.4
36468.2
35055.2
33407
31576.1
29679.3
27734.8
25856.1
24051.2
22503.1
21351
21115.2
22417.8
26271.8
33660.6
46001.1
64892.8
93144.9
133604
192278
275263
401666
609146
1.02776e+06
1.91638e+06
3.65076e+06
6.18306e+06
9.06326e+06
1.1358e+07
1.27554e+07
1.32328e+07
1.39534e+07
1.56563e+07
1.82858e+07
2.03096e+07
2.24005e+07
2.44911e+07
2.88376e+07
4.09716e+07
5.63175e+07
6.22403e+07
5.8503e+07
4.78025e+07
3.6668e+07
2.99321e+07
2.96018e+07
3.03085e+07
2.92622e+07
2.66075e+07
2.34986e+07
2.03571e+07
1.75076e+07
1.49037e+07
1.26274e+07
1.06492e+07
9.03893e+06
7.82001e+06
7.08219e+06
6.92941e+06
7.45773e+06
8.5223e+06
9.73837e+06
1.0683e+07
1.11258e+07
1.10337e+07
1.05081e+07
9.69186e+06
8.72366e+06
7.71183e+06
6.73196e+06
5.8307e+06
5.03026e+06
4.33818e+06
3.74978e+06
3.25665e+06
2.84553e+06
2.50604e+06
2.22477e+06
1.99423e+06
1.80298e+06
1.64777e+06
1.51865e+06
1.41765e+06
1.33274e+06
1.27538e+06
2887.5
5630.27
7236.49
9098.72
11873.7
15690.5
20188.1
24695.2
28649.3
31782.6
34030
35449.2
36112
36132.2
35595.8
34626.9
33301.6
31746
30007.4
28201.4
26344.6
24554.4
22842.9
21407.2
20397.5
20337.2
21809
25758.7
33083.2
45152.7
63463.7
90803.8
129834
186582
266708
389183
589589
994831
1.85324e+06
3.53677e+06
5.99902e+06
8.8237e+06
1.10869e+07
1.24925e+07
1.29847e+07
1.37138e+07
1.53588e+07
1.7897e+07
1.98121e+07
2.18205e+07
2.38131e+07
2.78941e+07
3.95486e+07
5.50192e+07
6.11511e+07
5.73904e+07
4.66152e+07
3.55861e+07
2.89997e+07
2.87862e+07
2.95566e+07
2.85925e+07
2.60234e+07
2.30095e+07
1.99466e+07
1.71668e+07
1.46165e+07
1.23861e+07
1.04427e+07
8.85973e+06
7.6571e+06
6.92385e+06
6.75818e+06
7.25556e+06
8.27746e+06
9.45498e+06
1.03761e+07
1.08146e+07
1.07338e+07
1.02302e+07
9.4409e+06
8.50116e+06
7.51674e+06
6.56209e+06
5.68331e+06
4.90248e+06
4.22731e+06
3.65329e+06
3.17245e+06
2.77168e+06
2.44108e+06
2.16732e+06
1.94337e+06
1.75775e+06
1.60772e+06
1.48312e+06
1.38668e+06
1.30563e+06
1.25285e+06
2726.49
5247.84
6717.07
8445.15
11066.8
14705.2
18995.9
23282
27027.8
29990.3
32118.1
33471.1
34115.7
34156.8
33670.1
32770.7
31526.4
30057.9
28407.5
26689.8
24920.2
23220.5
21608.1
20292.8
19433.1
19548.2
21175
25194.1
32420.4
44179.4
61864.1
88231.9
125754
180450
257532
375758
568530
959124
1.78471e+06
3.4125e+06
5.7984e+06
8.56067e+06
1.07879e+07
1.22001e+07
1.27081e+07
1.34453e+07
1.50295e+07
1.74717e+07
1.92771e+07
2.12016e+07
2.30955e+07
2.69049e+07
3.8042e+07
5.3601e+07
5.99355e+07
5.61549e+07
4.53496e+07
3.44739e+07
2.80501e+07
2.79333e+07
2.8754e+07
2.78709e+07
2.53917e+07
2.24781e+07
1.94991e+07
1.67941e+07
1.43021e+07
1.21218e+07
1.02169e+07
8.66424e+06
7.48002e+06
6.75233e+06
6.57342e+06
7.0379e+06
8.01407e+06
9.14981e+06
1.0045e+07
1.04781e+07
1.04089e+07
9.92835e+06
9.16793e+06
8.25883e+06
7.30406e+06
6.37677e+06
5.52242e+06
4.7629e+06
4.10608e+06
3.54766e+06
3.08008e+06
2.69046e+06
2.36939e+06
2.10367e+06
1.88672e+06
1.70708e+06
1.56249e+06
1.44264e+06
1.35091e+06
1.27388e+06
1.22575e+06
2576.56
4895.18
6236.69
7835.17
10304.4
13761.7
17841.7
21903.8
25439.3
28228.8
30233.6
31515.3
32135.2
32189.5
31744.7
30907.3
29737.3
28350.1
26783.8
25151.7
23469
21862.3
20354.6
19167.4
18463.5
18750.7
20516.4
24578.6
31675.3
43088.6
60107.4
85450.1
121393
173925
247800
361488
546133
920949
1.71143e+06