/*--------------------------------*- C++ -*----------------------------------*\
| =========                 |                                                 |
| \\      /  F ield         | OpenFOAM: The Open Source CFD Toolbox           |
|  \\    /   O peration     | Version:  2412                                  |
|   \\  /    A nd           | Website:  www.openfoam.com                      |
|    \\/     M anipulation  |                                                 |
\*---------------------------------------------------------------------------*/
FoamFile
{
    version     2.0;
    format      ascii;
    arch        "LSB;label=32;scalar=64";
    class       volVectorField;
    location    "0.2";
    object      U;
}
// * * * * * * * * * * * * * * * * * * * * * * * * * * * * * * * * * * * * * //

dimensions      [0 1 -1 0 0 0 0];

internalField   nonuniform List<vector> 
13156
(
(79.1461 -82.4243 -1.63834e-14)
(101.532 -24.9578 -4.62008e-17)
(113.907 14.7505 0)
(120.243 28.935 0)
(122.873 33.1383 -2.17876e-14)
(122.068 34.0525 -9.12483e-19)
(119.74 33.8822 0)
(117.204 33.4389 4.66014e-14)
(115.15 33.0441 4.7479e-14)
(113.577 32.7378 0)
(112.407 32.5236 0)
(111.408 32.3486 2.4739e-14)
(110.597 32.2164 -2.5102e-14)
(109.853 32.1024 3.98922e-19)
(109.317 32.0305 0)
(108.847 31.9863 2.62184e-14)
(108.7 32.0193 0)
(108.616 32.0789 -2.68729e-14)
(108.947 32.2337 6.1267e-19)
(109.287 32.4163 0)
(110.17 32.7161 0)
(110.935 33.0351 -2.75673e-14)
(112.466 33.5208 0)
(113.638 33.9769 -2.75107e-14)
(115.856 34.6548 0)
(117.324 35.2434 0)
(120.2 36.0969 0)
(121.805 36.8019 0)
(125.487 37.8659 -2.62191e-14)
(127.206 38.706 0)
(132.209 40.1206 0)
(134.572 41.3209 -1.45645e-18)
(141.951 43.4111 -2.25175e-14)
(145.408 45.1578 -2.11123e-14)
(155.668 48.0485 1.97669e-14)
(159.649 50.2083 1.8195e-14)
(172.885 53.9156 0)
(177.865 56.7066 0)
(195.666 61.8896 -1.29037e-14)
(204.047 66.1172 -1.00915e-14)
(224.72 72.2677 9.15483e-15)
(230.816 75.7886 -7.1623e-15)
(250.102 81.2908 0)
(250.406 83.0528 0)
(269.507 88.1051 0)
(264.706 88.4235 5.04017e-15)
(289.081 94.6758 0)
(286.057 95.8271 0)
(320.506 105.046 6.25007e-15)
(318.871 107.196 0)
(370.056 121.321 0)
(375.444 125.409 -9.82409e-15)
(516.212 176.961 7.20424e-19)
(528.908 9.24506 1.38177e-15)
(376.975 -79.9111 6.16289e-16)
(337.894 -75.1117 0)
(312.422 -68.98 0)
(303.453 -65.3108 1.84901e-15)
(291.389 -64.351 5.20403e-19)
(307.431 -66.3864 0)
(312.909 -68.3716 3.59138e-19)
(317.47 -68.3681 0)
(307.34 -66.9055 1.44047e-15)
(297.716 -64.1121 1.30953e-19)
(283.71 -61.6877 -1.86405e-15)
(273.055 -58.8191 1.65866e-15)
(260.826 -56.6477 4.59256e-15)
(251.371 -54.1592 2.22967e-15)
(241.131 -52.2869 2.71988e-15)
(233.151 -50.2402 -2.73474e-15)
(225.219 -48.779 -3.06926e-15)
(219.877 -47.392 -8.75639e-20)
(215.304 -46.5582 -6.24722e-15)
(213.639 -46.0514 7.68453e-20)
(212.747 -45.9472 -2.82352e-15)
(213.375 -45.9992 2.67457e-15)
(213.652 -46.1115 2.65202e-15)
(214.07 -46.1261 -9.07294e-20)
(213.525 -46.0416 0)
(212.591 -45.7957 -2.80138e-15)
(210.764 -45.4149 0)
(208.663 -44.9257 0)
(206.023 -44.3641 -3.21755e-15)
(203.36 -43.7669 0)
(200.453 -43.1451 -3.54653e-15)
(197.689 -42.5387 -3.71761e-15)
(194.839 -41.912 3.88732e-15)
(192.236 -41.3594 0)
(189.51 -40.7774 -4.21681e-15)
(187.136 -40.2717 0)
(184.513 -39.7083 -4.52054e-15)
(182.388 -39.2654 -4.66426e-15)
(179.653 -38.6812 -4.79457e-15)
(177.814 -38.3081 0)
(174.301 -37.5549 5.039e-15)
(172.981 -37.3114 -5.1816e-15)
(167.571 -36.1892 0)
(167.468 -36.1992 -5.43893e-15)
(159.683 -34.4169 0)
(129.316 45.2691 1.11175e-14)
(138.589 50.0431 -2.29901e-14)
(137.266 43.8148 0)
(137.989 40.3722 0)
(139.643 39.6964 1.56415e-14)
(140.206 39.9681 -3.13624e-14)
(139.588 40.0829 0)
(138.14 39.902 -1.55583e-14)
(136.249 39.5231 -1.55356e-14)
(134.327 39.1067 0)
(132.573 38.7311 -1.56075e-14)
(131.064 38.4308 -3.9646e-19)
(129.8 38.194 0)
(128.764 38.0314 1.6141e-14)
(127.958 37.915 0)
(127.356 37.8779 1.66751e-14)
(127.01 37.8984 0)
(126.901 38.0042 0)
(127.075 38.1604 7.30466e-19)
(127.491 38.4278 -1.76313e-14)
(128.241 38.7375 0)
(129.211 39.1908 1.78798e-14)
(130.588 39.688 0)
(132.161 40.3438 0)
(134.192 41.0212 1.7934e-14)
(136.323 41.9002 0)
(139.093 42.7689 0)
(141.634 43.8578 0)
(145.226 44.9292 0)
(148.149 46.2375 0)
(153.044 47.6339 0)
(156.805 49.367 -1.43641e-14)
(164.01 51.3944 2.59908e-14)
(169.058 53.7292 1.1769e-14)
(178.767 56.4301 0)
(184.712 59.2926 -9.2866e-15)
(196.794 62.6174 8.04757e-15)
(203.593 65.9822 -6.65035e-15)
(218.988 70.3361 1.26744e-18)
(227.585 74.4601 3.79342e-15)
(245.287 79.6659 0)
(253.136 83.6407 2.48184e-15)
(270.542 88.7078 2.65561e-15)
(275.462 91.9351 -2.08915e-15)
(292.399 96.5561 2.69132e-15)
(294.052 98.9601 0)
(314.201 104.271 0)
(317.081 107.33 0)
(347.491 115.889 0)
(354.965 120.843 -3.5257e-17)
(404.514 135.541 0)
(417.532 142.083 3.54578e-15)
(561.585 198.61 5.72064e-16)
(620.168 -8.67454 -5.67754e-16)
(440.037 -92.5214 0)
(388.448 -82.8747 0)
(348.866 -75.4929 -9.02985e-17)
(341.319 -72.6254 -6.48207e-16)
(327.253 -71.1393 5.04312e-16)
(344.277 -73.7591 0)
(348.346 -75.4128 3.76784e-16)
(351.953 -75.2007 1.2505e-16)
(338.2 -72.8428 0)
(328.708 -70.0891 3.66309e-16)
(311.676 -67.0053 6.61727e-16)
(301.428 -64.2716 0)
(286.717 -61.5892 -1.65977e-15)
(277.492 -59.1933 -7.74858e-20)
(265.306 -56.9331 0)
(257.376 -54.9406 2.03997e-15)
(248.022 -53.2197 1.14527e-15)
(242.13 -51.7622 -1.13509e-15)
(236.374 -50.7412 1.13755e-15)
(233.595 -50.0452 1.03954e-15)
(231.633 -49.7594 9.73074e-16)
(231.472 -49.6602 -9.0778e-16)
(231.183 -49.66 0)
(231.228 -49.5887 -7.51078e-20)
(230.396 -49.439 0)
(229.257 -49.1394 9.67643e-16)
(227.273 -48.718 0)
(225.08 -48.2062 1.08735e-15)
(222.405 -47.6353 1.16128e-15)
(219.77 -47.0481 0)
(216.948 -46.4449 2.65105e-15)
(214.316 -45.875 1.41547e-15)
(211.643 -45.2829 -1.50816e-15)
(209.239 -44.7902 0)
(206.746 -44.2466 4.18118e-20)
(204.597 -43.8063 0)
(202.223 -43.2728 1.88892e-15)
(200.303 -42.9006 1.98248e-15)
(197.831 -42.3215 4.14494e-15)
(196.091 -42.0165 0)
(193.19 -41.2844 -4.49342e-15)
(191.591 -41.0841 2.33417e-15)
(187.498 -40.0147 2.41e-15)
(186.361 -40.0523 2.50004e-15)
(180.746 -38.3862 2.55912e-15)
(96.4156 37.6562 0)
(131.852 40.6812 -1.20368e-17)
(141.59 38.5898 -1.2834e-14)
(144.469 39.5506 0)
(145.82 40.8503 0)
(145.826 41.5686 1.21997e-14)
(145.043 41.7313 0)
(143.804 41.621 -1.12774e-14)
(142.287 41.3545 1.1077e-14)
(140.691 41.0449 0)
(139.166 40.7411 1.10414e-14)
(137.798 40.4867 -1.11654e-14)
(136.651 40.2838 0)
(135.728 40.1583 0)
(135.068 40.0841 0)
(134.623 40.1003 -2.45301e-14)
(134.474 40.1792 0)
(134.55 40.3494 -1.29562e-14)
(134.953 40.5715 1.3301e-14)
(135.562 40.91 1.35891e-14)
(136.561 41.2892 -1.38778e-14)
(137.716 41.8177 1.40693e-14)
(139.367 42.3887 0)
(141.102 43.1208 0)
(143.446 43.8776 -1.44472e-14)
(145.71 44.8375 0)
(148.817 45.7836 0)
(151.494 46.9748 0)
(155.479 48.1281 0)
(158.589 49.5783 0)
(163.946 51.0657 0)
(167.926 52.975 0)
(175.325 54.9962 -9.84412e-19)
(180.32 57.4284 -7.91497e-15)
(189.789 59.9729 -6.6148e-15)
(195.541 62.8858 5.70533e-15)
(207.216 65.9936 -9.36654e-15)
(213.712 69.3327 3.70294e-15)
(228.179 73.3037 2.75688e-15)
(235.955 77.1825 0)
(252.728 82.0545 0)
(260.283 85.9727 1.24082e-15)
(277.613 91.0217 -6.07296e-19)
(282.822 94.4124 1.05632e-15)
(300.049 99.1463 -1.36317e-15)
(302.092 101.754 0)
(322.146 107.058 0)
(325.106 110.194 5.21474e-16)
(355.836 118.911 0)
(364.806 124.355 1.76949e-17)
(415.885 139.759 0)
(431.162 146.874 -1.78821e-15)
(575.13 204.659 0)
(643.629 -11.2854 3.02214e-16)
(466.158 -96.0085 0)
(407.446 -85.9224 0)
(364.118 -78.3637 9.50982e-17)
(356.75 -75.5756 3.44552e-16)
(344.154 -74.5593 -1.35044e-16)
(361.608 -77.3731 -7.85514e-17)
(363.935 -78.6366 0)
(365.471 -77.8488 -6.5e-17)
(349.943 -75.0714 0)
(339.592 -72.082 1.89672e-16)
(322.034 -68.9167 -3.43742e-16)
(311.36 -66.0783 -3.11231e-16)
(296.282 -63.3556 4.33838e-16)
(286.671 -60.8721 -4.28764e-16)
(274.229 -58.5924 0)
(266.034 -56.5486 -1.07603e-15)
(256.526 -54.8329 -2.85745e-20)
(250.413 -53.3464 0)
(244.369 -52.3076 0)
(241.242 -51.5636 0)
(238.908 -51.2336 0)
(238.465 -51.086 4.41418e-20)
(237.936 -51.044 0)
(237.788 -50.9244 -4.59255e-16)
(236.777 -50.73 4.77957e-16)
(235.49 -50.3863 0)
(233.379 -49.9301 0)
(231.098 -49.3925 -5.67903e-16)
(228.369 -48.8073 0)
(225.721 -48.217 0)
(222.923 -47.6186 -7.0372e-16)
(220.343 -47.0641 0)
(217.754 -46.4894 0)
(215.448 -46.0251 0)
(213.082 -45.5041 9.2438e-16)
(211.054 -45.1 -9.83536e-16)
(208.831 -44.5871 0)
(207.031 -44.2555 0)
(204.718 -43.684 -1.15786e-15)
(203.071 -43.4261 0)
(200.296 -42.6633 2.54754e-15)
(198.781 -42.537 0)
(194.757 -41.36 -1.38656e-15)
(193.683 -41.5607 0)
(187.934 -39.6563 -1.49378e-15)
(99.0157 17.5435 0)
(127.342 30.0757 2.5701e-14)
(137.643 36.1233 2.14559e-14)
(142.339 39.5121 0)
(145.038 41.0052 0)
(145.74 41.6582 8.4412e-15)
(145.32 41.87 -7.86991e-15)
(144.375 41.8565 7.51852e-15)
(143.186 41.6901 -1.47023e-14)
(141.94 41.4851 7.32443e-15)
(140.754 41.2759 0)
(139.696 41.1084 0)
(138.83 40.9806 0)
(138.168 40.9281 0)
(137.763 40.922 0)
(137.575 41.0116 8.79975e-15)
(137.685 41.1609 9.19173e-15)
(138.025 41.41 9.59171e-15)
(138.696 41.7049 -1.00029e-14)
(139.575 42.1275 0)
(140.846 42.5797 4.54931e-19)
(142.272 43.1965 -5.47255e-19)
(144.191 43.837 0)
(146.187 44.6608 -1.16725e-14)
(148.794 45.4803 1.19178e-14)
(151.307 46.5381 -1.19785e-14)
(154.662 47.5349 0)
(157.593 48.8408 0)
(161.83 50.0371 0)
(165.244 51.6379 1.07049e-14)
(170.807 53.1462 -9.35832e-15)
(174.98 55.18 7.99209e-15)
(182.18 57.079 -6.55776e-19)
(187.067 59.5361 0)
(196.087 61.8708 4.39906e-15)
(201.703 64.7973 3.71155e-15)
(212.925 67.6911 5.18252e-19)
(219.255 71.0173 0)
(233.124 74.725 0)
(240.511 78.5089 0)
(256.756 83.1696 -1.01395e-15)
(264.158 87.0919 -7.81808e-16)
(281.376 92.0851 -1.6898e-15)
(286.684 95.5872 6.69505e-16)
(303.932 100.304 8.6569e-16)
(306.065 103.019 5.7731e-16)
(325.897 108.192 0)
(328.862 111.368 -3.24602e-16)
(359.772 120.065 0)
(369.699 125.833 0)
(421.539 141.462 0)
(438.377 148.833 -1.36238e-18)
(581.284 206.627 0)
(653.519 -10.6166 -1.81979e-16)
(479.984 -97.3511 0)
(418.409 -87.6514 3.99556e-16)
(373.484 -80.1039 -3.1226e-17)
(366.832 -77.5228 -2.28327e-16)
(355.671 -77.0138 -9.03743e-17)
(373.206 -79.8677 5.21768e-17)
(373.666 -80.6955 -1.29979e-16)
(373.281 -79.3429 -4.1978e-17)
(356.42 -76.2501 -1.68808e-16)
(345.524 -73.0904 -1.22499e-16)
(327.659 -69.8901 0)
(316.758 -66.9835 2.0181e-16)
(301.451 -64.2452 0)
(291.629 -61.7068 -2.78815e-16)
(279.034 -59.4259 0)
(270.723 -57.3587 1.46214e-20)
(261.155 -55.6638 -7.88288e-16)
(254.983 -54.1792 0)
(248.844 -53.1592 3.83986e-16)
(245.607 -52.4168 3.45464e-16)
(243.131 -52.0901 0)
(242.563 -51.9282 3.00161e-16)
(241.896 -51.8642 0)
(241.612 -51.7069 0)
(240.457 -51.4727 -6.27494e-16)
(239.041 -51.0869 0)
(236.815 -50.5966 0)
(234.446 -50.0314 0)
(231.656 -49.4292 -4.03785e-16)
(228.975 -48.8301 0)
(226.171 -48.2304 0)
(223.606 -47.6817 -5.02531e-16)
(221.053 -47.1159 5.39225e-16)
(218.795 -46.666 0)
(216.496 -46.1586 0)
(214.533 -45.7741 6.56435e-16)
(212.395 -45.2738 0)
(210.66 -44.9634 -7.36104e-16)
(208.439 -44.3976 0)
(206.844 -44.1617 0)
(204.148 -43.3856 -1.70843e-15)
(202.667 -43.2871 8.94521e-16)
(198.711 -42.0623 0)
(197.631 -42.3276 -9.74327e-16)
(191.864 -40.3084 0)
(103.819 22.5929 0)
(127.117 34.0774 -1.62338e-14)
(135.379 36.2406 -6.68991e-15)
(139.837 38.7467 -6.41873e-15)
(142.961 40.345 0)
(144.158 41.2133 -5.5702e-15)
(144.119 41.5754 5.26606e-15)
(143.463 41.657 -5.06978e-15)
(142.527 41.5622 4.98035e-15)
(141.529 41.4275 -8.9167e-20)
(140.591 41.2848 0)
(139.774 41.1826 0)
(139.139 41.1142 0)
(138.696 41.1199 0)
(138.502 41.1678 0)
(138.521 41.314 6.30769e-15)
(138.838 41.5166 -2.14262e-19)
(139.388 41.8258 -7.01771e-15)
(140.271 42.1759 7.39927e-15)
(141.371 42.6649 0)
(142.864 43.1747 8.17536e-15)
(144.524 43.8658 -4.36022e-19)
(146.672 44.5643 8.9221e-15)
(148.913 45.4714 1.84725e-14)
(151.751 46.3454 -9.55752e-15)
(154.519 47.4978 9.74259e-15)
(158.096 48.5405 0)
(161.292 49.9576 0)
(165.733 51.1898 -9.30797e-15)
(169.423 52.9196 -1.67252e-14)
(175.061 54.4116 6.93336e-15)
(179.335 56.5125 -5.71514e-15)
(186.334 58.2933 -4.51477e-15)
(191.177 60.7668 0)
(199.927 62.9578 0)
(205.5 65.9028 -5.10638e-15)
(216.457 68.6546 2.06333e-15)
(222.724 71.9864 1.58962e-15)
(236.277 75.5335 -1.19728e-15)
(243.482 79.2848 0)
(259.412 83.8054 7.32611e-16)
(266.717 87.7436 0)
(283.828 92.6823 2.45049e-19)
(289.155 96.2622 -4.8814e-16)
(306.342 100.934 -2.59852e-19)
(308.451 103.71 -8.34281e-16)
(328.062 108.743 5.84159e-16)
(331.026 111.941 0)
(362.106 120.591 0)
(372.752 126.592 0)
(425.086 142.309 0)
(443.088 149.779 -9.3305e-19)
(584.975 207.228 0)
(658.515 -10.0524 -1.21704e-16)
(488.27 -97.8742 5.29699e-17)
(425.772 -88.6453 -2.9048e-16)
(380.401 -81.3369 0)
(374.673 -79.0404 0)
(364.797 -78.9992 6.86295e-17)
(382.115 -81.8092 -3.93038e-17)
(380.688 -82.1783 9.65743e-17)
(378.575 -80.3085 6.17448e-17)
(360.678 -76.9659 1.24558e-16)
(349.407 -73.6812 9.02592e-17)
(331.339 -70.4634 1.65029e-16)
(320.288 -67.5084 -1.49231e-16)
(304.817 -64.7631 -2.09437e-16)
(294.854 -62.1875 1.11555e-20)
(282.157 -59.9128 0)
(273.788 -57.8368 2.60091e-16)
(264.203 -56.1686 7.55974e-21)
(258.031 -54.6992 0)
(251.877 -53.7113 -5.68346e-16)
(248.619 -52.9902 -2.55562e-16)
(246.089 -52.6835 0)
(245.452 -52.5199 0)
(244.682 -52.4402 0)
(244.281 -52.2492 0)
(242.997 -51.9772 1.47235e-20)
(241.459 -51.5512 0)
(239.125 -51.0279 0)
(236.67 -50.4357 0)
(233.818 -49.8164 6.10799e-16)
(231.098 -49.2074 0)
(228.278 -48.6047 0)
(225.713 -48.0584 7.0019e-21)
(223.178 -47.4983 -4.08096e-16)
(220.946 -47.0576 0)
(218.688 -46.5596 -4.65918e-16)
(216.765 -46.1878 0)
(214.678 -45.6961 0)
(212.984 -45.3981 7.38462e-21)
(210.819 -44.8358 0)
(209.255 -44.6105 0)
(206.607 -43.8252 3.06084e-20)
(205.14 -43.7357 -6.72731e-16)
(201.225 -42.4811 0)
(200.124 -42.7723 -2.53111e-20)
(194.343 -40.684 0)
(103.61 22.5798 0)
(126.022 33.8392 8.68512e-15)
(133.802 35.375 0)
(138.018 38.1047 4.04506e-15)
(141.168 39.806 0)
(142.536 40.7554 3.86506e-15)
(142.692 41.1976 0)
(142.218 41.3448 3.67324e-15)
(141.455 41.3019 -3.64185e-15)
(140.634 41.2165 -3.66783e-15)
(139.876 41.1199 -3.74948e-15)
(139.237 41.0635 0)
(138.775 41.0374 0)
(138.499 41.0846 0)
(138.464 41.1706 0)
(138.639 41.356 -4.74445e-15)
(139.108 41.5946 -5.02198e-15)
(139.809 41.9441 5.31585e-15)
(140.844 42.3308 5.62605e-15)
(142.101 42.8641 0)
(143.75 43.4123 0)
(145.577 44.1544 -1.32053e-14)
(147.89 44.8927 -1.38744e-14)
(150.312 45.8601 -7.24109e-15)
(153.322 46.7736 0)
(156.286 47.9987 7.7538e-15)
(160.034 49.0774 0)
(163.442 50.5828 0)
(168.036 51.8415 7.15939e-15)
(171.929 53.6606 6.18998e-15)
(177.609 55.1295 -4.9497e-15)
(181.979 57.2763 0)
(188.91 58.9912 0)
(193.798 61.495 0)
(202.445 63.6075 0)
(208.04 66.5792 1.8712e-15)
(218.865 69.2433 0)
(225.126 72.5905 -1.18761e-15)
(238.512 76.0382 2.20664e-19)
(245.63 79.7819 6.55787e-16)
(261.347 84.2033 -5.77572e-16)
(268.577 88.1557 0)
(285.583 93.0466 4.92258e-16)
(290.89 96.6806 0)
(307.987 101.306 -1.97507e-19)
(310.023 104.115 3.28594e-16)
(329.436 109.023 -4.61032e-16)
(332.415 112.231 0)
(363.677 120.84 3.78701e-16)
(374.921 127.017 0)
(427.624 142.777 3.03146e-16)
(446.56 150.253 3.04613e-16)
(587.533 207.267 -8.8931e-17)
(661.398 -9.62878 9.06991e-17)
(493.759 -97.93 -6.02454e-19)
(431.234 -89.2392 0)
(386.062 -82.3052 0)
(381.342 -80.3313 0)
(372.554 -80.6982 0)
(389.405 -83.4016 3.16918e-17)
(386.109 -83.3007 7.71952e-17)
(382.456 -80.967 -4.90919e-17)
(363.736 -77.4213 0)
(352.198 -74.045 -1.4419e-16)
(333.984 -70.8178 -1.32326e-16)
(322.826 -67.8277 2.39145e-16)
(307.226 -65.0787 1.68261e-16)
(297.163 -62.4782 1.03793e-20)
(284.397 -60.2136 0)
(276.001 -58.1386 -2.08928e-16)
(266.422 -56.4998 2.35201e-16)
(260.279 -55.0531 0)
(254.144 -54.1025 6.13786e-21)
(250.904 -53.4113 0)
(248.355 -53.1301 0)
(247.669 -52.9692 -1.80428e-16)
(246.809 -52.8751 0)
(246.296 -52.6519 0)
(244.888 -52.3429 1.91979e-16)
(243.235 -51.8782 0)
(240.796 -51.3228 0)
(238.259 -50.705 0)
(235.345 -50.0692 -2.49511e-16)
(232.585 -49.4504 0)
(229.744 -48.8442 0)
(227.174 -48.2994 3.10895e-16)
(224.648 -47.7436 3.3339e-16)
(222.432 -47.31 0)
(220.201 -46.8193 3.8013e-16)
(218.305 -46.4569 0)
(216.255 -45.9715 0)
(214.588 -45.6817 4.51767e-16)
(212.46 -45.121 0)
(210.915 -44.9008 0)
(208.296 -44.1073 5.19797e-16)
(206.834 -44.0181 0)
(202.943 -42.7404 0)
(201.817 -43.0405 5.90969e-16)
(196.015 -40.9022 0)
(103.541 21.6551 0)
(124.898 33.1371 -2.59477e-15)
(132.428 34.6985 0)
(136.575 37.5788 0)
(139.677 39.3246 0)
(141.065 40.3229 -1.87034e-19)
(141.29 40.8152 2.85811e-15)
(140.913 41.0057 2.844e-15)
(140.266 40.9991 2.8504e-15)
(139.576 40.9495 0)
(138.957 40.8872 2.9667e-15)
(138.461 40.8652 0)
(138.139 40.8712 0)
(137.998 40.9498 3.38594e-15)
(138.092 41.0643 3.57403e-15)
(138.39 41.2785 0)
(138.979 41.5428 0)
(139.798 41.9205 0)
(140.948 42.3321 -4.48228e-15)
(142.321 42.8955 0)
(144.086 43.4692 0)
(146.033 44.2457 1.05243e-14)
(148.465 45.0097 1.10635e-14)
(151.013 46.0183 0)
(154.146 46.9576 0)
(157.247 48.2334 -4.62831e-19)
(161.117 49.3364 0)
(164.672 50.9038 0)
(169.38 52.1793 0)
(173.421 54.0571 0)
(179.167 55.515 3.56987e-15)
(183.649 57.7043 0)
(190.606 59.3935 0)
(195.586 61.9351 2.0346e-15)
(204.219 64.0076 0)
(209.867 67.0084 0)
(220.629 69.6166 0)
(226.911 72.9825 9.44775e-16)
(240.205 76.364 1.48857e-15)
(247.279 80.1105 -5.40288e-16)
(262.835 84.4553 4.82565e-16)
(269.995 88.4179 0)
(286.897 93.2658 0)
(292.16 96.9387 0)
(309.156 101.521 -1.59786e-19)
(311.1 104.347 0)
(330.344 109.146 3.84628e-16)
(333.36 112.359 -1.51048e-16)
(364.822 120.935 -6.32519e-16)
(376.593 127.252 0)
(429.592 143.033 -2.51546e-16)
(449.311 150.456 0)
(589.447 207.018 7.31852e-17)
(663.197 -9.22069 7.18158e-17)
(497.679 -97.7057 -3.27366e-17)
(435.587 -89.6113 0)
(390.999 -83.1252 -1.57569e-17)
(387.304 -81.4881 0)
(379.391 -82.2016 0)
(395.561 -84.7431 0)
(390.437 -84.1703 -2.91392e-20)
(385.42 -81.4218 4.10915e-17)
(366.034 -77.7102 -8.36588e-17)
(354.307 -74.2665 1.21325e-16)
(335.984 -71.0346 1.1169e-16)
(324.744 -68.018 -2.01795e-16)
(309.041 -65.2675 -1.42283e-16)
(298.906 -62.651 2.80371e-16)
(286.092 -60.3994 0)
(277.691 -58.3322 9.86502e-21)
(268.133 -56.7243 0)
(262.031 -55.3047 -1.94453e-16)
(255.934 -54.3936 1.92446e-16)
(252.728 -53.7359 -1.73184e-16)
(250.174 -53.4815 -1.62683e-16)
(249.446 -53.324 1.25997e-20)
(248.497 -53.2148 0)
(247.873 -52.9596 1.561e-16)
(246.342 -52.6135 0)
(244.575 -52.1111 0)
(242.035 -51.5246 0)
(239.418 -50.8823 0)
(236.445 -50.2307 0)
(233.645 -49.6027 0)
(230.782 -48.9932 0)
(228.204 -48.4495 0)
(225.681 -47.8975 -2.85991e-16)
(223.477 -47.4699 0)
(221.266 -46.9854 0)
(219.39 -46.6305 0)
(217.366 -46.15 0)
(215.718 -45.866 0)
(213.616 -45.3057 0)
(212.083 -45.0874 0)
(209.484 -44.286 0)
(208.021 -44.1924 0)
(204.141 -42.8946 0)
(202.989 -43.1946 0)
(197.159 -41.0165 0)
(103.45 20.9188 0)
(123.864 32.3727 -1.77475e-15)
(131.207 34.0898 0)
(135.345 37.0914 0)
(138.38 38.8812 2.18634e-15)
(139.728 39.9207 -4.50876e-15)
(139.955 40.4464 -2.29029e-15)
(139.619 40.6648 -5.81245e-20)
(139.049 40.6827 0)
(138.458 40.6592 0)
(137.954 40.6232 -2.46876e-15)
(137.577 40.6288 -2.56859e-15)
(137.375 40.6607 2.69095e-15)
(137.349 40.7647 -2.83217e-15)
(137.553 40.9021 -2.98981e-15)
(137.958 41.1391 0)
(138.648 41.4232 0)
(139.565 41.8225 0)
(140.811 42.2524 0)
(142.278 42.8379 0)
(144.136 43.4295 0)
(146.177 44.2304 -2.3176e-19)
(148.7 45.0119 -4.57152e-15)
(151.344 46.0493 0)
(154.569 47.0056 -4.94707e-15)
(157.767 48.317 -1.01064e-14)
(161.727 49.4358 -5.04376e-15)
(165.388 51.0465 -4.75077e-15)
(170.19 52.3339 -4.10899e-15)
(174.355 54.2542 3.36993e-15)
(180.185 55.7129 -2.68331e-15)
(184.784 57.9425 -2.23817e-15)
(191.807 59.6261 -1.87031e-15)
(196.889 62.2056 -3.23116e-15)
(205.546 64.257 0)
(211.255 67.2855 1.18607e-15)
(221.989 69.8548 0)
(228.302 73.239 -7.88739e-16)
(241.54 76.5722 -6.32993e-16)
(248.587 80.3246 0)
(264.009 84.6058 4.19165e-16)
(271.099 88.5742 0)
(287.896 93.3819 0)
(293.099 97.0838 0)
(309.992 101.627 -3.68547e-16)
(311.838 104.461 0)
(330.944 109.166 -6.67649e-16)
(334.023 112.382 1.68998e-19)
(365.7 120.933 5.49089e-16)
(377.951 127.366 5.94891e-18)
(431.197 143.154 0)
(451.591 150.483 -2.17415e-16)
(590.939 206.591 6.24288e-17)
(664.356 -8.80953 -6.03879e-17)
(500.646 -97.3133 -2.69979e-17)
(439.256 -89.8527 0)
(395.486 -83.8567 1.38351e-17)
(392.791 -82.5568 0)
(385.538 -83.5565 0)
(400.846 -85.8873 2.3486e-17)
(393.951 -84.848 -1.1263e-16)
(387.729 -81.7294 -1.1802e-20)
(367.804 -77.8823 1.13488e-20)
(355.943 -74.3889 -5.29114e-17)
(337.535 -71.1555 -9.76838e-17)
(326.233 -68.1185 8.82252e-17)
(310.445 -65.3687 2.49273e-16)
(300.258 -62.7425 -1.04348e-20)
(287.415 -60.5065 0)
(279.023 -58.4519 1.54874e-16)
(269.496 -56.8763 1.74426e-16)
(263.445 -55.4865 3.40441e-16)
(257.394 -54.6156 -1.68427e-16)
(254.226 -53.9924 1.51656e-16)
(251.67 -53.764 9.06836e-21)
(250.896 -53.609 1.34848e-16)
(249.856 -53.4831 0)
(249.119 -53.1952 -2.75673e-16)
(247.466 -52.8119 0)
(245.586 -52.2726 1.53123e-16)
(242.949 -51.6558 0)
(240.253 -50.99 0)
(237.223 -50.3234 -1.89762e-16)
(234.384 -49.6869 0)
(231.499 -49.0743 0)
(228.911 -48.5317 2.36615e-16)
(226.389 -47.9832 -2.5361e-16)
(224.193 -47.5611 0)
(221.998 -47.082 -2.88571e-16)
(220.137 -46.7335 0)
(218.133 -46.2569 0)
(216.499 -45.977 0)
(214.415 -45.4163 0)
(212.89 -45.1979 0)
(210.302 -44.3884 3.89535e-16)
(208.835 -44.2874 4.07699e-16)
(204.959 -42.9713 0)
(203.783 -43.2654 -4.40284e-16)
(197.919 -41.054 0)
(103.335 20.2247 0)
(122.913 31.5682 2.677e-15)
(130.096 33.5099 0)
(134.243 36.6295 0)
(137.207 38.4672 -1.75878e-15)
(138.488 39.5451 1.84743e-15)
(138.682 40.0944 -1.90688e-15)
(138.355 40.33 -4.79823e-20)
(137.834 40.3636 0)
(137.321 40.3591 0)
(136.913 40.3437 2.12982e-15)
(136.64 40.3718 2.22287e-15)
(136.543 40.4254 -2.33298e-15)
(136.62 40.5509 0)
(136.923 40.7077 -2.59438e-15)
(137.422 40.9638 0)
(138.203 41.2642 0)
(139.206 41.681 0)
(140.536 42.1256 0)
(142.085 42.7284 -3.39563e-15)
(144.023 43.3337 0)
(146.143 44.1532 -7.47741e-15)
(148.744 44.9472 -3.90896e-15)
(151.464 46.0063 4.05744e-15)
(154.764 46.9743 4.19047e-15)
(158.038 48.3119 4.24279e-15)
(162.07 49.4418 8.33804e-15)
(165.817 51.0847 3.83048e-15)
(170.709 52.3827 6.46018e-15)
(174.982 54.3377 -2.62429e-15)
(180.904 55.8041 4.23946e-15)
(185.611 58.0699 1.796e-15)
(192.711 59.7564 1.77082e-19)
(197.89 62.37 1.34043e-15)
(206.585 64.4092 -1.16812e-15)
(212.352 67.4618 -2.01296e-15)
(223.073 70.0015 0)
(229.417 73.4017 0)
(242.617 76.6962 5.56137e-16)
(249.642 80.4546 4.11354e-16)
(264.944 84.6799 -3.74808e-16)
(271.959 88.6494 -2.93056e-16)
(288.648 93.4186 0)
(293.781 97.1423 0)
(310.575 101.65 0)
(312.324 104.49 0)
(331.324 109.114 2.97899e-16)
(334.492 112.334 1.16272e-16)
(366.399 120.866 -2.45229e-16)
(379.094 127.397 -1.07976e-17)
(432.55 143.182 0)
(453.534 150.385 3.85687e-16)
(592.123 206.042 -1.10579e-16)
(665.093 -8.40013 5.20931e-17)
(502.998 -96.8165 3.6445e-19)
(442.486 -90.0142 0)
(399.682 -84.5335 0)
(397.934 -83.5619 0)
(391.126 -84.7888 -3.78927e-17)
(405.421 -86.8674 -2.09909e-17)
(396.824 -85.3721 5.01706e-17)
(389.542 -81.9239 -3.17442e-17)
(369.178 -77.9669 1.06913e-20)
(357.226 -74.4373 0)
(338.751 -71.2046 -8.76203e-17)
(327.4 -68.1519 -7.91301e-17)
(311.544 -65.4044 -1.11985e-16)
(301.322 -62.7739 -1.10284e-16)
(288.464 -60.5557 1.37153e-16)
(280.092 -58.5177 0)
(270.604 -56.9752 -3.13674e-16)
(264.608 -55.6169 -3.05771e-16)
(258.605 -54.7859 1.51261e-16)
(255.476 -54.1971 0)
(252.914 -53.9926 1.28556e-16)
(252.089 -53.838 0)
(250.952 -53.6934 0)
(250.098 -53.372 9.9931e-21)
(248.323 -52.9513 0)
(246.332 -52.3757 -7.75795e-21)
(243.598 -51.7293 0)
(240.827 -51.0411 -1.597e-16)
(237.74 -50.3604 1.72293e-16)
(234.864 -49.7159 -1.85519e-16)
(231.957 -49.1006 0)
(229.358 -48.5593 -2.14927e-16)
(226.836 -48.0143 6.54743e-21)
(224.645 -47.5971 0)
(222.463 -47.123 5.23832e-16)
(220.614 -46.78 -2.78123e-16)
(218.625 -46.3066 0)
(217.002 -46.0297 -3.09239e-16)
(214.93 -45.4678 -3.23317e-16)
(213.409 -45.2477 0)
(210.827 -44.4302 -3.51875e-16)
(209.355 -44.3196 -1.40884e-21)
(205.476 -42.9865 0)
(204.278 -43.2705 3.96655e-16)
(198.374 -41.0302 -4.01303e-16)
(103.217 19.5472 0)
(122.025 30.7577 -3.5367e-19)
(129.062 32.9512 0)
(133.225 36.1876 0)
(136.116 38.0757 0)
(137.32 39.1908 0)
(137.462 39.7581 6.07742e-20)
(137.125 40.0039 -1.69198e-15)
(136.634 40.0468 -1.74761e-15)
(136.184 40.0556 0)
(135.858 40.0563 0)
(135.677 40.1031 0)
(135.674 40.1752 -2.07737e-15)
(135.844 40.3193 2.19035e-15)
(136.238 40.493 2.31339e-15)
(136.823 40.7658 0)
(137.687 41.0803 0)
(138.769 41.512 0)
(140.176 41.9688 0)
(141.798 42.5861 1.29761e-19)
(143.809 43.2025 3.15966e-15)
(145.999 44.0371 6.60002e-15)
(148.668 44.8407 1.75706e-19)
(151.455 45.917 -7.10958e-15)
(154.821 46.8938 3.64946e-15)
(158.158 48.2521 0)
(162.255 49.3906 -7.07423e-15)
(166.079 51.0598 3.17385e-15)
(171.059 52.3688 -2.15321e-19)
(175.434 54.354 0)
(181.444 55.8307 -1.75172e-15)
(186.25 58.1284 0)
(193.423 59.8204 1.30734e-15)
(198.689 62.4634 -1.15223e-15)
(207.423 64.4941 1.01715e-15)
(213.241 67.5668 8.8081e-16)
(223.956 70.0818 0)
(230.327 73.4947 0)
(243.496 76.7559 -1.00206e-15)
(250.497 80.5188 -3.73161e-16)
(265.686 84.6927 3.42118e-16)
(272.619 88.6591 9.11959e-20)
(289.197 93.3906 2.97185e-16)
(294.253 97.1309 0)
(310.953 101.608 3.01493e-16)
(312.612 104.452 1.92088e-16)
(331.538 109.006 -2.71221e-16)
(334.821 112.233 0)
(366.971 120.751 0)
(380.078 127.365 1.01998e-17)
(433.716 143.14 0)
(455.221 150.193 -3.50228e-16)
(593.063 205.401 5.01078e-17)
(665.528 -7.99432 -4.66188e-17)
(504.939 -96.2526 2.09615e-17)
(445.432 -90.1276 0)
(403.682 -85.1762 0)
(402.807 -84.5173 0)
(396.24 -85.9142 3.48482e-17)
(409.397 -87.7056 0)
(399.173 -85.7689 4.55408e-17)
(390.962 -82.0283 2.88336e-17)
(370.241 -77.9827 5.94641e-17)
(358.232 -74.4275 0)
(339.702 -71.1971 8.01304e-17)
(328.314 -68.1322 7.23695e-17)
(312.403 -65.389 0)
(302.162 -62.7586 1.00974e-16)
(289.3 -60.5602 -8.00389e-21)
(280.958 -58.5419 0)
(271.513 -57.0332 7.28655e-21)
(265.574 -55.7072 2.79985e-16)
(259.62 -54.9154 1.38488e-16)
(256.524 -54.3597 -1.24807e-16)
(253.95 -54.1765 0)
(253.066 -54.02 0)
(251.825 -53.8545 0)
(250.85 -53.4988 1.14919e-16)
(248.952 -53.0404 0)
(246.851 -52.429 -1.28104e-16)
(244.023 -51.7539 -1.37569e-16)
(241.179 -51.0442 1.47538e-16)
(238.038 -50.35 0)
(235.125 -49.6983 1.71498e-16)
(232.195 -49.0807 0)
(229.586 -48.5408 1.98719e-16)
(227.063 -47.9992 2.12958e-16)
(224.876 -47.5867 -2.27681e-16)
(222.703 -47.1172 -2.42049e-16)
(220.863 -46.7791 2.56944e-16)
(218.885 -46.3082 -2.70737e-16)
(217.269 -46.0334 2.85397e-16)
(215.206 -45.4697 2.98148e-16)
(213.687 -45.2467 0)
(211.106 -44.421 0)
(209.628 -44.2994 -3.38678e-16)
(205.741 -42.9497 0)
(204.523 -43.221 0)
(198.576 -40.9549 3.67679e-16)
(103.099 18.8908 0)
(121.187 29.9598 -1.81249e-15)
(128.088 32.4109 0)
(132.265 35.7614 0)
(135.082 37.7015 0)
(136.204 38.8537 0)
(136.285 39.4357 2.86875e-15)
(135.926 39.687 0)
(135.454 39.7344 2.56701e-20)
(135.056 39.7522 0)
(134.802 39.7653 0)
(134.702 39.8277 0)
(134.785 39.9158 1.88741e-15)
(135.04 40.0762 -1.99248e-15)
(135.518 40.265 2.10544e-15)
(136.184 40.5524 2.2239e-15)
(137.125 40.8794 0)
(138.281 41.3242 0)
(139.759 41.7917 0)
(141.45 42.4215 2.7305e-15)
(143.527 43.0473 -2.85942e-15)
(145.782 43.8947 -5.95827e-15)
(148.515 44.7063 6.1924e-15)
(151.362 45.797 3.18673e-15)
(154.787 46.7809 -6.5047e-15)
(158.182 48.1565 0)
(162.341 49.3027 6.14151e-15)
(166.24 50.9949 -2.69912e-15)
(171.309 52.3156 -2.21219e-15)
(175.777 54.3278 0)
(181.869 55.8154 -1.50194e-15)
(186.762 58.1407 0)
(194.003 59.8383 1.14873e-15)
(199.343 62.5058 1.01923e-15)
(208.112 64.5292 0)
(213.973 67.618 0)
(224.681 70.1109 6.90067e-16)
(231.075 73.5332 0)
(244.213 76.7637 4.60079e-16)
(251.186 80.5289 -3.44357e-16)
(266.264 84.6544 -6.35074e-16)
(273.108 88.6134 2.48709e-16)
(289.572 93.3076 -2.76404e-16)
(294.545 97.0603 2.14689e-16)
(311.159 101.512 -2.79816e-16)
(312.738 104.36 -1.77649e-16)
(331.621 108.855 2.51099e-16)
(335.045 112.091 0)
(367.448 120.6 0)
(380.941 127.286 -9.7749e-18)
(434.734 143.043 0)
(456.7 149.928 1.61629e-16)
(593.802 204.687 4.60266e-17)
(665.735 -7.5918 0)
(506.596 -95.6456 0)
(448.194 -90.2138 1.22016e-16)
(407.546 -85.7974 1.05243e-17)
(407.459 -85.4305 0)
(400.933 -86.943 3.23906e-17)
(412.852 -88.4186 -1.77216e-17)
(401.083 -86.0578 -8.39822e-17)
(392.06 -82.0587 -1.33036e-17)
(371.052 -77.9428 5.50387e-17)
(359.01 -74.3702 0)
(340.437 -71.1432 0)
(329.022 -68.0692 -6.71553e-17)
(313.068 -65.332 9.52805e-17)
(302.819 -62.7055 -9.38472e-17)
(289.965 -60.5289 -1.16943e-16)
(281.661 -58.5328 -1.18645e-16)
(272.263 -57.0581 1.33704e-16)
(266.381 -55.7651 -2.60239e-16)
(260.472 -55.0113 -1.28723e-16)
(257.404 -54.4869 1.16062e-16)
(254.809 -54.3221 0)
(253.855 -54.161 0)
(252.504 -53.9724 0)
(251.405 -53.5814 1.07391e-16)
(249.382 -53.0852 0)
(247.171 -52.4385 0)
(244.251 -51.7354 1.28806e-16)
(241.336 -51.0052 1.38179e-16)
(238.142 -50.2983 0)
(235.194 -49.64 0)
(232.243 -49.0205 0)
(229.623 -48.4821 -3.72568e-16)
(227.097 -47.944 -1.99621e-16)
(224.912 -47.536 4.26827e-16)
(222.746 -47.0708 0)
(220.914 -46.737 2.40722e-16)
(218.944 -46.2681 2.53545e-16)
(217.333 -45.9945 0)
(215.274 -45.4285 0)
(213.754 -45.2017 0)
(211.171 -44.3675 0)
(209.686 -44.2338 0)
(205.789 -42.868 0)
(204.552 -43.1243 0)
(198.557 -40.8346 3.41959e-16)
(102.986 18.2587 0)
(120.389 29.1812 1.5734e-15)
(127.16 31.8864 0)
(131.348 35.3474 9.96439e-16)
(134.089 37.3413 -1.11065e-15)
(135.127 38.5309 0)
(135.143 39.1255 -4.54393e-20)
(134.756 39.3789 0)
(134.296 39.4274 2.24207e-20)
(133.941 39.4508 -1.487e-15)
(133.751 39.4734 -1.56407e-15)
(133.725 39.5487 0)
(133.887 39.6506 1.7416e-15)
(134.222 39.8255 0)
(134.777 40.0277 -1.9468e-15)
(135.518 40.3284 -2.05667e-15)
(136.532 40.6665 -2.17086e-15)
(137.758 41.1231 0)