/*--------------------------------*- C++ -*----------------------------------*\
| =========                 |                                                 |
| \\      /  F ield         | OpenFOAM: The Open Source CFD Toolbox           |
|  \\    /   O peration     | Version:  2412                                  |
|   \\  /    A nd           | Website:  www.openfoam.com                      |
|    \\/     M anipulation  |                                                 |
\*---------------------------------------------------------------------------*/
FoamFile
{
    version     2.0;
    format      ascii;
    arch        "LSB;label=32;scalar=64";
    class       volScalarField;
    location    "0.8";
    object      epsilon;
}
// * * * * * * * * * * * * * * * * * * * * * * * * * * * * * * * * * * * * * //

dimensions      [0 2 -3 0 0 0 0];

internalField   nonuniform List<scalar> 
13068
(
380.577
385.872
396.325
419.44
468.703
560.74
706.256
899.527
1119.68
1341.4
1544.63
1713.12
1829.71
1881.51
1869.44
1814.97
1748.56
1696.39
1669.07
1668.04
1688.13
1726.76
1779.16
1846.02
1923.92
2016.93
2121.45
2245.13
2382.6
2546.52
2727.8
2947.35
3189.3
3488.84
3817.96
4237.4
4697.56
5307.53
5981.51
6925.99
7995.9
9587.44
11421.3
14196.2
17239.5
21589.3
25696.1
31029
35542.5
40930.5
45563.4
42296.6
41323
27977.4
20933.6
17837.6
17290.1
16980.4
17175.6
16129.3
14870.4
12981.5
11394.3
9813.58
8612.35
7502.48
6653.21
5897.16
5330.92
4851.33
4501.52
4209.53
3990.99
3798.08
3637.31
3481.32
3333.9
3181.2
3026.06
2865.1
2701.78
2539.87
2381.81
2234.36
2096.42
1975.06
1864.23
1770.95
1684.49
1613.55
1543.64
1487.14
1426.1
1377.61
1320.37
1275.52
1219.92
1177.27
1119.93
380.502
385.7
396.001
418.831
467.582
558.875
703.588
896.316
1116.46
1338.74
1542.85
1712.18
1829.33
1881.51
1869.9
1816.15
1750.53
1699
1672.01
1671.05
1691.08
1729.57
1781.83
1848.58
1926.42
2019.4
2123.94
2247.69
2385.25
2549.32
2730.78
2950.56
3192.78
3492.67
3822.2
4242.21
4703.04
5313.97
5989.13
6935.18
8006.87
9600.34
11435.9
14211.8
17255.7
21604.6
25712.1
31043.1
35555.5
40915.2
45505.7
42173.2
41057.3
27694
20672.3
17615.3
17116.9
16858.4
17094.6
16079.3
14842.3
12968.3
11390
9813.93
8614.88
7506.01
6657.37
5901.67
5335.54
4855.75
4505.53
4212.98
3993.86
3800.38
3639.1
3482.69
3334.95
3182.05
3026.83
2865.86
2702.62
2540.84
2382.92
2235.59
2097.71
1976.38
1865.49
1772.1
1685.48
1614.33
1544.19
1487.41
1426.09
1377.25
1319.66
1274.35
1218.32
1175.07
1117.3
380.428
385.53
395.681
418.228
466.471
557.022
700.932
893.115
1113.25
1336.08
1541.08
1711.26
1828.97
1881.52
1870.4
1817.36
1752.54
1701.62
1674.96
1674.08
1694.02
1732.39
1784.51
1851.15
1928.92
2021.88
2126.44
2250.25
2387.91
2552.13
2733.76
2953.78
3196.26
3496.51
3826.44
4247.01
4708.54
5320.42
5996.76
6944.37
8017.82
9613.24
11450.5
14227.5
17271.8
21620
25728.2
31057.3
35568.7
40900.2
45448.5
42051.1
40795.4
27416.8
20418.5
17399.8
16948.7
16739.3
17015
16029.8
14814.3
12955
11385.6
9814.2
8617.34
7509.49
6661.49
5906.15
5340.14
4860.15
4509.54
4216.44
3996.74
3802.68
3640.9
3484.07
3336.02
3182.92
3027.6
2866.65
2703.49
2541.83
2384.04
2236.82
2099.02
1977.7
1866.76
1773.27
1686.48
1615.12
1544.75
1487.69
1426.09
1376.89
1318.97
1273.2
1216.74
1172.91
1114.71
380.355
385.362
395.366
417.633
465.37
555.183
698.29
889.927
1110.04
1333.44
1539.33
1710.34
1828.61
1881.55
1870.92
1818.59
1754.56
1704.25
1677.91
1677.1
1696.96
1735.19
1787.18
1853.71
1931.41
2024.35
2128.93
2252.8
2390.56
2554.92
2736.73
2956.98
3199.73
3500.33
3830.68
4251.8
4714.01
5326.84
6004.36
6953.52
8028.72
9626.07
11465
14243
17287.9
21635.3
25744.3
31071.5
35581.6
40885.1
45391.6
41930.1
40537.1
27145.3
20171.6
17190.7
16784.9
16622.8
16936.5
15980.7
14786.3
12941.5
11381
9814.29
8619.66
7512.85
6665.51
5910.54
5344.68
4864.51
4513.51
4219.87
3999.6
3804.97
3642.69
3485.44
3337.09
3183.79
3028.38
2867.43
2704.35
2542.82
2385.15
2238.05
2100.32
1979.02
1868.03
1774.42
1687.47
1615.91
1545.3
1487.97
1426.09
1376.54
1318.28
1272.07
1215.18
1170.77
1112.15
380.284
385.197
395.055
417.046
464.281
553.359
695.666
886.757
1106.86
1330.81
1537.59
1709.43
1828.26
1881.59
1871.45
1819.84
1756.59
1706.89
1680.86
1680.11
1699.9
1737.99
1789.84
1856.27
1933.89
2026.81
2131.4
2255.35
2393.2
2557.71
2739.69
2960.17
3203.18
3504.13
3834.88
4256.56
4719.45
5333.22
6011.91
6962.61
8039.55
9638.81
11479.4
14258.5
17303.8
21650.5
25760.3
31085.5
35594.3
40869.9
45334.6
41810
40282
26879.2
19931.2
16987.6
16625.4
16508.7
16859
15931.8
14758.1
12927.8
11376.2
9814.18
8621.8
7516.07
6669.41
5914.84
5349.13
4868.8
4517.44
4223.26
4002.42
3807.22
3644.45
3486.79
3338.13
3184.64
3029.15
2868.21
2705.2
2543.79
2386.25
2239.27
2101.61
1980.32
1869.28
1775.57
1688.46
1616.7
1545.86
1488.25
1426.09
1376.2
1317.6
1270.94
1213.63
1168.65
1109.61
380.213
385.034
394.748
416.465
463.204
551.55
693.059
883.605
1103.69
1328.2
1535.86
1708.54
1827.92
1881.63
1871.99
1821.1
1758.63
1709.52
1683.8
1683.11
1702.82
1740.78
1792.49
1858.81
1936.36
2029.26
2133.87
2257.87
2395.82
2560.47
2742.62
2963.34
3206.61
3507.9
3839.06
4261.29
4724.85
5339.56
6019.4
6971.64
8050.3
9651.44
11493.7
14273.8
17319.6
21665.6
25776.1
31099.3
35606.7
40854.5
45277.7
41690.8
40030
26618.2
19696.8
16790.1
16469.7
16396.7
16782.4
15883
14729.8
12913.9
11371.2
9813.85
8623.75
7519.12
6673.17
5919.03
5353.5
4873.02
4521.3
4226.61
4005.2
3809.45
3646.19
3488.12
3339.16
3185.48
3029.9
2868.97
2706.04
2544.75
2387.34
2240.47
2102.88
1981.61
1870.51
1776.7
1689.43
1617.47
1546.4
1488.52
1426.08
1375.85
1316.92
1269.82
1212.1
1166.56
1107.11
380.143
384.874
394.445
415.893
462.138
549.758
690.471
880.471
1100.54
1325.61
1534.15
1707.65
1827.59
1881.69
1872.54
1822.37
1760.67
1712.16
1686.73
1686.11
1705.73
1743.55
1795.12
1861.34
1938.82
2031.7
2136.32
2260.38
2398.42
2563.22
2745.54
2966.48
3210.01
3511.65
3843.2
4265.98
4730.21
5345.85
6026.84
6980.59
8060.96
9663.98
11507.9
14289
17335.3
21680.5
25791.7
31112.9
35618.7
40838.8
45220.7
41572.3
39781.1
26362
19468.3
16597.9
16317.7
16286.6
16706.6
15834.4
14701.3
12899.6
11365.8
9813.28
8625.5
7522.01
6676.8
5923.1
5357.77
4877.17
4525.1
4229.9
4007.94
3811.64
3647.89
3489.43
3340.17
3186.29
3030.64
2869.72
2706.86
2545.69
2388.41
2241.66
2104.13
1982.88
1871.74
1777.82
1690.39
1618.23
1546.93
1488.79
1426.07
1375.5
1316.25
1268.71
1210.57
1164.48
1104.63
380.075
384.716
394.147
415.327
461.084
547.981
687.901
877.355
1097.41
1323.04
1532.45
1706.77
1827.26
1881.75
1873.11
1823.65
1762.72
1714.79
1689.66
1689.09
1708.63
1746.32
1797.75
1863.85
1941.27
2034.12
2138.75
2262.88
2401.01
2565.95
2748.44
2969.6
3213.39
3515.37
3847.32
4270.64
4735.52
5352.09
6034.22
6989.48
8071.53
9676.41
11521.9
14304.1
17350.9
21695.3
25807.1
31126.2
35630.4
40822.8
45163.7
41454.6
39535.1
26110.7
19245.4
16410.7
16169.2
16178.5
16631.4
15785.9
14672.6
12885.1
11360.2
9812.48
8627.05
7524.73
6680.28
5927.05
5361.95
4881.24
4528.85
4233.15
4010.64
3813.79
3649.56
3490.7
3341.16
3187.09
3031.36
2870.45
2707.67
2546.62
2389.47
2242.82
2105.36
1984.13
1872.94
1778.92
1691.34
1618.98
1547.46
1489.05
1426.06
1375.15
1315.57
1267.61
1209.06
1162.43
1102.18
380.007
384.56
393.853
414.769
460.042
546.22
685.349
874.259
1094.3
1320.48
1530.77
1705.91
1826.94
1881.83
1873.68
1824.94
1764.77
1717.42
1692.58
1692.07
1711.52
1749.07
1800.36
1866.36
1943.7
2036.53
2141.17
2265.36
2403.58
2568.65
2751.31
2972.7
3216.74
3519.06
3851.4
4275.25
4740.8
5358.28
6041.54
6998.28
8082.01
9688.72
11535.8
14319
17366.2
21709.9
25822.3
31139.3
35641.7
40806.6
45106.7
41337.7
39292.1
25863.8
19027.8
16228.4
16023.9
16072
16556.9
15737.4
14643.8
12870.4
11354.4
9811.44
8628.41
7527.29
6683.63
5930.89
5366.03
4885.24
4532.53
4236.34
4013.29
3815.9
3651.21
3491.95
3342.12
3187.87
3032.06
2871.16
2708.46
2547.53
2390.5
2243.97
2106.58
1985.36
1874.13
1780.01
1692.28
1619.73
1547.98
1489.3
1426.05
1374.8
1314.9
1266.51
1207.56
1160.39
1099.75
379.941
384.406
393.564
414.218
459.011
544.475
682.816
871.182
1091.21
1317.94
1529.1
1705.05
1826.63
1881.91
1874.27
1826.25
1766.83
1720.04
1695.49
1695.03
1714.39
1751.8
1802.95
1868.84
1946.11
2038.92
2143.58
2267.82
2406.13
2571.34
2754.16
2975.78
3220.07
3522.72
3855.45
4279.83
4746.03
5364.42
6048.79
7007.02
8092.4
9700.93
11549.6
14333.8
17381.4
21724.3
25837.3
31152.1
35652.7
40790.2
45049.6
41221.6
39051.9
25621.3
18815.3
16050.5
15881.6
15967.1
16483
15688.9
14614.6
12855.3
11348.2
9810.18
8629.58
7529.69
6686.83
5934.62
5370.01
4889.15
4536.15
4239.49
4015.9
3817.98
3652.82
3493.17
3343.05
3188.63
3032.75
2871.85
2709.23
2548.42
2391.52
2245.1
2107.78
1986.58
1875.3
1781.08
1693.2
1620.46
1548.49
1489.55
1426.03
1374.45
1314.23
1265.42
1206.07
1158.37
1097.35
379.875
384.255
393.278
413.675
457.992
542.746
680.301
868.124
1088.13
1315.42
1527.45
1704.21
1826.33
1882
1874.88
1827.56
1768.89
1722.66
1698.39
1697.98
1717.25
1754.53
1805.54
1871.32
1948.52
2041.29
2145.97
2270.27
2408.67
2574.01
2757
2978.83
3223.37
3526.35
3859.46
4284.38
4751.22
5370.5
6055.99
7015.68
8102.69
9713.02
11563.3
14348.4
17396.5
21738.6
25852.2
31164.7
35663.3
40773.5
44992.6
41106.3
38814.6
25383.1
18607.6
15877
15742.2
15863.7
16409.6
15640.5
14585.3
12840
11341.8
9808.7
8630.55
7531.92
6689.9
5938.23
5373.91
4892.99
4539.7
4242.58
4018.47
3820.02
3654.39
3494.37
3343.97
3189.37
3033.41
2872.53
2709.99
2549.29
2392.52
2246.21
2108.96
1987.78
1876.46
1782.14
1694.11
1621.18
1548.99
1489.8
1426.01
1374.1
1313.57
1264.33
1204.59
1156.37
1094.97
379.81
384.106
392.997
413.138
456.984
541.033
677.805
865.085
1085.08
1312.92
1525.82
1703.38
1826.03
1882.1
1875.49
1828.89
1770.96
1725.28
1701.28
1700.91
1720.1
1757.24
1808.11
1873.78
1950.91
2043.66
2148.34
2272.7
2411.18
2576.66
2759.81
2981.85
3226.64
3529.95
3863.44
4288.88
4756.36
5376.54
6063.12
7024.26
8112.9
9725
11576.8
14362.9
17411.4
21752.7
25866.8
31177.1
35673.6
40756.6
44935.5
40991.8
38580.1
25148.9
18404.5
15707.5
15605.4
15761.6
16336.6
15592
14555.8
12824.4
11335.2
9806.99
8631.34
7534
6692.84
5941.73
5377.7
4896.76
4543.2
4245.62
4021
3822.03
3655.94
3495.53
3344.86
3190.09
3034.06
2873.19
2710.73
2550.14
2393.5
2247.3
2110.12
1988.96
1877.6
1783.19
1695.01
1621.89
1549.49
1490.03
1425.99
1373.75
1312.9
1263.25
1203.12
1154.39
1092.61
379.747
383.96
392.719
412.609
455.988
539.336
675.327
862.066
1082.04
1310.44
1524.2
1702.56
1825.75
1882.22
1876.12
1830.22
1773.03
1727.9
1704.16
1703.84
1722.94
1759.93
1810.66
1876.23
1953.28
2046
2150.69
2275.11
2413.68
2579.29
2762.59
2984.85
3229.89
3533.52
3867.39
4293.34
4761.45
5382.52
6070.19
7032.76
8123
9736.87
11590.2
14377.2
17426.1
21766.6
25881.3
31189.2
35683.5
40739.5
44878.5
40878.2
38348.3
24918.7
18205.8
15541.8
15471.1
15660.8
16264.1
15543.5
14526
12808.5
11328.3
9805.07
8631.94
7535.91
6695.64
5945.11
5381.41
4900.44
4546.63
4248.6
4023.48
3823.99
3657.45
3496.67
3345.73
3190.79
3034.69
2873.83
2711.45
2550.98
2394.46
2248.37
2111.26
1990.12
1878.72
1784.22
1695.9
1622.59
1549.97
1490.26
1425.96
1373.4
1312.24
1262.18
1201.67
1152.42
1090.28
379.684
383.815
392.446
412.086
455.003
537.655
672.868
859.066
1079.03
1307.98
1522.6
1701.75
1825.48
1882.35
1876.76
1831.57
1775.1
1730.51
1707.04
1706.75
1725.76
1762.61
1813.2
1878.66
1955.64
2048.34
2153.03
2277.5
2416.15
2581.9
2765.36
2987.83
3233.11
3537.06
3871.3
4297.77
4766.51
5388.45
6077.19
7041.19
8133.01
9748.62
11603.4
14391.4
17440.7
21780.4
25895.5
31201
35693.1
40722.2
44821.5
40765.3
38119.3
24692.3
18011.3
15379.7
15339.2
15561.1
16191.9
15495
14496
12792.4
11321.2
9802.93
8632.35
7537.68
6698.31
5948.38
5385.02
4904.05
4549.99
4251.54
4025.91
3825.92
3658.93
3497.78
3346.57
3191.46
3035.29
2874.46
2712.15
2551.8
2395.4
2249.42
2112.38
1991.27
1879.83
1785.23
1696.77
1623.27
1550.45
1490.49
1425.92
1373.04
1311.57
1261.11
1200.22
1150.48
1087.98
379.622
383.673
392.176
411.571
454.029
535.989
670.428
856.087
1076.03
1305.53
1521.01
1700.95
1825.21
1882.48
1877.41
1832.93
1777.18
1733.12
1709.9
1709.65
1728.56
1765.28
1815.73
1881.08
1957.98
2050.65
2155.36
2279.88
2418.61
2584.49
2768.1
2990.78
3236.3
3540.56
3875.17
4302.15
4771.51
5394.32
6084.13
7049.53
8142.93
9760.25
11616.5
14405.4
17455.1
21794
25909.5
31212.7
35702.4
40704.7
44764.6
40653.3
37892.9
24469.6
17820.8
15221.1
15209.4
15462.5
16120
15446.4
14465.8
12776.1
11313.8
9800.58
8632.59
7539.29
6700.84
5951.54
5388.53
4907.59
4553.3
4254.42
4028.3
3827.81
3660.38
3498.86
3347.39
3192.12
3035.88
2875.06
2712.83
2552.59
2396.32
2250.46
2113.49
1992.39
1880.91
1786.23
1697.63
1623.95
1550.92
1490.71
1425.89
1372.69
1310.91
1260.05
1198.78
1148.55
1085.69
379.561
383.532
391.91
411.062
453.066
534.339
668.007
853.127
1073.06
1303.11
1519.45
1700.17
1824.96
1882.63
1878.08
1834.29
1779.26
1735.72
1712.75
1712.54
1731.36
1767.93
1818.24
1883.48
1960.31
2052.95
2157.66
2282.23
2421.05
2587.05
2770.82
2993.71
3239.46
3544.04
3879.01
4306.49
4776.47
5400.14
6091.01
7057.8
8152.74
9771.77
11629.5
14419.3
17469.4
21807.5
25923.4
31224
35711.3
40687
44707.8
40542.1
37669.2
24250.4
17634.3
15065.7
15081.7
15364.9
16048.4
15397.7
14435.4
12759.4
11306.1
9798.03
8632.65
7540.75
6703.25
5954.6
5391.96
4911.05
4556.54
4257.25
4030.65
3829.66
3661.79
3499.92
3348.19
3192.75
3036.46
2875.65
2713.5
2553.37
2397.22
2251.47
2114.57
1993.5
1881.99
1787.21
1698.47
1624.62
1551.38
1490.92
1425.84
1372.33
1310.25
1258.99
1197.35
1146.63
1083.43
379.501
383.394
391.649
410.56
452.115
532.705
665.605
850.188
1070.1
1300.71
1517.9
1699.4
1824.72
1882.8
1878.76
1835.67
1781.34
1738.32
1715.6
1715.41
1734.14
1770.57
1820.74
1885.87
1962.62
2055.23
2159.95
2284.57
2423.47
2589.6
2773.52
2996.61
3242.59
3547.48
3882.82
4310.79
4781.38
5405.9
6097.82
7065.98
8162.46
9783.16
11642.4
14433
17483.4
21820.7
25937
31235.1
35719.9
40669
44651
40431.8
37448.2
24034.8
17451.3
14913.3
14955.9
15268.2
15977.1
15349
14404.8
12742.6
11298.3
9795.28
8632.55
7542.07
6705.54
5957.54
5395.29
4914.43
4559.72
4260.03
4032.95
3831.47
3663.18
3500.95
3348.96
3193.37
3037.01
2876.22
2714.14
2554.13
2398.1
2252.46
2115.63
1994.59
1883.04
1788.18
1699.31
1625.27
1551.83
1491.12
1425.8
1371.97
1309.6
1257.94
1195.94
1144.73
1081.19
379.442
383.258
391.391
410.065
451.175
531.086
663.221
847.269
1067.17
1298.32
1516.36
1698.65
1824.49
1882.97
1879.46
1837.06
1783.43
1740.91
1718.43
1718.27
1736.9
1773.2
1823.22
1888.24
1964.92
2057.5
2162.23
2286.9
2425.87
2592.12
2776.19
2999.48
3245.7
3550.89
3886.58
4315.05
4786.24
5411.61
6104.56
7074.08
8172.08
9794.44
11655.1
14446.6
17497.3
21833.8
25950.4
31246
35728.2
40651
44594.3
40322.3
37229.8
23822.6
17272
14763.8
14831.9
15172.4
15906
15300.2
14374
12725.5
11290.2
9792.34
8632.27
7543.24
6707.7
5960.38
5398.54
4917.74
4562.84
4262.76
4035.21
3833.25
3664.53
3501.95
3349.71
3193.96
3037.54
2876.77
2714.77
2554.87
2398.97
2253.43
2116.68
1995.66
1884.08
1789.13
1700.12
1625.91
1552.27
1491.32
1425.75
1371.61
1308.94
1256.89
1194.53
1142.85
1078.97
379.384
383.124
391.136
409.577
450.245
529.483
660.857
844.37
1064.25
1295.96
1514.85
1697.9
1824.27
1883.16
1880.17
1838.45
1785.52
1743.49
1721.25
1721.12
1739.65
1775.8
1825.69
1890.6
1967.2
2059.75
2164.48
2289.2
2428.25
2594.62
2778.84
3002.33
3248.77
3554.27
3890.31
4319.27
4791.06
5417.26
6111.23
7082.11
8181.6
9805.59
11667.6
14460
17511.1
21846.7
25963.6
31256.7
35736.2
40632.7
44537.7
40213.7
37014
23613.7
17095.9
14617.1
14709.5
15077.3
15835.2
15251.3
14343
12708.2
11282
9789.22
8631.84
7544.28
6709.74
5963.11
5401.7
4920.97
4565.89
4265.43
4037.43
3834.99
3665.85
3502.92
3350.43
3194.53
3038.05
2877.3
2715.38
2555.6
2399.81
2254.38
2117.7
1996.71
1885.1
1790.07
1700.93
1626.55
1552.7
1491.51
1425.7
1371.25
1308.28
1255.85
1193.13
1140.99
1076.77
379.326
382.992
390.886
409.095
449.327
527.896
658.512
841.492
1061.36
1293.62
1513.35
1697.18
1824.06
1883.36
1880.89
1839.86
1787.61
1746.07
1724.06
1723.95
1742.38
1778.4
1828.14
1892.94
1969.47
2061.99
2166.72
2291.48
2430.61
2597.1
2781.46
3005.15
3251.82
3557.61
3894.01
4323.45
4795.83
5422.86
6117.84
7090.05
8191.02
9816.63
11680
14473.2
17524.6
21859.4
25976.7
31267.1
35743.8
40614.3
44481.3
40106
36800.8
23408
16923.2
14473
14588.7
14982.9
15764.5
15202.4
14311.8
12690.7
11273.5
9785.92
8631.25
7545.18
6711.66
5965.75
5404.77
4924.13
4568.89
4268.06
4039.6
3836.69
3667.14
3503.87
3351.14
3195.08
3038.55
2877.82
2715.97
2556.3
2400.63
2255.32
2118.71
1997.74
1886.1
1790.99
1701.72
1627.17
1553.13
1491.7
1425.64
1370.89
1307.63
1254.82
1191.74
1139.14
1074.59
379.27
382.862
390.639
408.619
448.419
526.325
656.185
838.634
1058.49
1291.3
1511.87
1696.46
1823.87
1883.57
1881.62
1841.28
1789.7
1748.65
1726.86
1726.77
1745.1
1780.97
1830.58
1895.26
1971.72
2064.21
2168.94
2293.75
2432.95
2599.56
2784.06
3007.95
3254.83
3560.93
3897.66
4327.58
4800.54
5428.39
6124.38
7097.9
8200.34
9827.54
11692.3
14486.3
17538
21872
25989.5
31277.3
35751.2
40595.8
44425
39999.2
36590.2
23205.5
16753.6
14331.3
14469.4
14889.3
15694
15153.4
14280.5
12673
11264.8
9782.44
8630.51
7545.95
6713.46
5968.28
5407.75
4927.22
4571.82
4270.63
4041.73
3838.36
3668.39
3504.79
3351.82
3195.62
3039.02
2878.31
2716.54
2556.98
2401.43
2256.23
2119.69
1998.75
1887.08
1791.9
1702.5
1627.78
1553.54
1491.88
1425.58
1370.53
1306.98
1253.79
1190.36
1137.31
1072.43
379.214
382.733
390.396
408.15
447.523
524.769
653.878
835.798
1055.64
1289
1510.41
1695.76
1823.69
1883.8
1882.37
1842.7
1791.79
1751.21
1729.64
1729.57
1747.8
1783.53
1833
1897.57
1973.95
2066.41
2171.14
2296
2435.27
2601.99
2786.64
3010.72
3257.82
3564.2
3901.28
4331.67
4805.21
5433.87
6130.85
7105.68
8209.55
9838.34
11704.4
14499.3
17551.3
21884.4
26002.1
31287.2
35758.3
40577.1
44368.9
39893.2
36382.1
23006
16586.9
14191.9
14351.5
14796.2
15623.8
15104.4
14249
12655.1
11256
9778.8
8629.63
7546.59
6715.16
5970.72
5410.65
4930.24
4574.7
4273.16
4043.82
3839.99
3669.62
3505.68
3352.47
3196.13
3039.48
2878.79
2717.1
2557.65
2402.22
2257.12
2120.66
1999.75
1888.05
1792.79
1703.27
1628.38
1553.95
1492.05
1425.51
1370.16
1306.33
1252.77
1188.99
1135.49
1070.3
379.16
382.607
390.156
407.688
446.637
523.228
651.59
832.983
1052.82
1286.72
1508.97
1695.08
1823.52
1884.04
1883.13
1844.13
1793.88
1753.77
1732.41
1732.36
1750.49
1786.08
1835.4
1899.87
1976.17
2068.59
2173.32
2298.22
2437.57
2604.41
2789.19
3013.46
3260.78
3567.45
3904.86
4335.72
4809.83
5439.3
6137.25
7113.36
8218.67
9849.01
11716.4
14512.1
17564.3
21896.6
26014.5
31296.9
35765
40558.3
44312.9
39788.2
36176.7
22809.6
16423.2
14054.8
14234.8
14703.8
15553.6
15055.3
14217.3
12637.1
11247
9775.01
8628.61
7547.11
6716.75
5973.06
5413.47
4933.19
4577.52
4275.63
4045.86
3841.59
3670.81
3506.55
3353.11
3196.62
3039.92
2879.25
2717.63
2558.29
2402.98
2258
2121.61
2000.73
1889
1793.66
1704.02
1628.96
1554.35
1492.22
1425.44
1369.8
1305.68
1251.75
1187.62
1133.68
1068.18
379.106
382.483
389.92
407.232
445.761
521.704
649.322
830.188
1050.01
1284.46
1507.55
1694.41
1823.36
1884.29
1883.91
1845.57
1795.97
1756.32
1735.18
1735.13
1753.16
1788.61
1837.79
1902.14
1978.37
2070.75
2175.49
2300.43
2439.84
2606.8
2791.71
3016.17
3263.7
3570.66
3908.4
4339.72
4814.4
5444.66
6143.58
7120.97
8227.68
9859.55
11728.3
14524.7
17577.2
21908.6
26026.7
31306.4
35771.5
40539.4
44257.1
39684.2
35973.7
22616.2
16262.2
13919.7
14119.4
14611.9
15483.7
15006.1
14185.6
12618.8
11237.8
9771.07
8627.45
7547.52
6718.23
5975.31
5416.21
4936.07
4580.28
4278.06
4047.87
3843.15
3671.98
3507.39
3353.72
3197.09
3040.34
2879.69
2718.15
2558.92
2403.73
2258.85
2122.53
2001.68
1889.94
1794.52
1704.76
1629.54
1554.74
1492.38
1425.37
1369.43
1305.03
1250.73
1186.27
1131.9
1066.08
379.053
382.36
389.688
406.782
444.897
520.194
647.073
827.415
1047.23
1282.23
1506.14
1693.75
1823.21
1884.56
1884.69
1847.02
1798.06
1758.87
1737.92
1737.89
1755.81
1791.12
1840.16
1904.4
1980.55
2072.9
2177.64
2302.62
2442.1
2609.16
2794.22
3018.86
3266.6
3573.84
3911.91
4343.68
4818.92
5449.96
6149.85
7128.49
8236.59
9869.98
11740
14537.1
17589.9
21920.5
26038.7
31315.7
35777.7
40520.4
44201.6
39581.1
35773.4
22425.7
16103.9
13786.6
14005.2
14520.6
15413.9
14957
14153.7
12600.5
11228.5
9766.98
8626.17
7547.81
6719.61
5977.47
5418.87
4938.88
4582.98
4280.44
4049.83
3844.67
3673.12
3508.21
3354.31
3197.54
3040.74
2880.11
2718.65
2559.52
2404.45
2259.68
2123.44
2002.62
1890.85
1795.37
1705.49
1630.11
1555.12
1492.53
1425.29
1369.06
1304.38
1249.72
1184.92
1130.12
1064
379
382.24
389.458
406.338
444.043
518.701
644.843
824.664
1044.47
1280.01
1504.75
1693.11
1823.08
1884.84
1885.49
1848.48
1800.15
1761.4
1740.66
1740.63
1758.45
1793.61
1842.51
1906.65
1982.71
2075.03
2179.77
2304.79
2444.33
2611.51
2796.69
3021.51
3269.46
3576.98
3915.37
4347.6
4823.39
5455.21
6156.04
7135.92
8245.4
9880.28
11751.6
14549.4
17602.5
21932.2
26050.6
31324.7
35783.7
40501.3
44146.2
39478.9
35575.6
22238
15948.2
13655.4
13892
14429.8
15344.3
14907.8
14121.7
12582
11219
9762.76
8624.76
7547.99
6720.9
5979.54
5421.45
4941.63
4585.62
4282.77
4051.76
3846.16
3674.22
3509
3354.88
3197.98
3041.13
2880.52
2719.13
2560.11
2405.16
2260.5
2124.33
2003.55
1891.75
1796.2
1706.2
1630.66
1555.49
1492.68
1425.21
1368.69
1303.73
1248.72
1183.59
1128.36
1061.95
378.949
382.121
389.233
405.901
443.199
517.222
642.633
821.934
1041.73
1277.82
1503.39
1692.48
1822.96
1885.13
1886.31
1849.94
1802.24
1763.93
1743.38
1743.35
1761.07
1796.09
1844.85
1908.87
1984.86
2077.15
2181.88
2306.93
2446.55
2613.83
2799.14
3024.14
3272.29
3580.08
3918.8
4351.47
4827.81
5460.4
6162.16
7143.28
8254.1
9890.46
11763
14561.6
17614.9
21943.7
26062.2
31333.6
35789.3
40482.1
44091.2
39377.7
35380.3
22053.2
15795
13526
13779.8
14339.4
15274.9
14858.7
14089.7
12563.4
11209.4
9758.42
8623.24
7548.07
6722.08
5981.53
5423.95
4944.31
4588.21
4285.05
4053.64
3847.62
3675.3
3509.77
3355.43
3198.39
3041.49
2880.91
2719.59
2560.68
2405.85
2261.29
2125.2
2004.45
1892.64
1797.01
1706.9
1631.21
1555.86
1492.82
1425.12
1368.32
1303.09
1247.72
1182.26
1126.62
1059.91
378.898
382.004
389.01
405.47
442.366
515.759
640.442
819.226
1039.01
1275.64
1502.04
1691.87
1822.86
1885.44
1887.13
1851.41
1804.33
1766.44
1746.08
1746.06
1763.67
1798.55
1847.17
1911.08
1986.99
2079.24
2183.97
2309.06
2448.74
2616.12
2801.57
3026.74
3275.1
3583.16
3922.18
4355.3
4832.18
5465.53
6168.21
7150.54
8262.71
9900.51
11774.3
14573.6
17627.1
21955
26073.6
31342.2
35794.8
40462.9
44036.4
39277.5
35187.6
21871.1
15644.3
13398.3
13668.7
14249.6
15205.7
14809.5
14057.6
12544.7
11199.7
9753.97
8621.61
7548.04
6723.18
5983.43
5426.39
4946.93
4590.75
4287.29
4055.48
3849.04
3676.35
3510.51
3355.95
3198.79
3041.84
2881.28
2720.04
2561.24
2406.52
2262.07
2126.05
2005.33
1893.51
1797.81
1707.59
1631.74
1556.21
1492.96
1425.03
1367.95
1302.44
1246.73
1180.94
1124.89
1057.89
378.848
381.889
388.791
405.045
441.543
514.312
638.271
816.539
1036.32
1273.49
1500.71
1691.27
1822.77
1885.76
1887.97
1852.89
1806.42
1768.95
1748.77
1748.75
1766.26
1800.99
1849.47
1913.27
1989.11
2081.32
2186.04
2311.17
2450.91
2618.4
2803.97
3029.32
3277.87
3586.19
3925.53
4359.09
4836.5
5470.6
6174.2
7157.72
8271.21
9910.44
11785.4
14585.4
17639.1
21966.2
26084.9
31350.6
35799.9
40443.6
43981.8
39178.3
34997.4
21691.9
15495.9
13272.2
13558.4
14160.2
15136.7
14760.4
14025.4
12525.9
11189.9
9749.4
8619.88
7547.93
6724.2
5985.26
5428.75
4949.49
4593.23
4289.48
4057.29
3850.44
3677.38
3511.24
3356.46
3199.17
3042.18
2881.63
2720.46
2561.77
2407.17
2262.83
2126.89
2006.2
1894.36
1798.59
1708.26
1632.27
1556.56
1493.09
1424.94
1367.57
1301.8
1245.74
1179.63
1123.17
1055.88
378.799
381.776
388.576
404.625
440.731
512.88
636.119
813.875
1033.64
1271.37
1499.39
1690.69
1822.69
1886.09
1888.82
1854.37
1808.5
1771.45
1751.45
1751.43
1768.82
1803.42
1851.76
1915.45
1991.2
2083.37
2188.09
2313.26
2453.06
2620.65
2806.34
3031.86
3280.61
3589.2
3928.84
4362.83
4840.77
5475.61
6180.11
7164.81
8279.6
9920.25
11796.4
14597.1
17651
21977.2
26095.9
31358.8
35804.9
40424.2
43927.6
39080.1
34809.7
21515.3
15349.8
13147.8
13449.1
14071.3
15067.9
14711.4
13993.2
12507
11180
9744.74
8618.06
7547.73
6725.13
5987.01
5431.05
4951.98
4595.66
4291.63
4059.06
3851.8
3678.37
3511.94
3356.95
3199.53
3042.49
2881.97
2720.88
2562.29
2407.8
2263.57
2127.7
2007.05
1895.19
1799.36
1708.92
1632.78
1556.9
1493.21
1424.84
1367.2
1301.16
1244.76
1178.33
1121.47
1053.9
378.75
381.664
388.363
404.212
439.928
511.463
633.987
811.233
1031
1269.26
1498.1
1690.12
1822.62
1886.44
1889.67
1855.86
1810.58
1773.94
1754.11
1754.08
1771.37
1805.83
1854.02
1917.6
1993.28
2085.41
2190.12
2315.32
2455.18
2622.87
2808.69
3034.38
3283.31
3592.16
3932.11
4366.52
4844.99
5480.56
6185.95
7171.82
8287.89
9929.94
11807.3
14608.6
17662.7
21988
26106.8
31366.8
35809.6
40404.9
43873.7
38983
34624.7
21341.4
15206
13024.8
13340.7
13982.9
14999.3
14662.5
13961.1
12488.1
11170
9739.99
8616.15
7547.44
6725.98
5988.69
5433.28
4954.42
4598.04
4293.73
4060.79
3853.13
3679.35
3512.61
3357.42
3199.87
3042.79
2882.29
2721.27
2562.79
2408.41
2264.28
2128.5
2007.88
1896.01
1800.12
1709.57
1633.28
1557.23
1493.33
1424.74
1366.82
1300.52
1243.78
1177.04
1119.79
1051.94
378.703
381.554
388.154
403.805
439.136
510.062
631.875
808.613
1028.37
1267.17
1496.82
1689.57
1822.57
1886.8
1890.55
1857.35
1812.66
1776.41
1756.75
1756.72
1773.9
1808.21
1856.27
1919.74
1995.34
2087.43
2192.14
2317.37
2457.29
2625.07
2811.01
3036.87
3285.99
3595.1
3935.34
4370.17
4849.15
5485.45
6191.72
7178.74
8296.08
9939.5
11818
14619.9
17674.3
21998.7
26117.5
31374.6
35814.1
40385.5
43820.1
38886.9
34442.1
21170.2
15064.3
12903.3
13233.1
13894.9
14931
14613.7
13928.9
12469.2
11159.9
9735.16
8614.16
7547.07
6726.76
5990.3
5435.44
4956.8
4600.37
4295.8
4062.49
3854.43
3680.29
3513.27
3357.87
3200.2
3043.08
2882.6
2721.65
2563.27
2409.01
2264.99
2129.27
2008.7
1896.81
1800.86
1710.21
1633.78
1557.55
1493.44
1424.64
1366.45
1299.89
1242.81
1175.76
1118.11
1049.99
378.656
381.446
387.948
403.403
438.354
508.676
629.782
806.015
1025.77
1265.11
1495.57
1689.03
1822.52
1887.17
1891.43
1858.85
1814.74
1778.88
1759.38
1759.34
1776.42
1810.58
1858.5
1921.86
1997.38
2089.43
2194.13
2319.39
2459.37
2627.25
2813.3
3039.32
3288.63
3597.99
3938.53
4373.78
4853.27
5490.28
6197.42
7185.58
8304.17
9948.93
11828.5
14631.2
17685.6
22009.2
26128
31382.2
35818.3
40366.1
43766.9
38791.8
34262.2
21001.6
14924.8
12783.2
13126.3
13807.4
14862.9
14565
13896.8
12450.2
11149.8
9730.25
8612.09
7546.64
6727.46
5991.84
5437.54
4959.13
4602.66
4297.82
4064.15
3855.7
3681.21
3513.9
3358.31
3200.51
3043.34
2882.89
2722.01
2563.73
2409.59
2265.67
2130.03
2009.5
1897.6
1801.59
1710.84
1634.26
1557.87
1493.55
1424.53
1366.07
1299.25
1241.84
1174.48
1116.45
1048.06
378.609
381.34
387.745
403.007
437.582
507.305
627.71
803.44
1023.19
1263.07
1494.33
1688.51
1822.5
1887.56
1892.32
1860.35
1816.81
1781.33
1762
1761.95
1778.91
1812.94
1860.72
1923.96
1999.4
2091.42
2196.1
2321.4
2461.43
2629.4
2815.57
3041.75
3291.25
3600.85
3941.69
4377.34
4857.33
5495.05
6203.05
7192.33
8312.15
9958.25
11839
14642.2
17696.8
22019.5
26138.3
31389.7
35822.4
40346.8
43714
38697.8
34084.7
20835.7
14787.4
12664.4
13020.4
13720.4
14795.1
14516.5
13864.8
12431.2
11139.7
9725.29
8609.95
7546.13
6728.11
5993.32
5439.59
4961.4
4604.89
4299.8
4065.78
3856.94
3682.11
3514.52
3358.72
3200.8
3043.6
2883.16
2722.36
2564.18
2410.15
2266.34
2130.78
2010.28
1898.37
1802.3
1711.45
1634.73
1558.17
1493.65
1424.42
1365.69
1298.62
1240.88
1173.22
1114.81
1046.15
378.564
381.235
387.545
402.617
436.82
505.95
625.657
800.887
1020.63
1261.05
1493.11
1688
1822.48
1887.95
1893.22
1861.86
1818.87
1783.77
1764.6
1764.53
1781.38
1815.27
1862.91
1926.04
2001.4
2093.38
2198.06
2323.38
2463.46
2631.53
2817.81
3044.15
3293.83
3603.68
3944.8
4380.86
4861.35
5499.76
6208.6
7199
8320.04
9967.44
11849.3
14653.1
17707.9
22029.7
26148.5
31396.9
35826.2
40327.4
43661.5
38604.9
33909.9
20672.4
14652.1
12547
12915.2
13633.8
14727.7
14468.1
13832.9
12412.3
11129.5
9720.27
8607.76
7545.56
6728.69
5994.74
5441.57
4963.62
4607.08
4301.74
4067.37
3858.15
3682.99
3515.12
3359.12
3201.09
3043.84
2883.43
2722.69
2564.61
2410.69
2266.98
2131.5
2011.04
1899.12
1803
1712.05
1635.19
1558.47
1493.75
1424.31
1365.31
1297.99
1239.92
1171.96
1113.18
1044.26
378.519
381.132
387.348
402.233
436.068
504.61
623.624
798.357
1018.1
1259.06
1491.91
1687.51
1822.48
1888.36
1894.13
1863.37
1820.93
1786.2
1767.18
1767.1
1783.84
1817.58
1865.08
1928.1
2003.38
2095.32
2199.99
2325.34
2465.48
2633.64
2820.03
3046.53
3296.38
3606.47
3947.87
4384.33
4865.31
5504.41
6214.09
7205.58
8327.81
9976.52
11859.4
14663.8
17718.8
22039.7
26158.5
31404
35829.9
40308.1
43609.4
38513.1
33737.6
20511.6
14518.7
12430.9
12810.8
13547.8
14660.6
14420
13801
12393.4
11119.3
9715.21
8605.51
7544.94
6729.21
5996.1
5443.51
4965.79
4609.23
4303.64
4068.94
3859.34
3683.84
3515.69
3359.5
3201.35
3044.06
2883.67
2723
2565.03
2411.22
2267.61
2132.21
2011.79
1899.86
1803.69
1712.64
1635.65
1558.77
1493.84
1424.19
1364.94
1297.36
1238.97
1170.71
1111.56
1042.38
378.475
381.03
387.154
401.854
435.326
503.285
621.611
795.85
1015.59
1257.08
1490.73
1687.03
1822.49
1888.79
1895.05
1864.88
1822.99
1788.62
1769.74
1769.64
1786.27
1819.87
1867.24
1930.15
2005.35
2097.25
2201.9
2327.28
2467.47
2635.72
2822.22
3048.87
3298.89
3609.22
3950.9
4387.75
4869.22
5509
6219.51
7212.08
8335.49
9985.47
11869.4
14674.4
17729.5
22049.5
26168.3
31410.9
35833.4
40288.9
43557.8
38422.4
33567.8
20353.4
14387.4
12316
12707.3
13462.4
14593.9
14372.1
13769.3
12374.5
11109.1
9710.11
8603.21
7544.27
6729.68
5997.4
5445.39
4967.91
4611.33
4305.51
4070.47
3860.51
3684.67
3516.25
3359.87
3201.6
3044.27
2883.9
2723.31
2565.43
2411.73
2268.23
2132.9
2012.52
1900.58
1804.36
1713.22
1636.09
1559.05
1493.92
1424.07
1364.56
1296.73
1238.03
1169.47
1109.96
1040.52
378.432
380.93
386.964
401.48
434.594
501.975
619.618
793.366
1013.11
1255.13
1489.57
1686.56
1822.51
1889.22
1895.98
1866.4
1825.04
1791.02
1772.28
1772.17
1788.69
1822.15
1869.37
1932.17
2007.29
2099.15
2203.8
2329.2
2469.44
2637.77
2824.38
3051.18
3301.38
3611.94
3953.9
4391.13
4873.08
5513.53
6224.85
7218.49
8343.06