/*--------------------------------*- C++ -*----------------------------------*\
| =========                 |                                                 |
| \\      /  F ield         | OpenFOAM: The Open Source CFD Toolbox           |
|  \\    /   O peration     | Version:  2412                                  |
|   \\  /    A nd           | Website:  www.openfoam.com                      |
|    \\/     M anipulation  |                                                 |
\*---------------------------------------------------------------------------*/
FoamFile
{
    version     2.0;
    format      ascii;
    arch        "LSB;label=32;scalar=64";
    class       volScalarField;
    location    "0.8";
    object      k;
}
// * * * * * * * * * * * * * * * * * * * * * * * * * * * * * * * * * * * * * //

dimensions      [0 2 -2 0 0 0 0];

internalField   nonuniform List<scalar> 
13068
(
37.7626
38.2655
39.2818
41.3319
45.0412
50.7365
58.0419
65.8648
73.0022
78.7231
82.8735
85.5344
86.7496
86.6325
85.5364
84.1295
83.0471
82.6582
82.9304
83.7364
84.8941
86.3757
88.0877
90.0961
92.3119
94.8638
97.6284
100.812
104.224
108.187
112.393
117.348
122.559
128.822
135.342
143.394
151.692
162.322
173.252
187.958
203.222
224.636
246.659
277.391
306.651
345.017
376.035
414.926
444.515
478.987
504.633
470.052
456.963
336.794
268.021
246.557
259.718
269.681
278.192
268.666
256.725
237.002
220.974
203.518
190.216
176.734
166.393
156.479
149.075
142.358
137.454
133.036
129.644
126.365
123.487
120.471
117.492
114.281
110.967
107.5
103.983
100.504
97.1018
93.9286
90.9189
88.2551
85.7413
83.5974
81.4983
79.7483
77.8976
76.3881
74.6338
73.2477
71.4986
70.155
68.392
67.0779
65.1589
37.7573
38.2526
39.2568
41.2869
44.9678
50.634
57.9229
65.7532
72.9231
78.6924
82.8923
85.5906
86.8258
86.7161
85.6235
84.2208
83.1414
82.7517
83.0189
83.8183
84.9696
86.4458
88.1537
90.1594
92.3734
94.9246
97.6892
100.874
104.287
108.252
112.461
117.419
122.633
128.901
135.427
143.486
151.793
162.435
173.378
188.099
203.377
224.802
246.83
277.555
306.806
345.153
376.175
415.038
444.603
478.846
504.206
469.128
455.041
334.611
266.105
245.089
258.681
268.978
277.736
268.389
256.581
236.949
220.978
203.55
190.264
176.791
166.458
156.549
149.147
142.426
137.515
133.088
129.687
126.399
123.513
120.492
117.509
114.296
110.982
107.517
104.004
100.528
97.1289
93.958
90.9493
88.285
85.7692
83.6217
81.5177
79.7616
77.9038
76.3857
74.6223
73.2242
71.463
70.1026
68.3229
66.9861
65.0505
37.7522
38.2399
39.2322
41.2423
44.8948
50.5317
57.8041
65.6416
72.8439
78.6617
82.9112
85.6468
86.9019
86.7995
85.7106
84.3122
83.236
82.8452
83.1075
83.9003
85.0452
86.516
88.2198
90.2227
92.4349
94.9855
97.7501
100.936
104.351
108.317
112.529
117.49
122.708
128.981
135.512
143.578
151.894
162.547
173.503
188.239
203.533
224.967
247
277.719
306.962
345.29
376.316
415.152
444.691
478.706
503.783
468.213
453.139
332.458
264.222
243.645
257.658
268.281
277.281
268.113
256.437
236.897
220.981
203.582
190.311
176.848
166.523
156.619
149.218
142.493
137.576
133.14
129.73
126.433
123.54
120.513
117.526
114.312
110.998
107.535
104.025
100.553
97.1562
93.9876
90.9798
88.3151
85.7972
83.6462
81.5374
79.7752
77.9104
76.3837
74.6112
73.2012
71.4279
70.0508
68.2546
66.8954
64.9435
37.7471
38.2273
39.2078
41.1981
44.8223
50.43
57.6856
65.5303
72.765
78.6312
82.9302
85.7028
86.9776
86.8826
85.7975
84.4035
83.3303
82.9385
83.1959
83.9821
85.1205
86.586
88.2857
90.2858
92.4963
95.0462
97.8108
100.998
104.414
108.382
112.596
117.561
122.782
129.06
135.597
143.67
151.995
162.659
173.629
188.379
203.687
225.132
247.17
277.882
307.116
345.427
376.456
415.264
444.778
478.566
503.36
467.304
451.254
330.332
262.369
242.223
256.646
267.588
276.827
267.835
256.291
236.842
220.983
203.613
190.357
176.903
166.587
156.688
149.288
142.56
137.637
133.192
129.773
126.467
123.567
120.534
117.543
114.328
111.015
107.554
104.046
100.577
97.1834
94.017
91.0102
88.3451
85.825
83.6706
81.5569
79.7886
77.9169
76.3817
74.6002
73.1784
71.3932
69.9995
68.1869
66.8056
64.8376
37.7421
38.215
39.1836
41.1543
44.7502
50.3287
57.5674
65.4191
72.6862
78.6009
82.9491
85.7585
87.0528
86.9652
85.884
84.4944
83.4242
83.0314
83.2838
84.0635
85.1954
86.6557
88.3513
90.3486
92.5574
95.1065
97.8712
101.059
104.476
108.447
112.663
117.631
122.856
129.139
135.681
143.761
152.095
162.77
173.753
188.518
203.84
225.295
247.338
278.043
307.27
345.563
376.595
415.375
444.862
478.425
502.938
466.4
449.384
328.231
260.543
240.823
255.644
266.898
276.372
267.556
256.143
236.786
220.983
203.642
190.401
176.957
166.649
156.756
149.358
142.627
137.697
133.243
129.815
126.5
123.593
120.554
117.56
114.343
111.03
107.571
104.066
100.601
97.2103
94.0462
91.0403
88.3747
85.8526
83.6948
81.5763
79.802
77.9234
76.3797
74.5893
73.1557
71.3587
69.9486
68.1197
66.7167
64.7327
37.7371
38.2027
39.1598
41.1109
44.6788
50.228
57.4497
65.3083
72.6076
78.5706
82.9681
85.814
87.1276
87.0474
85.97
84.5849
83.5178
83.1239
83.3714
84.1445
85.27
86.725
88.4166
90.4111
92.6181
95.1666
97.9312
101.12
104.538
108.511
112.73
117.701
122.93
129.217
135.764
143.852
152.194
162.881
173.876
188.656
203.992
225.457
247.505
278.204
307.422
345.697
376.732
415.484
444.944
478.283
502.516
465.501
447.53
326.156
258.744
239.442
254.651
266.211
275.917
267.275
255.993
236.727
220.98
203.669
190.443
177.009
166.709
156.822
149.426
142.692
137.756
133.294
129.856
126.533
123.618
120.574
117.577
114.358
111.046
107.589
104.087
100.624
97.2369
94.075
91.07
88.404
85.8799
83.7187
81.5954
79.8151
77.9297
76.3776
74.5783
73.1331
71.3243
69.898
68.0531
66.6285
64.6288
37.7322
38.1907
39.1362
41.0679
44.6078
50.1278
57.3324
65.1977
72.5292
78.5406
82.987
85.8693
87.2019
87.1289
86.0556
84.675
83.6109
83.2159
83.4585
84.225
85.3442
86.7939
88.4814
90.4732
92.6784
95.2262
97.9908
101.18
104.6
108.575
112.796
117.77
123.003
129.294
135.847
143.942
152.292
162.99
173.999
188.793
204.143
225.618
247.67
278.363
307.573
345.83
376.868
415.592
445.024
478.139
502.094
464.607
445.691
324.104
256.969
238.079
253.667
265.526
275.462
266.992
255.841
236.666
220.976
203.693
190.483
177.059
166.768
156.887
149.493
142.756
137.814
133.344
129.897
126.566
123.644
120.594
117.593
114.373
111.062
107.606
104.107
100.648
97.2631
94.1033
91.0994
88.433
85.9069
83.7422
81.6143
79.8281
77.9359
76.3754
74.5673
73.1105
71.2901
69.8477
67.9869
66.5411
64.5259
37.7274
38.1788
39.1129
41.0254
44.5375
50.0281
57.2156
65.0875
72.4511
78.5107
83.0059
85.9242
87.2758
87.21
86.1406
84.7646
83.7036
83.3075
83.5451
84.3052
85.418
86.8624
88.5459
90.5349
92.7384
95.2854
98.05
101.24
104.661
108.638
112.862
117.839
123.075
129.371
135.929
144.031
152.39
163.099
174.12
188.929
204.292
225.777
247.834
278.52
307.722
345.961
377.002
415.697
445.101
477.993
501.671
463.717
443.867
322.074
255.219
236.734
252.691
264.844
275.006
266.707
255.686
236.602
220.969
203.716
190.521
177.108
166.826
156.95
149.559
142.82
137.871
133.393
129.938
126.597
123.668
120.613
117.609
114.388
111.077
107.623
104.126
100.671
97.2888
94.1313
91.1283
88.4615
85.9334
83.7655
81.6329
79.8408
77.9419
76.3731
74.5563
73.088
71.2561
69.7977
67.9212
66.4545
64.424
37.7227
38.167
39.0899
40.9833
44.4676
49.9291
57.0992
64.9776
72.3732
78.4809
83.0248
85.9789
87.3491
87.2905
86.2252
84.8538
83.7958
83.3986
83.6313
84.3849
85.4914
86.9306
88.61
90.5962
92.7979
95.3442
98.1088
101.3
104.722
108.701
112.927
117.907
123.147
129.447
136.01
144.119
152.487
163.206
174.24
189.063
204.44
225.935
247.996
278.675
307.87
346.091
377.134
415.8
445.175
477.846
501.248
462.833
442.058
320.068
253.491
235.405
251.722
264.164
274.549
266.42
255.529
236.536
220.96
203.737
190.558
177.154
166.881
157.012
149.623
142.882
137.928
133.441
129.977
126.629
123.692
120.632
117.625
114.402
111.091
107.64
104.146
100.693
97.3142
94.1589
91.1568
88.4897
85.9597
83.7884
81.6513
79.8533
77.9478
76.3707
74.5453
73.0656
71.2221
69.748
67.856
66.3685
64.3229
37.718
38.1555
39.0672
40.9416
44.3984
49.8306
56.9833
64.868
72.2955
78.4513
83.0437
86.0333
87.422
87.3705
86.3094
84.9426
83.8876
83.4893
83.7171
84.4641
85.5643
86.9983
88.6737
90.6571
92.8571
95.4026
98.1671
101.359
104.783
108.763
112.992
117.975
123.218
129.523
136.091
144.207
152.582
163.313
174.359
189.196
204.587
226.091
248.156
278.829
308.015
346.219
377.264
415.901
445.246
477.697
500.826
461.953
440.263
318.082
251.786
234.092
250.76
263.486
274.092
266.132
255.37
236.468
220.949
203.755
190.592
177.199
166.935
157.073
149.687
142.943
137.984
133.489
130.016
126.659
123.716
120.65
117.64
114.416
111.106
107.656
104.165
100.715
97.3392
94.186
91.1849
88.5174
85.9855
83.811
81.6694
79.8656
77.9535
76.3683
74.5342
73.0432
71.1884
69.6986
67.7912
66.2833
64.2228
37.7134
38.144
39.0447
40.9003
44.3296
49.7326
56.8679
64.7587
72.2181
78.4219
83.0626
86.0875
87.4944
87.4499
86.393
85.0309
83.9789
83.5794
83.8023
84.5429
85.6368
87.0656
88.737
90.7177
92.9158
95.4606
98.225
101.417
104.842
108.825
113.056
118.042
123.288
129.598
136.171
144.293
152.677
163.419
174.477
189.328
204.732
226.245
248.315
278.982
308.16
346.346
377.392
416
445.315
477.547
500.403
461.079
438.483
316.118
250.101
232.793
249.804
262.809
273.633
265.841
255.209
236.398
220.935
203.772
190.624
177.242
166.988
157.132
149.749
143.003
138.038
133.535
130.054
126.689
123.739
120.668
117.655
114.429
111.12
107.672
104.183
100.737
97.3637
94.2127
91.2126
88.5448
86.011
83.8333
81.6872
79.8777
77.959
76.3657
74.5231
73.0208
71.1548
69.6495
67.7269
66.1988
64.1236
37.7088
38.1327
39.0226
40.8594
44.2615
49.6353
56.7529
64.6498
72.1409
78.3926
83.0815
86.1413
87.5663
87.5289
86.4762
85.1188
84.0697
83.6691
83.8871
84.6213
85.7089
87.1325
88.7998
90.7778
92.9741
95.5181
98.2825
101.476
104.902
108.887
113.119
118.109
123.358
129.672
136.25
144.379
152.772
163.523
174.594
189.459
204.876
226.398
248.472
279.132
308.302
346.471
377.519
416.097
445.381
477.395
499.98
460.209
436.718
314.175
248.437
231.508
248.854
262.133
273.174
265.549
255.045
236.326
220.92
203.786
190.655
177.283
167.039
157.19
149.81
143.062
138.092
133.581
130.092
126.719
123.762
120.686
117.669
114.443
111.133
107.687
104.202
100.758
97.3878
94.239
91.2399
88.5717
86.0361
83.8552
81.7047
79.8895
77.9644
76.363
74.512
72.9985
71.1213
69.6007
67.6629
66.1149
64.0253
37.7043
38.1216
39.0006
40.819
44.1938
49.5385
56.6384
64.5412
72.064
78.3635
83.1003
86.1949
87.6378
87.6074
86.559
85.2063
84.1601
83.7583
83.9713
84.6991
85.7806
87.199
88.8623
90.8375
93.0321
95.5753
98.3395
101.533
104.961
108.947
113.182
118.175
123.427
129.745
136.328
144.465
152.865
163.627
174.71
189.588
205.018
226.549
248.628
279.281
308.444
346.594
377.644
416.191
445.445
477.242
499.558
459.345
434.967
312.251
246.792
230.236
247.91
261.459
272.714
265.255
254.88
236.251
220.902
203.799
190.684
177.323
167.088
157.246
149.869
143.12
138.145
133.627
130.129
126.747
123.784
120.703
117.683
114.455
111.147
107.703
104.22
100.779
97.4115
94.2649
91.2667
88.5983
86.0609
83.8768
81.7219
79.9012
77.9696
76.3602
74.5008
72.9763
71.0879
69.5521
67.5995
66.0318
63.9279
37.6999
38.1106
38.979
40.779
44.1268
49.4423
56.5245
64.433
71.9874
78.3346
83.1192
86.2483
87.7088
87.6853
86.6412
85.2933
84.25
83.847
84.0551
84.7765
85.8517
87.265
88.9244
90.8968
93.0896
95.632
98.3961
101.591
105.019
109.008
113.245
118.24
123.496
129.818
136.406
144.549
152.957
163.73
174.825
189.716
205.159
226.699
248.782
279.429
308.583
346.716
377.767
416.284
445.506
477.088
499.136
458.485
433.23
310.348
245.166
228.976
246.971
260.786
272.253
264.959
254.712
236.174
220.883
203.809
190.711
177.361
167.136
157.301
149.928
143.177
138.197
133.671
130.165
126.776
123.806
120.719
117.697
114.468
111.16
107.717
104.237
100.799
97.4348
94.2903
91.2931
88.6244
86.0853
83.8981
81.7389
79.9125
77.9746
76.3573
74.4895
72.9541
71.0547
69.5038
67.5364
65.9493
63.8314
37.6956
38.0998
38.9576
40.7394
44.0603
49.3468
56.411
64.3252
71.9111
78.3059
83.138
86.3013
87.7794
87.7628
86.7231
85.3798
84.3395
83.9352
84.1384
84.8534
85.9225
87.3306
88.986
90.9556
93.1466
95.6882
98.4522
101.647
105.077
109.067
113.306
118.305
123.564
129.89
136.483
144.633
153.049
163.832
174.939
189.843
205.298
226.847
248.934
279.575
308.721
346.836
377.888
416.375
445.565
476.932
498.715
457.632
431.509
308.463
243.558
227.727
246.036
260.113
271.791
264.662
254.543
236.096
220.862
203.818
190.736
177.397
167.182
157.355
149.985
143.233
138.248
133.715
130.2
126.803
123.827
120.736
117.71
114.48
111.172
107.732
104.254
100.82
97.4576
94.3153
91.3191
88.6501
86.1093
83.9191
81.7555
79.9237
77.9795
76.3543
74.4783
72.9319
71.0216
69.4558
67.4738
65.8675
63.7357
37.6913
38.0891
38.9364
40.7002
43.9943
49.2518
56.298
64.2178
71.835
78.2773
83.1568
86.3541
87.8495
87.8398
86.8044
85.4659
84.4284
84.0228
84.2212
84.9299
85.9928
87.3958
89.0472
91.0141
93.2033
95.7441
98.5079
101.704
105.134
109.127
113.368
118.369
123.631
129.962
136.559
144.715
153.139
163.932
175.051
189.968
205.436
226.994
249.084
279.719
308.857
346.955
378.007
416.463
445.621
476.776
498.294
456.783
429.802
306.598
241.967
226.49
245.106
259.442
271.328
264.363
254.371
236.015
220.838
203.825
190.759
177.432
167.227
157.407
150.041
143.288
138.299
133.758
130.235
126.83
123.847
120.751
117.723
114.492
111.185
107.746
104.271
100.839
97.48
94.3398
91.3446
88.6754
86.1329
83.9397
81.7719
79.9346
77.9842
76.3512
74.4669
72.9097
70.9886
69.4081
67.4115
65.7863
63.6408
37.687
38.0786
38.9156
40.6614
43.9289
49.1574
56.1856
64.1107
71.7592
78.249
83.1756
86.4066
87.9192
87.9163
86.8854
85.5516
84.5169
84.11
84.3034
85.0058
86.0626
87.4605
89.1079
91.0721
93.2595
95.7995
98.5631
101.76
105.191
109.185
113.429
118.432
123.698
130.033
136.635
144.797
153.229
164.032
175.162
190.092
205.572
227.139
249.233
279.861
308.991
347.072
378.124
416.55
445.674
476.618
497.873
455.94
428.109
304.751
240.392
225.263
244.18
258.772
270.865
264.063
254.198
235.932
220.813
203.83
190.781
177.465
167.27
157.458
150.096
143.342
138.348
133.8
130.27
126.857
123.867
120.767
117.735
114.503
111.197
107.76
104.287
100.858
97.5019
94.3639
91.3697
88.7003
86.1561
83.96
81.788
79.9453
77.9887
76.348
74.4556
72.8876
70.9557
69.3606
67.3497
65.7058
63.5467
37.6828
38.0682
38.8949
40.6231
43.864
49.0636
56.0736
64.0041
71.6838
78.2208
83.1944
86.4589
87.9884
87.9924
86.9659
85.6368
84.6048
84.1966
84.3852
85.0813
86.1319
87.5248
89.1683
91.1297
93.3153
95.8544
98.6179
101.815
105.248
109.243
113.489
118.495
123.764
130.103
136.71
144.878
153.318
164.131
175.273
190.215
205.707
227.282
249.38
280.001
309.124
347.188
378.24
416.635
445.726
476.459
497.454
455.103
426.431
302.922
238.834
224.046
243.259
258.102
270.401
263.761
254.023
235.848
220.786
203.834
190.801
177.496
167.312
157.507
150.15
143.395
138.396
133.841
130.303
126.883
123.887
120.781
117.747
114.514
111.208
107.773
104.303
100.877
97.5235
94.3875
91.3944
88.7248
86.179
83.9799
81.8039
79.9558
77.9931
76.3446
74.4442
72.8656
70.923
69.3134
67.2883
65.626
63.4535
37.6787
38.0579
38.8746
40.5851
43.7997
48.9704
55.9622
63.8978
71.6086
78.1928
83.2132
86.5109
88.0572
88.0679
87.0459
85.7216
84.6923
84.2827
84.4664
85.1562
86.2008
87.5886
89.2282
91.1868
93.3706
95.9089
98.6722
101.87
105.304
109.301
113.548
118.558
123.829
130.172
136.784
144.959
153.406
164.229
175.382
190.337
205.841
227.424
249.525
280.14
309.255
347.301
378.354
416.718
445.775
476.299
497.035
454.271
424.768
301.112
237.29
222.838
242.341
257.434
269.937
263.458
253.847
235.762
220.758
203.835
190.82
177.526
167.352
157.556
150.202
143.447
138.444
133.882
130.336
126.908
123.906
120.796
117.759
114.525
111.219
107.786
104.318
100.896
97.5445
94.4107
91.4186
88.7489
86.2015
83.9995
81.8194
79.966
77.9972
76.3412
74.4327
72.8435
70.8904
69.2665
67.2273
65.5467
63.3611
37.6747
38.0478
38.8544
40.5475
43.736
48.8778
55.8514
63.792
71.5337
78.165
83.232
86.5626
88.1255
88.143
87.1255
85.8059
84.7793
84.3683
84.5471
85.2307
86.2692
87.652
89.2876
91.2435
93.4255
95.9629
98.726
101.924
105.359
109.358
113.607
118.619
123.894
130.241
136.857
145.038
153.493
164.325
175.489
190.457
205.973
227.564
249.669
280.278
309.384
347.414
378.465
416.798
445.822
476.139
496.617
453.446
423.12
299.319
235.762
221.638
241.426
256.766
269.472
263.154
253.669
235.675
220.727
203.835
190.836
177.555
167.391
157.602
150.254
143.498
138.491
133.922
130.368
126.933
123.925
120.81
117.77
114.535
111.23
107.798
104.334
100.914
97.5652
94.4335
91.4424
88.7725
86.2236
84.0188
81.8347
79.976
78.0012
76.3376
74.4212
72.8216
70.8579
69.2198
67.1667
65.4681
63.2695
37.6707
38.0378
38.8346
40.5104
43.6728
48.7859
55.7411
63.6866
71.4592
78.1374
83.2507
86.614
88.1934
88.2176
87.2046
85.8897
84.8657
84.4533
84.6272
85.3046
86.3371
87.7149
89.3466
91.2998
93.4799
96.0165
98.7793
101.978
105.414
109.415
113.666
118.681
123.958
130.309
136.929
145.117
153.579
164.421
175.596
190.576
206.103
227.703
249.811
280.413
309.512
347.524
378.576
416.877
445.866
475.978
496.2
452.626
421.487
297.544
234.249
220.448
240.515
256.099
269.007
262.849
253.49
235.586
220.696
203.834
190.852
177.581
167.428
157.648
150.304
143.548
138.537
133.961
130.4
126.957
123.943
120.823
117.781
114.545
111.241
107.811
104.348
100.931
97.5853
94.4558
91.4658
88.7958
86.2453
84.0377
81.8496
79.9858
78.0051
76.334
74.4096
72.7996
70.8255
69.1733
67.1065
65.3901
63.1787
37.6667
38.0279
38.815
40.4736
43.6102
48.6945
55.6314
63.5816
71.385
78.11
83.2694
86.6652
88.2609
88.2918
87.2833
85.973
84.9516
84.5378
84.7068
85.378
86.4046
87.7773
89.4051
91.3556
93.5339
96.0696
98.8322
102.032
105.468
109.471
113.724
118.741
124.021
130.376
137.001
145.195
153.664
164.516
175.702
190.694
206.232
227.84
249.951
280.547
309.637
347.633
378.684
416.954
445.908
475.815
495.785
451.812
419.869
295.786
232.749
219.265
239.608
255.433
268.542
262.543
253.31
235.495
220.662
203.831
190.866
177.607
167.464
157.692
150.353
143.597
138.582
133.999
130.43
126.98
123.96
120.836
117.791
114.554
111.251
107.822
104.363
100.948
97.6051
94.4776
91.4887
88.8186
86.2667
84.0563
81.8643
79.9954
78.0087
76.3302
74.398
72.7777
70.7933
69.1271
67.0467
65.3127
63.0886
37.6629
38.0182
38.7956
40.4373
43.5481
48.6038
55.5222
63.4771
71.3111
78.0827
83.2881
86.7161
88.3279
88.3655
87.3615
86.0559
85.037
84.6217
84.7859
85.4509
86.4715
87.8393
89.4632
91.4109
93.5874
96.1222
98.8846
102.084
105.522
109.526
113.781
118.801
124.084
130.442
137.072
145.271
153.748
164.609
175.806
190.81
206.36
227.975
250.089
280.679
309.762
347.74
378.79
417.029
445.949
475.653
495.37
451.005
418.266
294.046
231.263
218.09
238.703
254.769
268.077
262.236
253.129
235.403
220.627
203.827
190.878
177.631
167.499
157.736
150.401
143.645
138.626
134.037
130.461
127.003
123.977
120.849
117.801
114.563
111.26
107.834
104.376
100.965
97.6244
94.499
91.5112
88.841
86.2876
84.0746
81.8787
80.0047
78.0122
76.3263
74.3864
72.7558
70.7612
69.0812
66.9872
65.236
62.9993
37.659
38.0087
38.7765
40.4013
43.4866
48.5138
55.4136
63.373
71.2375
78.0557
83.3068
86.7667
88.3945
88.4387
87.4393
86.1383
85.1219
84.705
84.8644
85.5233
86.538
87.9008
89.5208
91.4658
93.6405
96.1744
98.9365
102.137
105.575
109.581
113.838
118.86
124.145
130.508
137.142
145.347
153.831
164.702
175.909
190.925
206.486
228.109
250.226
280.809
309.884
347.846
378.895
417.102
445.987
475.49
494.958
450.204
416.678
292.323
229.791
216.922
237.802
254.105
267.612
261.929
252.946
235.31
220.591
203.821
190.889
177.654
167.533
157.777
150.448
143.692
138.669
134.074
130.49
127.026
123.994
120.861
117.811
114.572
111.27
107.845
104.39
100.981
97.6433
94.52
91.5333
88.863
86.3082
84.0925
81.8928
80.0138
78.0155
76.3223
74.3747
72.7339
70.7291
69.0355
66.9282
65.1598
62.9108
37.6553
37.9992
38.7576
40.3658
43.4257
48.4243
55.3056
63.2694
71.1643
78.0289
83.3254
86.817
88.4607
88.5114
87.5166
86.2203
85.2063
84.7878
84.9424
85.5952
86.6039
87.9618
89.578
91.5203
93.6931
96.2261
98.9879
102.189
105.628
109.635
113.894
118.919
124.207
130.573
137.211
145.423
153.913
164.793
176.011
191.038
206.61
228.241
250.361
280.938
310.005
347.95
378.998
417.174
446.023
475.326
494.546
449.409
415.105
290.617
228.331
215.761
236.904
253.443
267.147
261.622
252.763
235.216
220.554
203.814
190.899
177.675
167.565
157.818
150.494
143.738
138.712
134.11
130.519
127.048
124.01
120.873
117.82
114.58
111.279
107.856
104.403
100.997
97.6617
94.5405
91.5549
88.8846
86.3285
84.1101
81.9067
80.0226
78.0187
76.3182
74.3629
72.7121
70.6973
68.9901
66.8695
65.0842
62.8231
37.6515
37.9899
38.7389
40.3306
43.3653
48.3355
55.1982
63.1663
71.0915
78.0022
83.344
86.8671
88.5264
88.5837
87.5935
86.3017
85.2901
84.87
85.0197
85.6665
86.6693
88.0223
89.6347
91.5742
93.7452
96.2773
99.0388
102.24
105.68
109.689
113.949
118.977
124.267
130.637
137.28
145.497
153.995
164.884
176.112
191.15
206.733
228.371
250.494
281.065
310.124
348.053
379.099
417.243
446.057
475.162
494.137
448.621
413.548
288.929
226.885
214.607
236.009
252.782
266.682
261.314
252.579
235.121
220.515
203.805
190.907
177.695
167.596
157.858
150.538
143.783
138.754
134.146
130.548
127.069
124.026
120.884
117.829
114.588
111.287
107.866
104.416
101.012
97.6797
94.5606
91.5761
88.9058
86.3483
84.1274
81.9202
80.0313
78.0217
76.314
74.3511
72.6904
70.6655
68.945
66.8112
65.0092
62.736
37.6479
37.9807
38.7205
40.2958
43.3055
48.2474
55.0913
63.0637
71.019
77.9758
83.3626
86.9169
88.5918
88.6556
87.6699
86.3827
85.3733
84.9517
85.0965
85.7372
86.7343
88.0824
89.6909
91.6277
93.7969
96.3281
99.0892
102.291
105.732
109.742
114.004
119.034
124.327
130.701
137.347
145.57
154.075
164.973
176.211
191.261
206.855
228.5
250.626
281.19
310.242
348.154
379.199
417.311
446.089
474.998
493.729
447.84
412.007
287.257
225.451
213.46
235.118
252.123
266.219
261.006
252.395
235.025
220.476
203.796
190.914
177.714
167.626
157.896
150.582
143.827
138.794
134.18
130.575
127.09
124.041
120.895
117.838
114.596
111.296
107.876
104.428
101.027
97.6973
94.5802
91.5969
88.9266
86.3678
84.1443
81.9335
80.0397
78.0245
76.3097
74.3393
72.6686
70.6338
68.9
66.7533
64.9348
62.6498
37.6443
37.9717
38.7023
40.2615
43.2462
48.1599
54.9851
62.9615
70.9468
77.9496
83.3811
86.9664
88.6566
88.7269
87.7459
86.4631
85.456
85.0327
85.1728
85.8075
86.7987
88.1419
89.7466
91.6807
93.8481
96.3783
99.1392
102.341
105.783
109.794
114.058
119.09
124.386
130.763
137.414
145.643
154.154
165.061
176.31
191.371
206.975
228.627
250.756
281.314
310.357
348.253
379.297
417.377
446.119
474.833
493.323
447.065
410.481
285.603
224.029
212.319
234.23
251.465
265.756
260.698
252.21
234.928
220.435
203.785
190.92
177.732
167.655
157.934
150.625
143.87
138.835
134.214
130.603
127.11
124.056
120.906
117.846
114.604
111.304
107.885
104.44
101.042
97.7144
94.5995
91.6172
88.9469
86.3869
84.1609
81.9465
80.0479
78.0271
76.3052
74.3274
72.6469
70.6023
68.8554
66.6958
64.8609
62.5642
37.6407
37.9627
38.6844
40.2275
43.1875
48.073
54.8795
62.8599
70.8751
77.9236
83.3997
87.0156
88.7211
88.7979
87.8214
86.5431
85.5382
85.1132
85.2484
85.8771
86.8626
88.201
89.8019
91.7333
93.8988
96.4281
99.1886
102.391
105.833
109.846
114.112
119.146
124.445
130.825
137.48
145.715
154.233
165.148
176.407
191.479
207.093
228.752
250.884
281.435
310.471
348.351
379.393
417.442
446.148
474.668
492.919
446.298
408.971
283.965
222.62
211.185
233.345
250.809
265.294
260.39
252.025
234.83
220.393
203.773
190.925
177.749
167.682
157.97
150.666
143.913
138.874
134.248
130.629
127.13
124.07
120.916
117.854
114.611
111.311
107.895
104.451
101.056
97.7312
94.6182
91.6372
88.9669
86.4057
84.1772
81.9593
80.0559
78.0296
76.3007
74.3155
72.6253
70.5709
68.8109
66.6386
64.7877
62.4794
37.6372
37.9539
38.6667
40.1939
43.1293
47.9868
54.7746
62.7587
70.8037
77.8977
83.4181
87.0645
88.7851
88.8683
87.8964
86.6225
85.6197
85.193
85.3235
85.9462
86.9259
88.2595
89.8566
91.7854
93.949
96.4774
99.2375
102.44
105.883
109.898
114.165
119.202
124.503
130.887
137.545
145.785
154.31
165.235
176.503
191.586
207.21
228.876
251.01
281.556
310.584
348.447
379.487
417.504
446.175
474.504
492.518
445.537
407.477
282.345
221.223
210.057
232.464
250.156
264.833
260.083
251.839
234.732
220.351
203.76
190.929
177.764
167.709
158.005
150.707
143.954
138.912
134.281
130.655
127.149
124.084
120.926
117.861
114.617
111.319
107.904
104.463
101.07
97.7475
94.6366
91.6567
88.9865
86.424
84.1932
81.9717
80.0636
78.0319
76.2961
74.3036
72.6037
70.5396
68.7668
66.5819
64.715
62.3953
37.6338
37.9452
38.6492
40.1606
43.0718
47.9013
54.6702
62.6581
70.7327
77.8721
83.4366
87.1131
88.8487
88.9383
87.971
86.7015
85.7007
85.2723
85.398
86.0148
86.9887
88.3176
89.9109
91.837
93.9988
96.5262
99.2859
102.489
105.933
109.949
114.217
119.256
124.56
130.947
137.61
145.855
154.387
165.32
176.598
191.691
207.325
228.998
251.135
281.674
310.695
348.542
379.58
417.566
446.2
474.339
492.118
444.784
406
280.742
219.838
208.936
231.586
249.504
264.374
259.776
251.654
234.633
220.307
203.746
190.932
177.779
167.734
158.04
150.747
143.995
138.95
134.313
130.68
127.168
124.097
120.936
117.868
114.624
111.326
107.912
104.473
101.083
97.7634
94.6545
91.6758
89.0057
86.4421
84.2088
81.9839
80.0712
78.0341
76.2914
74.2916
72.5822
70.5085
68.7229
66.5255
64.6429
62.3119
37.6304
37.9367
38.632
40.1278
43.0147
47.8164
54.5666
62.5581
70.6621
77.8467
83.4549
87.1615
88.9118
89.0078
88.045
86.7799
85.7812
85.3509
85.4718
86.0828
87.051
88.3751
89.9647
91.8881
94.048
96.5744
99.3338
102.537
105.982
109.999
114.269
119.31
124.616
131.007
137.674
145.925
154.462
165.404
176.691
191.795
207.439
229.119
251.258
281.791
310.804
348.635
379.672
417.625
446.223
474.174
491.721
444.038
404.539
279.157
218.465
207.821
230.712
248.855
263.916
259.47
251.468
234.534
220.263
203.732
190.934
177.792
167.759
158.073
150.786
144.035
138.987
134.344
130.705
127.187
124.11
120.945
117.875
114.63
111.332
107.92
104.484
101.096
97.7788
94.6721
91.6945
89.0245
86.4598
84.2242
81.9959
80.0785
78.0361
76.2866
74.2796
72.5607
70.4775
68.6792
66.4695
64.5713
62.2292
37.627
37.9282
38.6149
40.0954
42.9583
47.7322
54.4635
62.4585
70.5919
77.8215
83.4733
87.2095
88.9745
89.0768
88.1186
86.8578
85.861
85.429
85.5451
86.1502
87.1128
88.4322
90.018
91.9387
94.0968
96.6222
99.3812
102.585
106.03
110.048
114.32
119.364
124.672
131.066
137.736
145.993
154.537
165.487
176.784
191.898
207.552
229.238
251.379
281.906
310.912
348.727
379.761
417.683
446.245
474.01
491.327
443.3
403.094
277.588
217.104
206.712
229.843
248.209
263.461
259.165
251.283
234.435
220.219
203.716
190.935
177.805
167.782
158.105
150.824
144.074
139.024
134.375
130.73
127.205
124.123
120.953
117.882
114.635
111.338
107.928
104.494
101.109
97.7939
94.6892
91.7128
89.0429
86.4771
84.2392
82.0076
80.0857
78.038
76.2817
74.2676
72.5392
70.4466
68.6358
66.4138
64.5003
62.1472
37.6237
37.9199
38.5981
40.0633
42.9024
47.6487
54.3612
62.3595
70.5221
77.7965
83.4916
87.2573
89.0368
89.1454
88.1918
86.9351
85.9402
85.5064
85.6177
86.217
87.174
88.4887
90.0708
91.9888
94.1451
96.6695
99.4281
102.632
106.078
110.097
114.371
119.416
124.727
131.124
137.798
146.06
154.611
165.569
176.875
192
207.663
229.355
251.499
282.019
311.018
348.818
379.849
417.74
446.266
473.846
490.935
442.569
401.667
276.038
215.754
205.609
228.977
247.566
263.007
258.862
251.099
234.335
220.173
203.7
190.935
177.817
167.805
158.137
150.861
144.112
139.059
134.405
130.753
127.222
124.135
120.962
117.888
114.641
111.344
107.936
104.504
101.121
97.8086
94.7059
91.7306
89.061
86.4941
84.254
82.019
80.0926
78.0398
76.2768
74.2556
72.5178
70.4159
68.5927
66.3586
64.4299
62.0659
37.6205
37.9117
38.5816
40.0316
42.847
47.5659
54.2595
62.2611
70.4527
77.7718
83.5098
87.3047
89.0986
89.2135
88.2644
87.0119
86.0188
85.5831
85.6898
86.2832
87.2347
88.5446
90.1231
92.0384
94.1929
96.7163
99.4744
102.679
106.125
110.146
114.421
119.468
124.781
131.182
137.86
146.127
154.683
165.65
176.965
192.1
207.772
229.471
251.617
282.131
311.122
348.906
379.936
417.795
446.285
473.683
490.546
441.846
400.256
274.505
214.417
204.513
228.115
246.926
262.555
258.559
250.915
234.235
220.128
203.683
190.934
177.828
167.827
158.167
150.897
144.15
139.094
134.435
130.777
127.239
124.147
120.97
117.894
114.646
111.35
107.943
104.513
101.133
97.8229
94.7222
91.7481
89.0786
86.5107
84.2684
82.0302
80.0993
78.0413
76.2717
74.2435
72.4965
70.3853
68.5498
66.3037
64.3601
61.9854
37.6173
37.9037
38.5652
40.0003
42.7922
47.4837
54.1585
62.1633
70.3837
77.7472
83.528
87.3519
89.16
89.2811
88.3365
87.0882
86.0969
85.6593
85.7612
86.3489
87.2948
88.6001
90.1748
92.0875
94.2401
96.7626
99.5203
102.725
106.172
110.194
114.47
119.52
124.835
131.239
137.92
146.192
154.755
165.729
177.054
192.199
207.88
229.585
251.733
282.242
311.225
348.994
380.021
417.849
446.303
473.52
490.16
441.131
398.862
272.989
213.092
203.424
227.259
246.289
262.106
258.258
250.731
234.136
220.082
203.666
190.933
177.838
167.848
158.197
150.933
144.186
139.128
134.464
130.799
127.256
124.159
120.978
117.9
114.651
111.356
107.95
104.522
101.144
97.8367
94.7381
91.7652
89.0959
86.527
84.2825
82.0411
80.1059
78.0428
76.2666
74.2314
72.4753
70.3548
68.5072
66.2492
64.2908
61.9055
37.6141
37.8957
38.5491
39.9694
42.738
47.4023
54.0581
62.066
70.3152
77.7228
83.5461
87.3987
89.2209
89.3483
88.4082
87.1639
86.1743
85.7348
85.832
86.4139
87.3543
88.655
90.2261
92.1361
94.2869
96.8084
99.5656
102.77
106.218
110.241
114.519
119.57
124.888
131.295
137.98
146.257
154.826
165.808
177.142
192.296
207.987
229.697
251.848
282.35
311.327
349.08
380.105
417.901
446.319
473.357
489.777
440.424
397.485
271.491
211.779
202.341
226.407
245.656
261.66
257.958
250.549
234.036
220.035
203.648
190.931
177.847
167.868
158.226
150.967
144.222
139.162
134.492
130.822
127.272
124.17
120.985
117.905
114.656
111.361
107.956
104.531
101.156
97.8503
94.7536
91.782
89.1129
86.543
84.2964
82.0518
80.1122
78.0441
76.2614
74.2193
72.4541
70.3245
68.4649
66.1951
64.2221
61.8263
37.611
37.8878
38.5332
39.9388
42.6844
47.3215
53.9585
61.9694
70.2471
77.6987
83.5642
87.4452
89.2814
89.4149
88.4793
87.239
86.251
85.8096
85.9021
86.4784
87.4133
88.7094
90.2768
92.1842