/*--------------------------------*- C++ -*----------------------------------*\
| =========                 |                                                 |
| \\      /  F ield         | OpenFOAM: The Open Source CFD Toolbox           |
|  \\    /   O peration     | Version:  2412                                  |
|   \\  /    A nd           | Website:  www.openfoam.com                      |
|    \\/     M anipulation  |                                                 |
\*---------------------------------------------------------------------------*/
FoamFile
{
    version     2.0;
    format      ascii;
    arch        "LSB;label=32;scalar=64";
    class       volScalarField;
    location    "0.8";
    object      nut;
}
// * * * * * * * * * * * * * * * * * * * * * * * * * * * * * * * * * * * * * //

dimensions      [0 2 -1 0 0 0 0];

internalField   nonuniform List<scalar> 
13068
(
0.337228
0.341517
0.350407
0.366559
0.389551
0.413164
0.429303
0.434045
0.42837
0.415803
0.400174
0.384359
0.370166
0.359002
0.352235
0.35097
0.354985
0.362483
0.370846
0.378325
0.38423
0.388859
0.392516
0.395748
0.39863
0.401563
0.404354
0.407407
0.410328
0.413658
0.416782
0.420494
0.423873
0.428097
0.431796
0.436719
0.440856
0.446793
0.451635
0.459073
0.464854
0.473694
0.479423
0.487816
0.490913
0.49623
0.495258
0.499362
0.500343
0.50448
0.503011
0.470141
0.454792
0.364891
0.308842
0.30672
0.351114
0.385476
0.405528
0.402766
0.39889
0.38942
0.385689
0.379856
0.378108
0.374696
0.374526
0.37369
0.375191
0.375962
0.377746
0.378397
0.379026
0.378384
0.377316
0.375202
0.372653
0.369486
0.366225
0.363009
0.360179
0.357931
0.356279
0.355374
0.354874
0.354929
0.354915
0.355159
0.354872
0.354735
0.353788
0.353137
0.35153
0.350512
0.348451
0.347274
0.345082
0.343974
0.341192
0.337201
0.34144
0.350249
0.366293
0.389213
0.412869
0.429166
0.434125
0.428676
0.416306
0.400818
0.385074
0.370893
0.359696
0.352865
0.351504
0.355391
0.362747
0.370986
0.378382
0.384244
0.388858
0.392516
0.395754
0.398645
0.401585
0.404383
0.407442
0.410367
0.413702
0.416829
0.420545
0.423927
0.428154
0.431857
0.436786
0.440928
0.44687
0.451715
0.459152
0.464928
0.473755
0.479474
0.487855
0.490952
0.496272
0.495319
0.499406
0.500357
0.50437
0.502798
0.469666
0.453894
0.363862
0.308291
0.306902
0.351842
0.386243
0.406113
0.403186
0.399198
0.389646
0.385848
0.379965
0.378186
0.374761
0.374585
0.373739
0.375225
0.375978
0.377745
0.378383
0.379004
0.378358
0.377292
0.375183
0.372643
0.369487
0.366237
0.363032
0.360209
0.357966
0.356312
0.355401
0.354891
0.354933
0.354905
0.355134
0.354832
0.354681
0.353719
0.35305
0.351425
0.350381
0.348292
0.347073
0.344838
0.343674
0.340859
0.337174
0.341364
0.350091
0.366028
0.388875
0.412571
0.429027
0.434204
0.428981
0.416808
0.40146
0.385788
0.371617
0.360386
0.35349
0.352033
0.355792
0.363006
0.371124
0.378438
0.384258
0.388858
0.392515
0.39576
0.398659
0.401607
0.404412
0.407477
0.410407
0.413746
0.416877
0.420596
0.423981
0.428212
0.431919
0.436853
0.441
0.446946
0.451795
0.45923
0.465002
0.473817
0.479525
0.487894
0.49099
0.496313
0.495379
0.49945
0.500371
0.504261
0.502585
0.469193
0.452995
0.362826
0.307721
0.307052
0.352528
0.386976
0.406678
0.403597
0.399503
0.389873
0.386008
0.380074
0.378265
0.374827
0.374644
0.373789
0.37526
0.375995
0.377745
0.378369
0.378982
0.378333
0.377268
0.375164
0.372633
0.369488
0.366249
0.363054
0.360239
0.357999
0.356345
0.355428
0.354909
0.354938
0.354895
0.355109
0.354793
0.354627
0.353651
0.352965
0.351321
0.350251
0.348133
0.346873
0.344595
0.343377
0.340528
0.337147
0.341289
0.349935
0.365764
0.388536
0.412272
0.428885
0.434282
0.429286
0.417311
0.402102
0.3865
0.372337
0.361071
0.35411
0.352556
0.356188
0.363262
0.371259
0.378493
0.384271
0.388857
0.392515
0.395766
0.398673
0.40163
0.404441
0.407512
0.410447
0.41379
0.416924
0.420647
0.424035
0.42827
0.431981
0.436919
0.441072
0.447023
0.451875
0.459309
0.465075
0.473879
0.479576
0.487933
0.491029
0.496355
0.495438
0.499493
0.500383
0.504152
0.502372
0.468721
0.452097
0.361783
0.307133
0.307171
0.353176
0.387677
0.407225
0.404001
0.399806
0.390099
0.386169
0.380185
0.378346
0.374894
0.374704
0.37384
0.375295
0.376012
0.377744
0.378356
0.37896
0.378309
0.377245
0.375146
0.372623
0.369489
0.366262
0.363077
0.360269
0.358033
0.356378
0.355455
0.354926
0.354942
0.354885
0.355085
0.354754
0.354574
0.353583
0.35288
0.351218
0.350121
0.347975
0.346674
0.344354
0.343081
0.3402
0.337121
0.341214
0.34978
0.365501
0.388197
0.411971
0.428742
0.434357
0.42959
0.417811
0.402741
0.387208
0.373052
0.361751
0.354723
0.353074
0.356579
0.363515
0.371392
0.378547
0.384284
0.388856
0.392514
0.395772
0.398687
0.401652
0.40447
0.407547
0.410486
0.413833
0.416971
0.420697
0.424088
0.428327
0.432042
0.436985
0.441143
0.447098
0.451954
0.459386
0.465148
0.47394
0.479627
0.487971
0.491067
0.496396
0.495497
0.499535
0.500395
0.504042
0.50216
0.468251
0.451198
0.360734
0.306527
0.30726
0.353787
0.388348
0.407755
0.404396
0.400107
0.390327
0.386332
0.380297
0.378427
0.374962
0.374765
0.373891
0.375331
0.376029
0.377745
0.378343
0.378939
0.378284
0.377222
0.375128
0.372613
0.36949
0.366274
0.363099
0.360299
0.358066
0.356411
0.355482
0.354943
0.354947
0.354876
0.35506
0.354716
0.354521
0.353516
0.352795
0.351115
0.349992
0.347819
0.346477
0.344114
0.342788
0.339874
0.337095
0.34114
0.349626
0.365239
0.387858
0.411669
0.428596
0.434431
0.429891
0.41831
0.403378
0.387913
0.373763
0.362425
0.355332
0.353586
0.356965
0.363764
0.371524
0.378599
0.384297
0.388855
0.392513
0.395778
0.398701
0.401673
0.404499
0.407581
0.410525
0.413877
0.417018
0.420747
0.424141
0.428383
0.432103
0.437051
0.441214
0.447174
0.452033
0.459463
0.46522
0.474
0.479677
0.488009
0.491104
0.496436
0.495555
0.499575
0.500406
0.503932
0.501947
0.467782
0.450299
0.359678
0.305904
0.307319
0.354362
0.38899
0.40827
0.404786
0.400407
0.390554
0.386495
0.38041
0.378509
0.37503
0.374826
0.373943
0.375368
0.376048
0.377746
0.37833
0.378918
0.37826
0.377199
0.37511
0.372604
0.369491
0.366286
0.363121
0.360328
0.3581
0.356443
0.355509
0.35496
0.354952
0.354866
0.355037
0.354678
0.354468
0.353449
0.352712
0.351013
0.349864
0.347663
0.346281
0.343876
0.342497
0.339551
0.33707
0.341067
0.349473
0.364978
0.387519
0.411366
0.428448
0.434503
0.430191
0.418808
0.404013
0.388615
0.37447
0.363094
0.355934
0.354093
0.357347
0.364009
0.371653
0.378651
0.384309
0.388853
0.392512
0.395783
0.398714
0.401695
0.404527
0.407615
0.410564
0.413919
0.417064
0.420796
0.424194
0.428439
0.432163
0.437116
0.441284
0.447248
0.452111
0.459539
0.465291
0.47406
0.479726
0.488046
0.491141
0.496476
0.495612
0.499615
0.500415
0.503822
0.501735
0.467315
0.449401
0.358617
0.305264
0.30735
0.354903
0.389607
0.40877
0.40517
0.400706
0.390783
0.386661
0.380524
0.378591
0.375098
0.374888
0.373995
0.375405
0.376067
0.377747
0.378318
0.378897
0.378236
0.377176
0.375093
0.372595
0.369492
0.366299
0.363143
0.360358
0.358132
0.356475
0.355536
0.354978
0.354957
0.354857
0.355013
0.35464
0.354416
0.353383
0.352628
0.350912
0.349737
0.347507
0.346086
0.343639
0.342207
0.33923
0.337045
0.340994
0.349321
0.364718
0.387181
0.41106
0.428298
0.434572
0.43049
0.419303
0.404645
0.389312
0.375171
0.363758
0.35653
0.354593
0.357723
0.364251
0.37178
0.378702
0.38432
0.388851
0.39251
0.395788
0.398728
0.401716
0.404555
0.407649
0.410602
0.413962
0.41711
0.420845
0.424246
0.428495
0.432223
0.43718
0.441354
0.447322
0.452188
0.459614
0.465362
0.474119
0.479775
0.488083
0.491178
0.496514
0.495667
0.499654
0.500424
0.503712
0.501523
0.466849
0.448502
0.35755
0.304607
0.307351
0.355412
0.390199
0.409258
0.405549
0.401004
0.391013
0.386828
0.38064
0.378675
0.375168
0.37495
0.374048
0.375443
0.376086
0.377749
0.378306
0.378877
0.378212
0.377154
0.375076
0.372586
0.369494
0.366311
0.363165
0.360387
0.358165
0.356506
0.355562
0.354995
0.354962
0.354848
0.35499
0.354603
0.354364
0.353317
0.352545
0.350811
0.34961
0.347353
0.345892
0.343404
0.34192
0.338911
0.33702
0.340922
0.349171
0.364459
0.386842
0.410754
0.428146
0.434639
0.430786
0.419797
0.405274
0.390006
0.375868
0.364416
0.357121
0.355088
0.358095
0.364489
0.371905
0.378752
0.384331
0.388849
0.392509
0.395793
0.39874
0.401736
0.404582
0.407682
0.41064
0.414004
0.417155
0.420894
0.424297
0.42855
0.432282
0.437243
0.441422
0.447395
0.452264
0.459689
0.465432
0.474178
0.479824
0.48812
0.491214
0.496553
0.495722
0.499692
0.500432
0.503601
0.501312
0.466385
0.447605
0.356478
0.303934
0.307326
0.35589
0.390769
0.409735
0.405924
0.401302
0.391244
0.386996
0.380757
0.37876
0.375238
0.375013
0.374101
0.375482
0.376106
0.377752
0.378295
0.378857
0.378189
0.377132
0.375059
0.372578
0.369495
0.366323
0.363187
0.360416
0.358197
0.356538
0.355589
0.355012
0.354967
0.35484
0.354967
0.354566
0.354313
0.353252
0.352463
0.35071
0.349484
0.3472
0.345699
0.343171
0.341635
0.338595
0.336995
0.340851
0.349022
0.364202
0.386504
0.410446
0.427991
0.434705
0.431081
0.420288
0.405901
0.390695
0.376559
0.365068
0.357705
0.355578
0.358462
0.364725
0.372028
0.3788
0.384342
0.388847
0.392507
0.395798
0.398753
0.401757
0.404609
0.407714
0.410677
0.414045
0.4172
0.420942
0.424348
0.428605
0.43234
0.437306
0.44149
0.447467
0.452339
0.459762
0.465501
0.474235
0.479871
0.488156
0.491249
0.49659
0.495776
0.499729
0.500438
0.503491
0.5011
0.465922
0.446708
0.355402
0.303246
0.307273
0.356339
0.391318
0.410202
0.406296
0.401601
0.391477
0.387166
0.380875
0.378845
0.375308
0.375076
0.374155
0.375521
0.376127
0.377755
0.378284
0.378838
0.378166
0.37711
0.375042
0.372569
0.369497
0.366336
0.363209
0.360444
0.358229
0.356569
0.355615
0.355029
0.354972
0.354831
0.354944
0.354529
0.354262
0.353187
0.352381
0.35061
0.349359
0.347047
0.345507
0.342938
0.341352
0.338281
0.336971
0.340781
0.348874
0.363946
0.386165
0.410137
0.427834
0.434768
0.431373
0.420777
0.406524
0.391381
0.377246
0.365714
0.358284
0.356061
0.358824
0.364956
0.372149
0.378848
0.384352
0.388844
0.392505
0.395802
0.398765
0.401777
0.404636
0.407747
0.410714
0.414086
0.417244
0.420989
0.424399
0.428658
0.432398
0.437369
0.441558
0.447539
0.452414
0.459835
0.465569
0.474293
0.479918
0.488191
0.491284
0.496627
0.495829
0.499764
0.500444
0.50338
0.500889
0.465461
0.445813
0.354321
0.302542
0.307195
0.35676
0.391848
0.41066
0.406666
0.4019
0.391711
0.387337
0.380994
0.378932
0.375379
0.37514
0.37421
0.37556
0.376148
0.377758
0.378273
0.378818
0.378143
0.377088
0.375025
0.372561
0.369499
0.366348
0.36323
0.360473
0.358261
0.3566
0.355641
0.355046
0.354977
0.354823
0.354922
0.354493
0.354212
0.353122
0.3523
0.350511
0.349234
0.346896
0.345317
0.342708
0.341071
0.337969
0.336947
0.340712
0.348727
0.363691
0.385827
0.409826
0.427675
0.434828
0.431664
0.421264
0.407145
0.392063
0.377927
0.366355
0.358857
0.356539
0.359181
0.365185
0.372269
0.378895
0.384362
0.388842
0.392503
0.395806
0.398777
0.401797
0.404662
0.407779
0.410751
0.414127
0.417288
0.421036
0.424449
0.428712
0.432455
0.437431
0.441625
0.44761
0.452488
0.459907
0.465636
0.474349
0.479965
0.488226
0.491318
0.496664
0.495881
0.499799
0.500448
0.503269
0.500678
0.465003
0.444918
0.353237
0.301823
0.307091
0.357155
0.392361
0.411111
0.407033
0.402199
0.391947
0.38751
0.381115
0.379019
0.375451
0.375204
0.374264
0.3756
0.37617
0.377763
0.378263
0.378799
0.37812
0.377067
0.375009
0.372553
0.369501
0.36636
0.363252
0.360501
0.358293
0.356631
0.355667
0.355063
0.354982
0.354815
0.3549
0.354457
0.354162
0.353059
0.352219
0.350412
0.34911
0.346745
0.345128
0.342479
0.340792
0.33766
0.336924
0.340643
0.348581
0.363437
0.38549
0.409514
0.427515
0.434887
0.431953
0.421749
0.407762
0.39274
0.378603
0.366989
0.359423
0.357011
0.359533
0.36541
0.372386
0.378941
0.384371
0.388838
0.392501
0.39581
0.398789
0.401816
0.404688
0.40781
0.410787
0.414167
0.417331
0.421083
0.424498
0.428765
0.432512
0.437492
0.441691
0.44768
0.452561
0.459979
0.465703
0.474405
0.480011
0.48826
0.491352
0.496699
0.495932
0.499833
0.500452
0.503157
0.500468
0.464546
0.444026
0.352149
0.30109
0.306964
0.357526
0.392857
0.411554
0.407399
0.4025
0.392184
0.387685
0.381237
0.379107
0.375523
0.375268
0.37432
0.375641
0.376192
0.377767
0.378253
0.37878
0.378098
0.377046
0.374993
0.372545
0.369503
0.366372
0.363273
0.360529
0.358324
0.356661
0.355692
0.355079
0.354988
0.354807
0.354878
0.354421
0.354112
0.352995
0.352139
0.350314
0.348987
0.346595
0.344939
0.342251
0.340515
0.337353
0.3369
0.340575
0.348437
0.363185
0.385153
0.409202
0.427352
0.434944
0.432239
0.422231
0.408376
0.393412
0.379274
0.367618
0.359984
0.357478
0.359881
0.365631
0.372501
0.378986
0.38438
0.388835
0.392498
0.395814
0.398801
0.401835
0.404713
0.407841
0.410823
0.414206
0.417374
0.421129
0.424547
0.428817
0.432568
0.437552
0.441756
0.447749
0.452633
0.460049
0.465769
0.47446
0.480056
0.488294
0.491385
0.496734
0.495982
0.499865
0.500455
0.503046
0.500258
0.464091
0.443135
0.351058
0.300344
0.306813
0.357874
0.39334
0.411993
0.407765
0.402802
0.392423
0.387861
0.38136
0.379196
0.375596
0.375333
0.374375
0.375682
0.376215
0.377772
0.378244
0.378762
0.378075
0.377025
0.374977
0.372537
0.369505
0.366384
0.363294
0.360556
0.358355
0.356692
0.355718
0.355096
0.354993
0.354799
0.354857
0.354386
0.354063
0.352932
0.352059
0.350217
0.348865
0.346446
0.344752
0.342025
0.34024
0.337048
0.336877
0.340508
0.348293
0.362934
0.384816
0.408888
0.427187
0.434998
0.432523
0.422711
0.408986
0.394081
0.379939
0.368241
0.360538
0.357938
0.360224
0.36585
0.372615
0.37903
0.384389
0.388832
0.392495
0.395817
0.398812
0.401854
0.404738
0.407872
0.410858
0.414245
0.417417
0.421174
0.424595
0.428868
0.432623
0.437612
0.441821
0.447818
0.452705
0.460119
0.465834
0.474514
0.480101
0.488328
0.491418
0.496769
0.496031
0.499897
0.500457
0.502935
0.500048
0.463638
0.442246
0.349964
0.299584
0.30664
0.358202
0.39381
0.412427
0.40813
0.403106
0.392664
0.388039
0.381484
0.379285
0.375669
0.375399
0.374432
0.375724
0.376239
0.377777
0.378235
0.378744
0.378054
0.377004
0.374961
0.37253
0.369507
0.366397
0.363315
0.360584
0.358385
0.356722
0.355743
0.355113
0.354998
0.354791
0.354835
0.354352
0.354015
0.35287
0.35198
0.35012
0.348743
0.346297
0.344567
0.3418
0.339967
0.336745
0.336854
0.340441
0.348151
0.362684
0.38448
0.408573
0.427019
0.43505
0.432805
0.423188
0.409594
0.394745
0.380599
0.368858
0.361087
0.358393
0.360562
0.366065
0.372726
0.379073
0.384397
0.388828
0.392492
0.395821
0.398823
0.401872
0.404763
0.407902
0.410892
0.414284
0.417458
0.421219
0.424643
0.42892
0.432678
0.437671
0.441885
0.447886
0.452775
0.460188
0.465899
0.474568
0.480145
0.488361
0.49145
0.496803
0.496079
0.499928
0.500458
0.502823
0.499839
0.463187
0.441359
0.348868
0.298811
0.306445
0.358509
0.394269
0.412858
0.408496
0.403412
0.392907
0.388219
0.381609
0.379376
0.375743
0.375465
0.374488
0.375766
0.376262
0.377783
0.378226
0.378726
0.378032
0.376984
0.374946
0.372522
0.369509
0.366409
0.363335
0.360611
0.358416
0.356751
0.355768
0.35513
0.355004
0.354784
0.354814
0.354317
0.353966
0.352808
0.351901
0.350024
0.348622
0.34615
0.344382
0.341577
0.339696
0.336445
0.336832
0.340375
0.34801
0.362436
0.384144
0.408257
0.42685
0.4351
0.433085
0.423663
0.410197
0.395404
0.381254
0.369469
0.361629
0.358843
0.360895
0.366276
0.372836
0.379115
0.384404
0.388824
0.392489
0.395824
0.398833
0.40189
0.404788
0.407932
0.410927
0.414322
0.4175
0.421264
0.42469
0.42897
0.432733
0.43773
0.441948
0.447953
0.452845
0.460256
0.465962
0.474621
0.480189
0.488393
0.491482
0.496836
0.496126
0.499958
0.500458
0.502712
0.49963
0.462738
0.440474
0.347769
0.298026
0.306231
0.358799
0.394719
0.413286
0.408862
0.403719
0.393152
0.3884
0.381735
0.379467
0.375817
0.375531
0.374545
0.375808
0.376287
0.37779
0.378218
0.378708
0.378011
0.376963
0.374931
0.372515
0.369511
0.36642
0.363356
0.360637
0.358446
0.356781
0.355793
0.355146
0.355009
0.354777
0.354794
0.354283
0.353918
0.352746
0.351823
0.349928
0.348501
0.346003
0.344198
0.341355
0.339426
0.336147
0.33681
0.34031
0.347871
0.362189
0.383809
0.40794
0.426679
0.435148
0.433363
0.424134
0.410797
0.396058
0.381902
0.370074
0.362166
0.359286
0.361224
0.366485
0.372944
0.379156
0.384411
0.388819
0.392485
0.395826
0.398844
0.401908
0.404811
0.407962
0.410961
0.41436
0.417541
0.421307
0.424737
0.42902
0.432786
0.437788
0.442011
0.448019
0.452914
0.460323
0.466025
0.474673
0.480232
0.488425
0.491513
0.496868
0.496173
0.499987
0.500457
0.502601
0.499423
0.462292
0.439592
0.34667
0.297229
0.305996
0.359073
0.39516
0.413712
0.409229
0.404028
0.393398
0.388583
0.381863
0.379559
0.375892
0.375597
0.374602
0.375851
0.376311
0.377796
0.37821
0.378691
0.377989
0.376943
0.374915
0.372507
0.369513
0.366432
0.363376
0.360664
0.358475
0.35681
0.355817
0.355163
0.355015
0.35477
0.354773
0.35425
0.353871
0.352685
0.351745
0.349833
0.348382
0.345858
0.344016
0.341135
0.339159
0.335851
0.336788
0.340246
0.347732
0.361943
0.383475
0.407622
0.426506
0.435193
0.433638
0.424603
0.411394
0.396708
0.382546
0.370673
0.362696
0.359724
0.361548
0.36669
0.373049
0.379196
0.384418
0.388815
0.392481
0.395829
0.398854
0.401925
0.404835
0.407991
0.410994
0.414397
0.417581
0.421351
0.424783
0.429069
0.432839
0.437845
0.442073
0.448085
0.452983
0.46039
0.466087
0.474725
0.480274
0.488456
0.491544
0.4969
0.496218
0.500015
0.500456
0.502489
0.499215
0.461848
0.438713
0.345568
0.296422
0.305744
0.359332
0.395594
0.414137
0.409598
0.40434
0.393647
0.388767
0.381991
0.379651
0.375967
0.375664
0.374659
0.375894
0.376336
0.377803
0.378202
0.378674
0.377969
0.376924
0.374901
0.3725
0.369515
0.366444
0.363396
0.36069
0.358505
0.356839
0.355842
0.355179
0.355021
0.354763
0.354753
0.354216
0.353824
0.352624
0.351668
0.349738
0.348263
0.345713
0.343834
0.340916
0.338894
0.335557
0.336766
0.340182
0.347595
0.361699
0.383141
0.407303
0.426331
0.435236
0.433911
0.42507
0.411986
0.397352
0.383183
0.371266
0.36322
0.360157
0.361868
0.366892
0.373153
0.379236
0.384424
0.38881
0.392478
0.395831
0.398863
0.401942
0.404858
0.408019
0.411027
0.414434
0.417621
0.421393
0.424829
0.429118
0.432892
0.437902
0.442134
0.44815
0.45305
0.460455
0.466148
0.474776
0.480316
0.488487
0.491574
0.496932
0.496263
0.500042
0.500453
0.502378
0.499009
0.461407
0.437837
0.344466
0.295603
0.305474
0.359578
0.396023
0.414562
0.409968
0.404653
0.393897
0.388952
0.382121
0.379744
0.376042
0.375731
0.374717
0.375937
0.376362
0.377811
0.378195
0.378657
0.377948
0.376904
0.374886
0.372493
0.369517
0.366455
0.363416
0.360716
0.358534
0.356867
0.355866
0.355195
0.355026
0.354756
0.354734
0.354183
0.353777
0.352564
0.351592
0.349644
0.348144
0.345569
0.343654
0.340698
0.33863
0.335265
0.336745
0.340119
0.347459
0.361457
0.382808
0.406984
0.426154
0.435277
0.434181
0.425533
0.412575
0.397992
0.383815
0.371853
0.363738
0.360583
0.362183
0.367091
0.373256
0.379274
0.38443
0.388805
0.392473
0.395833
0.398873
0.401959
0.404881
0.408047
0.411059
0.41447
0.41766
0.421436
0.424873
0.429166
0.432943
0.437958
0.442195
0.448214
0.453117
0.46052
0.466209
0.474826
0.480357
0.488518
0.491604
0.496963
0.496307
0.500069
0.50045
0.502267
0.498803
0.460968
0.436964
0.343363
0.294775
0.305188
0.359812
0.396447
0.414987
0.410341
0.404969
0.394149
0.389139
0.382251
0.379838
0.376118
0.375798
0.374775
0.375981
0.376387
0.377819
0.378188
0.378641
0.377927
0.376885
0.374871
0.372486
0.369519
0.366467
0.363436
0.360742
0.358562
0.356895
0.35589
0.355212
0.355032
0.35475
0.354714
0.354151
0.353731
0.352504
0.351515
0.34955
0.348027
0.345425
0.343475
0.340482
0.338368
0.334976
0.336724
0.340057
0.347325
0.361216
0.382476
0.406663
0.425976
0.435316
0.434449
0.425993
0.413159
0.398627
0.384441
0.372433
0.36425
0.361004
0.362493
0.367287
0.373356
0.379312
0.384436
0.3888
0.392469
0.395835
0.398882
0.401975
0.404904
0.408075
0.411091
0.414506
0.417699
0.421477
0.424918
0.429214
0.432994
0.438013
0.442255
0.448278
0.453183
0.460584
0.466268
0.474876
0.480398
0.488548
0.491633
0.496993
0.49635
0.500094
0.500446
0.502156
0.498598
0.460531
0.436095
0.34226
0.293936
0.304887
0.360036
0.396868
0.415414
0.410716
0.405287
0.394403
0.389327
0.382382
0.379932
0.376193
0.375865
0.374833
0.376025
0.376413
0.377827
0.378181
0.378625
0.377907
0.376866
0.374857
0.372479
0.369521
0.366478
0.363455
0.360767
0.358591
0.356923
0.355914
0.355228
0.355038
0.354744
0.354695
0.354119
0.353686
0.352445
0.35144
0.349458
0.34791
0.345283
0.343297
0.340267
0.338109
0.334689
0.336703
0.339996
0.347191
0.360976
0.382144
0.406342
0.425795
0.435352
0.434714
0.42645
0.41374
0.399257
0.385061
0.373008
0.364756
0.36142
0.362799
0.367479
0.373455
0.379348
0.384441
0.388794
0.392464
0.395836
0.398891
0.401991
0.404926
0.408102
0.411123
0.414541
0.417737
0.421519
0.424962
0.429261
0.433045
0.438068
0.442314
0.44834
0.453248
0.460647
0.466327
0.474924
0.480438
0.488577
0.491661
0.497022
0.496392
0.500119
0.500442
0.502045
0.498394
0.460098
0.435229
0.341157
0.293089
0.304571
0.360252
0.397287
0.415842
0.411093
0.405608
0.394659
0.389517
0.382514
0.380026
0.376269
0.375932
0.374891
0.376069
0.37644
0.377835
0.378174
0.378609
0.377887
0.376847
0.374842
0.372473
0.369523
0.366489
0.363474
0.360792
0.358619
0.356951
0.355938
0.355244
0.355044
0.354737
0.354676
0.354087
0.35364
0.352386
0.351365
0.349365
0.347794
0.345141
0.34312
0.340054
0.337851
0.334403
0.336682
0.339935
0.347059
0.360738
0.381814
0.406021
0.425613
0.435387
0.434977
0.426904
0.414316
0.399881
0.385675
0.373576
0.365255
0.36183
0.3631
0.367669
0.373551
0.379384
0.384445
0.388788
0.39246
0.395837
0.398899
0.402006
0.404947
0.408129
0.411154
0.414576
0.417775
0.421559
0.425005
0.429307
0.433095
0.438122
0.442372
0.448402
0.453312
0.46071
0.466385
0.474973
0.480477
0.488606
0.491689
0.497052
0.496433
0.500143
0.500436
0.501935
0.49819
0.459667
0.434367
0.340055
0.292233
0.304242
0.36046
0.397706
0.416272
0.411474
0.405931
0.394917
0.389707
0.382646
0.380121
0.376345
0.375999
0.374949
0.376113
0.376466
0.377844
0.378168
0.378593
0.377867
0.376828
0.374828
0.372466
0.369525
0.3665
0.363493
0.360817
0.358646
0.356978
0.355961
0.35526
0.355049
0.354731
0.354657
0.354055
0.353595
0.352328
0.35129
0.349273
0.347678
0.345001
0.342944
0.339842
0.337595
0.33412
0.336662
0.339875
0.346928
0.360502
0.381484
0.405699
0.425429
0.435419
0.435238
0.427355
0.414889
0.4005
0.386283
0.374138
0.365749
0.362234
0.363397
0.367855
0.373646
0.379419
0.38445
0.388782
0.392455
0.395838
0.398907
0.402022
0.404969
0.408156
0.411185
0.41461
0.417812
0.421599
0.425048
0.429353
0.433144
0.438176
0.44243
0.448464
0.453375
0.460771
0.466443
0.47502
0.480516
0.488635
0.491717
0.49708
0.496474
0.500166
0.500431
0.501825
0.497988
0.459239
0.43351
0.338953
0.291369
0.3039
0.360662
0.398124
0.416706
0.411857
0.406256
0.395176
0.389899
0.38278
0.380216
0.376422
0.376067
0.375007
0.376157
0.376493
0.377852
0.378162
0.378577
0.377848
0.376809
0.374814
0.372459
0.369527
0.366511
0.363512
0.360841
0.358674
0.357005
0.355984
0.355276
0.355055
0.354725
0.354638
0.354024
0.353551
0.35227
0.351216
0.349182
0.347563
0.344861
0.34277
0.339632
0.33734
0.333839
0.336642
0.339815
0.346798
0.360267
0.381156
0.405376
0.425243
0.435448
0.435495
0.427802
0.415457
0.401114
0.386885
0.374694
0.366236
0.362633
0.363689
0.368038
0.37374
0.379453
0.384453
0.388776
0.39245
0.395839
0.398915
0.402037
0.404989
0.408182
0.411215
0.414644
0.417849
0.421639
0.42509
0.429398
0.433193
0.438228
0.442487
0.448524
0.453438
0.460832
0.466499
0.475067
0.480554
0.488663
0.491744
0.497108
0.496514
0.500189
0.500424
0.501715
0.497786
0.458814
0.432656
0.337853
0.290497
0.303547
0.360859
0.398543
0.417142
0.412243
0.406584
0.395436
0.390091
0.382913
0.380312
0.376498
0.376134
0.375065
0.376202
0.37652
0.377862
0.378156
0.378562
0.377828
0.376791
0.3748
0.372452
0.369529
0.366522
0.36353
0.360865
0.358701
0.357032
0.356007
0.355291
0.355061
0.35472
0.35462
0.353993
0.353507
0.352213
0.351142
0.349092
0.347449
0.344722
0.342596
0.339423
0.337088
0.33356
0.336622
0.339756
0.346669
0.360033
0.380828
0.405054
0.425056
0.435476
0.43575
0.428246
0.41602
0.401723
0.387482
0.375243
0.366717
0.363026
0.363977
0.368219
0.373831
0.379486
0.384457
0.38877
0.392444
0.39584
0.398923
0.402051
0.40501
0.408207
0.411245
0.414677
0.417885
0.421678
0.425131
0.429442
0.433241
0.43828
0.442544
0.448584
0.4535
0.460892
0.466555
0.475113
0.480592
0.48869
0.491771
0.497136
0.496553
0.50021
0.500417
0.501605
0.497586
0.458392
0.431807
0.336754
0.289619
0.303184
0.361053
0.398964
0.417582
0.412632
0.406914
0.395698
0.390284
0.383047
0.380407
0.376574
0.376202
0.375123
0.376247
0.376547
0.377871
0.378151
0.378547
0.377809
0.376772
0.374786
0.372446
0.369531
0.366532
0.363548
0.360889
0.358727
0.357058
0.35603
0.355307
0.355067
0.354714
0.354602
0.353963
0.353463
0.352156
0.351069
0.349002
0.347336
0.344583
0.342424
0.339215
0.336837
0.333283
0.336603
0.339698
0.346542
0.359801
0.380502
0.40473
0.424867
0.435501
0.436003
0.428687
0.416579
0.402326
0.388072
0.375786
0.367193
0.363414
0.36426
0.368396
0.373921
0.379519
0.38446
0.388763
0.392439
0.39584
0.39893
0.402065
0.40503
0.408233
0.411274
0.41471
0.417921
0.421716
0.425172
0.429486
0.433288
0.438332
0.442599
0.448643
0.453561
0.460951
0.46661
0.475159
0.480629
0.488717
0.491797
0.497163
0.496591
0.500231
0.500409
0.501496
0.497387
0.457974
0.430962
0.335657
0.288734
0.302811
0.361244
0.399388
0.418025
0.413025
0.407246
0.395961
0.390478
0.383182
0.380503
0.376651
0.376269
0.375182
0.376291
0.376574
0.37788
0.378145
0.378532
0.37779
0.376754
0.374772
0.372439
0.369533
0.366543
0.363566
0.360912
0.358754
0.357085
0.356052
0.355323
0.355073
0.354709
0.354585
0.353933
0.353419
0.352099
0.350997
0.348912
0.347223
0.344446
0.342252
0.339008
0.336588
0.333008
0.336584
0.339641
0.346416
0.359571
0.380177
0.404407
0.424677
0.435524
0.436252
0.429124
0.417134
0.402924
0.388656
0.376323
0.367662
0.363796
0.364539
0.36857
0.374009
0.37955
0.384463
0.388756
0.392433
0.39584
0.398937
0.402079
0.40505
0.408257
0.411303
0.414742
0.417956
0.421754
0.425213
0.42953
0.433335
0.438383
0.442654
0.448701
0.453621
0.46101
0.466664
0.475204
0.480665
0.488744
0.491823
0.497189
0.496629
0.500251
0.500401
0.501387
0.497188
0.457558
0.430123
0.334562
0.287842
0.30243
0.361435
0.399816
0.418473
0.413421
0.40758
0.396225
0.390673
0.383317
0.380599
0.376727
0.376336
0.37524
0.376336
0.376601
0.37789
0.37814
0.378518
0.377771
0.376736
0.374759
0.372432
0.369534
0.366553
0.363583
0.360935
0.35878
0.35711
0.356075
0.355338
0.355079
0.354703
0.354567
0.353903
0.353377
0.352043
0.350925
0.348823
0.347111
0.344309
0.342082
0.338803
0.336341
0.332736
0.336565
0.339584
0.346291
0.359343
0.379852
0.404083
0.424485
0.435545
0.436499
0.429558
0.417684
0.403516
0.389234
0.376854
0.368125
0.364173
0.364814
0.368742
0.374095
0.379581
0.384465
0.388749
0.392427
0.39584
0.398944
0.402093
0.405069
0.408282
0.411331
0.414774
0.417991
0.421792
0.425253
0.429573
0.433381
0.438433
0.442709
0.448758
0.453681
0.461067
0.466718
0.475248
0.480701
0.48877
0.491848
0.497215
0.496666
0.500271
0.500392
0.501279
0.496991
0.457146
0.429288
0.33347
0.286946
0.302041
0.361626
0.400248
0.418925
0.41382
0.407916
0.396491
0.390868
0.383452
0.380695
0.376803
0.376403
0.375297
0.37638
0.376628
0.3779
0.378135
0.378503
0.377753
0.376719
0.374745
0.372426
0.369536
0.366563
0.3636
0.360957
0.358805
0.357136
0.356097
0.355353
0.355085
0.354698
0.35455
0.353873
0.353334
0.351987
0.350853
0.348735
0.346999
0.344173
0.341913
0.3386
0.336096
0.332465
0.336546
0.339528
0.346167
0.359116
0.37953
0.403759
0.424291
0.435564
0.436743
0.429988
0.418229
0.404103
0.389806
0.377378
0.368582
0.364544
0.365084
0.36891
0.37418
0.379611
0.384467
0.388742
0.392421
0.39584
0.398951
0.402106
0.405088
0.408305
0.411359
0.414806
0.418025
0.421828
0.425292
0.429615
0.433427
0.438482
0.442762
0.448815
0.453739
0.461124
0.46677
0.475291
0.480737
0.488796
0.491873
0.497241
0.496702
0.50029
0.500382
0.501171
0.496796
0.456737
0.428459
0.33238
0.286044
0.301646
0.361818
0.400685
0.419382
0.414222
0.408254
0.396757
0.391063
0.383587
0.380791
0.376879
0.376469
0.375355
0.376425
0.376656
0.37791
0.37813
0.378489
0.377734
0.376701
0.374732
0.372419
0.369537
0.366572
0.363617
0.36098
0.35883
0.357161
0.356118
0.355368
0.355091
0.354693
0.354533
0.353844
0.353292
0.351932
0.350782
0.348647
0.346889
0.344039
0.341745
0.338398
0.335853
0.332196
0.336528
0.339473
0.346045
0.358891
0.379208
0.403435
0.424097
0.435581
0.436985
0.430414
0.41877
0.404684
0.390372
0.377896
0.369033
0.36491
0.36535
0.369076
0.374263
0.37964
0.384468
0.388734
0.392414
0.395839
0.398957
0.402119
0.405107
0.408329
0.411386
0.414837
0.418058
0.421865
0.425331
0.429657
0.433472
0.438531
0.442815
0.448871
0.453797
0.46118
0.466822
0.475334
0.480772
0.488821
0.491898
0.497266
0.496737
0.500308
0.500373
0.501064
0.496601
0.456332
0.427635
0.331294
0.285138
0.301245
0.362013
0.401127
0.419844
0.414627
0.408593
0.397024
0.391259
0.383722
0.380886
0.376955
0.376536
0.375412
0.376469
0.376683
0.37792
0.378126
0.378475
0.377716
0.376683
0.374718
0.372412
0.369539
0.366582
0.363634
0.361002
0.358855
0.357186
0.35614
0.355384
0.355097
0.354688
0.354516
0.353815
0.35325
0.351878
0.350712
0.34856
0.346779
0.343904
0.341578
0.338197
0.335611
0.331929
0.33651
0.339418
0.345923
0.358667
0.378888
0.403111
0.4239
0.435595
0.437223
0.430837
0.419306
0.405259
0.390931
0.378408
0.369478
0.365271
0.365612
0.369238
0.374345
0.379668
0.38447
0.388727
0.392408
0.395838
0.398963
0.402131
0.405125
0.408352
0.411413
0.414867
0.418091
0.4219
0.425369
0.429698
0.433516
0.438579
0.442867
0.448926
0.453854
0.461236
0.466873
0.475376
0.480806
0.488846
0.491922
0.497291
0.496772
0.500326
0.500362
0.500957
0.496408
0.45593
0.426817
0.330212
0.284228
0.300839
0.36221
0.401575
0.420311
0.415036
0.408935
0.397292
0.391455
0.383857
0.380982
0.37703
0.376602
0.375469
0.376513
0.37671
0.37793
0.378121
0.378461
0.377698
0.376666
0.374705
0.372406
0.36954
0.366591
0.36365
0.361023
0.358879
0.35721
0.356161
0.355398
0.355103
0.354684
0.354499
0.353787
0.353209
0.351823
0.350642
0.348473
0.34667
0.343771
0.341412
0.337997
0.335371
0.331665
0.336492
0.339364
0.345803
0.358446