/*--------------------------------*- C++ -*----------------------------------*\
| =========                 |                                                 |
| \\      /  F ield         | OpenFOAM: The Open Source CFD Toolbox           |
|  \\    /   O peration     | Version:  2412                                  |
|   \\  /    A nd           | Website:  www.openfoam.com                      |
|    \\/     M anipulation  |                                                 |
\*---------------------------------------------------------------------------*/
FoamFile
{
    version     2.0;
    format      ascii;
    arch        "LSB;label=32;scalar=64";
    class       volScalarField;
    location    "0.8";
    object      p;
}
// * * * * * * * * * * * * * * * * * * * * * * * * * * * * * * * * * * * * * //

dimensions      [0 2 -2 0 0 0 0];

internalField   nonuniform List<scalar> 
13068
(
105062
105031
104983
104904
104822
104702
104588
104431
104290
104108
103952
103744
103561
103306
103083
102767
102509
102132
101849
101394
101086
100528
100199
99503.4
99163.5
98282.6
97949.5
96815.4
96519.3
95033.2
94824.3
92842
92802.5
90111.1
90373.5
86656.3
87433.3
82213
83845
76396.2
79428.8
68636.3
73949.7
58086.1
67112.3
43471.2
58531.2
22751
47518.9
-7671.75
32526.5
-53019.4
13199.6
-111126
-2187.28
-71586.9
5445.6
-34945.4
16283
-8439.64
24681.9
9837.94
31632.7
23371.7
38031.2
33881.3
43904
42214.4
49201.8
48934
53905
54399.6
57998.5
58852.6
61501.6
62489
64471.1
65475.9
66979.3
67952.1
69099.9
70033
70903
71815.5
72449.4
73378.6
73785.3
74784.2
74938.3
76079.7
75918.7
77305.9
76722.6
78504.8
77335.1
79725.1
77731.1
81019.3
77880
105056
105026
104978
104899
104818
104698
104584
104428
104288
104107
103951
103743
103560
103304
103082
102765
102508
102130
101847
101392
101084
100526
100197
99500.8
99161
98279.6
97946.8
96811.9
96516.3
95029.1
94821
92837.1
92798.8
90105.3
90369.5
86649.4
87429
82204.8
83840.5
76386.4
79424.3
68625.1
73945.5
58073.4
67108.7
43456.9
58527.3
22734.8
47513.2
-7684
32524
-52989.6
13221.2
-110944
-2134.67
-71553.7
5462.65
-34951.3
16281.8
-8452
24680.9
9830.19
31634.2
23366.6
38032.5
33877
43904.5
42210.5
49201.3
48930
53903.4
54395.5
57996.1
58848.5
61498.8
62485.2
64468.4
65472.7
66976.7
67949.5
69097.7
70031.1
70901.2
71814.3
72448
73378.1
73783.9
74784.1
74936.8
76080.1
75916.8
77306.7
76720.4
78506.2
77332.6
79726.9
77728.7
81021.1
77878.6
105050
105020
104972
104894
104813
104694
104581
104425
104286
104105
103950
103741
103559
103303
103080
102764
102506
102128
101845
101390
101083
100524
100195
99498.2
99158.6
98276.6
97944.1
96808.4
96513.3
95025
94817.7
92832.3
92795.1
90099.5
90365.5
86642.5
87424.7
82196.6
83836
76376.8
79419.8
68613.8
73941.4
58060.8
67105.1
43442.8
58523.5
22718.7
47507.5
-7696
32521.7
-52959.6
13243.1
-110764
-2082.5
-71521
5479.36
-34957.2
16280.8
-8464.17
24680
9822.49
31635.6
23361.5
38033.8
33872.8
43905
42206.5
49200.8
48926
53901.8
54391.3
57993.7
58844.4
61496.1
62481.5
64465.6
65469.5
66974.2
67946.9
69095.6
70029.3
70899.5
71813.2
72446.5
73377.5
73782.5
74784
74935.2
76080.5
75915
77307.6
76718.2
78507.5
77330.1
79728.6
77726.3
81022.8
77877
105044
105014
104967
104889
104808
104690
104578
104423
104284
104103
103948
103740
103558
103302
103079
102763
102505
102127
101844
101389
101081
100522
100193
99495.7
99156.3
98273.6
97941.4
96805
96510.3
95020.9
94814.4
92827.5
92791.5
90093.8
90361.6
86635.7
87420.5
82188.5
83831.5
76367.2
79415.3
68602.7
73937.2
58048.2
67101.5
43428.6
58519.6
22702.8
47501.9
-7707.77
32519.6
-52929.7
13265
-110586
-2030.77
-71488.6
5495.77
-34963
16279.8
-8476.15
24679.2
9814.84
31637
23356.4
38035
33868.5
43905.4
42202.6
49200.2
48922
53900.2
54387.2
57991.4
58840.4
61493.5
62477.8
64462.9
65466.3
66971.8
67944.4
69093.5
70027.5
70897.8
71812.1
72445.1
73377
73781.2
74784
74933.7
76080.8
75913.1
77308.4
76715.9
78508.8
77327.6
79730.2
77723.9
81024.5
77875.5
105038
105008
104962
104884
104804
104686
104574
104420
104282
104102
103947
103739
103557
103301
103078
102761
102503
102125
101842
101387
101079
100519
100191
99493.2
99153.9
98270.7
97938.8
96801.5
96507.4
95016.9
94811.2
92822.7
92788
90088.2
90357.7
86629
87416.3
82180.5
83827.1
76357.7
79410.9
68591.7
73933.1
58035.7
67097.8
43414.6
58515.8
22687
47496.4
-7719.4
32517.6
-52899.9
13286.8
-110409
-1979.52
-71456.4
5511.99
-34968.8
16278.9
-8488.04
24678.4
9807.24
31638.4
23351.3
38036.2
33864.2
43905.8
42198.7
49199.7
48918.1
53898.7
54383.2
57989.1
58836.4
61490.8
62474.1
64460.3
65463.2
66969.3
67941.9
69091.4
70025.7
70896.1
71810.9
72443.7
73376.4
73779.8
74783.9
74932.2
76081.2
75911.3
77309.2
76713.7
78510.1
77325.1
79731.8
77721.6
81026.2
77874
105032
105003
104956
104880
104800
104682
104571
104417
104280
104100
103945
103738
103556
103300
103077
102760
102502
102124
101841
101385
101077
100517
100189
99490.7
99151.6
98267.8
97936.2
96798.1
96504.5
95012.9
94808
92818
92784.4
90082.6
90353.8
86622.3
87412.1
82172.5
83822.7
76348.2
79406.4
68580.7
73929
58023.3
67094.3
43400.7
58512
22671.3
47491
-7730.88
32515.7
-52870.2
13308.6
-110234
-1928.78
-71424.5
5528.03
-34974.7
16277.9
-8499.84
24677.6
9799.71
31639.7
23346.3
38037.4
33860
43906.2
42194.8
49199.1
48914.2
53897.2
54379.2
57986.8
58832.5
61488.2
62470.5
64457.6
65460.1
66966.9
67939.4
69089.4
70023.9
70894.4
71809.8
72442.2
73375.9
73778.4
74783.8
74930.7
76081.6
75909.5
77310
76711.5
78511.3
77322.7
79733.5
77719.2
81027.8
77872.5
105026
104997
104951
104875
104795
104679
104568
104415
104277
104098
103944
103737
103555
103299
103076
102759
102501
102122
101839
101383
101075
100515
100187
99488.2
99149.3
98264.9
97933.6
96794.8
96501.6
95009
94804.8
92813.3
92780.9
90077
90350
86615.7
87408
82164.6
83818.4
76338.9
79402.1
68569.8
73924.9
58011
67090.7
43386.9
58508.3
22655.8
47485.6
-7742.23
32513.8
-52840.7
13330.2
-110060
-1878.52
-71392.8
5543.88
-34980.5
16276.9
-8511.55
24676.8
9792.24
31641.1
23341.3
38038.6
33855.8
43906.6
42190.9
49198.6
48910.3
53895.6
54375.2
57984.6
58828.6
61485.6
62466.9
64455
65457
66964.5
67937
69087.3
70022.1
70892.7
71808.7
72440.8
73375.3
73777.1
74783.8
74929.2
76081.9
75907.7
77310.8
76709.4
78512.6
77320.2
79735.1
77716.9
81029.4
77871.1
105020
104992
104946
104870
104791
104675
104564
104412
104275
104097
103943
103736
103554
103298
103074
102757
102499
102120
101837
101381
101073
100513
100185
99485.7
99147
98262.1
97931.1
96791.4
96498.8
95005
94801.6
92808.7
92777.4
90071.5
90346.2
86609.1
87403.9
82156.8
83814.1
76329.6
79397.7
68559
73920.8
57998.8
67087.2
43373.2
58504.5
22640.4
47480.3
-7753.44
32512
-52811.3
13351.7
-109889
-1828.76
-71361.4
5559.57
-34986.3
16276
-8523.16
24676
9784.83
31642.4
23336.3
38039.8
33851.6
43906.9
42187.1
49198
48906.5
53894.1
54371.2
57982.3
58824.7
61483
62463.4
64452.4
65453.9
66962.1
67934.5
69085.3
70020.4
70891.1
71807.6
72439.4
73374.8
73775.7
74783.7
74927.7
76082.3
75905.9
77311.6
76707.2
78513.8
77317.8
79736.6
77714.6
81031
77869.6
105014
104987
104940
104866
104786
104671
104561
104409
104273
104095
103942
103735
103553
103297
103073
102756
102498
102119
101836
101379
101072
100511
100183
99483.3
99144.8
98259.2
97928.5
96788.1
96495.9
95001.1
94798.4
92804
92773.9
90066
90342.4
86602.6
87399.8
82149
83809.8
76320.4
79393.4
68548.3
73916.8
57986.7
67083.7
43359.6
58500.8
22625.1
47475
-7764.52
32510.3
-52782
13373.2
-109718
-1779.48
-71330.1
5575.07
-34992.1
16275
-8534.68
24675.2
9777.49
31643.8
23331.4
38041
33847.4
43907.3
42183.3
49197.5
48902.7
53892.6
54367.3
57980.1
58820.9
61480.4
62459.8
64449.9
65450.9
66959.8
67932.1
69083.3
70018.7
70889.4
71806.5
72438
73374.3
73774.4
74783.7
74926.2
76082.6
75904.1
77312.4
76705.1
78515.1
77315.4
79738.2
77712.4
81032.5
77868.2
105008
104981
104935
104861
104782
104668
104558
104407
104271
104093
103940
103734
103552
103296
103072
102755
102497
102117
101834
101378
101070
100509
100181
99480.9
99142.5
98256.4
97926
96784.8
96493.1
94997.3
94795.3
92799.5
92770.5
90060.6
90338.7
86596.1
87395.8
82141.3
83805.5
76311.3
79389.1
68537.7
73912.8
57974.7
67080.2
43346.1
58497.1
22609.9
47469.8
-7775.46
32508.7
-52752.9
13394.5
-109550
-1730.69
-71299.2
5590.41
-34997.9
16274
-8546.11
24674.5
9770.2
31645.1
23326.6
38042.1
33843.3
43907.7
42179.5
49197
48898.9
53891.1
54363.4
57977.9
58817.1
61477.9
62456.3
64447.3
65447.9
66957.4
67929.7
69081.3
70016.9
70887.8
71805.4
72436.6
73373.8
73773.1
74783.6
74924.7
76083
75902.3
77313.2
76703
78516.3
77313.1
79739.7
77710.1
81034.1
77866.8
105003
104976
104930
104856
104778
104664
104554
104404
104269
104092
103939
103733
103551
103294
103071
102754
102495
102116
101833
101376
101068
100507
100179
99478.5
99140.3
98253.6
97923.5
96781.6
96490.3
94993.4
94792.2
92794.9
92767.1
90055.2
90334.9
86589.7
87391.8
82133.6
83801.3
76302.2
79384.9
68527.2
73908.9
57962.8
67076.7
43332.7
58493.5
22594.9
47464.6
-7786.27
32507.1
-52723.9
13415.7
-109383
-1682.38
-71268.4
5605.59
-35003.7
16273.1
-8557.43
24673.7
9762.98
31646.4
23321.7
38043.3
33839.3
43908.1
42175.8
49196.4
48895.2
53889.6
54359.6
57975.7
58813.3
61475.4
62452.9
64444.8
65444.9
66955.1
67927.3
69079.3
70015.2
70886.2
71804.4
72435.3
73373.2
73771.8
74783.5
74923.3
76083.3
75900.6
77313.9
76700.9
78517.5
77310.8
79741.3
77707.9
81035.6
77865.5
104997
104971
104925
104852
104774
104660
104551
104401
104267
104090
103938
103732
103550
103293
103070
102752
102494
102115
101831
101374
101066
100505
100177
99476.1
99138.1
98250.9
97921
96778.3
96487.6
94989.6
94789.1
92790.4
92763.7
90049.8
90331.2
86583.3
87387.8
82126
83797.1
76293.2
79380.7
68516.7
73905
57951
67073.3
43319.5
58489.8
22580
47459.5
-7796.94
32505.7
-52695.1
13436.8
-109217
-1634.55
-71237.9
5620.6
-35009.4
16272.1
-8568.65
24673
9755.83
31647.7
23316.9
38044.4
33835.2
43908.5
42172.1
49195.9
48891.4
53888.2
54355.7
57973.5
58809.5
61472.9
62449.4
64442.2
65441.9
66952.8
67925
69077.3
70013.5
70884.5
71803.3
72433.9
73372.7
73770.5
74783.5
74921.8
76083.7
75898.9
77314.7
76698.8
78518.7
77308.5
79742.8
77705.8
81037.1
77864.1
104991
104965
104920
104847
104770
104657
104548
104399
104265
104089
103936
103731
103549
103292
103069
102751
102493
102113
101830
101372
101065
100503
100175
99473.8
99135.9
98248.1
97918.6
96775.1
96484.8
94985.8
94786.1
92786
92760.3
90044.5
90327.6
86577
87383.9
82118.5
83793
76284.3
79376.5
68506.4
73901.1
57939.3
67069.9
43306.3
58486.2
22565.3
47454.5
-7807.49
32504.2
-52666.4
13457.8
-109054
-1587.2
-71207.6
5635.46
-35015.1
16271.1
-8579.77
24672.3
9748.73
31649.1
23312.2
38045.6
33831.2
43908.8
42168.4
49195.4
48887.8
53886.7
54351.9
57971.4
58805.8
61470.4
62446
64439.7
65439
66950.5
67922.6
69075.4
70011.8
70882.9
71802.2
72432.5
73372.2
73769.2
74783.4
74920.4
76084
75897.1
77315.5
76696.8
78519.8
77306.2
79744.2
77703.6
81038.6
77862.8
104986
104960
104915
104843
104765
104653
104545
104396
104263
104087
103935
103730
103548
103291
103068
102750
102492
102112
101828
101371
101063
100501
100173
99471.4
99133.7
98245.4
97916.1
96771.9
96482.1
94982.1
94783.1
92781.5
92757
90039.3
90323.9
86570.7
87379.9
82111
83788.9
76275.4
79372.4
68496.1
73897.2
57927.7
67066.5
43293.2
58482.6
22550.7
47449.5
-7817.9
32502.9
-52637.9
13478.7
-108892
-1540.32
-71177.6
5650.17
-35020.8
16270.2
-8590.78
24671.6
9741.71
31650.4
23307.5
38046.7
33827.3
43909.2
42164.7
49194.9
48884.1
53885.3
54348.2
57969.2
58802.1
61467.9
62442.6
64437.3
65436
66948.2
67920.3
69073.4
70010.1
70881.3
71801.2
72431.2
73371.7
73767.9
74783.4
74919
76084.4
75895.4
77316.2
76694.7
78521
77303.9
79745.7
77701.5
81040
77861.5
104980
104955
104910
104839
104761
104650
104542
104394
104260
104086
103934
103728
103547
103290
103067
102749
102490
102110
101827
101369
101061
100499
100171
99469.1
99131.5
98242.7
97913.7
96768.8
96479.4
94978.4
94780.1
92777.1
92753.7
90034.1
90320.3
86564.5
87376.1
82103.6
83784.8
76266.7
79368.3
68485.9
73893.4
57916.1
67063.1
43280.3
58479.1
22536.2
47444.6
-7828.18
32501.6
-52609.6
13499.5
-108731
-1493.91
-71147.8
5664.72
-35026.4
16269.3
-8601.69
24670.9
9734.75
31651.6
23302.8
38047.8
33823.3
43909.6
42161.1
49194.4
48880.5
53883.8
54344.4
57967.1
58798.4
61465.5
62439.2
64434.8
65433.1
66945.9
67918
69071.5
70008.5
70879.8
71800.2
72429.8
73371.2
73766.6
74783.3
74917.6
76084.7
75893.7
77317
76692.7
78522.2
77301.7
79747.1
77699.4
81041.5
77860.2
104975
104950
104906
104834
104757
104646
104539
104391
104258
104084
103933
103727
103546
103289
103065
102747
102489
102109
101825
101367
101060
100497
100169
99466.8
99129.4
98240
97911.3
96765.6
96476.7
94974.7
94777.1
92772.8
92750.4
90028.9
90316.8
86558.3
87372.2
82096.3
83780.7
76258
79364.2
68475.8
73889.6
57904.7
67059.8
43267.4
58475.6
22521.8
47439.7
-7838.34
32500.4
-52581.4
13520.1
-108572
-1447.97
-71118.2
5679.13
-35032
16268.4
-8612.5
24670.3
9727.85
31652.9
23298.2
38048.9
33819.4
43909.9
42157.5
49193.9
48876.9
53882.4
54340.7
57965
58794.8
61463
62435.9
64432.4
65430.3
66943.7
67915.7
69069.6
70006.8
70878.2
71799.1
72428.5
73370.7
73765.3
74783.2
74916.2
76085.1
75892.1
77317.7
76690.7
78523.3
77299.4
79748.6
77697.3
81042.9
77858.9
104970
104945
104901
104830
104753
104643
104536
104389
104256
104083
103931
103726
103545
103288
103064
102746
102488
102107
101824
101366
101058
100495
100167
99464.5
99127.3
98237.4
97908.9
96762.5
96474.1
94971
94774.2
92768.5
92747.2
90023.8
90313.2
86552.2
87368.4
82089
83776.7
76249.4
79360.1
68465.8
73885.8
57893.4
67056.5
43254.7
58472.1
22507.6
47434.9
-7848.37
32499.2
-52553.3
13540.6
-108415
-1402.5
-71088.9
5693.4
-35037.5
16267.5
-8623.19
24669.6
9721.02
31654.2
23293.6
38050.1
33815.6
43910.3
42154
49193.4
48873.3
53881
54337.1
57962.9
58791.2
61460.6
62432.6
64429.9
65427.4
66941.5
67913.4
69067.7
70005.2
70876.6
71798.1
72427.2
73370.2
73764.1
74783.2
74914.8
76085.4
75890.4
77318.5
76688.7
78524.4
77297.3
79750
77695.3
81044.3
77857.7
104964
104940
104896
104826
104749
104639
104533
104387
104254
104081
103930
103725
103544
103287
103063
102745
102487
102106
101823
101364
101056
100493
100165
99462.3
99125.2
98234.8
97906.6
96759.5
96471.4
94967.4
94771.2
92764.2
92743.9
90018.7
90309.7
86546.2
87364.6
82081.8
83772.7
76240.8
79356.1
68455.9
73882.1
57882.1
67053.2
43242.1
58468.6
22493.4
47430.2
-7858.27
32498.1
-52525.4
13561.1
-108259
-1357.5
-71059.8
5707.53
-35043
16266.7
-8633.78
24669
9714.25
31655.5
23289.1
38051.2
33811.7
43910.7
42150.5
49192.9
48869.8
53879.6
54333.4
57960.8
58787.6
61458.2
62429.3
64427.5
65424.6
66939.3
67911.2
69065.8
70003.6
70875.1
71797.1
72425.9
73369.7
73762.8
74783.1
74913.4
76085.7
75888.8
77319.2
76686.8
78525.6
77295.1
79751.4
77693.2
81045.7
77856.4
104959
104935
104891
104821
104745
104636
104530
104384
104252
104080
103929
103724
103543
103286
103062
102744
102485
102105
101821
101362
101055
100491
100163
99460
99123.1
98232.2
97904.2
96756.4
96468.8
94963.8
94768.3
92759.9
92740.8
90013.6
90306.2
86540.2
87360.9
82074.6
83768.8
76232.4
79352.2
68446.1
73878.4
57871
67049.9
43229.6
58465.2
22479.5
47425.5
-7868.04
32497.1
-52497.7
13581.3
-108105
-1312.95
-71031
5721.53
-35048.4
16265.8
-8644.26
24668.4
9707.55
31656.7
23284.6
38052.2
33807.9
43911
42147
49192.4
48866.3
53878.2
54329.8
57958.8
58784.1
61455.9
62426
64425.1
65421.8
66937.1
67909
69063.9
70002
70873.6
71796.1
72424.6
73369.2
73761.6
74783.1
74912
76086.1
75887.1
77319.9
76684.8
78526.7
77292.9
79752.8
77691.2
81047
77855.2
104954
104930
104887
104817
104742
104633
104527
104382
104251
104078
103928
103723
103542
103285
103061
102743
102484
102103
101820
101361
101053
100489
100161
99457.8
99121
98229.6
97901.9
96753.4
96466.2
94960.3
94765.4
92755.7
92737.6
90008.7
90302.7
86534.2
87357.1
82067.5
83764.9
76224
79348.2
68436.3
73874.7
57859.9
67046.7
43217.1
58461.8
22465.6
47420.9
-7877.69
32496.1
-52470.2
13601.5
-107952
-1268.87
-71002.4
5735.4
-35053.8
16265
-8654.62
24667.8
9700.92
31658
23280.1
38053.3
33804.2
43911.4
42143.5
49191.9
48862.8
53876.9
54326.2
57956.7
58780.6
61453.5
62422.8
64422.8
65419
66934.9
67906.7
69062.1
70000.4
70872
71795.1
72423.3
73368.7
73760.4
74783
74910.7
76086.4
75885.5
77320.6
76682.9
78527.8
77290.8
79754.1
77689.2
81048.3
77854.1
104949
104926
104882
104813
104738
104629
104524
104379
104249
104077
103927
103722
103541
103284
103060
102741
102483
102102
101818
101359
101051
100487
100160
99455.6
99118.9
98227
97899.6
96750.4
96463.6
94956.7
94762.6
92751.6
92734.4
90003.7
90299.3
86528.3
87353.4
82060.5
83761
76215.7
79344.3
68426.7
73871.1
57849
67043.5
43204.8
58458.4
22451.9
47416.3
-7887.22
32495.2
-52442.8
13621.5
-107801
-1225.24
-70974
5749.14
-35059.1
16264.3
-8664.88
24667.3
9694.35
31659.3
23275.7
38054.4
33800.4
43911.7
42140
49191.4
48859.4
53875.5
54322.7
57954.7
58777.1
61451.2
62419.6
64420.4
65416.3
66932.8
67904.6
69060.2
69998.8
70870.5
71794.1
72422
73368.3
73759.1
74783
74909.4
76086.7
75883.9
77321.3
76681
78528.9
77288.7
79755.5
77687.3
81049.6
77852.9
104944
104921
104877
104809
104734
104626
104521
104377
104247
104075
103926
103721
103540
103283
103059
102740
102482
102101
101817
101357
101050
100485
100158
99453.5
99116.9
98224.5
97897.3
96747.4
96461.1
94953.2
94759.8
92747.4
92731.3
89998.8
90295.9
86522.5
87349.8
82053.5
83757.2
76207.4
79340.5
68417.1
73867.5
57838.1
67040.3
43192.6
58455.1
22438.3
47411.7
-7896.62
32494.3
-52415.6
13641.5
-107651
-1182.07
-70945.8
5762.76
-35064.3
16263.5
-8675.02
24666.8
9687.85
31660.5
23271.3
38055.5
33796.7
43912.1
42136.6
49190.9
48855.9
53874.1
54319.2
57952.7
58773.6
61448.9
62416.4
64418.1
65413.5
66930.6
67902.4
69058.4
69997.2
70869
71793.1
72420.8
73367.8
73757.9
74782.9
74908
76087.1
75882.3
77322
76679.1
78529.9
77286.6
79756.8
77685.4
81050.9
77851.7
104939
104916
104873
104805
104730
104623
104518
104375
104245
104074
103924
103720
103539
103282
103058
102739
102481
102099
101816
101356
101048
100483
100156
99451.3
99114.9
98222
97895.1
96744.5
96458.6
94949.8
94757
92743.3
92728.2
89993.9
90292.5
86516.7
87346.2
82046.6
83753.3
76199.2
79336.6
68407.6
73863.9
57827.4
67037.2
43180.6
58451.8
22424.8
47407.3
-7905.91
32493.5
-52388.6
13661.2
-107503
-1139.35
-70917.9
5776.26
-35069.5
16262.8
-8685.06
24666.2
9681.41
31661.7
23267
38056.5
33793.1
43912.4
42133.3
49190.4
48852.6
53872.8
54315.7
57950.7
58770.2
61446.6
62413.3
64415.8
65410.8
66928.5
67900.2
69056.6
69995.7
70867.5
71792.1
72419.5
73367.3
73756.7
74782.9
74906.7
76087.4
75880.7
77322.7
76677.2
78531
77284.5
79758.1
77683.5
81052.2
77850.6
104934
104911
104869
104801
104726
104620
104515
104372
104243
104072
103923
103719
103538
103281
103057
102738
102480
102098
101814
101354
101047
100481
100154
99449.2
99112.9
98219.5
97892.8
96741.5
96456.1
94946.3
94754.2
92739.3
92725.2
89989.1
90289.2
86510.9
87342.6
82039.8
83749.6
76191.2
79332.8
68398.2
73860.3
57816.7
67034
43168.6
58448.5
22411.5
47402.9
-7915.07
32492.8
-52361.7
13680.9
-107357
-1097.08
-70890.2
5789.65
-35074.6
16262.2
-8694.98
24665.8
9675.05
31663
23262.7
38057.5
33789.4
43912.7
42129.9
49189.9
48849.2
53871.5
54312.2
57948.8
58766.8
61444.3
62410.2
64413.5
65408.1
66926.4
67898.1
69054.8
69994.1
70866.1
71791.2
72418.3
73366.9
73755.6
74782.8
74905.4
76087.7
75879.2
77323.4
76675.4
78532
77282.5
79759.4
77681.6
81053.5
77849.5
104929
104907
104864
104797
104723
104616
104513
104370
104241
104071
103922
103719
103537
103280
103056
102737
102479
102097
101813
101353
101045
100480
100152
99447
99110.9
98217
97890.6
96738.7
96453.6
94942.9
94751.4
92735.3
92722.1
89984.3
90285.9
86505.2
87339
82033
83745.8
76183.1
79329.1
68388.9
73856.8
57806.2
67030.9
43156.7
58445.2
22398.3
47398.5
-7924.11
32492.1
-52335
13700.4
-107212
-1055.25
-70862.8
5802.92
-35079.6
16261.5
-8704.78
24665.3
9668.74
31664.2
23258.4
38058.6
33785.8
43913.1
42126.6
49189.5
48845.9
53870.2
54308.8
57946.8
58763.4
61442.1
62407.1
64411.3
65405.5
66924.3
67896
69053
69992.6
70864.6
71790.2
72417
73366.4
73754.4
74782.8
74904.1
76088
75877.6
77324.1
76673.5
78533.1
77280.5
79760.7
77679.7
81054.7
77848.4
104924
104902
104860
104793
104719
104613
104510
104368
104239
104069
103921
103718
103536
103279
103055
102736
102477
102095
101812
101351
101044
100478
100151
99444.9
99109
98214.6
97888.4
96735.8
96451.1
94939.6
94748.7
92731.3
92719.1
89979.6
90282.6
86499.6
87335.5
82026.3
83742.1
76175.2
79325.3
68379.6
73853.3
57795.7
67027.8
43144.9
58442
22385.2
47394.2
-7933.03
32491.4
-52308.5
13719.8
-107068
-1013.88
-70835.6
5816.09
-35084.5
16261
-8714.48
24664.8
9662.51
31665.4
23254.2
38059.6
33782.2
43913.4
42123.3
49189
48842.6
53868.8
54305.4
57944.9
58760.1
61439.9
62404
64409
65402.8
66922.3
67893.9
69051.3
69991.1
70863.2
71789.2
72415.8
73365.9
73753.2
74782.7
74902.8
76088.4
75876.1
77324.8
76671.7
78534.1
77278.5
79761.9
77677.9
81055.9
77847.3
104919
104898
104855
104789
104715
104610
104507
104366
104237
104068
103920
103717
103536
103278
103054
102735
102476
102094
101810
101350
101042
100476
100149
99442.9
99107
98212.1
97886.2
96733
96448.7
94936.2
94746
92727.3
92716.2
89974.9
90279.4
86494
87332
82019.6
83738.4
76167.3
79321.6
68370.5
73849.9
57785.3
67024.8
43133.3
58438.8
22372.3
47389.9
-7941.84
32490.8
-52282.2
13739.1
-106926
-972.946
-70808.6
5829.15
-35089.4
16260.4
-8724.06
24664.4
9656.34
31666.6
23250
38060.6
33778.7
43913.7
42120
49188.5
48839.3
53867.5
54302
57943
58756.8
61437.6
62401
64406.8
65400.2
66920.2
67891.8
69049.5
69989.6
70861.7
71788.3
72414.6
73365.5
73752.1
74782.7
74901.5
76088.7
75874.6
77325.5
76669.9
78535.1
77276.5
79763.2
77676.1
81057.1
77846.2
104914
104893
104851
104785
104712
104607
104504
104364
104236
104067
103919
103716
103535
103277
103053
102734
102475
102093
101809
101348
101041
100474
100147
99440.8
99105.1
98209.7
97884.1
96730.1
96446.3
94932.9
94743.3
92723.4
92713.2
89970.3
90276.1
86488.5
87328.5
82013
83734.8
76159.5
79318
68361.4
73846.4
57775.1
67021.8
43121.7
58435.6
22359.5
47385.7
-7950.53
32490.3
-52256.1
13758.2
-106786
-932.454
-70781.9
5842.1
-35094.2
16259.9
-8733.52
24664
9650.23
31667.8
23245.9
38061.6
33775.2
43914
42116.8
49188.1
48836.1
53866.3
54298.7
57941.1
58753.5
61435.4
62398
64404.6
65397.6
66918.2
67889.7
69047.8
69988.1
70860.3
71787.4
72413.4
73365
73750.9
74782.6
74900.3
76089
75873.1
77326.2
76668.1
78536.1
77274.6
79764.4
77674.3
81058.3
77845.2
104910
104889
104847
104781
104708
104604
104502
104361
104234
104065
103918
103715
103534
103276
103052
102732
102474
102091
101808
101347
101039
100473
100146
99438.8
99103.2
98207.4
97881.9
96727.4
96443.9
94929.6
94740.7
92719.5
92710.3
89965.7
90272.9
86483
87325.1
82006.5
83731.2
76151.8
79314.3
68352.5
73843
57764.9
67018.7
43110.3
58432.5
22346.8
47381.6
-7959.1
32489.8
-52230.1
13777.2
-106647
-892.402
-70755.3
5854.96
-35098.9
16259.4
-8742.88
24663.6
9644.19
31669
23241.8
38062.6
33771.7
43914.4
42113.6
49187.6
48832.9
53865
54295.4
57939.2
58750.3
61433.3
62395
64402.4
65395.1
66916.2
67887.7
69046.1
69986.6
70858.9
71786.4
72412.2
73364.6
73749.8
74782.6
74899
76089.3
75871.6
77326.8
76666.4
78537.1
77272.6
79765.6
77672.5
81059.5
77844.2
104905
104885
104843
104778
104705
104601
104499
104359
104232
104064
103917
103714
103533
103275
103051
102731
102473
102090
101807
101345
101038
100471
100144
99436.7
99101.3
98205
97879.8
96724.6
96441.5
94926.4
94738.1
92715.7
92707.4
89961.1
90269.8
86477.6
87321.7
82000
83727.6
76144.2
79310.7
68343.6
73839.7
57754.8
67015.8
43099
58429.3
22334.2
47377.5
-7967.56
32489.3
-52204.4
13796
-106510
-852.786
-70729.1
5867.72
-35103.5
16259
-8752.12
24663.2
9638.22
31670.2
23237.7
38063.6
33768.3
43914.7
42110.4
49187.1
48829.7
53863.7
54292.1
57937.3
58747.1
61431.1
62392
64400.2
65392.5
66914.2
67885.6
69044.4
69985.1
70857.5
71785.5
72411
73364.2
73748.6
74782.6
74897.8
76089.6
75870.1
77327.5
76664.6
78538.1
77270.7
79766.8
77670.8
81060.6
77843.2
104900
104880
104839
104774
104701
104598
104496
104357
104230
104063
103916
103713
103532
103274
103050
102730
102472
102089
101805
101344
101036
100469
100142
99434.7
99099.4
98202.7
97877.7
96721.9
96439.2
94923.2
94735.4
92711.9
92704.5
89956.6
90266.7
86472.2
87318.3
81993.6
83724.1
76136.6
79307.2
68334.8
73836.3
57744.8
67012.8
43087.7
58426.3
22321.8
47373.4
-7975.9
32488.9
-52178.8
13814.7
-106374
-813.606
-70703
5880.39
-35108.1
16258.6
-8761.25
24662.9
9632.31
31671.4
23233.7
38064.6
33764.9
43915
42107.3
49186.7
48826.5
53862.5
54288.9
57935.5
58743.9
61429
62389.1
64398.1
65390
66912.2
67883.6
69042.7
69983.7
70856.1
71784.6
72409.8
73363.7
73747.5
74782.5
74896.6
76089.9
75868.7
77328.1
76662.9
78539.1
77268.8
79768
77669
81061.7
77842.2
104896
104876
104834
104770
104698
104595
104494
104355
104229
104061
103915
103712
103531
103273
103049
102729
102471
102088
101804
101342
101035
100467
100141
99432.8
99097.6
98200.4
97875.6
96719.2
96436.9
94920
94732.9
92708.1
92701.7
89952.1
90263.6
86466.9
87315
81987.3
83720.6
76129.1
79303.7
68326.1
73833
57735
67009.9
43076.6
58423.2
22309.4
47369.4
-7984.13
32488.6
-52153.5
13833.3
-106240
-774.858
-70677.2
5892.97
-35112.5
16258.2
-8770.26
24662.5
9626.47
31672.6
23229.7
38065.6
33761.5
43915.3
42104.2
49186.2
48823.4
53861.2
54285.7
57933.6
58740.7
61426.9
62386.2
64395.9
65387.5
66910.3
67881.6
69041
69982.2
70854.7
71783.7
72408.6
73363.3
73746.4
74782.5
74895.4
76090.2
75867.2
77328.8
76661.2
78540.1
77267
79769.1
77667.3
81062.8
77841.2
104891
104872
104830
104767
104694
104592
104491
104353
104227
104060
103914
103711
103530
103273
103048
102728
102470
102087
101803
101341
101033
100466
100139
99430.8
99095.7
98198.1
97873.6
96716.5
96434.6
94916.8
94730.3
92704.4
92698.9
89947.7
90260.5
86461.6
87311.7
81981
83717.1
76121.7
79300.2
68317.4
73829.8
57725.2
67007
43065.6
58420.2
22297.3
47365.5
-7992.25
32488.3
-52128.3
13851.7
-106107
-736.541
-70651.6
5905.46
-35116.9
16257.9
-8779.16
24662.2
9620.69
31673.7
23225.8
38066.5
33758.2
43915.6
42101.1
49185.8
48820.3
53860
54282.5
57931.8
58737.6
61424.8
62383.3
64393.8
65385
66908.3
67879.6
69039.4
69980.8
70853.3
71782.8
72407.5
73362.9
73745.3
74782.4
74894.2
76090.5
75865.8
77329.4
76659.5
78541
77265.1
79770.3
77665.7
81063.9
77840.2
104887
104868
104826
104763
104691
104589
104488
104351
104225
104059
103913
103710
103529
103272
103047
102727
102469
102085
101802
101339
101032
100464
100137
99428.9
99093.9
98195.8
97871.5
96713.8
96432.3
94913.7
94727.8
92700.7
92696.1
89943.3
90257.4
86456.4
87308.4
81974.8
83713.7
76114.3
79296.7
68308.9
73826.5
57715.5
67004.1
43054.7
58417.2
22285.2
47361.6
-8000.26
32488
-52103.3
13869.9
-105976
-698.652
-70626.2
5917.86
-35121.2
16257.6
-8787.95
24661.9
9614.98
31674.9
23221.9
38067.5
33754.9
43915.9
42098
49185.3
48817.2
53858.8
54279.3
57930
58734.5
61422.7
62380.5
64391.7
65382.6
66906.4
67877.7
69037.7
69979.4
70852
71781.9
72406.4
73362.4
73744.2
74782.4
74893
76090.8
75864.4
77330
76657.8
78541.9
77263.3
79771.4
77664
81065
77839.3
104882
104864
104822
104759
104688
104586
104486
104349
104224
104058
103911
103709
103529
103271
103047
102726
102468
102084
101801
101338
101030
100462
100136
99426.9
99092.1
98193.6
97869.5
96711.2
96430
94910.6
94725.3
92697.1
92693.3
89939
90254.4
86451.2
87305.1
81968.7
83710.3
76107
79293.3
68300.4
73823.3
57705.9
67001.3
43043.9
58414.2
22273.3
47357.8
-8008.15
32487.8
-52078.5
13888
-105846
-661.191
-70601.1
5930.18
-35125.4
16257.3
-8796.63
24661.7
9609.34
31676
23218.1
38068.4
33751.6
43916.2
42095
49184.9
48814.2
53857.6
54276.2
57928.2
58731.4
61420.6
62377.7
64389.7
65380.1
66904.5
67875.7
69036.1
69978
70850.7
71781.1
72405.2
73362
73743.2
74782.4
74891.8
76091.1
75863
77330.7
76656.2
78542.9
77261.5
79772.5
77662.4
81066.1
77838.3
104878
104859
104819
104756
104684
104583
104483
104347
104222
104056
103910
103709
103528
103270
103046
102725
102467
102083
101799
101337
101029
100461
100134
99425
99090.4
98191.3
97867.5
96708.6
96427.8
94907.6
94722.8
92693.5
92690.6
89934.7
90251.5
86446.1
87301.9
81962.6
83706.9
76099.8
79289.9
68292.1
73820.2
57696.4
66998.4
43033.2
58411.2
22261.5
47354
-8015.94
32487.6
-52054
13906
-105717
-624.154
-70576.1
5942.42
-35129.5
16257.1
-8805.2
24661.4
9603.76
31677.2
23214.3
38069.4
33748.4
43916.5
42092
49184.4
48811.2
53856.4
54273.1
57926.4
58728.4
61418.6
62374.9
64387.6
65377.7
66902.6
67873.8
69034.5
69976.6
70849.3
71780.2
72404.1
73361.6
73742.1
74782.3
74890.6
76091.4
75861.6
77331.3
76654.5
78543.8
77259.7
79773.6
77660.8
81067.1
77837.4
104874
104855
104815
104752
104681
104581
104481
104345
104220
104055
103909
103708
103527
103269
103045
102724
102466
102082
101798
101335
101028
100459
100133
99423.2
99088.6
98189.2
97865.6
96706
96425.6
94904.6
94720.4
92689.9
92687.9
89930.5
90248.5
86441
87298.8
81956.6
83703.6
76092.7
79286.5
68283.8
73817
57687
66995.6
43022.7
58408.3
22249.8
47350.3
-8023.61
32487.4
-52029.6
13923.8
-105590
-587.54
-70551.5
5954.58
-35133.5
16257
-8813.65
24661.2
9598.24
31678.3
23210.5
38070.3
33745.1
43916.8
42089
49184
48808.2
53855.2
54270.1
57924.7
58725.4
61416.6
62372.1
64385.6
65375.3
66900.8
67871.9
69032.9
69975.2
70848
71779.3
72403
73361.2
73741.1
74782.3
74889.5
76091.7
75860.2
77331.9
76652.9
78544.7
77258
79774.7
77659.2
81068.1
77836.5
104870
104851
104811
104749
104678
104578
104478
104343
104219
104054
103908
103707
103526
103268
103044
102723
102465
102081
101797
101334
101026
100458
100131
99421.3
99086.9
98187
97863.6
96703.5
96423.4
94901.6
94717.9
92686.3
92685.2
89926.3
90245.6
86436
87295.6
81950.6
83700.3
76085.7
79283.2
68275.6
73813.9
57677.7
66992.9
43012.2
58405.4
22238.2
47346.6
-8031.18
32487.3
-52005.4
13941.5
-105465
-551.347
-70527
5966.66
-35137.4
16256.8
-8822
24661
9592.79
31679.4
23206.8
38071.2
33742
43917
42086.1
49183.6
48805.3
53854
54267
57923
58722.4
61414.6
62369.4
64383.6
65373
66898.9
67870
69031.3
69973.9
70846.7
71778.5
72401.9
73360.8
73740
74782.3
74888.3
76092
75858.9
77332.5
76651.3
78545.6
77256.2
79775.8
77657.6
81069.1
77835.7
104865
104848
104807
104745
104675
104575
104476
104341
104217
104053
103908
103706
103525
103267
103043
102722
102464
102080
101796
101333
101025
100456
100130
99419.5
99085.1
98184.8