/*--------------------------------*- C++ -*----------------------------------*\
| =========                 |                                                 |
| \\      /  F ield         | OpenFOAM: The Open Source CFD Toolbox           |
|  \\    /   O peration     | Version:  2412                                  |
|   \\  /    A nd           | Website:  www.openfoam.com                      |
|    \\/     M anipulation  |                                                 |
\*---------------------------------------------------------------------------*/
FoamFile
{
    version     2.0;
    format      ascii;
    arch        "LSB;label=32;scalar=64";
    class       surfaceScalarField;
    location    "0.8";
    object      phi;
}
// * * * * * * * * * * * * * * * * * * * * * * * * * * * * * * * * * * * * * //

dimensions      [0 3 -1 0 0 0 0];

oriented        oriented;

internalField   nonuniform List<scalar> 
25905
(
0.00747776
-0.0129641
0.007395
-0.0113604
0.00732558
-0.00993298
0.0072666
-0.00874132
0.00721684
-0.00757942
0.0071764
-0.00614798
0.00714745
-0.00401482
0.00713196
-0.00113373
0.00713205
0.00220711
0.00714959
0.00543766
0.00718549
0.00801379
0.00723816
0.00958262
0.00730238
0.01004
0.00737023
0.00956763
0.0074335
0.00849391
0.00748736
0.00725913
0.00753116
0.00613514
0.00756767
0.00530682
0.00759923
0.00465398
0.00762764
0.0041715
0.00765309
0.00370872
0.00767634
0.00335598
0.00769702
0.00296814
0.00771615
0.00272405
0.00773295
0.00238965
0.00774871
0.00222574
0.00776218
0.00191472
0.00777506
0.00181937
0.00778546
0.0014957
0.00779588
0.00148466
0.00780344
0.00111962
0.00781164
0.00119269
0.00781635
0.000754587
0.00782262
0.000947654
0.00782452
0.000407249
0.00782918
0.000755021
0.00782813
6.20543e-05
0.00783157
0.000637375
0.00782738
-0.000272355
0.00783006
0.000614935
0.00782311
-0.00051739
0.00782698
0.00085219
0.00782002
-0.00046848
0.00782985
0.00151394
0.00782812
-7.82814e-05
0.00784852
0.00229253
0.00785223
-0.000164192
0.00787355
0.00137986
0.00786529
-0.00273961
0.00785257
-0.00464427
0.00779781
-0.0110106
0.0076454
-0.0260532
0.00736983
-0.0426907
0.00743083
0.00798454
0.00762958
0.0291799
0.00775094
0.0173849
0.0077951
0.00804059
0.0078285
0.00672801
0.00782321
0.00140392
0.00781895
0.00118078
0.00779502
-0.00174364
0.00778386
-0.000488445
0.00776574
-0.00170635
0.00776114
-0.000156774
0.00775213
-0.000793755
0.00775335
0.000482853
0.00775154
4.60561e-05
0.00775748
0.000959599
0.00776098
0.000562619
0.00776927
0.00110552
0.0077744
0.0006661
0.00778095
0.000844747
0.00778339
0.000335999
0.007785
0.000254936
0.00778238
-0.000263824
0.00777798
-0.000472765
0.00776994
-0.000923631
0.00776
-0.00115603
0.00774756
-0.00146928
0.00773389
-0.00163339
0.00771907
-0.00178838
0.00770386
-0.0018709
0.00768886
-0.00186788
0.00767409
-0.00188995
0.00766056
-0.00176436
0.00764736
-0.00177911
0.00763587
-0.00158132
0.00762425
-0.00163691
0.0076147
-0.0013768
0.00760404
-0.00152068
0.00759588
-0.00120381
0.00758553
-0.00142436
0.00757852
-0.00103108
0.00756833
-0.00127307
0.00756278
-0.000794552
0.00755386
-0.0009187
0.00755115
-0.000352374
0.00754683
-0.000180882
0.000868245
0.00747772
-0.0128661
0.00739484
-0.0112776
0.00732524
-0.00986337
0.00726603
-0.00868211
0.00721605
-0.00752944
0.00717544
-0.00610737
0.00714644
-0.00398583
0.00713109
-0.00111838
0.00713155
0.00220665
0.00714962
0.00541959
0.00718613
0.00797729
0.00723936
0.00952939
0.00730396
0.00997535
0.00737199
0.0094996
0.00743531
0.00843059
0.00748919
0.00720526
0.00753303
0.0060913
0.00756963
0.00527023
0.00760127
0.00462234
0.00762976
0.00414301
0.00765527
0.00368321
0.00767859
0.00333267
0.0076993
0.00294742
0.00771848
0.00270487
0.00773531
0.00237282
0.0077511
0.00220995
0.0077646
0.00190122
0.0077775
0.00180647
0.00778793
0.00148527
0.00779837
0.00147421
0.00780595
0.00111204
0.00781417
0.00118447
0.0078189
0.000749862
0.00782519
0.000941359
0.00782711
0.000405332
0.00783179
0.000750341
0.00783076
6.30826e-05
0.00783422
0.000633912
0.00783007
-0.000268204
0.00783278
0.000612228
0.00782589
-0.000510501
0.00782981
0.000848266
0.00782294
-0.000461609
0.00783283
0.00150406
0.00783115
-7.66001e-05
0.00785153
0.00227215
0.00785518
-0.000167846
0.00787631
0.00135874
0.00786781
-0.00273112
0.0078546
-0.00463106
0.00779918
-0.0109552
0.00764562
-0.0258997
0.00736876
-0.0424139
0.00742973
0.00792356
0.00762917
0.0289804
0.00775096
0.0172631
0.00779555
0.00799601
0.00782931
0.00669424
0.00782432
0.00140891
0.00782031
0.00118479
0.00779656
-0.00171989
0.00778551
-0.000477395
0.00776743
-0.00168828
0.00776284
-0.000152182
0.00775383
-0.000784746
0.00775504
0.000481645
0.00775322
4.78809e-05
0.00775912
0.000953694
0.00776259
0.000559153
0.00777083
0.00109728
0.00777592
0.000661012
0.00778244
0.000838223
0.00778486
0.000333584
0.00778646
0.000253331
0.00778384
-0.000261204
0.00777946
-0.000468386
0.00777144
-0.000915605
0.00776153
-0.00114612
0.00774912
-0.00145687
0.00773549
-0.00161976
0.00772071
-0.0017736
0.00770552
-0.00185572
0.00769054
-0.00185291
0.00767579
-0.0018752
0.00766227
-0.00175084
0.00764906
-0.0017659
0.00763757
-0.00156983
0.00762593
-0.00162528
0.00761638
-0.00136725
0.00760571
-0.00151002
0.00759756
-0.00119565
0.00758722
-0.00141403
0.00758024
-0.0010241
0.00757012
-0.00126295
0.00756464
-0.000789067
0.00755586
-0.000909917
0.00755326
-0.000349779
0.00754916
-0.000176777
0.000861357
0.00747767
-0.012768
0.00739468
-0.0111946
0.0073249
-0.00979359
0.00726547
-0.00862268
0.00721527
-0.00747923
0.00717448
-0.00606658
0.00714544
-0.00395679
0.00713023
-0.00110317
0.00713104
0.00220584
0.00714965
0.00540098
0.00718677
0.00794017
0.00724054
0.00947561
0.00730552
0.00991037
0.00737373
0.00943139
0.00743709
0.00836723
0.00749099
0.00715136
0.00753488
0.0060474
0.00757156
0.00523355
0.00760329
0.00459061
0.00763185
0.00411444
0.00765744
0.00365762
0.00768081
0.0033093
0.00770157
0.00292666
0.00772079
0.00268566
0.00773765
0.00235596
0.00775347
0.00219414
0.00776699
0.00188769
0.00777992
0.00179354
0.00779038
0.00147482
0.00780084
0.00146375
0.00780844
0.00110444
0.00781668
0.00117623
0.00782143
0.000745114
0.00782774
0.000935046
0.00782968
0.000403393
0.00783438
0.000745645
0.00783338
6.4086e-05
0.00783686
0.000630429
0.00783274
-0.000264087
0.00783548
0.000609487
0.00782865
-0.00050367
0.00783263
0.000844284
0.00782584
-0.000454818
0.00783578
0.00149412
0.00783416
-7.49737e-05
0.00785452
0.00225179
0.00785811
-0.000171438
0.00787904
0.0013378
0.0078703
-0.00272238
0.0078566
-0.00461736
0.00780052
-0.0108991
0.00764583
-0.025745
0.00736769
-0.0421357
0.00742864
0.0078626
0.00762877
0.0287803
0.00775098
0.0171409
0.00779599
0.007951
0.00783011
0.00666012
0.00782542
0.00141359
0.00782165
0.00118856
0.00779808
-0.00169632
0.00778714
-0.000466454
0.00776912
-0.00167026
0.00776454
-0.000147599
0.00775553
-0.000775734
0.00775672
0.000480449
0.00775488
4.97225e-05
0.00776075
0.000947819
0.00776418
0.000555725
0.00777238
0.00108908
0.00777743
0.000655964
0.00778392
0.00083173
0.00778632
0.000331188
0.00778791
0.000251733
0.0077853
-0.000258589
0.00778094
-0.000464021
0.00777293
-0.000907604
0.00776306
-0.00113625
0.00775068
-0.00144449
0.00773708
-0.00160616
0.00772234
-0.00175885
0.00770717
-0.00184055
0.00769222
-0.00183796
0.00767748
-0.00186046
0.00766397
-0.00173732
0.00765075
-0.00175269
0.00763925
-0.00155833
0.00762761
-0.00161363
0.00761805
-0.00135769
0.00760738
-0.00149935
0.00759923
-0.0011875
0.00758891
-0.00140371
0.00758196
-0.00101715
0.00757191
-0.0012529
0.00756649
-0.000783646
0.00755784
-0.000901271
0.00755536
-0.000347297
0.00755146
-0.000172879
0.000854307
0.00747763
-0.0126699
0.00739452
-0.0111115
0.00732456
-0.00972363
0.00726492
-0.00856304
0.0072145
-0.00742881
0.00717354
-0.00602563
0.00714446
-0.0039277
0.00712939
-0.0010881
0.00713055
0.00220468
0.00714969
0.00538185
0.0071874
0.00790246
0.00724172
0.00942129
0.00730707
0.00984503
0.00737545
0.00936301
0.00743886
0.00830382
0.00749277
0.00709745
0.00753671
0.00600346
0.00757347
0.00519679
0.00760529
0.00455879
0.00763394
0.0040858
0.00765959
0.00363197
0.00768301
0.00328588
0.00770382
0.00290585
0.00772308
0.0026664
0.00773998
0.00233906
0.00775582
0.00217829
0.00776937
0.00187414
0.00778233
0.00178059
0.00779281
0.00146434
0.00780329
0.00145327
0.00781091
0.00109682
0.00781918
0.00116797
0.00782395
0.000740345
0.00783028
0.000928714
0.00783224
0.000401432
0.00783695
0.00074093
0.00783597
6.50652e-05
0.00783948
0.000626925
0.0078354
-0.000260005
0.00783817
0.000606713
0.0078314
-0.000496897
0.00783543
0.000840248
0.00782872
-0.000448107
0.00783872
0.00148412
0.00783715
-7.34019e-05
0.00785748
0.00223146
0.00786101
-0.000174969
0.00788175
0.00131706
0.00787278
-0.0027134
0.00785859
-0.00460318
0.00780186
-0.0108423
0.00764604
-0.0255891
0.00736662
-0.0418563
0.00742756
0.00780167
0.00762837
0.0285795
0.00775099
0.0170182
0.00779641
0.00790557
0.0078309
0.00662563
0.00782651
0.00141798
0.00782298
0.00119209
0.0077996
-0.00167293
0.00778877
-0.000455621
0.0077708
-0.00165228
0.00776622
-0.000143025
0.00775721
-0.00076672
0.00775839
0.000479265
0.00775653
5.15801e-05
0.00776238
0.000941975
0.00776577
0.000552335
0.00777392
0.00108093
0.00777893
0.000650954
0.00778539
0.000825269
0.00778777
0.000328811
0.00778936
0.000250142
0.00778675
-0.00025598
0.0077824
-0.000459671
0.00777442
-0.000899626
0.00776458
-0.0011264
0.00775224
-0.00143215
0.00773867
-0.0015926
0.00772396
-0.00174413
0.00770882
-0.00182542
0.00769389
-0.00182303
0.00767917
-0.00184573
0.00766566
-0.00172381
0.00765244
-0.00173947
0.00764093
-0.00154683
0.00762928
-0.00160198
0.00761971
-0.00134811
0.00760903
-0.00148868
0.00760089
-0.00117935
0.0075906
-0.00139342
0.00758367
-0.00101023
0.00757369
-0.00124291
0.00756833
-0.000778288
0.00755982
-0.000892759
0.00755745
-0.000344927
0.00755375
-0.000169187
0.000847096
0.00747759
-0.0125717
0.00739436
-0.0110282
0.00732423
-0.00965349
0.00726437
-0.00850319
0.00721373
-0.00737817
0.00717262
-0.00598451
0.00714348
-0.00389857
0.00712856
-0.00107317
0.00713007
0.00220316
0.00714973
0.00536219
0.00718804
0.00786414
0.0072429
0.00936644
0.0073086
0.00977932
0.00737716
0.00929445
0.00744061
0.00824036
0.00749454
0.00704353
0.00753853
0.00595946
0.00757537
0.00515996
0.00760728
0.00452689
0.007636
0.00405707
0.00766172
0.00360626
0.0076852
0.0032624
0.00770606
0.00288499
0.00772535
0.00264711
0.00774229
0.00232212
0.00775816
0.00216242
0.00777174
0.00186056
0.00778472
0.00176761
0.00779522
0.00145383
0.00780573
0.00144276
0.00781337
0.00108917
0.00782165
0.00115969
0.00782645
0.000735553
0.0078328
0.000922364
0.00783478
0.000399449
0.00783951
0.000736198
0.00783856
6.602e-05
0.00784208
0.0006234
0.00783803
-0.000255956
0.00784084
0.000603905
0.00783412
-0.00049018
0.00783822
0.000836156
0.00783158
-0.000441475
0.00784163
0.00147407
0.00784012
-7.18832e-05
0.00786043
0.00221115
0.00786389
-0.000178437
0.00788445
0.00129651
0.00787523
-0.00270419
0.00786057
-0.00458851
0.00780318
-0.010785
0.00764625
-0.0254322
0.00736557
-0.0415756
0.00742648
0.00774076
0.00762797
0.028378
0.00775099
0.0168952
0.00779683
0.00785973
0.00783167
0.00659079
0.00782759
0.00142206
0.0078243
0.00119538
0.0078011
-0.00164973
0.00779038
-0.000444897
0.00777246
-0.00163437
0.00776789
-0.000138461
0.00775888
-0.000757706
0.00776005
0.000478091
0.00775818
5.34537e-05
0.00776399
0.00093616
0.00776735
0.000548981
0.00777546
0.00107282
0.00778043
0.000645983
0.00778686
0.00081884
0.00778922
0.000326453
0.0077908
0.000248559
0.00778819
-0.000253375
0.00778386
-0.000455335
0.00777591
-0.000891673
0.00776609
-0.00111659
0.00775378
-0.00141984
0.00774025
-0.00157907
0.00772557
-0.00172945
0.00771046
-0.00181032
0.00769555
-0.00180812
0.00768084
-0.00183102
0.00766734
-0.00171031
0.00765412
-0.00172625
0.0076426
-0.00153532
0.00763094
-0.00159031
0.00762136
-0.00133853
0.00761068
-0.00147801
0.00760254
-0.00117121
0.00759227
-0.00138315
0.00758537
-0.00100333
0.00757545
-0.00123299
0.00757016
-0.000772992
0.00756178
-0.000884381
0.00755952
-0.000342667
0.00755603
-0.000165696
0.000839726
0.00747755
-0.0124735
0.00739421
-0.0109449
0.0073239
-0.00958318
0.00726384
-0.00844313
0.00721298
-0.00732732
0.0071717
-0.00594323
0.00714253
-0.00386939
0.00712774
-0.00105839
0.0071296
0.0022013
0.00714979
0.005342
0.00718869
0.00782524
0.00724407
0.00931106
0.00731013
0.00971325
0.00737885
0.00922574
0.00744235
0.00817687
0.00749629
0.00698958
0.00754034
0.00591542
0.00757726
0.00512304
0.00760925
0.00449489
0.00763806
0.00402827
0.00766384
0.00358048
0.00768737
0.00323886
0.00770828
0.00286408
0.00772761
0.00262778
0.00774458
0.00230515
0.00776048
0.00214652
0.00777409
0.00184695
0.00778709
0.00175461
0.00779762
0.00144331
0.00780814
0.00143223
0.00781581
0.0010815
0.00782411
0.00115138
0.00782893
0.00073074
0.0078353
0.000915996
0.0078373
0.000397444
0.00784205
0.000731448
0.00784112
6.69504e-05
0.00784467
0.000619855
0.00784065
-0.000251943
0.00784349
0.000601064
0.00783683
-0.00048352
0.00784098
0.00083201
0.00783443
-0.000434922
0.00784453
0.00146396
0.00784306
-7.04173e-05
0.00786335
0.00219086
0.00786676
-0.000181844
0.00788712
0.00127615
0.00787767
-0.00269474
0.00786252
-0.00457337
0.00780449
-0.0107269
0.00764645
-0.0252742
0.00736452
-0.0412937
0.00742541
0.00767987
0.00762756
0.0281759
0.00775098
0.0167718
0.00779724
0.00781347
0.00783244
0.00655559
0.00782865
0.00142585
0.0078256
0.00119843
0.00780259
-0.00162671
0.00779197
-0.000434281
0.0077741
-0.0016165
0.00776955
-0.000133908
0.00776054
-0.000748693
0.0077617
0.000476928
0.00775981
5.53416e-05
0.0077656
0.000930373
0.00776892
0.000545664
0.00777699
0.00106475
0.00778192
0.00064105
0.00778832
0.000812443
0.00779065
0.000324114
0.00779223
0.000246984
0.00778963
-0.000250775
0.00778531
-0.000451015
0.00777738
-0.000883742
0.00776759
-0.0011068
0.00775532
-0.00140756
0.00774182
-0.00156557
0.00772717
-0.0017148
0.00771209
-0.00179524
0.00769721
-0.00179324
0.00768251
-0.00181632
0.00766901
-0.00169681
0.00765578
-0.00171303
0.00764426
-0.0015238
0.00763259
-0.00157863
0.007623
-0.00132894
0.00761232
-0.00146733
0.00760418
-0.00116307
0.00759393
-0.00137291
0.00758706
-0.000996462
0.00757721
-0.00122314
0.00757198
-0.000767758
0.00756373
-0.000876135
0.00756158
-0.000340517
0.00755829
-0.000162405
0.000832199
0.00747751
-0.0123752
0.00739405
-0.0108614
0.00732357
-0.0095127
0.00726331
-0.00838287
0.00721224
-0.00727625
0.0071708
-0.00590179
0.00714158
-0.00384017
0.00712693
-0.00104374
0.00712915
0.00219908
0.00714985
0.00532131
0.00718934
0.00778575
0.00724523
0.00925516
0.00731165
0.00964684
0.00738053
0.00915686
0.00744406
0.00811333
0.00749803
0.00693561
0.00754213
0.00587132
0.00757913
0.00508603
0.00761121
0.00446281
0.0076401
0.00399938
0.00766594
0.00355463
0.00768953
0.00321527
0.00771048
0.00284313
0.00772985
0.00260841
0.00774685
0.00228815
0.00776279
0.00213058
0.00777642
0.00183332
0.00778945
0.00174158
0.0078
0.00143276
0.00781055
0.00142168
0.00781824
0.00107381
0.00782656
0.00114306
0.00783139
0.000725906
0.00783778
0.000909609
0.00783981
0.000395418
0.00784457
0.000726681
0.00784367
6.78567e-05
0.00784723
0.000616289
0.00784325
-0.000247963
0.00784613
0.00059819
0.00783952
-0.000476917
0.00784372
0.00082781
0.00783725
-0.000428446
0.0078474
0.00145381
0.00784599
-6.90031e-05
0.00786625
0.0021706
0.0078696
-0.000185189
0.00788977
0.00125598
0.00788009
-0.00268506
0.00786446
-0.00455775
0.00780578
-0.0106682
0.00764664
-0.025115
0.00736348
-0.0410105
0.00742435
0.00761899
0.00762716
0.027973
0.00775097
0.016648
0.00779764
0.00776681
0.00783319
0.00652004
0.0078297
0.00142933
0.00782689
0.00120124
0.00780406
-0.00160388
0.00779355
-0.000423775
0.00777574
-0.00159869
0.0077712
-0.000129367
0.00776219
-0.00073968
0.00776334
0.000475774
0.00776144
5.72432e-05
0.0077672
0.000924615
0.00777048
0.000542382
0.0077785
0.00105673
0.0077834
0.000636155
0.00778977
0.000806077
0.00779209
0.000321794
0.00779365
0.000245415
0.00779106
-0.000248181
0.00778675
-0.000446709
0.00777885
-0.000875835
0.00776909
-0.00109704
0.00775684
-0.00139532
0.00774338
-0.0015521
0.00772876
-0.00170018
0.00771371
-0.00178019
0.00769885
-0.00177837
0.00768416
-0.00180163
0.00767067
-0.00168331
0.00765744
-0.0016998
0.00764591
-0.00151227
0.00763423
-0.00156694
0.00762463
-0.00131935
0.00761395
-0.00145665
0.00760581
-0.00115493
0.00759558
-0.00136268
0.00758874
-0.000989618
0.00757896
-0.00121336
0.00757378
-0.000762585
0.00756567
-0.00086802
0.00756363
-0.000338474
0.00756053
-0.000159311
0.000824517
0.00747746
-0.012277
0.0073939
-0.0107779
0.00732325
-0.00944205
0.00726278
-0.0083224
0.00721151
-0.00722498
0.00716991
-0.00586019
0.00714064
-0.00381091
0.00712614
-0.00102923
0.0071287
0.00219652
0.00714992
0.00530009
0.00718999
0.00774568
0.0072464
0.00919876
0.00731315
0.00958008
0.00738219
0.00908782
0.00744577
0.00804975
0.00749975
0.00688163
0.00754391
0.00582717
0.00758099
0.00504895
0.00761316
0.00443064
0.00764212
0.00397043
0.00766803
0.00352872
0.00769167
0.00319163
0.00771267
0.00282214
0.00773208
0.002589
0.00774912
0.00227112
0.00776508
0.00211462
0.00777874
0.00181966
0.00779179
0.00172853
0.00780236
0.00142218
0.00781293
0.00141111
0.00782065
0.0010661
0.00782899
0.00113472
0.00783384
0.00072105
0.00784025
0.000903204
0.00784229
0.000393371
0.00784708
0.000721896
0.0078462
6.87395e-05
0.00784978
0.000612702
0.00784584
-0.000244017
0.00784874
0.000595283
0.0078422
-0.000470369
0.00784645
0.000823556
0.00784005
-0.000422047
0.00785026
0.0014436
0.0078489
-6.76395e-05
0.00786913
0.00215036
0.00787242
-0.000188472
0.0078924
0.00123599
0.00788248
-0.00267514
0.00786639
-0.00454165
0.00780706
-0.0106089
0.00764683
-0.0249548
0.00736245
-0.0407262
0.0074233
0.00755814
0.00762676
0.0277696
0.00775095
0.0165238
0.00779802
0.00771974
0.00783393
0.00648414
0.00783074
0.00143251
0.00782817
0.00120381
0.00780552
-0.00158122
0.00779512
-0.000413379
0.00777736
-0.00158093
0.00777283
-0.000124839
0.00776382
-0.000730669
0.00776497
0.000474628
0.00776305
5.91579e-05
0.00776878
0.000918884
0.00777203
0.000539136
0.00778001
0.00104874
0.00778487
0.000631297
0.00779121
0.000799742
0.00779351
0.000319492
0.00779507
0.000243854
0.00779248
-0.000245592
0.00778819
-0.000442417
0.0077803
-0.000867951
0.00777057
-0.00108731
0.00775836
-0.0013831
0.00774493
-0.00153867
0.00773035
-0.0016856
0.00771532
-0.00176516
0.00770048
-0.00176353
0.0076858
-0.00178696
0.00767232
-0.00166983
0.00765909
-0.00168657
0.00764755
-0.00150074
0.00763586
-0.00155524
0.00762625
-0.00130974
0.00761557
-0.00144597
0.00760743
-0.0011468
0.00759723
-0.00135248
0.00759041
-0.000982801
0.00758069
-0.00120364
0.00757558
-0.000757473
0.00756759
-0.000860035
0.00756566
-0.00033654
0.00756276
-0.000156411
0.000816681
0.00747742
-0.0121786
0.00739375
-0.0106942
0.00732293
-0.00937123
0.00726227
-0.00826173
0.00721079
-0.0071735
0.00716903
-0.00581843
0.00713972
-0.00378161
0.00712536
-0.00101487
0.00712827
0.00219361
0.00714999
0.00527836
0.00719064
0.00770504
0.00724755
0.00914184
0.00731465
0.00951299
0.00738384
0.00901863
0.00744746
0.00798613
0.00750146
0.00682762
0.00754567
0.00578296
0.00758284
0.00501178
0.00761509
0.00439838
0.00764413
0.00394139
0.00767011
0.00350274
0.0076938
0.00316793
0.00771484
0.0028011
0.00773429
0.00256955
0.00775136
0.00225405
0.00776735
0.00209863
0.00778104
0.00180597
0.00779411
0.00171546
0.00780471
0.00141159
0.0078153
0.00140052
0.00782304
0.00105836
0.0078314
0.00112636
0.00783627
0.000716172
0.0078427
0.000896782
0.00784477
0.000391302
0.00784957
0.000717095
0.00784871
6.9598e-05
0.00785232
0.000609095
0.0078484
-0.000240104
0.00785134
0.000592343
0.00784485
-0.000463878
0.00784916
0.000819249
0.00784284
-0.000415723
0.00785309
0.00143334
0.00785178
-6.63263e-05
0.00787199
0.00213015
0.00787522
-0.000191694
0.00789501
0.0012162
0.00788486
-0.00266499
0.00786829
-0.00452508
0.00780833
-0.0105489
0.00764702
-0.0247935
0.00736142
-0.0404406
0.00742225
0.00749731
0.00762636
0.0275655
0.00775093
0.0163992
0.00779839
0.00767228
0.00783465
0.00644788
0.00783176
0.0014354
0.00782943
0.00120614
0.00780696
-0.00155875
0.00779667
-0.000403092
0.00777897
-0.00156323
0.00777445
-0.000120323
0.00776544
-0.000721661
0.00776658
0.000473489
0.00776466
6.10848e-05
0.00777036
0.00091318
0.00777357
0.000535923
0.00778152
0.0010408
0.00778634
0.000626477
0.00779264
0.000793437
0.00779492
0.000317208
0.00779648
0.0002423
0.00779389
-0.000243008
0.00778962
-0.000438139
0.00778176
-0.000860089
0.00777205
-0.00107761
0.00775987
-0.00137092
0.00774647
-0.00152527
0.00773192
-0.00167105
0.00771692
-0.00175016
0.0077021
-0.00174871
0.00768744
-0.00177229
0.00767396
-0.00165635
0.00766072
-0.00167333
0.00764919
-0.0014892
0.00763748
-0.00154353
0.00762786
-0.00130013
0.00761718
-0.00143528
0.00760904
-0.00113866
0.00759886
-0.0013423
0.00759207
-0.00097601
0.00758242
-0.00119399
0.00757736
-0.000752421
0.00756951
-0.000852179
0.00756768
-0.000334711
0.00756497
-0.000153704
0.000808693
0.00747738
-0.0120802
0.0073936
-0.0106104
0.00732262
-0.00930024
0.00726175
-0.00820087
0.00721007
-0.00712181
0.00716816
-0.00577652
0.00713881
-0.00375226
0.00712459
-0.00100065
0.00712784
0.00219036
0.00715008
0.00525613
0.0071913
0.00766382
0.00724871
0.00908443
0.00731613
0.00944557
0.00738547
0.00894929
0.00744913
0.00792247
0.00750316
0.00677359
0.00754742
0.00573871
0.00758467
0.00497453
0.00761701
0.00436603
0.00764613
0.00391228
0.00767217
0.0034767
0.00769592
0.00314419
0.007717
0.00278001
0.00773649
0.00255006
0.00775359
0.00223695
0.00776961
0.00208261
0.00778333
0.00179225
0.00779642
0.00170236
0.00780704
0.00140097
0.00781765
0.00138991
0.00782541
0.00105061
0.00783379
0.00111798
0.00783869
0.000711274
0.00784513
0.000890341
0.00784722
0.000389212
0.00785204
0.000712276
0.0078512
7.04331e-05
0.00785483
0.000605468
0.00785095
-0.000236225
0.00785393
0.00058937
0.00784749
-0.000457441
0.00785185
0.000814889
0.0078456
-0.000409475
0.00785591
0.00142303
0.00785465
-6.50625e-05
0.00787483
0.00210996
0.00787799
-0.000194854
0.00789761
0.00119658
0.00788722
-0.00265461
0.00787018
-0.00450805
0.00780959
-0.0104884
0.0076472
-0.0246311
0.0073604
-0.0401538
0.00742122
0.0074365
0.00762596
0.0273607
0.00775089
0.0162743
0.00779876
0.00762442
0.00783536
0.00641128
0.00783277
0.00143799
0.00783068
0.00120824
0.00780839
-0.00153646
0.00779821
-0.000392915
0.00778056
-0.00154558
0.00777606
-0.000115823
0.00776706
-0.000712656
0.00776819
0.000472357
0.00776625
6.30232e-05
0.00777193
0.000907501
0.00777511
0.000532745
0.00778301
0.0010329
0.00778779
0.000621694
0.00779407
0.000787164
0.00779633
0.000314943
0.00779788
0.000240752
0.0077953
-0.00024043
0.00779104
-0.000433876
0.0077832
-0.000852251
0.00777352
-0.00106794
0.00776137
-0.00135877
0.00774801
-0.0015119
0.00773348
-0.00165652
0.00771851
-0.00173519
0.00770371
-0.00173391
0.00768906
-0.00175764
0.00767559
-0.00164287
0.00766235
-0.0016601
0.00765081
-0.00147766
0.00763909
-0.00153181
0.00762946
-0.00129051
0.00761877
-0.00142459
0.00761065
-0.00113054
0.00760049
-0.00133213
0.00759372
-0.000969244
0.00758413
-0.0011844
0.00757914
-0.000747427
0.00757141
-0.000844449
0.00756968
-0.000332987
0.00756717
-0.000151186
0.000800554
0.00747734
-0.0119818
0.00739346
-0.0105265
0.00732231
-0.00922909
0.00726125
-0.00813981
0.00720937
-0.00706993
0.0071673
-0.00573445
0.00713792
-0.00372288
0.00712383
-0.00098656
0.00712743
0.00218677
0.00715017
0.00523338
0.00719195
0.00762204
0.00724986
0.00902652
0.00731761
0.00937782
0.00738709
0.00887981
0.00745079
0.00785877
0.00750484
0.00671954
0.00754915
0.00569439
0.00758648
0.0049372
0.00761892
0.0043336
0.00764811
0.00388309
0.00767421
0.0034506
0.00769801
0.00312038
0.00771915
0.00275888
0.00773867
0.00253054
0.0077558
0.00221981
0.00777185
0.00206656
0.00778559
0.00177851
0.00779871
0.00168924
0.00780936
0.00139032
0.00781999
0.00137928
0.00782777
0.00104283
0.00783617
0.00110958
0.00784109
0.000706354
0.00784755
0.000883883
0.00784966
0.000387101
0.00785449
0.00070744
0.00785368
7.12447e-05
0.00785733
0.000601821
0.00785348
-0.000232379
0.00785649
0.000586365
0.00785011
-0.000451059
0.00785452
0.000810477
0.00784835
-0.000403302
0.0078587
0.00141267
0.00785749
-6.38469e-05
0.00787765
0.00208979
0.00788075
-0.000197953
0.00790018
0.00117716
0.00788956
-0.00264399
0.00787206
-0.00449054
0.00781083
-0.0104271
0.00764737
-0.0244676
0.00735939
-0.0398658
0.00742019
0.00737571
0.00762555
0.0271554
0.00775085
0.016149
0.0077991
0.00757617
0.00783606
0.00637433
0.00783376
0.00144028
0.00783191
0.00121009
0.0078098
-0.00151435
0.00779974
-0.000382849
0.00778214
-0.00152798
0.00777766
-0.000111336
0.00776865
-0.000703656
0.00776978
0.000471231
0.00776783
6.4972e-05
0.00777349
0.000901848
0.00777663
0.0005296
0.00778449
0.00102504
0.00778924
0.000616947
0.00779548
0.00078092
0.00779773
0.000312696
0.00779927
0.000239212
0.0077967
-0.000237856
0.00779245
-0.000429627
0.00778463
-0.000844435
0.00777498
-0.00105829
0.00776287
-0.00134666
0.00774953
-0.00149856
0.00773504
-0.00164203
0.00772009
-0.00172024
0.00770532
-0.00171914
0.00769068
-0.001743
0.00767721
-0.0016294
0.00766397
-0.00164686
0.00765242
-0.0014661
0.00764069
-0.00152008
0.00763106
-0.00128088
0.00762036
-0.0014139
0.00761224
-0.00112241
0.0076021
-0.001322
0.00759536
-0.000962504
0.00758583
-0.00117488
0.0075809
-0.000742493
0.0075733
-0.000836846
0.00757168
-0.000331367
0.00756935
-0.000148855
0.000792268
0.0074773
-0.0118834
0.00739331
-0.0104426
0.007322
-0.00915778
0.00726075
-0.00807856
0.00720867
-0.00701785
0.00716645
-0.00569223
0.00713703
-0.00369346
0.00712309
-0.000972614
0.00712702
0.00218283
0.00715027
0.00521014
0.00719261
0.0075797
0.007251
0.00896813
0.00731907
0.00930975
0.0073887
0.00881018
0.00745243
0.00779504
0.0075065
0.00666547
0.00755087
0.00565002
0.00758829
0.00489978
0.00762081
0.00430109
0.00765007
0.00385382
0.00767624
0.00342443
0.0077001
0.00309653
0.00772127
0.0027377
0.00774083
0.00251098
0.007758
0.00220264
0.00777408
0.00205048
0.00778785
0.00176474
0.00780099
0.0016761
0.00781166
0.00137966
0.00782231
0.00136862
0.00783011
0.00103503
0.00783853
0.00110116
0.00784347
0.000701413
0.00784995
0.000877408
0.00785208
0.000384969
0.00785693
0.000702588
0.00785614
7.20326e-05
0.00785981
0.000598153
0.007856
-0.000228567
0.00785903
0.000583327
0.00785271
-0.000444731
0.00785717
0.000806014
0.00785107
-0.000397202
0.00786148
0.00140227
0.00786031
-6.26793e-05
0.00788045
0.00206965
0.00788349
-0.00020099
0.00790273
0.00115791
0.00789188
-0.00263315
0.00787391
-0.00447257
0.00781206
-0.0103653
0.00764754
-0.0243031
0.00735839
-0.0395766
0.00741916
0.00731494
0.00762515
0.0269494
0.0077508
0.0160233
0.00779944
0.00752753
0.00783674
0.00633703
0.00783474
0.00144228
0.00783313
0.00121171
0.0078112
-0.00149243
0.00780125
-0.000372893
0.00778371
-0.00151044
0.00777924
-0.000106865
0.00777024
-0.000694661
0.00777136
0.000470109
0.0077694
6.69314e-05
0.00777503
0.00089622
0.00777815
0.000526488
0.00778597
0.00101721
0.00779068
0.000612237
0.00779689
0.000774707
0.00779912
0.000310467
0.00780065
0.000237678
0.00779809
-0.000235288
0.00779385
-0.000425393
0.00778606
-0.000836641
0.00777644
-0.00104867
0.00776435
-0.00133457
0.00775105
-0.00148526
0.00773659
-0.00162757
0.00772167
-0.00170532
0.00770691
-0.00170438
0.00769228
-0.00172838
0.00767882
-0.00161594
0.00766557
-0.00163361
0.00765402
-0.00145455
0.00764228
-0.00150834
0.00763264
-0.00127124
0.00762194
-0.0014032
0.00761382
-0.00111429
0.0076037
-0.00131188
0.00759699
-0.000955788
0.00758753
-0.00116542
0.00758265
-0.000737616
0.00757517
-0.000829368
0.00757365
-0.00032985
0.00757151
-0.000146709
0.000783834
0.00747727
-0.0117849
0.00739317
-0.0103585
0.0073217
-0.00908632
0.00726026
-0.00801712
0.00720799
-0.00696558
0.00716562
-0.00564986
0.00713616
-0.003664
0.00712235
-0.000958807
0.00712663
0.00217855
0.00715038
0.00518639
0.00719327
0.0075368
0.00725214
0.00890926
0.00732052
0.00924138
0.00739029
0.00874041
0.00745406
0.00773127
0.00750816
0.00661137
0.00755258
0.0056056
0.00759008
0.00486229
0.00762268
0.00426848
0.00765202
0.00382448
0.00767825
0.0033982
0.00770216
0.00307262
0.00772338
0.00271648
0.00774298
0.00249138
0.00776018
0.00218544
0.00777629
0.00203438
0.00779008
0.00175095
0.00780325
0.00166293
0.00781394
0.00136897
0.00782461
0.00135795
0.00783244
0.0010272
0.00784087
0.00109273
0.00784583
0.000696452
0.00785233
0.000870914
0.00785448
0.000382817
0.00785935
0.000697718
0.00785858
7.27975e-05
0.00786227
0.000594466
0.00785849
-0.000224787
0.00786156
0.000580257
0.00785529
-0.000438457
0.0078598
0.000801499
0.00785378
-0.000391175
0.00786423
0.00139181
0.00786311
-6.15585e-05
0.00788323
0.00204954
0.0078862
-0.000203966
0.00790526
0.00113885
0.00789419
-0.00262207
0.00787575
-0.00445414
0.00781328
-0.0103028
0.00764771
-0.0241375
0.00735739
-0.0392863
0.00741815
0.00725418
0.00762474
0.0267428
0.00775075
0.0158973
0.00779977
0.00747851
0.00783741
0.00629939
0.00783571
0.00144397
0.00783433
0.00121308
0.00781259
-0.00147069
0.00780275
-0.000363047
0.00778526
-0.00149296
0.00778081
-0.00010241
0.00777182
-0.000685672
0.00777294
0.000468992
0.00777097
6.88998e-05
0.00777657
0.000890614
0.00777965
0.000523409
0.00778743
0.00100943
0.00779211
0.000607562
0.00779829
0.000768524
0.0078005
0.000308255
0.00780203
0.000236151
0.00779947
-0.000232725
0.00779525
-0.000421172
0.00778748
-0.00082887
0.00777788
-0.00103908
0.00776583
-0.00132252
0.00775255
-0.00147198
0.00773812
-0.00161314
0.00772323
-0.00169043
0.00770849
-0.00168964
0.00769387
-0.00171376
0.00768042
-0.00160248
0.00766717
-0.00162037
0.00765561
-0.00144298
0.00764386
-0.00149659
0.00763421
-0.0012616
0.00762351
-0.0013925
0.00761539
-0.00110617
0.0076053
-0.00130178
0.0075986
-0.000949097
0.00758921
-0.00115602
0.00758439
-0.000732797
0.00757703
-0.000822013
0.00757562
-0.000328434
0.00757365
-0.000144745
0.000775255
0.00747723
-0.0116864
0.00739303
-0.0102743
0.0073214
-0.00901469
0.00725978
-0.00795549
0.00720731
-0.00691311
0.0071648
-0.00560735
0.0071353
-0.0036345
0.00712163
-0.000945139
0.00712625
0.00217394
0.00715049