/*--------------------------------*- C++ -*----------------------------------*\
| =========                 |                                                 |
| \\      /  F ield         | OpenFOAM: The Open Source CFD Toolbox           |
|  \\    /   O peration     | Version:  2412                                  |
|   \\  /    A nd           | Website:  www.openfoam.com                      |
|    \\/     M anipulation  |                                                 |
\*---------------------------------------------------------------------------*/
FoamFile
{
    version     2.0;
    format      ascii;
    arch        "LSB;label=32;scalar=64";
    class       volVectorField;
    location    "0.8";
    object      U;
}
// * * * * * * * * * * * * * * * * * * * * * * * * * * * * * * * * * * * * * //

dimensions      [0 1 -1 0 0 0 0];

internalField   nonuniform List<vector> 
13068
(
(100.007 0.611567 0)
(100.227 1.73799 -4.38523e-17)
(100.676 2.76722 -4.21799e-17)
(101.294 3.65826 0)
(102.082 4.5434 0)
(103.016 5.62545 0)
(104.143 7.19049 0)
(105.49 9.27485 6.33188e-17)
(107.115 11.696 0)
(109.046 14.0747 -3.18307e-17)
(111.347 16.06 0)
(114.013 17.4121 0)
(117.045 18.0638 0)
(120.306 18.1196 0)
(123.715 17.7887 0)
(127.088 17.3499 3.34002e-17)
(130.463 16.9907 -3.23358e-17)
(133.765 16.8196 3.09554e-17)
(137.181 16.781 2.959e-17)
(140.595 16.8573 2.83004e-17)
(144.22 16.9685 2.72114e-17)
(147.84 17.1592 -5.93416e-22)
(151.748 17.3599 2.52832e-17)
(155.623 17.6505 -2.43444e-17)
(159.885 17.9282 -5.79699e-22)
(164.068 18.3127 0)
(168.767 18.6541 0)
(173.311 19.1323 2.08681e-17)
(178.549 19.5294 -2.01198e-17)
(183.512 20.1104 0)
(189.414 20.5589 1.84139e-17)
(194.863 21.2603 0)
(201.594 21.7579 0)
(207.604 22.607 1.55647e-17)
(215.378 23.1537 -2.99705e-17)
(222.041 24.1899 0)
(231.147 24.7878 1.3261e-17)
(238.571 26.0631 -1.18618e-17)
(249.399 26.7224 6.26704e-22)
(257.722 28.3178 -9.92843e-18)
(270.822 29.0902 1.95635e-17)
(280.264 31.1462 7.94205e-18)
(296.472 32.1486 -4.58846e-22)
(307.469 34.8188 5.94526e-18)
(328.09 36.1413 6.48953e-18)
(341.414 39.3471 3.94149e-18)
(368.212 40.8128 -5.02447e-18)
(384.766 43.8509 1.82348e-18)
(419.301 45.0953 -3.56099e-18)
(439.767 46.2872 5.33254e-19)
(482.361 46.9712 2.09677e-18)
(507.908 39.8851 3.36807e-18)
(549.565 37.436 1.30045e-21)
(577.406 0.999734 -4.75115e-19)
(551.517 -18.2586 0)
(540.888 -26.9816 -6.44395e-18)
(506.553 -30.5204 0)
(490.702 -30.2588 0)
(460.451 -31.6053 0)
(444.284 -30.6082 0)
(418.649 -30.7014 0)
(403.852 -28.842 0)
(383.107 -28.1723 3.18706e-18)
(370.303 -26.2549 0)
(353.593 -25.492 1.48861e-22)
(342.433 -23.8682 3.94627e-18)
(328.753 -23.1881 -5.30286e-18)
(318.94 -21.8972 4.94387e-22)
(307.566 -21.347 6.34906e-18)
(298.852 -20.3822 -5.32347e-22)
(289.174 -19.9853 -7.36336e-18)
(281.285 -19.3123 -7.64647e-18)
(272.801 -19.0462 3.47021e-22)
(265.521 -18.5851 8.76933e-18)
(257.899 -18.3863 0)
(251.121 -18.0443 9.9198e-18)
(244.172 -17.8487 4.58314e-22)
(237.855 -17.5494 -1.11167e-17)
(231.477 -17.3078 -1.17626e-17)
(225.62 -17.0026 0)
(219.763 -16.6905 4.04907e-22)
(214.385 -16.3645 1.35134e-17)
(209.019 -15.9836 0)
(204.135 -15.6529 -2.35203e-22)
(199.222 -15.2237 1.50724e-17)
(194.832 -14.9233 -1.55916e-17)
(190.306 -14.4692 0)
(186.395 -14.234 -1.6549e-17)
(182.164 -13.7653 0)
(178.715 -13.6157 8.85785e-23)
(174.673 -13.1231 4.42458e-22)
(171.694 -13.0569 0)
(167.721 -12.5192 -5.57242e-22)
(165.262 -12.504 0)
(161.232 -11.9022 -1.99114e-17)
(159.391 -11.8579 0)
(155.178 -11.1899 0)
(154.104 -11.0021 0)
(149.622 -9.99898 0)
(100.007 0.605757 -4.49301e-17)
(100.226 1.72155 4.38674e-17)
(100.672 2.74117 -4.21989e-17)
(101.288 3.62428 0)
(102.072 4.50212 0)
(103.003 5.57667 0)
(104.128 7.13273 0)
(105.476 9.20682 -3.16556e-17)
(107.104 11.6164 0)
(109.042 13.9823 3.17951e-17)
(111.352 15.9542 0)
(114.028 17.2938 -3.30304e-17)
(117.069 17.9361 3.36216e-17)
(120.334 17.9872 3.39691e-17)
(123.746 17.6567 0)
(127.119 17.2213 -3.33534e-17)
(130.495 16.8658 0)
(133.799 16.6968 -6.18714e-17)
(137.217 16.6588 -2.95816e-17)
(140.633 16.7344 -2.82987e-17)
(144.261 16.8445 -2.72117e-17)
(147.883 17.0337 -5.23511e-17)
(151.792 17.2328 -5.05704e-17)
(155.67 17.5212 2.43449e-17)
(159.933 17.7968 -2.35316e-17)
(164.118 18.1783 0)
(168.82 18.5174 2.18216e-17)
(173.365 18.992 0)
(178.605 19.3862 2.01183e-17)
(183.57 19.9629 0)
(189.475 20.4083 -1.84121e-17)
(194.926 21.1046 0)
(201.659 21.5987 0)
(207.672 22.4416 0)
(215.449 22.9846 1.49841e-17)
(222.115 24.0131 0)
(231.224 24.6071 -1.32587e-17)
(238.652 25.873 1.18609e-17)
(249.483 26.5281 1.1523e-17)
(257.812 28.1118 1.26097e-21)
(270.917 28.8794 -9.78081e-18)
(280.366 30.9203 -1.58822e-17)
(296.58 31.9161 -8.0791e-18)
(307.586 34.5661 0)
(328.214 35.8786 -1.29789e-17)
(341.55 39.0586 3.93896e-18)
(368.348 40.5118 5.02368e-18)
(384.911 43.5239 1.82091e-18)
(419.437 44.7563 3.56125e-18)
(439.906 45.9328 -5.33423e-19)
(482.461 46.6025 0)
(507.982 39.556 -3.37186e-18)
(549.524 37.1092 -7.89893e-19)
(577.282 0.993236 4.76461e-19)
(551.475 -18.0994 0)
(540.872 -26.7659 0)
(506.571 -30.2765 0)
(490.742 -30.0179 0)
(460.51 -31.3569 0)
(444.354 -30.37 0)
(418.728 -30.4649 0)
(403.935 -28.6221 0)
(383.191 -27.959 -3.18588e-18)
(370.384 -26.0572 -2.48865e-18)
(353.671 -25.3002 -4.22859e-18)
(342.508 -23.6889 -3.94573e-18)
(328.825 -23.014 -5.30234e-18)
(319.008 -21.7332 5.28846e-18)
(307.631 -21.1873 0)
(298.913 -20.2302 -5.29292e-22)
(289.232 -19.8361 -7.36323e-18)
(281.339 -19.1682 7.64706e-18)
(272.852 -18.9037 8.38449e-18)
(265.571 -18.4459 -8.77025e-18)
(257.947 -18.2484 0)
(251.169 -17.9089 -9.92069e-18)
(244.218 -17.7146 1.05792e-17)
(237.902 -17.4175 0)
(231.523 -17.1776 1.17618e-17)
(225.666 -16.8749 0)
(219.809 -16.5651 1.29456e-17)
(214.431 -16.2418 -2.7025e-17)
(209.064 -15.8639 0)
(204.181 -15.536 -2.91952e-17)
(199.266 -15.1102 -1.50723e-17)
(194.876 -14.8123 0)
(190.348 -14.3617 0)
(186.436 -14.1285 0)
(182.204 -13.6632 0)
(178.755 -13.5148 -1.75405e-17)
(174.711 -13.0259 1.78934e-17)
(171.732 -12.96 0)
(167.759 -12.4265 -3.7788e-17)
(165.3 -12.4106 0)
(161.27 -11.814 1.99212e-17)
(159.431 -11.7687 0)
(155.221 -11.1072 0)
(154.148 -10.919 0)
(149.671 -9.92591 0)
(100.007 0.599976 4.49396e-17)
(100.225 1.7052 0)
(100.669 2.71525 8.44426e-17)
(101.282 3.59047 -3.98251e-17)
(102.063 4.46102 0)
(102.991 5.52804 -3.43287e-17)
(104.113 7.07502 0)
(105.461 9.1387 -3.16505e-17)
(107.093 11.5365 0)
(109.038 13.8895 0)
(111.357 15.848 0)
(114.043 17.1751 6.59456e-17)
(117.091 17.8081 -3.35603e-17)
(120.362 17.8547 -3.39084e-17)
(123.775 17.5246 0)
(127.149 17.0926 0)
(130.527 16.7409 0)
(133.832 16.574 6.18324e-17)
(137.253 16.5364 0)
(140.671 16.6113 0)
(144.301 16.7204 5.04676e-22)
(147.925 16.908 2.61775e-17)
(151.837 17.1055 5.344e-22)
(155.716 17.3917 -2.43466e-17)
(159.982 17.6653 -2.35316e-17)
(164.168 18.0439 -2.26005e-17)
(168.872 18.3805 -2.18218e-17)
(173.419 18.8515 0)
(178.661 19.243 -2.0118e-17)
(183.628 19.8154 0)
(189.535 20.2576 1.84116e-17)
(194.988 20.9487 0)
(201.724 21.4394 0)
(207.74 22.276 0)
(215.519 22.8153 0)
(222.189 23.8361 0)
(231.3 24.4262 1.32577e-17)
(238.732 25.6826 0)
(249.567 26.3335 1.15207e-17)
(257.901 27.9056 1.25085e-21)
(271.01 28.6684 0)
(280.467 30.6941 7.94013e-18)
(296.686 31.6834 0)
(307.704 34.313 0)
(328.337 35.6156 3.51433e-22)
(341.684 38.7698 -3.939e-18)
(368.484 40.2105 -5.02353e-18)
(385.056 43.1967 -1.82093e-18)
(419.571 44.4171 -3.56064e-18)
(440.044 45.5783 5.35253e-19)
(482.559 46.234 0)
(508.055 39.2274 0)
(549.482 36.7833 7.94181e-19)
(577.158 0.986754 -4.76275e-19)
(551.433 -17.9407 0)
(540.856 -26.5505 0)
(506.588 -30.0328 0)
(490.781 -29.7771 2.78776e-18)
(460.569 -31.1086 0)
(444.423 -30.1318 -7.14674e-19)
(418.807 -30.2285 0)
(404.017 -28.402 0)
(383.274 -27.7457 0)
(370.464 -25.8594 2.48803e-18)
(353.749 -25.1084 0)
(342.582 -23.5096 0)
(328.896 -22.8398 -5.13372e-23)
(319.076 -21.5691 5.28697e-18)
(307.695 -21.0276 0)
(298.974 -20.078 -6.50726e-18)
(289.288 -19.6869 7.36353e-18)
(281.394 -19.0239 0)
(272.903 -18.7612 0)
(265.621 -18.3067 0)
(257.995 -18.1104 0)
(251.216 -17.7734 0)
(244.265 -17.5804 0)
(237.948 -17.2856 0)
(231.569 -17.0475 -1.17619e-17)
(225.712 -16.7471 0)
(219.855 -16.4397 0)
(214.477 -16.1191 1.35116e-17)
(209.11 -15.7441 0)
(204.226 -15.419 1.4597e-17)
(199.31 -14.9966 0)
(194.92 -14.7013 -1.55921e-17)
(190.39 -14.2541 0)
(186.478 -14.0229 0)
(182.243 -13.5612 0)
(178.794 -13.4139 0)
(174.749 -12.9286 0)
(171.771 -12.863 0)
(167.796 -12.3338 1.89e-17)
(165.339 -12.3173 0)
(161.309 -11.7259 0)
(159.471 -11.6795 2.0986e-17)
(155.264 -11.0245 0)
(154.191 -10.836 -2.22978e-17)
(149.72 -9.85287 0)
(100.007 0.594223 0)
(100.224 1.68893 0)
(100.666 2.68945 -4.22436e-17)
(101.276 3.5568 3.98577e-17)
(102.053 4.4201 0)
(102.978 5.47956 3.43564e-17)
(104.098 7.01741 3.25405e-17)
(105.447 9.07058 3.16472e-17)
(107.082 11.4565 0)
(109.033 13.7965 0)
(111.362 15.7415 -3.22816e-17)
(114.057 17.0561 -3.29156e-17)
(117.114 17.6798 0)
(120.39 17.7219 0)
(123.805 17.3923 0)
(127.179 16.9638 -3.32602e-17)
(130.558 16.6158 0)
(133.865 16.451 -4.74358e-22)
(137.289 16.4139 0)
(140.709 16.4881 -2.82939e-17)
(144.341 16.5962 4.97007e-22)
(147.967 16.7822 0)
(151.881 16.9781 2.52887e-17)
(155.762 17.262 0)
(160.029 17.5336 2.35327e-17)
(164.218 17.9093 2.26011e-17)
(168.923 18.2434 0)
(173.472 18.7109 2.0865e-17)
(178.717 19.0995 0)
(183.686 19.6677 0)
(189.595 20.1067 -1.84097e-17)
(195.05 20.7927 0)
(201.789 21.2799 -1.66982e-17)
(207.807 22.1103 0)
(215.589 22.6458 0)
(222.261 23.659 -1.37301e-17)
(231.376 24.245 -1.32553e-17)
(238.812 25.4921 0)
(249.651 26.1388 -1.15197e-17)
(257.989 27.6991 1.98457e-17)
(271.103 28.4571 9.7778e-18)
(280.567 30.4677 -7.93723e-18)
(296.792 31.4503 8.07747e-18)
(307.82 34.0596 0)
(328.459 35.3523 3.51344e-22)
(341.818 38.4807 -3.93648e-18)
(368.619 39.9089 0)
(385.2 42.8692 0)
(419.705 44.0777 3.56089e-18)
(440.181 45.2238 -5.3542e-19)
(482.657 45.8657 0)
(508.127 38.8993 3.37368e-18)
(549.441 36.4583 -7.9586e-19)
(577.035 0.980237 4.77649e-19)
(551.391 -17.7826 0)
(540.841 -26.3353 0)
(506.606 -29.7892 -4.53685e-19)
(490.819 -29.5365 -2.78287e-18)
(460.627 -30.8604 0)
(444.492 -29.8936 1.42899e-18)
(418.886 -29.992 0)
(404.099 -28.1819 9.3852e-19)
(383.357 -27.5323 0)
(370.544 -25.6615 2.48632e-18)
(353.826 -24.9164 0)
(342.656 -23.33 3.94313e-18)
(328.967 -22.6655 5.30109e-18)
(319.143 -21.4049 -5.28646e-18)
(307.759 -20.8678 6.34775e-18)
(299.034 -19.9257 0)
(289.345 -19.5375 7.36339e-18)
(281.447 -18.8796 -7.64647e-18)
(272.955 -18.6186 0)
(265.67 -18.1674 0)
(258.043 -17.9724 0)
(251.263 -17.6378 -9.92066e-18)
(244.311 -17.4462 0)
(237.994 -17.1536 0)
(231.615 -16.9173 0)
(225.758 -16.6193 0)
(219.9 -16.3143 0)
(214.522 -15.9963 0)
(209.155 -15.6243 0)
(204.271 -15.302 0)
(199.353 -14.8829 0)
(194.963 -14.5901 1.17711e-22)
(190.431 -14.1465 1.60116e-17)
(186.519 -13.9172 0)
(182.283 -13.459 0)
(178.834 -13.3129 0)
(174.786 -12.8313 0)
(171.809 -12.7659 0)
(167.833 -12.241 0)
(165.377 -12.2239 0)
(161.347 -11.6378 0)
(159.511 -11.5904 -2.09988e-17)
(155.306 -10.9418 -2.09704e-17)
(154.235 -10.7531 -4.63946e-22)
(149.769 -9.77984 0)
(100.007 0.588498 0)
(100.222 1.67273 4.39027e-17)
(100.663 2.66377 0)
(101.27 3.52329 0)
(102.044 4.37934 0)
(102.966 5.43122 3.43817e-17)
(104.084 6.95985 -3.25539e-17)
(105.433 9.00238 0)
(107.071 11.3762 0)
(109.03 13.7031 -3.16864e-17)
(111.367 15.6345 3.22335e-17)
(114.072 16.9367 -3.28584e-17)
(117.137 17.5512 0)
(120.417 17.589 0)
(123.834 17.26 0)
(127.209 16.8349 3.32152e-17)
(130.589 16.4907 0)
(133.898 16.3278 -3.08784e-17)
(137.324 16.2912 0)
(140.746 16.3647 2.82924e-17)
(144.381 16.4718 5.44293e-17)
(148.009 16.6563 0)
(151.925 16.8506 0)
(155.808 17.1323 0)
(160.077 17.4018 0)
(164.267 17.7746 0)
(168.974 18.1062 2.18205e-17)
(173.525 18.5702 -2.08649e-17)
(178.772 18.956 -2.01156e-17)
(183.743 19.5198 -1.91166e-17)
(189.655 19.9557 1.84092e-17)
(195.112 20.6365 -1.73502e-17)
(201.853 21.1203 1.66975e-17)
(207.874 21.9443 1.55567e-17)
(215.659 22.4761 1.49789e-17)
(222.334 23.4816 1.0631e-21)
(231.452 24.0637 1.32543e-17)
(238.891 25.3014 1.18532e-17)
(249.734 25.9438 1.15175e-17)
(258.077 27.4924 -9.92143e-18)
(271.196 28.2455 -5.4606e-22)
(280.667 30.241 7.93691e-18)
(296.898 31.2169 -1.61542e-17)
(307.935 33.8059 5.93912e-18)
(328.58 35.0886 6.48882e-18)
(341.951 38.1913 3.93653e-18)
(368.753 39.6071 -5.02225e-18)
(385.343 42.5415 0)
(419.837 43.7382 -3.56031e-18)
(440.316 44.8692 -5.37198e-19)
(482.754 45.4976 2.10046e-18)
(508.198 38.5718 -3.37743e-18)
(549.4 36.1343 0)
(576.914 0.97372 4.77509e-19)
(551.35 -17.6249 0)
(540.825 -26.1204 0)
(506.622 -29.5459 4.52926e-19)
(490.857 -29.2961 0)
(460.683 -30.6122 0)
(444.56 -29.6555 -1.42966e-18)
(418.963 -29.7555 0)
(404.18 -27.9618 -9.38012e-19)
(383.438 -27.3187 0)
(370.623 -25.4634 -4.97082e-18)
(353.903 -24.7243 0)
(342.729 -23.1504 -3.94257e-18)
(329.037 -22.4911 0)
(319.21 -21.2406 0)
(307.822 -20.7078 -6.34738e-18)
(299.094 -19.7732 0)
(289.401 -19.3881 -1.47271e-17)
(281.501 -18.7351 7.64702e-18)
(273.005 -18.4759 0)
(265.72 -18.0281 0)
(258.09 -17.8343 0)
(251.31 -17.5022 9.9215e-18)
(244.357 -17.312 1.05795e-17)
(238.04 -17.0216 0)
(231.66 -16.787 0)
(225.804 -16.4914 0)
(219.945 -16.1888 0)
(214.568 -15.8734 1.35092e-17)
(209.199 -15.5045 -1.40563e-17)
(204.315 -15.1849 0)
(199.397 -14.7692 1.50708e-17)
(195.006 -14.479 3.11857e-17)
(190.473 -14.0388 -1.60127e-17)
(186.56 -13.8115 0)
(182.322 -13.3568 0)
(178.873 -13.2118 0)
(174.824 -12.734 0)
(171.847 -12.6689 0)
(167.87 -12.1482 0)
(165.415 -12.1305 -1.97696e-17)
(161.385 -11.5497 1.9948e-17)
(159.55 -11.5012 0)
(155.348 -10.8591 4.19708e-17)
(154.278 -10.6703 2.2338e-17)
(149.817 -9.70685 0)
(100.007 0.582802 0)
(100.221 1.65661 -8.78324e-17)
(100.66 2.63822 0)
(101.264 3.48994 -3.99172e-17)
(102.035 4.33874 0)
(102.953 5.38301 -3.44097e-17)
(104.07 6.90237 0)
(105.419 8.93413 0)
(107.061 11.2958 3.14098e-17)
(109.026 13.6094 6.33018e-17)
(111.373 15.5272 3.21849e-17)
(114.087 16.8169 3.28023e-17)
(117.159 17.4223 -3.33783e-17)
(120.444 17.4559 3.37287e-17)
(123.863 17.1275 0)
(127.239 16.7059 0)
(130.62 16.3654 0)
(133.931 16.2046 0)
(137.359 16.1684 2.95475e-17)
(140.784 16.2412 0)
(144.42 16.3473 -2.72159e-17)
(148.05 16.5302 0)
(151.968 16.723 2.52914e-17)
(155.853 17.0024 -2.43491e-17)
(160.124 17.2698 0)
(164.316 17.6398 0)
(169.025 17.9689 -5.76649e-22)
(173.578 18.4293 2.08634e-17)
(178.826 18.8123 2.01153e-17)
(183.799 19.3718 1.91161e-17)
(189.714 19.8046 1.84074e-17)
(195.173 20.4802 1.73496e-17)
(201.917 20.9605 1.66955e-17)
(207.94 21.7783 -1.5556e-17)
(215.728 22.3063 -1.4978e-17)
(222.406 23.3041 1.05484e-21)
(231.527 23.8822 0)
(238.97 25.1104 -2.37033e-17)
(249.816 25.7486 -6.00414e-22)
(258.164 27.2855 0)
(271.287 28.0337 -9.77593e-18)
(280.766 30.014 -7.93405e-18)
(297.003 30.9832 8.07676e-18)
(308.05 33.5518 -5.93919e-18)
(328.7 34.8246 0)
(342.082 37.9016 -3.93405e-18)
(368.885 39.3049 5.02212e-18)
(385.484 42.2136 0)
(419.969 43.3984 7.12072e-18)
(440.451 44.5146 1.07552e-18)
(482.85 45.1296 -2.10156e-18)
(508.269 38.2448 0)
(549.359 35.8112 0)
(576.793 0.9672 -9.57067e-19)
(551.309 -17.4678 1.64103e-19)
(540.808 -25.9057 0)
(506.638 -29.3028 0)
(490.893 -29.0558 -2.77514e-18)
(460.739 -30.3641 -1.29396e-18)
(444.627 -29.4174 7.14668e-19)
(419.04 -29.519 0)
(404.26 -27.7415 0)
(383.52 -27.1051 -3.18177e-18)
(370.702 -25.2652 2.4845e-18)
(353.979 -24.532 0)
(342.802 -22.9706 3.94102e-18)
(329.107 -22.3165 -5.2999e-18)
(319.277 -21.0762 0)
(307.885 -20.5477 0)
(299.154 -19.6207 0)
(289.457 -19.2385 1.47272e-17)
(281.554 -18.5906 0)
(273.056 -18.3331 0)
(265.768 -17.8886 -8.77086e-18)
(258.138 -17.6961 -9.45225e-18)
(251.357 -17.3666 -9.9212e-18)
(244.403 -17.1777 -1.05801e-17)
(238.086 -16.8895 0)
(231.705 -16.6567 -1.17604e-17)
(225.849 -16.3635 0)
(219.99 -16.0633 0)
(214.613 -15.7505 -2.70166e-17)
(209.244 -15.3846 3.33906e-22)
(204.359 -15.0678 -1.45946e-17)
(199.44 -14.6554 -1.50707e-17)
(195.049 -14.3677 -1.55932e-17)
(190.514 -13.9311 0)
(186.601 -13.7057 1.6558e-17)
(182.361 -13.2545 0)
(178.912 -13.1107 -1.75543e-17)
(174.861 -12.6366 -1.79077e-17)
(171.885 -12.5717 -1.86224e-17)
(167.906 -12.0554 0)
(165.453 -12.0372 -3.17448e-22)
(161.423 -11.4615 -6.31679e-22)
(159.59 -11.4122 0)
(155.39 -10.7765 -4.2e-17)
(154.321 -10.5875 -2.23587e-17)
(149.865 -9.63388 0)
(100.007 0.577133 0)
(100.22 1.64057 8.7857e-17)
(100.657 2.61279 0)
(101.258 3.45674 3.99496e-17)
(102.026 4.29832 3.70943e-17)
(102.941 5.33495 -3.44354e-17)
(104.056 6.84494 0)
(105.405 8.86582 0)
(107.051 11.2151 -6.6055e-22)
(109.022 13.5154 -3.16156e-17)
(111.378 15.4194 -4.08852e-22)
(114.102 16.6967 -3.2746e-17)
(117.182 17.2932 6.66384e-17)
(120.471 17.3226 -3.36707e-17)
(123.892 16.995 0)
(127.268 16.5768 -3.31259e-17)
(130.65 16.24 0)
(133.963 16.0812 0)
(137.393 16.0455 -5.90795e-17)
(140.821 16.1175 -2.8288e-17)
(144.46 16.2227 0)
(148.091 16.404 0)
(152.011 16.5952 -2.52935e-17)
(155.898 16.8724 2.43507e-17)
(160.171 17.1377 0)
(164.364 17.5048 0)
(169.076 17.8315 -2.18205e-17)
(173.63 18.2883 -7.22615e-22)
(178.881 18.6684 0)
(183.856 19.2236 1.91141e-17)
(189.772 19.6533 -1.84068e-17)
(195.234 20.3237 0)
(201.98 20.8005 -3.3389e-17)
(208.006 21.612 -1.55533e-17)
(215.796 22.1363 -1.49759e-17)
(222.477 23.1264 1.04652e-21)
(231.602 23.7005 -1.32504e-17)
(239.048 24.9193 1.18501e-17)
(249.898 25.5531 -1.15149e-17)
(258.251 27.0783 9.91617e-18)
(271.378 27.8216 0)
(280.864 29.7867 7.93374e-18)
(297.107 30.7492 8.07574e-18)
(308.164 33.2975 0)
(328.819 34.5603 0)
(342.213 37.6115 7.86694e-18)
(369.017 39.0025 0)
(385.625 41.8855 0)
(420.099 43.0585 -3.56042e-18)
(440.584 44.16 -5.38325e-19)
(482.945 44.7618 0)
(508.339 37.9183 0)
(549.318 35.4891 0)
(576.673 0.960673 4.79571e-19)
(551.268 -17.3111 -2.44557e-19)
(540.792 -25.6913 0)
(506.653 -29.06 -4.55506e-19)
(490.929 -28.8156 2.77089e-18)
(460.795 -30.1162 1.29243e-18)
(444.693 -29.1794 0)
(419.116 -29.2825 0)
(404.339 -27.5212 0)
(383.6 -26.8914 -1.33308e-22)
(370.78 -25.0669 0)
(354.055 -24.3397 4.2257e-18)
(342.875 -22.7907 -7.8804e-18)
(329.176 -22.1419 5.29922e-18)
(319.343 -20.9116 -5.28293e-18)
(307.948 -20.3875 -6.3464e-18)
(299.213 -19.468 -6.50442e-18)
(289.513 -19.0888 -1.47273e-17)
(281.607 -18.446 0)
(273.106 -18.1903 0)
(265.817 -17.7491 1.75429e-17)
(258.185 -17.5579 9.45316e-18)
(251.403 -17.2309 1.98435e-17)
(244.449 -17.0433 1.05799e-17)
(238.131 -16.7574 0)
(231.75 -16.5264 1.17605e-17)
(225.894 -16.2355 -1.23311e-17)
(220.035 -15.9377 1.29406e-17)
(214.658 -15.6276 1.35075e-17)
(209.288 -15.2646 1.40546e-17)
(204.403 -14.9506 2.91879e-17)
(199.483 -14.5416 1.507e-17)
(195.091 -14.2564 0)
(190.555 -13.8232 -1.60139e-17)
(186.641 -13.5999 -1.65597e-17)
(182.4 -13.1522 -1.69462e-17)
(178.95 -13.0095 3.51152e-17)
(174.898 -12.5392 3.5823e-17)
(171.922 -12.4746 1.86275e-17)
(167.943 -11.9625 1.89222e-17)
(165.49 -11.9437 3.95721e-17)
(161.461 -11.3733 -1.99666e-17)
(159.629 -11.3231 -2.10386e-17)
(155.431 -10.6938 2.10149e-17)
(154.363 -10.5048 2.23783e-17)
(149.913 -9.56094 2.2062e-17)
(100.007 0.571491 0)
(100.219 1.62461 -8.78815e-17)
(100.654 2.58749 0)
(101.252 3.42369 0)
(102.017 4.25805 -3.71299e-17)
(102.929 5.28703 3.44637e-17)
(104.042 6.78759 0)
(105.391 8.79746 0)
(107.041 11.1343 -3.13697e-17)
(109.019 13.421 0)
(111.384 15.3113 -6.41795e-17)
(114.117 16.5762 3.2691e-17)
(117.204 17.1637 -3.32607e-17)
(120.497 17.1891 3.36127e-17)
(123.92 16.8624 0)
(127.297 16.4477 6.61653e-17)
(130.68 16.1145 0)
(133.995 15.9577 -3.08232e-17)
(137.428 15.9224 4.47057e-22)
(140.857 15.9938 2.82867e-17)
(144.498 16.098 0)
(148.132 16.2777 2.61855e-17)
(152.054 16.4673 2.52947e-17)
(155.942 16.7423 0)
(160.217 17.0055 0)
(164.413 17.3697 2.26003e-17)
(169.126 17.6939 0)
(173.682 18.1472 -2.08626e-17)
(178.935 18.5244 0)
(183.912 19.0754 -1.91137e-17)
(189.83 19.5018 0)
(195.294 20.167 0)
(202.043 20.6404 1.66935e-17)
(208.071 21.4456 1.55526e-17)
(215.865 21.9661 2.99494e-17)
(222.548 22.9486 1.37234e-17)
(231.676 23.5186 1.32494e-17)
(239.126 24.728 0)
(249.979 25.3575 0)
(258.337 26.871 -1.20171e-21)
(271.469 27.6093 0)
(280.962 29.5592 7.93093e-18)
(297.21 30.5149 -1.61508e-17)
(308.277 33.0429 0)
(328.938 34.2957 0)
(342.343 37.3212 -1.23807e-21)
(369.148 38.6997 0)
(385.764 41.5571 0)
(420.229 42.7185 3.55988e-18)
(440.717 43.8054 -5.40048e-19)
(483.039 44.3942 2.10339e-18)
(508.408 37.5924 0)
(549.277 35.1678 -8.09222e-19)
(576.555 0.954139 0)
(551.227 -17.1549 8.02782e-20)
(540.775 -25.4772 -6.41013e-18)
(506.667 -28.8173 9.11044e-19)
(490.964 -28.5755 0)
(460.849 -29.8683 0)
(444.759 -28.9413 -7.16323e-19)
(419.191 -29.0459 2.19554e-18)
(404.418 -27.3009 0)
(383.68 -26.6775 3.17943e-18)
(370.858 -24.8684 0)
(354.129 -24.1472 -8.44999e-18)
(342.947 -22.6107 4.82878e-22)
(329.245 -21.9671 5.29863e-18)
(319.409 -20.7469 4.76698e-22)
(308.01 -20.2272 6.34599e-18)
(299.272 -19.3153 1.30081e-17)
(289.568 -18.939 7.36377e-18)
(281.66 -18.3012 0)
(273.156 -18.0473 8.38683e-18)
(265.865 -17.6095 -8.77201e-18)
(258.232 -17.4197 -9.45327e-18)
(251.449 -17.0951 -9.92228e-18)
(244.494 -16.9089 -1.05806e-17)
(238.176 -16.6252 0)
(231.795 -16.396 -1.17597e-17)
(225.939 -16.1075 2.46612e-17)
(220.08 -15.8121 -1.29401e-17)
(214.702 -15.5046 -1.35061e-17)
(209.332 -15.1446 -1.40533e-17)
(204.447 -14.8333 -1.45934e-17)
(199.525 -14.4277 -3.01394e-17)
(195.134 -14.145 0)
(190.595 -13.7154 1.6015e-17)
(186.682 -13.4939 -1.65614e-17)
(182.438 -13.0498 3.3749e-22)
(178.989 -12.9083 -3.51218e-17)
(174.934 -12.4417 -1.79153e-17)
(171.959 -12.3774 -1.8633e-17)
(167.979 -11.8696 -3.78562e-17)
(165.527 -11.8503 3.11482e-22)
(161.498 -11.2851 0)
(159.668 -11.2341 2.10512e-17)
(155.472 -10.6111 0)
(154.405 -10.4221 -2.23988e-17)
(149.96 -9.48802 -2.20835e-17)
(100.007 0.565876 0)
(100.218 1.60872 4.3954e-17)
(100.651 2.5623 0)
(101.246 3.39079 0)
(102.009 4.21794 0)
(102.918 5.23924 3.44897e-17)
(104.028 6.73029 -3.26038e-17)
(105.378 8.72904 3.16274e-17)
(107.031 11.0532 3.13489e-17)
(109.015 13.3263 0)
(111.389 15.2028 3.20428e-17)
(114.131 16.4553 0)
(117.226 17.034 0)
(120.524 17.0555 -3.35561e-17)
(123.948 16.7296 0)
(127.326 16.3185 -3.304e-17)
(130.71 15.989 0)
(134.027 15.834 4.52807e-22)
(137.462 15.7992 2.95244e-17)
(140.894 15.8699 0)
(144.537 15.9731 2.72183e-17)
(148.173 16.1513 -2.61878e-17)
(152.096 16.3393 -5.06946e-22)
(155.987 16.612 0)
(160.264 16.8732 0)
(164.461 17.2345 -6.48339e-22)
(169.176 17.5562 -2.18193e-17)
(173.734 18.0059 0)
(178.988 18.3803 2.01122e-17)
(183.967 18.9269 0)
(189.888 19.3502 0)
(195.354 20.0102 0)
(202.105 20.4801 1.66915e-17)
(208.136 21.279 0)
(215.932 21.7957 -1.49735e-17)
(222.619 22.7705 0)
(231.749 23.3365 0)
(239.203 24.5365 -1.18448e-17)
(250.06 25.1616 -1.15111e-17)
(258.423 26.6634 -9.91341e-18)
(271.559 27.3967 9.77187e-18)
(281.059 29.3314 -7.93063e-18)
(297.312 30.2804 4.38063e-22)
(308.389 32.7879 0)
(329.056 34.0307 0)
(342.472 37.0306 -1.22836e-21)
(369.278 38.3967 0)
(385.903 41.2285 0)
(420.357 42.3782 -3.56015e-18)
(440.848 43.4507 5.40216e-19)
(483.132 44.0267 -1.06554e-22)
(508.476 37.267 0)
(549.236 34.8475 -1.30107e-21)
(576.437 0.947598 4.80204e-19)
(551.186 -16.9992 7.6251e-20)
(540.758 -25.2633 6.41102e-18)
(506.681 -28.5748 1.27237e-21)
(490.999 -28.3356 0)
(460.903 -29.6204 0)
(444.824 -28.7033 7.1569e-19)
(419.266 -28.8094 -7.08495e-23)
(404.496 -27.0804 0)
(383.759 -26.4636 0)
(370.934 -24.6699 0)
(354.204 -23.9546 8.44869e-18)
(343.018 -22.4306 4.78919e-22)
(329.314 -21.7922 -5.29793e-18)
(319.474 -20.5821 5.28134e-18)
(308.072 -20.0668 0)
(299.33 -19.1624 -6.50372e-18)
(289.624 -18.7891 7.36358e-18)
(281.712 -18.1564 7.64635e-18)
(273.206 -17.9043 -3.19863e-22)
(265.914 -17.4698 0)
(258.278 -17.2813 9.45416e-18)
(251.495 -16.9593 0)
(244.539 -16.7744 0)
(238.221 -16.493 0)
(231.84 -16.2656 2.35191e-17)
(225.984 -15.9794 -1.23301e-17)
(220.124 -15.6864 0)
(214.746 -15.3816 2.70105e-17)
(209.375 -15.0245 3.26912e-22)
(204.491 -14.716 0)
(199.568 -14.3137 1.50695e-17)
(195.176 -14.0336 0)
(190.636 -13.6074 -1.60154e-17)
(186.722 -13.3879 1.54975e-23)
(182.476 -12.9473 3.35017e-22)
(179.027 -12.807 3.51284e-17)
(174.971 -12.3441 0)
(171.997 -12.2801 -1.88364e-22)
(168.015 -11.7766 3.78674e-17)
(165.565 -11.7569 -3.96049e-17)
(161.535 -11.1969 -1.99839e-17)
(159.706 -11.1451 0)
(155.513 -10.5285 0)
(154.447 -10.3395 -4.33742e-22)
(150.007 -9.41513 0)
(100.007 0.560288 0)
(100.217 1.59291 -4.39638e-17)
(100.648 2.53723 0)
(101.241 3.35803 0)
(102 4.178 0)
(102.906 5.19159 -1.20939e-21)
(104.015 6.67306 3.2618e-17)
(105.365 8.66056 -3.16248e-17)
(107.021 10.972 -6.41961e-22)
(109.012 13.2313 3.15099e-17)
(111.395 15.0939 0)
(114.146 16.3341 0)
(117.248 16.904 0)
(120.55 16.9218 0)
(123.976 16.5968 0)
(127.354 16.1892 -3.29974e-17)
(130.74 15.8633 -3.20485e-17)
(134.059 15.7102 4.48612e-22)
(137.496 15.6759 -2.95164e-17)
(140.93 15.7458 2.82827e-17)
(144.575 15.8481 -2.72198e-17)
(148.213 16.0247 -2.6189e-17)
(152.139 16.2112 -5.02881e-22)
(156.03 16.4816 0)
(160.309 16.7407 2.35356e-17)
(164.508 17.0991 -2.26009e-17)
(169.225 17.4183 4.36385e-17)
(173.785 17.8645 -2.08604e-17)
(179.042 18.2361 -4.02233e-17)
(184.022 18.7784 0)
(189.946 19.1984 1.84028e-17)
(195.414 19.8532 0)
(202.167 20.3196 -3.33811e-17)
(208.2 21.1122 1.55483e-17)
(215.999 21.6252 -1.49715e-17)
(222.689 22.5923 -1.37185e-17)
(231.822 23.1542 0)
(239.279 24.3447 2.36866e-17)
(250.14 24.9656 1.15101e-17)
(258.508 26.4555 9.91027e-18)
(271.648 27.1839 -9.77125e-18)
(281.155 29.1033 0)
(297.414 30.0455 8.07452e-18)
(308.501 32.5327 0)
(329.173 33.7654 -6.48719e-18)
(342.6 36.7396 -3.93053e-18)
(369.407 38.0934 0)
(386.04 40.8997 0)
(420.485 42.0378 0)
(440.978 43.0961 0)
(483.224 43.6595 -1.01927e-22)
(508.543 36.9421 0)
(549.196 34.5281 8.13975e-19)
(576.32 0.94105 -7.37193e-22)
(551.146 -16.8439 -2.07838e-21)
(540.741 -25.0496 0)
(506.694 -28.3325 -4.56297e-19)
(491.032 -28.0959 0)
(460.956 -29.3727 1.28778e-18)
(444.888 -28.4654 7.16981e-19)
(419.339 -28.5728 -2.19239e-18)
(404.573 -26.86 -9.31194e-19)
(383.837 -26.2496 0)
(371.011 -24.4712 -2.47922e-18)
(354.278 -23.7619 -4.22361e-18)
(343.089 -22.2504 3.93722e-18)
(329.382 -21.6172 0)
(319.54 -20.4172 0)
(308.134 -19.9062 0)
(299.389 -19.0094 0)
(289.678 -18.6391 -1.47274e-17)
(281.764 -18.0114 -7.64685e-18)
(273.255 -17.7612 -1.67757e-17)
(265.961 -17.3301 -8.77201e-18)
(258.324 -17.1429 0)
(251.541 -16.8234 0)
(244.584 -16.6399 1.05806e-17)
(238.266 -16.3608 1.1115e-17)
(231.884 -16.1351 -1.17594e-17)
(226.028 -15.8513 0)
(220.168 -15.5607 0)
(214.791 -15.2585 -1.35044e-17)
(209.419 -14.9044 1.40516e-17)
(204.534 -14.5986 0)
(199.61 -14.1997 0)
(195.217 -13.9221 1.55943e-17)
(190.676 -13.4994 3.20326e-17)
(186.761 -13.2819 1.52714e-23)
(182.514 -12.8448 1.69528e-17)
(179.065 -12.7057 -1.75675e-17)
(175.007 -12.2465 0)
(172.033 -12.1829 1.86433e-17)
(168.051 -11.6836 -1.89395e-17)
(165.601 -11.6635 -3.05581e-22)
(161.572 -11.1087 1.99934e-17)
(159.744 -11.0561 0)
(155.554 -10.4459 -2.10574e-17)
(154.489 -10.2569 2.24379e-17)
(150.053 -9.34227 0)
(100.007 0.554727 -4.49908e-17)
(100.216 1.57717 4.3978e-17)
(100.645 2.51227 0)
(101.235 3.32542 4.00691e-17)
(101.991 4.1382 0)
(102.894 5.14407 -1.19943e-21)
(104.002 6.61589 3.26303e-17)
(105.352 8.59202 0)
(107.011 10.8905 -3.13096e-17)
(109.009 13.136 -4.85622e-22)
(111.401 14.9846 0)
(114.161 16.2125 0)
(117.27 16.7738 0)
(120.576 16.7878 0)
(124.004 16.4639 0)
(127.383 16.0598 6.5912e-17)
(130.769 15.7375 3.20194e-17)
(134.09 15.5864 6.15428e-17)
(137.53 15.5524 2.95095e-17)
(140.966 15.6217 -2.82816e-17)
(144.613 15.7229 2.72204e-17)
(148.253 15.898 2.61913e-17)
(152.18 16.0829 -2.53001e-17)
(156.074 16.3511 2.43544e-17)
(160.355 16.6081 -2.35367e-17)
(164.555 16.9636 -2.26003e-17)
(169.274 17.2803 -2.18193e-17)
(173.836 17.7229 2.08604e-17)
(179.095 18.0917 2.01112e-17)
(184.077 18.6296 0)
(190.003 19.0465 -5.98511e-22)
(195.473 19.6961 0)
(202.229 20.159 1.66896e-17)
(208.264 20.9453 -3.10942e-17)
(216.066 21.4545 1.49707e-17)
(222.758 22.4139 2.74344e-17)
(231.895 22.9718 1.3244e-17)
(239.355 24.1528 -1.18418e-17)
(250.219 24.7693 1.1508e-17)
(258.592 26.2475 -1.17242e-21)
(271.737 26.9708 0)
(281.251 28.875 0)
(297.515 29.8103 8.07355e-18)
(308.612 32.2771 0)
(329.289 33.4998 6.48728e-18)
(342.727 36.4484 0)
(369.535 37.7899 0)
(386.177 40.5707 0)
(420.611 41.6972 0)
(441.107 42.7414 0)
(483.316 43.2924 -2.10645e-18)
(508.61 36.6177 0)
(549.155 34.2096 0)
(576.204 0.934495 -4.8239e-19)
(551.106 -16.6891 -7.45264e-20)
(540.723 -24.8362 0)
(506.707 -28.0904 0)
(491.065 -27.8562 2.75785e-18)
(461.008 -29.125 -1.2864e-18)
(444.951 -28.2275 -7.16357e-19)
(419.412 -28.3362 2.19071e-18)
(404.65 -26.6394 6.86858e-22)
(383.915 -26.0354 3.17616e-18)
(371.086 -24.2725 2.47854e-18)
(354.351 -23.5691 0)
(343.159 -22.0701 -3.93567e-18)
(329.45 -21.4421 0)
(319.604 -20.2522 0)
(308.195 -19.7456 0)
(299.446 -18.8563 -6.50198e-18)
(289.733 -18.489 1.47274e-17)
(281.816 -17.8664 -7.64626e-18)
(273.305 -17.618 3.14876e-22)
(266.009 -17.1902 8.77284e-18)
(258.37 -17.0044 -9.45475e-18)
(251.586 -16.6874 0)
(244.628 -16.5054 -2.1162e-17)
(238.31 -16.2285 -1.11153e-17)
(231.928 -16.0046 1.17587e-17)
(226.072 -15.7232 1.23283e-17)
(220.212 -15.4349 0)
(214.834 -15.1354 0)
(209.462 -14.7843 -1.40503e-17)
(204.577 -14.4812 0)
(199.652 -14.0857 1.50683e-17)
(195.259 -13.8105 -1.55947e-17)
(190.716 -13.3913 -1.60171e-17)
(186.801 -13.1757 3.3133e-17)
(182.552 -12.7422 -1.69545e-17)
(179.103 -12.6042 0)
(175.043 -12.1489 -1.79255e-17)
(172.07 -12.0855 -1.86487e-17)
(168.086 -11.5906 0)
(165.638 -11.57 1.98186e-17)
(161.609 -11.0204 0)
(159.782 -10.9671 2.10901e-17)
(155.594 -10.3632 2.10723e-17)
(154.53 -10.1745 -2.2458e-17)
(150.1 -9.26943 2.21457e-17)
(100.007 0.549192 4.49998e-17)
(100.215 1.5615 0)
(100.642 2.48743 0)
(101.23 3.29294 -8.02003e-17)
(101.983 4.09856 0)
(102.883 5.09668 -6.91458e-17)
(103.989 6.55878 -3.26448e-17)
(105.339 8.52343 0)
(107.002 10.8089 0)
(109.006 13.0404 -3.14414e-17)