/*--------------------------------*- C++ -*----------------------------------*\
| =========                 |                                                 |
| \\      /  F ield         | OpenFOAM: The Open Source CFD Toolbox           |
|  \\    /   O peration     | Version:  2412                                  |
|   \\  /    A nd           | Website:  www.openfoam.com                      |
|    \\/     M anipulation  |                                                 |
\*---------------------------------------------------------------------------*/
FoamFile
{
    version     2.0;
    format      ascii;
    arch        "LSB;label=32;scalar=64";
    class       volScalarField;
    location    "1";
    object      epsilon;
}
// * * * * * * * * * * * * * * * * * * * * * * * * * * * * * * * * * * * * * //

dimensions      [0 2 -3 0 0 0 0];

internalField   nonuniform List<scalar> 
13079
(
418.345
471
538.093
627.404
752.008
917.679
1115.87
1325.18
1519.87
1685.04
1817.23
1923.75
2015.32
2103.89
2199.01
2308.46
2435.34
2578.45
2725.62
2856.17
2944.24
2984.13
2990.75
2995.43
3014.81
3061.02
3128.05
3220.94
3330.46
3470.21
3630.91
3837.76
4076.55
4388.46
4746.64
5219.14
5753.9
6470.54
7270.49
8377.72
9607.39
11418.7
13499.2
16849.6
20900.9
27715
35968.4
49909.3
65576.7
91091.4
116629
157582
306107
406440
456134
484665
495742
502917
487432
464569
428396
396688
367282
348122
333853
325113
317262
310412
302375
293856
283950
273298
261477
248963
235601
221784
207515
417.563
469.177
534.866
622.36
744.66
907.658
1103.21
1310.31
1503.5
1667.76
1799.26
1904.86
1994.89
2081.07
2172.87
2278.18
2400.41
2538.65
2680.78
2805.64
2887.57
2922.23
2926.28
2931.27
2953.04
3002.52
3073.17
3169.59
3282.7
3425.88
3590.08
3800.17
4042.14
4356.65
4717.11
5190.91
5726.31
6442.04
7240.01
8342.79
9566.7
11369.3
13441.6
16781.8
20824.6
27622.2
35840.6
49682.1
65124.7
90165.7
115139
155164
300807
397150
443644
470291
480437
486707
471104
448487
413374
382952
355115
337282
324118
316141
308831
302371
294648
286421
276797
266440
254912
242696
229622
216088
202088
416.8
467.399
531.724
617.453
737.513
897.916
1090.91
1295.91
1487.71
1651.16
1782.1
1886.92
1975.58
2059.56
2148.28
2249.75
2367.68
2501.4
2638.74
2758.08
2834.01
2863.69
2865.42
2870.88
2895.08
2947.75
3021.85
3121.62
3238.12
3384.53
3552.03
3765.16
4010.1
4327.05
4689.63
5164.59
5700.53
6415.32
7211.34
8309.8
9528.16
11322.4
13387
16717.6
20752.6
27534.2
35717.8
49459.2
64678.4
89253.6
113683
152808
295623
388176
431617
456426
465644
471017
455305
432943
398882
369712
343376
326783
314627
307324
300484
294359
286909
278945
269584
259507
248262
236337
223547
210294
196563
416.056
465.666
528.664
612.678
730.56
888.444
1078.98
1281.97
1472.47
1635.23
1765.72
1869.89
1957.34
2039.31
2125.19
2223.11
2337.06
2466.58
2599.37
2713.33
2783.39
2808.3
2807.97
2814.07
2840.7
2896.47
2973.87
3076.81
3196.5
3345.96
3516.56
3732.56
3980.28
4299.51
4664.04
5140.06
5676.46
6390.29
7184.38
8278.63
9491.66
11277.9
13335.3
16657
20684.7
27450.8
35599.6
49240.3
64237.4
88355.5
112260
150511
290553
379506
420035
443053
451351
455841
440030
417931
384909
356956
332046
316605
305361
298651
292211
286371
279156
271430
262312
252503
241530
229890
217380
204407
190946
415.33
463.975
525.683
608.03
723.795
879.233
1067.38
1268.45
1457.76
1619.93
1750.09
1853.73
1940.11
2020.27
2103.53
2198.18
2308.46
2434.08
2562.54
2671.24
2735.56
2755.92
2753.75
2760.63
2789.71
2848.48
2929.03
3034.97
3157.67
3310
3483.52
3702.21
3952.55
4273.9
4640.24
5117.22
5654
6366.85
7159.04
8249.22
9457.13
11235.8
13286.5
16599.7
20620.7
27371.7
35485.8
49025.5
63802.1
87471.6
110871
148273
285592
371127
408885
430161
437550
441170
425273
403443
371444
344667
321111
306733
296307
290111
284007
278403
271390
263877
254984
245430
234721
223360
211127
198432
185241
171842
158461
145333
132617
120485
109107
98523
88882
80080
72247.2
65155
58959.6
53294.7
48409.3
43818.3
39921.6
36105.7
32962.5
29745.5
27222
24545.9
22576.5
414.621
462.326
522.778
603.505
717.211
870.274
1056.12
1255.36
1443.57
1605.24
1735.17
1838.41
1923.87
2002.38
2083.26
2174.9
2281.82
2403.82
2528.13
2631.67
2690.38
2706.4
2702.62
2710.4
2741.91
2803.59
2887.14
2995.92
3121.46
3276.5
3452.77
3673.98
3926.77
4250.11
4618.14
5095.98
5633.07
6344.94
7135.25
8221.5
9424.51
11195.9
13240.3
16545.8
20560.6
27296.9
35376.4
48814.5
63372.5
86602.5
109516
146092
280737
363028
398149
417735
424230
426999
411027
389472
358477
332833
310552
297149
287451
281692
275863
270453
263610
256287
247605
238293
227841
216754
204793
192376
179456
166333
153211
140342
127883
116004
104876
94536.6
85132.7
76557.1
68939
62046.6
56036.3
50540.9
45810.9
41364.6
37600.9
33916.5
30892.9
27804.3
25389.9
22841.2
20972.7
413.929
460.716
519.948
599.099
710.802
861.558
1045.18
1242.67
1429.86
1591.13
1720.93
1823.89
1908.57
1985.61
2064.32
2153.21
2257.04
2375.68
2496.02
2594.49
2647.71
2659.59
2654.41
2663.2
2697.14
2761.62
2848.02
2959.49
3087.72
3245.31
3424.16
3647.75
3902.84
4228.03
4597.63
5076.25
5613.59
6324.47
7112.97
8195.42
9393.76
11158.3
13196.9
16495.2
20504.2
27226.2
35271.3
48607.4
62948.7
85748.5
108194
143966
275986
355198
387814
405763
411381
413320
397285
376010
345997
321439
300353
287840
278781
273387
267777
262520
255817
248665
240178
231099
220896
210077
198387
186245
173598
160752
147895
135290
123092
111473
100601
90511.2
81349.8
73006.4
65608.3
58921.7
53102.3
47783.7
43215.8
38923.1
35299.9
31757
28860.4
25909.5
23610.3
21195.9
19432
413.253
459.144
517.188
594.807
704.563
853.078
1034.55
1230.36
1416.62
1577.58
1707.35
1810.13
1894.17
1969.91
2046.66
2133.05
2234.06
2349.57
2466.09
2559.57
2607.42
2615.38
2608.99
2618.9
2655.22
2722.41
2811.52
2925.54
3056.29
3216.29
3397.58
3623.41
3880.66
4207.58
4578.63
5057.96
5595.5
6305.41
7092.13
8170.93
9364.8
11122.8
13156
16447.7
20451.5
27159.6
35170.2
48404.1
62531.1
84910.1
106906
141896
271334
347625
377865
394231
398992
400124
384038
363047
333990
310469
290500
278789
270285
265189
259745
254603
248015
241014
232710
223855
213893
203338
191916
180049
167674
155109
142520
130185
118253
106899
96288.5
86454.8
77542.1
69437.1
62265.6
55791.6
50169.8
45035.8
40637.5
36507.3
33032.6
29640.4
26877.9
24072.6
21893.6
19618.9
17962.4
412.593
457.61
514.497
590.627
698.487
844.825
1024.21
1218.43
1403.84
1564.56
1694.4
1797.11
1880.63
1955.24
2030.22
2114.36
2212.81
2325.41
2438.23
2526.8
2569.4
2573.63
2566.23
2577.33
2616.01
2685.8
2777.49
2893.91
3027.05
3189.31
3372.9
3600.84
3860.12
4188.66
4561.06
5041.04
5578.73
6287.67
7072.68
8147.97
9337.61
11089.5
13117.7
16403.3
20402.3
27096.8
35073
48204.5
62119.6
84087.7
105650
139879
266781
340300
368288
383126
387052
387403
371278
350573
322443
299909
280975
269982
261953
257091
251765
246705
240207
233342
225208
216567
206841
196545
185388
173795
161694
149410
137096
125033
113374
102291
91947.8
82376.9
73719.7
65860.6
58922.7
52669.2
47252.5
42311.6
38090.5
34131.8
30812.8
27579.8
24957.4
22304.3
20249.4
18118
16570.1
411.948
456.112
511.874
586.554
692.57
836.792
1014.16
1206.86
1391.49
1552.06
1682.04
1784.79
1867.92
1941.54
2014.97
2097.07
2193.2
2303.1
2412.33
2496.05
2533.52
2534.23
2525.99
2538.35
2579.35
2651.64
2745.78
2864.47
2999.86
3164.26
3350.02
3579.94
3841.13
4171.19
4544.85
5025.4
5563.22
6271.21
7054.57
8126.49
9312.12
11058.3
13081.9
16361.9
20356.5
27037.7
34979.7
48008.8
61714.7
83281.6
104428
137915
262322
333211
359068
372434
375549
375145
358994
338575
311343
289741
271764
261408
253776
249088
243836
238826
232398
225653
217680
209245
199748
189707
178813
167493
155666
143666
131629
119846
108464
97658.3
87589.5
78288.8
69894.8
62289.6
55593.3
49568.9
44365.1
39626
35589.7
31811
28654.3
25587.8
23110.1
20613.9
18685.4
16699.2
15260.2
411.318
454.649
509.314
582.584
686.806
828.97
1004.39
1195.63
1379.55
1540.05
1670.26
1773.14
1856
1928.8
2000.84
2081.14
2175.18
2282.56
2388.29
2467.22
2499.68
2497.07
2488.15
2501.84
2545.1
2619.79
2716.25
2837.09
2974.61
3141.03
3328.83
3560.62
3823.6
4155.09
4529.92
5011
5548.91
6255.98
7037.74
8106.46
9288.3
11029
13048.6
16323.4
20314.1
26982.3
34890.2
47816.7
61316.3
82492.2
103239
136003
257956
326350
350191
362143
364472
363341
347175
327041
300675
279951
262851
253053
245746
241177
235957
230971
224595
217957
210134
201897
192625
182834
172200
161153
149602
137886
126132
114632
103534
93012.1
83225.3
74203.2
66080.8
58738.6
52292.4
46506.1
41523.2
36994.4
33149.8
29558.7
26569.7
23675.4
21345.6
19009.3
17208.1
15367
14035.8
410.701
453.22
506.817
578.714
681.189
821.354
994.889
1184.74
1368.02
1528.52
1659.03
1762.13
1844.83
1916.95
1987.8
2066.51
2158.67
2263.69
2366.01
2440.19
2467.77
2462.03
2452.6
2467.65
2513.13
2590.12
2688.79
2811.66
2951.17
3119.51
3309.23
3542.79
3807.45
4140.28
4516.2
4997.77
5535.75
6241.92
7022.15
8087.81
9266.09
11001.8
13017.6
16287.8
20275
26930.5
34804.2
47628.4
60924.7
81719.7
102083
134141
253680
319706
341644
352239
353809
351979
335809
315959
290423
270522
254222
244906
237856
233354
228132
223144
216803
210260
202579
194534
185480
175937
165561
154786
143511
132082
120614
109403
98595.2
88365
78868.5
70134
62292.5
55223
49036.1
43496.9
38742.7
34432.1
30785.3
27387.8
24570.6
21852.2
19671.8
17496.3
15821.8
14124
12898.3
410.099
451.824
504.38
574.942
675.715
813.936
985.643
1174.17
1356.87
1517.43
1648.33
1751.74
1834.4
1905.98
1975.81
2053.12
2143.61
2246.41
2345.39
2414.88
2437.7
2429.02
2419.21
2435.67
2483.31
2562.5
2663.26
2788.05
2929.45
3099.59
3291.13
3526.35
3792.61
4126.69
4503.63
4985.65
5523.67
6228.98
7007.76
8070.51
9245.45
10976.4
12988.9
16255
20239
26882
34721.8
47443.7
60540
80964.3
100959
132329
249491
313269
333413
342708
343547
341047
324885
305315
280573
261439
245863
236956
230099
225619
220361
215350
209030
202572
195025
187165
178327
169026
158907
148402
137405
126265
115088
104172
93661.2
83730.7
74533.6
66096.7
58546.2
51759.5
45841
40557.6
36039.2
31953.4
28509.1
25309.7
22666.6
20125.9
18094.9
16079
14529.2
12971.2
11847.6
409.509
450.459
502.002
571.263
670.38
806.708
976.646
1163.91
1346.09
1506.78
1638.13
1741.93
1824.65
1895.83
1964.81
2040.92
2129.92
2230.65
2326.33
2391.19
2409.38
2397.94
2387.88
2405.77
2455.52
2536.82
2639.55
2766.15
2909.35
3081.19
3274.44
3511.24
3778.99
4114.25
4492.15
4974.58
5512.64
6217.12
6994.51
8054.52
9226.33
10952.9
12962.4
16224.8
20206
26836.8
34642.8
47262.8
60162.4
80226.3
99866.4
130565
245388
307030
325484
333536
333674
330534
314388
295094
271109
252687
237761
229194
222471
217970
212648
207596
201285
194903
187484
179803
171175
162113
152249
142015
131296
120448
109567
98951.9
88746
79124.2
70236.6
62108
54858.9
48365.2
42723.8
37704.2
33427.4
29571.7
26332.9
23334.1
20865.6
18502.3
16618.9
14759.5
13331.1
11908
10882.3
408.933
449.124
499.68
567.675
665.178
799.666
967.888
1153.94
1335.67
1496.54
1628.41
1732.68
1815.57
1886.48
1954.76
2029.86
2117.55
2216.32
2308.76
2369.03
2382.72
2368.7
2358.51
2377.85
2429.65
2512.95
2617.56
2745.88
2890.76
3064.21
3259.09
3497.37
3766.53
4102.91
4481.7
4964.51
5502.6
6206.28
6982.37
8039.78
9208.68
10931.2
12938.1
16197.3
20175.9
26794.8
34567.1
47085.6
59792.1
79505.7
98805.9
128848
241368
300981
317845
324712
324177
320427
304306
285282
262015
244250
229903
221611
214968
210407
204997
199887
193576
187262
179967
172460
164037
155211
145600
135637
125199
114644
104064
93757.1
83864.7
74561.6
65994.3
58185.4
51248.3
45057.4
39700.9
34951.8
30920.9
27298.4
24266.5
21468.6
19173.2
16985.1
15245.7
13538.3
12226.8
10932.4
9999.54
408.369
447.82
497.413
564.174
660.106
792.802
959.362
1144.26
1325.58
1486.69
1619.14
1723.97
1807.13
1877.88
1945.63
2019.9
2106.43
2203.35
2292.59
2348.31
2357.63
2341.2
2331
2351.81
2405.58
2490.81
2597.19
2727.13
2873.6
3048.57
3244.99
3484.67
3755.17
4092.59
4472.23
4955.39
5493.5
6196.43
6971.29
8026.26
9192.47
10911.3
12916
16172.3
20148.8
26755.8
34494.6
46912
59429.1
78802.8
97776.6
127177
237428
295113
310484
316221
315043
310714
294626
275864
253277
236114
222277
214199
207587
202934
197414
192233
185914
179663
172485
165147
156927
148334
138975
129282
119126
108869
98595
88603.7
79034.1
70060.4
61824.9
54347
47732.2
41853
36788
32314.1
28531.4
25143.3
22317.2
19718.3
17593
15575.7
13975.7
12414.1
11214
10041.2
9195.7
407.817
446.545
495.199
560.758
655.158
786.111
951.058
1134.85
1315.82
1477.23
1610.32
1715.78
1799.29
1870.01
1937.38
2010.97
2096.5
2191.67
2277.73
2328.95
2334.04
2315.37
2305.25
2327.53
2383.22
2470.27
2578.34
2709.81
2857.79
3034.2
3232.06
3473.08
3744.83
4083.24
4463.67
4947.17
5485.3
6187.53
6961.23
8013.92
9177.64
10893
12895.9
16149.7
20124.3
26719.8
34425.2
46742.1
59073.5
78117.5
96777.9
125550
233568
289417
303387
308051
306260
301381
285333
266826
244879
228264
214873
206952
200327
195550
189904
184642
178309
172115
165052
157879
149858
141495
132387
122964
113093
103137
93175.8
83508.3
74271.8
65638.9
57746.9
50611.3
44328.1
38768
33999.2
29803
26268.7
23113.6
20490.4
18086.6
16126.4
14273.9
12807.2
11384.2
10289.3
9230.5
8466.37
407.277
445.297
493.037
557.425
650.332
779.586
942.97
1125.71
1306.38
1468.12
1601.91
1708.06
1792.02
1862.84
1929.96
2003.03
2087.71
2181.2
2264.12
2310.89
2311.87
2291.12
2281.18
2304.93
2362.47
2451.27
2560.93
2693.84
2843.24
3021.02
3220.25
3462.52
3735.46
4074.81
4456
4939.81
5477.96
6179.53
6952.16
8002.71
9164.16
10876.5
12877.7
16129.5
20102.5
26686.7
34358.8
46575.9
58725.5
77449.9
95809.5
123968
229784
283885
296544
300188
297815
292415
276413
258152
236806
220688
207679
199864
193185
188260
182474
177122
170773
164632
157681
150668
142844
134709
125850
116698
107115
97464.7
87823.5
78488.8
69596.3
61316.1
53779.1
46996.2
41052.6
35817
31346.5
27428.2
24139.9
21214.1
18788.9
16574.2
14772.8
13077.8
11737.5
10444.8
9448.54
8495.49
7806.66
406.749
444.077
490.924
554.17
645.622
773.223
935.09
1116.82
1297.23
1459.36
1593.91
1700.82
1785.31
1856.32
1923.34
1996.05
2079.99
2171.88
2251.67
2294.05
2291.06
2268.38
2258.7
2283.9
2343.24
2433.69
2544.85
2679.13
2829.88
3008.95
3209.48
3452.95
3727.01
4067.25
4449.14
4933.26
5471.44
6172.4
6944.03
7992.6
9151.98
10861.5
12861.6
16111.6
20083.3
26656.2
34295.3
46413.4
58385.2
76799.9
94870.8
122428
226075
278509
289942
292621
289696
283803
267852
249827
229043
213371
200688
192929
186161
181068
175131
169684
163316
157226
150385
143530
135900
127990
119382
110502
101210
91869.7
82556.1
73563.9
65026.7
57111
49940.1
43518.8
37920.5
33012.4
28839.9
25196.8
22149.8
19447.4
17213.3
15180.2
13529.9
11984
10762.3
9591.26
8686.65
7831.09
7211.42
406.231
442.883
488.859
550.993
641.026
767.015
927.41
1108.18
1288.37
1450.94
1586.28
1694.01
1779.12
1850.44
1917.48
1989.97
2073.3
2163.64
2240.32
2278.36
2271.53
2247.08
2237.73
2264.38
2325.43
2417.46
2530.05
2665.62
2817.64
2997.93
3199.69
3444.29
3719.42
4060.5
4443.07
4927.48
5465.69
6166.09
6936.81
7983.54
9141.06
10848.1
12847.2
16095.9
20066.5
26628.4
34234.6
46254.6
58052.7
76167.7
93961.3
120930
222439
273283
283570
285338
281889
275532
259637
241838
221576
206302
193890
186144
179257
173977
167883
162338
155951
149911
143178
136479
129041
121355
112997
104390
95393.6
86369.8
77392.2
68752.8
60582.5
53042.6
46247.3
40194.6
34944.9
30364.2
26486.5
23113.2
20300.5
17813.5
15762.2
13901.7
12394
10987.8
9876.71
8818.28
7998.25
7231.96
6675.42
405.724
441.714
486.841
547.89
636.539
760.958
919.923
1099.77
1279.78
1442.83
1579.02
1687.63
1773.43
1845.16
1912.35
1984.75
2067.58
2156.43
2230
2263.75
2253.23
2227.14
2218.18
2246.27
2308.97
2402.51
2516.44
2653.23
2806.45
2987.91
3190.83
3436.51
3712.65
4054.53
4437.74
4922.43
5460.69
6160.58
6930.46
7975.51
9131.36
10836.2
12834.7
16082.4
20052
26603.1
34176.7
46099.4
57728
75553
93080.4
119472
218874
268199
277417
278325
274383
267588
251753
234168
214392
199469
187277
179505
172473
166994
160738
155094
148691
142700
136076
129529
122283
114820
106712
98380.9
89684.5
80983.6
72351
64074.9
56282.7
49128.9
42717
37037
32136.2
27879.6
24290.7
21179.2
18591.9
16310.4
14432.3
12734.4
11360.2
10083.9
9075.1
8120.18
7377.74
6692.71
6193.5
405.228
440.571
484.869
544.86
632.159
755.047
912.623
1091.59
1271.46
1435.02
1572.1
1681.65
1768.22
1840.46
1907.92
1980.35
2062.78
2150.17
2220.66
2250.18
2236.09
2208.5
2200
2229.49
2293.79
2388.74
2503.95
2641.9
2796.26
2978.81
3182.84
3429.53
3706.64
4049.28
4433.1
4918.08
5456.4
6155.82
6924.96
7968.46
9122.84
10825.7
12823.9
16070.9
20039.9
26580.3
34121.5
45947.9
57411.2
74955.9
92227.5
118054
215379
263249
271473
271572
267165
259960
244187
226805
207477
192861
180842
173009
165812
160123
153706
147964
141547
135607
129092
122697
115642
108400
100545
92491.9
84100.8
75730
67451.8
59549.4
52145.8
45386.5
39363
34056.8
29501.9
25563
22254.1
19394.1
17021.4
14934.4
13219
11672.9
10422.6
9266.24
8351.48
7491.14
6819.49
6208.05
5760.65
404.742
439.451
482.94
541.899
627.881
749.276
905.502
1083.62
1263.39
1427.49
1565.51
1676.05
1763.46
1836.3
1904.14
1976.73
2058.84
2144.82
2212.22
2237.59
2220.06
2191.09
2183.1
2213.97
2279.8
2376.11
2492.52
2631.56
2786.99
2970.59
3175.67
3423.33
3701.35
4044.72
4429.13
4914.38
5452.78
6151.79
6920.25
7962.36
9115.45
10816.7
12814.8
16061.4
20029.9
26559.8
34068.9
45800.1
57102.3
74376.1
91402.1
116674
211951
258429
265728
265068
260223
252633
236925
219734
200819
186468
174579
166655
159276
153372
146795
140960
134534
128645
122241
115998
109134
102114
94513.3
86741.1
78661.2
70627.8
62713.5
55194.7
48188.4
41829.8
36196.7
31261.9
27046.4
23415.9
20375.8
17755.1
15584.8
13680.2
12116.4
10711
9574.87
8528.58
7699.7
6925.33
6317.95
5772.89
5372.13
404.265
438.355
481.054
539.007
623.702
743.641
898.555
1075.86
1255.56
1420.25
1559.23
1670.82
1759.13
1832.67
1901
1973.85
2055.73
2140.32
2204.65
2225.91
2205.09
2174.86
2167.42
2199.65
2266.94
2364.53
2482.07
2622.15
2778.6
2963.19
3169.27
3417.85
3696.73
4040.8
4425.78
4911.31
5449.8
6148.45
6916.32
7957.18
9109.16
10809
12807.3
16053.7
20022
26541.5
34018.7
45656
56801.5
73813.6
90603.5
115331
208590
253730
260172
258800
253546
245596
229953
212942
194404
180280
168483
160441
152867
146746
140015
134092
127663
121830
115539
109447
102775
95977
88633.5
81146.3
73383.9
65695.7
58154.3
51027.7
44425.7
38470.7
33226.4
28657
24771.1
21436.9
18652.2
16257.1
14276.3
12541.3
11117.7
9841.8
8810.38
7864.45
7113.65
6417.06
5867.83
5382.42
5023.5
403.799
437.282
479.21
536.18
619.62
738.138
891.775
1068.31
1247.96
1413.26
1553.25
1665.93
1755.21
1829.53
1898.45
1971.67
2053.39
2136.61
2197.88
2215.11
2191.11
2159.75
2152.89
2186.45
2255.14
2353.95
2472.56
2613.62
2771.04
2956.57
3163.59
3413.05
3692.76
4037.5
4423.02
4908.83
5447.42
6145.77
6913.13
7952.87
9103.93
10802.6
12801.4
16048
20016.1
26525.3
33971
45515.6
56508.6
73268.2
89831.2
114025
205293
249149
254795
252758
247122
238835
223259
206415
188222
174287
162549
154367
146590
140252
133375
127372
120949
115175
109001
103060
96580.7
90006.5
82923.1
75725.2
68286.9
60951.5
53791.2
47063.7
40869.8
35318
30457.3
26243.5
22674.7
19622.1
17078.1
14893.9
13088.8
11510.4
10215.7
9058.34
8122.33
7267.5
6587.38
5960.89
5464.09
5032.14
4710.66
403.341
436.231
477.405
533.416
615.631
732.763
885.156
1060.95
1240.59
1406.53
1547.56
1661.37
1751.68
1826.86
1896.48
1970.16
2051.78
2133.65
2191.86
2205.13
2178.09
2145.69
2139.46
2174.32
2244.34
2344.3
2463.93
2605.91
2764.24
2950.67
3158.59
3408.89
3689.39
4034.77
4420.82
4906.92
5445.63
6143.73
6910.65
7949.41
9099.72
10797.5
12797
16044
20012.2
26511.2
33925.7
45378.8
56223.7
72739.7
89084.4
112754
202060
244678
249590
246933
240940
232339
216829
200141
182262
168483
156771
148432
140448
133898
126885
120812
114403
108694
102639
96851.6
90567.8
84218.6
77399.1
70495
63387.2
56411.4
49639.1
43315.1
37530.1
32377.1
27890.9
24019.9
20752.9
17965.8
15646.4
13657.6
12014.7
10580
9402.91
8353.5
7504.05
6731.56
6115.2
5551.7
5102.07
4717.91
4429.86
402.893
435.202
475.64
530.714
611.733
727.51
878.694
1053.77
1233.43
1400.03
1542.13
1657.12
1748.53
1824.64
1895.04
1969.27
2050.85
2131.39
2186.55
2195.93
2165.98
2132.65
2127.07
2163.19
2234.49
2335.54
2456.12
2598.97
2758.18
2945.45
3154.23
3405.33
3686.58
4032.59
4419.15
4905.53
5444.39
6142.28
6908.85
7946.77
9096.49
10793.7
12794.1
16041.6
20010
26499.1
33882.7
45245.7
55946.9
72227.9
88362.6
111517
198888
240312
244546
241313
234989
226095
210652
194108
176512
162858
151147
142637
134446
127690
120555
114422
108038
102399
96470
90837.2
84751.1
78629.1
72077.4
65471.5
58700.5
52090.2
45710.5
39791.6
34412.4
29650.2
25525.9
21981.9
18999.4
16460.2
14348.9
12540.1
11045.6
9741.96
8671.94
7720.32
6949.1
6250.77
5691.77
5184.73
4777.43
4435.92
4177.67
402.453
434.193
473.912
528.073
607.922
722.377
872.381
1046.77
1226.47
1393.76
1536.96
1653.16
1745.72
1822.85
1894.12
1968.99
2050.58
2129.79
2181.91
2187.47
2154.73
2120.57
2115.66
2153
2225.52
2327.6
2449.09
2592.77
2752.79
2940.88
3150.47
3402.34
3684.31
4030.91
4417.97
4904.65
5443.68
6141.42
6907.7
7944.9
9094.21
10791
12792.5
16040.9
20009.7
26488.8
33841.9
45116.2
55678.1
71732.4
87665.2
110313
195777
236047
239657
235889
229258
220093
204716
188304
170963
157406
145673
136983
128587
121637
114394
108214
101866
96304.3
90505.5
85030.3
79145
73252.7
66972.7
60669.6
54240.4
47999.9
42015
36499.4
31519.2
27136
23357.7
20122.7
17406.1
15096.5
13176.6
11532.5
10173.1
8988.55
8015.42
7152.08
6451.34
5819.64
5312.12
4855.6
4486.24
4182.75
3951.03
402.022
433.205
472.221
525.489
604.196
717.359
866.214
1039.95
1219.7
1387.71
1532.03
1649.49
1743.24
1821.46
1893.68
1969.26
2050.91
2128.79
2177.89
2179.71
2144.3
2109.4
2105.17
2143.71
2217.38
2320.45
2442.78
2587.24
2748.05
2936.9
3147.27
3399.87
3682.53
4029.72
4417.27
4904.24
5443.46
6141.1
6907.17
7943.79
9092.84
10789.4
12792.3
16041.8
20011
26480.4
33803.2
44990.4
55417.3
71253.2
86991.4
109142
192725
231878
234914
230652
223736
214320
199008
182717
165605
152121
140347
131470
122877
115745
108411
102198
95898.6
90420.9
84758.3
79443.7
73762.7
68102.7
62098.4
56101.8
50018.4
44149.9
38559.1
33441.2
28849.4
24829.9
21379.5
18433.7
15963.6
13865.2
12120.2
10625.9
9389.01
8312.06
7426.34
6642.47
6005.07
5433.09
4971.69
4560.31
4224.92
3955.29
3747.17
401.599
432.236
470.566
522.961
600.552
712.452
860.187
1033.29
1213.12
1381.86
1527.33
1646.08
1741.09
1820.45
1893.7
1970.07
2051.81
2128.37
2174.44
2172.61
2134.65
2099.1
2095.57
2135.26
2210.04
2314.02
2437.16
2582.36
2743.9
2933.49
3144.6
3397.9
3681.23
4028.98
4417
4904.29
5443.71
6141.31
6907.25
7943.39
9092.34
10788.9
12793.3
16044.1
20013.9
26473.6
33766.7
44868.2
55164.4
70789.9
86340.7
108003
189732
227800
230309
225592
218415
208766
193517
177337
160430
146996
135166
126100
117319
110020
102614
96384
90145.3
84759.8
79239.6
74089.1
68615.8
63191
57465.8
51778.5
46043.4
40546.4
35345.6
30616.3
26398.9
22725
19582.3
16904.8
14661.6
12756.1
11170.1
9811.37
8685.14
7705.17
6898.1
6185.58
5604.99
5086.45
4666.34
4295.24
3990.25
3750.76
3563.63
401.185
431.287
468.946
520.489
596.988
707.653
854.294
1026.78
1206.72
1376.21
1522.85
1642.92
1739.23
1819.8
1894.16
1971.38
2053.24
2128.48
2171.55
2166.14
2125.75
2089.62
2086.79
2127.6
2203.43
2308.29
2432.18
2578.08
2740.32
2930.61
3142.42
3396.4
3680.37
4028.66
4417.16
4904.77
5444.41
6142.02
6907.89
7943.69
9092.68
10789.5
12795.6
16047.9
20018.3
26468.5
33732.2
44749.7
54919.5
70342.3
85712.4
106894
186795
223809
225835
220701
213285
203421
188234
172154
155429
142026
130128
120875
111919
104471
97011.4
90779.9
84615.7
79330.7
73959.3
68976.5
63714.5
58527.3
53084
47707.7
42320.8
37192.5
32374
28020.8
24160.4
20812
17955.4
15525.3
13489.3
11759
10316.9
9080.47
8053.82
7160.99
6424.52
5775.96
5246.25
4775.49
4392.29
4057.14
3779.35
3566.67
3398.19
400.778
430.357
467.359
518.069
593.501
702.959
848.533
1020.43
1200.49
1370.75
1518.58
1640
1737.65
1819.5
1895.03
1973.16
2055.17
2129.08
2169.16
2160.26
2117.55
2080.92
2078.81
2120.69
2197.52
2303.19
2427.8
2574.36
2737.27
2928.22
3140.71
3395.34
3679.92
4028.75
4417.7
4905.64
5445.54
6143.2
6909.08
7944.65
9093.83
10791
12799.1
16053
20024.1
26465
33699.7
44634.7
54682.4
69910
85105.9
105814
183914
219900
221486
215970
208335
198273
183147
167158
150595
137206
125232
115795
106680
99101.7
91610.5
85394.1
79317.9
74141.8
68925.7
64114.2
59066.7
54119.2
48959.4
43894.2
38853.4
34087.4
29640.4
25647.5
22124.7
19079.9
16487.5
14283.5
12435.9
10864.1
9551.49
8425.07
7487.82
6673.14
5999.93
5408.62
4924.44
4496.37
4146.17
3843.09
3589.62
3400.81
3248.89
400.379
429.444
465.805
515.701
590.088
698.365
842.897
1014.23
1194.42
1365.46
1514.51
1637.3
1736.34
1819.52
1896.29
1975.38
2057.57
2130.13
2167.25
2154.93
2110.02
2072.96
2071.56
2114.49
2192.26
2298.71
2423.98
2571.17
2734.71
2926.3
3139.44
3394.69
3679.86
4029.21
4418.62
4906.91
5447.08
6144.83
6910.79
7946.24
9095.75
10793.6
12803.7
16059.4
20031.4
26463
33669.1
44523.4
54453.2
69492.8
84520.5
104764
181087
216071
217256
211392
203558
193314
178247
162339
145921
132532
120477
110864
101606
93919.1
86417.7
80233.2
74258.4
69199.7
64145
59508.3
54678.3
49971.6
45095.8
40339.7
35640.1
31227.5
27138.1
23487.2
20280.5
17516.6
15166.3
13168
11490.7
10061.7
8865.41
7837.59
6980.44
6235.75
5619.17
5079.06
4635.6
4245.65
3924.96
3650.48
3418.77
3251.2
3114.01
399.988
428.55
464.283
513.383
586.749
693.87
837.382
1008.17
1188.51
1360.34
1510.62
1634.82
1735.28
1819.84
1897.91
1978.01
2060.39
2131.61
2165.78
2150.14
2103.13
2065.7
2065.02
2108.94
2187.61
2294.8
2420.7
2568.48
2732.62
2924.82
3138.57
3394.42
3680.16
4030.02
4419.89
4908.53
5449
6146.9
6912.99
7948.44
9098.41
10797
12809.3
16067
20039.9
26462.4
33640.4
44415.6
54231.6
69090.3
83955.6
103741
178315
212318
213137
206958
198944
188534
173524
157690
141399
127999
115862
106082
96701.9
88927.7
81438.2
75302.6
69442.5
64509.3
59621.9
55163.2
50552.6
46087.2
41493.9
37043.1
32677.3
28606.1
24857.6
21528.3
18615.2
16109.5
13979.7
12167.5
10643.5
9342.61
8250.61
7311.04
6525.55
5843.45
5277.54
4783.19
4376.14
4020.24
3725.93
3476.99
3264.76
3116.09
2991.99
399.603
427.673
462.792
511.113
583.48
689.469
831.985
1002.24
1182.74
1355.39
1506.9
1632.53
1734.46
1820.46
1899.88
1981.04
2063.62
2133.49
2164.73
2145.84
2096.85
2059.11
2059.14
2104.03
2183.55
2291.42
2417.91
2566.26
2730.97
2923.75
3138.09
3394.51
3680.81
4031.17
4421.49
4910.49
5451.28
6149.38
6915.67
7951.23
9101.78
10801.3
12816
16075.8
20049.7
26463.1
33613.5
44311.3
54017.7
68702.2
83410.5
102746
175594
208636
209125
202662
194486
183923
168969
153201
137023
123604
111386
101452
91970.2
84131.8
76676.2
70606.4
64873.5
60073.7
55358.6
51080.4
46690.5
42465.4
38151.6
34000.2
29958
26213.8
22787.4
19758.2
17115.7
14845.7
12915.6
11271.1
9884.67
8698.48
7699.68
6838.99
6117.56
5491.41
4970.8
4517.38
4142.89
3817.41
3546.7
3320.55
3125.77
2993.94
2881.47
399.226
426.813
461.331
508.891
580.279
685.16
826.701
996.445
1177.12
1350.58
1503.36
1630.44
1733.86
1821.34
1902.17
1984.43
2067.22
2135.72
2164.06
2142.02
2091.14
2053.15
2053.89
2099.7
2180.02
2288.54
2415.59
2564.47
2729.72
2923.05
3137.96
3394.94
3681.78
4032.63
4423.4
4912.77
5453.9
6152.24
6918.8
7954.56
9105.83
10806.5
12823.7
16085.7
20060.7
26465.2
33588.4
44210.5
53811.4
68328.2
82884.8
101776
172926
205024
205213
198496
190175
179474
164573
148865
132789
119343
107048
96973.9
87413.8
79534.8
72134.9
66147
60553.3
55893.7
51355.5
47259.6
43090.2
39103.3
35064.2
31203.8
27473
24039.2
20914.7
18163.2
15768.5
13712.4
11962.3
10468.4
9205.15
8121.44
7205.88
6415.61
5751.41
5175.27
4695.19
4278.35
3932.99
3634.7
3385.11
3179.33
3000.19
2883.36
2781.23
398.856
425.969
459.899
506.714
577.145
680.94
821.526
990.774
1171.64
1345.92
1499.97
1628.52
1733.47
1822.48
1904.77
1988.16
2071.16
2138.29
2163.75
2138.64
2085.98
2047.78
2049.23
2095.93
2177.01
2286.13
2413.71
2563.09
2728.85
2922.72
3138.17
3395.69
3683.05
4034.39
4425.6
4915.36
5456.85
6155.48
6922.36
7958.43
9110.52
10812.5
12832.3
16096.7
20072.8
26468.5
33565
44113.2
53612.5
67967.9
82377.6
100833
170308
201478
201396
194454
186004
175177
160329
144675
128689
115213
102847
92650
83035
75139.1
67816
61925.6
56481.6
51968.6
47610.5
43697.9
39747.8
35995.3
32224.3
28644.8
25210.9
22069.4
19225.6
16729.3
14560.2
12697.3
11109.1
9749.88
8596.63
7604.38
6763.06
6035.66
5422.57
4891.14
4447.31
4063.19
3743.91
3469.95
3239.28
3051.71
2886.59
2783.14
2690.2
398.493
425.141
458.496
504.582
574.075
676.807
816.458
985.223
1166.28
1341.4
1496.73
1626.77
1733.29
1823.87
1907.66
1992.2
2075.42
2141.17
2163.78
2135.69
2081.33
2042.99
2045.13
2092.67
2174.47
2284.16
2412.24
2562.09
2728.34
2922.72
3138.69
3396.74
3684.6
4036.42
4428.07
4918.24
5460.11
6159.06
6926.34
7962.8
9115.84
10819.2
12841.8
16108.7
20086
26473
33543.3
44019.3
53421
67621.1
81888.5
99913.6
167740
197996
197670
190528
181966
171026
156229
140624
124719
111213
98783.1
88481.2
78835.3
70946.1
63720.2
57941.6
52656.7
48295.5
44119.7
40390.2
36656.9
33133.7
29622.2
26311.8
23158.8
20290.4
17705.7
15442.6
13477.7
11788.7
10345.5
9106.67
8051.53
7140.8
6365.7
5694.4
5126.99
4635.53
4224.15
3869.32
3573.41
3321.23
3107.52
2936.26
2783.72
2692.19
2607.43
398.136
424.329
457.121
502.493
571.068
672.756
811.491
979.788
1161.05
1337.01
1493.62
1625.18
1733.29
1825.48
1910.81
1996.54
2079.97
2144.33
2164.12
2133.13
2077.18
2038.73
2041.56
2089.91
2172.39
2282.61
2411.14
2561.45
2728.17
2923.03
3139.5
3398.06
3686.41
4038.7
4430.8
4921.38
5463.66
6162.98
6930.7
7967.65
9121.74
10826.7
12852.1
16121.6
20100.1
26478.6
33523.2
43928.9
53236.7
67287.3
81416.8
99018.7
165221
194575
194029
186714
178054
167012
152266
136705
120875
107338
94855.7
84468
74815.6
66956.3
59846.5
54192.9
49075.1
44869.7
40877.1
37329.5
33808.9
30508.7
27246.5
24191.9
21302.7
18687.7
16340.8
14289.5
12508.9
10975.8
9662.17
8530.71
7562.99
6724.9
6008.83
5387.62
4861.04
4405.35
4023.03
3694.45
3419.49
3186.83
2988.35
2831.68
2690.45
2609.56
2532.07
397.786
423.532
455.772
500.446
568.121
668.786
806.622
974.464
1155.93
1332.74
1490.65
1623.73
1733.46
1827.3
1914.21
2001.14
2084.78
2147.74
2164.74
2130.95
2073.49
2034.97
2038.48
2087.61
2170.72
2281.44
2410.41
2561.14
2728.31