/*--------------------------------*- C++ -*----------------------------------*\
| =========                 |                                                 |
| \\      /  F ield         | OpenFOAM: The Open Source CFD Toolbox           |
|  \\    /   O peration     | Version:  2412                                  |
|   \\  /    A nd           | Website:  www.openfoam.com                      |
|    \\/     M anipulation  |                                                 |
\*---------------------------------------------------------------------------*/
FoamFile
{
    version     2.0;
    format      ascii;
    arch        "LSB;label=32;scalar=64";
    class       volScalarField;
    location    "1";
    object      k;
}
// * * * * * * * * * * * * * * * * * * * * * * * * * * * * * * * * * * * * * //

dimensions      [0 2 -2 0 0 0 0];

internalField   nonuniform List<scalar> 
13079
(
40.1927
43.6635
47.8901
53.1304
59.6819
67.2286
74.8114
81.2688
85.7277
88.0232
88.4648
87.649
86.1581
84.4953
83.0256
82.0413
81.7438
82.2669
83.5422
85.2961
87.1064
88.792
90.4382
92.319
94.5348
97.1621
100.099
103.423
107.021
111.096
115.488
120.549
125.977
132.341
139.082
147.143
155.522
165.82
176.35
189.897
203.715
222.712
242.473
271.049
300.53
342.299
382.741
440.101
493.823
577.669
660.634
793.123
1171.3
1245.13
1140.05
1036.95
952.713
879.224
805.26
737.363
673.131
621.009
578.695
547.773
523.387
503.691
485.443
468.157
450.718
433.532
416.19
399.049
381.828
364.746
347.619
330.627
313.674
40.144
43.5541
47.7103
52.877
59.358
66.8471
74.3975
80.8503
85.3286
87.655
88.1267
87.3307
85.8461
84.1776
82.6966
81.7054
81.4166
81.9709
83.2948
85.0958
86.9387
88.6497
90.3288
92.2531
94.515
97.1841
100.155
103.508
107.129
111.226
115.638
120.718
126.164
132.547
139.304
147.383
155.778
166.097
176.646
190.222
204.071
223.132
242.981
271.724
301.402
343.474
384.141
441.745
495.351
578.938
661.44
792.419
1166.63
1237.69
1131.6
1028.04
943.577
869.806
795.899
728.283
664.775
613.531
572.211
542.058
518.188
498.727
480.532
463.223
445.73
428.52
411.176
394.073
376.907
359.902
342.86
325.965
309.115
40.0964
43.447
47.5342
52.6286
59.0401
66.4727
73.9917
80.4411
84.9401
87.2991
87.8028
87.0286
85.5523
83.8805
82.3912
81.396
81.1189
81.7064
83.0784
84.9232
86.7941
88.527
90.2364
92.2019
94.5071
97.2154
100.218
103.598
107.241
111.359
115.789
120.888
126.35
132.751
139.523
147.622
156.032
166.373
176.94
190.547
204.426
223.552
243.488
272.4
302.273
344.642
385.527
443.363
496.84
580.156
662.201
791.659
1161.87
1230.29
1123.26
1019.25
934.562
860.519
786.692
719.381
656.612
606.24
565.878
536.437
513.013
493.729
475.544
458.181
440.618
423.375
406.024
388.959
371.849
354.926
337.973
321.182
304.441
40.0499
43.3423
47.3619
52.3852
58.7282
66.1053
73.5937
80.0409
84.562
86.9552
87.4924
86.7419
85.276
83.6033
82.1083
81.1124
80.8498
81.4722
82.8914
84.7763
86.6707
88.422
90.1595
92.164
94.5099
97.2549
100.286
103.691
107.355
111.493
115.94
121.057
126.535
132.954
139.741
147.858
156.284
166.647
177.233
190.869
204.78
223.971
243.995
273.073
303.14
345.803
386.899
444.952
498.289
581.324
662.916
790.843
1157.03
1222.91
1115.03
1010.58
925.669
851.364
777.641
710.657
648.641
599.131
559.685
530.895
507.852
488.689
470.47
453.027
435.378
418.094
400.736
383.708
366.657
349.82
332.962
316.28
299.655
40.0044
43.2398
47.1931
52.1467
58.4223
65.7447
73.2035
79.6495
84.1941
86.6229
87.1953
86.4702
85.0167
83.3454
81.8475
80.8537
80.6084
81.2671
82.7322
84.6534
86.5668
88.3332
90.0966
92.1381
94.5225
97.3017
100.36
103.789
107.471
111.628
116.091
121.226
126.718
133.155
139.957
148.092
156.533
166.918
177.522
191.189
205.132
224.389
244.501
273.745
304.004
346.954
388.255
446.512
499.698
582.443
663.587
789.97
1152.12
1215.57
1106.9
1002.02
916.898
842.346
768.751
702.115
640.86
592.198
553.622
525.423
502.693
483.597
465.305
447.757
430.009
412.679
395.312
378.324
361.335
344.588
327.829
311.263
294.764
278.439
262.512
247.114
232.364
218.401
205.389
193.355
182.446
172.545
163.769
155.865
148.968
142.677
137.235
132.104
127.725
123.416
119.881
116.309
113.597
111.006
109.09
39.9599
43.1395
47.0279
51.913
58.1222
65.3908
72.8209
79.2667
83.8359
86.3017
86.9109
86.2129
84.7738
83.1063
81.6082
80.6193
80.3938
81.0899
82.5993
84.5527
86.4807
88.2594
90.0468
92.1233
94.5439
97.3551
100.439
103.889
107.589
111.763
116.242
121.394
126.901
133.355
140.171
148.324
156.78
167.186
177.81
191.507
205.483
224.805
245.006
274.415
304.864
348.097
389.595
448.04
501.066
583.512
664.213
789.043
1147.12
1208.25
1098.88
993.584
908.251
833.467
760.024
693.755
633.268
585.435
547.682
520.009
497.527
478.447
460.045
442.371
424.512
407.132
389.755
372.809
355.886
339.234
322.581
306.138
289.772
273.609
257.843
242.63
228.089
214.356
201.592
189.818
179.172
169.525
160.987
153.293
146.576
140.428
135.097
130.048
125.73
121.471
117.976
114.458
111.789
109.29
107.436
39.9164
43.0413
46.8661
51.6839
57.8278
65.0435
72.4457
78.8924
83.4874
85.9915
86.6389
85.9697
84.5469
82.8855
81.3897
80.4087
80.2053
80.9395
82.4913
84.4727
86.4111
88.1993
90.0089
92.1187
94.5734
97.4144
100.522
103.992
107.709
111.899
116.393
121.561
127.082
133.552
140.382
148.553
157.025
167.452
178.095
191.823
205.832
225.22
245.51
275.083
305.719
349.229
390.917
449.538
502.393
584.534
664.796
788.062
1142.04
1200.95
1090.94
985.257
899.729
824.73
751.463
685.579
625.863
578.836
541.853
514.644
492.346
473.232
454.686
436.867
418.889
401.456
384.07
367.169
350.316
333.763
317.223
300.911
284.688
268.696
253.106
238.092
223.773
210.284
197.781
186.276
175.899
166.511
158.21
150.722
144.179
138.169
132.944
127.974
123.716
119.511
116.061
112.609
109.99
107.597
105.814
39.8739
42.9452
46.7076
51.4594
57.5389
64.7027
72.0778
78.5262
83.1481
85.6919
86.3789
85.7402
84.3356
82.6824
81.1915
80.221
80.042
80.8148
82.4067
84.4118
86.3565
88.1517
89.982
92.1234
94.6103
97.4791
100.608
104.097
107.83
112.036
116.543
121.727
127.262
133.748
140.592
148.78
157.267
167.716
178.378
192.136
206.179
225.633
246.012
275.748
306.57
350.351
392.222
451.004
503.68
585.509
665.336
787.029
1136.9
1193.68
1083.11
977.044
891.333
816.139
743.07
677.587
618.641
572.394
536.128
509.318
487.142
467.947
449.227
431.246
413.141
395.654
378.261
361.408
344.631
328.184
311.762
295.589
279.518
263.709
248.308
233.507
219.424
206.193
193.962
182.737
172.636
163.508
155.442
148.158
141.782
135.904
130.78
125.889
121.692
117.547
114.149
110.774
108.214
105.941
104.238
39.8322
42.8511
46.5525
51.2394
57.2556
64.3682
71.7171
78.1681
82.818
85.4026
86.1305
85.5238
84.1393
82.4966
81.0131
80.0556
79.9029
80.7146
82.3441
84.3686
86.3158
88.1158
89.9653
92.1367
94.6538
97.5486
100.698
104.204
107.952
112.173
116.694
121.892
127.44
133.942
140.8
149.005
157.507
167.977
178.659
192.448
206.524
226.045
246.514
276.41
307.416
351.462
393.508
452.437
504.927
586.438
665.836
785.946
1131.67
1186.42
1075.36
968.942
883.064
807.695
734.848
669.781
611.599
566.103
530.497
504.023
481.908
462.59
443.667
425.511
407.273
389.732
372.334
355.535
338.837
322.502
306.207
290.18
274.271
258.655
243.458
228.884
215.052
202.092
190.146
179.21
169.39
160.523
152.691
145.605
139.39
133.64
128.614
123.802
119.669
115.592
112.252
108.966
106.474
104.332
102.718
39.7915
42.7589
46.4005
51.0238
56.9776
64.04
71.3633
77.8179
82.4967
85.1232
85.8935
85.3202
83.9576
82.3275
80.8539
79.9119
79.7873
80.6377
82.3022
84.3418
86.2877
88.0905
89.958
92.1579
94.7034
97.6225
100.791
104.313
108.074
112.31
116.843
122.056
127.617
134.134
141.005
149.227
157.745
168.236
178.938
192.757
206.868
226.455
247.014
277.07
308.257
352.562
394.775
453.839
506.135
587.323
666.296
784.813
1126.38
1179.17
1067.69
960.949
874.922
799.399
726.797
662.158
604.733
559.955
524.951
498.749
476.638
457.156
438.006
419.662
401.288
383.694
366.297
349.555
332.943
316.726
300.564
284.693
268.957
253.545
238.567
224.235
210.668
197.993
186.343
175.704
166.169
157.565
149.962
143.069
137.011
131.384
126.454
121.724
117.657
113.658
110.384
107.199
104.782
102.783
101.265
39.7516
42.6687
46.2516
50.8124
56.7049
63.7179
71.0165
77.4754
82.184
84.8535
85.6673
85.1291
83.79
82.1746
80.7133
79.7892
79.6943
80.5831
82.2796
84.3299
86.2711
88.0749
89.9593
92.1863
94.7586
97.7003
100.886
104.423
108.197
112.447
116.993
122.219
127.793
134.325
141.209
149.447
157.981
168.492
179.214
193.065
207.211
226.864
247.512
277.726
309.091
353.649
396.023
455.208
507.304
588.165
666.717
783.632
1121.03
1171.94
1060.11
953.064
866.906
791.253
718.917
654.717
598.039
553.943
519.483
493.491
471.329
451.645
432.247
413.705
395.194
377.55
360.156
343.476
326.957
310.864
294.845
279.139
263.586
248.389
233.644
219.569
206.283
193.906
182.564
172.229
162.983
154.64
147.264
140.559
134.652
129.146
124.31
119.665
115.67
111.757
108.557
105.483
103.15
101.303
99.886
39.7126
42.5803
46.1058
50.6052
56.4373
63.4017
70.6763
77.1403
81.8797
84.5932
85.4518
84.9499
83.6361
82.0375
80.5908
79.6868
79.6229
80.5496
82.275
84.3318
86.2651
88.0683
89.9686
92.2213
94.8188
97.7816
100.983
104.535
108.321
112.583
117.141
122.381
127.967
134.513
141.411
149.665
158.214
168.747
179.489
193.37
207.552
227.271
248.01
278.379
309.92
354.724
397.25
456.544
508.434
588.966
667.101
782.405
1115.61
1164.71
1052.6
945.285
859.017
783.256
711.208
647.455
591.51
548.059
514.083
488.24
465.975
446.056
426.39
407.645
388.997
371.304
353.921
337.309
320.888
304.927
289.058
273.527
258.17
243.2
228.703
214.901
201.91
189.846
178.822
168.797
159.841
151.758
144.604
138.083
132.321
126.934
122.193
117.638
113.72
109.902
106.783
103.831
101.588
99.899
98.5876
39.6744
42.4938
45.9629
50.4021
56.1748
63.0915
70.3427
76.8125
81.5834
84.342
85.2464
84.7822
83.4955
81.9157
80.4858
79.6041
79.5724
80.5362
82.2872
84.3462
86.2687
88.07
89.9852
92.2625
94.8836
97.866
101.083
104.647
108.446
112.72
117.289
122.542
128.14
134.7
141.611
149.882
158.446
168.999
179.762
193.674
207.891
227.677
248.505
279.028
310.742
355.786
398.458
457.847
509.527
589.727
667.448
781.133
1110.12
1157.49
1045.16
937.608
851.252
775.409
703.667
640.37
585.141
542.296
508.745
482.991
460.575
440.39
420.442
401.487
382.703
364.968
347.599
331.062
314.747
298.925
283.214
267.869
252.719
237.99
223.756
210.244
197.563
185.824
175.127
165.419
156.754
148.929
141.991
135.648
130.028
124.76
120.114
115.654
111.818
108.104
105.072
102.25
100.102
98.5767
97.3739
39.6369
42.4089
45.823
50.203
55.9172
62.7869
70.0155
76.4918
81.2951
84.0996
85.0509
84.6258
83.3677
81.8086
80.3977
79.5403
79.5419
80.5416
82.3149
84.3722
86.2811
88.0793
90.0086
92.3093
94.9526
97.9533
101.184
104.761
108.57
112.856
117.437
122.702
128.312
134.886
141.809
150.095
158.675
169.249
180.032
193.975
208.229
228.081
248.999
279.674
311.558
356.834
399.644
459.118
510.582
590.448
667.761
779.818
1104.58
1150.28
1037.8
930.031
843.612
767.711
696.294
633.457
578.927
536.646
503.461
477.739
455.127
434.648
414.405
395.238
376.322
358.549
341.203
324.747
308.544
292.869
277.327
262.177
247.248
232.772
218.818
205.611
193.256
181.854
171.493
162.106
153.732
146.16
139.433
133.265
127.782
122.632
118.083
113.723
109.974
106.373
103.434
100.749
98.6996
97.34
96.2469
39.6003
42.3258
45.6858
50.0077
55.6644
62.488
69.6946
76.1781
81.0145
83.8657
84.865
84.4802
83.2523
81.7158
80.326
79.4947
79.5304
80.5649
82.357
84.4086
86.3014
88.0956
90.0383
92.3611
95.0253
98.043
101.286
104.875
108.695
112.992
117.583
122.861
128.482
135.069
142.005
150.307
158.902
169.497
180.301
194.275
208.566
228.483
249.49
280.315
312.366
357.869
400.81
460.356
511.601
591.132
668.039
778.462
1098.98
1143.07
1030.49
922.552
836.093
760.16
689.087
626.713
572.86
531.101
498.224
472.48
449.631
428.833
408.285
388.906
369.863
352.059
334.742
318.373
302.291
286.771
271.407
256.465
241.769
227.562
213.903
201.018
189.003
177.951
167.934
158.869
150.784
143.461
136.94
130.94
125.593
120.561
116.11
111.856
108.2
104.718
101.877
99.333
97.3843
96.1908
95.207
39.5644
42.2444
45.5514
49.8163
55.4164
62.1946
69.3798
75.8711
80.7413
83.6401
84.6883
84.345
83.1487
81.6368
80.2701
79.4667
79.5372
80.605
82.4124
84.4545
86.3291
88.1184
90.0738
92.4177
95.1015
98.135
101.39
104.99
108.819
113.128
117.729
123.019
128.651
135.251
142.199
150.517
159.127
169.742
180.568
194.573
208.901
228.884
249.98
280.953
313.168
358.89
401.955
461.561
512.585
591.78
668.285
777.065
1093.33
1135.85
1023.25
915.167
828.694
752.754
682.041
620.132
566.935
525.655
493.028
467.211
444.086
422.95
402.091
382.5
363.336
345.508
328.228
311.955
296.001
280.645
265.47
250.747
236.299
222.375
209.028
196.48
184.821
174.129
164.461
155.721
147.921
140.842
134.519
128.685
123.469
118.556
114.206
110.062
106.503
103.145
100.405
98.0052
96.1582
95.129
94.2528
39.5292
42.1646
45.4197
49.6286
55.173
61.9065
69.071
75.5706
80.4752
83.4224
84.5204
84.2198
83.0568
81.5711
80.2294
79.4557
79.5614
80.6609
82.4801
84.5091
86.3634
88.1471
90.1146
92.4787
95.1808
98.229
101.495
105.106
108.944
113.263
117.874
123.175
128.818
135.431
142.392
150.725
159.35
169.986
180.833
194.869
209.234
229.283
250.468
281.586
313.961
359.896
403.078
462.734
513.534
592.393
668.499
775.63
1087.62
1128.63
1016.06
907.873
821.413
745.491
675.154
613.711
561.145
520.3
487.869
461.928
438.493
417.002
395.829
376.029
356.753
338.909
321.675
305.504
289.687
274.504
259.529
245.038
230.853
217.227
204.21
192.016
180.725
170.403
161.088
152.672
145.153
138.311
132.181
126.506
121.419
116.625
112.377
108.348
104.89
101.66
99.0233
96.7676
95.0218
94.1534
93.3816
39.4947
42.0864
45.2906
49.4446
54.9341
61.6237
68.768
75.2766
80.2162
83.2123
84.3611
84.1043
82.9759
81.5182
80.2035
79.4609
79.6021
80.7316
82.559
84.5714
86.4037
88.1813
90.1604
92.5436
95.2629
98.3247
101.601
105.221
109.069
113.397
118.018
123.331
128.984
135.61
142.582
150.931
159.572
170.228
181.096
195.163
209.566
229.68
250.953
282.215
314.747
360.888
404.18
463.875
514.449
592.972
668.681
774.157
1081.87
1121.41
1008.92
900.667
814.247
738.369
668.421
607.444
555.483
515.03
482.741
456.632
432.857
410.995
389.507
369.505
350.126
332.274
315.095
299.035
283.364
268.363
253.6
239.354
225.447
212.137
199.466
187.641
176.731
166.786
157.827
149.732
142.487
135.876
129.931
124.412
119.45
114.776
110.632
106.721
103.365
100.266
97.7325
95.6203
93.9739
93.2613
92.5897
39.4609
42.0097
45.1641
49.2641
54.6997
61.3461
68.4708
74.9888
79.964
83.0097
84.21
83.9981
82.9057
81.4777
80.1917
79.4816
79.6586
80.8161
82.6483
84.6409
86.4495
88.2207
90.2108
92.6121
95.3475
98.422
101.708
105.337
109.193
113.531
118.161
123.485
129.149
135.787
142.771
151.135
159.791
170.468
181.357
195.456
209.896
230.076
251.436
282.839
315.525
361.864
405.259
464.984
515.331
593.518
668.835
772.649
1076.07
1114.17
1001.83
893.545
807.193
731.384
661.84
601.324
549.943
509.839
477.64
451.32
427.179
404.937
383.137
362.939
343.467
325.617
308.504
292.562
277.047
262.239
247.7
233.712
220.101
207.121
194.813
183.372
172.855
163.294
154.69
146.911
139.933
133.544
127.777
122.408
117.57
113.016
108.976
105.184
101.932
98.9638
96.5332
94.5618
93.012
92.449
91.8725
39.4278
41.9346
45.0401
49.0871
54.4695
61.0735
68.1791
74.7071
79.7183
82.8143
84.0669
83.9008
82.8457
81.4491
80.1935
79.5173
79.73
80.9135
82.7469
84.7167
86.5004
88.2647
90.2655
92.684
95.4344
98.5207
101.816
105.453
109.317
113.665
118.304
123.638
129.312
135.962
142.959
151.337
160.008
170.705
181.616
195.746
210.225
230.469
251.917
283.458
316.294
362.826
406.317
466.061
516.181
594.034
668.959
771.107
1070.23
1106.92
994.787
886.504
800.248
724.533
655.405
595.348
544.519
504.72
472.563
445.993
421.465
398.836
376.727
356.343
336.791
318.953
301.915
286.102
270.753
256.147
241.846
228.132
214.831
202.2
190.271
179.228
169.112
159.937
151.688
144.218
137.498
131.322
125.724
120.501
115.782
111.347
107.411
103.74
100.591
97.7542
95.424
93.5896
92.1326
91.712
91.2249
39.3954
41.8609
44.9184
48.9134
54.2437
60.8058
67.8929
74.4312
79.4789
82.6258
83.9314
83.8122
82.7957
81.4319
80.2084
79.5672
79.8154
81.0229
82.8541
84.7983
86.5559
88.3131
90.3241
92.7589
95.5233
98.6205
101.924
105.57
109.441
113.797
118.445
123.789
129.473
136.136
143.144
151.538
160.224
170.941
181.873
196.035
210.552
230.861
252.395
284.072
317.055
363.772
407.353
467.107
517
594.519
669.056
769.532
1064.35
1099.66
987.778
879.541
793.408
717.813
649.112
589.508
539.204
499.669
467.508
440.652
415.719
392.699
370.291
349.731
330.112
312.297
295.345
279.669
264.497
250.105
236.055
222.63
209.657
197.391
185.857
175.224
165.517
156.73
148.828
141.659
135.185
129.212
123.776
118.693
114.091
109.773
105.941
102.39
99.3443
96.6352
94.4026
92.7
91.3315
91.0455
90.6416
39.3635
41.7886
44.7992
48.7431
54.0219
60.5429
67.6119
74.161
79.2457
82.4439
83.8032
83.7317
82.7551
81.4258
80.2359
79.6307
79.9143
81.1435
82.9691
84.885
86.6155
88.3656
90.3864
92.8367
95.6141
98.7214
102.032
105.686
109.564
113.93
118.586
123.94
129.634
136.308
143.328
151.736
160.438
171.175
182.129
196.322
210.878
231.251
252.871
284.681
317.807
364.702
408.367
468.123
517.789
594.976
669.125
767.926
1058.43
1092.39
980.803
872.651
786.67
711.219
642.955
583.799
533.992
494.681
462.473
435.3
409.947
386.536
363.839
343.116
323.444
305.664
288.811
273.282
258.298
244.132
230.348
217.226
204.599
192.713
181.589
171.376
162.082
153.68
146.119
139.24
133.001
127.22
121.937
116.988
112.499
108.296
104.566
101.134
98.1884
95.6041
93.4653
91.8888
90.6039
90.4443
90.1172
39.3323
41.7178
44.6823
48.576
53.8042
60.2848
67.3361
73.8964
79.0184
82.2684
83.682
83.6593
82.7237
81.4302
80.2755
79.7073
80.0257
81.2744
83.0912
84.9764
86.6791
88.4218
90.452
92.917
95.7066
98.8232
102.141
105.802
109.687
114.061
118.725
124.089
129.793
136.478
143.51
151.933
160.649
171.407
182.383
196.607
211.201
231.639
253.344
285.284
318.55
365.617
409.359
469.108
518.548
595.405
669.169
766.291
1052.48
1085.1
973.858
865.83
780.031
704.748
636.931
578.216
528.879
489.752
457.456
429.939
404.157
380.357
357.385
336.514
316.805
299.072
282.329
266.958
252.173
238.246
224.742
211.94
199.675
188.186
177.484
167.699
158.819
150.797
143.566
136.963
130.946
125.346
120.207
115.387
111.005
106.915
103.285
99.9691
97.1212
94.6575
92.608
91.1511
89.9447
89.9031
89.6461
39.3017
41.6483
44.5676
48.412
53.5905
60.0312
67.0654
73.6372
78.7969
82.099
83.5676
83.5944
82.701
81.4448
80.3265
79.7962
80.1489
81.4149
83.2197
85.0719
86.7461
88.4816
90.5208
92.9996
95.8005
98.9258
102.25
105.918
109.81
114.192
118.864
124.238
129.95
136.647
143.69
152.127
160.859
171.637
182.635
196.89
211.523
232.024
253.813
285.882
319.284
366.515
410.329
470.063
519.279
595.808
669.188
764.627
1046.5
1077.78
966.941
859.076
773.486
698.395
631.033
572.752
523.857
484.877
452.458
424.573
398.357
374.175
350.942
329.938
310.21
292.538
275.917
260.714
246.142
232.466
219.258
206.792
194.905
183.827
173.558
164.205
155.737
148.086
141.172
134.831
129.021
123.591
118.587
113.888
109.61
105.63
102.096
98.8929
96.139
93.7909
91.8259
90.4818
89.3486
89.4166
89.2233
39.2717
41.5801
44.4551
48.2512
53.3806
59.7821
66.7996
73.3833
78.5809
81.9356
83.4596
83.5368
82.6867
81.469
80.3886
79.8969
80.2833
81.5641
83.3538
85.1711
86.8164
88.5446
90.5925
93.0844
95.8958
99.029
102.36
106.033
109.932
114.321
119.002
124.385
130.107
136.815
143.869
152.32
161.067
171.865
182.885
197.171
211.844
232.408
254.28
286.474
320.008
367.398
411.277
470.989
519.983
596.185
669.183
762.937
1040.49
1070.45
960.046
852.384
767.032
692.156
625.256
567.402
518.923
480.054
447.479
419.206
392.554
367.999
344.525
323.407
303.676
286.078
269.593
254.57
240.223
226.812
213.915
201.8
190.308
179.653
169.825
160.905
152.843
145.551
138.938
132.842
127.225
121.953
117.074
112.49
108.311
104.436
100.995
97.9017
95.2377
92.9996
91.114
89.8759
88.8104
88.9797
88.8436
39.2423
41.5132
44.3448
48.0933
53.1745
59.5374
66.5385
73.1344
78.3702
81.7779
83.3579
83.4861
82.6804
81.5026
80.4613
80.0088
80.4282
81.7214
83.4931
85.2737
86.8897
88.6108
90.667
93.1712
95.9922
99.1328
102.469
106.149
110.054
114.451
119.138
124.53
130.261
136.981
144.046
152.512
161.274
172.092
183.133
197.451
212.162
232.789
254.744
287.06
320.723
368.264
412.203
471.885
520.66
596.537
669.154
761.221
1034.45
1063.1
953.17
845.751
760.665
686.027
619.596
562.161
514.072
475.28
442.52
413.843
386.758
361.842
338.149
316.934
297.221
279.711
263.376
248.544
234.435
221.302
208.732
196.983
185.899
175.678
166.295
157.806
150.14
143.192
136.863
130.995
125.556
120.429
115.667
111.191
107.105
103.331
99.9802
96.9912
94.4126
92.2786
90.4673
89.328
88.325
88.5876
88.5025
39.2134
41.4476
44.2366
47.9384
52.9721
59.2969
66.2821
72.8904
78.1647
81.6256
83.2621
83.4421
82.6818
81.5451
80.544
80.1312
80.5828
81.8862
83.637
85.3792
86.9658
88.6797
90.7439
93.2597
96.0897
99.237
102.578
106.264
110.175
114.579
119.274
124.675
130.415
137.145
144.222
152.701
161.478
172.316
183.38
197.729
212.479
233.168
255.205
287.64
321.428
369.115
413.108
472.754
521.312
596.866
669.103
759.482
1028.4
1055.72
946.31
839.173
754.38
680.002
614.047
557.022
509.299
470.553
437.583
408.49
380.978
355.718
331.827
310.537
290.861
273.454
257.283
242.654
228.798
215.956
203.728
192.359
181.696
171.916
162.978
154.913
147.629
141.008
134.943
129.287
124.01
119.016
114.362
109.987
105.989
102.312
99.0458
96.1566
93.6586
91.6229
89.8805
88.8333
87.8876
88.2357
88.1956
39.185
41.3832
44.1304
47.7863
52.7732
59.0606
66.0302
72.6512
77.9641
81.4786
83.172
83.4045
82.6905
81.5962
80.6364
80.2637
80.7465
82.0576
83.785
85.4873
87.0443
88.7514
90.8232
93.3499
96.1881
99.3416
102.688
106.379
110.295
114.707
119.409
124.819
130.567
137.308
144.395
152.889
161.681
172.539
183.624
198.004
212.794
233.545
255.662
288.215
322.124
369.949
413.991
473.595
521.939
597.173
669.031
757.72
1022.32
1048.32
939.463
832.646
748.174
674.077
608.604
551.982
504.6
465.871
432.669
403.153
375.225
349.639
325.576
304.233
284.614
267.325
251.333
236.919
223.328
210.792
198.92
187.944
177.711
168.374
159.88
152.228
145.31
138.995
133.175
127.711
122.582
117.71
113.153
108.873
104.958
101.373
98.1875
95.3931
92.9709
91.0273
89.3487
88.3869
87.4935
87.9198
87.919
39.1572
41.32
44.0263
47.6371
52.5779
58.8284
65.7828
72.4166
77.7684
81.3366
83.0873
83.373
82.7063
81.6553
80.7378
80.4057
80.9187
82.2352
83.9366
85.5978
87.1253
88.8256
90.9047
93.4416
96.2874
99.4464
102.797
106.494
110.415
114.833
119.543
124.961
130.718
137.47
144.568
153.075
161.882
172.76
183.867
198.278
213.108
233.919
256.116
288.783
322.809
370.767
414.852
474.409
522.542
597.459
668.937
755.936
1016.22
1040.9
932.626
826.166
742.043
668.249
603.262
547.034
499.972
461.234
427.782
397.839
369.509
343.618
319.411
298.037
278.497
261.341
245.542
231.356
218.045
205.826
194.323
183.75
173.954
165.062
157.003
149.75
143.179
137.148
131.552
126.262
121.266
116.504
112.038
107.845
104.007
100.509
97.4004
94.6955
92.3443
90.487
88.8672
87.9843
87.1385
87.6358
87.6691
39.1299
41.258
43.924
47.4906
52.3861
58.6002
65.5396
72.1865
77.5773
81.1995
83.0078
83.3472
82.7287
81.7222
80.848
80.5567
81.0987
82.4183
84.0913
85.7104
87.2084
88.9022
90.9882
93.5346
96.3873
99.5515
102.906
106.608
110.535
114.959
119.675
125.102
130.868
137.63
144.738
153.26
162.082
172.979
184.108
198.551
213.419
234.291
256.566
289.345
323.485
371.568
415.693
475.197
523.123
597.723
668.823
754.133
1010.12
1033.45
925.795
819.731
735.983
662.511
598.017
542.174
495.412
456.641
422.925
392.555
363.841
337.67
313.347
291.967
272.526
255.519
239.928
225.982
212.963
201.073
189.951
179.789
170.433
161.982
154.347
147.474
141.228
135.46
130.065
124.932
120.055
115.393
111.009
106.898
103.133
99.7167
96.6796
94.059
91.7741
89.9971
88.4314
87.6213
86.8186
87.3803
87.4427
39.1031
41.1971
43.8237
47.3467
52.1976
58.3758
65.3006
71.9608
77.3907
81.0669
82.9332
83.327
82.7575
81.7965
80.9664
80.716
81.2861
82.6064
84.2488
85.8248
87.2936
88.9809
91.0736
93.6289
96.4879
99.6567
103.016
106.721
110.653
115.084
119.807
125.242
131.016
137.788
144.908
153.442
162.279
173.196
184.348
198.821
213.728
234.661
257.013
289.9
324.15
372.353
416.513
475.959
523.681
597.968
668.69
752.312
1004
1025.97
918.967
813.337
729.99
656.86
592.862
537.399
490.916
452.092
418.102
387.31
358.233
331.807
307.399
286.037
266.718
249.875
234.507
220.811
208.097
196.548
185.816
176.069
167.153
159.134
151.909
145.396
139.45
133.921
128.708
123.715
118.944
114.372
110.062
106.026
102.328
98.9896
96.0201
93.4789
91.2555
89.5533
88.0371
87.2939
86.5301
87.15
87.2367
39.0768
41.1374
43.7253
47.2055
52.0123
58.1553
65.0657
71.7393
77.2083
80.9388
82.8634
83.3121
82.7923
81.8778
81.0927
80.8833
81.4802
82.799
84.4087
85.9409
87.3807
89.0618
91.1607
93.7243
96.589
99.7621
103.124
106.835
110.771
115.209
119.938
125.381
131.163
137.945
145.075
153.624
162.475
173.411
184.585
199.089
214.036
235.028
257.456
290.449
324.806
373.123
417.312
476.695
524.219
598.195
668.539
750.473
997.871
1018.48
912.141
806.98
724.06
651.291
587.795
532.703
486.482
447.587
413.317
382.11
352.695
326.044
301.583
280.262
261.087
244.423
229.291
215.857
203.46
192.26
181.925
172.595
164.114
156.516
149.681
143.505
137.836
132.521
127.471
122.602
117.925
113.433
109.19
105.224
101.589
98.3235
95.4172
92.9504
90.7842
89.1514
87.6803
86.9987
86.2696
86.9419
87.0486
39.051
41.0787
43.6286
47.0668
51.8303
57.9384
64.8348
71.5218
77.03
80.8149
82.7981
83.3021
82.833
81.9658
81.2264
81.058
81.6805
82.9956
84.5706
86.0584
87.4695
89.1446
91.2494
93.8207
96.6905
99.8674
103.233
106.947
110.889
115.332
120.068
125.519
131.309
138.101
145.241
153.803
162.669
173.625
184.821
199.356
214.342
235.392
257.896
290.991
325.451
373.876
418.091
477.407
524.736
598.403
668.369
748.618
991.739
1010.95
905.314
800.657
718.188
645.8
582.809
528.083
482.109
443.127
408.575
376.965
347.239
320.393
295.911
274.658
255.647
239.177
224.294
211.133
199.062
188.217
178.283
169.369
161.315
154.121
147.656
141.791
136.374
131.252
126.346
121.586
116.991
112.571
108.389
104.487
100.911
97.7136
94.8664
92.4692
90.3559
88.7875
87.3575
86.7322
86.0343
86.7533
86.876
39.0256
41.0211
43.5337
46.9305
51.6514
57.7251
64.6077
71.3083
76.8558
80.6951
82.737
83.297
82.8791
82.0602
81.3671
81.2396
81.8864
83.1957
84.7343
86.1771
87.56
89.2293
91.3397
93.918
96.7925
99.9728
103.341
107.06
111.006
115.455
120.197
125.655
131.453
138.255
145.406
153.981
162.862
173.837
185.055
199.621
214.645
235.754
258.332
291.527
326.086
374.613
418.849
478.096
525.234
598.594
668.182
746.749
985.604
1003.4
898.484
794.364
712.373
640.383
577.902
523.535
477.795
438.714
403.881
371.882
341.876
314.867
290.398
269.236
250.411
234.148
219.527
206.646
194.91
184.425
174.893
166.389
158.749
151.942
145.822
140.244
135.053
130.103
125.323
120.658
116.136
111.78
107.653
103.811
100.289
97.1554
94.3635
92.0313
89.9669
88.458
87.0653
86.4915
85.8212
86.5818
86.7168
39.0007
40.9646
43.4406
46.7968
51.4755
57.5153
64.3843
71.0986
76.6853
80.5791
82.6801
83.2964
82.9305
82.1606
81.5144
81.4277
82.0976
83.399
84.8995
86.2971
87.652
89.3157
91.4313
94.0161
96.8947
100.078
103.449
107.172
111.122
115.577
120.325
125.791
131.597
138.408
145.569
154.157
163.053
174.047
185.287
199.883
214.947
236.113
258.763
292.056
326.711
375.334
419.588
478.761
525.714
598.769
667.978
744.866
979.47
995.827
891.649
788.1
706.609
635.036
573.069
519.057
473.538
434.348
399.239
366.87
336.617
309.478
285.055
264.009
245.389
229.345
214.997
202.405
191.009
180.886
171.753
163.65
156.41
149.968
144.168
138.851
133.863
129.064
124.393
119.812
115.353
111.054
106.977
103.189
99.7185
96.6447
93.9044
91.6329
89.6135
88.1598
86.8008
86.2738
85.628
86.4254
86.5691
38.9762
40.909
43.3491
46.6653
51.3027
57.3089
64.1646
70.8926
76.5185
80.4669
82.627
83.3
82.9868
82.2667
81.668
81.6219
82.3135
83.6049
85.0658
86.418
87.7456
89.4037
91.5243
94.115
96.9972
100.183
103.557
107.283
111.237
115.698
120.452
125.925
131.739
138.56
145.731
154.332
163.242
174.255
185.517
200.144
215.247
236.47
259.192
292.579
327.326
376.04
420.308
479.403
526.175
598.927
667.758
742.971
973.339
988.229
884.806
781.861
700.894
629.754
568.306
514.644
469.337
430.033
394.656
361.937
331.472
304.238
279.893
258.987
240.589
224.777
210.711
198.413
187.36
177.6
168.859
161.146
154.286
148.186
142.681
137.599
132.791
128.125
123.549
119.04
114.636
110.388
106.356
102.619
99.1953
96.1777
93.4853
91.2705
89.2926
87.8897
86.5611
86.0769
85.4524
86.282
86.4313
38.9522
40.8545
43.2593
46.5362
51.1327
57.1059
63.9483
70.6901
76.3552
80.3581
82.5776
83.3078
83.0479
82.3783
81.8274
81.8217
82.5336
83.8131
85.2331
86.5397
87.8404
89.4933
91.6184
94.2145
97.0999
100.288
103.664
107.394
111.352
115.818
120.578
126.059
131.879
138.71
145.891
154.505
163.43
174.462
185.746
200.403
215.544
236.824
259.616
293.095
327.93
376.73
421.008
480.024
526.62
599.071
667.523
741.065
967.214
980.609
877.955
775.644
695.223
624.534
563.609
510.295
465.192
425.769
390.136
357.092
326.451
299.157
274.923
254.178
236.02
220.449
206.671
194.671
183.964
174.561
166.205
158.865
152.366
146.583
141.348
136.477
131.827
127.276
122.782
118.335
113.979
109.777
105.785
102.096
98.7156
95.7506
93.103
90.941
89.0012
87.645
86.3439
85.8984
85.2925
86.1499
86.302
38.9286
40.8009
43.171
46.4094
50.9656
56.9061
63.7356
70.4911
76.1953
80.2527
82.5317
83.3194
83.1133
82.4949
81.9924
82.0267
82.7576
84.0233
85.4012
86.6623
87.9366
89.5843
91.7137
94.3146
97.2028
100.393
103.771
107.504
111.466
115.938
120.703
126.191
132.019
138.859
146.05
154.677
163.616
174.667
185.973
200.66
215.84
237.175
260.036
293.604
328.525
377.404
421.69
480.624
527.049
599.2
667.272
739.149
961.097
972.966
871.093
769.448
689.595
619.373
558.976
506.006
461.103
421.56
385.685
352.342
321.563
294.244
270.152
249.589
231.685
216.363
202.88
191.179
180.815
171.764
163.78
156.798
150.637
145.146
140.155
135.471
130.961
126.509
122.086
117.692
113.378
109.216
105.261
101.615
98.2758
95.3602
92.7542
90.6413
88.7365
87.4234
86.1468
85.7363
85.1463
86.0277
86.1798
38.9054
40.7483
43.0844
46.2847
50.8012
56.7095
63.5261
70.2954
76.0387
80.1505
82.4891
83.3346