/*--------------------------------*- C++ -*----------------------------------*\
| =========                 |                                                 |
| \\      /  F ield         | OpenFOAM: The Open Source CFD Toolbox           |
|  \\    /   O peration     | Version:  2412                                  |
|   \\  /    A nd           | Website:  www.openfoam.com                      |
|    \\/     M anipulation  |                                                 |
\*---------------------------------------------------------------------------*/
FoamFile
{
    version     2.0;
    format      ascii;
    arch        "LSB;label=32;scalar=64";
    class       volScalarField;
    location    "1";
    object      nut;
}
// * * * * * * * * * * * * * * * * * * * * * * * * * * * * * * * * * * * * * //

dimensions      [0 2 -1 0 0 0 0];

internalField   nonuniform List<scalar> 
13079
(
0.347538
0.364299
0.383599
0.404931
0.426291
0.443262
0.451405
0.448556
0.43519
0.413834
0.387592
0.359408
0.331506
0.30541
0.282124
0.262413
0.24694
0.23623
0.230456
0.229254
0.231936
0.237779
0.246131
0.256074
0.266788
0.277568
0.288287
0.298878
0.309511
0.320097
0.330601
0.340793
0.350375
0.359188
0.366775
0.373356
0.378323
0.382449
0.384974
0.387392
0.388762
0.390942
0.391978
0.392417
0.388915
0.380486
0.366548
0.349273
0.334684
0.329704
0.336789
0.359267
0.403372
0.343301
0.256447
0.199674
0.164783
0.138339
0.119729
0.105331
0.0951913
0.0874961
0.0820618
0.0775731
0.0738471
0.0702321
0.0668498
0.0635459
0.0604652
0.0575638
0.0549014
0.0524397
0.0501817
0.0480937
0.0461605
0.0443596
0.0426727
0.347346
0.363884
0.38302
0.404328
0.425836
0.443084
0.451547
0.448985
0.43584
0.414632
0.388476
0.360341
0.332479
0.306442
0.28326
0.263728
0.248532
0.238209
0.232926
0.232288
0.235579
0.242037
0.250945
0.261306
0.272254
0.283104
0.293764
0.304219
0.314651
0.325002
0.335228
0.345133
0.354405
0.362936
0.370246
0.376614
0.381399
0.38543
0.387893
0.39035
0.391782
0.394126
0.395307
0.395969
0.392608
0.384389
0.37055
0.353498
0.339095
0.334553
0.34198
0.364218
0.407211
0.347146
0.259772
0.202254
0.166786
0.139901
0.121016
0.106437
0.0962162
0.0884649
0.0829823
0.0784045
0.0745612
0.0708087
0.0672926
0.0638679
0.0606854
0.0577006
0.0549713
0.0524561
0.0501556
0.048034
0.0460747
0.0442542
0.0425542
0.347157
0.363475
0.382445
0.403722
0.42537
0.442888
0.451667
0.449389
0.436465
0.415405
0.389338
0.361254
0.333435
0.30746
0.284389
0.265042
0.250129
0.240199
0.235409
0.235336
0.239234
0.246302
0.255751
0.266506
0.277659
0.28855
0.299128
0.30943
0.319648
0.329757
0.339702
0.349322
0.35829
0.366546
0.373592
0.379759
0.384374
0.388321
0.390734
0.393238
0.394737
0.39725
0.398578
0.399467
0.396248
0.388245
0.374514
0.357697
0.343492
0.339396
0.347158
0.369125
0.410979
0.350935
0.263091
0.20485
0.168813
0.14149
0.122334
0.107579
0.0972783
0.0894681
0.0839302
0.0792538
0.0752842
0.0713876
0.0677334
0.0641858
0.0609009
0.0578326
0.0550367
0.0524687
0.0501263
0.0479719
0.0459874
0.0441487
0.0424371
0.346971
0.363071
0.381874
0.403114
0.424894
0.442675
0.451764
0.44977
0.437065
0.416155
0.390176
0.362146
0.334372
0.308465
0.285509
0.266352
0.251728
0.242196
0.237899
0.238391
0.242892
0.250564
0.260539
0.271663
0.282991
0.293897
0.304372
0.314505
0.324499
0.334361
0.344024
0.35336
0.362032
0.370022
0.376815
0.382794
0.387251
0.391125
0.393496
0.396055
0.397627
0.400313
0.401791
0.402907
0.399835
0.392053
0.378437
0.361867
0.34787
0.344228
0.352317
0.373985
0.414677
0.354663
0.266397
0.207457
0.170859
0.143107
0.123685
0.108757
0.098377
0.090505
0.0849045
0.0801203
0.0760156
0.0719685
0.0681726
0.0645002
0.0611122
0.0579605
0.0550986
0.0524782
0.0500948
0.0479084
0.0458999
0.0440443
0.0423231
0.346789
0.362673
0.381308
0.402505
0.424409
0.442446
0.451841
0.450126
0.437641
0.41688
0.390992
0.363018
0.335292
0.309455
0.286618
0.267657
0.253326
0.244195
0.240392
0.241445
0.246546
0.254815
0.265298
0.276766
0.28824
0.299137
0.309488
0.319438
0.329201
0.338811
0.348192
0.35725
0.365632
0.373366
0.379918
0.38572
0.390032
0.393842
0.396181
0.398801
0.400453
0.403314
0.404943
0.406289
0.403364
0.395809
0.382316
0.366004
0.352227
0.349045
0.357453
0.378794
0.418301
0.358327
0.269687
0.210072
0.172925
0.144749
0.125068
0.10997
0.0995121
0.0915749
0.0859044
0.0810029
0.0767549
0.0725515
0.0686105
0.0648117
0.0613204
0.0580854
0.0551579
0.0524859
0.0500623
0.0478449
0.0458136
0.0439427
0.0422138
0.0406044
0.03914
0.0378157
0.0366422
0.0356303
0.0347972
0.0341519
0.0337053
0.0334597
0.0334107
0.0335575
0.0338747
0.0343771
0.0350139
0.0358441
0.0367777
0.0379673
0.0392396
0.0409304
0.0426636
0.0451811
0.0474409
0.346609
0.36228
0.380746
0.401896
0.423916
0.442201
0.451897
0.450461
0.438194
0.417582
0.391786
0.363869
0.336194
0.31043
0.287717
0.268956
0.254922
0.246193
0.242882
0.244493
0.250188
0.259044
0.270019
0.281805
0.293398
0.30426
0.314471
0.324227
0.333752
0.343108
0.352208
0.360992
0.369092
0.376581
0.382903
0.38854
0.392717
0.396475
0.39879
0.401477
0.403213
0.406252
0.408034
0.40961
0.406836
0.399512
0.386149
0.370107
0.356559
0.353844
0.36256
0.383547
0.421851
0.361923
0.272957
0.212692
0.175006
0.146417
0.126481
0.111219
0.100683
0.0926772
0.0869291
0.0819012
0.0775019
0.0731366
0.0690477
0.0651214
0.0615265
0.0582086
0.0552162
0.0524932
0.0500303
0.047783
0.0457303
0.0438457
0.0421113
0.0405065
0.039054
0.0377523
0.0366133
0.0356484
0.0348749
0.0343017
0.0339379
0.033785
0.0338345
0.0340854
0.0345064
0.0351164
0.0358564
0.0367978
0.0378376
0.0391538
0.0405482
0.0424055
0.0442972
0.0470634
0.0495321
0.346433
0.361893
0.380189
0.401287
0.423415
0.441943
0.451935
0.450773
0.438724
0.418262
0.392559
0.3647
0.337078
0.31139
0.288805
0.270247
0.256513
0.248185
0.245364
0.247527
0.253811
0.263243
0.274691
0.28677
0.298454
0.30926
0.319316
0.328868
0.338149
0.347251
0.356074
0.364589
0.372416
0.379669
0.385774
0.391257
0.395311
0.399024
0.401324
0.404083
0.405907
0.409127
0.411064
0.41287
0.410247
0.403159
0.389934
0.374173
0.360864
0.358621
0.367634
0.388242
0.425326
0.365447
0.2762
0.215313
0.177101
0.148108
0.127925
0.112501
0.101889
0.0938112
0.0879778
0.0828145
0.0782565
0.0737244
0.0694852
0.0654303
0.061732
0.0583317
0.0552751
0.0525018
0.0500006
0.0477245
0.0456518
0.0437555
0.0420181
0.0404212
0.0389848
0.0377107
0.0366122
0.0357012
0.0349951
0.0345028
0.0342306
0.0341795
0.034336
0.0346995
0.0352317
0.035957
0.0368074
0.0378686
0.0390231
0.0404779
0.0420062
0.044048
0.0461153
0.0491578
0.0518578
0.346261
0.361512
0.379638
0.400679
0.422909
0.441671
0.451955
0.451065
0.439232
0.41892
0.39331
0.365512
0.337945
0.312336
0.28988
0.27153
0.258097
0.25017
0.247833
0.250542
0.257408
0.267405
0.279306
0.291651
0.303402
0.314132
0.324018
0.333358
0.342393
0.35124
0.359789
0.368043
0.375606
0.382634
0.388533
0.393872
0.397814
0.401492
0.403783
0.406621
0.408537
0.411938
0.41403
0.416066
0.413598
0.40675
0.393669
0.378199
0.365138
0.363371
0.37267
0.392875
0.428725
0.368896
0.279413
0.217932
0.179209
0.149822
0.129398
0.113818
0.10313
0.094976
0.0890498
0.0837426
0.079019
0.0743157
0.0699241
0.0657399
0.0619386
0.0584562
0.0553363
0.0525136
0.0499751
0.0476714
0.0455805
0.0436744
0.0419368
0.0403511
0.0389357
0.0376948
0.0366435
0.0357942
0.0351643
0.0347622
0.0345915
0.0346519
0.0349248
0.0354098
0.0360614
0.0369103
0.0378789
0.0390694
0.0403482
0.041955
0.0436306
0.0458766
0.0481381
0.0514863
0.0544419
0.346091
0.361136
0.379092
0.400072
0.422396
0.441386
0.451957
0.451338
0.439719
0.419557
0.394042
0.366305
0.338795
0.313267
0.290944
0.272802
0.259671
0.252143
0.250284
0.253533
0.260971
0.271521
0.283855
0.296441
0.308233
0.318868
0.328573
0.337696
0.346482
0.355076
0.363356
0.371355
0.378665
0.385478
0.391183
0.39639
0.400229
0.403879
0.40617
0.40909
0.411102
0.414685
0.416933
0.419199
0.416886
0.410282
0.397353
0.382183
0.369378
0.36809
0.377664
0.397442
0.432047
0.372267
0.282591
0.220545
0.181325
0.151556
0.1309
0.115168
0.104405
0.096171
0.0901446
0.0846852
0.0797897
0.0749113
0.0703658
0.0660519
0.062148
0.0585843
0.0554019
0.0525307
0.049956
0.047626
0.0455187
0.0436053
0.0418706
0.0403
0.0389106
0.0377093
0.0367126
0.0359337
0.0353897
0.0350881
0.0350295
0.0352121
0.0356113
0.0362273
0.037007
0.0379886
0.0390841
0.0404145
0.0418283
0.043602
0.0454394
0.047911
0.0503868
0.0540718
0.0573078
0.345924
0.360765
0.378551
0.399466
0.421878
0.441091
0.451944
0.451591
0.440186
0.420174
0.394754
0.36708
0.339629
0.314184
0.291996
0.274064
0.261235
0.2541
0.252714
0.256492
0.264494
0.275584
0.28833
0.301131
0.312942
0.323465
0.332979
0.34188
0.350417
0.35876
0.366778
0.37453
0.381596
0.388204
0.393726
0.398811
0.402558
0.406188
0.408484
0.411491
0.413602
0.417368
0.419772
0.422267
0.420111
0.413754
0.400982
0.386123
0.373583
0.372776
0.382612
0.40194
0.435292
0.375557
0.28573
0.223148
0.183449
0.15331
0.132429
0.11655
0.105714
0.0973955
0.0912616
0.0856423
0.0805693
0.0755124
0.0708119
0.0663682
0.0623624
0.058718
0.0554742
0.0525554
0.0499458
0.0475911
0.0454693
0.0435512
0.0418229
0.0402716
0.0389142
0.0377594
0.0368258
0.0361269
0.0356795
0.0354899
0.0355548
0.035871
0.036407
0.0371644
0.0380813
0.0392055
0.0404373
0.0419195
0.04348
0.0454369
0.0474518
0.0501717
0.0528829
0.0569368
0.0604785
0.34576
0.3604
0.378016
0.398863
0.421356
0.440784
0.451915
0.451827
0.440634
0.420771
0.395447
0.367838
0.340447
0.315088
0.293036
0.275314
0.262785
0.256041
0.255117
0.259417
0.267972
0.279587
0.292723
0.305715
0.317523
0.32792
0.337234
0.345909
0.354199
0.362296
0.370056
0.377569
0.384401
0.390816
0.396166
0.401138
0.404802
0.40842
0.410728
0.413825
0.416037
0.419987
0.422546
0.42527
0.42327
0.417165
0.404556
0.390016
0.377748
0.377423
0.387508
0.406366
0.438459
0.378763
0.288826
0.225739
0.185576
0.155081
0.133984
0.117963
0.107054
0.0986486
0.0924006
0.0866142
0.0813587
0.0761205
0.0712643
0.066691
0.0625841
0.05886
0.0555557
0.0525904
0.0499473
0.0475693
0.0454354
0.0435155
0.0417977
0.0402706
0.0389517
0.0378513
0.0369902
0.0363821
0.0360429
0.0359778
0.0361787
0.0366406
0.0373247
0.0382343
0.0392985
0.0405757
0.041954
0.0436007
0.045321
0.0474784
0.0496876
0.0526797
0.0556483
0.0601034
0.0639759
0.345599
0.36004
0.377487
0.398262
0.420831
0.440468
0.451872
0.452045
0.441064
0.42135
0.396123
0.368579
0.34125
0.315978
0.294063
0.276553
0.264321
0.25796
0.257491
0.262301
0.271399
0.283523
0.297028
0.310186
0.321971
0.332228
0.341337
0.349785
0.357829
0.365684
0.373195
0.380477
0.387086
0.393317
0.398506
0.403376
0.406965
0.410576
0.412902
0.416093
0.418408
0.422541
0.425255
0.428206
0.426365
0.420513
0.408074
0.39386
0.381872
0.382029
0.39235
0.410717
0.441548
0.381882
0.291873
0.228313
0.187705
0.156868
0.135564
0.119407
0.108427
0.0999297
0.0935612
0.0876012
0.082159
0.0767372
0.0717252
0.0670226
0.0628159
0.0590129
0.0556494
0.0526386
0.0499634
0.0475641
0.0454206
0.0435022
0.0417993
0.0403019
0.0390289
0.0379918
0.0372137
0.0367083
0.0364904
0.0365633
0.0369135
0.0375342
0.0383783
0.0394516
0.0406734
0.042115
0.0436508
0.0454759
0.0473696
0.0497461
0.0521673
0.0554561
0.0587041
0.0635926
0.0678198
0.345441
0.359686
0.376964
0.397663
0.420302
0.440143
0.451815
0.452247
0.441476
0.421912
0.396781
0.369304
0.342039
0.316854
0.295078
0.277778
0.265842
0.259857
0.259832
0.265141
0.274769
0.287387
0.301239
0.31454
0.326282
0.336389
0.345288
0.353509
0.361309
0.368927
0.376196
0.383257
0.389652
0.395711
0.400749
0.405525
0.409048
0.41266
0.415008
0.418295
0.420715
0.425031
0.427899
0.431075
0.429393
0.423797
0.411533
0.397654
0.385952
0.38659
0.397132
0.41499
0.444558
0.384913
0.294869
0.230867
0.189834
0.158668
0.137167
0.12088
0.109829
0.101238
0.0947434
0.088604
0.0829716
0.0773646
0.0721971
0.0673659
0.0630606
0.0591797
0.0557583
0.0527032
0.0499976
0.0475789
0.0454288
0.0435157
0.0418328
0.0403716
0.0391526
0.0381888
0.0375054
0.0371159
0.0370336
0.0372593
0.0377731
0.0385663
0.0395829
0.0408319
0.0422223
0.0438403
0.0455453
0.0475634
0.0496451
0.05226
0.0549111
0.0585212
0.0620708
0.0674234
0.0720272
0.345286
0.359337
0.376447
0.397068
0.419771
0.439809
0.451746
0.452433
0.441872
0.422456
0.397423
0.370014
0.342813
0.317718
0.296081
0.278991
0.267345
0.261729
0.262136
0.267933
0.278079
0.291174
0.30535
0.318771
0.330455
0.340401
0.349086
0.35708
0.364642
0.372028
0.379063
0.385912
0.392103
0.397999
0.402897
0.407588
0.411054
0.414671
0.417047
0.420432
0.422959
0.427456
0.430477
0.433877
0.432355
0.427016
0.414932
0.401395
0.389985
0.391101
0.401851
0.419182
0.447489
0.387854
0.297808
0.233397
0.191958
0.16048
0.138791
0.122382
0.111262
0.102573
0.0959474
0.0896234
0.0837982
0.0780049
0.0726826
0.0677238
0.0633215
0.0593639
0.055886
0.0527879
0.0500538
0.047618
0.0454645
0.0435609
0.0419039
0.040486
0.0393304
0.0384512
0.0378756
0.0376167
0.0376854
0.0380796
0.0387724
0.0397526
0.0409547
0.0423918
0.0439623
0.0457691
0.0476557
0.0498823
0.052167
0.0550399
0.0579391
0.0618946
0.0657669
0.0716121
0.0766119
0.345133
0.358994
0.375935
0.396477
0.419237
0.439468
0.451664
0.452605
0.442251
0.422984
0.398049
0.370709
0.343574
0.318569
0.297071
0.28019
0.268829
0.263573
0.264402
0.270673
0.281323
0.294878
0.309357
0.322876
0.334486
0.344264
0.352733
0.360502
0.36783
0.374992
0.3818
0.388446
0.394444
0.400187
0.404955
0.409569
0.412985
0.416613
0.419021
0.422506
0.42514
0.429817
0.43299
0.436611
0.435248
0.43017
0.418271
0.405081
0.393969
0.395561
0.406503
0.423292
0.450342
0.390702
0.300688
0.235899
0.194075
0.162301
0.140436
0.12391
0.112723
0.103935
0.0971734
0.0906607
0.0846408
0.0786608
0.073185
0.0680999
0.0636022
0.0595693
0.0560364
0.0528967
0.0501361
0.0476858
0.0455327
0.0436436
0.0420189
0.0406526
0.039571
0.0387888
0.0383356
0.0382234
0.0384601
0.03904
0.0399276
0.0411099
0.0425109
0.044149
0.0459112
0.0479199
0.0500007
0.0524514
0.0549545
0.0581052
0.06127
0.065594
0.0698086
0.0761718
0.0815831
0.344983
0.358656
0.37543
0.395889
0.418702
0.439119
0.451571
0.452763
0.442615
0.423497
0.398661
0.37139
0.344322
0.319408
0.29805
0.281374
0.270294
0.265389
0.266625
0.273359
0.284499
0.298495
0.313255
0.326852
0.338374
0.347977
0.35623
0.363777
0.370876
0.37782
0.384411
0.390862
0.396678
0.402278
0.406924
0.41147
0.414842
0.418486
0.420929
0.424516
0.427259
0.432114
0.435438
0.439278
0.438075
0.433257
0.421548
0.408712
0.397901
0.399964
0.411084
0.427317
0.453116
0.393457
0.303505
0.238371
0.196183
0.16413
0.142099
0.125463
0.114212
0.105323
0.0984219
0.0917171
0.0855017
0.0793352
0.0737077
0.0684978
0.0639069
0.0597999
0.0562137
0.053034
0.0502494
0.0477875
0.0456391
0.0437699
0.0421852
0.0408799
0.039884
0.039213
0.0388984
0.0389505
0.0393735
0.040157
0.0412564
0.0426562
0.0442697
0.0461218
0.0480875
0.0503111
0.052599
0.0552899
0.0580265
0.061474
0.064921
0.0696347
0.0742089
0.0811114
0.0869452
0.344836
0.358323
0.374931
0.395304
0.418167
0.438764
0.451468
0.452908
0.442965
0.423995
0.399258
0.372058
0.345058
0.320236
0.299017
0.282545
0.271739
0.267174
0.268805
0.275987
0.287603
0.302022
0.31704
0.330697
0.342118
0.351542
0.359578
0.366907
0.373783
0.380516
0.386899
0.393165
0.398808
0.404274
0.408808
0.413293
0.416628
0.420293
0.422775
0.426465
0.429316
0.434348
0.43782
0.441877
0.440833
0.436277
0.424761
0.412285
0.40178
0.404309
0.415592
0.431254
0.455812
0.396117
0.306256
0.240808
0.198278
0.165963
0.143779
0.127041
0.115729
0.106736
0.0996937
0.0927944
0.0863834
0.0800313
0.0742544
0.0689218
0.0642398
0.0600604
0.0564229
0.053205
0.050399
0.0479289
0.04579
0.0439472
0.0424109
0.0411772
0.0402804
0.0397363
0.0395782
0.0398139
0.0404427
0.0414488
0.0427772
0.0444103
0.0462498
0.0483288
0.0505098
0.0529614
0.0554689
0.0584156
0.0614002
0.0651626
0.0689069
0.0740287
0.0789773
0.086435
0.0926975
0.344691
0.357995
0.374438
0.394724
0.41763
0.438404
0.451354
0.45304
0.443301
0.424479
0.399841
0.372713
0.345783
0.321053
0.299972
0.283701
0.273163
0.268926
0.27094
0.278555
0.290632
0.305455
0.320712
0.334409
0.345719
0.354959
0.362781
0.369895
0.376555
0.383086
0.389269
0.395359
0.400839
0.406179
0.410611
0.415041
0.418346
0.422035
0.424559
0.428353
0.431312
0.436519
0.440138
0.444407
0.443523
0.43923
0.427911
0.415799
0.405602
0.408592
0.420022
0.435102
0.45843
0.398682
0.308938
0.243208
0.200359
0.167799
0.145474
0.128641
0.117271
0.108176
0.10099
0.0938944
0.0872888
0.0807528
0.0748294
0.0693764
0.064606
0.0603559
0.0566692
0.0534152
0.0505907
0.0481163
0.0459926
0.0441833
0.0427052
0.0415553
0.0407726
0.0403728
0.0403909
0.0408309
0.0416863
0.0429347
0.0445097
0.0463917
0.0484705
0.0507889
0.0531963
0.0558886
0.0586281
0.0618453
0.0650916
0.069185
0.0732397
0.0787848
0.0841186
0.0921419
0.0988331
0.344549
0.357672
0.373951
0.394149
0.417093
0.438038
0.451232
0.453161
0.443624
0.424949
0.400412
0.373356
0.346496
0.321859
0.300916
0.284842
0.274565
0.270646
0.273027
0.281061
0.293583
0.308793
0.324266
0.337987
0.349176
0.35823
0.36584
0.372746
0.379196
0.385531
0.391524
0.397447
0.402773
0.407997
0.412334
0.416716
0.419997
0.423714
0.426283
0.430181
0.433249
0.438627
0.44239
0.446871
0.446144
0.442115
0.430997
0.419252
0.409366
0.41281
0.424373
0.43886
0.46097
0.40115
0.311547
0.245567
0.202421
0.169636
0.147182
0.130263
0.11884
0.109641
0.102311
0.0950194
0.0882213
0.0815036
0.0754374
0.0698666
0.0650107
0.060692
0.0569585
0.0536706
0.0508313
0.048357
0.0462548
0.0444875
0.0430786
0.0420261
0.0413742
0.0411382
0.0413538
0.0420204
0.0431241
0.044635
0.0464741
0.0486202
0.0509509
0.0535205
0.0561649
0.0591096
0.0620923
0.0655939
0.0691138
0.0735521
0.0779275
0.083907
0.0896331
0.0982256
0.10534
0.344409
0.357354
0.373471
0.393577
0.416557
0.437667
0.451101
0.45327
0.443934
0.425407
0.400971
0.373988
0.347199
0.322655
0.301849
0.285969
0.275945
0.272332
0.275065
0.283504
0.296456
0.312032
0.327702
0.341431
0.352491
0.361358
0.368759
0.375461
0.381709
0.387858
0.393668
0.399433
0.404615
0.409731
0.413981
0.418322
0.421583
0.425331
0.427947
0.43195
0.435126
0.440673
0.444579
0.449266
0.448698
0.444931
0.434018
0.422643
0.413071
0.41696
0.42864
0.442525
0.463433
0.403521
0.314082
0.247882
0.204462
0.17147
0.1489
0.131905
0.120433
0.111132
0.103659
0.096172
0.0891843
0.0822882
0.0760834
0.070398
0.0654599
0.0610748
0.0572973
0.0539783
0.0511281
0.0486589
0.0465857
0.0448698
0.0435428
0.0426031
0.0421007
0.0420497
0.042486
0.0434028
0.0447771
0.0465709
0.048691
0.0511156
0.0537096
0.0565411
0.0594319
0.0626399
0.0658758
0.0696737
0.0734772
0.0782714
0.0829747
0.0893951
0.0955157
0.104674
0.112199
0.344272
0.357041
0.372996
0.393011
0.416021
0.437293
0.450961
0.453369
0.444233
0.425853
0.401518
0.374609
0.347892
0.323442
0.302771
0.287081
0.277303
0.273983
0.277055
0.285882
0.299247
0.315171
0.331018
0.344741
0.355666
0.364345
0.371541
0.378046
0.384099
0.390068
0.395706
0.401322
0.406368
0.411384
0.415554
0.41986
0.423106
0.426889
0.429555
0.433661
0.436944
0.442658
0.446704
0.451595
0.451183
0.44768
0.436972
0.425971
0.416713
0.421039
0.432821
0.446097
0.46582
0.405794
0.31654
0.250151
0.20648
0.1733
0.150628
0.133565
0.12205
0.11265
0.105036
0.0973549
0.0901819
0.0831114
0.076773
0.0709766
0.06596
0.0615112
0.0576927
0.0543457
0.0514892
0.0490311
0.0469954
0.0453417
0.0441107
0.0433011
0.042969
0.0431261
0.0438079
0.0449995
0.0466673
0.0487636
0.0511808
0.053897
0.0567644
0.0598669
0.063012
0.0664924
0.0699899
0.0740938
0.0781886
0.0833462
0.088381
0.0952437
0.101756
0.11147
0.119388
0.344137
0.356733
0.372528
0.392449
0.415486
0.436914
0.450814
0.453457
0.44452
0.426288
0.402054
0.375221
0.348576
0.32422
0.303683
0.288179
0.278637
0.275598
0.278993
0.288195
0.301956
0.318209
0.334215
0.347917
0.358702
0.367194
0.37419
0.380504
0.38637
0.392168
0.397641
0.403116
0.408036
0.412959
0.417057
0.421333
0.424569
0.428389
0.431105
0.435316
0.438706
0.444582
0.448766
0.453857
0.453601
0.450359
0.439861
0.429236
0.420292
0.425046
0.436915
0.449575
0.468131
0.407971
0.318918
0.25237
0.208472
0.175123
0.152364
0.135244
0.123692
0.114195
0.106443
0.0985713
0.0912184
0.0839783
0.0775122
0.071609
0.0665182
0.0620085
0.0581528
0.0547812
0.0519239
0.0494837
0.047495
0.0459158
0.0447968
0.0441366
0.0439975
0.0443879
0.0453413
0.0468329
0.0488168
0.0512347
0.0539635
0.0569825
0.0601315
0.0635122
0.0669177
0.0706775
0.074443
0.0788601
0.0832506
0.0887753
0.0941412
0.101442
0.108339
0.11859
0.126878
0.344004
0.35643
0.372066
0.391892
0.414952
0.436532
0.45066
0.453537
0.444797
0.426711
0.40258
0.375822
0.349251
0.324989
0.304585
0.289262
0.279949
0.277178
0.280882
0.290442
0.304583
0.321145
0.337292
0.350962
0.361601
0.369909
0.376709
0.382839
0.388525
0.394161
0.399478
0.404821
0.409622
0.41446
0.418493
0.422743
0.425973
0.429832
0.432601
0.436915
0.44041
0.446447
0.450765
0.456053
0.455951
0.452971
0.442683
0.432435
0.423806
0.428977
0.440918
0.452957
0.470367
0.410051
0.321216
0.254537
0.210436
0.176938
0.154105
0.136938
0.125357
0.115769
0.107882
0.0998246
0.0922984
0.0848948
0.0783076
0.0723024
0.0671422
0.062575
0.058686
0.0552941
0.0524422
0.0500276
0.048097
0.0466062
0.0456172
0.0451277
0.0452065
0.045857
0.0471091
0.0489263
0.051248
0.0540049
0.0570578
0.0603884
0.0638247
0.0674886
0.0711582
0.0752024
0.0792397
0.0839741
0.0886619
0.094553
0.100246
0.107976
0.115244
0.126008
0.134635
0.343874
0.356131
0.37161
0.391341
0.41442
0.436147
0.4505
0.453607
0.445064
0.427125
0.403096
0.376415
0.349918
0.32575
0.305477
0.290331
0.281237
0.278722
0.282719
0.292622
0.307126
0.323979
0.340249
0.353876
0.364367
0.372492
0.379103
0.385055
0.39057
0.39605
0.401221
0.406439
0.41113
0.41589
0.419863
0.424092
0.427321
0.431221
0.434044
0.438461
0.44206
0.448253
0.452702
0.458183
0.458235
0.455514
0.445439
0.435568
0.427253
0.43283
0.44483
0.456243
0.472529
0.412035
0.323431
0.25665
0.212368
0.178741
0.15585
0.138648
0.127046
0.117371
0.109356
0.101119
0.0934271
0.085867
0.0791663
0.0730646
0.0678404
0.0632196
0.059302
0.0558946
0.0530551
0.0506752
0.0488152
0.0474286
0.0465895
0.0462941
0.0466176
0.0475563
0.0491351
0.0513028
0.0539827
0.0570938
0.0604806
0.0641289
0.0678553
0.0718046
0.0757398
0.0800704
0.0843807
0.0894331
0.0944164
0.100669
0.106679
0.114823
0.122445
0.13369
0.142624
0.343746
0.355837
0.37116
0.390794
0.413889
0.43576
0.450334
0.45367
0.445322
0.427529
0.403603
0.377
0.350578
0.326504
0.30636
0.291386
0.282503
0.28023
0.284505
0.294735
0.309586
0.326712
0.343087
0.356661
0.367002
0.374947
0.381375
0.387157
0.392508
0.397841
0.402873
0.407974
0.412562
0.41725
0.42117
0.425384
0.428614
0.432556
0.435435
0.439953
0.443655
0.450001
0.454579
0.460248
0.460452
0.457989
0.448128
0.438635
0.430632
0.436605
0.448647
0.459432
0.474618
0.413922
0.325563
0.258707
0.214268
0.180531
0.157598
0.140373
0.128759
0.119003
0.110868
0.102457
0.0946099
0.0869014
0.0800959
0.0739039
0.068622
0.0639518
0.0600112
0.0565939
0.0537751
0.0514399
0.0496648
0.0483998
0.0477329
0.0476572
0.0482538
0.04951
0.0514432
0.0539853
0.0570416
0.060519
0.0642462
0.0682149
0.0722314
0.0764653
0.0806647
0.0852808
0.0898625
0.0952302
0.100503
0.107107
0.113423
0.12196
0.129913
0.141603
0.150804
0.34362
0.355548
0.370716
0.390252
0.41336
0.43537
0.450162
0.453724
0.44557
0.427924
0.404101
0.377577
0.35123
0.32725
0.307234
0.292427
0.283745
0.281702
0.28624
0.296782
0.311963
0.329342
0.345809
0.359321
0.36951
0.377279
0.38353
0.389148
0.394344
0.399538
0.404438
0.409431
0.413923
0.418546
0.422418
0.426619
0.429855
0.433841
0.436775
0.441393
0.445196
0.451692
0.456396
0.462249
0.462603
0.460397
0.45075
0.441634
0.433942
0.440297
0.452369
0.462524
0.476635
0.415715
0.327609
0.260705
0.216132
0.182307
0.159346
0.142111
0.130495
0.120666
0.11242
0.103845
0.0958527
0.0880052
0.0811048
0.0748294
0.0694967
0.0647824
0.0608248
0.0574041
0.0546153
0.0523367
0.0506623
0.0495386
0.0490678
0.0492393
0.0501391
0.0517425
0.0540572
0.0569955
0.0604435
0.0642958
0.068366
0.072654
0.076957
0.0814716
0.0859309
0.0908288
0.095677
0.101353
0.106907
0.113849
0.120452
0.129358
0.137614
0.149706
0.159134
0.343496
0.355264
0.370278
0.389716
0.412833
0.434978
0.449984
0.453771
0.445811
0.42831
0.404591
0.378146
0.351877
0.32799
0.308099
0.293454
0.284965
0.283139
0.287925
0.298763
0.314257
0.331872
0.348414
0.361856
0.371894
0.379492
0.385572
0.391034
0.396082
0.401144
0.405921
0.410812
0.415216
0.419778
0.423608
0.427801
0.431044
0.435075
0.438065
0.442783
0.446685
0.453327
0.458154
0.464187
0.464689
0.462737
0.453306
0.444566
0.437181
0.443907
0.455995
0.465518
0.47858
0.417413
0.32957
0.262642
0.21796
0.184065
0.161094
0.143861
0.132256
0.122363
0.114015
0.105286
0.0971617
0.0891859
0.0822016
0.0758509
0.0704752
0.0657225
0.0617552
0.0583385
0.0555905
0.0533815
0.0518257
0.0508647
0.0506165
0.0510642
0.052298
0.0542781
0.0569998
0.0603534
0.0642044
0.0684361
0.0728477
0.07745
0.0820323
0.0868203
0.0915323
0.096705
0.101812
0.107787
0.113608
0.12087
0.12774
0.136983
0.145514
0.15796
0.167572
0.343374
0.354983
0.369846
0.389185
0.412308
0.434585
0.449802
0.453812
0.446043
0.428688
0.405074
0.378709
0.352517
0.328724
0.308957
0.294468
0.286163
0.28454
0.28956
0.300679
0.316469
0.334303
0.350906
0.364272
0.374158
0.381589
0.387504
0.392818
0.397725
0.402663
0.407324
0.41212
0.416442
0.420951
0.424743
0.428931
0.432184
0.436262
0.439308
0.444124
0.448123
0.454907
0.459853
0.466063
0.466711
0.465011
0.455795
0.447429
0.440349
0.447432
0.459523
0.468415
0.480456
0.419018
0.331445
0.264518
0.219748
0.185804
0.16284
0.145624
0.134041
0.124095
0.115658
0.106786
0.0985436
0.0904516
0.0833959
0.0769788
0.0715689
0.0667845
0.0628154
0.0594114
0.0567162
0.0545917
0.0531741
0.0523995
0.0524018
0.0531563
0.0547553
0.0571405
0.0602922
0.0640764
0.0683373
0.0729479
0.0776948
0.0826021
0.0874528
0.0925036
0.0974581
0.102896
0.10825
0.11451
0.120583
0.128142
0.135255
0.144802
0.153572
0.166323
0.176075
0.343255
0.354708
0.36942
0.388659
0.411786
0.434191
0.449616
0.453846
0.446268
0.429059
0.40555
0.379266
0.353151
0.329452
0.309806
0.29547
0.287338
0.285907
0.291145
0.30253
0.3186
0.336635
0.353287
0.36657
0.376305
0.383574
0.389333
0.394505
0.399279
0.4041
0.408653
0.41336
0.417607
0.422067
0.425826
0.430011
0.433277
0.437402
0.440505
0.445416
0.449511
0.456433
0.461496
0.467877
0.468669
0.467218
0.458217
0.450224
0.443445
0.450872
0.462953
0.471216
0.482262
0.420532
0.333234
0.266331
0.221495
0.187523
0.164583
0.147398
0.13585
0.125863
0.117351
0.10835
0.100005
0.0918109
0.0846975
0.0782241
0.0727898
0.0679812
0.0640197
0.060638
0.0580092
0.0559857
0.0547281
0.0541652
0.0544477
0.0555401
0.0575351
0.060352
0.0639532
0.0681787
0.0728512
0.0778349
0.0829061
0.0881048
0.0932096
0.0985094
0.103693
0.109382
0.114971
0.121499
0.127804
0.135634
0.142962
0.152777
0.16175
0.174754
0.1846
0.343137
0.354436
0.369
0.388139
0.411267
0.433796
0.449425
0.453873
0.446486
0.429422
0.406019
0.379817
0.353781
0.330175
0.310649
0.296459
0.288492
0.287239
0.292682
0.304318
0.320651
0.338871
0.355558
0.368754
0.37834
0.385452
0.391061
0.396099
0.400747
0.405458
0.409909
0.414535
0.418712
0.423127
0.426858
0.431044
0.434325
0.438497
0.441656
0.446662
0.45085
0.457906
0.463082
0.469631
0.470565
0.46936
0.460574
0.45295
0.446468
0.454225
0.466283
0.473919
0.484
0.421956
0.334936
0.268079
0.2232
0.18922
0.166322
0.149184
0.137686
0.12767
0.119098
0.109984
0.101554
0.0932727
0.0861168
0.0795984
0.0741507
0.0693265
0.0653828
0.0620346
0.0594876
0.0575833
0.056509
0.0561848
0.0567784
0.05824
0.0606604
0.0639326
0.0679985
0.0726705
0.0777505
0.0830962
0.0884757
0.0939481
0.0992892
0.104821
0.110219
0.116144
0.12195
0.128725
0.135241
0.143313
0.150827
0.16087
0.170007
0.183211
0.193107
0.343021
0.354169
0.368586
0.387624
0.41075
0.4334
0.449231
0.453895
0.446697
0.429779
0.406482
0.380363
0.354406
0.330894
0.311484
0.297435
0.289624
0.288537
0.294171
0.306043
0.322623
0.341012
0.357724
0.370828
0.380267
0.387228
0.392693
0.397603
0.402133
0.406741
0.411097
0.415647
0.41976
0.424136
0.427841
0.432031
0.435328
0.439548
0.442764
0.447862
0.452142
0.459328
0.464614
0.471325
0.472399
0.471437
0.462865
0.455607
0.449417
0.457491
0.469514
0.476525
0.485672
0.423291
0.336551
0.269761
0.224862
0.190894
0.168055
0.15098
0.139548
0.129517
0.120903
0.111693
0.103198
0.0948463
0.087665
0.081114
0.0756651
0.0708347
0.0669206
0.0636182
0.0611697
0.0594046
0.0585389
0.0584817
0.0594176
0.0612792
0.0641522
0.0678993
0.0724396
0.0775574
0.0830347
0.0887255
0.0943928
0.100117
0.105674
0.111418
0.117012
0.123154
0.129159
0.136159
0.14286
0.151143
0.158812
0.16904
0.178304
0.191652
0.201555
0.342907
0.353906
0.368177
0.387114
0.410236
0.433003
0.449033
0.453912
0.446902
0.430129
0.406939
0.380904
0.355027
0.331607
0.312313
0.2984
0.290736
0.289802
0.295614
0.307707
0.324519
0.34306
0.359785
0.372794
0.38209
0.388904
0.394233
0.399023
0.403442
0.407952
0.41222
0.416699
0.420754
0.425095
0.428779
0.432974
0.436289
0.440557
0.44383
0.449018
0.453387
0.460699
0.466091
0.472962
0.474172
0.47345
0.465091
0.458196
0.452293
0.460668
0.472646
0.479036
0.487278
0.424539
0.33808
0.271378
0.226479
0.192544
0.169783
0.152787
0.141438
0.131409
0.12277
0.113482
0.104945
0.0965415
0.0893532
0.0827834
0.0773466
0.0725209
0.0686492
0.0654066
0.0630751
0.0614706
0.0608401
0.0610792
0.0623886
0.0646791
0.0680286
0.0722652
0.0772836
0.0828398
0.0886981
0.0947118
0.100642
0.106593
0.112341
0.118277
0.124046
0.130385
0.136568
0.143767
0.150628
0.159088
0.166878
0.17725
0.186599
0.200041
0.209909
0.342795
0.353647
0.367774
0.38661
0.409725
0.432606
0.448832
0.453924
0.447101
0.430474
0.407391
0.38144
0.355644
0.332317
0.313136
0.299353
0.291827
0.291036
0.297011
0.309311
0.326339
0.345019
0.361747
0.374658
0.383812
0.390486
0.395685
0.400362
0.404675
0.409096
0.413281
0.417696
0.421696
0.426006
0.429672
0.433875
0.43721
0.441526
0.444854
0.450131
0.454587
0.46202
0.467517
0.474541
0.475886
0.475399
0.467253
0.460715
0.455094
0.463757
0.475678
0.481451
0.48882
0.425702
0.339524
0.272927
0.228051
0.194167
0.171504
0.154605
0.143356
0.133346
0.124704
0.11536
0.106802
0.0983682
0.0911931
0.0846197
0.0792097
0.0744005
0.0705856
0.0674179
0.0652234
0.0638024
0.0634347
0.0639997
0.0657129
0.0684588
0.0723042
0.077039
0.0825324
0.0885129
0.0947295