/*--------------------------------*- C++ -*----------------------------------*\
| =========                 |                                                 |
| \\      /  F ield         | OpenFOAM: The Open Source CFD Toolbox           |
|  \\    /   O peration     | Version:  2412                                  |
|   \\  /    A nd           | Website:  www.openfoam.com                      |
|    \\/     M anipulation  |                                                 |
\*---------------------------------------------------------------------------*/
FoamFile
{
    version     2.0;
    format      ascii;
    arch        "LSB;label=32;scalar=64";
    class       volScalarField;
    location    "1";
    object      p;
}
// * * * * * * * * * * * * * * * * * * * * * * * * * * * * * * * * * * * * * //

dimensions      [0 2 -2 0 0 0 0];

internalField   nonuniform List<scalar> 
13079
(
105855
105684
105574
105313
105149
104863
104652
104351
104096
103780
103503
103188
102918
102613
102358
102056
101808
101484
101225
100844
100546
100067
99718.6
99114.8
98727
97970.1
97557.8
96598
96179.9
94939.3
94547.9
92909.2
92601.5
90388.2
90264
87206.1
87435.5
83113.2
83982.9
77734.7
79718.2
70486.3
74371
60441.2
67580.8
46209.2
59007.9
25728.7
48207.4
-5074.36
33237.1
-56979.2
9140
-154367
-15651.3
-75965.9
1425.13
-34712.4
14498.7
-7157.26
24195
11494.4
31554.4
24711
37886.7
34749.8
43641.6
42672.4
48834.5
49068.2
53465.6
54320.2
57540.6
58655.1
61062
62229.5
64061.9
105836
105667
105558
105300
105136
104853
104643
104343
104090
103774
103499
103184
102915
102611
102356
102054
101806
101482
101222
100841
100543
100062
99713.3
99108.3
98720.7
97962.4
97550.6
96589.1
96172
94929.2
94539.4
92897.7
92592.4
90374.9
90254.4
87190.6
87425.2
83094.8
83971.5
77712.3
79705.4
70458.8
74356.2
60407.8
67563.9
46169.8
58987.3
25682.3
48177.6
-5127.07
33192.2
-56987.4
9142.46
-153857
-15512.4
-75947.1
1443.01
-34728.3
14499.8
-7172.54
24195.3
11481
31552.8
24697.8
37883.2
34737.8
43637.3
42662.1
48829.9
49059.4
53461
54313.1
57536.7
58649.8
61059
62225.7
64059.6
105817
105650
105543
105287
105124
104842
104634
104336
104083
103768
103494
103180
102912
102608
102354
102052
101804
101480
101220
100838
100539
100057
99708
99101.9
98714.4
97954.8
97543.5
96580.4
96164.2
94919.2
94531
92886.3
92583.5
90361.8
90244.9
87175.3
87415.1
83076.5
83960.3
77690.1
79692.8
70431.6
74341.6
60374.6
67547.1
46130.5
58966.9
25636.1
48147.9
-5179.57
33147.7
-56994.8
9145.54
-153350
-15374.1
-75927.8
1461.09
-34743.8
14501
-7187.58
24195.8
11467.7
31551.2
24684.7
37879.8
34725.8
43633.1
42651.7
48825.2
49050.7
53456.5
54306.1
57532.9
58644.5
61056
62221.9
64057.4
105798
105634
105527
105274
105112
104832
104625
104328
104076
103763
103490
103176
102909
102605
102352
102050
101803
101478
101217
100834
100535
100052
99702.7
99095.5
98708.1
97947.3
97536.5
96571.7
96156.6
94909.3
94522.8
92875
92574.8
90348.8
90235.6
87160.1
87405
83058.4
83949.3
77668.1
79680.2
70404.5
74327.2
60341.6
67530.4
46091.3
58946.4
25590
48118.2
-5231.83
33103.6
-57001.4
9149.18
-152848
-15236.5
-75907.8
1479.38
-34759.2
14502.5
-7202.4
24196.6
11454.5
31549.8
24671.6
37876.4
34713.9
43628.8
42641.4
48820.5
49042
53452
54299.1
57529
58639.3
61053.1
62218.2
64055.2
105780
105617
105511
105261
105100
104822
104616
104320
104070
103757
103485
103172
102906
102603
102350
102048
101801
101476
101215
100831
100531
100047
99697.4
99089.1
98701.8
97939.8
97529.5
96563.1
96149
94899.5
94514.6
92863.8
92566.1
90335.9
90226.4
87145
87395.1
83040.4
83938.3
77646.2
79667.8
70377.5
74312.8
60308.8
67513.9
46052.4
58926.2
25544.1
48088.8
-5283.89
33059.7
-57007.4
9153.26
-152349
-15099.7
-75887.2
1497.88
-34774.4
14504.1
-7217.07
24197.4
11441.5
31548.5
24658.6
37873.1
34702
43624.6
42631.1
48815.9
49033.3
53447.5
54292.2
57525.2
58634
61050.1
62214.4
64053
65170.6
66596.3
67629.2
68757.3
69703.5
70610.5
71486.1
72220.4
73049.6
73636.8
74448.8
74893
75723.2
76005.1
76901.2
76970.8
78010.5
77769.1
79097.3
78351
80263.9
78609.4
105761
105601
105496
105248
105088
104812
104607
104313
104063
103752
103480
103169
102903
102600
102348
102046
101799
101474
101212
100828
100527
100042
99692.1
99082.8
98695.6
97932.3
97522.6
96554.6
96141.5
94889.8
94506.6
92852.8
92557.6
90323.2
90217.3
87130.1
87385.3
83022.5
83927.5
77624.4
79655.5
70350.7
74298.7
60276.2
67497.6
46013.7
58906.2
25498.4
48059.4
-5335.72
33016.1
-57012.6
9157.75
-151853
-14963.6
-75866
1516.6
-34789.3
14505.9
-7231.61
24198.4
11428.6
31547.3
24645.7
37869.9
34690.2
43620.5
42620.8
48811.3
49024.7
53443
54285.2
57521.4
58628.8
61047.2
62210.7
64050.9
65167.9
66594.6
67627.2
68755.7
69701.8
70608.7
71484.5
72218.3
73047.9
73634.2
74447.4
74890.1
75722.4
76001.9
76901.3
76967.1
78012.1
77764.5
79100.8
78344.6
80269.7
78600.3
105743
105585
105480
105235
105077
104803
104598
104305
104057
103746
103476
103165
102900
102598
102346
102044
101797
101472
101210
100824
100523
100037
99686.8
99076.4
98689.5
97925
97515.8
96546.2
96134.1
94880.3
94498.7
92841.8
92549.1
90310.6
90208.3
87115.3
87375.6
83004.8
83916.7
77602.8
79643.3
70324.1
74284.6
60243.8
67481.4
45975.3
58886.3
25453
48030.3
-5387.3
32972.9
-57017.2
9162.68
-151361
-14828.3
-75844.3
1535.53
-34804
14507.8
-7246.01
24199.5
11415.8
31546.1
24632.9
37866.7
34678.4
43616.3
42610.6
48806.8
49016.1
53438.6
54278.3
57517.7
58623.6
61044.4
62207
64048.8
65165.3
66593
67625.2
68754.1
69700.1
70606.9
71482.8
72216.1
73046.3
73631.7
74446.1
74887.2
75721.7
75998.7
76901.6
76963.4
78013.7
77759.8
79104.4
78338.1
80275.6
78591.3
105724
105569
105465
105222
105065
104793
104589
104298
104050
103741
103471
103161
102897
102595
102344
102043
101796
101469
101208
100821
100519
100032
99681.5
99070.1
98683.3
97917.6
97509
96537.9
96126.8
94870.8
94490.8
92831
92540.8
90298.1
90199.4
87100.6
87365.9
82987.1
83906.1
77581.3
79631.2
70297.7
74270.7
60211.6
67465.5
45937.1
58866.6
25407.9
48001.3
-5438.62
32930
-57021.1
9168.04
-150873
-14693.8
-75822
1554.65
-34818.5
14509.8
-7260.28
24200.8
11403
31545.1
24620.2
37863.6
34666.7
43612.3
42600.4
48802.3
49007.5
53434.2
54271.4
57513.9
58618.5
61041.5
62203.4
64046.7
65162.8
66591.3
67623.3
68752.5
69698.5
70605.2
71481.2
72214
73044.8
73629.2
74444.8
74884.4
75721
75995.6
76901.9
76959.8
78015.4
77755.3
79108.1
78331.8
80281.5
78582.4
105706
105553
105450
105210
105053
104783
104580
104290
104044
103735
103467
103157
102894
102593
102342
102041
101794
101467
101205
100817
100515
100027
99676.2
99063.8
98677.3
97910.4
97502.3
96529.6
96119.6
94861.4
94483.1
92820.3
92532.6
90285.7
90190.6
87086
87356.4
82969.6
83895.5
77559.9
79619.2
70271.4
74256.9
60179.6
67449.7
45899.2
58847.2
25363
47972.5
-5489.66
32887.4
-57024.3
9173.84
-150388
-14560.2
-75799.2
1573.96
-34832.7
14512
-7274.43
24202.1
11390.4
31544.1
24607.5
37860.5
34655
43608.2
42590.3
48797.8
48998.9
53429.8
54264.5
57510.2
58613.3
61038.7
62199.7
64044.6
65160.2
66589.7
67621.4
68751
69696.9
70603.5
71479.7
72211.9
73043.3
73626.7
74443.6
74881.7
75720.4
75992.5
76902.2
76956.2
78017.3
77750.7
79111.9
78325.5
80287.6
78573.5
105689
105537
105435
105197
105041
104773
104572
104283
104037
103730
103462
103154
102891
102591
102340
102039
101792
101465
101202
100814
100511
100022
99671
99057.6
98671.2
97903.2
97495.7
96521.4
96112.4
94852.1
94475.5
92809.7
92524.5
90273.4
90181.9
87071.5
87347
82952.3
83885
77538.7
79607.3
70245.2
74243.2
60147.8
67434
45861.5
58827.9
25318.3
47944
-5540.4
32845.3
-57026.7
9180.09
-149907
-14427.4
-75775.9
1593.46
-34846.8
14514.4
-7288.44
24203.5
11377.9
31543.3
24594.9
37857.6
34643.4
43604.3
42580.2
48793.3
48990.4
53425.5
54257.6
57506.6
58608.2
61035.9
62196.1
64042.6
65157.7
66588.2
67619.5
68749.5
69695.3
70601.8
71478.2
72209.9
73041.9
73624.4
74442.4
74879
75719.8
75989.5
76902.7
76952.8
78019.2
77746.3
79115.8
78319.2
80293.7
78564.8
105671
105522
105420
105185
105030
104763
104563
104275
104031
103725
103458
103150
102888
102588
102339
102037
101791
101463
101200
100810
100507
100017
99665.7
99051.3
98665.3
97896
97489.2
96513.3
96105.4
94843
94468
92799.2
92516.4
90261.2
90173.4
87057.1
87337.7
82935
83874.7
77517.6
79595.5
70219.2
74229.7
60116.3
67418.6
45824.1
58808.9
25274
47915.6
-5590.83
32803.6
-57028.4
9186.78
-149430
-14295.4
-75752.1
1613.12
-34860.7
14516.8
-7302.33
24205.1
11365.5
31542.5
24582.5
37854.7
34631.9
43600.3
42570.2
48788.9
48981.9
53421.2
54250.8
57502.9
58603.1
61033.2
62192.5
64040.6
65155.2
66586.6
67617.7
68748.1
69693.7
70600.2
71476.7
72207.9
73040.5
73622.1
74441.4
74876.4
75719.4
75986.6
76903.3
76949.3
78021.2
77741.9
79119.8
78313.1
80300
78556.1
105653
105506
105405
105172
105018
104754
104554
104268
104025
103719
103454
103147
102885
102586
102337
102036
101789
101461
101197
100807
100503
100012
99660.5
99045.2
98659.4
97889
97482.8
96505.4
96098.5
94833.9
94460.6
92788.8
92508.5
90249.2
90164.9
87042.9
87328.4
82917.9
83864.4
77496.6
79583.9
70193.4
74216.3
60084.9
67403.3
45787
58790
25229.9
47887.5
-5640.92
32762.3
-57029.4
9193.91
-148956
-14164.3
-75727.9
1632.94
-34874.3
14519.4
-7316.1
24206.7
11353.2
31541.8
24570.1
37851.8
34620.4
43596.5
42560.2
48784.6
48973.4
53416.9
54244
57499.4
58598.1
61030.5
62189
64038.7
65152.8
66585.1
67615.9
68746.7
69692.3
70598.6
71475.3
72206.1
73039.3
73619.8
74440.4
74873.9
75719.1
75983.8
76904
76946
78023.4
77737.6
79124
78307
80306.4
78547.6
105636
105490
105390
105160
105007
104744
104546
104261
104018
103714
103449
103143
102882
102584
102335
102034
101787
101459
101195
100803
100499
100007
99655.3
99039
98653.5
97882
97476.4
96497.4
96091.6
94824.9
94453.3
92778.5
92500.7
90237.2
90156.5
87028.8
87319.3
82900.8
83854.3
77475.8
79572.3
70167.8
74203.1
60053.8
67388.2
45750.1
58771.4
25186.1
47859.6
-5690.66
32721.5
-57029.6
9201.5
-148485
-14034.1
-75703.2
1652.92
-34887.8
14522.1
-7329.74
24208.5
11341
31541.2
24557.8
37849.1
34609
43592.7
42550.3
48780.3
48965
53412.7
54237.3
57495.8
58593.1
61027.8
62185.5
64036.8
65150.4
66583.7
67614.2
68745.4
69690.8
70597.1
71474
72204.2
73038.1
73617.7
74439.5
74871.4
75718.9
75981.1
76904.8
76942.8
78025.7
77733.4
79128.3
78301
80313
78539.2
105619
105475
105375
105147
104995
104734
104537
104253
104012
103709
103445
103139
102879
102581
102333
102032
101786
101457
101192
100800
100495
100002
99650.2
99033
98647.7
97875
97470.1
96489.6
96084.9
94816.1
94446
92768.4
92493
90225.4
90148.2
87014.7
87310.3
82883.9
83844.2
77455.1
79560.9
70142.3
74190
60022.8
67373.3
45713.5
58753
25142.6
47831.9
-5740.03
32681.1
-57029
9209.53
-148018
-13904.8
-75678.1
1673.03
-34901.1
14524.9
-7343.28
24210.3
11328.8
31540.7
24545.5
37846.4
34597.7
43588.9
42540.4
48776
48956.6
53408.6
54230.6
57492.3
58588.1
61025.2
62182
64034.9
65148
66582.3
67612.5
68744.1
69689.5
70595.7
71472.8
72202.5
73037
73615.6
74438.8
74869.1
75718.8
75978.4
76905.8
76939.6
78028.2
77729.3
79132.8
78295.1
80319.7
78531
105601
105460
105361
105135
104984
104725
104528
104246
104006
103703
103441
103136
102877
102579
102331
102030
101784
101454
101190
100796
100491
99996.5
99645.1
99026.9
98642
97868.2
97463.9
96481.9
96078.2
94807.3
94438.9
92758.3
92485.4
90213.7
90140
87000.8
87301.3
82867.1
83834.2
77434.5
79549.5
70116.9
74177
59992.1
67358.6
45677.1
58734.8
25099.4
47804.5
-5789.02
32641.3
-57027.6
9218.01
-147554
-13776.4
-75652.6
1693.28
-34914.2
14527.9
-7356.69
24212.3
11316.8
31540.3
24533.4
37843.8
34586.5
43585.3
42530.6
48771.9
48948.3
53404.5
54223.9
57488.9
58583.1
61022.6
62178.6
64033.1
65145.7
66581
67610.9
68742.9
69688.2
70594.3
71471.6
72200.9
73036
73613.7
74438.1
74866.9
75718.8
75975.9
76906.8
76936.6
78030.7
77725.3
79137.4
78289.3
80326.5
78522.9
105584
105445
105346
105123
104973
104715
104520
104239
104000
103698
103436
103132
102874
102577
102330
102029
101782
101452
101187
100792
100486
99991.5
99640
99021
98636.3
97861.4
97457.8
96474.3
96071.7
94798.6
94431.9
92748.3
92477.8
90202
90131.8
86987
87292.4
82850.4
83824.3
77414.1
79538.3
70091.8
74164.2
59961.6
67344
45641.1
58716.8
25056.5
47777.4
-5837.61
32601.9
-57025.5
9226.94
-147094
-13648.9
-75626.7
1713.64
-34927.1
14530.9
-7370
24214.3
11304.9
31540
24521.4
37841.3
34575.3
43581.7
42520.9
48767.7
48940.1
53400.4
54217.3
57485.5
58578.3
61020.1
62175.2
64031.4
65143.4
66579.7
67609.4
68741.8
69687
70593
71470.6
72199.3
73035.1
73611.9
74437.6
74864.8
75719
75973.6
76908.1
76933.7
78033.5
77721.4
79142.2
78283.7
80333.6
78514.9
105567
105430
105332
105111
104961
104706
104511
104232
103993
103693
103432
103129
102871
102575
102328
102027
101781
101450
101184
100789
100482
99986.5
99635
99015.1
98630.8
97854.7
97451.8
96466.7
96065.2
94790
94425
92738.4
92470.4
90190.5
90123.8
86973.3
87283.6
82833.9
83814.5
77393.8
79527.2
70066.8
74151.5
59931.4
67329.7
45605.3
58699.1
25013.9
47750.5
-5885.79
32563.1
-57022.5
9236.31
-146637
-13522.4
-75600.5
1734.11
-34939.8
14534.1
-7383.21
24216.4
11293.1
31539.8
24509.5
37838.9
34564.3
43578.2
42511.2
48763.7
48931.9
53396.4
54210.7
57482.1
58573.4
61017.7
62171.9
64029.7
65141.2
66578.5
67607.9
68740.7
69685.8
70591.9
71469.6
72197.9
73034.3
73610.2
74437.3
74862.9
75719.3
75971.3
76909.5
76931
78036.4
77717.6
79147.2
78278.2
80340.8
78507.1
105551
105415
105318
105099
104950
104696
104503
104225
103987
103688
103428
103125
102869
102572
102326
102025
101779
101448
101182
100785
100478
99981.6
99630
99009.2
98625.2
97848.1
97445.8
96459.3
96058.8
94781.6
94418.1
92728.7
92463.1
90179.1
90115.9
86959.7
87274.9
82817.4
83804.8
77373.6
79516.2
70042
74139
59901.3
67315.5
45569.8
58681.6
24971.6
47724
-5933.53
32524.8
-57018.8
9246.12
-146183
-13396.7
-75573.9
1754.68
-34952.4
14537.3
-7396.31
24218.6
11281.4
31539.7
24497.7
37836.6
34553.4
43574.8
42501.7
48759.7
48923.8
53392.5
54204.2
57478.9
58568.7
61015.3
62168.6
64028.1
65139.1
66577.4
67606.5
68739.7
69684.8
70590.8
71468.8
72196.6
73033.7
73608.6
74437.1
74861.1
75719.8
75969.2
76911
76928.3
78039.5
77714
79152.3
78272.7
80348.1
78499.4
105534
105400
105304
105087
104939
104687
104495
104217
103981
103683
103424
103122
102866
102570
102324
102024
101777
101446
101179
100782
100474
99976.6
99625
99003.4
98619.8
97841.6
97439.9
96451.9
96052.5
94773.2
94411.3
92719
92455.8
90167.7
90108
86946.2
87266.3
82801.1
83795.2
77353.6
79505.3
70017.3
74126.6
59871.5
67301.5
45534.5
58664.3
24929.6
47697.7
-5980.84
32487.1
-57014.3
9256.38
-145733
-13272
-75547
1775.34
-34964.9
14540.6
-7409.31
24220.9
11269.7
31539.6
24486
37834.4
34542.6
43571.4
42492.2
48755.9
48915.8
53388.7
54197.8
57475.7
58564
61013
62165.5
64026.6
65137.1
66576.4
67605.1
68738.9
69683.9
70589.8
71468.1
72195.4
73033.3
73607.2
74437
74859.4
75720.5
75967.3
76912.8
76925.8
78042.7
77710.5
79157.6
78267.5
80355.6
78491.8
105518
105385
105290
105075
104928
104678
104486
104210
103975
103678
103420
103119
102863
102568
102323
102022
101776
101444
101177
100778
100470
99971.7
99620.2
98997.7
98614.4
97835.1
97434.1
96444.6
96046.3
94764.9
94404.7
92709.4
92448.6
90156.5
90100.2
86932.8
87257.8
82784.9
83785.7
77333.7
79494.4
69992.8
74114.3
59841.9
67287.7
45499.6
58647.2
24888
47671.7
-6027.68
32450
-57009
9267.07
-145286
-13148.3
-75519.8
1796.07
-34977.1
14544
-7422.21
24223.3
11258.2
31539.7
24474.5
37832.3
34531.9
43568.2
42482.9
48752.1
48907.8
53385
54191.5
57472.6
58559.3
61010.8
62162.4
64025.1
65135.1
66575.4
67603.9
68738.1
69683.1
70589
71467.5
72194.4
73033
73606
74437.2
74858
75721.3
75965.5
76914.7
76923.5
78046.1
77707.1
79163.1
78262.3
80363.3
78484.4
105501
105370
105276
105063
104917
104669
104478
104203
103969
103673
103415
103115
102861
102566
102321
102020
101774
101441
101174
100775
100466
99966.9
99615.3
98992
98609.1
97828.8
97428.4
96437.4
96040.2
94756.6
94398.1
92699.9
92441.5
90145.3
90092.5
86919.5
87249.3
82768.7
83776.2
77313.9
79483.7
69968.5
74102.2
59812.5
67274
45464.9
58630.4
24846.7
47646
-6074.06
32413.4
-57002.9
9278.19
-144842
-13025.5
-75492.3
1816.86
-34989.2
14547.5
-7435.03
24225.7
11246.8
31539.9
24463.1
37830.3
34521.3
43565.1
42473.6
48748.4
48900
53381.3
54185.2
57469.6
58554.8
61008.7
62159.3
64023.8
65133.2
66574.6
67602.8
68737.5
69682.4
70588.4
71467.1
72193.6
73032.9
73604.9
74437.5
74856.7
75722.4
75963.8
76916.8
76921.3
78049.7
77703.8
79168.7
78257.3
80371.1
78477.2
105485
105356
105262
105052
104906
104659
104470
104196
103963
103668
103411
103112
102858
102564
102319
102019
101773
101439
101171
100771
100462
99962.1
99610.5
98986.4
98603.9
97822.5
97422.8
96430.3
96034.1
94748.5
94391.6
92690.5
92434.5
90134.3
90084.9
86906.3
87240.9
82752.7
83766.8
77294.2
79473.1
69944.3
74090.2
59783.3
67260.6
45430.5
58613.8
24805.7
47620.6
-6119.95
32377.4
-56995.9
9289.75
-144401
-12903.6
-75464.5
1837.71
-35001.2
14551
-7447.75
24228.2
11235.5
31540.2
24451.8
37828.4
34510.9
43562.2
42464.5
48744.9
48892.2
53377.8
54179.1
57466.7
58550.3
61006.7
62156.4
64022.6
65131.5
66573.9
67601.8
68737
69681.9
70587.8
71466.9
72192.9
73033
73604
74438
74855.6
75723.6
75962.4
76919.1
76919.2
78053.5
77700.7
79174.6
78252.3
80379.1
78470
105469
105341
105248
105040
104895
104650
104461
104189
103957
103663
103407
103109
102856
102562
102318
102017
101771
101437
101169
100767
100458
99957.3
99605.8
98980.9
98598.7
97816.2
97417.2
96423.3
96028.1
94740.5
94385.1
92681.2
92427.5
90123.3
90077.3
86893.2
87232.6
82736.8
83757.6
77274.7
79462.6
69920.3
74078.3
59754.3
67247.3
45396.4
58597.4
24765.1
47595.5
-6165.36
32342.1
-56988.2
9301.73
-143964
-12782.7
-75436.4
1858.59
-35013.1
14554.6
-7460.39
24230.8
11224.3
31540.6
24440.7
37826.7
34500.6
43559.3
42455.5
48741.5
48884.6
53374.4
54173
57463.9
58546
61004.7
62153.6
64021.4
65129.8
66573.3
67601
68736.7
69681.5
70587.5
71466.9
72192.4
73033.2
73603.3
74438.8
74854.6
75725
75961.1
76921.6
76917.3
78057.5
77697.7
79180.5
78247.5
80387.2
78463
105453
105327
105234
105028
104884
104641
104453
104182
103951
103658
103403
103106
102853
102560
102316
102016
101770
101435
101166
100764
100455
99952.6
99601.1
98975.4
98593.6
97810.1
97411.7
96416.3
96022.2
94732.5
94378.8
92671.9
92420.6
90112.4
90069.8
86880.1
87224.4
82721
83748.4
77255.3
79452.2
69896.5
74066.6
59725.6
67234.2
45362.6
58581.3
24724.8
47570.7
-6210.26
32307.3
-56979.7
9314.12
-143530
-12662.7
-75408.2
1879.52
-35024.8
14558.3
-7472.94
24233.4
11213.2
31541.2
24429.7
37825.2
34490.5
43556.7
42446.7
48738.2
48877.1
53371.1
54167.1
57461.2
58541.8
61003
62150.9
64020.4
65128.3
66572.9
67600.3
68736.5
69681.3
70587.4
71467
72192.2
73033.7
73602.9
74439.7
74853.9
75726.7
75960
76924.2
76915.6
78061.6
77694.8
79186.7
78242.8
80395.5
78456.1
105437
105313
105221
105017
104874
104632
104445
104176
103945
103653
103399
103102
102851
102558
102315
102014
101768
101433
101164
100760
100451
99947.9
99596.5
98970
98588.5
97804
97406.3
96409.4
96016.4
94724.6
94372.5
92662.8
92413.8
90101.6
90062.4
86867.2
87216.2
82705.3
83739.3
77236.1
79441.9
69872.8
74055
59697.1
67221.3
45329
58565.4
24684.9
47546.3
-6254.65
32273.2
-56970.4
9326.93
-143098
-12543.7
-75379.6
1900.46
-35036.4
14562
-7485.41
24236.1
11202.2
31541.8
24418.9
37823.8
34480.5
43554.1
42438
48735
48869.8
53367.9
54161.3
57458.7
58537.6
61001.3
62148.3
64019.6
65127
66572.6
67599.8
68736.5
69681.4
70587.4
71467.4
72192.1
73034.5
73602.6
74440.9
74853.4
75728.5
75959.1
76927.1
76914
78065.9
77692.1
79193
78238.2
80403.8
78449.3
105422
105299
105207
105005
104863
104623
104437
104169
103939
103648
103395
103099
102848
102556
102313
102013
101766
101431
101161
100757
100447
99943.2
99592
98964.6
98583.6
97798
97401
96402.6
96010.6
94716.8
94366.3
92653.7
92407.1
90090.9
90055.1
86854.4
87208.1
82689.7
83730.2
77216.9
79431.7
69849.3
74043.5
59668.8
67208.6
45295.7
58549.7
24645.3
47522.2
-6298.51
32239.7
-56960.4
9340.15
-142670
-12425.6
-75350.9
1921.41
-35047.9
14565.8
-7497.81
24238.9
11191.4
31542.6
24408.2
37822.6
34470.7
43551.8
42429.5
48732.1
48862.6
53364.9
54155.6
57456.3
58533.7
60999.8
62145.9
64018.9
65125.8
66572.5
67599.4
68736.7
69681.6
70587.7
71468
72192.3
73035.4
73602.5
74442.3
74853
75730.5
75958.3
76930.1
76912.5
78070.4
77689.4
79199.4
78233.7
80412.3
78442.6
105406
105285
105194
104994
104852
104614
104429
104162
103933
103643
103391
103096
102846
102554
102312
102011
101765
101429
101158
100753
100443
99938.6
99587.4
98959.4
98578.7
97792.1
97395.7
96395.9
96005
94709.1
94360.1
92644.7
92400.4
90080.3
90047.8
86841.6
87200.1
82674.2
83721.3
77197.9
79421.6
69826
74032.2
59640.7
67196
45262.7
58534.2
24606
47498.4
-6341.85
32206.8
-56949.5
9353.78
-142246
-12308.5
-75322
1942.37
-35059.3
14569.6
-7510.12
24241.8
11180.7
31543.6
24397.8
37821.5
34461.2
43549.6
42421.2
48729.3
48855.5
53362.1
54150.1
57454
58529.9
60998.4
62143.6
64018.4
65124.7
66572.6
67599.3
68737.1
69682
70588.2
71468.9
72192.7
73036.6
73602.7
74443.8
74852.9
75732.8
75957.7
76933.3
76911.2
78075
77686.8
79206
78229.2
80420.8
78435.9
105391
105271
105181
104983
104842
104605
104421
104155
103927
103638
103387
103093
102843
102552
102310
102010
101763
101427
101156
100750
100439
99934.1
99583
98954.1
98573.8
97786.2
97390.5
96389.2
95999.3
94701.5
94354
92635.8
92393.8
90069.7
90040.6
86829
87192.2
82658.8
83712.4
77179
79411.6
69802.8
74021
59612.8
67183.6
45230
58519
24567.1
47475
-6384.66
32174.6
-56937.9
9367.79
-141824
-12192.4
-75292.8
1963.32
-35070.6
14573.4
-7522.37
24244.7
11170.1
31544.6
24387.5
37820.7
34451.8
43547.7
42413.1
48726.7
48848.7
53359.5
54144.7
57452
58526.2
60997.3
62141.6
64018.1
65123.9
66572.9
67599.4
68737.8
69682.7
70588.9
71469.9
72193.3
73037.9
73603.1
74445.6
74852.9
75735.2
75957.2
76936.7
76909.9
78079.7
77684.3
79212.6
78224.8
80429.5
78429.3
105375
105257
105167
104971
104831
104596
104413
104148
103922
103633
103383
103090
102841
102550
102309
102008
101762
101424
101153
100746
100435
99929.5
99578.6
98949
98569.1
97780.4
97385.4
96382.7
95993.8
94693.9
94348
92627
92387.3
90059.3
90033.4
86816.4
87184.3
82643.5
83703.6
77160.2
79401.7
69779.8
74009.9
59585.1
67171.4
45197.5
58504
24528.5
47451.8
-6426.92
32143
-56925.5
9382.2
-141405
-12077.2
-75263.5
1984.26
-35081.8
14577.3
-7534.54
24247.7
11159.6
31545.9
24377.5
37820
34442.7
43545.9
42405.2
48724.3
48842.1
53357
54139.6
57450.1
58522.7
60996.3
62139.7
64017.9
65123.3
66573.4
67599.7
68738.6
69683.6
70589.9
71471.2
72194.1
73039.6
73603.7
74447.6
74853.1
75737.8
75956.9
76940.2
76908.8
78084.6
77681.9
79219.4
78220.5
80438.1
78422.7
105360
105243
105154
104960
104821
104587
104405
104142
103916
103629
103380
103086
102839
102548
102307
102007
101760
101422
101151
100743
100432
99925.1
99574.2
98943.9
98564.3
97774.7
97380.3
96376.1
95988.3
94686.4
94342.1
92618.2
92380.8
90048.9
90026.3
86803.9
87176.4
82628.3
83694.8
77141.6
79391.9
69756.9
73998.9
59557.7
67159.3
45165.3
58489.2
24490.3
47429.1
-6468.63
32112
-56912.3
9396.98
-140989
-11962.9
-75234.1
2005.17
-35092.9
14581.2
-7546.63
24250.8
11149.2
31547.3
24367.6
37819.6
34433.8
43544.5
42397.5
48722.2
48835.6
53354.8
54134.6
57448.4
58519.5
60995.5
62138
64018
65122.9
66574.2
67600.2
68739.8
69684.8
70591.1
71472.8
72195.2
73041.4
73604.4
74449.9
74853.5
75740.6
75956.8
76943.9
76907.8
78089.6
77679.6
79226.2
78216.2
80446.8
78416.2
105345
105230
105141
104949
104810
104578
104397
104135
103910
103624
103376
103083
102836
102546
102306
102005
101759
101420
101148
100740
100428
99920.7
99570
98938.8
98559.7
97769
97375.3
96369.7
95982.9
94678.9
94336.2
92609.5
92374.4
90038.6
90019.3
86791.5
87168.7
82613.2
83686.2
77123
79382.1
69734.2
73988.1
59530.4
67147.4
45133.4
58474.7
24452.5
47406.7
-6509.8
32081.7
-56898.4
9412.14
-140577
-11849.6
-75204.5
2026.06
-35103.9
14585.1
-7558.66
24253.9
11139
31548.9
24358
37819.4
34425.2
43543.2
42390.1
48720.3
48829.4
53352.8
54129.9
57447
58516.4
60995
62136.5
64018.4
65122.7
66575.2
67601
68741.2
69686.2
70592.6
71474.6
72196.5
73043.4
73605.4
74452.2
74854.1
75743.5
75956.7
76947.6
76906.9
78094.6
77677.2
79233.1
78211.9
80455.5
78409.7
105330
105216
105128
104938
104800
104570
104389
104128
103904
103619
103372
103080
102834
102544
102304
102004
101757
101418
101146
100736
100424
99916.3
99565.7
98933.8
98555.1
97763.4
97370.3
96363.3
95977.5
94671.6
94330.3
92600.8
92368
90028.3
90012.3
86779.1
87161
82598.2
83677.6
77104.6
79372.5
69711.7
73977.4
59503.4
67135.7
45101.8
58460.4
24415
47384.6
-6550.41
32052
-56883.8
9427.67
-140167
-11737.2
-75174.7
2046.9
-35114.8
14589.1
-7570.62
24257.2
11129
31550.6
24348.6
37819.5
34416.8
43542.3
42383
48718.6
48823.5
53351.1
54125.4
57445.8
58513.6
60994.7
62135.3
64019
65122.8
66576.4
67602.1
68742.8
69687.9
70594.3
71476.6
72198
73045.7
73606.6
74454.8
74854.8
75746.6
75956.8
76951.5
76906
78099.8
77675
79240
78207.6
80464.3
78403.3
105315
105203
105115
104927
104790
104561
104381
104122
103899
103614
103368
103077
102832
102542
102303
102002
101756
101416
101143
100733
100421
99912
99561.5
98928.9
98550.5
97757.8
97365.4
96357
95972.2
94664.3
94324.6
92592.3
92361.7
90018.1
90005.4
86766.9
87153.3
82583.3
83669.1
77086.3
79362.9
69689.3
73966.8
59476.6
67124.1
45070.4
58446.3
24377.8
47362.9
-6590.46
32023
-56868.4
9443.56
-139760
-11625.8
-75144.8
2067.71
-35125.7
14593
-7582.5
24260.5
11119.1
31552.6
24339.5
37819.9
34408.8
43541.6
42376.2
48717.3
48817.9
53349.6
54121.2
57444.9
58511.1
60994.7
62134.3
64019.8
65123.1
66578
67603.4
68744.7
69689.8
70596.2
71478.8
72199.7
73048.1
73607.9
74457.5
74855.6
75749.8
75957
76955.5
76905.2
78105
77672.7
79247
78203.4
80473
78396.8
105300
105189
105103
104916
104780
104552
104373
104115
103893
103610
103364
103074
102829
102541
102301
102001
101754
101414
101141
100730
100417
99907.7
99557.4
98924
98546.1
97752.3
97360.6
96350.7
95967
94657
94318.8
92583.8
92355.5
90008
89998.5
86754.7
87145.8
82568.4
83660.6
77068.1
79353.5
69667
73956.3
59450
67112.7
45039.3
58432.4
24341
47341.5
-6629.95
31994.6
-56852.3
9459.8
-139356
-11515.2
-75114.8
2088.46
-35136.5
14597
-7594.32
24263.8
11109.3
31554.7
24330.6
37820.5
34401
43541.2
42369.6
48716.3
48812.5
53348.5
54117.3
57444.3
58508.8
60995
62133.6
64021
65123.8
66579.8
67605
68746.8
69691.9
70598.3
71481.2
72201.6
73050.8
73609.4
74460.4
74856.5
75753.1
75957.2
76959.6
76904.4
78110.3
77670.4
79253.9
78199.1
80481.7
78390.4
105286
105176
105090
104905
104769
104544
104365
104108
103887
103605
103361
103071
102827
102539
102300
101999
101753
101412
101138
100726
100414
99903.5
99553.3
98919.2
98541.6
97746.9
97355.8
96344.5
95961.8
94649.8
94313.2
92575.3
92349.3
89998
89991.7
86742.6
87138.2
82553.7
83652.2
77050
79344.1
69644.9
73945.9
59423.5
67101.4
45008.4
58418.7
24304.6
47320.5
-6668.88
31966.9
-56835.5
9476.38
-138956
-11405.6
-75084.6
2109.16
-35147.2
14601
-7606.07
24267.3
11099.7
31557
24322.1
37821.4
34393.6
43541.2
42363.4
48715.6
48807.5
53347.7
54113.6
57444
58506.8
60995.5
62133.3
64022.4
65124.7
66581.9
67606.8
68749.2
69694.3
70600.7
71483.8
72203.6
73053.5
73611
74463.4
74857.6
75756.6
75957.5
76963.8
76903.6
78115.6
77668.2
79260.9
78194.8
80490.3
78383.9
105271
105163
105077
104894
104759
104535
104358
104102
103882
103601
103357
103068
102825
102537
102298
101998
101751
101410
101136
100723
100410
99899.3
99549.3
98914.5
98537.3
97741.5
97351
96338.4
95956.6
94642.7
94307.6
92567
92343.1
89988
89985
86730.6
87130.8
82539.1
83643.9
77032.1
79334.8
69623
73935.7
59397.3
67090.3
44977.8
58405.3
24268.5
47299.8
-6707.25
31939.8
-56818
9493.3
-138558
-11296.9
-75054.3
2129.79
-35157.8
14605
-7617.74
24270.8
11090.3
31559.6
24313.8
37822.7
34386.6
43541.5
42357.6
48715.3
48802.8
53347.2
54110.3
57444
58505.1
60996.4
62133.2
64024.2
65125.9
66584.3
67608.9
68751.9
69696.9
70603.2
71486.6
72205.8
73056.4
73612.7
74466.5
74858.7
75760.1
75957.9
76968
76902.9
78120.9
77665.9
79267.9
78190.5
80498.9
78377.4
105257
105150
105065
104883
104749
104527
104350
104095
103876
103596
103353
103065
102823
102535
102297
101996
101750
101408
101133
100720
100407
99895.2
99545.3
98909.8
98532.9
97736.2
97346.4
96332.3
95951.5
94635.6
94302
92558.7
92337
89978.1
89978.3
86718.6
87123.4
82524.5
83635.7
77014.3
79325.6
69601.2
73925.5
59371.3
67079.4
44947.5
58392
24232.7
47279.4
-6745.06
31913.4
-56799.8
9510.54
-138163
-11189.1
-75024
2150.36
-35168.4
14609.1
-7629.34
24274.4
11081.1
31562.4
24305.8
37824.3
34379.9
43542.3
42352.1
48715.3
48798.4
53347
54107.4
57444.3
58503.8
60997.6
62133.4
64026.2
65127.4
66586.9
67611.3
68754.7
69699.7
70605.9
71489.6
72208.2
73059.5
73614.5
74469.7
74859.9
75763.6
75958.2
76972.2
76902.1
78126.2
77663.5
79274.8
78186.1
80507.4
78371
105243
105137
105052
104873
104739
104518
104342
104089
103871
103591
103349
103063
102820
102533
102296
101995
101748
101406
101131
100717
100403
99891.1
99541.4
98905.1
98528.7
97731
97341.7
96326.3
95946.5
94628.6
94296.5
92550.4
92331
89968.3
89971.6
86706.8
87116
82510
83627.5
76996.5
79316.4
69579.5
73915.5
59345.4
67068.6
44917.4
58379
24197.3
47259.4
-6782.31
31887.5
-56780.9
9528.11
-137770
-11082.2
-74993.5
2170.86
-35179
14613.1
-7640.87
24278.1
11072
31565.4
24298.1
37826.2
34373.6
43543.3
42347
48715.7
48794.5
53347.2
54104.7
57445
58502.8
60999.1
62133.9
64028.5
65129.2
66589.8
67613.9
68757.8
69702.6
70608.8
71492.6
72210.6
73062.6
73616.4
74473
74861.2
75767.2
75958.6
76976.4
76901.3
78131.5
77661.2
79281.7
78181.7
80515.9
78364.5
105228
105124
105040
104862
104729
104510
104335
104083
103865
103587
103346
103060
102818
102532
102294
101994
101747
101404
101128
100713
100400
99887
99537.5
98900.5
98524.4
97725.7
97337.1
96320.3
95941.5
94621.7
94291
92542.2
92325
89958.5
89965
86695
87108.7
82495.7
83619.4
76978.9
79307.4
69558
73905.6
59319.8
67057.9
44887.6
58366.1
24162.3
47239.8
-6819.01
31862.3
-56761.4
9545.99
-137381
-10976.1
-74962.9
2191.29
-35189.4
14617.2
-7652.33
24281.9
11063.1
31568.7
24290.8
37828.5
34367.6
43544.9
42342.4
48716.5
48790.9
53347.9
54102.5
57446.1
58502.1
61001
62134.7
64031.2
65131.2
66592.9
67616.6
68761
69705.7
70611.7
71495.8
72213.1
73065.8
73618.4
74476.3
74862.4
75770.9
75959
76980.7
76900.5
78136.8
77658.7
79288.5
78177.2
80524.3
78357.9
105214
105111
105028
104851
104719
104501
104327
104076
103860
103582
103342