/*--------------------------------*- C++ -*----------------------------------*\
| =========                 |                                                 |
| \\      /  F ield         | OpenFOAM: The Open Source CFD Toolbox           |
|  \\    /   O peration     | Version:  2412                                  |
|   \\  /    A nd           | Website:  www.openfoam.com                      |
|    \\/     M anipulation  |                                                 |
\*---------------------------------------------------------------------------*/
FoamFile
{
    version     2.0;
    format      ascii;
    arch        "LSB;label=32;scalar=64";
    class       surfaceScalarField;
    location    "1";
    object      phi;
}
// * * * * * * * * * * * * * * * * * * * * * * * * * * * * * * * * * * * * * //

dimensions      [0 3 -1 0 0 0 0];

oriented        oriented;

internalField   nonuniform List<scalar> 
25926
(
0.00749475
-0.0252
0.00745047
-0.0203032
0.00743771
-0.0158859
0.00744417
-0.0124474
0.00746482
-0.00963681
0.00749344
-0.00764855
0.00752379
-0.00604407
0.00754897
-0.00456206
0.0075615
-0.00285754
0.00755678
-0.000812548
0.00753257
0.00149557
0.00749029
0.00393173
0.0074331
0.00626029
0.00736597
0.00836407
0.00729455
0.0100663
0.00722591
0.0113275
0.00716828
0.0119741
0.0071308
0.0120522
0.00711914
0.0114184
0.00713184
0.0103742
0.00715927
0.00902661
0.00719038
0.00786887
0.00721766
0.00677854
0.0072401
0.00611816
0.00725824
0.00537459
0.00727457
0.00501654
0.00728877
0.0043771
0.00730259
0.00417696
0.00731419
0.00350944
0.00732586
0.00347472
0.00733462
0.00271639
0.00734405
0.00285194
0.00734981
0.00194003
0.00735739
0.0023193
0.00736039
0.00118887
0.00736681
0.00187842
0.00736726
0.00041375
0.00737328
0.00154558
0.00737123
-0.000420809
0.00737739
0.00125786
0.00737196
-0.00137846
0.00737683
0.0010617
0.00736374
-0.00227323
0.00736329
0.00142295
0.00733924
-0.00231835
0.00733689
0.00316364
0.00731349
-0.00112609
0.00733299
0.00494487
0.00734482
-0.00153452
0.00741667
-4.77124e-05
0.00747778
-0.0103892
0.00756629
-0.030919
0.00759565
-0.0600066
0.007639
0.020036
0.00763891
0.0481878
0.00767896
0.0287336
0.0077019
0.0104543
0.00774668
0.0101815
0.00779213
0.00304018
0.00785682
0.00353257
0.00792236
-0.00230813
0.00798599
-0.00153892
0.00803314
-0.00477231
0.00806331
-0.00273365
0.00807744
-0.00390484
0.00808018
-0.00164963
0.0080771
-0.00208602
0.0080694
-0.000324511
0.00806105
-0.000571858
0.00805019
0.000658017
0.00804023
0.000441401
0.00802883
0.00112503
0.0080195
0.000769436
0.00801017
0.000940639
0.00800379
0.000388024
0.00799834
0.000158368
-0.000528932
0.00749438
-0.0251186
0.00744943
-0.0202582
0.00743578
-0.0158722
0.00744135
-0.012453
0.00746115
-0.00965661
0.00748896
-0.00767637
0.00751855
-0.00607366
0.00754302
-0.00458653
0.00755495
-0.00286948
0.00754977
-0.000807362
0.0075253
0.00152004
0.00748296
0.00397407
0.00742596
0.00631729
0.00735928
0.00843076
0.0072886
0.0101369
0.00722108
0.011395
0.00716501
0.0120301
0.00712954
0.0120877
0.00712005
0.0114279
0.00713461
0.0103597
0.00716318
0.00899804
0.00719474
0.00783732
0.00722201
0.00675127
0.00724433
0.00609584
0.00726235
0.00535657
0.0072786
0.00500029
0.00729273
0.00436298
0.00730649
0.0041632
0.00731801
0.00349792
0.00732961
0.00346312
0.00733829
0.00270771
0.00734766
0.00284257
0.00735336
0.00193433
0.0073609
0.00231176
0.00736384
0.00118592
0.00737023
0.00187204
0.00737062
0.000413356
0.00737659
0.00153962
0.00737447
-0.000418688
0.00738052
0.00125181
0.00737495
-0.00137289
0.00737964
0.00105701
0.00736639
-0.00225998
0.00736583
0.00142351
0.00734188
-0.0022944
0.00733982
0.0031657
0.00731704
-0.00110331
0.00733725
0.00492466
0.00734969
-0.00154696
0.00742122
-0.000119246
0.00748122
-0.0104492
0.00756704
-0.0310048
0.00759316
-0.0600327
0.00763803
0.0199911
0.00764184
0.048184
0.00768398
0.0286915
0.00770773
0.0104306
0.00775268
0.0101366
0.00779758
0.00299528
0.00786112
0.00346903
0.00792469
-0.0023717
0.00798583
-0.00160006
0.00803007
-0.00481656
0.00805753
-0.00276111
0.00806923
-0.00391654
0.00807011
-0.00165051
0.00806558
-0.00208149
0.00805686
-0.000315789
0.00804772
-0.000562716
0.00803628
0.000669463
0.00802584
0.000451833
0.00801406
0.00113681
0.00800442
0.000779072
0.00799486
0.000950205
0.0079883
0.000394581
0.00798273
0.000163938
-0.000526197
0.00749402
-0.0250369
0.00744842
-0.0202126
0.00743389
-0.0158577
0.00743858
-0.0124577
0.00745753
-0.00967556
0.00748454
-0.00770337
0.00751337
-0.00610249
0.00753714
-0.0046103
0.00754848
-0.00288082
0.00754285
-0.000801732
0.00751812
0.00154476
0.00747576
0.00401644
0.00741897
0.00637408
0.00735276
0.00849697
0.00728285
0.0102068
0.00721648
0.0114614
0.00716202
0.0120846
0.00712856
0.0121211
0.0071212
0.0114352
0.00713756
0.0103433
0.0071672
0.00896839
0.00719913
0.00780539
0.00722637
0.00672403
0.00724855
0.00607367
0.00726644
0.00533868
0.00728262
0.00498412
0.00729668
0.00434892
0.00731038
0.00414949
0.00732183
0.00348648
0.00733335
0.00345159
0.00734196
0.0026991
0.00735128
0.00283325
0.00735692
0.00192868
0.00736441
0.00230427
0.00736732
0.00118302
0.00737366
0.0018657
0.00737401
0.000413008
0.00737992
0.00153371
0.00737773
-0.000416496
0.00738367
0.00124587
0.00737797
-0.00136719
0.00738249
0.0010525
0.00736909
-0.00224658
0.00736843
0.00142416
0.00734458
-0.00227054
0.00734282
0.00316746
0.00732066
-0.00108116
0.00734156
0.00490376
0.00735457
-0.00155998
0.00742576
-0.000190432
0.00748463
-0.0105081
0.00756779
-0.031088
0.00759071
-0.0600556
0.00763708
0.0199447
0.00764472
0.0481764
0.00768889
0.0286473
0.00771341
0.010406
0.00775846
0.0100915
0.00780275
0.00295099
0.00786511
0.00340668
0.00792666
-0.00243326
0.00798528
-0.00165868
0.00802663
-0.0048579
0.00805141
-0.0027859
0.00806074
-0.00392587
0.00805983
-0.0016496
0.00805392
-0.00207558
0.00804422
-0.000306093
0.00803434
-0.000552833
0.00802234
0.00068146
0.00801147
0.000462704
0.00799934
0.00114895
0.00798942
0.000788985
0.00797964
0.00095999
0.00797293
0.000401289
0.00796726
0.000169608
-0.000523371
0.00749368
-0.0249548
0.00744743
-0.0201664
0.00743204
-0.0158423
0.00743585
-0.0124615
0.00745397
-0.00969369
0.00748017
-0.00772957
0.00750825
-0.00613057
0.00753132
-0.00463337
0.00754208
-0.00289158
0.00753601
-0.000795666
0.00751105
0.00156973
0.00746867
0.00405882
0.00741211
0.00643064
0.00734639
0.00856269
0.00727729
0.0102759
0.0072121
0.0115266
0.00715927
0.0121374
0.00712783
0.0121526
0.0071226
0.0114405
0.00714067
0.0103252
0.00717132
0.00893774
0.00720356
0.00777315
0.00723072
0.00669687
0.00725274
0.00605164
0.00727051
0.0053209
0.00728662
0.00496802
0.00730061
0.00433492
0.00731426
0.00413584
0.00732563
0.00347511
0.00733709
0.00344013
0.00734564
0.00269056
0.0073549
0.00282399
0.00736049
0.00192309
0.00736794
0.00229682
0.00737081
0.00118015
0.00737711
0.0018594
0.00737742
0.000412703
0.00738327
0.00152786
0.00738101
-0.000414236
0.00738685
0.00124003
0.00738103
-0.00136137
0.00738538
0.00104815
0.00737183
-0.00223303
0.00737108
0.00142491
0.00734733
-0.00224679
0.00734587
0.00316892
0.00732433
-0.00105962
0.0073459
0.0048822
0.00735946
-0.00157353
0.00743026
-0.000261239
0.00748801
-0.0105659
0.00756853
-0.0311685
0.00758828
-0.0600754
0.00763614
0.0198969
0.00764755
0.048165
0.0076937
0.0286011
0.00771893
0.0103808
0.00776404
0.0100464
0.00780767
0.00290737
0.00786878
0.00334557
0.00792827
-0.00249275
0.00798436
-0.00171477
0.00802282
-0.00489636
0.00804497
-0.00280805
0.00805198
-0.00393289
0.00804934
-0.00164696
0.00804211
-0.00206835
0.00803149
-0.000295471
0.0080209
-0.000542252
0.00800839
0.000693973
0.00799711
0.000473984
0.00798465
0.00116141
0.00797449
0.00079915
0.00796451
0.000969971
0.00795767
0.000408122
0.00795193
0.000175353
-0.000520496
0.00749334
-0.0248724
0.00744645
-0.0201195
0.00743023
-0.0158261
0.00743317
-0.0124645
0.00745047
-0.00971098
0.00747587
-0.00775497
0.0075032
-0.0061579
0.00752557
-0.00465574
0.00753575
-0.00290175
0.00752926
-0.000789174
0.00750407
0.00159491
0.00746169
0.0041012
0.00740539
0.00648695
0.00734018
0.00862789
0.00727191
0.0103442
0.00720793
0.0115905
0.00715676
0.0121886
0.00712736
0.012182
0.00712421
0.0114436
0.00714396
0.0103055
0.00717551
0.00890618
0.007208
0.00774067
0.00723506
0.00666981
0.00725692
0.00602978
0.00727457
0.00530326
0.0072906
0.00495199
0.00730453
0.00432099
0.00731812
0.00412225
0.00732942
0.0034638
0.00734083
0.00342872
0.00734931
0.00268208
0.00735853
0.00281478
0.00736407
0.00191755
0.00737149
0.00228941
0.00737432
0.00117732
0.00738059
0.00185313
0.00738085
0.00041244
0.00738665
0.00152206
0.00738432
-0.000411907
0.00739006
0.00123428
0.00738411
-0.00135542
0.00738829
0.00104397
0.00737461
-0.00221934
0.00737378
0.00142573
0.00735014
-0.00222315
0.00734899
0.00317008
0.00732806
-0.00103869
0.00735028
0.00485998
0.00736434
-0.00158759
0.00743474
-0.000331638
0.00749135
-0.0106225
0.00756926
-0.0312464
0.00758589
-0.060092
0.00763522
0.0198475
0.00765034
0.0481498
0.0076984
0.0285531
0.00772429
0.0103549
0.00776942
0.0100013
0.00781233
0.00286445
0.00787215
0.00328575
0.00792954
-0.00255014
0.00798307
-0.0017683
0.00801865
-0.00493194
0.00803821
-0.0028276
0.00804297
-0.00393765
0.00803867
-0.00164265
0.00803017
-0.00205985
0.00801867
-0.000283977
0.00800743
-0.000531012
0.00799444
0.000706967
0.00798278
0.000485643
0.00797002
0.00117417
0.00795963
0.000809543
0.00794948
0.000980122
0.00794254
0.000415057
0.00793675
0.000181149
0.00793386
-0.000517608
0.00793187
-0.001005
0.00793178
-0.00170112
0.00793177
-0.00223622
0.00793171
-0.00281763
0.00793045
-0.00327866
0.00792708
-0.00362625
0.00792148
-0.00393024
0.00791193
-0.0039933
0.00789986
-0.00414587
0.00788252
-0.00395206
0.00786363
-0.00402305
0.00783901
-0.00359335
0.00781497
-0.00375138
0.0077852
-0.00314332
0.00775913
-0.00353008
0.00772738
-0.00272937
0.00770227
-0.00349791
0.00767118
-0.00241901
0.00764715
-0.00368687
0.00761798
-0.00212647
0.00758735
-0.00396125
-0.00140817
0.00749301
-0.0247896
0.0074455
-0.020072
0.00742845
-0.015809
0.00743054
-0.0124665
0.00744701
-0.00972746
0.00747162
-0.00777957
0.0074982
-0.00618449
0.00751989
-0.00467743
0.0075295
-0.00291136
0.00752259
-0.000782268
0.00749719
0.00162031
0.00745483
0.00414356
0.00739879
0.00654299
0.00733412
0.00869255
0.00726671
0.0104116
0.00720397
0.0116533
0.00715448
0.0122381
0.00712713
0.0122093
0.00712604
0.0114447
0.00714738
0.0102841
0.00717978
0.00887378
0.00721246
0.00770799
0.00723939
0.00664288
0.00726107
0.00600809
0.0072786
0.00528573
0.00729456
0.00493603
0.00730843
0.00430712
0.00732197
0.00410871
0.00733322
0.00345255
0.00734457
0.00341737
0.00735299
0.00267365
0.00736216
0.00280561
0.00736766
0.00191204
0.00737504
0.00228203
0.00737784
0.00117451
0.00738408
0.00184689
0.0073843
0.000412216
0.00739005
0.00151632
0.00738765
-0.000409514
0.0073933
0.00122864
0.00738723
-0.00134935
0.00739125
0.00103995
0.00737743
-0.00220552
0.00737653
0.00142663
0.00735301
-0.00219963
0.00735216
0.00317093
0.00733185
-0.00101838
0.0073547
0.00483713
0.00736923
-0.00160213
0.00743919
-0.000401599
0.00749467
-0.0106779
0.00756999
-0.0313217
0.00758353
-0.0601056
0.0076343
0.0197968
0.00765308
0.0481311
0.00770299
0.0285032
0.00772949
0.0103284
0.00777458
0.00995617
0.00781674
0.00282229
0.00787522
0.00322727
0.00793047
-0.00260538
0.00798143
-0.00181927
0.00801415
-0.00496466
0.00803116
-0.00284461
0.00803374
-0.00394023
0.00802783
-0.00163674
0.00801812
-0.00205014
0.0080058
-0.000271659
0.00799395
-0.000519158
0.00798051
0.000720408
0.0079685
0.000497652
0.00795547
0.0011872
0.00794487
0.000820137
0.00793458
0.000990417
0.00792757
0.000422067
0.00792174
0.000186972
0.00791888
-0.000514748
0.00791693
-0.00100304
0.00791688
-0.00170107
0.00791688
-0.00223622
0.00791674
-0.00281749
0.00791529
-0.00327721
0.00791155
-0.00362252
0.00790542
-0.0039241
0.00789517
-0.00398306
0.00788226
-0.00413296
0.00786403
-0.00393383
0.0078442
-0.00400322
0.00781876
-0.00356791
0.00779395
-0.00372657
0.00776371
-0.00311308
0.00773722
-0.00350358
0.00770546
-0.00269761
0.00768024
-0.00347268
0.0076496
-0.00238837
0.00762555
-0.00366283
0.00759711
-0.00209803
0.00756633
-0.00393047
-0.00136382
0.00749269
-0.0247066
0.00744457
-0.0200239
0.0074267
-0.0157912
0.00742795
-0.0124678
0.00744361
-0.00974312
0.00746742
-0.00780338
0.00749327
-0.00621033
0.00751428
-0.00469844
0.00752331
-0.00292039
0.007516
-0.000774956
0.0074904
0.00164591
0.00744807
0.00418589
0.00739232
0.00659875
0.00732822
0.00875665
0.00726168
0.0104782
0.00720021
0.0117147
0.00715244
0.0122858
0.00712713
0.0122346
0.00712806
0.0114437
0.00715094
0.0102613
0.0071841
0.00884062
0.00721692
0.00767517
0.00724369
0.00661611
0.00726521
0.00598658
0.00728261
0.00526833
0.0072985
0.00492014
0.00731232
0.0042933
0.00732581
0.00409522
0.007337
0.00344137
0.0073483
0.00340607
0.00735667
0.00266528
0.0073658
0.00279648
0.00737126
0.00190658
0.00737861
0.00227467
0.00738139
0.00117174
0.00738759
0.00184069
0.00738777
0.000412029
0.00739347
0.00151063
0.00739101
-0.000407058
0.00739656
0.00122309
0.00739037
-0.00134316
0.00739423
0.00103609
0.00738029
-0.00219158
0.00737932
0.0014276
0.00735593
-0.00217624
0.00735539
0.00317147
0.00733568
-0.00099867
0.00735915
0.00481366
0.00737412
-0.0016171
0.00744362
-0.000471098
0.00749796
-0.0107323
0.00757071
-0.0313945
0.00758121
-0.060116
0.0076334
0.0197446
0.00765576
0.0481087
0.00770747
0.0284514
0.00773453
0.0103014
0.00777953
0.00991116
0.00782089
0.00278094
0.007878
0.00317016
0.00793107
-0.00265846
0.00797946
-0.00186766
0.00800934
-0.00499454
0.00802385
-0.00285912
0.00802429
-0.00394067
0.00801684
-0.0016293
0.00800599
-0.00203929
0.0079929
-0.000258566
0.00798047
-0.000506728
0.00796661
0.000734263
0.00795428
0.000509982
0.007941
0.00120048
0.00793024
0.000830906
0.00791982
0.00100083
0.00791276
0.000429127
0.00790694
0.000192797
0.00790414
-0.000511951
0.00790226
-0.00100116
0.00790227
-0.00170108
0.00790228
-0.00223622
0.00790205
-0.00281727
0.00790038
-0.00327553
0.00789626
-0.00361839
0.00788955
-0.0039174
0.00787859
-0.00397209
0.00786482
-0.00411919
0.0078457
-0.00391471
0.00782498
-0.0039825
0.0077988
-0.00354173
0.00777331
-0.00370108
0.0077427
-0.00308248
0.00771589
-0.00347677
0.00768427
-0.00266599
0.00765903
-0.00344745
0.00762895
-0.00235829
0.00760494
-0.00363882
0.00757731
-0.00207039
0.00754642
-0.00389958
-0.00132036
0.00749237
-0.0246232
0.00744366
-0.0199751
0.00742498
-0.0157725
0.0074254
-0.0124682
0.00744026
-0.00975798
0.00746329
-0.00782641
0.00748839
-0.00623543
0.00750872
-0.00471878
0.0075172
-0.00292887
0.00750949
-0.000767248
0.00748371
0.0016717
0.00744143
0.00422817
0.00738597
0.0066542
0.00732245
0.00882017
0.00725682
0.0105438
0.00719666
0.0117749
0.00715062
0.0123319
0.00712735
0.0122579
0.00713028
0.0114408
0.00715461
0.0102369
0.00718848
0.00880675
0.00722139
0.00764226
0.00724799
0.00658951
0.00726932
0.00596525
0.00728661
0.00525104
0.00730243
0.00490431
0.0073162
0.00427954
0.00732964
0.00408177
0.00734078
0.00343023
0.00735203
0.00339482
0.00736036
0.00265696
0.00736945
0.00278739
0.00737487
0.00190115
0.0073822
0.00226735
0.00738494
0.001169
0.00739111
0.00183452
0.00739127
0.000411878
0.00739691
0.00150499
0.00739439
-0.000404541
0.00739984
0.00121763
0.00739354
-0.00133685
0.00739725
0.00103238
0.00738318
-0.00217751
0.00738216
0.00142863
0.0073589
-0.00215299
0.00735867
0.0031717
0.00733956
-0.000979558
0.00736362
0.0047896
0.007379
-0.00163248
0.00744801
-0.000540108
0.00750121
-0.0107855
0.00757143
-0.0314647
0.0075789
-0.0601235
0.00763249
0.019691
0.00765838
0.0480828
0.00771182
0.028398
0.0077394
0.0102738
0.00778428
0.00986628
0.00782479
0.00274043
0.00788048
0.00311447
0.00793135
-0.00270933
0.00797716
-0.00191347
0.00800423
-0.00502161
0.00801629
-0.00287118
0.00801467
-0.00393905
0.00800574
-0.00162037
0.0079938
-0.00202734
0.00797998
-0.000244746
0.00796701
-0.000493763
0.00795278
0.000748498
0.00794015
0.000522604
0.00792666
0.00121397
0.00791574
0.000841824
0.00790524
0.00101134
0.00789815
0.000436209
0.00789236
0.000198597
0.00788964
-0.00050924
0.00788786
-0.000999381
0.00788794
-0.00170115
0.00788795
-0.00223623
0.00788763
-0.00281695
0.0078857
-0.00327361
0.00788116
-0.00361385
0.00787386
-0.0039101
0.00786214
-0.00396038
0.00784753
-0.00410458
0.00782755
-0.00389473
0.00780598
-0.00396093
0.00777912
-0.00351487
0.00775305
-0.00367501
0.00772221
-0.00305163
0.00769519
-0.00344976
0.00766383
-0.00263463
0.00763868
-0.0034223
0.00760925
-0.00232886
0.00758534
-0.00361492
0.00755858
-0.00204363
0.00752762
-0.00386863
-0.00127789
0.00749207
-0.0245395
0.00744277
-0.0199258
0.0074233
-0.015753
0.0074229
-0.0124678
0.00743696
-0.00977204
0.0074592
-0.00784866
0.00748357
-0.0062598
0.00750323
-0.00473844
0.00751116
-0.0029368
0.00750306
-0.000759152
0.0074771
0.00169766
0.00743488
0.00427039
0.00737975
0.00670933
0.00731684
0.00888309
0.00725214
0.0106085
0.00719331
0.0118337
0.00714902
0.0123762
0.00712779
0.0122791
0.00713267
0.0114359
0.0071584
0.0102112
0.00719289
0.00877226
0.00722584
0.0076093
0.00725225
0.0065631
0.00727341
0.00594409
0.00729058
0.00523387
0.00730635
0.00488854
0.00732006
0.00426583
0.00733346
0.00406837
0.00734455
0.00341915
0.00735576
0.0033836
0.00736404
0.00264867
0.0073731
0.00277834
0.0073785
0.00189575
0.0073858
0.00226005
0.00738852
0.00116628
0.00739466
0.00182838
0.00739478
0.00041176
0.00740037
0.0014994
0.00739779
-0.000401964
0.00740315
0.00121227
0.00739674
-0.00133043
0.0074003
0.00102881
0.00738612
-0.00216334
0.00738504
0.00142971
0.00736192
-0.00212987
0.00736201
0.00317161
0.00734349
-0.000961037
0.00736812
0.00476496
0.00738388
-0.00164824
0.00745238
-0.000608606
0.00750444
-0.0108375
0.00757215
-0.0315324
0.00757663
-0.060128
0.00763159
0.019636
0.00766093
0.0480535
0.00771606
0.0283429
0.0077441
0.0102458
0.00778881
0.00982158
0.00782844
0.00270081
0.00788268
0.00306023
0.00793133
-0.00275798
0.00797456
-0.0019567
0.00799885
-0.0050459
0.0080085
-0.00288083
0.00800488
-0.00393542
0.00799454
-0.00161003
0.00798156
-0.00201437
0.00796706
-0.000230247
0.0079536
-0.000480303
0.00793902
0.000763081
0.00792613
0.000535488
0.00791245
0.00122766
0.00790141
0.000852864
0.00789084
0.0010219
0.00788377
0.000443284
0.00787802
0.000204345
0.00787541
-0.000506637
0.00787374
-0.000997711
0.0078739
-0.00170131
0.00787391
-0.00223624
0.00787348
-0.00281652
0.00787128
-0.00327141
0.00786628
-0.00360885
0.00785835
-0.00390216
0.00784588
-0.0039479
0.00783041
-0.00408911
0.00780961
-0.00387393
0.00778725
-0.00393857
0.00775982
-0.00348744
0.00773327
-0.00364846
0.0077023
-0.00302067
0.0076752
-0.00342265
0.00764421
-0.00260364
0.00761923
-0.00339731
0.00759055
-0.00230017
0.00756679
-0.00359116
0.00754095
-0.00201779
0.00750996
-0.00383763
-0.00123651
0.00749177
-0.0244555
0.0074419
-0.019876
0.00742165
-0.0157328
0.00742044
-0.0124666
0.0074337
-0.0097853
0.00745517
-0.00787013
0.00747881
-0.00628344
0.0074978
-0.00475743
0.00750518
-0.00294418
0.00749671
-0.00075068
0.00747059
0.00172379
0.00742845
0.00431253
0.00737365
0.00676413
0.00731136
0.00894537
0.00724763
0.0106722
0.00719015
0.0118912
0.00714763
0.0124187
0.00712844
0.0122983
0.00713522
0.0114292
0.00716228
0.0101841
0.00719733
0.00873721
0.00723029
0.00757634
0.0072565
0.0065369
0.00727747
0.00592312
0.00729453
0.0052168
0.00731025
0.00487283
0.00732391
0.00425216
0.00733728
0.00405501
0.00734832
0.0034081
0.00735949
0.00337243
0.00736773
0.00264043
0.00737676
0.00276931
0.00738213
0.00189038
0.00738941
0.00225277
0.00739211
0.00116358
0.00739822
0.00182226
0.00739831
0.000411674
0.00740385
0.00149385
0.00740122
-0.000399329
0.00740649
0.001207
0.00739996
-0.00132391
0.00740338
0.00102539
0.0073891
-0.00214905
0.00738797
0.00143084
0.007365
-0.0021069
0.00736539
0.00317122
0.00734746
-0.000943101
0.00737265
0.00473977
0.00738875
-0.00166435
0.00745672
-0.00067657
0.00750764
-0.0108885
0.00757286
-0.0315976
0.00757438
-0.0601295
0.00763068
0.0195797
0.00766342
0.0480207
0.00772017
0.0282861
0.00774864
0.0102173
0.00779314
0.00977708
0.00783184
0.00266211
0.0078846
0.00300747
0.007931
-0.00280438
0.00797167
-0.00199737
0.0079932
-0.00506743
0.00800051
-0.00288814
0.00799495
-0.00392985
0.00798326
-0.00159835
0.00796931
-0.00200041
0.00795417
-0.000215116
0.00794026
-0.000466385
0.00792536
0.000777978
0.00791224
0.000548606
0.00789839
0.0012415
0.00788726
0.000863997
0.00787666
0.00103251
0.00786962
0.000450326
0.00786395
0.000210015
0.00786147
-0.000504163
0.00785993
-0.000996171
0.00786018
-0.00170156
0.00786019
-0.00223625
0.00785962
-0.00281595
0.00785712
-0.00326891
0.00785164
-0.00360337
0.00784305
-0.00389357
0.00782981
-0.00393466
0.0078135
-0.0040728
0.00779193
-0.00385236
0.00776885
-0.00391549
0.00774094
-0.00345953
0.00771401
-0.00362152
0.00768305
-0.00298971
0.00765596
-0.00339556
0.00762547
-0.00257315
0.00760073
-0.00337258
0.00757288
-0.00227232
0.00754931
-0.00356759
0.00752443
-0.00199291
0.00749343
-0.00380664
-0.00119631
0.00749148
-0.0243712
0.00744105
-0.0198255
0.00742003
-0.0157117
0.00741801
-0.0124646
0.00743049
-0.00979778
0.00745119
-0.00789083
0.00747411
-0.00630636
0.00749244
-0.00477576
0.00749928
-0.00295102
0.00749044
-0.00074184
0.00746416
0.00175006
0.00742212
0.00435458
0.00736768
0.00681857
0.00730603
0.00900702
0.00724328
0.010735
0.00718718
0.0119473
0.00714644
0.0124594
0.00712928
0.0123155
0.00713793
0.0114205
0.00716624
0.0101558
0.0072018
0.00870165
0.00723473
0.00754341
0.00726071
0.00651091
0.00728151
0.00590232
0.00729847
0.00519985
0.00731413
0.00485718
0.00732776
0.00423853
0.00734108
0.00404168
0.00735208
0.00339711
0.00736322
0.00336129
0.00737143
0.00263222
0.00738043
0.00276031
0.00738578
0.00188503
0.00739303
0.00224551
0.00739571
0.00116091
0.0074018
0.00181617
0.00740186
0.000411618
0.00740735
0.00148835
0.00740466
-0.000396639
0.00740985
0.00120182
0.00740321
-0.00131727
0.00740649
0.00102212
0.00739211
-0.00213467
0.00739094
0.00143201
0.00736812
-0.00208409
0.00736883
0.00317051
0.00735147
-0.00092574
0.00737719
0.00471405
0.00739361
-0.00168077
0.00746102
-0.000743979
0.00751082
-0.0109383
0.00757356
-0.0316604
0.00757215
-0.0601281
0.00762977
0.0195221
0.00766584
0.0479847
0.00772416
0.0282278
0.00775301
0.0101884
0.00779726
0.00973283
0.007835
0.00262437
0.00788625
0.00295622
0.00793039
-0.00284852
0.00796849
-0.00203547
0.00798731
-0.00508625
0.00799234
-0.00289317
0.0079849
-0.00392242
0.00797192
-0.00158537
0.00795705
-0.00198554
0.00794133
-0.000199399
0.00792699
-0.000452048
0.00791182
0.000793157
0.00789849
0.000561928
0.00788451
0.00125549
0.00787331
0.000875196
0.00786271
0.00104311
0.00785573
0.000457305
0.00785017
0.000215578
0.00784784
-0.000501839
0.00784645
-0.000994777
0.00784679
-0.00170189
0.00784679
-0.00223625
0.00784607
-0.00281523
0.00784324
-0.00326608
0.00783724
-0.00359738
0.00782798
-0.00388431
0.00781397
-0.00392065
0.00779686
-0.00405569
0.00777456
-0.00383007
0.00775084
-0.00389177
0.00772256
-0.00343125
0.00769535
-0.00359432
0.00766452
-0.00295888
0.00763755
-0.00336858
0.00760765
-0.00254326
0.00758323
-0.00334816
0.00755627
-0.00224535
0.00753292
-0.00354424
0.00750903
-0.00196903
0.00747805
-0.00377566
-0.00115735
0.0074912
-0.0242867
0.00744021
-0.0197746
0.00741843
-0.01569
0.00741563
-0.0124618
0.00742733
-0.00980948
0.00744727
-0.00791076
0.00746946
-0.00632855
0.00748713
-0.00479343
0.00749344
-0.00295734
0.00748425
-0.000732642
0.00745783
0.00177648
0.00741589
0.00439652
0.00736182
0.00687263
0.00730084
0.009068
0.00723909
0.0107967
0.00718439
0.012002
0.00714546
0.0124984
0.00713031
0.0123306
0.00714077
0.0114101
0.00717028
0.0101263
0.00720627
0.00866566
0.00723914
0.00751054
0.0072649
0.00648514
0.00728553
0.0058817
0.00730239
0.00518298
0.007318
0.00484157
0.00733159
0.00422494
0.00734488
0.00402838
0.00735585
0.00338614
0.00736695
0.00335018
0.00737513
0.00262405
0.0073841
0.00275133
0.00738943
0.0018797
0.00739667
0.00223827
0.00739933
0.00115825
0.0074054
0.00181011
0.00740542
0.000411591
0.00741088
0.0014829
0.00740813
-0.000393895
0.00741323
0.00119672
0.00740649
-0.00131054
0.00740963
0.00101897
0.00739516
-0.00212019
0.00739395
0.00143322
0.00737129
-0.00206143
0.00737231
0.00316949
0.00735552
-0.000908948
0.00738176
0.00468781
0.00739847
-0.00169747
0.0074653
-0.000810815
0.00751396
-0.0109869
0.00757427
-0.0317207
0.00756994
-0.0601238
0.00762884
0.0194632
0.00766819
0.0479453
0.00772802
0.028168
0.00775722
0.0101592
0.00780118
0.00968887
0.00783793
0.00258762
0.00788764
0.00290651
0.00792951
-0.0028904
0.00796506
-0.00207102
0.00798121
-0.0051024
0.007984
-0.00289596
0.00797475
-0.00391317
0.00796055
-0.00157118
0.00794481
-0.00196979
0.00792855
-0.000183142
0.00791384
-0.00043733
0.00789841
0.000808583
0.00788491
0.000575425
0.00787083
0.00126957
0.00785959
0.00088643
0.00784901
0.00105369
0.00784213
0.000464189
0.0078367
0.000221004
0.00783455
-0.000499687
0.00783332
-0.000993544
0.00783376
-0.00170233
0.00783374
-0.00223624
0.00783285
-0.00281433
0.00782966
-0.00326289
0.00782312
-0.00359084
0.00781316
-0.00387435
0.0077984
-0.00390589
0.00778051
-0.00403779
0.00775757
-0.00380713
0.00773328
-0.00386749
0.00770474
-0.00340271
0.00767737
-0.00356695
0.00764678
-0.00292829
0.00762001
-0.00334182
0.0075908
-0.00251405
0.00756677
-0.00332413
0.00754074
-0.00221932
0.00751762
-0.00352112
0.00749473
-0.00194614
0.0074638
-0.00374472
-0.0011197
0.00749092
-0.0242018
0.00743939
-0.019723
0.00741687
-0.0156675
0.00741329
-0.0124582
0.00742422
-0.00982041
0.00744339
-0.00792993
0.00746486
-0.00635002
0.00748189
-0.00481045
0.00748768
-0.00296313
0.00747813
-0.000723096
0.00745158
0.00180302
0.00740976
0.00443835
0.00735608
0.00692631
0.00729579
0.00912829
0.00723506
0.0108575
0.00718179
0.0120553
0.00714467
0.0125355
0.00713152
0.0123438
0.00714375
0.0113978
0.00717438
0.0100957
0.00721076
0.00862928
0.00724353
0.00747777
0.00726907
0.00645961
0.00728952
0.00586124
0.00730629
0.00516622
0.00732186
0.004826
0.00733541
0.00421139
0.00734868
0.00401512
0.0073596
0.00337521
0.00737068
0.0033391
0.00737883
0.0026159
0.00738779
0.00274238
0.0073931
0.0018744
0.00740032
0.00223105
0.00740297
0.0011556
0.00740901
0.00180407
0.00740901
0.00041159
0.00741442
0.00147749
0.00741162
-0.000391099
0.00741663
0.00119171
0.00740979
-0.0013037
0.00741281
0.00101596
0.00739824
-0.00210563
0.00739701
0.00143445
0.00737451
-0.00203893
0.00737584
0.00316816
0.00735961
-0.000892715
0.00738634
0.00466107
0.0074033
-0.00171444
0.00746955
-0.000877058
0.00751709
-0.0110345
0.00757497
-0.0317786
0.00756775
-0.0601166
0.00762791
0.0194031
0.00767047
0.0479027
0.00773176
0.0281067
0.00776126
0.0101297
0.00780489
0.00964523
0.00784062
0.00255189
0.00788877
0.00285836
0.00792837
-0.00292999
0.00796138
-0.00210403
0.00797489
-0.00511591
0.00797551
-0.00289658
0.00796452
-0.00390218
0.00794917
-0.00155582
0.00793261
-0.00195324
0.00791586
-0.000166392
0.0079008
-0.000422267
0.00788516
0.000824225
0.00787151
0.000589067
0.00785736
0.00128373
0.00784612
0.000897669
0.0078356
0.00106421
0.00782884
0.000470949
0.00782358
0.000226264
0.00782162
-0.00049773
0.00782056
-0.000992486
0.0078211
-0.00170287
0.00782106
-0.0022362
0.00781996
-0.00281324
0.00781639
-0.00325931
0.00780929
-0.00358374
0.00779863
-0.00386369
0.00778313
-0.00389039
0.00776451
-0.00401917
0.00774099
-0.00378362
0.00771624
-0.00384274
0.00768754
-0.003374
0.00766011
-0.00353952
0.00762986
-0.00289805
0.0076034
-0.00331535
0.00757495
-0.0024856
0.00755134
-0.00330052
0.00752629
-0.00219427
0.00750343
-0.00349826
0.00748153
-0.00192424
0.00745065
-0.00371384
-0.00108339
0.00749065
-0.0241167
0.00743859
-0.019671
0.00741534
-0.0156442
0.00741098
-0.0124538
0.00742114
-0.00983058
0.00743956
-0.00794835
0.00746033
-0.00637079
0.0074767
-0.00482683
0.00748197
-0.0029684
0.00747209
-0.00071321
0.00744543
0.00182968
0.00740373
0.00448004
0.00735046
0.00697959
0.00729087
0.00918788
0.00723119
0.0109171
0.00717937
0.0121071
0.00714406
0.0125708
0.0071329
0.0123549
0.00714685
0.0113839
0.00717854
0.010064
0.00721525
0.00859257
0.0072479
0.00744512
0.0072732
0.00643431
0.00729349
0.00584095
0.00731017
0.00514953
0.0073257
0.00481048
0.00733922
0.00419787
0.00735246
0.00400188
0.00736336
0.00336431
0.00737442
0.00332805
0.00738254
0.00260778
0.00739148
0.00273344
0.00739677
0.0018691
0.00740398
0.00222383
0.00740661
0.00115297
0.00741263
0.00179805
0.00741261
0.000411614
0.00741797
0.00147213
0.00741513
-0.000388253
0.00742005
0.00118679
0.00741312
-0.00129677
0.00741601
0.00101308
0.00740136
-0.00209098
0.00740011
0.0014357
0.00737777
-0.00201659
0.00737941
0.00316652
0.00736373
-0.000877032
0.00739094
0.00463386
0.00740813
-0.00173163
0.00747377
-0.000942693
0.00752019
-0.0110809
0.00757567
-0.031834
0.00756559
-0.0601065
0.00762696
0.0193417
0.00767267
0.047857
0.00773537
0.028044
0.00776513
0.0101
0.00780841
0.00960195
0.00784309
0.00251721
0.00788966
0.00281178
0.00792697
-0.0029673
0.00795747
-0.00213453
0.0079684
-0.00512683
0.0079669
-0.00289509
0.00795424
-0.00388952
0.00793778
-0.00153936
0.00792047
-0.00193592
0.00790327
-0.000149194
0.0078879
-0.000406897
0.00787208
0.000840048
0.00785832
0.000602825
0.00784412
0.00129792
0.00783291
0.000908883
0.00782248
0.00107464
0.00781588
0.000477553
0.00781082
0.000231326
0.00780907
-0.000495987
0.0078082
-0.000991615
0.00780884
-0.0017035
0.00780876
-0.00223611
0.00780744
-0.00281193
0.00780345
-0.00325532
0.00779577
-0.00357606
0.00778442
-0.00385234
0.00776821
-0.00387419
0.00774891
-0.00399986
0.0077249
-0.00375961
0.00769977
-0.00381761
0.00767102
-0.00334525
0.00764363
-0.00351212
0.00761383
-0.00286825
0.00758774
-0.00328926
0.00756012
-0.00245798
0.00753698
-0.00327737
0.00751291
-0.00217021
0.00749031
-0.00347566
0.00746939
-0.00190332
0.00743859
-0.00368304
-0.00104845
0.00749039
-0.0240314
0.0074378
-0.0196184
0.00741383
-0.0156202
0.00740871
-0.0124487
0.00741812
-0.00983998
0.00743578
-0.00796602
0.00745584
-0.00639084
0.00747157
-0.00484256
0.00747634
-0.00297317
0.00746612
-0.000702993
0.00743935
0.00185645
0.00739781
0.00452158
0.00734495
0.00703244
0.00728608
0.00924675
0.00722748
0.0109757
0.00717712