/*--------------------------------*- C++ -*----------------------------------*\
| =========                 |                                                 |
| \\      /  F ield         | OpenFOAM: The Open Source CFD Toolbox           |
|  \\    /   O peration     | Version:  2412                                  |
|   \\  /    A nd           | Website:  www.openfoam.com                      |
|    \\/     M anipulation  |                                                 |
\*---------------------------------------------------------------------------*/
FoamFile
{
    version     2.0;
    format      ascii;
    arch        "LSB;label=32;scalar=64";
    class       volVectorField;
    location    "1";
    object      U;
}
// * * * * * * * * * * * * * * * * * * * * * * * * * * * * * * * * * * * * * //

dimensions      [0 1 -1 0 0 0 0];

internalField   nonuniform List<vector> 
13079
(
(100.032 1.92401 0)
(100.649 5.37258 -8.12987e-17)
(101.759 8.59379 -1.15843e-20)
(103.294 11.2507 0)
(105.05 13.5307 0)
(107.089 15.3282 0)
(109.22 16.8858 0)
(111.447 18.3819 0)
(113.588 20.0157 -6.10672e-17)
(115.588 21.8464 6.3037e-17)
(117.358 23.8149 0)
(118.891 25.8224 0)
(120.22 27.7258 0)
(121.386 29.4513 7.83236e-17)
(122.501 30.9022 0)
(123.621 32.07 0)
(124.943 32.8811 -9.04093e-17)
(126.559 33.3697 -9.23054e-17)
(128.75 33.5069 -2.15454e-21)
(131.479 33.4798 -9.07921e-17)
(134.823 33.3719 0)
(138.39 33.4443 -8.33741e-17)
(142.231 33.6235 7.85702e-17)
(145.996 34.0679 0)
(150.046 34.5317 0)
(154.019 35.2385 0)
(158.449 35.8574 5.98031e-17)
(162.765 36.7617 -5.56888e-17)
(167.712 37.4855 -4.30208e-21)
(172.432 38.5909 0)
(178.007 39.4049 0)
(183.184 40.7458 0)
(189.539 41.6436 0)
(195.237 43.2739 0)
(202.586 44.2519 3.46214e-17)
(208.889 46.2463 -3.17653e-17)
(217.531 47.301 -3.03689e-17)
(224.534 49.7529 -2.75275e-17)
(234.875 50.8814 2.66114e-17)
(242.694 53.9034 -2.35226e-17)
(255.291 55.1071 0)
(264.015 58.8662 -1.94165e-17)
(279.551 60.2798 -1.95107e-17)
(289.151 65.1342 -3.02008e-17)
(308.542 67.1612 3.23855e-17)
(319.153 73.4712 0)
(344.234 76.4805 -1.34392e-17)
(357.072 83.7484 0)
(391.809 87.5366 0)
(410.354 93.1 0)
(460.53 97.8999 -6.2744e-18)
(488.972 90.9493 0)
(557.191 95.2925 0)
(604.535 4.11661 0)
(556.087 -44.6021 6.26593e-18)
(537.498 -58.2142 0)
(500.321 -64.531 6.23109e-21)
(484.811 -62.4856 -1.5303e-17)
(456.652 -63.1297 4.78282e-22)
(444.267 -61.0322 -4.574e-18)
(423.134 -61.8114 -1.7911e-17)
(412.593 -59.8195 0)
(395.055 -59.4336 0)
(384.107 -56.5485 -1.36111e-20)
(368.167 -55.0484 4.24211e-17)
(356.908 -51.9735 4.25327e-17)
(342.717 -50.2397 -5.80837e-17)
(332.049 -47.5701 -6.19264e-17)
(319.759 -45.9675 7.6944e-17)
(310.007 -43.7875 -8.38022e-17)
(299.365 -42.411 9.8721e-17)
(290.526 -40.7068 1.39657e-20)
(281.271 -39.6198 0)
(273.329 -38.3747 0)
(265.274 -37.5864 1.50069e-16)
(258.193 -36.7253 1.63417e-16)
(251.162 -36.1707 -1.79191e-16)
(100.031 1.90688 0)
(100.64 5.32905 8.13764e-17)
(101.74 8.52635 -1.52858e-16)
(103.26 11.1665 0)
(105.005 13.4332 0)
(107.03 15.221 0)
(109.149 16.7732 0)
(111.364 18.2684 0)
(113.493 19.9063 -6.09772e-17)
(115.484 21.7447 0)
(117.246 23.7228 0)
(118.774 25.7397 0)
(120.103 27.6513 0)
(121.272 29.3825 0)
(122.394 30.8364 0)
(123.527 32.0036 0)
(124.87 32.8099 1.49281e-21)
(126.517 33.2894 9.15591e-17)
(128.746 33.415 -9.1539e-17)
(131.515 33.3772 0)
(134.89 33.263 -8.63509e-17)
(138.473 33.3333 8.19255e-17)
(142.318 33.5127 0)
(146.082 33.9571 -7.19597e-17)
(150.132 34.4199 0)
(154.105 35.1244 0)
(158.536 35.741 -4.29712e-21)
(162.853 36.6419 5.47266e-17)
(167.8 37.363 -5.13337e-17)
(172.522 38.4642 0)
(178.097 39.2754 4.48336e-17)
(183.275 40.6114 0)
(189.631 41.5062 0)
(195.331 43.1306 0)
(202.681 44.1054 -3.62883e-21)
(208.987 46.0924 3.1497e-17)
(217.63 47.1437 0)
(224.637 49.5862 0)
(234.978 50.711 2.64091e-17)
(242.8 53.7212 -2.33354e-17)
(255.395 54.9209 2.28788e-17)
(264.122 58.6658 1.92483e-17)
(279.651 60.0762 3.81658e-21)
(289.256 64.9142 8.23998e-21)
(308.644 66.9389 -1.60416e-17)
(319.278 73.2298 1.06042e-17)
(344.373 76.234 0)
(357.275 83.4755 5.69807e-18)
(392.039 87.2443 0)
(410.658 92.7671 -1.06172e-18)
(460.759 97.5133 6.18042e-18)
(489.184 90.5147 9.1599e-18)
(557.086 94.7334 -1.19184e-18)
(604.26 4.12556 0)
(556.21 -44.3317 -2.73719e-20)
(537.799 -57.9919 -2.04879e-17)
(500.695 -64.3285 6.23536e-21)
(485.188 -62.3059 0)
(457.001 -62.9613 -1.53918e-17)
(444.552 -60.874 0)
(423.32 -61.6509 0)
(412.655 -59.6457 -9.54855e-18)
(394.973 -59.2378 0)
(383.894 -56.3291 -2.51187e-17)
(367.838 -54.8107 -4.20229e-17)
(356.5 -51.7236 0)
(342.252 -49.9855 5.65786e-21)
(331.553 -47.3145 6.16256e-17)
(319.241 -45.7153 7.66638e-17)
(309.482 -43.5379 -8.35857e-17)
(298.836 -42.1671 -1.97209e-16)
(290 -40.4672 1.08e-16)
(280.746 -39.3869 1.23175e-16)
(272.811 -38.147 -1.34722e-16)
(264.762 -37.366 -7.3767e-21)
(257.691 -36.5107 -1.6382e-16)
(250.669 -35.9631 1.79705e-16)
(100.03 1.88999 0)
(100.631 5.28601 -8.14789e-17)
(101.721 8.4596 7.65469e-17)
(103.227 11.083 0)
(104.96 13.3364 0)
(106.972 15.1146 0)
(109.079 16.6614 0)
(111.282 18.1556 0)
(113.4 19.7977 6.08984e-17)
(115.381 21.6436 6.28079e-17)
(117.135 23.6313 0)
(118.66 25.6575 0)
(119.988 27.5772 -7.34103e-17)
(121.16 29.3141 0)
(122.29 30.7708 -8.22451e-17)
(123.437 31.9372 8.62098e-17)
(124.802 32.7386 8.92887e-17)
(126.48 33.2087 0)
(128.748 33.3226 -9.05933e-17)
(131.556 33.2742 0)
(134.96 33.1537 8.50592e-17)
(138.557 33.2221 -1.61063e-16)
(142.406 33.4018 0)
(146.169 33.8461 7.05792e-17)
(150.218 34.308 -6.5957e-17)
(154.191 35.0102 6.15043e-17)
(158.623 35.6244 -5.76659e-17)
(162.941 36.522 0)
(167.888 37.2403 0)
(172.611 38.3375 0)
(178.187 39.1458 -4.42541e-17)
(183.366 40.477 0)
(189.723 41.3687 -3.87431e-17)
(195.425 42.9872 0)
(202.777 43.9588 -3.40002e-17)
(209.085 45.9384 -3.12315e-17)
(217.73 46.9864 2.9892e-17)
(224.741 49.4196 2.71039e-17)
(235.082 50.5407 -2.62221e-17)
(242.908 53.5391 2.31685e-17)
(255.5 54.7349 -2.27119e-17)
(264.23 58.4656 -1.91005e-17)
(279.753 59.8729 3.74943e-21)
(289.364 64.6946 2.96464e-17)
(308.747 66.717 1.58894e-17)
(319.406 72.9886 -1.05009e-17)
(344.515 75.9875 0)
(357.481 83.2023 -1.12545e-17)
(392.271 86.9515 1.03215e-17)
(410.961 92.4337 2.1041e-18)
(460.987 97.1267 0)
(489.393 90.081 -9.04027e-18)
(556.983 94.177 1.18124e-18)
(603.989 4.13346 1.35977e-18)
(556.332 -44.0636 -3.01433e-18)
(538.096 -57.7698 4.04586e-17)
(501.06 -64.1248 6.23085e-21)
(485.553 -62.1243 -1.49871e-17)
(457.335 -62.7902 7.61416e-18)
(444.82 -60.7122 -4.50825e-18)
(423.488 -61.4862 1.75304e-17)
(412.698 -59.4673 9.44229e-18)
(394.871 -59.0374 -2.87655e-17)
(383.664 -56.1056 0)
(367.495 -54.5698 0)
(356.082 -51.4714 4.18163e-17)
(341.778 -49.7299 5.73422e-17)
(331.052 -47.0581 0)
(318.721 -45.4627 -7.64051e-17)
(308.957 -43.2884 1.47933e-20)
(298.307 -41.9235 1.9698e-16)
(289.474 -40.228 0)
(280.223 -39.1546 -1.23258e-16)
(272.296 -37.9202 1.34906e-16)
(264.254 -37.1465 -1.5065e-16)
(257.194 -36.2972 0)
(250.182 -35.7566 0)
(100.029 1.87334 0)
(100.623 5.24346 0)
(101.702 8.39351 0)
(103.195 11.0002 0)
(104.916 13.2404 0)
(106.915 15.0089 0)
(109.01 16.5503 0)
(111.201 18.0436 0)
(113.308 19.6898 0)
(115.279 21.5432 -6.27043e-17)
(117.027 23.5403 -6.55514e-17)
(118.547 25.5759 0)
(119.874 27.5036 7.32142e-17)
(121.05 29.246 7.75726e-17)
(122.189 30.7054 1.63458e-21)
(123.351 31.8709 -1.59745e-21)
(124.738 32.6671 0)
(126.447 33.1277 9.00864e-17)
(128.754 33.2298 1.79335e-16)
(131.6 33.1707 8.73795e-17)
(135.032 33.0442 0)
(138.642 33.1107 1.58367e-16)
(142.493 33.2909 7.42827e-17)
(146.255 33.735 0)
(150.303 34.196 6.4735e-17)
(154.276 34.8959 -6.04042e-17)
(158.709 35.5077 5.66811e-17)
(163.028 36.4018 0)
(167.976 37.1174 0)
(172.7 38.2106 -4.64181e-17)
(178.277 39.016 0)
(183.457 40.3424 0)
(189.815 41.2312 3.83512e-17)
(195.52 42.8437 0)
(202.873 43.8122 -3.37094e-17)
(209.184 45.7844 3.09903e-17)
(217.831 46.8291 -2.96758e-17)
(224.845 49.2529 -5.38239e-17)
(235.187 50.3704 -2.60361e-17)
(243.016 53.357 0)
(255.607 54.5491 2.2544e-17)
(264.339 58.2655 1.89434e-17)
(279.856 59.6698 1.90378e-17)
(289.472 64.4752 -2.93827e-17)
(308.853 66.4953 -3.86822e-21)
(319.536 72.7476 0)
(344.66 75.7409 0)
(357.69 82.9289 5.55849e-18)
(392.504 86.6583 -2.03806e-17)
(411.263 92.0998 -1.04268e-18)
(461.213 96.7399 0)
(489.6 89.6481 0)
(556.88 93.6233 -1.17197e-18)
(603.721 4.1403 -1.34553e-18)
(556.453 -43.7977 0)
(538.386 -57.548 -1.9976e-17)
(501.417 -63.9199 -4.96741e-19)
(485.907 -61.9407 -6.51141e-21)
(457.655 -62.6164 0)
(445.071 -60.5472 4.46007e-18)
(423.637 -61.3174 -1.7336e-17)
(412.721 -59.2845 -9.31356e-18)
(394.75 -58.8325 1.2278e-21)
(383.416 -55.8783 2.45494e-17)
(367.138 -54.3259 0)
(355.654 -51.217 -4.14863e-17)
(341.298 -49.4727 0)
(330.546 -46.8009 0)
(318.198 -45.2098 0)
(308.43 -43.0389 1.66418e-16)
(297.777 -41.6803 -9.83858e-17)
(288.949 -39.9894 0)
(279.702 -38.9229 -1.2333e-16)
(271.783 -37.6941 1.3507e-16)
(263.749 -36.9279 1.50932e-16)
(256.7 -36.0847 1.64589e-16)
(249.699 -35.5513 -1.8069e-16)
(100.028 1.85692 0)
(100.615 5.20138 0)
(101.684 8.32809 0)
(103.163 10.9182 0)
(104.873 13.1451 0)
(106.859 14.904 6.32667e-17)
(108.942 16.4401 0)
(111.121 17.9323 0)
(113.217 19.5826 0)
(115.179 21.4434 -6.25978e-17)
(116.919 23.45 1.30844e-16)
(118.436 25.4947 6.89398e-17)
(119.763 27.4303 -7.30186e-17)
(120.943 29.1782 -7.73348e-17)
(122.091 30.6402 8.16266e-17)
(123.267 31.8045 -8.53923e-17)
(124.678 32.5954 0)
(126.419 33.0463 -1.85503e-21)
(128.765 33.1364 -8.876e-17)
(131.648 33.0668 -2.87213e-21)
(135.106 32.9344 0)
(138.727 32.9992 -7.78862e-17)
(142.581 33.1798 -3.86663e-21)
(146.341 33.6238 0)
(150.388 34.0838 0)
(154.361 34.7813 5.93553e-17)
(158.795 35.3908 -5.57603e-17)
(163.115 36.2815 0)
(168.064 36.9944 0)
(172.789 38.0835 4.582e-17)
(178.367 38.8862 -4.31847e-17)
(183.549 40.2077 -4.0168e-17)
(189.908 41.0935 -3.79749e-17)
(195.615 42.7002 -3.51727e-17)
(202.97 43.6656 3.39775e-21)
(209.284 45.6304 3.07508e-17)
(217.932 46.6718 0)
(224.949 49.0863 2.67285e-17)
(235.293 50.2001 2.58645e-17)
(243.125 53.175 0)
(255.714 54.3634 -3.47484e-21)
(264.449 58.0656 -1.88059e-17)
(279.96 59.4669 1.88859e-17)
(289.583 64.2561 1.45678e-17)
(308.961 66.2739 -3.79684e-21)
(319.669 72.5067 -1.0278e-17)
(344.807 75.4944 0)
(357.9 82.6553 5.47704e-18)
(392.739 86.3647 1.0063e-17)
(411.564 91.7654 0)
(461.436 96.3532 0)
(489.804 89.2162 0)
(556.78 93.0722 1.16213e-18)
(603.458 4.1461 -1.32314e-18)
(556.573 -43.5339 0)
(538.671 -57.3263 0)
(501.764 -63.7139 0)
(486.25 -61.7552 2.9327e-17)
(457.961 -62.4398 7.45187e-18)
(445.307 -60.3788 0)
(423.769 -61.1447 0)
(412.725 -59.0974 1.84008e-17)
(394.612 -58.6234 2.81116e-17)
(383.153 -55.6473 -2.42857e-17)
(366.769 -54.079 0)
(355.215 -50.9607 0)
(340.81 -49.2144 0)
(330.036 -46.5431 0)
(317.673 -44.9567 0)
(307.903 -42.7896 -1.46666e-20)
(297.249 -41.4374 9.82736e-17)
(288.426 -39.7513 0)
(279.184 -38.692 8.16265e-21)
(271.274 -37.4689 -1.20628e-20)
(263.249 -36.7103 -7.24099e-21)
(256.211 -35.8733 -1.64978e-16)
(249.222 -35.3473 1.81168e-16)
(242.952 -34.7729 0)
(236.793 -34.3694 2.12476e-16)
(231.161 -33.9289 -6.77318e-21)
(225.629 -33.5314 -5.82061e-21)
(220.476 -33.1081 5.19741e-16)
(215.384 -32.6207 5.49908e-16)
(210.575 -32.1438 2.89205e-16)
(205.778 -31.5127 3.02008e-16)
(201.219 -30.9725 6.27434e-16)
(196.619 -30.1918 3.23219e-16)
(192.273 -29.6377 -3.31661e-16)
(187.828 -28.7359 -1.31379e-20)
(183.72 -28.2609 3.4257e-16)
(179.422 -27.2636 -6.89712e-16)
(175.638 -26.9815 -3.46809e-16)
(171.469 -25.8773 1.67636e-20)
(168.15 -25.9076 -3.44747e-16)
(163.998 -24.617 -6.80014e-16)
(161.375 -25.0771 3.36094e-16)
(156.873 -23.4342 3.26971e-16)
(155.414 -24.4182 -3.20082e-16)
(149.595 -21.9485 -3.06591e-16)
(100.027 1.84074 8.62858e-17)
(100.607 5.15976 0)
(101.666 8.26332 7.6869e-17)
(103.132 10.8369 0)
(104.83 13.0506 -6.71152e-17)
(106.803 14.7999 -6.33087e-17)
(108.875 16.3305 0)
(111.042 17.8218 0)
(113.127 19.4761 0)
(115.079 21.3443 6.25018e-17)
(116.813 23.3602 -1.30591e-16)
(118.326 25.414 -6.87877e-17)
(119.654 27.3574 2.13708e-21)
(120.838 29.1106 -7.70982e-17)
(121.995 30.5751 0)
(123.187 31.7381 0)
(124.621 32.5234 0)
(126.396 32.9644 -1.84666e-21)
(128.78 33.0425 0)
(131.7 32.9624 -8.52465e-17)
(135.182 32.8242 8.13993e-17)
(138.814 32.8876 7.66313e-17)
(142.668 33.0687 -3.80337e-21)
(146.427 33.5125 6.6795e-17)
(150.472 33.9715 0)
(154.446 34.6666 -1.16742e-16)
(158.88 35.2737 -5.48845e-17)
(163.202 36.161 0)
(168.152 36.8713 0)
(172.878 37.9564 -4.52482e-17)
(178.456 38.7562 3.60952e-21)
(183.64 40.0729 3.97606e-17)
(190.001 40.9558 3.76269e-17)
(195.71 42.5566 6.97546e-17)
(203.067 43.5189 3.31835e-17)
(209.384 45.4763 -3.05336e-17)
(218.034 46.5144 0)
(225.055 48.9196 -2.65447e-17)
(235.399 50.0299 -2.56934e-17)
(243.235 52.9931 0)
(255.822 54.1777 -2.22366e-17)
(264.561 57.8659 0)
(280.066 59.2642 -1.87464e-17)
(289.695 64.0372 0)
(309.071 66.0527 -3.09509e-17)
(319.805 72.2659 2.03608e-17)
(344.958 75.2478 0)
(358.113 82.3814 -5.41739e-18)
(392.975 86.0706 9.9305e-18)
(411.863 91.4305 0)
(461.658 95.9663 0)
(490.007 88.7853 0)
(556.68 92.5237 1.1538e-18)
(603.197 4.1509 1.31005e-18)
(556.69 -43.2722 0)
(538.95 -57.1047 0)
(502.102 -63.5066 0)
(486.581 -61.5677 -1.45017e-17)
(458.254 -62.2604 -7.36949e-18)
(445.528 -60.2071 4.38923e-18)
(423.883 -60.968 0)
(412.711 -58.9061 -1.81631e-17)
(394.455 -58.4101 0)
(382.874 -55.4128 0)
(366.387 -53.8294 -4.04414e-17)
(354.768 -50.7025 0)
(340.317 -48.955 -5.62599e-17)
(329.523 -46.2849 0)
(317.146 -44.7037 7.56358e-17)
(307.376 -42.5406 -1.45945e-20)
(296.721 -41.195 -9.81797e-17)
(287.905 -39.5139 0)
(278.668 -38.462 1.235e-16)
(270.768 -37.2447 -1.3543e-16)
(262.752 -36.4939 -7.1903e-21)
(255.728 -35.6632 0)
(248.75 -35.1445 -1.81607e-16)
(242.495 -34.5762 0)
(236.348 -34.1788 2.12942e-16)
(230.727 -33.7432 -2.28528e-16)
(225.204 -33.3499 -2.44512e-16)
(220.058 -32.9295 -5.19502e-16)
(214.968 -32.4435 -2.74371e-16)
(210.157 -31.9674 -2.87985e-16)
(205.352 -31.3352 0)
(200.783 -30.7944 -3.10821e-16)
(196.169 -30.0108 0)
(191.81 -29.4561 3.26743e-16)
(187.351 -28.5511 -3.31584e-16)
(183.236 -28.0777 3.35651e-16)
(178.93 -27.0778 3.37068e-16)
(175.148 -26.8007 3.3818e-16)
(170.979 -25.695 3.36378e-16)
(167.674 -25.7334 3.34699e-16)
(163.527 -24.442 3.29401e-16)
(160.927 -24.9112 -3.24833e-16)
(156.429 -23.2681 -3.15289e-16)
(154.993 -24.2551 3.07737e-16)
(149.185 -21.7807 2.94005e-16)
(100.026 1.82477 -8.6344e-17)
(100.599 5.11859 -8.18158e-17)
(101.648 8.19919 -7.69904e-17)
(103.102 10.7564 0)
(104.788 12.9568 6.72017e-17)
(106.749 14.6965 0)
(108.809 16.2218 -6.09393e-17)
(110.963 17.7121 0)
(113.038 19.3704 0)
(114.981 21.2458 0)
(116.708 23.271 6.51745e-17)
(118.218 25.3338 -6.86349e-17)
(119.546 27.2848 2.10962e-21)
(120.735 29.0433 7.68705e-17)
(121.902 30.5101 0)
(123.111 31.6717 0)
(124.569 32.4512 0)
(126.376 32.882 -1.75933e-16)
(128.8 32.948 8.70009e-17)
(131.754 32.8575 0)
(135.26 32.7138 -1.60521e-16)
(138.901 32.7758 -7.54324e-17)
(142.755 32.9575 -7.05153e-17)
(146.512 33.401 -6.5659e-17)
(150.556 33.859 0)
(154.53 34.5517 5.7442e-17)
(158.965 35.1564 3.76832e-21)
(163.288 36.0404 0)
(168.239 36.748 4.78068e-17)
(172.966 37.8291 8.94341e-17)
(178.546 38.6262 4.22449e-17)
(183.732 39.938 0)
(190.094 40.8181 -3.72923e-17)
(195.805 42.4129 -6.9192e-17)
(203.164 43.3722 0)
(209.485 45.3222 0)
(218.136 46.3571 2.90743e-17)
(225.161 48.753 5.27547e-17)
(235.506 49.8597 2.55359e-17)
(243.346 52.8112 2.25319e-17)
(255.932 53.9922 2.20863e-17)
(264.673 57.6663 -1.85245e-17)
(280.174 59.0618 0)
(289.809 63.8185 0)
(309.183 65.8316 1.53479e-17)
(319.943 72.0252 -1.0086e-17)
(345.111 75.0011 0)
(358.329 82.1071 5.34051e-18)
(393.212 85.7761 -9.81384e-18)
(412.161 91.0951 0)
(461.878 95.5794 0)
(490.207 88.3552 8.60732e-18)
(556.582 91.9778 -1.14468e-18)
(602.94 4.15471 -1.28908e-18)
(556.806 -43.0124 0)
(539.223 -56.8831 1.92357e-17)
(502.431 -63.298 5.03879e-19)
(486.9 -61.3782 0)
(458.532 -62.0784 0)
(445.732 -60.0321 -8.68821e-18)
(423.98 -60.7873 -1.67454e-17)
(412.68 -58.7108 1.00204e-20)
(394.283 -58.1929 0)
(382.582 -55.1751 2.37252e-17)
(365.995 -53.5773 3.31394e-21)
(354.314 -50.4428 0)
(339.82 -48.6947 5.59157e-17)
(329.007 -46.0264 0)
(316.619 -44.4507 -7.00553e-21)
(306.849 -42.2919 -8.26709e-17)
(296.196 -40.9533 -9.80685e-17)
(287.387 -39.2773 1.07871e-16)
(278.157 -38.2329 -1.23566e-16)
(270.267 -37.0216 1.3558e-16)
(262.261 -36.2787 -1.51764e-16)
(255.25 -35.4544 -1.6567e-16)
(248.285 -34.9433 1.82019e-16)
(242.045 -34.3811 0)
(235.911 -33.99 -4.26645e-16)
(230.302 -33.5591 -2.28772e-16)
(224.788 -33.1699 0)
(219.648 -32.7522 6.22117e-21)
(214.559 -32.2675 2.7345e-16)
(209.745 -31.7919 2.86369e-16)
(204.93 -31.1584 2.97531e-16)
(200.351 -30.6167 -3.0736e-16)
(195.722 -29.8301 3.1483e-16)
(191.352 -29.2751 0)
(186.88 -28.3671 0)
(182.76 -27.8955 -3.28117e-16)
(178.447 -26.8937 3.28664e-16)
(174.671 -26.6218 -3.28988e-16)
(170.504 -25.5153 0)
(167.216 -25.5621 -3.2417e-16)
(163.075 -24.2704 -3.18311e-16)
(160.498 -24.7485 0)
(156.007 -23.106 0)
(154.593 -24.0952 0)
(148.799 -21.6172 0)
(100.025 1.80903 0)
(100.592 5.07787 1.63814e-16)
(101.631 8.13568 0)
(103.072 10.6765 -7.20205e-17)
(104.747 12.8637 0)
(106.695 14.5939 -6.33808e-17)
(108.743 16.1137 6.09438e-17)
(110.886 17.603 5.99901e-17)
(112.95 19.2653 6.05335e-17)
(114.884 21.148 0)
(116.605 23.1823 0)
(118.111 25.254 6.84914e-17)
(119.44 27.2126 7.24694e-17)
(120.635 28.9761 0)
(121.812 30.4451 0)
(123.037 31.6051 0)
(124.52 32.3786 0)
(126.361 32.7991 1.74572e-16)
(128.823 32.8529 -8.61566e-17)
(131.812 32.7521 0)
(135.34 32.6031 1.5832e-16)
(138.988 32.6638 0)
(142.842 32.8462 6.93641e-17)
(146.597 33.2895 -6.45716e-17)
(150.64 33.7464 0)
(154.614 34.4366 -5.6559e-17)
(159.05 35.039 5.32932e-17)
(163.374 35.9196 0)
(168.326 36.6246 -4.7226e-17)
(173.055 37.7016 -4.42176e-17)
(178.636 38.496 0)
(183.823 39.803 0)
(190.187 40.6802 3.69833e-17)
(195.901 42.2692 3.43326e-17)
(203.262 43.2254 0)
(209.586 45.1681 0)
(218.239 46.1997 -2.88968e-17)
(225.268 48.5864 -5.24292e-17)
(235.613 49.6896 0)
(243.457 52.6293 -4.47847e-17)
(256.042 53.8068 -2.19482e-17)
(264.786 57.4668 1.84014e-17)
(280.282 58.8595 0)
(289.925 63.6001 0)
(309.298 65.6108 -1.52192e-17)
(320.083 71.7846 -9.98221e-18)
(345.266 74.7542 1.24958e-17)
(358.546 81.8325 -5.28469e-18)
(393.45 85.481 -9.68905e-18)
(412.458 90.7591 -1.03729e-18)
(462.096 95.1925 -5.62611e-18)
(490.406 87.9261 -8.50777e-18)
(556.485 91.4343 1.13725e-18)
(602.685 4.15753 4.11055e-21)
(556.92 -42.7545 -2.69063e-18)
(539.489 -56.6615 -1.90078e-17)
(502.75 -63.0882 -4.98017e-19)
(487.208 -61.1866 -1.4194e-17)
(458.797 -61.8935 0)
(445.921 -59.8538 8.60587e-18)
(424.061 -60.6029 1.65454e-17)
(412.632 -58.5114 8.8487e-18)
(394.095 -57.9718 -2.71276e-17)
(382.276 -54.9342 -2.34662e-17)
(365.593 -53.3229 3.9677e-17)
(353.853 -50.1816 0)
(339.319 -48.4337 0)
(328.49 -45.7677 5.98296e-17)
(316.093 -44.198 -7.51487e-17)
(306.325 -42.0439 0)
(295.674 -40.7123 8.04493e-21)
(286.873 -39.0416 -2.15697e-16)
(277.65 -38.0049 1.23638e-16)
(269.772 -36.7997 -1.35739e-16)
(261.777 -36.0649 0)
(254.779 -35.2472 1.65984e-16)
(247.828 -34.7436 0)
(241.603 -34.1876 0)
(235.482 -33.8028 2.13594e-16)
(229.886 -33.3766 2.28875e-16)
(224.38 -32.9913 0)
(219.245 -32.5762 2.58724e-16)
(214.155 -32.0925 -6.67026e-21)
(209.337 -31.6172 0)
(204.513 -30.982 -2.94538e-16)
(199.923 -30.4394 3.03326e-16)
(195.28 -29.6499 -3.09725e-16)
(190.899 -29.0947 0)
(186.416 -28.1839 0)
(182.291 -27.7146 0)
(177.975 -26.7114 -3.19706e-16)
(174.207 -26.445 -1.34418e-21)
(170.044 -25.3384 3.16124e-16)
(166.774 -25.3937 3.13161e-16)
(162.642 -24.1024 3.06835e-16)
(160.09 -24.5892 0)
(155.607 -22.9479 2.9079e-16)
(154.214 -23.9388 -2.82239e-16)
(148.437 -21.4581 0)
(100.025 1.79349 0)
(100.585 5.03759 -1.23321e-20)
(101.614 8.07278 -7.71975e-17)
(103.043 10.5973 7.21375e-17)
(104.706 12.7713 -6.73556e-17)
(106.642 14.492 5.93629e-21)
(108.678 16.0064 -6.09403e-17)
(110.809 17.4947 -5.99615e-17)
(112.862 19.1609 -6.04746e-17)
(114.788 21.0508 0)
(116.502 23.0941 0)
(118.006 25.1746 -6.83471e-17)
(119.336 27.1406 0)
(120.536 28.9092 7.64243e-17)
(121.724 30.3802 0)
(122.967 31.5383 0)
(124.475 32.3056 0)
(126.35 32.7156 -1.73241e-16)
(128.85 32.7571 0)
(131.872 32.6461 0)
(135.42 32.492 -7.8101e-17)
(139.076 32.5518 7.31662e-17)
(142.928 32.7348 -3.6053e-21)
(146.681 33.1779 4.02139e-21)
(150.723 33.6337 -5.95013e-17)
(154.698 34.3214 5.57345e-17)
(159.135 34.9215 0)
(163.46 35.7987 0)
(168.413 36.501 0)
(173.144 37.5741 4.37415e-17)
(178.726 38.3657 0)
(183.915 39.668 -3.86586e-17)
(190.281 40.5423 0)
(195.997 42.1253 0)
(203.361 43.0786 -3.24875e-17)
(209.688 45.0139 2.99263e-17)
(218.343 46.0423 -2.87215e-17)
(225.375 48.4197 5.2118e-17)
(235.722 49.5194 2.5231e-17)
(243.569 52.4475 2.22582e-17)
(256.153 53.6214 2.18087e-17)
(264.901 57.2675 0)
(280.392 58.6574 1.83428e-17)
(290.042 63.3818 0)
(309.414 65.3901 3.52203e-21)
(320.226 71.544 8.15005e-21)
(345.424 74.5073 -1.23823e-17)
(358.765 81.5576 0)
(393.689 85.1855 9.57956e-18)
(412.754 90.4227 2.05784e-18)
(462.312 94.8055 5.55282e-18)
(490.603 87.498 -8.41284e-18)
(556.39 90.8934 -1.1288e-18)
(602.433 4.1594 1.26149e-18)
(557.031 -42.4985 2.66081e-18)
(539.749 -56.4398 0)
(503.06 -62.8769 -5.04596e-19)
(487.503 -60.993 2.80729e-17)
(459.048 -61.706 0)
(446.095 -59.6723 -4.25727e-18)
(424.125 -60.4146 0)
(412.567 -58.3081 0)
(393.892 -57.7471 2.68026e-17)
(381.958 -54.6903 0)
(365.182 -53.0663 0)
(353.386 -49.9192 0)
(338.814 -48.1721 0)
(327.972 -45.5091 -1.19099e-16)
(315.567 -43.9456 7.4893e-17)
(305.802 -41.7965 0)
(295.154 -40.4722 9.78541e-17)
(286.363 -38.807 1.07815e-16)
(277.148 -37.7781 0)
(269.282 -36.5791 0)
(261.299 -35.8525 0)
(254.316 -35.0414 -1.66234e-16)
(247.378 -34.5456 -1.8266e-16)
(241.17 -33.9959 0)
(235.061 -33.6173 2.13727e-16)
(229.478 -33.1958 0)
(223.98 -32.8143 -2.43863e-16)
(218.849 -32.4014 0)
(213.758 -31.9185 -2.7049e-16)
(208.935 -31.4432 -2.81731e-16)
(204.1 -30.8062 0)
(199.498 -30.2626 -2.98661e-16)
(194.842 -29.4703 0)
(190.451 -28.9149 -3.08132e-16)
(185.958 -28.0019 -3.09961e-16)
(181.833 -27.5351 0)
(177.516 -26.531 -3.10165e-16)
(173.757 -26.2707 3.08998e-16)
(169.601 -25.1645 -3.053e-16)
(166.352 -25.2284 -3.01745e-16)
(162.229 -23.9382 0)
(159.703 -24.4334 0)
(155.23 -22.794 -2.78168e-16)
(153.857 -23.7857 2.69169e-16)
(148.099 -21.3033 2.54964e-16)
(100.024 1.77816 0)
(100.578 4.99773 -1.22593e-20)
(101.598 8.01049 7.73166e-17)
(103.014 10.5188 0)
(104.666 12.6796 6.74453e-17)
(106.589 14.3908 6.34721e-17)
(108.614 15.8999 6.09492e-17)
(110.734 17.3871 0)
(112.776 19.0572 0)
(114.693 20.9541 -6.21365e-17)
(116.402 23.0065 -6.48268e-17)
(117.903 25.0956 6.82115e-17)
(119.234 27.0689 0)
(120.44 28.8424 -1.78212e-21)
(121.639 30.3153 0)
(122.899 31.4714 8.34517e-17)
(124.434 32.2323 0)
(126.342 32.6316 1.7194e-16)
(128.88 32.6608 0)
(131.935 32.5397 -8.13384e-17)
(135.502 32.3807 7.70771e-17)
(139.164 32.4395 -7.2109e-17)
(143.014 32.6233 -6.72299e-17)
(146.764 33.0661 6.2572e-17)
(150.805 33.5208 5.86227e-17)
(154.781 34.206 5.49494e-17)
(159.219 34.8038 0)
(163.546 35.6775 4.87651e-17)
(168.5 36.3774 0)
(173.232 37.4464 -4.33022e-17)
(178.816 38.2353 -4.10261e-17)
(184.007 39.5328 3.83392e-17)
(190.375 40.4043 0)
(196.094 41.9815 -3.38398e-17)
(203.459 42.9317 3.22839e-17)
(209.79 44.8596 -2.97503e-17)
(218.447 45.8848 2.85606e-17)
(225.483 48.253 -2.5913e-17)
(235.831 49.3492 -2.50925e-17)
(243.682 52.2657 2.21202e-17)
(256.265 53.4361 -3.22043e-21)
(265.016 57.0683 0)
(280.504 58.4555 -3.335e-21)
(290.161 63.1637 0)
(309.532 65.1695 3.45624e-21)
(320.371 71.3035 8.02777e-21)
(345.585 74.2602 0)
(358.986 81.2823 0)
(393.929 84.8894 0)
(413.048 90.0858 -1.02085e-18)
(462.527 94.4185 0)
(490.798 87.0708 8.32057e-18)
(556.295 90.355 -1.12221e-18)
(602.184 4.16034 0)
(557.139 -42.2442 0)
(540.002 -56.2179 0)
(503.36 -62.6643 4.98818e-19)
(487.787 -60.7974 5.57112e-21)
(459.286 -61.5157 0)
(446.254 -59.4876 4.22362e-18)
(424.174 -60.2227 0)
(412.487 -58.1011 8.60227e-18)
(393.675 -57.5189 0)
(381.629 -54.4437 2.29182e-17)
(364.763 -52.8079 0)
(352.914 -49.6558 -3.94882e-17)
(338.308 -47.9102 0)
(327.455 -45.2506 5.92679e-17)
(315.043 -43.6938 -6.75756e-21)
(305.283 -41.5498 0)
(294.64 -40.233 9.77193e-17)
(285.858 -38.5735 -1.07745e-16)
(276.652 -37.5525 0)
(268.799 -36.36 0)
(260.828 -35.6416 0)
(253.861 -34.8374 3.32885e-16)
(246.938 -34.3493 1.82876e-16)
(240.745 -33.8059 1.97733e-16)
(234.651 -33.4337 -2.13714e-16)
(229.079 -33.0166 0)
(223.588 -32.6387 2.43133e-16)
(218.461 -32.228 0)
(213.368 -31.7455 0)
(208.538 -31.27 2.7864e-16)
(203.692 -30.6311 0)
(199.079 -30.0864 5.86723e-16)
(194.41 -29.2914 0)
(190.01 -28.7361 4.46962e-21)
(185.51 -27.8212 1.06648e-20)
(181.385 -27.3574 0)
(177.069 -26.353 3.00129e-16)
(173.324 -26.099 0)
(169.176 -24.9939 0)
(165.95 -25.0665 2.89952e-16)
(161.838 -23.7778 0)
(159.339 -24.2811 0)
(154.875 -22.6443 0)
(153.523 -23.6361 0)
(147.785 -21.153 -2.41903e-16)
(100.023 1.76303 -8.64962e-17)
(100.571 4.95828 -8.21623e-17)
(101.581 7.9488 0)
(102.985 10.4409 0)
(104.627 12.5886 0)
(106.538 14.2904 0)
(108.551 15.794 0)
(110.659 17.2802 0)
(112.691 18.9541 6.03541e-17)
(114.599 20.8581 1.24111e-16)
(116.302 22.9193 1.2944e-16)
(117.801 25.017 0)
(119.134 26.9975 0)
(120.346 28.7757 -1.75632e-21)
(121.557 30.2503 0)
(122.835 31.4042 -8.30855e-17)
(124.396 32.1584 0)
(126.339 32.5469 -8.53366e-17)
(128.914 32.5637 0)
(132 32.4328 8.0444e-17)
(135.585 32.269 -3.06122e-21)
(139.251 32.3272 0)
(143.1 32.5117 -6.62332e-17)
(146.847 32.9542 6.16438e-17)
(150.887 33.4077 0)
(154.864 34.0905 -5.42176e-17)
(159.303 34.6859 -5.12308e-17)
(163.631 35.5563 -4.82089e-17)
(168.587 36.2535 0)
(173.321 37.3186 4.2881e-17)
(178.906 38.1048 3.21745e-21)
(184.099 39.3975 -3.80299e-17)
(190.469 40.2662 3.61466e-17)
(196.191 41.8375 6.7236e-17)
(203.558 42.7848 3.2085e-17)
(209.892 44.7053 0)
(218.552 45.7274 0)
(225.591 48.0863 0)
(235.941 49.1791 0)
(243.796 52.084 -5.96842e-21)
(256.378 53.2509 -2.15546e-17)
(265.133 56.8693 1.80318e-17)
(280.617 58.2537 -1.81026e-17)
(290.281 62.9458 0)
(309.653 64.9491 3.39162e-21)
(320.518 71.063 9.72244e-18)
(345.748 74.0129 0)
(359.209 81.0066 0)
(394.169 84.5929 0)
(413.34 89.7484 0)
(462.739 94.0316 5.39325e-18)
(490.991 86.6446 0)
(556.202 89.819 -8.41383e-22)
(601.936 4.16036 0)
(557.244 -41.9916 0)
(540.248 -55.9958 0)
(503.651 -62.4503 0)
(488.06 -60.5996 5.42873e-21)
(459.511 -61.3227 6.96716e-18)
(446.399 -59.2998 -4.17359e-18)
(424.207 -60.0271 -1.59474e-17)
(412.392 -57.8904 -8.49397e-18)
(393.445 -57.2873 -2.6155e-17)
(381.289 -54.1946 -4.53184e-17)
(364.337 -52.5477 0)
(352.439 -49.3914 1.29943e-20)
(337.801 -47.6481 -5.45332e-17)
(326.938 -44.9924 0)
(314.522 -43.4426 -7.43861e-17)
(304.768 -41.3041 0)
(294.13 -39.995 -1.9516e-16)
(285.359 -38.3412 1.35171e-20)
(276.163 -37.3284 1.23699e-16)
(268.324 -36.1424 0)
(260.366 -35.4325 0)
(253.414 -34.6351 -1.6658e-16)
(246.507 -34.155 -1.82984e-16)
(240.331 -33.6178 -1.97746e-16)
(234.25 -33.2519 0)
(228.69 -32.8392 -2.27935e-16)
(223.206 -32.4648 0)
(218.082 -32.0558 0)
(212.984 -31.5736 -2.65705e-16)
(208.148 -31.0977 0)
(203.291 -30.4567 0)
(198.666 -29.9109 -2.87402e-16)
(193.985 -29.1134 0)
(189.578 -28.5585 2.9251e-16)
(185.072 -27.6421 5.84955e-16)
(180.951 -27.1817 0)
(176.638 -26.1776 2.89599e-16)
(172.908 -25.9303 -2.8715e-16)
(168.771 -24.8268 0)
(165.568 -24.9082 0)
(161.47 -23.6215 0)
(158.997 -24.1324 0)
(154.544 -22.4987 -2.52463e-16)
(153.211 -23.4899 -2.42986e-16)
(147.495 -21.0071 0)
(100.023 1.74809 8.65509e-17)
(100.564 4.91925 8.22312e-17)
(101.565 7.88769 0)
(102.957 10.3637 0)
(104.588 12.4983 -6.76051e-17)
(106.487 14.1906 6.3558e-17)
(108.489 15.6889 -6.09578e-17)
(110.585 17.1741 0)
(112.607 18.8517 -6.03034e-17)
(114.506 20.7627 -6.19777e-17)
(116.204 22.8326 -6.46169e-17)
(117.701 24.9388 6.79443e-17)
(119.036 26.9264 0)
(120.254 28.7091 -7.57945e-17)
(121.477 30.1853 0)
(122.774 31.3367 0)
(124.361 32.0841 -8.46193e-17)
(126.339 32.4615 0)
(128.951 32.466 0)
(132.067 32.3253 0)
(135.669 32.1571 -1.5031e-16)
(139.338 32.2146 0)
(143.185 32.4 6.52919e-17)
(146.93 32.8422 -6.07724e-17)
(150.969 33.2946 0)
(154.946 33.9748 0)
(159.386 34.5678 5.06276e-17)
(163.716 35.4349 0)
(168.674 36.1296 0)
(173.409 37.1906 -4.04521e-21)
(178.996 37.9742 8.06663e-17)
(184.191 39.2621 4.20669e-21)
(190.563 40.128 -3.59031e-17)
(196.288 41.6934 -3.34085e-17)
(203.658 42.6377 -2.98856e-21)
(209.995 44.551 -2.94102e-17)
(218.657 45.5698 0)
(225.7 47.9195 0)
(236.051 49.0089 0)
(243.911 51.9022 -2.18776e-17)
(256.491 53.0658 2.14301e-17)
(265.25 56.6703 -1.7926e-17)
(280.73 58.0521 1.79841e-17)
(290.403 62.728 0)
(309.775 64.7288 3.32819e-21)
(320.667 70.8225 0)
(345.912 73.7655 0)
(359.433 80.7305 -5.03405e-18)
(394.41 84.2958 -9.24927e-18)
(413.63 89.4105 0)
(462.95 93.6446 -6.66245e-21)
(491.183 86.2194 0)
(556.11 89.2854 1.10772e-18)
(601.691 4.15949 1.21427e-18)
(557.346 -41.7406 0)
(540.487 -55.7735 0)
(503.931 -62.2349 0)
(488.321 -60.3998 -1.35804e-17)
(459.722 -61.127 -6.88678e-18)
(446.529 -59.1088 -4.13927e-18)
(424.226 -59.8281 1.57472e-17)
(412.283 -57.6763 8.3679e-18)
(393.203 -57.0526 2.58349e-17)
(380.941 -53.9431 1.12441e-20)
(363.905 -52.286 3.81752e-17)
(351.96 -49.1264 3.88586e-17)
(337.294 -47.3859 5.4192e-17)
(326.423 -44.7346 0)
(314.005 -43.1922 0)
(304.258 -41.0594 0)
(293.626 -39.7582 1.94833e-16)
(284.867 -38.1103 1.07576e-16)
(275.681 -37.1058 -1.23666e-16)
(267.856 -35.9264 0)
(259.913 -35.2251 0)
(252.978 -34.4347 0)
(246.086 -33.9626 3.65964e-16)
(239.927 -33.4317 0)
(233.859 -33.072 -2.13089e-16)
(228.311 -32.6637 2.27108e-16)
(222.833 -32.2925 0)
(217.711 -31.8851 -2.52414e-16)
(212.609 -31.4028 5.71775e-21)
(207.764 -30.9262 0)
(202.895 -30.2831 2.76554e-16)
(198.26 -29.7362 -2.80769e-16)
(193.568 -28.9365 0)
(189.156 -28.3824 0)
(184.646 -27.465 -2.829e-16)
(180.531 -27.0083 2.81696e-16)
(176.224 -26.0051 -2.78681e-16)
(172.511 -25.7646 2.75672e-16)