/*--------------------------------*- C++ -*----------------------------------*\
| =========                 |                                                 |
| \\      /  F ield         | OpenFOAM: The Open Source CFD Toolbox           |
|  \\    /   O peration     | Version:  2412                                  |
|   \\  /    A nd           | Website:  www.openfoam.com                      |
|    \\/     M anipulation  |                                                 |
\*---------------------------------------------------------------------------*/
FoamFile
{
    version     2.0;
    format      ascii;
    arch        "LSB;label=32;scalar=64";
    class       volScalarField;
    location    "0.2";
    object      epsilon;
}
// * * * * * * * * * * * * * * * * * * * * * * * * * * * * * * * * * * * * * //

dimensions      [0 2 -3 0 0 0 0];

internalField   nonuniform List<scalar> 
13077
(
623.842
1185.86
1557.16
1472
1158.91
849.792
635.62
526.231
486.023
477.49
480.267
486.774
494.263
502.15
510.104
518.357
526.786
535.761
545.104
555.35
566.168
578.375
591.318
606.241
621.963
640.507
659.673
682.843
705.939
734.702
762.166
798.58
832.419
881.516
925.355
991.447
1046.92
1144.85
1247.45
625.347
1190.12
1563.03
1477.52
1162.98
852.058
636.373
526.137
485.619
477.023
479.812
486.346
493.859
501.761
509.723
517.977
526.403
535.369
544.698
554.927
565.724
577.905
590.822
605.711
621.4
639.903
659.027
682.145
705.186
733.875
761.25
797.547
831.252
880.201
923.862
989.7
1044.77
1142.2
1244.35
1434.67
1628.75
1966.32
2261.45
2732.55
2941.92
3140.46
2873.65
3368.92
3981.88
6108.4
7971.82
16678.4
54969.1
78517.8
53039.8
30139.3
14314.3
5772.76
3088.24
2250.62
1969.76
1672.14
1516.71
1337.15
1254.95
1145.94
1109.71
1056.38
1044.24
626.847
1194.35
1568.83
1482.96
1166.99
854.307
637.126
526.048
485.221
476.561
479.362
485.923
493.459
501.376
509.346
517.601
526.024
534.98
544.298
554.508
565.285
577.44
590.331
605.188
620.843
639.305
658.388
681.455
704.442
733.057
760.342
796.524
830.096
878.898
922.382
987.969
1042.64
1139.56
1241.26
1431.27
1625.33
1963.22
2259.28
2732.32
2943.4
3140.54
2868.39
3359.68
3975.55
6115.95
8001.29
16901
55862.1
79257.9
53145
30129.2
14317.4
5782.29
3093.03
2252.9
1970.6
1672.16
1516.06
1336.33
1253.97
1145
1108.91
1055.72
1043.76
1002.87
988.37
963.884
950.165
922.048
888.857
838.382
784.761
737.314
704.522
681.67
668.83
663.287
661.053
657.758
651.11
644.264
636.098
631.16
624.643
622.364
617.527
619.195
621.241
629.457
647.938
659.213
741.553
1028.35
2370.7
628.352
1198.54
1574.55
1488.29
1170.92
856.513
637.861
525.955
484.823
476.101
478.915
485.502
493.061
500.993
508.972
517.227
525.646
534.594
543.899
554.091
564.848
576.978
589.843
604.666
620.289
638.71
657.753
680.769
703.702
732.243
759.44
795.506
828.946
877.601
920.908
986.247
1040.51
1136.93
1238.18
1427.9
1621.95
1960.17
2257.18
2732.29
2945.15
3140.91
2863.26
3350.36
3968.89
6123.06
8029.16
17119
56740
79968.3
53223.9
30102.4
14310.2
5787.96
3096.74
2254.8
1971.24
1672.1
1515.39
1335.53
1253.01
1144.08
1108.13
1055.09
1043.29
1002.46
988.07
963.698
950.094
922.042
888.816
838.143
784.256
736.672
703.897
681.133
668.432
663.065
660.998
657.792
651.166
644.321
636.175
631.295
624.851
622.694
617.96
619.873
622.173
630.99
650.294
663.273
752.83
1073.74
2534.77
629.866
1202.71
1580.18
1493.51
1174.76
858.666
638.572
525.854
484.425
475.642
478.469
485.083
492.665
500.612
508.597
516.854
525.27
534.208
543.501
553.675
564.412
576.516
589.355
604.146
619.737
638.118
657.12
680.085
702.964
731.432
758.542
794.492
827.8
876.31
919.442
984.534
1038.39
1134.31
1235.12
1424.55
1618.59
1957.15
2255.14
2732.44
2947.15
3141.58
2858.25
3340.95
3961.85
6129.6
8055.22
17332.2
57603.3
80650.1
53279.3
30060.5
14293.3
5789.86
3099.38
2256.34
1971.68
1671.98
1514.72
1334.78
1252.1
1143.22
1107.4
1054.51
1042.85
1002.08
987.8
963.54
950.05
922.063
888.804
837.931
783.777
736.056
703.299
680.625
668.065
662.874
660.973
657.855
651.249
644.4
636.273
631.45
625.077
623.041
618.41
620.572
623.13
632.563
652.718
667.527
764.904
1122.61
2701.57
631.391
1206.86
1585.72
1498.61
1178.5
860.76
639.255
525.743
484.025
475.184
478.025
484.665
492.27
500.231
508.224
516.481
524.893
533.822
543.103
553.259
563.977
576.055
588.869
603.628
619.187
637.527
656.49
679.405
702.231
730.626
757.649
793.485
826.661
875.027
917.986
982.834
1036.29
1131.71
1232.07
1421.24
1615.26
1954.18
2253.18
2732.82
2949.46
3142.61
2853.41
3331.47
3954.44
6135.57
8079.39
17540.2
58453.3
81304.9
53315
30005.8
14267.5
5788.28
3101.04
2257.57
1971.99
1671.87
1514.11
1334.12
1251.27
1142.44
1106.74
1053.99
1042.47
1001.75
987.563
963.413
950.033
922.112
888.819
837.747
783.325
735.468
702.731
680.15
667.731
662.716
660.982
657.949
651.359
644.504
636.391
631.623
625.321
623.406
618.879
621.291
624.112
634.177
655.213
671.992
777.848
1175.12
2870.25
632.926
1210.99
1591.16
1503.58
1182.15
862.794
639.908
525.623
483.624
474.727
477.582
484.248
491.876
499.851
507.851
516.109
524.518
533.437
542.706
552.845
563.543
575.596
588.385
603.112
618.639
636.94
655.863
678.729
701.503
729.826
756.763
792.486
825.531
873.755
916.543
981.152
1034.21
1129.13
1229.05
1417.98
1611.97
1951.29
2251.33
2733.47
2952.15
3144.13
2848.84
3322
3946.69
6140.99
8101.66
17743.1
59292
81934.9
53335.3
29941
14234
5783.65
3101.88
2258.6
1972.23
1671.82
1513.62
1333.62
1250.57
1141.79
1106.2
1053.58
1042.16
1001.47
987.377
963.329
950.056
922.199
888.872
837.6
782.911
734.918
702.202
679.714
667.438
662.599
661.031
658.08
651.502
644.637
636.535
631.82
625.586
623.791
619.368
622.034
625.123
635.836
657.787
676.692
791.755
1231.43
3040.22
634.473
1215.09
1596.51
1508.44
1185.71
864.768
640.533
525.492
483.22
474.271
477.141
483.833
491.483
499.472
507.48
515.738
524.143
533.053
542.311
552.431
563.11
575.139
587.903
602.599
618.096
636.357
655.242
678.059
700.783
729.035
755.887
791.498
824.415
872.5
915.119
979.495
1032.15
1126.58
1226.07
1414.78
1608.75
1948.5
2249.62
2734.47
2955.32
3146.25
2844.64
3312.62
3938.65
6145.91
8122.06
17941.1
60121.4
82542.5
53345.3
29869.4
14194.3
5776.49
3102.08
2259.54
1972.52
1671.94
1513.33
1333.34
1250.09
1141.35
1105.83
1053.32
1041.96
1001.29
987.264
963.309
950.134
922.339
888.977
837.505
782.547
734.418
701.724
679.332
667.197
662.533
661.129
658.258
651.687
644.806
636.711
632.045
625.879
624.201
619.883
622.805
626.168
637.546
660.451
681.657
806.733
1291.73
3211.17
636.031
1219.15
1601.75
1513.18
1189.16
866.682
641.128
525.351
482.815
473.816
476.701
483.42
491.091
499.094
507.109
515.367
523.769
532.671
541.917
552.02
562.681
574.685
587.425
602.09
617.557
635.78
654.628
677.397
700.072
728.255
755.024
790.525
823.315
871.264
913.718
977.867
1030.13
1124.08
1223.14
1411.66
1605.62
1945.85
2248.1
2735.89
2959.08
3149.15
2840.95
3303.43
3930.4
6150.39
8140.66
18134.2
60944.3
83130.4
53350.2
29794.4
14150
5767.38
3101.86
2260.55
1972.97
1672.35
1513.34
1333.39
1249.88
1141.17
1105.7
1053.26
1041.92
1001.24
987.254
963.378
950.29
922.551
889.151
837.477
782.249
733.984
701.313
679.016
667.023
662.533
661.29
658.493
651.925
645.022
636.928
632.306
626.204
624.643
620.429
623.609
627.253
639.317
663.218
686.924
822.905
1356.22
3383.06
637.6
1223.19
1606.9
1517.79
1192.52
868.536
641.693
525.2
482.408
473.362
476.263
483.008
490.701
498.718
506.74
514.998
523.397
532.29
541.525
551.612
562.254
574.234
586.951
601.586
617.024
635.21
654.022
676.744
699.372
727.487
754.177
789.569
822.236
870.052
912.346
976.276
1028.15
1121.63
1220.28
1408.63
1602.59
1943.37
2246.81
2737.83
2963.56
3153.01
2837.92
3294.56
3922.03
6154.54
8157.55
18322.7
61763.1
83701.2
53355.8
29719.9
14102.8
5757.04
3101.51
2261.79
1973.72
1673.18
1513.77
1333.88
1250.06
1141.36
1105.86
1053.46
1042.09
1001.36
987.382
963.565
950.549
922.86
889.416
837.538
782.037
733.635
700.986
678.784
666.931
662.612
661.526
658.799
652.226
645.294
637.195
632.613
626.572
625.125
621.015
624.456
628.386
641.157
666.103
692.532
840.407
1425.13
3556.09
639.179
1227.18
1611.93
1522.28
1195.79
870.329
642.23
525.039
481.999
472.908
475.826
482.598
490.313
498.343
506.372
514.631
523.027
531.912
541.136
551.206
561.83
573.788
586.482
601.087
616.498
634.648
653.426
676.103
698.685
726.735
753.347
788.635
821.18
868.869
911.009
974.73
1026.22
1119.25
1217.49
1405.72
1599.7
1941.11
2245.82
2740.39
2968.91
3158.06
2835.73
3286.15
3913.63
6158.44
8172.86
18506.8
62580.8
84257.8
53368.4
29649.9
14054.7
5746.25
3101.35
2263.48
1974.94
1674.59
1514.77
1334.93
1250.74
1142.01
1106.42
1054
1042.54
1001.7
987.691
963.907
950.942
923.29
889.795
837.709
781.934
733.392
700.763
678.655
666.94
662.788
661.855
659.191
652.606
645.636
637.525
632.975
626.991
625.655
621.648
625.352
629.576
643.078
669.125
698.53
859.392
1498.7
3730.76
640.77
1231.14
1616.85
1526.64
1198.96
872.063
642.737
524.868
481.589
472.457
475.392
482.191
489.927
497.971
506.007
514.266
522.659
531.536
540.75
550.804
561.411
573.346
586.018
600.596
615.981
634.095
652.841
675.475
698.014
726.002
752.538
787.725
820.153
867.72
909.71
973.234
1024.34
1116.94
1214.79
1402.94
1596.98
1939.11
2245.19
2743.68
2975.31
3164.54
2834.61
3278.38
3905.34
6162.23
8186.75
18687
63400.2
84803.3
53394.5
29589.2
14007.8
5735.9
3101.73
2265.87
1976.84
1676.77
1516.5
1336.71
1252.05
1143.25
1107.48
1054.98
1043.33
1002.34
988.231
964.446
951.505
923.876
890.318
838.018
781.963
733.279
700.667
678.651
667.07
663.08
662.294
659.686
653.081
646.063
637.931
633.406
627.473
626.244
622.338
626.308
630.833
645.091
672.303
704.969
880.031
1577.2
3907.79
642.371
1235.06
1621.66
1530.87
1202.03
873.736
643.216
524.688
481.178
472.006
474.96
481.785
489.543
497.6
505.643
513.903
522.294
531.163
540.367
550.406
560.997
572.911
585.562
600.113
615.472
633.554
652.269
674.862
697.36
725.288
751.753
786.843
819.158
866.61
908.458
971.798
1022.54
1114.72
1212.2
1400.33
1594.45
1937.42
2244.98
2747.83
2982.93
3172.75
2834.8
3271.45
3897.29
6166.04
8199.42
18863.5
64224.4
85340.7
53441.4
29542.8
13964.7
5727.03
3103.11
2269.24
1979.65
1679.95
1519.15
1339.39
1254.16
1145.23
1109.17
1056.5
1044.56
1003.33
989.063
965.232
952.279
924.652
891.018
838.495
782.155
733.323
700.724
678.797
667.345
663.512
662.867
660.306
653.67
646.592
638.428
633.92
628.031
626.903
623.097
627.335
632.17
647.212
675.66
711.91
902.513
1660.95
4088.14
643.984
1238.93
1626.35
1534.98
1205
875.35
643.666
524.499
480.766
471.558
474.53
481.382
489.162
497.232
505.282
513.543
521.932
530.794
539.989
550.013
560.588
572.481
585.113
599.638
614.974
633.025
651.712
674.266
696.726
724.599
750.996
785.994
818.199
865.545
907.257
970.429
1020.82
1112.61
1209.73
1397.9
1592.14
1936.1
2245.28
2752.99
2992.02
3183.03
2836.6
3265.58
3889.66
6170.06
8211.09
19036.9
65056.4
85873.4
53516.8
29516.2
13928.1
5720.79
3105.98
2273.95
1983.66
1684.39
1522.95
1343.21
1257.25
1148.12
1111.63
1058.7
1046.34
1004.78
990.26
966.324
953.314
925.662
891.932
839.175
782.542
733.556
700.964
679.121
667.793
664.11
663.596
661.074
654.395
647.244
639.036
634.532
628.68
627.646
623.937
628.446
633.6
649.458
679.224
719.422
927.049
1750.29
4272.93
645.608
1242.76
1630.92
1538.95
1207.88
876.904
644.087
524.3
480.353
471.111
474.103
480.981
488.783
496.866
504.924
513.186
521.573
530.428
539.615
549.625
560.186
572.059
584.673
599.173
614.488
632.509
651.17
673.689
696.115
723.935
750.268
785.18
817.282
864.529
906.114
969.136
1019.18
1110.61
1207.4
1395.68
1590.09
1935.2
2246.16
2759.32
3002.8
3195.77
2840.34
3261.06
3882.65
6174.46
8222.03
19207.7
65899.2
86404.5
53628.8
29515.6
13901
5718.52
3110.94
2280.39
1989.19
1690.4
1528.18
1348.41
1261.56
1152.15
1115.05
1061.73
1048.79
1006.79
991.907
967.794
954.669
926.957
893.104
840.099
783.162
734.013
701.421
679.657
668.445
664.903
664.512
662.016
655.281
648.042
639.776
635.263
629.436
628.49
624.875
629.655
635.139
651.847
683.026
727.582
953.872
1845.61
4463.43
647.244
1246.53
1635.35
1542.78
1210.66
878.398
644.481
524.094
479.94
470.666
473.678
480.584
488.407
496.504
504.569
512.832
521.218
530.067
539.246
549.242
559.79
571.645
584.242
598.72
614.015
632.009
650.646
673.132
695.527
723.301
749.575
784.407
816.411
863.571
905.038
967.929
1017.65
1108.75
1205.23
1393.69
1588.35
1934.79
2247.72
2767.01
3015.58
3211.43
2846.42
3258.21
3876.5
6179.5
8232.57
19376.6
66755.7
86937.8
53786.2
29547.7
13887
5721.73
3118.67
2289.04
1996.62
1698.34
1535.17
1355.31
1267.36
1157.56
1119.64
1065.78
1052.07
1009.5
994.107
969.727
956.414
928.596
894.587
841.314
784.059
734.736
702.135
680.442
669.338
665.926
665.647
663.165
656.358
649.014
640.671
636.134
630.322
629.454
625.927
630.98
636.806
654.403
687.1
736.477
983.239
1947.33
4661
648.891
1250.26
1639.66
1546.48
1213.33
879.832
644.847
523.879
479.527
470.224
473.257
480.19
488.034
496.145
504.217
512.482
520.867
529.711
538.883
548.867
559.401
571.239
583.821
598.278
613.556
631.525
650.142
672.6
694.967
722.699
748.92
783.68
815.592
862.676
904.035
966.82
1016.23
1107.05
1203.24
1391.98
1586.94
1934.95
2250.08
2776.26
3030.68
3230.53
2855.31
3257.4
3871.49
6185.43
8243.06
19544.2
67629
87476.6
53998.4
29620.1
13889.8
5732.2
3129.97
2300.45
2006.41
1708.66
1544.29
1364.27
1274.96
1164.65
1125.66
1071.07
1056.37
1013.04
996.984
972.222
958.631
930.65
896.442
842.875
785.284
735.773
703.149
681.519
670.512
667.219
667.038
664.556
657.661
650.19
641.753
637.173
631.361
630.558
627.116
632.442
638.621
657.151
691.49
746.207
1015.43
2055.94
4867.04
650.551
1253.93
1643.83
1550.04
1215.91
881.206
645.186
523.657
479.114
469.784
472.839
479.799
487.665
495.789
503.869
512.136
520.521
529.36
538.525
548.498
559.022
570.843
583.412
597.85
613.112
631.06
649.66
672.093
694.438
722.134
748.307
783.004
814.832
861.852
903.116
965.819
1014.94
1105.51
1201.45
1390.58
1585.94
1935.76
2253.34
2787.3
3048.47
3253.68
2867.54
3259.07
3867.94
6192.58
8253.93
19711.3
68521.8
88024.8
54275.5
29741.2
13914.1
5751.95
3145.8
2315.3
2019.09
1721.86
1555.99
1375.75
1284.78
1173.81
1133.43
1077.88
1061.91
1017.62
1000.69
975.402
961.419
933.2
898.738
844.845
786.894
737.177
704.516
682.938
672.016
668.827
668.73
666.231
659.228
651.609
643.053
638.409
632.58
631.83
628.464
634.065
640.612
660.123
696.241
756.883
1050.76
2171.93
5082.93
652.223
1257.54
1647.86
1553.44
1218.38
882.519
645.498
523.428
478.701
469.348
472.425
479.412
487.301
495.438
503.526
511.795
520.181
529.015
538.175
548.138
558.651
570.459
583.015
597.437
612.687
630.616
649.202
671.615
693.942
721.609
747.742
782.385
814.137
861.109
902.29
964.941
1013.8
1104.17
1199.9
1389.52
1585.37
1937.3
2257.65
2800.4
3069.37
3281.6
2883.75
3263.75
3866.25
6201.32
8265.64
19878.7
69436.8
88586
54628.2
29920.5
13964.8
5783.36
3167.27
2334.36
2035.3
1738.55
1570.83
1390.27
1297.27
1185.46
1143.32
1086.55
1068.96
1023.45
1005.39
979.411
964.894
936.346
901.561
847.299
788.958
739.013
706.295
684.755
673.903
670.803
670.772
668.238
661.106
653.311
644.613
639.879
634.014
633.3
630.002
635.877
642.806
663.354
701.409
768.628
1089.56
2295.84
5309.99
653.909
1261.1
1651.75
1556.7
1220.75
883.772
645.783
523.192
478.291
468.916
472.015
479.03
486.94
495.091
503.187
511.46
519.846
528.677
537.833
547.786
558.291
570.086
582.633
597.04
612.28
630.195
648.771
671.169
693.485
721.13
747.229
781.83
813.516
860.455
901.568
964.2
1012.82
1103.06
1198.61
1388.85
1585.32
1939.69
2263.16
2815.87
3093.86
3315.1
2904.68
3272.04
3866.86
6212.09
8278.75
20047.3
70376.4
89164.3
55068.1
30168.4
14047.8
5829.2
3195.73
2358.56
2055.78
1759.46
1589.45
1408.46
1313
1200.15
1155.8
1097.48
1077.85
1030.82
1011.32
984.423
969.197
940.204
905.008
850.323
791.554
741.352
708.554
687.035
676.236
673.206
673.223
670.633
663.348
655.348
646.476
641.625
635.7
635.003
631.763
637.911
645.24
666.885
707.057
781.585
1132.19
2428.23
5549.37
655.608
1264.59
1655.49
1559.81
1223.01
884.965
646.043
522.951
477.882
468.487
471.61
478.653
486.585
494.75
502.854
511.13
519.518
528.347
537.499
547.444
557.942
569.726
582.266
596.662
611.896
629.799
648.371
670.76
693.069
720.702
746.776
781.347
812.977
859.904
900.965
963.615
1012.03
1102.19
1197.63
1388.62
1585.84
1943.04
2270.03
2834.03
3122.5
3355.13
2931.19
3284.66
3870.32
6225.41
8293.87
20218.4
71343.1
89763.4
55607.5
30497
14170
5892.78
3232.76
2389.04
2081.45
1785.46
1612.63
1431.11
1332.66
1218.54
1171.42
1111.15
1088.98
1040.04
1018.73
990.649
974.496
944.912
909.196
854.021
794.774
744.28
711.372
689.855
679.089
676.106
676.149
673.481
666.014
657.777
648.698
643.696
637.685
636.982
633.786
640.206
647.954
670.765
713.258
795.909
1179.04
2569.66
5802.06
657.322
1268.02
1659.07
1562.76
1225.16
886.096
646.278
522.704
477.476
468.063
471.21
478.282
486.236
494.414
502.528
510.808
519.198
528.025
537.175
547.114
557.606
569.382
581.917
596.304
611.535
629.433
648.004
670.391
692.701
720.331
746.39
780.945
812.531
859.467
900.494
963.204
1011.44
1101.6
1196.97
1388.89
1587.02
1947.47
2278.46
2855.26
3155.91
3402.82
2964.31
3302.46
3877.26
6241.88
8311.71
20392.9
72339.1
90387.6
56259.8
30919.9
14339.2
5978.03
3280.28
2427.15
2113.36
1817.6
1641.32
1459.16
1357.1
1241.43
1190.87
1128.17
1102.84
1051.53
1027.93
998.343
980.993
950.638
914.264
858.512
798.725
747.894
714.841
693.301
682.543
679.583
679.627
676.854
669.177
660.665
651.34
646.15
640.02
639.286
636.12
642.808
650.996
675.052
720.094
811.776
1230.53
2720.68
6068.79
659.051
1271.39
1662.49
1565.54
1227.2
887.166
646.488
522.454
477.073
467.645
470.817
477.917
485.893
494.086
502.209
510.493
518.887
527.713
536.863
546.796
557.285
569.055
581.587
595.97
611.202
629.098
647.674
670.067
692.386
720.025
746.079
780.635
812.191
859.16
900.173
962.99
1011.1
1101.33
1196.7
1389.72
1588.93
1953.13
2288.67
2880
3194.82
3459.48
3005.26
3326.42
3888.41
6262.2
8333.08
20572.1
73366.3
91040.9
57039.3
31452.6
14564.8
6089.67
3340.64
2474.53
2152.83
1857.15
1676.67
1493.76
1387.34
1269.81
1215.01
1149.29
1120.03
1065.77
1039.32
1007.81
988.931
957.58
920.377
863.94
803.534
752.31
719.067
697.475
686.696
683.731
683.746
680.841
672.919
664.09
654.476
649.053
642.77
641.973
638.82
645.772
654.424
679.812
727.664
829.384
1287.09
2881.82
6349.98
660.796
1274.69
1665.75
1568.16
1229.12
888.175
646.675
522.2
476.675
467.234
470.431
477.559
485.558
493.766
501.898
510.187
518.585
527.412
536.562
546.493
556.98
568.746
581.28
595.661
610.899
628.8
647.388
669.794
692.13
719.792
745.853
780.429
811.97
858.999
900.023
962.999
1011.02
1101.42
1196.87
1391.18
1591.68
1960.18
2300.9
2908.73
3240.04
3526.62
3055.45
3357.74
3904.66
6287.22
8358.9
20757.5
74426.5
91727.5
57961.4
32112.7
14857.7
6233.47
3416.7
2533.22
2201.44
1905.67
1720.08
1536.35
1424.67
1304.94
1244.88
1175.43
1141.29
1083.38
1053.37
1019.44
998.605
965.978
927.731
870.472
809.348
757.661
724.173
702.492
691.66
688.655
688.61
685.54
677.336
668.143
658.191
652.486
646.007
645.112
641.95
649.161
658.303
685.122
736.077
848.951
1349.18
3053.52
6645.71
662.559
1277.92
1668.85
1570.61
1230.93
889.123
646.839
521.945
476.282
466.83
470.053
477.21
485.232
493.454
501.597
509.892
518.295
527.124
536.277
546.206
556.694
568.46
580.998
595.383
610.631
628.543
647.149
669.579
691.943
719.641
745.723
780.34
811.883
859.005
900.065
963.259
1011.25
1101.92
1197.52
1393.34
1595.38
1968.8
2315.43
2942.01
3292.51
3606.07
3116.6
3397.82
3927.05
6317.93
8390.2
20950.7
75521.5
92451.9
59042.9
32920.8
15231.2
6416.49
3512.01
2605.73
2261.12
1965.07
1773.3
1588.71
1470.7
1348.35
1281.81
1207.75
1167.55
1105.11
1070.65
1033.67
1010.38
976.122
936.562
878.31
816.341
764.105
730.305
708.491
697.564
694.482
694.339
691.068
682.539
672.93
662.583
656.539
649.818
648.782
645.587
653.05
662.712
691.073
745.46
870.724
1417.27
3236.15
6955.68
664.34
1281.09
1671.76
1572.88
1232.63
890.01
646.982
521.69
475.896
466.434
469.684
476.87
484.915
493.153
501.307
509.609
518.018
526.851
536.007
545.938
556.43
568.198
580.744
595.138
610.401
628.332
646.965
669.43
691.832
719.583
745.702
780.384
811.951
859.2
900.326
963.804
1011.82
1102.88
1198.74
1396.31
1600.14
1979.2
2332.56
2980.46
3353.33
3699.94
3190.76
3448.34
3956.8
6355.47
8428.2
21153.4
76652.6
93218.5
60301.8
33900.5
15701.1
6647.5
3631
2695.19
2334.28
2037.74
1838.5
1653.08
1527.43
1402.04
1327.48
1247.71
1199.97
1131.89
1091.9
1051.08
1024.68
988.363
947.155
887.694
824.722
771.827
737.633
715.631
704.56
701.355
701.071
697.558
688.659
678.574
667.77
661.322
654.303
653.08
649.823
657.528
667.743
697.771
755.962
894.978
1491.83
3429.99
7279.2
666.14
1284.18
1674.5
1574.97
1234.2
890.837
647.105
521.436
475.518
466.049
469.326
476.542
484.611
492.865
501.03
509.34
517.757
526.594
535.757
545.691
556.19
567.964
580.523
594.931
610.217
628.175
646.844
669.356
691.809
719.632
745.805
780.58
812.193
859.609
900.837
964.671
1012.78
1104.35
1200.58
1400.18
1606.12
1991.6
2352.66
3024.8
3423.74
3810.78
3280.38
3511.29
3995.38
6401.23
8474.26
21367.4
77821.4
94032.1
61757.7
35079
16286.5
6937.49
3779.29
2805.57
2423.94
2126.66
1918.4
1732.31
1597.44
1468.53
1384.02
1297.19
1240.03
1164.92
1118.02
1072.37
1042.06
1003.13
959.854
898.912
834.737
781.048
746.355
724.099
712.826
709.444
708.969
705.168
695.846
685.22
673.887
666.962
659.582
658.117
654.764
662.699
673.504
705.34
767.752
922.02
1573.36
3635.15
7615.21
667.961
1287.2
1677.06
1576.87
1235.66
891.603
647.21
521.185
475.15
465.675
468.981
476.227
484.319
492.59
500.767
509.087
517.513
526.357
535.528
545.469
555.977
567.763
580.34
594.768
610.083
628.078
646.793
669.366
691.886
719.802
746.05
780.949
812.634
860.263
901.631
965.903
1014.18
1106.41
1203.14
1405.07
1613.46
2006.26
2376.11
3075.84
3505.18
3941.59
3388.45
3589.11
4044.54
6456.83
8529.97
21594.9
79029.1
94897.7
63431.9
36488.1
17010.9
7300.37
3964.04
2941.98
2533.87
2235.62
2016.47
1830.06
1684.03
1551.09
1454.2
1358.61
1289.6
1205.69
1150.13
1098.42
1063.17
1020.95
975.077
912.312
846.682
792.028
756.709
734.116
722.571
718.948
718.222
714.082
704.278
693.036
681.094
673.608
665.796
664.024
660.536
668.688
680.124
713.925
781.025
952.198
1662.35
3851.64
7962.29
669.805
1290.14
1679.42
1578.59
1236.99
892.31
647.299
520.939
474.795
465.315
468.649
475.926
484.044
492.331
500.522
508.852
517.289
526.143
535.325
545.275
555.797
567.599
580.199
594.655
610.008
628.051
646.823
669.474
692.077
720.111
746.457
781.515
813.303
861.195
902.748
967.551
1016.09
1109.14
1206.52
1411.1
1622.34
2023.48
2403.37
3134.52
3599.32
4095.98
3518.6
3684.75
4106.38
6524.19
8597.15
21838.3
80277.1
95820.7
65347.5
38164.7
17902.9
7753.92
4194.52
3110.97
2668.95
2369.47
2137.15
1951.06
1791.49
1654.05
1541.65
1435.1
1351.11
1256.13
1189.68
1130.32
1088.86
1042.46
993.336
928.317
860.913
805.081
768.976
745.945
734.04
730.101
729.055
724.513
714.161
702.222
689.579
681.436
673.109
670.957
667.288
675.64
687.754
723.699
796.011
985.9
1759.29
4079.27
8318.74
671.672
1293.01
1681.59
1580.11
1238.2
892.958
647.374
520.702
474.453
464.971
468.334
475.643
483.786
492.092
500.298
508.639
517.089
525.954
535.15
545.114
555.655
567.478
580.107
594.599
610
628.102
646.945
669.693
692.397
720.577
747.048
782.306
814.232
862.445
904.234
969.67
1018.56
1112.61
1210.81
1418.44
1632.98
2043.59
2434.96
3201.9
3708.11
4278.29
3675.3
3801.78
4183.41
6605.6
8677.92
22100.4
81566.7
96807
67529.8
40151.7
18997.7
8321.06
4482.8
3321.2
2835.42
2534.48
2286.21
2101.55
1925.51
1783.1
1651.17
1530.85
1427.77
1318.76
1238.51
1169.47
1120.15
1068.49
1015.26
947.443
877.862
820.583
783.495
759.896
747.525
743.179
741.73
736.717
725.741
713.01
699.563
690.654
681.717
679.101
675.199
683.729
696.573
734.862
812.974
1023.57
1864.65
4317.75
8682.65
673.565
1295.8
1683.56
1581.43
1239.27
893.549
647.439
520.475
474.129
464.645
468.039
475.379
483.549
491.874
500.096
508.451
516.916
525.796
535.009
544.991
555.554
567.405
580.072
594.61
610.068
628.245
647.174
670.04
692.867
721.223
747.849
783.353
815.457
864.057
906.14
972.323
1021.69
1116.94
1216.16
1427.23
1645.58
2066.96
2471.47
3279.23
3833.83
4493.76
3864.07
3944.65
4278.7
6703.8
8774.75
22383.9
82899.4
97863.1
70006
42499.1
20339.1
9031.57
4844.84
3584.1
3041.5
2738.87
2471.23
2289.78
2093.62
1945.94
1789.19
1651.45
1523.8
1396.85
1299.02
1217.66
1158.36
1100.02
1041.64
970.325
898.057
838.991
800.67
776.345
763.378
758.513
756.56
750.992
739.306
725.676
711.307
701.509
691.853
688.675
684.477
693.16
706.792
747.652
832.224
1065.7
1978.93
4566.65
9052.06
675.485
1298.51
1685.33
1582.54
1240.22
894.085
647.496
520.263
473.825
464.34
467.765
475.139
483.336
491.682
499.922
508.293
516.775
525.673
534.907
544.911
555.504
567.389
580.101
594.696
610.224
628.491
647.524
670.531
693.506
722.075
748.891
784.692
817.021
866.081
908.526
975.583
1025.55
1122.22
1222.68
1437.68
1660.43
2094.01
2513.57
3367.95
3979.13
4748.76
4091.79
4118.84
4395.98
6822.07
8890.51
22692.4
84277
98996.5
72806.4
45264.7
21981
9924.4
5301.93
3915.07
3298.04
2993.54
2702.26
2526.86
2306.02
2153.06
1964.49
1804.51
1644.91
1494.79
1374.35
1277.22
1205.19
1138.35
1073.44
997.749
922.146
860.864
820.995
795.743
782.016
776.497
773.918
767.695
755.199
740.548
725.124
714.292
703.793
699.94
695.374
704.179
718.665
762.352
854.127
1112.88
2102.64
4825.47
9425.05
677.435
1301.14
1686.88
1583.44
1241.04
894.567
647.549
520.07
473.545
464.06
467.517
474.926
483.151
491.519
499.779
508.168
516.671
525.59
534.849
544.882
555.509
567.439
580.206
594.87
610.481
628.857
648.013
671.19
694.34
723.162
750.207
786.364
818.971
868.575
911.459
979.532
1030.25
1128.6
1230.56
1450.01
1677.8
2125.25
2562.04
3469.7
4147.16
5051.01
4367.06
4331.24
4539.86
6964.35
9028.6
23029.6
85701.5
100216
75963.5
48515.4
23990.1
11050.8
5882.74
4335.02
3619.61
3313.05
2992.78
2827.87
2576.66
2418.94
2189.2
2000.55
1798.86
1618.52
1468.7
1351.18
1262.8
1185.1
1111.91
1030.7
950.931
886.887
845.074
818.641
803.949
797.606
794.252
787.252
773.828
758.018
741.384
729.354
717.866
713.207
708.189
717.079
732.493
779.299
879.112
1165.75
2236.3
5093.72
9799.99
679.417
1303.7
1688.22
1584.13
1241.73
894.999
647.603
519.899
473.294
463.81
467.299
474.743
482.999
491.391
499.672
508.082
516.609
525.553
534.843
544.911
555.581
567.563
580.396
595.144
610.854
629.36
648.661
672.038
695.397
724.518
751.837
788.416
821.362
871.604
915.015
984.264
1035.89
1136.2
1239.96
1464.44
1698.05
2161.23
2617.77
3586.46
4341.63
5409.97
4700.75
4590.55
4716.01
7135.45
9193.03
23399.9
87175.5
101531
79513.4
52328.1
26448.7
12478.2
6626.2
4872.71
4025.96
3717.16
3361.1
3213.53
2924.83
2763.86
2480.29
2254.28
1996.45
1776.13
1587.71
1443.58
1334.04
1242.37
1158.6
1070.42
985.419
917.914
873.649
845.712
829.797
822.419
818.101
810.178
795.685
778.553
760.532
747.113
734.469
728.85
723.282
732.212
748.639
798.895
907.692
1225.07
2380.51
5370.99
10175.7
681.433
1306.17
1689.34
1584.6
1242.29
895.385
647.663
519.757
473.075
463.593
467.116
474.596
482.884
491.302
499.608
508.042
516.596
525.571
534.897
545.006
555.728
567.774
580.685
595.532
611.359
630.02
649.492
673.104
696.707
726.179
753.824
790.9
824.256
875.243
919.281
989.885
1042.61
1145.2
1251.09
1481.28
1721.56
2202.6
2681.82
3720.52
4566.95
5837.21
5106.62
4907.83
4931.57
7341.21
9388.58
23808.3
88702
102953
83495.5
56790.6
29457.9
14295.6
7585.52
5568.11
4544.26
4232.9
3832.35
3712.59
3377.54
3216.51
2861.89
2586.64
2252.86
1978.95
1739.12
1559.89
1422.67
1312.89
1215.56
1118.48
1026.88
955.011
907.647
877.79
860.322
851.642
846.126
837.093
821.363
802.721
783.105
768.076
754.08
747.322
741.088
750.004
767.541
821.625
940.48
1291.75
2535.99
5657.1
10551.6
683.486
1308.56
1690.24
1584.84
1242.72
895.727
647.736
519.65
472.895
463.414
466.972
474.491
482.813
491.26
499.592
508.054
516.64
525.651
535.02
545.179
555.961
568.084
581.087
596.052
612.017
630.858
650.531
674.418
698.307
728.188
756.219
793.877
827.722
879.575
924.357
996.514
1050.56
1155.78
1264.18
1500.83
1748.77
2250.11
2755.4
3874.59
4828.4
6346.94
5602.25
5297.32
5195.51
7588.8
9620.97
24260.5
90285.1
104496
87953.3
62002.5
33140.4
16619.9
8833.76
6477.24
5212.23
4897.65
4441.35
4365.35
3973
3817.99
3368.7
3027.85
2589.8
2242.96
1933.69
1707.56
1533.75
1400.29
1285.41
1176.93
1076.92
999.531
948.228
915.914
896.469
886.148
879.134
868.758
851.585
831.208
809.757
792.856
777.279
769.17
762.135
770.971
789.73
848.078
978.213
1366.83
2703.61
5952.22
10928.1
685.579
1310.87
1690.9
1584.86
1243.01
896.032
647.829
519.584
472.761
463.281
466.874
474.434
482.792
491.27
499.633
508.127
516.75
525.803
535.221
545.44
556.294
568.507
581.619
596.723
612.849
631.902
651.809
676.015
700.238
730.595
759.078
797.414
831.841
884.697
930.355
1004.29
1059.89
1168.14
1279.5
1523.48
1780.2
2304.64
2839.96
4051.9
5132.28
6956.58
6210.11
5777.46
5519.26
7887.13
9897.12
24763
91929.4
106177
92935.3
68075.6
37643.9
19603.2
10471.2
7679.03
6082.82
5763.53
5236.73
5228.62
4765.7
4627.62
4051.18
3622.04
3038.74
2591.1
2186.62
1896.92
1674.16
1509.4
1371.62
1248.4
1137.64
1053.2
996.864
961.393
939.424
927.024
918.127
906.109
887.236
864.857
841.284
822.205
804.776
795.065
787.066
795.744
815.855
878.972
1021.79
1451.57
2884.5
6257.07
11306.8
687.715
1313.1
1691.33
1584.64
1243.18
896.306
647.95
519.569
472.679
463.201
466.83
474.432
482.829
491.342
499.739
508.269
516.935
526.037
535.514
545.803
556.742
569.061
582.3
597.566
613.88
633.179
653.358
677.936
702.546
733.453
762.465
801.587
836.703
890.715
937.401
1013.36
1070.79
1182.53
1297.36
1549.63
1816.45
2367.23
2937.17
4256.34
5486.25
7687.53
6959.05
6372.35
5917.49
8247.28
10225.4
25323.6
93641.1
108015
98495.6
75134.1
43143.3
23440.9
12635.2
9284.86
7230.92
6903.67
6286.88
6382.81
5833.81
5731.38
4983.36
4434.35
3646
3056.83
2519.69
2142.54
1853.38
1646.78
1478.82
1336.39
1211.75
1118.24
1055.44
1015.89
990.681
975.634
964.354
950.309
929.414
904.705
878.67
857.045
837.441
825.83
816.676
825.099
846.713
915.188
1072.31
1547.48
3080.14
6573.1
11690.7
689.897
1315.25
1691.53
1584.19
1243.21
896.556
648.109
519.614
472.659
463.181
466.847
474.494
482.933
491.484
499.92
508.492
517.207
526.366
535.911
546.282
557.32
569.764
583.151
598.606
615.138