/*--------------------------------*- C++ -*----------------------------------*\
| =========                 |                                                 |
| \\      /  F ield         | OpenFOAM: The Open Source CFD Toolbox           |
|  \\    /   O peration     | Version:  2412                                  |
|   \\  /    A nd           | Website:  www.openfoam.com                      |
|    \\/     M anipulation  |                                                 |
\*---------------------------------------------------------------------------*/
FoamFile
{
    version     2.0;
    format      ascii;
    arch        "LSB;label=32;scalar=64";
    class       volScalarField;
    location    "0.2";
    object      k;
}
// * * * * * * * * * * * * * * * * * * * * * * * * * * * * * * * * * * * * * //

dimensions      [0 2 -2 0 0 0 0];

internalField   nonuniform List<scalar> 
13077
(
48.8358
68.6577
76.8709
70.0805
58.4614
49.3664
44.4299
42.5719
42.2345
42.4317
42.7601
43.1244
43.4894
43.8602
44.2288
44.6097
44.996
45.4062
45.8299
46.2933
46.7776
47.3221
47.8914
48.5443
49.2202
50.0126
50.8133
51.7756
52.7074
53.864
54.931
56.3503
57.6166
59.4626
61.0206
63.3754
65.2258
68.549
71.8108
48.8842
68.7653
76.9972
70.1849
58.5234
49.3831
44.4167
42.5475
42.2089
42.4079
42.7384
43.1043
43.4706
43.8422
44.2111
44.5921
44.9783
45.3882
45.8115
46.2742
46.7577
47.3012
47.8695
48.5212
49.1959
49.9868
50.7862
51.7467
52.6765
53.8306
54.8945
56.3099
57.5719
59.4135
60.966
63.3131
65.1507
68.4597
71.7107
77.5947
83.032
92.0991
99.0902
109.789
113.482
117.313
110.982
122.53
134.188
170.155
195.095
285.474
537.641
623.729
501.207
307.928
193.701
130.631
106.776
94.5692
89.4558
81.9133
78.2491
73.062
70.8917
67.4778
66.5834
64.8406
64.5613
48.9325
68.8715
77.1214
70.2873
58.5845
49.3996
44.4036
42.5234
42.1835
42.3843
42.7169
43.0845
43.452
43.8243
44.1937
44.5747
44.9609
45.3704
45.7932
46.2552
46.738
47.2805
47.8479
48.4983
49.1719
49.9613
50.7592
51.7179
52.646
53.7974
54.8582
56.2698
57.5274
59.3646
60.9116
63.251
65.0756
68.3703
71.6104
77.4897
82.9318
92.0115
99.0281
109.765
113.489
117.275
110.831
122.323
134.061
170.262
195.476
287.666
543.187
628.322
502.17
308.345
194.09
130.847
106.84
94.5905
89.4481
81.887
78.2069
73.0161
70.8428
67.4308
66.5431
64.8065
64.5351
63.09
62.7012
61.839
61.3825
60.338
59.1004
57.1683
55.1418
53.3716
52.161
51.3034
50.8478
50.6737
50.5999
50.4537
50.159
49.8792
49.5355
49.3529
49.0695
49.0032
48.7862
48.9091
49.0085
49.3928
50.2047
50.4083
52.4741
54.2184
63.6022
48.981
68.9767
77.2431
70.387
58.6437
49.4154
44.3902
42.4992
42.1582
42.3609
42.6955
43.0647
43.4334
43.8065
44.1763
44.5574
44.9435
45.3527
45.775
46.2363
46.7183
47.2598
47.8262
48.4755
49.1479
49.9358
50.7323
51.6893
52.6154
53.7643
54.822
56.2297
57.4829
59.3158
60.8572
63.1889
65.0004
68.2806
71.5094
77.3846
82.831
91.9229
98.9649
109.741
113.496
117.236
110.677
122.111
133.925
170.36
195.833
289.802
548.637
632.751
502.873
308.624
194.402
131.024
106.886
94.5997
89.4311
81.8541
78.1597
72.9663
70.7905
67.3809
66.5004
64.7704
64.5072
63.065
62.6821
61.8244
61.3725
60.3303
59.091
57.1504
55.1131
53.338
52.1283
51.2743
50.8248
50.6587
50.5922
50.4498
50.1564
49.8773
49.5353
49.3559
49.076
49.0154
48.8028
48.9369
49.0468
49.4568
50.2979
50.5444
52.7116
54.7298
64.7756
49.0297
69.081
77.3622
70.4836
58.7006
49.43
44.3766
42.4751
42.133
42.3375
42.6742
43.0451
43.4149
43.7887
44.1589
44.5401
44.9261
45.3349
45.7568
46.2174
46.6986
47.2391
47.8046
48.4527
49.1239
49.9104
50.7055
51.6606
52.5849
53.7312
54.7858
56.1895
57.4384
59.2668
60.8028
63.1266
64.9248
68.1904
71.4079
77.2789
82.7289
91.8324
98.8999
109.715
113.501
117.195
110.519
121.891
133.778
170.446
196.162
291.878
553.991
637.02
503.331
308.77
194.637
131.162
106.913
94.5958
89.4041
81.8138
78.1071
72.9122
70.7344
67.3278
66.455
64.7321
64.4771
63.0386
62.6618
61.809
61.3616
60.3219
59.081
57.1319
55.0839
53.3038
52.0951
51.2447
50.8016
50.6434
50.5845
50.4459
50.1538
49.8754
49.5351
49.359
49.0827
49.0277
48.8196
48.9651
49.0855
49.5214
50.3919
50.6824
52.9534
55.2604
65.8984
49.0788
69.1844
77.4785
70.577
58.7554
49.4436
44.3624
42.4509
42.1079
42.3142
42.6529
43.0254
43.3964
43.7709
44.1415
44.5228
44.9087
45.3172
45.7386
46.1984
46.679
47.2185
47.783
48.4298
49.0999
49.8849
50.6786
51.632
52.5544
53.6981
54.7496
56.1494
57.3939
59.2178
60.7483
63.0643
64.8491
68.0998
71.3058
77.1726
82.6255
91.74
98.8326
109.688
113.504
117.15
110.357
121.664
133.621
170.52
196.463
293.892
559.256
641.139
503.564
308.794
194.799
131.261
106.922
94.5789
89.3669
81.7662
78.049
72.8539
70.6747
67.2715
66.4069
64.6915
64.4449
63.0105
62.6401
61.7923
61.3497
60.3126
59.0701
57.1127
55.0539
53.2688
52.0612
51.2146
50.7778
50.6278
50.5764
50.4418
50.151
49.8733
49.5347
49.362
49.0893
49.04
48.8364
48.9933
49.1244
49.5866
50.4865
50.8219
53.1995
55.8089
66.9622
49.1282
69.2868
77.5921
70.6671
58.8078
49.4559
44.3479
42.4266
42.0828
42.291
42.6317
43.0058
43.378
43.7532
44.1241
44.5055
44.8913
45.2994
45.7204
46.1795
46.6593
47.1978
47.7614
48.407
49.076
49.8595
50.6518
51.6034
52.524
53.6651
54.7135
56.1093
57.3494
59.1689
60.6938
63.0021
64.7733
68.009
71.2032
77.0657
82.5208
91.6457
98.7633
109.66
113.506
117.102
110.19
121.429
133.452
170.581
196.734
295.843
564.439
645.119
503.594
308.708
194.892
131.322
106.912
94.5489
89.3196
81.7115
77.9858
72.7916
70.6115
67.2122
66.3563
64.6487
64.4106
62.9805
62.6168
61.7742
61.3366
60.3022
59.0584
57.0926
55.0231
53.2331
52.0266
51.1838
50.7535
50.6118
50.5681
50.4374
50.148
49.871
49.5342
49.3648
49.0958
49.0523
48.8532
49.0215
49.1634
49.6522
50.5815
50.9629
53.45
56.3741
67.9623
49.1781
69.3881
77.7028
70.7542
58.8579
49.4669
44.3328
42.4022
42.0577
42.2678
42.6105
42.9863
43.3596
43.7354
44.1067
44.4882
44.8739
45.2817
45.7022
46.1606
46.6396
47.1772
47.7399
48.3843
49.0521
49.8341
50.6251
51.5749
52.4937
53.6321
54.6775
56.0693
57.305
59.1201
60.6395
62.94
64.6976
67.9182
71.1004
76.9583
82.415
91.5497
98.6919
109.629
113.507
117.052
110.019
121.187
133.272
170.629
196.975
297.731
569.551
648.969
503.446
308.527
194.921
131.348
106.884
94.5064
89.2627
81.6502
77.9177
72.7257
70.545
67.1503
66.3034
64.6039
64.3744
62.9489
62.592
61.755
61.3224
60.291
59.0459
57.0717
54.9915
53.1966
51.9914
51.1524
50.7287
50.5953
50.5595
50.4328
50.1448
49.8686
49.5336
49.3676
49.1023
49.0645
48.87
49.0499
49.2025
49.7182
50.677
51.1054
53.7056
56.9549
68.8966
49.2283
69.4883
77.8105
70.838
58.9059
49.4768
44.3173
42.3777
42.0327
42.2447
42.5894
42.9668
43.3412
43.7177
44.0894
44.4709
44.8565
45.264
45.684
46.1418
46.6201
47.1567
47.7184
48.3616
49.0283
49.8089
50.5985
51.5465
52.4636
53.5994
54.6417
56.0295
57.2608
59.0715
60.5855
62.8782
64.622
67.8273
70.9974
76.8507
82.3082
91.4521
98.6186
109.598
113.506
117.001
109.845
120.939
133.08
170.664
197.186
299.558
574.6
652.702
503.146
308.265
194.893
131.339
106.839
94.4519
89.1965
81.5827
77.8452
72.6566
70.4757
67.086
66.2484
64.5573
64.3365
62.9158
62.5658
61.7345
61.3072
60.2789
59.0326
57.0503
54.9594
53.1596
51.9556
51.1206
50.7035
50.5786
50.5506
50.428
50.1414
49.8659
49.5328
49.3702
49.1087
49.0767
48.8868
49.0784
49.2418
49.7846
50.7729
51.2493
53.9665
57.5501
69.7654
49.2788
69.5873
77.9153
70.9187
58.9515
49.4855
44.3013
42.3532
42.0078
42.2217
42.5684
42.9473
43.3228
43.7001
44.0721
44.4536
44.8391
45.2463
45.6659
46.123
46.6005
47.1362
47.6971
48.3391
49.0047
49.7838
50.5721
51.5183
52.4336
53.5669
54.6061
55.99
57.2169
59.0232
60.5317
62.8168
64.5466
67.7367
70.8943
76.7428
82.2004
91.353
98.5436
109.566
113.505
116.948
109.669
120.684
132.877
170.686
197.367
301.324
579.599
656.329
502.722
307.938
194.813
131.3
106.779
94.386
89.1217
81.5095
77.7687
72.5848
70.4038
67.0197
66.1916
64.5093
64.2971
62.8813
62.5385
61.7131
61.2912
60.266
59.0188
57.0283
54.9268
53.1222
51.9195
51.0884
50.678
50.5616
50.5416
50.4231
50.1379
49.8632
49.5319
49.3728
49.1151
49.089
48.9037
49.107
49.2812
49.8514
50.8692
51.3948
54.2335
58.1585
70.571
49.3298
69.685
78.0169
70.9962
58.995
49.493
44.2848
42.3286
41.9829
42.1987
42.5474
42.9279
43.3045
43.6824
44.0548
44.4364
44.8218
45.2287
45.6479
46.1042
46.5811
47.1158
47.6758
48.3167
48.9812
49.7589
50.5459
51.4904
52.4039
53.5346
54.5709
55.9508
57.1733
58.9753
60.4783
62.7558
64.4717
67.6463
70.7912
76.6349
82.0919
91.2525
98.467
109.532
113.503
116.894
109.49
120.423
132.663
170.695
197.518
303.031
584.559
659.862
502.203
307.563
194.689
131.233
106.704
94.3096
89.0388
81.4314
77.6889
72.5107
70.3299
66.9518
66.1333
64.4599
64.2563
62.8456
62.51
61.6908
61.2744
60.2526
59.0045
57.006
54.894
53.0844
51.883
51.056
50.6522
50.5443
50.5324
50.4181
50.1344
49.8605
49.5311
49.3755
49.1216
49.1013
48.9208
49.1357
49.3209
49.9186
50.9657
51.542
54.5071
58.7789
71.3174
49.3811
69.7814
78.1155
71.0705
59.0364
49.4993
44.2679
42.3039
41.9581
42.1758
42.5265
42.9085
43.2863
43.6648
44.0376
44.4192
44.8046
45.2111
45.6299
46.0856
46.5618
47.0956
47.6547
48.2944
48.9579
49.7342
50.52
51.4627
52.3745
53.5026
54.5359
55.9119
57.1301
58.9278
60.4254
62.6954
64.3971
67.5563
70.6883
76.527
81.9826
91.1508
98.3888
109.498
113.502
116.84
109.311
120.156
132.438
170.691
197.64
304.68
589.491
663.312
501.618
307.157
194.528
131.141
106.615
94.2235
88.9486
81.349
77.6062
72.4349
70.2544
66.8828
66.0738
64.4096
64.2144
62.8089
62.4806
61.6678
61.2569
60.2388
58.9899
56.9835
54.861
53.0466
51.8464
51.0234
50.6263
50.527
50.5231
50.4131
50.1309
49.8578
49.5303
49.3781
49.1282
49.1138
48.9379
49.1646
49.3608
49.9861
51.0625
51.6908
54.788
59.4103
72.0102
49.4328
69.8763
78.2109
71.1417
59.0755
49.5044
44.2506
42.2792
41.9333
42.153
42.5057
42.8892
43.2681
43.6473
44.0204
44.4021
44.7874
45.1936
45.612
46.067
46.5425
47.0754
47.6338
48.2723
48.9349
49.7098
50.4943
51.4352
52.3454
53.471
54.5013
55.8734
57.0873
58.8807
60.3729
62.6355
64.3231
67.4667
70.5855
76.4192
81.8726
91.0479
98.309
109.463
113.5
116.787
109.132
119.885
132.203
170.673
197.733
306.274
594.406
666.689
500.999
306.74
194.339
131.029
106.515
94.1289
88.8519
81.2631
77.5213
72.3581
70.1778
66.813
66.0133
64.3585
64.1715
62.7714
62.4505
61.6442
61.2391
60.2246
58.9751
56.9609
54.8281
53.0087
51.8098
50.9907
50.6003
50.5096
50.5139
50.4082
50.1275
49.8552
49.5296
49.3809
49.1349
49.1263
48.9553
49.1937
49.4008
50.0539
51.1594
51.8415
55.077
60.0518
72.6563
49.4849
69.9697
78.303
71.2096
59.1125
49.5084
44.2328
42.2545
41.9086
42.1303
42.4849
42.87
43.2499
43.6298
44.0032
44.385
44.7702
45.1761
45.5942
46.0486
46.5234
47.0554
47.613
48.2504
48.912
49.6855
50.4688
51.4081
52.3166
53.4397
54.4671
55.8353
57.0449
58.834
60.321
62.5763
64.2496
67.3777
70.4828
76.3114
81.762
90.9437
98.2277
109.428
113.499
116.734
108.953
119.609
131.957
170.642
197.799
307.815
599.316
670.003
500.375
306.329
194.131
130.9
106.406
94.0269
88.7495
81.1746
77.4348
72.2807
70.1004
66.743
65.9524
64.307
64.128
62.7334
62.4197
61.6202
61.2209
60.2102
58.9603
56.9384
54.7953
52.971
51.7733
50.9581
50.5743
50.4921
50.5047
50.4034
50.1243
49.8527
49.529
49.3838
49.1418
49.1391
48.9728
49.223
49.441
50.122
51.2563
51.9942
55.3748
60.7025
73.2631
49.5374
70.0616
78.3918
71.2743
59.1474
49.5113
44.2146
42.2297
41.884
42.1076
42.4642
42.8509
43.2319
43.6123
43.9861
44.368
44.7532
45.1588
45.5764
46.0302
46.5045
47.0356
47.5923
48.2287
48.8893
49.6615
50.4437
51.3813
52.2882
53.4088
54.4333
55.7976
57.0029
58.7879
60.2696
62.5178
64.1767
67.2893
70.3803
76.2037
81.6505
90.8383
98.1448
109.392
113.499
116.684
108.776
119.329
131.702
170.598
197.837
309.305
604.231
673.264
499.78
305.946
193.912
130.759
106.289
93.9188
88.6424
81.0842
77.3474
72.2035
70.023
66.6733
65.8912
64.2553
64.0841
62.6951
62.3885
61.5959
61.2025
60.1958
58.9456
56.9162
54.7629
52.9336
51.737
50.9256
50.5484
50.4747
50.4955
50.3986
50.1212
49.8503
49.5286
49.3869
49.1489
49.1519
48.9904
49.2524
49.4812
50.1902
51.3532
52.1489
55.6822
61.3618
73.8386
49.5902
70.1519
78.4771
71.3358
59.18
49.513
44.196
42.2048
41.8594
42.0851
42.4436
42.8318
43.2139
43.5949
43.9691
44.351
44.7362
45.1415
45.5588
46.012
46.4856
47.0159
47.5719
48.2072
48.8669
49.6378
50.4188
51.3548
52.2601
53.3783
54.3999
55.7604
56.9614
58.7423
60.2187
62.46
64.1044
67.2014
70.2779
76.096
81.5383
90.7316
98.0603
109.355
113.501
116.637
108.602
119.046
131.437
170.54
197.85
310.747
609.159
676.48
499.245
305.61
193.694
130.611
106.166
93.806
88.5316
80.9931
77.2599
72.1272
69.946
66.6044
65.8302
64.2039
64.04
62.6567
62.3571
61.5716
61.1841
60.1815
58.9311
56.8943
54.7309
52.8967
51.701
50.8934
50.5226
50.4574
50.4865
50.3941
50.1184
49.8482
49.5285
49.3901
49.1561
49.165
49.0082
49.2819
49.5216
50.2585
51.4499
52.306
56
62.0294
74.3912
49.6436
70.2406
78.559
71.3939
59.2106
49.5136
44.1769
42.18
41.835
42.0626
42.4231
42.8128
43.1959
43.5776
43.9521
44.3341
44.7193
45.1243
45.5413
45.9939
46.4669
46.9964
47.5516
48.1859
48.8447
49.6143
50.3942
51.3285
52.2323
53.3481
54.3669
55.7236
56.9202
58.6972
60.1683
62.4028
64.0326
67.1141
70.1756
75.9882
81.4251
90.6235
97.9741
109.317
113.503
116.593
108.433
118.76
131.162
170.469
197.839
312.144
614.11
679.659
498.802
305.345
193.488
130.462
106.04
93.69
88.4183
80.9023
77.173
72.0527
69.87
66.5369
65.7698
64.153
63.9959
62.6184
62.3257
61.5472
61.1659
60.1674
58.9169
56.873
54.6997
52.8604
51.6655
50.8615
50.4971
50.4403
50.4777
50.3899
50.1158
49.8464
49.5285
49.3936
49.1636
49.1781
49.0262
49.3115
49.5619
50.3266
51.5462
52.4655
56.3291
62.7051
74.9288
49.6973
70.3275
78.6373
71.4486
59.239
49.5131
44.1575
42.1551
41.8106
42.0402
42.4026
42.7938
43.178
43.5604
43.9352
44.3173
44.7024
45.1072
45.5239
45.9759
46.4484
46.977
47.5316
48.1648
48.8228
49.5911
50.3699
51.3026
52.2049
53.3183
54.3343
55.6872
56.8796
58.6525
60.1183
62.3463
63.9614
67.0274
70.0734
75.8802
81.3109
90.5138
97.8859
109.278
113.508
116.554
108.269
118.473
130.878
170.383
197.803
313.499
619.09
682.807
498.482
305.172
193.304
130.316
105.914
93.5725
88.3036
80.8128
77.0876
71.9806
69.7957
66.4714
65.7103
64.103
63.9521
62.5805
62.2943
61.5232
61.1478
60.1537
58.9033
56.8523
54.6693
52.8248
51.6306
50.8301
50.4719
50.4233
50.469
50.3859
50.1136
49.8449
49.5289
49.3973
49.1713
49.1915
49.0443
49.3411
49.6021
50.3946
51.6422
52.6279
56.6701
63.3888
75.459
49.7516
70.4128
78.712
71.5
59.2652
49.5114
44.1378
42.1302
41.7863
42.0179
42.3823
42.775
43.1602
43.5432
43.9184
44.3006
44.6857
45.0902
45.5066
45.958
46.4299
46.9578
47.5117
48.1439
48.801
49.5681
50.3458
51.277
52.1778
53.2889
54.302
55.6513
56.8392
58.6083
60.0689
62.2904
63.8908
66.9412
69.9711
75.772
81.1956
90.4024
97.7956
109.238
113.514
116.52
108.112
118.185
130.587
170.284
197.746
314.813
624.106
685.929
498.318
305.115
193.157
130.181
105.79
93.4553
88.1889
80.7259
77.0046
71.9119
69.7237
66.4086
65.6523
64.0542
63.9089
62.5433
62.2634
61.4995
61.1302
60.1406
58.8903
56.8325
54.6399
52.7903
51.5965
50.7992
50.447
50.4067
50.4606
50.3822
50.1118
49.8437
49.5296
49.4012
49.1792
49.2049
49.0625
49.3706
49.6421
50.4622
51.7375
52.7932
57.0239
64.0805
75.9884
49.8063
70.4962
78.7829
71.5478
59.2892
49.5087
44.1176
42.1053
41.7621
41.9957
42.362
42.7562
43.1425
43.526
43.9016
44.2839
44.669
45.0733
45.4894
45.9403
46.4116
46.9387
47.4919
48.1232
48.7795
49.5453
50.322
51.2517
52.1509
53.2597
54.2701
55.6156
56.7992
58.5645
60.0197
62.2351
63.8206
66.8556
69.8686
75.6633
81.0788
90.2891
97.703
109.196
113.523
116.492
107.964
117.897
130.287
170.17
197.667
316.091
629.161
689.028
498.339
305.197
193.059
130.063
105.672
93.3404
88.0755
80.6428
76.9249
71.8475
69.6549
66.3492
65.5961
64.0072
63.8666
62.5072
62.2329
61.4765
61.1132
60.1281
58.8781
56.8136
54.6117
52.7568
51.5633
50.769
50.4227
50.3903
50.4525
50.3789
50.1105
49.843
49.5307
49.4054
49.1873
49.2185
49.0807
49.4001
49.6817
50.5294
51.8322
52.9619
57.391
64.7802
76.5227
49.8616
70.5778
78.85
71.5921
59.3109
49.5049
44.0971
42.0805
41.738
41.9736
42.3418
42.7375
43.1248
43.509
43.8849
44.2672
44.6524
45.0565
45.4723
45.9226
46.3935
46.9198
47.4723
48.1026
48.7581
49.5228
50.2984
51.2266
52.1243
53.2309
54.2384
55.5804
56.7595
58.521
59.9709
62.1804
63.7509
66.7704
69.7659
75.5539
80.9605
90.1735
97.6079
109.153
113.535
116.473
107.826
117.611
129.98
170.041
197.569
317.334
634.258
692.108
498.576
305.445
193.026
129.97
105.562
93.2301
87.965
80.5651
76.8497
71.7886
69.5899
66.294
65.5424
63.9624
63.8255
62.4723
62.2033
61.4543
61.097
60.1165
58.8669
56.796
54.585
52.7246
51.5311
50.7396
50.3989
50.3742
50.4448
50.376
50.1096
49.8427
49.5321
49.4098
49.1956
49.2321
49.0989
49.4293
49.721
50.5958
51.926
53.1342
57.7718
65.4876
77.0663
49.9174
70.6576
78.9131
71.6328
59.3305
49.5
44.0763
42.0556
41.714
41.9516
42.3217
42.7189
43.1072
43.492
43.8682
44.2507
44.6358
45.0397
45.4553
45.9051
46.3754
46.901
47.4529
48.0822
48.7369
49.5004
50.275
51.2017
52.0979
53.2023
54.207
55.5453
56.72
58.4779
59.9223
62.1261
63.6816
66.6857
69.6628
75.4438
80.8404
90.0554
97.5098
109.108
113.549
116.462
107.7
117.327
129.667
169.898
197.453
318.546
639.397
695.168
499.056
305.886
193.074
129.91
105.465
93.1266
87.859
80.4941
76.78
71.7362
69.5297
66.2438
65.4916
63.9201
63.786
62.4391
62.1747
61.4331
61.0817
60.1059
58.8568
56.7798
54.5598
52.6939
51.5001
50.7112
50.3757
50.3586
50.4373
50.3736
50.1094
49.843
49.5341
49.4146
49.2042
49.2457
49.1171
49.4582
49.7598
50.6615
52.019
53.3105
58.1667
66.2024
77.6218
49.9738
70.7354
78.9723
71.6698
59.3478
49.4941
44.0552
42.0309
41.6901
41.9297
42.3017
42.7003
43.0897
43.475
43.8516
44.2342
44.6193
45.023
45.4383
45.8876
46.3574
46.8823
47.4336
48.062
48.7159
49.4782
50.2517
51.177
52.0717
53.1739
54.1757
55.5106
56.6807
58.4349
59.8738
62.0723
63.6126
66.6013
69.5593
75.3326
80.7183
89.9345
97.4086
109.06
113.567
116.461
107.588
117.047
129.349
169.739
197.32
319.728
644.578
698.208
499.808
306.546
193.22
129.893
105.385
93.0326
87.7592
80.4316
76.7171
71.6918
69.4752
66.1998
65.4445
63.8811
63.7483
62.4079
62.1474
61.4132
61.0676
60.0966
58.8481
56.7652
54.5365
52.665
51.4704
50.6837
50.3532
50.3433
50.4303
50.3718
50.1098
49.8439
49.5366
49.4197
49.213
49.2594
49.1352
49.4867
49.7978
50.7261
52.1109
53.4911
58.5755
66.9236
78.1901
50.0308
70.8113
79.0273
71.703
59.3628
49.4871
44.0338
42.0061
41.6664
41.9079
42.2818
42.6819
43.0722
43.4581
43.835
44.2177
44.6029
45.0064
45.4214
45.8702
46.3396
46.8637
47.4144
48.0418
48.695
49.4562
50.2286
51.1524
52.0456
53.1456
54.1446
55.476
56.6414
58.3921
59.8254
62.0187
63.5438
66.5172
69.4552
75.2202
80.594
89.8104
97.3039
109.01
113.587
116.472
107.492
116.772
129.026
169.565
197.171
320.882
649.795
701.225
500.857
307.455
193.486
129.928
105.326
92.951
87.6676
80.3794
76.6625
71.6566
69.4276
66.1629
65.4017
63.846
63.7129
62.3793
62.1217
61.3949
61.0549
60.0889
58.8409
56.7526
54.5153
52.6379
51.4422
50.6574
50.3315
50.3286
50.4237
50.3705
50.111
49.8455
49.5396
49.4252
49.222
49.2731
49.1532
49.5148
49.8351
50.7895
52.2017
53.6762
58.9978
67.6497
78.7702
50.0886
70.8853
79.0781
71.7324
59.3755
49.479
44.0121
41.9815
41.6428
41.8863
42.262
42.6635
43.0548
43.4413
43.8185
44.2013
44.5865
44.9898
45.4046
45.8529
46.3218
46.8452
47.3952
48.0218
48.6741
49.4342
50.2056
51.128
52.0196
53.1175
54.1135
55.4415
56.6022
58.3494
59.777
61.9654
63.4752
66.4333
69.3505
75.1064
80.4672
89.6828
97.1953
108.956
113.612
116.496
107.415
116.504
128.701
169.375
197.009
322.011
655.044
704.214
502.228
308.644
193.892
130.027
105.293
92.8851
87.5862
80.3395
76.6177
71.6325
69.3882
66.1345
65.3641
63.8154
63.6804
62.3535
62.098
61.3785
61.0439
60.0829
58.8357
56.7421
54.4965
52.613
51.4158
50.6324
50.3107
50.3145
50.4176
50.3699
50.113
49.8479
49.5434
49.4311
49.2314
49.2869
49.171
49.5423
49.8715
50.8517
52.2913
53.8662
59.4329
68.3784
79.3588
50.147
70.9572
79.1246
71.7577
59.3858
49.4699
43.9901
41.9569
41.6193
41.8647
42.2423
42.6452
43.0375
43.4246
43.8021
44.185
44.5702
44.9733
45.3879
45.8357
46.304
46.8267
47.3762
48.0018
48.6534
49.4123
50.1826
51.1035
51.9936
53.0894
54.0824
55.407
56.5629
58.3066
59.7284
61.9122
63.4067
66.3496
69.2451
74.991
80.3377
89.5513
97.0824
108.898
113.64
116.536
107.359
116.245
128.373
169.17
196.833
323.116
660.317
707.17
503.942
310.146
194.464
130.204
105.294
92.8387
87.5176
80.3142
76.5847
71.6214
69.3585
66.1162
65.3327
63.7904
63.6513
62.3313
62.0767
61.3644
61.0349
60.0791
58.8326
56.734
54.4804
52.5906
51.3913
50.6089
50.2909
50.3009
50.4121
50.37
50.116
49.8512
49.548
49.4375
49.2411
49.3006
49.1887
49.5691
49.907
50.9123
52.3797
54.0613
59.8794
69.1063
79.9507
50.2062
71.0272
79.1666
71.7791
59.3937
49.4598
43.968
41.9325
41.596
41.8433
42.2228
42.627
43.0203
43.4079
43.7857
44.1687
44.5539
44.9569
45.3712
45.8185
46.2863
46.8083
47.3571
47.9819
48.6326
49.3904
50.1596
51.0792
51.9676
53.0613
54.0513
55.3726
56.5235
58.2638
59.6796
61.8591
63.3382
66.2661
69.139
74.8737
80.2052
89.4155
96.9648
108.836
113.673
116.593
107.328
115.997
128.045
168.949
196.647
324.198
665.604
710.083
506.021
311.996
195.229
130.474
105.334
92.8161
87.4643
80.3062
76.5654
71.6254
69.3403
66.1097
65.3089
63.7718
63.6261
62.3133
62.0582
61.3529
61.0282
60.0778
58.832
56.7289
54.4673
52.571
51.369
50.5871
50.2722
50.288
50.4071
50.3709
50.1201
49.8556
49.5535
49.4446
49.2513
49.3144
49.2062
49.5953
49.9413
50.9714
52.4668
54.2616
60.3354
69.8293
80.5387
50.2663
71.095
79.2041
71.7963
59.3993
49.4486
43.9456
41.9081
41.5728
41.822
42.2033
42.6089
43.0031
43.3912
43.7694
44.1524
44.5377
44.9404
45.3545
45.8013
46.2687
46.79
47.3381
47.9619
48.6119
49.3685
50.1366
51.0547
51.9415
53.0332
54.0201
55.338
56.4839
58.2208
59.6305
61.806
63.2699
66.1826
69.0321
74.7544
80.0697
89.2749
96.8421
108.769
113.71
116.67
107.324
115.762
127.719
168.712
196.45
325.257
670.893
712.943
508.481
314.231
196.221
130.854
105.422
92.8227
87.4296
80.3187
76.5627
71.6476
69.3358
66.1173
65.2942
63.7611
63.6059
62.3002
62.0431
61.3446
61.0244
60.0795
58.8344
56.7272
54.4577
52.5544
51.3491
50.5671
50.2548
50.2759
50.4028
50.3728
50.1254
49.8613
49.5601
49.4524
49.2619
49.3283
49.2237
49.6208
49.9745
51.0286
52.5526
54.4672
60.7984
70.5416
81.1134
50.3272
71.1608
79.2369
71.8092
59.4023
49.4365
43.9231
41.884
41.5498
41.8009
42.1839
42.5909
42.986
43.3746
43.7531
44.1362
44.5215
44.924
45.3379
45.7842
46.251
46.7716
47.3191
47.942
48.5911
49.3466
50.1135
51.0302
51.9152
53.0049
53.9886
55.3034
56.444
58.1776
59.5811
61.7529
63.2015
66.0991
68.9244
74.6329
79.931
89.1291
96.7138
108.696
113.751
116.77
107.351
115.541
127.397
168.459
196.244
326.295
676.171
715.741
511.338
316.89
197.475
131.368
105.569
92.8647
87.4172
80.3553
76.5796
71.6912
69.3478
66.1419
65.2905
63.7599
63.5916
62.2929
62.032
61.3402
61.0239
60.0847
58.8403
56.7292
54.4521
52.5414
51.332
50.5492
50.2388
50.2647
50.3992
50.3758
50.1322
49.8684
49.5681
49.4612
49.2733
49.3424
49.241
49.6455
50.0064
51.084
52.637
54.6779
61.2651
71.2367
81.6641
50.3891
71.2244
79.2649
71.8177
59.4029
49.4233
43.9004
41.86
41.527
41.7798
42.1646
42.573
42.969
43.3581
43.7368
44.12
44.5053
44.9077
45.3212
45.767
46.2334
46.7532
47.3001
47.922
48.5702
49.3246
50.0903
51.0056
51.8888
52.9766
53.957
55.2686
56.4038
58.1342
59.5312
61.6995
63.1332
66.0158
68.8161
74.5092
79.7888
88.9777
96.5794
108.616
113.797
116.896
107.414
115.338
127.08
168.192
196.031
327.311
681.421
718.461
514.603
320.015
199.035
132.042
105.785
92.95
87.4315
80.4206
76.62
71.7605
69.3799
66.1872
65.3004
63.7703
63.5846
62.2927
62.0258
61.3402
61.0274
60.094
58.8503
56.7358
54.4509
52.5324
51.3179
50.5337
50.2245
50.2545
50.3965
50.38
50.1407
49.8773
49.5777
49.4711
49.2855
49.3568
49.2584
49.6695
50.0372
51.1375
52.7201
54.8935
61.7316
71.9065
82.1784
50.452
71.286
79.288
71.8218
59.4009
49.4092
43.8776
41.8362
41.5044
41.759
42.1455
42.5552
42.9521
43.3417
43.7206
44.1038
44.4892
44.8913
45.3046
45.7499
46.2157
46.7349
47.281
47.902
48.5493
49.3025
50.0669
50.9808
51.8622
52.948
53.9251
55.2336
56.3634
58.0905
59.4809
61.6461
63.0649
65.9325
68.7073
74.3831
79.6431
88.8203
96.4385
108.529
113.849
117.051
107.518
115.156
126.771
167.91
195.811
328.304
686.627
721.091
518.287
323.651
200.949
132.907
106.088
93.0883
87.4782
80.5202
76.6889
71.861
69.4366
66.2577
65.3275
63.7951
63.5866
62.301
62.0255
61.3457
61.0355
60.1083
58.865
56.7475
54.4548
52.5279
51.3074
50.5209
50.212
50.2455
50.3948
50.3856
50.1511
49.8882
49.5891
49.4824
49.2988
49.3718
49.2761
49.6928
50.0667
51.189
52.8018
55.1136
62.1932
72.5421
82.6431
50.516
71.3453
79.3061
71.8213
59.3964
49.3942
43.8548
41.8126
41.482
41.7383
42.1265
42.5375
42.9352
43.3252
43.7045
44.0877
44.473
44.875
45.288
45.7328
46.198
46.7164
47.2619
47.8819
48.5282
49.2803
50.0434
50.9559
51.8353
52.9192
53.8929
55.1985
56.3225
58.0465
59.4302
61.5924
62.9968
65.8495
68.598
74.2545
79.4938
88.6563
96.2906
108.434
113.905
117.241
107.67
114.996
126.472
167.614
195.586
329.274
691.769
723.615
522.393
327.845
203.275
134.005
106.495
93.2924
87.5643
80.6614
76.7926
71.9999
69.524
66.3599
65.3762
63.8382
63.6001
62.3196
62.0323
61.3576
61.0494
60.1284
58.8855
56.7653
54.4646
52.5285
51.3008
50.5111
50.2015
50.2378
50.3942
50.3929
50.1637
49.9015
49.6028
49.4955
49.3136
49.3875
49.2941
49.7156
50.0951
51.2384
52.882
55.3374
62.6446
73.1336
83.0445
50.5812
71.4026
79.3189
71.816
59.3893
49.3783
43.8319
41.7893
41.4599
41.7177
42.1076
42.5198
42.9185
43.3089
43.6884
44.0716
44.4569
44.8586
45.2714
45.7156
46.1803
46.698
47.2427
47.8618
48.5071
49.2579
50.0196
50.9308
51.8081
52.8902
53.8605
55.1631
56.2814
58.0021
59.379
61.5385
62.9289
65.7667
68.4886
74.1236
79.341
88.4854
96.1352
108.329
113.967
117.47
107.876
114.864
126.188
167.305
195.356
330.22
696.827
726.018
526.924
332.643
206.078
135.386
107.031
93.5786
87.6989
80.8533
76.9395
72.1865
69.6504
66.5023
65.4531
63.9046
63.6281
62.3511
62.0481
61.3775
61.07
60.1556
58.9127
56.7902
54.4812
52.5349
51.2988
50.5048
50.1936
50.2317
50.3949
50.4019
50.1789
49.9177
49.6193
49.5108
49.3301
49.4043
49.3128
49.738
50.1225
51.2858
52.9608
55.5641
63.0799
73.6705
83.3691
50.6477
71.4576
79.3265
71.806
59.3795
49.3614
43.8091
41.7663
41.438
41.6973
42.0888
42.5023
42.9018
43.2926
43.6723
44.0556
44.4408
44.8423
45.2547
45.6984
46.1626
46.6794
47.2234
47.8415
48.4857
49.2355
49.9956
50.9054
51.7807
52.861
53.8277
55.1275
56.24
57.9575
59.3275
61.4846
62.8614
65.6843
68.3793
73.9904
79.1848
88.3072
95.9718
108.214
114.034
117.743
108.145
114.762
125.92
166.985
195.123
331.138
701.781
728.283
531.875
338.094
209.432
137.114
107.73
93.9686
87.8941
81.1078
77.1405
72.4333
69.8268
66.6965
65.567
64.0015
63.6754
62.3988
62.0751
61.4071
61.099
60.1912
58.948
56.8233
54.5055
52.5481
51.302
50.5025
50.1884
50.2274
50.3972
50.4131
50.1971
49.9371
49.6389
49.5288
49.3489
49.4226
49.3325
49.7603
50.1491
51.3313
53.038
55.7924
63.4926
74.1422
83.604
50.7155
71.5105
79.3287
71.791
59.3671
49.3438
43.7863
41.7436
41.4163
41.6771
42.0702
42.485
42.8852
43.2764
43.6563
44.0395
44.4248
44.826
45.2381
45.6812
46.1448
46.6609
47.204
47.8211
48.4643
49.2128
49.9715
50.8799
51.753
52.8316
53.7947
55.0918
56.1984
57.9127
59.2758
61.4306
62.7945
65.6025
68.2706
73.855
79.0252
88.1212
95.7998
108.087
114.107
118.067
108.49
114.697
125.673
166.655
194.887
332.027
706.608
730.393
537.241
344.248
213.423
139.268
108.631
94.4912
88.1661
81.4411
77.4104
72.7572
70.0687
66.9587
65.7304
64.1393
63.7482
62.4673
62.1163
61.4488
61.1381
60.237
58.993
56.8663
54.5389
52.569
51.3112
50.5049
50.1866
50.2254
50.4014
50.4269
50.2187
49.9604
49.6625
49.55
49.3706
49.443
49.3538
49.7829
50.1751
51.3749
53.1136
56.0208
63.8762
74.538
83.7375
50.7848
71.5611
79.3254
71.771
59.3519
49.3254
43.7637
41.7214
41.395
41.6572
42.0518
42.4677
42.8687
43.2603
43.6403
44.0236
44.4087
44.8097
45.2215
45.664
46.1269
46.6422
47.1845
47.8007
48.4427
49.19
49.9471
50.8542
51.7251
52.8021
53.7615
55.0559
56.1566
57.8678
59.2239
61.3766
62.7285
65.5216
68.1627
73.7176
78.8624
87.9272
95.6189
107.947
114.186
118.449
108.923
114.673
125.45
166.316
194.651
332.884
711.286
732.335
543.006
351.149
218.144
141.944
109.791
95.1852
88.5368
81.8743
77.7693
73.1813
70.3974
67.3116
65.9616
64.3327
63.8559
62.5631
62.1759
61.5057
61.19
60.2954
59.0497
56.921
54.5829
52.5989
51.3274
50.5128
50.1886
50.2261
50.4077
50.4435
50.2443
49.9884
49.6907
49.5754
49.3959
49.4659
49.3772
49.8062
50.2009
51.4169
53.1874
56.2477
64.2237
74.8479
83.7598
50.8556
71.6096
79.3164
71.7458
59.3341
49.3062
43.7413
41.6995
41.374
41.6374
42.0335
42.4506
42.8523
43.2443
43.6244
44.0076
44.3927
44.7934
45.2048
45.6468
46.109
46.6236
47.165
47.7801
48.421
49.1672
49.9225
50.8284
51.6969
52.7724
53.7282
55.0201
56.1149
57.823
59.1722
61.3229
62.6635
65.4418
68.0562
73.5785
78.6969
87.7248
95.4286
107.794
114.27
118.898
109.461
114.7
125.256
165.971
194.414
333.706
715.793
734.093
549.154
358.84
223.696
145.262
111.28
96.1025
89.0365
82.4365
78.2445
73.7374
70.8431
67.7877
66.2865
64.6031
64.012
62.6956
62.2598
61.5822
61.2577
60.3691
59.1208
56.9898
54.6396
52.6393
51.3518
50.5271
50.1954
50.2301
50.4168
50.4635
50.2746
50.0218
49.7244
49.6056
49.4256
49.4924
49.4034
49.8307
50.227
51.4575
53.2595
56.4709
64.5287
75.063
83.6636
50.9281
71.656
79.3016
71.7153
59.3136
49.2865
43.7193
41.6782
41.3534
41.6179
42.0154
42.4336
42.8361
43.2284
43.6086
43.9918
44.3767
44.7771
45.1882
45.6296
46.0912
46.6049
47.1454
47.7596
48.3991
49.1442
49.8979
50.8025
51.6687
52.7427
53.6949
54.9845
56.0735
57.7783
59.1208
61.2696
62.6001
65.3635
67.9518
73.4383
78.5291
87.5139
95.2285
107.625
114.359
119.42
110.126
114.787
125.097
165.623
194.179
334.488
720.105
735.654
555.659
367.356
230.185
149.362
113.191
97.3132
89.7071
83.1669
78.8735
74.4697
71.4483
68.4326
66.7435
64.9824
64.2367
62.8783
62.3765
61.684
61.3458
60.4621
59.2094
57.0755
54.7112
52.6923
51.3859
50.549
50.2078
50.2381
50.4292
50.4876
50.3103
50.0615
49.7648
49.642
49.4608
49.5233
49.4334
49.8574
50.254
51.497
53.3297
56.6882
64.7848
75.1757
83.4446
51.0024
71.7002
79.2809
71.6794
59.2903
49.2661
43.6976
41.6574
41.3332
41.5986
41.9975
42.4168
42.82
43.2125
43.5929
43.976
44.3608
44.7609
45.1716
45.6124