/*--------------------------------*- C++ -*----------------------------------*\
| =========                 |                                                 |
| \\      /  F ield         | OpenFOAM: The Open Source CFD Toolbox           |
|  \\    /   O peration     | Version:  2412                                  |
|   \\  /    A nd           | Website:  www.openfoam.com                      |
|    \\/     M anipulation  |                                                 |
\*---------------------------------------------------------------------------*/
FoamFile
{
    version     2.0;
    format      ascii;
    arch        "LSB;label=32;scalar=64";
    class       volScalarField;
    location    "0.2";
    object      nut;
}
// * * * * * * * * * * * * * * * * * * * * * * * * * * * * * * * * * * * * * //

dimensions      [0 2 -1 0 0 0 0];

internalField   nonuniform List<scalar> 
13077
(
0.344068
0.357755
0.341534
0.300281
0.265418
0.258103
0.279509
0.309965
0.330309
0.339359
0.34264
0.343844
0.344391
0.344787
0.345139
0.345518
0.345903
0.346339
0.346786
0.347306
0.347835
0.348466
0.349089
0.349844
0.350562
0.351462
0.352265
0.353324
0.354175
0.355409
0.35631
0.357863
0.358918
0.360994
0.362148
0.364599
0.365738
0.369399
0.372049
0.343922
0.357593
0.341369
0.300051
0.265052
0.257591
0.279012
0.309665
0.330183
0.33931
0.342616
0.343826
0.344375
0.34477
0.345121
0.3455
0.345884
0.346319
0.346765
0.347283
0.347812
0.348441
0.349063
0.349817
0.350534
0.351431
0.352233
0.353289
0.354139
0.355368
0.356265
0.357813
0.358864
0.360936
0.362085
0.364524
0.365646
0.369293
0.371937
0.377705
0.380959
0.388238
0.390767
0.397001
0.393975
0.394405
0.385758
0.401086
0.406987
0.426584
0.429712
0.439767
0.47327
0.445929
0.42626
0.283144
0.235905
0.266042
0.332259
0.357635
0.365634
0.361143
0.363327
0.359291
0.360419
0.357603
0.359554
0.358193
0.359242
0.343777
0.357431
0.341205
0.299824
0.264692
0.257085
0.278518
0.309366
0.330056
0.339262
0.342593
0.343809
0.344358
0.344754
0.345103
0.345481
0.345865
0.346299
0.346743
0.347261
0.347788
0.348416
0.349037
0.349789
0.350505
0.3514
0.352201
0.353254
0.354101
0.355327
0.356219
0.357762
0.358809
0.360877
0.36202
0.364447
0.36555
0.369182
0.371819
0.377581
0.38084
0.388113
0.390652
0.396861
0.393823
0.394141
0.385416
0.400832
0.406864
0.426593
0.429802
0.440665
0.475361
0.448296
0.427053
0.284007
0.236801
0.266482
0.332142
0.357434
0.365415
0.360907
0.363092
0.359059
0.360203
0.3574
0.35938
0.358039
0.359117
0.357205
0.357993
0.357061
0.356889
0.355361
0.353665
0.350842
0.348711
0.347705
0.347568
0.347505
0.347913
0.348422
0.348582
0.348307
0.347766
0.34755
0.347177
0.347319
0.346924
0.347254
0.346881
0.347691
0.347956
0.348821
0.350105
0.346913
0.334187
0.257273
0.153571
0.343632
0.357269
0.34104
0.299598
0.264337
0.256586
0.27803
0.30907
0.329931
0.339214
0.342569
0.343792
0.344342
0.344737
0.345086
0.345463
0.345845
0.346278
0.346722
0.347238
0.347764
0.348391
0.349011
0.349761
0.350476
0.351369
0.352168
0.353219
0.354063
0.355284
0.356172
0.357709
0.358752
0.360816
0.361952
0.364366
0.36545
0.369065
0.371693
0.377447
0.380707
0.387969
0.390516
0.396691
0.393635
0.393832
0.385035
0.40055
0.406721
0.426588
0.429875
0.441537
0.477444
0.450599
0.427614
0.284773
0.237682
0.266944
0.332031
0.357201
0.365158
0.360629
0.362814
0.358783
0.359946
0.357156
0.35917
0.357853
0.358966
0.357069
0.357884
0.356962
0.356799
0.355273
0.353568
0.350722
0.348574
0.34757
0.347441
0.347384
0.347806
0.348332
0.348506
0.348235
0.3477
0.347493
0.347132
0.347287
0.346901
0.347243
0.346874
0.347707
0.347979
0.348876
0.350133
0.346654
0.332168
0.251068
0.14898
0.343489
0.357107
0.340874
0.299371
0.263985
0.256095
0.277549
0.308778
0.329808
0.339167
0.342546
0.343774
0.344325
0.344719
0.345068
0.345444
0.345825
0.346257
0.3467
0.347215
0.34774
0.348365
0.348984
0.349732
0.350445
0.351336
0.352134
0.353182
0.354023
0.35524
0.356123
0.357654
0.358692
0.360751
0.36188
0.364281
0.365344
0.368941
0.371557
0.3773
0.380558
0.387802
0.390355
0.396484
0.393403
0.393468
0.384609
0.400234
0.406553
0.426564
0.429928
0.442377
0.479513
0.452839
0.427948
0.285441
0.23854
0.267418
0.331919
0.356929
0.364855
0.3603
0.362485
0.358453
0.359639
0.356864
0.358917
0.357627
0.358781
0.356905
0.35775
0.356842
0.356689
0.355166
0.353453
0.350584
0.348417
0.347415
0.347293
0.347242
0.347679
0.348223
0.348412
0.348148
0.347619
0.347424
0.347076
0.347246
0.346869
0.347224
0.34686
0.347714
0.347993
0.348919
0.350137
0.346328
0.329931
0.244816
0.144669
0.343346
0.356945
0.340706
0.299144
0.263637
0.255611
0.277076
0.30849
0.329686
0.33912
0.342522
0.343757
0.344308
0.344702
0.345049
0.345424
0.345805
0.346236
0.346677
0.347191
0.347715
0.348339
0.348956
0.349703
0.350415
0.351303
0.352098
0.353143
0.353982
0.355194
0.356071
0.357597
0.35863
0.360684
0.361805
0.364192
0.365232
0.368808
0.371412
0.377138
0.38039
0.38761
0.390164
0.396234
0.39312
0.393038
0.384127
0.399877
0.406356
0.426519
0.429957
0.443182
0.481565
0.45502
0.428057
0.286006
0.23937
0.267895
0.331794
0.356606
0.364495
0.359906
0.362093
0.358057
0.35927
0.35651
0.358611
0.357353
0.358556
0.356706
0.357587
0.356696
0.356557
0.355038
0.353317
0.350424
0.348238
0.347236
0.347122
0.347076
0.347527
0.348091
0.348297
0.348041
0.347521
0.347339
0.347007
0.347192
0.346827
0.347195
0.346836
0.347712
0.347995
0.348948
0.350114
0.345924
0.327463
0.238543
0.140599
0.343203
0.356783
0.340536
0.298916
0.263292
0.255135
0.276611
0.308208
0.329567
0.339074
0.342499
0.343739
0.344291
0.344684
0.345031
0.345405
0.345785
0.346214
0.346655
0.347167
0.34769
0.348312
0.348928
0.349673
0.350383
0.351269
0.352062
0.353104
0.353939
0.355145
0.356018
0.357537
0.358564
0.360612
0.361725
0.364096
0.365113
0.368666
0.371254
0.376959
0.3802
0.387387
0.389937
0.395932
0.392774
0.39253
0.383581
0.399472
0.406125
0.426448
0.429959
0.443949
0.483595
0.457144
0.427945
0.286466
0.240161
0.268359
0.331643
0.356218
0.364064
0.359435
0.361624
0.357581
0.358826
0.356083
0.358239
0.35702
0.358282
0.356465
0.357389
0.356519
0.356396
0.354883
0.353156
0.350239
0.348032
0.34703
0.346922
0.346881
0.347347
0.347932
0.348156
0.347912
0.347403
0.347235
0.346921
0.347124
0.346772
0.347154
0.3468
0.347698
0.347984
0.348959
0.350059
0.34543
0.324749
0.23227
0.136733
0.343061
0.35662
0.340364
0.298688
0.262952
0.254667
0.276154
0.307931
0.32945
0.339028
0.342476
0.343721
0.344274
0.344666
0.345012
0.345385
0.345764
0.346192
0.346632
0.347142
0.347664
0.348284
0.348899
0.349641
0.35035
0.351233
0.352024
0.353062
0.353894
0.355095
0.355961
0.357473
0.358494
0.360536
0.36164
0.363994
0.364985
0.368512
0.371082
0.37676
0.379985
0.387129
0.38967
0.395571
0.392357
0.391931
0.382958
0.399011
0.405854
0.426347
0.42993
0.444674
0.485599
0.459211
0.427614
0.286816
0.240905
0.268796
0.331449
0.355749
0.363547
0.358868
0.361062
0.357007
0.35829
0.355566
0.357787
0.356615
0.357947
0.356172
0.357147
0.356304
0.356202
0.354696
0.352965
0.350024
0.347795
0.346791
0.346688
0.346652
0.347133
0.347741
0.347986
0.347754
0.34726
0.34711
0.346816
0.347039
0.346701
0.347099
0.346751
0.34767
0.347957
0.348948
0.349965
0.344833
0.321774
0.226013
0.133037
0.34292
0.356458
0.340191
0.29846
0.262614
0.254206
0.275705
0.307658
0.329334
0.338983
0.342452
0.343703
0.344256
0.344648
0.344992
0.345364
0.345743
0.34617
0.346608
0.347117
0.347637
0.348256
0.348869
0.349609
0.350316
0.351196
0.351985
0.353019
0.353847
0.355041
0.355902
0.357405
0.35842
0.360454
0.361549
0.363884
0.364848
0.368345
0.370894
0.376538
0.37974
0.38683
0.389355
0.395139
0.391854
0.391225
0.382244
0.398481
0.405537
0.426211
0.429867
0.445354
0.487575
0.461225
0.427066
0.287049
0.241589
0.269186
0.331195
0.355181
0.362926
0.358188
0.360388
0.356316
0.357644
0.35494
0.357238
0.356123
0.357539
0.355815
0.356852
0.356043
0.355967
0.354472
0.352737
0.349772
0.347521
0.346513
0.346414
0.346382
0.346879
0.347511
0.347779
0.347564
0.347087
0.346958
0.346687
0.346933
0.346612
0.347026
0.346684
0.347624
0.347911
0.348912
0.349825
0.34412
0.318524
0.219788
0.129483
0.34278
0.356295
0.340016
0.298231
0.262281
0.253753
0.275263
0.307391
0.329221
0.338938
0.342429
0.343684
0.344238
0.344629
0.344973
0.345343
0.345721
0.346146
0.346584
0.347091
0.34761
0.348227
0.348838
0.349576
0.350281
0.351158
0.351943
0.352973
0.353797
0.354985
0.355838
0.357333
0.35834
0.360366
0.36145
0.363765
0.364699
0.368163
0.370686
0.376289
0.379461
0.386484
0.388985
0.394626
0.391253
0.390391
0.381424
0.397871
0.405164
0.426033
0.429764
0.445985
0.489519
0.463185
0.426302
0.287159
0.242199
0.269509
0.330856
0.354491
0.36218
0.357369
0.359577
0.355482
0.356864
0.354181
0.356572
0.355524
0.357042
0.355383
0.356494
0.355727
0.355683
0.354203
0.352467
0.349478
0.347204
0.346189
0.346094
0.346064
0.346578
0.347236
0.347531
0.347335
0.346878
0.346774
0.34653
0.346801
0.346499
0.346932
0.346597
0.347558
0.34784
0.348845
0.349631
0.343274
0.314984
0.213607
0.126044
0.34264
0.356132
0.339839
0.298002
0.261951
0.253306
0.274829
0.307128
0.32911
0.338894
0.342405
0.343665
0.344219
0.344609
0.344952
0.345322
0.345698
0.346123
0.346559
0.347064
0.347582
0.348197
0.348806
0.349541
0.350244
0.351117
0.351899
0.352924
0.353744
0.354924
0.35577
0.357255
0.358254
0.36027
0.361343
0.363636
0.364537
0.367963
0.370456
0.376008
0.379143
0.386084
0.388551
0.394018
0.390536
0.389409
0.380477
0.397166
0.404727
0.425807
0.429616
0.446564
0.491426
0.465092
0.425322
0.287136
0.242718
0.269739
0.330408
0.353653
0.361283
0.356384
0.358603
0.354477
0.355922
0.353263
0.355764
0.354797
0.356437
0.354857
0.356058
0.355343
0.355341
0.35388
0.352146
0.349133
0.346834
0.345812
0.345718
0.34569
0.346221
0.346907
0.347232
0.34706
0.346628
0.346552
0.346339
0.346639
0.346359
0.346812
0.346485
0.347466
0.347742
0.348741
0.349375
0.342279
0.311141
0.207478
0.122698
0.342501
0.35597
0.339661
0.297773
0.261625
0.252867
0.274402
0.30687
0.329001
0.33885
0.342381
0.343646
0.3442
0.344589
0.344931
0.3453
0.345675
0.346098
0.346533
0.347037
0.347552
0.348165
0.348773
0.349505
0.350205
0.351074
0.351853
0.352872
0.353686
0.354858
0.355696
0.357171
0.35816
0.360166
0.361225
0.363493
0.364359
0.367743
0.370199
0.375692
0.37878
0.385621
0.388043
0.3933
0.389685
0.388253
0.379382
0.396347
0.404214
0.425523
0.429417
0.447087
0.493295
0.466945
0.424124
0.286966
0.243128
0.269848
0.32982
0.352636
0.360204
0.3552
0.357433
0.353267
0.354787
0.352153
0.354784
0.353914
0.355701
0.354219
0.355529
0.35488
0.35493
0.353493
0.351765
0.348729
0.346405
0.345373
0.345278
0.345251
0.345799
0.346516
0.346874
0.346731
0.346328
0.346285
0.346108
0.346441
0.346186
0.346661
0.346344
0.347344
0.347609
0.348594
0.349045
0.341114
0.306984
0.20141
0.119426
0.342363
0.355807
0.339482
0.297544
0.261302
0.252436
0.273983
0.306617
0.328893
0.338806
0.342357
0.343626
0.344181
0.344569
0.34491
0.345277
0.345652
0.346073
0.346506
0.347008
0.347522
0.348132
0.348738
0.349467
0.350163
0.351028
0.351803
0.352816
0.353625
0.354787
0.355616
0.357079
0.358058
0.360051
0.361096
0.363336
0.364163
0.367498
0.369912
0.375333
0.378364
0.385086
0.38745
0.392456
0.388679
0.386894
0.378112
0.395394
0.403611
0.425173
0.429159
0.447549
0.495119
0.468741
0.422705
0.286636
0.243405
0.269804
0.329057
0.351405
0.35891
0.35378
0.356029
0.35181
0.353418
0.350811
0.353597
0.352844
0.354808
0.353445
0.354887
0.35432
0.354434
0.35303
0.351313
0.348254
0.345904
0.344859
0.344762
0.344734
0.345302
0.346052
0.346448
0.346338
0.345969
0.345965
0.345828
0.3462
0.345973
0.346474
0.346167
0.347186
0.347437
0.348395
0.34863
0.339761
0.302503
0.195406
0.116215
0.342225
0.355644
0.339301
0.297316
0.260984
0.252011
0.273572
0.306368
0.328787
0.338763
0.342332
0.343606
0.344161
0.344548
0.344887
0.345254
0.345627
0.346047
0.346478
0.346978
0.34749
0.348098
0.348701
0.349426
0.350119
0.350979
0.351749
0.352756
0.353557
0.35471
0.355528
0.356978
0.357945
0.359924
0.360952
0.363161
0.363945
0.367225
0.36959
0.374926
0.377889
0.384468
0.386759
0.391466
0.387494
0.385301
0.376636
0.394283
0.402902
0.424743
0.428834
0.447945
0.496895
0.470477
0.42106
0.286126
0.243522
0.269567
0.328077
0.349918
0.35736
0.352079
0.354347
0.350062
0.351772
0.349193
0.352163
0.351549
0.353725
0.352507
0.354109
0.353644
0.353839
0.352477
0.350777
0.347697
0.34532
0.344259
0.344158
0.344129
0.344715
0.345501
0.345941
0.345869
0.345541
0.345582
0.345491
0.345906
0.345713
0.346243
0.345948
0.346985
0.347217
0.348135
0.348116
0.338196
0.29769
0.189472
0.113054
0.342089
0.355481
0.339119
0.297088
0.260669
0.251593
0.273167
0.306124
0.328683
0.33872
0.342307
0.343584
0.344139
0.344526
0.344864
0.345229
0.345601
0.346019
0.346449
0.346947
0.347456
0.348061
0.348661
0.349382
0.350072
0.350926
0.351691
0.35269
0.353484
0.354625
0.355431
0.356866
0.35782
0.359782
0.360791
0.362965
0.363702
0.36692
0.369227
0.374464
0.377345
0.383756
0.385955
0.390309
0.386102
0.383435
0.374921
0.392983
0.402067
0.424219
0.428431
0.44827
0.498618
0.472147
0.419182
0.285417
0.243448
0.269094
0.326833
0.348128
0.355508
0.350048
0.352337
0.347967
0.349797
0.347247
0.350432
0.349983
0.352415
0.351373
0.353168
0.352828
0.353125
0.351816
0.350141
0.347043
0.344638
0.343559
0.343451
0.343419
0.344026
0.344852
0.345339
0.345312
0.345031
0.345124
0.345086
0.345551
0.345396
0.345959
0.345678
0.346732
0.34694
0.347804
0.347488
0.336396
0.29254
0.183611
0.109936
0.341954
0.355318
0.338935
0.29686
0.260359
0.251183
0.272771
0.305885
0.328581
0.338677
0.342282
0.343562
0.344117
0.344502
0.34484
0.345203
0.345574
0.34599
0.346418
0.346913
0.34742
0.348022
0.348619
0.349336
0.350021
0.350869
0.351627
0.352617
0.353402
0.35453
0.355324
0.356741
0.35768
0.359622
0.36061
0.362746
0.363429
0.366576
0.368817
0.373937
0.376721
0.382936
0.385022
0.388961
0.384474
0.381255
0.372926
0.391464
0.401084
0.423587
0.427938
0.448517
0.500282
0.473745
0.417061
0.284482
0.243147
0.268334
0.325271
0.34598
0.3533
0.347627
0.349941
0.345465
0.347432
0.34491
0.34835
0.348096
0.350832
0.350004
0.352032
0.351847
0.352269
0.351028
0.349389
0.346276
0.343842
0.342743
0.342626
0.342589
0.343217
0.344086
0.344627
0.344652
0.344425
0.344579
0.344601
0.345123
0.345013
0.345613
0.345348
0.346419
0.346597
0.347389
0.34673
0.334338
0.287051
0.177827
0.106858
0.341819
0.355156
0.338751
0.296633
0.260053
0.250779
0.272381
0.305649
0.32848
0.338633
0.342255
0.343539
0.344094
0.344478
0.344814
0.345176
0.345545
0.34596
0.346385
0.346877
0.347382
0.34798
0.348573
0.349285
0.349964
0.350805
0.351556
0.352536
0.353311
0.354424
0.355203
0.356601
0.357522
0.359442
0.360406
0.362497
0.363122
0.366188
0.368353
0.373337
0.376008
0.381992
0.383943
0.387397
0.382577
0.378716
0.370605
0.389685
0.399927
0.422826
0.427342
0.448678
0.501882
0.475262
0.414684
0.283294
0.242579
0.267231
0.323329
0.343412
0.350677
0.344754
0.347093
0.342485
0.344608
0.342114
0.34585
0.345827
0.348923
0.348352
0.350662
0.350666
0.351244
0.35009
0.348498
0.345375
0.342914
0.34179
0.341662
0.341619
0.34227
0.343186
0.343788
0.343872
0.343708
0.34393
0.344022
0.344609
0.34455
0.345193
0.344946
0.346033
0.346174
0.346875
0.345821
0.331995
0.281227
0.172123
0.103819
0.341686
0.354994
0.338565
0.296407
0.259751
0.250383
0.271999
0.305419
0.32838
0.338589
0.342228
0.343515
0.344069
0.344452
0.344787
0.345147
0.345514
0.345927
0.34635
0.346839
0.34734
0.347934
0.348523
0.349229
0.349903
0.350735
0.351478
0.352446
0.353209
0.354305
0.355067
0.356443
0.357344
0.359239
0.360175
0.362216
0.362776
0.365749
0.367825
0.372653
0.375193
0.38091
0.382697
0.385588
0.380375
0.375768
0.36791
0.387602
0.398565
0.421915
0.426627
0.448745
0.50341
0.476687
0.412039
0.28182
0.241697
0.265719
0.320936
0.340355
0.347571
0.341355
0.343719
0.338948
0.341249
0.338778
0.342859
0.343105
0.346629
0.346366
0.349013
0.34925
0.350019
0.348974
0.347447
0.344319
0.341832
0.34068
0.340539
0.340489
0.341163
0.342131
0.342801
0.342953
0.342861
0.34316
0.343331
0.343993
0.343993
0.344685
0.34446
0.345562
0.345658
0.346247
0.34474
0.329341
0.275072
0.166503
0.100821
0.341554
0.354832
0.338378
0.296182
0.259453
0.249994
0.271624
0.305192
0.32828
0.338545
0.342199
0.343489
0.344043
0.344424
0.344757
0.345116
0.345481
0.345891
0.346312
0.346797
0.347295
0.347884
0.348468
0.349167
0.349834
0.350657
0.35139
0.352345
0.353094
0.354171
0.354914
0.356264
0.357142
0.359007
0.359911
0.361896
0.362383
0.365252
0.367226
0.371874
0.374261
0.379669
0.381263
0.383502
0.377829
0.372355
0.364782
0.385167
0.396963
0.420828
0.425775
0.448705
0.504859
0.478008
0.409109
0.280027
0.240452
0.263728
0.318014
0.336731
0.343908
0.33735
0.33974
0.334769
0.337268
0.334814
0.339293
0.33985
0.343878
0.343982
0.347034
0.347553
0.348558
0.347649
0.346206
0.343083
0.340572
0.339389
0.339232
0.339173
0.339873
0.340897
0.341643
0.341873
0.341863
0.34225
0.34251
0.343257
0.343326
0.344073
0.343874
0.34499
0.345034
0.345486
0.343465
0.326349
0.2686
0.160973
0.0978686
0.341424
0.354671
0.338191
0.295958
0.25916
0.249612
0.271256
0.304969
0.328182
0.338499
0.342168
0.343461
0.344015
0.344394
0.344725
0.345082
0.345446
0.345853
0.346271
0.346752
0.347245
0.347829
0.348407
0.349098
0.349757
0.350569
0.35129
0.35223
0.352963
0.354019
0.354739
0.356061
0.356912
0.358743
0.35961
0.361532
0.361937
0.364687
0.366545
0.370986
0.373199
0.378251
0.379616
0.381107
0.374897
0.368419
0.361161
0.382322
0.395081
0.419536
0.424763
0.448549
0.50622
0.47921
0.405875
0.277876
0.238789
0.26118
0.314477
0.332457
0.339606
0.332656
0.335065
0.329853
0.332569
0.330124
0.335056
0.335974
0.340591
0.34113
0.344663
0.345524
0.346817
0.346079
0.344745
0.341636
0.339105
0.337889
0.337715
0.337646
0.338373
0.33946
0.34029
0.340608
0.340689
0.341176
0.341537
0.342381
0.342528
0.343339
0.34317
0.3443
0.344283
0.344572
0.341969
0.322993
0.261824
0.155538
0.0949686
0.341295
0.35451
0.338002
0.295734
0.258871
0.249238
0.270895
0.304749
0.328084
0.338452
0.342136
0.343431
0.343984
0.344361
0.344691
0.345045
0.345406
0.34581
0.346225
0.346702
0.34719
0.347767
0.348339
0.349021
0.349671
0.35047
0.351178
0.3521
0.352815
0.353845
0.35454
0.355829
0.35665
0.35844
0.359266
0.361115
0.36143
0.364045
0.36577
0.369975
0.371988
0.376634
0.377729
0.378365
0.371533
0.363899
0.356979
0.379004
0.392872
0.418007
0.423568
0.448261
0.507484
0.480276
0.40232
0.275329
0.236649
0.257993
0.31023
0.327439
0.334578
0.32718
0.329603
0.3241
0.327051
0.324602
0.330047
0.331375
0.336676
0.337728
0.341831
0.343105
0.344748
0.344222
0.343026
0.339946
0.3374
0.33615
0.335957
0.335876
0.336634
0.337788
0.338713
0.339129
0.339314
0.339912
0.340388
0.341341
0.341578
0.342461
0.342329
0.343472
0.343383
0.34348
0.340225
0.319248
0.254768
0.150205
0.0921275
0.341168
0.35435
0.337813
0.295512
0.258587
0.24887
0.270541
0.304533
0.327986
0.338404
0.342101
0.343399
0.34395
0.344326
0.344653
0.345005
0.345363
0.345764
0.346174
0.346646
0.347129
0.347699
0.348263
0.348934
0.349573
0.350357
0.35105
0.351952
0.352645
0.353647
0.354313
0.355564
0.356349
0.358093
0.358871
0.360639
0.360852
0.363315
0.364888
0.368826
0.37061
0.374793
0.375576
0.375241
0.367693
0.358731
0.352166
0.375144
0.390283
0.416201
0.422161
0.447825
0.508641
0.481187
0.398422
0.272347
0.233972
0.254081
0.305174
0.321583
0.328731
0.320829
0.323255
0.317407
0.320606
0.318135
0.324152
0.325945
0.332033
0.333684
0.338459
0.340226
0.342294
0.342028
0.341008
0.337975
0.335421
0.334136
0.333925
0.333832
0.334622
0.335851
0.336881
0.337407
0.337707
0.33843
0.339034
0.34011
0.340449
0.341417
0.341325
0.342482
0.342311
0.342185
0.338202
0.315088
0.247456
0.144981
0.0893528
0.341042
0.354191
0.337623
0.295291
0.258308
0.24851
0.270194
0.30432
0.327887
0.338353
0.342064
0.343363
0.343913
0.344286
0.344611
0.34496
0.345315
0.345712
0.346118
0.346583
0.34706
0.347621
0.348176
0.348836
0.349461
0.350229
0.350904
0.351782
0.352451
0.35342
0.354052
0.35526
0.356004
0.357695
0.358419
0.360094
0.360193
0.362485
0.363887
0.367521
0.369046
0.372704
0.373125
0.371693
0.363327
0.352852
0.346647
0.370666
0.387255
0.414075
0.420511
0.447223
0.509679
0.481921
0.394162
0.268891
0.230698
0.249355
0.299204
0.314789
0.321972
0.313509
0.315922
0.30967
0.313126
0.31061
0.317256
0.319565
0.326551
0.328896
0.334456
0.336811
0.339389
0.339444
0.338642
0.335679
0.333129
0.33181
0.33158
0.331475
0.332301
0.333612
0.334758
0.335406
0.335834
0.336697
0.337443
0.338658
0.339114
0.340177
0.340134
0.341303
0.341039
0.340656
0.335868
0.310491
0.239919
0.139873
0.0866511
0.340918
0.354033
0.337432
0.295071
0.258033
0.248158
0.269854
0.30411
0.327787
0.338299
0.342022
0.343323
0.343871
0.344242
0.344564
0.34491
0.345262
0.345654
0.346054
0.346513
0.346982
0.347534
0.348078
0.348724
0.349334
0.350083
0.350736
0.351588
0.352227
0.353159
0.353752
0.354911
0.355608
0.357238
0.357899
0.35947
0.359442
0.36154
0.362749
0.366041
0.367275
0.37034
0.370344
0.367681
0.358387
0.346198
0.340346
0.365487
0.383721
0.411581
0.418581
0.446435
0.510584
0.482456
0.389522
0.264928
0.226771
0.243735
0.292217
0.306956
0.314206
0.30513
0.30751
0.300791
0.304503
0.301914
0.309239
0.312115
0.320112
0.323253
0.329723
0.332773
0.335962
0.336406
0.335877
0.333011
0.330479
0.329128
0.328882
0.328766
0.329632
0.331033
0.332307
0.33309
0.33366
0.334676
0.33558
0.336952
0.337539
0.33871
0.338723
0.339907
0.339538
0.338862
0.333187
0.305438
0.232191
0.134888
0.0840281
0.340797
0.353875
0.33724
0.294853
0.257764
0.247812
0.269519
0.303902
0.327686
0.338242
0.341977
0.343278
0.343825
0.344193
0.344512
0.344853
0.345201
0.345588
0.345982
0.346434
0.346893
0.347434
0.347966
0.348596
0.349189
0.349915
0.350544
0.351364
0.351971
0.352859
0.353408
0.35451
0.355153
0.356713
0.357303
0.358755
0.358586
0.360466
0.361458
0.364367
0.365272
0.367671
0.367199
0.363163
0.352827
0.338713
0.33319
0.359522
0.37961
0.408665
0.416332
0.445436
0.511344
0.482766
0.384483
0.260428
0.22214
0.237145
0.284112
0.297992
0.305345
0.295612
0.297933
0.290682
0.294639
0.291941
0.299984
0.303472
0.312593
0.316636
0.324152
0.328015
0.331928
0.332844
0.33265
0.329917
0.327422
0.326044
0.325785
0.325661
0.326572
0.328071
0.329485
0.330418
0.331143
0.332327
0.333406
0.334952
0.335688
0.336981
0.337059
0.338258
0.337772
0.336767
0.330124
0.299913
0.224308
0.130032
0.0814879
0.340677
0.353718
0.337047
0.294635
0.257499
0.247474
0.269191
0.303695
0.327582
0.338181
0.341926
0.343228
0.343772
0.344137
0.344452
0.34479
0.345133
0.345514
0.345901
0.346343
0.346793
0.347321
0.347838
0.34845
0.349022
0.349722
0.350323
0.351107
0.351675
0.352514
0.353012
0.354049
0.354631
0.35611
0.356619
0.357937
0.357611
0.359247
0.359995
0.362475
0.363012
0.364668
0.363655
0.358098
0.346601
0.330344
0.325108
0.352683
0.37484
0.405266
0.413718
0.444201
0.511941
0.482823
0.379031
0.25537
0.216765
0.229527
0.274804
0.287814
0.295311
0.284891
0.28712
0.279276
0.283452
0.280607
0.289386
0.29352
0.303868
0.308923
0.317625
0.322432
0.327198
0.32868
0.328895
0.326337
0.323903
0.322507
0.322242
0.322113
0.323075
0.324681
0.326249
0.327345
0.32824
0.329607
0.330878
0.332616
0.333518
0.33495
0.335103
0.336319
0.335703
0.33433
0.326639
0.293903
0.216311
0.12531
0.0790321
0.340559
0.353562
0.336853
0.294419
0.257239
0.247143
0.268869
0.303489
0.327475
0.338114
0.34187
0.343172
0.343713
0.344074
0.344385
0.344717
0.345055
0.345429
0.345808
0.34624
0.346677
0.347191
0.347691
0.348281
0.34883
0.3495
0.350068
0.350811
0.351335
0.352118
0.352557
0.35352
0.354031
0.355418
0.355835
0.357002
0.356501
0.357864
0.358341
0.360344
0.360471
0.361298
0.359676
0.352447
0.339668
0.32105
0.31604
0.344882
0.369328
0.401318
0.41069
0.442702
0.51236
0.482596
0.373154
0.249743
0.210623
0.220844
0.264223
0.276355
0.284043
0.272925
0.275023
0.266533
0.270888
0.26785
0.277361
0.28216
0.293821
0.299991
0.310021
0.315913
0.321672
0.323828
0.324537
0.322207
0.319864
0.318461
0.318199
0.318071
0.319091
0.320814
0.322551
0.323825
0.324902
0.326468
0.327947
0.329897
0.330985
0.332573
0.332812
0.334047
0.33329
0.33151
0.322694
0.287401
0.208237
0.120724
0.0766601
0.340443
0.353408
0.336659
0.294204
0.256984
0.24682
0.268552
0.303283
0.327364
0.338041
0.341806
0.343107
0.343645
0.344002
0.344308
0.344635
0.344966
0.345332
0.345701
0.346121
0.346545
0.347041
0.347522
0.348088
0.348608
0.349244
0.349774
0.35047
0.350943
0.351661
0.352034
0.352913
0.353343
0.354624
0.354937
0.355935
0.355239
0.356298
0.356473
0.357947
0.35762
0.357531
0.355226
0.34617
0.331991
0.310806
0.305938
0.336036
0.362982
0.396747
0.407192
0.440905
0.51258
0.482055
0.366846
0.243551
0.203707
0.211093
0.25233
0.26358
0.271503
0.259703
0.261629
0.252453
0.256926
0.25365
0.263855
0.269315
0.282348
0.289725
0.301219
0.308338
0.315243
0.318194
0.319497
0.317454
0.31524
0.313849
0.313602
0.313483
0.31457
0.316421
0.318341
0.319807
0.321081
0.322859
0.324564
0.326746
0.328038
0.3298
0.330137
0.331395
0.330484
0.32826
0.318248
0.280405
0.200126
0.116276
0.0743687
0.34033
0.353254
0.336463
0.29399
0.256734
0.246503
0.26824
0.303076
0.327246
0.337961
0.341734
0.343034
0.343568
0.343919
0.34422
0.34454
0.344865
0.34522
0.345579
0.345985
0.346393
0.346869
0.347327
0.347864
0.348353
0.348949
0.349435
0.350077
0.350492
0.351136
0.351433
0.352216
0.352554
0.353715
0.35391
0.354718
0.353807
0.354527
0.354369
0.355259
0.354429
0.353331
0.350266
0.339234
0.323543
0.299603
0.294772
0.326069
0.355713
0.391477
0.403165
0.438777
0.512582
0.481166
0.360105
0.236809
0.196041
0.20031
0.239128
0.249487
0.257689
0.245256
0.246964
0.237084
0.241597
0.238039
0.24886
0.25495
0.269371
0.278025
0.291102
0.299592
0.307802
0.31168
0.313686
0.312004
0.309965
0.308608
0.308394
0.308294
0.309458
0.311449
0.313567
0.315239
0.316723
0.318727
0.320674
0.323107
0.324624
0.326579
0.327027
0.328312
0.327236
0.32453
0.313261
0.272919
0.192014
0.111961
0.0721518
0.340219
0.353101
0.336267
0.293778
0.256489
0.246193
0.267932
0.302867
0.327122
0.337871
0.341651
0.342949
0.343479
0.343825
0.344119
0.344432
0.344747
0.345092
0.345438
0.345828
0.346217
0.346671
0.347103
0.347607
0.348059
0.348609
0.349046
0.349625
0.349973
0.350534
0.350744
0.351417
0.351651
0.352675
0.352737
0.353332
0.352184
0.352529
0.352002
0.352251
0.35087
0.348668
0.344762
0.331608
0.314307
0.287455
0.282536
0.314923
0.347427
0.385426
0.398544
0.436279
0.512343
0.479891
0.352933
0.229552
0.187672
0.188575
0.22467
0.234124
0.242639
0.229662
0.231105
0.220533
0.224991
0.221113
0.232425
0.239082
0.254852
0.264821
0.279569
0.289563
0.299238
0.304183
0.307016
0.305776
0.303967
0.302674
0.302514
0.302448
0.303702
0.305843
0.308175
0.310069
0.311775
0.314017
0.316219
0.318922
0.320684
0.322851
0.323424
0.324741
0.323491
0.32027
0.307694
0.264953
0.183933
0.107776
0.0700012
0.340111
0.35295
0.336069
0.293566
0.256249
0.24589
0.267627
0.302654
0.32699
0.33777
0.341557
0.342852
0.343377
0.343716
0.344003
0.344307
0.344612
0.344945
0.345276
0.345647
0.346015
0.346442
0.346844
0.347311
0.34772
0.348218
0.348597
0.349105
0.349377
0.349842
0.349954
0.350504
0.350619
0.351488
0.351401
0.351757
0.350347
0.350279
0.349348
0.348896
0.346911
0.343507
0.338679
0.323269
0.304274
0.2744
0.269254
0.302556
0.33804
0.378507
0.393263
0.433371
0.511838
0.478194
0.34534
0.221829
0.178683
0.176025
0.20907
0.217597
0.226441
0.21305
0.214187
0.202972
0.207263
0.203042
0.214673
0.221795
0.238806
0.250082
0.266543
0.278152
0.289443
0.295603
0.299392
0.298689
0.297175
0.295982
0.295903
0.295889
0.297247
0.299553
0.302114
0.304243
0.306181
0.308671
0.311142
0.314131
0.316156
0.318556
0.319268
0.320624
0.31919
0.315425
0.301509
0.256522
0.175913
0.103711
0.067906
0.340005
0.3528
0.33587
0.293355
0.256013
0.245593
0.267325
0.302436
0.326847
0.337656
0.341448
0.34274
0.343258
0.34359
0.343868
0.344163
0.344457
0.344775
0.345089
0.345439
0.345782
0.346179
0.346546
0.346969
0.34733
0.347768
0.348081
0.348508
0.348693
0.34905
0.34905
0.34946
0.349441
0.350135
0.34988
0.349971
0.348274
0.34775
0.346379
0.345164
0.342523
0.337818
0.331986
0.314201
0.293455
0.260508
0.254986
0.288959
0.327475
0.370636
0.387249
0.43001
0.511041
0.476034
0.33734
0.213707
0.169186
0.162847
0.192515
0.200076
0.209238
0.195609
0.196406
0.18464
0.188647
0.184076
0.195809
0.203256
0.221318
0.233836
0.251989
0.265286
0.278323
0.285841
0.290724
0.290661
0.289516
0.288468
0.288504
0.288564
0.290042
0.292526
0.295331
0.297709
0.299889
0.302633
0.305382
0.308673
0.310979
0.313629
0.314495
0.315896
0.314273
0.30994
0.29467
0.247647
0.167975
0.0997554
0.0658538
0.339902
0.352651
0.335669
0.293146
0.255783
0.245302
0.267024
0.302212
0.326691
0.337527
0.341323
0.34261
0.343121
0.343444
0.343713
0.343996
0.344277
0.344578
0.344873
0.345199
0.345513
0.345875
0.346202
0.346575
0.346881
0.347251
0.347488
0.347823
0.347909
0.348143
0.348018
0.34827
0.3481
0.348596
0.348154
0.347951
0.34594
0.344917
0.343066
0.341025
0.337674
0.331571
0.324655
0.304396
0.281871
0.245875
0.239828
0.274156
0.315671
0.361727
0.380431
0.426149
0.509923
0.473371
0.328952
0.205267
0.159321
0.14928
0.175261
0.181805
0.191236
0.177586
0.178019
0.165842
0.169446
0.164547
0.176124
0.18372
0.202555
0.216179
0.235921
0.250928
0.265806
0.274814
0.280926
0.281616
0.280922
0.280072
0.280261
0.280423
0.282039
0.284714
0.287778
0.290418
0.292847
0.29585
0.298882
0.302485
0.305087
0.308005
0.309038
0.310494
0.308677
0.303762
0.287149
0.238357
0.160138
0.0958949
0.0638304
0.339801
0.352503
0.335467
0.292936
0.255557
0.245016
0.266724
0.301978
0.326519
0.33738
0.341178
0.34246
0.342963
0.343276
0.343534
0.343803
0.344069
0.344351
0.344623
0.344921
0.345203
0.345525
0.345806
0.346123
0.346365
0.346656
0.346808
0.347038
0.347013
0.347108
0.346842
0.346915
0.346576
0.346851
0.3462
0.345671
0.343317
0.341751
0.33938
0.33645
0.332334
0.324739
0.316663
0.29386
0.269564
0.23063
0.223919
0.258212
0.302591
0.351703
0.372734
0.42174
0.508454
0.47016
0.320201
0.1966
0.149253
0.135599
0.157633
0.163094
0.1727
0.159279
0.15934
0.146939
0.150033
0.144855
0.155995
0.163537
0.182779
0.197296
0.218427
0.235092
0.25185
0.262457
0.269927
0.271484
0.271333
0.270741
0.271128
0.271423
0.273198
0.276078
0.279414
0.282325
0.285009
0.288271
0.291588
0.295509
0.298418
0.301617
0.302832
0.304349
0.30234