/*--------------------------------*- C++ -*----------------------------------*\
| =========                 |                                                 |
| \\      /  F ield         | OpenFOAM: The Open Source CFD Toolbox           |
|  \\    /   O peration     | Version:  2412                                  |
|   \\  /    A nd           | Website:  www.openfoam.com                      |
|    \\/     M anipulation  |                                                 |
\*---------------------------------------------------------------------------*/
FoamFile
{
    version     2.0;
    format      ascii;
    arch        "LSB;label=32;scalar=64";
    class       volScalarField;
    location    "0.2";
    object      p;
}
// * * * * * * * * * * * * * * * * * * * * * * * * * * * * * * * * * * * * * //

dimensions      [0 2 -2 0 0 0 0];

internalField   nonuniform List<scalar> 
13077
(
113498
113371
113295
113119
113042
112888
112799
112638
112524
112350
112208
112003
111831
111583
111377
111069
110828
110439
110162
109666
109355
108721
108385
107566
107226
106160
105854
104451
104248
102368
102377
99802.9
100197
96601.1
97660.5
92555.7
94737.9
87404
91427.4
113511
113381
113303
113125
113049
112894
112805
112644
112530
112356
112214
112009
111837
111589
111384
111075
110835
110446
110168
109674
109362
108729
108392
107575
107232
106169
105861
104460
104254
102377
102383
99813.4
100202
96612.3
97664.6
92567.3
94740.5
87415.4
91428.1
80814.6
87814
72502.3
84132.7
62175.2
80542.9
48766.4
75991.1
27289.8
65033.8
-8507.34
47426.6
-64373.1
19022.5
-155324
8742.57
-80567.2
8431.62
-45686.7
16559.3
-13435.6
27248.5
7220.16
34264.4
22158.5
41101.1
33842.7
46936.8
42746.2
51619.6
113524
113392
113312
113132
113055
112900
112811
112650
112536
112362
112219
112015
111843
111595
111390
111082
110841
110453
110175
109681
109369
108737
108399
107583
107239
106177
105867
104469
104260
102387
102388
99823.8
100207
96623.5
97668.7
92579
94743.3
87427
91428.9
80824.3
87812.7
72511
84132.6
62189.5
80554.6
48803.6
76031.4
27343.7
65070.3
-8476.28
47452
-64417.1
18924.7
-155811
8698.15
-80576.1
8395.17
-45700.7
16539.7
-13408.3
27251.7
7240.05
34260.8
22173.6
41102.7
33858.2
46942.1
42761.8
51625.3
49312.5
55304.9
54200.4
58273.7
57857.1
60739.8
60831.2
63079.8
63608.6
65475.2
66205
67659.4
68397.4
69464.3
70142.9
70892.1
71544.2
72073.4
72758.5
73112.2
73890
74069.8
75038.4
75002.2
76325.8
75938
77896.7
76870.2
79959.7
77889.4
113537
113403
113322
113139
113062
112906
112817
112655
112542
112367
112225
112021
111849
111601
111396
111089
110848
110460
110182
109689
109376
108745
108406
107591
107246
106186
105874
104478
104266
102396
102394
99834.3
100212
96634.8
97672.9
92590.8
94746.1
87438.7
91429.9
80834.3
87811.6
72519.9
84132.7
62203.9
80566.2
48840.7
76071.2
27397.7
65106.7
-8444.81
47477.7
-64460.4
18827.1
-156302
8650.73
-80585.2
8358.94
-45714.2
16520.5
-13380.9
27254.9
7259.95
34257.1
22188.7
41104.3
33873.7
46947.1
42777.3
51631
49325.3
55309.1
54209.8
58275.2
57861.4
60737.7
60831.1
63076.3
63608.3
65474.5
66207
67661
68400.3
69466.2
70144.4
70892.3
71543.1
72071.4
72754.6
73108.1
73883.3
74063.7
75028.9
74994.3
76314
75928.7
77885
76860.4
79959.8
77880.9
113551
113413
113332
113146
113069
112912
112823
112661
112547
112373
112231
112027
111855
111608
111402
111095
110854
110467
110189
109696
109383
108752
108413
107599
107253
106194
105880
104487
104272
102406
102399
99844.8
100218
96646.2
97677
92602.7
94749
87450.5
91430.9
80844.5
87810.6
72529.1
84132.9
62218.6
80577.8
48877.7
76110.7
27451.7
65143.3
-8412.92
47503.8
-64502.9
18729.4
-156798
8600.64
-80594.4
8322.78
-45727.3
16501.7
-13353.5
27258
7279.83
34253.4
22203.8
41105.8
33889.2
46952.1
42792.8
51636.5
49338
55313.1
54219.2
58276.8
57865.8
60735.6
60831.1
63072.9
63608.1
65473.8
66209
67662.7
68403.1
69468.2
70145.9
70892.6
71542
72069.6
72750.8
73104.2
73876.7
74057.8
75019.5
74986.7
76302.5
75919.7
77873.7
76851.3
79960.4
77872.9
113564
113424
113341
113153
113075
112917
112829
112667
112553
112379
112236
112033
111861
111614
111408
111102
110861
110474
110195
109704
109390
108760
108420
107607
107259
106203
105886
104496
104278
102416
102405
99855.4
100223
96657.6
97681.2
92614.6
94751.8
87462.3
91431.9
80854.8
87809.7
72538.3
84133.2
62233.3
80589.4
48915
76150.5
27506
65180.1
-8380.71
47530.4
-64544.8
18631.3
-157298
8549.07
-80603.4
8286.2
-45740.7
16482.8
-13325.9
27261.1
7299.65
34249.6
22218.8
41107.3
33904.7
46957
42808.2
51641.9
49350.6
55317
54228.6
58278.2
57870.2
60733.6
60831.1
63069.6
63608
65473.2
66211.1
67664.4
68405.9
69470.1
70147.4
70892.9
71540.9
72067.7
72747.1
73100.4
73870.2
74051.9
75010.2
74979.2
76291.2
75911
77862.5
76842.6
79961.2
77865.4
113578
113436
113351
113160
113082
112923
112835
112673
112559
112385
112242
112039
111866
111620
111415
111109
110867
110481
110202
109711
109397
108768
108426
107616
107266
106212
105893
104505
104284
102426
102411
99866
100228
96669.1
97685.4
92626.6
94754.7
87474.2
91433
80865.1
87808.8
72547.6
84133.4
62248.1
80601.2
48952.5
76190.6
27560.9
65217.2
-8348.17
47557.3
-64586
18532.6
-157802
8496.12
-80612.2
8249.11
-45754.5
16463.9
-13298.1
27264
7319.38
34245.6
22233.8
41108.6
33920.2
46961.9
42823.7
51647.4
49363.2
55320.9
54238
58279.7
57874.5
60731.5
60831.1
63066.2
63607.8
65472.5
66213.2
67666.1
68408.8
69472.1
70148.9
70893.1
71539.8
72065.9
72743.3
73096.5
73863.7
74046.1
75000.9
74971.7
76279.7
75902.3
77851.3
76834.1
79962.1
77858.1
113592
113447
113361
113168
113089
112929
112841
112679
112565
112391
112248
112045
111872
111626
111421
111115
110874
110488
110209
109719
109404
108776
108433
107624
107273
106220
105899
104514
104291
102435
102417
99876.7
100233
96680.6
97689.7
92638.6
94757.6
87486.2
91434
80875.4
87807.8
72556.9
84133.6
62263
80613
48990.4
76231.1
27616.2
65254.6
-8315.28
47584.8
-64626.6
18433.3
-158309
8441.67
-80620.9
8211.49
-45768.7
16444.8
-13270.4
27266.9
7338.99
34241.4
22248.7
41109.9
33935.5
46966.7
42839.2
51652.8
49375.9
55324.8
54247.3
58281.1
57878.9
60729.3
60831
63062.8
63607.6
65471.9
66215.3
67667.8
68411.7
69474.1
70150.5
70893.4
71538.7
72064.1
72739.5
73092.6
73857.1
74040.2
74991.6
74964.2
76268.2
75893.5
77839.9
76825.8
79963
77851.1
113606
113458
113371
113175
113096
112935
112847
112684
112570
112396
112254
112051
111878
111633
111427
111122
110880
110495
110216
109726
109411
108784
108441
107632
107280
106229
105906
104523
104297
102445
102422
99887.4
100238
96692.2
97693.9
92650.7
94760.5
87498.2
91435.1
80885.9
87806.9
72566.2
84133.9
62277.9
80624.9
49028.6
76272
27671.9
65292.4
-8282.02
47612.6
-64666.4
18333.6
-158820
8385.61
-80629.3
8173.3
-45783.3
16425.6
-13242.6
27269.6
7358.44
34236.9
22263.4
41110.9
33950.8
46971.4
42854.6
51658.1
49388.5
55328.6
54256.7
58282.4
57883.2
60727.1
60830.8
63059.3
63607.4
65471.2
66217.4
67669.5
68414.6
69476.1
70152
70893.7
71537.6
72062.2
72735.7
73088.7
73850.5
74034.3
74982.2
74956.6
76256.5
75884.7
77828.3
76817.6
79963.8
77844.3
113620
113469
113381
113182
113103
112941
112853
112690
112576
112402
112259
112057
111884
111639
111433
111129
110887
110503
110223
109734
109418
108792
108448
107641
107287
106238
105912
104533
104303
102455
102428
99898.2
100243
96703.8
97698.2
92662.9
94763.5
87510.4
91436.1
80896.4
87806
72575.6
84134.1
62293
80637
49067.2
76313.3
27728.2
65330.5
-8248.35
47641
-64705.5
18233.4
-159334
8327.89
-80637.7
8134.47
-45798.5
16406.1
-13214.9
27272.1
7377.68
34232.2
22278
41111.8
33966
46976
42870
51663.3
49401.1
55332.4
54266
58283.7
57887.4
60724.8
60830.7
63055.7
63607.2
65470.5
66219.5
67671.2
68417.5
69478.1
70153.5
70893.9
71536.5
72060.3
72731.9
73084.8
73843.9
74028.4
74972.7
74949
76244.8
75875.8
77816.7
76809.7
79964.5
77837.8
113634
113481
113392
113190
113109
112946
112859
112696
112582
112408
112265
112063
111890
111645
111440
111135
110893
110510
110230
109742
109425
108800
108455
107649
107294
106246
105919
104542
104309
102465
102434
99909
100249
96715.5
97702.5
92675.1
94766.4
87522.6
91437.2
80906.9
87805.2
72585.1
84134.5
62308.3
80649.3
49106.3
76355.1
27785.1
65369
-8214.26
47670
-64743.8
18132.7
-159852
8268.39
-80646.1
8094.93
-45814.3
16386.3
-13187.3
27274.4
7396.66
34227.1
22292.3
41112.4
33981.1
46980.4
42885.3
51668.5
49413.6
55336.1
54275.4
58285
57891.7
60722.5
60830.4
63052.1
63606.9
65469.8
66221.6
67672.9
68420.4
69480.1
70155
70894.2
71535.4
72058.4
72728.1
73080.8
73837.2
74022.4
74963.1
74941.3
76232.9
75866.9
77804.9
76802
79965.2
77831.5
113649
113493
113402
113197
113116
112952
112865
112702
112588
112414
112271
112069
111896
111652
111446
111142
110900
110517
110236
109749
109432
108808
108462
107658
107301
106255
105926
104551
104315
102475
102440
99919.8
100254
96727.2
97706.8
92687.4
94769.4
87534.8
91438.4
80917.5
87804.4
72594.7
84134.9
62323.7
80661.9
49145.8
76397.4
27842.5
65407.9
-8179.7
47699.4
-64781.3
18031.7
-160374
8207.03
-80654.4
8054.6
-45830.7
16366.2
-13159.9
27276.3
7415.3
34221.6
22306.4
41112.8
33995.9
46984.5
42900.4
51673.5
49426
55339.7
54284.6
58286.2
57895.8
60720.1
60830.1
63048.4
63606.6
65469.1
66223.7
67674.6
68423.4
69482.1
70156.6
70894.4
71534.2
72056.5
72724.2
73076.9
73830.5
74016.3
74953.5
74933.5
76220.9
75858
77793
76794.5
79965.9
77825.4
113664
113504
113412
113204
113123
112958
112871
112708
112594
112420
112277
112075
111902
111658
111452
111149
110907
110524
110243
109757
109439
108817
108469
107666
107308
106264
105932
104560
104321
102485
102445
99930.7
100259
96739
97711.1
92699.7
94772.4
87547.2
91439.6
80928.3
87803.6
72604.4
84135.4
62339.4
80674.7
49185.9
76440.2
27900.6
65447.3
-8144.64
47729.5
-64817.9
17930.2
-160900
8143.67
-80662.9
8013.38
-45847.9
16345.5
-13132.7
27277.9
7433.54
34215.7
22320.1
41112.8
34010.4
46988.5
42915.3
51678.3
49438.3
55343.2
54293.8
58287.3
57899.9
60717.5
60829.7
63044.6
63606.2
65468.3
66225.8
67676.3
68426.3
69484.1
70158.1
70894.6
71533
72054.5
72720.3
73072.8
73823.7
74010.3
74943.8
74925.7
76208.8
75849
77781.1
76787.3
79966.6
77819.7
113678
113516
113422
113211
113130
112964
112877
112714
112600
112426
112283
112081
111908
111664
111459
111156
110913
110531
110250
109765
109446
108825
108476
107675
107315
106273
105939
104570
104328
102495
102451
99941.7
100264
96750.9
97715.5
92712.2
94775.5
87559.6
91440.8
80939.1
87802.9
72614.2
84136
62355.3
80687.9
49226.6
76483.7
27959.4
65487.2
-8109.02
47760.2
-64853.5
17828.4
-161430
8078.2
-80671.7
7971.16
-45866
16324.4
-13106
27278.9
7451.27
34209.3
22333.4
41112.4
34024.7
46992.1
42930.1
51682.9
49450.5
55346.6
54303
58288.3
57904
60714.9
60829.2
63040.7
63605.7
65467.4
66227.8
67678
68429.2
69486.1
70159.6
70894.8
71531.8
72052.5
72716.4
73068.8
73816.9
74004.1
74934
74917.9
76196.6
75839.9
77769
76780.4
79967.3
77814.2
113694
113528
113433
113219
113137
112970
112883
112720
112605
112432
112289
112087
111915
111671
111465
111163
110920
110539
110257
109773
109453
108833
108483
107683
107322
106282
105946
104579
104334
102505
102457
99952.7
100270
96762.8
97719.9
92724.7
94778.5
87572.2
91442.1
80950
87802.2
72624.2
84136.8
62371.5
80701.4
49268.1
76527.8
28019
65527.6
-8072.8
47791.7
-64888.2
17726.2
-161963
8010.46
-80680.8
7927.82
-45885.1
16302.5
-13079.7
27279.3
7468.4
34202.2
22346.2
41111.5
34038.5
46995.3
42944.5
51687.2
49462.5
55349.7
54312
58289.2
57907.9
60712.2
60828.6
63036.7
63605.2
65466.6
66229.8
67679.6
68432
69488
70161
70894.9
71530.5
72050.5
72712.4
73064.7
73810
73998
74924.2
74910
76184.3
75830.9
77756.8
76773.7
79967.9
77809
113709
113540
113444
113226
113143
112975
112889
112726
112611
112438
112295
112093
111921
111677
111472
111170
110927
110546
110264
109780
109461
108841
108490
107692
107329
106291
105952
104588
104340
102515
102463
99963.8
100275
96774.8
97724.3
92737.2
94781.7
87584.8
91443.4
80961.1
87801.7
72634.3
84137.7
62388.1
80715.5
49310.3
76572.6
28079.4
65568.7
-8035.89
47823.8
-64921.9
17623.9
-162501
7940.3
-80690.5
7883.2
-45905.3
16279.9
-13054
27279
7484.81
34194.5
22358.3
41110
34051.9
46998
42958.6
51691.2
49474.2
55352.7
54320.8
58289.9
57911.7
60709.3
60827.9
63032.6
63604.6
65465.6
66231.8
67681.2
68434.9
69489.9
70162.4
70895
71529.2
72048.4
72708.4
73060.5
73803.1
73991.7
74914.2
74902
76171.8
75821.8
77744.5
76767.3
79968.5
77804.1
113725
113552
113454
113234
113150
112981
112895
112732
112617
112444
112300
112099
111927
111684
111478
111176
110934
110553
110271
109788
109468
108849
108498
107700
107336
106300
105959
104598
104346
102525
102469
99974.9
100280
96786.9
97728.8
92749.9
94784.8
87597.5
91444.8
80972.3
87801.3
72644.7
84138.9
62405.2
80730
49353.5
76618.3
28140.8
65610.4
-7998.24
47856.8
-64954.5
17521.3
-163042
7867.51
-80701
7837.16
-45926.8
16256.4
-13029.1
27277.9
7500.36
34185.8
22369.8
41107.8
34064.6
47000.2
42972.3
51694.7
49485.7
55355.4
54329.5
58290.5
57915.4
60706.3
60827.1
63028.4
63604
65464.6
66233.7
67682.7
68437.7
69491.7
70163.8
70895.1
71527.9
72046.3
72704.3
73056.3
73796.1
73985.4
74904.2
74894
76159.3
75812.6
77732.2
76761.3
79969.1
77799.5
113740
113564
113465
113241
113157
112987
112901
112738
112623
112450
112306
112106
111933
111690
111484
111183
110940
110561
110278
109796
109475
108858
108505
107709
107343
106309
105966
104607
104353
102535
102475
99986.1
100286
96799
97733.3
92762.6
94788
87610.4
91446.3
80983.6
87801
72655.2
84140.3
62422.7
80745.2
49397.7
76664.9
28203.2
65653
-7959.73
47890.7
-64986
17418.5
-163588
7791.9
-80712.4
7789.5
-45949.7
16231.8
-13005.2
27275.7
7514.91
34176.2
22380.4
41104.7
34076.7
47001.7
42985.4
51697.8
49496.8
55357.8
54338
58290.8
57918.9
60703.1
60826.1
63024.1
63603.2
65463.5
66235.6
67684.2
68440.4
69493.5
70165.1
70895.1
71526.5
72044.1
72700.2
73052.1
73789
73979.1
74894.1
74885.9
76146.6
75803.5
77719.9
76755.6
79969.7
77795.3
113756
113577
113476
113248
113164
112993
112907
112744
112629
112456
112312
112112
111939
111697
111491
111190
110947
110568
110286
109804
109482
108866
108512
107718
107350
106318
105972
104617
104359
102546
102481
99997.3
100291
96811.2
97737.8
92775.5
94791.3
87623.3
91447.8
80995.1
87800.8
72666.1
84142.1
62440.8
80761.1
49443.1
76712.6
28266.8
65696.4
-7920.29
47925.6
-65016.2
17315.8
-164137
7713.25
-80725
7740.04
-45974.1
16205.9
-12982.4
27272.3
7528.29
34165.5
22390
41100.8
34087.9
47002.4
42997.9
51700.3
49507.4
55359.8
54346.2
58290.9
57922.2
60699.7
60825
63019.5
63602.3
65462.3
66237.3
67685.6
68443.1
69495.3
70166.4
70895
71525
72041.8
72696
73047.8
73781.9
73972.7
74884
74877.7
76133.8
75794.3
77707.5
76750.3
79970.3
77791.4
113772
113589
113487
113256
113171
112998
112913
112750
112635
112462
112318
112118
111945
111703
111497
111197
110954
110576
110293
109812
109490
108874
108520
107726
107357
106327
105979
104626
104365
102556
102487
100009
100297
96823.5
97742.4
92788.4
94794.7
87636.5
91449.5
81006.7
87800.9
72677.2
84144.1
62459.5
80777.8
49489.7
76761.4
28331.7
65740.8
-7879.77
47961.6
-65045
17213
-164691
7631.31
-80739
7688.57
-46000.3
16178.6
-12961
27267.5
7540.32
34153.6
22398.5
41095.7
34098.1
47002.1
43009.6
51702.1
49517.5
55361.3
54354
58290.7
57925.3
60696.1
60823.7
63014.9
63601.3
65461
66239
67686.9
68445.6
69496.9
70167.5
70894.8
71523.5
72039.5
72691.7
73043.4
73774.7
73966.2
74873.7
74869.5
76120.9
75785.1
77695
76745.4
79971
77787.8
113789
113602
113497
113263
113177
113004
112919
112756
112641
112468
112324
112124
111951
111710
111504
111204
110961
110583
110300
109820
109497
108883
108527
107735
107364
106336
105986
104636
104372
102566
102493
100020
100302
96835.8
97747
92801.5
94798.1
87649.7
91451.3
81018.6
87801.1
72688.7
84146.6
62478.9
80795.4
49537.8
76811.4
28398
65786.3
-7838.05
47998.8
-65072.4
17110.3
-165248
7545.82
-80754.9
7634.86
-46028.4
16149.6
-12941.3
27261.1
7550.82
34140.2
22405.7
41089.3
34107.2
47000.8
43020.4
51703.1
49527
55362.3
54361.4
58290.2
57928.1
60692.3
60822.1
63010
63600.1
65459.5
66240.6
67688.1
68448.1
69498.4
70168.6
70894.5
71521.8
72037.1
72687.3
73038.9
73767.5
73959.7
74863.3
74861.2
76107.9
75775.9
77682.6
76740.9
79971.6
77784.6
113806
113615
113509
113271
113184
113010
112925
112762
112647
112474
112330
112130
111958
111717
111510
111211
110968
110591
110307
109828
109504
108891
108534
107744
107371
106345
105993
104646
104378
102577
102499
100031
100308
96848.3
97751.7
92814.6
94801.5
87663.1
91453.2
81030.7
87801.6
72700.6
84149.6
62499.2
80814
49587.4
76862.8
28465.9
65833.2
-7794.96
48037.3
-65098.2
17007.9
-165810
7456.5
-80772.8
7578.71
-46058.6
16118.8
-12923.3
27252.8
7559.58
34125.2
22411.4
41081.5
34115
46998.2
43030.1
51703.1
49535.7
55362.6
54368.4
58289.2
57930.6
60688.1
60820.4
63004.9
63598.7
65457.9
66242
67689.1
68450.5
69499.8
70169.5
70894.1
71520
72034.6
72682.9
73034.4
73760.1
73953.1
74852.9
74852.9
76094.8
75766.7
77670.2
76736.8
79972.3
77781.8
113822
113628
113520
113278
113191
113016
112931
112768
112653
112480
112336
112137
111964
111723
111517
111218
110975
110598
110314
109836
109512
108899
108542
107753
107379
106354
106000
104655
104385
102587
102505
100043
100313
96860.8
97756.4
92827.9
94805.1
87676.7
91455.3
81043.1
87802.4
72713
84153
62520.4
80833.7
49638.7
76915.7
28535.6
65881.4
-7750.34
48077.4
-65122.3
16905.8
-166376
7363.07
-80793
7519.92
-46091
16085.9
-12907.5
27242.6
7566.41
34108.4
22415.4
41072.1
34121.4
46994.1
43038.6
51702
49543.6
55362.2
54374.8
58287.7
57932.7
60683.6
60818.3
62999.6
63597.2
65456.2
66243.3
67690
68452.7
69501.1
70170.3
70893.5
71518.2
72031.9
72678.3
73029.8
73752.7
73946.4
74842.3
74844.4
76081.6
75757.5
77657.9
76733.2
79972.9
77779.4
113840
113641
113531
113286
113198
113022
112937
112774
112659
112486
112342
112143
111970
111730
111524
111225
110982
110606
110321
109844
109519
108908
108549
107762
107386
106364
106007
104665
104391
102598
102511
100054
100319
96873.4
97761.3
92841.3
94808.8
87690.4
91457.6
81055.7
87803.4
72725.8
84157.1
62542.5
80854.7
49691.9
76970.2
28607.2
65931.3
-7703.98
48119.2
-65144.5
16804.1
-166946
7265.23
-80815.9
7458.3
-46125.8
16050.8
-12894
27230
7571.12
34089.7
22417.7
41061
34126.1
46988.5
43045.7
51699.6
49550.4
55360.9
54380.5
58285.7
57934.4
60678.7
60816
62994
63595.4
65454.2
66244.3
67690.7
68454.7
69502.2
70170.9
70892.8
71516.1
72029.2
72673.7
73025
73745.1
73939.6
74831.7
74835.9
76068.2
75748.3
77645.6
76730
79973.6
77777.4
113857
113654
113542
113293
113205
113027
112943
112780
112665
112492
112348
112149
111976
111736
111530
111233
110989
110613
110329
109852
109527
108916
108557
107771
107393
106373
106014
104675
104398
102608
102517
100066
100325
96886.1
97766.2
92854.8
94812.6
87704.4
91460
81068.7
87804.8
72739.2
84161.8
62565.8
80877
49746.9
77026.4
28681
65982.9
-7655.66
48162.9
-65164.6
16703.1
-167520
7162.7
-80841.7
7393.71
-46163
16013.2
-12883.2
27214.9
7573.53
34069
22417.9
41047.8
34129
46981
43051.1
51695.7
49556.1
55358.6
54385.4
58283
57935.5
60673.4
60813.3
62988.1
63593.4
65452
66245.2
67691.2
68456.5
69503
70171.4
70892
71513.9
72026.3
72668.9
73020.2
73737.4
73932.7
74820.9
74827.3
76054.8
75739.2
77633.5
76727.4
79974.3
77775.7
113875
113667
113554
113301
113211
113033
112949
112786
112671
112498
112354
112156
111983
111743
111537
111240
110996
110621
110336
109860
109534
108925
108564
107780
107401
106382
106021
104685
104404
102619
102523
100078
100331
96899
97771.1
92868.5
94816.5
87718.6
91462.7
81082
87806.6
72753.2
84167.3
62590.3
80900.7
49804.1
77084.3
28757.1
66036.6
-7605.12
48208.7
-65182.4
16602.9
-168099
7055.18
-80870.7
7326.06
-46202.5
15973.1
-12875.3
27197.2
7573.5
34046.1
22416.2
41032.6
34129.9
46971.5
43054.9
51690.1
49560.4
55355.1
54389.5
58279.5
57936.1
60667.6
60810.2
62981.9
63591.2
65449.6
66245.9
67691.5
68458.1
69503.7
70171.6
70890.9
71511.5
72023.2
72663.9
73015.2
73729.6
73925.6
74810
74818.7
76041.3
75730.1
77621.4
76725.2
79975
77774.5
113893
113680
113565
113308
113218
113039
112955
112792
112677
112504
112360
112162
111989
111750
111544
111247
111003
110629
110343
109868
109542
108934
108572
107789
107408
106392
106028
104695
104411
102629
102529
100090
100336
96912
97776.2
92882.3
94820.6
87733
91465.6
81095.6
87808.9
72767.8
84173.6
62616.1
80926
49863.3
77144.2
28835.6
66092.6
-7552.1
48256.9
-65197.8
16503.7
-168681
6942.41
-80902.9
7255.38
-46244.5
15930.3
-12870.4
27176.5
7570.94
34020.9
22412.3
41015.3
34128.8
46959.8
43056.7
51682.7
49563.1
55350.2
54392.4
58275.1
57935.9
60661.2
60806.7
62975.3
63588.6
65446.9
66246.3
67691.5
68459.4
69504.1
70171.6
70889.6
71508.9
72019.9
72658.8
73010
73721.7
73918.5
74799
74809.9
76027.6
75721.1
77609.5
76723.5
79975.8
77773.6
113911
113694
113577
113316
113225
113044
112961
112799
112683
112510
112366
112168
111995
111757
111550
111254
111010
110636
110351
109876
109549
108942
108579
107798
107415
106401
106035
104704
104418
102640
102536
100101
100342
96925
97781.4
92896.3
94824.9
87747.7
91468.7
81109.7
87811.6
72783.2
84180.8
62643.3
80952.9
49924.6
77205.8
28916.8
66151.1
-7496.28
48307.7
-65210.3
16405.6
-169268
6824.14
-80938.6
7181.75
-46288.5
15884.9
-12868.8
27152.9
7565.8
33993.5
22406.2
40995.7
34125.7
46946
43056.4
51673.3
49564.2
55343.9
54394.2
58269.8
57935.1
60654.2
60802.7
62968.4
63585.7
65443.8
66246.4
67691.2
68460.5
69504.2
70171.3
70888
71506.1
72016.4
72653.5
73004.7
73713.6
73911.2
74787.9
74801.1
76013.9
75712.1
77597.8
76722.4
79976.5
77773.1
113929
113707
113588
113323
113232
113050
112967
112805
112689
112517
112373
112175
112002
111763
111557
111261
111017
110644
110358
109884
109557
108951
108587
107807
107423
106411
106042
104714
104424
102651
102542
100113
100348
96938.3
97786.7
92910.6
94829.3
87762.6
91472.2
81124.3
87814.8
72799.5
84189
62672.1
80981.6
49988.1
77269.4
29000.7
66212.4
-7437.36
48361.5
-65219.8
16309
-169860
6700.14
-80977.7
7105.4
-46334.3
15837
-12870.4
27126.4
7558.12
33963.9
22398.1
40973.9
34120.4
46929.8
43054
51661.7
49563.5
55335.9
54394.6
58263.3
57933.3
60646.5
60798.1
62960.9
63582.5
65440.5
66246.1
67690.6
68461.2
69504
70170.7
70886.1
71503
72012.7
72648
72999.2
73705.3
73903.8
74776.6
74792.2
76000.1
75703.3
77586.3
76721.7
79977.3
77773
113948
113721
113600
113331
113238
113056
112973
112811
112695
112523
112379
112181
112008
111770
111564
111268
111024
110652
110365
109893
109564
108960
108595
107816
107430
106420
106049
104725
104431
102662
102549
100126
100354
96951.7
97792.2
92925
94833.9
87777.9
91476
81139.3
87818.7
72816.6
84198.3
62702.4
81011.9
50053.6
77334.6
29087.5
66276.6
-7374.97
48418.4
-65226
16214
-170456
6570.24
-81020.1
7026.71
-46381.5
15786.9
-12875.2
27096.9
7548.05
33932.3
22388.1
40950.1
34113.2
46911.4
43049.4
51647.9
49560.9
55326.1
54393.5
58255.6
57930.5
60638
60793
62953.1
63578.9
65436.8
66245.6
67689.6
68461.5
69503.4
70169.7
70883.9
71499.6
72008.7
72642.2
72993.5
73696.9
73896.3
74765.2
74783.1
75986.2
75694.5
77575
76721.6
79978
77773.3
113967
113735
113612
113338
113245
113062
112979
112817
112701
112529
112385
112187
112014
111777
111570
111276
111031
110659
110373
109901
109572
108968
108602
107825
107438
106430
106056
104735
104438
102673
102555
100138
100361
96965.2
97797.8
92939.6
94838.8
87793.6
91480.2
81154.9
87823.2
72834.6
84208.7
62734.3
81044.1
50120.9
77401.4
29177.1
66344.1
-7308.77
48479
-65228.5
16121
-171056
6434.28
-81065.7
6946.19
-46429.2
15734.9
-12883
27064.6
7535.84
33898.9
22376.5
40924.5
34104.2
46890.8
43042.7
51631.8
49556.2
55314.4
54390.9
58246.5
57926.7
60628.7
60787.2
62944.7
63574.8
65432.6
66244.6
67688.2
68461.5
69502.4
70168.4
70881.4
71495.9
72004.4
72636.2
72987.6
73688.2
73888.6
74753.6
74774
75972.3
75686
77564.1
76722
79978.7
77773.9
113986
113749
113624
113346
113252
113067
112985
112824
112707
112535
112391
112194
112021
111784
111577
111283
111038
110667
110380
109909
109580
108977
108610
107834
107445
106439
106063
104745
104445
102684
102562
100150
100367
96978.9
97803.6
92954.5
94843.9
87809.5
91484.8
81171.1
87828.4
72853.7
84220.4
62768
81077.9
50189.9
77469.4
29269.6
66415
-7238.38
48543.5
-65226.9
16030.2
-171661
6292.17
-81114
6864.5
-46476.8
15681.8
-12893.4
27029.9
7521.86
33864.2
22363.6
40897.4
34093.9
46868.3
43034
51613.5
49549.5
55300.7
54386.5
58235.8
57921.7
60618.4
60780.7
62935.7
63570.3
65428.1
66243.2
67686.4
68461
69501
70166.7
70878.5
71491.9
71999.8
72629.9
72981.4
73679.4
73880.7
74741.9
74764.9
75958.3
75677.5
77553.4
76723
79979.4
77774.8
114006
113763
113636
113353
113258
113073
112991
112830
112713
112541
112397
112200
112027
111790
111584
111290
111045
110675
110388
109918
109587
108986
108618
107844
107453
106449
106071
104755
104452
102695
102568
100163
100374
96992.9
97809.5
92969.7
94849.3
87825.9
91489.9
81187.9
87834.4
72873.9
84233.3
62803.4
81113.5
50260.3
77538.4
29364.7
66489.5
-7163.46
48612.3
-65221
15942
-172271
6143.84
-81164.7
6782.46
-46523.2
15628.3
-12905.9
26993.2
7506.6
33828.7
22350.1
40869.4
34082.5
46844.3
43023.7
51593
49540.8
55284.9
54380.3
58223.6
57915.5
60607.1
60773.5
62926.2
63565.3
65423.1
66241.4
67684.1
68460
69499.1
70164.5
70875.2
71487.5
71994.9
72623.3
72975
73670.3
73872.6
74730
74755.6
75944.3
75669.3
77543
76724.4
79980.1
77776.1
114026
113778
113649
113361
113265
113079
112998
112836
112720
112548
112403
112207
112034
111797
111591
111298
111052
110683
110395
109926
109595
108995
108626
107853
107461
106459
106078
104766
104459
102707
102575
100175
100380
97007
97815.7
92985.2
94855
87842.8
91495.4
81205.4
87841.2
72895.3
84247.7
62840.6
81150.6
50331.6
77607.8
29462.1
66567.6
-7083.64
48685.8
-65210.2
15856.7
-172885
5989.29
-81217.2
6700.96
-46567.3
15575.4
-12919.9
26955
7490.65
33793
22336.4
40841
34070.7
46819.2
43012
51570.9
49530.3
55267.2
54372.3
58209.8
57907.9
60594.7
60765.5
62916.1
63559.8
65417.6
66239.1
67681.4
68458.6
69496.8
70161.9
70871.4
71482.7
71989.7
72616.4
72968.2
73661
73864.3
74718
74746.2
75930.3
75661.4
77533.1
76726.3
79980.6
77777.6
114046
113792
113661
113368
113271
113084
113004
112842
112726
112554
112410
112213
112040
111804
111598
111305
111060
110691
110403
109934
109603
109004
108634
107862
107469
106469
106085
104776
104466
102718
102582
100188
100387
97021.3
97822.1
93001
94861.1
87860
91501.5
81223.6
87848.8
72917.8
84263.5
62879.6
81189.3
50403.4
77677.2
29561.5
66649.3
-6998.64
48764.3
-65194.2
15774.7
-173504
5828.55
-81271.1
6620.99
-46608.1
15524.2
-12934.5
26916.2
7474.71
33757.7
22323.2
40812.8
34059.2
46793.8
42999.7
51547.3
49518.4
55247.6
54362.5
58194.2
57898.9
60581.2
60756.6
62905.3
63553.9
65411.7
66236.3
67678.1
68456.6
69493.9
70158.8
70867.2
71477.5
71984
72609.2
72961.3
73651.5
73855.8
74705.9
74736.8
75916.4
75653.6
77523.5
76728.7
79981.1
77779.5
114067
113807
113673
113376
113278
113090
113010
112849
112732
112560
112416
112220
112047
111811
111605
111312
111067
110699
110411
109943
109611
109013
108642
107872
107476
106479
106093
104786
104473
102730
102589
100201
100394
97035.9
97828.8
93017.1
94867.5
87877.8
91508.2
81242.6
87857.4
72941.7
84280.8
62920.2
81229.2
50475.1
77745.8
29662.3
66734.5
-6908.2
48848.1
-65172.6
15696.5
-174127
5661.69
-81325.5
6543.5
-46644.4
15475.8
-12948.6
26877.6
7459.53
33723.7
22311.3
40785.6
34048.5
46768.5
42987.2
51522.9
49505.3
55226.5
54351
58177.1
57888.6
60566.6
60747
62894
63547.4
65405.2
66233
67674.3
68454.1
69490.5
70155.2
70862.6
71471.9
71978
72601.7
72954
73641.7
73847.2
74693.6
74727.4
75902.5
75646.3
77514.4
76731.6
79981.5
77781.6
114088
113821
113686
113384
113285
113095
113016
112855
112738
112567
112422
112226
112053
111818
111611
111320
111074
110707
110418
109951
109619
109022
108650
107881
107484
106489
106100
104797
104480
102741
102596
100214
100401
97050.8
97835.7
93033.6
94874.3
87896.2
91515.4
81262.4
87867.1
72966.9
84299.6
62962.5
81270.1
50546.3
77813
29763.8
66823
-6812.17
48937.5
-65144.8
15622.5
-174756
5488.79
-81380
6469.43
-46675.3
15431.5
-12961.4
26840
7445.85
33691.6
22301.3
40760.1
34039.4
46744.2
42975.2
51498.2
49491.7
55204.2
54338.2
58158.4
57876.9
60551
60736.5
62882
63540.4
65398.3
66229.2
67670
68451.1
69486.5
70151
70857.4
71465.8
71971.6
72593.8
72946.4
73631.6
73838.3
74681.2
74717.9
75888.7
75639.2
77505.7
76735
79981.9
77784
114109
113836
113699
113391
113291
113101
113022
112862
112744
112573
112428
112233
112060
111825
111618
111327
111082
110715
110426
109960
109627
109031
108658
107891
107492
106499
106108
104808
104488
102753
102604
100228
100408
97065.9
97842.9
93050.5
94881.6
87915.1
91523.3
81283.1
87877.7
72993.4
84319.9
63006.4
81311.9
50616.3
77878
29865.1
66914.2
-6710.49
49032.8
-65110.5
15553.1
-175390
5310.01
-81433.8
6399.58
-46699.9
15392.2
-12971.9
26804.3
7434.4
33662.2
22293.8
40736.9
34032.3
46721.6
42964.4
51474.1
49478
55181.2
54324.4
58138.4
57864.1
60534.3
60725.4
62869.5
63533
65390.9
66225
67665.2
68447.5
69482
70146.4
70851.8
71459.3
71964.8
72585.6
72938.5
73621.4
73829.3
74668.7
74708.5
75875.1
75632.6
77497.6
76738.8
79982.1
77786.6
114131
113851
113711
113399
113298
113106
113028
112868
112751
112579
112434
112239
112066
111832
111625
111335
111089
110723
110434
109969
109635
109040
108666
107901
107500
106509
106116
104819
104495
102765
102611
100241
100416
97081.4
97850.5
93067.8
94889.3
87934.6
91532
81304.7
87889.5
73021.3
84341.7
63051.6
81354.2
50684.5
77940.1
29965.5
67007.6
-6603.26
49134
-65069.3
15488.9
-176028
5125.46
-81486.5
6334.61
-46717.8
15358.7
-12979
26771.5
7425.79
33636
22289.3
40716.6
34027.9
46701.1
42955.4
51451.1
49465
55158.1
54309.9
58117.5
57850.3
60516.7
60713.5
62856.5
63525.2
65383.1
66220.2
67659.8
68443.4
69477
70141.2
70845.7
71452.5
71957.7
72577.1
72930.4
73610.9
73820.1
74656.2
74699.1
75861.6
75626.4
77490
76743.1
79982.2
77789.5
114153
113867
113724
113406
113304
113112
113034
112874
112757
112586
112441
112246
112073
111839
111632
111342
111096
110731
110441
109977
109643
109049
108674
107910
107508
106519
106123
104830
104503
102777
102619
100255
100424
97097.2
97858.4
93085.6
94897.5
87954.7
91541.3
81327.3
87902.3
73050.7
84365
63098.1
81396.6
50750.4
77998.5
30063.8
67102.5
-6490.76
49241.2
-65020.6
15430.4
-176671
4935.3
-81537.4
6274.95
-46728.6
15331.7
-12982.3
26742.1
7420.5
33613.5
22288
40699.4
34026.4