/*--------------------------------*- C++ -*----------------------------------*\
| =========                 |                                                 |
| \\      /  F ield         | OpenFOAM: The Open Source CFD Toolbox           |
|  \\    /   O peration     | Version:  2412                                  |
|   \\  /    A nd           | Website:  www.openfoam.com                      |
|    \\/     M anipulation  |                                                 |
\*---------------------------------------------------------------------------*/
FoamFile
{
    version     2.0;
    format      ascii;
    arch        "LSB;label=32;scalar=64";
    class       surfaceScalarField;
    location    "0.2";
    object      phi;
}
// * * * * * * * * * * * * * * * * * * * * * * * * * * * * * * * * * * * * * //

dimensions      [0 3 -1 0 0 0 0];

oriented        oriented;

internalField   nonuniform List<scalar> 
25922
(
0.00748766
0.0261096
0.00742067
0.0183011
0.00737339
0.00639361
0.0073405
-0.00475657
0.0073255
-0.0117038
0.00732444
-0.0131692
0.00732711
-0.0113745
0.0073283
-0.00919865
0.00732884
-0.00776546
0.00733029
-0.00680849
0.00733239
-0.00599169
0.00733513
-0.00528513
0.00733791
-0.00461168
0.00734073
-0.00404576
0.00734305
-0.00348329
0.00734499
-0.0030274
0.00734597
-0.00251729
0.00734637
-0.00215878
0.00734553
-0.00169993
0.00734413
-0.00143483
0.00734128
-0.00100828
0.00733809
-0.000843474
0.00733319
-0.000404582
0.00732845
-0.000378662
0.00732178
7.89774e-05
0.00731597
-4.56192e-05
0.00730796
0.00045794
0.00730174
0.000149891
0.0072927
0.00076481
0.00728656
0.000211297
0.00727643
0.00100799
0.00727024
0.000181539
0.0072583
0.00122826
0.00725176
1.86075e-05
0.00723768
0.00134006
0.00723072
-0.000356486
0.00721336
0.00127483
0.0072043
-0.00110763
0.00064266
0.00748807
0.0261973
0.00742133
0.0183678
0.00737384
0.0064411
0.00734026
-0.00472298
0.00732434
-0.0116879
0.00732252
-0.0131673
0.00732469
-0.0113767
0.00732553
-0.00919949
0.00732577
-0.0077657
0.00732698
-0.00680969
0.00732888
-0.00599359
0.00733145
-0.00528771
0.0073341
-0.00461433
0.0073368
-0.00404847
0.00733903
-0.00348552
0.00734089
-0.00302926
0.00734179
-0.0025182
0.00734212
-0.00215911
0.00734121
-0.00169903
0.00733975
-0.00143337
0.00733684
-0.00100537
0.00733358
-0.000840218
0.00732862
-0.000399623
0.00732381
-0.000373851
0.00731709
8.57048e-05
0.00731122
-3.97503e-05
0.00730313
0.000466025
0.00729686
0.000156164
0.00728776
0.00077391
0.00728156
0.000217491
0.00727138
0.00101818
0.00726514
0.000187777
0.00725313
0.00124027
0.00724654
2.51946e-05
0.00723238
0.00135422
0.00722535
-0.000349461
0.00720788
0.0012923
0.00719868
-0.00109842
0.007178
0.000663339
0.00717294
-0.00294138
0.00716247
-0.00133989
0.00717878
-0.00626735
0.00719365
-0.00429173
0.00724408
-0.00971945
0.00728962
-0.00530465
0.00735697
-0.00837571
0.0073627
0.00210974
0.00736842
0.00110238
0.00734267
0.00989996
0.00738251
0.00799706
0.0074362
0.0163432
0.00755132
0.0374413
0.00775377
0.0589075
0.00792254
-0.01392
0.00783968
-0.043032
0.00767265
-0.0169744
0.00750831
0.00130568
0.00744763
-0.00240604
0.00742474
0.00143916
0.00743255
-0.00310194
0.00742116
0.00134705
0.00742505
-0.00246004
0.00742252
0.000367675
0.00743718
-0.00303956
0.00744209
-0.000378128
0.00745744
-0.00287893
0.0074605
-6.7983e-05
0.007468
-0.00139058
0.0013941
0.00748848
0.0262846
0.00742201
0.0184343
0.00737432
0.00648879
0.00734002
-0.00468869
0.00732318
-0.011671
0.00732059
-0.0131648
0.00732226
-0.0113784
0.00732275
-0.00919998
0.00732269
-0.00776565
0.00732365
-0.00681065
0.00732535
-0.00599529
0.00732777
-0.00529012
0.00733029
-0.00461685
0.00733287
-0.00405105
0.007335
-0.00348765
0.00733677
-0.00303103
0.0073376
-0.00251902
0.00733787
-0.00215938
0.0073369
-0.00169806
0.00733537
-0.00143185
0.0073324
-0.00100239
0.00732908
-0.000836902
0.00732406
-0.000394602
0.00731919
-0.000368981
0.0073124
9.24965e-05
0.00730647
-3.38204e-05
0.00729832
0.000474175
0.00729199
0.000162496
0.00728282
0.000783075
0.00727658
0.000223734
0.00726633
0.00102843
0.00726005
0.000194063
0.00724797
0.00125234
0.00724133
3.1835e-05
0.00722709
0.00136846
0.00722
-0.000342374
0.00720242
0.00130989
0.00719307
-0.00108908
0.00717217
0.000684244
0.00716688
-0.0029361
0.00715618
-0.00132919
0.00717233
-0.0062835
0.00718709
-0.00430649
0.00723763
-0.00977
0.00728352
-0.00535053
0.00735139
-0.00844357
0.00735729
0.00210384
0.00736293
0.00109675
0.00733701
0.00992588
0.00737725
0.00795681
0.007432
0.0162884
0.00755088
0.0373224
0.00775954
0.0586988
0.00792929
-0.0140897
0.00784191
-0.0429446
0.00767162
-0.0168041
0.00750583
0.00147149
0.00744483
-0.00234506
0.00742194
0.00146207
0.00742979
-0.00310978
0.0074184
0.00135843
0.00742228
-0.00246392
0.00741976
0.000370198
0.00743445
-0.00305425
0.00743943
-0.000383103
0.00745487
-0.00289437
0.00745796
-7.10815e-05
0.00746548
-0.0013981
0.00745866
0.00140092
0.00745427
0.000614627
0.00743936
0.00289725
0.00742406
0.00257847
0.00739952
0.00428339
0.00737523
0.00389899
0.00734875
0.00460573
0.00732918
0.0036758
0.00731605
0.00341751
0.00731156
0.0023544
0.00730992
0.00210384
0.00730979
0.00160851
0.00730702
0.00174523
0.0073007
0.00177858
0.00728898
0.00211799
0.0072732
0.0022891
0.00725451
0.00240588
0.00723397
0.00237473
0.00721247
0.00214595
0.00718917
0.00184803
0.00716577
0.00120954
0.00714025
0.000551706
0.00711684
-0.000626287
0.00709168
-0.00191565
0.00707291
-0.00382858
0.0070551
-0.00622742
0.00705455
-0.0091456
0.00707083
-0.0136497
0.00712413
-0.0176382
0.00715856
-0.0246981
-0.0272077
0.00748891
0.0263714
0.00742271
0.0185005
0.00737481
0.00653669
0.00733981
-0.00465368
0.00732204
-0.0116532
0.00731867
-0.0131614
0.00731982
-0.0113795
0.00731996
-0.00920012
0.00731961
-0.0077653
0.00732032
-0.00681137
0.00732183
-0.0059968
0.00732408
-0.00529237
0.00732646
-0.00461924
0.00732894
-0.00405353
0.00733098
-0.00348969
0.00733266
-0.00303271
0.00733341
-0.00251977
0.00733361
-0.00215958
0.00733258
-0.00169702
0.00733099
-0.00143027
0.00732796
-0.000999352
0.00732458
-0.000833528
0.0073195
-0.000389518
0.00731457
-0.000364049
0.00730771
9.93519e-05
0.00730172
-2.783e-05
0.00729351
0.000482389
0.00728712
0.000168886
0.00727789
0.000792301
0.0072716
0.000230024
0.00726129
0.00103874
0.00725496
0.000200392
0.00724282
0.00126448
0.00723613
3.85281e-05
0.00722181
0.00138278
0.00721466
-0.000335224
0.00719696
0.00132759
0.00718748
-0.0010796
0.00716635
0.000705372
0.00716084
-0.00293059
0.00714991
-0.00131826
0.00716588
-0.00629948
0.00718054
-0.00432114
0.00723118
-0.00982064
0.00727742
-0.00539677
0.00734581
-0.00851196
0.00735189
0.00209776
0.00735744
0.0010912
0.00733135
0.00995197
0.00737198
0.00791618
0.00742774
0.0162327
0.00755039
0.0371998
0.00776529
0.0584839
0.00793603
-0.0142605
0.00784408
-0.0428526
0.00767052
-0.0166306
0.00750331
0.00163871
0.00744201
-0.00228377
0.00741913
0.00148496
0.00742702
-0.00311767
0.00741564
0.00136981
0.00741952
-0.0024678
0.007417
0.000372714
0.00743173
-0.00306898
0.00743678
-0.00038815
0.00745231
-0.00290989
0.00745545
-7.42244e-05
0.00746299
-0.00140563
0.00745614
0.00140776
0.00745172
0.00061905
0.00743676
0.00291222
0.00742139
0.00259383
0.00739675
0.00430803
0.00737234
0.00392339
0.00734574
0.00463233
0.00732611
0.00369543
0.00731301
0.00343062
0.00730864
0.00235877
0.00730713
0.00210535
0.00730711
0.00160853
0.00730442
0.00174793
0.00729813
0.00178487
0.00728637
0.00212975
0.0072705
0.00230497
0.00725172
0.00242466
0.00723107
0.00239537
0.00720945
0.00216757
0.00718602
0.00187147
0.00716245
0.00123311
0.00713671
0.000577444
0.00711303
-0.000602606
0.00708751
-0.00189013
0.00706833
-0.0038094
0.00704992
-0.00620901
0.00704879
-0.00914448
0.00706409
-0.013665
0.00711627
-0.0176904
0.00714192
-0.0247237
-0.0272051
0.00748934
0.0264578
0.00742344
0.0185664
0.00737535
0.00658478
0.00733963
-0.00461797
0.00732091
-0.0116345
0.00731674
-0.0131572
0.00731737
-0.0113802
0.00731716
-0.0091999
0.00731651
-0.00776465
0.00731699
-0.00681184
0.00731829
-0.0059981
0.00732038
-0.00529446
0.00732263
-0.00462149
0.007325
-0.0040559
0.00732694
-0.00349163
0.00732855
-0.00303432
0.00732923
-0.00252045
0.00732935
-0.00215971
0.00732826
-0.00169593
0.00732661
-0.00142862
0.00732352
-0.000996255
0.00732008
-0.000830092
0.00731494
-0.000384374
0.00730995
-0.000359059
0.00730303
0.000106271
0.00729697
-2.17778e-05
0.00728869
0.000490669
0.00728225
0.000175329
0.00727296
0.000801589
0.00726662
0.000236365
0.00725626
0.00104911
0.00724988
0.000206767
0.00723768
0.00127669
0.00723093
4.52733e-05
0.00721653
0.00139718
0.00720932
-0.000328015
0.00719151
0.00134541
0.00718189
-0.00106998
0.00716054
0.000726723
0.00715481
-0.00292486
0.00714364
-0.0013071
0.00715945
-0.00631528
0.00717399
-0.00433569
0.00722473
-0.00987138
0.00727133
-0.00544336
0.00734023
-0.00858086
0.0073465
0.00209148
0.00735196
0.00108574
0.00732567
0.00997826
0.00736668
0.00787516
0.00742342
0.0161759
0.00754984
0.0370734
0.00777105
0.0582627
0.00794278
-0.0144322
0.00784619
-0.042756
0.00766932
-0.0164537
0.00750071
0.00180733
0.00743915
-0.00222222
0.0074163
0.00150782
0.00742425
-0.00312561
0.00741288
0.00138118
0.00741677
-0.00247169
0.00741426
0.000375219
0.00742903
-0.00308375
0.00743415
-0.000393269
0.00744976
-0.0029255
0.00745295
-7.74128e-05
0.00746051
-0.0014132
0.00745364
0.00141463
0.00744919
0.000623499
0.00743418
0.00292723
0.00741875
0.00260927
0.00739401
0.00433278
0.00736948
0.00394792
0.00734276
0.00465905
0.00732306
0.00371513
0.00730999
0.00344369
0.00730573
0.00236303
0.00730435
0.00210672
0.00730445
0.00160843
0.00730184
0.00175054
0.00729557
0.00179114
0.00728378
0.00214154
0.00726783
0.00232092
0.00724894
0.00244355
0.0072282
0.00241612
0.00720646
0.0021893
0.00718289
0.00189504
0.00715914
0.00125686
0.00713317
0.000603409
0.00710922
-0.000578657
0.00708334
-0.00186425
0.00706375
-0.0037898
0.00704472
-0.00618998
0.00704301
-0.00914277
0.00705729
-0.0136792
0.00710821
-0.0177413
0.00712487
-0.0247404
-0.027193
0.00748979
0.0265438
0.00742419
0.018632
0.00737592
0.00663306
0.00733949
-0.00458153
0.0073198
-0.0116148
0.00731482
-0.0131522
0.00731492
-0.0113803
0.00731435
-0.00919934
0.00731341
-0.00776371
0.00731364
-0.00681207
0.00731475
-0.0059992
0.00731668
-0.00529639
0.0073188
-0.00462361
0.00732106
-0.00405816
0.00732291
-0.00349348
0.00732443
-0.00303584
0.00732503
-0.00252106
0.0073251
-0.00215977
0.00732394
-0.00169476
0.00732223
-0.00142692
0.00731907
-0.000993096
0.00731558
-0.000826599
0.00731037
-0.000379169
0.00730532
-0.000354007
0.00729834
0.000113253
0.00729223
-1.56672e-05
0.00728389
0.000499011
0.00727738
0.000181833
0.00726804
0.000810935
0.00726165
0.000242756
0.00725122
0.00105953
0.0072448
0.000213185
0.00723253
0.00128896
0.00722574
5.20698e-05
0.00721126
0.00141166
0.00720399
-0.000320746
0.00718607
0.00136333
0.00717631
-0.00106023
0.00715474
0.000748296
0.00714878
-0.00291891
0.00713738
-0.0012957
0.00715301
-0.00633091
0.00716744
-0.00435011
0.00721829
-0.00992223
0.00726523
-0.0054903
0.00733466
-0.00865029
0.00734112
0.00208502
0.00734648
0.00108039
0.00731999
0.0100048
0.00736137
0.00783378
0.00741905
0.0161183
0.00754922
0.0369432
0.00777681
0.0580351
0.00794953
-0.0146049
0.00784823
-0.0426547
0.00766803
-0.0162736
0.00749805
0.00197731
0.00743627
-0.00216045
0.00741347
0.00153063
0.00742147
-0.00313362
0.00741012
0.00139253
0.00741402
-0.00247559
0.00741153
0.000377708
0.00742633
-0.00309855
0.00743153
-0.000398461
0.00744723
-0.00294121
0.00745046
-8.06491e-05
0.00745805
-0.00142078
0.00745116
0.00142152
0.00744669
0.000627974
0.00743163
0.00294229
0.00741613
0.00262477
0.00739128
0.00435763
0.00736663
0.00397257
0.00733979
0.0046859
0.00732002
0.00373489
0.00730698
0.00345673
0.00730283
0.00236718
0.0073016
0.00210796
0.00730181
0.00160821
0.00729928
0.00175307
0.00729304
0.00179739
0.00728121
0.00215337
0.00726517
0.00233695
0.00724618
0.00246254
0.00722533
0.00243697
0.00720348
0.00221116
0.00717976
0.00191876
0.00715584
0.00128078
0.00712965
0.000629601
0.00710543
-0.000554438
0.00707918
-0.001838
0.00705917
-0.00376979
0.00703951
-0.00617033
0.00703722
-0.00914047
0.00705044
-0.0136925
0.00709998
-0.0177909
0.00710753
-0.024748
-0.0271712
0.00749024
0.0266293
0.00742498
0.0186972
0.00737653
0.0066815
0.00733937
-0.00454437
0.0073187
-0.0115942
0.00731289
-0.0131464
0.00731245
-0.0113798
0.00731153
-0.00919842
0.00731031
-0.00776248
0.0073103
-0.00681206
0.0073112
-0.00600011
0.00731297
-0.00529816
0.00731496
-0.00462561
0.00731711
-0.00406031
0.00731887
-0.00349523
0.00732031
-0.00303728
0.00732084
-0.00252159
0.00732083
-0.00215976
0.00731961
-0.00169354
0.00731785
-0.00142515
0.00731463
-0.000989877
0.00731108
-0.000823048
0.00730581
-0.000373902
0.0073007
-0.000348897
0.00729365
0.000120298
0.00728748
-9.4955e-06
0.00727908
0.000507418
0.00727252
0.00018839
0.00726311
0.000820345
0.00725667
0.000249193
0.00724619
0.00107001
0.00723973
0.000219647
0.0072274
0.00130129
0.00722055
5.8919e-05
0.00720599
0.00142621
0.00719867
-0.000313418
0.00718063
0.00138136
0.00717074
-0.00105034
0.00714895
0.000770089
0.00714277
-0.00291273
0.00713114
-0.00128407
0.00714659
-0.00634636
0.0071609
-0.00436443
0.00721185
-0.00997318
0.00725915
-0.0055376
0.0073291
-0.00872024
0.00733575
0.00207836
0.00734101
0.00107514
0.0073143
0.0100315
0.00735603
0.00779205
0.00741461
0.0160597
0.00754854
0.0368092
0.00778257
0.0578011
0.00795628
-0.0147786
0.00785021
-0.0425487
0.00766665
-0.01609
0.00749533
0.00214863
0.00743337
-0.00209849
0.00741062
0.00155338
0.00741869
-0.00314168
0.00740737
0.00140386
0.00741128
-0.00247951
0.00740881
0.000380179
0.00742365
-0.00311339
0.00742892
-0.000403726
0.00744471
-0.002957
0.007448
-8.39347e-05
0.00745561
-0.00142839
0.0074487
0.00142842
0.00744419
0.000632475
0.00742909
0.00295739
0.00741353
0.00264033
0.00738858
0.00438258
0.0073638
0.00399735
0.00733684
0.00471286
0.007317
0.00375473
0.00730399
0.00346975
0.00729995
0.00237121
0.00729885
0.00210906
0.00729919
0.00160787
0.00729674
0.00175552
0.00729052
0.00180361
0.00727865
0.00216525
0.00726253
0.00235307
0.00724344
0.00248163
0.00722248
0.00245793
0.00720051
0.00223313
0.00717665
0.00194261
0.00715255
0.00130487
0.00712613
0.000656022
0.00710164
-0.00052995
0.00707502
-0.00181138
0.00705459
-0.00374936
0.00703431
-0.00615005
0.00703142
-0.00913757
0.00704354
-0.0137046
0.00709158
-0.0178389
0.00708995
-0.0247463
-0.0271399
0.00749072
0.0267144
0.00742579
0.0187622
0.00737718
0.00673011
0.00733929
-0.00450648
0.00731762
-0.0115725
0.00731096
-0.0131398
0.00730998
-0.0113788
0.00730871
-0.00919714
0.00730719
-0.00776097
0.00730694
-0.00681181
0.00730765
-0.00600082
0.00730926
-0.00529977
0.00731112
-0.00462747
0.00731316
-0.00406234
0.00731482
-0.00349689
0.00731618
-0.00303864
0.00731664
-0.00252204
0.00731657
-0.00215969
0.00731528
-0.00169225
0.00731346
-0.00142333
0.00731018
-0.000986598
0.00730657
-0.000819438
0.00730124
-0.000368577
0.00729607
-0.000343727
0.00728897
0.000127406
0.00728274
-3.26624e-06
0.00727426
0.00051589
0.00726765
0.000195003
0.00725818
0.000829814
0.0072517
0.000255676
0.00724116
0.00108055
0.00723466
0.000226152
0.00722226
0.00131369
0.00721536
6.58161e-05
0.00720073
0.00144084
0.00719335
-0.000306034
0.00717521
0.00139951
0.00716518
-0.00104031
0.00714317
0.000792102
0.00713677
-0.00290632
0.0071249
-0.00127221
0.00714017
-0.00636163
0.00715436
-0.00437862
0.00720541
-0.0100242
0.00725306
-0.00558525
0.00732354
-0.00879072
0.0073304
0.0020715
0.00733554
0.00106999
0.0073086
0.0100584
0.00735068
0.00774997
0.00741011
0.0160002
0.00754779
0.0366716
0.00778833
0.0575606
0.00796304
-0.0149533
0.00785214
-0.0424378
0.00766519
-0.015903
0.00749256
0.00232127
0.00743044
-0.00203637
0.00740777
0.00157605
0.00741591
-0.00314982
0.00740462
0.00141515
0.00740856
-0.00248345
0.00740611
0.000382626
0.00742098
-0.00312827
0.00742632
-0.000409067
0.00744221
-0.00297289
0.00744555
-8.72727e-05
0.00745318
-0.00143602
0.00744625
0.00143535
0.00744172
0.000637002
0.00742658
0.00297254
0.00741094
0.00265596
0.00738589
0.00440763
0.00736099
0.00402225
0.0073339
0.00473995
0.007314
0.00377463
0.00730101
0.00348273
0.00729709
0.00237513
0.00729613
0.00211002
0.00729659
0.00160741
0.00729422
0.00175789
0.00728803
0.0018098
0.00727611
0.00217716
0.00725991
0.00236927
0.00724071
0.00250083
0.00721964
0.002479
0.00719755
0.00225522
0.00717355
0.00196661
0.00714927
0.00132915
0.00712262
0.000682673
0.00709786
-0.000505188
0.00707087
-0.00178439
0.00705002
-0.00372851
0.00702911
-0.00612914
0.00702561
-0.00913407
0.00703659
-0.0137156
0.007083
-0.0178853
0.00707216
-0.0247355
-0.027099
0.00749121
0.0267989
0.00742664
0.0188267
0.00737788
0.00677888
0.00733925
-0.00446785
0.00731656
-0.0115498
0.00730903
-0.0131322
0.0073075
-0.0113773
0.00730587
-0.00919552
0.00730407
-0.00775916
0.00730358
-0.00681132
0.00730409
-0.00600133
0.00730554
-0.00530122
0.00730727
-0.0046292
0.0073092
-0.00406428
0.00731077
-0.00349846
0.00731205
-0.00303992
0.00731244
-0.00252243
0.0073123
-0.00215956
0.00731095
-0.0016909
0.00730907
-0.00142145
0.00730573
-0.000983261
0.00730206
-0.000815769
0.00729668
-0.000363191
0.00729145
-0.0003385
0.00728428
0.000134578
0.00727799
3.02195e-06
0.00726946
0.000524424
0.00726279
0.000201672
0.00725326
0.000839343
0.00724673
0.000262207
0.00723614
0.00109114
0.00722959
0.0002327
0.00721713
0.00132615
0.00721018
7.27623e-05
0.00719548
0.00145555
0.00718804
-0.000298595
0.00716979
0.00141776
0.00715963
-0.00103016
0.0071374
0.000814332
0.00713078
-0.0028997
0.00711868
-0.00126011
0.00713376
-0.00637671
0.00714783
-0.0043927
0.00719897
-0.0100754
0.00724698
-0.00563326
0.00731799
-0.00886173
0.00732506
0.00206444
0.00733009
0.00106497
0.0073029
0.0100856
0.0073453
0.00770757
0.00740556
0.01594
0.00754698
0.0365301
0.00779408
0.0573135
0.00796979
-0.0151291
0.00785401
-0.042322
0.00766365
-0.0157127
0.00748974
0.00249518
0.00742749
-0.00197413
0.00740492
0.00159863
0.00741313
-0.00315803
0.00740187
0.00142641
0.00740584
-0.00248742
0.00740342
0.000385049
0.00741833
-0.00314318
0.00742375
-0.000414484
0.00743973
-0.00298888
0.00744312
-9.06648e-05
0.00745077
-0.00144367
0.00744382
0.00144231
0.00743927
0.000641553
0.00742408
0.00298773
0.00740838
0.00267166
0.00738322
0.00443279
0.00735819
0.00404728
0.00733098
0.00476716
0.00731101
0.00379461
0.00729805
0.00349569
0.00729425
0.00237894
0.00729343
0.00211084
0.00729401
0.00160683
0.00729172
0.00176017
0.00728555
0.00181597
0.00727359
0.00218912
0.0072573
0.00238557
0.00723799
0.00252014
0.00721681
0.00250018
0.0071946
0.00227743
0.00717046
0.00199076
0.00714601
0.0013536
0.00711913
0.000709555
0.00709409
-0.000480151
0.00706672
-0.00175702
0.00704545
-0.00370724
0.00702391
-0.0061076
0.0070198
-0.00912996
0.00702958
-0.0137253
0.00707424
-0.01793
0.0070542
-0.0247155
-0.0270486
0.00749171
0.026883
0.00742753
0.0188909
0.00737861
0.00682779
0.00733924
-0.00442848
0.00731551
-0.0115261
0.0073071
-0.0131238
0.00730501
-0.0113752
0.00730303
-0.00919354
0.00730093
-0.00775706
0.0073002
-0.00681059
0.00730052
-0.00600165
0.00730182
-0.00530251
0.00730342
-0.0046308
0.00730524
-0.0040661
0.00730672
-0.00349994
0.00730792
-0.00304111
0.00730823
-0.00252274
0.00730803
-0.00215935
0.00730662
-0.00168949
0.00730468
-0.0014195
0.00730128
-0.000979864
0.00729756
-0.000812045
0.00729211
-0.000357744
0.00728682
-0.000333212
0.00727959
0.000141808
0.00727324
9.37002e-06
0.00726465
0.000533021
0.00725792
0.000208396
0.00724833
0.00084893
0.00724176
0.000268787
0.00723111
0.00110179
0.00722452
0.000239287
0.007212
0.00133867
0.00720501
7.97568e-05
0.00719022
0.00147033
0.00718273
-0.000291102
0.00716438
0.00143611
0.00715409
-0.00101987
0.00713165
0.000836779
0.0071248
-0.00289285
0.00711246
-0.00124777
0.00712736
-0.0063916
0.00714131
-0.00440665
0.00719254
-0.0101266
0.0072409
-0.00568162
0.00731245
-0.00893328
0.00731974
0.00205715
0.00732464
0.00106006
0.00729719
0.010113
0.00733991
0.00766485
0.00740094
0.015879
0.00754609
0.036385
0.00779983
0.0570598
0.00797655
-0.0153058
0.00785583
-0.0422013
0.00766205
-0.0155189
0.00748687
0.00267036
0.00742453
-0.00191179
0.00740206
0.0016211
0.00741035
-0.00316633
0.00739914
0.00143762
0.00740314
-0.00249142
0.00740075
0.000387443
0.00741569
-0.00315811
0.00742118
-0.000419976
0.00743726
-0.00300496
0.00744071
-9.41126e-05
0.00744838
-0.00145134
0.00744141
0.00144927
0.00743684
0.000646128
0.0074216
0.00300297
0.00740584
0.00268743
0.00738057
0.00445805
0.00735542
0.00407243
0.00732808
0.00479449
0.00730803
0.00381466
0.00729511
0.00350861
0.00729142
0.00238263
0.00729074
0.00211152
0.00729144
0.00160613
0.00728923
0.00176238
0.00728309
0.00182212
0.00727109
0.00220111
0.00725471
0.00240195
0.0072353
0.00253955
0.007214
0.00252147
0.00719167
0.00229976
0.00716738
0.00201504
0.00714275
0.00137823
0.00711564
0.000736669
0.00709032
-0.000454838
0.00706258
-0.00172929
0.00704088
-0.00368554
0.00701871
-0.00608542
0.00701398
-0.00912523
0.00702251
-0.0137339
0.00706527
-0.0179727
0.00703608
-0.0246863
-0.0269889
0.00749223
0.0269665
0.00742844
0.0189547
0.00737939
0.00687684
0.00733927
-0.00438836
0.00731447
-0.0115013
0.00730516
-0.0131145
0.0073025
-0.0113726
0.00730018
-0.00919121
0.0072978
-0.00775468
0.00729683
-0.00680962
0.00729695
-0.00600177
0.00729808
-0.00530365
0.00729956
-0.00463228
0.00730127
-0.00406782
0.00730266
-0.00350132
0.00730378
-0.00304223
0.00730402
-0.00252299
0.00730375
-0.00215909
0.00730228
-0.00168802
0.00730028
-0.0014175
0.00729682
-0.00097641
0.00729304
-0.000808262
0.00728754
-0.00035224
0.00728219
-0.000327868
0.0072749
0.000149103
0.00726849
1.57748e-05
0.00725983
0.000541682
0.00725306
0.000215172
0.00724341
0.000858578
0.00723679
0.000275409
0.00722608
0.00111249
0.00721946
0.000245915
0.00720687
0.00135125
0.00719983
8.67985e-05
0.00718498
0.00148519
0.00717743
-0.000283558
0.00715898
0.00145456
0.00714857
-0.00100946
0.0071259
0.000859439
0.00711884
-0.00288578
0.00710627
-0.0012352
0.00712097
-0.00640631
0.00713479
-0.00442047
0.00718611
-0.0101779
0.00723483
-0.00573034
0.00730691
-0.00900536
0.00731443
0.00204962
0.00731922
0.00105528
0.00729149
0.0101408
0.00733451
0.00762183
0.00739627
0.0158172
0.00754514
0.0362361
0.00780557
0.0567993
0.00798331
-0.0154835
0.0078576
-0.0420756
0.00766039
-0.0153217
0.00748397
0.00284678
0.00742155
-0.00184937
0.0073992
0.00164345
0.00740758
-0.00317471
0.00739642
0.00144878
0.00740046
-0.00249546
0.00739809
0.000389806
0.00741306
-0.00317308
0.00741863
-0.000425546
0.00743481
-0.00302114
0.00743831
-9.76186e-05
0.00744601
-0.00145904
0.00743902
0.00145626
0.00743442
0.000650726
0.00741914
0.00301825
0.00740331
0.00270326
0.00737795
0.00448342
0.00735267
0.00409771
0.0073252
0.00482196
0.00730508
0.00383478
0.00729218
0.00352151
0.00728861
0.00238621
0.00728807
0.00211206
0.00728889
0.0016053
0.00728677
0.0017645
0.00728065
0.00182824
0.00726861
0.00221315
0.00725214
0.00241842
0.00723261
0.00255908
0.00721121
0.00254287
0.00718875
0.00232221
0.00716432
0.00203948
0.0071395
0.00140305
0.00711216
0.000764017
0.00708656
-0.000429248
0.00705845
-0.00170117
0.00703632
-0.00366341
0.00701351
-0.00606261
0.00700816
-0.00911988
0.00701539
-0.0137411
0.00705611
-0.0180135
0.00701785
-0.024648
-0.02692
0.00749277
0.0270495
0.0074294
0.0190181
0.00738022
0.00692603
0.00733933
-0.00434747
0.00731345
-0.0114754
0.00730322
-0.0131043
0.00729999
-0.0113693
0.00729731
-0.00918853
0.00729465
-0.00775202
0.00729344
-0.00680841
0.00729336
-0.00600169
0.00729435
-0.00530463
0.00729569
-0.00463362
0.0072973
-0.00406943
0.0072986
-0.00350262
0.00729963
-0.00304327
0.00729981
-0.00252316
0.00729947
-0.00215875
0.00729794
-0.00168648
0.00729588
-0.00141544
0.00729237
-0.000972897
0.00728853
-0.00080442
0.00728296
-0.000346676
0.00727756
-0.000322464
0.00727021
0.000156457
0.00726374
2.22386e-05
0.00725502
0.000550404
0.00724819
0.000222005
0.00723848
0.000868282
0.00723182
0.000282077
0.00722106
0.00112325
0.00721439
0.000252581
0.00720175
0.0013639
0.00719466
9.38865e-05
0.00717973
0.00150012
0.00717214
-0.000275963
0.00715358
0.00147312
0.00714305
-0.000998927
0.00712017
0.000882311
0.00711289
-0.0028785
0.00710008
-0.0012224
0.00711459
-0.00642081
0.00712828
-0.00443417
0.00717968
-0.0102293
0.00722875
-0.0057794
0.00730139
-0.009078
0.00730916
0.00204185
0.00731381
0.00105062
0.00728579
0.0101688
0.0073291
0.00757852
0.00739154
0.0157548
0.00754411
0.0360835
0.00781131
0.0565321
0.00799006
-0.0156623
0.00785932
-0.0419448
0.00765867
-0.0151211
0.00748104
0.00302441
0.00741856
-0.00178689
0.00739634
0.00166568
0.00740481
-0.00318318
0.00739372
0.00145988
0.00739779
-0.00249953
0.00739546
0.000392136
0.00741045
-0.00318808
0.0074161
-0.000431194
0.00743237
-0.00303741
0.00743594
-0.000101186
0.00744366
-0.00146676
0.00743665
0.00146327
0.00743203
0.000655348
0.00741671
0.00303357
0.00740081
0.00271915
0.00737534
0.00450889
0.00734993
0.00412312
0.00732234
0.00484955
0.00730214
0.00385498
0.00728927
0.00353438
0.00728581
0.00238967
0.00728541
0.00211246
0.00728636
0.00160436
0.00728432
0.00176654
0.00727823
0.00183433
0.00726615
0.00222524
0.00724958
0.00243498
0.00722995
0.00257871
0.00720843
0.00256439
0.00718585
0.00234479
0.00716127
0.00206406
0.00713627
0.00142805
0.00710869
0.000791599
0.00708282
-0.000403377
0.00705433
-0.00167268
0.00703177
-0.00364085
0.00700832
-0.00603916
0.00700234
-0.00911391
0.00700819
-0.013747
0.00704672
-0.018052
0.00699949
-0.0246008
-0.0268421
0.00749333
0.0271319
0.00743039
0.019081
0.00738108
0.00697534
0.00733943
-0.00430581
0.00731244
-0.0114484
0.00730128
-0.0130931
0.00729747
-0.0113655
0.00729444
-0.00918551
0.00729149
-0.00774907
0.00729004
-0.00680697
0.00728978
-0.00600142
0.0072906
-0.00530545
0.00729182
-0.00463484
0.00729332
-0.00407093
0.00729453
-0.00350382
0.00729548
-0.00304423
0.00729558
-0.00252326
0.00729519
-0.00215836
0.00729359
-0.00168489
0.00729148
-0.00141333
0.0072879
-0.000969326
0.00728401
-0.000800525
0.00727839
-0.000341053
0.00727293
-0.000317005
0.00726551
0.000163874
0.00725899
2.87583e-05
0.00725021
0.000559188
0.00724332
0.00022889
0.00723356
0.000878046
0.00722684
0.00028879
0.00721604
0.00113406
0.00720933
0.000259288
0.00719663
0.0013766
0.0071895
0.000101018
0.0071745
0.00151512
0.00716685
-0.000268321
0.0071482
0.00149177
0.00713754
-0.000988269
0.00711446
0.000905392
0.00710695
-0.00287099
0.00709391
-0.00120936
0.00710822
-0.00643512
0.00712178
-0.00444773
0.00717326
-0.0102808
0.00722268
-0.00582882
0.00729587
-0.00915118
0.0073039
0.00203382
0.00730843
0.00104609
0.0072801
0.0101971
0.00732367
0.00753495
0.00738676
0.0156917
0.00754302
0.0359273
0.00781703
0.0562581
0.00799682
-0.0158421
0.00786101
-0.041809
0.00765692
-0.014917
0.0074781
0.00320324
0.00741557
-0.00172436
0.00739348
0.00168777
0.00740206
-0.00319176
0.00739103
0.00147091
0.00739514
-0.00250365
0.00739284
0.000394433
0.00740786
-0.0032031
0.00741359
-0.000436919
0.00742996
-0.00305378
0.00743358
-0.000104815
0.00744133
-0.0014745
0.00743431
0.00147029
0.00742966
0.000659993
0.00741429
0.00304894
0.00739833
0.00273511
0.00737276
0.00453447
0.00734722
0.00414865
0.00731951
0.00487726
0.00729923
0.00387526
0.00728638
0.00354722
0.00728303
0.00239302
0.00728278
0.00211271
0.00728385
0.00160328
0.0072819
0.0017685
0.00727583
0.0018404
0.0072637
0.00223736
0.00724705
0.00245163
0.0072273
0.00259846
0.00720566
0.00258602
0.00718296
0.00236749
0.00715823
0.00208879
0.00713305
0.00145323
0.00710523
0.000819417
0.00707908
-0.000377227
0.00705021
-0.00164382
0.00702722
-0.00361786
0.00700313
-0.00601507
0.00699652
-0.0091073
0.00700092
-0.0137514
0.00703711
-0.0180882
0.00698104
-0.0245447
-0.0267554
0.0074939
0.0272138
0.00743142
0.0191435
0.007382
0.00702476
0.00733956
-0.00426338
0.00731145
-0.0114203
0.00729933
-0.013081
0.00729493
-0.0113611
0.00729155
-0.00918213
0.00728832
-0.00774584
0.00728664
-0.00680529
0.00728618
-0.00600096
0.00728685
-0.00530612
0.00728794
-0.00463593
0.00728933
-0.00407233
0.00729045
-0.00350493
0.00729133
-0.00304511
0.00729136
-0.00252329
0.0072909
-0.00215789
0.00728924
-0.00168323
0.00728707
-0.00141115
0.00728344
-0.000965696
0.00727948
-0.000796572
0.0072738
-0.000335373
0.00726829
-0.000311487
0.00726081
0.00017135
0.00725423
3.53349e-05
0.00724539
0.000568033
0.00723845
0.000235829
0.00722863
0.000887865
0.00722187
0.000295548
0.00721101
0.00114492
0.00720427
0.00026603
0.00719151
0.00138936
0.00718433
0.000108195
0.00716926
0.00153019
0.00716157
-0.000260632
0.00714282
0.00151052
0.00713205
-0.000977492
0.00710876
0.00092868
0.00710104
-0.00286327
0.00708776
-0.00119608
0.00710186
-0.00644922
0.00711529
-0.00446116
0.00716684
-0.0103323
0.00721661
-0.00587859
0.00729036
-0.00922493
0.00729868
0.0020255
0.00730308
0.00104169
0.00727442
0.0102258
0.00731824
0.00749112
0.00738192
0.015628
0.00754185
0.0357673
0.00782273
0.0559772
0.00800357
-0.0160229
0.00786268
-0.0416681
0.00765514
-0.0147094
0.00747514
0.00338324
0.00741257
-0.00166179
0.00739063
0.0017097
0.00739932
-0.00320044
0.00738836
0.00148187
0.00739251
-0.0025078
0.00739025
0.000396695
0.00740529
-0.00321814
0.00741109
-0.000442723
0.00742755
-0.00307024
0.00743125
-0.00010851
0.00743901
-0.00148226
0.00743198
0.00147733
0.00742731
0.00066466
0.0074119
0.00306435
0.00739588
0.00275114
0.0073702
0.00456015
0.00734454
0.00417431
0.00731669
0.00490511
0.00729633
0.00389562
0.00728351
0.00356005
0.00728027
0.00239625
0.00728016
0.00211283
0.00728136
0.00160208
0.00727949
0.00177037
0.00727345
0.00184644
0.00726128
0.00224953
0.00724454
0.00246838
0.00722467
0.00261833
0.00720292
0.00260777
0.00718009
0.00239032
0.00715521
0.00211367
0.00712984
0.0014786
0.00710179
0.000847472
0.00707535
-0.000350792
0.00704611
-0.00161457
0.00702268
-0.00359444
0.00699796
-0.00599034
0.00699071
-0.00910005
0.00699358
-0.0137542
0.00702726
-0.0181218
0.00696248
-0.0244799
-0.02666
0.0074945
0.027295
0.0074325
0.0192055
0.00738296
0.0070743
0.00733973
-0.00422015
0.00731048
-0.011391
0.00729738
-0.0130679
0.00729239
-0.0113561
0.00728866
-0.0091784
0.00728515
-0.00774232
0.00728323
-0.00680337
0.00728257
-0.0060003