/*--------------------------------*- C++ -*----------------------------------*\
| =========                 |                                                 |
| \\      /  F ield         | OpenFOAM: The Open Source CFD Toolbox           |
|  \\    /   O peration     | Version:  2412                                  |
|   \\  /    A nd           | Website:  www.openfoam.com                      |
|    \\/     M anipulation  |                                                 |
\*---------------------------------------------------------------------------*/
FoamFile
{
    version     2.0;
    format      ascii;
    arch        "LSB;label=32;scalar=64";
    class       volVectorField;
    location    "0.2";
    object      U;
}
// * * * * * * * * * * * * * * * * * * * * * * * * * * * * * * * * * * * * * //

dimensions      [0 1 -1 0 0 0 0];

internalField   nonuniform List<vector> 
13077
(
(100.044 -1.38035 0)
(100.449 -6.69735 8.88232e-17)
(101.151 -14.7844 -9.24391e-17)
(102.132 -22.4353 0)
(103.313 -27.3389 0)
(104.867 -28.6937 0)
(106.564 -27.9157 0)
(108.334 -26.9019 0)
(110.124 -26.3914 0)
(112 -26.2107 -8.26738e-17)
(113.963 -26.1474 0)
(116.004 -26.171 0)
(118.151 -26.2433 0)
(120.357 -26.4008 -7.55777e-17)
(122.69 -26.5869 0)
(125.063 -26.8597 0)
(127.592 -27.1381 7.07912e-17)
(130.139 -27.5161 6.90955e-17)
(132.886 -27.8741 4.15417e-21)
(135.617 -28.3594 6.5715e-17)
(138.614 -28.7917 0)
(141.546 -29.3968 6.22204e-17)
(144.843 -29.9018 -6.05623e-17)
(147.998 -30.6461 -5.86107e-17)
(151.662 -31.2232 0)
(155.064 -32.1344 0)
(159.189 -32.7814 -5.32541e-17)
(162.868 -33.8913 5.10663e-17)
(167.579 -34.6014 2.87144e-21)
(171.56 -35.9423 9.42846e-17)
(177.012 -36.7051 0)
(181.304 -38.3175 0)
(187.689 -39.1317 0)
(192.282 -41.0772 3.8888e-17)
(199.852 -41.9752 -3.79123e-17)
(204.743 -44.3341 0)
(213.828 -45.3741 3.39971e-17)
(218.976 -48.2543 0)
(229.942 -49.6646 -2.99403e-17)
(100.046 -1.39324 0)
(100.458 -6.72607 8.08813e-21)
(101.16 -14.8269 9.24842e-17)
(102.135 -22.487 -1.03587e-16)
(103.303 -27.401 0)
(104.844 -28.7642 0)
(106.532 -27.9884 0)
(108.296 -26.9741 -9.34006e-17)
(110.08 -26.4637 0)
(111.951 -26.2845 8.26737e-17)
(113.91 -26.2225 0)
(115.947 -26.2476 7.87463e-17)
(118.091 -26.3212 0)
(120.294 -26.4801 -4.23914e-21)
(122.624 -26.6673 0)
(124.994 -26.9414 0)
(127.52 -27.2209 7.07936e-17)
(130.064 -27.6003 0)
(132.808 -27.9593 -6.74756e-17)
(135.537 -28.4462 4.47906e-21)
(138.531 -28.8795 0)
(141.46 -29.4864 -6.22159e-17)
(144.754 -29.9925 -3.88075e-21)
(147.905 -30.7392 0)
(151.565 -31.3174 0)
(154.964 -32.2316 0)
(159.085 -32.8798 -5.32571e-17)
(162.76 -33.9935 0)
(167.466 -34.7049 -4.94996e-17)
(171.443 -36.0504 -4.71424e-17)
(176.89 -36.8143 -4.57029e-17)
(181.177 -38.4322 4.31023e-17)
(187.557 -39.2471 4.18382e-17)
(192.143 -41.1991 -3.88878e-17)
(199.708 -42.0974 0)
(204.591 -44.4639 3.45308e-17)
(213.67 -45.5034 -6.80008e-17)
(218.806 -48.3915 -2.99587e-17)
(229.762 -49.8015 5.98885e-17)
(235.255 -53.6012 -3.04269e-21)
(248.973 -55.7563 0)
(255.533 -60.699 2.00572e-17)
(273.481 -63.5745 0)
(282.028 -69.3477 3.06068e-17)
(306.016 -71.9727 -3.79974e-17)
(317.36 -76.8225 1.0889e-17)
(347.859 -76.9351 -8.63941e-21)
(358.134 -80.2174 0)
(394.392 -82.8343 0)
(407.575 -87.4312 1.36739e-18)
(459.287 -93.9668 -7.00421e-18)
(484.969 -85.9917 0)
(559.031 -96.9217 -2.11283e-18)
(627.226 0.249867 0)
(576.405 50.9954 2.06609e-18)
(545.89 67.3313 1.55671e-17)
(490.874 71.0633 2.07671e-18)
(469.506 65.6161 1.04749e-17)
(435.413 63.2565 3.17421e-18)
(423.216 58.5597 2.54913e-18)
(397.096 57.6984 5.26171e-18)
(385.946 53.6407 0)
(364.756 52.4471 7.26001e-18)
(355.349 48.8878 4.96026e-18)
(338.348 48.1867 0)
(329.833 45.3406 -8.20256e-18)
(315.752 45.1537 -1.17147e-17)
(307.612 43.1277 0)
(295.525 43.1951 1.55006e-21)
(100.048 -1.4064 0)
(100.467 -6.75489 -1.77769e-16)
(101.169 -14.869 -9.25135e-17)
(102.138 -22.5381 1.03655e-16)
(103.293 -27.4625 0)
(104.821 -28.8341 0)
(106.499 -28.0608 -1.05238e-16)
(108.257 -27.0461 9.34755e-17)
(110.036 -26.5358 0)
(111.902 -26.3579 0)
(113.857 -26.2974 0)
(115.89 -26.324 -7.87393e-17)
(118.03 -26.3989 7.71688e-17)
(120.23 -26.5592 7.55682e-17)
(122.557 -26.7476 0)
(124.925 -27.0231 0)
(127.448 -27.3036 -7.07874e-17)
(129.99 -27.6843 0)
(132.731 -28.0444 0)
(135.456 -28.5329 4.45375e-21)
(138.448 -28.9672 6.40675e-17)
(141.374 -29.5759 6.22201e-17)
(144.664 -30.0831 6.05574e-17)
(147.812 -30.8321 0)
(151.468 -31.4114 0)
(154.864 -32.3286 0)
(158.98 -32.978 -3.24137e-21)
(162.652 -34.0955 0)
(167.354 -34.8081 4.95025e-17)
(171.326 -36.1584 0)
(176.768 -36.9233 4.57013e-17)
(181.051 -38.5468 4.53811e-21)
(187.425 -39.3622 -4.18376e-17)
(192.006 -41.3208 0)
(199.564 -42.2194 3.79177e-17)
(204.439 -44.5935 -3.45323e-17)
(213.511 -45.6324 3.40038e-17)
(218.637 -48.5283 5.99293e-17)
(229.582 -49.938 -2.99485e-17)
(235.057 -53.7493 2.50467e-17)
(248.762 -55.9099 -2.58847e-17)
(255.302 -60.8721 2.00649e-17)
(273.237 -63.7597 2.20964e-17)
(281.765 -69.5605 -1.53076e-17)
(305.755 -72.2035 -2.71144e-21)
(317.099 -77.0785 -1.0894e-17)
(347.615 -77.1799 1.64154e-17)
(357.86 -80.4651 -5.35572e-18)
(394.105 -83.0899 -1.17405e-17)
(407.245 -87.7335 -1.36711e-18)
(459 -94.3344 7.00151e-18)
(484.722 -86.4343 0)
(559.21 -97.6211 2.10318e-18)
(627.937 0.186025 0)
(576.719 51.3926 -5.61866e-21)
(545.892 67.7381 1.4897e-21)
(490.729 71.4158 2.05104e-18)
(469.334 65.8851 0)
(435.245 63.4829 0)
(423.061 58.7614 0)
(396.947 57.8992 0)
(385.804 53.8266 -1.50314e-18)
(364.618 52.6263 -7.26403e-18)
(355.219 49.0518 0)
(338.224 48.3487 0)
(329.719 45.4927 0)
(315.644 45.3069 1.17193e-17)
(307.509 43.2745 0)
(295.425 43.345 -1.38098e-17)
(287.359 41.6861 0)
(276.833 41.6562 -1.58173e-17)
(269.03 40.3292 -1.60328e-17)
(259.644 40.089 0)
(252.117 38.7568 -1.8215e-17)
(243.755 38.0154 0)
(236.894 36.4257 0)
(229.824 35.2442 0)
(224.04 33.7132 2.2775e-17)
(218.175 32.7157 -2.40455e-17)
(213.099 31.6663 -2.49253e-17)
(207.866 31.0028 2.60543e-17)
(203.105 30.3391 2.69208e-17)
(198.146 29.8461 0)
(193.519 29.2914 2.88852e-17)
(188.77 28.6843 2.98802e-17)
(184.393 28.0346 0)
(179.929 27.2342 -3.17403e-17)
(175.877 26.4666 -3.26925e-17)
(171.654 25.444 3.35623e-17)
(167.941 24.481 3.45671e-17)
(163.899 23.1335 3.5358e-17)
(160.612 21.8203 0)
(156.715 20.0163 3.85664e-21)
(154.038 18.0684 -3.82023e-17)
(150.328 15.6321 0)
(148.731 12.4802 0)
(145.738 9.46464 0)
(146.055 4.90084 0)
(141.985 2.67649 -9.39089e-17)
(100.05 -1.41985 0)
(100.476 -6.7841 8.89132e-17)
(101.179 -14.9115 9.25586e-17)
(102.142 -22.5891 1.03736e-16)
(103.283 -27.5234 0)
(104.798 -28.9034 1.15917e-16)
(106.467 -28.1327 1.05404e-16)
(108.218 -27.1176 -9.35593e-17)
(109.991 -26.6075 -8.64138e-17)
(111.853 -26.4311 0)
(113.803 -26.3719 -8.04869e-17)
(115.833 -26.4001 0)
(117.97 -26.4763 -1.54327e-16)
(120.167 -26.6381 0)
(122.49 -26.8277 0)
(124.855 -27.1045 -7.23768e-17)
(127.376 -27.3861 0)
(129.915 -27.7682 0)
(132.653 -28.1293 6.74767e-17)
(135.376 -28.6193 -6.57081e-17)
(138.364 -29.0547 -6.40625e-17)
(141.288 -29.6653 4.48595e-21)
(144.574 -30.1735 6.05607e-17)
(147.72 -30.9248 0)
(151.372 -31.5053 -5.69551e-17)
(154.765 -32.4253 0)
(158.876 -33.0761 5.32533e-17)
(162.544 -34.1973 0)
(167.241 -34.9112 -4.94998e-17)
(171.21 -36.2661 0)
(176.647 -37.0321 0)
(180.925 -38.6611 -4.3105e-17)
(187.293 -39.4771 0)
(191.868 -41.4423 0)
(199.42 -42.3411 -3.79183e-17)
(204.288 -44.7228 3.45431e-17)
(213.353 -45.7612 0)
(218.468 -48.6649 4.06751e-21)
(229.403 -50.0742 2.99539e-17)
(234.86 -53.897 0)
(248.551 -56.0631 2.58892e-17)
(255.07 -61.0448 -2.00686e-17)
(272.994 -63.9444 -4.41999e-17)
(281.503 -69.7729 0)
(305.494 -72.434 -2.69625e-21)
(316.839 -77.3345 1.09167e-17)
(347.371 -77.4246 1.64455e-17)
(357.587 -80.7125 1.07275e-17)
(393.817 -83.3448 1.17423e-17)
(406.913 -88.0353 0)
(458.711 -94.7018 0)
(484.47 -86.8777 -8.546e-18)
(559.387 -98.3243 0)
(628.65 0.121549 1.0864e-18)
(577.031 51.7927 -1.02137e-18)
(545.889 68.1462 1.51331e-21)
(490.581 71.7685 -8.71564e-21)
(469.16 66.1539 -1.0447e-17)
(435.075 63.7089 0)
(422.906 58.9628 2.53664e-18)
(396.797 58.0998 5.26954e-18)
(385.662 54.0124 -4.16274e-21)
(364.481 52.8054 -7.26727e-18)
(355.089 49.2158 -4.97634e-18)
(338.1 48.5106 -9.51613e-18)
(329.605 45.6446 0)
(315.536 45.4602 0)
(307.407 43.4212 0)
(295.326 43.495 0)
(287.262 41.8304 0)
(276.738 41.802 -1.18404e-21)
(268.935 40.4711 -2.79411e-21)
(259.549 40.2319 0)
(252.02 38.8951 1.82207e-17)
(243.657 38.1506 0)
(236.795 36.5524 2.04947e-17)
(229.727 35.3632 0)
(223.948 33.824 2.27817e-17)
(218.09 32.8225 2.40522e-17)
(213.019 31.7702 2.49319e-17)
(207.791 31.1063 -2.60613e-17)
(203.033 30.4428 -2.69277e-17)
(198.076 29.9509 -2.79597e-17)
(193.448 29.3962 -5.7778e-17)
(188.699 28.7884 -2.98836e-17)
(184.32 28.1373 0)
(179.856 27.3351 3.17416e-17)
(175.802 26.5661 1.69505e-21)
(171.577 25.5411 -3.3558e-17)
(167.86 24.577 -3.4559e-17)
(163.814 23.2254 -3.53506e-17)
(160.522 21.9108 0)
(156.618 20.0994 3.7991e-21)
(153.933 18.1485 3.81937e-17)
(150.208 15.6967 -3.84872e-17)
(148.606 12.5324 4.04876e-17)
(145.582 9.48663 0)
(145.891 4.93661 0)
(141.473 2.67828 9.67365e-17)
(100.052 -1.43359 0)
(100.486 -6.81351 8.89548e-17)
(101.189 -14.9538 -1.85185e-16)
(102.147 -22.6397 -1.03803e-16)
(103.274 -27.5838 -1.14982e-16)
(104.776 -28.9723 -1.16121e-16)
(106.434 -28.2041 0)
(108.179 -27.1888 9.36324e-17)
(109.947 -26.679 8.64334e-17)
(111.804 -26.504 0)
(113.75 -26.4463 8.04812e-17)
(115.776 -26.4761 0)
(117.909 -26.5536 1.54321e-16)
(120.103 -26.7168 0)
(122.424 -26.9076 0)
(124.786 -27.1857 -4.2914e-21)
(127.304 -27.4684 0)
(129.84 -27.8519 -6.9094e-17)
(132.575 -28.2141 -6.74711e-17)
(135.296 -28.7056 0)
(138.281 -29.142 0)
(141.202 -29.7544 -6.22152e-17)
(144.485 -30.2637 3.87629e-21)
(147.627 -31.0173 5.86168e-17)
(151.275 -31.5989 1.13906e-16)
(154.665 -32.522 0)
(158.772 -33.1739 0)
(162.437 -34.2989 0)
(167.128 -35.014 4.9503e-17)
(171.093 -36.3736 -4.71543e-17)
(176.525 -37.1406 4.5706e-17)
(180.798 -38.7753 4.31136e-17)
(187.161 -39.5918 -4.18434e-17)
(191.73 -41.5636 3.89064e-17)
(199.277 -42.4625 0)
(204.137 -44.8519 -3.45453e-17)
(213.196 -45.8897 3.40141e-17)
(218.298 -48.8012 -2.99801e-17)
(229.224 -50.21 -5.99189e-17)
(234.662 -54.0444 -2.50659e-17)
(248.341 -56.2159 0)
(254.839 -61.217 0)
(272.75 -64.1286 -4.71045e-23)
(281.24 -69.9849 1.53266e-17)
(305.233 -72.6644 -2.69999e-21)
(316.578 -77.5903 -2.18571e-17)
(347.126 -77.6689 -1.64604e-17)
(357.314 -80.9595 -5.37222e-18)
(393.53 -83.5991 0)
(406.581 -88.3367 0)
(458.421 -95.0689 0)
(484.212 -87.322 8.5283e-18)
(559.561 -99.0315 0)
(629.365 0.0566783 -1.08103e-18)
(577.34 52.196 0)
(545.88 68.5556 1.50381e-21)
(490.426 72.1209 -4.04496e-18)
(468.984 66.4222 1.04276e-17)
(434.904 63.9346 0)
(422.749 59.1639 -5.05865e-21)
(396.648 58.3002 -5.27336e-18)
(385.52 54.198 1.50953e-18)
(364.344 52.9845 1.45453e-17)
(354.96 49.3796 9.9641e-18)
(337.977 48.6725 9.52324e-18)
(329.492 45.7964 8.23198e-18)
(315.428 45.6133 0)
(307.305 43.568 0)
(295.227 43.645 -1.38246e-17)
(287.165 41.9747 0)
(276.643 41.9478 -1.15305e-21)
(268.841 40.613 1.60426e-17)
(259.455 40.3749 0)
(251.924 39.0336 -1.82245e-17)
(243.56 38.2858 0)
(236.696 36.6791 -2.05009e-17)
(229.631 35.4822 0)
(223.857 33.9348 -8.78183e-23)
(218.006 32.9293 2.40598e-17)
(212.94 31.874 0)
(207.717 31.2098 2.60686e-17)
(202.962 30.5465 2.69338e-17)
(198.007 30.0558 2.79647e-17)
(193.378 29.5011 2.88939e-17)
(188.628 28.8926 -1.43727e-22)
(184.248 28.2401 3.08279e-17)
(179.783 27.436 -3.17423e-17)
(175.727 26.6657 3.26919e-17)
(171.5 25.6383 6.71143e-17)
(167.78 24.6731 3.02564e-21)
(163.731 23.3175 3.53496e-17)
(160.433 22.0015 0)
(156.521 20.1829 3.69827e-17)
(153.829 18.2289 0)
(150.088 15.7617 3.84835e-17)
(148.481 12.5851 -4.05211e-17)
(145.424 9.50902 0)
(145.721 4.97734 0)
(140.95 2.68432 0)
(100.054 -1.44762 0)
(100.496 -6.84317 -1.77967e-16)
(101.2 -14.9961 1.85261e-16)
(102.152 -22.6899 0)
(103.265 -27.6437 1.1512e-16)
(104.753 -29.0405 0)
(106.401 -28.2752 1.05746e-16)
(108.14 -27.2597 9.37139e-17)
(109.902 -26.7502 0)
(111.754 -26.5767 0)
(113.696 -26.5204 -8.04837e-17)
(115.718 -26.5518 -7.87349e-17)
(117.848 -26.6307 -7.71555e-17)
(120.039 -26.7953 7.55642e-17)
(122.357 -26.9873 -7.40061e-17)
(124.717 -27.2668 1.44741e-16)
(127.232 -27.5506 0)
(129.765 -27.9354 6.90882e-17)
(132.498 -28.2986 -6.74738e-17)
(135.216 -28.7917 -6.5711e-17)
(138.198 -29.2291 0)
(141.116 -29.8434 0)
(144.395 -30.3538 3.89157e-21)
(147.535 -31.1096 -1.1723e-16)
(151.179 -31.6924 3.61962e-21)
(154.565 -32.6184 0)
(158.668 -33.2715 -5.32564e-17)
(162.329 -34.4003 0)
(167.016 -35.1167 -4.95006e-17)
(170.977 -36.481 4.71526e-17)
(176.403 -37.249 -4.57049e-17)
(180.672 -38.8892 -4.31133e-17)
(187.03 -39.7063 -2.15789e-21)
(191.593 -41.6846 -3.89071e-17)
(199.133 -42.5837 0)
(203.986 -44.9807 3.4557e-17)
(213.038 -46.0179 -6.80378e-17)
(218.13 -48.9371 0)
(229.045 -50.3454 2.99659e-17)
(234.466 -54.1913 2.50722e-17)
(248.131 -56.3682 0)
(254.608 -61.3888 0)
(272.507 -64.3124 -4.84605e-23)
(280.978 -70.1966 3.62677e-21)
(304.972 -72.8946 1.90338e-17)
(316.318 -77.8461 -8.33534e-21)
(346.883 -77.9131 -1.64948e-17)
(357.042 -81.206 0)
(393.243 -83.8527 1.17682e-17)
(406.248 -88.6375 1.34587e-18)
(458.129 -95.4359 0)
(483.948 -87.7668 0)
(559.733 -99.7426 2.03194e-18)
(630.083 -0.00874478 -1.08273e-18)
(577.647 52.6022 0)
(545.863 68.9661 -1.54122e-17)
(490.265 72.4733 8.81288e-21)
(468.804 66.6901 0)
(434.733 64.1599 3.15787e-18)
(422.593 59.3647 -5.08074e-21)
(396.498 58.5004 0)
(385.379 54.3836 -1.51931e-18)
(364.207 53.1634 -7.27931e-18)
(354.832 49.5434 -4.98865e-18)
(337.854 48.8342 9.53253e-18)
(329.379 45.9482 -8.23918e-18)
(315.322 45.7665 1.17458e-17)
(307.204 43.7147 1.11404e-17)
(295.129 43.7949 2.76652e-17)
(287.069 42.119 0)
(276.549 42.0937 1.58332e-17)
(268.747 40.7549 0)
(259.362 40.5179 0)
(251.829 39.1721 0)
(243.464 38.4211 0)
(236.598 36.8058 2.05083e-17)
(229.536 35.6011 -2.19624e-17)
(223.766 34.0454 -4.55988e-17)
(217.921 33.0359 -4.81387e-17)
(212.862 31.9777 0)
(207.644 31.3132 2.60789e-17)
(202.891 30.6501 0)
(197.938 30.1606 0)
(193.309 29.6061 0)
(188.558 28.9968 5.97873e-17)
(184.176 28.3429 -4.3646e-22)
(179.711 27.5369 6.34908e-17)
(175.652 26.7654 0)
(171.424 25.7355 -6.7113e-17)
(167.7 24.7692 3.45545e-17)
(163.647 23.4096 0)
(160.343 22.0923 0)
(156.424 20.2664 3.69724e-17)
(153.724 18.3096 0)
(149.968 15.8267 0)
(148.355 12.6382 0)
(145.264 9.53168 0)
(145.546 5.02285 0)
(140.42 2.69485 0)
(100.056 -1.46197 0)
(100.506 -6.87312 8.90124e-17)
(101.211 -15.0383 -9.26652e-17)
(102.157 -22.7398 0)
(103.256 -27.7029 0)
(104.731 -29.1083 0)
(106.368 -28.3458 -2.11817e-16)
(108.101 -27.3303 4.82127e-21)
(109.857 -26.8211 0)
(111.705 -26.6491 0)
(113.642 -26.5943 8.0478e-17)
(115.661 -26.6274 7.87279e-17)
(117.787 -26.7076 0)
(119.975 -26.8737 -7.55573e-17)
(122.29 -27.0668 7.39995e-17)
(124.647 -27.3477 4.32325e-21)
(127.159 -27.6325 0)
(129.691 -28.0188 -6.90912e-17)
(132.42 -28.383 6.74683e-17)
(135.135 -28.8776 -4.50202e-21)
(138.114 -29.316 6.40639e-17)
(141.029 -29.9322 0)
(144.306 -30.4436 -1.21115e-16)
(147.442 -31.2018 5.86135e-17)
(151.082 -31.7857 -5.69504e-17)
(154.465 -32.7146 5.49059e-17)
(158.564 -33.3689 1.0651e-16)
(162.221 -34.5015 0)
(166.903 -35.2191 0)
(170.86 -36.5881 0)
(176.282 -37.3571 -4.57092e-17)
(180.546 -39.0029 4.31225e-17)
(186.898 -39.8205 4.18462e-17)
(191.455 -41.8054 3.89175e-17)
(198.99 -42.7047 0)
(203.835 -45.1093 -6.91248e-17)
(212.881 -46.1459 6.80499e-17)
(217.961 -49.0727 0)
(228.867 -50.4804 0)
(234.269 -54.3379 0)
(247.922 -56.5201 -2.59085e-17)
(254.378 -61.5601 0)
(272.264 -64.4957 -5.01691e-23)
(280.716 -70.408 -1.53451e-17)
(304.711 -73.1246 0)
(316.058 -78.1019 1.09621e-17)
(346.639 -78.157 1.65147e-17)
(356.771 -81.4522 -5.41256e-18)
(392.956 -84.1057 -2.35517e-17)
(405.914 -88.9378 -1.34583e-18)
(457.835 -95.8026 -7.0133e-18)
(483.677 -88.2124 0)
(559.902 -100.458 -1.08352e-20)
(630.804 -0.0746957 2.15885e-18)
(577.951 53.0114 9.95373e-19)
(545.84 69.3778 1.53893e-17)
(490.1 72.8257 1.99512e-18)
(468.623 66.9577 0)
(434.561 64.385 -3.15895e-18)
(422.436 59.5652 -2.53262e-18)
(396.348 58.7005 0)
(385.238 54.569 3.04635e-18)
(364.072 53.3423 -7.28611e-18)
(354.704 49.7071 0)
(337.732 48.9958 2.58772e-22)
(329.267 46.0998 0)
(315.216 45.9195 1.19155e-21)
(307.104 43.8614 -2.23031e-17)
(295.032 43.9449 1.45259e-21)
(286.974 42.2634 0)
(276.456 42.2396 0)
(268.654 40.8969 0)
(259.27 40.661 0)
(251.734 39.3107 0)
(243.368 38.5564 1.97649e-17)
(236.501 36.9326 -2.05172e-17)
(229.441 35.7199 2.19733e-17)
(223.675 34.1559 8.74576e-23)
(217.838 33.1424 2.40809e-17)
(212.783 32.0813 0)
(207.571 31.4166 6.45209e-22)
(202.821 30.7538 2.69547e-17)
(197.87 30.2655 -2.79825e-17)
(193.24 29.7111 0)
(188.488 29.1011 1.46747e-22)
(184.105 28.4457 -3.08385e-17)
(179.639 27.6379 -7.73201e-22)
(175.578 26.8651 0)
(171.348 25.8328 3.35578e-17)
(167.62 24.8655 3.45493e-17)
(163.563 23.5018 3.53424e-17)
(160.254 22.1833 0)
(156.327 20.3501 -3.68157e-21)
(153.62 18.3905 0)
(149.848 15.892 3.84721e-17)
(148.229 12.6919 4.05988e-17)
(145.102 9.55489 4.32168e-17)
(145.366 5.07344 6.3372e-17)
(139.886 2.71042 1.05112e-16)
(100.058 -1.47663 0)
(100.516 -6.90336 8.90546e-17)
(101.223 -15.0806 -9.27127e-17)
(102.163 -22.7893 0)
(103.248 -27.7615 -1.15411e-16)
(104.708 -29.1754 0)
(106.335 -28.416 1.06068e-16)
(108.061 -27.4006 -1.87722e-16)
(109.813 -26.8917 8.65067e-17)
(111.655 -26.7213 0)
(113.588 -26.668 8.04804e-17)
(115.603 -26.7027 7.87293e-17)
(117.726 -26.7843 0)
(119.911 -26.9518 -7.55589e-17)
(122.223 -27.1462 0)
(124.578 -27.4284 4.33855e-21)
(127.087 -27.7144 7.07814e-17)
(129.616 -28.102 6.90854e-17)
(132.342 -28.4672 -6.74711e-17)
(135.055 -28.9634 -4.51927e-21)
(138.031 -29.4028 -1.28122e-16)
(140.943 -30.0208 0)
(144.216 -30.5333 -3.92111e-21)
(147.349 -31.2937 0)
(150.986 -31.8788 0)
(154.365 -32.8106 -5.49028e-17)
(158.46 -33.4661 -5.32536e-17)
(162.113 -34.6025 0)
(166.791 -35.3213 0)
(170.743 -36.695 0)
(176.161 -37.465 -2.55946e-21)
(180.42 -39.1164 -4.31229e-17)
(186.767 -39.9345 0)
(191.318 -41.9259 -3.8919e-17)
(198.847 -42.8254 0)
(203.684 -45.2376 6.91414e-17)
(212.724 -46.2735 -6.80635e-17)
(217.793 -49.208 0)
(228.688 -50.6151 -2.99824e-17)
(234.073 -54.484 2.50979e-17)
(247.713 -56.6716 2.59184e-17)
(254.148 -61.731 2.01096e-17)
(272.021 -64.6786 2.21308e-17)
(280.454 -70.619 1.53631e-17)
(304.45 -73.3545 -1.90707e-17)
(315.798 -78.3576 0)
(346.397 -78.4009 0)
(356.5 -81.698 -1.09632e-20)
(392.668 -84.3581 -6.85584e-21)
(405.579 -89.2375 0)
(457.54 -96.1691 7.01242e-18)
(483.401 -88.6585 0)
(560.067 -101.177 -2.00357e-18)
(631.528 -0.141163 -1.07629e-18)
(578.253 53.4237 -6.73009e-21)
(545.811 69.7909 1.39587e-21)
(489.929 73.178 -1.97074e-18)
(468.439 67.2248 -1.03838e-17)
(434.389 64.6097 0)
(422.278 59.7655 0)
(396.199 58.9004 0)
(385.097 54.7543 4.09805e-21)
(363.937 53.5212 7.2965e-18)
(354.576 49.8707 0)
(337.611 49.1573 -9.55645e-18)
(329.156 46.2514 0)
(315.111 46.0726 -2.35435e-17)
(307.005 44.008 -4.00359e-21)
(294.936 44.0949 -2.77119e-17)
(286.879 42.4078 0)
(276.364 42.3855 1.58528e-17)
(268.562 41.039 0)
(259.178 40.8042 -1.7774e-17)
(251.64 39.4493 -1.82489e-17)
(243.273 38.6918 -3.95466e-17)
(236.404 37.0593 0)
(229.346 35.8387 0)
(223.585 34.2664 4.56484e-17)
(217.755 33.2488 0)
(212.706 32.1848 2.49793e-17)
(207.499 31.5199 -5.22092e-17)
(202.752 30.8574 -2.6967e-17)
(197.802 30.3704 2.79935e-17)
(193.171 29.8162 0)
(188.419 29.2054 -5.98215e-17)
(184.034 28.5487 -3.08458e-17)
(179.567 27.7389 -6.35106e-17)
(175.504 26.9648 -3.26956e-17)
(171.272 25.9302 0)
(167.54 24.9618 -3.45516e-17)
(163.48 23.5942 -3.53449e-17)
(160.165 22.2744 0)
(156.231 20.434 -7.3931e-17)
(153.516 18.4718 0)
(149.728 15.9576 -3.84789e-17)
(148.103 12.7461 -8.13211e-17)
(144.938 9.57868 -4.36046e-17)
(145.181 5.12908 -6.50933e-17)
(139.349 2.73123 -1.0794e-16)
(100.06 -1.49163 0)
(100.527 -6.93392 8.97027e-21)
(101.235 -15.1229 9.27442e-17)
(102.17 -22.8384 1.0411e-16)
(103.24 -27.8195 1.15545e-16)
(104.686 -29.242 0)
(106.301 -28.4858 0)
(108.022 -27.4706 9.39313e-17)
(109.768 -26.962 -8.65242e-17)
(111.606 -26.7932 0)
(113.534 -26.7415 -8.04746e-17)
(115.546 -26.7778 -7.87224e-17)
(117.665 -26.8608 0)
(119.847 -27.0298 -4.25142e-21)
(122.156 -27.2254 0)
(124.508 -27.509 -1.44729e-16)
(127.015 -27.796 -7.07754e-17)
(129.541 -28.185 0)
(132.264 -28.5513 -4.1806e-21)
(134.975 -29.049 1.31414e-16)
(137.947 -29.4894 -4.10545e-21)
(140.857 -30.1092 0)
(144.126 -30.6228 6.05553e-17)
(147.257 -31.3855 -5.86198e-17)
(150.889 -31.9717 0)
(154.266 -32.9064 -5.49088e-17)
(158.356 -33.5632 0)
(162.005 -34.7033 -5.10844e-17)
(166.678 -35.4233 4.95065e-17)
(170.627 -36.8017 -4.71674e-17)
(176.039 -37.5727 -2.568e-21)
(180.294 -39.2296 4.31331e-17)
(186.635 -40.0482 -4.18551e-17)
(191.181 -42.0462 0)
(198.704 -42.9458 0)
(203.533 -45.3657 -3.45774e-17)
(212.567 -46.4009 3.40389e-17)
(217.625 -49.343 3.00283e-17)
(228.511 -50.7494 2.9992e-17)
(233.877 -54.6297 -5.02195e-17)
(247.504 -56.8228 2.59298e-17)
(253.918 -61.9015 -2.01211e-17)
(271.778 -64.8611 0)
(280.192 -70.8297 -3.07567e-17)
(304.189 -73.5841 -2.8203e-21)
(315.538 -78.6132 1.10189e-17)
(346.155 -78.6445 0)
(356.23 -81.9434 1.08804e-17)
(392.381 -84.6099 1.17982e-17)
(405.244 -89.5368 0)
(457.244 -96.5353 0)
(483.118 -89.1052 0)
(560.23 -101.899 0)
(632.255 -0.208149 0)
(578.552 53.8391 -6.9366e-21)
(545.777 70.2052 -1.53569e-17)
(489.754 73.5303 3.92052e-18)
(468.254 67.4916 -3.41302e-21)
(434.216 64.8342 0)
(422.121 59.9656 0)
(396.049 59.1002 5.30185e-18)
(384.957 54.9396 -1.53423e-18)
(363.803 53.7 0)
(354.45 50.0342 -5.02423e-18)
(337.49 49.3187 0)
(329.045 46.4028 -8.2872e-18)
(315.007 46.2256 -1.13574e-21)
(306.906 44.1547 1.11829e-17)
(294.84 44.2449 2.7743e-17)
(286.785 42.5522 -1.37826e-17)
(276.272 42.5314 -3.17294e-17)
(268.471 41.1811 0)
(259.087 40.9474 1.77838e-17)
(251.547 39.588 3.65184e-17)
(243.179 38.8272 7.12499e-22)
(236.308 37.1861 2.05404e-17)
(229.252 35.9575 2.19976e-17)
(223.496 34.3767 -4.56803e-17)
(217.672 33.355 2.41107e-17)
(212.629 32.2883 7.68451e-22)
(207.427 31.6231 -6.48833e-22)
(202.683 30.961 -2.69844e-17)
(197.735 30.4753 -2.8009e-17)
(193.103 29.9213 2.89346e-17)
(188.35 29.3098 5.98456e-17)
(183.963 28.6516 3.08562e-17)
(179.495 27.8399 3.17636e-17)
(175.43 27.0646 3.27024e-17)
(171.197 26.0277 -3.35617e-17)
(167.461 25.0582 3.45494e-17)
(163.397 23.6866 -3.53434e-17)
(160.076 22.3657 3.63581e-17)
(156.134 20.5181 7.39278e-17)
(153.411 18.5534 0)
(149.608 16.0235 0)
(147.977 12.8009 4.07361e-17)
(144.772 9.60309 0)
(144.99 5.18972 0)
(138.81 2.75741 0)
(100.062 -1.50696 0)
(100.538 -6.96481 -8.91127e-17)
(101.248 -15.1652 -9.27928e-17)
(102.177 -22.8871 -1.04179e-16)
(103.233 -27.8769 1.15692e-16)
(104.663 -29.3079 0)
(106.268 -28.5551 0)
(107.982 -27.5402 0)
(109.722 -27.0321 -8.65501e-17)
(111.556 -26.8648 -8.27098e-17)
(113.48 -26.8147 8.04771e-17)
(115.488 -26.8527 -7.87239e-17)
(117.604 -26.9371 0)
(119.783 -27.1076 7.55496e-17)
(122.089 -27.3044 0)
(124.438 -27.5893 7.23604e-17)
(126.942 -27.8775 -7.07779e-17)
(129.466 -28.2679 6.90875e-17)
(132.186 -28.6352 1.34933e-16)
(134.894 -29.1344 4.55421e-21)
(137.864 -29.5758 6.4058e-17)
(140.771 -30.1975 0)
(144.037 -30.7121 6.05593e-17)
(147.164 -31.4771 5.86164e-17)
(150.793 -32.0643 5.69542e-17)
(154.166 -33.002 5.4906e-17)
(158.251 -33.6599 0)
(161.898 -34.8039 5.10826e-17)
(166.566 -35.5251 -4.95052e-17)
(170.511 -36.9081 -4.56135e-21)
(175.918 -37.6801 4.57141e-17)
(180.168 -39.3427 -8.62735e-17)
(186.504 -40.1617 -2.19178e-21)
(191.044 -42.1663 0)
(198.561 -43.066 0)
(203.382 -45.4935 3.45919e-17)
(212.41 -46.528 0)
(217.457 -49.4776 -6.00798e-17)
(228.333 -50.8834 -3.00038e-17)
(233.682 -54.7751 2.51233e-17)
(247.296 -56.9735 -2.59439e-17)
(253.689 -62.0716 0)
(271.536 -65.0431 2.21609e-17)
(279.931 -71.0401 3.07972e-17)
(303.929 -73.8136 1.91184e-17)
(315.279 -78.8688 8.71392e-21)
(345.913 -78.8881 0)
(355.961 -82.1886 -5.45285e-18)
(392.095 -84.8611 1.18204e-17)
(404.908 -89.8355 0)
(456.947 -96.9012 0)
(482.829 -89.5525 0)
(560.389 -102.626 -1.95441e-18)
(632.985 -0.27566 0)
(578.849 54.2577 -9.85325e-19)
(545.737 70.621 0)
(489.575 73.8827 -1.95041e-18)
(468.067 67.758 1.03573e-17)
(434.043 65.0583 0)
(421.963 60.1654 0)
(395.901 59.2998 -5.31199e-18)
(384.818 55.1247 0)
(363.669 53.8788 0)
(354.324 50.1977 5.0352e-18)
(337.37 49.4801 9.59233e-18)
(328.935 46.5542 8.30363e-18)
(314.903 46.3786 1.18103e-17)
(306.808 44.3013 0)
(294.745 44.395 -1.38897e-17)
(286.692 42.6966 1.37977e-17)
(276.181 42.6774 1.58793e-17)
(268.38 41.3232 1.61013e-17)
(258.997 41.0907 0)
(251.454 39.7268 -1.82718e-17)
(243.085 38.9628 7.35839e-22)
(236.212 37.3129 -2.05555e-17)
(229.158 36.0762 -2.20154e-17)
(223.407 34.4869 1.26817e-22)
(217.59 33.4612 -4.8261e-17)
(212.552 32.3916 7.66977e-22)
(207.356 31.7263 -6.48201e-22)
(202.614 31.0646 2.70031e-17)
(197.668 30.5803 2.80261e-17)
(193.035 30.0264 -2.89507e-17)
(188.282 29.4142 -2.99378e-17)
(183.892 28.7546 0)
(179.424 27.9411 0)
(175.356 27.1645 3.27082e-17)
(171.121 26.1252 1.77065e-21)
(167.382 25.1548 -3.45554e-17)
(163.314 23.7792 2.81296e-21)
(159.987 22.4572 -3.63623e-17)
(156.038 20.6023 -3.69666e-17)
(153.307 18.6353 0)
(149.488 16.0896 3.84947e-17)
(147.85 12.8563 0)
(144.604 9.62817 0)
(144.793 5.25532 0)
(138.27 2.78907 0)
(100.065 -1.52265 0)
(100.55 -6.99605 0)
(101.261 -15.2075 1.85659e-16)
(102.185 -22.9355 0)
(103.226 -27.9337 -1.15823e-16)
(104.641 -29.3733 0)
(106.234 -28.624 0)
(107.942 -27.6095 9.40776e-17)
(109.677 -27.1019 8.65665e-17)
(111.506 -26.9362 1.65422e-16)
(113.426 -26.8877 -8.04713e-17)
(115.43 -26.9274 7.8717e-17)
(117.543 -27.0133 -7.71451e-17)
(119.719 -27.1852 0)
(122.022 -27.3832 0)
(124.369 -27.6695 0)
(126.869 -27.9588 7.0772e-17)
(129.391 -28.3506 -1.38168e-16)
(132.108 -28.7189 -6.74636e-17)
(134.814 -29.2196 -6.5704e-17)
(137.78 -29.6621 -6.40618e-17)
(140.684 -30.2856 0)
(143.947 -30.8012 -6.05556e-17)
(147.071 -31.5684 0)
(150.696 -32.1568 -5.6951e-17)
(154.066 -33.0974 0)
(158.147 -33.7565 0)
(161.79 -34.9042 0)
(166.453 -35.6266 4.95102e-17)
(170.394 -37.0144 4.71718e-17)
(175.796 -37.7874 0)
(180.042 -39.4555 4.31411e-17)
(186.373 -40.275 8.37261e-17)
(190.907 -42.2861 -3.89461e-17)
(198.418 -43.1859 0)
(203.232 -45.6211 -6.9201e-17)
(212.254 -46.6548 0)
(217.289 -49.612 6.011e-17)
(228.156 -51.017 6.00338e-17)
(233.487 -54.9201 2.5144e-17)
(247.088 -57.1238 2.59602e-17)
(253.46 -62.2412 0)
(271.294 -65.2248 9.75028e-23)
(279.669 -71.2501 3.80097e-21)
(303.668 -74.0429 0)
(315.019 -79.1243 -2.21553e-17)
(345.672 -79.1315 0)
(355.693 -82.4334 0)
(391.809 -85.1117 -1.18305e-17)
(404.571 -90.1338 1.3195e-18)
(456.648 -97.2669 0)
(482.534 -90.0003 0)
(560.544 -103.357 1.08533e-20)
(633.717 -0.343705 1.07652e-18)
(579.143 54.6796 0)
(545.693 71.0383 0)
(489.393 74.2352 1.92716e-18)
(467.878 68.024 0)
(433.87 65.2821 -3.14915e-18)
(421.806 60.365 0)
(395.752 59.4993 5.3253e-18)
(384.679 55.3098 0)
(363.537 54.0575 0)
(354.198 50.3612 -5.05498e-18)
(337.25 49.6414 -9.61607e-18)
(328.826 46.7055 0)
(314.8 46.5315 1.18373e-17)
(306.711 44.448 -1.12333e-17)
(294.651 44.545 1.3914e-17)
(286.599 42.8411 -1.38232e-17)
(276.091 42.8235 0)
(268.29 41.4654 -3.22362e-17)
(258.907 41.2341 0)
(251.362 39.8657 -1.82891e-17)
(242.992 39.0984 1.98111e-17)
(236.117 37.4397 0)
(229.065 36.1948 2.20339e-17)
(223.318 34.5971 2.28815e-17)
(217.509 33.5673 4.83077e-17)
(212.476 32.4949 -5.00862e-17)
(207.285 31.8295 5.23346e-17)
(202.547 31.1682 2.7028e-17)
(197.602 30.6853 2.80489e-17)
(192.968 30.1317 -2.89718e-17)
(188.214 29.5187 -2.99564e-17)
(183.822 28.8577 0)
(179.353 28.0422 0)
(175.283 27.2645 -3.272e-17)
(171.046 26.2229 6.71536e-17)
(167.303 25.2514 -3.45576e-17)
(163.231 23.872 7.07078e-17)
(159.899 22.5489 0)
(155.941 20.6868 -3.69665e-17)
(153.203 18.7175 0)
(149.368 16.156 -7.70332e-17)
(147.723 12.9124 0)
(144.433 9.65399 0)
(144.591 5.32579 0)
(137.731 2.82628 0)
(100.067 -1.53871 0)
(100.562 -7.02765 8.91895e-17)
(101.275 -15.2499 -1.85741e-16)
(102.194 -22.9836 0)
(103.219 -27.9898 0)
(104.619 -29.438 0)
(106.201 -28.6924 0)
(107.902 -27.6785 4.90553e-21)
(109.632 -27.1714 0)
(111.456 -27.0074 -8.27121e-17)
(113.372 -26.9604 0)
(115.372 -27.0019 -7.87187e-17)
(117.481 -27.0892 -4.13984e-21)
(119.655 -27.2627 -7.55491e-17)
(121.955 -27.4619 0)
(124.299 -27.7496 0)
(126.797 -28.0399 7.07747e-17)
(129.315 -28.4331 6.9081e-17)
(132.03 -28.8024 -6.74669e-17)
(134.733 -29.3047 -6.57085e-17)
(137.696 -29.7481 1.28119e-16)
(140.598 -30.3734 0)
(143.857 -30.8901 6.056e-17)
(146.979 -31.6596 0)
(150.6 -32.2491 -5.69555e-17)
(153.966 -33.1926 0)
(158.043 -33.8529 0)
(161.682 -35.0044 0)
(166.341 -35.7279 -4.95099e-17)
(170.278 -37.1204 4.71816e-17)
(175.675 -37.8944 0)
(179.916 -39.5681 -4.31532e-17)
(186.242 -40.388 2.21072e-21)
(190.77 -42.4057 7.79058e-17)
(198.275 -43.3055 0)
(203.082 -45.7484 6.92251e-17)
(212.098 -46.7814 0)
(217.122 -49.7461 4.27406e-21)
(227.98 -51.1503 -3.0032e-17)
(233.293 -55.0647 -2.51603e-17)
(246.881 -57.2737 -2.26724e-22)
(253.231 -62.4104 2.01824e-17)
(271.053 -65.406 -2.22053e-17)
(279.408 -71.4597 -1.54489e-17)
(303.408 -74.272 0)
(314.76 -79.3798 1.1112e-17)
(345.432 -79.3749 0)
(355.426 -82.6781 0)
(391.523 -85.3618 -1.18571e-17)
(404.234 -90.4315 -2.63453e-18)
(456.348 -97.6323 0)
(482.233 -90.4486 0)
(560.696 -104.091 1.92794e-18)
(634.451 -0.412291 -1.07223e-18)
(579.436 55.1046 0)
(545.645 71.4572 -1.53622e-17)
(489.208 74.5879 -9.63178e-21)
(467.689 68.2898 0)
(433.696 65.5057 6.30426e-18)
(421.649 60.5644 0)
(395.604 59.6987 -5.34031e-18)
(384.541 55.4948 0)
(363.405 54.2362 0)
(354.074 50.5246 1.01457e-17)
(337.131 49.8026 0)
(328.717 46.8568 0)
(314.698 46.6844 -1.18679e-17)
(306.615 44.5946 -3.90932e-21)
(294.557 44.6951 -1.39406e-17)
(286.508 42.9855 -3.44469e-21)
(276.001 42.9695 0)
(268.201 41.6077 1.61385e-17)
(258.818 41.3775 0)
(251.271 40.0047 1.83069e-17)
(242.899 39.234 0)
(236.022 37.5666 2.05948e-17)