/*--------------------------------*- C++ -*----------------------------------*\
| =========                 |                                                 |
| \\      /  F ield         | OpenFOAM: The Open Source CFD Toolbox           |
|  \\    /   O peration     | Version:  2412                                  |
|   \\  /    A nd           | Website:  www.openfoam.com                      |
|    \\/     M anipulation  |                                                 |
\*---------------------------------------------------------------------------*/
FoamFile
{
    version     2.0;
    format      ascii;
    arch        "LSB;label=32;scalar=64";
    class       volScalarField;
    location    "1";
    object      epsilon;
}
// * * * * * * * * * * * * * * * * * * * * * * * * * * * * * * * * * * * * * //

dimensions      [0 2 -3 0 0 0 0];

internalField   nonuniform List<scalar> 
12960
(
381.257
386.685
394.659
407.915
432.22
477.818
559.084
688.878
871.268
1097.95
1352.38
1616.94
1875.38
2110.25
2299.23
2421.35
2465.57
2443.23
2382.9
2321.1
2282.18
2278.45
2307.8
2368.73
2454.08
2565.2
2696.14
2853.93
3032.44
3245.49
3483.98
3771.37
4091.9
4484.88
4922.02
5470.6
6079.49
6868.04
7746.53
8940.7
10302.5
12280.1
14615.9
18168
22331
28484
34908.6
43362.2
50677.6
58841.3
65364.6
62077.5
60867.5
43482.3
35131.2
31681.4
29734.9
27193.4
25641.5
23680.1
22022.6
19705.3
17559.6
15249.7
13331.6
11558.5
10157.8
8928.25
7964.36
7141.16
6504.39
5972.68
5561.94
5217.06
4941.35
4699.85
4491.44
4295.3
4108.78
3921.72
3732.27
3539.72
3344.01
3151.85
2962.91
2787.92
2622.66
2478.92
2345.74
2235.84
2131.11
2047.96
1961.72
1895.42
1817.93
1759.49
1683.83
1627.37
1548.55
381.343
386.873
394.965
408.383
432.944
478.937
560.719
691.007
873.635
1100.08
1353.73
1617.12
1874.33
2108.35
2297.11
2419.53
2464.15
2441.83
2381.02
2318.49
2278.94
2274.85
2304.12
2365.11
2450.6
2561.84
2692.88
2850.7
3029.19
3242.15
3480.51
3767.68
4087.96
4480.58
4917.29
5465.28
6073.45
6861
7738.21
8930.58
10290.2
12265
14598
18148.1
22310.6
28466.7
34895.4
43358.8
50679.8
58877.2
65450
62255.6
61257.1
43975.6
35673.2
32229.2
30248.5
27623.1
25961.2
23901.5
22167.3
19794.8
17611
15276.7
13344.1
11563.1
10158.5
8927.01
7962.06
7138.29
6501.25
5969.52
5558.93
5214.36
4939.02
4697.96
4489.99
4294.28
4108.14
3921.37
3732.1
3539.63
3343.87
3151.6
2962.5
2787.37
2622.01
2478.24
2345.14
2235.39
2130.88
2048.04
1962.12
1896.23
1819.15
1761.26
1686.1
1630.36
1552.04
381.431
387.064
395.276
408.858
433.679
480.069
562.367
693.146
876.008
1102.21
1355.09
1617.29
1873.27
2106.42
2294.95
2417.69
2462.72
2440.44
2379.16
2315.9
2275.71
2271.26
2300.44
2361.49
2447.12
2558.49
2689.62
2847.48
3025.95
3238.81
3477.03
3764
4084.01
4476.27
4912.57
5459.97
6067.42
6853.96
7729.89
8920.46
10277.8
12249.9
14580.2
18128.2
22290.3
28449.4
34882.3
43355.6
50682.4
58913.7
65536.4
62436.1
61654.4
44482.1
36231.1
32793.5
30778.2
28067.5
26292.7
24131.5
22317.8
19887.9
17664.5
15304.8
13357.2
11568.2
10159.5
8925.95
7959.89
7135.55
6498.2
5966.45
5556
5211.72
4936.75
4696.11
4488.58
4293.3
4107.54
3921.07
3731.98
3539.57
3343.78
3151.38
2962.13
2786.83
2621.38
2477.58
2344.55
2234.95
2130.67
2048.12
1962.54
1897.07
1820.4
1763.07
1688.4
1633.39
1555.6
381.52
387.257
395.591
409.341
434.422
481.213
564.029
695.299
878.39
1104.35
1356.44
1617.46
1872.19
2104.46
2292.76
2415.81
2461.27
2439.05
2377.31
2313.32
2272.49
2267.67
2296.75
2357.87
2443.63
2555.13
2686.35
2844.24
3022.69
3235.46
3473.55
3760.3
4080.05
4471.95
4907.82
5454.63
6061.36
6846.89
7721.54
8910.3
10265.4
12234.7
14562.2
18108.1
22269.8
28432
34869.1
43352.5
50684.9
58950.4
65623.3
62618.8
62058.9
45001.6
36805
33374.3
31324.3
28526.8
26636.2
24370.3
22474.2
19984.8
17720.2
15334.2
13370.9
11573.6
10160.6
8925.01
7957.82
7132.87
6495.21
5963.42
5553.11
5209.11
4934.5
4694.29
4487.2
4292.34
4106.96
3920.78
3731.89
3539.54
3343.71
3151.18
2961.76
2786.31
2620.75
2476.93
2343.96
2234.52
2130.46
2048.21
1962.96
1897.92
1821.66
1764.89
1690.74
1636.46
1559.2
381.61
387.454
395.911
409.83
435.176
482.371
565.707
697.466
880.784
1106.5
1357.8
1617.63
1871.1
2102.47
2290.52
2413.89
2459.79
2437.64
2375.46
2310.74
2269.27
2264.07
2293.05
2354.24
2440.13
2551.75
2683.07
2840.98
3019.41
3232.09
3470.04
3756.57
4076.07
4467.61
4903.05
5449.26
6055.27
6839.78
7713.14
8900.09
10252.9
12219.4
14544.1
18088
22249.2
28414.5
34855.9
43349.3
50687.4
58987.2
65710.5
62803.4
62470.8
45534.5
37395.3
33972.2
31887
29001.4
26992
24618.2
22636.6
20085.6
17778.1
15364.7
13385.3
11579.3
10161.9
8924.19
7955.84
7130.27
6492.28
5960.43
5550.25
5206.53
4932.28
4692.49
4485.84
4291.41
4106.4
3920.52
3731.81
3539.53
3343.65
3150.98
2961.41
2785.79
2620.13
2476.27
2343.37
2234.08
2130.25
2048.31
1963.39
1898.77
1822.93
1766.73
1693.09
1639.57
1562.85
381.702
387.653
396.236
410.326
435.94
483.542
567.401
699.649
883.19
1108.65
1359.16
1617.79
1870
2100.45
2288.24
2411.93
2458.27
2436.22
2373.61
2308.17
2266.04
2260.47
2289.34
2350.58
2436.61
2548.36
2679.77
2837.71
3016.12
3228.7
3466.51
3752.83
4072.06
4463.23
4898.24
5443.85
6049.14
6832.63
7704.69
8889.8
10240.4
12204.1
14526
18067.7
22228.4
28396.8
34842.5
43346.1
50689.8
59024
65798.1
62989.9
62890.1
46081.1
38002.4
34587.3
32466.7
29491.7
27360.6
24875.6
22805.5
20190.3
17838.4
15396.6
13400.3
11585.3
10163.4
8923.5
7953.95
7127.73
6489.4
5957.49
5547.42
5203.98
4930.08
4690.71
4484.49
4290.49
4105.86
3920.27
3731.74
3539.52
3343.6
3150.8
2961.05
2785.27
2619.5
2475.61
2342.77
2233.63
2130.04
2048.4
1963.82
1899.63
1824.2
1768.58
1695.47
1642.71
1566.54
381.795
387.855
396.565
410.83
436.715
484.728
569.111
701.848
885.609
1110.81
1360.53
1617.95
1868.88
2098.4
2285.92
2409.91
2456.72
2434.78
2371.75
2305.59
2262.81
2256.85
2285.61
2346.92
2433.08
2544.95
2676.45
2834.42
3012.8
3225.29
3462.96
3749.06
4068.03
4458.83
4893.4
5438.41
6042.96
6825.42
7696.18
8879.45
10227.7
12188.6
14507.6
18047.2
22207.5
28379
34828.9
43342.7
50692
59060.8
65885.8
63178.4
63317
46641.8
38626.6
35220.2
33063.8
29998.2
27742.5
25142.8
22981.2
20299.4
17901.1
15429.7
13416
11591.7
10165.1
8922.94
7952.15
7125.27
6486.58
5954.6
5544.64
5201.46
4927.92
4688.96
4483.17
4289.59
4105.33
3920.03
3731.7
3539.53
3343.56
3150.62
2960.7
2784.75
2618.87
2474.94
2342.17
2233.19
2129.82
2048.49
1964.25
1900.5
1825.49
1770.45
1697.87
1645.88
1570.28
381.889
388.06
396.9
411.34
437.5
485.927
570.837
704.062
888.039
1112.98
1361.89
1618.11
1867.75
2096.33
2283.54
2407.85
2455.14
2433.32
2369.88
2303
2259.57
2253.22
2281.87
2343.24
2429.53
2541.52
2673.11
2831.11
3009.47
3221.86
3459.38
3745.26
4063.96
4454.39
4888.52
5432.93
6036.75
6818.17
7687.62
8869.04
10215
12173
14489.2
18026.6
22186.4
28361
34815.3
43339.3
50694.1
59097.6
65973.9
63368.8
63751.6
47217
39268.6
35871.3
33678.8
30521.3
28138.2
25420.3
23163.8
20412.9
17966.5
15464.3
13432.5
11598.6
10167.1
8922.55
7950.48
7122.91
6483.84
5951.78
5541.92
5198.99
4925.79
4687.24
4481.88
4288.71
4104.83
3919.82
3731.67
3539.56
3343.54
3150.45
2960.36
2784.23
2618.24
2474.28
2341.57
2232.74
2129.61
2048.58
1964.68
1901.37
1826.79
1772.34
1700.29
1649.09
1574.06
381.985
388.268
397.239
411.859
438.296
487.14
572.579
706.291
890.482
1115.16
1363.27
1618.27
1866.6
2094.22
2281.13
2405.74
2453.51
2431.84
2368.01
2300.42
2256.32
2249.59
2278.12
2339.54
2425.96
2538.08
2669.76
2827.78
3006.11
3218.41
3455.78
3741.44
4059.87
4449.93
4883.62
5427.42
6030.49
6810.88
7679
8858.56
10202.2
12157.3
14470.6
18005.8
22165.1
28342.8
34801.5
43335.8
50696
59134.3
66062.2
63561.2
64194.2
47807.3
39928.9
36541
34312
31061.6
28548
25708.6
23353.9
20531.2
18034.7
15500.5
13449.7
11605.8
10169.3
8922.34
7948.95
7120.66
6481.2
5949.03
5539.25
5196.57
4923.7
4685.55
4480.61
4287.87
4104.35
3919.63
3731.66
3539.61
3343.53
3150.3
2960.03
2783.72
2617.61
2473.61
2340.97
2232.28
2129.39
2048.67
1965.12
1902.24
1828.1
1774.24
1702.74
1652.34
1577.89
382.081
388.479
397.584
412.385
439.103
488.368
574.337
708.537
892.937
1117.35
1364.64
1618.42
1865.44
2092.08
2278.66
2403.57
2451.84
2430.34
2366.13
2297.83
2253.07
2245.94
2274.36
2335.83
2422.38
2534.62
2666.39
2824.44
3002.74
3214.93
3452.16
3737.59
4055.75
4445.43
4878.68
5421.86
6024.19
6803.53
7670.33
8848.01
10189.3
12141.5
14451.9
17984.9
22143.7
28324.5
34787.6
43332.2
50697.8
59171.1
66150.7
63755.5
64645
48413.1
40607.8
37229.7
34964
31619.5
28972.7
26008.1
23551.7
20654.5
18105.8
15538.3
13467.9
11613.6
10171.8
8922.35
7947.59
7118.55
6478.66
5946.37
5536.66
5194.22
4921.67
4683.91
4479.39
4287.05
4103.9
3919.47
3731.67
3539.68
3343.54
3150.16
2959.7
2783.21
2616.99
2472.94
2340.36
2231.83
2129.17
2048.76
1965.55
1903.13
1829.41
1776.16
1705.21
1655.62
1581.76
382.18
388.693
397.933
412.918
439.92
489.61
576.113
710.798
895.404
1119.54
1366.01
1618.56
1864.26
2089.9
2276.15
2401.35
2450.13
2428.82
2364.25
2295.24
2249.82
2242.28
2270.58
2332.11
2418.78
2531.14
2663
2821.07
2999.34
3211.43
3448.52
3733.72
4051.61
4440.91
4873.71
5416.27
6017.86
6796.14
7661.6
8837.4
10176.4
12125.6
14433
17963.9
22122.1
28306
34773.5
43328.6
50699.6
59207.8
66239.6
63952
65104.2
49034.7
41305.9
37938
35635.2
32195.5
29412.6
26319.3
23757.7
20783.1
18180.2
15578
13487.1
11622
10174.7
8922.6
7946.41
7116.59
6476.25
5943.82
5534.16
5191.94
4919.7
4682.32
4478.21
4286.28
4103.49
3919.34
3731.72
3539.77
3343.57
3150.04
2959.39
2782.71
2616.37
2472.27
2339.75
2231.37
2128.95
2048.85
1966
1904.02
1830.74
1778.09
1707.7
1658.94
1585.68
382.279
388.91
398.288
413.459
440.749
490.867
577.904
713.075
897.882
1121.74
1367.39
1618.71
1863.07
2087.69
2273.58
2399.08
2448.38
2427.27
2362.36
2292.65
2246.56
2238.62
2266.8
2328.37
2415.17
2527.65
2659.6
2817.69
2995.93
3207.92
3444.85
3729.82
4047.44
4436.36
4868.7
5410.65
6011.48
6788.71
7652.83
8826.73
10163.4
12109.6
14414.1
17942.7
22100.3
28287.4
34759.3
43324.9
50701.2
59244.6
66328.7
64150.6
65572
49672.8
42023.7
38666.1
36325.9
32790.2
29868.4
26642.7
23972.2
20917.3
18257.9
15619.5
13507.4
11630.9
10178
8923.13
7945.45
7114.8
6473.98
5941.38
5531.76
5189.74
4917.8
4680.8
4477.08
4285.55
4103.12
3919.25
3731.8
3539.89
3343.62
3149.93
2959.09
2782.22
2615.75
2471.61
2339.15
2230.92
2128.73
2048.95
1966.45
1904.91
1832.08
1780.05
1710.21
1662.3
1589.66
382.38
389.131
398.648
414.009
441.589
492.138
579.713
715.367
900.373
1123.94
1368.77
1618.84
1861.86
2085.45
2270.97
2396.75
2446.58
2425.7
2360.45
2290.05
2243.29
2234.95
2263
2324.62
2411.55
2524.15
2656.17
2814.29
2992.5
3204.38
3441.16
3725.9
4043.24
4431.78
4863.67
5404.99
6005.06
6781.23
7644
8816
10150.2
12093.5
14395
17921.3
22078.4
28268.7
34745.1
43321.1
50702.7
59281.5
66418.1
64351.3
66048.6
50327.8
42761.7
39414.6
37036.6
33403.9
30340.6
26978.9
24195.6
21057.4
18339.2
15663.2
13528.8
11640.6
10181.7
8923.98
7944.73
7113.22
6471.88
5939.09
5529.48
5187.65
4915.99
4679.34
4476.01
4284.87
4102.79
3919.19
3731.91
3540.05
3343.71
3149.85
2958.81
2781.75
2615.14
2470.95
2338.55
2230.47
2128.52
2049.05
1966.9
1905.82
1833.43
1782.02
1712.76
1665.69
1593.68
382.483
389.354
399.013
414.566
442.441
493.425
581.538
717.675
902.875
1126.15
1370.15
1618.98
1860.63
2083.18
2268.3
2394.36
2444.73
2424.1
2358.54
2287.45
2240.02
2231.26
2259.18
2320.86
2407.91
2520.62
2652.74
2810.87
2989.05
3200.82
3437.45
3721.96
4039.02
4427.17
4858.6
5399.3
5998.61
6773.71
7635.13
8805.2
10137.1
12077.4
14375.8
17899.8
22056.3
28249.8
34730.7
43317.4
50704.2
59318.4
66507.8
64554.2
66534.4
51000.1
43520.5
40183.9
37767.7
34037.2
30829.6
27328.2
24428.5
21203.8
18424.3
15709
13551.4
11650.9
10185.9
8925.18
7944.3
7111.86
6469.98
5936.96
5527.33
5185.67
4914.27
4677.97
4475.01
4284.26
4102.52
3919.19
3732.07
3540.24
3343.82
3149.8
2958.55
2781.28
2614.55
2470.29
2337.95
2230.02
2128.31
2049.15
1967.36
1906.74
1834.79
1784.01
1715.32
1669.13
1597.75
382.587
389.581
399.384
415.131
443.304
494.726
583.381
719.999
905.388
1128.37
1371.53
1619.1
1859.39
2080.87
2265.58
2391.91
2442.83
2422.47
2356.62
2284.85
2236.75
2227.57
2255.36
2317.08
2404.25
2517.09
2649.28
2807.43
2985.58
3197.25
3433.72
3717.99
4034.77
4422.53
4853.51
5393.57
5992.12
6766.14
7626.2
8794.35
10123.8
12061.1
14356.5
17878.2
22034.1
28230.7
34716.2
43313.6
50705.6
59355.3
66597.8
64759.3
67029.4
51690.4
44300.4
40974.4
38519.6
34690.6
31336.1
27691.3
24671.2
21356.7
18513.4
15757.3
13575.5
11662.1
10190.6
8926.77
7944.17
7110.77
6468.29
5935.02
5525.34
5183.82
4912.66
4676.69
4474.1
4283.71
4102.3
3919.23
3732.27
3540.47
3343.97
3149.77
2958.32
2780.84
2613.96
2469.65
2337.36
2229.58
2128.1
2049.26
1967.83
1907.66
1836.17
1786.02
1717.92
1672.6
1601.88
382.692
389.812
399.76
415.705
444.179
496.043
585.24
722.339
907.913
1130.59
1372.91
1619.23
1858.13
2078.52
2262.8
2389.39
2440.88
2420.81
2354.69
2282.25
2233.47
2223.88
2251.53
2313.29
2400.58
2513.54
2645.81
2803.98
2982.09
3193.65
3429.97
3714
4030.49
4417.86
4848.38
5387.81
5985.59
6758.53
7617.23
8783.44
10110.5
12044.7
14337.1
17856.4
22011.7
28211.6
34701.6
43309.8
50707
59392.4
66688.1
64966.8
67534.1
52399.1
45102.1
41786.6
39292.7
35364.4
31860.7
28068.8
24924.2
21516.5
18606.9
15808
13601
11674.3
10195.9
8928.81
7944.4
7109.96
6466.84
5933.28
5523.53
5182.11
4911.18
4675.51
4473.27
4283.24
4102.16
3919.34
3732.52
3540.75
3344.16
3149.78
2958.11
2780.42
2613.39
2469.02
2336.78
2229.15
2127.91
2049.38
1968.31
1908.6
1837.56
1788.05
1720.54
1676.11
1606.05
382.799
390.045
400.142
416.287
445.066
497.375
587.117
724.694
910.449
1132.82
1374.3
1619.34
1856.85
2076.14
2259.97
2386.82
2438.88
2419.12
2352.74
2279.64
2230.19
2220.17
2247.69
2309.49
2396.9
2509.97
2642.33
2800.51
2978.58
3190.03
3426.19
3709.99
4026.2
4413.17
4843.23
5382.02
5979.03
6750.89
7608.21
8772.47
10097.1
12028.2
14317.5
17834.5
21989.2
28192.3
34686.9
43306
50708.4
59429.6
66778.8
65176.6
68048.6
53126.8
45926
42620.7
40087.4
36059.3
32403.8
28461.1
25188
21683.7
18705
15861.6
13628.1
11687.4
10201.9
8931.34
7945.01
7109.48
6465.66
5931.77
5521.9
5180.58
4909.84
4674.46
4472.54
4282.85
4102.09
3919.51
3732.84
3541.08
3344.4
3149.82
2957.93
2780.02
2612.84
2468.4
2336.22
2228.72
2127.72
2049.51
1968.79
1909.55
1838.97
1790.1
1723.18
1679.67
1610.28
382.908
390.282
400.53
416.878
445.964
498.723
589.011
727.066
912.997
1135.06
1375.68
1619.45
1855.56
2073.72
2257.09
2384.17
2436.82
2417.39
2350.78
2277.03
2226.91
2216.46
2243.83
2305.67
2393.21
2506.39
2638.83
2797.03
2975.06
3186.4
3422.4
3705.95
4021.87
4408.45
4838.05
5376.2
5972.43
6743.2
7599.14
8761.45
10083.6
12011.7
14297.9
17812.5
21966.5
28172.8
34672.2
43302.2
50709.8
59466.9
66869.9
65388.9
68573.2
53874
46772.7
43477.2
40903.9
36775.6
32966.1
28868.9
25463.1
21858.5
18807.9
15918.1
13657
11701.6
10208.7
8934.42
7946.07
7109.36
6464.79
5930.52
5520.5
5179.23
4908.66
4673.54
4471.93
4282.57
4102.1
3919.76
3733.21
3541.46
3344.68
3149.91
2957.79
2779.65
2612.32
2467.8
2335.66
2228.31
2127.54
2049.65
1969.29
1910.51
1840.39
1792.17
1725.86
1683.27
1614.57
383.018
390.523
400.923
417.477
446.876
500.086
590.922
729.453
915.556
1137.3
1377.06
1619.55
1854.25
2071.27
2254.14
2381.47
2434.7
2415.64
2348.81
2274.42
2223.62
2212.74
2239.97
2301.85
2389.5
2502.79
2635.31
2793.53
2971.52
3182.74
3418.58
3701.9
4017.53
4403.71
4832.84
5370.34
5965.79
6735.47
7590.03
8750.38
10070
11995.1
14278.1
17790.3
21943.7
28153.3
34657.4
43298.4
50711.2
59504.3
66961.4
65603.6
69108.3
54641.1
47642.5
44356.6
41742.8
37513.7
33548
29292.8
25750.1
22041.5
18916
15977.7
13687.7
11716.9
10216.2
8938.1
7947.6
7109.65
6464.27
5929.55
5519.34
5178.08
4907.65
4672.77
4471.44
4282.39
4102.21
3920.08
3733.66
3541.91
3345.02
3150.04
2957.68
2779.31
2611.82
2467.22
2335.12
2227.91
2127.38
2049.8
1969.81
1911.49
1841.83
1794.27
1728.57
1686.91
1618.91
383.129
390.767
401.322
418.086
447.799
501.466
592.852
731.856
918.125
1139.54
1378.44
1619.65
1852.91
2068.77
2251.14
2378.69
2432.53
2413.84
2346.83
2271.8
2220.33
2209.02
2236.1
2298.01
2385.78
2499.19
2631.79
2790.01
2967.96
3179.07
3414.75
3697.82
4013.16
4398.94
4827.6
5364.45
5959.13
6727.71
7580.88
8739.25
10056.4
11978.3
14258.2
17768.1
21920.7
28133.6
34642.5
43294.7
50712.7
59542
67053.3
65820.9
69654
55428.9
48536.1
45259.1
42604.3
38274.1
34150.3
29733.4
26049.4
22233.1
19029.6
16040.7
13720.5
11733.6
10224.6
8942.46
7949.68
7110.38
6464.11
5928.91
5518.46
5177.17
4906.84
4672.16
4471.09
4282.33
4102.42
3920.5
3734.19
3542.43
3345.42
3150.23
2957.62
2779.01
2611.34
2466.67
2334.6
2227.53
2127.23
2049.96
1970.33
1912.48
1843.29
1796.39
1731.3
1690.6
1623.31
383.243
391.015
401.728
418.703
448.735
502.861
594.799
734.276
920.706
1141.79
1379.82
1619.74
1851.56
2066.24
2248.08
2375.84
2430.3
2412.01
2344.83
2269.18
2217.04
2205.29
2232.22
2294.16
2382.05
2495.57
2628.24
2786.48
2964.39
3175.38
3410.9
3693.72
4008.77
4394.15
4822.33
5358.54
5952.42
6719.9
7571.68
8728.06
10042.8
11961.5
14238.3
17745.6
21897.6
28113.8
34627.5
43291.1
50714.2
59579.8
67145.7
66040.8
70210.7
56237.7
49454
46185.1
43488.7
39057.2
34773.3
30191.3
26361.7
22433.8
19149
16107.3
13755.6
11751.7
10234.1
8947.56
7952.35
7111.61
6464.38
5928.63
5517.88
5176.52
4906.24
4671.74
4470.91
4282.41
4102.74
3921.02
3734.81
3543.03
3345.89
3150.47
2957.61
2778.74
2610.9
2466.14
2334.11
2227.16
2127.09
2050.15
1970.88
1913.49
1844.77
1798.54
1734.07
1694.33
1627.76
383.357
391.266
402.139
419.329
449.684
504.273
596.764
736.711
923.298
1144.05
1381.2
1619.82
1850.19
2063.67
2244.96
2372.93
2428
2410.15
2342.82
2266.56
2213.75
2201.55
2228.33
2290.3
2378.31
2491.93
2624.69
2782.93
2960.8
3171.67
3407.02
3689.6
4004.35
4389.33
4817.03
5352.59
5945.69
6712.06
7562.44
8716.83
10029
11944.6
14218.2
17723.1
21874.3
28093.8
34612.5
43287.5
50715.9
59617.9
67238.5
66263.4
70778.7
57068.2
50396.5
47135
44396.3
39863.4
35417.8
30667.1
26687.5
22643.9
19274.6
16177.8
13793
11771.4
10244.5
8953.47
7955.68
7113.39
6465.12
5928.74
5517.63
5176.16
4905.9
4671.53
4470.9
4282.64
4103.2
3921.65
3735.53
3543.72
3346.43
3150.78
2957.66
2778.53
2610.5
2465.64
2333.64
2226.82
2126.98
2050.34
1971.44
1914.53
1846.28
1800.71
1736.87
1698.1
1632.28
383.474
391.522
402.557
419.965
450.647
505.702
598.747
739.163
925.901
1146.31
1382.58
1619.89
1848.8
2061.07
2241.77
2369.94
2425.64
2408.24
2340.79
2263.93
2210.45
2197.81
2224.43
2286.44
2374.55
2488.29
2621.11
2779.37
2957.19
3167.95
3403.13
3685.45
3999.91
4384.48
4811.71
5346.61
5938.92
6704.19
7553.16
8705.55
10015.2
11927.7
14198
17700.4
21851
28073.8
34597.5
43284.1
50717.6
59656.3
67331.8
66488.8
71358.3
57921
51364.2
48109.1
45327.5
40693
36084.1
31161.5
27027.5
22864.1
19406.9
16252.5
13833
11792.7
10256.2
8960.29
7959.73
7115.78
6466.36
5929.29
5517.76
5176.11
4905.82
4671.55
4471.08
4283.03
4103.8
3922.41
3736.36
3544.5
3347.06
3151.17
2957.76
2778.36
2610.14
2465.18
2333.19
2226.5
2126.89
2050.56
1972.02
1915.58
1847.8
1802.91
1739.71
1701.93
1636.85
383.592
391.781
402.981
420.61
451.622
507.147
600.749
741.631
928.515
1148.57
1383.96
1619.95
1847.39
2058.42
2238.53
2366.87
2423.21
2406.28
2338.74
2261.3
2207.15
2194.07
2220.53
2282.56
2370.79
2484.63
2617.53
2775.79
2953.57
3164.2
3399.22
3681.29
3995.45
4379.61
4806.37
5340.61
5932.12
6696.27
7543.83
8694.22
10001.4
11910.6
14177.7
17677.6
21827.5
28053.6
34582.4
43280.7
50719.5
59694.9
67425.7
66717
71949.9
58796.6
52357.5
49107.7
46282.5
41546.5
36772.9
31675.2
27382.3
23094.9
19546.1
16331.6
13875.8
11815.9
10269.2
8968.09
7964.58
7118.83
6468.17
5930.32
5518.3
5176.41
4906.04
4671.82
4471.48
4283.61
4104.56
3923.3
3737.3
3545.38
3347.78
3151.63
2957.94
2778.26
2609.83
2464.75
2332.79
2226.22
2126.82
2050.81
1972.62
1916.65
1849.35
1805.14
1742.57
1705.81
1641.49
383.712
392.043
403.411
421.264
452.61
508.61
602.77
744.116
931.139
1150.84
1385.34
1620.01
1845.96
2055.73
2235.23
2363.74
2420.72
2404.29
2336.67
2258.66
2203.85
2190.32
2216.61
2278.67
2367.01
2480.96
2613.93
2772.2
2949.93
3160.44
3395.29
3677.11
3990.97
4374.72
4800.99
5334.58
5925.29
6688.33
7534.47
8682.84
9987.46
11893.5
14157.3
17654.7
21803.8
28033.4
34567.3
43277.5
50721.6
59733.9
67520.1
66948.1
72553.7
59695.5
53376.8
50131.1
47261.5
42424.1
37484.7
32208.7
27752.4
23336.8
19692.7
16415.5
13921.6
11841
10283.5
8976.98
7970.31
7122.62
6470.61
5931.89
5519.29
5177.1
4906.59
4672.37
4472.12
4284.39
4105.49
3924.35
3738.38
3546.38
3348.6
3152.18
2958.19
2778.21
2609.58
2464.37
2332.42
2225.96
2126.78
2051.07
1973.25
1917.75
1850.92
1807.4
1745.48
1709.73
1646.19
383.834
392.31
403.848
421.928
453.613
510.09
604.809
746.617
933.775
1153.11
1386.71
1620.06
1844.51
2053.01
2231.86
2360.52
2418.15
2402.25
2334.59
2256.02
2200.55
2186.57
2212.69
2274.78
2363.23
2477.28
2610.32
2768.6
2946.28
3156.66
3391.34
3672.91
3986.47
4369.8
4795.6
5328.51
5918.43
6680.35
7525.07
8671.42
9973.48
11876.3
14136.8
17631.7
21780
28013
34552.1
43274.5
50723.9
59773.3
67615.1
67182.2
73170
60618.3
54422.8
51179.6
48264.7
43326.2
38220
32762.7
28138.7
23590.4
19847.2
16504.5
13970.6
11868.4
10299.4
8987.06
7977
7127.22
6473.72
5934.04
5520.79
5178.22
4907.5
4673.23
4473.02
4285.4
4106.62
3925.56
3739.6
3547.51
3349.53
3152.82
2958.52
2778.24
2609.38
2464.04
2332.09
2225.74
2126.78
2051.37
1973.91
1918.88
1852.53
1809.69
1748.42
1713.71
1650.96
383.957
392.581
404.291
422.602
454.629
511.587
606.867
749.135
936.422
1155.39
1388.08
1620.1
1843.04
2050.24
2228.43
2357.23
2415.52
2400.16
2332.48
2253.37
2197.24
2182.81
2208.77
2270.87
2359.43
2473.59
2606.7
2764.98
2942.61
3152.87
3387.37
3668.68
3981.94
4364.87
4790.17
5322.43
5911.54
6672.33
7515.63
8659.95
9959.45
11859
14116.2
17608.5
21756.1
27992.6
34537
43271.6
50726.5
59813.1
67710.8
67419.4
73799.4
61565.7
55495.6
52253.5
49292.4
44253
38979.4
33338
28541.8
23856.4
20010.1
16598.9
14023.2
11898.1
10317.1
8998.44
7984.74
7132.7
6477.59
5936.83
5522.83
5179.8
4908.81
4674.43
4474.21
4286.65
4107.95
3926.95
3740.98
3548.77
3350.58
3153.57
2958.94
2778.35
2609.25
2463.77
2331.81
2225.56
2126.81
2051.7
1974.6
1920.03
1854.16
1812.02
1751.4
1717.74
1655.79
384.082
392.856
404.742
423.287
455.659
513.102
608.944
751.67
939.08
1157.67
1389.45
1620.12
1841.55
2047.44
2224.93
2353.86
2412.81
2398.03
2330.35
2250.73
2193.94
2179.05
2204.84
2266.96
2355.62
2469.88
2603.07
2761.35
2938.93
3149.06
3383.39
3664.44
3977.4
4359.9
4784.73
5316.31
5904.62
6664.28
7506.16
8648.44
9945.36
11841.7
14095.6
17585.2
21732.1
27972
34521.9
43268.9
50729.3
59853.3
67807.1
67659.8
74442
62538.1
56595.8
53353
50344.8
45204.8
39763.2
33935.2
28962.3
24135.3
20181.9
16699.2
14079.6
11930.4
10336.5
9011.24
7993.63
7139.16
6482.29
5940.33
5525.47
5181.91
4910.56
4676
4475.71
4288.17
4109.52
3928.55
3742.54
3550.19
3351.77
3154.44
2959.47
2778.54
2609.19
2463.56
2331.58
2225.42
2126.88
2052.07
1975.32
1921.22
1855.82
1814.38
1754.42
1721.82
1660.7
384.209
393.135
405.199
423.981
456.703
514.635
611.041
754.222
941.749
1159.95
1390.81
1620.14
1840.04
2044.59
2221.37
2350.41
2410.03
2395.85
2328.21
2248.07
2190.64
2175.29
2200.9
2263.04
2351.81
2466.17
2599.42
2757.7
2935.23
3145.23
3379.39
3660.18
3972.83
4354.92
4779.26
5310.17
5897.68
6656.21
7496.65
8636.89
9931.22
11824.2
14074.8
17561.9
21707.9
27951.4
34506.7
43266.4
50732.4
59894
67904.2
67903.4
75098.2
63536.2
57723.8
54478.3
51422
46181.8
40572
34554.9
29401.1
24427.9
20363.1
16805.8
14140.1
11965.4
10358
9025.6
8003.8
7146.67
6487.88
5944.6
5528.77
5184.57
4912.79
4677.99
4477.57
4290
4111.35
3930.36
3744.29
3551.78
3353.1
3155.44
2960.11
2778.83
2609.22
2463.42
2331.41
2225.34
2127
2052.47
1976.07
1922.44
1857.52
1816.78
1757.49
1725.96
1665.67
384.338
393.418
405.663
424.686
457.762
516.186
613.158
756.791
944.429
1162.24
1392.18
1620.15
1838.51
2041.7
2217.75
2346.87
2407.17
2393.61
2326.04
2245.41
2187.33
2171.52
2196.96
2259.12
2347.99
2462.45
2595.77
2754.04
2931.52
3141.39
3375.37
3655.9
3968.25
4349.92
4773.76
5304
5890.7
6648.1
7487.11
8625.29
9917.03
11806.8
14053.9
17538.4
21683.7
27930.7
34491.6
43264.1
50735.9
59935.2
68002.1
68150.5
75768.5
64560.5
58880
55629.7
52524.1
47184.3
41406.3
35198
29858.9
24734.9
20554.3
16919.1
14204.9
12003.5
10381.6
9041.66
8015.34
7155.35
6494.46
5949.71
5532.8
5187.86
4915.56
4680.43
4479.81
4292.15
4113.45
3932.42
3746.25
3553.55
3354.6
3156.58
2960.87
2779.23
2609.34
2463.36
2331.31
2225.31
2127.16
2052.92
1976.87
1923.7
1859.26
1819.22
1760.6
1730.16
1670.71
384.469
393.705
406.134
425.401
458.836
517.756
615.295
759.378
947.12
1164.53
1393.54
1620.15
1836.95
2038.78
2214.06
2343.26
2404.23
2391.32
2323.84
2242.75
2184.03
2167.76
2193.02
2255.18
2344.16
2458.71
2592.1
2750.37
2927.8
3137.54
3371.33
3651.61
3963.64
4344.89
4768.24
5297.81
5883.7
6639.96
7477.53
8613.66
9902.79
11789.2
14033
17514.8
21659.3
27909.9
34476.5
43262.2
50739.8
59977.1
68100.8
68401
76453.2
65611.6
60064.6
56807.3
53651.3
48212.5
42266.5
35864.9
30336.5
25057
20756.2
17039.6
14274.6
12044.9
10407.6
9059.58
8028.39
7165.3
6502.13
5955.75
5537.62
5191.83
4918.9
4683.36
4482.48
4294.66
4115.87
3934.74
3748.44
3555.52
3356.27
3157.88
2961.77
2779.74
2609.56
2463.38
2331.29
2225.35
2127.38
2053.42
1977.71
1925
1861.04
1821.7
1763.75
1734.42
1675.83
384.602
393.997
406.612
426.127
459.925
519.345
617.452
761.982
949.822
1166.83
1394.89
1620.14
1835.38
2035.81
2210.3
2339.55
2401.21
2388.98
2321.62
2240.08
2180.72
2163.99
2189.07
2251.25
2340.32
2454.97
2588.42
2746.69
2924.06
3133.67
3367.28
3647.29
3959.02
4339.84
4762.7
5291.6
5876.67
6631.79
7467.92
8601.98
9888.5
11771.6
14012
17491.1
21634.8
27889
34461.4
43260.4
50744.1
60019.6
68200.3
68655
77152.7
66690
61278.1
58011.2
54803.7
49266.5
43152.9
36556.5
30834.6
25395
20969.3
17167.7
14349.4
12089.9
10436.3
9079.52
8043.09
7176.63
6510.97
5962.81
5543.31
5196.54
4922.88
4686.83
4485.61
4297.56
4118.62
3937.36
3750.88
3557.72
3358.14
3159.34
2962.82
2780.38
2609.89
2463.5
2331.34
2225.45
2127.66
2053.97
1978.6
1926.35
1862.86
1824.23
1766.96
1738.74
1681.02
384.736
394.293
407.098
426.864
461.028
520.952
619.629
764.604
952.536
1169.13
1396.24
1620.12
1833.78
2032.8
2206.48
2335.77
2398.11
2386.58
2319.38
2237.4
2177.42
2160.23
2185.12
2247.3
2336.47
2451.22
2584.73
2743
2920.31
3129.78
3363.22
3642.96
3954.38
4334.78
4757.14
5285.36
5869.61
6623.59
7458.28
8590.27
9874.16
11753.9
13990.9
17467.3
21610.1
27868
34446.4
43259
50748.9
60062.8
68300.9
68912.8
77867.3
67796.3
62520.8
59241.7
55981.2
50346.4
44066
37273.3
31354.1
25749.6
21194.3
17304.1
14429.7
12138.7
10467.7
9101.68
8059.59
7189.48
6521.1
5970.97
5549.95
5202.06
4927.55
4690.91
4489.24
4300.9
4121.75
3940.29
3753.61
3560.15
3360.22
3160.99
2964.03
2781.16
2610.34
2463.72
2331.48
2225.64
2128.01
2054.58
1979.55
1927.75
1864.73
1826.81
1770.21
1743.13
1686.29
384.873
394.594
407.591
427.613
462.148
522.579
621.827
767.245
955.262
1171.43
1397.59
1620.09
1832.16
2029.75
2202.59
2331.9
2394.93
2384.12
2317.11
2234.72
2174.12
2156.46
2181.16
2243.35
2332.62
2447.47
2581.03
2739.3
2916.54
3125.88
3359.14
3638.61
3949.71
4329.69
4751.56
5279.09
5862.53
6615.37
7448.6
8578.53
9859.77
11736.1
13969.7
17443.3
21585.4
27847
34431.5
43258
50754.2
60106.7
68402.4
69174.4
78597.6
68931
63793
60498.9
57184.1
51452.4
45006.2
38016.1
31895.8
26121.8
21432.1
17449.2
14516
12191.7
10502.2
9126.23
8078.05
7203.98
6532.64
5980.34
5557.62
5208.48
4932.99
4695.63
4493.43
4304.72
4125.28
3943.58
3756.63
3562.86
3362.54
3162.85
2965.42
2782.1
2610.92
2464.06
2331.73
2225.9
2128.43
2055.25
1980.55
1929.2
1866.65
1829.44
1773.52
1747.58
1691.64
385.011
394.899
408.092
428.372
463.283
524.226
624.047
769.903
957.999
1173.73
1398.94
1620.05
1830.52
2026.65
2198.63
2327.94
2391.66
2381.6
2314.81
2232.04
2170.82
2152.7
2177.21
2239.4
2328.76
2443.7
2577.33
2735.58
2912.77
3121.97
3355.04
3634.25
3945.03
4324.58
4745.95
5272.81
5855.43
6607.12
7438.9
8566.75
9845.35
11718.3
13948.4
17419.3
21560.5
27825.9
34416.6
43257.3
50760.1
60151.5
68505
69439.8
79343.8
70094.7
65095
61782.8
58412.3
52584.6
45973.8
38785.6
32460.5
26512.4
21683.3
17603.8
14608.7
12249.2
10540.1
9153.41
8098.64
7220.28
6545.71
5991.03
5566.42
5215.87
4939.26
4701.06
4498.23
4309.05
4129.25
3947.25
3759.99
3565.85
3365.11
3164.93
2967
2783.21
2611.66
2464.52
2332.08
2226.27
2128.94
2056
1981.62
1930.71
1868.63
1832.13
1776.89
1752.11
1697.08
385.152
395.208
408.601
429.143
464.434
525.893
626.288
772.581
960.748
1176.04
1400.28
1619.99
1828.86
2023.52
2194.61
2323.89
2388.3
2379.02
2312.49
2229.35
2167.53
2148.94
2173.25
2235.45
2324.9
2439.93
2573.61
2731.86
2908.98
3118.04
3350.93
3629.87
3940.34
4319.46
4740.33
5266.5
5848.3
6598.84
7429.17
8554.93
9830.88
11700.5
13927
17395.2
21535.5
27804.7
34401.8
43257
50766.6
60197.1
68608.7
69709.3
80106.4
71287.9
66427.1
63093.6
59665.9
53743
46969.1
39582.3
33049.2
26922.3
21948.7
17768.5
14708.4
12311.6
10581.6
9183.45
8121.56
7238.55
6560.45
6003.15
5576.46
5224.31
4946.44
4707.27
4503.69
4313.95
4133.72
3951.34
3763.72
3569.16
3367.95
3167.25
2968.8
2784.51
2612.55
2465.12
2332.55
2226.73
2129.53
2056.82
1982.76
1932.28
1870.67
1834.87
1780.32
1756.71
1702.6
385.295
395.523
409.117
429.926
465.601
527.581
628.551
775.277
963.509
1178.36
1401.62
1619.93
1827.17
2020.35
2190.51
2319.76
2384.86
2376.38
2310.13
2226.65
2164.24
2145.18
2169.3
2231.49
2321.03
2436.15
2569.89
2728.12
2905.18
3114.1
3346.8
3625.47
3935.62
4314.31
4734.69
5260.17
5841.15
6590.54
7419.41
8543.09
9816.36
11682.6
13905.6
17371
21510.5
27783.4
34387
43257.1
50773.7
60243.7
68713.6
69983
80885.9
72511.1
67789.4
64431.3
60944.8
54927.6
47992.4
40406.8
33662.8
27352.6
22229.3
17943.9
14815.5
12379.4
10627.1
9216.58
8147.02
7258.95
6577.01
6016.84
5587.84
5233.92
4954.61
4714.34
4509.88
4319.48
4138.71
3955.89
3767.84
3572.82
3371.11
3169.84
2970.84
2786.01
2613.63
2465.88
2333.15
2227.31
2130.23
2057.73
1983.97
1933.92
1872.77
1837.68
1783.82
1761.38
1708.21
385.439
395.842
409.642
430.721
466.785
529.289
630.836
777.993
966.283
1180.67
1402.95
1619.85
1825.47
2017.13
2186.35
2315.54
2381.33
2373.67
2307.75
2223.95
2160.95
2141.43
2165.34
2227.53
2317.16
2432.36
2566.16
2724.38
2901.38
3110.15
3342.66
3621.06
3930.89
4309.15
4729.02
5253.82
5833.98
6582.22