/*--------------------------------*- C++ -*----------------------------------*\
| =========                 |                                                 |
| \\      /  F ield         | OpenFOAM: The Open Source CFD Toolbox           |
|  \\    /   O peration     | Version:  2412                                  |
|   \\  /    A nd           | Website:  www.openfoam.com                      |
|    \\/     M anipulation  |                                                 |
\*---------------------------------------------------------------------------*/
FoamFile
{
    version     2.0;
    format      ascii;
    arch        "LSB;label=32;scalar=64";
    class       volScalarField;
    location    "1";
    object      k;
}
// * * * * * * * * * * * * * * * * * * * * * * * * * * * * * * * * * * * * * //

dimensions      [0 2 -2 0 0 0 0];

internalField   nonuniform List<scalar> 
12960
(
37.7894
38.2292
38.9245
40.1338
42.2796
45.8697
51.2653
58.3484
66.4537
74.6279
82.0666
88.3583
93.3835
97.1008
99.4044
100.275
99.9096
98.8799
97.879
97.5115
97.9463
99.1439
100.874
103.083
105.627
108.599
111.869
115.633
119.71
124.415
129.466
135.356
141.626
149.05
156.882
166.352
176.247
188.572
201.401
218.112
235.71
259.83
285.48
321.325
357.917
406.621
449.828
502.341
542.205
585.686
616.259
582.845
566.093
430.524
353.632
322.643
321.238
321.943
327.744
320.721
311.583
292.815
274.95
254.008
236.504
219.088
205.081
191.919
181.458
171.995
164.578
158.001
152.793
148.113
144.2
140.49
137.074
133.616
130.153
126.556
122.86
119.104
115.313
111.641
108.049
104.757
101.606
98.865
96.2135
93.9987
91.7227
89.8823
87.784
86.1403
84.037
82.4156
80.1722
78.4567
75.9815
37.7952
38.2423
38.9464
40.1681
42.3318
45.944
51.3597
58.4504
66.5428
74.682
82.0699
88.3061
93.2844
96.9736
99.2709
100.151
99.7985
98.777
97.7781
97.4109
97.8485
99.0518
100.788
103.004
105.553
108.528
111.801
115.566
119.643
124.347
129.397
135.284
141.551
148.97
156.797
166.26
176.147
188.46
201.276
217.971
235.55
259.653
285.291
321.139
357.746
406.489
449.726
502.302
542.201
585.912
616.787
583.97
568.441
433.539
356.68
325.332
323.32
323.422
328.705
321.351
311.981
293.062
275.084
254.066
236.513
219.068
205.046
191.874
181.408
171.942
164.523
157.949
152.746
148.072
144.165
140.462
137.054
133.602
130.144
126.55
122.854
119.098
115.305
111.631
108.036
104.743
101.593
98.8536
96.206
93.9969
91.728
89.8965
87.8079
86.1768
84.0862
82.4822
80.2553
78.5628
76.1039
37.8011
38.2555
38.9687
40.2028
42.3844
46.0188
51.4546
58.5527
66.6319
74.7359
82.073
88.2537
93.1849
96.8455
99.1363
100.026
99.6868
98.6739
97.6772
97.3103
97.7507
98.9597
100.703
102.925
105.479
108.458
111.733
115.499
119.575
124.279
129.327
135.211
141.475
148.89
156.712
166.168
176.047
188.349
201.151
217.829
235.39
259.475
285.101
320.952
357.575
406.358
449.625
502.263
542.198
586.141
617.32
585.107
570.82
436.607
359.786
328.075
325.448
324.938
329.69
321.996
312.39
293.317
275.224
254.127
236.523
219.05
205.011
191.831
181.358
171.889
164.47
157.898
152.698
148.03
144.131
140.436
137.034
133.588
130.135
126.544
122.849
119.092
115.298
111.621
108.024
104.73
101.58
98.8425
96.1988
93.9953
91.7335
89.911
87.8322
86.2139
84.136
82.5497
80.3394
78.6702
76.2281
37.8071
38.269
38.9913
40.238
42.4376
46.0943
51.55
58.6554
66.7211
74.7899
82.076
88.2011
93.0848
96.7165
99.0005
99.8991
99.5741
98.5701
97.5759
97.2095
97.6527
98.8672
100.618
102.846
105.405
108.387
111.664
115.431
119.508
124.21
129.257
135.139
141.399
148.81
156.626
166.075
175.946
188.237
201.026
217.687
235.229
259.297
284.911
320.764
357.403
406.225
449.523
502.225
542.194
586.37
617.855
586.255
573.229
439.726
362.949
330.873
327.623
326.491
330.699
322.658
312.809
293.578
275.366
254.19
236.533
219.031
204.976
191.787
181.308
171.836
164.415
157.846
152.65
147.989
144.096
140.408
137.014
133.575
130.127
126.538
122.845
119.087
115.29
111.611
108.012
104.716
101.566
98.8313
96.1916
93.9936
91.739
89.9255
87.8567
86.2512
84.1862
82.6178
80.4243
78.7789
76.3537
37.8132
38.2826
39.0141
40.2736
42.4913
46.1704
51.646
58.7584
66.8105
74.8438
82.0789
88.1482
92.9841
96.5866
98.8633
99.7711
99.4602
98.4656
97.4742
97.1082
97.5542
98.7744
100.532
102.767
105.33
108.316
111.596
115.363
119.44
124.141
129.186
135.065
141.323
148.729
156.54
165.982
175.844
188.124
200.899
217.543
235.067
259.117
284.719
320.575
357.229
406.092
449.42
502.186
542.19
586.599
618.391
587.411
575.667
442.897
366.171
333.725
329.845
328.08
331.733
323.337
313.238
293.845
275.512
254.254
236.544
219.012
204.94
191.742
181.257
171.782
164.361
157.793
152.602
147.946
144.061
140.381
136.994
133.561
130.118
126.532
122.84
119.081
115.283
111.6
108
104.702
101.553
98.8199
96.1842
93.9919
91.7445
89.9401
87.8813
86.2888
84.2368
82.6865
80.5099
78.8886
76.4807
37.8194
38.2965
39.0373
40.3096
42.5457
46.2472
51.7426
58.8618
66.9
74.8978
82.0817
88.0951
92.8829
96.4556
98.7248
99.6418
99.3452
98.3602
97.3718
97.0065
97.4552
98.6811
100.445
102.686
105.255
108.245
111.526
115.295
119.372
124.072
129.115
134.991
141.245
148.648
156.453
165.888
175.742
188.01
200.772
217.399
234.904
258.936
284.525
320.384
357.054
405.956
449.316
502.145
542.183
586.827
618.928
588.577
578.134
446.121
369.451
336.633
332.116
329.708
332.793
324.032
313.678
294.118
275.661
254.319
236.554
218.993
204.904
191.697
181.206
171.727
164.305
157.74
152.553
147.904
144.026
140.353
136.974
133.547
130.109
126.526
122.835
119.075
115.275
111.59
107.987
104.689
101.54
98.8083
96.1765
93.9899
91.7498
89.9546
87.9059
86.3265
84.2876
82.7556
80.5963
78.9995
76.6091
37.8256
38.3105
39.0608
40.3461
42.6006
46.3246
51.8397
58.9657
66.9898
74.9519
82.0844
88.0417
92.7811
96.3236
98.5848
99.5109
99.2289
98.254
97.2689
96.9043
97.3558
98.5873
100.358
102.606
105.18
108.173
111.457
115.226
119.303
124.002
129.043
134.917
141.168
148.565
156.366
165.794
175.639
187.896
200.644
217.254
234.739
258.753
284.33
320.191
356.876
405.82
449.21
502.103
542.175
587.054
619.466
589.751
580.631
449.397
372.791
339.598
334.436
331.375
333.88
324.746
314.128
294.398
275.813
254.386
236.565
218.973
204.867
191.651
181.154
171.672
164.249
157.686
152.504
147.861
143.99
140.325
136.953
133.533
130.1
126.52
122.83
119.07
115.267
111.58
107.974
104.674
101.526
98.7964
96.1687
93.9878
91.7551
89.9691
87.9306
86.3643
84.3387
82.8252
80.6834
79.1114
76.7389
37.8319
38.3247
39.0846
40.3831
42.6561
46.4027
51.9375
59.0699
67.0798
75.0059
82.0871
87.9881
92.6787
96.1905
98.4435
99.3785
99.1114
98.1469
97.1653
96.8016
97.256
98.493
100.271
102.525
105.104
108.1
111.386
115.157
119.233
123.931
128.971
134.842
141.09
148.483
156.278
165.699
175.535
187.781
200.515
217.107
234.573
258.569
284.133
319.997
356.698
405.681
449.102
502.059
542.165
587.28
620.003
590.935
583.158
452.729
376.191
342.62
336.807
333.082
334.994
325.477
314.59
294.685
275.969
254.454
236.576
218.953
204.83
191.604
181.101
171.616
164.193
157.632
152.454
147.817
143.953
140.297
136.932
133.519
130.091
126.514
122.825
119.064
115.259
111.569
107.962
104.66
101.512
98.7843
96.1606
93.9855
91.7602
89.9835
87.9552
86.4023
84.39
82.8953
80.7711
79.2244
76.87
37.8384
38.3391
39.1087
40.4205
42.7122
46.4814
52.0359
59.1746
67.1699
75.06
82.0897
87.9343
92.5758
96.0565
98.3007
99.2446
98.9925
98.0389
97.0612
96.6984
97.1556
98.3983
100.183
102.443
105.027
108.028
111.316
115.087
119.164
123.86
128.898
134.766
141.011
148.399
156.189
165.603
175.43
187.665
200.385
216.959
234.406
258.384
283.934
319.801
356.517
405.541
448.993
502.014
542.153
587.505
620.542
592.127
585.716
456.116
379.654
345.701
339.229
334.831
336.137
326.229
315.064
294.98
276.129
254.524
236.587
218.932
204.792
191.557
181.048
171.56
164.136
157.577
152.404
147.773
143.917
140.268
136.911
133.504
130.081
126.508
122.819
119.058
115.251
111.558
107.948
104.646
101.497
98.772
96.1523
93.983
91.7652
89.9979
87.9799
86.4404
84.4417
82.9658
80.8596
79.3385
77.0025
37.8449
38.3538
39.1332
40.4584
42.769
46.5609
52.1349
59.2797
67.2603
75.1141
82.0922
87.8803
92.4723
95.9213
98.1564
99.1091
98.8724
97.9299
96.9564
96.5947
97.0549
98.3031
100.095
102.361
104.951
107.954
111.245
115.016
119.093
123.789
128.825
134.69
140.931
148.315
156.1
165.506
175.325
187.548
200.254
216.811
234.238
258.197
283.734
319.603
356.335
405.4
448.882
501.968
542.139
587.729
621.08
593.328
588.304
459.56
383.18
348.842
341.704
336.623
337.31
327.001
315.551
295.282
276.293
254.595
236.599
218.912
204.754
191.51
180.994
171.503
164.078
157.522
152.353
147.729
143.88
140.239
136.889
133.49
130.071
126.501
122.814
119.051
115.243
111.547
107.935
104.631
101.483
98.7594
96.1438
93.9803
91.77
90.0121
88.0046
86.4786
84.4935
83.0369
80.9487
79.4536
77.1364
37.8515
38.3686
39.158
40.4968
42.8263
46.641
52.2345
59.3852
67.3508
75.1683
82.0947
87.826
92.3683
95.7852
98.0107
98.972
98.7509
97.82
96.851
96.4906
96.9536
98.2074
100.006
102.279
104.873
107.88
111.173
114.946
119.022
123.717
128.751
134.614
140.851
148.23
156.009
165.408
175.219
187.43
200.122
216.661
234.068
258.009
283.532
319.403
356.15
405.256
448.77
501.92
542.123
587.951
621.619
594.538
590.923
463.061
386.771
352.043
344.232
338.459
338.515
327.794
316.052
295.593
276.462
254.669
236.611
218.891
204.715
191.462
180.94
171.446
164.02
157.467
152.302
147.684
143.842
140.21
136.868
133.475
130.062
126.495
122.809
119.045
115.234
111.536
107.922
104.616
101.468
98.7466
96.1351
93.9775
91.7748
90.0264
88.0294
86.517
84.5457
83.1084
81.0385
79.5699
77.2717
37.8582
38.3836
39.1831
40.5356
42.8843
46.7218
52.3348
59.4912
67.4415
75.2224
82.097
87.7714
92.2637
95.648
97.8635
98.8333
98.628
97.7092
96.745
96.386
96.8519
98.1113
99.9167
102.196
104.796
107.806
111.101
114.874
118.951
123.644
128.677
134.536
140.771
148.145
155.919
165.31
175.112
187.311
199.989
216.51
233.898
257.819
283.329
319.202
355.965
405.111
448.656
501.871
542.105
588.173
622.159
595.758
593.575
466.622
390.426
355.305
346.815
340.34
339.752
328.609
316.566
295.913
276.635
254.744
236.624
218.87
204.676
191.414
180.885
171.388
163.962
157.41
152.25
147.639
143.805
140.18
136.846
133.459
130.052
126.488
122.803
119.039
115.226
111.525
107.908
104.601
101.453
98.7335
96.1262
93.9745
91.7794
90.0405
88.0541
86.5555
84.5981
83.1803
81.129
79.6872
77.4084
37.8649
38.3989
39.2086
40.575
42.9429
46.8033
52.4356
59.5975
67.5324
75.2766
82.0993
87.7167
92.1585
95.5098
97.7149
98.693
98.5037
97.5974
96.6384
96.2809
96.7498
98.0147
99.827
102.113
104.717
107.731
111.028
114.803
118.879
123.571
128.602
134.459
140.69
148.059
155.827
165.212
175.004
187.192
199.855
216.358
233.726
257.627
283.124
318.999
355.777
404.965
448.541
501.82
542.085
588.394
622.698
596.986
596.259
470.243
394.148
358.63
349.454
342.268
341.022
329.447
317.096
296.242
276.813
254.823
236.638
218.849
204.637
191.365
180.83
171.33
163.903
157.354
152.198
147.593
143.766
140.15
136.823
133.444
130.042
126.481
122.797
119.032
115.217
111.513
107.894
104.585
101.438
98.7203
96.117
93.9713
91.7838
90.0546
88.0789
86.5942
84.6508
83.2527
81.2202
79.8056
77.5465
37.8718
38.4143
39.2344
40.6148
43.0022
46.8855
52.537
59.7042
67.6234
75.3307
82.1015
87.6616
92.0528
95.3705
97.5647
98.5511
98.3781
97.4846
96.5312
96.1754
96.6473
97.9177
99.7369
102.029
104.639
107.656
110.956
114.73
118.807
123.498
128.526
134.38
140.608
147.973
155.735
165.112
174.896
187.072
199.721
216.206
233.552
257.435
282.917
318.794
355.588
404.816
448.424
501.768
542.063
588.614
623.238
598.224
598.976
473.925
397.938
362.017
352.15
344.243
342.327
330.31
317.641
296.581
276.997
254.904
236.653
218.829
204.597
191.316
180.775
171.271
163.844
157.297
152.146
147.547
143.728
140.12
136.801
133.429
130.032
126.474
122.792
119.026
115.209
111.502
107.88
104.569
101.423
98.7068
96.1077
93.9679
91.7882
90.0687
88.1038
86.6329
84.7037
83.3256
81.3121
79.9251
77.686
37.8788
38.43
39.2606
40.6552
43.062
46.9684
52.6391
59.8114
67.7146
75.3849
82.1035
87.6064
91.9465
95.2302
97.4131
98.4075
98.251
97.3708
96.4233
96.0694
96.5443
97.8203
99.6464
101.945
104.56
107.581
110.882
114.658
118.734
123.423
128.45
134.302
140.526
147.886
155.643
165.012
174.787
186.951
199.585
216.052
233.378
257.241
282.709
318.588
355.396
404.666
448.306
501.714
542.04
588.832
623.778
599.472
601.726
477.67
401.796
365.469
354.903
346.267
343.668
331.199
318.202
296.931
277.187
254.988
236.669
218.809
204.558
191.267
180.719
171.213
163.784
157.24
152.093
147.501
143.689
140.089
136.778
133.413
130.021
126.467
122.786
119.019
115.2
111.49
107.866
104.554
101.407
98.6931
96.0982
93.9644
91.7925
90.0827
88.1286
86.6718
84.7568
83.3989
81.4046
80.0456
77.827
37.8859
38.4459
39.2871
40.696
43.1226
47.052
52.7418
59.9189
67.806
75.439
82.1055
87.5509
91.8397
95.0889
97.2599
98.2622
98.1224
97.256
96.3148
95.963
96.4409
97.7225
99.5554
101.86
104.48
107.505
110.808
114.585
118.661
123.349
128.374
134.222
140.443
147.798
155.55
164.911
174.677
186.829
199.449
215.897
233.203
257.045
282.499
318.38
355.203
404.515
448.186
501.659
542.015
589.05
624.318
600.729
604.51
481.478
405.724
368.985
357.714
348.341
345.046
332.113
318.781
297.292
277.384
255.076
236.686
218.789
204.518
191.218
180.664
171.154
163.725
157.183
152.04
147.455
143.65
140.058
136.756
133.397
130.011
126.46
122.78
119.012
115.191
111.478
107.852
104.538
101.391
98.6792
96.0885
93.9607
91.7966
90.0966
88.1534
86.7108
84.8103
83.4727
81.4978
80.1673
77.9693
37.8931
38.462
39.314
40.7374
43.1837
47.1363
52.845
60.0268
67.8975
75.4932
82.1073
87.4952
91.7324
94.9465
97.1052
98.1152
97.9924
97.1402
96.2057
95.8561
96.3371
97.6242
99.464
101.775
104.4
107.428
110.734
114.511
118.587
123.274
128.297
134.142
140.359
147.71
155.456
164.81
174.567
186.706
199.312
215.741
233.026
256.849
282.288
318.17
355.009
404.362
448.064
501.603
541.988
589.266
624.858
601.995
607.329
485.352
409.723
372.567
360.584
350.466
346.463
333.056
319.378
297.665
277.587
255.167
236.705
218.77
204.479
191.169
180.608
171.095
163.665
157.125
151.987
147.408
143.611
140.027
136.733
133.381
130
126.453
122.774
119.006
115.182
111.467
107.837
104.522
101.375
98.6651
96.0786
93.9568
91.8006
90.1105
88.1783
86.75
84.8639
83.547
81.5917
80.29
78.1131
37.9003
38.4784
39.3413
40.7793
43.2456
47.2213
52.949
60.1352
67.9892
75.5473
82.1091
87.4393
91.6245
94.8031
96.949
97.9665
97.8608
97.0233
96.0959
95.7488
96.2329
97.5255
99.3722
101.69
104.32
107.352
110.659
114.437
118.513
123.198
128.22
134.062
140.276
147.621
155.361
164.707
174.456
186.583
199.173
215.584
232.848
256.651
282.075
317.958
354.812
404.207
447.941
501.545
541.959
589.481
625.398
603.272
610.183
489.291
413.792
376.215
363.514
352.643
347.919
334.027
319.995
298.05
277.798
255.262
236.726
218.752
204.44
191.12
180.553
171.036
163.605
157.067
151.933
147.361
143.572
139.996
136.709
133.365
129.99
126.446
122.768
118.999
115.173
111.455
107.823
104.505
101.359
98.6508
96.0685
93.9528
91.8046
90.1243
88.2032
86.7892
84.9178
83.6216
81.6862
80.4138
78.2583
37.9077
38.4949
39.369
40.8217
43.3081
47.307
53.0535
60.2439
68.081
75.6014
82.1107
87.3831
91.5161
94.6587
96.7913
97.8161
97.7278
96.9054
95.9855
95.6411
96.1283
97.4264
99.2799
101.604
104.239
107.274
110.584
114.363
118.438
123.122
128.142
133.981
140.191
147.531
155.266
164.605
174.344
186.459
199.034
215.426
232.669
256.451
281.861
317.745
354.614
404.05
447.817
501.486
541.928
589.695
625.939
604.558
613.072
493.298
417.935
379.929
366.505
354.873
349.417
335.028
320.631
298.449
278.017
255.361
236.749
218.735
204.402
191.071
180.497
170.977
163.545
157.009
151.88
147.314
143.532
139.965
136.686
133.349
129.979
126.439
122.762
118.992
115.164
111.443
107.808
104.489
101.343
98.6364
96.0583
93.9487
91.8084
90.1381
88.2282
86.8286
84.972
83.6967
81.7814
80.5386
78.4048
37.9152
38.5118
39.397
40.8647
43.3713
47.3935
53.1586
60.353
68.1729
75.6554
82.1122
87.3267
91.4072
94.5132
96.632
97.6639
97.5931
96.7864
95.8744
95.5329
96.0234
97.3269
99.1873
101.518
104.158
107.197
110.509
114.288
118.363
123.046
128.063
133.899
140.106
147.441
155.17
164.501
174.231
186.334
198.895
215.267
232.489
256.25
281.645
317.53
354.414
403.892
447.69
501.426
541.896
589.908
626.479
605.854
615.999
497.373
422.15
383.711
369.557
357.157
350.956
336.06
321.288
298.862
278.244
255.466
236.775
218.719
204.364
191.023
180.442
170.919
163.485
156.951
151.826
147.266
143.492
139.933
136.662
133.333
129.968
126.431
122.756
118.985
115.155
111.431
107.793
104.472
101.326
98.6218
96.0479
93.9444
91.8121
90.1518
88.2531
86.8681
85.0263
83.7723
81.8772
80.6646
78.5528
37.9228
38.5288
39.4254
40.9082
43.4352
47.4807
53.2644
60.4625
68.265
75.7094
82.1136
87.27
91.2977
94.3667
96.4712
97.5099
97.4569
96.6663
95.7626
95.4243
95.918
97.2271
99.0942
101.431
104.077
107.118
110.433
114.212
118.288
122.969
127.984
133.817
140.02
147.351
155.074
164.397
174.118
186.208
198.754
215.108
232.307
256.048
281.427
317.313
354.212
403.731
447.563
501.364
541.861
590.12
627.02
607.161
618.962
501.517
426.439
387.56
372.671
359.495
352.539
337.124
321.967
299.29
278.479
255.575
236.803
218.704
204.327
190.975
180.387
170.86
163.425
156.894
151.772
147.219
143.452
139.902
136.639
133.316
129.958
126.424
122.75
118.979
115.146
111.419
107.779
104.456
101.31
98.607
96.0374
93.9399
91.8157
90.1654
88.2781
86.9076
85.0809
83.8482
81.9737
80.7915
78.7022
37.9305
38.5461
39.4542
40.9523
43.4997
47.5686
53.3709
60.5725
68.3573
75.7634
82.1149
87.2131
91.1877
94.2192
96.3089
97.3541
97.3191
96.5451
95.6502
95.3152
95.8123
97.1268
99.0008
101.344
103.995
107.04
110.356
114.137
118.212
122.891
127.905
133.735
139.934
147.26
154.977
164.292
174.004
186.082
198.612
214.947
232.125
255.844
281.208
317.095
354.008
403.57
447.433
501.301
541.825
590.331
627.56
608.477
621.962
505.732
430.803
391.477
375.847
361.89
354.166
338.222
322.669
299.734
278.725
255.691
236.834
218.691
204.291
190.928
180.332
170.802
163.366
156.836
151.719
147.172
143.412
139.87
136.615
133.3
129.947
126.417
122.744
118.972
115.137
111.406
107.764
104.439
101.293
98.5921
96.0267
93.9354
91.8192
90.179
88.303
86.9473
85.1357
83.9246
82.0708
80.9195
78.853
37.9383
38.5636
39.4834
40.9969
43.565
47.6573
53.4779
60.6828
68.4497
75.8174
82.116
87.156
91.0772
94.0707
96.145
97.1965
97.1797
96.4227
95.5372
95.2057
95.7062
97.0261
98.9069
101.256
103.912
106.961
110.279
114.06
118.135
122.814
127.825
133.652
139.848
147.168
154.88
164.187
173.889
185.954
198.47
214.785
231.941
255.639
280.987
316.875
353.803
403.406
447.302
501.236
541.788
590.54
628.101
609.804
625.001
510.019
435.242
395.462
379.085
364.34
355.839
339.354
323.396
300.194
278.981
255.812
236.868
218.68
204.256
190.881
180.279
170.745
163.306
156.778
151.665
147.124
143.372
139.838
136.591
133.283
129.936
126.41
122.739
118.965
115.128
111.394
107.749
104.422
101.276
98.577
96.0159
93.9307
91.8226
90.1926
88.328
86.9871
85.1907
84.0013
82.1685
81.0486
79.0052
37.9462
38.5814
39.513
41.0421
43.631
47.7467
53.5856
60.7935
68.5422
75.8713
82.117
87.0987
90.9662
93.9212
95.9796
97.0371
97.0387
96.2992
95.4234
95.0958
95.5997
96.9251
98.8127
101.168
103.83
106.882
110.202
113.984
118.058
122.735
127.745
133.568
139.76
147.076
154.782
164.081
173.774
185.827
198.327
214.622
231.757
255.433
280.765
316.653
353.595
403.24
447.169
501.171
541.748
590.749
628.641
611.142
628.079
514.378
439.757
399.515
382.387
366.848
357.559
340.523
324.147
300.672
279.248
255.94
236.906
218.671
204.222
190.836
180.225
170.688
163.247
156.721
151.612
147.077
143.332
139.806
136.568
133.267
129.925
126.402
122.733
118.958
115.119
111.382
107.734
104.405
101.259
98.5618
96.0049
93.9258
91.826
90.206
88.353
87.0269
85.2459
84.0785
82.2667
81.1786
79.1588
37.9542
38.5995
39.543
41.0878
43.6977
47.8369
53.694
60.9046
68.6348
75.9251
82.1179
87.0411
90.8547
93.7707
95.8125
96.8759
96.8959
96.1745
95.309
94.9855
95.4929
96.8237
98.7181
101.08
103.746
106.802
110.124
113.907
117.981
122.656
127.664
133.484
139.673
146.983
154.683
163.974
173.658
185.698
198.183
214.459
231.571
255.226
280.541
316.429
353.386
403.073
447.035
501.103
541.707
590.956
629.182
612.49
631.197
518.811
444.348
403.637
385.751
369.413
359.327
341.728
324.925
301.168
279.526
256.075
236.948
218.665
204.19
190.792
180.173
170.631
163.189
156.664
151.558
147.029
143.292
139.774
136.544
133.25
129.914
126.395
122.727
118.952
115.111
111.37
107.719
104.388
101.242
98.5465
95.9938
93.9209
91.8292
90.2195
88.378
87.0669
85.3013
84.156
82.3656
81.3097
79.3137
37.9624
38.6178
39.5734
41.1342
43.7651
47.9279
53.803
61.0162
68.7276
75.9789
82.1186
86.9832
90.7427
93.6191
95.644
96.7128
96.7515
96.0486
95.1939
94.8748
95.3857
96.722
98.6231
100.991
103.663
106.722
110.046
113.829
117.903
122.577
127.582
133.399
139.584
146.889
154.584
163.867
173.541
185.568
198.038
214.294
231.384
255.017
280.315
316.204
353.175
402.904
446.899
501.035
541.665
591.162
629.722
613.849
634.355
523.319
449.016
407.828
389.178
372.037
361.144
342.973
325.731
301.684
279.817
256.218
236.995
218.661
204.159
190.749
180.122
170.576
163.131
156.608
151.505
146.982
143.252
139.742
136.52
133.233
129.903
126.388
122.721
118.945
115.102
111.358
107.704
104.371
101.225
98.5311
95.9826
93.9158
91.8323
90.2328
88.4029
87.1069
85.3569
84.2339
82.465
81.4417
79.47
37.9706
38.6363
39.6043
41.1811
43.8332
48.0196
53.9126
61.1281
68.8205
76.0327
82.1192
86.9252
90.6301
93.4666
95.4739
96.5478
96.6054
95.9215
95.0781
94.7636
95.2782
96.6198
98.5277
100.902
103.579
106.641
109.968
113.751
117.825
122.497
127.501
133.314
139.496
146.795
154.484
163.759
173.423
185.438
197.892
214.129
231.196
254.806
280.088
315.977
352.962
402.733
446.761
500.965
541.62
591.367
630.262
615.22
637.554
527.903
453.762
412.087
392.669
374.719
363.01
344.256
326.565
302.22
280.122
256.369
237.046
218.66
204.13
190.707
180.072
170.521
163.074
156.552
151.453
146.935
143.212
139.71
136.496
133.217
129.893
126.381
122.716
118.939
115.093
111.346
107.689
104.354
101.208
98.5156
95.9713
93.9106
91.8353
90.2461
88.4279
87.1469
85.4127
84.3121
82.5649
81.5747
79.6275
37.979
38.6552
39.6356
41.2286
43.9021
48.1122
54.023
61.2405
68.9136
76.0864
82.1197
86.8669
90.5171
93.3131
95.3022
96.3809
96.4575
95.7932
94.9615
94.652
95.1703
96.5174
98.4319
100.813
103.495
106.56
109.889
113.673
117.746
122.417
127.418
133.229
139.406
146.701
154.383
163.65
173.305
185.307
197.746
213.962
231.006
254.595
279.86
315.748
352.746
402.559
446.622
500.893
541.574
591.571
630.802
616.601
640.794
532.563
458.584
416.414
396.222
377.461
364.928
345.581
327.43
302.778
280.44
256.529
237.103
218.663
204.104
190.667
180.023
170.468
163.018
156.497
151.401
146.889
143.172
139.679
136.472
133.2
129.882
126.374
122.71
118.933
115.084
111.334
107.675
104.337
101.19
98.5
95.9599
93.9053
91.8383
90.2593
88.4529
87.1871
85.4685
84.3906
82.6654
81.7086
79.7864
37.9875
38.6742
39.6673
41.2768
43.9718
48.2055
54.134
61.3533
69.0068
76.1401
82.12
86.8084
90.4036
93.1586
95.1289
96.2122
96.3079
95.6636
94.8443
94.5401
95.0622
96.4146
98.3358
100.723
103.41
106.479
109.81
113.594
117.667
122.336
127.335
133.143
139.316
146.606
154.282
163.541
173.187
185.176
197.599
213.795
230.816
254.382
279.63
315.517
352.529
402.384
446.48
500.821
541.526
591.774
631.342
617.993
644.077
537.301
463.485
420.81
399.839
380.261
366.898
346.948
328.325
303.359
280.774
256.699
237.165
218.669
204.08
190.63
179.976
170.415
162.963
156.442
151.349
146.842
143.133
139.647
136.448
133.184
129.871
126.367
122.705
118.926
115.076
111.323
107.66
104.32
101.173
98.4844
95.9484
93.8999
91.8412
90.2724
88.4778
87.2272
85.5246
84.4694
82.7663
81.8435
79.9466
37.9961
38.6936
39.6995
41.3256
44.0422
48.2996
54.2457
61.4665
69.1001
76.1937
82.1202
86.7496
90.2896
93.0031
94.9541
96.0415
96.1564
95.5328
94.7263
94.4277
94.9537
96.3114
98.2394
100.633
103.325
106.397
109.73
113.515
117.587
122.255
127.252
133.056
139.226
146.51
154.181
163.431
173.067
185.044
197.45
213.626
230.625
254.167
279.398
315.284
352.31
402.207
446.337
500.746
541.477
591.976
631.882
619.397
647.402
542.117
468.463
425.273
403.518
383.121
368.92
348.359
329.253
303.964
281.123
256.88
237.234
218.68
204.059
190.594
179.931
170.365
162.909
156.389
151.298
146.797
143.093
139.615
136.424
133.167
129.86
126.36
122.699
118.92
115.068
111.311
107.645
104.303
101.156
98.4687
95.9369
93.8944
91.844
90.2855
88.5027
87.2674
85.5807
84.5485
82.8677
81.9792
80.108
38.0048
38.7133
39.7321
41.3749
44.1134
48.3946
54.358
61.5801
69.1936
76.2472
82.1203
86.6906
90.1752
92.8467
94.7777
95.8689
96.0032
95.4007
94.6076
94.3149
94.8449
96.208
98.1425
100.542
103.239
106.315
109.65
113.435
117.507
122.174
127.168
132.969
139.135
146.414
154.078
163.321
172.947
184.91
197.302
213.457
230.432
253.952
279.164
315.049
352.089
402.028
446.192
500.67
541.426
592.176
632.422
620.813
650.772
547.012
473.519
429.804
407.259
386.04
370.996
349.814
330.215
304.594
281.49
257.071
237.31
218.695
204.041
190.561
179.887
170.316
162.856
156.336
151.247
146.751
143.054
139.584
136.401
133.151
129.85
126.354
122.694
118.915
115.06
111.299
107.631
104.286
101.139
98.453
95.9253
93.8888
91.8467
90.2985
88.5276
87.3076
85.637
84.6279
82.9696
82.1158
80.2707
38.0137
38.7332
39.7652
41.425
44.1854
48.4904
54.4711
61.6941
69.2872
76.3007
82.1202
86.6314
90.0602
92.6893
94.5998
95.6943
95.8481
95.2672
94.4882
94.2017
94.7357
96.1042
98.0454
100.451
103.153
106.233
109.569
113.355
117.427
122.092
127.084
132.881
139.044
146.317
153.976
163.21
172.826
184.777
197.152
213.287
230.238
253.734
278.929
314.813
351.865
401.846
446.045
500.593
541.374
592.376
632.962
622.24
654.185
551.988
478.653
434.401
411.062
389.019
373.126
351.315
331.212
305.251
281.875
257.275
237.394
218.715
204.027
190.53
179.846
170.268
162.805
156.284
151.198
146.706
143.016
139.553
136.377
133.135
129.84
126.347
122.689
118.909
115.052
111.288
107.616
104.27
101.122
98.4372
95.9137
93.8832
91.8493
90.3115
88.5525
87.3479
85.6934
84.7076
83.0719
82.2532
80.4345
38.0227
38.7534
39.7987
41.4757
44.2582
48.587
54.5849
61.8086
69.381
76.3542
82.1199
86.572
89.9448
92.531
94.4203
95.5178
95.6912
95.1324
94.368
94.0881
94.6263
96.0001
97.9478
100.36
103.067
106.15
109.488
113.275
117.346
122.009
126.999
132.793
138.952
146.22
153.872
163.098
172.705
184.642
197.001
213.116
230.044
253.516
278.692
314.574
351.639
401.663
445.896
500.514
541.32
592.574
633.501
623.679
657.644
557.043
483.864
439.065
414.926
392.056
375.31
352.862
332.246
305.935
282.279
257.493
237.486
218.741
204.017
190.503
179.807
170.223
162.756
156.234
151.149
146.662
142.977
139.522
136.354
133.119
129.829
126.341
122.685
118.904
115.044
111.277
107.602
104.253
101.105
98.4215
95.902
93.8775
91.8519
90.3243
88.5773
87.3881
85.7499
84.7874
83.1746
82.3914
80.5995
38.0318
38.7739
39.8327
41.527
44.3318
48.6844
54.6994
61.9236
69.4749
76.4076
82.1195
86.5124
89.829
92.3717
94.2393
95.3394
95.5324
94.9963
94.2471
93.9742
94.5166
95.8956
97.85
100.269
102.981
106.067
109.407
113.194
117.265
121.926
126.914
132.705
138.859
146.122
153.768
162.986
172.583
184.507
196.85
212.944
229.848
253.296
278.454
314.333
351.411
401.476
445.745
500.434
541.264
592.771
634.04
625.129
661.149
562.18
489.153
443.794
418.851
395.153
377.55
354.458
333.318
306.649
282.703
257.724
237.587
218.773
204.01
190.479
179.771
170.18
162.708
156.186
151.102
146.619
142.94
139.491
136.331
133.103
129.82
126.335
122.68
118.898
115.037
111.266
107.588
104.236
101.088
98.4059
95.8903
93.8717
91.8544
90.3371
88.6021
87.4283
85.8064
84.8675
83.2777
82.5304
80.7657
38.041
38.7947
39.8672
41.579
44.4062
48.7828
54.8146
62.039
69.569
76.4609
82.119
86.4525
89.7127
92.2115
94.0567
95.159
95.3717
94.8588
94.1254
93.8598
94.4066
95.7909
97.7518
100.177
102.894
105.983
109.325
113.113
117.183
121.843
126.829
132.616
138.767
146.024
153.664
162.873
172.46
184.371
196.698
212.771
229.651
253.075
278.214
314.091
351.181
401.288
445.592
500.352
541.207
592.967
634.579
626.592
664.7
567.399
494.518
448.588
422.835
398.308
379.846
356.103
334.429
307.394
283.15
257.97
237.698
218.812
204.009
190.459
179.738
170.14
162.662
156.138
151.056
146.576
142.903
139.461
136.308
133.087
129.81
126.329
122.676
118.894
115.03
111.256
107.575
104.22
101.071
98.3903
95.8786
93.8659
91.8569
90.3498
88.6269
87.4685
85.863
84.9477
83.3811
82.6701
80.9329
38.0504
38.8158
39.9022
41.6317
44.4815
48.882
54.9306
62.1548
69.6633
76.5142
82.1183
86.3924
89.596
92.0504
93.8726
94.9765
95.2091
94.7199
94.0029
93.745
94.2963
95.6859
97.6533
100.084
102.806
105.899
109.243
113.031
117.101
121.759
126.743
132.526
138.673
145.925
153.559
162.759
172.337
184.234
196.545
212.597
229.452
252.852
277.972
313.846
350.949
401.097
445.436
500.269
541.148
593.162
635.118
628.068
668.298
572.7
499.96
453.446
426.878
401.521
382.197
357.798
335.58
308.171
283.619
258.233
237.819
218.858
204.013
190.443
179.708
170.103
162.619
156.093
151.011
146.535
142.866
139.432
136.286
133.072
129.8
126.323
122.672
118.889
115.023
111.246
107.561
104.204
101.054
98.3747
95.867
93.86
91.8593
90.3624
88.6516
87.5087
85.9196
85.0281
83.4848
82.8105
81.1012
38.0599
38.8372
39.9376
41.685
44.5576
48.9821
55.0473
62.2712
69.7577
76.5675
82.1175
86.3321
89.4788
91.8884
93.687
94.7922
95.0445
94.5795
93.8796
93.6299
94.1858
95.5806
97.5544
99.9915
102.719
105.814
109.161
112.949
117.018
121.674
126.656
132.436
138.579
145.825
153.453
162.645
172.213
184.097
196.391
212.422
229.253
252.628
277.728
313.6
350.714
400.904
445.279
500.183
541.088
593.355
635.656
629.555
671.944
578.083
505.478
458.366
430.979
404.792
384.604
359.544
336.774
308.981
284.113
258.513
237.952
218.912
204.022
190.431
179.682
170.068
162.577
156.05
150.967
146.495
142.831
139.403
136.264
133.057
129.791
126.318
122.669
118.885
115.017
111.236
107.548
104.189
101.038
98.3593
95.8554
93.8542
91.8616
90.375
88.6762
87.5488
85.9762
85.1087
83.5887
82.9516
81.2705
38.0696
38.8589
39.9736
41.7391
44.6345
49.083
55.1647
62.388
69.8523
76.6207
82.1166
86.2716
89.3612
91.7255
93.4998
94.6058
94.878
94.4377
93.7555
93.5144
94.075
95.475
97.4553
99.8984
102.631
105.73
109.078
112.867
116.935