/*--------------------------------*- C++ -*----------------------------------*\
| =========                 |                                                 |
| \\      /  F ield         | OpenFOAM: The Open Source CFD Toolbox           |
|  \\    /   O peration     | Version:  2412                                  |
|   \\  /    A nd           | Website:  www.openfoam.com                      |
|    \\/     M anipulation  |                                                 |
\*---------------------------------------------------------------------------*/
FoamFile
{
    version     2.0;
    format      ascii;
    arch        "LSB;label=32;scalar=64";
    class       volScalarField;
    location    "1";
    object      nut;
}
// * * * * * * * * * * * * * * * * * * * * * * * * * * * * * * * * * * * * * //

dimensions      [0 2 -1 0 0 0 0];

internalField   nonuniform List<scalar> 
12960
(
0.337105
0.340154
0.345514
0.35538
0.372221
0.396307
0.42307
0.444793
0.456173
0.456524
0.448206
0.434554
0.418499
0.402118
0.386786
0.373743
0.364368
0.360159
0.36184
0.36869
0.378328
0.388272
0.396824
0.403742
0.409167
0.413782
0.417753
0.42166
0.425314
0.429251
0.432993
0.437221
0.441168
0.445819
0.450032
0.455265
0.459854
0.465975
0.471258
0.478885
0.485351
0.494788
0.501845
0.511476
0.516297
0.52242
0.521677
0.523755
0.522099
0.524675
0.522909
0.49251
0.473842
0.383641
0.320372
0.295722
0.312343
0.343034
0.377025
0.390944
0.396754
0.391603
0.387466
0.380781
0.377605
0.373747
0.372645
0.371287
0.372088
0.372827
0.37478
0.376178
0.377768
0.378447
0.378727
0.377961
0.376499
0.374079
0.371057
0.367564
0.36399
0.360685
0.357877
0.355898
0.35462
0.354263
0.354274
0.354866
0.355168
0.355668
0.355296
0.355033
0.353538
0.352331
0.349628
0.347436
0.343552
0.34042
0.335532
0.337132
0.340221
0.345636
0.35558
0.372514
0.396663
0.423392
0.444975
0.456158
0.4563
0.447792
0.433993
0.417844
0.401427
0.386104
0.373096
0.363768
0.359616
0.36138
0.368344
0.378111
0.388164
0.396788
0.403741
0.409176
0.413787
0.41775
0.421647
0.425292
0.429222
0.432958
0.43718
0.441123
0.445768
0.449976
0.455204
0.459787
0.465902
0.47118
0.478805
0.485274
0.494722
0.501792
0.511443
0.516274
0.5224
0.521639
0.523714
0.522068
0.52476
0.523122
0.492999
0.474741
0.384669
0.320966
0.29556
0.311031
0.340808
0.374567
0.388844
0.395172
0.390492
0.386715
0.380284
0.37728
0.37353
0.37249
0.371168
0.37199
0.372745
0.374715
0.37613
0.377737
0.37843
0.378723
0.377967
0.376511
0.37409
0.371063
0.36756
0.363974
0.360657
0.357841
0.35586
0.354587
0.354241
0.354269
0.354882
0.355205
0.355726
0.355374
0.355132
0.353659
0.352477
0.349802
0.347647
0.343801
0.340716
0.335855
0.33716
0.34029
0.345759
0.355781
0.372809
0.397018
0.423712
0.445156
0.456141
0.456075
0.447379
0.433431
0.417189
0.400735
0.38542
0.372447
0.363164
0.359069
0.360916
0.367994
0.37789
0.388054
0.396751
0.40374
0.409184
0.413792
0.417746
0.421634
0.42527
0.429193
0.432922
0.437139
0.441077
0.445717
0.449921
0.455142
0.45972
0.465829
0.471102
0.478726
0.485197
0.494655
0.50174
0.51141
0.516251
0.52238
0.521601
0.523673
0.522037
0.524844
0.523336
0.493489
0.475638
0.38569
0.321551
0.295394
0.309714
0.338564
0.372064
0.386687
0.393537
0.389338
0.385933
0.379767
0.37694
0.373303
0.372329
0.371043
0.371886
0.372659
0.374645
0.376077
0.377701
0.37841
0.378717
0.377971
0.37652
0.3741
0.371067
0.367554
0.363956
0.360628
0.357804
0.355821
0.354552
0.354218
0.354263
0.354896
0.355241
0.355784
0.355452
0.355232
0.353779
0.352625
0.349977
0.347861
0.344051
0.341015
0.336182
0.337188
0.340359
0.345884
0.355983
0.373105
0.397374
0.424032
0.445335
0.456122
0.455848
0.446964
0.432869
0.416533
0.400041
0.384733
0.371794
0.362557
0.358519
0.360448
0.367641
0.377667
0.387942
0.396713
0.403738
0.409192
0.413797
0.417743
0.421621
0.425248
0.429163
0.432887
0.437098
0.441031
0.445666
0.449864
0.45508
0.459652
0.465755
0.471023
0.478645
0.485119
0.494588
0.501687
0.511376
0.516228
0.522359
0.521561
0.523631
0.522004
0.524927
0.523549
0.493982
0.476534
0.386705
0.322127
0.295224
0.308397
0.336303
0.369518
0.384474
0.391848
0.38814
0.385119
0.379227
0.376586
0.373066
0.37216
0.370911
0.371776
0.372567
0.374571
0.376021
0.377661
0.378386
0.378707
0.377972
0.376527
0.374108
0.37107
0.367547
0.363937
0.360598
0.357765
0.35578
0.354516
0.354193
0.354256
0.35491
0.355277
0.355841
0.35553
0.355331
0.3539
0.352773
0.350153
0.348075
0.344303
0.341316
0.336512
0.337217
0.340429
0.34601
0.356188
0.373403
0.39773
0.42435
0.445511
0.456102
0.455621
0.446549
0.432306
0.415875
0.399343
0.384042
0.371137
0.361946
0.357966
0.359976
0.367285
0.377441
0.387829
0.396674
0.403735
0.4092
0.413801
0.417739
0.421607
0.425226
0.429133
0.432851
0.437057
0.440985
0.445614
0.449808
0.455018
0.459584
0.465681
0.470943
0.478564
0.48504
0.49452
0.501633
0.511342
0.516204
0.522337
0.521521
0.523587
0.521969
0.525009
0.523762
0.494475
0.477428
0.387711
0.322695
0.295051
0.307079
0.334029
0.366931
0.382205
0.390103
0.386896
0.384271
0.378663
0.376216
0.372818
0.371983
0.370773
0.37166
0.372469
0.374491
0.375959
0.377617
0.378358
0.378693
0.377969
0.376531
0.374113
0.37107
0.367538
0.363916
0.360565
0.357725
0.355737
0.354478
0.354167
0.354248
0.354922
0.355312
0.355897
0.355608
0.35543
0.354021
0.352921
0.350329
0.348291
0.344557
0.341619
0.336845
0.337246
0.3405
0.346137
0.356394
0.373702
0.398087
0.424667
0.445686
0.45608
0.455392
0.446132
0.431741
0.415215
0.398643
0.383348
0.370477
0.361332
0.357409
0.359501
0.366925
0.377212
0.387714
0.396634
0.403732
0.409208
0.413805
0.417734
0.421593
0.425203
0.429103
0.432814
0.437015
0.440938
0.445562
0.44975
0.454955
0.459515
0.465606
0.470863
0.478482
0.48496
0.494451
0.501578
0.511307
0.516179
0.522314
0.521479
0.523541
0.521932
0.525089
0.523974
0.494969
0.478319
0.388709
0.323255
0.294876
0.305763
0.331743
0.364305
0.37988
0.388302
0.385604
0.383387
0.378075
0.375829
0.372557
0.371796
0.370627
0.371538
0.372365
0.374405
0.375892
0.377568
0.378326
0.378675
0.377964
0.376532
0.374115
0.371068
0.367527
0.363893
0.360531
0.357682
0.355692
0.354438
0.35414
0.354238
0.354934
0.355345
0.355953
0.355685
0.355529
0.354142
0.35307
0.350506
0.348508
0.344812
0.341925
0.33718
0.337275
0.340572
0.346266
0.356603
0.374003
0.398445
0.424983
0.44586
0.456056
0.455162
0.445715
0.431175
0.414553
0.397941
0.382651
0.369813
0.360714
0.356848
0.359023
0.366562
0.376981
0.387598
0.396594
0.403728
0.409214
0.413809
0.417729
0.421578
0.42518
0.429072
0.432778
0.436972
0.44089
0.445509
0.449692
0.454891
0.459445
0.46553
0.470782
0.478399
0.484879
0.494381
0.501523
0.511271
0.516154
0.522291
0.521435
0.523494
0.521894
0.525169
0.524185
0.495464
0.479207
0.389698
0.323806
0.2947
0.304451
0.329448
0.36164
0.377499
0.386442
0.384264
0.382466
0.377459
0.375423
0.372284
0.3716
0.370473
0.371408
0.372254
0.374312
0.375818
0.377513
0.378288
0.378653
0.377954
0.37653
0.374115
0.371063
0.367513
0.363868
0.360494
0.357638
0.355645
0.354397
0.35411
0.354227
0.354944
0.355378
0.356009
0.355762
0.355628
0.354263
0.353219
0.350684
0.348725
0.345069
0.342233
0.337518
0.337305
0.340645
0.346396
0.356813
0.374306
0.398802
0.425298
0.446031
0.45603
0.45493
0.445296
0.430608
0.413889
0.397236
0.38195
0.369145
0.360092
0.356284
0.358541
0.366195
0.376747
0.38748
0.396552
0.403723
0.409221
0.413812
0.417724
0.421563
0.425156
0.429041
0.43274
0.436929
0.440842
0.445456
0.449634
0.454826
0.459374
0.465454
0.4707
0.478314
0.484797
0.49431
0.501466
0.511234
0.516127
0.522265
0.52139
0.523444
0.521853
0.525246
0.524395
0.49596
0.480092
0.390679
0.32435
0.294525
0.303144
0.327146
0.358939
0.375062
0.384523
0.382872
0.381505
0.376816
0.374998
0.371996
0.371393
0.370309
0.37127
0.372135
0.374213
0.375738
0.377452
0.378245
0.378626
0.37794
0.376524
0.374111
0.371056
0.367497
0.363841
0.360455
0.357591
0.355596
0.354353
0.354079
0.354214
0.354953
0.35541
0.356063
0.355837
0.355726
0.354384
0.353368
0.350862
0.348944
0.345328
0.342543
0.337859
0.337335
0.340718
0.346527
0.357024
0.37461
0.399161
0.425612
0.4462
0.456002
0.454697
0.444877
0.430041
0.413224
0.396528
0.381247
0.368474
0.359467
0.355716
0.358055
0.365826
0.376511
0.38736
0.396509
0.403719
0.409227
0.413815
0.417718
0.421548
0.425132
0.429009
0.432702
0.436886
0.440793
0.445402
0.449574
0.454761
0.459303
0.465377
0.470617
0.478229
0.484714
0.494238
0.501408
0.511196
0.516099
0.522239
0.521343
0.523393
0.521809
0.525322
0.524604
0.496456
0.480972
0.39165
0.324887
0.29435
0.301844
0.324841
0.356204
0.37257
0.382545
0.381427
0.380503
0.376143
0.374551
0.371694
0.371175
0.370136
0.371123
0.372009
0.374106
0.375651
0.377384
0.378196
0.378594
0.37792
0.376514
0.374103
0.371045
0.367478
0.36381
0.360413
0.357541
0.355544
0.354307
0.354045
0.354199
0.35496
0.355441
0.356116
0.355913
0.355824
0.354504
0.353516
0.35104
0.349164
0.345587
0.342855
0.338202
0.337365
0.340793
0.346661
0.357238
0.374916
0.399519
0.425925
0.446367
0.455973
0.454463
0.444456
0.429472
0.412558
0.395818
0.38054
0.3678
0.358839
0.355145
0.357566
0.365453
0.376272
0.387238
0.396465
0.403713
0.409233
0.413817
0.417712
0.421532
0.425107
0.428977
0.432664
0.436842
0.440744
0.445348
0.449514
0.454696
0.459231
0.465299
0.470533
0.478144
0.48463
0.494165
0.50135
0.511157
0.516071
0.522212
0.521295
0.523339
0.521763
0.525396
0.524812
0.496952
0.481849
0.392612
0.325417
0.294177
0.300553
0.322534
0.353438
0.370024
0.380505
0.379928
0.379458
0.375438
0.374082
0.371375
0.370943
0.369952
0.370967
0.371873
0.37399
0.375556
0.377309
0.37814
0.378555
0.377896
0.376499
0.374092
0.371031
0.367455
0.363777
0.360369
0.357489
0.35549
0.354259
0.35401
0.354182
0.354965
0.35547
0.356169
0.355987
0.355921
0.354624
0.353665
0.351219
0.349384
0.345848
0.34317
0.338548
0.337396
0.340869
0.346795
0.357454
0.375224
0.399878
0.426237
0.446533
0.455941
0.454227
0.444035
0.428903
0.41189
0.395106
0.37983
0.367122
0.358207
0.354571
0.357074
0.365077
0.376031
0.387115
0.396421
0.403707
0.409238
0.413819
0.417705
0.421515
0.425082
0.428944
0.432625
0.436797
0.440695
0.445292
0.449454
0.454629
0.459159
0.46522
0.470449
0.478057
0.484545
0.494091
0.50129
0.511118
0.516041
0.522183
0.521245
0.523283
0.521715
0.525468
0.525018
0.497449
0.482721
0.393564
0.32594
0.294008
0.299273
0.320228
0.350642
0.367425
0.378404
0.378372
0.378368
0.374699
0.373589
0.371038
0.370698
0.369756
0.3708
0.371727
0.373864
0.375451
0.377226
0.378077
0.37851
0.377866
0.376478
0.374076
0.371012
0.367429
0.36374
0.360321
0.357434
0.355433
0.354207
0.353971
0.354163
0.354969
0.355497
0.35622
0.35606
0.356018
0.354744
0.353814
0.351398
0.349605
0.34611
0.343486
0.338896
0.337428
0.340945
0.346931
0.357671
0.375533
0.400238
0.426547
0.446696
0.455908
0.45399
0.443613
0.428332
0.411221
0.394392
0.379117
0.366442
0.357573
0.353993
0.356578
0.364698
0.375787
0.38699
0.396375
0.4037
0.409242
0.413821
0.417698
0.421498
0.425056
0.42891
0.432585
0.436752
0.440644
0.445237
0.449393
0.454562
0.459085
0.46514
0.470363
0.477969
0.484459
0.494015
0.50123
0.511077
0.51601
0.522153
0.521193
0.523225
0.521664
0.525538
0.525223
0.497945
0.483588
0.394507
0.326457
0.293842
0.298005
0.317926
0.347819
0.364773
0.37624
0.376758
0.37723
0.373924
0.37307
0.370682
0.370437
0.369548
0.370621
0.37157
0.373729
0.375337
0.377133
0.378005
0.378457
0.377829
0.376452
0.374054
0.370989
0.367399
0.363699
0.36027
0.357375
0.355373
0.354153
0.353931
0.354142
0.354971
0.355523
0.356269
0.356132
0.356113
0.354863
0.353962
0.351576
0.349826
0.346373
0.343804
0.339247
0.33746
0.341023
0.347069
0.35789
0.375844
0.400598
0.426856
0.446858
0.455873
0.453752
0.443191
0.427762
0.41055
0.393675
0.378402
0.365757
0.356935
0.353413
0.356079
0.364315
0.375541
0.386864
0.396328
0.403692
0.409246
0.413822
0.417691
0.421481
0.42503
0.428877
0.432545
0.436706
0.440593
0.44518
0.449331
0.454494
0.459011
0.465059
0.470276
0.47788
0.484372
0.493939
0.501168
0.511035
0.515978
0.522121
0.521139
0.523165
0.52161
0.525606
0.525426
0.498442
0.484449
0.395439
0.326969
0.293682
0.296751
0.31563
0.344972
0.362069
0.374013
0.375085
0.376043
0.373112
0.372523
0.370305
0.37016
0.369325
0.370429
0.371401
0.373581
0.375213
0.377031
0.377924
0.378396
0.377784
0.37642
0.374028
0.370961
0.367364
0.363655
0.360215
0.357313
0.355309
0.354096
0.353887
0.354118
0.35497
0.355547
0.356317
0.356203
0.356207
0.354981
0.35411
0.351755
0.350048
0.346637
0.344124
0.339599
0.337492
0.341102
0.347208
0.358112
0.376156
0.400958
0.427165
0.447018
0.455837
0.453513
0.442768
0.42719
0.409879
0.392957
0.377683
0.36507
0.356294
0.352829
0.355577
0.36393
0.375292
0.386736
0.39628
0.403684
0.40925
0.413822
0.417683
0.421463
0.425003
0.428842
0.432504
0.436659
0.440542
0.445123
0.449268
0.454425
0.458936
0.464978
0.470189
0.47779
0.484284
0.493862
0.501105
0.510992
0.515945
0.522088
0.521084
0.523101
0.521554
0.525671
0.525627
0.498938
0.485305
0.396361
0.327477
0.293527
0.295513
0.313343
0.342103
0.359315
0.371723
0.37335
0.374803
0.37226
0.371947
0.369905
0.369865
0.369087
0.370223
0.371218
0.373422
0.375076
0.376918
0.377833
0.378326
0.377732
0.37638
0.373994
0.370928
0.367325
0.363606
0.360156
0.357247
0.355242
0.354035
0.35384
0.354091
0.354967
0.355568
0.356363
0.356272
0.3563
0.355097
0.354257
0.351933
0.35027
0.346902
0.344445
0.339953
0.337524
0.341181
0.347349
0.358335
0.37647
0.401318
0.427472
0.447175
0.455798
0.453273
0.442344
0.426618
0.409206
0.392236
0.376962
0.36438
0.35565
0.352243
0.355073
0.363542
0.375041
0.386606
0.396232
0.403675
0.409253
0.413822
0.417674
0.421444
0.424976
0.428807
0.432463
0.436612
0.44049
0.445066
0.449205
0.454356
0.45886
0.464896
0.470101
0.477699
0.484194
0.493783
0.501041
0.510948
0.51591
0.522053
0.521026
0.523036
0.521494
0.525734
0.525827
0.499433
0.486154
0.397272
0.32798
0.29338
0.294292
0.311067
0.339215
0.356513
0.369368
0.371552
0.37351
0.371365
0.371339
0.369482
0.369551
0.368831
0.370001
0.371021
0.373248
0.374927
0.376792
0.377731
0.378246
0.377671
0.376333
0.373955
0.370888
0.36728
0.363552
0.360092
0.357177
0.355171
0.353971
0.353789
0.354061
0.354961
0.355588
0.356406
0.356339
0.356391
0.355213
0.354403
0.352111
0.350492
0.347167
0.344767
0.34031
0.337557
0.341262
0.347491
0.35856
0.376785
0.401679
0.427777
0.447331
0.455758
0.453031
0.44192
0.426046
0.408533
0.391514
0.376239
0.363687
0.355003
0.351654
0.354565
0.363151
0.374787
0.386474
0.396182
0.403666
0.409255
0.413822
0.417665
0.421425
0.424948
0.428772
0.432421
0.436565
0.440437
0.445007
0.449141
0.454286
0.458784
0.464812
0.470011
0.477607
0.484104
0.493703
0.500976
0.510903
0.515874
0.522017
0.520966
0.522967
0.521431
0.525794
0.526024
0.499928
0.486997
0.398173
0.328479
0.293241
0.293091
0.308806
0.336312
0.353665
0.36695
0.369689
0.372161
0.370426
0.370697
0.369032
0.369215
0.368558
0.369763
0.370809
0.37306
0.374763
0.376654
0.377617
0.378155
0.3776
0.376277
0.373907
0.370842
0.367229
0.363492
0.360024
0.357102
0.355095
0.353902
0.353735
0.354028
0.354951
0.355604
0.356448
0.356405
0.356481
0.355327
0.354548
0.352288
0.350714
0.347433
0.345091
0.340667
0.337591
0.341343
0.347635
0.358787
0.377102
0.40204
0.428082
0.447485
0.455716
0.452789
0.441495
0.425474
0.407859
0.390791
0.375513
0.362992
0.354354
0.351062
0.354054
0.362757
0.374531
0.386341
0.396131
0.403655
0.409257
0.413821
0.417655
0.421406
0.42492
0.428735
0.432379
0.436517
0.440384
0.444948
0.449077
0.454215
0.458707
0.464728
0.469921
0.477513
0.484012
0.493622
0.500909
0.510856
0.515837
0.521978
0.520904
0.522896
0.521365
0.525851
0.526219
0.500422
0.487833
0.399064
0.328976
0.29311
0.29191
0.306561
0.333396
0.350772
0.364469
0.36776
0.370753
0.36944
0.370019
0.368555
0.368857
0.368264
0.369507
0.370579
0.372855
0.374584
0.376501
0.37749
0.378051
0.377518
0.376212
0.373851
0.370789
0.367172
0.363427
0.35995
0.357022
0.355015
0.353829
0.353677
0.353991
0.354939
0.355617
0.356486
0.356467
0.356569
0.35544
0.354691
0.352464
0.350935
0.347699
0.345415
0.341026
0.337625
0.341426
0.347781
0.359016
0.377421
0.402401
0.428385
0.447637
0.455672
0.452545
0.44107
0.424901
0.407185
0.390065
0.374784
0.362293
0.353701
0.350467
0.353541
0.36236
0.374272
0.386206
0.396079
0.403644
0.409258
0.413819
0.417645
0.421386
0.424891
0.428699
0.432336
0.436468
0.44033
0.444889
0.449012
0.454144
0.458629
0.464644
0.46983
0.477419
0.483919
0.49354
0.500842
0.510808
0.515798
0.521938
0.520839
0.522821
0.521295
0.525905
0.526411
0.500915
0.488661
0.399943
0.32947
0.29299
0.290751
0.304336
0.33047
0.347836
0.361923
0.365764
0.369284
0.368404
0.369302
0.368046
0.368474
0.367949
0.36923
0.37033
0.372632
0.374387
0.376332
0.377348
0.377935
0.377424
0.376135
0.373786
0.370727
0.367107
0.363355
0.359869
0.356936
0.354929
0.353751
0.353613
0.353949
0.354922
0.355627
0.356522
0.356528
0.356654
0.35555
0.354833
0.352639
0.351156
0.347964
0.345741
0.341387
0.337659
0.34151
0.347928
0.359247
0.377741
0.402762
0.428687
0.447787
0.455627
0.452301
0.440645
0.424329
0.406509
0.389339
0.374054
0.361592
0.353047
0.34987
0.353025
0.36196
0.374011
0.386069
0.396025
0.403633
0.409259
0.413817
0.417634
0.421365
0.424861
0.428662
0.432292
0.436418
0.440275
0.444829
0.448946
0.454071
0.45855
0.464558
0.469737
0.477324
0.483825
0.493457
0.500773
0.510759
0.515757
0.521896
0.520772
0.522743
0.521221
0.525955
0.526601
0.501407
0.489481
0.400813
0.329962
0.29288
0.289615
0.302133
0.327538
0.34486
0.359314
0.363698
0.367752
0.367316
0.368543
0.367506
0.368063
0.36761
0.368932
0.37006
0.372389
0.374172
0.376145
0.37719
0.377804
0.377317
0.376048
0.373711
0.370657
0.367035
0.363276
0.359783
0.356845
0.354837
0.353667
0.353545
0.353903
0.354902
0.355634
0.356554
0.356585
0.356737
0.355659
0.354974
0.352812
0.351376
0.34823
0.346066
0.341748
0.337694
0.341595
0.348077
0.359479
0.378063
0.403124
0.428987
0.447935
0.45558
0.452055
0.440219
0.423756
0.405834
0.388611
0.373321
0.360888
0.352389
0.34927
0.352506
0.361558
0.373747
0.385931
0.395971
0.40362
0.409259
0.413814
0.417623
0.421344
0.424831
0.428624
0.432248
0.436368
0.44022
0.444768
0.448879
0.453998
0.45847
0.464471
0.469644
0.477227
0.483729
0.493372
0.500702
0.510708
0.515715
0.521852
0.520702
0.522662
0.521144
0.526003
0.526788
0.501897
0.490293
0.401671
0.330454
0.292782
0.288505
0.299954
0.324604
0.341846
0.356643
0.361563
0.366154
0.366172
0.367741
0.36693
0.367624
0.367245
0.36861
0.369768
0.372125
0.373937
0.37594
0.377014
0.377657
0.377196
0.375948
0.373624
0.370577
0.366953
0.363189
0.359689
0.356746
0.35474
0.353578
0.353472
0.353852
0.354877
0.355636
0.356583
0.356639
0.356816
0.355765
0.355112
0.352984
0.351595
0.348494
0.346392
0.34211
0.33773
0.341681
0.348227
0.359714
0.378386
0.403486
0.429286
0.448081
0.455531
0.451809
0.439794
0.423183
0.405158
0.387882
0.372586
0.360182
0.35173
0.348668
0.351984
0.361153
0.373482
0.38579
0.395916
0.403607
0.409259
0.413811
0.417611
0.421322
0.4248
0.428585
0.432203
0.436318
0.440164
0.444706
0.448812
0.453925
0.458389
0.464383
0.469549
0.477129
0.483632
0.493286
0.50063
0.510656
0.515671
0.521806
0.520629
0.522577
0.521062
0.526046
0.526971
0.502386
0.491096
0.402519
0.330944
0.292697
0.28742
0.297802
0.32167
0.338797
0.353909
0.359356
0.364487
0.36497
0.366892
0.366316
0.367152
0.366852
0.368262
0.369451
0.371837
0.373679
0.375713
0.376819
0.377492
0.377059
0.375833
0.373526
0.370485
0.366863
0.363094
0.359587
0.356641
0.354635
0.353482
0.353392
0.353796
0.354847
0.355633
0.356608
0.356689
0.356893
0.355868
0.355247
0.353154
0.351812
0.348758
0.346718
0.342472
0.337766
0.341768
0.348379
0.359951
0.378711
0.403847
0.429584
0.448225
0.455481
0.451562
0.439368
0.42261
0.404481
0.387151
0.37185
0.359474
0.351067
0.348064
0.35146
0.360745
0.373213
0.385648
0.395859
0.403593
0.409257
0.413807
0.417598
0.421299
0.424769
0.428546
0.432158
0.436267
0.440107
0.444644
0.448744
0.45385
0.458308
0.464295
0.469454
0.47703
0.483534
0.493198
0.500557
0.510602
0.515626
0.521757
0.520554
0.522488
0.520976
0.526085
0.527151
0.502872
0.49189
0.403357
0.331436
0.292625
0.286363
0.295679
0.318739
0.335716
0.351115
0.357077
0.362751
0.363707
0.365993
0.365661
0.366647
0.366429
0.367886
0.369107
0.371524
0.373397
0.375464
0.376602
0.377309
0.376905
0.375704
0.373414
0.370382
0.366761
0.362989
0.359477
0.356527
0.354523
0.353379
0.353307
0.353733
0.354811
0.355626
0.356628
0.356736
0.356966
0.355968
0.35538
0.353321
0.352028
0.349021
0.347044
0.342835
0.337802
0.341856
0.348533
0.36019
0.379037
0.404209
0.429881
0.448367
0.455429
0.451314
0.438942
0.422038
0.403805
0.38642
0.371111
0.358763
0.350403
0.347458
0.350934
0.360335
0.372943
0.385504
0.395801
0.403578
0.409255
0.413802
0.417585
0.421276
0.424737
0.428506
0.432112
0.436215
0.44005
0.444581
0.448675
0.453774
0.458225
0.464205
0.469357
0.47693
0.483435
0.493109
0.500482
0.510546
0.515578
0.521706
0.520475
0.522396
0.520885
0.52612
0.527328
0.503356
0.492674
0.404184
0.331928
0.292566
0.285335
0.293587
0.315816
0.332606
0.348261
0.354725
0.360941
0.36238
0.36504
0.364962
0.366104
0.365972
0.367479
0.368735
0.371183
0.373089
0.37519
0.376363
0.377104
0.376732
0.375558
0.373287
0.370266
0.366648
0.362874
0.359358
0.356405
0.354403
0.353269
0.353214
0.353664
0.354769
0.355613
0.356643
0.356778
0.357035
0.356064
0.35551
0.353486
0.352242
0.349283
0.347369
0.343197
0.337839
0.341945
0.348689
0.360431
0.379365
0.404572
0.430176
0.448507
0.455375
0.451065
0.438516
0.421466
0.403128
0.385688
0.370371
0.35805
0.349736
0.346849
0.350406
0.359922
0.372669
0.385359
0.395742
0.403562
0.409253
0.413797
0.417571
0.421252
0.424704
0.428466
0.432065
0.436162
0.439992
0.444517
0.448605
0.453698
0.458142
0.464114
0.469259
0.476828
0.483334
0.493018
0.500406
0.510489
0.515528
0.521652
0.520393
0.522299
0.52079
0.526151
0.527501
0.503838
0.493448
0.405001
0.332421
0.292523
0.284336
0.291528
0.312903
0.32947
0.345349
0.352299
0.359056
0.360985
0.364031
0.364217
0.365521
0.36548
0.367039
0.36833
0.370812
0.372752
0.374889
0.376099
0.376876
0.376538
0.375393
0.373143
0.370136
0.366523
0.362748
0.359228
0.356273
0.354274
0.353151
0.353113
0.353587
0.354721
0.355594
0.356652
0.356814
0.357099
0.356156
0.355637
0.353648
0.352453
0.349542
0.347693
0.343559
0.337876
0.342035
0.348846
0.360674
0.379694
0.404934
0.430469
0.448645
0.45532
0.450816
0.43809
0.420894
0.402452
0.384955
0.369629
0.357334
0.349068
0.346239
0.349875
0.359506
0.372394
0.385211
0.395682
0.403545
0.409249
0.413791
0.417557
0.421228
0.424671
0.428425
0.432018
0.436109
0.439933
0.444452
0.448535
0.453621
0.458058
0.464022
0.46916
0.476725
0.483231
0.492926
0.500327
0.510429
0.515476
0.521596
0.520308
0.522197
0.520689
0.526177
0.527669
0.504316
0.494212
0.405807
0.332917
0.292494
0.283367
0.289504
0.310004
0.326311
0.34238
0.349799
0.357094
0.35952
0.362962
0.363421
0.364895
0.364948
0.366562
0.367891
0.370407
0.372383
0.374558
0.375807
0.376623
0.376322
0.375208
0.372982
0.36999
0.366384
0.362609
0.359087
0.356131
0.354136
0.353023
0.353003
0.353503
0.354665
0.355568
0.356656
0.356846
0.357159
0.356244
0.355759
0.353807
0.352662
0.3498
0.348016
0.34392
0.337914
0.342127
0.349006
0.360919
0.380025
0.405296
0.430762
0.448781
0.455263
0.450565
0.437664
0.420323
0.401776
0.384221
0.368885
0.356617
0.348397
0.345626
0.349342
0.359088
0.372116
0.385062
0.39562
0.403527
0.409245
0.413784
0.417541
0.421203
0.424637
0.428383
0.43197
0.436054
0.439874
0.444387
0.448463
0.453543
0.457972
0.463929
0.46906
0.476621
0.483127
0.492832
0.500247
0.510368
0.515422
0.521537
0.520219
0.522091
0.520584
0.526197
0.527833
0.504792
0.494964
0.406604
0.333416
0.292482
0.282429
0.287518
0.307122
0.323133
0.339357
0.347225
0.355052
0.35798
0.361829
0.362571
0.364222
0.364375
0.366047
0.367414
0.369967
0.37198
0.374195
0.375485
0.376343
0.376081
0.375001
0.372802
0.369827
0.366229
0.362457
0.358933
0.355978
0.353987
0.352886
0.352885
0.35341
0.354602
0.355535
0.356653
0.356871
0.357213
0.356327
0.355877
0.353961
0.352867
0.350055
0.348337
0.34428
0.337952
0.34222
0.349167
0.361166
0.380358
0.405659
0.431053
0.448915
0.455205
0.450314
0.437238
0.419752
0.4011
0.383487
0.36814
0.355898
0.347724
0.345012
0.348807
0.358668
0.371836
0.38491
0.395557
0.403508
0.40924
0.413776
0.417525
0.421177
0.424602
0.42834
0.431921
0.436
0.439814
0.444321
0.448391
0.453463
0.457886
0.463835
0.468959
0.476515
0.483022
0.492736
0.500166
0.510305
0.515366
0.521474
0.520126
0.52198
0.520472
0.526212
0.527992
0.505264
0.495705
0.407391
0.333918
0.292486
0.281524
0.28557
0.304261
0.319939
0.336281
0.344576
0.352928
0.356364
0.360629
0.361663
0.363498
0.363756
0.365488
0.366897
0.369488
0.371539
0.373797
0.37513
0.376032
0.375812
0.37477
0.3726
0.369645
0.366058
0.36229
0.358766
0.355812
0.353826
0.352737
0.352756
0.353308
0.354529
0.355494
0.356642
0.356889
0.357261
0.356404
0.35599
0.354112
0.353069
0.350306
0.348656
0.344638
0.337991
0.342314
0.349329
0.361415
0.380692
0.406021
0.431342
0.449048
0.455145
0.450062
0.436813
0.419182
0.400424
0.382752
0.367393
0.355177
0.34705
0.344395
0.34827
0.358245
0.371553
0.384757
0.395492
0.403488
0.409234
0.413768
0.417508
0.42115
0.424567
0.428297
0.431871
0.435944
0.439753
0.444254
0.448318
0.453383
0.457798
0.46374
0.468856
0.476408
0.482914
0.492638
0.500082
0.510239
0.515307
0.521409
0.520029
0.521864
0.520355
0.526222
0.528146
0.505732
0.496434
0.408169
0.334423
0.292506
0.28065
0.283662
0.301423
0.316732
0.333154
0.341852
0.35072
0.354666
0.359357
0.360693
0.362721
0.363087
0.364884
0.366336
0.368966
0.371059
0.373361
0.37474
0.375689
0.375515
0.374513
0.372375
0.369443
0.365869
0.362106
0.358585
0.355633
0.353653
0.352578
0.352617
0.353196
0.354447
0.355445
0.356623
0.356901
0.357302
0.356475
0.356098
0.354257
0.353266
0.350554
0.348972
0.344993
0.33803
0.342409
0.349494
0.361666
0.381028
0.406384
0.43163
0.449178
0.455084
0.44981
0.436387
0.418613
0.399748
0.382016
0.366645
0.354454
0.346373
0.343778
0.347731
0.35782
0.371268
0.384602
0.395426
0.403467
0.409227
0.413759
0.417491
0.421122
0.42453
0.428253
0.431821
0.435888
0.439691
0.444186
0.448244
0.453302
0.45771
0.463644
0.468751
0.476299
0.482805
0.492539
0.499996
0.510172
0.515245
0.52134
0.519928
0.521742
0.520231
0.526224
0.528294
0.506196
0.49715
0.408937
0.334933
0.292543
0.27981
0.281796
0.298611
0.313517
0.32998
0.339055
0.348426
0.352884
0.358009
0.359657
0.361885
0.362366
0.36423
0.365727
0.368399
0.370534
0.372883
0.374311
0.375311
0.375185
0.374227
0.372125
0.369218
0.36566
0.361905
0.358388
0.355439
0.353467
0.352405
0.352465
0.353072
0.354355
0.355385
0.356596
0.356903
0.357335
0.35654
0.356199
0.354397
0.353459
0.350799
0.349285
0.345346
0.33807
0.342505
0.349661
0.36192
0.381365
0.406747
0.431917
0.449307
0.455021
0.449557
0.435962
0.418044
0.399073
0.381281
0.365896
0.353729
0.345695
0.343158
0.34719
0.357392
0.370981
0.384444
0.395359
0.403445
0.409219
0.413748
0.417472
0.421094
0.424493
0.428208
0.431769
0.43583
0.439628
0.444117
0.448169
0.45322
0.45762
0.463546
0.468646
0.476188
0.482695
0.492438
0.499908
0.510101
0.515181
0.521267
0.519822
0.521615
0.5201
0.526221
0.528437
0.506655
0.497854
0.409696
0.335448
0.292598
0.279003
0.279973
0.295829
0.310298
0.32676
0.336183
0.346045
0.351014
0.356581
0.35855
0.360986
0.361587
0.363522
0.365066
0.367781
0.369962
0.37236
0.37384
0.374894
0.37482
0.373909
0.371846
0.368969
0.365429
0.361685
0.358173
0.355229
0.353266
0.352219
0.352301
0.352936
0.354251
0.355315
0.356558
0.356897
0.357361
0.356597
0.356294
0.354531
0.353646
0.351038
0.349593
0.345695
0.338111
0.342603
0.349829
0.362175
0.381704
0.407109
0.432202
0.449433
0.454956
0.449303
0.435537
0.417476
0.398399
0.380545
0.365146
0.353003
0.345015
0.342537
0.346648
0.356963
0.370691
0.384285
0.395289
0.403421
0.40921
0.413737
0.417452
0.421065
0.424455
0.428162
0.431717
0.435772
0.439564
0.444047
0.448093
0.453137
0.457529
0.463447
0.468539
0.476076
0.482582
0.492334
0.499818
0.510029
0.515113
0.521191
0.519712
0.521481
0.519963
0.52621
0.528573
0.507109
0.498545
0.410446
0.335969
0.292671
0.27823
0.278194
0.293079
0.307077
0.323498
0.333239
0.343574
0.349053
0.355068
0.357368
0.360021
0.360746
0.362756
0.364349
0.36711
0.369338
0.371788
0.373324
0.374435
0.374417
0.373558
0.371538
0.368693
0.365175
0.361444
0.357939
0.355002
0.353048
0.352017
0.352122
0.352786
0.354135
0.355233
0.35651
0.356882
0.357377
0.356646
0.356381
0.354658
0.353828
0.351272
0.349898
0.346041
0.338152
0.342702
0.349999
0.362433
0.382044
0.407472
0.432486
0.449558
0.45489
0.449049
0.435113
0.416908
0.397725
0.379809
0.364394
0.352275
0.344334
0.341915
0.346103
0.356531
0.370399
0.384124
0.395219
0.403396
0.409199
0.413725
0.417432
0.421034
0.424416
0.428115
0.431664
0.435713
0.4395
0.443977
0.448016
0.453052
0.457437
0.463346
0.46843
0.475962
0.482467
0.492228
0.499725
0.509953
0.515042
0.52111
0.519596
0.52134
0.519818
0.526192
0.528702
0.507558
0.499221
0.411188
0.336495
0.292761
0.27749
0.27646
0.290364
0.303858
0.320197
0.330224
0.341013
0.346998
0.353466
0.356106
0.358982
0.359838
0.361926
0.363572
0.366381
0.368658
0.371164
0.372758
0.37393
0.373972
0.373169
0.371196
0.368388
0.364895
0.361179
0.357684
0.354756
0.352813
0.351799
0.351928
0.352622
0.354005
0.355139
0.356451
0.356855
0.357384
0.356685
0.35646
0.354778
0.354003
0.3515
0.350197
0.346381
0.338193
0.342802
0.350172
0.362693
0.382386
0.407835
0.432768
0.44968
0.454823
0.448794
0.434688
0.416342
0.397052
0.379073
0.363642
0.351545
0.343651
0.341291
0.345557
0.356097
0.370104
0.38396
0.395146
0.40337
0.409188
0.413712
0.41741
0.421003
0.424376
0.428068
0.43161
0.435653
0.439434
0.443905
0.447937
0.452967
0.457344
0.463245
0.46832
0.475846
0.482351
0.49212
0.49963
0.509875
0.514968
0.521026
0.519476
0.521193
0.519665
0.526165
0.528824
0.508001
0.499884
0.411922
0.337027
0.292869
0.276784
0.274771
0.287687
0.300646
0.316861
0.327138
0.33836
0.344845
0.351771
0.354758
0.357867
0.35886
0.36103
0.36273
0.365589
0.367917
0.370482
0.372138
0.373376
0.373483
0.37274
0.370819
0.368051
0.364586
0.36089
0.357407
0.35449
0.352559
0.351563
0.351716
0.352443
0.35386
0.35503
0.356378
0.356817
0.35738
0.356715
0.35653
0.354889
0.35417
0.351721
0.350491
0.346717
0.338235
0.342903
0.350346
0.362955
0.38273
0.408198
0.433049