/*--------------------------------*- C++ -*----------------------------------*\
| =========                 |                                                 |
| \\      /  F ield         | OpenFOAM: The Open Source CFD Toolbox           |
|  \\    /   O peration     | Version:  2412                                  |
|   \\  /    A nd           | Website:  www.openfoam.com                      |
|    \\/     M anipulation  |                                                 |
\*---------------------------------------------------------------------------*/
FoamFile
{
    version     2.0;
    format      ascii;
    arch        "LSB;label=32;scalar=64";
    class       volScalarField;
    location    "1";
    object      p;
}
// * * * * * * * * * * * * * * * * * * * * * * * * * * * * * * * * * * * * * //

dimensions      [0 2 -2 0 0 0 0];

internalField   nonuniform List<scalar> 
12960
(
104301
104268
104218
104134
104047
103920
103800
103635
103481
103280
103102
102875
102681
102423
102203
101892
101634
101253
100959
100499
100181
99624
99285.5
98594.5
98243.5
97371.4
97025.4
95906.3
95595.4
94133.2
93906.9
91960.8
91899.7
89261
89495.9
85852.1
86592.5
81471
83052.5
75730
78690.2
68047
73251
57536
66385.2
42847.6
57623.9
21904.6
46278.4
-8668.6
31104.3
-53759.1
11776.4
-111677
-3957.03
-71966.9
3952.23
-35708.9
15118.8
-8462.39
24682.5
10540.9
32097.2
24024.6
38316
34160.6
43890.9
42148.8
48938.8
48606
53460
53907.2
57457.7
58294.3
60941.2
61933.5
63937.3
64959.2
66495
67490.5
68676.3
69633.1
70544.4
71477.3
72154.9
73097.7
73551.3
74554.8
74760.9
75897.5
75794.1
77167.7
76644.3
78408.4
77290.6
79671
77700.4
81016.5
77834.4
104308
104274
104224
104139
104052
103925
103805
103638
103484
103282
103104
102876
102682
102423
102204
101893
101635
101254
100961
100501
100183
99626.1
99287.5
98597
98245.7
97374.3
97028
95909.7
95598.2
94137.2
93910.1
91965.5
91903.3
89266.7
89499.8
85859
86596.8
81479.3
83057.2
75740.1
78695.2
68059
73255.9
57549.7
66389.8
42862.5
57628.2
21920.2
46283.3
-8657.97
31106
-53790.3
11753.7
-111865
-4010.32
-72000.2
3931.41
-35710.7
15112.5
-8454.03
24683.2
10550.6
32098.2
24031.4
38315.6
34165
43890.1
42152
48938.4
48608.8
53460.3
53910
57458.8
58297.2
60942.9
61936.4
63939.4
64961.8
66497.1
67492.7
68678.2
69634.8
70546
71478.4
72156.4
73098.2
73552.7
74554.8
74762.6
75897.1
75796.2
77166.8
76646.9
78406.8
77293.7
79668.8
77703.7
81013.8
77837
104315
104281
104230
104145
104057
103929
103809
103641
103487
103284
103106
102877
102683
102424
102205
101894
101637
101255
100962
100503
100185
99628.2
99289.5
98599.5
98248
97377.2
97030.5
95913.1
95601.1
94141.2
93913.3
91970.3
91906.9
89272.5
89503.7
85866
86601.2
81487.7
83061.9
75750.2
78700.2
68071
73260.9
57563.5
66394.4
42877.6
57632.6
21935.9
46288.3
-8647.3
31107.6
-53821.8
11730.8
-112055
-4064.25
-72033.6
3910.7
-35712.4
15106.1
-8445.88
24683.7
10560.2
32099
24038.3
38315.2
34169.5
43889.4
42155.3
48938.1
48611.7
53460.7
53912.8
57459.9
58300.1
60944.6
61939.3
63941.4
64964.5
66499.2
67495
68680.1
69636.5
70547.6
71479.5
72157.8
73098.8
73554.1
74554.9
74764.2
75896.7
75798.3
77165.9
76649.6
78405.3
77296.9
79666.6
77707
81011.2
77839.8
104322
104287
104236
104150
104063
103934
103813
103645
103490
103286
103107
102878
102684
102425
102206
101895
101638
101257
100963
100504
100186
99630.3
99291.5
98601.9
98250.3
97380
97033.1
95916.5
95604
94145.3
93916.5
91975.1
91910.4
89278.2
89507.7
85872.9
86605.5
81496.2
83066.6
75760.4
78705.2
68083.2
73266
57577.4
66399.1
42892.9
57637
21951.8
46293.4
-8636.57
31109.2
-53853.6
11707.6
-112246
-4118.8
-72067
3890.09
-35713.9
15099.5
-8437.91
24683.9
10569.6
32099.8
24045.2
38314.7
34174
43888.7
42158.6
48937.8
48614.6
53461.1
53915.7
57461.1
58303
60946.4
61942.2
63943.5
64967.2
66501.2
67497.2
68682
69638.2
70549.2
71480.6
72159.2
73099.3
73555.5
74555
74765.9
75896.3
75800.4
77165
76652.2
78403.8
77300.1
79664.4
77710.4
81008.5
77842.6
104329
104294
104243
104156
104068
103939
103817
103649
103493
103289
103109
102880
102685
102426
102206
101896
101639
101258
100965
100506
100188
99632.4
99293.6
98604.4
98252.6
97383
97035.7
95919.9
95606.9
94149.3
93919.7
91980
91914
89284.1
89511.7
85880
86609.9
81504.7
83071.4
75770.7
78710.3
68095.4
73271.1
57591.4
66403.9
42908.3
57641.5
21967.9
46298.5
-8625.7
31110.9
-53885.6
11684.3
-112440
-4173.84
-72100.6
3869.46
-35715.4
15092.7
-8430.03
24684
10579.1
32100.5
24052.1
38314.3
34178.5
43887.9
42162
48937.6
48617.5
53461.5
53918.5
57462.2
58305.9
60948.1
61945.1
63945.5
64969.9
66503.3
67499.5
68683.8
69639.9
70550.9
71481.7
72160.7
73099.9
73556.9
74555.1
74767.5
75896
75802.5
77164.1
76654.9
78402.2
77303.3
79662.2
77713.9
81005.8
77845.4
104336
104300
104249
104162
104073
103943
103821
103652
103496
103291
103111
102881
102686
102427
102207
101897
101640
101259
100966
100508
100190
99634.5
99295.6
98606.9
98254.9
97385.9
97038.3
95923.3
95609.8
94153.4
93922.9
91984.9
91917.6
89289.9
89515.7
85887.1
86614.3
81513.3
83076.2
75781.1
78715.3
68107.7
73276.2
57605.6
66408.6
42923.8
57646.1
21984
46303.6
-8614.71
31112.7
-53917.6
11660.9
-112635
-4229.35
-72134.4
3848.79
-35716.8
15085.9
-8422.23
24684
10588.5
32101.1
24059
38313.8
34183
43887.2
42165.4
48937.3
48620.4
53461.9
53921.4
57463.4
58308.9
60949.9
61948
63947.6
64972.6
66505.4
67501.7
68685.8
69641.6
70552.5
71482.8
72162.1
73100.4
73558.4
74555.1
74769.2
75895.6
75804.6
77163.2
76657.6
78400.7
77306.6
79660
77717.4
81003.1
77848.3
104343
104307
104255
104168
104079
103948
103826
103656
103499
103294
103113
102882
102687
102427
102208
101898
101641
101261
100968
100510
100192
99636.6
99297.6
98609.4
98257.2
97388.8
97040.9
95926.8
95612.7
94157.5
93926.2
91989.8
91921.3
89295.8
89519.7
85894.2
86618.7
81522
83081
75791.5
78720.5
68120.1
73281.4
57619.8
66413.5
42939.5
57650.7
22000.3
46308.9
-8603.57
31114.5
-53949.7
11637.4
-112832
-4285.33
-72168.2
3828.1
-35718.2
15078.9
-8414.51
24683.8
10597.8
32101.7
24065.9
38313.3
34187.5
43886.4
42168.8
48936.9
48623.3
53462.3
53924.3
57464.6
58311.9
60951.7
61951
63949.7
64975.3
66507.5
67504
68687.7
69643.3
70554.2
71484
72163.6
73101
73559.8
74555.2
74770.9
75895.2
75806.7
77162.3
76660.3
78399.1
77309.9
79657.7
77720.9
81000.4
77851.2
104350
104313
104262
104173
104084
103953
103830
103659
103502
103296
103115
102884
102688
102428
102209
101898
101642
101262
100969
100511
100193
99638.7
99299.7
98612
98259.6
97391.8
97043.5
95930.3
95615.6
94161.7
93929.5
91994.7
91925
89301.8
89523.8
85901.4
86623.2
81530.7
83085.9
75802
78725.6
68132.6
73286.6
57634.2
66418.3
42955.2
57655.3
22016.8
46314.1
-8592.31
31116.4
-53982
11613.9
-113031
-4341.79
-72202.1
3807.39
-35719.5
15071.8
-8406.88
24683.5
10607.1
32102.2
24072.8
38312.7
34192.1
43885.6
42172.2
48936.6
48626.3
53462.8
53927.2
57465.7
58314.9
60953.5
61954
63951.8
64978.1
66509.7
67506.3
68689.6
69645.1
70555.8
71485.1
72165
73101.6
73561.3
74555.3
74772.6
75894.8
75808.9
77161.4
76663.1
78397.5
77313.2
79655.4
77724.4
80997.6
77854.2
104357
104320
104268
104179
104090
103958
103834
103663
103506
103298
103117
102885
102689
102429
102210
101899
101643
101263
100970
100513
100195
99640.9
99301.8
98614.5
98262
97394.8
97046.2
95933.8
95618.6
94165.8
93932.8
91999.7
91928.7
89307.8
89527.9
85908.6
86627.7
81539.4
83090.8
75812.6
78730.8
68145.2
73291.8
57648.6
66423.2
42971.1
57659.9
22033.3
46319.5
-8580.91
31118.5
-54014.4
11590.3
-113231
-4398.72
-72236.2
3786.68
-35720.7
15064.6
-8399.33
24683
10616.3
32102.6
24079.6
38312.1
34196.6
43884.8
42175.6
48936.3
48629.3
53463.1
53930.2
57466.9
58317.9
60955.3
61957
63954
64980.8
66511.8
67508.7
68691.6
69646.8
70557.5
71486.2
72166.5
73102.2
73562.8
74555.4
74774.3
75894.4
75811.1
77160.5
76665.9
78395.9
77316.5
79653.1
77728
80994.8
77857.1
104364
104327
104275
104185
104095
103962
103839
103667
103509
103301
103119
102887
102690
102430
102210
101900
101644
101265
100972
100515
100197
99643.1
99303.9
98617.1
98264.3
97397.8
97048.8
95937.4
95621.6
94170
93936.2
92004.7
91932.4
89313.8
89532
85915.9
86632.2
81548.3
83095.7
75823.3
78736.1
68157.8
73297.1
57663.2
66428.1
42987.1
57664.6
22050
46324.9
-8569.37
31120.6
-54046.8
11566.6
-113433
-4456.13
-72270.3
3765.96
-35721.8
15057.3
-8391.87
24682.4
10625.5
32102.9
24086.5
38311.4
34201.2
43883.9
42179
48935.9
48632.3
53463.5
53933.1
57468.1
58320.9
60957.1
61960
63956.1
64983.6
66514
67511
68693.5
69648.6
70559.2
71487.4
72168
73102.7
73564.2
74555.5
74776
75894
75813.2
77159.5
76668.6
78394.3
77319.9
79650.7
77731.6
80991.9
77860.2
104372
104334
104281
104191
104101
103967
103843
103670
103512
103303
103121
102888
102691
102431
102211
101901
101645
101266
100973
100517
100199
99645.3
99306
98619.7
98266.7
97400.8
97051.5
95940.9
95624.6
94174.3
93939.5
92009.8
91936.1
89319.9
89536.1
85923.2
86636.8
81557.1
83100.7
75834
78741.3
68170.6
73302.4
57677.8
66433.1
43003.2
57669.3
22066.8
46330.3
-8557.69
31122.8
-54079.4
11542.8
-113637
-4514.01
-72304.5
3745.25
-35722.9
15049.9
-8384.49
24681.6
10634.6
32103.1
24093.3
38310.7
34205.7
43883
42182.4
48935.6
48635.3
53463.9
53936.1
57469.3
58324
60958.9
61963.1
63958.2
64986.4
66516.1
67513.4
68695.5
69650.3
70560.9
71488.5
72169.5
73103.3
73565.7
74555.5
74777.7
75893.6
75815.4
77158.6
76671.5
78392.7
77323.3
79648.3
77735.3
80989.1
77863.2
104379
104341
104288
104197
104106
103972
103848
103674
103515
103306
103123
102890
102692
102432
102212
101902
101646
101268
100975
100518
100200
99647.5
99308.1
98622.3
98269.1
97403.9
97054.2
95944.5
95627.6
94178.5
93942.9
92014.9
91939.9
89326
89540.3
85930.6
86641.4
81566.1
83105.7
75844.8
78746.6
68183.5
73307.7
57692.6
66438.1
43019.4
57674.1
22083.8
46335.8
-8545.87
31125.1
-54112.1
11519
-113843
-4572.36
-72338.8
3724.54
-35723.8
15042.4
-8377.19
24680.6
10643.7
32103.2
24100.1
38309.9
34210.3
43882.1
42185.9
48935.2
48638.3
53464.3
53939
57470.5
58327.1
60960.7
61966.1
63960.4
64989.3
66518.3
67515.7
68697.5
69652.1
70562.6
71489.7
72171
73103.9
73567.2
74555.6
74779.4
75893.3
75817.6
77157.6
76674.3
78391
77326.7
79645.9
77739
80986.2
77866.3
104387
104348
104295
104203
104112
103977
103852
103678
103518
103308
103125
102891
102693
102433
102213
101903
101647
101269
100976
100520
100202
99649.7
99310.3
98624.9
98271.6
97407
97057
95948.1
95630.7
94182.8
93946.3
92020
91943.7
89332.1
89544.5
85938.1
86646
81575.1
83110.7
75855.7
78752
68196.4
73313.1
57707.5
66443.1
43035.7
57678.9
22100.9
46341.4
-8533.91
31127.5
-54144.8
11495.1
-114050
-4631.19
-72373.2
3703.86
-35724.7
15034.9
-8369.98
24679.5
10652.6
32103.2
24106.9
38309.1
34214.8
43881.2
42189.3
48934.8
48641.3
53464.7
53942
57471.7
58330.1
60962.6
61969.2
63962.6
64992.1
66520.5
67518.1
68699.5
69653.9
70564.3
71490.8
72172.5
73104.5
73568.7
74555.7
74781.1
75892.8
75819.8
77156.7
76677.1
78389.4
77330.2
79643.5
77742.7
80983.2
77869.5
104394
104355
104302
104209
104118
103982
103857
103682
103521
103311
103127
102893
102694
102433
102214
101904
101648
101270
100978
100522
100204
99651.9
99312.4
98627.6
98274
97410.1
97059.7
95951.8
95633.8
94187.1
93949.8
92025.1
91947.5
89338.3
89548.7
85945.5
86650.7
81584.2
83115.7
75866.6
78757.4
68209.4
73318.5
57722.4
66448.2
43052.2
57683.7
22118.1
46347.1
-8521.81
31130
-54177.7
11471.2
-114260
-4690.5
-72407.6
3683.19
-35725.4
15027.3
-8362.85
24678.3
10661.5
32103.1
24113.6
38308.2
34219.3
43880.2
42192.7
48934.4
48644.3
53465.1
53945
57472.9
58333.3
60964.4
61972.3
63964.8
64995
66522.7
67520.5
68701.5
69655.7
70566
71492
72174
73105
73570.2
74555.8
74782.9
75892.4
75822.1
77155.7
76680
78387.7
77333.6
79641.1
77746.4
80980.2
77872.6
104402
104362
104308
104215
104124
103987
103861
103686
103525
103314
103129
102894
102696
102434
102214
101905
101649
101272
100979
100524
100206
99654.2
99314.6
98630.2
98276.5
97413.2
97062.5
95955.4
95636.9
94191.5
93953.2
92030.3
91951.3
89344.6
89553
85953.1
86655.3
81593.3
83120.8
75877.7
78762.8
68222.6
73324
57737.5
66453.3
43068.7
57688.6
22135.4
46352.8
-8509.56
31132.6
-54210.6
11447.2
-114471
-4750.28
-72442.1
3662.56
-35726
15019.6
-8355.8
24676.8
10670.3
32102.8
24120.3
38307.3
34223.9
43879.2
42196.2
48934
48647.3
53465.4
53948
57474.1
58336.4
60966.3
61975.4
63967
64997.9
66525
67522.9
68703.5
69657.5
70567.8
71493.2
72175.5
73105.6
73571.7
74555.8
74784.6
75892
75824.3
77154.7
76682.9
78386
77337.1
79638.6
77750.2
80977.2
77875.9
104409
104369
104315
104222
104129
103992
103866
103689
103528
103316
103131
102896
102697
102435
102215
101906
101650
101273
100981
100526
100208
99656.5
99316.8
98632.9
98279
97416.3
97065.2
95959.1
95640
94195.8
93956.7
92035.6
91955.2
89350.8
89557.2
85960.7
86660
81602.5
83126
75888.8
78768.2
68235.8
73329.5
57752.7
66458.4
43085.4
57693.5
22152.9
46358.5
-8497.17
31135.3
-54243.6
11423.2
-114684
-4810.54
-72476.7
3641.96
-35726.5
15011.8
-8348.83
24675.2
10679
32102.5
24127
38306.3
34228.4
43878.2
42199.6
48933.5
48650.4
53465.8
53951
57475.2
58339.5
60968.1
61978.6
63969.2
65000.8
66527.2
67525.4
68705.5
69659.3
70569.5
71494.4
72177
73106.2
73573.2
74555.9
74786.4
75891.6
75826.6
77153.8
76685.8
78384.3
77340.7
79636.1
77754.1
80974.2
77879.1
104417
104376
104322
104228
104135
103997
103870
103693
103531
103319
103133
102897
102698
102436
102216
101907
101651
101275
100982
100528
100210
99658.7
99319
98635.6
98281.5
97419.5
97068
95962.8
95643.1
94200.2
93960.2
92040.8
91959.1
89357.1
89561.5
85968.3
86664.8
81611.7
83131.1
75900
78773.7
68249.1
73335
57768
66463.6
43102.2
57698.4
22170.6
46364.4
-8484.62
31138.1
-54276.7
11399.1
-114898
-4871.27
-72511.3
3621.4
-35726.8
15004
-8341.93
24673.5
10687.6
32102
24133.6
38305.2
34232.9
43877.1
42203.1
48933
48653.4
53466.1
53954.1
57476.4
58342.7
60970
61981.7
63971.4
65003.7
66529.4
67527.8
68707.6
69661.2
70571.2
71495.5
72178.6
73106.8
73574.7
74556
74788.2
75891.2
75828.8
77152.8
76688.7
78382.6
77344.2
79633.6
77757.9
80971.1
77882.4
104425
104383
104329
104234
104141
104002
103875
103697
103535
103321
103135
102899
102699
102437
102217
101908
101653
101276
100984
100530
100212
99661
99321.2
98638.3
98284
97422.6
97070.9
95966.6
95646.2
94204.7
93963.7
92046.1
91963
89363.5
89565.9
85976
86669.5
81621.1
83136.3
75911.2
78779.2
68262.5
73340.6
57783.4
66468.8
43119.1
57703.4
22188.3
46370.3
-8471.93
31141
-54309.9
11374.9
-115115
-4932.48
-72546
3600.88
-35726.9
14996.2
-8335.11
24671.5
10696.1
32101.4
24140.2
38304
34237.4
43876
42206.5
48932.5
48656.4
53466.4
53957.1
57477.6
58345.8
60971.9
61984.9
63973.6
65006.6
66531.7
67530.3
68709.6
69663
70573
71496.7
72180.1
73107.4
73576.2
74556.1
74789.9
75890.8
75831.1
77151.8
76691.6
78380.9
77347.8
79631.1
77761.9
80967.9
77885.7
104433
104391
104336
104240
104147
104008
103880
103701
103538
103324
103137
102900
102700
102438
102218
101909
101654
101277
100985
100531
100214
99663.4
99323.4
98641.1
98286.5
97425.8
97073.7
95970.3
95649.4
94209.1
93967.2
92051.4
91966.9
89369.9
89570.2
85983.7
86674.3
81630.4
83141.5
75922.5
78784.8
68276
73346.2
57798.9
66474
43136.1
57708.4
22206.2
46376.2
-8459.08
31144
-54343.1
11350.7
-115333
-4994.16
-72580.7
3580.42
-35726.9
14988.4
-8328.34
24669.4
10704.5
32100.7
24146.7
38302.8
34241.9
43874.8
42210
48932
48659.5
53466.7
53960.1
57478.8
58349
60973.7
61988.1
63975.9
65009.5
66534
67532.7
68711.7
69664.9
70574.8
71497.9
72181.6
73108
73577.7
74556.1
74791.7
75890.4
75833.4
77150.8
76694.6
78379.1
77351.4
79628.5
77765.8
80964.8
77889.1
104441
104398
104343
104247
104153
104013
103885
103705
103541
103327
103139
102902
102701
102439
102219
101910
101655
101279
100987
100533
100215
99665.7
99325.7
98643.8
98289
97429.1
97076.5
95974.1
95652.6
94213.6
93970.8
92056.8
91970.9
89376.3
89574.6
85991.5
86679.2
81639.9
83146.8
75934
78790.4
68289.5
73351.8
57814.5
66479.3
43153.3
57713.5
22224.2
46382.3
-8446.09
31147.1
-54376.4
11326.5
-115554
-5056.32
-72615.4
3560.01
-35726.8
14980.5
-8321.64
24667.1
10712.8
32099.8
24153.1
38301.4
34246.3
43873.6
42213.4
48931.4
48662.5
53467
53963.2
57480
58352.2
60975.6
61991.2
63978.1
65012.5
66536.2
67535.2
68713.7
69666.7
70576.5
71499.1
72183.2
73108.6
73579.3
74556.2
74793.5
75889.9
75835.7
77149.8
76697.5
78377.4
77355.1
79625.9
77769.8
80961.6
77892.5
104449
104406
104351
104253
104159
104018
103889
103709
103545
103330
103141
102903
102702
102440
102219
101911
101656
101280
100989
100535
100217
99668.1
99328
98646.6
98291.6
97432.3
97079.4
95977.9
95655.8
94218.1
93974.4
92062.2
91974.8
89382.8
89579
85999.3
86684
81649.4
83152.1
75945.4
78796
68303.2
73357.5
57830.2
66484.6
43170.6
57718.6
22242.4
46388.4
-8432.93
31150.3
-54409.8
11302.2
-115776
-5118.95
-72650.2
3539.65
-35726.4
14972.6
-8315
24664.6
10720.9
32098.8
24159.5
38300
34250.7
43872.3
42216.8
48930.8
48665.6
53467.3
53966.2
57481.1
58355.3
60977.5
61994.4
63980.4
65015.5
66538.5
67537.7
68715.8
69668.6
70578.3
71500.3
72184.7
73109.2
73580.8
74556.3
74795.3
75889.5
75838
77148.7
76700.5
78375.6
77358.7
79623.3
77773.8
80958.3
77896
104457
104413
104358
104260
104165
104024
103894
103713
103548
103332
103143
102905
102703
102441
102220
101912
101657
101282
100990
100537
100219
99670.4
99330.2
98649.4
98294.2
97435.6
97082.3
95981.8
95659
94222.7
93978
92067.6
91978.9
89389.3
89583.5
86007.2
86688.9
81658.9
83157.4
75957
78801.6
68317
73363.2
57846
66489.9
43188
57723.7
22260.7
46394.6
-8419.62
31153.7
-54443.2
11277.9
-116000
-5182.06
-72685
3519.37
-35725.9
14964.7
-8308.4
24662
10728.9
32097.6
24165.8
38298.5
34255.1
43871
42220.2
48930.2
48668.6
53467.5
53969.2
57482.3
58358.5
60979.4
61997.7
63982.6
65018.5
66540.8
67540.2
68717.9
69670.5
70580.1
71501.5
72186.3
73109.7
73582.3
74556.3
74797.1
75889.1
75840.3
77147.7
76703.5
78373.8
77362.4
79620.6
77777.9
80955.1
77899.5
104465
104421
104365
104266
104171
104029
103899
103717
103552
103335
103145
102906
102705
102442
102221
101913
101658
101283
100992
100539
100221
99672.8
99332.5
98652.2
98296.8
97438.8
97085.2
95985.6
95662.3
94227.3
93981.6
92073.1
91982.9
89395.9
89587.9
86015.1
86693.8
81668.5
83162.7
75968.6
78807.3
68330.8
73369
57862
66495.3
43205.5
57728.9
22279.1
46400.8
-8406.15
31157.1
-54476.7
11253.6
-116226
-5245.64
-72719.8
3499.15
-35725.2
14956.8
-8301.85
24659.2
10736.9
32096.2
24172
38296.9
34259.4
43869.6
42223.6
48929.5
48671.6
53467.7
53972.3
57483.4
58361.7
60981.2
62000.9
63984.9
65021.5
66543.1
67542.7
68720
69672.3
70581.9
71502.7
72187.8
73110.3
73583.9
74556.4
74798.9
75888.6
75842.6
77146.7
76706.6
78372
77366.2
79617.9
77782
80951.8
77903
104473
104428
104372
104273
104178
104034
103904
103721
103555
103338
103148
102908
102706
102443
102222
101914
101659
101285
100993
100541
100223
99675.2
99334.8
98655
98299.4
97442.2
97088.1
95989.5
95665.5
94231.9
93985.2
92078.5
91986.9
89402.5
89592.4
86023.1
86698.7
81678.2
83168.1
75980.3
78813.1
68344.8
73374.8
57878
66500.7
43223.1
57734.1
22297.7
46407.1
-8392.52
31160.7
-54510.3
11229.2
-116453
-5309.69
-72754.6
3479
-35724.3
14949
-8295.34
24656.2
10744.6
32094.7
24178.1
38295.2
34263.7
43868.1
42227
48928.8
48674.6
53467.9
53975.3
57484.5
58364.9
60983.1
62004.1
63987.2
65024.5
66545.4
67545.3
68722.1
69674.2
70583.6
71503.9
72189.4
73110.9
73585.4
74556.4
74800.7
75888.2
75845
77145.6
76709.6
78370.2
77369.9
79615.2
77786.1
80948.4
77906.6
104481
104436
104380
104280
104184
104040
103909
103726
103559
103341
103150
102910
102707
102444
102223
101915
101660
101286
100995
100543
100225
99677.6
99337.2
98657.9
98302
97445.5
97091.1
95993.4
95668.8
94236.5
93988.9
92084.1
91991
89409.1
89596.9
86031.1
86703.7
81688
83173.5
75992.1
78818.8
68358.8
73380.6
57894.2
66506.2
43240.8
57739.3
22316.4
46413.5
-8378.73
31164.4
-54543.9
11204.8
-116683
-5374.21
-72789.4
3458.92
-35723.2
14941.1
-8288.86
24653
10752.3
32093
24184.2
38293.3
34267.9
43866.6
42230.3
48928.1
48677.6
53468.1
53978.3
57485.6
58368.1
60985
62007.3
63989.4
65027.5
66547.8
67547.8
68724.2
69676.1
70585.4
71505.1
72190.9
73111.5
73586.9
74556.5
74802.5
75887.7
75847.3
77144.6
76712.7
78368.4
77373.7
79612.5
77790.3
80945
77910.2
104490
104444
104387
104286
104190
104045
103914
103730
103562
103343
103152
102911
102708
102445
102224
101916
101662
101288
100997
100545
100227
99680
99339.5
98660.7
98304.6
97448.8
97094
95997.3
95672.1
94241.2
93992.6
92089.6
91995.1
89415.8
89601.5
86039.2
86708.7
81697.8
83179
76004
78824.6
68372.9
73386.5
57910.4
66511.7
43258.7
57744.6
22335.3
46420
-8364.77
31168.3
-54577.5
11180.4
-116915
-5439.21
-72824.3
3438.93
-35721.9
14933.4
-8282.4
24649.7
10759.8
32091.1
24190.1
38291.4
34272.1
43865
42233.6
48927.3
48680.6
53468.2
53981.3
57486.7
58371.3
60986.8
62010.6
63991.7
65030.5
66550.1
67550.3
68726.3
69678
70587.2
71506.4
72192.5
73112.1
73588.5
74556.5
74804.3
75887.3
75849.7
77143.5
76715.7
78366.5
77377.5
79609.7
77794.5
80941.6
77913.9
104498
104452
104395
104293
104196
104051
103919
103734
103566
103346
103154
102913
102709
102446
102224
101917
101663
101289
100998
100547
100229
99682.5
99341.8
98663.6
98307.3
97452.2
97097
96001.3
95675.5
94245.8
93996.3
92095.2
91999.2
89422.6
89606
86047.4
86713.7
81707.6
83184.5
76015.9
78830.5
68387.2
73392.4
57926.8
66517.2
43276.7
57750
22354.3
46426.5
-8350.64
31172.2
-54611.2
11155.9
-117148
-5504.69
-72859.1
3419.01
-35720.4
14925.6
-8275.96
24646.3
10767.2
32089
24195.9
38289.3
34276.2
43863.4
42236.9
48926.4
48683.5
53468.3
53984.3
57487.8
58374.5
60988.6
62013.8
63994
65033.5
66552.4
67552.9
68728.4
69679.9
70589
71507.6
72194.1
73112.7
73590
74556.6
74806.2
75886.8
75852.1
77142.5
76718.8
78364.6
77381.3
79607
77798.7
80938.1
77917.6
104507
104459
104402
104300
104203
104056
103924
103738
103570
103349
103156
102915
102711
102447
102225
101918
101664
101291
101000
100549
100231
99685
99344.2
98666.5
98310
97455.6
97100
96005.3
95678.8
94250.6
94000
92100.9
92003.4
89429.3
89610.6
86055.5
86718.8
81717.5
83190
76027.9
78836.4
68401.5
73398.3
57943.2
66522.7
43294.8
57755.3
22373.4
46433.1
-8336.35
31176.3
-54644.9
11131.4
-117384
-5570.63
-72893.9
3399.17
-35718.7
14917.9
-8269.53
24642.6
10774.4
32086.8
24201.6
38287.1
34280.3
43861.6
42240.1
48925.5
48686.4
53468.3
53987.3
57488.8
58377.7
60990.5
62017.1
63996.2
65036.5
66554.7
67555.4
68730.5
69681.8
70590.8
71508.8
72195.6
73113.2
73591.6
74556.6
74808
75886.3
75854.4
77141.4
76722
78362.8
77385.2
79604.1
77803
80934.6
77921.4
104515
104467
104410
104307
104209
104062
103929
103742
103573
103352
103159
102916
102712
102448
102226
101919
101665
101292
101001
100551
100233
99687.4
99346.6
98669.4
98312.7
97459
97103
96009.3
95682.2
94255.3
94003.8
92106.5
92007.6
89436.1
89615.2
86063.8
86723.9
81727.5
83195.5
76040
78842.3
68415.9
73404.3
57959.8
66528.3
43313
57760.8
22392.7
46439.8
-8321.88
31180.6
-54678.6
11107
-117621
-5637.05
-72928.7
3379.41
-35716.7
14910.3
-8263.09
24638.8
10781.5
32084.3
24207.2
38284.7
34284.3
43859.8
42243.3
48924.5
48689.3
53468.3
53990.3
57489.8
58380.8
60992.3
62020.3
63998.5
65039.6
66557.1
67558
68732.6
69683.7
70592.6
71510
72197.2
73113.8
73593.1
74556.6
74809.8
75885.8
75856.8
77140.3
76725.1
78360.9
77389.1
79601.3
77807.3
80931.1
77925.2
104524
104475
104418
104314
104216
104068
103934
103747
103577
103355
103161
102918
102713
102449
102227
101920
101666
101294
101003
100553
100235
99689.9
99349
98672.4
98315.4
97462.4
97106
96013.3
95685.6
94260.1
94007.6
92112.2
92011.7
89443
89619.9
86072
86729
81737.6
83201.1
76052.1
78848.2
68430.4
73410.4
57976.5
66534
43331.4
57766.2
22412.1
46446.6
-8307.23
31184.9
-54712.4
11082.5
-117860
-5703.94
-72963.5
3359.74
-35714.6
14902.8
-8256.65
24634.9
10788.5
32081.6
24212.6
38282.2
34288.2
43857.8
42246.4
48923.5
48692.1
53468.3
53993.2
57490.8
58384
60994.1
62023.5
64000.7
65042.6
66559.4
67560.6
68734.8
69685.6
70594.4
71511.2
72198.8
73114.4
73594.7
74556.7
74811.6
75885.4
75859.2
77139.2
76728.2
78358.9
77393
79598.4
77811.7
80927.5
77929
104532
104483
104425
104321
104222
104073
103939
103751
103581
103358
103163
102920
102714
102450
102228
101921
101667
101295
101005
100555
100237
99692.5
99351.4
98675.3
98318.1
97465.9
97109.1
96017.4
95689
94264.9
94011.3
92118
92016
89449.9
89624.5
86080.4
86734.1
81747.7
83206.7
76064.4
78854.2
68444.9
73416.4
57993.3
66539.7
43349.8
57771.7
22431.7
46453.5
-8292.41
31189.5
-54746.2
11058
-118101
-5771.31
-72998.3
3340.16
-35712.2
14895.3
-8250.19
24630.8
10795.3
32078.8
24217.9
38279.5
34292
43855.8
42249.5
48922.4
48695
53468.2
53996.1
57491.7
58387.1
60995.8
62026.7
64003
65045.6
66561.7
67563.1
68736.9
69687.5
70596.2
71512.4
72200.3
73115
73596.2
74556.7
74813.5
75884.9
75861.6
77138.1
76731.4
78357
77396.9
79595.5
77816.1
80923.8
77932.9
104541
104492
104433
104328
104229
104079
103944
103755
103584
103361
103166
102921
102716
102451
102229
101922
101668
101297
101006
100557
100240
99695
99353.8
98678.3
98320.8
97469.3
97112.1
96021.4
95692.4
94269.7
94015.2
92123.7
92020.2
89456.8
89629.2
86088.7
86739.3
81757.8
83212.4
76076.7
78860.2
68459.6
73422.5
58010.2
66545.4
43368.4
57777.3
22451.4
46460.4
-8277.41
31194.1
-54780
11033.4
-118345
-5839.15
-73033
3320.66
-35709.6
14887.9
-8243.7
24626.6
10802
32075.7
24223
38276.7
34295.7
43853.6
42252.5
48921.2
48697.7
53468
53999
57492.6
58390.2
60997.6
62030
64005.2
65048.7
66564
67565.7
68739
69689.5
70598
71513.6
72201.9
73115.5
73597.8
74556.7
74815.3
75884.4
75864.1
77137
76734.6
78355.1
77400.9
79592.6
77820.5
80920.1
77936.9
104550
104500
104441
104335
104235
104085
103950
103760
103588
103364
103168
102923
102717
102452
102230
101923
101670
101298
101008
100559
100242
99697.5
99356.3
98681.3
98323.6
97472.8
97115.2
96025.5
95695.8
94274.6
94019
92129.5
92024.5
89463.8
89633.9
86097.2
86744.5
81768.1
83218
76089.1
78866.3
68474.4
73428.7
58027.2
66551.1
43387.2
57782.9
22471.3
46467.4
-8262.22
31198.9
-54813.8
11008.9
-118590
-5907.46
-73067.7
3301.24
-35706.7
14880.7
-8237.18
24622.2
10808.5
32072.4
24228
38273.7
34299.3
43851.3
42255.5
48919.9
48700.4
53467.8
54001.8
57493.5
58393.3
60999.3
62033.2
64007.4
65051.7
66566.3
67568.2
68741.1
69691.4
70599.8
71514.8
72203.4
73116.1
73599.3
74556.7
74817.2
75883.9
75866.5
77135.8
76737.7
78353.1
77404.8
79589.6
77825
80916.4
77940.9
104559
104508
104449
104342
104242
104090
103955
103764
103592
103367
103170
102925
102718
102453
102231
101924
101671
101300
101010
100562
100244
99700.1
99358.8
98684.3
98326.4
97476.3
97118.3
96029.7
95699.3
94279.4
94022.9
92135.3
92028.8
89470.8
89638.7
86105.6
86749.7
81778.3
83223.7
76101.5
78872.4
68489.2
73434.8
58044.3
66556.9
43406
57788.5
22491.3
46474.5
-8246.85
31203.9
-54847.6
10984.4
-118837
-5976.25
-73102.4
3281.91
-35703.6
14873.5
-8230.61
24617.8
10814.9
32068.9
24232.9
38270.5
34302.8
43848.9
42258.3
48918.5
48703.1
53467.5
54004.6
57494.3
58396.4
61001
62036.3
64009.6
65054.7
66568.6
67570.8
68743.2
69693.3
70601.6
71516
72205
73116.6
73600.9
74556.7
74819
75883.3
75868.9
77134.7
76740.9
78351.1
77408.8
79586.7
77829.5
80912.7
77944.9
104568
104516
104457
104349
104249
104096
103960
103769
103596
103370
103173
102927
102720
102454
102232
101925
101672
101301
101011
100564
100246
99702.7
99361.2
98687.3
98329.2
97479.9
97121.4
96033.8
95702.8
94284.4
94026.7
92141.2
92033.1
89477.8
89643.5
86114.2
86755
81788.7
83229.5
76114
78878.5
68504.2
73441.1
58061.5
66562.8
43425
57794.2
22511.5
46481.7
-8231.29
31209
-54881.4
10959.9
-119086
-6045.51
-73137
3262.66
-35700.3
14866.4
-8223.99
24613.2
10821.2
32065.2
24237.6
38267.2
34306.2
43846.4
42261.1
48917.1
48705.7
53467.2
54007.3
57495
58399.4
61002.6
62039.5
64011.7
65057.7
66570.9
67573.3
68745.3
69695.2
70603.4
71517.2
72206.5
73117.2
73602.4
74556.7
74820.8
75882.8
75871.3
77133.5
76744.2
78349.1
77412.9
79583.6
77834
80908.9
77949
104577
104525
104465
104356
104256
104102
103966
103773
103600
103373
103175
102928
102721
102455
102232
101926
101673
101303
101013
100566
100248
99705.3
99363.7
98690.4
98332
97483.4
97124.6
96038
95706.3
94289.3
94030.6
92147.1
92037.4
89484.9
89648.3
86122.7
86760.2
81799.1
83235.3
76126.7
78884.7
68519.2
73447.3
58078.8
66568.6
43444.1
57799.9
22531.8
46489
-8215.53
31214.2
-54915.3
10935.4
-119337
-6115.25
-73171.6
3243.5
-35696.7
14859.5
-8217.31
24608.5
10827.3
32061.3
24242.1
38263.6
34309.4
43843.8
42263.8
48915.5
48708.2
53466.7
54010
57495.7
58402.4
61004.2
62042.6
64013.9
65060.7
66573.1
67575.9
68747.4
69697
70605.2
71518.4
72208.1
73117.7
73603.9
74556.7
74822.7
75882.3
75873.8
77132.4
76747.4
78347.1
77416.9
79580.6
77838.6
80905
77953.1
104586
104533
104473
104363
104262
104108
103971
103778
103603
103376
103178
102930
102722
102456
102233
101928
101674
101305
101015
100568
100250
99707.9
99366.2
98693.4
98334.8
97487
97127.7
96042.2
95709.8
94294.3
94034.6
92153.1
92041.8
89492
89653.1
86131.4
86765.6
81809.6
83241.1
76139.3
78890.9
68534.4
73453.6
58096.3
66574.6
43463.3
57805.7
22552.3
46496.4
-8199.58
31219.6
-54949.1
10910.9
-119591
-6185.46
-73206.2
3224.42
-35692.9
14852.7
-8210.56
24603.7
10833.3
32057.1
24246.4
38259.8
34312.6
43841
42266.5
48913.9
48710.7
53466.2
54012.7
57496.3
58405.3
61005.8
62045.7
64016
65063.6
66575.4
67578.4
68749.5
69698.9
70607
71519.6
72209.6
73118.2
73605.4
74556.6
74824.5
75881.7
75876.2
77131.2
76750.6
78345
77421
79577.5
77843.2
80901.1
77957.3
104595
104542
104482
104371
104269
104114
103976
103782
103607
103379
103180
102932
102723
102457
102234
101929
101676
101306
101017
100570
100252
99710.5
99368.8
98696.5
98337.6
97490.6
97130.9
96046.4
95713.3
94299.3
94038.5
92159
92046.2
89499.2
89657.9
86140
86770.9
81820.1
83246.9
76152.1
78897.1
68549.6
73460
58113.8
66580.5
43482.6
57811.6
22572.9
46503.9
-8183.43
31225.2
-54982.9
10886.4
-119846
-6256.16
-73240.7
3205.42
-35688.9
14846
-8203.72
24598.8
10839.2
32052.7
24250.5
38255.8
34315.5
43838
42269
48912.1
48713.1
53465.6
54015.2
57496.9
58408.2
61007.3
62048.8
64018
65066.6
66577.6
67580.9
68751.5
69700.8
70608.7
71520.7
72211.1
73118.7
73607
74556.6
74826.3
75881.2
75878.6
77130
76753.9
78343
77425.1
79574.4
77847.9
80897.2
77961.5
104605
104550
104490
104378
104276
104120
103982
103787
103611
103382
103182
102934
102725
102458
102235
101930
101677
101308
101018
100572
100255
99713.2
99371.3
98699.6