/*--------------------------------*- C++ -*----------------------------------*\
| =========                 |                                                 |
| \\      /  F ield         | OpenFOAM: The Open Source CFD Toolbox           |
|  \\    /   O peration     | Version:  2412                                  |
|   \\  /    A nd           | Website:  www.openfoam.com                      |
|    \\/     M anipulation  |                                                 |
\*---------------------------------------------------------------------------*/
FoamFile
{
    version     2.0;
    format      ascii;
    arch        "LSB;label=32;scalar=64";
    class       surfaceScalarField;
    location    "1";
    object      phi;
}
// * * * * * * * * * * * * * * * * * * * * * * * * * * * * * * * * * * * * * //

dimensions      [0 3 -1 0 0 0 0];

oriented        oriented;

internalField   nonuniform List<scalar> 
25689
(
0.00747814
0.0132998
0.00739677
0.011502
0.00733023
0.0098543
0.00727588
0.00846091
0.00723152
0.00727774
0.00719455
0.00630275
0.00716422
0.0052431
0.00714066
0.00380024
0.00712503
0.0017277
0.00711873
-0.000886842
0.00712378
-0.00372017
0.00714241
-0.00634498
0.00717601
-0.00838215
0.00722411
-0.00962209
0.00728329
-0.00998656
0.00734782
-0.00960007
0.00741064
-0.0086456
0.00746648
-0.00748864
0.00751281
-0.00634222
0.00755102
-0.00546034
0.00758324
-0.00476106
0.0076119
-0.00427539
0.00763737
-0.00379238
0.00766083
-0.00346238
0.0076816
-0.00305394
0.00770099
-0.00282614
0.00771792
-0.00246754
0.00773406
-0.00233003
0.00774765
-0.00197704
0.00776109
-0.00193518
0.00777168
-0.00155
0.00778277
-0.00159449
0.00779045
-0.00113897
0.00779954
-0.00129796
0.00780439
-0.000737098
0.00781176
-0.00103661
0.00781359
-0.00031493
0.00781948
-0.00082018
0.00781783
0.000134339
0.00782216
-0.000647599
0.0078165
0.000560165
0.0078199
-0.000663398
0.00781123
0.000751489
0.00781682
-0.00111419
0.00780966
0.000466757
0.0078238
-0.00204004
0.00782303
0.000134768
0.00784377
-0.00184681
0.00783885
0.00210218
0.00783372
0.00381812
0.00778566
0.0105804
0.00764247
0.0259568
0.00737617
0.0427387
0.00744613
-0.0101493
0.00764387
-0.0308691
0.0077571
-0.0165693
0.00779386
-0.00650875
0.0078272
-0.00649783
0.00783332
-0.00253012
0.00784347
-0.00254936
0.00783043
0.000779102
0.00782248
0.000270993
0.00780216
0.00212789
0.00779182
0.00110074
0.00777679
0.00196977
0.00777196
0.000830183
0.00776493
0.00123511
0.00776574
0.000295748
0.00776489
0.00056297
0.00776941
-0.000104216
0.00777218
0.000121233
0.00777776
-0.000270763
0.00778097
-1.51754e-05
0.00778477
-0.000155256
0.00778561
0.000158006
0.00778548
0.000211848
0.0077822
0.000550447
0.00777712
0.000722741
0.00776924
0.00102324
0.00775953
0.00121421
0.00774778
0.00143202
0.00773458
0.00159748
0.00772046
0.00169259
0.00770551
0.00181233
0.00769081
0.00177439
0.0076757
0.00186395
0.00766176
0.00170917
0.00764729
0.00180274
0.00763468
0.00152942
0.00762064
0.00168959
0.00760904
0.0013074
0.00759462
0.00155416
0.00758356
0.00104743
0.00756805
0.00136483
0.0075573
0.000724714
0.00754089
0.00101435
0.00753108
0.000241964
0.00751621
0.000358559
-0.000951404
0.00747818
0.0133974
0.00739692
0.0115832
0.00733056
0.00992066
0.00727642
0.00851505
0.00723233
0.00732184
0.00719561
0.00633947
0.0071655
0.0052732
0.00714207
0.00382367
0.0071264
0.00174337
0.00711986
-0.000880305
0.00712446
-0.00372477
0.00714247
-0.00636299
0.00717537
-0.00841505
0.00722282
-0.00966954
0.00728152
-0.0100453
0.00734578
-0.00966434
0.00740852
-0.00870834
0.00746438
-0.00754451
0.00751074
-0.00638857
0.00754893
-0.00549854
0.0075811
-0.00479323
0.0076097
-0.00430399
0.0076351
-0.00381779
0.00765851
-0.00348579
0.00767924
-0.00307467
0.0076986
-0.0028455
0.0077155
-0.00248444
0.00773161
-0.00234613
0.00774517
-0.0019906
0.0077586
-0.0019486
0.00776916
-0.00156057
0.00778024
-0.00160557
0.0077879
-0.00114663
0.00779697
-0.00130703
0.0078018
-0.000741926
0.00780916
-0.00104397
0.00781097
-0.000316742
0.00781685
-0.000826064
0.00781518
0.000136011
0.00781949
-0.000651911
0.00781379
0.000565864
0.00781714
-0.000666748
0.0078084
0.000760232
0.00781393
-0.00111972
0.00780668
0.000474001
0.0078208
-0.00205416
0.00782006
0.000135511
0.00784096
-0.00186772
0.0078363
0.00210684
0.00783168
0.00382274
0.00778428
0.0106278
0.00764223
0.0260989
0.00737721
0.0430037
0.00744715
-0.0102192
0.00764426
-0.0310662
0.00775728
-0.0166823
0.00779379
-0.00654527
0.00782676
-0.00653079
0.00783255
-0.00253591
0.00784244
-0.00255925
0.00782917
0.00079237
0.00782101
0.00027915
0.00780053
0.00214837
0.00779009
0.00111118
0.00777501
0.00198486
0.00777015
0.000835036
0.00776313
0.00124213
0.00776395
0.000294931
0.00776312
0.000563797
0.00776766
-0.000108758
0.00777047
0.000118427
0.00777608
-0.000276376
0.00777932
-1.84169e-05
0.00778315
-0.000159085
0.00778401
0.000157153
0.00778389
0.00021196
0.00778062
0.000553724
0.00777553
0.000727825
0.00776765
0.00103113
0.00775792
0.00122394
0.00774613
0.0014438
0.00773291
0.00161071
0.00771875
0.00170675
0.00770377
0.00182731
0.00768904
0.00178911
0.00767391
0.00187908
0.00765995
0.00172313
0.00764547
0.00181723
0.00763285
0.00154204
0.0076188
0.00170364
0.00760718
0.00131902
0.00759273
0.0015686
0.00758164
0.00105853
0.00756605
0.00138042
0.00755523
0.000735526
0.00753868
0.0010309
0.00752876
0.000251886
0.00751368
0.000373644
-0.000948111
0.00747822
0.0134949
0.00739708
0.0116644
0.00733089
0.00998685
0.00727698
0.00856896
0.00723314
0.00736568
0.00719668
0.00637593
0.0071668
0.00530309
0.0071435
0.00384697
0.00712779
0.00175908
0.00712101
-0.000873524
0.00712515
-0.0037289
0.00714253
-0.00638037
0.00717473
-0.00844725
0.00722152
-0.00971634
0.00727972
-0.0101035
0.00734371
-0.00972832
0.00740637
-0.008771
0.00746226
-0.00760039
0.00750864
-0.00643495
0.00754682
-0.00553672
0.00757894
-0.00482535
0.00760747
-0.00433252
0.00763282
-0.00384314
0.00765618
-0.00350915
0.00767686
-0.00309536
0.00769619
-0.00286483
0.00771306
-0.00250131
0.00772914
-0.00236221
0.00774268
-0.00200414
0.00775608
-0.00196201
0.00776663
-0.00157111
0.00777769
-0.00161663
0.00778533
-0.00115427
0.00779438
-0.00131609
0.00779919
-0.000746735
0.00780654
-0.00105131
0.00780833
-0.000318536
0.0078142
-0.000831935
0.00781251
0.000137704
0.0078168
-0.000656204
0.00781106
0.000571602
0.00781437
-0.000670058
0.00780556
0.000769049
0.00781102
-0.00112518
0.00780369
0.000481328
0.00781779
-0.00206825
0.00781706
0.000136236
0.00783814
-0.0018888
0.00783373
0.00211126
0.00782962
0.00382685
0.00778289
0.0106745
0.00764199
0.0262398
0.00737826
0.0432674
0.00744818
-0.0102891
0.00764466
-0.0312627
0.00775747
-0.0167951
0.00779374
-0.00658154
0.00782634
-0.00656339
0.00783179
-0.00254136
0.00784141
-0.00256887
0.00782792
0.000805867
0.00781955
0.000287515
0.00779891
0.00216902
0.00778836
0.00112173
0.00777322
0.002
0.00776835
0.000839908
0.00776132
0.00124915
0.00776215
0.000294103
0.00776134
0.000564605
0.00776591
-0.000113328
0.00776875
0.000115591
0.00777439
-0.000282022
0.00777767
-2.16898e-05
0.00778152
-0.000162942
0.0077824
0.000156278
0.0077823
0.000212057
0.00777903
0.000556995
0.00777394
0.000732912
0.00776604
0.00103903
0.0077563
0.00123368
0.00774449
0.00145561
0.00773123
0.00162396
0.00771704
0.00172094
0.00770202
0.00184233
0.00768727
0.00180387
0.00767211
0.00189424
0.00765813
0.00173711
0.00764364
0.00183172
0.00763101
0.00155467
0.00761695
0.0017177
0.00760531
0.00133065
0.00759084
0.00158308
0.0075797
0.00106967
0.00756404
0.00139608
0.00755316
0.000746408
0.00753647
0.00104759
0.00752643
0.000261919
0.00751113
0.000388944
-0.000944679
0.00747827
0.0135924
0.00739723
0.0117454
0.00733123
0.0100529
0.00727754
0.00862265
0.00723396
0.00740926
0.00719777
0.00641213
0.00716811
0.00533274
0.00714494
0.00387014
0.0071292
0.00177482
0.00712218
-0.000866502
0.00712586
-0.00373258
0.00714261
-0.00639712
0.0071741
-0.00847874
0.00722023
-0.00976247
0.00727793
-0.0101612
0.00734164
-0.00979203
0.00740421
-0.00883358
0.00746011
-0.0076563
0.00750652
-0.00648136
0.00754469
-0.00557489
0.00757676
-0.00485742
0.00760523
-0.004361
0.00763052
-0.00386843
0.00765383
-0.00353246
0.00767447
-0.003116
0.00769377
-0.00288412
0.0077106
-0.00251815
0.00772666
-0.00237827
0.00774017
-0.00201766
0.00775355
-0.00197539
0.00776408
-0.00158164
0.00777512
-0.00162767
0.00778274
-0.00116189
0.00779178
-0.00132513
0.00779657
-0.000751526
0.0078039
-0.00105864
0.00780568
-0.000320311
0.00781153
-0.000837793
0.00780982
0.00013942
0.00781409
-0.000660479
0.00780832
0.000577379
0.00781158
-0.000673326
0.00780269
0.000777941
0.00780809
-0.00113058
0.00780067
0.000488741
0.00781475
-0.00208233
0.00781404
0.000136944
0.00783529
-0.00191005
0.00783114
0.00211541
0.00782755
0.00383043
0.00778149
0.0107206
0.00764174
0.0263795
0.00737931
0.0435299
0.00744922
-0.010359
0.00764507
-0.0314586
0.00775768
-0.0169077
0.0077937
-0.00661756
0.00782593
-0.00659562
0.00783105
-0.00254648
0.0078404
-0.00257821
0.00782667
0.000819597
0.00781809
0.000296092
0.00779727
0.00218984
0.00778662
0.00113238
0.00777142
0.0020152
0.00776653
0.000844799
0.0077595
0.00125618
0.00776034
0.000293262
0.00775955
0.000565395
0.00776415
-0.000117924
0.00776702
0.000112724
0.0077727
-0.000287702
0.007776
-2.49942e-05
0.00777989
-0.000166828
0.00778078
0.000155382
0.0077807
0.000212139
0.00777744
0.00056026
0.00777235
0.000738
0.00776444
0.00104694
0.00775467
0.00124345
0.00774283
0.00146745
0.00772954
0.00163725
0.00771531
0.00173517
0.00770027
0.00185738
0.00768548
0.00181865
0.00767031
0.00190941
0.00765631
0.00175111
0.0076418
0.00184622
0.00762916
0.00156731
0.00761509
0.00173177
0.00760344
0.00134231
0.00758893
0.00159758
0.00757776
0.00108084
0.00756202
0.00141181
0.00755107
0.000757361
0.00753424
0.00106443
0.00752409
0.000272064
0.00750858
0.000404463
-0.000941108
0.00747831
0.0136899
0.00739739
0.0118263
0.00733157
0.0101187
0.00727811
0.0086761
0.00723479
0.00745258
0.00719886
0.00644806
0.00716944
0.00536216
0.0071464
0.00389318
0.00713063
0.0017906
0.00712336
-0.000859239
0.00712659
-0.0037358
0.00714271
-0.00641325
0.00717348
-0.00850951
0.00721894
-0.00980793
0.00727613
-0.0102183
0.00733954
-0.00985545
0.00740203
-0.00889606
0.00745795
-0.00771222
0.00750439
-0.00652779
0.00754255
-0.00561304
0.00757457
-0.00488944
0.00760298
-0.00438941
0.00762821
-0.00389366
0.00765147
-0.00355571
0.00767206
-0.0031366
0.00769132
-0.00290338
0.00770813
-0.00253496
0.00772416
-0.00239429
0.00773765
-0.00203115
0.00775101
-0.00198875
0.00776151
-0.00159215
0.00777253
-0.00163869
0.00778014
-0.00116949
0.00778916
-0.00133415
0.00779393
-0.000756299
0.00780125
-0.00106595
0.007803
-0.000322068
0.00780885
-0.000843639
0.00780711
0.000141157
0.00781137
-0.000664736
0.00780555
0.000583196
0.00780878
-0.000676552
0.00779981
0.000786908
0.00780514
-0.00113591
0.00779764
0.00049624
0.00781169
-0.00209638
0.007811
0.000137636
0.00783243
-0.00193147
0.00782852
0.00211932
0.00782546
0.0038335
0.00778008
0.010766
0.00764149
0.0265181
0.00738038
0.043791
0.00745028
-0.0104289
0.00764549
-0.0316538
0.0077579
-0.0170201
0.00779368
-0.00665335
0.00782554
-0.00662748
0.00783032
-0.00255126
0.00783939
-0.00258728
0.00782542
0.000833565
0.00781662
0.000304888
0.00779563
0.00221083
0.00778487
0.00114314
0.00776961
0.00203047
0.0077647
0.000849708
0.00775767
0.0012632
0.00775853
0.000292408
0.00775776
0.000566167
0.00776238
-0.000122547
0.00776528
0.000109826
0.00777099
-0.000293416
0.00777433
-2.83303e-05
0.00777824
-0.000170743
0.00777916
0.000154464
0.00777909
0.000212205
0.00777583
0.00056352
0.00777074
0.000743091
0.00776282
0.00105487
0.00775303
0.00125324
0.00774117
0.00147932
0.00772785
0.00165057
0.00771358
0.00174944
0.0076985
0.00187246
0.00768369
0.00183347
0.00766849
0.00192461
0.00765447
0.00176513
0.00763996
0.00186073
0.00762731
0.00157997
0.00761322
0.00174585
0.00760155
0.00135398
0.00758702
0.00161211
0.0075758
0.00109206
0.00756
0.00142762
0.00754897
0.000768384
0.007532
0.0010814
0.00752174
0.000282323
0.007506
0.000420202
-0.000937395
0.00747835
0.0137873
0.00739755
0.0119071
0.00733191
0.0101843
0.00727869
0.00872933
0.00723563
0.00749563
0.00719997
0.00648371
0.00717078
0.00539135
0.00714788
0.00391609
0.00713207
0.0018064
0.00712457
-0.000851738
0.00712734
-0.00373857
0.00714283
-0.00642874
0.00717288
-0.00853957
0.00721766
-0.00985271
0.00727432
-0.010275
0.00733744
-0.00991856
0.00739983
-0.00895845
0.00745577
-0.00776817
0.00750224
-0.00657426
0.00754039
-0.00565119
0.00757236
-0.00492141
0.00760071
-0.00441776
0.00762588
-0.00391883
0.00764909
-0.00357892
0.00766964
-0.00315715
0.00768886
-0.0029226
0.00770564
-0.00255173
0.00772164
-0.0024103
0.00773511
-0.00204462
0.00774845
-0.00200209
0.00775893
-0.00160263
0.00776993
-0.0016497
0.00777751
-0.00117707
0.00778652
-0.00134316
0.00779127
-0.000761052
0.00779858
-0.00107326
0.00780031
-0.000323807
0.00780615
-0.000849473
0.00780439
0.000142917
0.00780863
-0.000668975
0.00780277
0.000589053
0.00780596
-0.000679737
0.00779691
0.000795952
0.00780217
-0.00114117
0.00779459
0.000503825
0.00780862
-0.00211041
0.00780794
0.000138312
0.00782954
-0.00195307
0.00782589
0.00212297
0.00782335
0.00383604
0.00777865
0.0108107
0.00764124
0.0266555
0.00738145
0.0440508
0.00745135
-0.0104988
0.00764592
-0.0318484
0.00775813
-0.0171323
0.00779367
-0.00668889
0.00782517
-0.00665898
0.00782961
-0.0025557
0.00783839
-0.00259606
0.00782418
0.000847776
0.00781516
0.000313907
0.00779399
0.002232
0.00778311
0.00115402
0.00776779
0.00204579
0.00776286
0.000854636
0.00775584
0.00127023
0.0077567
0.000291543
0.00775595
0.000566921
0.0077606
-0.000127197
0.00776353
0.000106898
0.00776928
-0.000299165
0.00777264
-3.16988e-05
0.00777659
-0.000174687
0.00777753
0.000153523
0.00777748
0.000212256
0.00777422
0.000566774
0.00776913
0.000748184
0.00776119
0.0010628
0.00775139
0.00126304
0.00773949
0.00149121
0.00772614
0.00166392
0.00771184
0.00176374
0.00769673
0.00188757
0.00768188
0.00184831
0.00766666
0.00193983
0.00765262
0.00177917
0.0076381
0.00187525
0.00762544
0.00159263
0.00761134
0.00175995
0.00759965
0.00136567
0.00758509
0.00162668
0.00757384
0.00110331
0.00755796
0.0014435
0.00754686
0.000779478
0.00752975
0.00109852
0.00751937
0.000292697
0.00750341
0.000436165
-0.00093354
0.0074784
0.0138846
0.00739772
0.0119878
0.00733226
0.0102498
0.00727927
0.00878233
0.00723648
0.00753842
0.00720109
0.0065191
0.00717214
0.0054203
0.00714937
0.00393886
0.00713353
0.00182224
0.00712579
-0.000843999
0.00712811
-0.00374088
0.00714296
-0.00644359
0.00717229
-0.0085689
0.00721639
-0.0098968
0.00727252
-0.0103311
0.00733533
-0.00998137
0.00739761
-0.00902073
0.00745357
-0.00782413
0.00750008
-0.00662077
0.00753821
-0.00568933
0.00757014
-0.00495333
0.00759842
-0.00444604
0.00762353
-0.00394394
0.00764669
-0.00360208
0.0076672
-0.00317767
0.00768639
-0.00294179
0.00770313
-0.00256848
0.00771911
-0.00242627
0.00773255
-0.00205806
0.00774587
-0.0020154
0.00775633
-0.00161309
0.00776731
-0.00166068
0.00777488
-0.00118463
0.00778387
-0.00135215
0.0077886
-0.000765787
0.00779589
-0.00108054
0.00779761
-0.000325526
0.00780343
-0.000855294
0.00780165
0.000144698
0.00780587
-0.000673196
0.00779997
0.00059495
0.00780311
-0.00068288
0.007794
0.000805072
0.00779919
-0.00114636
0.00779151
0.000511499
0.00780552
-0.00212442
0.00780486
0.000138973
0.00782664
-0.00197485
0.00782324
0.00212637
0.00782123
0.00383805
0.0077772
0.0108547
0.00764097
0.0267918
0.00738253
0.0443092
0.00745243
-0.0105687
0.00764637
-0.0320423
0.00775838
-0.0172444
0.00779368
-0.0067242
0.00782481
-0.00669011
0.00782891
-0.00255979
0.0078374
-0.00260455
0.00782294
0.000862236
0.00781369
0.000323155
0.00779234
0.00225335
0.00778134
0.00116501
0.00776596
0.00206117
0.00776101
0.000859583
0.00775399
0.00127725
0.00775486
0.000290664
0.00775413
0.000567656
0.00775881
-0.000131875
0.00776177
0.000103938
0.00776755
-0.000304949
0.00777095
-3.50999e-05
0.00777493
-0.000178661
0.00777589
0.000152561
0.00777585
0.000212292
0.00777261
0.000570021
0.00776751
0.000753279
0.00775956
0.00107075
0.00774974
0.00127287
0.00773781
0.00150314
0.00772443
0.00167731
0.00771009
0.00177807
0.00769495
0.00190271
0.00768007
0.00186319
0.00766483
0.00195507
0.00765077
0.00179323
0.00763624
0.00188979
0.00762356
0.00160531
0.00760946
0.00177405
0.00759775
0.00137738
0.00758315
0.00164127
0.00757186
0.0011146
0.00755591
0.00145945
0.00754474
0.000790644
0.00752748
0.00111578
0.00751699
0.000303187
0.0075008
0.000452353
-0.000929542
0.00747844
0.0139819
0.00739788
0.0120684
0.00733262
0.010315
0.00727985
0.00883509
0.00723734
0.00758094
0.00720222
0.00655421
0.00717351
0.00544902
0.00715087
0.00396149
0.00713501
0.0018381
0.00712704
-0.000836024
0.0071289
-0.00374274
0.00714312
-0.00645782
0.00717172
-0.0085975
0.00721512
-0.0099402
0.00727071
-0.0103867
0.0073332
-0.0100439
0.00739538
-0.00908291
0.00745136
-0.0078801
0.00749789
-0.0066673
0.00753603
-0.00572746
0.0075679
-0.00498521
0.00759612
-0.00447427
0.00762117
-0.00396899
0.00764428
-0.00362518
0.00766475
-0.00319814
0.0076839
-0.00296094
0.00770061
-0.00258519
0.00771656
-0.00244222
0.00772998
-0.00207148
0.00774327
-0.0020287
0.00775371
-0.00162353
0.00776468
-0.00167165
0.00777222
-0.00119218
0.0077812
-0.00136113
0.00778591
-0.000770503
0.00779319
-0.00108782
0.00779489
-0.000327227
0.00780069
-0.000861102
0.00779889
0.000146502
0.00780309
-0.000677399
0.00779716
0.000600887
0.00780026
-0.000685981
0.00779106
0.000814268
0.00779618
-0.00115148
0.00778842
0.000519262
0.0078024
-0.0021384
0.00780176
0.000139619
0.00782371
-0.00199681
0.00782057
0.00212951
0.00781909
0.00383953
0.00777574
0.010898
0.00764071
0.0269268
0.00738362
0.0445663
0.00745352
-0.0106386
0.00764682
-0.0322356
0.00775863
-0.0173562
0.00779371
-0.00675928
0.00782447
-0.00672087
0.00782822
-0.00256354
0.00783642
-0.00261275
0.00782171
0.000876949
0.00781222
0.000332639
0.00779068
0.00227489
0.00777957
0.00117613
0.00776412
0.00207662
0.00775916
0.000864549
0.00775213
0.00128428
0.00775302
0.000289773
0.0077523
0.000568372
0.00775701
-0.000136581
0.00776
0.000100946
0.00776582
-0.000310768
0.00776925
-3.8534e-05
0.00777326
-0.000182664
0.00777424
0.000151575
0.00777422
0.000212311
0.00777098
0.000573262
0.00776588
0.000758377
0.00775792
0.00107872
0.00774808
0.00128271
0.00773612
0.00151509
0.00772271
0.00169072
0.00770833
0.00179245
0.00769315
0.00191789
0.00767824
0.0018781
0.00766298
0.00197033
0.0076489
0.0018073
0.00763436
0.00190433
0.00762167
0.001618
0.00760756
0.00178816
0.00759583
0.00138911
0.00758121
0.00165589
0.00756988
0.00112593
0.00755385
0.00147548
0.00754261
0.000801883
0.0075252
0.00113319
0.0075146
0.000313795
0.00749818
0.00046877
-0.000925397
0.00747849
0.0140792
0.00739805
0.0121488
0.00733297
0.0103801
0.00728045
0.00888761
0.0072382
0.00762319
0.00720337
0.00658905
0.00717489
0.0054775
0.0071524
0.00398399
0.00713651
0.00185398
0.0071283
-0.000827815
0.00712971
-0.00374414
0.00714329
-0.0064714
0.00717117
-0.00862537
0.00721386
-0.00998289
0.0072689
-0.0104418
0.00733107
-0.010106
0.00739314
-0.00914498
0.00744913
-0.00793609
0.0074957
-0.00671387
0.00753382
-0.00576559
0.00756565
-0.00501704
0.00759381
-0.00450243
0.0076188
-0.00399398
0.00764185
-0.00364824
0.00766228
-0.00321856
0.00768139
-0.00298005
0.00769808
-0.00260187
0.007714
-0.00245814
0.00772739
-0.00208487
0.00774066
-0.00204197
0.00775108
-0.00163395
0.00776203
-0.0016826
0.00776955
-0.0011997
0.00777851
-0.00137009
0.0077832
-0.000775199
0.00779046
-0.00109508
0.00779215
-0.000328909
0.00779794
-0.000866898
0.00779612
0.000148327
0.0078003
-0.000681583
0.00779432
0.000606864
0.00779738
-0.000689039
0.00778811
0.000823543
0.00779316
-0.00115653
0.00778531
0.000527115
0.00779926
-0.00215236
0.00779863
0.000140251
0.00782076
-0.00201894
0.00781788
0.0021324
0.00781693
0.00384048
0.00777427
0.0109407
0.00764043
0.0270606
0.00738472
0.044822
0.00745463
-0.0107085
0.00764729
-0.0324282
0.00775891
-0.0174678
0.00779375
-0.00679412
0.00782415
-0.00675127
0.00782755
-0.00256694
0.00783545
-0.00262065
0.00782048
0.000891921
0.00781076
0.000342363
0.00778902
0.00229662
0.00777778
0.00118736
0.00776227
0.00209213
0.00775729
0.000869535
0.00775026
0.00129131
0.00775116
0.00028887
0.00775047
0.00056907
0.0077552
-0.000141314
0.00775822
9.79224e-05
0.00776408
-0.000316623
0.00776755
-4.20009e-05
0.00777158
-0.000186697
0.00777259
0.000150567
0.00777258
0.000212315
0.00776935
0.000576497
0.00776425
0.000763476
0.00775627
0.00108669
0.00774641
0.00129258
0.00773443
0.00152707
0.00772097
0.00170417
0.00770656
0.00180686
0.00769135
0.00193311
0.00767641
0.00189304
0.00766112
0.00198562
0.00764703
0.0018214
0.00763247
0.00191888
0.00761977
0.0016307
0.00760565
0.00180228
0.00759391
0.00140085
0.00757925
0.00167054
0.00756788
0.0011373
0.00755178
0.00149158
0.00754047
0.000813194
0.00752292
0.00115075
0.00751219
0.00032452
0.00749554
0.000485419
-0.000921106
0.00747853
0.0141764
0.00739822
0.0122291
0.00733333
0.010445
0.00728105
0.00893989
0.00723908
0.00766515
0.00720452
0.0066236
0.00717629
0.00550573
0.00715394
0.00400634
0.00713803
0.00186989
0.00712959
-0.000819374
0.00713054
-0.00374509
0.00714349
-0.00648435
0.00717063
-0.00865251
0.00721261
-0.0100249
0.00726709
-0.0104963
0.00732892
-0.0101679
0.00739087
-0.00920693
0.00744687
-0.0079921
0.00749348
-0.00676048
0.0075316
-0.00580371
0.00756338
-0.00504882
0.00759148
-0.00453053
0.00761641
-0.00401891
0.00763941
-0.00367124
0.0076598
-0.00323894
0.00767887
-0.00299913
0.00769552
-0.00261852
0.00771142
-0.00247403
0.00772478
-0.00209823
0.00773804
-0.00205522
0.00774843
-0.00164434
0.00775936
-0.00169352
0.00776686
-0.0012072
0.0077758
-0.00137903
0.00778048
-0.000779876
0.00778773
-0.00110232
0.00778939
-0.000330572
0.00779517
-0.000872681
0.00779332
0.000150176
0.00779749
-0.00068575
0.00779147
0.000612882
0.00779449
-0.000692055
0.00778514
0.000832895
0.00779012
-0.00116152
0.00778218
0.00053506
0.00779611
-0.00216629
0.00779549
0.00014087
0.0078178
-0.00204124
0.00781517
0.00213503
0.00781475
0.0038409
0.00777279
0.0109827
0.00764015
0.0271933
0.00738582
0.0450763
0.00745575
-0.0107785
0.00764776
-0.0326203
0.00775919
-0.0175792
0.00779382
-0.00682875
0.00782385
-0.00678131
0.0078269
-0.00256998
0.0078345
-0.00262824
0.00781926
0.000907156
0.00780929
0.000352336
0.00778736
0.00231855
0.007776
0.00119873
0.00776042
0.0021077
0.00775541
0.000874542
0.00774838
0.00129833
0.0077493
0.000287953
0.00774862
0.000569749
0.00775338
-0.000146075
0.00775644
9.48669e-05
0.00776233
-0.000322513
0.00776583
-4.55012e-05
0.00776989
-0.000190761
0.00777092
0.000149536
0.00777094
0.000212303
0.00776771
0.000579725
0.00776261
0.000768578
0.00775462
0.00109468
0.00774473
0.00130247
0.00773272
0.00153909
0.00771924
0.00171766
0.00770479
0.00182131
0.00768954
0.00194835
0.00767457
0.00190802
0.00765926
0.00200093
0.00764514
0.00183552
0.00763058
0.00193345
0.00761786
0.00164341
0.00760373
0.00181641
0.00759197
0.00141261
0.00757729
0.00168523
0.00756588
0.00114871
0.0075497
0.00150775
0.00753832
0.000824579
0.00752061
0.00116845
0.00750977
0.000335365
0.00749289
0.000502301
-0.000916667
0.00747858
0.0142736
0.00739839
0.0123093
0.0073337
0.0105097
0.00728166
0.00899193
0.00723996
0.00770685
0.00720569
0.00665788
0.0071777
0.00553372
0.0071555
0.00402854
0.00713957
0.00188582
0.0071309
-0.000810702
0.0071314
-0.00374559
0.00714371
-0.00649666
0.0071701
-0.0086789
0.00721137
-0.0100661
0.00726527
-0.0105502
0.00732677
-0.0102294
0.00738859
-0.00926876
0.00744461
-0.00804811
0.00749125
-0.00680712
0.00752936
-0.00584182
0.0075611
-0.00508056
0.00758914
-0.00455856
0.00761401
-0.00404378
0.00763696
-0.00369419
0.0076573
-0.00325928
0.00767634
-0.00301817
0.00769296
-0.00263514
0.00770882
-0.0024899
0.00772216
-0.00211157
0.00773539
-0.00206845
0.00774577
-0.00165472
0.00775668
-0.00170444
0.00776416
-0.00121468
0.00777308
-0.00138795
0.00777774
-0.000784534
0.00778497
-0.00110956
0.00778662
-0.000332215
0.00779239
-0.000878451
0.00779052
0.000152046
0.00779466
-0.000689898
0.00778861
0.00061894
0.00779158
-0.000695029
0.00778215
0.000842327
0.00778706
-0.00116643
0.00777902
0.000543096
0.00779293
-0.00218019
0.00779232
0.000141476
0.00781481
-0.00206373
0.00781244
0.0021374
0.00781256
0.00384077
0.00777129
0.0110239
0.00763987
0.0273247
0.00738694
0.0453293
0.00745689
-0.0108484
0.00764825
-0.0328116
0.00775949
-0.0176905
0.0077939
-0.00686316
0.00782358
-0.00681098
0.00782627
-0.00257268
0.00783356
-0.00263553
0.00781805
0.000922662
0.00780783
0.000362562
0.00778569
0.00234069
0.0077742
0.00121022
0.00775856
0.00212335
0.00775353
0.00087957
0.0077465
0.00130536
0.00774743
0.000287024
0.00774677
0.000570409
0.00775156
-0.000150864
0.00775464
9.17797e-05
0.00776057
-0.00032844
0.0077641
-4.90351e-05
0.0077682
-0.000194855
0.00776925
0.000148482
0.00776928
0.000212275
0.00776606
0.000582947
0.00776096
0.000773681
0.00775296
0.00110268
0.00774305
0.00131238
0.00773101
0.00155113
0.00771749
0.00173118
0.007703
0.00183579
0.00768772
0.00196363
0.00767271
0.00192302
0.00765738
0.00201626
0.00764324
0.00184965
0.00762867
0.00194802
0.00761595
0.00165613
0.00760181
0.00183056
0.00759003
0.00142439
0.00757531
0.00169994
0.00756387
0.00116016
0.00754762
0.001524
0.00753616
0.000836039
0.0075183
0.00118631
0.00750734
0.00034633
0.00749022
0.00051942
-0.000912079
0.00747863
0.0143708
0.00739856
0.0123894
0.00733406
0.0105742
0.00728227
0.00904373
0.00724086
0.00774826
0.00720687
0.00669186
0.00717913
0.00556145
0.00715707
0.0040506
0.00714113
0.00190177
0.00713223
-0.000801802
0.00713227
-0.00374564
0.00714395
-0.00650834
0.0071696
-0.00870455
0.00721013
-0.0101067
0.00726346
-0.0106035
0.0073246
-0.0102905
0.0073863
-0.00933046
0.00744232
-0.00810413
0.007489
-0.00685379
0.00752711
-0.00587994
0.00755881
-0.00511226
0.00758678
-0.00458654
0.00761159
-0.00406858
0.00763449
-0.00371709
0.00765478
-0.00327958
0.00767379
-0.00303717
0.00769037
-0.00265172
0.00770621
-0.00250574
0.00771953
-0.00212489
0.00773273
-0.00208166
0.00774309
-0.00166507
0.00775398
-0.00171533
0.00776144
-0.00122214
0.00777035
-0.00139686
0.00777498
-0.000789173
0.0077822
-0.00111677
0.00778383
-0.00033384
0.00778958
-0.000884208
0.00778769
0.00015394
0.00779182
-0.000694028
0.00778572
0.000625039
0.00778865
-0.00069796
0.00777914
0.000851836
0.00778398
-0.00117127
0.00777585
0.000551225
0.00778973
-0.00219407
0.00778914
0.00014207
0.0078118
-0.00208639
0.00780969
0.00213951
0.00781035
0.00384011
0.00776977
0.0110645
0.00763958
0.0274549
0.00738806
0.0455808
0.00745803
-0.0109184
0.00764876
-0.0330023
0.00775981
-0.0178015
0.007794
-0.00689735
0.00782332
-0.0068403
0.00782566
-0.00257502
0.00783263
-0.0026425
0.00781685
0.000938444
0.00780637
0.000373048
0.00778402
0.00236303
0.0077724
0.00122185
0.00775669
0.00213906
0.00775164
0.000884619
0.00774461
0.00131239
0.00774555
0.000286082
0.00774491
0.00057105
0.00774972
-0.000155681
0.00775284
8.86599e-05
0.0077588
-0.000334402
0.00776237
-5.26028e-05
0.0077665
-0.00019898
0.00776758
0.000147404
0.00776762
0.00021223
0.0077644
0.000586162
0.0077593
0.000778787
0.00775129
0.00111069
0.00774136
0.00132231
0.00772929
0.0015632
0.00771573
0.00174473
0.00770121
0.00185032
0.00768589
0.00197895
0.00767085
0.00193807
0.00765549
0.00203162
0.00764134
0.00186381
0.00762675
0.0019626
0.00761402
0.00166887
0.00759987
0.0018447
0.00758807
0.00143619
0.00757333
0.00171468
0.00756184
0.00117165
0.00754552
0.00154033
0.00753398
0.000847573
0.00751598
0.00120432
0.00750489
0.000357417
0.00748753
0.000536779
-0.000907339
0.00747867
0.0144678
0.00739873
0.0124693
0.00733444
0.0106385
0.00728289
0.00909527
0.00724176
0.00778939
0.00720806
0.00672556
0.00718058
0.00558894
0.00715867
0.00407251
0.0071427
0.00191773
0.00713358
-0.000792676
0.00713318
-0.00374524
0.00714421
-0.00651937
0.00716911
-0.00872945
0.00720891
-0.0101465
0.00726165
-0.0106562
0.00732242
-0.0103513
0.00738399
-0.00939202
0.00744001
-0.00816016
0.00748673
-0.00690051
0.00752485
-0.00591806
0.0075565
-0.00514391
0.00758441
-0.00461445
0.00760916
-0.00409333
0.007632
-0.00373993
0.00765225
-0.00329982
0.00767122
-0.00305614
0.00768777
-0.00266828
0.00770358
-0.00252155
0.00771687
-0.00213818
0.00773006
-0.00209485
0.00774039
-0.0016754
0.00775126
-0.0017262
0.0077587
-0.00122957
0.00776759
-0.00140576
0.00777221
-0.000793792
0.00777941
-0.00112398
0.00778102
-0.000335445
0.00778676
-0.000889952
0.00778485
0.000155855
0.00778896
-0.000698141
0.00778282
0.000631178
0.00778571
-0.000700848
0.00777612
0.000861426
0.00778089
-0.00117604
0.00777266
0.000559448
0.00778651
-0.00220792
0.00778593
0.000142652
0.00780877
-0.00210923
0.00780692
0.00214136
0.00780812
0.00383891
0.00776824
0.0111044
0.00763928
0.0275838
0.00738919
0.0458309
0.0074592
-0.0109884
0.00764927
-0.0331924
0.00776014
-0.0179124
0.00779412
-0.00693134
0.00782308
-0.00686927
0.00782507
-0.00257701
0.00783172
-0.00264915
0.00781566
0.000954505
0.00780491
0.000383802
0.00778235
0.00238559
0.00777059
0.00123361
0.00775481
0.00215484
0.00774974
0.000889691
0.0077427
0.00131943
0.00774366
0.000285127
0.00774303
0.000571673
0.00774788
-0.000160525
0.00775103
8.55079e-05
0.00775703
-0.000340401
0.00776063
-5.62046e-05
0.00776479
-0.000203136
0.00776589
0.000146302
0.00776595
0.000212169
0.00776274
0.00058937
0.00775764
0.000783894
0.00774961
0.00111871
0.00773966
0.00133226
0.00772756
0.0015753
0.00771397
0.00175831
0.00769941
0.00186488
0.00768405
0.0019943
0.00766898
0.00195314
0.0076536
0.002047
0.00763942
0.00187799
0.00762483
0.0019772
0.00761208
0.00168162
0.00759792
0.00185886
0.00758611
0.00144801
0.00757134
0.00172945
0.00755981
0.00118318
0.00754341
0.00155673
0.0075318
0.000859182
0.00751364
0.00122247
0.00750243
0.000368626
0.00748483
0.00055438
-0.000902447
0.00747872
0.0145649
0.00739891
0.0125491
0.00733481
0.0107026
0.00728352
0.00914657
0.00724268
0.00783023
0.00720927
0.00675897
0.00718203
0.00561618
0.00716028
0.00409427
0.0071443
0.00193371
0.00713495
-0.000783325
0.0071341
-0.00374439
0.00714449
-0.00652976
0.00716864
-0.0087536
0.0072077
-0.0101855
0.00725983
-0.0107084
0.00732024