/*--------------------------------*- C++ -*----------------------------------*\
| =========                 |                                                 |
| \\      /  F ield         | OpenFOAM: The Open Source CFD Toolbox           |
|  \\    /   O peration     | Version:  2412                                  |
|   \\  /    A nd           | Website:  www.openfoam.com                      |
|    \\/     M anipulation  |                                                 |
\*---------------------------------------------------------------------------*/
FoamFile
{
    version     2.0;
    format      ascii;
    arch        "LSB;label=32;scalar=64";
    class       volVectorField;
    location    "1";
    object      U;
}
// * * * * * * * * * * * * * * * * * * * * * * * * * * * * * * * * * * * * * //

dimensions      [0 1 -1 0 0 0 0];

internalField   nonuniform List<vector> 
12960
(
(100.007 -0.666125 0)
(100.237 -1.91307 -4.37006e-17)
(100.713 -3.08321 -8.492e-17)
(101.385 -4.10778 0)
(102.251 -5.01092 -3.83145e-17)
(103.264 -5.79569 0)
(104.419 -6.64922 0)
(105.706 -7.77096 0)
(107.159 -9.33022 2.93678e-17)
(108.79 -11.2661 2.88294e-17)
(110.653 -13.3742 0)
(112.773 -15.3692 0)
(115.23 -17.0111 0)
(118.015 -18.1586 0)
(121.169 -18.7638 3.07035e-17)
(124.566 -18.901 -6.21777e-17)
(128.184 -18.6912 0)
(131.815 -18.3479 -3.08609e-17)
(135.507 -18.0225 0)
(139.109 -17.8647 2.87576e-17)
(142.845 -17.842 2.73655e-17)
(146.55 -17.9643 -2.59596e-17)
(150.522 -18.1204 2.47678e-17)
(154.466 -18.3722 0)
(158.779 -18.6187 0)
(163.023 -18.9787 0)
(167.762 -19.3066 0)
(172.366 -19.7755 1.9969e-17)
(177.638 -20.1721 0)
(182.665 -20.7526 -3.64985e-17)
(188.596 -21.2083 5.95991e-22)
(194.118 -21.9129 -1.65317e-17)
(200.872 -22.4217 6.13354e-22)
(206.971 -23.2729 -2.96039e-17)
(214.762 -23.8313 -1.42357e-17)
(221.533 -24.8635 0)
(230.644 -25.4709 0)
(238.202 -26.7313 1.12691e-17)
(249.012 -27.3928 -6.18282e-22)
(257.492 -28.9534 1.88679e-17)
(270.518 -29.7087 0)
(280.106 -31.7023 -1.32049e-21)
(296.107 -32.6693 5.17241e-22)
(307.158 -35.2873 -5.61608e-18)
(327.341 -36.6309 -1.22063e-17)
(340.59 -39.9414 3.68982e-18)
(366.801 -41.612 0)
(383.381 -44.9795 0)
(417.639 -46.4176 -3.3246e-18)
(438.541 -47.8445 -5.79386e-19)
(481.364 -48.4312 -1.92977e-18)
(507.363 -41.3082 0)
(549.685 -39.1255 0)
(578.278 -2.24809 4.54919e-19)
(552.956 18.2461 -3.18972e-19)
(541.493 28.5151 6.72133e-18)
(506.787 32.3847 -3.68464e-19)
(490.286 31.1972 0)
(460.726 31.6392 0)
(445.18 30.5043 -7.374e-19)
(420.466 30.8716 2.21829e-18)
(405.774 29.4886 0)
(385.088 29.1995 0)
(371.854 27.5785 2.55271e-18)
(354.902 26.919 0)
(343.338 25.344 -5.12285e-22)
(329.457 24.6046 0)
(319.354 23.2651 0)
(307.818 22.5987 -6.36732e-18)
(298.905 21.5279 0)
(289.132 20.9673 -4.84055e-23)
(281.165 20.1383 -7.62228e-18)
(272.694 19.6922 0)
(265.462 19.0786 -8.68452e-18)
(257.944 18.7387 9.32805e-18)
(251.288 18.2925 0)
(244.483 18.0207 1.03841e-17)
(238.305 17.6807 -1.08943e-17)
(232.062 17.4286 2.30527e-17)
(226.314 17.1383 1.21009e-17)
(220.546 16.863 0)
(215.216 16.5852 -1.33342e-17)
(209.877 16.2612 0)
(204.976 15.9848 1.45074e-17)
(200.033 15.6031 0)
(195.577 15.3394 -1.55584e-17)
(190.989 14.9024 -1.59843e-17)
(186.988 14.679 -1.6508e-17)
(182.685 14.1909 0)
(179.14 14.0385 0)
(175.02 13.4928 1.77809e-17)
(171.945 13.4304 0)
(167.878 12.8076 0)
(165.325 12.8283 -3.82154e-22)
(161.156 12.1076 7.98244e-22)
(159.233 12.1593 2.09326e-17)
(154.795 11.3382 -2.10097e-17)
(153.666 11.3302 2.24843e-17)
(148.822 10.1311 -2.22866e-17)
(100.007 -0.672214 0)
(100.238 -1.9305 -4.3692e-17)
(100.716 -3.11131 4.24416e-17)
(101.391 -4.14504 0)
(102.26 -5.05607 -1.91969e-21)
(103.277 -5.84718 0)
(104.436 -6.70664 0)
(105.727 -7.83441 0)
(107.181 -9.4004 -2.93666e-17)
(108.81 -11.3438 -2.88418e-17)
(110.668 -13.4606 0)
(112.779 -15.4656 2.91278e-17)
(115.225 -17.1186 2.96399e-17)
(117.999 -18.2769 0)
(121.143 -18.8913 -3.07543e-17)
(124.533 -19.0343 6.2279e-17)
(128.147 -18.8263 -3.12614e-17)
(131.777 -18.4815 6.18084e-17)
(135.47 -18.153 0)
(139.071 -17.9929 -2.87825e-17)
(142.805 -17.9693 -2.73794e-17)
(146.508 -18.0923 -2.59654e-17)
(150.478 -18.2496 -2.47678e-17)
(154.42 -18.5033 0)
(158.731 -18.7517 -2.27028e-17)
(162.972 -19.1144 2.17229e-17)
(167.71 -19.4447 0)
(172.312 -19.917 -1.99679e-17)
(177.581 -20.3164 0)
(182.606 -20.9011 1.82493e-17)
(188.535 -21.36 5.97696e-22)
(194.055 -22.0697 3.30644e-17)
(200.807 -22.582 6.15232e-22)
(206.903 -23.4394 1.48028e-17)
(214.691 -24.0016 0)
(221.459 -25.0414 -1.30548e-17)
(230.567 -25.6529 0)
(238.122 -26.9225 0)
(248.928 -27.5883 1.09405e-17)
(257.404 -29.1601 -9.43532e-18)
(270.425 -29.9199 9.28205e-18)
(280.007 -31.9276 7.5389e-18)
(296.002 -32.9001 5.209e-22)
(307.044 -35.5368 5.61593e-18)
(327.221 -36.8891 6.10307e-18)
(340.456 -40.2246 -3.68962e-18)
(366.663 -41.9081 0)
(383.233 -45.3041 -1.67466e-18)
(417.501 -46.7567 -3.32519e-18)
(438.4 -48.2026 -5.77825e-19)
(481.264 -48.8035 1.92899e-18)
(507.288 -41.6434 0)
(549.726 -39.4596 6.72292e-19)
(578.398 -2.2603 7.66267e-22)
(552.991 18.4067 0)
(541.513 28.7371 -6.72465e-18)
(506.791 32.6353 3.69999e-19)
(490.273 31.4399 0)
(460.688 31.8819 -1.30808e-18)
(445.129 30.735 1.48195e-18)
(420.403 31.1031 0)
(405.704 29.7083 0)
(385.011 29.4155 0)
(371.774 27.7806 -2.55591e-18)
(354.821 27.115 -4.26888e-18)
(343.259 25.5272 3.99088e-18)
(329.38 24.7819 0)
(319.28 23.432 -5.31759e-18)
(307.748 22.7606 1.27374e-17)
(298.837 21.6818 0)
(289.068 21.1172 7.36148e-18)
(281.104 20.2823 0)
(272.635 19.8335 0)
(265.406 19.2157 8.68455e-18)
(257.89 18.8738 0)
(251.237 18.4249 -9.76018e-18)
(244.434 18.1516 0)
(238.257 17.8094 2.17875e-17)
(232.015 17.5558 -1.15259e-17)
(226.267 17.2637 -1.21013e-17)
(220.5 16.9866 1.27338e-17)
(215.17 16.7069 1.33353e-17)
(209.831 16.3806 0)
(204.93 16.1021 -1.45083e-17)
(199.987 15.7176 1.50214e-17)
(195.531 15.4518 1.55587e-17)
(190.945 15.0116 3.19679e-17)
(186.943 14.7864 0)
(182.642 14.2948 0)
(179.096 14.1415 1.74414e-17)
(174.978 13.592 4.83393e-22)
(171.902 13.5297 0)
(167.837 12.9027 1.87528e-17)
(165.282 12.9248 -1.95976e-17)
(161.114 12.1987 8.06783e-22)
(159.188 12.253 2.09178e-17)
(154.749 11.425 -2.09954e-17)
(153.618 11.4196 2.24624e-17)
(148.769 10.2099 0)
(100.007 -0.678331 0)
(100.24 -1.94802 4.36779e-17)
(100.719 -3.13954 0)
(101.397 -4.18246 0)
(102.27 -5.10142 3.8249e-17)
(103.291 -5.89889 0)
(104.453 -6.76425 0)
(105.747 -7.898 0)
(107.202 -9.47059 0)
(108.83 -11.4214 0)
(110.683 -13.5466 2.88423e-17)
(112.786 -15.5616 -2.9163e-17)
(115.221 -17.2255 -2.96835e-17)
(117.983 -18.3948 3.02535e-17)
(121.116 -19.0184 0)
(124.499 -19.1674 -3.11902e-17)
(128.11 -18.9613 3.13096e-17)
(131.739 -18.6149 -6.18961e-17)
(135.432 -18.2834 0)
(139.032 -18.1209 5.76141e-17)
(142.765 -18.0964 5.47858e-17)
(146.466 -18.2202 2.59703e-17)
(150.434 -18.3787 0)
(154.374 -18.6343 -2.36316e-17)
(158.682 -18.8846 4.54012e-17)
(162.922 -19.2499 6.43122e-22)
(167.657 -19.5826 0)
(172.257 -20.0583 -1.99682e-17)
(177.524 -20.4605 0)
(182.547 -21.0495 0)
(188.474 -21.5115 -1.75502e-17)
(193.991 -22.2263 8.62924e-22)
(200.741 -22.7421 -1.58904e-17)
(206.834 -23.6057 1.48051e-17)
(214.619 -24.1718 0)
(221.385 -25.2191 1.30554e-17)
(230.49 -25.8346 0)
(238.041 -27.1135 -1.12741e-17)
(248.844 -27.7835 0)
(257.315 -29.3666 0)
(270.332 -30.1308 -1.85659e-17)
(279.908 -32.1526 0)
(295.898 -33.1307 -7.64542e-18)
(306.929 -35.786 5.61845e-18)
(327.099 -37.1469 -6.10361e-18)
(340.322 -40.5074 0)
(366.525 -42.2039 0)
(383.084 -45.6285 3.35047e-18)
(417.361 -47.0956 3.32507e-18)
(438.258 -48.5606 5.77675e-19)
(481.164 -49.176 -1.928e-18)
(507.211 -41.9791 0)
(549.767 -39.7948 -6.70936e-19)
(578.519 -2.27249 -9.07301e-19)
(553.026 18.5677 0)
(541.535 28.9594 0)
(506.796 32.8863 0)
(490.26 31.683 -3.25299e-18)
(460.65 32.1248 1.3168e-18)
(445.078 30.9659 -7.44698e-19)
(420.341 31.3346 0)
(405.634 29.9281 1.01112e-18)
(384.933 29.6316 0)
(371.693 27.9827 -2.56073e-18)
(354.739 27.3109 4.27251e-18)
(343.179 25.7103 3.99417e-18)
(329.303 24.9591 -5.33039e-18)
(319.206 23.5988 5.31916e-18)
(307.677 22.9224 -3.91325e-23)
(298.769 21.8355 0)
(289.003 21.2671 7.36266e-18)
(281.042 20.4263 0)
(272.577 19.9746 0)
(265.35 19.3527 8.68551e-18)
(257.837 19.0089 9.32837e-18)
(251.185 18.5571 1.95198e-17)
(244.384 18.2823 -1.03837e-17)
(238.208 17.9381 4.47226e-22)
(231.968 17.6831 0)
(226.22 17.3891 2.42024e-17)
(220.454 17.1102 -2.5468e-17)
(215.124 16.8286 3.23397e-22)
(209.785 16.5 1.39294e-17)
(204.883 16.2194 1.45097e-17)
(199.942 15.8321 2.98799e-22)
(195.485 15.5641 0)
(190.9 15.1207 -1.59836e-17)
(186.898 14.8937 0)
(182.599 14.3987 0)
(179.052 14.2443 -8.71387e-23)
(174.936 13.6912 -1.77721e-17)
(171.859 13.629 1.84468e-17)
(167.795 12.9977 6.48547e-22)
(165.238 13.0212 0)
(161.071 12.2898 -1.98114e-17)
(159.142 12.3466 -5.7953e-22)
(154.702 11.5118 2.09793e-17)
(153.569 11.509 -2.24418e-17)
(148.716 10.2887 0)
(100.007 -0.684476 0)
(100.241 -1.96561 0)
(100.723 -3.16789 4.24096e-17)
(101.403 -4.22004 0)
(102.279 -5.14695 3.82191e-17)
(103.305 -5.95079 0)
(104.471 -6.82205 0)
(105.768 -7.96173 3.05672e-17)
(107.225 -9.54084 0)
(108.851 -11.4988 -2.88683e-17)
(110.698 -13.6325 5.15825e-22)
(112.793 -15.6573 2.91991e-17)
(115.217 -17.332 2.97279e-17)
(117.967 -18.5123 -3.03027e-17)
(121.089 -19.1451 0)
(124.465 -19.3003 -3.12417e-17)
(128.072 -19.0961 3.13589e-17)
(131.701 -18.7483 6.19846e-17)
(135.393 -18.4137 0)
(138.993 -18.2489 -2.88319e-17)
(142.724 -18.2235 -5.48137e-17)
(146.423 -18.3479 0)
(150.389 -18.5076 0)
(154.327 -18.7652 2.36296e-17)
(158.633 -19.0173 -4.53974e-17)
(162.87 -19.3853 -4.3439e-17)
(167.604 -19.7203 0)
(172.202 -20.1995 1.9967e-17)
(177.467 -20.6045 0)
(182.488 -21.1976 0)
(188.412 -21.6628 0)
(193.928 -22.3828 -1.65337e-17)
(200.674 -22.902 0)
(206.765 -23.7719 -1.48055e-17)
(214.547 -24.3417 0)
(221.31 -25.3966 -1.30581e-17)
(230.412 -26.0162 0)
(237.96 -27.3043 2.25509e-17)
(248.759 -27.9785 -1.0944e-17)
(257.225 -29.5728 -9.44054e-18)
(270.239 -30.3415 1.85684e-17)
(279.808 -32.3774 0)
(295.792 -33.361 -7.64656e-18)
(306.814 -36.0349 1.36524e-21)
(326.977 -37.4043 6.1033e-18)
(340.186 -40.7899 -3.69311e-18)
(366.386 -42.4994 -4.6972e-18)
(382.934 -45.9527 -1.67581e-18)
(417.221 -47.4343 0)
(438.116 -48.9186 5.76096e-19)
(481.062 -49.5486 -1.92722e-18)
(507.134 -42.3154 0)
(549.808 -40.1308 6.66943e-19)
(578.641 -2.28463 -7.77643e-22)
(553.062 18.7293 0)
(541.558 29.1818 0)
(506.802 33.1374 -3.67246e-19)
(490.248 31.9263 3.27466e-18)
(460.613 32.3679 0)
(445.029 31.1969 7.47529e-19)
(420.279 31.5663 2.24581e-18)
(405.564 30.1479 -1.01418e-18)
(384.856 29.8476 0)
(371.613 28.1848 -7.35746e-22)
(354.658 27.5068 0)
(343.099 25.8932 -3.99653e-18)
(329.226 25.1362 8.82489e-23)
(319.131 23.7655 -5.32167e-18)
(307.605 23.0841 -1.27435e-17)
(298.701 21.9892 -6.52477e-18)
(288.938 21.4168 -7.36383e-18)
(280.98 20.5701 7.62608e-18)
(272.518 20.1156 0)
(265.293 19.4896 -1.73718e-17)
(257.783 19.1439 -9.32825e-18)
(251.133 18.6893 -9.75974e-18)
(244.334 18.413 1.03831e-17)
(238.159 18.0666 -2.17865e-17)
(231.92 17.8102 -1.15258e-17)
(226.173 17.5144 -2.42027e-17)
(220.407 17.2338 2.5469e-17)
(215.077 16.9502 -2.66738e-17)
(209.739 16.6194 3.22617e-22)
(204.837 16.3366 -2.90217e-17)
(199.896 15.9466 -3.0047e-17)
(195.439 15.6764 0)
(190.855 15.2298 -1.59839e-17)
(186.853 15.001 0)
(182.555 14.5026 0)
(179.008 14.3471 -1.74342e-17)
(174.894 13.7904 1.77684e-17)
(171.816 13.7282 -1.84409e-17)
(167.753 13.0927 -3.74788e-17)
(165.195 13.1176 0)
(161.028 12.3808 0)
(159.097 12.4403 -4.17788e-17)
(154.655 11.5986 2.0965e-17)
(153.52 11.5985 2.24196e-17)
(148.662 10.3675 0)
(100.007 -0.690649 4.45776e-17)
(100.242 -1.98328 -4.36576e-17)
(100.726 -3.19637 -8.47816e-17)
(101.409 -4.25779 4.06112e-17)
(102.289 -5.19269 -3.81852e-17)
(103.318 -6.00291 0)
(104.489 -6.88005 -3.25958e-17)
(105.789 -8.02559 -3.05526e-17)
(107.247 -9.61112 0)
(108.872 -11.5762 -6.67977e-22)
(110.714 -13.7181 -2.88919e-17)
(112.8 -15.7526 3.8854e-22)
(115.213 -17.4381 -2.9772e-17)
(117.951 -18.6293 0)
(121.063 -19.2714 0)
(124.431 -19.4329 3.12932e-17)
(128.034 -19.2307 -3.14079e-17)
(131.662 -18.8817 -3.10367e-17)
(135.355 -18.544 0)
(138.954 -18.3768 2.88578e-17)
(142.683 -18.3504 2.74207e-17)
(146.38 -18.4755 0)
(150.344 -18.6364 0)
(154.279 -18.8959 0)
(158.583 -19.1499 2.26965e-17)
(162.819 -19.5206 2.17177e-17)
(167.55 -19.8579 0)
(172.146 -20.3406 0)
(177.409 -20.7483 0)
(182.428 -21.3457 1.82513e-17)
(188.35 -21.814 0)
(193.863 -22.5391 0)
(200.607 -23.0617 0)
(206.696 -23.9378 0)
(214.475 -24.5115 1.42409e-17)
(221.235 -25.5739 -1.07328e-21)
(230.333 -26.1976 1.25944e-17)
(237.878 -27.4949 -1.12768e-17)
(248.674 -28.1733 1.09448e-17)
(257.136 -29.7789 9.44126e-18)
(270.145 -30.552 -9.28511e-18)
(279.707 -32.6019 -7.54523e-18)
(295.686 -33.5909 1.52938e-17)
(306.698 -36.2835 -5.61948e-18)
(326.854 -37.6614 -6.10386e-18)
(340.05 -41.0721 3.6929e-18)
(366.246 -42.7946 4.69711e-18)
(382.782 -46.2765 0)
(417.079 -47.7728 0)
(437.972 -49.2766 -5.75949e-19)
(480.96 -49.9215 1.92623e-18)
(507.057 -42.6522 0)
(549.849 -40.4679 -6.65607e-19)
(578.764 -2.29675 4.52443e-19)
(553.099 18.8914 0)
(541.581 29.4045 0)
(506.808 33.3888 3.68804e-19)
(490.238 32.17 3.29704e-18)
(460.577 32.6112 -1.33327e-18)
(444.98 31.4281 -1.50314e-18)
(420.217 31.7981 -2.25571e-18)
(405.494 30.3679 1.0192e-18)
(384.778 30.0637 0)
(371.531 28.3869 2.56866e-18)
(354.576 27.7025 0)
(343.019 26.0761 -4.00006e-18)
(329.148 25.3131 5.33479e-18)
(319.056 23.9321 5.32343e-18)
(307.534 23.2457 6.37346e-18)
(298.632 22.1427 1.30528e-17)
(288.873 21.5664 7.36522e-18)
(280.918 20.7138 4.04567e-22)
(272.459 20.2565 0)
(265.237 19.6264 1.73733e-17)
(257.729 19.2788 0)
(251.081 18.8213 9.76033e-18)
(244.283 18.5436 0)
(238.11 18.1952 -4.52474e-22)
(231.872 17.9373 1.15253e-17)
(226.125 17.6396 2.42031e-17)
(220.36 17.3573 -2.547e-17)
(215.03 17.0718 1.33377e-17)
(209.693 16.7388 -1.39315e-17)
(204.79 16.4538 1.4512e-17)
(199.85 16.061 3.00494e-17)
(195.393 15.7886 0)
(190.81 15.3388 1.59835e-17)
(186.807 15.1082 0)
(182.511 14.6063 0)
(178.964 14.4499 0)
(174.852 13.8894 -3.5528e-17)
(171.772 13.8274 0)
(167.711 13.1876 3.74658e-17)
(165.151 13.214 0)
(160.984 12.4719 0)
(159.051 12.534 2.08753e-17)
(154.608 11.6855 -2.09487e-17)
(153.47 11.6881 -2.23988e-17)
(148.608 10.4463 0)
(100.007 -0.696851 -4.45677e-17)
(100.243 -2.00103 8.7289e-17)
(100.729 -3.22497 4.23719e-17)
(101.415 -4.29571 -8.11696e-17)
(102.299 -5.23862 0)
(103.332 -6.05523 0)
(104.507 -6.93825 -1.34064e-21)
(105.811 -8.0896 0)
(107.27 -9.68144 -2.93667e-17)
(108.893 -11.6535 -6.73487e-22)
(110.73 -13.8035 0)
(112.808 -15.8475 -2.92706e-17)
(115.209 -17.5437 0)
(117.935 -18.7458 0)
(121.036 -19.3974 0)
(124.397 -19.5652 0)
(127.996 -19.3652 0)
(131.623 -19.0149 0)
(135.316 -18.6741 -3.02149e-17)
(138.914 -18.5045 4.96381e-22)
(142.642 -18.4771 0)
(146.337 -18.603 0)
(150.298 -18.765 -2.47708e-17)
(154.232 -19.0265 0)
(158.533 -19.2823 0)
(162.767 -19.6557 0)
(167.497 -19.9954 0)
(172.09 -20.4815 1.99669e-17)
(177.351 -20.892 1.92206e-17)
(182.368 -21.4936 -1.8251e-17)
(188.288 -21.965 -1.75523e-17)
(193.799 -22.6952 0)
(200.54 -23.2213 0)
(206.626 -24.1037 0)
(214.402 -24.681 -1.42415e-17)
(221.16 -25.7511 -1.08097e-21)
(230.254 -26.3787 -1.25952e-17)
(237.795 -27.6852 -1.12799e-17)
(248.588 -28.3679 1.09469e-17)
(257.045 -29.9847 -9.44457e-18)
(270.05 -30.7622 9.28696e-18)
(279.606 -32.8261 7.54556e-18)
(295.579 -33.8206 -7.64726e-18)
(306.581 -36.5318 0)
(326.73 -37.9182 6.10355e-18)
(339.913 -41.3539 -3.69537e-18)
(366.105 -43.0894 -4.69776e-18)
(382.63 -46.6001 0)
(416.937 -48.1111 0)
(437.827 -49.6346 0)
(480.856 -50.2945 0)
(506.978 -42.9896 0)
(549.89 -40.806 0)
(578.889 -2.30884 -4.52848e-19)
(553.136 19.054 -3.42263e-19)
(541.605 29.6274 6.75448e-18)
(506.816 33.6404 3.66426e-19)
(490.228 32.4139 -3.31956e-18)
(460.541 32.8549 1.3428e-18)
(444.931 31.6594 7.55773e-19)
(420.155 32.03 0)
(405.424 30.5879 -1.02255e-18)
(384.699 30.2798 0)
(371.45 28.5889 0)
(354.493 27.8982 0)
(342.938 26.2589 4.00267e-18)
(329.07 25.49 0)
(318.981 24.0985 5.32615e-18)
(307.461 23.4072 6.37521e-18)
(298.563 22.2961 3.93365e-22)
(288.807 21.7159 -7.3666e-18)
(280.855 20.8574 -7.62845e-18)
(272.399 20.3973 8.33669e-18)
(265.18 19.7631 -8.68723e-18)
(257.675 19.4136 0)
(251.028 18.9533 -9.76008e-18)
(244.233 18.6742 0)
(238.061 18.3236 1.08928e-17)
(231.824 18.0643 0)
(226.078 17.7648 4.09468e-22)
(220.313 17.4808 1.27354e-17)
(214.983 17.1933 0)
(209.646 16.8581 0)
(204.743 16.571 0)
(199.804 16.1753 -1.50259e-17)
(195.346 15.9008 0)
(190.765 15.4477 0)
(186.761 15.2153 0)
(182.467 14.7101 -1.68651e-17)
(178.919 14.5526 0)
(174.809 13.9885 1.77596e-17)
(171.728 13.9265 0)
(167.669 13.2826 -1.8726e-17)
(165.106 13.3104 0)
(160.941 12.5629 0)
(159.005 12.6277 0)
(154.56 11.7723 0)
(153.42 11.7778 0)
(148.554 10.5252 0)
(100.007 -0.703081 0)
(100.244 -2.01886 -4.36313e-17)
(100.732 -3.25371 0)
(101.421 -4.3338 4.05582e-17)
(102.309 -5.28476 0)
(103.347 -6.10778 0)
(104.525 -6.99665 3.25434e-17)
(105.832 -8.15375 3.05271e-17)
(107.292 -9.7518 2.9366e-17)
(108.914 -11.7307 5.7815e-17)
(110.746 -13.8886 2.89431e-17)
(112.815 -15.942 0)
(115.205 -17.6488 0)
(117.919 -18.8619 3.04535e-17)
(121.009 -19.523 0)
(124.362 -19.6972 0)
(127.958 -19.4996 0)
(131.583 -19.1481 0)
(135.276 -18.8042 3.02517e-17)
(138.874 -18.6322 -5.78185e-17)
(142.601 -18.6038 0)
(146.294 -18.7303 0)
(150.253 -18.8935 4.95425e-17)
(154.184 -19.157 0)
(158.483 -19.4146 0)
(162.715 -19.7907 -2.17153e-17)
(167.442 -20.1328 0)
(172.034 -20.6223 -1.99658e-17)
(177.293 -21.0355 -1.92199e-17)
(182.308 -21.6413 0)
(188.225 -22.1158 1.75522e-17)
(193.733 -22.8512 -1.65374e-17)
(200.472 -23.3808 0)
(206.556 -24.2693 0)
(214.329 -24.8504 -1.42433e-17)
(221.083 -25.928 1.30621e-17)
(230.175 -26.5597 0)
(237.712 -27.8754 1.12807e-17)
(248.501 -28.5622 -1.09478e-17)
(256.954 -30.1902 1.88919e-17)
(269.955 -30.9721 6.07081e-22)
(279.504 -33.0501 -7.54865e-18)
(295.472 -34.0499 0)
(306.463 -36.7797 0)
(326.605 -38.1745 0)
(339.774 -41.6353 3.69517e-18)
(365.963 -43.3838 4.69769e-18)
(382.477 -46.9234 0)
(416.793 -48.4492 0)
(437.681 -49.9925 -5.73451e-19)
(480.752 -50.6676 0)
(506.898 -43.3275 0)
(549.931 -41.145 0)
(579.014 -2.32091 4.51697e-19)
(553.175 19.2171 3.41663e-19)
(541.63 29.8505 -6.75815e-18)
(506.824 33.8922 -7.3399e-19)
(490.22 32.6582 0)
(460.507 33.0987 0)
(444.884 31.891 0)
(420.094 32.2621 0)
(405.354 30.8079 -1.02786e-18)
(384.621 30.4959 0)
(371.368 28.7908 -2.5788e-18)
(354.41 28.0938 0)
(342.857 26.4416 0)
(328.991 25.6667 0)
(318.905 24.2649 -5.32814e-18)
(307.389 23.5685 -1.27543e-17)
(298.494 22.4494 -6.53019e-18)
(288.741 21.8653 0)
(280.792 21.0009 7.63043e-18)
(272.339 20.538 -8.33755e-18)
(265.123 19.8997 0)
(257.62 19.5483 0)
(250.976 19.0852 0)
(244.182 18.8046 1.03831e-17)
(238.011 18.452 -1.08933e-17)
(231.776 18.1913 1.15256e-17)
(226.03 17.8899 -2.42042e-17)
(220.266 17.6042 -1.27365e-17)
(214.936 17.3148 0)
(209.599 16.9773 0)
(204.696 16.6881 0)
(199.757 16.2896 0)
(195.3 16.0129 1.55616e-17)
(190.719 15.5566 1.5984e-17)
(186.716 15.3224 0)
(182.423 14.8137 -3.79891e-22)
(178.874 14.6552 0)
(174.766 14.0875 0)
(171.684 14.0256 0)
(167.627 13.3775 0)
(165.062 13.4067 0)
(160.897 12.6539 0)
(158.958 12.7214 0)
(154.513 11.8592 0)
(153.37 11.8675 0)
(148.499 10.604 0)
(100.006 -0.709341 0)
(100.245 -2.03677 4.36222e-17)
(100.735 -3.28258 -4.23387e-17)
(101.428 -4.37205 4.05348e-17)
(102.319 -5.3311 0)
(103.361 -6.16054 0)
(104.543 -7.05525 3.25193e-17)
(105.854 -8.21804 1.07345e-21)
(107.316 -9.8222 0)
(108.936 -11.8078 -2.89205e-17)
(110.763 -13.9735 -2.8968e-17)
(112.824 -16.0361 2.93436e-17)
(115.202 -17.7535 0)
(117.904 -18.9775 -3.05041e-17)
(120.983 -19.6482 0)
(124.328 -19.829 0)
(127.919 -19.6338 -3.15592e-17)
(131.544 -19.2811 3.11737e-17)
(135.237 -18.9342 3.02898e-17)
(138.834 -18.7598 5.78711e-17)
(142.559 -18.7303 0)
(146.25 -18.8575 -2.59995e-17)
(150.207 -19.0218 5.16817e-22)
(154.136 -19.2873 0)
(158.433 -19.5467 0)
(162.663 -19.9256 -6.63867e-22)
(167.388 -20.2699 0)
(171.978 -20.7629 0)
(177.234 -21.1788 1.92204e-17)
(182.247 -21.7889 1.82527e-17)
(188.162 -22.2665 -1.75533e-17)
(193.668 -23.007 -8.92235e-22)
(200.404 -23.54 -1.58955e-17)
(206.485 -24.4347 0)
(214.255 -25.0196 -6.4815e-22)
(221.007 -26.1048 1.30649e-17)
(230.095 -26.7405 1.25986e-17)
(237.629 -28.0654 0)
(248.414 -28.7563 1.095e-17)
(256.862 -30.3956 -9.44738e-18)
(269.859 -31.1818 -9.28889e-18)
(279.402 -33.2738 7.54901e-18)
(295.364 -34.279 7.6491e-18)
(306.344 -37.0273 0)
(326.48 -38.4306 0)
(339.635 -41.9164 3.69769e-18)
(365.82 -43.6779 -4.69838e-18)
(382.322 -47.2465 -1.68192e-18)
(416.649 -48.7871 0)
(437.534 -50.3504 1.14586e-18)
(480.647 -51.0409 1.92375e-18)
(506.818 -43.666 0)
(549.972 -41.485 -6.56338e-19)
(579.141 -2.33295 -4.5215e-19)
(553.214 19.3807 3.50101e-19)
(541.656 30.0738 0)
(506.834 34.1443 3.67563e-19)
(490.213 32.9028 0)
(460.474 33.3429 1.36079e-18)
(444.837 32.1228 0)
(420.033 32.4942 2.28792e-18)
(405.284 31.0281 1.03153e-18)
(384.542 30.7121 0)
(371.286 28.9927 2.58306e-18)
(354.327 28.2893 0)
(342.775 26.6241 0)
(328.912 25.8433 0)
(318.829 24.4311 -5.33111e-18)
(307.316 23.7298 6.37921e-18)
(298.424 22.6025 -6.53277e-18)
(288.674 22.0146 0)
(280.729 21.1442 -1.52638e-17)
(272.279 20.6786 0)
(265.065 20.0363 -8.68966e-18)
(257.566 19.6829 0)
(250.923 19.217 -9.7613e-18)
(244.131 18.935 -1.03828e-17)
(237.961 18.5803 2.17863e-17)
(231.727 18.3182 -1.15253e-17)
(225.982 18.015 2.42051e-17)
(220.219 17.7276 1.27369e-17)
(214.888 17.4362 0)
(209.552 17.0965 0)
(204.649 16.8051 0)
(199.711 16.4039 -1.5029e-17)
(195.252 16.1249 -1.55623e-17)
(190.673 15.6655 -1.59838e-17)
(186.669 15.4294 -1.64989e-17)
(182.379 14.9173 -3.8183e-22)
(178.829 14.7578 -1.74198e-17)
(174.723 14.1864 0)
(171.639 14.1247 0)
(167.584 13.4723 0)
(165.017 13.5031 0)
(160.853 12.7449 -1.97623e-17)
(158.912 12.8152 2.0831e-17)
(154.465 11.946 0)
(153.32 11.9573 0)
(148.444 10.6828 2.21346e-17)
(100.006 -0.715631 0)
(100.246 -2.05476 -4.36074e-17)
(100.739 -3.31159 4.2318e-17)
(101.434 -4.41048 -8.10157e-17)
(102.329 -5.37764 0)
(103.375 -6.21351 3.51824e-17)
(104.562 -7.11406 1.3704e-21)
(105.876 -8.28249 -6.1001e-17)
(107.339 -9.89264 -2.93674e-17)
(108.958 -11.8848 0)
(110.78 -14.0581 -2.89941e-17)
(112.832 -16.1299 -5.87598e-17)
(115.199 -17.8577 -2.99524e-17)
(117.889 -19.0927 0)
(120.956 -19.773 0)
(124.293 -19.9605 0)
(127.881 -19.7678 3.16101e-17)
(131.504 -19.4141 -6.24398e-17)
(135.197 -19.0642 -3.03274e-17)
(138.794 -18.8872 -5.79243e-17)
(142.517 -18.8567 2.74796e-17)
(146.206 -18.9845 -5.64704e-22)
(150.16 -19.15 5.20574e-22)
(154.087 -19.4175 0)
(158.382 -19.6788 2.26894e-17)
(162.61 -20.0603 2.17117e-17)
(167.333 -20.407 -2.09096e-17)
(171.921 -20.9034 0)
(177.175 -21.3221 -1.92197e-17)
(182.186 -21.9363 -1.82524e-17)
(188.098 -22.4171 1.75533e-17)
(193.602 -23.1626 1.65386e-17)
(200.335 -23.6991 1.58957e-17)
(206.414 -24.6 1.48133e-17)
(214.181 -25.1887 1.4245e-17)
(220.93 -26.2814 1.10388e-21)
(230.015 -26.921 6.56338e-22)
(237.545 -28.2552 1.12859e-17)
(248.327 -28.9502 -1.09509e-17)
(256.77 -30.6007 -9.45078e-18)
(269.763 -31.3912 0)
(279.299 -33.4972 -7.55216e-18)
(295.255 -34.5077 -1.5299e-17)
(306.225 -37.2745 0)
(326.354 -38.6862 6.10447e-18)
(339.496 -42.1972 -3.6975e-18)
(365.676 -43.9717 4.69833e-18)
(382.166 -47.5692 1.68191e-18)
(416.503 -49.1249 0)
(437.385 -50.7083 -7.62018e-22)
(480.541 -51.4145 1.26658e-22)
(506.737 -44.005 0)
(550.014 -41.8261 6.55049e-19)
(579.269 -2.34498 4.51027e-19)
(553.254 19.5449 4.56372e-21)
(541.683 30.2973 6.775e-18)
(506.844 34.3966 -3.6512e-19)
(490.207 33.1477 3.38997e-18)
(460.441 33.5873 -1.37115e-18)
(444.791 32.3547 0)
(419.973 32.7266 -5.49165e-23)
(405.215 31.2484 0)
(384.464 30.9282 0)
(371.203 29.1946 0)
(354.243 28.4847 0)
(342.693 26.8066 -4.01353e-18)
(328.833 26.0198 -5.34493e-18)
(318.752 24.5972 5.33337e-18)
(307.243 23.8909 0)
(298.354 22.7556 6.53471e-18)
(288.608 22.1637 0)
(280.665 21.2875 -4.14117e-22)
(272.219 20.8191 0)
(265.007 20.1727 8.69041e-18)
(257.51 19.8174 0)
(250.87 19.3488 1.95232e-17)
(244.08 19.0653 0)
(237.911 18.7085 4.6574e-22)
(231.678 18.4451 1.15259e-17)
(225.933 18.14 -1.21029e-17)
(220.171 17.8509 1.27381e-17)
(214.84 17.5576 1.33425e-17)
(209.505 17.2157 0)
(204.601 16.9221 0)
(199.664 16.5181 3.00608e-17)
(195.205 16.2369 0)
(190.627 15.7743 0)
(186.623 15.5363 -1.72708e-23)
(182.334 15.0209 -3.83733e-22)
(178.784 14.8603 3.48326e-17)
(174.68 14.2853 1.77479e-17)
(171.595 14.2237 0)
(167.541 13.5671 0)
(164.972 13.5994 0)
(160.809 12.8359 1.97514e-17)
(158.865 12.909 -6.11749e-22)
(154.416 12.0328 0)
(153.269 12.0471 0)
(148.389 10.7617 -2.21114e-17)
(100.006 -0.72195 0)
(100.248 -2.07284 4.35982e-17)
(100.742 -3.34073 0)
(101.441 -4.44909 4.04807e-17)
(102.339 -5.4244 -3.80258e-17)
(103.39 -6.26671 -7.02972e-17)
(104.581 -7.17307 -3.24675e-17)
(105.898 -8.34708 -1.08979e-21)
(107.363 -9.96313 -8.97363e-22)
(108.98 -11.9617 0)
(110.797 -14.1425 2.90192e-17)
(112.841 -16.2233 5.88332e-17)
(115.197 -17.9615 5.99959e-17)
(117.874 -19.2074 0)
(120.93 -19.8974 3.11763e-17)
(124.259 -20.0917 0)
(127.841 -19.9017 -3.16621e-17)
(131.464 -19.547 3.12665e-17)
(135.156 -19.1941 0)
(138.753 -19.0146 5.7978e-17)
(142.475 -18.983 -5.49888e-17)
(146.162 -19.1114 2.60111e-17)
(150.114 -19.2781 5.24342e-22)
(154.039 -19.5475 0)
(158.331 -19.8106 -2.2687e-17)
(162.557 -20.1949 2.17109e-17)
(167.278 -20.5439 2.0908e-17)
(171.864 -21.0437 0)
(177.115 -21.4651 0)
(182.124 -22.0836 0)
(188.034 -22.5674 0)
(193.536 -23.3181 1.65405e-17)
(200.266 -23.858 1.58973e-17)
(206.342 -24.7651 -1.48137e-17)
(214.107 -25.3575 -1.42469e-17)
(220.852 -26.4577 1.11152e-21)
(229.934 -27.1014 -1.26008e-17)
(237.46 -28.4447 -1.12867e-17)
(248.239 -29.1439 0)
(256.678 -30.8055 -1.33354e-21)
(269.666 -31.6004 0)
(279.195 -33.7204 7.55254e-18)
(295.145 -34.7361 7.6499e-18)
(306.105 -37.5215 0)
(326.227 -38.9415 -6.10419e-18)
(339.355 -42.4775 0)
(365.531 -44.2651 0)
(382.01 -47.8917 0)
(416.356 -49.4624 0)
(437.236 -51.0661 -5.71511e-19)
(480.435 -51.7881 1.32222e-22)
(506.654 -44.3446 0)
(550.055 -42.1682 6.51099e-19)
(579.398 -2.35699 -4.51528e-19)
(553.295 19.7095 4.59387e-21)
(541.71 30.5211 -1.35604e-17)
(506.856 34.6492 7.31329e-19)
(490.202 33.3929 -3.41401e-18)
(460.41 33.832 0)
(444.746 32.5869 0)
(419.913 32.959 -6.95818e-23)
(405.145 31.4687 1.0421e-18)
(384.385 31.1444 0)
(371.121 29.3965 0)
(354.159 28.6801 4.30311e-18)
(342.61 26.9889 -5.34892e-22)
(328.753 26.1962 5.34801e-18)
(318.675 24.7632 0)
(307.169 24.0519 0)
(298.283 22.9085 -6.5376e-18)
(288.541 22.3127 7.3738e-18)
(280.601 21.4306 -4.1627e-22)
(272.158 20.9595 8.34164e-18)
(264.949 20.309 -8.69222e-18)
(257.455 19.9519 0)
(250.816 19.4804 -1.95246e-17)
(244.029 19.1955 -1.03837e-17)
(237.861 18.8366 -1.08935e-17)
(231.629 18.5719 -1.15259e-17)
(225.885 18.2649 0)
(220.123 17.9742 -2.54778e-17)
(214.792 17.6789 -2.66875e-17)
(209.457 17.3348 0)
(204.553 17.0391 0)
(199.616 16.6322 -3.00642e-17)
(195.157 16.3489 0)
(190.581 15.883 1.59847e-17)
(186.576 15.6432 -1.71019e-23)
(182.289 15.1244 -3.85601e-22)
(178.738 14.9627 -3.48257e-17)
(174.636 14.3841 -3.54873e-17)
(171.55 14.3227 0)
(167.499 13.6619 0)
(164.927 13.6957 0)
(160.765 12.9269 0)
(158.818 13.0028 -6.1767e-22)
(154.368 12.1197 0)
(153.218 12.1371 0)
(148.333 10.8405 0)
(100.006 -0.7283 0)
(100.249 -2.09101 -4.35831e-17)
(100.746 -3.37 4.22839e-17)
(101.447 -4.48787 0)
(102.35 -5.47136 3.79912e-17)
(103.405 -6.32014 -1.6564e-21)
(104.599 -7.23229 -3.24439e-17)
(105.921 -8.41182 -1.09798e-21)
(107.387 -10.0337 5.87358e-17)
(109.003 -12.0385 0)
(110.815 -14.2267 0)
(112.85 -16.3163 -2.94532e-17)
(115.195 -18.0648 -6.00877e-17)
(117.859 -19.3216 0)
(120.904 -20.0213 -3.12307e-17)
(124.224 -20.2226 0)
(127.802 -20.0354 3.17139e-17)
(131.423 -19.6799 -3.13141e-17)
(135.116 -19.3239 0)
(138.712 -19.1419 -5.80324e-17)
(142.433 -19.1091 5.50193e-17)
(146.117 -19.2382 -2.60179e-17)
(150.067 -19.406 -2.47744e-17)
(153.989 -19.6774 0)
(158.28 -19.9423 2.26857e-17)
(162.504 -20.3293 -2.17088e-17)
(167.222 -20.6806 0)
(171.806 -21.1839 1.99651e-17)
(177.055 -21.6081 0)
(182.062 -22.2307 0)
(187.969 -22.7176 0)
(193.469 -23.4734 9.10695e-22)
(200.197 -24.0167 -3.17959e-17)
(206.27 -24.9301 0)
(214.032 -25.5262 2.84956e-17)
(220.774 -26.6339 1.11915e-21)
(229.853 -27.2816 -1.2603e-17)
(237.375 -28.6341 0)
(248.15 -29.3374 0)
(256.584 -31.0102 1.89087e-17)
(269.568 -31.8093 0)
(279.09 -33.9433 0)
(295.035 -34.9642 7.65115e-18)
(305.985 -37.7681 0)
(326.099 -39.1964 0)
(339.213 -42.7576 -3.70128e-18)
(365.385 -44.5582 0)
(381.852 -48.214 0)
(416.209 -49.7997 0)
(437.085 -51.4239 5.69822e-19)
(480.327 -52.162 -1.9211e-18)
(506.571 -44.6847 -3.24559e-18)
(550.097 -42.5113 -1.33851e-21)
(579.528 -2.36899 1.35293e-18)
(553.337 19.8747 4.62403e-21)
(541.739 30.7451 6.78535e-18)
(506.868 34.902 -2.02058e-21)
(490.199 33.6385 0)
(460.381 34.077 1.39068e-18)
(444.702 32.8193 0)
(419.854 33.1916 -2.32432e-18)
(405.076 31.6892 8.90706e-22)
(384.306 31.3607 0)
(371.038 29.5983 -2.60017e-18)
(354.075 28.8753 -4.30855e-18)
(342.527 27.1712 4.02076e-18)
(328.672 26.3724 0)
(318.598 24.929 0)
(307.095 24.2127 -6.38627e-18)
(298.212 23.0613 -4.02444e-22)
(288.473 22.4617 -7.37595e-18)
(280.537 21.5736 7.63776e-18)
(272.097 21.0997 1.70806e-22)
(264.891 20.4452 1.7387e-17)
(257.4 20.0862 0)
(250.763 19.612 1.95263e-17)
(243.977 19.3257 1.03838e-17)
(237.81 18.9647 0)
(231.58 18.6986 -1.15267e-17)
(225.836 18.3898 0)
(220.075 18.0974 2.54799e-17)
(214.744 17.8002 1.33451e-17)
(209.409 17.4538 0)
(204.505 17.156 0)
(199.569 16.7463 3.00677e-17)
(195.11 16.4607 -1.55653e-17)
(190.534 15.9917 -1.59848e-17)
(186.529 15.75 3.29917e-17)
(182.244 15.2278 1.68556e-17)
(178.693 15.0651 1.74095e-17)
(174.593 14.4829 1.77395e-17)
(171.505 14.4216 0)
(167.455 13.7566 -1.86942e-17)
(164.881 13.792 0)
(160.72 13.0179 -1.97322e-17)
(158.77 13.0967 -2.07875e-17)
(154.319 12.2066 0)