/*--------------------------------*- C++ -*----------------------------------*\
| =========                 |                                                 |
| \\      /  F ield         | OpenFOAM: The Open Source CFD Toolbox           |
|  \\    /   O peration     | Version:  2412                                  |
|   \\  /    A nd           | Website:  www.openfoam.com                      |
|    \\/     M anipulation  |                                                 |
\*---------------------------------------------------------------------------*/
FoamFile
{
    version     2.0;
    format      ascii;
    arch        "LSB;label=32;scalar=64";
    class       volScalarField;
    location    "0.9";
    object      epsilon;
}
// * * * * * * * * * * * * * * * * * * * * * * * * * * * * * * * * * * * * * //

dimensions      [0 2 -3 0 0 0 0];

internalField   nonuniform List<scalar> 
13068
(
376.631
376.739
378.642
383.816
395.831
423.08
481.955
595.673
784.61
1050.16
1364.06
1676.7
1939.55
2125.65
2232.3
2275.66
2277.45
2260
2238.39
2224.42
2222.68
2238.5
2271.47
2325.42
2397.39
2492.34
2605.59
2745.62
2905.66
3100.16
3318.49
3584.88
3881.6
4249.58
4658.68
5179.44
5759.66
6523.98
7381.84
8562.04
9907.45
11843.5
14070.3
17335.2
20969.6
26098.6
31229
37640.9
43115.8
47728.4
50303.7
43105.2
34490.1
19242.9
12779
10240
10244.3
11484.6
13654.2
14591.3
14975.1
14205
13243
11867.6
10648
9402.66
8399.77
7486.01
6776.39
6155.84
5674.14
5255.54
4923.84
4631.37
4388.6
4165.71
3966.36
3773.68
3589.04
3406.04
3225.65
3049.05
2876.08
2712.37
2554.96
2411.59
2275.11
2154.55
2038.42
1937.45
1836.42
1748.47
1655.59
1573.5
1482.61
1400.62
1307.87
1223.88
1132.72
376.631
376.741
378.645
383.82
395.837
423.087
481.96
595.67
784.586
1050.11
1364.01
1676.66
1939.56
2125.71
2232.42
2275.81
2277.62
2260.17
2238.56
2224.59
2222.84
2238.66
2271.63
2325.59
2397.56
2492.51
2605.77
2745.82
2905.87
3100.39
3318.74
3585.15
3881.91
4249.94
4659.09
5179.92
5760.18
6524.55
7382.45
8562.7
9908.16
11844.3
14071.3
17336.5
20971.6
26101.5
31233
37646.1
43121.6
47734.2
50308.8
43109.3
34494.3
19245.7
12780.7
10240.9
10244.6
11484.4
13653.9
14591.5
14975.8
14206.1
13244.2
11868.8
10649.2
9403.78
8400.81
7486.94
6777.21
6156.58
5674.83
5256.18
4924.45
4631.94
4389.13
4166.19
3966.81
3774.09
3589.41
3406.39
3225.99
3049.38
2876.39
2712.68
2555.26
2411.9
2275.42
2154.88
2038.76
1937.81
1836.79
1748.86
1655.99
1573.9
1482.99
1400.98
1308.2
1224.16
1132.94
376.633
376.743
378.649
383.827
395.847
423.102
481.98
595.686
784.586
1050.08
1363.96
1676.62
1939.56
2125.77
2232.53
2275.96
2277.78
2260.33
2238.71
2224.74
2222.98
2238.8
2271.78
2325.74
2397.72
2492.68
2605.95
2746.01
2906.07
3100.61
3318.99
3585.43
3882.22
4250.3
4659.51
5180.39
5760.7
6525.12
7383.04
8563.33
9908.84
11845.1
14072.2
17337.9
20973.5
26104.4
31237.1
37651.5
43127.6
47740.5
50314.6
43114.4
34499.8
19249.5
12783.3
10242.7
10245.7
11484.8
13654
14591.9
14976.7
14207.3
13245.5
11870
10650.4
9404.92
8401.86
7487.87
6778.04
6157.32
5675.52
5256.83
4925.06
4632.51
4389.66
4166.69
3967.27
3774.51
3589.81
3406.77
3226.35
3049.72
2876.73
2713.01
2555.59
2412.22
2275.75
2155.21
2039.11
1938.18
1837.18
1749.27
1656.4
1574.31
1483.4
1401.36
1308.55
1224.46
1133.18
376.634
376.747
378.655
383.835
395.861
423.125
482.014
595.726
784.611
1050.08
1363.92
1676.58
1939.55
2125.81
2232.62
2276.08
2277.91
2260.45
2238.83
2224.85
2223.1
2238.92
2271.89
2325.86
2397.86
2492.83
2606.11
2746.18
2906.26
3100.82
3319.21
3585.68
3882.51
4250.64
4659.9
5180.83
5761.19
6525.64
7383.59
8563.9
9909.45
11845.8
14073.1
17339.1
20975.3
26107.2
31241.1
37656.9
43133.6
47747
50320.9
43120.3
34506.4
19254.2
12786.6
10245.3
10247.5
11485.7
13654.5
14592.6
14977.8
14208.5
13246.7
11871.2
10651.5
9406.02
8402.87
7488.77
6778.82
6158.02
5676.17
5257.45
4925.64
4633.06
4390.18
4167.18
3967.72
3774.93
3590.2
3407.14
3226.71
3050.07
2877.06
2713.34
2555.91
2412.54
2276.07
2155.54
2039.46
1938.55
1837.57
1749.68
1656.82
1574.74
1483.81
1401.76
1308.91
1224.78
1133.45
376.636
376.751
378.662
383.847
395.88
423.158
482.065
595.789
784.665
1050.09
1363.9
1676.54
1939.54
2125.84
2232.68
2276.17
2278
2260.54
2238.91
2224.93
2223.17
2238.99
2271.98
2325.96
2397.96
2492.95
2606.24
2746.33
2906.42
3101
3319.41
3585.91
3882.77
4250.94
4660.25
5181.23
5761.63
6526.11
7384.07
8564.39
9909.96
11846.3
14073.8
17340.1
20977
26109.9
31245
37662.2
43139.6
47753.6
50327.4
43126.6
34513.9
19259.7
12790.5
10248.4
10250
11487.1
13655.3
14593.4
14978.9
14209.7
13247.9
11872.3
10652.6
9407.02
8403.8
7489.59
6779.53
6158.66
5676.77
5258.01
4926.19
4633.58
4390.67
4167.64
3968.15
3775.33
3590.58
3407.5
3227.05
3050.41
2877.39
2713.66
2556.22
2412.85
2276.38
2155.87
2039.8
1938.92
1837.95
1750.08
1657.24
1575.17
1484.24
1402.17
1309.29
1225.12
1133.73
376.638
376.756
378.67
383.86
395.904
423.2
482.132
595.876
784.748
1050.14
1363.89
1676.5
1939.51
2125.85
2232.73
2276.23
2278.06
2260.59
2238.94
2224.96
2223.2
2239.03
2272.03
2326.02
2398.04
2493.04
2606.35
2746.44
2906.55
3101.15
3319.59
3586.11
3883
4251.21
4660.56
5181.59
5762.02
6526.52
7384.48
8564.8
9910.37
11846.8
14074.4
17341.1
20978.5
26112.4
31248.7
37667.3
43145.3
47760.1
50334.2
43133.5
34522.3
19265.9
12795.1
10252.2
10253
11488.9
13656.5
14594.4
14980
14210.9
13249
11873.3
10653.5
9407.93
8404.64
7490.33
6780.17
6159.24
5677.3
5258.52
4926.68
4634.06
4391.13
4168.07
3968.56
3775.72
3590.95
3407.85
3227.39
3050.73
2877.71
2713.97
2556.52
2413.14
2276.69
2156.19
2040.13
1939.27
1838.34
1750.49
1657.66
1575.6
1484.67
1402.58
1309.68
1225.47
1134.03
376.641
376.762
378.68
383.877
395.932
423.251
482.216
595.988
784.859
1050.21
1363.9
1676.47
1939.47
2125.84
2232.74
2276.25
2278.08
2260.59
2238.94
2224.94
2223.19
2239.03
2272.04
2326.05
2398.08
2493.1
2606.42
2746.53
2906.66
3101.27
3319.73
3586.27
3883.2
4251.44
4660.84
5181.9
5762.36
6526.86
7384.81
8565.11
9910.66
11847.1
14074.8
17341.8
20979.8
26114.7
31252.2
37672.2
43150.9
47766.6
50341.1
43140.8
34531.5
19272.9
12800.2
10256.7
10256.7
11491.3
13658
14595.6
14981.2
14212.1
13250
11874.2
10654.4
9408.74
8405.39
7490.98
6780.73
6159.74
5677.77
5258.98
4927.13
4634.49
4391.55
4168.48
3968.94
3776.08
3591.3
3408.19
3227.71
3051.05
2878.01
2714.26
2556.81
2413.43
2276.98
2156.49
2040.46
1939.62
1838.71
1750.89
1658.08
1576.03
1485.1
1403.01
1310.08
1225.84
1134.34
376.644
376.768
378.691
383.895
395.965
423.31
482.315
596.125
785
1050.3
1363.92
1676.43
1939.43
2125.81
2232.74
2276.25
2278.06
2260.56
2238.88
2224.89
2223.14
2239
2272.02
2326.05
2398.1
2493.13
2606.47
2746.6
2906.74
3101.36
3319.84
3586.4
3883.36
4251.63
4661.07
5182.17
5762.65
6527.15
7385.07
8565.34
9910.85
11847.3
14075.1
17342.4
20980.9
26116.8
31255.4
37676.9
43156.2
47773.1
50348.3
43148.6
34541.6
19280.5
12805.9
10261.8
10261
11494.1
13659.7
14596.9
14982.5
14213.2
13251
11875
10655.1
9409.44
8406.04
7491.55
6781.21
6160.16
5678.17
5259.37
4927.52
4634.89
4391.94
4168.85
3969.3
3776.43
3591.63
3408.51
3228.02
3051.35
2878.31
2714.55
2557.09
2413.71
2277.26
2156.78
2040.77
1939.97
1839.08
1751.29
1658.5
1576.47
1485.54
1403.44
1310.49
1226.22
1134.67
376.648
376.776
378.703
383.916
396.003
423.379
482.431
596.285
785.169
1050.42
1363.95
1676.4
1939.37
2125.77
2232.71
2276.22
2278.01
2260.48
2238.79
2224.79
2223.05
2238.92
2271.96
2326.01
2398.08
2493.13
2606.49
2746.63
2906.79
3101.43
3319.92
3586.5
3883.48
4251.79
4661.26
5182.38
5762.88
6527.37
7385.26
8565.47
9910.93
11847.4
14075.2
17342.7
20981.8
26118.7
31258.5
37681.4
43161.4
47779.6
50355.7
43156.8
34552.6
19289
12812.3
10267.5
10266
11497.4
13661.8
14598.4
14983.8
14214.3
13251.8
11875.7
10655.7
9410.04
8406.59
7492.03
6781.61
6160.52
5678.51
5259.71
4927.87
4635.24
4392.29
4169.2
3969.64
3776.75
3591.94
3408.81
3228.32
3051.64
2878.59
2714.82
2557.35
2413.97
2277.52
2157.07
2041.08
1940.3
1839.45
1751.69
1658.92
1576.91
1485.98
1403.88
1310.92
1226.62
1135.02
376.652
376.784
378.718
383.94
396.045
423.457
482.563
596.471
785.367
1050.57
1364
1676.37
1939.3
2125.7
2232.65
2276.15
2277.92
2260.36
2238.65
2224.65
2222.91
2238.8
2271.87
2325.94
2398.03
2493.1
2606.48
2746.63
2906.8
3101.46
3319.97
3586.57
3883.58
4251.91
4661.41
5182.56
5763.05
6527.52
7385.36
8565.51
9910.9
11847.3
14075.2
17343
20982.6
26120.4
31261.3
37685.8
43166.4
47786
50363.2
43165.5
34564.4
19298.1
12819.2
10273.8
10271.5
11501.2
13664.2
14600.1
14985.1
14215.4
13252.6
11876.3
10656.2
9410.54
8407.05
7492.42
6781.94
6160.8
5678.78
5260
4928.16
4635.55
4392.61
4169.51
3969.95
3777.05
3592.23
3409.1
3228.6
3051.91
2878.85
2715.08
2557.6
2414.22
2277.78
2157.34
2041.37
1940.63
1839.8
1752.08
1659.34
1577.35
1486.43
1404.33
1311.35
1227.03
1135.38
376.656
376.793
378.733
383.966
396.092
423.545
482.711
596.68
785.594
1050.74
1364.07
1676.34
1939.23
2125.62
2232.57
2276.06
2277.8
2260.2
2238.47
2224.46
2222.74
2238.64
2271.73
2325.83
2397.95
2493.04
2606.43
2746.61
2906.8
3101.47
3319.99
3586.61
3883.63
4251.99
4661.52
5182.68
5763.17
6527.61
7385.39
8565.46
9910.75
11847.1
14075
17343
20983.1
26122
31264
37689.9
43171.2
47792.4
50371
43174.7
34577.1
19308.1
12826.8
10280.8
10277.7
11505.4
13666.9
14602
14986.5
14216.4
13253.3
11876.8
10656.6
9410.93
8407.42
7492.74
6782.18
6161.01
5678.99
5260.22
4928.41
4635.82
4392.89
4169.8
3970.23
3777.33
3592.51
3409.37
3228.87
3052.18
2879.11
2715.32
2557.84
2414.46
2278.03
2157.6
2041.66
1940.95
1840.16
1752.47
1659.75
1577.79
1486.89
1404.79
1311.8
1227.45
1135.76
376.66
376.803
378.75
383.994
396.144
423.641
482.876
596.914
785.85
1050.94
1364.15
1676.31
1939.14
2125.52
2232.47
2275.93
2277.63
2260
2238.25
2224.23
2222.52
2238.45
2271.56
2325.69
2397.83
2492.95
2606.36
2746.55
2906.76
3101.44
3319.98
3586.61
3883.66
4252.03
4661.58
5182.75
5763.24
6527.64
7385.35
8565.31
9910.5
11846.7
14074.7
17342.9
20983.5
26123.3
31266.4
37693.9
43175.8
47798.8
50378.9
43184.4
34590.8
19318.7
12835
10288.4
10284.5
11510.2
13669.9
14604
14988
14217.4
13253.9
11877.1
10656.9
9411.23
8407.7
7492.96
6782.35
6161.15
5679.13
5260.39
4928.61
4636.04
4393.13
4170.05
3970.49
3777.59
3592.77
3409.63
3229.13
3052.43
2879.35
2715.56
2558.07
2414.68
2278.26
2157.85
2041.94
1941.26
1840.51
1752.86
1660.17
1578.24
1487.35
1405.26
1312.25
1227.89
1136.15
376.666
376.814
378.768
384.025
396.201
423.746
483.057
597.172
786.134
1051.16
1364.24
1676.29
1939.05
2125.41
2232.34
2275.78
2277.43
2259.76
2237.98
2223.96
2222.26
2238.21
2271.36
2325.51
2397.69
2492.82
2606.26
2746.47
2906.69
3101.38
3319.93
3586.58
3883.64
4252.04
4661.6
5182.78
5763.25
6527.6
7385.23
8565.07
9910.14
11846.3
14074.2
17342.6
20983.6
26124.5
31268.7
37697.7
43180.2
47805.1
50387.1
43194.5
34605.3
19330.2
12843.8
10296.7
10292
11515.4
13673.3
14606.2
14989.5
14218.4
13254.4
11877.4
10657.1
9411.42
8407.89
7493.11
6782.44
6161.22
5679.21
5260.5
4928.76
4636.23
4393.34
4170.28
3970.72
3777.83
3593.01
3409.87
3229.37
3052.66
2879.58
2715.78
2558.28
2414.9
2278.48
2158.09
2042.21
1941.56
1840.85
1753.24
1660.59
1578.69
1487.81
1405.73
1312.72
1228.34
1136.56
376.671
376.826
378.788
384.059
396.262
423.861
483.254
597.455
786.447
1051.41
1364.35
1676.26
1938.95
2125.27
2232.19
2275.59
2277.2
2259.48
2237.67
2223.64
2221.96
2237.94
2271.12
2325.3
2397.51
2492.67
2606.14
2746.36
2906.59
3101.3
3319.86
3586.52
3883.6
4252.01
4661.59
5182.76
5763.21
6527.5
7385.03
8564.75
9909.67
11845.7
14073.6
17342.1
20983.6
26125.4
31270.7
37701.3
43184.5
47811.4
50395.5
43205.2
34620.8
19342.4
12853.2
10305.6
10300.1
11521.1
13677
14608.5
14991.1
14219.4
13254.9
11877.6
10657.2
9411.52
8407.98
7493.17
6782.46
6161.22
5679.23
5260.56
4928.86
4636.37
4393.52
4170.48
3970.93
3778.05
3593.23
3410.1
3229.6
3052.89
2879.8
2715.99
2558.48
2415.1
2278.69
2158.32
2042.47
1941.86
1841.18
1753.62
1661
1579.14
1488.28
1406.22
1313.2
1228.81
1136.99
376.677
376.839
378.809
384.095
396.328
423.984
483.467
597.761
786.789
1051.68
1364.48
1676.24
1938.84
2125.12
2232.01
2275.37
2276.93
2259.16
2237.32
2223.28
2221.62
2237.62
2270.84
2325.06
2397.3
2492.49
2605.98
2746.22
2906.47
3101.19
3319.76
3586.43
3883.52
4251.94
4661.53
5182.7
5763.12
6527.33
7384.76
8564.33
9909.08
11845
14072.8
17341.5
20983.5
26126.2
31272.6
37704.7
43188.5
47817.7
50404.1
43216.4
34637.2
19355.4
12863.3
10315.2
10308.8
11527.3
13681
14611.1
14992.8
14220.4
13255.3
11877.7
10657.2
9411.53
8407.99
7493.15
6782.4
6161.15
5679.18
5260.56
4928.92
4636.47
4393.66
4170.64
3971.12
3778.25
3593.44
3410.31
3229.82
3053.1
2880.01
2716.18
2558.67
2415.29
2278.89
2158.54
2042.72
1942.15
1841.52
1754
1661.42
1579.59
1488.76
1406.71
1313.69
1229.29
1137.43
376.683
376.852
378.832
384.134
396.398
424.117
483.697
598.092
787.158
1051.97
1364.62
1676.22
1938.71
2124.96
2231.81
2275.13
2276.63
2258.8
2236.93
2222.88
2221.23
2237.27
2270.52
2324.78
2397.06
2492.28
2605.79
2746.05
2906.31
3101.04
3319.62
3586.3
3883.4
4251.83
4661.42
5182.58
5762.97
6527.1
7384.41
8563.82
9908.39
11844.1
14071.8
17340.7
20983.1
26126.8
31274.2
37708
43192.4
47824
50413
43228.1
34654.5
19369.3
12874.1
10325.4
10318.2
11534.1
13685.4
14613.8
14994.6
14221.3
13255.6
11877.7
10657.1
9411.45
8407.92
7493.06
6782.27
6161.02
5679.08
5260.51
4928.92
4636.54
4393.77
4170.78
3971.28
3778.43
3593.63
3410.51
3230.02
3053.3
2880.2
2716.37
2558.85
2415.47
2279.08
2158.75
2042.96
1942.43
1841.84
1754.37
1661.84
1580.05
1489.24
1407.21
1314.19
1229.78
1137.89
376.69
376.866
378.856
384.175
396.474
424.259
483.942
598.446
787.556
1052.3
1364.77
1676.2
1938.58
2124.77
2231.59
2274.86
2276.29
2258.4
2236.49
2222.44
2220.81
2236.88
2270.17
2324.47
2396.78
2492.04
2605.57
2745.85
2906.13
3100.87
3319.46
3586.14
3883.25
4251.68
4661.28
5182.42
5762.76
6526.81
7383.99
8563.21
9907.59
11843.1
14070.7
17339.7
20982.5
26127.2
31275.7
37711
43196.2
47830.3
50422.1
43240.3
34672.8
19383.9
12885.5
10336.4
10328.3
11541.3
13690.1
14616.8
14996.4
14222.3
13255.9
11877.6
10656.9
9411.27
8407.76
7492.89
6782.07
6160.82
5678.91
5260.4
4928.89
4636.56
4393.84
4170.9
3971.42
3778.59
3593.81
3410.7
3230.21
3053.49
2880.38
2716.54
2559.02
2415.63
2279.25
2158.95
2043.19
1942.71
1842.16
1754.75
1662.25
1580.51
1489.73
1407.72
1314.71
1230.29
1138.36
376.697
376.881
378.882
384.218
396.554
424.41
484.204
598.825
787.982
1052.64
1364.93
1676.18
1938.44
2124.57
2231.35
2274.55
2275.91
2257.96
2236.01
2221.96
2220.34
2236.45
2269.79
2324.13
2396.48
2491.77
2605.33
2745.63
2905.92
3100.67
3319.27
3585.95
3883.07
4251.5
4661.09
5182.21
5762.5
6526.45
7383.49
8562.52
9906.68
11842
14069.5
17338.6
20981.8
26127.4
31276.9
37714
43199.7
47836.6
50431.5
43253.1
34692.1
19399.4
12897.7
10348
10339
11549.1
13695.2
14620
14998.3
14223.2
13256.1
11877.4
10656.6
9411.01
8407.52
7492.64
6781.79
6160.56
5678.69
5260.25
4928.8
4636.55
4393.88
4170.98
3971.54
3778.73
3593.97
3410.87
3230.39
3053.67
2880.56
2716.71
2559.18
2415.79
2279.42
2159.14
2043.41
1942.98
1842.48
1755.12
1662.67
1580.97
1490.22
1408.24
1315.23
1230.82
1138.85
376.704
376.897
378.909
384.264
396.639
424.57
484.482
599.227
788.437
1053.01
1365.11
1676.16
1938.3
2124.36
2231.08
2274.22
2275.5
2257.48
2235.49
2221.43
2219.83
2235.98
2269.36
2323.75
2396.14
2491.46
2605.05
2745.37
2905.68
3100.43
3319.04
3585.73
3882.85
4251.28
4660.87
5181.96
5762.19
6526.03
7382.91
8561.74
9905.67
11840.7
14068.1
17337.3
20980.9
26127.4
31278
37716.7
43203.1
47842.9
50441.1
43266.4
34712.4
19415.7
12910.5
10360.3
10350.5
11557.4
13700.6
14623.4
15000.3
14224.2
13256.3
11877.2
10656.2
9410.67
8407.21
7492.32
6781.46
6160.23
5678.41
5260.04
4928.67
4636.5
4393.89
4171.04
3971.63
3778.85
3594.11
3411.03
3230.55
3053.84
2880.72
2716.86
2559.32
2415.93
2279.58
2159.32
2043.63
1943.24
1842.79
1755.48
1663.08
1581.44
1490.72
1408.77
1315.77
1231.36
1139.36
376.712
376.914
378.937
384.313
396.728
424.739
484.776
599.654
788.919
1053.41
1365.31
1676.14
1938.14
2124.13
2230.79
2273.86
2275.06
2256.97
2234.93
2220.86
2219.29
2235.47
2268.9
2323.34
2395.77
2491.13
2604.75
2745.09
2905.41
3100.17
3318.78
3585.47
3882.59
4251.02
4660.6
5181.65
5761.82
6525.54
7382.26
8560.86
9904.54
11839.4
14066.6
17335.8
20979.8
26127.3
31278.9
37719.2
43206.3
47849.3
50451
43280.3
34733.7
19432.9
12924
10373.4
10362.6
11566.2
13706.4
14627
15002.5
14225.2
13256.5
11876.9
10655.8
9410.24
8406.81
7491.93
6781.05
6159.84
5678.07
5259.78
4928.5
4636.41
4393.87
4171.07
3971.7
3778.95
3594.24
3411.18
3230.71
3054
2880.87
2717
2559.46
2416.07
2279.72
2159.49
2043.84
1943.49
1843.1
1755.85
1663.5
1581.91
1491.23
1409.31
1316.32
1231.91
1139.88
376.72
376.932
378.967
384.364
396.822
424.917
485.086
600.104
789.429
1053.83
1365.51
1676.13
1937.97
2123.88
2230.48
2273.48
2274.58
2256.41
2234.33
2220.25
2218.7
2234.92
2268.41
2322.9
2395.38
2490.77
2604.42
2744.77
2905.11
3099.88
3318.5
3585.19
3882.3
4250.72
4660.29
5181.3
5761.4
6524.99
7381.54
8559.9
9903.31
11837.8
14064.9
17334.1
20978.5
26127
31279.6
37721.7
43209.4
47855.6
50461.2
43294.8
34756.1
19450.9
12938.3
10387.2
10375.4
11575.6
13712.7
14630.8
15004.7
14226.2
13256.6
11876.5
10655.2
9409.74
8406.34
7491.47
6780.58
6159.39
5677.68
5259.47
4928.29
4636.28
4393.82
4171.08
3971.75
3779.03
3594.35
3411.31
3230.85
3054.14
2881.01
2717.13
2559.58
2416.19
2279.86
2159.65
2044.03
1943.74
1843.4
1756.21
1663.92
1582.38
1491.74
1409.85
1316.88
1232.48
1140.43
376.729
376.951
378.999
384.418
396.922
425.105
485.412
600.578
789.966
1054.27
1365.74
1676.11
1937.8
2123.62
2230.15
2273.06
2274.07
2255.82
2233.68
2219.59
2218.07
2234.34
2267.88
2322.42
2394.95
2490.38
2604.05
2744.43
2904.78
3099.56
3318.18
3584.87
3881.98
4250.39
4659.93
5180.9
5760.93
6524.38
7380.73
8558.84
9901.97
11836.2
14063
17332.3
20977.1
26126.5
31280.1
37723.9
43212.3
47862
50471.7
43309.9
34779.5
19469.9
12953.3
10401.7
10389
11585.6
13719.3
14634.9
15007.1
14227.2
13256.7
11876.1
10654.6
9409.16
8405.8
7490.94
6780.04
6158.89
5677.23
5259.12
4928.03
4636.12
4393.73
4171.06
3971.78
3779.1
3594.45
3411.43
3230.99
3054.27
2881.14
2717.25
2559.69
2416.3
2279.98
2159.81
2044.23
1943.99
1843.7
1756.57
1664.33
1582.85
1492.26
1410.41
1317.45
1233.06
1140.99
376.738
376.97
379.032
384.474
397.026
425.301
485.755
601.076
790.531
1054.74
1365.97
1676.1
1937.62
2123.34
2229.8
2272.62
2273.53
2255.19
2233
2218.9
2217.4
2233.72
2267.31
2321.91
2394.48
2489.96
2603.66
2744.06
2904.43
3099.21
3317.83
3584.52
3881.62
4250.02
4659.54
5180.46
5760.4
6523.71
7379.86
8557.7
9900.52
11834.4
14061.1
17330.4
20975.4
26125.8
31280.4
37726
43215.1
47868.4
50482.5
43325.6
34804
19489.7
12969
10417
10403.3
11596.2
13726.3
14639.3
15009.6
14228.3
13256.7
11875.6
10653.9
9408.51
8405.19
7490.35
6779.45
6158.32
5676.73
5258.71
4927.73
4635.92
4393.62
4171.01
3971.79
3779.15
3594.53
3411.54
3231.11
3054.4
2881.25
2717.36
2559.79
2416.41
2280.1
2159.95
2044.41
1944.22
1843.99
1756.93
1664.75
1583.33
1492.78
1410.97
1318.04
1233.66
1141.56
376.747
376.99
379.066
384.533
397.134
425.507
486.113
601.597
791.124
1055.23
1366.22
1676.09
1937.43
2123.04
2229.43
2272.16
2272.96
2254.52
2232.27
2218.16
2216.69
2233.06
2266.71
2321.36
2393.99
2489.5
2603.24
2743.67
2904.04
3098.83
3317.46
3584.13
3881.23
4249.61
4659.1
5179.96
5759.81
6522.97
7378.91
8556.46
9898.97
11832.6
14058.9
17328.2
20973.6
26124.9
31280.6
37727.9
43217.8
47874.8
50493.5
43341.9
34829.6
19510.5
12985.5
10433
10418.3
11607.3
13733.7
14643.9
15012.2
14229.4
13256.8
11875
10653.2
9407.79
8404.52
7489.69
6778.79
6157.7
5676.17
5258.26
4927.39
4635.69
4393.48
4170.94
3971.77
3779.18
3594.6
3411.63
3231.22
3054.51
2881.36
2717.46
2559.89
2416.5
2280.2
2160.08
2044.58
1944.45
1844.28
1757.29
1665.17
1583.81
1493.31
1411.55
1318.64
1234.28
1142.16
376.757
377.012
379.102
384.595
397.248
425.722
486.488
602.142
791.744
1055.74
1366.48
1676.08
1937.23
2122.74
2229.04
2271.66
2272.35
2253.81
2231.51
2217.39
2215.94
2232.36
2266.07
2320.78
2393.47
2489.02
2602.8
2743.24
2903.63
3098.42
3317.05
3583.71
3880.81
4249.16
4658.63
5179.42
5759.18
6522.16
7377.88
8555.14
9897.3
11830.5
14056.6
17326
20971.7
26123.9
31280.6
37729.7
43220.3
47881.3
50504.9
43358.9
34856.3
19532.3
13002.9
10449.8
10434.1
11619.1
13741.6
14648.7
15015
14230.6
13256.8
11874.4
10652.4
9407.01
8403.77
7488.98
6778.08
6157.02
5675.57
5257.77
4927.01
4635.42
4393.3
4170.84
3971.74
3779.2
3594.66
3411.72
3231.32
3054.62
2881.46
2717.55
2559.97
2416.58
2280.3
2160.21
2044.75
1944.68
1844.57
1757.64
1665.59
1584.3
1493.85
1412.13
1319.25
1234.91
1142.77
376.767
377.034
379.14
384.659
397.366
425.946
486.878
602.711
792.392
1056.28
1366.76
1676.08
1937.02
2122.41
2228.62
2271.14
2271.71
2253.07
2230.7
2216.57
2215.15
2231.62
2265.4
2320.17
2392.91
2488.51
2602.32
2742.78
2903.19
3097.99
3316.61
3583.27
3880.35
4248.67
4658.11
5178.84
5758.48
6521.3
7376.79
8553.72
9895.54
11828.4
14054.2
17323.5
20969.5
26122.7
31280.4
37731.4
43222.6
47887.9
50516.7
43376.5
34884.1
19555
13021
10467.5
10450.7
11631.5
13749.9
14653.9
15017.9
14231.8
13256.8
11873.8
10651.5
9406.16
8402.97
7488.2
6777.3
6156.29
5674.92
5257.23
4926.59
4635.12
4393.1
4170.72
3971.68
3779.2
3594.7
3411.79
3231.41
3054.71
2881.55
2717.63
2560.04
2416.65
2280.39
2160.32
2044.91
1944.9
1844.85
1758
1666.01
1584.79
1494.39
1412.73
1319.87
1235.56
1143.39
376.778
377.057
379.179
384.725
397.49
426.18
487.285
603.303
793.067
1056.84
1367.05
1676.07
1936.81
2122.08
2228.19
2270.6
2271.04
2252.28
2229.86
2215.71
2214.32
2230.85
2264.69
2319.53
2392.32
2487.97
2601.81
2742.3
2902.72
3097.52
3316.14
3582.79
3879.85
4248.15
4657.54
5178.2
5757.74
6520.37
7375.61
8552.22
9893.66
11826.1
14051.7
17320.9
20967.2
26121.4
31280
37732.9
43224.9
47894.5
50528.7
43394.8
34913.1
19578.7
13040
10485.9
10468
11644.5
13758.7
14659.4
15021
14233.1
13256.8
11873.2
10650.6
9405.26
8402.11
7487.37
6776.48
6155.51
5674.22
5256.64
4926.13
4634.79
4392.87
4170.58
3971.61
3779.19
3594.73
3411.85
3231.49
3054.8
2881.63
2717.7
2560.1
2416.71
2280.46
2160.43
2045.06
1945.11
1845.13
1758.35
1666.43
1585.28
1494.94
1413.33
1320.51
1236.22
1144.04
376.789
377.081
379.219
384.795
397.618
426.423
487.708
603.918
793.769
1057.43
1367.35
1676.07
1936.58
2121.72
2227.74
2270.03
2270.33
2251.47
2228.97
2214.81
2213.45
2230.03
2263.94
2318.85
2391.71
2487.4
2601.28
2741.79
2902.22
3097.02
3315.64
3582.27
3879.32
4247.59
4656.94
5177.52
5756.94
6519.38
7374.36
8550.63
9891.68
11823.7
14049
17318.1
20964.7
26119.9
31279.5
37734.2
43227
47901.2
50541.2
43413.7
34943.3
19603.4
13059.8
10505.2
10486.2
11658.1
13767.9
14665.1
15024.3
14234.5
13256.9
11872.5
10649.7
9404.3
8401.2
7486.48
6775.6
6154.68
5673.47
5256.02
4925.64
4634.42
4392.62
4170.42
3971.52
3779.15
3594.75
3411.9
3231.56
3054.87
2881.7
2717.76
2560.15
2416.77
2280.53
2160.53
2045.21
1945.32
1845.4
1758.7
1666.85
1585.78
1495.5
1413.95
1321.16
1236.9
1144.7
376.8
377.105
379.261
384.866
397.751
426.675
488.147
604.557
794.498
1058.04
1367.66
1676.06
1936.35
2121.36
2227.27
2269.43
2269.6
2250.61
2228.05
2213.87
2212.54
2229.18
2263.17
2318.14
2391.06
2486.8
2600.72
2741.25
2901.69
3096.5
3315.11
3581.73
3878.76
4246.99
4656.3
5176.79
5756.08
6518.32
7373.04
8548.94
9889.6
11821.2
14046.1
17315.2
20962.1
26118.2
31278.8
37735.4
43229
47907.9
50553.9
43433.4
34974.7
19629.2
13080.4
10525.4
10505.2
11672.4
13777.7
14671.2
15027.7
14236
13256.9
11871.8
10648.7
9403.29
8400.23
7485.54
6774.67
6153.8
5672.67
5255.35
4925.11
4634.02
4392.34
4170.23
3971.41
3779.11
3594.75
3411.94
3231.62
3054.94
2881.76
2717.81
2560.2
2416.81
2280.59
2160.62
2045.35
1945.52
1845.67
1759.05
1667.27
1586.28
1496.06
1414.57
1321.82
1237.59
1145.39
376.812
377.131
379.305
384.941
397.889
426.936
488.602
605.22
795.253
1058.67
1367.99
1676.06
1936.12
2120.98
2226.78
2268.81
2268.84
2249.72
2227.08
2212.89
2211.6
2228.3
2262.35
2317.4
2390.38
2486.17
2600.12
2740.68
2901.14
3095.94
3314.55
3581.15
3878.16
4246.36
4655.61
5176.01
5755.18
6517.2
7371.65
8547.17
9887.41
11818.6
14043.1
17312.1
20959.3
26116.4
31278
37736.5
43230.9
47914.8
50567.1
43453.7
35007.3
19656
13102
10546.4
10525
11687.4
13787.9
14677.6
15031.4
14237.6
13257
11871
10647.6
9402.23
8399.21
7484.55
6773.7
6152.87
5671.84
5254.64
4924.54
4633.6
4392.03
4170.02
3971.28
3779.05
3594.75
3411.98
3231.67
3055
2881.82
2717.85
2560.23
2416.85
2280.64
2160.71
2045.48
1945.71
1845.94
1759.39
1667.69
1586.79
1496.63
1415.2
1322.49
1238.3
1146.09
376.824
377.158
379.35
385.018
398.032
427.207
489.073
605.905
796.036
1059.33
1368.34
1676.07
1935.87
2120.59
2226.27
2268.17
2268.04
2248.8
2226.08
2211.87
2210.61
2227.37
2261.5
2316.62
2389.67
2485.51
2599.5
2740.08
2900.55
3095.36
3313.96
3580.54
3877.53
4245.68
4654.88
5175.19
5754.21
6516.02
7370.18
8545.32
9885.11
11815.8
14040
17308.9
20956.3
26114.4
31277
37737.5
43232.7
47921.7
50580.6
43474.8
35041.1
19683.9
13124.5
10568.3
10545.7
11703.1
13798.6
14684.4
15035.3
14239.2
13257.1
11870.3
10646.5
9401.13
8398.14
7483.52
6772.67
6151.9
5670.96
5253.89
4923.94
4633.14
4391.69
4169.79
3971.14
3778.97
3594.73
3412
3231.72
3055.05
2881.86
2717.88
2560.25
2416.87
2280.68
2160.78
2045.61
1945.9
1846.2
1759.74
1668.12
1587.3
1497.2
1415.85
1323.18
1239.03
1146.8
376.837
377.185
379.397
385.098
398.179
427.487
489.56
606.614
796.845
1060.01
1368.69
1676.07
1935.62
2120.19
2225.74
2267.5
2267.22
2247.84
2225.04
2210.81
2209.58
2226.41
2260.62
2315.81
2388.93
2484.82
2598.85
2739.45
2899.94
3094.74
3313.34
3579.9
3876.86
4244.97
4654.11
5174.32
5753.2
6514.78
7368.63
8543.37
9882.71
11812.9
14036.7
17305.5
20953.2
26112.2
31275.8
37738.4
43234.4
47928.7
50594.6
43496.6
35076.2
19712.9
13147.9
10591.2
10567.3
11719.5
13809.9
14691.5
15039.4
14241
13257.3
11869.5
10645.4
9399.99
8397.03
7482.44
6771.6
6150.89
5670.03
5253.11
4923.3
4632.65
4391.34
4169.54
3970.98
3778.89
3594.7
3412.01
3231.75
3055.09
2881.9
2717.91
2560.27
2416.89
2280.71
2160.85
2045.72
1946.09
1846.46
1760.09
1668.54
1587.81
1497.79
1416.5
1323.88
1239.77
1147.54
376.85
377.214
379.445
385.181
398.332
427.776
490.063
607.346
797.681
1060.71
1369.06
1676.07
1935.36
2119.77
2225.2
2266.81
2266.36
2246.84
2223.96
2209.71
2208.52
2225.41
2259.7
2314.97
2388.16
2484.1
2598.18
2738.8
2899.3
3094.1
3312.69
3579.23
3876.16
4244.22
4653.3
5173.4
5752.13
6513.47
7367.02
8541.34
9880.21
11809.9
14033.3
17301.9
20949.9
26109.9
31274.5
37739.1
43236
47935.9
50608.9
43519.2
35112.7
19743
13172.3
10615
10589.7
11736.6
13821.7
14699
15043.7
14242.9
13257.5
11868.8
10644.3
9398.82
8395.88
7481.32
6770.49
6149.83
5669.07
5252.29
4922.63
4632.14
4390.95
4169.27
3970.8
3778.79
3594.66
3412.01
3231.78
3055.12
2881.93
2717.92
2560.28
2416.89
2280.74
2160.91
2045.84
1946.27
1846.72
1760.43
1668.97
1588.33
1498.38
1417.17
1324.59
1240.53
1148.29
376.864
377.243
379.495
385.266
398.49
428.075
490.582
608.1
798.544
1061.43
1369.44
1676.08
1935.1
2119.34
2224.64
2266.1
2265.48
2245.81
2222.84
2208.57
2207.41
2224.37
2258.75
2314.1
2387.35
2483.36
2597.47
2738.12
2898.63
3093.43
3312.01
3578.52
3875.42
4243.43
4652.44
5172.43
5751.01
6512.1
7365.33
8539.21
9877.6
11806.8
14029.7
17298.2
20946.4
26107.4
31273
37739.7
43237.5
47943.1
50623.7
43542.5
35150.4
19774.3
13197.6
10639.7
10613.1
11754.4
13834
14706.8
15048.2
14245
13257.8
11868.1
10643.2
9397.61
8394.69
7480.15
6769.34
6148.73
5668.07
5251.43
4921.93
4631.59
4390.55
4168.98
3970.6
3778.67
3594.61
3412.01
3231.8
3055.15
2881.95
2717.93
2560.28
2416.89
2280.75
2160.96
2045.94
1946.45
1846.97
1760.78
1669.4
1588.85
1498.98
1417.84
1325.32
1241.31
1149.07
376.878
377.273
379.546
385.354
398.653
428.383
491.117
608.878
799.432
1062.18
1369.84
1676.09
1934.83
2118.9
2224.06
2265.37
2264.57
2244.75
2221.69
2207.39
2206.27
2223.3
2257.76
2313.19
2386.52
2482.58
2596.73
2737.41
2897.93
3092.73
3311.29
3577.78
3874.65
4242.61
4651.55
5171.42
5749.83
6510.67
7363.56
8537
9874.89
11803.5
14026
17294.3
20942.8
26104.8
31271.4
37740.2
43238.9
47950.5
50638.9
43566.7
35189.5
19806.8
13224
10665.4
10637.4
11773.1
13847
14715.1
15053.1
14247.2
13258.1
11867.3
10642
9396.37
8393.46
7478.95
6768.15
6147.59
5667.03
5250.54
4921.2
4631.03
4390.12
4168.68
3970.39
3778.55
3594.55
3411.99
3231.81
3055.17
2881.96
2717.93
2560.27
2416.88
2280.76
2161
2046.04
1946.62
1847.22
1761.12
1669.83
1589.38
1499.58
1418.53
1326.06
1242.1
1149.86
376.892
377.304
379.599
385.444
398.821
428.701
491.668
609.679
800.347
1062.95
1370.25
1676.1
1934.55
2118.44
2223.47
2264.61
2263.63
2243.65
2220.49
2206.18
2205.09
2222.19
2256.73
2312.25
2385.66
2481.77
2595.97
2736.67
2897.21
3092
3310.55
3577.01
3873.84
4241.74
4650.61
5170.36
5748.6
6509.18
7361.73
8534.71
9872.07
11800.1
14022.2
17290.3
20939
26102.1
31269.7
37740.6
43240.2
47958
50654.5
43591.6
35230
19840.5
13251.4
10692.1
10662.7
11792.4
13860.5
14723.8
15058.1
14249.5
13258.5
11866.6
10640.8
9395.11
8392.2
7477.71
6766.92
6146.42
5665.96
5249.61
4920.44
4630.43
4389.67
4168.35
3970.17
3778.41
3594.48
3411.97
3231.82
3055.18
2881.97
2717.92
2560.25
2416.87
2280.76
2161.04
2046.13
1946.79
1847.47
1761.46
1670.26
1589.91
1500.19
1419.23
1326.82
1242.91
1150.67
376.907
377.336
379.653
385.538
398.994
429.027
492.235
610.503
801.289
1063.74
1370.67
1676.12
1934.26
2117.98
2222.86
2263.83
2262.66
2242.52
2219.26
2204.92
2203.87
2221.05
2255.68
2311.28
2384.76
2480.94
2595.18
2735.9
2896.45
3091.24
3309.78
3576.21
3873
4240.84
4649.63
5169.25
5747.32
6507.62
7359.82
8532.33
9869.16
11796.6
14018.2
17286.2
20935.1
26099.2
31267.8
37740.8
43241.4
47965.6
50670.6
43617.4
35271.9
19875.4
13279.8
10719.8
10688.9
11812.6
13874.6
14732.8
15063.5
14252
13259
11866
10639.7
9393.82
8390.91
7476.44
6765.66
6145.21
5664.85
5248.66
4919.65
4629.81
4389.2
4168
3969.93
3778.26
3594.4
3411.94
3231.81
3055.19
2881.96
2717.91
2560.22
2416.84
2280.75
2161.07
2046.22
1946.95
1847.71
1761.8
1670.69
1590.44
1500.81
1419.93
1327.58
1243.74
1151.5
376.922
377.369
379.709
385.634
399.172
429.364
492.819
611.35
802.256
1064.56
1371.11
1676.13
1933.97
2117.5
2222.23
2263.03
2261.67
2241.36
2217.99
2203.63
2202.62
2219.87
2254.59
2310.28
2383.84
2480.07
2594.36
2735.11
2895.67
3090.45
3308.97
3575.37
3872.13
4239.9
4648.61
5168.1
5745.98
6506
7357.83
8529.85