/*--------------------------------*- C++ -*----------------------------------*\
| =========                 |                                                 |
| \\      /  F ield         | OpenFOAM: The Open Source CFD Toolbox           |
|  \\    /   O peration     | Version:  2412                                  |
|   \\  /    A nd           | Website:  www.openfoam.com                      |
|    \\/     M anipulation  |                                                 |
\*---------------------------------------------------------------------------*/
FoamFile
{
    version     2.0;
    format      ascii;
    arch        "LSB;label=32;scalar=64";
    class       volScalarField;
    location    "0.9";
    object      k;
}
// * * * * * * * * * * * * * * * * * * * * * * * * * * * * * * * * * * * * * //

dimensions      [0 2 -2 0 0 0 0];

internalField   nonuniform List<scalar> 
13068
(
37.4772
37.5334
37.7621
38.321
39.5264
41.9408
46.3348
53.3168
62.7776
73.5968
83.981
92.29
97.6871
100.282
100.765
100.053
98.9148
97.9198
97.3189
97.2423
97.6406
98.5372
99.8364
101.6
103.715
106.302
109.212
112.653
116.411
120.821
125.559
131.154
137.099
144.231
151.75
160.985
170.659
182.895
195.668
212.413
229.902
253.553
277.954
311.014
343.3
385.096
421.258
463.447
494.996
518.501
527.153
463.567
390.141
247.332
183.332
175.28
206.771
236.37
263.533
269.468
269.089
256.627
244.173
227.626
213.813
199.354
187.955
177.01
168.505
160.56
154.304
148.494
143.782
139.345
135.52
131.771
128.264
124.702
121.183
117.611
114.042
110.521
107.042
103.735
100.503
97.5319
94.6112
91.9859
89.3264
86.9542
84.4237
82.151
79.5866
77.2451
74.5006
71.9511
68.9399
66.161
63.087
37.4773
37.5336
37.7623
38.3213
39.5268
41.9413
46.3352
53.3167
62.7767
73.5953
83.9795
92.2895
97.6881
100.285
100.769
100.057
98.9191
97.9239
97.3229
97.2461
97.6444
98.5411
99.8403
101.604
103.719
106.306
109.217
112.658
116.416
120.827
125.565
131.16
137.106
144.239
151.758
160.994
170.668
182.904
195.677
212.422
229.912
253.564
277.966
311.03
343.319
385.121
421.289
463.482
495.03
518.534
527.181
463.596
390.179
247.363
183.356
175.302
206.79
236.381
263.542
269.478
269.101
256.64
244.185
227.639
213.827
199.367
187.968
177.021
168.515
160.569
154.314
148.504
143.792
139.354
135.529
131.779
128.272
124.709
121.19
117.617
114.048
110.527
107.048
103.742
100.51
97.5388
94.6185
91.9937
89.3348
86.9633
84.4332
82.1609
79.5966
77.2548
74.5096
71.959
68.9463
66.1655
63.0893
37.4774
37.5337
37.7626
38.3218
39.5276
41.9425
46.3366
53.3178
62.7768
73.5942
83.9779
92.2885
97.6885
100.287
100.772
100.061
98.9228
97.9275
97.3263
97.2495
97.6479
98.5446
99.844
101.608
103.723
106.31
109.221
112.662
116.421
120.832
125.57
131.166
137.112
144.246
151.766
161.002
170.677
182.913
195.686
212.431
229.921
253.574
277.978
311.045
343.339
385.147
421.321
463.518
495.066
518.57
527.215
463.632
390.228
247.404
183.389
175.332
206.815
236.397
263.553
269.489
269.114
256.653
244.199
227.652
213.841
199.381
187.98
177.032
168.525
160.579
154.323
148.513
143.801
139.363
135.537
131.787
128.279
124.716
121.196
117.623
114.055
110.533
107.055
103.748
100.516
97.5459
94.626
92.0019
89.3436
86.9727
84.4432
82.1712
79.607
77.2651
74.5193
71.9677
68.9536
66.1709
63.0926
37.4775
37.534
37.7631
38.3226
39.5288
41.9444
46.339
53.3201
62.778
73.5938
83.9764
92.287
97.6881
100.288
100.774
100.064
98.9255
97.9301
97.3288
97.2521
97.6506
98.5475
99.8471
101.611
103.726
106.314
109.225
112.666
116.425
120.836
125.575
131.172
137.118
144.253
151.774
161.011
170.685
182.922
195.694
212.439
229.93
253.583
277.989
311.059
343.358
385.172
421.352
463.554
495.103
518.608
527.252
463.673
390.286
247.455
183.432
175.37
206.847
236.417
263.567
269.503
269.128
256.667
244.212
227.666
213.854
199.394
187.992
177.043
168.534
160.589
154.332
148.523
143.81
139.372
135.546
131.795
128.287
124.723
121.203
117.63
114.061
110.54
107.061
103.755
100.523
97.553
94.6336
92.01
89.3524
86.9822
84.4532
82.1818
79.6177
77.2757
74.5294
71.9769
68.9616
66.1772
63.0967
37.4776
37.5343
37.7636
38.3235
39.5305
41.947
46.3425
53.3236
62.7803
73.594
83.9748
92.2849
97.6869
100.288
100.775
100.065
98.9272
97.9317
97.3304
97.2537
97.6524
98.5496
99.8494
101.614
103.729
106.317
109.228
112.67
116.429
120.841
125.58
131.177
137.124
144.259
151.781
161.018
170.692
182.929
195.702
212.446
229.937
253.591
277.998
311.071
343.375
385.196
421.382
463.589
495.138
518.647
527.291
463.718
390.352
247.515
183.483
175.416
206.884
236.441
263.583
269.517
269.142
256.68
244.224
227.678
213.866
199.406
188.003
177.052
168.543
160.597
154.341
148.531
143.819
139.38
135.554
131.803
128.294
124.73
121.21
117.637
114.067
110.546
107.068
103.761
100.53
97.5599
94.6409
92.018
89.3611
86.9916
84.4633
82.1924
79.6286
77.2866
74.5399
71.9866
68.97
66.1841
63.1016
37.4778
37.5347
37.7643
38.3247
39.5326
41.9503
46.3471
53.3285
62.7838
73.5949
83.9732
92.2823
97.6847
100.287
100.775
100.066
98.9277
97.9321
97.3309
97.2544
97.6534
98.5509
99.8511
101.616
103.732
106.32
109.231
112.673
116.432
120.844
125.584
131.181
137.129
144.265
151.787
161.024
170.699
182.936
195.708
212.452
229.942
253.597
278.006
311.082
343.391
385.218
421.41
463.623
495.172
518.685
527.332
463.768
390.427
247.584
183.542
175.469
206.926
236.468
263.602
269.532
269.156
256.693
244.235
227.689
213.878
199.417
188.013
177.061
168.551
160.605
154.349
148.539
143.827
139.388
135.562
131.81
128.301
124.737
121.216
117.643
114.074
110.552
107.074
103.768
100.536
97.5666
94.6481
92.0258
89.3696
87.001
84.4734
82.2031
79.6396
77.2977
74.5507
71.9967
68.9791
66.1916
63.1072
37.4779
37.5351
37.7651
38.3261
39.535
41.9544
46.3527
53.3346
62.7885
73.5964
83.9717
92.2792
97.6817
100.285
100.774
100.065
98.9269
97.9314
97.3303
97.2541
97.6534
98.5514
99.852
101.617
103.733
106.322
109.233
112.676
116.435
120.847
125.587
131.185
137.133
144.269
151.792
161.03
170.705
182.941
195.713
212.457
229.947
253.602
278.012
311.092
343.405
385.239
421.436
463.656
495.205
518.724
527.375
463.821
390.51
247.66
183.609
175.53
206.974
236.499
263.622
269.548
269.17
256.705
244.246
227.699
213.888
199.427
188.022
177.069
168.558
160.611
154.356
148.546
143.834
139.396
135.569
131.817
128.308
124.743
121.222
117.649
114.079
110.558
107.08
103.774
100.542
97.5731
94.6551
92.0335
89.378
87.0102
84.4834
82.2138
79.6507
77.309
74.5618
72.0072
68.9886
66.1997
63.1134
37.4782
37.5356
37.766
38.3278
39.5379
41.9591
46.3594
53.3421
62.7944
73.5987
83.9702
92.2756
97.6778
100.282
100.772
100.063
98.9251
97.9295
97.3286
97.2527
97.6525
98.551
99.8521
101.617
103.734
106.323
109.235
112.677
116.437
120.85
125.59
131.188
137.137
144.273
151.797
161.035
170.709
182.945
195.717
212.46
229.95
253.605
278.017
311.099
343.417
385.258
421.461
463.687
495.237
518.763
527.419
463.878
390.601
247.746
183.685
175.597
207.027
236.533
263.644
269.565
269.185
256.717
244.255
227.708
213.897
199.436
188.03
177.076
168.564
160.617
154.362
148.553
143.841
139.402
135.576
131.824
128.314
124.75
121.228
117.654
114.085
110.564
107.085
103.779
100.548
97.5793
94.6619
92.0409
89.3863
87.0194
84.4934
82.2245
79.6619
77.3205
74.5732
72.0181
68.9986
66.2084
63.1203
37.4784
37.5362
37.7671
38.3297
39.5413
41.9646
46.3672
53.3509
62.8014
73.6016
83.9687
92.2713
97.6729
100.277
100.768
100.06
98.922
97.9265
97.3257
97.2504
97.6507
98.5498
99.8514
101.617
103.734
106.324
109.236
112.679
116.439
120.851
125.592
131.191
137.14
144.277
151.8
161.039
170.713
182.949
195.719
212.462
229.951
253.607
278.02
311.105
343.428
385.275
421.485
463.717
495.267
518.802
527.466
463.939
390.7
247.839
183.768
175.672
207.086
236.571
263.668
269.583
269.199
256.727
244.264
227.715
213.905
199.444
188.037
177.081
168.569
160.622
154.367
148.558
143.847
139.409
135.582
131.83
128.32
124.755
121.234
117.66
114.091
110.569
107.091
103.785
100.554
97.5853
94.6684
92.0482
89.3944
87.0284
84.5033
82.2353
79.6732
77.3322
74.5848
72.0294
69.0091
66.2178
63.1279
37.4787
37.5368
37.7682
38.3318
39.545
41.9708
46.3761
53.3609
62.8096
73.6052
83.9672
92.2666
97.6672
100.272
100.763
100.055
98.9177
97.9223
97.3218
97.247
97.648
98.5477
99.85
101.616
103.734
106.324
109.236
112.679
116.439
120.853
125.593
131.192
137.142
144.279
151.803
161.042
170.716
182.951
195.721
212.462
229.951
253.607
278.021
311.109
343.436
385.291
421.506
463.745
495.297
518.84
527.514
464.005
390.807
247.941
183.859
175.754
207.15
236.613
263.695
269.601
269.212
256.737
244.271
227.722
213.912
199.451
188.043
177.086
168.573
160.626
154.371
148.563
143.852
139.414
135.588
131.836
128.326
124.761
121.239
117.665
114.096
110.574
107.096
103.79
100.559
97.5911
94.6747
92.0552
89.4023
87.0374
84.5132
82.2461
79.6847
77.3441
74.5968
72.0411
69.0201
66.2277
63.1362
37.479
37.5375
37.7695
38.3341
39.5492
41.9778
46.386
53.3723
62.819
73.6095
83.9658
92.2613
97.6606
100.266
100.758
100.05
98.9123
97.9169
97.3168
97.2426
97.6444
98.5448
99.8478
101.615
103.733
106.323
109.236
112.679
116.44
120.853
125.594
131.194
137.143
144.281
151.806
161.044
170.718
182.952
195.721
212.462
229.949
253.605
278.02
311.111
343.443
385.305
421.526
463.772
495.325
518.879
527.564
464.074
390.922
248.052
183.959
175.844
207.22
236.658
263.723
269.621
269.226
256.747
244.277
227.728
213.917
199.457
188.048
177.09
168.576
160.629
154.375
148.567
143.857
139.419
135.593
131.841
128.331
124.766
121.244
117.67
114.101
110.579
107.101
103.795
100.565
97.5966
94.6808
92.0621
89.4101
87.0462
84.523
82.2569
79.6962
77.3562
74.609
72.0532
69.0316
66.2383
63.1451
37.4793
37.5383
37.7709
38.3366
39.5537
41.9854
46.3971
53.3849
62.8295
73.6144
83.9643
92.2554
97.653
100.258
100.751
100.043
98.9056
97.9104
97.3108
97.2372
97.6398
98.5411
99.8448
101.613
103.731
106.322
109.235
112.679
116.439
120.853
125.594
131.194
137.144
144.283
151.807
161.045
170.719
182.952
195.72
212.46
229.946
253.602
278.018
311.112
343.449
385.317
421.545
463.798
495.351
518.919
527.616
464.147
391.046
248.171
184.067
175.941
207.295
236.707
263.754
269.641
269.24
256.756
244.283
227.732
213.922
199.461
188.052
177.093
168.578
160.631
154.377
148.571
143.861
139.424
135.598
131.846
128.336
124.771
121.249
117.675
114.105
110.584
107.106
103.8
100.569
97.6019
94.6866
92.0688
89.4178
87.0549
84.5328
82.2677
79.7078
77.3685
74.6216
72.0657
69.0436
66.2495
63.1548
37.4796
37.5391
37.7724
38.3394
39.5587
41.9938
46.4092
53.3988
62.8412
73.62
83.9629
92.249
97.6446
100.25
100.743
100.035
98.8978
97.9028
97.3036
97.2308
97.6343
98.5365
99.8411
101.609
103.729
106.32
109.233
112.677
116.438
120.852
125.594
131.194
137.144
144.283
151.808
161.046
170.719
182.952
195.718
212.456
229.942
253.597
278.014
311.111
343.452
385.328
421.561
463.822
495.377
518.958
527.67
464.225
391.178
248.3
184.183
176.045
207.376
236.76
263.787
269.662
269.254
256.764
244.288
227.736
213.926
199.465
188.055
177.095
168.579
160.632
154.379
148.573
143.864
139.428
135.602
131.851
128.341
124.775
121.254
117.679
114.11
110.589
107.11
103.804
100.574
97.607
94.6923
92.0753
89.4252
87.0636
84.5425
82.2786
79.7196
77.381
74.6344
72.0787
69.0561
66.2613
63.1651
37.48
37.54
37.7741
38.3424
39.5642
42.0029
46.4224
53.4141
62.854
73.6262
83.9614
92.242
97.6353
100.24
100.733
100.026
98.8889
97.894
97.2953
97.2234
97.6279
98.5311
99.8366
101.606
103.726
106.317
109.231
112.676
116.437
120.851
125.593
131.193
137.144
144.283
151.808
161.046
170.718
182.95
195.715
212.452
229.936
253.591
278.008
311.108
343.454
385.337
421.576
463.845
495.401
518.997
527.725
464.306
391.318
248.437
184.307
176.157
207.462
236.816
263.822
269.684
269.268
256.772
244.291
227.738
213.928
199.468
188.057
177.096
168.579
160.633
154.38
148.575
143.867
139.431
135.606
131.855
128.345
124.78
121.258
117.684
114.114
110.593
107.114
103.809
100.579
97.6118
94.6977
92.0816
89.4326
87.0721
84.5522
82.2895
79.7314
77.3937
74.6476
72.092
69.0692
66.2737
63.1761
37.4804
37.5409
37.7759
38.3456
39.57
42.0128
46.4366
53.4305
62.868
73.6331
83.9599
92.2344
97.6251
100.23
100.723
100.016
98.8787
97.884
97.286
97.215
97.6206
98.5249
99.8313
101.601
103.722
106.314
109.228
112.673
116.435
120.849
125.591
131.192
137.143
144.282
151.807
161.045
170.717
182.947
195.71
212.446
229.929
253.583
278.001
311.104
343.455
385.345
421.59
463.866
495.424
519.037
527.783
464.392
391.467
248.582
184.44
176.277
207.555
236.876
263.859
269.707
269.283
256.779
244.294
227.739
213.93
199.469
188.058
177.096
168.578
160.632
154.38
148.576
143.869
139.434
135.61
131.858
128.349
124.784
121.262
117.688
114.118
110.597
107.118
103.813
100.583
97.6164
94.703
92.0877
89.4398
87.0805
84.5619
82.3004
79.7434
77.4066
74.661
72.1057
69.0827
66.2868
63.1878
37.4809
37.5419
37.7778
38.3491
39.5763
42.0233
46.4519
53.4483
62.8831
73.6406
83.9585
92.2263
97.614
100.218
100.712
100.005
98.8674
97.8729
97.2755
97.2055
97.6124
98.5178
99.8253
101.596
103.717
106.31
109.225
112.67
116.432
120.846
125.589
131.189
137.141
144.28
151.805
161.043
170.714
182.943
195.705
212.438
229.92
253.573
277.992
311.098
343.453
385.351
421.602
463.886
495.446
519.077
527.843
464.483
391.625
248.737
184.582
176.404
207.653
236.941
263.898
269.732
269.297
256.786
244.296
227.74
213.93
199.47
188.058
177.095
168.577
160.631
154.379
148.577
143.871
139.437
135.613
131.862
128.352
124.787
121.266
117.692
114.122
110.601
107.122
103.816
100.587
97.6208
94.708
92.0936
89.4468
87.0889
84.5715
82.3114
79.7555
77.4198
74.6748
72.1199
69.0968
66.3004
63.2002
37.4813
37.543
37.7798
38.3528
39.5829
42.0346
46.4683
53.4673
62.8993
73.6488
83.957
92.2177
97.602
100.205
100.699
99.9926
98.855
97.8607
97.264
97.1951
97.6032
98.5099
99.8184
101.59
103.712
106.305
109.221
112.666
116.429
120.843
125.586
131.187
137.138
144.278
151.803
161.04
170.71
182.938
195.698
212.43
229.91
253.562
277.981
311.09
343.45
385.356
421.612
463.905
495.467
519.117
527.905
464.577
391.791
248.901
184.732
176.539
207.757
237.009
263.94
269.757
269.311
256.792
244.298
227.739
213.93
199.47
188.057
177.093
168.574
160.628
154.378
148.576
143.872
139.439
135.615
131.865
128.356
124.791
121.269
117.695
114.126
110.604
107.126
103.82
100.591
97.625
94.7128
92.0994
89.4537
87.0971
84.5811
82.3224
79.7677
77.4331
74.6888
72.1344
69.1113
66.3147
63.2133
37.4818
37.5442
37.7819
38.3567
39.59
42.0466
46.4858
53.4876
62.9167
73.6576
83.9555
92.2085
97.5892
100.192
100.686
99.9791
98.8414
97.8474
97.2514
97.1837
97.5931
98.5011
99.8109
101.584
103.707
106.3
109.216
112.662
116.425
120.839
125.582
131.183
137.135
144.274
151.799
161.036
170.705
182.931
195.69
212.42
229.898
253.549
277.969
311.08
343.445
385.359
421.621
463.923
495.487
519.157
527.969
464.676
391.966
249.075
184.891
176.682
207.867
237.081
263.985
269.783
269.326
256.798
244.298
227.738
213.928
199.469
188.055
177.09
168.571
160.625
154.376
148.575
143.872
139.44
135.617
131.867
128.359
124.794
121.273
117.699
114.129
110.608
107.129
103.823
100.594
97.6289
94.7174
92.105
89.4605
87.1053
84.5907
82.3335
79.78
77.4467
74.7032
72.1494
69.1264
66.3297
63.2271
37.4823
37.5454
37.7842
38.3609
39.5976
42.0593
46.5043
53.5092
62.9352
73.6671
83.954
92.1987
97.5754
100.177
100.671
99.9644
98.8267
97.8329
97.2378
97.1713
97.5822
98.4915
99.8025
101.576
103.7
106.294
109.211
112.657
116.42
120.835
125.578
131.179
137.131
144.27
151.795
161.031
170.7
182.924
195.681
212.409
229.885
253.535
277.955
311.069
343.439
385.36
421.628
463.939
495.506
519.198
528.035
464.78
392.151
249.257
185.059
176.833
207.983
237.158
264.031
269.811
269.341
256.804
244.298
227.736
213.926
199.467
188.052
177.086
168.567
160.621
154.373
148.574
143.872
139.441
135.619
131.87
128.361
124.797
121.276
117.702
114.132
110.611
107.132
103.827
100.597
97.6326
94.7219
92.1104
89.4672
87.1134
84.6002
82.3446
79.7924
77.4604
74.7178
72.1648
69.142
66.3452
63.2416
37.4829
37.5467
37.7866
38.3652
39.6055
42.0727
46.5238
53.532
62.9548
73.6771
83.9525
92.1884
97.5608
100.161
100.655
99.9486
98.8108
97.8173
97.223
97.1579
97.5703
98.4811
99.7934
101.568
103.693
106.288
109.205
112.652
116.415
120.83
125.573
131.174
137.126
144.266
151.79
161.026
170.693
182.916
195.671
212.396
229.87
253.519
277.939
311.057
343.431
385.36
421.634
463.954
495.523
519.239
528.103
464.888
392.344
249.449
185.236
176.992
208.105
237.238
264.081
269.84
269.356
256.809
244.297
227.733
213.923
199.464
188.049
177.082
168.562
160.617
154.369
148.572
143.871
139.441
135.62
131.871
128.363
124.799
121.278
117.705
114.135
110.614
107.135
103.83
100.601
97.6362
94.7261
92.1157
89.4737
87.1214
84.6098
82.3558
79.805
77.4744
74.7328
72.1806
69.1582
66.3614
63.2568
37.4835
37.548
37.7891
38.3699
39.6139
42.0869
46.5444
53.5561
62.9755
73.6878
83.9509
92.1776
97.5453
100.144
100.638
99.9317
98.7938
97.8006
97.2073
97.1435
97.5575
98.4699
99.7836
101.56
103.685
106.281
109.199
112.645
116.409
120.824
125.568
131.169
137.121
144.26
151.785
161.02
170.686
182.907
195.659
212.382
229.854
253.502
277.922
311.042
343.421
385.359
421.638
463.968
495.54
519.281
528.174
465.002
392.546
249.651
185.422
177.159
208.233
237.323
264.133
269.87
269.372
256.815
244.296
227.729
213.919
199.46
188.044
177.076
168.556
160.611
154.365
148.569
143.869
139.441
135.621
131.873
128.365
124.802
121.281
117.708
114.138
110.617
107.138
103.832
100.603
97.6395
94.7301
92.1208
89.4801
87.1293
84.6192
82.367
79.8177
77.4886
74.7481
72.1969
69.1748
66.3783
63.2728
37.4841
37.5495
37.7918
38.3747
39.6227
42.1017
46.5661
53.5814
62.9973
73.699
83.9493
92.1661
97.5289
100.126
100.62
99.9136
98.7757
97.7828
97.1904
97.1281
97.5438
98.4578
99.773
101.55
103.677
106.273
109.191
112.639
116.402
120.818
125.562
131.163
137.115
144.254
151.778
161.012
170.678
182.897
195.647
212.367
229.837
253.483
277.903
311.026
343.41
385.356
421.641
463.981
495.556
519.323
528.247
465.119
392.758
249.863
185.618
177.335
208.368
237.412
264.188
269.902
269.388
256.82
244.294
227.724
213.914
199.455
188.039
177.07
168.549
160.605
154.36
148.565
143.867
139.44
135.621
131.874
128.367
124.804
121.283
117.71
114.141
110.619
107.14
103.835
100.606
97.6426
94.734
92.1257
89.4864
87.1372
84.6287
82.3782
79.8305
77.5031
74.7637
72.2135
69.192
66.3958
63.2894
37.4847
37.5509
37.7945
38.3798
39.6319
42.1173
46.5888
53.6079
63.0202
73.7109
83.9477
92.1541
97.5117
100.108
100.601
99.8945
98.7564
97.7638
97.1725
97.1117
97.5292
98.4449
99.7616
101.54
103.668
106.265
109.184
112.631
116.395
120.811
125.555
131.156
137.108
144.247
151.771
161.004
170.668
182.885
195.633
212.351
229.818
253.463
277.883
311.009
343.397
385.351
421.642
463.992
495.57
519.366
528.322
465.242
392.98
250.084
185.823
177.519
208.509
237.506
264.245
269.935
269.405
256.824
244.291
227.719
213.908
199.45
188.033
177.063
168.542
160.598
154.354
148.561
143.864
139.439
135.621
131.875
128.368
124.806
121.286
117.712
114.143
110.622
107.143
103.837
100.609
97.6455
94.7377
92.1305
89.4925
87.145
84.6382
82.3895
79.8434
77.5177
74.7796
72.2306
69.2097
66.4139
63.3068
37.4854
37.5525
37.7974
38.3851
39.6415
42.1336
46.6126
53.6356
63.0442
73.7234
83.9461
92.1416
97.4936
100.088
100.581
99.8742
98.736
97.7438
97.1535
97.0944
97.5137
98.4312
99.7495
101.529
103.658
106.256
109.175
112.623
116.388
120.804
125.547
131.149
137.101
144.24
151.763
160.996
170.658
182.873
195.618
212.333
229.798
253.441
277.86
310.989
343.383
385.345
421.642
464.003
495.584
519.409
528.4
465.37
393.211
250.316
186.037
177.712
208.657
237.605
264.305
269.97
269.422
256.829
244.288
227.713
213.902
199.444
188.026
177.056
168.533
160.59
154.347
148.556
143.861
139.437
135.621
131.875
128.37
124.807
121.288
117.715
114.145
110.624
107.145
103.839
100.611
97.6482
94.7412
92.1351
89.4985
87.1527
84.6476
82.4009
79.8565
77.5326
74.7958
72.2481
69.2279
66.4327
63.3249
37.486
37.5541
37.8004
38.3906
39.6515
42.1506
46.6374
53.6646
63.0693
73.7365
83.9444
92.1285
97.4746
100.067
100.56
99.8529
98.7145
97.7226
97.1334
97.076
97.4973
98.4166
99.7366
101.518
103.647
106.246
109.166
112.615
116.379
120.795
125.539
131.141
137.093
144.232
151.755
160.986
170.647
182.86
195.602
212.314
229.776
253.417
277.837
310.968
343.367
385.338
421.641
464.012
495.597
519.453
528.481
465.503
393.451
250.558
186.262
177.913
208.812
237.708
264.369
270.006
269.44
256.834
244.284
227.706
213.895
199.437
188.019
177.047
168.524
160.582
154.34
148.55
143.858
139.435
135.62
131.875
128.37
124.809
121.289
117.717
114.147
110.626
107.147
103.841
100.613
97.6507
94.7445
92.1396
89.5045
87.1603
84.657
82.4123
79.8697
77.5477
74.8124
72.2661
69.2467
66.4521
63.3437
37.4868
37.5558
37.8036
38.3963
39.662
42.1684
46.6632
53.6948
63.0955
73.7501
83.9427
92.1149
97.4548
100.045
100.538
99.8305
98.6919
97.7004
97.1123
97.0567
97.48
98.4013
99.7229
101.506
103.636
106.236
109.157
112.606
116.37
120.787
125.531
131.132
137.084
144.223
151.745
160.975
170.635
182.845
195.585
212.294
229.753
253.392
277.811
310.946
343.349
385.329
421.638
464.02
495.609
519.497
528.564
465.641
393.702
250.81
186.496
178.124
208.973
237.815
264.435
270.044
269.459
256.838
244.281
227.699
213.887
199.429
188.01
177.038
168.515
160.572
154.332
148.544
143.853
139.433
135.619
131.875
128.371
124.81
121.291
117.718
114.149
110.627
107.148
103.843
100.615
97.6531
94.7476
92.1439
89.5103
87.1679
84.6665
82.4237
79.883
77.563
74.8293
72.2845
69.266
66.4722
63.3632
37.4875
37.5576
37.8069
38.4023
39.6729
42.1868
46.6901
53.7263
63.1227
73.7644
83.941
92.1007
97.4341
100.022
100.515
99.807
98.6682
97.6771
97.0902
97.0364
97.4618
98.3851
99.7085
101.493
103.625
106.225
109.146
112.596
116.361
120.777
125.521
131.123
137.075
144.213
151.735
160.964
170.622
182.83
195.567
212.272
229.729
253.366
277.785
310.922
343.33
385.319
421.634
464.027
495.62
519.542
528.65
465.784
393.963
251.073
186.741
178.343
209.141
237.928
264.505
270.083
269.478
256.843
244.276
227.691
213.878
199.42
188.001
177.028
168.504
160.563
154.323
148.537
143.848
139.43
135.617
131.875
128.371
124.811
121.292
117.72
114.151
110.629
107.15
103.844
100.617
97.6552
94.7506
92.1481
89.516
87.1754
84.6759
82.4353
79.8965
77.5786
74.8465
72.3033
69.2859
66.493
63.3835
37.4883
37.5594
37.8103
38.4086
39.6843
42.2059
46.718
53.7589
63.1509
73.7792
83.9392
92.0859
97.4125
99.9986
100.49
99.7824
98.6434
97.6526
97.067
97.0151
97.4427
98.3681
99.6934
101.479
103.612
106.214
109.136
112.585
116.351
120.767
125.511
131.113
137.065
144.202
151.724
160.952
170.608
182.813
195.547
212.25
229.703
253.338
277.756
310.896
343.309
385.308
421.628
464.033
495.631
519.588
528.738
465.933
394.234
251.346
186.995
178.572
209.317
238.046
264.577
270.125
269.498
256.848
244.272
227.682
213.869
199.411
187.991
177.017
168.493
160.552
154.314
148.53
143.843
139.426
135.615
131.874
128.371
124.811
121.293
117.721
114.152
110.631
107.151
103.846
100.618
97.6571
94.7534
92.1522
89.5215
87.1829
84.6853
82.4469
79.9101
77.5944
74.864
72.3226
69.3063
66.5144
63.4045
37.4891
37.5613
37.8138
38.415
39.696
42.2258
46.747
53.7927
63.1802
73.7945
83.9373
92.0706
97.3901
99.9738
100.465
99.7568
98.6175
97.6271
97.0428
96.9929
97.4227
98.3503
99.6775
101.465
103.599
106.202
109.124
112.574
116.34
120.757
125.501
131.102
137.054
144.191
151.712
160.939
170.593
182.796
195.527
212.226
229.676
253.308
277.726
310.869
343.287
385.295
421.621
464.038
495.64
519.634
528.829
466.087
394.515
251.631
187.261
178.81
209.499
238.168
264.653
270.168
269.519
256.853
244.267
227.673
213.859
199.402
187.981
177.006
168.481
160.541
154.304
148.522
143.837
139.422
135.613
131.873
128.371
124.812
121.294
117.723
114.154
110.632
107.153
103.847
100.619
97.6589
94.756
92.1561
89.527
87.1903
84.6947
82.4585
79.9238
77.6105
74.8819
72.3423
69.3273
66.5364
63.4263
37.4899
37.5632
37.8174
38.4217
39.7082
42.2464
46.7769
53.8277
63.2106
73.8105
83.9355
92.0547
97.3669
99.948
100.439
99.73
98.5905
97.6005
97.0175
96.9696
97.4018
98.3316
99.6608
101.45
103.585
106.189
109.112
112.563
116.329
120.746
125.49
131.091
137.042
144.179
151.699
160.925
170.577
182.777
195.505
212.2
229.647
253.277
277.694
310.84
343.264
385.281
421.613
464.042
495.649
519.682
528.924
466.247
394.807
251.927
187.537
179.057
209.689
238.296
264.732
270.214
269.541
256.859
244.262
227.664
213.849
199.391
187.97
176.994
168.469
160.529
154.294
148.514
143.831
139.418
135.61
131.871
128.37
124.812
121.295
117.724
114.155
110.633
107.154
103.848
100.62
97.6605
94.7585
92.1598
89.5324
87.1976
84.7041
82.4703
79.9377
77.6267
74.9
72.3625
69.3488
66.5592
63.4488
37.4908
37.5652
37.8212
38.4287
39.7208
42.2677
46.8079
53.8639
63.2419
73.827
83.9335
92.0383
97.3428
99.9213
100.411
99.7023
98.5625
97.5728
96.9912
96.9454
97.38
98.3122
99.6434
101.434
103.571
106.175
109.099
112.551
116.317
120.734
125.478
131.079
137.03
144.167
151.686
160.91
170.561
182.758
195.482
212.174
229.617
253.245
277.661
310.81
343.239
385.265
421.603
464.046
495.657
519.73
529.021
466.412
395.11
252.234
187.823
179.315
209.886
238.43
264.815
270.261
269.564
256.864
244.257
227.654
213.838
199.38
187.959
176.982
168.456
160.516
154.283
148.505
143.824
139.413
135.607
131.869
128.37
124.812
121.296
117.725
114.156
110.634
107.154
103.848
100.621
97.6619
94.7608
92.1635
89.5377
87.2049
84.7135
82.4821
79.9518
77.6432
74.9186
72.383
69.3708
66.5826
63.472
37.4917
37.5673
37.8251
38.4358
39.7338
42.2897
46.8399
53.9013
63.2743
73.844
83.9316
92.0213
97.3178
99.8936
100.383
99.6735
98.5333
97.5441
96.9639
96.9203
97.3573
98.2919
99.6253
101.417
103.556
106.161
109.086
112.538
116.304
120.721
125.466
131.066
137.017
144.153
151.672
160.894
170.543
182.737
195.458
212.146
229.586
253.211
277.627
310.778
343.212
385.248
421.593
464.048
495.665
519.779
529.121
466.583
395.424
252.553
188.121
179.582
210.091
238.568
264.901
270.31
269.588
256.87
244.252
227.644
213.827
199.369
187.946
176.969
168.442
160.503
154.271
148.496
143.817
139.408
135.604
131.867
128.369
124.812
121.296
117.725
114.157
110.635
107.155
103.849
100.622
97.6632
94.763
92.167
89.5429
87.2122
84.7229
82.494
79.9659
77.66
74.9374
72.4041
69.3934
66.6067
63.496
37.4926
37.5695
37.8292
38.4432
39.7472
42.3124
46.873
53.9398
63.3078
73.8616
83.9295
92.0038
97.2921
99.8649
100.354
99.6436
98.5031
97.5142
96.9355
96.8942
97.3338
98.2708
99.6064
101.4
103.54
106.147
109.072
112.524
116.291
120.708
125.452
131.053
137.004
144.139
151.657
160.878
170.524
182.716
195.433
212.117
229.553
253.176
277.59
310.745
343.184
385.23
421.581
464.049
495.672
519.829
529.224
466.761
395.748
252.884
188.43
179.859
210.304
238.712
264.991
270.362
269.613
256.877
244.247
227.634
213.815
199.357
187.934
176.955
168.428
160.49
154.259
148.486
143.809
139.403
135.6
131.865
128.368
124.812
121.297
117.726
114.158
110.635
107.156
103.849
100.623
97.6643
94.765
92.1703
89.548
87.2194
84.7323
82.5059
79.9803
77.677
74.9566
72.4256
69.4165
66.6314
63.5207
37.4935
37.5717
37.8333
38.4509
39.7611
42.3358
46.907
53.9795
63.3422
73.8797
83.9275
91.9858
97.2655
99.8353
100.323
99.6127
98.4719
97.4834
96.9061
96.8671
97.3094
98.2489
99.5867
101.383
103.524
106.131
109.058
112.51
116.277
120.694
125.439
131.039
136.99
144.124
151.641
160.861
170.505
182.693
195.407
212.087
229.519
253.139
277.553
310.71
343.155
385.211
421.567
464.049
495.678
519.881
529.33
466.944
396.084
253.226
188.751
180.146
210.524
238.862
265.085
270.416
269.639
256.884
244.242
227.623
213.803
199.345
187.92
176.941
168.413
160.476
154.247
148.475
143.801
139.397
135.596
131.862
128.366
124.811
121.297
117.727
114.158
110.636
107.156
103.85
100.623
97.6652
94.7668
92.1736
89.553
87.2265
84.7417
82.5179
79.9947
77.6942
74.9761
72.4475
69.4402
66.6568
63.5462
37.4945
37.574
37.8376
38.4587
39.7754
42.36
46.942
54.0204
63.3776
73.8984
83.9253
91.9671
97.238
99.8047
100.292
99.5808
98.4396
97.4514
96.8757
96.839
97.284
98.2262
99.5663
101.364
103.507
106.115
109.042
112.495
116.263
120.68
125.424
131.024
136.975
144.109
151.625
160.842
170.485
182.67
195.38
212.055
229.483
253.1
277.513
310.674
343.124
385.19
421.553
464.049
495.684
519.933
529.44
467.133
396.431
253.581
189.083
180.444
210.752
239.018
265.183
270.472
269.667
256.891
244.237
227.613
213.79
199.332
187.907
176.926
168.398
160.461
154.233
148.464
143.793
139.39
135.591
131.86
128.364
124.811
121.297
117.727
114.159
110.636
107.156
103.85
100.623
97.6659
94.7685
92.1767
89.5579
87.2336
84.7511
82.53
80.0093
77.7117
74.996
72.4699
69.4645
66.6829
63.5725
37.4955
37.5764
37.842
38.4669
39.7902
42.3848
46.9781
54.0624
63.414
73.9176
83.9231
91.948
97.2097
99.7732
100.26
99.5478
98.4062
97.4184
96.8442
96.81
97.2579
98.2027
99.5452
101.345
103.489
106.099
109.027
112.48
116.248
120.665
125.409
131.009
136.959
144.092
151.607
160.823
170.463
182.645
195.351
212.022
229.446
253.06
277.473
310.636
343.091
385.168
421.537
464.048
495.689
519.986
529.553
467.328
396.79
253.948
189.427
180.752
210.989
239.179
265.284
270.531
269.696
256.899
244.232
227.602
213.778
199.319
187.893
176.911
168.382
160.446
154.22
148.453
143.784
139.384
135.587
131.857
128.363
124.81
121.296
117.727
114.159
110.636
107.156
103.85
100.623
97.6665
94.7701
92.1797
89.5627
87.2407
84.7606
82.5422
80.0241
77.7294
75.0162
72.4928
69.4893
66.7097
63.5995
37.4965
37.5789
37.8466
38.4752
39.8053
42.4103
47.0151
54.1056
63.4514
73.9373
83.9209
91.9283
97.1806
99.7407
100.226
99.5139
98.3718
97.3844
96.8118
96.7801
97.2308
98.1784
99.5233
101.325
103.471
106.082
109.01
112.464
116.233
120.65
125.394
130.993
136.943
144.075
151.589
160.804
170.441
182.619
195.322
211.988
229.408
253.019
277.43
310.597
343.058
385.145
421.521
464.046
495.694
520.041
529.669
467.53
397.161
254.328
189.783
181.071
211.234
239.346
265.39
270.592
269.726
256.908
244.227
227.591
213.764
199.305
187.878
176.895
168.366
160.43
154.206
148.441
143.774
139.377
135.582
131.853
128.361
124.809
121.296
117.727
114.159
110.636
107.156
103.85
100.623
97.6669
94.7715
92.1826
89.5674
87.2477
84.77
82.5545
80.039
77.7473
75.0367
72.5161
69.5147
66.7372
63.6273
37.4976
37.5814
37.8513
38.4838
39.8209
42.4366
47.0532
54.1498
63.4897
73.9575
83.9185
91.908
97.1507
99.7073
100.192
99.4789
98.3363
97.3493
96.7783
96.7492
97.2028
98.1533
99.5007
101.304