/*--------------------------------*- C++ -*----------------------------------*\
| =========                 |                                                 |
| \\      /  F ield         | OpenFOAM: The Open Source CFD Toolbox           |
|  \\    /   O peration     | Version:  2412                                  |
|   \\  /    A nd           | Website:  www.openfoam.com                      |
|    \\/     M anipulation  |                                                 |
\*---------------------------------------------------------------------------*/
FoamFile
{
    version     2.0;
    format      ascii;
    arch        "LSB;label=32;scalar=64";
    class       volScalarField;
    location    "0.9";
    object      nut;
}
// * * * * * * * * * * * * * * * * * * * * * * * * * * * * * * * * * * * * * //

dimensions      [0 2 -1 0 0 0 0];

internalField   nonuniform List<scalar> 
13068
(
0.335631
0.336541
0.338942
0.344344
0.355227
0.374192
0.400914
0.429499
0.452062
0.4642
0.465339
0.45719
0.442808
0.425794
0.409366
0.39591
0.386649
0.381835
0.380804
0.382591
0.386036
0.390379
0.394925
0.39951
0.403817
0.408054
0.411982
0.415995
0.419745
0.423785
0.42756
0.43185
0.435813
0.440571
0.444876
0.450332
0.455096
0.461461
0.466786
0.47427
0.480138
0.48854
0.49418
0.502199
0.505824
0.511402
0.511423
0.51355
0.511457
0.50695
0.497182
0.448682
0.397183
0.286109
0.236712
0.270027
0.37561
0.437833
0.457772
0.44788
0.435174
0.417258
0.405181
0.392936
0.386404
0.3804
0.378517
0.376692
0.377109
0.376902
0.377655
0.37761
0.377877
0.377324
0.376638
0.375138
0.373303
0.370874
0.368256
0.365499
0.362873
0.360551
0.358552
0.357065
0.355809
0.355004
0.354099
0.35345
0.352296
0.35123
0.349301
0.347383
0.344326
0.341285
0.336926
0.332657
0.327053
0.321889
0.316227
0.335631
0.336542
0.338943
0.344346
0.35523
0.374195
0.400917
0.429501
0.452063
0.464201
0.465342
0.457195
0.442816
0.425803
0.409374
0.395917
0.386653
0.381837
0.380806
0.382593
0.386037
0.390382
0.394927
0.399513
0.403821
0.408058
0.411986
0.416
0.41975
0.42379
0.427566
0.431856
0.43582
0.440578
0.444883
0.450338
0.455102
0.461466
0.466791
0.474276
0.480144
0.488548
0.494189
0.502209
0.505835
0.511413
0.511433
0.513556
0.51146
0.506953
0.497186
0.448695
0.397212
0.286139
0.236741
0.270069
0.375668
0.437884
0.45781
0.447908
0.435192
0.417269
0.405187
0.392942
0.386411
0.380405
0.378519
0.376693
0.377109
0.376903
0.377657
0.377612
0.377879
0.377327
0.37664
0.37514
0.373304
0.370875
0.368256
0.3655
0.362874
0.360552
0.358553
0.357067
0.355813
0.355008
0.354105
0.353457
0.352305
0.351239
0.349309
0.347389
0.34433
0.341284
0.33692
0.332645
0.327033
0.321861
0.31619
0.335631
0.336543
0.338945
0.34435
0.355236
0.374203
0.400925
0.429506
0.452065
0.464201
0.465342
0.457197
0.442819
0.425808
0.409379
0.39592
0.386655
0.381839
0.380807
0.382594
0.386039
0.390384
0.394931
0.399517
0.403825
0.408063
0.411991
0.416004
0.419755
0.423795
0.427572
0.431862
0.435827
0.440585
0.44489
0.450345
0.455109
0.461472
0.466796
0.474281
0.48015
0.488555
0.494198
0.502219
0.505846
0.511424
0.511443
0.513563
0.511463
0.506957
0.497192
0.44871
0.397248
0.286179
0.236781
0.270115
0.37572
0.437929
0.457845
0.447934
0.435209
0.417278
0.405193
0.392948
0.386417
0.380411
0.378522
0.376693
0.377109
0.376903
0.377659
0.377615
0.377882
0.37733
0.376643
0.375142
0.373306
0.370876
0.368257
0.365501
0.362875
0.360553
0.358555
0.357069
0.355816
0.355013
0.354111
0.353465
0.352313
0.351248
0.349317
0.347396
0.344334
0.341285
0.336916
0.332634
0.327015
0.321834
0.316155
0.335632
0.336544
0.338948
0.344355
0.355245
0.374215
0.400937
0.429514
0.452067
0.464198
0.465337
0.457193
0.442817
0.425808
0.40938
0.395921
0.386655
0.381838
0.380807
0.382595
0.386041
0.390387
0.394934
0.399521
0.403829
0.408067
0.411995
0.416009
0.41976
0.423801
0.427577
0.431868
0.435833
0.440592
0.444897
0.450352
0.455114
0.461477
0.466801
0.474286
0.480156
0.488562
0.494206
0.502229
0.505858
0.511436
0.511452
0.513569
0.511466
0.506962
0.497199
0.448729
0.397291
0.286227
0.236831
0.270167
0.375769
0.437969
0.457877
0.447958
0.435225
0.417286
0.405198
0.392954
0.386424
0.380416
0.378525
0.376693
0.377108
0.376904
0.377661
0.377618
0.377886
0.377333
0.376646
0.375144
0.373307
0.370877
0.368258
0.365502
0.362876
0.360554
0.358557
0.357072
0.35582
0.355018
0.354118
0.353472
0.352322
0.351258
0.349327
0.347405
0.34434
0.341287
0.336913
0.332625
0.326999
0.32181
0.316123
0.335632
0.336546
0.338952
0.344363
0.355257
0.374233
0.400955
0.429526
0.45207
0.464193
0.465328
0.457183
0.44281
0.425803
0.409376
0.395917
0.386652
0.381836
0.380806
0.382595
0.386043
0.39039
0.394938
0.399526
0.403834
0.408072
0.412
0.416014
0.419765
0.423806
0.427583
0.431874
0.435839
0.440599
0.444903
0.450357
0.455119
0.461481
0.466805
0.474291
0.480161
0.488568
0.494214
0.502239
0.505868
0.511446
0.511461
0.513575
0.511469
0.506967
0.497208
0.448751
0.39734
0.286284
0.23689
0.270224
0.375814
0.438003
0.457905
0.44798
0.435239
0.417294
0.405203
0.392959
0.386431
0.380422
0.378527
0.376693
0.377108
0.376904
0.377663
0.377621
0.377889
0.377336
0.376649
0.375147
0.373309
0.370879
0.368259
0.365503
0.362877
0.360556
0.358559
0.357074
0.355823
0.355023
0.354124
0.353481
0.352332
0.351268
0.349337
0.347413
0.344347
0.34129
0.336912
0.332618
0.326985
0.321788
0.316093
0.335633
0.336548
0.338957
0.344372
0.355273
0.374255
0.400978
0.429541
0.452073
0.464185
0.465313
0.457168
0.442797
0.425792
0.409368
0.39591
0.386646
0.381831
0.380803
0.382595
0.386045
0.390394
0.394943
0.39953
0.403839
0.408077
0.412005
0.416018
0.419769
0.42381
0.427588
0.43188
0.435845
0.440605
0.444909
0.450363
0.455124
0.461485
0.466809
0.474294
0.480166
0.488574
0.494222
0.502248
0.505879
0.511457
0.51147
0.513581
0.511471
0.506973
0.497219
0.448775
0.397396
0.28635
0.236958
0.270287
0.375856
0.438033
0.45793
0.448
0.435251
0.4173
0.405207
0.392964
0.386437
0.380428
0.37853
0.376693
0.377108
0.376905
0.377665
0.377624
0.377893
0.377341
0.376653
0.37515
0.373312
0.370881
0.368261
0.365504
0.362878
0.360557
0.35856
0.357076
0.355826
0.355027
0.354131
0.353489
0.352342
0.351279
0.349347
0.347423
0.344354
0.341295
0.336912
0.332613
0.326973
0.321768
0.316065
0.335634
0.336551
0.338962
0.344383
0.355292
0.374282
0.401006
0.42956
0.452076
0.464174
0.465294
0.457147
0.442777
0.425776
0.409355
0.395899
0.386637
0.381825
0.3808
0.382595
0.386047
0.390398
0.394947
0.399535
0.403844
0.408081
0.412009
0.416023
0.419774
0.423815
0.427592
0.431885
0.435851
0.44061
0.444914
0.450367
0.455127
0.461488
0.466811
0.474297
0.480169
0.488579
0.494228
0.502256
0.505888
0.511466
0.511478
0.513586
0.511474
0.506979
0.497231
0.448802
0.397458
0.286424
0.237037
0.270356
0.375894
0.438058
0.457952
0.448017
0.435262
0.417305
0.40521
0.392969
0.386444
0.380434
0.378533
0.376694
0.377107
0.376906
0.377667
0.377628
0.377897
0.377345
0.376657
0.375154
0.373315
0.370883
0.368262
0.365505
0.362879
0.360558
0.358562
0.357079
0.35583
0.355032
0.354138
0.353498
0.352352
0.35129
0.349359
0.347434
0.344363
0.341301
0.336914
0.332609
0.326963
0.321751
0.31604
0.335635
0.336554
0.338969
0.344395
0.355315
0.374314
0.40104
0.429582
0.452079
0.46416
0.46527
0.457119
0.442752
0.425755
0.409337
0.395884
0.386624
0.381816
0.380795
0.382594
0.386049
0.390401
0.394952
0.39954
0.403849
0.408086
0.412014
0.416027
0.419778
0.423819
0.427597
0.431889
0.435855
0.440615
0.444919
0.450371
0.45513
0.46149
0.466813
0.474299
0.480172
0.488583
0.494235
0.502264
0.505897
0.511476
0.511485
0.513591
0.511476
0.506986
0.497244
0.448832
0.397527
0.286507
0.237125
0.27043
0.37593
0.438078
0.45797
0.448032
0.435271
0.417309
0.405212
0.392974
0.38645
0.38044
0.378536
0.376694
0.377107
0.376907
0.37767
0.377632
0.377902
0.37735
0.376661
0.375158
0.373318
0.370885
0.368264
0.365507
0.362881
0.360559
0.358563
0.357081
0.355833
0.355037
0.354145
0.353507
0.352362
0.351302
0.349371
0.347445
0.344373
0.341308
0.336917
0.332607
0.326955
0.321736
0.316017
0.335637
0.336558
0.338976
0.34441
0.355341
0.374351
0.401078
0.429607
0.452083
0.464144
0.465241
0.457086
0.442721
0.425728
0.409314
0.395865
0.386609
0.381805
0.380789
0.382592
0.386051
0.390405
0.394957
0.399546
0.403854
0.408091
0.412018
0.416031
0.419782
0.423823
0.427601
0.431893
0.43586
0.44062
0.444923
0.450374
0.455133
0.461491
0.466814
0.4743
0.480174
0.488587
0.49424
0.502272
0.505906
0.511484
0.511491
0.513595
0.511477
0.506994
0.497259
0.448865
0.397602
0.286598
0.237222
0.27051
0.375962
0.438093
0.457985
0.448044
0.435278
0.417312
0.405214
0.392978
0.386457
0.380446
0.378539
0.376695
0.377107
0.376908
0.377673
0.377636
0.377907
0.377355
0.376666
0.375162
0.373321
0.370888
0.368266
0.365508
0.362882
0.360561
0.358565
0.357083
0.355836
0.355042
0.354152
0.353516
0.352374
0.351314
0.349384
0.347458
0.344384
0.341316
0.336922
0.332607
0.326949
0.321723
0.315997
0.335638
0.336561
0.338985
0.344427
0.35537
0.374393
0.401122
0.429635
0.452087
0.464125
0.465207
0.457048
0.442684
0.425696
0.409286
0.395842
0.386591
0.381792
0.380782
0.38259
0.386053
0.39041
0.394962
0.399551
0.403859
0.408096
0.412023
0.416035
0.419785
0.423826
0.427604
0.431897
0.435864
0.440624
0.444927
0.450377
0.455134
0.461492
0.466814
0.474301
0.480176
0.48859
0.494245
0.502278
0.505914
0.511492
0.511497
0.513598
0.511479
0.507002
0.497275
0.448901
0.397684
0.286698
0.23733
0.270597
0.375991
0.438103
0.457996
0.448054
0.435284
0.417313
0.405215
0.392982
0.386463
0.380452
0.378542
0.376695
0.377107
0.376909
0.377676
0.377641
0.377912
0.37736
0.376671
0.375166
0.373325
0.370891
0.368269
0.36551
0.362883
0.360562
0.358566
0.357085
0.35584
0.355048
0.354159
0.353525
0.352385
0.351327
0.349397
0.347471
0.344396
0.341326
0.336928
0.332609
0.326945
0.321713
0.315979
0.335639
0.336566
0.338994
0.344445
0.355402
0.37444
0.401171
0.429667
0.452091
0.464103
0.465169
0.457003
0.442641
0.425658
0.409254
0.395815
0.38657
0.381778
0.380774
0.382588
0.386055
0.390414
0.394968
0.399557
0.403865
0.408101
0.412027
0.416039
0.419789
0.423829
0.427607
0.4319
0.435867
0.440627
0.44493
0.450379
0.455135
0.461491
0.466813
0.4743
0.480176
0.488592
0.494249
0.502285
0.505922
0.5115
0.511502
0.513601
0.511479
0.50701
0.497293
0.448939
0.397772
0.286807
0.237447
0.270688
0.376018
0.438109
0.458004
0.448062
0.435288
0.417314
0.405216
0.392985
0.386469
0.380458
0.378545
0.376696
0.377106
0.376911
0.377679
0.377645
0.377918
0.377366
0.376677
0.375171
0.373329
0.370894
0.368271
0.365512
0.362885
0.360563
0.358568
0.357087
0.355843
0.355053
0.354166
0.353535
0.352397
0.35134
0.349411
0.347485
0.344409
0.341337
0.336936
0.332612
0.326943
0.321704
0.315963
0.335641
0.33657
0.339004
0.344465
0.355438
0.374491
0.401225
0.429702
0.452095
0.464078
0.465125
0.456952
0.442592
0.425614
0.409217
0.395785
0.386546
0.381761
0.380764
0.382585
0.386057
0.390419
0.394974
0.399563
0.40387
0.408106
0.412031
0.416042
0.419792
0.423832
0.42761
0.431903
0.43587
0.44063
0.444932
0.45038
0.455135
0.46149
0.466812
0.474299
0.480176
0.488594
0.494252
0.50229
0.505929
0.511507
0.511507
0.513604
0.51148
0.507019
0.497312
0.448981
0.397867
0.286925
0.237573
0.270786
0.376042
0.43811
0.458009
0.448068
0.43529
0.417313
0.405215
0.392988
0.386476
0.380464
0.378549
0.376696
0.377106
0.376912
0.377682
0.37765
0.377924
0.377373
0.376683
0.375176
0.373333
0.370897
0.368274
0.365514
0.362886
0.360564
0.358569
0.357089
0.355847
0.355058
0.354174
0.353545
0.352409
0.351355
0.349426
0.3475
0.344423
0.341349
0.336945
0.332617
0.326943
0.321698
0.31595
0.335643
0.336575
0.339015
0.344487
0.355477
0.374548
0.401284
0.429741
0.4521
0.464051
0.465077
0.456896
0.442537
0.425565
0.409175
0.39575
0.386518
0.381741
0.380753
0.382581
0.386058
0.390424
0.39498
0.399569
0.403876
0.40811
0.412035
0.416046
0.419795
0.423835
0.427613
0.431906
0.435873
0.440632
0.444933
0.45038
0.455134
0.461489
0.46681
0.474297
0.480175
0.488595
0.494255
0.502296
0.505935
0.511513
0.51151
0.513606
0.51148
0.507029
0.497333
0.449025
0.397968
0.287051
0.23771
0.27089
0.376063
0.438106
0.45801
0.448071
0.435291
0.417311
0.405214
0.392991
0.386482
0.38047
0.378552
0.376697
0.377106
0.376913
0.377686
0.377656
0.37793
0.377379
0.376689
0.375182
0.373338
0.370901
0.368276
0.365516
0.362888
0.360565
0.35857
0.357091
0.35585
0.355063
0.354182
0.353556
0.352422
0.351369
0.349442
0.347516
0.344438
0.341362
0.336955
0.332624
0.326945
0.321695
0.31594
0.335645
0.336581
0.339027
0.344511
0.35552
0.374609
0.401348
0.429783
0.452104
0.46402
0.465023
0.456833
0.442476
0.425511
0.409129
0.395711
0.386488
0.38172
0.380741
0.382577
0.38606
0.390429
0.394987
0.399576
0.403882
0.408115
0.412039
0.416049
0.419797
0.423837
0.427615
0.431908
0.435874
0.440634
0.444934
0.45038
0.455133
0.461486
0.466807
0.474294
0.480173
0.488595
0.494258
0.5023
0.505941
0.511519
0.511514
0.513607
0.51148
0.507039
0.497355
0.449072
0.398076
0.287186
0.237856
0.271
0.376081
0.438097
0.458008
0.448071
0.43529
0.417307
0.405212
0.392994
0.386488
0.380477
0.378555
0.376697
0.377106
0.376915
0.377689
0.377661
0.377937
0.377386
0.376695
0.375188
0.373343
0.370905
0.368279
0.365518
0.362889
0.360567
0.358572
0.357093
0.355853
0.355069
0.35419
0.353567
0.352435
0.351384
0.349458
0.347533
0.344454
0.341377
0.336968
0.332632
0.326949
0.321693
0.315932
0.335647
0.336587
0.33904
0.344537
0.355566
0.374675
0.401418
0.429827
0.452109
0.463987
0.464965
0.456765
0.442409
0.425451
0.409077
0.395668
0.386455
0.381697
0.380728
0.382572
0.386062
0.390434
0.394993
0.399583
0.403888
0.40812
0.412043
0.416052
0.4198
0.423839
0.427616
0.431909
0.435876
0.440635
0.444935
0.45038
0.455131
0.461483
0.466803
0.474291
0.480171
0.488594
0.494259
0.502304
0.505946
0.511524
0.511516
0.513608
0.51148
0.507049
0.497379
0.449122
0.398191
0.28733
0.238012
0.271116
0.376096
0.438084
0.458003
0.44807
0.435287
0.417303
0.405209
0.392996
0.386494
0.380483
0.378559
0.376698
0.377106
0.376916
0.377693
0.377667
0.377944
0.377394
0.376702
0.375194
0.373348
0.370909
0.368283
0.36552
0.362891
0.360568
0.358573
0.357095
0.355857
0.355074
0.354198
0.353578
0.352449
0.3514
0.349475
0.34755
0.344471
0.341393
0.336981
0.332642
0.326955
0.321694
0.315926
0.335649
0.336593
0.339054
0.344565
0.355615
0.374746
0.401492
0.429876
0.452114
0.463951
0.464902
0.456691
0.442337
0.425386
0.409021
0.395622
0.386418
0.381671
0.380713
0.382567
0.386063
0.390439
0.395
0.39959
0.403894
0.408125
0.412047
0.416055
0.419802
0.423841
0.427618
0.43191
0.435877
0.440635
0.444935
0.450378
0.455128
0.461479
0.466798
0.474286
0.480167
0.488593
0.49426
0.502308
0.505951
0.511529
0.511518
0.513609
0.511479
0.50706
0.497404
0.449175
0.398312
0.287482
0.238179
0.271238
0.376108
0.438066
0.457994
0.448066
0.435283
0.417297
0.405206
0.392997
0.386499
0.380489
0.378562
0.376698
0.377106
0.376918
0.377697
0.377673
0.377951
0.377401
0.37671
0.3752
0.373353
0.370913
0.368286
0.365523
0.362892
0.360569
0.358574
0.357097
0.35586
0.35508
0.354207
0.353589
0.352463
0.351416
0.349493
0.347569
0.344489
0.34141
0.336996
0.332654
0.326963
0.321697
0.315923
0.335652
0.3366
0.339068
0.344594
0.355667
0.374822
0.401571
0.429927
0.452119
0.463913
0.464834
0.456611
0.442258
0.425315
0.40896
0.395571
0.386379
0.381644
0.380698
0.382561
0.386065
0.390445
0.395007
0.399597
0.4039
0.40813
0.412051
0.416058
0.419804
0.423842
0.427619
0.431911
0.435877
0.440635
0.444934
0.450376
0.455124
0.461474
0.466793
0.474281
0.480163
0.488591
0.494261
0.502311
0.505955
0.511533
0.511519
0.513609
0.511478
0.507072
0.49743
0.449231
0.39844
0.287644
0.238355
0.271366
0.376118
0.438043
0.457981
0.448059
0.435276
0.41729
0.405201
0.392998
0.386505
0.380495
0.378565
0.376699
0.377106
0.376919
0.377701
0.377679
0.377959
0.377409
0.376717
0.375207
0.373359
0.370918
0.36829
0.365525
0.362894
0.36057
0.358575
0.357099
0.355863
0.355086
0.354215
0.353601
0.352477
0.351433
0.349511
0.347588
0.344508
0.341428
0.337012
0.332668
0.326973
0.321703
0.315922
0.335654
0.336607
0.339084
0.344626
0.355723
0.374903
0.401656
0.429981
0.452124
0.463871
0.464761
0.456525
0.442173
0.425239
0.408894
0.395516
0.386336
0.381614
0.38068
0.382555
0.386066
0.390451
0.395015
0.399604
0.403907
0.408135
0.412054
0.41606
0.419806
0.423843
0.427619
0.431911
0.435877
0.440635
0.444933
0.450374
0.45512
0.461469
0.466787
0.474275
0.480159
0.488588
0.49426
0.502313
0.505959
0.511537
0.51152
0.513608
0.511477
0.507084
0.497458
0.44929
0.398574
0.287815
0.238541
0.2715
0.376125
0.438015
0.457965
0.44805
0.435268
0.417281
0.405196
0.392999
0.38651
0.380501
0.378569
0.376699
0.377106
0.376921
0.377705
0.377686
0.377966
0.377417
0.376725
0.375214
0.373365
0.370923
0.368293
0.365528
0.362895
0.360571
0.358576
0.357101
0.355867
0.355092
0.354224
0.353613
0.352492
0.35145
0.34953
0.347608
0.344528
0.341448
0.33703
0.332684
0.326985
0.32171
0.315924
0.335657
0.336615
0.3391
0.344659
0.355782
0.374988
0.401745
0.430039
0.45213
0.463827
0.464683
0.456433
0.442082
0.425157
0.408824
0.395458
0.38629
0.381582
0.380662
0.382548
0.386067
0.390457
0.395023
0.399612
0.403913
0.40814
0.412058
0.416063
0.419807
0.423843
0.427619
0.431911
0.435877
0.440634
0.444931
0.45037
0.455115
0.461462
0.46678
0.474269
0.480153
0.488585
0.49426
0.502315
0.505962
0.51154
0.51152
0.513607
0.511475
0.507097
0.497488
0.449352
0.398715
0.287995
0.238737
0.27164
0.376129
0.437982
0.457945
0.448038
0.435258
0.417271
0.40519
0.392999
0.386515
0.380507
0.378572
0.3767
0.377106
0.376923
0.37771
0.377692
0.377975
0.377426
0.376733
0.375221
0.373371
0.370928
0.368297
0.36553
0.362897
0.360572
0.358577
0.357102
0.35587
0.355097
0.354233
0.353625
0.352507
0.351468
0.34955
0.347629
0.34455
0.341469
0.33705
0.332701
0.326999
0.32172
0.315928
0.33566
0.336623
0.339118
0.344694
0.355845
0.375078
0.401839
0.430099
0.452135
0.463779
0.4646
0.456336
0.441986
0.425069
0.408748
0.395395
0.386241
0.381548
0.380642
0.382541
0.386068
0.390463
0.39503
0.399619
0.40392
0.408145
0.412062
0.416065
0.419808
0.423844
0.427619
0.43191
0.435876
0.440632
0.444928
0.450366
0.45511
0.461455
0.466772
0.474261
0.480147
0.488581
0.494258
0.502317
0.505965
0.511543
0.51152
0.513605
0.511474
0.50711
0.497519
0.449417
0.398864
0.288184
0.238944
0.271787
0.376131
0.437945
0.457922
0.448023
0.435246
0.41726
0.405183
0.392998
0.38652
0.380513
0.378575
0.3767
0.377106
0.376924
0.377714
0.377699
0.377983
0.377435
0.376742
0.375229
0.373378
0.370934
0.368301
0.365533
0.362899
0.360573
0.358578
0.357104
0.355873
0.355103
0.354242
0.353637
0.352523
0.351487
0.349571
0.347651
0.344572
0.341491
0.337071
0.33272
0.327015
0.321733
0.315934
0.335663
0.336631
0.339136
0.344731
0.35591
0.375173
0.401938
0.430163
0.45214
0.463729
0.464512
0.456232
0.441883
0.424976
0.408668
0.395328
0.386189
0.381511
0.380621
0.382533
0.38607
0.390469
0.395039
0.399627
0.403926
0.408151
0.412065
0.416067
0.419809
0.423844
0.427619
0.431909
0.435875
0.44063
0.444925
0.450362
0.455103
0.461448
0.466763
0.474253
0.48014
0.488576
0.494256
0.502318
0.505967
0.511545
0.511518
0.513603
0.511472
0.507124
0.497552
0.449485
0.399019
0.288382
0.239161
0.27194
0.376129
0.437902
0.457895
0.448006
0.435232
0.417247
0.405175
0.392997
0.386525
0.380519
0.378579
0.376701
0.377105
0.376926
0.377718
0.377706
0.377992
0.377444
0.376751
0.375237
0.373385
0.370939
0.368305
0.365536
0.3629
0.360574
0.358579
0.357106
0.355877
0.355109
0.354251
0.35365
0.352539
0.351506
0.349592
0.347674
0.344595
0.341514
0.337093
0.33274
0.327033
0.321747
0.315943
0.335666
0.33664
0.339155
0.344769
0.355979
0.375272
0.402042
0.43023
0.452146
0.463676
0.46442
0.456122
0.441775
0.424878
0.408583
0.395258
0.386134
0.381472
0.380599
0.382524
0.386071
0.390475
0.395047
0.399636
0.403933
0.408156
0.412068
0.416069
0.41981
0.423844
0.427618
0.431908
0.435873
0.440627
0.444921
0.450356
0.455096
0.461439
0.466754
0.474244
0.480132
0.488571
0.494254
0.502318
0.505969
0.511547
0.511517
0.513601
0.511469
0.507139
0.497586
0.449556
0.399181
0.28859
0.239388
0.272099
0.376125
0.437855
0.457864
0.447986
0.435215
0.417233
0.405165
0.392996
0.386529
0.380525
0.378582
0.376701
0.377105
0.376927
0.377723
0.377713
0.378
0.377454
0.37676
0.375245
0.373392
0.370945
0.36831
0.365539
0.362902
0.360574
0.358579
0.357107
0.35588
0.355115
0.354261
0.353663
0.352555
0.351525
0.349613
0.347697
0.344619
0.341539
0.337117
0.332763
0.327053
0.321764
0.315955
0.335669
0.336649
0.339176
0.34481
0.356052
0.375377
0.402151
0.430299
0.452151
0.46362
0.464322
0.456007
0.44166
0.424774
0.408493
0.395183
0.386075
0.381432
0.380575
0.382515
0.386072
0.390482
0.395056
0.399644
0.40394
0.408161
0.412072
0.41607
0.41981
0.423843
0.427616
0.431906
0.43587
0.440624
0.444917
0.45035
0.455089
0.46143
0.466744
0.474235
0.480124
0.488565
0.49425
0.502318
0.50597
0.511549
0.511514
0.513598
0.511467
0.507154
0.497622
0.449631
0.39935
0.288807
0.239626
0.272264
0.376118
0.437802
0.457829
0.447963
0.435197
0.417217
0.405155
0.392993
0.386533
0.38053
0.378585
0.376701
0.377105
0.376929
0.377727
0.377721
0.378009
0.377463
0.376769
0.375254
0.373399
0.370951
0.368314
0.365542
0.362904
0.360575
0.35858
0.357109
0.355884
0.355122
0.35427
0.353676
0.352572
0.351545
0.349636
0.347722
0.344645
0.341564
0.337142
0.332787
0.327075
0.321783
0.315968
0.335673
0.336659
0.339197
0.344852
0.356127
0.375485
0.402264
0.430372
0.452156
0.463561
0.464219
0.455886
0.441539
0.424664
0.408398
0.395104
0.386014
0.381388
0.38055
0.382505
0.386072
0.390489
0.395064
0.399653
0.403947
0.408166
0.412075
0.416072
0.41981
0.423842
0.427615
0.431904
0.435867
0.44062
0.444912
0.450344
0.45508
0.46142
0.466733
0.474224
0.480114
0.488559
0.494247
0.502318
0.505971
0.511549
0.511512
0.513595
0.511464
0.50717
0.49766
0.449708
0.399526
0.289034
0.239874
0.272436
0.376108
0.437744
0.45779
0.447937
0.435176
0.417199
0.405144
0.39299
0.386537
0.380535
0.378588
0.376702
0.377104
0.376931
0.377732
0.377728
0.378019
0.377473
0.376779
0.375263
0.373407
0.370957
0.368319
0.365545
0.362905
0.360576
0.358581
0.35711
0.355887
0.355128
0.35428
0.35369
0.35259
0.351566
0.349659
0.347747
0.344671
0.341591
0.337169
0.332813
0.327099
0.321805
0.315985
0.335676
0.336669
0.339219
0.344897
0.356206
0.375599
0.402383
0.430447
0.452162
0.463499
0.464112
0.455759
0.441413
0.424549
0.408298
0.395021
0.385949
0.381343
0.380524
0.382494
0.386073
0.390495
0.395074
0.399661
0.403954
0.408171
0.412078
0.416073
0.41981
0.423841
0.427613
0.431901
0.435864
0.440616
0.444907
0.450336
0.455071
0.461409
0.466722
0.474213
0.480105
0.488551
0.494242
0.502317
0.505972
0.51155
0.511508
0.513591
0.511461
0.507187
0.497699
0.449789
0.399709
0.289271
0.240133
0.272615
0.376095
0.43768
0.457747
0.447908
0.435153
0.41718
0.405131
0.392986
0.38654
0.38054
0.37859
0.376702
0.377104
0.376932
0.377737
0.377736
0.378028
0.377484
0.376789
0.375272
0.373415
0.370964
0.368324
0.365548
0.362907
0.360577
0.358581
0.357111
0.35589
0.355134
0.35429
0.353704
0.352607
0.351587
0.349683
0.347773
0.344698
0.34162
0.337197
0.33284
0.327125
0.321828
0.316004
0.33568
0.336679
0.339242
0.344943
0.356288
0.375717
0.402505
0.430525
0.452167
0.463434
0.463999
0.455626
0.44128
0.424429
0.408194
0.394934
0.385881
0.381295
0.380496
0.382483
0.386073
0.390502
0.395083
0.39967
0.403962
0.408176
0.412081
0.416074
0.41981
0.423839
0.42761
0.431898
0.43586
0.440611
0.4449
0.450329
0.455061
0.461398
0.46671
0.474201
0.480094
0.488544
0.494238
0.502316
0.505971
0.51155
0.511504
0.513587
0.511457
0.507204
0.49774
0.449873
0.399899
0.289517
0.240402
0.272799
0.376079
0.437611
0.4577
0.447876
0.435128
0.417159
0.405118
0.392982
0.386543
0.380545
0.378593
0.376701
0.377103
0.376934
0.377742
0.377743
0.378038
0.377494
0.376799
0.375281
0.373423
0.370971
0.368329
0.365551
0.362909
0.360577
0.358582
0.357113
0.355893
0.35514
0.3543
0.353718
0.352625
0.351609
0.349707
0.3478
0.344726
0.341649
0.337226
0.33287
0.327153
0.321854
0.316025
0.335684
0.33669
0.339265
0.344991
0.356373
0.37584
0.402633
0.430606
0.452172
0.463367
0.463882
0.455487
0.441142
0.424303
0.408084
0.394843
0.385809
0.381245
0.380466
0.382472
0.386074
0.390509
0.395092
0.399679
0.403969
0.408181
0.412084
0.416075
0.419809
0.423837
0.427607
0.431894
0.435856
0.440606
0.444894
0.45032
0.455051
0.461386
0.466697
0.474188
0.480083
0.488535
0.494232
0.502314
0.505971
0.511549
0.5115
0.513582
0.511454
0.507222
0.497783
0.449961
0.400096
0.289773
0.240682
0.272991
0.376061
0.437537
0.457648
0.447841
0.435101
0.417136
0.405103
0.392977
0.386545
0.380549
0.378595
0.376701
0.377103
0.376935
0.377746
0.377751
0.378048
0.377505
0.37681
0.375291
0.373431
0.370977
0.368334
0.365555
0.36291
0.360578
0.358582
0.357114
0.355897
0.355147
0.35431
0.353732
0.352644
0.351631
0.349732
0.347828
0.344756
0.34168
0.337258
0.332901
0.327183
0.321883
0.316049
0.335688
0.336701
0.33929
0.34504
0.356462
0.375967
0.402765
0.43069
0.452176
0.463296
0.46376
0.455342
0.440997
0.424171
0.40797
0.394747
0.385735
0.381193
0.380436
0.382459
0.386074
0.390517
0.395102
0.399689
0.403976
0.408186
0.412087
0.416076
0.419808
0.423835
0.427604
0.43189
0.435851
0.4406
0.444886
0.450311
0.45504
0.461373
0.466683
0.474175
0.480071
0.488526
0.494226
0.502311
0.50597
0.511548
0.511495
0.513577
0.51145
0.507241
0.497827
0.450052
0.400301
0.290039
0.240974
0.273188
0.376039
0.437457
0.457592
0.447802
0.43507
0.417111
0.405087
0.39297
0.386547
0.380554
0.378598
0.376701
0.377102
0.376937
0.377751
0.377759
0.378058
0.377516
0.376821
0.375301
0.37344
0.370985
0.368339
0.365558
0.362912
0.360578
0.358582
0.357115
0.3559
0.355153
0.354321
0.353747
0.352663
0.351654
0.349758
0.347856
0.344786
0.341712
0.33729
0.332933
0.327215
0.321913
0.316075
0.335692
0.336713
0.339316
0.345092
0.356554
0.376098
0.402902
0.430776
0.452181
0.463222
0.463632
0.455191
0.440847
0.424034
0.407851
0.394648
0.385657
0.381138
0.380404
0.382446
0.386074
0.390524
0.395112
0.399698
0.403984
0.408191
0.412089
0.416077
0.419807
0.423833
0.427601
0.431886
0.435846
0.440594
0.444879
0.450301
0.455028
0.46136
0.466668
0.474161
0.480058
0.488516
0.49422
0.502309
0.505969
0.511547
0.511489
0.513571
0.511447
0.50726
0.497873
0.450146
0.400513
0.290315
0.241276
0.273393
0.376014
0.437371
0.457531
0.44776
0.435038
0.417085
0.405069
0.392963
0.386548
0.380557
0.378599
0.3767
0.377101
0.376938
0.377756
0.377768
0.378069
0.377527
0.376832
0.375311
0.373449
0.370992
0.368345
0.365562
0.362914
0.360579
0.358582
0.357116
0.355903
0.35516
0.354331
0.353762
0.352682
0.351677
0.349785
0.347886
0.344817
0.341745
0.337324
0.332968
0.327249
0.321946
0.316103
0.335696
0.336725
0.339342
0.345145
0.356649
0.376235
0.403043
0.430865
0.452185
0.463145
0.4635
0.455034
0.440691
0.423891
0.407726
0.394544
0.385576
0.381081
0.38037
0.382432
0.386074
0.390531
0.395122
0.399708
0.403992
0.408196
0.412092
0.416077
0.419806
0.42383
0.427597
0.431881
0.43584
0.440587
0.44487
0.450291
0.455016
0.461345
0.466653
0.474146
0.480045
0.488506
0.494213
0.502305
0.505967
0.511545
0.511483
0.513565
0.511443
0.50728
0.497921
0.450243
0.400733
0.290601
0.241589
0.273604
0.375986
0.43728
0.457466
0.447714
0.435002
0.417056
0.40505
0.392955
0.386548
0.380561
0.378601
0.376699
0.3771
0.376939
0.377761
0.377776
0.378079
0.377539
0.376843
0.375322
0.373458
0.370999
0.36835
0.365565
0.362915
0.360579
0.358583
0.357117
0.355906
0.355166
0.354342
0.353778
0.352702
0.351701
0.349812
0.347916
0.34485
0.341779
0.337359
0.333004
0.327285
0.321981
0.316134
0.335701
0.336738
0.33937
0.345201
0.356747
0.376375
0.403188
0.430957
0.452189
0.463066
0.463363
0.454872
0.440528
0.423742
0.407597
0.394436
0.385491
0.381022
0.380335
0.382417
0.386074
0.390539
0.395132
0.399718
0.404
0.408202
0.412095
0.416077
0.419804
0.423827
0.427593
0.431875
0.435834
0.440579
0.444861
0.45028
0.455002
0.461331
0.466637
0.47413
0.480031
0.488495
0.494205
0.502302
0.505965
0.511543
0.511477
0.513559
0.511438
0.507301
0.49797
0.450344
0.40096
0.290897
0.241913
0.273821
0.375954
0.437182
0.457396
0.447665
0.434964
0.417025
0.40503
0.392947
0.386548
0.380564
0.378603
0.376698
0.377098
0.37694
0.377766
0.377784
0.37809
0.377551
0.376855
0.375332
0.373467
0.371007
0.368356
0.365569
0.362917
0.36058
0.358583
0.357118
0.35591
0.355173
0.354353
0.353793
0.352722
0.351725
0.34984
0.347947
0.344883
0.341815
0.337396
0.333042
0.327323
0.322019
0.316168
0.335705
0.336751
0.339398
0.345258
0.356848
0.376521
0.403338
0.431051
0.452193
0.462983
0.46322
0.454703
0.440359
0.423588
0.407463
0.394324
0.385404
0.38096
0.380299
0.382402
0.386073
0.390547
0.395143
0.399728
0.404007
0.408207
0.412097
0.416078
0.419803
0.423824
0.427588
0.43187
0.435827
0.440571
0.444852
0.450268
0.454989
0.461315
0.466621
0.474114
0.480016
0.488484
0.494197
0.502298
0.505962
0.511541
0.51147
0.513552
0.511434
0.507323
0.498022
0.450449
0.401194
0.291204
0.242249
0.274045
0.37592
0.437078
0.457321
0.447612
0.434924
0.416993
0.405008
0.392937
0.386548
0.380566
0.378604
0.376697
0.377097
0.376941
0.37777
0.377792
0.378101
0.377563
0.376867
0.375343
0.373477
0.371015
0.368362
0.365572
0.362918
0.36058
0.358582
0.357119
0.355913
0.35518
0.354364
0.353809
0.352742
0.35175
0.349868
0.347979
0.344917
0.341852
0.337435
0.333082
0.327363
0.322059
0.316204
0.33571
0.336764
0.339428
0.345317
0.356953
0.37667
0.403492
0.431147
0.452196
0.462897
0.463073
0.454529
0.440185
0.423428
0.407324
0.394208
0.385312
0.380896
0.380261
0.382386
0.386073
0.390554
0.395154
0.399738
0.404015
0.408212
0.412099
0.416077
0.4198
0.42382
0.427583
0.431864
0.43582
0.440563
0.444841
0.450256
0.454974
0.461299
0.466603
0.474097
0.48
0.488472
0.494188
0.502293
0.505959
0.511538
0.511462
0.513545
0.51143
0.507345
0.498075
0.450557
0.401436
0.291521
0.242596
0.274276
0.375882
0.436969
0.457241
0.447555
0.43488
0.416958
0.404984
0.392926
0.386546
0.380568
0.378604
0.376696
0.377095
0.376942
0.377775
0.377801
0.378111
0.377575
0.376879
0.375354
0.373487
0.371023
0.368368
0.365576
0.36292
0.36058
0.358582
0.35712
0.355916
0.355186
0.354375
0.353825
0.352763
0.351775
0.349897
0.348011
0.344953
0.34189
0.337474
0.333123
0.327405
0.322101
0.316242
0.335715
0.336778
0.339458
0.345378
0.357061
0.376824
0.403651
0.431246
0.452199
0.462808
0.462921
0.454348