/*--------------------------------*- C++ -*----------------------------------*\
| =========                 |                                                 |
| \\      /  F ield         | OpenFOAM: The Open Source CFD Toolbox           |
|  \\    /   O peration     | Version:  2412                                  |
|   \\  /    A nd           | Website:  www.openfoam.com                      |
|    \\/     M anipulation  |                                                 |
\*---------------------------------------------------------------------------*/
FoamFile
{
    version     2.0;
    format      ascii;
    arch        "LSB;label=32;scalar=64";
    class       volScalarField;
    location    "0.9";
    object      p;
}
// * * * * * * * * * * * * * * * * * * * * * * * * * * * * * * * * * * * * * //

dimensions      [0 2 -2 0 0 0 0];

internalField   nonuniform List<scalar> 
13068
(
104174
104168
104132
104085
104022
103936
103847
103727
103614
103462
103325
103131
102955
102700
102477
102152
101889
101495
101203
100729
100415
99835.2
99504.5
98783.5
98447
97534.1
97211.7
96035.5
95761
94218.9
94047.4
91989.8
92009.9
89216.9
89569.7
85714.9
86624
81218.6
83037.8
75342.5
78632.7
67517.1
73168.9
56887.8
66318
42150.8
57612
21284.1
46352.1
-8757.04
31568.6
-50981.2
13845.2
-99529.3
48.6742
-69302.1
5804.88
-35377.8
15718.5
-9091.25
24559.6
9653.13
31824
23299.2
38163.2
33702.6
43872.7
41901.9
49004.7
48500.7
53566.4
53882.5
57567.6
58303.7
61032.4
61953.2
64005.7
64984.6
66547.9
67527.5
68723
69688.7
70589.4
71555
72195.2
73196.7
73576.2
74671.2
74755.8
76027.5
75745.1
77309.4
76545.4
78559.5
77151.3
79822
77553.5
81143.4
77739
104174
104168
104132
104085
104022
103936
103847
103728
103614
103462
103325
103131
102955
102700
102477
102152
101889
101495
101203
100729
100415
99835.2
99504.6
98783.6
98447.1
97534.1
97211.8
96035.6
95761.1
94219
94047.5
91989.9
92010
89217
89569.7
85715
86624.1
81218.8
83037.9
75342.6
78632.7
67517.2
73168.8
56887.9
66317.9
42150.8
57611.9
21284.2
46352.1
-8756.87
31568.9
-50981.5
13844.9
-99532.1
47.9125
-69302.8
5804.69
-35377.8
15718.7
-9090.76
24560.1
9653.82
31824.5
23299.6
38163.3
33702.6
43872.6
41901.8
49004.5
48500.5
53566.2
53882.3
57567.4
58303.5
61032.2
61952.9
64005.5
64984.5
66547.7
67527.3
68722.8
69688.6
70589.3
71555
72195.1
73196.6
73576.2
74671.2
74755.8
76027.6
75745.1
77309.4
76545.4
78559.5
77151.3
79822
77553.5
81143.4
77739
104174
104168
104133
104085
104022
103937
103847
103728
103614
103462
103325
103131
102955
102700
102477
102152
101889
101495
101203
100729
100415
99835.3
99504.6
98783.6
98447.1
97534.2
97211.8
96035.6
95761.1
94219.1
94047.5
91990
92010
89217.1
89569.8
85715.2
86624.2
81218.9
83038
75342.8
78632.8
67517.3
73168.9
56888
66317.8
42150.9
57611.8
21284.3
46352.1
-8756.66
31569
-50982.1
13844.4
-99536.1
46.7703
-69303.8
5804.33
-35377.7
15718.9
-9090.18
24560.7
9654.57
31825
23300
38163.4
33702.7
43872.5
41901.7
49004.4
48500.3
53566
53882.1
57567.1
58303.3
61032
61952.8
64005.3
64984.3
66547.6
67527.2
68722.7
69688.5
70589.2
71554.9
72195.1
73196.6
73576.2
74671.2
74755.8
76027.6
75745.1
77309.4
76545.5
78559.6
77151.3
79822.1
77553.5
81143.5
77739
104174
104168
104133
104085
104022
103937
103847
103728
103614
103462
103325
103131
102955
102700
102477
102152
101889
101495
101203
100729
100415
99835.3
99504.7
98783.7
98447.2
97534.3
97211.9
96035.7
95761.2
94219.2
94047.6
91990.1
92010.1
89217.3
89569.9
85715.4
86624.3
81219.2
83038.1
75343
78632.9
67517.6
73168.9
56888.2
66317.8
42151.1
57611.7
21284.5
46352.1
-8756.39
31569.2
-50983.1
13843.8
-99541.3
45.2454
-69305
5803.8
-35377.7
15719.2
-9089.5
24561.3
9655.4
31825.4
23300.5
38163.5
33702.8
43872.4
41901.6
49004.2
48500.2
53565.8
53881.9
57566.9
58303.1
61031.8
61952.6
64005.2
64984.2
66547.4
67527.1
68722.6
69688.4
70589.2
71554.8
72195.1
73196.6
73576.2
74671.2
74755.9
76027.6
75745.2
77309.5
76545.5
78559.6
77151.4
79822.1
77553.5
81143.5
77739
104175
104168
104133
104085
104022
103937
103847
103728
103614
103462
103325
103131
102955
102700
102477
102152
101890
101495
101204
100729
100415
99835.4
99504.8
98783.8
98447.3
97534.4
97212
96035.9
95761.3
94219.3
94047.8
91990.3
92010.3
89217.5
89570.1
85715.7
86624.5
81219.5
83038.3
75343.4
78633
67518
73169
56888.6
66317.8
42151.4
57611.7
21284.8
46352.2
-8756.06
31569.4
-50984.2
13842.9
-99547.9
43.3347
-69306.5
5803.11
-35377.7
15719.4
-9088.72
24561.9
9656.3
31825.9
23301
38163.6
33702.9
43872.3
41901.6
49004
48500.1
53565.6
53881.8
57566.8
58303
61031.6
61952.5
64005
64984.1
66547.3
67527
68722.5
69688.4
70589.1
71554.8
72195.1
73196.5
73576.2
74671.2
74755.9
76027.6
75745.3
77309.5
76545.6
78559.6
77151.4
79822.2
77553.6
81143.5
77739.1
104175
104168
104133
104085
104022
103937
103847
103728
103614
103462
103325
103131
102955
102700
102477
102153
101890
101495
101204
100729
100415
99835.5
99504.9
98783.9
98447.4
97534.5
97212.1
96036
95761.5
94219.5
94047.9
91990.5
92010.5
89217.7
89570.3
85716
86624.6
81219.8
83038.5
75343.8
78633.2
67518.4
73169.1
56889
66317.8
42151.8
57611.7
21285.3
46352.3
-8755.66
31569.5
-50985.7
13841.9
-99555.7
41.038
-69308.4
5802.25
-35377.6
15719.6
-9087.85
24562.6
9657.29
31826.4
23301.5
38163.7
33703.1
43872.1
41901.6
49003.9
48500
53565.4
53881.7
57566.6
58302.9
61031.5
61952.4
64004.9
64984
66547.2
67527
68722.5
69688.3
70589.1
71554.8
72195.1
73196.5
73576.3
74671.2
74756
76027.6
75745.4
77309.5
76545.7
78559.7
77151.5
79822.2
77553.6
81143.5
77739.1
104175
104169
104133
104086
104022
103937
103848
103728
103615
103463
103325
103131
102955
102700
102477
102153
101890
101495
101204
100729
100415
99835.6
99505
98784
98447.5
97534.7
97212.2
96036.2
95761.6
94219.7
94048.1
91990.8
92010.6
89218
89570.5
85716.3
86624.9
81220.3
83038.7
75344.3
78633.4
67518.9
73169.3
56889.6
66317.9
42152.4
57611.7
21285.9
46352.5
-8755.2
31569.6
-50987.5
13840.7
-99564.8
38.3552
-69310.5
5801.24
-35377.5
15719.8
-9086.87
24563.2
9658.35
31826.9
23302.1
38163.8
33703.3
43872
41901.6
49003.7
48500
53565.2
53881.6
57566.4
58302.8
61031.3
61952.3
64004.8
64983.9
66547.1
67526.9
68722.4
69688.3
70589.1
71554.7
72195.1
73196.5
73576.3
74671.2
74756.1
76027.7
75745.5
77309.6
76545.8
78559.7
77151.7
79822.2
77553.7
81143.5
77739.2
104176
104169
104134
104086
104023
103938
103848
103728
103615
103463
103325
103131
102955
102700
102477
102153
101890
101495
101204
100729
100415
99835.7
99505.1
98784.2
98447.6
97534.9
97212.4
96036.4
95761.8
94220
94048.3
91991.1
92010.9
89218.4
89570.7
85716.7
86625.1
81220.7
83039
75344.9
78633.7
67519.6
73169.5
56890.2
66318
42153
57611.8
21286.6
46352.7
-8754.68
31569.7
-50989.5
13839.2
-99575.2
35.2866
-69312.9
5800.06
-35377.4
15720
-9085.8
24563.9
9659.49
31827.4
23302.8
38163.9
33703.5
43871.9
41901.6
49003.5
48500
53565.1
53881.6
57566.3
58302.7
61031.2
61952.2
64004.7
64983.8
66547.1
67526.9
68722.4
69688.2
70589.1
71554.7
72195.1
73196.5
73576.4
74671.3
74756.2
76027.7
75745.6
77309.6
76546
78559.7
77151.8
79822.2
77553.8
81143.5
77739.3
104176
104169
104134
104086
104023
103938
103848
103729
103615
103463
103325
103131
102955
102700
102477
102153
101890
101495
101204
100729
100415
99835.9
99505.2
98784.3
98447.8
97535
97212.6
96036.7
95762
94220.2
94048.5
91991.4
92011.1
89218.8
89571
85717.2
86625.4
81221.3
83039.3
75345.5
78634
67520.3
73169.7
56890.9
66318.2
42153.8
57611.9
21287.4
46352.9
-8754.09
31569.8
-50991.8
13837.6
-99586.8
31.8319
-69315.6
5798.72
-35377.3
15720.2
-9084.62
24564.6
9660.72
31827.9
23303.5
38164
33703.8
43871.8
41901.7
49003.4
48500
53564.9
53881.5
57566.1
58302.7
61031.1
61952.2
64004.6
64983.8
66547
67526.8
68722.4
69688.2
70589.1
71554.7
72195.1
73196.5
73576.5
74671.3
74756.3
76027.7
75745.8
77309.6
76546.2
78559.7
77151.9
79822.2
77554
81143.5
77739.4
104176
104170
104135
104087
104023
103938
103848
103729
103615
103463
103325
103131
102955
102700
102477
102153
101890
101495
101204
100729
100415
99836
99505.4
98784.5
98448
97535.3
97212.8
96036.9
95762.2
94220.6
94048.8
91991.8
92011.4
89219.2
89571.3
85717.7
86625.8
81221.9
83039.6
75346.2
78634.3
67521.1
73170
56891.8
66318.3
42154.7
57612
21288.3
46353.1
-8753.44
31569.9
-50994.4
13835.8
-99599.7
27.9914
-69318.5
5797.21
-35377.2
15720.5
-9083.34
24565.4
9662.02
31828.4
23304.3
38164
33704.1
43871.6
41901.8
49003.2
48500
53564.8
53881.5
57566
58302.6
61031
61952.2
64004.6
64983.8
66547
67526.8
68722.4
69688.2
70589.1
71554.7
72195.2
73196.5
73576.5
74671.3
74756.4
76027.7
75745.9
77309.6
76546.3
78559.7
77152.1
79822.1
77554.1
81143.4
77739.5
104177
104170
104135
104087
104024
103938
103849
103729
103615
103463
103325
103131
102955
102700
102477
102153
101890
101496
101204
100729
100416
99836.2
99505.5
98784.7
98448.2
97535.5
97213
96037.2
95762.5
94220.9
94049
91992.2
92011.7
89219.7
89571.7
85718.3
86626.1
81222.6
83040
75347
78634.7
67521.9
73170.3
56892.7
66318.5
42155.6
57612.2
21289.4
46353.4
-8752.73
31569.9
-50997.2
13833.8
-99613.9
23.765
-69321.8
5795.55
-35377
15720.7
-9081.97
24566.1
9663.41
31828.9
23305.1
38164.1
33704.4
43871.5
41901.9
49003
48500
53564.6
53881.6
57565.9
58302.7
61030.9
61952.2
64004.5
64983.8
66547
67526.9
68722.4
69688.2
70589.1
71554.7
72195.2
73196.5
73576.6
74671.3
74756.6
76027.7
75746.1
77309.6
76546.6
78559.7
77152.3
79822.1
77554.3
81143.4
77739.6
104177
104171
104135
104088
104024
103939
103849
103729
103616
103463
103325
103131
102956
102700
102477
102153
101890
101496
101204
100730
100416
99836.4
99505.7
98785
98448.4
97535.8
97213.2
96037.5
95762.7
94221.3
94049.3
91992.6
92012
89220.2
89572
85718.9
86626.5
81223.3
83040.4
75347.9
78635.1
67522.9
73170.6
56893.8
66318.8
42156.7
57612.4
21290.5
46353.7
-8751.95
31570
-51000.3
13831.5
-99629.4
19.153
-69325.3
5793.72
-35376.8
15720.9
-9080.49
24566.9
9664.87
31829.4
23306
38164.2
33704.8
43871.4
41902.1
49002.9
48500.1
53564.5
53881.6
57565.8
58302.7
61030.9
61952.2
64004.5
64983.9
66547
67526.9
68722.4
69688.3
70589.2
71554.7
72195.3
73196.5
73576.8
74671.3
74756.7
76027.7
75746.3
77309.6
76546.8
78559.6
77152.5
79822.1
77554.5
81143.3
77739.7
104178
104171
104136
104088
104025
103939
103849
103730
103616
103463
103325
103131
102956
102700
102477
102153
101890
101496
101204
100730
100416
99836.6
99505.9
98785.2
98448.6
97536.1
97213.5
96037.8
95763
94221.7
94049.7
91993.1
92012.4
89220.8
89572.4
85719.6
86627
81224.1
83040.9
75348.8
78635.5
67524
73171
56894.9
66319.1
42157.9
57612.6
21291.8
46354.1
-8751.1
31570
-51003.7
13829.1
-99646.1
14.1552
-69329.2
5791.73
-35376.6
15721.1
-9078.92
24567.7
9666.41
31830
23306.9
38164.3
33705.2
43871.3
41902.3
49002.7
48500.2
53564.4
53881.7
57565.7
58302.8
61030.8
61952.3
64004.5
64983.9
66547
67526.9
68722.4
69688.3
70589.2
71554.7
72195.4
73196.5
73576.9
74671.3
74756.9
76027.7
75746.5
77309.6
76547
78559.6
77152.8
79822
77554.7
81143.2
77739.9
104179
104172
104137
104089
104025
103940
103850
103730
103616
103464
103326
103131
102956
102700
102478
102153
101890
101496
101204
100730
100416
99836.8
99506.1
98785.5
98448.8
97536.4
97213.8
96038.2
95763.4
94222.1
94050
91993.6
92012.8
89221.4
89572.9
85720.3
86627.4
81225
83041.4
75349.8
78636
67525.1
73171.4
56896.2
66319.4
42159.3
57612.9
21293.2
46354.4
-8750.2
31570
-51007.4
13826.5
-99664.1
8.77201
-69333.3
5789.58
-35376.4
15721.3
-9077.24
24568.6
9668.04
31830.5
23307.9
38164.3
33705.6
43871.1
41902.5
49002.6
48500.4
53564.3
53881.8
57565.7
58302.9
61030.8
61952.4
64004.5
64984
66547.1
67527
68722.5
69688.3
70589.3
71554.8
72195.5
73196.6
73577
74671.3
74757.1
76027.7
75746.8
77309.6
76547.3
78559.6
77153.1
79821.9
77554.9
81143.2
77740
104179
104172
104137
104089
104026
103940
103850
103730
103616
103464
103326
103131
102956
102701
102478
102153
101890
101496
101205
100730
100416
99837
99506.4
98785.7
98449.1
97536.7
97214.1
96038.6
95763.7
94222.6
94050.4
91994.1
92013.2
89222.1
89573.3
85721.1
86627.9
81225.9
83041.9
75350.9
78636.5
67526.4
73171.9
56897.5
66319.7
42160.7
57613.1
21294.7
46354.8
-8749.22
31570
-51011.4
13823.8
-99683.4
3.00336
-69337.7
5787.27
-35376.2
15721.6
-9075.47
24569.4
9669.74
31831.1
23308.9
38164.4
33706.1
43871
41902.7
49002.4
48500.5
53564.2
53881.9
57565.6
58303
61030.8
61952.5
64004.5
64984.1
66547.1
67527.1
68722.6
69688.4
70589.4
71554.8
72195.6
73196.6
73577.2
74671.4
74757.3
76027.7
75747
77309.5
76547.6
78559.5
77153.3
79821.9
77555.1
81143.1
77740.2
104180
104173
104138
104090
104026
103941
103851
103731
103617
103464
103326
103132
102956
102701
102478
102153
101891
101496
101205
100730
100417
99837.3
99506.6
98786
98449.4
97537
97214.4
96039
95764
94223
94050.8
91994.7
92013.7
89222.8
89573.8
85722
86628.5
81226.9
83042.4
75352.1
78637.1
67527.7
73172.4
56899
66320.1
42162.2
57613.5
21296.3
46355.3
-8748.19
31570
-51015.6
13820.8
-99704
-3.15052
-69342.3
5784.8
-35376
15721.8
-9073.59
24570.3
9671.52
31831.6
23309.9
38164.5
33706.6
43870.8
41903
49002.3
48500.7
53564.1
53882.1
57565.6
58303.1
61030.8
61952.6
64004.6
64984.2
66547.2
67527.2
68722.6
69688.5
70589.5
71554.9
72195.7
73196.6
73577.3
74671.4
74757.5
76027.8
75747.3
77309.5
76547.9
78559.4
77153.6
79821.8
77555.4
81142.9
77740.3
104181
104174
104138
104090
104027
103941
103851
103731
103617
103464
103326
103132
102956
102701
102478
102154
101891
101496
101205
100731
100417
99837.6
99506.9
98786.4
98449.7
97537.4
97214.7
96039.5
95764.4
94223.6
94051.2
91995.3
92014.1
89223.5
89574.3
85722.9
86629
81228
83043
75353.3
78637.7
67529.1
73172.9
56900.5
66320.5
42163.9
57613.8
21298.1
46355.8
-8747.09
31570
-51020.1
13817.6
-99725.9
-9.68953
-69347.3
5782.16
-35375.7
15722
-9071.62
24571.2
9673.38
31832.2
23311.1
38164.5
33707.2
43870.7
41903.3
49002.1
48500.9
53564
53882.3
57565.5
58303.3
61030.8
61952.8
64004.6
64984.4
66547.3
67527.3
68722.7
69688.6
70589.6
71554.9
72195.9
73196.7
73577.5
74671.4
74757.7
76027.8
75747.6
77309.5
76548.2
78559.4
77154
79821.7
77555.7
81142.8
77740.5
104182
104175
104139
104091
104027
103942
103852
103731
103617
103465
103326
103132
102956
102701
102478
102154
101891
101497
101205
100731
100417
99837.8
99507.1
98786.7
98450
97537.8
97215.1
96039.9
95764.8
94224.1
94051.7
91996
92014.6
89224.3
89574.9
85723.8
86629.6
81229.1
83043.7
75354.6
78638.3
67530.6
73173.4
56902.2
66321
42165.7
57614.2
21299.9
46356.3
-8745.92
31570
-51024.9
13814.2
-99749
-16.6135
-69352.5
5779.37
-35375.4
15722.2
-9069.54
24572.2
9675.33
31832.7
23312.2
38164.6
33707.7
43870.5
41903.6
49002
48501.2
53563.9
53882.5
57565.5
58303.5
61030.9
61952.9
64004.7
64984.5
66547.4
67527.4
68722.9
69688.7
70589.7
71555
72196
73196.7
73577.7
74671.4
74758
76027.8
75747.9
77309.5
76548.6
78559.3
77154.3
79821.6
77556
81142.7
77740.7
104182
104175
104140
104092
104028
103942
103852
103732
103618
103465
103327
103132
102956
102701
102478
102154
101891
101497
101205
100731
100417
99838.1
99507.4
98787.1
98450.3
97538.2
97215.5
96040.4
95765.3
94224.7
94052.2
91996.7
92015.2
89225.1
89575.5
85724.8
86630.3
81230.3
83044.3
75356
78638.9
67532.2
73174
56903.9
66321.4
42167.5
57614.6
21301.9
46356.8
-8744.69
31569.9
-51029.9
13810.6
-99773.4
-23.9222
-69358.1
5776.42
-35375.1
15722.5
-9067.37
24573.1
9677.35
31833.3
23313.4
38164.6
33708.4
43870.4
41904
49001.9
48501.4
53563.8
53882.7
57565.5
58303.7
61030.9
61953.1
64004.8
64984.7
66547.5
67527.6
68723
69688.8
70589.8
71555.1
72196.2
73196.8
73577.9
74671.4
74758.2
76027.8
75748.2
77309.4
76548.9
78559.2
77154.7
79821.4
77556.3
81142.6
77740.9
104183
104176
104141
104092
104029
103943
103853
103732
103618
103465
103327
103132
102956
102701
102478
102154
101891
101497
101206
100731
100417
99838.4
99507.7
98787.4
98450.7
97538.7
97215.9
96040.9
95765.7
94225.3
94052.7
91997.4
92015.7
89226
89576.1
85725.9
86630.9
81231.6
83045
75357.5
78639.6
67533.9
73174.7
56905.8
66321.9
42169.5
57615.1
21304
46357.4
-8743.4
31569.9
-51035.3
13806.9
-99799.1
-31.6155
-69363.9
5773.31
-35374.8
15722.7
-9065.1
24574.1
9679.45
31833.9
23314.7
38164.7
33709
43870.2
41904.4
49001.7
48501.7
53563.8
53883
57565.5
58303.9
61031
61953.4
64004.9
64984.9
66547.6
67527.8
68723.1
69688.9
70590
71555.2
72196.3
73196.8
73578.1
74671.5
74758.5
76027.8
75748.6
77309.4
76549.3
78559.1
77155.1
79821.3
77556.6
81142.4
77741.2
104184
104177
104142
104093
104029
103943
103853
103733
103618
103465
103327
103132
102957
102701
102478
102154
101891
101497
101206
100732
100418
99838.8
99508.1
98787.8
98451.1
97539.1
97216.3
96041.5
95766.2
94226
94053.2
91998.2
92016.3
89226.9
89576.7
85727
86631.7
81232.9
83045.8
75359
78640.4
67535.7
73175.3
56907.7
66322.5
42171.6
57615.6
21306.2
46358
-8742.04
31569.8
-51040.9
13802.9
-99826
-39.6932
-69370
5770.04
-35374.4
15722.9
-9062.73
24575.1
9681.63
31834.5
23316
38164.7
33709.7
43870.1
41904.8
49001.6
48502
53563.7
53883.3
57565.6
58304.2
61031.1
61953.6
64005.1
64985.1
66547.8
67527.9
68723.3
69689
70590.2
71555.3
72196.5
73196.9
73578.3
74671.5
74758.8
76027.8
75748.9
77309.3
76549.7
78559
77155.5
79821.2
77557
81142.2
77741.4
104185
104178
104143
104094
104030
103944
103854
103733
103619
103466
103327
103133
102957
102701
102479
102154
101892
101498
101206
100732
100418
99839.1
99508.4
98788.2
98451.5
97539.6
97216.7
96042.1
95766.7
94226.7
94053.7
91999
92016.9
89227.9
89577.4
85728.1
86632.4
81234.3
83046.6
75360.7
78641.2
67537.5
73176
56909.8
66323.1
42173.8
57616.1
21308.5
46358.6
-8740.61
31569.7
-51046.7
13798.8
-99854.3
-48.155
-69376.4
5766.61
-35374.1
15723.2
-9060.26
24576.1
9683.89
31835.1
23317.4
38164.7
33710.4
43869.9
41905.2
49001.4
48502.4
53563.7
53883.6
57565.6
58304.5
61031.2
61953.9
64005.2
64985.4
66547.9
67528.1
68723.5
69689.2
70590.3
71555.4
72196.7
73196.9
73578.6
74671.5
74759.1
76027.7
75749.3
77309.3
76550.1
78558.9
77155.9
79821
77557.4
81142.1
77741.7
104186
104179
104143
104095
104031
103945
103855
103734
103619
103466
103327
103133
102957
102702
102479
102155
101892
101498
101206
100732
100418
99839.5
99508.8
98788.7
98451.9
97540.1
97217.2
96042.7
95767.2
94227.4
94054.3
91999.9
92017.6
89228.9
89578.1
85729.3
86633.2
81235.7
83047.4
75362.4
78642
67539.5
73176.8
56911.9
66323.7
42176.2
57616.6
21311
46359.3
-8739.12
31569.6
-51052.9
13794.4
-99883.8
-57.0009
-69383
5763.02
-35373.7
15723.4
-9057.69
24577.2
9686.23
31835.7
23318.8
38164.8
33711.2
43869.7
41905.7
49001.3
48502.8
53563.6
53883.9
57565.6
58304.8
61031.3
61954.2
64005.4
64985.6
66548.1
67528.4
68723.6
69689.4
70590.5
71555.5
72196.9
73197
73578.8
74671.6
74759.4
76027.7
75749.7
77309.2
76550.6
78558.8
77156.4
79820.8
77557.7
81141.9
77741.9
104187
104180
104144
104096
104032
103946
103855
103734
103620
103466
103328
103133
102957
102702
102479
102155
101892
101498
101207
100732
100419
99839.9
99509.1
98789.1
98452.3
97540.7
97217.7
96043.3
95767.7
94228.1
94054.9
92000.7
92018.2
89230
89578.9
85730.6
86634
81237.2
83048.2
75364.1
78642.8
67541.5
73177.6
56914.2
66324.3
42178.6
57617.2
21313.5
46360
-8737.57
31569.5
-51059.3
13789.9
-99914.7
-66.2305
-69390
5759.27
-35373.3
15723.6
-9055.02
24578.2
9688.65
31836.3
23320.3
38164.8
33712
43869.6
41906.2
49001.2
48503.2
53563.6
53884.3
57565.7
58305.2
61031.5
61954.5
64005.6
64985.9
66548.3
67528.6
68723.8
69689.5
70590.7
71555.6
72197.1
73197.1
73579.1
74671.6
74759.8
76027.7
75750.1
77309.1
76551
78558.7
77156.8
79820.7
77558.2
81141.7
77742.2
104188
104181
104145
104097
104033
103946
103856
103735
103620
103467
103328
103133
102957
102702
102479
102155
101892
101498
101207
100733
100419
99840.3
99509.5
98789.6
98452.7
97541.2
97218.2
96043.9
95768.3
94228.9
94055.5
92001.7
92018.9
89231.1
89579.6
85731.9
86634.8
81238.8
83049.1
75366
78643.7
67543.6
73178.4
56916.6
66325
42181.2
57617.8
21316.2
46360.7
-8735.94
31569.4
-51066
13785.1
-99946.8
-75.8437
-69397.2
5755.37
-35372.9
15723.8
-9052.25
24579.3
9691.14
31836.9
23321.8
38164.8
33712.8
43869.4
41906.7
49001
48503.6
53563.5
53884.7
57565.8
58305.5
61031.6
61954.9
64005.8
64986.2
66548.5
67528.9
68724.1
69689.7
70590.9
71555.7
72197.4
73197.2
73579.4
74671.6
74760.1
76027.7
75750.5
77309.1
76551.5
78558.5
77157.3
79820.5
77558.6
81141.5
77742.5
104190
104182
104146
104098
104034
103947
103857
103736
103621
103467
103328
103133
102957
102702
102479
102155
101892
101499
101207
100733
100419
99840.7
99509.9
98790.1
98453.2
97541.8
97218.7
96044.6
95768.9
94229.7
94056.2
92002.6
92019.7
89232.2
89580.5
85733.3
86635.7
81240.4
83050
75367.9
78644.6
67545.8
73179.2
56919
66325.7
42183.8
57618.5
21319
46361.5
-8734.26
31569.3
-51073
13780.2
-99980.1
-85.8402
-69404.7
5751.3
-35372.5
15724.1
-9049.38
24580.5
9693.72
31837.5
23323.4
38164.8
33713.6
43869.2
41907.3
49000.9
48504
53563.5
53885.1
57565.9
58305.9
61031.8
61955.3
64006
64986.6
66548.8
67529.1
68724.3
69689.9
70591.2
71555.9
72197.6
73197.3
73579.7
74671.7
74760.5
76027.7
75751
77309
76552
78558.4
77157.9
79820.3
77559
81141.2
77742.8
104191
104183
104148
104099
104035
103948
103857
103736
103621
103467
103328
103134
102958
102702
102480
102156
101893
101499
101207
100733
100420
99841.1
99510.3
98790.6
98453.7
97542.4
97219.2
96045.3
95769.5
94230.5
94056.9
92003.6
92020.4
89233.4
89581.3
85734.7
86636.6
81242.1
83051
75369.9
78645.6
67548.1
73180.1
56921.6
66326.5
42186.6
57619.1
21321.9
46362.3
-8732.5
31569.2
-51080.2
13775.1
-100015
-96.2198
-69412.4
5747.08
-35372
15724.3
-9046.42
24581.6
9696.38
31838.1
23325
38164.9
33714.5
43869
41907.8
49000.8
48504.5
53563.5
53885.5
57566
58306.4
61032
61955.7
64006.2
64986.9
66549
67529.4
68724.5
69690.1
70591.4
71556
72197.9
73197.3
73580
74671.7
74760.9
76027.7
75751.4
77308.9
76552.6
78558.2
77158.4
79820.1
77559.5
81141
77743.1
104192
104184
104149
104100
104036
103949
103858
103737
103622
103468
103329
103134
102958
102703
102480
102156
101893
101499
101208
100734
100420
99841.5
99510.7
98791.1
98454.1
97543
97219.8
96046
95770.1
94231.4
94057.6
92004.6
92021.2
89234.6
89582.2
85736.2
86637.5
81243.9
83052
75372
78646.6
67550.5
73181
56924.2
66327.2
42189.5
57619.8
21324.9
46363.1
-8730.69
31569
-51087.7
13769.8
-100051
-106.982
-69420.5
5742.7
-35371.5
15724.5
-9043.36
24582.8
9699.11
31838.7
23326.6
38164.9
33715.4
43868.9
41908.5
49000.6
48505
53563.5
53886
57566.1
58306.8
61032.2
61956.1
64006.5
64987.3
66549.3
67529.7
68724.8
69690.4
70591.6
71556.2
72198.1
73197.4
73580.3
74671.8
74761.2
76027.7
75751.9
77308.8
76553.1
78558.1
77159
79819.8
77560
81140.7
77743.4
104193
104186
104150
104101
104037
103950
103859
103737
103622
103468
103329
103134
102958
102703
102480
102156
101893
101499
101208
100734
100420
99842
99511.2
98791.6
98454.7
97543.6
97220.4
96046.8
95770.8
94232.3
94058.3
92005.7
92022
89235.9
89583
85737.7
86638.5
81245.7
83053
75374.1
78647.6
67553
73182
56927
66328.1
42192.5
57620.6
21328
46363.9
-8728.8
31568.8
-51095.5
13764.3
-100088
-118.127
-69428.8
5738.16
-35371
15724.8
-9040.19
24584
9701.92
31839.4
23328.4
38164.9
33716.4
43868.7
41909.1
49000.5
48505.5
53563.5
53886.5
57566.2
58307.3
61032.4
61956.5
64006.7
64987.7
66549.5
67530
68725.1
69690.6
70591.9
71556.3
72198.4
73197.5
73580.6
74671.8
74761.6
76027.7
75752.4
77308.8
76553.7
78557.9
77159.5
79819.6
77560.5
81140.5
77743.7
104195
104187
104151
104102
104038
103951
103860
103738
103623
103469
103329
103134
102958
102703
102480
102156
101893
101500
101208
100735
100421
99842.5
99511.7
98792.2
98455.2
97544.3
97221
96047.6
95771.4
94233.2
94059.1
92006.8
92022.9
89237.2
89584
85739.3
86639.5
81247.6
83054.1
75376.3
78648.7
67555.6
73183
56929.9
66328.9
42195.6
57621.3
21331.3
46364.8
-8726.85
31568.7
-51103.6
13758.5
-100127
-129.655
-69437.4
5733.46
-35370.5
15725
-9036.94
24585.2
9704.81
31840
23330.1
38164.9
33717.4
43868.5
41909.8
49000.4
48506.1
53563.5
53887
57566.4
58307.8
61032.6
61957
64007
64988.1
66549.8
67530.4
68725.3
69690.9
70592.2
71556.5
72198.7
73197.6
73581
74671.9
74762.1
76027.7
75752.9
77308.7
76554.2
78557.7
77160.1
79819.4
77561
81140.2
77744.1
104196
104188
104152
104103
104039
103952
103861
103739
103623
103469
103330
103135
102958
102703
102480
102157
101894
101500
101209
100735
100421
99842.9
99512.1
98792.8
98455.7
97545
97221.6
96048.4
95772.1
94234.2
94059.9
92007.9
92023.7
89238.6
89584.9
85740.9
86640.5
81249.5
83055.2
75378.6
78649.8
67558.2
73184
56932.8
66329.8
42198.8
57622.1
21334.7
46365.8
-8724.83
31568.5
-51111.9
13752.6
-100166
-141.564
-69446.3
5728.61
-35370
15725.2
-9033.58
24586.4
9707.78
31840.6
23331.9
38164.9
33718.4
43868.3
41910.4
49000.3
48506.7
53563.5
53887.5
57566.5
58308.3
61032.9
61957.5
64007.3
64988.5
66550.2
67530.7
68725.6
69691.1
70592.5
71556.7
72199
73197.7
73581.3
74671.9
74762.5
76027.6
75753.4
77308.6
76554.8
78557.5
77160.8
79819.1
77561.6
81139.9
77744.4
104197
104190
104154
104104
104040
103953
103861
103740
103624
103470
103330
103135
102959
102703
102481
102157
101894
101500
101209
100735
100422
99843.5
99512.6
98793.4
98456.3
97545.7
97222.2
96049.2
95772.9
94235.1
94060.7
92009.1
92024.6
89240
89585.9
85742.6
86641.6
81251.5
83056.3
75381
78650.9
67561
73185.1
56935.9
66330.7
42202.1
57623
21338.2
46366.7
-8722.75
31568.3
-51120.5
13746.5
-100208
-153.855
-69455.4
5723.6
-35369.5
15725.4
-9030.13
24587.6
9710.83
31841.3
23333.8
38164.9
33719.5
43868.1
41911.2
49000.1
48507.3
53563.6
53888.1
57566.7
58308.9
61033.1
61958
64007.6
64989
66550.5
67531.1
68726
69691.4
70592.8
71556.9
72199.3
73197.9
73581.7
74672
74762.9
76027.6
75754
77308.5
76555.5
78557.3
77161.4
79818.8
77562.2
81139.6
77744.8
104199
104191
104155
104105
104041
103954
103862
103740
103625
103470
103330
103135
102959
102704
102481
102157
101894
101501
101209
100736
100422
99844
99513.1
98794
98456.9
97546.4
97222.9
96050.1
95773.6
94236.2
94061.5
92010.3
92025.6
89241.4
89586.9
85744.3
86642.7
81253.6
83057.5
75383.5
78652.1
67563.8
73186.2
56939
66331.6
42205.6
57623.8
21341.8
46367.7
-8720.6
31568.1
-51129.4
13740.2
-100250
-166.528
-69464.9
5718.44
-35368.9
15725.7
-9026.57
24588.9
9713.95
31841.9
23335.7
38164.8
33720.6
43867.9
41911.9
49000
48507.9
53563.6
53888.7
57566.9
58309.5
61033.4
61958.6
64008
64989.5
66550.8
67531.5
68726.3
69691.7
70593.1
71557.1
72199.7
73198
73582
74672
74763.4
76027.6
75754.5
77308.4
76556.1
78557.1
77162.1
79818.6
77562.7
81139.3
77745.2
104200
104192
104156
104107
104042
103955
103863
103741
103625
103470
103331
103135
102959
102704
102481
102157
101895
101501
101210
100736
100422
99844.5
99513.7
98794.6
98457.5
97547.2
97223.5
96051
95774.4
94237.2
94062.3
92011.6
92026.5
89242.9
89588
85746.1
86643.9
81255.7
83058.7
75386
78653.4
67566.7
73187.3
56942.3
66332.6
42209.1
57624.7
21345.5
46368.7
-8718.38
31567.9
-51138.5
13733.8
-100294
-179.583
-69474.6
5713.11
-35368.3
15725.9
-9022.93
24590.2
9717.15
31842.6
23337.7
38164.8
33721.7
43867.7
41912.7
48999.9
48508.6
53563.6
53889.3
57567
58310.1
61033.7
61959.1
64008.3
64990
66551.2
67531.9
68726.6
69692
70593.4
71557.3
72200
73198.1
73582.4
74672.1
74763.9
76027.6
75755.1
77308.2
76556.8
78556.9
77162.8
79818.3
77563.3
81139
77745.6
104202
104194
104158
104108
104043
103956
103864
103742
103626
103471
103331
103136
102959
102704
102481
102158
101895
101501
101210
100737
100423
99845.1
99514.2
98795.3
98458.1
97548
97224.2
96051.9
95775.1
94238.3
94063.2
92012.9
92027.5
89244.5
89589.1
85747.9
86645.1
81257.9
83059.9
75388.6
78654.6
67569.7
73188.5
56945.7
66333.6
42212.8
57625.7
21349.3
46369.8
-8716.09
31567.6
-51147.9
13727.1
-100339
-193.018
-69484.6
5707.64
-35367.7
15726.1
-9019.18
24591.5
9720.43
31843.3
23339.7
38164.8
33722.8
43867.5
41913.5
48999.8
48509.2
53563.7
53890
57567.2
58310.7
61034
61959.7
64008.7
64990.5
66551.6
67532.3
68727
69692.3
70593.8
71557.5
72200.3
73198.2
73582.8
74672.1
74764.4
76027.5
75755.7
77308.1
76557.5
78556.7
77163.5
79818
77564
81138.7
77746
104204
104195
104159
104109
104045
103957
103865
103743
103627
103471
103332
103136
102960
102705
102482
102158
101895
101502
101210
100737
100423
99845.6
99514.7
98796
98458.7
97548.7
97225
96052.8
95776
94239.4
94064.1
92014.2
92028.5
89246
89590.2
85749.8
86646.3
81260.2
83061.2
75391.3
78655.9
67572.8
73189.7
56949.1
66334.7
42216.5
57626.6
21353.3
46370.9
-8713.74
31567.4
-51157.6
13720.2
-100385
-206.835
-69494.8
5702
-35367.1
15726.3
-9015.34
24592.9
9723.79
31843.9
23341.7
38164.8
33724
43867.3
41914.3
48999.7
48509.9
53563.7
53890.7
57567.5
58311.4
61034.4
61960.3
64009.1
64991
66552
67532.8
68727.4
69692.7
70594.1
71557.7
72200.7
73198.4
73583.3
74672.2
74764.9
76027.5
75756.3
77308
76558.2
78556.5
77164.2
79817.7
77564.6
81138.3
77746.4
104205
104197
104161
104111
104046
103958
103866
103744
103627
103472
103332
103136
102960
102705
102482
102158
101896
101502
101211
100738
100424
99846.2
99515.3
98796.7
98459.4
97549.6
97225.7
96053.8
95776.8
94240.5
94065.1
92015.6
92029.5
89247.7
89591.3
85751.8
86647.5
81262.5
83062.5
75394
78657.2
67576
73191
56952.7
66335.7
42220.4
57627.6
21357.3
46372
-8711.31
31567.2
-51167.5
13713.1
-100433
-221.032
-69505.3
5696.21
-35366.5
15726.5
-9011.4
24594.2
9727.23
31844.6
23343.8
38164.7
33725.3
43867
41915.2
48999.6
48510.7
53563.8
53891.4
57567.7
58312
61034.7
61961
64009.5
64991.6
66552.4
67533.2
68727.8
69693
70594.5
71558
72201.1
73198.5
73583.7
74672.2
74765.4
76027.5
75757
77307.9
76558.9
78556.2
77165
79817.3
77565.3
81138
77746.9
104207
104198
104162
104112
104047
103959
103867
103745
103628
103472
103332
103137
102960
102705
102482
102159
101896
101503
101211
100738
100424
99846.8
99515.9
98797.4
98460.1
97550.4
97226.5
96054.8
95777.6
94241.7
94066
92017
92030.6
89249.3
89592.5
85753.8
86648.8
81264.9
83063.9
75396.9
78658.6
67579.3
73192.3
56956.4
66336.9
42224.4
57628.6
21361.5
46373.2
-8708.82
31566.9
-51177.8
13705.8
-100482
-235.61
-69516.1
5690.27
-35365.8
15726.7
-9007.37
24595.6
9730.74
31845.3
23346
38164.7
33726.5
43866.8
41916.1
48999.4
48511.4
53563.9
53892.1
57567.9
58312.8
61035.1
61961.6
64009.9
64992.2
66552.8
67533.7
68728.2
69693.4
70594.9
71558.2
72201.5
73198.7
73584.1
74672.3
74765.9
76027.5
75757.6
77307.7
76559.6
78556
77165.7
79817
77566
81137.6
77747.3
104209
104200
104164
104113
104048
103960
103868
103745
103629
103473
103333
103137
102961
102705
102483
102159
101896
101503
101212
100739
100425
99847.4
99516.5
98798.1