/*--------------------------------*- C++ -*----------------------------------*\
| =========                 |                                                 |
| \\      /  F ield         | OpenFOAM: The Open Source CFD Toolbox           |
|  \\    /   O peration     | Version:  2412                                  |
|   \\  /    A nd           | Website:  www.openfoam.com                      |
|    \\/     M anipulation  |                                                 |
\*---------------------------------------------------------------------------*/
FoamFile
{
    version     2.0;
    format      ascii;
    arch        "LSB;label=32;scalar=64";
    class       surfaceScalarField;
    location    "0.9";
    object      phi;
}
// * * * * * * * * * * * * * * * * * * * * * * * * * * * * * * * * * * * * * //

dimensions      [0 3 -1 0 0 0 0];

oriented        oriented;

internalField   nonuniform List<scalar> 
25905
(
0.00747553
0.000200493
0.00738692
0.000177333
0.00730888
0.000156282
0.0072399
0.000138264
0.00717905
0.000121926
0.00712656
0.000104744
0.0070862
7.94883e-05
0.0070648
4.02745e-05
0.00706941
-1.27384e-05
0.00710267
-7.0353e-05
0.00716104
-0.000120311
0.00723641
-0.000153747
0.00731914
-0.000167935
0.00740101
-0.000165788
0.00747635
-0.000152467
0.00754271
-0.00013428
0.00759974
-0.000115407
0.00764899
-9.95899e-05
0.00769178
-8.64548e-05
0.00772977
-7.66014e-05
0.00776343
-6.77575e-05
0.00779372
-6.08918e-05
0.00782048
-5.38177e-05
0.00784486
-4.90691e-05
0.0078663
-4.33268e-05
0.00788613
-4.01748e-05
0.00790337
-3.50419e-05
0.00791964
-3.27761e-05
0.00793333
-2.70293e-05
0.00794674
-2.50341e-05
0.00795732
-1.73045e-05
0.00796826
-1.43781e-05
0.00797585
-2.97485e-06
0.00798467
1.62445e-06
0.00798939
1.76217e-05
0.00799644
2.28872e-05
0.0079983
4.18019e-05
0.00800413
4.31423e-05
0.00800322
6.08701e-05
0.00800857
5.19986e-05
0.0080056
6.14567e-05
0.00801236
3.18542e-05
0.00800939
2.04723e-05
0.00802054
-4.25662e-05
0.00801985
-8.40774e-05
0.00803609
-0.000177122
0.00803393
-0.000212795
0.00804193
-0.000236592
0.00801747
-0.000135423
0.00797348
2.8902e-05
0.00787597
0.000241212
0.007655
0.000610084
0.00730733
0.000760428
0.00737982
-7.22546e-05
0.00762161
-0.000499973
0.00775366
-0.000287908
0.00781621
-0.000152745
0.00787564
-4.9794e-05
0.00789793
4.90764e-05
0.00791681
7.43835e-05
0.00791034
0.000125228
0.00790902
0.000159762
0.0078952
0.000235013
0.00789052
0.000274002
0.00788016
0.000312749
0.00787883
0.000320678
0.00787437
0.000332828
0.0078767
0.000330663
0.00787644
0.000326949
0.00788063
0.000304547
0.0078824
0.000275736
0.00788644
0.00023555
0.00788783
0.000197024
0.00788961
0.000155713
0.00788843
0.000120106
0.00788636
8.6501e-05
0.0078814
6.09332e-05
0.00787497
3.96292e-05
0.0078663
2.42788e-05
0.0078563
1.16005e-05
0.00784493
2.29653e-06
0.00783254
-4.87715e-06
0.00781978
-1.01605e-05
0.00780634
-1.38084e-05
0.00779346
-1.785e-05
0.00778001
-2.24901e-05
0.00776787
-3.04501e-05
0.00775506
-4.2545e-05
0.00774433
-5.99158e-05
0.00773253
-8.48722e-05
0.00772351
-0.00011521
0.00771312
-0.000158095
0.00770624
-0.000204734
0.0076981
-0.000270376
0.00769411
-0.000337264
0.00768993
-0.000427773
0.00769042
-0.000519857
0.0076925
-0.000622155
-0.000791639
0.00747553
0.000300723
0.00738692
0.000265943
0.00730888
0.000234314
0.0072399
0.000207245
0.00717906
0.000182771
0.00712657
0.00015723
0.00708621
0.00011985
0.00706481
6.16738e-05
0.00706942
-1.73405e-05
0.00710265
-0.000103593
0.00716101
-0.000178667
0.00723637
-0.000229105
0.0073191
-0.000250664
0.00740096
-0.000247651
0.0074763
-0.00022781
0.00754267
-0.000200642
0.0075997
-0.000172439
0.00764894
-0.000148835
0.00769174
-0.000129251
0.00772973
-0.000114591
0.00776338
-0.000101411
0.00779367
-9.11809e-05
0.00782043
-8.05792e-05
0.00784481
-7.34482e-05
0.00786625
-6.47657e-05
0.00788608
-6.00077e-05
0.00790332
-5.22825e-05
0.00791959
-4.90446e-05
0.00793328
-4.07197e-05
0.00794669
-3.84446e-05
0.00795728
-2.78874e-05
0.00796821
-2.53162e-05
0.00797581
-1.05696e-05
0.00798463
-7.19228e-06
0.00798935
1.28932e-05
0.0079964
1.5838e-05
0.00799826
3.99424e-05
0.0080041
3.73092e-05
0.00800319
6.17735e-05
0.00800854
4.66529e-05
0.00800556
6.44325e-05
0.00801233
2.5091e-05
0.00800935
2.34435e-05
0.00802049
-5.3706e-05
0.0080198
-8.33871e-05
0.00803604
-0.000193359
0.00803388
-0.000210639
0.00804189
-0.000244597
0.00801744
-0.000110974
0.00797346
7.28816e-05
0.00787596
0.000338714
0.007655
0.000831047
0.00730733
0.00110809
0.00737982
-0.000144739
0.00762158
-0.00074174
0.00775361
-0.000419936
0.00781615
-0.000215283
0.00787559
-0.000109229
0.00789788
2.67863e-05
0.00791677
5.54909e-05
0.00791031
0.000131691
0.00790899
0.000161077
0.00789518
0.000248825
0.0078905
0.00027868
0.00788014
0.000323112
0.0078788
0.000322014
0.00787434
0.000337294
0.00787667
0.000328334
0.00787641
0.000327209
0.00788059
0.000300358
0.00788236
0.000273965
0.00788641
0.000231507
0.00788779
0.000195641
0.00788957
0.000153935
0.00788838
0.000121293
0.0078863
8.85778e-05
0.00788135
6.58873e-05
0.00787492
4.60574e-05
0.00786625
3.29484e-05
0.00785626
2.15975e-05
0.00784488
1.36727e-05
0.0078325
7.50342e-06
0.00781974
2.59745e-06
0.0078063
-3.68328e-07
0.00779342
-4.97047e-06
0.00777997
-9.0403e-06
0.00776783
-1.83095e-05
0.00775502
-2.97319e-05
0.00774429
-4.91861e-05
0.00773248
-7.30635e-05
0.00772345
-0.000106184
0.00771305
-0.000147689
0.00770615
-0.000197841
0.007698
-0.000262226
0.007694
-0.000333259
0.0076898
-0.000423574
0.00769027
-0.000520327
0.00769235
-0.000624234
-0.00080186
0.00747553
0.000400953
0.00738692
0.00035455
0.00730889
0.000312344
0.00723992
0.000276221
0.00717907
0.000243611
0.00712659
0.000209712
0.00708623
0.000160211
0.00706483
8.30789e-05
0.00706941
-2.19285e-05
0.00710263
-0.000136812
0.00716097
-0.000237001
0.00723631
-0.000304445
0.00731903
-0.000333381
0.00740089
-0.00032951
0.00747623
-0.000303153
0.00754259
-0.000267006
0.00759963
-0.000229473
0.00764887
-0.000198081
0.00769167
-0.000172047
0.00772966
-0.00015258
0.00776331
-0.000135063
0.0077936
-0.00012147
0.00782036
-0.000107341
0.00784474
-9.78276e-05
0.00786618
-8.62049e-05
0.00788601
-7.98409e-05
0.00790326
-6.95235e-05
0.00791952
-6.53135e-05
0.00793321
-5.44107e-05
0.00794663
-5.18557e-05
0.00795721
-3.8471e-05
0.00796815
-3.62553e-05
0.00797574
-1.81655e-05
0.00798456
-1.60108e-05
0.00798929
8.16253e-06
0.00799635
8.78631e-06
0.00799821
3.80805e-05
0.00800404
3.14742e-05
0.00800314
6.26761e-05
0.00800849
4.13077e-05
0.00800551
6.74102e-05
0.00801227
1.83309e-05
0.00800929
2.64194e-05
0.00802043
-6.48405e-05
0.00801973
-8.26918e-05
0.00803597
-0.000209594
0.00803381
-0.000208484
0.00804183
-0.000252611
0.00801739
-8.65365e-05
0.00797343
0.000116844
0.00787594
0.000436201
0.00765499
0.00105199
0.00730735
0.00145574
0.00737982
-0.000217213
0.00762156
-0.000983478
0.00775356
-0.000551942
0.00781609
-0.000277807
0.00787552
-0.000168661
0.00789782
4.48959e-06
0.00791672
3.65878e-05
0.00791027
0.000138145
0.00790896
0.000162387
0.00789515
0.000262635
0.00789047
0.000283359
0.0078801
0.000333476
0.00787876
0.000323352
0.0078743
0.000341762
0.00787662
0.000326006
0.00787636
0.000327468
0.00788055
0.000296169
0.00788232
0.000272197
0.00788636
0.000227467
0.00788774
0.000194262
0.00788951
0.000152161
0.00788833
0.000122482
0.00788625
9.06565e-05
0.00788129
7.08421e-05
0.00787486
5.2485e-05
0.0078662
4.16167e-05
0.0078562
3.15925e-05
0.00784483
2.50467e-05
0.00783245
1.9882e-05
0.00781969
1.53539e-05
0.00780625
1.30705e-05
0.00779337
7.90833e-06
0.00777992
4.40939e-06
0.00776778
-6.16815e-06
0.00775497
-1.69166e-05
0.00774423
-3.84526e-05
0.00773242
-6.12486e-05
0.00772339
-9.71494e-05
0.00771297
-0.000137271
0.00770606
-0.000190935
0.0076979
-0.000254061
0.00769387
-0.000329237
0.00768966
-0.000419358
0.00769011
-0.000520781
0.00769218
-0.000626301
-0.000812074
0.00747553
0.000501182
0.00738692
0.000443155
0.0073089
0.000390368
0.00723993
0.000345192
0.00717909
0.000304446
0.00712662
0.000262189
0.00708626
0.00020057
0.00706485
0.00010449
0.00706942
-2.65006e-05
0.00710261
-0.000170007
0.00716092
-0.000295309
0.00723624
-0.000379763
0.00731894
-0.000416085
0.0074008
-0.000411363
0.00747614
-0.000378496
0.00754251
-0.000333372
0.00759954
-0.000286508
0.00764879
-0.000247327
0.00769158
-0.000214843
0.00772957
-0.000190568
0.00776322
-0.000168716
0.00779351
-0.000151759
0.00782027
-0.000134102
0.00784465
-0.000122207
0.00786609
-0.000107644
0.00788593
-9.96743e-05
0.00790317
-8.67648e-05
0.00791944
-8.15827e-05
0.00793313
-6.8102e-05
0.00794654
-6.52672e-05
0.00795712
-4.90553e-05
0.00796806
-4.71952e-05
0.00797566
-2.57627e-05
0.00798448
-2.48309e-05
0.00798921
3.42978e-06
0.00799627
1.73207e-06
0.00799813
3.62164e-05
0.00800397
2.56375e-05
0.00800307
6.35783e-05
0.00800841
3.5963e-05
0.00800543
7.03902e-05
0.00801219
1.15746e-05
0.00800921
2.94008e-05
0.00802034
-7.59695e-05
0.00801963
-8.1991e-05
0.00803587
-0.000225827
0.00803372
-0.000206333
0.00804174
-0.000260635
0.00801732
-6.21135e-05
0.00797338
0.000160785
0.00787591
0.000533669
0.00765498
0.00127292
0.00730736
0.00180336
0.00737983
-0.000289675
0.00762153
-0.00122518
0.00775351
-0.000683926
0.00781602
-0.000340313
0.00787545
-0.000228089
0.00789775
-1.78121e-05
0.00791666
1.76752e-05
0.00791021
0.000144592
0.00790891
0.000163692
0.0078951
0.000276444
0.00789042
0.000288039
0.00788005
0.000343842
0.00787871
0.000324692
0.00787424
0.000346231
0.00787657
0.000323678
0.00787631
0.000327728
0.0078805
0.000291981
0.00788227
0.00027043
0.0078863
0.00022343
0.00788768
0.000192886
0.00788945
0.00015039
0.00788826
0.000123675
0.00788618
9.27371e-05
0.00788122
7.57976e-05
0.0078748
5.89122e-05
0.00786613
5.02837e-05
0.00785614
4.15857e-05
0.00784476
3.64189e-05
0.00783239
3.2259e-05
0.00781963
2.81089e-05
0.00780619
2.65085e-05
0.00779332
2.07866e-05
0.00777987
1.78592e-05
0.00776772
5.97411e-06
0.00775491
-4.09907e-06
0.00774417
-2.77152e-05
0.00773235
-4.94274e-05
0.0077233
-8.81067e-05
0.00771288
-0.000126841
0.00770596
-0.000184015
0.00769777
-0.00024588
0.00769373
-0.000325198
0.0076895
-0.000415125
0.00768994
-0.000521216
0.00769199
-0.000628355
-0.000822281
0.00747553
0.000601409
0.00738693
0.000531756
0.00730891
0.000468387
0.00723995
0.000414156
0.00717912
0.000365274
0.00712665
0.000314661
0.00708629
0.000240926
0.00706487
0.000125906
0.00706943
-3.10553e-05
0.0071026
-0.000203174
0.00716087
-0.000353586
0.00723617
-0.000455055
0.00731885
-0.000498773
0.0074007
-0.000493209
0.00747604
-0.000453838
0.00754241
-0.000399739
0.00759944
-0.000343544
0.00764869
-0.000296573
0.00769148
-0.000257637
0.00772947
-0.000228555
0.00776312
-0.000202367
0.00779341
-0.000182047
0.00782017
-0.000160863
0.00784455
-0.000146586
0.00786599
-0.000129083
0.00788582
-0.000119508
0.00790306
-0.000104006
0.00791933
-9.78521e-05
0.00793302
-8.17936e-05
0.00794643
-7.86792e-05
0.00795702
-5.964e-05
0.00796796
-5.81359e-05
0.00797556
-3.33608e-05
0.00798438
-3.36527e-05
0.00798912
-1.30496e-06
0.00799617
-5.32457e-06
0.00799804
3.43501e-05
0.00800388
1.9799e-05
0.00800297
6.44801e-05
0.00800832
3.06191e-05
0.00800534
7.33731e-05
0.00801209
4.82227e-06
0.0080091
3.23883e-05
0.00802022
-8.70923e-05
0.00801952
-8.12844e-05
0.00803575
-0.000242058
0.0080336
-0.000204184
0.00804164
-0.000268672
0.00801723
-3.77069e-05
0.00797331
0.000204701
0.00787587
0.000631113
0.00765498
0.00149381
0.00730739
0.00215095
0.00737983
-0.000362123
0.0076215
-0.00146684
0.00775346
-0.000815886
0.00781594
-0.0004028
0.00787536
-0.000287509
0.00789767
-4.0117e-05
0.00791659
-1.24571e-06
0.00791015
0.000151032
0.00790885
0.000164993
0.00789504
0.00029025
0.00789036
0.000292718
0.00787999
0.000354211
0.00787865
0.000326035
0.00787418
0.000350702
0.00787651
0.00032135
0.00787625
0.000327986
0.00788044
0.000287793
0.0078822
0.000268664
0.00788624
0.000219395
0.00788761
0.000191513
0.00788938
0.000148622
0.00788818
0.00012487
0.0078861
9.48194e-05
0.00788114
8.07538e-05
0.00787472
6.5339e-05
0.00786605
5.89494e-05
0.00785606
5.15772e-05
0.00784469
4.77894e-05
0.00783231
4.46344e-05
0.00781956
4.0863e-05
0.00780612
3.99457e-05
0.00779325
3.36646e-05
0.0077798
3.13092e-05
0.00776765
1.81174e-05
0.00775483
8.72094e-06
0.00774409
-1.69738e-05
0.00773226
-3.75997e-05
0.00772321
-7.90555e-05
0.00771277
-0.0001164
0.00770584
-0.000177081
0.00769764
-0.000237682
0.00769358
-0.00032114
0.00768933
-0.000410872
0.00768974
-0.000521632
0.00769178
-0.000630395
-0.000832479
0.00747553
0.000701635
0.00738693
0.000620353
0.00730892
0.0005464
0.00723997
0.000483112
0.00717915
0.000426093
0.00712668
0.000367125
0.00708633
0.000281279
0.00706491
0.000147327
0.00706944
-3.55912e-05
0.00710258
-0.00023631
0.00716082
-0.000411827
0.00723608
-0.000530317
0.00731875
-0.00058144
0.00740059
-0.000575046
0.00747593
-0.000529178
0.0075423
-0.000466107
0.00759933
-0.000400579
0.00764857
-0.000345817
0.00769137
-0.000300429
0.00772935
-0.000266539
0.007763
-0.000236016
0.00779329
-0.000212333
0.00782005
-0.000187623
0.00784443
-0.000170964
0.00786586
-0.000150522
0.0078857
-0.000139341
0.00790294
-0.000121247
0.00791921
-0.000114121
0.0079329
-9.54852e-05
0.00794631
-9.20914e-05
0.0079569
-7.02251e-05
0.00796784
-6.90773e-05
0.00797544
-4.09599e-05
0.00798426
-4.2476e-05
0.007989
-6.04159e-06
0.00799606
-1.23835e-05
0.00799792
3.24819e-05
0.00800376
1.39592e-05
0.00800286
6.53819e-05
0.0080082
2.52764e-05
0.00800522
7.63592e-05
0.00801197
-1.9255e-06
0.00800897
3.53824e-05
0.00802009
-9.82085e-05
0.00801938
-8.05714e-05
0.00803561
-0.000258288
0.00803346
-0.000202038
0.00804151
-0.000276722
0.00801712
-1.3319e-05
0.00797324
0.000248587
0.00787582
0.000728527
0.00765497
0.00171467
0.00730742
0.0024985
0.00737985
-0.000434554
0.00762146
-0.00170845
0.00775339
-0.00094782
0.00781586
-0.000465267
0.00787527
-0.00034692
0.00789758
-6.24237e-05
0.00791651
-2.01738e-05
0.00791007
0.000157467
0.00790877
0.00016629
0.00789497
0.000304056
0.00789029
0.000297399
0.00787992
0.000364581
0.00787857
0.00032738
0.0078741
0.000355175
0.00787643
0.000319022
0.00787617
0.000328243
0.00788036
0.000283604
0.00788212
0.000266899
0.00788616
0.000215362
0.00788753
0.000190143
0.00788929
0.000146857
0.0078881
0.000126067
0.00788601
9.69034e-05
0.00788106
8.57108e-05
0.00787463
7.17655e-05
0.00786596
6.76142e-05
0.00785597
6.15673e-05
0.00784461
5.91584e-05
0.00783223
5.70087e-05
0.00781948
5.36162e-05
0.00780604
5.33824e-05
0.00779316
4.65425e-05
0.00777971
4.47596e-05
0.00776757
3.02619e-05
0.00775475
2.15435e-05
0.007744
-6.2283e-06
0.00773217
-2.57653e-05
0.00772311
-6.99955e-05
0.00771265
-0.000105946
0.0077057
-0.000170134
0.00769749
-0.000229467
0.00769341
-0.000317063
0.00768914
-0.0004066
0.00768954
-0.000522028
0.00769156
-0.000632419
-0.000842669
0.00747553
0.000801859
0.00738694
0.000708945
0.00730894
0.000624405
0.00723999
0.00055206
0.00717918
0.000486904
0.00712672
0.00041958
0.00708638
0.000321626
0.00706495
0.000168753
0.00706946
-4.01069e-05
0.00710257
-0.000269412
0.00716077
-0.00047003
0.007236
-0.000605545
0.00731864
-0.000664085
0.00740047
-0.000656872
0.0074758
-0.000604514
0.00754217
-0.000532473
0.00759921
-0.000457613
0.00764845
-0.000395059
0.00769124
-0.000343217
0.00772922
-0.000304521
0.00776286
-0.000269663
0.00779315
-0.000242618
0.00781991
-0.000214382
0.00784428
-0.000195342
0.00786572
-0.000171959
0.00788556
-0.000159173
0.0079028
-0.000138488
0.00791906
-0.000130391
0.00793276
-0.000109177
0.00794617
-0.000105504
0.00795675
-8.08105e-05
0.0079677
-8.00193e-05
0.0079753
-4.85599e-05
0.00798412
-5.13007e-05
0.00798886
-1.07799e-05
0.00799592
-1.94447e-05
0.00799779
3.06118e-05
0.00800363
8.11794e-06
0.00800273
6.6284e-05
0.00800807
1.9935e-05
0.00800508
7.9349e-05
0.00801182
-8.66835e-06
0.00800882
3.83838e-05
0.00801993
-0.000109318
0.00801921
-7.98516e-05
0.00803544
-0.000274516
0.0080333
-0.000199897
0.00804136
-0.000284787
0.008017
1.1048e-05
0.00797314
0.000292439
0.00787576
0.000825906
0.00765496
0.00193548
0.00730745
0.002846
0.00737986
-0.000506965
0.00762142
-0.00195001
0.00775333
-0.00107973
0.00781577
-0.000527711
0.00787517
-0.00040632
0.00789748
-8.47304e-05
0.00791641
-3.91078e-05
0.00790998
0.000163896
0.00790869
0.000167585
0.00789488
0.000317861
0.0078902
0.00030208
0.00787983
0.000374954
0.00787848
0.000328727
0.00787401
0.000359648
0.00787634
0.000316694
0.00787608
0.000328499
0.00788027
0.000279414
0.00788204
0.000265134
0.00788607
0.00021133
0.00788744
0.000188774
0.0078892
0.000145095
0.007888
0.000127267
0.00788591
9.8989e-05
0.00788096
9.06685e-05
0.00787453
7.81917e-05
0.00786587
7.62781e-05
0.00785588
7.15561e-05
0.00784451
7.05263e-05
0.00783214
6.9382e-05
0.00781938
6.63689e-05
0.00780595
6.68189e-05
0.00779307
5.94205e-05
0.00777962
5.82106e-05
0.00776747
4.24077e-05
0.00775465
3.43686e-05
0.0077439
4.52141e-06
0.00773206
-1.39242e-05
0.00772299
-6.09265e-05
0.00771252
-9.54805e-05
0.00770556
-0.000163171
0.00769733
-0.000221233
0.00769323
-0.000312967
0.00768894
-0.000402307
0.00768931
-0.000522404
0.00769132
-0.000634426
-0.000852849
0.00747554
0.000902081
0.00738695
0.000797532
0.00730895
0.000702402
0.00724001
0.000620997
0.00717921
0.000547703
0.00712677
0.000472026
0.00708643
0.000361968
0.007065
0.000190183
0.00706949
-4.46012e-05
0.00710256
-0.000302477
0.00716071
-0.000528189
0.0072359
-0.000680735
0.00731852
-0.000746705
0.00740034
-0.000738685
0.00747567
-0.000679846
0.00754204
-0.000598839
0.00759907
-0.000514646
0.00764831
-0.000444297
0.00769109
-0.000386002
0.00772907
-0.000342499
0.00776271
-0.000303306
0.00779299
-0.0002729
0.00781975
-0.000241138
0.00784413
-0.000219717
0.00786556
-0.000193396
0.0078854
-0.000179005
0.00790264
-0.000155728
0.0079189
-0.000146659
0.0079326
-0.000122868
0.00794601
-0.000118916
0.00795659
-9.1396e-05
0.00796754
-9.09618e-05
0.00797514
-5.61605e-05
0.00798396
-6.01267e-05
0.0079887
-1.552e-05
0.00799577
-2.65081e-05
0.00799764
2.87401e-05
0.00800348
2.27554e-06
0.00800258
6.71866e-05
0.00800792
1.45954e-05
0.00800492
8.23429e-05
0.00801166
-1.54058e-05
0.00800865
4.13932e-05
0.00801975
-0.00012042
0.00801903
-7.91246e-05
0.00803525
-0.000290743
0.00803312
-0.000197759
0.0080412
-0.000292869
0.00801685
3.5392e-05
0.00797304
0.000336254
0.0078757
0.000923246
0.00765494
0.00215623
0.00730749
0.00319345
0.00737988
-0.000579354
0.00762138
-0.00219151
0.00775326
-0.0012116
0.00781568
-0.00059013
0.00787507
-0.000465707
0.00789737
-0.000107035
0.00791631
-5.80466e-05
0.00790988
0.000170322
0.00790859
0.000168877
0.00789479
0.000331666
0.0078901
0.000306761
0.00787973
0.000385328
0.00787838
0.000330076
0.00787391
0.000364123
0.00787624
0.000314365
0.00787598
0.000328753
0.00788017
0.000275222
0.00788194
0.000263369
0.00788597
0.0002073
0.00788733
0.000187409
0.00788909
0.000143335
0.00788789
0.000128469
0.00788581
0.000101076
0.00788085
9.5627e-05
0.00787442
8.46178e-05
0.00786576
8.49413e-05
0.00785577
8.15439e-05
0.0078444
8.18934e-05
0.00783203
8.17546e-05
0.00781928
7.91212e-05
0.00780584
8.02554e-05
0.00779296
7.22989e-05
0.00777951
7.16623e-05
0.00776736
5.4555e-05
0.00775454
4.71965e-05
0.00774378
1.52755e-05
0.00773193
-2.07622e-06
0.00772286
-5.18485e-05
0.00771238
-8.50018e-05
0.0077054
-0.000156194
0.00769715
-0.000212981
0.00769303
-0.000308851
0.00768872
-0.000397993
0.00768907
-0.000522759
0.00769106
-0.000636416
-0.000863018
0.00747554
0.0010023
0.00738696
0.000886112
0.00730897
0.00078039
0.00724004
0.000689924
0.00717925
0.000608491
0.00712682
0.000524461
0.00708649
0.000402302
0.00706505
0.000211618
0.00706952
-4.90726e-05
0.00710255
-0.000335501
0.00716066
-0.0005863
0.00723581
-0.000755883
0.0073184
-0.000829297
0.0074002
-0.000820484
0.00747552
-0.000755173
0.00754189
-0.000665202
0.00759892
-0.000571676
0.00764815
-0.000493531
0.00769093
-0.000428782
0.0077289
-0.000380472
0.00776254
-0.000336946
0.00779282
-0.00030318
0.00781958
-0.000267892
0.00784395
-0.000244091
0.00786539
-0.000214831
0.00788522
-0.000198836
0.00790246
-0.000172967
0.00791872
-0.000162928
0.00793242
-0.000136559
0.00794583
-0.000132328
0.00795641
-0.000101981
0.00796736
-0.000101905
0.00797496
-6.37618e-05
0.00798378
-6.8954e-05
0.00798853
-2.02614e-05
0.00799559
-3.35735e-05
0.00799746
2.6867e-05
0.00800331
-3.56792e-06
0.00800241
6.809e-05
0.00800774
9.25761e-06
0.00800474
8.53415e-05
0.00801148
-2.21375e-05
0.00800846
4.4411e-05
0.00801955
-0.000131514
0.00801882
-7.839e-05
0.00803504
-0.000306968
0.00803291
-0.000195627
0.00804101
-0.00030097
0.00801669
5.97108e-05
0.00797292
0.000380028
0.00787562
0.00102054
0.00765493
0.00237693
0.00730754
0.00354084
0.00737991
-0.000651718
0.00762134
-0.00243294
0.00775318
-0.00134345
0.00781558
-0.000652523
0.00787495
-0.000525079
0.00789725
-0.000129337
0.00791619
-7.69888e-05
0.00790977
0.000176746
0.00790848
0.000170167
0.00789467
0.000345471
0.00788999
0.000311443
0.00787962
0.000395704
0.00787827
0.000331427
0.00787379
0.000368598
0.00787612
0.000312034
0.00787587
0.000329005
0.00788006
0.000271028
0.00788183
0.000261603
0.00788586
0.00020327
0.00788722
0.000186044
0.00788898
0.000141577
0.00788778
0.000129673
0.00788569
0.000103165
0.00788073
0.000100586
0.0078743
9.10439e-05
0.00786564
9.36039e-05
0.00785565
9.15309e-05
0.00784429
9.32597e-05
0.00783191
9.41267e-05
0.00781916
9.18736e-05
0.00780572
9.3692e-05
0.00779285
8.51778e-05
0.00777939
8.51149e-05
0.00776724
6.67038e-05
0.00775441
6.00273e-05
0.00774365
2.6034e-05
0.0077318
9.77888e-06
0.00772271
-4.27612e-05
0.00771222
-7.45099e-05
0.00770523
-0.000149201
0.00769696
-0.00020471
0.00769282
-0.000304715
0.00768848
-0.000393656
0.00768882
-0.000523091
0.00769079
-0.000638387
-0.000873177
0.00747554
0.00110252
0.00738697
0.000974686
0.00730899
0.000858368
0.00724007
0.000758838
0.0071793
0.000669267
0.00712688
0.000576884
0.00708655
0.000442627
0.00706511
0.000233056
0.00706956
-5.35198e-05
0.00710254
-0.000368481
0.0071606
-0.000644359
0.0072357
-0.000830985
0.00731826
-0.000911857
0.00740004
-0.000902267
0.00747536
-0.000830493
0.00754173
-0.000731564
0.00759875
-0.000628703
0.00764798
-0.000542761
0.00769076
-0.000471556
0.00772872
-0.00041844
0.00776236
-0.000370581
0.00779264
-0.000333455
0.00781939
-0.000294644
0.00784376
-0.000268463
0.00786519
-0.000236265
0.00788502
-0.000218665
0.00790226
-0.000190205
0.00791853
-0.000179195
0.00793222
-0.000150249
0.00794563
-0.00014574
0.00795621
-0.000112567
0.00796716
-0.000112848
0.00797476
-7.13635e-05
0.00798359
-7.77824e-05
0.00798833
-2.50043e-05
0.0079954
-4.06407e-05
0.00799727
2.49924e-05
0.00800312
-9.41225e-06
0.00800221
6.89944e-05
0.00800755
3.92206e-06
0.00800454
8.8345e-05
0.00801127
-2.88628e-05
0.00800824
4.7438e-05
0.00801933
-0.0001426
0.00801859
-7.76473e-05
0.00803481
-0.000323193
0.00803268
-0.000193499
0.0080408
-0.00030909
0.00801651
8.40021e-05
0.00797279
0.000423755
0.00787554
0.00111779
0.00765491
0.00259755
0.0073076
0.00388815
0.00737993
-0.000724054
0.00762129
-0.0026743
0.00775311
-0.00147527
0.00781547
-0.000714888
0.00787483
-0.000584434
0.00789712
-0.000151634
0.00791607
-9.59334e-05
0.00790964
0.000183167
0.00790836
0.000171456
0.00789455
0.000359275
0.00788987
0.000316126
0.00787949
0.000406082
0.00787814
0.00033278
0.00787366
0.000373074
0.00787599
0.000309702
0.00787574
0.000329255
0.00787994
0.000266832
0.00788171
0.000259837
0.00788574
0.000199241
0.0078871
0.000184682
0.00788885
0.000139821
0.00788765
0.000130879
0.00788556
0.000105255
0.0078806
0.000105546
0.00787417
9.747e-05
0.00786551
0.000102266
0.00785552
0.000101517
0.00784416
0.000104626
0.00783179
0.000106499
0.00781903
0.000104626
0.0078056
0.000107129
0.00779272
9.80574e-05
0.00777926
9.85685e-05
0.00776711
7.88544e-05
0.00775428
7.28611e-05
0.00774351
3.67971e-05
0.00773165
2.16412e-05
0.00772256
-3.36644e-05
0.00771205
-6.40047e-05
0.00770504
-0.000142194
0.00769675
-0.000196418
0.00769259
-0.000300558
0.00768823
-0.000389295
0.00768854
-0.000523401
0.00769049
-0.000640338
-0.000883324
0.00747554
0.00120273
0.00738698
0.00106325
0.00730901
0.000936334
0.00724011
0.00082774
0.00717935
0.000730028
0.00712694
0.000629293
0.00708662
0.000482944
0.00706518
0.000254497
0.0070696
-5.79414e-05
0.00710254
-0.000401414
0.00716054
-0.000702362
0.00723559
-0.000906038
0.00731812
-0.000994383
0.00739988
-0.000984031
0.00747519
-0.000905807
0.00754155
-0.000797921
0.00759858
-0.000685726
0.0076478
-0.000591984
0.00769057
-0.000514324
0.00772853
-0.000456402
0.00776216
-0.000404212
0.00779243
-0.000363727
0.00781918
-0.000321392
0.00784355
-0.000292833
0.00786498
-0.000257696
0.00788481
-0.000238493
0.00790204
-0.000207442
0.00791831
-0.000195462
0.007932
-0.000163939
0.00794541
-0.000159152
0.007956
-0.000123152
0.00796694
-0.000123791
0.00797454
-7.89655e-05
0.00798337
-8.66119e-05
0.00798812
-2.97484e-05
0.00799519
-4.77099e-05
0.00799706
2.31168e-05
0.00800291
-1.52573e-05
0.008002
6.99001e-05
0.00800733
-1.41104e-06
0.00800432
9.13541e-05
0.00801104
-3.55816e-05
0.00800801
5.04747e-05
0.00801908
-0.000153677
0.00801833
-7.68961e-05
0.00803456
-0.000339417
0.00803243
-0.000191378
0.00804058
-0.000317232
0.00801632
0.000108264
0.00797264
0.000467433
0.00787545
0.00121497
0.0076549
0.0028181
0.00730766
0.0042354
0.00737996
-0.00079636
0.00762124
-0.00291558
0.00775302
-0.00160705
0.00781536
-0.000777223
0.00787469
-0.000643769
0.00789698
-0.000173923
0.00791593
-0.000114879
0.00790951
0.000189588
0.00790822
0.000172745
0.00789441
0.000373081
0.00788973
0.00032081
0.00787935
0.000416461
0.007878
0.000334133
0.00787352
0.00037755
0.00787585
0.000307369
0.00787561
0.000329502
0.00787981
0.000262634
0.00788157
0.000258069
0.0078856
0.000195211
0.00788696
0.000183321
0.00788872
0.000138067
0.00788751
0.000132088
0.00788542
0.000107347
0.00788046
0.000110507
0.00787403
0.000103896
0.00786537
0.000110928
0.00785538
0.000111503
0.00784402
0.000115992
0.00783165
0.000118871
0.00781889
0.000117379
0.00780545
0.000120567
0.00779257
0.000110938
0.00777912
0.000112023
0.00776697
9.10069e-05
0.00775413
8.56979e-05
0.00774336
4.75648e-05
0.00773149
3.35109e-05
0.00772239
-2.45581e-05
0.00771187
-5.34856e-05
0.00770484
-0.00013517
0.00769653
-0.000188106
0.00769235
-0.000296379
0.00768797
-0.00038491
0.00768825
-0.000523687
0.00769018
-0.000642268
-0.000893458
0.00747555
0.00130294
0.00738699
0.00115181
0.00730903
0.00101429
0.00724015
0.000896626
0.0071794
0.000790774
0.00712701
0.000681688
0.0070867
0.000523249
0.00706526
0.000275942
0.00706965
-6.2336e-05
0.00710253
-0.000434297
0.00716048
-0.000760305
0.00723547
-0.000981036
0.00731796
-0.00107687
0.00739971
-0.00106578
0.00747501
-0.000981112
0.00754137
-0.000864275
0.00759839
-0.000742744
0.0076476
-0.000641202
0.00769036
-0.000557084
0.00772832
-0.000494357
0.00776194
-0.000437836
0.00779221
-0.000393995
0.00781895
-0.000348137
0.00784332
-0.000317199
0.00786475
-0.000279125
0.00788458
-0.000258319
0.00790181
-0.000224678
0.00791808
-0.000211727
0.00793177
-0.000177627
0.00794518
-0.000172563
0.00795576
-0.000133736
0.0079667
-0.000134734
0.00797431
-8.65678e-05
0.00798314
-9.54423e-05
0.00798788
-3.44937e-05
0.00799495
-5.47807e-05
0.00799683
2.12402e-05
0.00800268
-2.1103e-05
0.00800177
7.08074e-05
0.0080071
-6.74138e-06
0.00800408
9.4369e-05
0.0080108
-4.22932e-05
0.00800775
5.35218e-05
0.00801882
-0.000164745
0.00801806
-7.6136e-05
0.00803428
-0.000355641
0.00803216
-0.000189262
0.00804033
-0.000325397
0.0080161
0.000132494
0.00797248
0.000511058
0.00787535
0.0013121
0.00765488
0.00303857
0.00730772
0.00458255
0.00738
-0.000868634
0.00762119
-0.00315677
0.00775294
-0.00173879
0.00781524
-0.000839525
0.00787455
-0.000703082
0.00789683
-0.000196205
0.00791578
-0.000133825
0.00790936
0.000196009
0.00790807
0.000174034
0.00789426
0.000386887
0.00788958
0.000325494
0.0078792
0.000426842
0.00787784
0.000335488
0.00787337
0.000382026
0.0078757
0.000305033
0.00787546
0.000329745
0.00787966
0.000258432
0.00788143
0.000256299
0.00788546
0.000191182
0.00788682
0.00018196
0.00788857
0.000136314
0.00788736
0.000133298
0.00788527
0.00010944
0.00788031
0.000115469
0.00787388
0.000110323
0.00786522
0.00011959
0.00785523
0.000121489
0.00784387
0.000127357
0.00783149
0.000131243
0.00781874
0.000130133
0.0078053
0.000134005
0.00779242
0.00012382
0.00777896
0.000125479
0.00776681
0.000103161
0.00775397
9.8538e-05
0.0077432
5.83374e-05
0.00773132
4.53882e-05
0.0077222
-1.54419e-05
0.00771167
-4.29525e-05
0.00770463
-0.00012813
0.0076963
-0.000179773
0.0076921
-0.000292178
0.00768769
-0.000380499
0.00768795
-0.000523948
0.00768985
-0.000644176
-0.000903578
0.00747555
0.00140315
0.007387
0.00124036
0.00730906
0.00109223
0.00724019
0.000965497
0.00717946
0.000851503
0.00712708
0.000734067
0.00708679
0.000563543
0.00706534
0.00029739
0.0070697
-6.67023e-05
0.00710253
-0.000467126
0.00716041
-0.000818183
0.00723535
-0.00105598
0.0073178
-0.00115932
0.00739952
-0.0011475
0.00747482
-0.00105641
0.00754117
-0.000930624
0.00759818
-0.000799757
0.00764739
-0.000690411
0.00769014
-0.000599836
0.00772809
-0.000532304
0.00776171
-0.000471455
0.00779197
-0.000424257
0.00781871
-0.000374877
0.00784308
-0.000341562
0.0078645
-0.000300552
0.00788433
-0.000278143
0.00790156
-0.000241911
0.00791782
-0.000227992
0.00793151
-0.000191315
0.00794492
-0.000185973
0.00795551
-0.00014432
0.00796645
-0.000145678
0.00797405
-9.41702e-05
0.00798288
-0.000104274
0.00798763
-3.92399e-05
0.0079947
-6.18532e-05
0.00799658
1.93627e-05
0.00800242
-2.6949e-05
0.00800152
7.17165e-05
0.00800684
-1.20688e-05
0.00800382
9.73904e-05
0.00801053
-4.89974e-05
0.00800747
5.65798e-05
0.00801853
-0.000175803
0.00801776
-7.53665e-05
0.00803398
-0.000371864
0.00803187
-0.000187154
0.00804006
-0.000333588
0.00801587
0.00015669
0.0079723
0.000554624
0.00787524
0.00140917
0.00765486
0.00325894
0.0073078
0.00492962
0.00738003
-0.000940872
0.00762114
-0.00339787
0.00775284
-0.0018705
0.00781511
-0.000901795
0.0078744
-0.000762372
0.00789667
-0.000218476
0.00791562
-0.000152769
0.0079092
0.000202432
0.00790791
0.000175324
0.0078941
0.000400695
0.00788941
0.00033018
0.00787903
0.000437225
0.00787767
0.000336844
0.0078732
0.000386502
0.00787554
0.000302695
0.0078753