/*--------------------------------*- C++ -*----------------------------------*\
| =========                 |                                                 |
| \\      /  F ield         | OpenFOAM: The Open Source CFD Toolbox           |
|  \\    /   O peration     | Version:  2412                                  |
|   \\  /    A nd           | Website:  www.openfoam.com                      |
|    \\/     M anipulation  |                                                 |
\*---------------------------------------------------------------------------*/
FoamFile
{
    version     2.0;
    format      ascii;
    arch        "LSB;label=32;scalar=64";
    class       volVectorField;
    location    "0.9";
    object      U;
}
// * * * * * * * * * * * * * * * * * * * * * * * * * * * * * * * * * * * * * //

dimensions      [0 1 -1 0 0 0 0];

internalField   nonuniform List<vector> 
13068
(
(100.007 -0.00650032 0)
(100.168 -0.0186098 -6.98086e-19)
(100.515 -0.0298528 -3.41621e-19)
(100.996 -0.0397695 0)
(101.633 -0.0490255 0)
(102.392 -0.0589466 0)
(103.329 -0.0731497 -8.14866e-19)
(104.509 -0.0946215 4.98854e-19)
(106.095 -0.123409 0)
(108.167 -0.15492 4.4604e-19)
(110.778 -0.183177 -2.18538e-19)
(113.814 -0.203648 -2.18275e-19)
(117.187 -0.214962 -4.42164e-19)
(120.709 -0.218355 0)
(124.331 -0.216331 0)
(127.917 -0.211902 0)
(131.537 -0.20724 0)
(135.097 -0.204004 -4.60032e-19)
(138.76 -0.202271 -2.2539e-19)
(142.398 -0.20216 2.18736e-19)
(146.23 -0.202794 6.34796e-19)
(150.04 -0.204475 -6.10787e-19)
(154.128 -0.206445 1.96192e-19)
(158.173 -0.2095 0)
(162.599 -0.212622 1.81263e-19)
(166.94 -0.216935 -3.46969e-19)
(171.798 -0.220896 -1.67064e-19)
(176.502 -0.226144 -3.1865e-19)
(181.901 -0.230433 -3.06699e-19)
(187.035 -0.236176 2.90855e-19)
(193.108 -0.240148 -1.39893e-19)
(198.746 -0.245817 -1.31593e-19)
(205.659 -0.248647 0)
(211.888 -0.253711 0)
(219.857 -0.255083 2.26539e-19)
(226.778 -0.260334 -1.0355e-19)
(236.092 -0.261901 0)
(243.835 -0.270287 2.67509e-19)
(254.887 -0.275567 1.73563e-19)
(263.625 -0.29142 2.2348e-19)
(276.97 -0.305833 -2.21063e-19)
(286.969 -0.33617 -5.95469e-20)
(303.429 -0.369174 0)
(315.134 -0.423025 0)
(335.905 -0.482665 -9.78444e-20)
(349.995 -0.558995 0)
(376.596 -0.624898 -1.12949e-19)
(393.805 -0.661333 -1.30365e-20)
(427.472 -0.649439 0)
(448.221 -0.574295 0)
(488.147 -0.503234 -3.24234e-20)
(512.071 -0.329622 0)
(546.848 -0.362971 7.48258e-21)
(570.473 0.0240327 1.27426e-20)
(550.754 0.181621 7.48121e-23)
(540.47 0.295871 0)
(507.357 0.332693 0)
(492.622 0.386797 -5.86483e-20)
(464.263 0.416108 8.73124e-21)
(449.136 0.41921 -5.42033e-21)
(424.599 0.424063 0)
(410.08 0.436552 -2.02729e-20)
(389.533 0.464831 -2.39117e-20)
(376.439 0.482602 0)
(359.525 0.492276 0)
(347.996 0.491022 9.08605e-20)
(334.053 0.486603 0)
(323.901 0.479164 0)
(312.233 0.46635 0)
(303.205 0.445946 1.00807e-19)
(293.251 0.418292 -1.1465e-19)
(285.132 0.386269 1.78354e-19)
(276.466 0.353265 0)
(269.078 0.320475 0)
(261.376 0.290055 1.47156e-19)
(254.58 0.262348 -1.54092e-19)
(247.615 0.239098 8.21276e-20)
(241.327 0.219569 0)
(234.96 0.203712 1.82121e-19)
(229.143 0.19031 9.53987e-20)
(223.29 0.179047 -2.00293e-19)
(217.937 0.169699 0)
(212.54 0.161753 1.09003e-19)
(207.65 0.155183 -3.40338e-19)
(202.658 0.148679 0)
(198.234 0.141879 3.6555e-19)
(193.584 0.133286 -3.76127e-19)
(189.63 0.122031 -2.60207e-19)
(185.25 0.107837 0)
(181.775 0.0884004 0)
(177.581 0.0661347 -4.24873e-19)
(174.61 0.0353259 1.48108e-19)
(170.508 0.00275178 0)
(168.093 -0.0423953 1.58897e-19)
(163.99 -0.0880054 -1.60896e-19)
(162.21 -0.148452 5.14703e-19)
(158.014 -0.210338 3.44939e-19)
(156.987 -0.277316 -1.86454e-19)
(152.585 -0.388678 0)
(100.007 -0.0108474 0)
(100.168 -0.0310657 2.09412e-18)
(100.515 -0.049849 0)
(100.996 -0.0664151 0)
(101.634 -0.0818124 -1.26531e-18)
(102.392 -0.0981427 0)
(103.329 -0.121371 5.43226e-19)
(104.509 -0.156589 -4.98845e-19)
(106.095 -0.204124 0)
(108.167 -0.256493 -4.46032e-19)
(110.778 -0.303709 0)
(113.813 -0.338076 0)
(117.186 -0.357174 4.42142e-19)
(120.708 -0.363011 0)
(124.33 -0.35976 0)
(127.916 -0.352478 0)
(131.536 -0.344801 0)
(135.096 -0.339517 4.60018e-19)
(138.759 -0.336733 0)
(142.397 -0.336655 -4.37462e-19)
(146.229 -0.337787 -4.23189e-19)
(150.039 -0.34065 4.07183e-19)
(154.127 -0.343942 7.84754e-19)
(158.172 -0.349026 0)
(162.598 -0.354168 3.62519e-19)
(166.939 -0.361329 3.46963e-19)
(171.797 -0.367909 3.34122e-19)
(176.501 -0.376797 9.55936e-19)
(181.9 -0.384209 9.20084e-19)
(187.034 -0.394421 2.90851e-19)
(193.107 -0.401964 0)
(198.745 -0.413036 0)
(205.658 -0.419856 0)
(211.887 -0.431441 4.7067e-19)
(219.856 -0.437221 2.26537e-19)
(226.777 -0.4504 -4.14196e-19)
(236.091 -0.456831 0)
(243.834 -0.474963 -1.78338e-19)
(254.886 -0.485676 -1.73562e-19)
(263.624 -0.513729 -1.48985e-19)
(276.969 -0.534548 1.47374e-19)
(286.968 -0.580588 1.19092e-19)
(303.427 -0.621793 -2.43834e-19)
(315.133 -0.695956 0)
(335.903 -0.766158 -9.78422e-20)
(349.993 -0.866834 1.1661e-19)
(376.594 -0.944162 7.52982e-20)
(393.802 -1.00329 0)
(427.47 -0.999696 -1.06921e-19)
(448.219 -0.930642 -1.90458e-20)
(488.146 -0.859463 3.24228e-20)
(512.071 -0.624892 0)
(546.848 -0.634198 -4.48902e-20)
(570.473 0.00886829 8.49478e-21)
(550.753 0.309813 -1.64293e-24)
(540.467 0.503469 -1.11207e-19)
(507.354 0.566499 0)
(492.619 0.614646 3.9094e-20)
(464.259 0.652826 0)
(449.133 0.649955 -1.08389e-20)
(424.597 0.657987 0)
(410.079 0.659324 1.35153e-20)
(389.531 0.684621 0)
(376.438 0.689363 0)
(359.524 0.69359 6.50595e-20)
(347.995 0.680212 -6.05728e-20)
(334.051 0.67029 8.21272e-20)
(323.9 0.652931 -8.15929e-20)
(312.232 0.635439 0)
(303.203 0.607296 -3.64664e-25)
(293.249 0.575824 1.1465e-19)
(285.131 0.537936 -2.37803e-19)
(276.465 0.501976 0)
(269.077 0.464929 1.36465e-19)
(261.375 0.432274 -1.47155e-19)
(254.578 0.401469 1.54091e-19)
(247.614 0.376327 1.64253e-19)
(241.325 0.354315 0)
(234.958 0.336504 -1.82121e-19)
(229.142 0.320828 1.90796e-19)
(223.289 0.307297 2.00292e-19)
(217.935 0.295706 0)
(212.539 0.285085 2.18005e-19)
(207.649 0.276314 2.26891e-19)
(202.656 0.266743 0)
(198.233 0.25792 -4.87395e-19)
(193.583 0.245919 5.01496e-19)
(189.629 0.232999 2.60203e-19)
(185.249 0.215078 2.66624e-19)
(181.774 0.194463 0)
(177.579 0.168114 2.83243e-19)
(174.609 0.136595 2.96212e-19)
(170.507 0.0995122 0)
(168.091 0.0538734 0)
(163.988 0.00331144 3.21798e-19)
(162.207 -0.0579435 -6.86299e-19)
(158.011 -0.125139 -3.4496e-19)
(156.983 -0.193724 7.45881e-19)
(152.582 -0.312767 0)
(100.007 -0.015195 0)
(100.168 -0.0435228 -2.79197e-18)
(100.515 -0.0698474 0)
(100.996 -0.0930633 0)
(101.634 -0.114602 1.26524e-18)
(102.392 -0.137341 0)
(103.329 -0.169593 -1.08641e-18)
(104.509 -0.218554 0)
(106.095 -0.284831 0)
(108.167 -0.358055 0)
(110.777 -0.424228 0)
(113.813 -0.472492 -8.7303e-19)
(117.185 -0.499379 -8.84242e-19)
(120.707 -0.507662 0)
(124.329 -0.503187 0)
(127.915 -0.493053 9.28549e-19)
(131.535 -0.482362 0)
(135.095 -0.475029 -9.20011e-19)
(138.758 -0.471193 0)
(142.396 -0.471147 8.74905e-19)
(146.228 -0.472779 8.46359e-19)
(150.038 -0.476823 0)
(154.126 -0.481437 4.15858e-25)
(158.17 -0.488549 0)
(162.596 -0.495711 4.43643e-25)
(166.938 -0.505721 0)
(171.796 -0.514918 -6.68232e-19)
(176.499 -0.527448 -6.37279e-19)
(181.899 -0.537983 -6.13378e-19)
(187.032 -0.552663 6.49117e-25)
(193.105 -0.563778 5.59556e-19)
(198.744 -0.580251 0)
(205.657 -0.591063 0)
(211.885 -0.609169 -4.70661e-19)
(219.854 -0.619357 5.34317e-25)
(226.776 -0.640465 4.14189e-19)
(236.089 -0.651758 0)
(243.832 -0.679638 0)
(254.884 -0.695782 3.47119e-19)
(263.622 -0.736033 2.97969e-19)
(276.967 -0.763257 -2.94743e-19)
(286.966 -0.824999 2.38182e-19)
(303.425 -0.874403 4.87657e-19)
(315.13 -0.968878 0)
(335.9 -1.04964 1.33174e-25)
(349.99 -1.17466 -1.16607e-19)
(376.591 -1.26342 0)
(393.799 -1.34524 0)
(427.467 -1.34995 1.06921e-19)
(448.217 -1.28699 1.90455e-20)
(488.145 -1.2157 0)
(512.07 -0.920167 0)
(546.848 -0.905435 5.98438e-20)
(570.475 -0.00628992 7.91028e-25)
(550.752 0.438022 4.32835e-23)
(540.465 0.711077 -1.11189e-19)
(507.35 0.80031 0)
(492.614 0.842492 0)
(464.255 0.889533 0)
(449.13 0.880689 3.25133e-20)
(424.594 0.891901 0)
(410.077 0.882089 -2.70341e-20)
(389.53 0.904407 0)
(376.437 0.896121 0)
(359.522 0.894904 -6.50582e-20)
(347.993 0.869402 0)
(334.05 0.853977 -8.21265e-20)
(323.898 0.826696 8.15929e-20)
(312.23 0.804525 1.97109e-19)
(303.202 0.768646 -1.00806e-19)
(293.248 0.733357 -2.29297e-19)
(285.129 0.689603 3.567e-19)
(276.463 0.650689 0)
(269.075 0.609385 -1.36464e-19)
(261.373 0.574494 2.94306e-19)
(254.576 0.540589 0)
(247.612 0.513555 -1.64252e-19)
(241.323 0.489059 0)
(234.956 0.469293 0)
(229.14 0.451343 -1.90795e-19)
(223.287 0.435544 0)
(217.934 0.42171 -4.18443e-19)
(212.537 0.408416 2.18004e-19)
(207.648 0.397443 0)
(202.655 0.384806 0)
(198.231 0.373961 2.43695e-19)
(193.582 0.358552 -7.52234e-19)
(189.628 0.343968 0)
(185.248 0.322321 2.66619e-19)
(181.773 0.300528 0)
(177.578 0.270097 -5.66475e-19)
(174.607 0.23787 2.96208e-19)
(170.505 0.196279 0)
(168.089 0.15015 0)
(163.985 0.0946373 -3.21802e-19)
(162.204 0.0325734 3.43161e-19)
(158.008 -0.0399303 0)
(156.98 -0.110129 3.72971e-19)
(152.579 -0.236855 0)
(100.007 -0.0195432 0)
(100.168 -0.0559818 2.79178e-18)
(100.515 -0.0898485 1.36623e-18)
(100.996 -0.119715 1.32511e-18)
(101.634 -0.147396 -1.26516e-18)
(102.393 -0.176543 0)
(103.33 -0.217816 2.17269e-18)
(104.51 -0.280515 9.97635e-19)
(106.095 -0.365528 0)
(108.167 -0.459601 0)
(110.776 -0.54473 -8.74089e-19)
(113.812 -0.606894 8.73006e-19)
(117.184 -0.641573 8.8421e-19)
(120.705 -0.652308 0)
(124.328 -0.646612 9.17991e-19)
(127.914 -0.633626 -9.28516e-19)
(131.533 -0.61992 -9.30218e-19)
(135.093 -0.610538 9.19988e-19)
(138.757 -0.605651 0)
(142.394 -0.605636 -1.74977e-18)
(146.226 -0.607766 4.82471e-25)
(150.036 -0.612992 0)
(154.124 -0.618928 5.35875e-25)
(158.168 -0.62807 7.52745e-19)
(162.594 -0.637251 5.72838e-25)
(166.936 -0.650109 0)
(171.794 -0.661924 -6.04442e-25)
(176.497 -0.678095 0)
(181.897 -0.691752 0)
(187.03 -0.710901 8.39545e-25)
(193.103 -0.725588 -5.59545e-19)
(198.742 -0.747463 0)
(205.654 -0.762265 0)
(211.883 -0.786893 4.70653e-19)
(219.852 -0.801489 -9.06118e-19)
(226.773 -0.830526 -4.14185e-19)
(236.087 -0.846682 0)
(243.83 -0.884308 -3.5667e-19)
(254.882 -0.905883 -3.47115e-19)
(263.62 -0.958332 -5.95931e-19)
(276.965 -0.991959 -4.60682e-25)
(286.963 -1.0694 1.09834e-24)
(303.422 -1.127 -2.43824e-19)
(315.127 -1.24179 1.77825e-19)
(335.896 -1.33311 3.9135e-19)
(349.985 -1.48249 -1.16605e-19)
(376.586 -1.58267 0)
(393.794 -1.6872 0)
(427.463 -1.70021 0)
(448.213 -1.64335 0)
(488.143 -1.57193 0)
(512.068 -1.21545 0)
(546.849 -1.17669 -2.99167e-20)
(570.477 -0.021441 -1.69842e-20)
(550.751 0.566249 -9.11443e-23)
(540.462 0.918696 2.22326e-19)
(507.346 1.03413 0)
(492.61 1.07034 -7.81715e-20)
(464.251 1.12623 0)
(449.126 1.11141 -1.72414e-24)
(424.592 1.12581 -6.30821e-20)
(410.074 1.10485 2.70336e-20)
(389.527 1.12419 9.56478e-20)
(376.434 1.10288 7.51784e-20)
(359.52 1.09622 1.30114e-19)
(347.991 1.05859 1.21143e-19)
(334.047 1.03766 -1.64251e-19)
(323.896 1.00046 1.63185e-19)
(312.228 0.973609 -6.85393e-25)
(303.2 0.929992 0)
(293.246 0.890887 4.5859e-19)
(285.127 0.841268 -6.44512e-25)
(276.461 0.799399 0)
(269.073 0.753839 -2.72924e-19)
(261.371 0.716711 -2.94304e-19)
(254.574 0.679707 -3.08175e-19)
(247.61 0.650779 3.28501e-19)
(241.321 0.623799 3.44438e-19)
(234.954 0.602077 0)
(229.138 0.581854 0)
(223.285 0.563787 0)
(217.932 0.547711 4.31772e-25)
(212.536 0.531743 -8.72006e-19)
(207.646 0.518568 0)
(202.654 0.502865 0)
(198.23 0.489998 -4.87382e-19)
(193.581 0.471182 5.01481e-19)
(189.626 0.454935 0)
(185.246 0.429564 -5.33226e-19)
(181.771 0.406594 0)
(177.576 0.372083 -5.38947e-25)
(174.605 0.339149 -5.92403e-19)
(170.503 0.293052 0)
(168.087 0.246433 0)
(163.983 0.18597 0)
(162.201 0.123096 0)
(158.005 0.045283 0)
(156.976 -0.0265313 2.3426e-25)
(152.575 -0.160945 0)
(100.007 -0.0238922 0)
(100.168 -0.0684429 1.3958e-18)
(100.515 -0.109853 -1.36614e-18)
(100.996 -0.146371 -1.32502e-18)
(101.634 -0.180194 -1.26507e-18)
(102.393 -0.21575 0)
(103.33 -0.266041 -1.08627e-18)
(104.51 -0.342474 -9.97594e-19)
(106.096 -0.446216 0)
(108.167 -0.561131 1.78407e-18)
(110.776 -0.665213 8.74081e-19)
(113.811 -0.741279 -1.74598e-18)
(117.182 -0.783755 1.76838e-18)
(120.704 -0.796947 0)
(124.326 -0.790033 -9.17963e-19)
(127.912 -0.774198 -1.85698e-18)
(131.532 -0.757476 2.79059e-18)
(135.091 -0.746043 0)
(138.755 -0.740104 0)
(142.393 -0.740121 8.74867e-19)
(146.225 -0.74275 -8.46321e-19)
(150.034 -0.749157 0)
(154.122 -0.756415 7.84702e-19)
(158.166 -0.767586 -7.52727e-19)
(162.592 -0.778787 -7.24991e-19)
(166.933 -0.794493 0)
(171.792 -0.808926 6.68205e-19)
(176.495 -0.828737 0)
(181.894 -0.845517 0)
(187.028 -0.869134 -5.8167e-19)
(193.101 -0.887393 0)
(198.739 -0.91467 0)
(205.652 -0.933464 0)
(211.88 -0.964613 -4.70643e-19)
(219.849 -0.983617 1.35916e-18)
(226.771 -1.02058 4.14179e-19)
(236.084 -1.0416 0)
(243.827 -1.08897 1.07e-18)
(254.879 -1.11598 -6.94223e-19)
(263.617 -1.18062 2.97963e-19)
(276.962 -1.22065 2.94735e-19)
(286.959 -1.31379 -2.38176e-19)
(303.418 -1.37959 -4.87639e-19)
(315.122 -1.51469 -1.77821e-19)
(335.891 -1.61657 -5.8701e-19)
(349.98 -1.79029 3.49806e-19)
(376.581 -1.90191 0)
(393.788 -2.02914 0)
(427.458 -2.05046 2.13839e-19)
(448.208 -1.99971 0)
(488.14 -1.92818 0)
(512.066 -1.51075 0)
(546.85 -1.44796 0)
(570.48 -0.0365832 3.39658e-20)
(550.749 0.694501 7.79453e-23)
(540.459 1.12633 -2.22284e-19)
(507.341 1.26795 0)
(492.605 1.29818 7.81646e-20)
(464.246 1.36292 0)
(449.122 1.34212 -2.16712e-20)
(424.588 1.3597 6.30799e-20)
(410.071 1.3276 -2.70381e-20)
(389.525 1.34397 -9.56464e-20)
(376.432 1.30963 -7.51772e-20)
(359.517 1.29753 3.37269e-25)
(347.988 1.24778 5.34125e-25)
(334.045 1.22134 3.28498e-19)
(323.893 1.17422 -1.63185e-19)
(312.226 1.14269 -1.97108e-19)
(303.197 1.09133 0)
(293.244 1.04841 -7.73261e-25)
(285.125 0.992931 -2.37795e-19)
(276.459 0.948109 0)
(269.07 0.898292 6.04689e-25)
(261.368 0.858927 2.94299e-19)
(254.572 0.818823 5.98331e-25)
(247.607 0.788001 -6.95582e-25)
(241.319 0.758536 -3.44435e-19)
(234.952 0.734858 0)
(229.136 0.712361 3.81582e-19)
(223.283 0.692026 0)
(217.93 0.673707 4.18435e-19)
(212.534 0.655066 8.71996e-19)
(207.644 0.63969 -4.53767e-19)
(202.652 0.620922 0)
(198.228 0.606034 9.74744e-19)
(193.579 0.583811 5.0147e-19)
(189.624 0.565902 5.20375e-19)
(185.245 0.536807 5.33214e-19)
(181.769 0.512662 0)
(177.574 0.474072 5.66447e-19)
(174.603 0.440432 5.9239e-19)
(170.5 0.38983 0)
(168.084 0.342724 0)
(163.98 0.27731 6.43614e-19)
(162.198 0.213627 -6.86357e-19)
(158.001 0.130504 0)
(156.972 0.0570705 -1.49209e-18)
(152.571 -0.0850348 0)
(100.007 -0.0282421 0)
(100.169 -0.0809067 7.25537e-24)
(100.515 -0.129862 0)
(100.997 -0.173032 2.64985e-18)
(101.635 -0.212998 2.52991e-18)
(102.393 -0.254961 0)
(103.331 -0.31427 0)
(104.511 -0.40443 0)
(106.096 -0.526891 0)
(108.167 -0.662641 -1.78407e-18)
(110.775 -0.785672 0)
(113.81 -0.875642 3.49196e-18)
(117.181 -0.925922 6.95048e-25)
(120.702 -0.941577 0)
(124.324 -0.93345 0)
(127.91 -0.914766 -8.83749e-25)
(131.53 -0.895029 -1.86037e-18)
(135.089 -0.881544 0)
(138.753 -0.874551 0)
(142.39 -0.8746 0)
(146.222 -0.877727 0)
(150.032 -0.885317 0)
(154.12 -0.893897 -1.56936e-18)
(158.164 -0.907096 0)
(162.59 -0.920317 0)
(166.931 -0.938871 0)
(171.789 -0.955921 0)
(176.492 -0.979374 -1.27449e-18)
(181.892 -0.999276 0)
(187.025 -1.02736 1.16332e-18)
(193.098 -1.04919 0)
(198.736 -1.08187 -1.05266e-18)
(205.649 -1.10466 -1.0124e-18)
(211.877 -1.14233 0)
(219.846 -1.16574 -9.06089e-19)
(226.767 -1.21063 -8.2835e-19)
(236.081 -1.23651 0)
(243.824 -1.29363 -7.13327e-19)
(254.875 -1.32606 1.38843e-18)
(263.613 -1.40291 0)
(276.958 -1.44933 0)
(286.955 -1.55817 0)
(303.413 -1.63217 4.87629e-19)
(315.117 -1.78757 0)
(335.886 -1.90001 3.91331e-19)
(349.974 -2.09808 -2.33199e-19)
(376.574 -2.22113 -3.01167e-19)
(393.782 -2.37108 0)
(427.452 -2.40072 -2.13838e-19)
(448.203 -2.35607 0)
(488.136 -2.28444 -1.29679e-19)
(512.063 -1.80606 2.14072e-19)
(546.851 -1.71926 -5.97999e-20)
(570.483 -0.0517147 -6.79181e-20)
(550.748 0.822779 -7.79191e-23)
(540.455 1.33397 -6.29823e-24)
(507.336 1.50178 0)
(492.599 1.52601 0)
(464.241 1.5996 0)
(449.117 1.57282 2.1666e-20)
(424.584 1.59359 0)
(410.067 1.55034 2.70376e-20)
(389.521 1.56374 9.5648e-20)
(376.428 1.51638 7.51797e-20)
(359.514 1.49883 -1.30109e-19)
(347.985 1.43696 -1.21139e-19)
(334.041 1.40502 -1.64247e-19)
(323.89 1.34797 1.63184e-19)
(312.223 1.31176 0)
(303.195 1.25267 0)
(293.241 1.20594 -7.39924e-25)
(285.122 1.14459 -2.37792e-19)
(276.456 1.09682 0)
(269.067 1.04274 2.72917e-19)
(261.365 1.00114 -2.94295e-19)
(254.569 0.957937 3.08168e-19)
(247.604 0.92522 -3.28494e-19)
(241.316 0.893268 0)
(234.949 0.867635 0)
(229.133 0.842863 -3.81579e-19)
(223.281 0.820261 -4.0057e-19)
(217.928 0.7997 0)
(212.532 0.778386 -1.62744e-25)
(207.642 0.760809 4.53761e-19)
(202.65 0.738975 0)
(198.226 0.722067 -4.87362e-19)
(193.577 0.696438 -5.01458e-19)
(189.622 0.676867 -5.2036e-19)
(185.243 0.64405 -5.332e-19)
(181.767 0.618731 0)
(177.572 0.576063 -5.66432e-19)
(174.601 0.541721 -5.92375e-19)
(170.497 0.486614 0)
(168.081 0.439022 0)
(163.976 0.368658 -1.28723e-18)
(162.194 0.304166 6.86368e-19)
(157.997 0.215733 0)
(156.968 0.140677 7.46089e-19)
(152.566 -0.00912455 0)
(100.007 -0.0325931 0)
(100.169 -0.0933735 -5.58236e-18)
(100.516 -0.149876 0)
(100.997 -0.199699 -2.64963e-18)
(101.635 -0.245808 0)
(102.394 -0.294179 0)
(103.331 -0.362503 -2.17216e-18)
(104.511 -0.466385 0)
(106.097 -0.607556 0)
(108.167 -0.764129 1.78408e-18)
(110.775 -0.906106 1.74819e-18)
(113.808 -1.00998 9.74114e-25)
(117.179 -1.06807 -1.76836e-18)
(120.7 -1.0862 0)
(124.322 -1.07686 0)
(127.908 -1.05533 3.71387e-18)
(131.528 -1.03258 0)
(135.087 -1.01704 -1.83989e-18)
(138.75 -1.00899 1.8029e-18)
(142.388 -1.00907 0)
(146.22 -1.0127 0)
(150.029 -1.02147 -1.62854e-18)
(154.117 -1.03137 1.56932e-18)
(158.161 -1.0466 -1.50538e-18)
(162.587 -1.06184 0)
(166.928 -1.08324 0)
(171.786 -1.10291 0)
(176.489 -1.13 1.27446e-18)
(181.888 -1.15303 0)
(187.022 -1.18558 2.82675e-24)
(193.094 -1.21098 -1.11903e-18)
(198.732 -1.24906 1.05263e-18)
(205.645 -1.27584 1.01238e-18)
(211.873 -1.32003 9.41258e-19)
(219.842 -1.34785 0)
(226.763 -1.40068 8.28336e-19)
(236.077 -1.43142 0)
(243.82 -1.49828 0)
(254.871 -1.53614 -6.9421e-19)
(263.609 -1.62518 5.95925e-19)
(276.953 -1.678 -5.89459e-19)
(286.95 -1.80254 4.76347e-19)
(303.408 -1.88472 0)
(315.111 -2.06043 -3.55633e-19)
(335.879 -2.18343 0)
(349.966 -2.40586 0)
(376.566 -2.54034 3.01161e-19)
(393.774 -2.71301 -1.04292e-19)
(427.445 -2.75097 -2.13838e-19)
(448.196 -2.71244 -3.80801e-20)
(488.132 -2.64071 1.29673e-19)
(512.06 -2.1014 -4.28112e-19)
(546.853 -1.9906 5.97878e-20)
(570.487 -0.0668336 3.39513e-20)
(550.746 0.951089 0)
(540.452 1.54162 2.22171e-19)
(507.331 1.73561 0)
(492.593 1.75385 -1.56306e-19)
(464.234 1.83627 0)
(449.112 1.80351 -2.16651e-20)
(424.579 1.82746 0)
(410.063 1.77308 0)
(389.517 1.7835 -9.56469e-20)
(376.424 1.72312 -7.51785e-20)
(359.51 1.70013 0)
(347.981 1.62614 2.42277e-19)
(334.038 1.58869 3.28489e-19)
(323.886 1.52172 -1.63184e-19)
(312.219 1.48083 0)
(303.191 1.414 0)
(293.237 1.36346 -2.29288e-19)
(285.119 1.29625 7.13368e-19)
(276.453 1.24552 0)
(269.064 1.18719 0)
(261.362 1.14335 5.8858e-19)
(254.566 1.09705 0)
(247.601 1.06243 6.56979e-19)
(241.313 1.028 6.88856e-19)
(234.946 1.00041 -7.28448e-19)
(229.13 0.973361 0)
(223.278 0.948491 4.00566e-19)
(217.925 0.925688 -8.36852e-19)
(212.529 0.901702 -4.35989e-19)
(207.64 0.881924 0)
(202.647 0.857025 0)
(198.224 0.838096 9.74704e-19)
(193.574 0.809062 -1.00289e-18)
(189.62 0.787831 0)
(185.24 0.751292 1.06637e-18)
(181.765 0.724801 0)
(177.569 0.678056 -5.66416e-19)
(174.598 0.643013 1.18472e-18)
(170.494 0.583403 0)
(168.078 0.535327 0)
(163.972 0.460014 6.43611e-19)
(162.19 0.394712 1.37275e-18)
(157.992 0.300969 0)
(156.963 0.224287 0)
(152.561 0.0667853 0)
(100.007 -0.0369453 2.83387e-18)
(100.169 -0.105844 2.79097e-18)
(100.516 -0.169895 0)
(100.997 -0.226373 2.64941e-18)
(101.635 -0.278626 0)
(102.395 -0.333404 -2.36401e-18)
(103.332 -0.410742 4.34385e-18)
(104.512 -0.528338 -1.99486e-18)
(106.097 -0.688208 -1.86435e-18)
(108.167 -0.865595 -3.5682e-18)
(110.774 -1.02651 -1.74822e-18)
(113.807 -1.1443 -3.49206e-18)
(117.178 -1.2102 -1.76839e-18)
(120.698 -1.23081 0)
(124.32 -1.22026 1.83588e-18)
(127.906 -1.19589 -1.85694e-18)
(131.525 -1.17012 0)
(135.085 -1.15253 1.83988e-18)
(138.748 -1.14343 1.55517e-24)
(142.385 -1.14354 0)
(146.217 -1.14766 -1.69252e-18)
(150.026 -1.15762 1.6285e-18)
(154.114 -1.16884 2.03988e-24)
(158.158 -1.1861 3.01068e-18)
(162.583 -1.20336 1.44988e-18)
(166.924 -1.22761 0)
(171.782 -1.24989 0)
(176.485 -1.28063 0)
(181.885 -1.30677 0)
(187.018 -1.34379 -1.16328e-18)
(193.09 -1.37277 1.11901e-18)
(198.728 -1.41625 0)
(205.641 -1.44702 1.01236e-18)
(211.869 -1.49773 -1.88249e-18)
(219.838 -1.52996 9.06065e-19)
(226.759 -1.59071 0)
(236.072 -1.62632 7.99948e-19)
(243.815 -1.70292 -7.13327e-19)
(254.866 -1.74621 0)
(263.603 -1.84744 -1.19184e-18)
(276.948 -1.90666 1.17891e-18)
(286.944 -2.04688 -4.7634e-19)
(303.402 -2.13726 4.87615e-19)
(315.104 -2.33327 3.55625e-19)
(335.871 -2.46683 -3.91314e-19)
(349.958 -2.71361 2.33196e-19)
(376.558 -2.85954 -3.01155e-19)
(393.765 -3.05493 1.04291e-19)
(427.437 -3.10121 2.13835e-19)
(448.188 -3.06882 2.39383e-24)
(488.127 -2.99699 -1.29669e-19)
(512.057 -2.39676 2.14039e-19)
(546.854 -2.26197 0)
(570.492 -0.0819383 -6.78965e-20)
(550.744 1.07943 9.63221e-23)
(540.448 1.74929 0)
(507.325 1.96946 -2.8218e-20)
(492.587 1.98169 1.56298e-19)
(464.228 2.07294 -6.98264e-20)
(449.106 2.03419 0)
(424.573 2.06133 0)
(410.058 1.9958 0)
(389.512 2.00325 0)
(376.419 1.92985 0)
(359.505 1.90143 0)
(347.977 1.81531 -2.42272e-19)
(334.033 1.77236 -3.28485e-19)
(323.882 1.69546 0)
(312.215 1.64989 0)
(303.187 1.57533 0)
(293.234 1.52097 0)
(285.115 1.4479 -9.51145e-19)
(276.449 1.39422 0)
(269.061 1.33164 0)
(261.359 1.28556 -5.88572e-19)
(254.562 1.23615 0)
(247.598 1.19965 -6.56971e-19)
(241.31 1.16272 -6.88848e-19)
(234.943 1.13317 7.28441e-19)
(229.127 1.10385 -7.63143e-19)
(223.275 1.07672 8.01124e-19)
(217.922 1.05167 2.4714e-25)
(212.526 1.02501 0)
(207.637 1.00304 0)
(202.645 0.975071 9.39017e-19)
(198.221 0.954122 -5.63157e-26)
(193.572 0.921683 -9.18125e-25)
(189.617 0.898793 1.04065e-18)
(185.237 0.858533 -2.13267e-18)
(181.762 0.830872 0)
(177.566 0.780052 1.13279e-18)
(174.595 0.744309 -1.18468e-18)
(170.491 0.680197 0)
(168.074 0.631639 0)
(163.968 0.551377 -1.28721e-18)
(162.186 0.485267 -1.37276e-18)
(157.988 0.386213 0)
(156.958 0.307902 0)
(152.556 0.142695 0)
(100.007 -0.041299 -2.83364e-18)
(100.169 -0.118318 2.79077e-18)
(100.516 -0.18992 2.73148e-18)
(100.998 -0.253055 8.87885e-24)
(101.636 -0.311452 0)
(102.395 -0.372637 2.36369e-18)
(103.333 -0.458986 -2.17166e-18)
(104.513 -0.59029 3.98942e-18)
(106.098 -0.768846 1.86433e-18)
(108.168 -0.967035 3.56826e-18)
(110.774 -1.14689 0)
(113.806 -1.27858 1.74609e-18)
(117.176 -1.35231 1.76843e-18)
(120.696 -1.3754 0)
(124.317 -1.36366 1.15887e-24)
(127.903 -1.33644 0)
(131.523 -1.30766 -1.86036e-18)
(135.082 -1.28801 0)
(138.745 -1.27785 -1.80286e-18)
(142.382 -1.27799 -1.7496e-18)
(146.214 -1.28262 3.38496e-18)
(150.023 -1.29375 -1.62845e-18)
(154.11 -1.3063 -1.56924e-18)
(158.154 -1.32558 -1.5053e-18)
(162.58 -1.34486 2.44534e-24)
(166.921 -1.37196 0)
(171.778 -1.39686 0)
(176.481 -1.43124 1.27442e-18)
(181.88 -1.46051 0)
(187.013 -1.50199 1.16326e-18)
(193.086 -1.53454 0)
(198.724 -1.58342 0)
(205.636 -1.61818 -1.01235e-18)
(211.864 -1.67542 1.88246e-18)
(219.833 -1.71206 -1.8121e-18)
(226.754 -1.78074 0)
(236.067 -1.8212 2.90795e-24)
(243.81 -1.90755 7.13321e-19)
(254.861 -1.95626 6.94205e-19)
(263.598 -2.06968 5.9592e-19)
(276.942 -2.13529 -5.89447e-19)
(286.938 -2.29121 4.76343e-19)
(303.395 -2.38977 1.67861e-24)
(315.096 -2.60609 0)
(335.863 -2.7502 3.91305e-19)
(349.949 -3.02134 -2.3319e-19)
(376.548 -3.17871 3.0115e-19)
(393.755 -3.39684 0)
(427.428 -3.45145 0)
(448.18 -3.4252 3.80757e-20)
(488.122 -3.35328 2.59325e-19)
(512.053 -2.69214 0)
(546.856 -2.53339 -1.19481e-19)
(570.497 -0.0970269 6.78741e-20)
(550.742 1.20782 -9.6278e-23)
(540.444 1.95697 0)
(507.319 2.20331 5.64237e-20)
(492.58 2.20952 1.5629e-19)
(464.221 2.30959 1.39649e-19)
(449.099 2.26485 -4.33111e-20)
(424.567 2.29518 1.26164e-19)
(410.052 2.21852 0)
(389.507 2.223 0)
(376.414 2.13658 1.50366e-19)
(359.5 2.10272 2.60205e-19)
(347.972 2.00448 2.42272e-19)
(334.028 1.95602 -3.2848e-19)
(323.877 1.86919 3.26367e-19)
(312.211 1.81894 0)
(303.183 1.73665 -4.03212e-19)
(293.23 1.67848 4.58563e-19)
(285.111 1.59955 4.75566e-19)
(276.445 1.54292 0)
(269.057 1.47608 -5.45808e-19)
(261.355 1.42776 0)
(254.558 1.37525 0)
(247.594 1.33685 6.56961e-19)
(241.306 1.29744 6.8884e-19)
(234.94 1.26594 0)
(229.124 1.23434 7.63135e-19)
(223.272 1.20493 -8.01116e-19)
(217.919 1.17765 8.36835e-19)
(212.523 1.14832 -8.71958e-19)
(207.634 1.12414 0)
(202.642 1.09311 -1.878e-18)
(198.218 1.07014 -9.74662e-19)
(193.569 1.0343 1.00284e-18)
(189.614 1.00975 -2.08124e-18)
(185.235 0.965772 1.0663e-18)
(181.759 0.936942 0)
(177.563 0.882048 -1.13276e-18)
(174.591 0.845609 0)
(170.487 0.776996 0)
(168.07 0.727958 0)
(163.964 0.642747 1.2872e-18)
(162.181 0.57583 0)
(157.983 0.471464 0)
(156.953 0.391522 0)
(152.55 0.218603 0)
(100.007 -0.0456542 2.83343e-18)
(100.169 -0.130797 -2.79054e-18)
(100.516 -0.209952 -2.73125e-18)
(100.998 -0.279745 -2.6489e-18)
(101.636 -0.344287 0)
(102.396 -0.41188 0)
(103.334 -0.507237 -2.17137e-18)
(104.514 -0.652242 -3.9891e-18)
(106.099 -0.849471 1.8643e-18)
(108.168 -1.06845 -1.78417e-18)
(110.773 -1.26723 0)
(113.805 -1.41284 0)
(117.174 -1.4944 0)
(120.693 -1.51998 0)
(124.315 -1.50705 -1.83596e-18)
(127.9 -1.47699 -1.857e-18)
(131.52 -1.44518 3.72077e-18)
(135.079 -1.42348 0)
(138.742 -1.41227 1.80285e-18)
(142.379 -1.41244 -2.30861e-24)
(146.21 -1.41756 -1.69244e-18)
(150.02 -1.42988 1.62841e-18)
(154.107 -1.44375 0)
(158.15 -1.46506 -3.01052e-18)
(162.576 -1.48636 -1.44981e-18)
(166.917 -1.51631 0)
(171.774 -1.54383 0)
(176.477 -1.58184 -1.27439e-18)
(181.876 -1.61423 0)
(187.009 -1.66019 1.16325e-18)
(193.081 -1.6963 2.23796e-18)
(198.719 -1.75059 2.10518e-18)
(205.631 -1.78934 -2.02467e-18)
(211.859 -1.85309 -9.41215e-19)
(219.827 -1.89414 9.06039e-19)
(226.749 -1.97075 0)
(236.061 -2.01607 -2.39981e-18)
(243.804 -2.11217 0)
(254.855 -2.16629 -2.08261e-18)
(263.591 -2.2919 -1.19185e-18)
(276.935 -2.36391 0)
(286.931 -2.53552 -4.76336e-19)
(303.387 -2.64226 -4.87599e-19)
(315.087 -2.87888 -7.11248e-19)
(335.854 -3.03354 0)
(349.938 -3.32904 -4.66388e-19)
(376.538 -3.49786 -6.02291e-19)
(393.744 -3.73873 0)
(427.418 -3.80169 0)
(448.17 -3.78159 7.61381e-20)
(488.116 -3.70959 -1.29656e-19)
(512.048 -2.98757 4.28047e-19)
(546.859 -2.80486 1.19451e-19)
(570.504 -0.112098 -6.78673e-20)
(550.74 1.33624 0)
(540.439 2.16467 0)
(507.313 2.43717 -2.82058e-20)
(492.572 2.43736 -1.56284e-19)
(464.213 2.54624 -6.98226e-20)
(449.092 2.4955 4.33099e-20)
(424.56 2.52902 -2.52328e-19)
(410.046 2.44122 0)
(389.5 2.44274 0)
(376.408 2.3433 5.12374e-24)
(359.494 2.304 -2.60199e-19)
(347.966 2.19363 -2.42267e-19)
(334.023 2.13967 3.28476e-19)
(323.872 2.04291 -3.26366e-19)
(312.206 1.98799 0)
(303.178 1.89796 -3.44818e-25)
(293.225 1.83598 -9.17116e-19)
(285.107 1.75119 -4.7556e-19)
(276.441 1.69161 -5.22913e-19)
(269.053 1.62051 5.45798e-19)
(261.351 1.56996 0)
(254.554 1.51435 0)
(247.59 1.47405 -6.56952e-19)
(241.302 1.43215 5.07616e-26)
(234.936 1.39869 7.28424e-19)
(229.12 1.36482 7.63127e-19)
(223.268 1.33315 -8.01108e-19)
(217.915 1.30362 0)
(212.52 1.27162 8.71948e-19)
(207.63 1.24524 0)
(202.638 1.21115 9.38986e-19)
(198.215 1.18616 -9.74641e-19)
(193.566 1.14691 0)
(189.611 1.12071 1.04058e-18)
(185.231 1.07301 0)
(181.755 1.04301 0)
(177.56 0.984046 1.13271e-18)
(174.588 0.946912 0)
(170.483 0.873799 0)
(168.066 0.824284 0)
(163.959 0.734125 0)
(162.176 0.6664 0)
(157.977 0.556722 0)
(156.947 0.475146 0)
(152.544 0.294511 0)
(100.007 -0.0500111 -2.83319e-18)
(100.169 -0.14328 0)
(100.516 -0.229991 0)
(100.998 -0.306444 0)
(101.637 -0.377133 0)
(102.397 -0.451132 0)
(103.335 -0.555497 2.17105e-18)
(104.515 -0.714194 1.99437e-18)
(106.1 -0.930082 1.86428e-18)
(108.168 -1.16983 3.56844e-18)
(110.773 -1.38753 0)
(113.803 -1.54706 3.49254e-18)
(117.172 -1.63646 3.5372e-18)
(120.691 -1.66454 0)
(124.312 -1.65043 0)
(127.897 -1.61753 1.85705e-18)
(131.517 -1.5827 1.86043e-18)
(135.076 -1.55894 0)
(138.739 -1.54667 -1.80284e-18)
(142.375 -1.54687 1.74954e-18)
(146.207 -1.55249 0)
(150.016 -1.566 0)
(154.103 -1.58118 3.13829e-18)
(158.146 -1.60453 3.01042e-18)
(162.571 -1.62785 -2.89954e-18)
(166.912 -1.66064 2.77517e-18)
(171.769 -1.69078 0)
(176.472 -1.73243 0)
(181.871 -1.76794 0)
(187.004 -1.81837 -2.32645e-18)
(193.076 -1.85805 -2.23792e-18)
(198.713 -1.91774 -2.10514e-18)
(205.625 -1.96048 2.02463e-18)
(211.853 -2.03076 1.88242e-18)
(219.821 -2.07621 0)
(226.742 -2.16075 0)
(236.055 -2.21093 1.59986e-18)
(243.798 -2.31677 -1.42665e-18)
(254.848 -2.37631 -6.6508e-24)
(263.584 -2.51411 1.19185e-18)
(276.927 -2.5925 0)
(286.922 -2.7798 0)
(303.378 -2.89472 -9.7519e-19)
(315.078 -3.15164 -1.24763e-23)
(335.843 -3.31686 7.82581e-19)
(349.927 -3.63672 4.66377e-19)
(376.526 -3.81699 6.02281e-19)
(393.731 -4.08061 2.08608e-19)
(427.407 -4.15191 4.27663e-19)
(448.16 -4.13798 -7.61358e-20)
(488.109 -4.06592 0)
(512.043 -3.28302 -8.56017e-19)
(546.861 -3.07639 0)
(570.51 -0.127149 6.78408e-20)
(550.737 1.46471 -1.30109e-23)
(540.435 2.37238 -4.43844e-19)
(507.306 2.67104 0)
(492.564 2.6652 0)
(464.205 2.78288 -6.98228e-20)
(449.084 2.72614 -4.32958e-20)
(424.553 2.76285 2.52332e-19)
(410.038 2.66391 -5.41139e-20)
(389.494 2.66247 0)
(376.402 2.55001 -1.50367e-19)
(359.488 2.50527 2.60195e-19)
(347.96 2.38278 2.42267e-19)
(334.017 2.32331 0)
(323.866 2.21663 0)