/*--------------------------------*- C++ -*----------------------------------*\
| =========                 |                                                 |
| \\      /  F ield         | OpenFOAM: The Open Source CFD Toolbox           |
|  \\    /   O peration     | Version:  2412                                  |
|   \\  /    A nd           | Website:  www.openfoam.com                      |
|    \\/     M anipulation  |                                                 |
\*---------------------------------------------------------------------------*/
FoamFile
{
    version     2.0;
    format      ascii;
    arch        "LSB;label=32;scalar=64";
    class       volScalarField;
    location    "0.4";
    object      epsilon;
}
// * * * * * * * * * * * * * * * * * * * * * * * * * * * * * * * * * * * * * //

dimensions      [0 2 -3 0 0 0 0];

internalField   nonuniform List<scalar> 
12960
(
387.394
427.173
521.791
674.575
840.282
960.852
1016.86
1019.88
985.575
931.72
879.091
841.594
820.899
813.282
814.029
820.729
831.251
845.457
862.182
882.353
904.802
931.287
960.16
994.241
1030.94
1074.72
1121.35
1177.91
1237.45
1311.31
1387.97
1486.03
1586.31
1719.68
1854.25
2041.87
2230.74
2509.68
2796.73
3243.53
3710.68
4442.43
5179.49
6282.89
7231.91
8505.33
9305.74
10597.8
11743.1
13449.7
14958.6
12912.7
13112.5
8023.14
5247.87
4831.52
5582.71
5670.69
5586.88
4922.87
4463.14
3873.77
3510.46
3091.64
2828.94
2544.21
2370.13
2192.21
2084.95
1969.54
1892.76
1808.11
1743.99
1670.15
1602.99
1525.55
1449.07
1367.9
1291.84
1220.58
1158.84
1105.9
1061.57
1024.73
992.248
963.977
935.823
909.783
881.365
854.328
823.587
793.759
759.939
726.115
689.733
651.945
615.224
579.966
539.379
387.558
427.896
523.691
678.045
844.908
965.567
1020.73
1022.54
987.044
932.143
878.715
840.745
819.856
812.213
813.011
819.787
830.383
844.653
861.428
881.633
904.105
930.6
959.474
993.544
1030.23
1073.97
1120.58
1177.09
1236.57
1310.36
1386.94
1484.88
1585.03
1718.23
1852.58
2039.92
2228.46
2506.97
2793.58
3239.97
3706.86
4438.65
5176.18
6280.65
7230.4
8503.93
9302
10593.7
11739.9
13463.7
14991.2
12967.8
13234.1
8128.44
5316.44
4875.86
5613.52
5689.35
5597.5
4928.06
4465.47
3874.45
3510.24
3090.97
2828.04
2543.17
2368.99
2191.11
2083.96
1968.69
1892.04
1807.56
1743.61
1669.94
1602.9
1525.51
1449.01
1367.77
1291.59
1220.24
1158.44
1105.51
1061.23
1024.48
992.11
963.952
935.907
909.975
881.659
854.738
824.105
794.411
760.71
727.032
690.783
653.103
616.503
581.292
540.574
387.723
428.625
525.605
681.54
849.566
970.32
1024.64
1025.24
988.546
932.59
878.355
839.905
818.818
811.147
811.996
818.847
829.519
843.852
860.677
880.918
903.413
929.918
958.793
992.853
1029.52
1073.24
1119.81
1176.28
1235.71
1309.42
1385.92
1483.74
1583.76
1716.78
1850.92
2037.98
2226.18
2504.27
2790.44
3236.42
3703.05
4434.87
5172.9
6278.45
7228.94
8502.58
9298.27
10589.5
11736.6
13477.6
15023.8
13023
13356.8
8235.36
5386.44
4920.88
5644.36
5707.72
5607.79
4933
4467.61
3874.98
3509.93
3090.23
2827.08
2542.08
2367.82
2189.97
2082.95
1967.82
1891.31
1806.99
1743.22
1669.73
1602.8
1525.48
1448.96
1367.64
1291.35
1219.9
1158.05
1105.12
1060.9
1024.24
991.974
963.931
935.996
910.175
881.961
855.156
824.632
795.075
761.495
727.965
691.85
654.282
617.803
582.64
541.788
387.89
429.361
527.536
685.062
854.259
975.11
1028.59
1027.97
990.073
933.052
878.002
839.066
817.778
810.078
810.979
817.906
828.653
843.05
859.925
880.201
902.719
929.234
958.11
992.159
1028.81
1072.5
1119.04
1175.46
1234.84
1308.48
1384.89
1482.6
1582.49
1715.33
1849.26
2036.04
2223.9
2501.56
2787.27
3232.84
3699.21
4431.07
5169.58
6276.22
7227.44
8501.15
9294.43
10585.1
11733
13491.3
15056
13078.1
13480.7
8343.87
5457.92
4966.63
5675.22
5725.75
5617.68
4937.62
4469.51
3875.33
3509.46
3089.36
2826.03
2540.91
2366.59
2188.79
2081.88
1966.91
1890.55
1806.41
1742.82
1669.5
1602.7
1525.44
1448.91
1367.5
1291.1
1219.55
1157.64
1104.72
1060.55
1023.99
991.834
963.908
936.084
910.375
882.264
855.579
825.164
795.746
762.289
728.909
692.93
655.476
619.121
584.006
543.017
388.059
430.105
529.484
688.614
858.988
979.936
1032.57
1030.73
991.62
933.526
877.651
838.226
816.734
809.005
809.957
816.96
827.783
842.243
859.17
879.48
902.021
928.545
957.423
991.461
1028.1
1071.76
1118.26
1174.63
1233.96
1307.53
1383.86
1481.46
1581.21
1713.86
1847.58
2034.08
2221.59
2498.83
2784.08
3229.22
3695.32
4427.22
5166.2
6273.93
7225.85
8499.62
9290.41
10580.5
11729.1
13504.7
15087.8
13133.1
13605.6
8454.05
5530.98
5013.16
5706.12
5743.43
5627.14
4941.88
4471.14
3875.47
3508.83
3088.37
2824.87
2539.65
2365.28
2187.54
2080.76
1965.95
1889.75
1805.78
1742.38
1669.24
1602.58
1525.38
1448.83
1367.36
1290.84
1219.19
1157.23
1104.31
1060.2
1023.73
991.687
963.88
936.169
910.573
882.567
856.002
825.7
796.422
763.089
729.862
694.023
656.684
620.457
585.389
544.26
388.23
430.856
531.451
692.196
863.753
984.799
1036.58
1033.51
993.185
934.009
877.302
837.382
815.685
807.926
808.93
816.008
826.908
841.432
858.409
878.754
901.318
927.852
956.731
990.758
1027.38
1071.01
1117.48
1173.8
1233.08
1306.57
1382.82
1480.3
1579.91
1712.39
1845.89
2032.1
2219.27
2496.07
2780.86
3225.57
3691.39
4423.32
5162.77
6271.57
7224.18
8497.96
9286.19
10575.5
11724.7
13517.7
15119.2
13187.9
13731.7
8566.01
5605.76
5060.59
5737.11
5760.78
5636.18
4945.79
4472.49
3875.39
3508.03
3087.24
2823.6
2538.3
2363.89
2186.22
2079.59
1964.95
1888.91
1805.13
1741.92
1668.97
1602.43
1525.3
1448.75
1367.19
1290.56
1218.82
1156.8
1103.89
1059.84
1023.46
991.533
963.846
936.249
910.768
882.869
856.426
826.237
797.102
763.896
730.825
695.127
657.908
621.809
586.79
545.519
388.403
431.615
533.437
695.808
868.555
989.699
1040.63
1036.32
994.769
934.501
876.955
836.534
814.631
806.842
807.896
815.051
826.027
840.616
857.643
878.022
900.61
927.153
956.033
990.049
1026.65
1070.25
1116.69
1172.96
1232.18
1305.6
1381.76
1479.13
1578.61
1710.9
1844.18
2030.11
2216.93
2493.29
2777.61
3221.89
3687.41
4419.36
5159.28
6269.14
7222.42
8496.16
9281.79
10570.4
11719.9
13530.3
15150.2
13242.5
13859
8679.87
5682.41
5109.02
5768.25
5777.81
5644.8
4949.35
4473.57
3875.1
3507.06
3085.98
2822.23
2536.87
2362.43
2184.83
2078.36
1963.89
1888.03
1804.44
1741.43
1668.66
1602.27
1525.21
1448.65
1367.02
1290.27
1218.43
1156.35
1103.45
1059.46
1023.18
991.372
963.807
936.326
910.961
883.169
856.85
826.776
797.787
764.71
731.797
696.244
659.146
623.179
588.209
546.794
388.578
432.382
535.441
699.45
873.394
994.637
1044.71
1039.16
996.371
935.001
876.608
835.683
813.57
805.751
806.857
814.089
825.141
839.794
856.872
877.286
899.897
926.449
955.33
989.334
1025.92
1069.49
1115.89
1172.12
1231.29
1304.63
1380.71
1477.96
1577.3
1709.41
1842.46
2028.1
2214.57
2490.48
2774.33
3218.16
3683.39
4415.35
5155.73
6266.65
7220.57
8494.25
9277.19
10564.9
11714.7
13542.6
15180.6
13297
13987.6
8795.76
5761.09
5158.59
5799.6
5794.56
5653.01
4952.56
4474.38
3874.6
3505.92
3084.59
2820.75
2535.34
2360.89
2183.39
2077.07
1962.79
1887.1
1803.71
1740.91
1668.33
1602.08
1525.1
1448.53
1366.83
1289.97
1218.03
1155.9
1103
1059.07
1022.89
991.203
963.761
936.398
911.151
883.469
857.276
827.318
798.476
765.53
732.78
697.373
660.4
624.568
589.648
548.086
388.754
433.156
537.463
703.121
878.269
999.612
1048.83
1042.03
997.992
935.511
876.262
834.827
812.504
804.654
805.812
813.12
824.25
838.967
856.095
876.545
899.178
925.739
954.621
988.613
1025.18
1068.72
1115.09
1171.27
1230.38
1303.65
1379.64
1476.77
1575.98
1707.9
1840.73
2026.08
2212.19
2487.66
2771.03
3214.4
3679.34
4411.29
5152.12
6264.1
7218.64
8492.22
9272.4
10559.1
11709.1
13554.5
15210.6
13351.3
14117.5
8913.84
5841.97
5209.41
5831.24
5811.06
5660.83
4955.43
4474.92
3873.89
3504.61
3083.06
2819.16
2533.74
2359.28
2181.88
2075.73
1961.65
1886.15
1802.96
1740.36
1667.98
1601.88
1524.98
1448.4
1366.63
1289.65
1217.61
1155.43
1102.54
1058.68
1022.6
991.027
963.711
936.467
911.34
883.769
857.702
827.863
799.171
766.358
733.773
698.516
661.671
625.976
591.107
549.396
388.933
433.939
539.503
706.821
883.179
1004.62
1052.98
1044.92
999.63
936.03
875.917
833.968
811.432
803.551
804.761
812.147
823.353
838.135
855.314
875.798
898.455
925.025
953.907
987.887
1024.44
1067.95
1114.29
1170.41
1229.47
1302.66
1378.56
1475.58
1574.64
1706.38
1838.99
2024.04
2209.8
2484.81
2767.69
3210.62
3675.24
4407.2
5148.47
6261.49
7216.63
8490.07
9267.44
10553.1
11703.1
13566.1
15240.2
13405.5
14248.9
9034.25
5925.23
5261.64
5863.23
5827.36
5668.29
4957.97
4475.2
3872.98
3503.15
3081.41
2817.48
2532.05
2357.6
2180.31
2074.34
1960.46
1885.15
1802.17
1739.78
1667.61
1601.66
1524.84
1448.26
1366.42
1289.33
1217.19
1154.95
1102.07
1058.27
1022.29
990.845
963.656
936.533
911.526
884.068
858.131
828.412
799.871
767.195
734.777
699.673
662.959
627.405
592.588
550.725
389.114
434.729
541.56
710.55
888.125
1009.67
1057.17
1047.84
1001.29
936.557
875.573
833.105
810.355
802.442
803.704
811.167
822.451
837.297
854.528
875.047
897.726
924.305
953.188
987.156
1023.69
1067.17
1113.47
1169.55
1228.55
1301.66
1377.48
1474.38
1573.3
1704.85
1837.23
2022
2207.39
2481.95
2764.34
3206.8
3671.11
4403.06
5144.77
6258.83
7214.56
8487.82
9262.31
10546.9
11696.7
13577.3
15269.3
13459.6
14382
9157.16
6011.07
5315.41
5895.67
5843.49
5675.39
4960.2
4475.23
3871.88
3501.53
3079.65
2815.7
2530.28
2355.85
2178.68
2072.9
1959.23
1884.12
1801.35
1739.18
1667.22
1601.42
1524.69
1448.11
1366.19
1288.99
1216.75
1154.46
1101.59
1057.85
1021.98
990.657
963.597
936.596
911.712
884.368
858.561
828.965
800.578
768.04
735.794
700.844
664.265
628.856
594.091
552.074
389.296
435.526
543.635
714.307
893.107
1014.76
1061.39
1050.79
1002.96
937.094
875.231
832.239
809.272
801.327
802.641
810.183
821.544
836.455
853.737
874.291
896.993
923.581
952.464
986.42
1022.94
1066.38
1112.65
1168.68
1227.63
1300.66
1376.4
1473.17
1571.96
1703.32
1835.47
2019.94
2204.97
2479.07
2760.96
3202.95
3666.94
4398.88
5141.04
6256.13
7212.43
8485.48
9257.02
10540.4
11690
13588.2
15298
13513.7
14516.7
9282.73
6099.67
5370.88
5928.65
5859.5
5682.17
4962.13
4475.02
3870.59
3499.77
3077.77
2813.83
2528.44
2354.04
2177
2071.42
1957.96
1883.05
1800.51
1738.56
1666.81
1601.17
1524.53
1447.95
1365.96
1288.64
1216.3
1153.96
1101.1
1057.43
1021.66
990.464
963.535
936.658
911.898
884.668
858.994
829.522
801.292
768.894
736.822
702.032
665.59
630.329
595.618
553.445
389.481
436.331
545.727
718.091
898.124
1019.89
1065.64
1053.77
1004.66
937.641
874.89
831.37
808.184
800.207
801.573
809.193
820.632
835.608
852.941
873.53
896.255
922.852
951.736
985.68
1022.18
1065.6
1111.83
1167.8
1226.7
1299.65
1375.3
1471.96
1570.6
1701.77
1833.7
2017.87
2202.53
2476.18
2757.56
3199.08
3662.75
4394.67
5137.27
6253.39
7210.24
8483.04
9251.57
10533.6
11682.8
13598.7
15326.3
13567.6
14653.2
9411.13
6191.24
5428.21
5962.24
5875.43
5688.65
4963.76
4474.58
3869.11
3497.86
3075.78
2811.88
2526.52
2352.17
2175.27
2069.89
1956.65
1881.96
1799.64
1737.91
1666.38
1600.9
1524.35
1447.78
1365.72
1288.29
1215.84
1153.45
1100.6
1057
1021.34
990.267
963.469
936.717
912.083
884.971
859.43
830.084
802.013
769.758
737.864
703.235
666.934
631.825
597.169
554.838
389.668
437.143
547.836
721.904
903.176
1025.05
1069.94
1056.78
1006.37
938.197
874.551
830.497
807.091
799.081
800.5
808.198
819.715
834.757
852.14
872.764
895.513
922.119
951.003
984.934
1021.41
1064.8
1111
1166.92
1225.76
1298.64
1374.2
1470.74
1569.24
1700.22
1831.92
2015.79
2200.09
2473.27
2754.15
3195.19
3658.53
4390.43
5133.46
6250.62
7208
8480.53
9245.98
10526.7
11675.4
13609
15354.1
13621.5
14791.7
9542.54
6285.99
5487.58
5996.56
5891.35
5694.86
4965.13
4473.91
3867.47
3495.82
3073.68
2809.84
2524.54
2350.24
2173.49
2068.32
1955.31
1880.84
1798.74
1737.25
1665.93
1600.62
1524.17
1447.6
1365.47
1287.93
1215.38
1152.93
1100.09
1056.56
1021.01
990.065
963.401
936.776
912.268
885.274
859.87
830.651
802.742
770.632
738.919
704.455
668.299
633.346
598.745
556.254
389.856
437.963
549.962
725.743
908.262
1030.25
1074.26
1059.81
1008.11
938.764
874.213
829.621
805.993
797.949
799.421
807.198
818.794
833.901
851.336
871.995
894.766
921.381
950.265
984.184
1020.65
1064
1110.17
1166.04
1224.82
1297.62
1373.1
1469.51
1567.88
1698.66
1830.13
2013.71
2197.63
2470.35
2750.72
3191.28
3654.29
4386.17
5129.63
6247.82
7205.73
8477.94
9240.25
10519.5
11667.6
13618.9
15381.6
13675.5
14932.3
9677.15
6384.15
5549.17
6031.71
5907.3
5700.82
4966.24
4473.03
3865.66
3493.65
3071.49
2807.72
2522.5
2348.26
2171.66
2066.71
1953.94
1879.69
1797.83
1736.57
1665.47
1600.33
1523.98
1447.42
1365.22
1287.56
1214.91
1152.4
1099.58
1056.11
1020.67
989.859
963.331
936.834
912.454
885.581
860.314
831.224
803.48
771.516
739.989
705.693
669.685
634.891
600.348
557.694
390.047
438.79
552.105
729.609
913.382
1035.49
1078.63
1062.88
1009.86
939.34
873.878
828.743
804.889
796.812
798.337
806.193
817.867
833.04
850.526
871.221
894.015
920.639
949.523
983.43
1019.87
1063.2
1109.33
1165.15
1223.88
1296.6
1371.99
1468.28
1566.51
1697.1
1828.34
2011.61
2195.17
2467.42
2747.28
3187.36
3650.03
4381.88
5125.78
6245
7203.41
8475.28
9234.39
10512.1
11659.4
13628.5
15408.6
13729.5
15075
9815.14
6485.95
5613.15
6067.79
5923.34
5706.56
4967.12
4471.95
3863.7
3491.35
3069.2
2805.54
2520.4
2346.23
2169.79
2065.06
1952.54
1878.51
1796.89
1735.87
1665
1600.03
1523.78
1447.23
1364.96
1287.18
1214.43
1151.87
1099.05
1055.66
1020.33
989.65
963.259
936.892
912.642
885.889
860.762
831.803
804.225
772.412
741.073
706.948
671.092
636.462
601.978
559.159
390.239
439.625
554.264
733.502
918.537
1040.77
1083.03
1065.97
1011.63
939.927
873.545
827.861
803.781
795.67
797.248
805.183
816.936
832.175
849.713
870.442
893.26
919.892
948.777
982.672
1019.1
1062.39
1108.49
1164.26
1222.93
1295.58
1370.88
1467.05
1565.13
1695.53
1826.54
2009.52
2192.7
2464.47
2743.82
3183.41
3645.75
4377.58
5121.91
6242.16
7201.06
8472.57
9228.42
10504.4
11651
13637.8
15435.3
13783.5
15220.1
9956.71
6591.63
5679.75
6104.92
5939.53
5712.12
4967.77
4470.68
3861.58
3488.95
3066.83
2803.28
2518.25
2344.15
2167.89
2063.38
1951.1
1877.31
1795.94
1735.15
1664.51
1599.72
1523.58
1447.04
1364.7
1286.8
1213.94
1151.33
1098.53
1055.2
1019.99
989.439
963.185
936.949
912.831
886.201
861.215
832.389
804.98
773.32
742.172
708.222
672.522
638.06
603.636
560.65
390.434
440.467
556.44
737.42
923.725
1046.08
1087.46
1069.09
1013.43
940.525
873.215
826.977
802.668
794.522
796.154
804.168
816.001
831.305
848.895
869.66
892.501
919.142
948.028
981.91
1018.32
1061.58
1107.64
1163.36
1221.98
1294.55
1369.76
1465.81
1563.75
1693.96
1824.74
2007.41
2190.22
2461.53
2740.35
3179.46
3641.46
4373.26
5118.02
6239.3
7198.69
8469.8
9222.33
10496.6
11642.2
13646.9
15461.7
13837.7
15367.7
10102.1
6701.45
5749.16
6143.23
5955.94
5717.54
4968.22
4469.24
3859.34
3486.43
3064.38
2800.97
2516.05
2342.03
2165.94
2061.67
1949.65
1876.09
1794.97
1734.42
1664.02
1599.41
1523.37
1446.84
1364.43
1286.42
1213.45
1150.78
1097.99
1054.74
1019.64
989.225
963.111
937.008
913.021
886.516
861.672
832.981
805.744
774.239
743.287
709.515
673.975
639.685
605.322
562.167
390.63
441.316
558.631
741.365
928.946
1051.44
1091.93
1072.25
1015.24
941.134
872.887
826.09
801.55
793.369
795.054
803.149
815.061
830.431
848.073
868.874
891.738
918.388
947.274
981.143
1017.53
1060.77
1106.79
1162.46
1221.02
1293.51
1368.64
1464.57
1562.37
1692.39
1822.93
2005.3
2187.74
2458.57
2736.88
3175.49
3637.15
4368.92
5114.12
6236.43
7196.31
8467
9216.15
10488.7
11633.2
13655.7
15487.7
13892.1
15517.8
10251.4
6815.67
5821.61
6182.85
5972.64
5722.84
4968.5
4467.63
3856.96
3483.82
3061.85
2798.59
2513.8
2339.87
2163.97
2059.93
1948.17
1874.86
1793.98
1733.68
1663.52
1599.09
1523.16
1446.64
1364.16
1286.03
1212.96
1150.23
1097.45
1054.27
1019.29
989.01
963.037
937.067
913.214
886.835
862.135
833.581
806.518
775.171
744.418
710.828
675.451
641.339
607.038
563.712
390.829
442.172
560.839
745.335
934.2
1056.82
1096.44
1075.43
1017.08
941.754
872.562
825.201
800.428
792.211
793.95
802.125
814.116
829.553
847.247
868.083
890.971
917.63
946.516
980.373
1016.75
1059.95
1105.94
1161.56
1220.06
1292.48
1367.52
1463.33
1560.98
1690.81
1821.13
2003.19
2185.26
2455.61
2733.39
3171.51
3632.83
4364.57
5110.21
6233.56
7193.91
8464.15
9209.87
10480.5
11623.9
13664.3
15513.5
13946.6
15670.8
10405
6934.57
5897.33
6223.91
5989.7
5728.06
4968.61
4465.87
3854.46
3481.11
3059.26
2796.17
2511.51
2337.68
2161.96
2058.17
1946.67
1873.6
1792.98
1732.93
1663.01
1598.76
1522.95
1446.44
1363.89
1285.64
1212.46
1149.68
1096.91
1053.8
1018.94
988.793
962.962
937.127
913.41
887.157
862.604
834.188
807.302
776.115
745.565
712.161
676.951
643.021
608.785
565.285
391.029
443.035
563.062
749.33
939.486
1062.25
1100.99
1078.64
1018.93
942.385
872.241
824.31
799.301
791.049
792.841
801.096
813.167
828.671
846.417
867.289
890.2
916.868
945.755
979.6
1015.95
1059.12
1105.08
1160.65
1219.1
1291.44
1366.39
1462.08
1559.59
1689.23
1819.31
2001.08
2182.77
2452.64
2729.9
3167.52
3628.5
4360.22
5106.3
6230.69
7191.5
8461.28
9203.5
10472.2
11614.3
13672.6
15538.9
14001.4
15826.7
10562.9
7058.44
5976.58
6266.56
6007.19
5733.25
4968.59
4463.97
3851.86
3478.32
3056.61
2793.7
2509.18
2335.45
2159.92
2056.38
1945.15
1872.33
1791.97
1732.17
1662.49
1598.43
1522.74
1446.24
1363.62
1285.25
1211.96
1149.12
1096.36
1053.33
1018.58
988.575
962.888
937.189
913.608
887.484
863.079
834.803
808.097
777.073
746.729
713.514
678.476
644.732
610.562
566.887
391.232
443.906
565.301
753.35
944.805
1067.71
1105.57
1081.88
1020.81
943.028
871.922
823.416
798.17
789.881
791.727
800.063
812.214
827.785
845.583
866.491
889.425
916.102
944.99
978.822
1015.16
1058.3
1104.22
1159.74
1218.14
1290.4
1365.26
1460.83
1558.2
1687.64
1817.5
1998.96
2180.27
2449.67
2726.4
3163.53
3624.17
4355.86
5102.39
6227.83
7189.1
8458.38
9197.06
10463.7
11604.5
13680.7
15564.1
14056.6
15985.6
10725.6
7187.58
6059.61
6310.95
6025.19
5738.44
4968.45
4461.96
3849.16
3475.45
3053.9
2791.18
2506.82
2333.19
2157.87
2054.57
1943.62
1871.05
1790.95
1731.41
1661.97
1598.1
1522.52
1446.04
1363.35
1284.85
1211.46
1148.56
1095.81
1052.85
1018.22
988.357
962.814
937.253
913.81
887.816
863.559
835.427
808.902
778.043
747.91
714.887
680.026
646.473
612.372
568.518
391.436
444.783
567.555
757.394
950.155
1073.21
1110.18
1085.15
1022.71
943.683
871.607
822.521
797.034
788.708
790.608
799.025
811.257
826.894
844.746
865.689
888.647
915.333
944.221
978.042
1014.36
1057.47
1103.36
1158.83
1217.17
1289.35
1364.13
1459.58
1556.81
1686.06
1815.68
1996.84
2177.78
2446.7
2722.9
3159.53
3619.83
4351.49
5098.48
6224.97
7186.69
8455.47
9190.55
10455.1
11594.4
13688.7
15589.1
14112
16147.8
10893.1
7322.33
6146.7
6357.24
6043.79
5743.68
4968.21
4459.83
3846.37
3472.52
3051.14
2788.63
2504.43
2330.91
2155.79
2052.75
1942.07
1869.76
1789.92
1730.63
1661.44
1597.77
1522.31
1445.85
1363.09
1284.46
1210.96
1147.99
1095.26
1052.38
1017.86
988.138
962.742
937.319
914.015
888.152
864.047
836.058
809.718
779.028
749.109
716.282
681.602
648.245
614.214
570.18
391.643
445.668
569.824
761.462
955.537
1078.74
1114.84
1088.46
1024.63
944.35
871.295
821.623
795.895
787.531
789.485
797.983
810.296
826
843.904
864.883
887.865
914.56
943.449
977.257
1013.56
1056.64
1102.49
1157.91
1216.2
1288.3
1362.99
1458.32
1555.41
1684.47
1813.86
1994.72
2175.28
2443.72
2719.39
3155.52
3615.48
4347.13
5094.57
6222.12
7184.3
8452.56
9183.99
10446.4
11584.1
13696.4
15613.8
14167.9
16313.4
11065.8
7463
6238.15
6405.61
6063.08
5749
4967.91
4457.6
3843.5
3469.52
3048.34
2786.05
2502.02
2328.61
2153.69
2050.91
1940.51
1868.46
1788.88
1729.86
1660.92
1597.44
1522.1
1445.66
1362.82
1284.07
1210.45
1147.43
1094.71
1051.9
1017.5
987.92
962.671
937.388
914.224
888.493
864.541
836.698
810.544
780.026
750.325
717.699
683.203
650.049
616.088
571.873
391.851
446.559
572.108
765.554
960.949
1084.31
1119.52
1091.79
1026.57
945.03
870.988
820.724
794.751
786.349
788.357
796.937
809.33
825.102
843.059
864.074
887.079
913.784
942.674
976.47
1012.75
1055.8
1101.62
1156.99
1215.22
1287.25
1361.86
1457.06
1554.02
1682.88
1812.05
1992.6
2172.79
2440.74
2715.88
3151.52
3611.13
4342.76
5090.67
6219.28
7181.92
8449.64
9177.37
10437.5
11573.6
13704
15638.4
14224.2
16482.5
11244
7609.96
6334.27
6456.23
6083.15
5754.46
4967.55
4455.3
3840.56
3466.48
3045.5
2783.45
2499.59
2326.29
2151.58
2049.05
1938.94
1867.15
1787.84
1729.08
1660.39
1597.11
1521.9
1445.47
1362.56
1283.68
1209.95
1146.86
1094.15
1051.41
1017.14
987.702
962.602
937.46
914.437
888.84
865.041
837.346
811.382
781.038
751.559
719.137
684.831
651.884
617.997
573.597
392.062
447.457
574.408
769.669
966.392
1089.91
1124.25
1095.15
1028.53
945.722
870.684
819.824
793.604
785.163
787.225
795.887
808.361
824.2
842.21
863.261
886.29
913.004
941.895
975.679
1011.95
1054.96
1100.75
1156.07
1214.25
1286.2
1360.72
1455.81
1552.62
1681.29
1810.23
1990.47
2170.29
2437.76
2712.37
3147.51
3606.79
4338.4
5086.77
6216.47
7179.56
8446.72
9170.7
10428.6
11563
13711.4
15662.8
14281
16655.3
11427.7
7763.58
6435.37
6509.31
6104.09
5760.1
4967.18
4452.93
3837.57
3463.38
3042.63
2780.82
2497.14
2323.96
2149.45
2047.19
1937.36
1865.83
1786.8
1728.3
1659.86
1596.79
1521.7
1445.28
1362.3
1283.29
1209.44
1146.29
1093.59
1050.93
1016.78
987.485
962.534
937.534
914.654
889.192
865.549
838.003
812.232
782.064
752.811
720.597
686.486
653.751
619.94
575.353
392.274
448.363
576.721
773.808
971.865
1095.55
1129
1098.55
1030.52
946.427
870.385
818.922
792.452
783.972
786.089
794.832
807.388
823.294
841.357
862.444
885.498
912.221
941.113
974.885
1011.14
1054.12
1099.87
1155.14
1213.27
1285.14
1359.58
1454.55
1551.22
1679.7
1808.41
1988.35
2167.79
2434.78
2708.86
3143.49
3602.44
4334.04
5082.89
6213.67
7177.22
8443.82
9164
10419.5
11552.1
13718.7
15687
14338.4
16832
11617.5
7924.24
6541.82
6565.04
6126.01
5765.97
4966.8
4450.5
3834.53
3460.26
3039.74
2778.17
2494.68
2321.61
2147.32
2045.32
1935.78
1864.52
1785.75
1727.51
1659.34
1596.47
1521.5
1445.1
1362.04
1282.9
1208.94
1145.72
1093.03
1050.45
1016.42
987.269
962.469
937.612
914.875
889.549
866.064
838.669
813.093
783.104
754.081
722.079
688.168
655.65
621.917
577.143
392.488
449.275
579.05
777.968
977.367
1101.23
1133.8
1101.97
1032.52
947.145
870.09
818.019
791.297
782.777
784.948
793.773
806.411
822.385
840.501
861.624
884.702
911.435
940.328
974.087
1010.32
1053.28
1098.99
1154.21
1212.29
1284.09
1358.44
1453.29
1549.82
1678.11
1806.59
1986.23
2165.29
2431.8
2705.35
3139.48
3598.09
4329.68
5079.02
6210.9
7174.91
8440.93
9157.28
10410.3
11541.1
13725.9
15711.2
14396.3
17012.7
11813.5
8092.35
6653.98
6623.64
6149.01
5772.13
4966.45
4448.04
3831.45
3457.1
3036.84
2775.52
2492.21
2319.26
2145.18
2043.45
1934.2
1863.2
1784.71
1726.73
1658.82
1596.15
1521.32
1444.93
1361.79
1282.52
1208.44
1145.16
1092.48
1049.97
1016.06
987.055
962.406
937.693
915.101
889.912
866.586
839.345
813.965
784.158
755.37
723.584
689.877
657.583
623.93
578.966
392.705
450.194
581.392
782.152
982.898
1106.93
1138.63
1105.42
1034.55
947.876
869.8
817.115
790.139
781.578
783.803
792.711
805.43
821.472
839.641
860.801
883.902
910.645
939.539
973.286
1009.5
1052.43
1098.11
1153.28
1211.3
1283.03
1357.3
1452.02
1548.42
1676.52
1804.77
1984.11
2162.8
2428.82
2701.83
3135.47
3593.75
4325.33
5075.17
6208.15
7172.62
8438.06
9150.53
10401
11529.9
13733
15735.2
14455
17197.7
12016.1
8268.35
6772.24
6685.34
6173.21
5778.61
4966.16
4445.56
3828.34
3453.92
3033.92
2772.85
2489.74
2316.9
2143.04
2041.57
1932.61
1861.88
1783.66
1725.96
1658.3
1595.84
1521.13
1444.76
1361.55
1282.14
1207.94
1144.59
1091.92
1049.48
1015.7
986.842
962.346
937.778
915.332
890.281
867.115
840.029
814.849
785.227
756.677
725.111
691.613
659.549
625.979
580.823
392.924
451.119
583.749
786.357
988.458
1112.67
1143.49
1108.91
1036.61
948.621
869.515
816.21
788.977
780.375
782.654
791.644
804.445
820.555
838.778
859.974
883.1
909.851
938.747
972.482
1008.68
1051.58
1097.23
1152.35
1210.32
1281.97
1356.15
1450.76
1547.01
1674.92
1802.95
1981.99
2160.3
2425.84
2698.32
3131.46
3589.4
4320.99
5071.33
6205.42
7170.38
8435.22
9143.76
10391.7
11518.6
13740
15759.2
14514.4
17387
12225.6
8452.7
6897.01
6750.38
6198.73
5785.48
4965.93
4443.06
3825.22
3450.74
3030.99
2770.19
2487.27
2314.54
2140.89
2039.69
1931.03
1860.56
1782.62
1725.18
1657.79
1595.54
1520.96
1444.6
1361.31
1281.77
1207.44
1144.02
1091.36
1049
1015.34
986.631
962.288
937.866
915.567
890.656
867.652
840.722
815.745
786.31
758.003
726.661
693.378
661.549
628.064
582.714
393.144
452.051
586.12
790.583
994.045
1118.45
1148.38
1112.42
1038.68
949.38
869.235
815.304
787.812
779.167
781.501
790.574
803.457
819.635
837.911
859.144
882.293
909.055
937.951
971.675
1007.86
1050.72
1096.34
1151.42
1209.33
1280.9
1355
1449.49
1545.61
1673.33
1801.13
1979.87
2157.8
2422.86
2694.81
3127.45
3585.06
4316.66
5067.5
6202.73
7168.17
8432.42
9136.99
10382.3
11507.1
13746.9
15783.2
14574.6
17580.9
12442.3
8645.86
7028.73
6819.01
6225.69
5792.79
4965.81
4440.57
3822.08
3447.54
3028.07
2767.52
2484.79
2312.18
2138.75
2037.81
1929.45
1859.25
1781.59
1724.42
1657.29
1595.24
1520.8
1444.45
1361.08
1281.4
1206.95
1143.46
1090.8
1048.52
1014.99
986.422
962.234
937.959
915.807
891.037
868.196
841.424
816.652
787.408
759.347
728.234
695.171
663.584
630.186
584.641
393.367
452.991
588.505
794.831
999.66
1124.25
1153.32
1115.96
1040.78
950.152
868.96
814.397
786.643
777.956
780.345
789.5
802.465
818.711
837.041
858.31
881.484
908.255
937.153
970.865
1007.03
1049.87
1095.45
1150.48
1208.34
1279.84
1353.86
1448.23
1544.21
1671.74
1799.31
1977.75
2155.31
2419.88
2691.29
3123.44
3580.73
4312.33
5063.7
6200.07
7165.99
8429.65
9130.21
10372.8
11495.6
13753.8
15807.2
14635.6
17779.4
12666.6
8848.34
7167.85
6891.52
6254.22
5800.6
4965.82
4438.1
3818.95
3444.35
3025.15
2764.87
2482.33
2309.83
2136.61
2035.94
1927.87
1857.94
1780.56
1723.65
1656.79
1594.96
1520.64
1444.31
1360.86
1281.03
1206.46
1142.9
1090.24
1048.03
1014.63
986.216
962.183
938.055
916.052
891.424
868.747
842.136
817.571
788.521
760.71
729.83
696.991
665.653
632.345
586.604
393.591
453.936
590.903
799.099
1005.3
1130.09
1158.28
1119.54
1042.9
950.939
868.691
813.491
785.472
776.741
779.184
788.422
801.469
817.784
836.167
857.473
880.671
907.452
936.351
970.051
1006.2
1049.01
1094.56
1149.54
1207.35
1278.77
1352.71
1446.96
1542.8
1670.14
1797.49
1975.63
2152.82
2416.9
2687.78
3119.43
3576.4
4308.02
5059.91
6197.44
7163.87
8426.92
9123.44
10363.3
11483.9
13760.6
15831.2
14697.5
17982.9
12898.9
9060.68
7314.89
6968.2
6284.46
5808.97
4965.99
4435.66
3815.83
3441.16
3022.24
2762.22
2479.87
2307.48
2134.48
2034.07
1926.3
1856.64
1779.53
1722.9
1656.3
1594.68
1520.5
1444.18
1360.64
1280.67
1205.97
1142.33
1089.69
1047.55
1014.28
986.011
962.134
938.156
916.302
891.816
869.306
842.856
818.502
789.647
762.092
731.449
698.841
667.757
634.542
588.603
393.818
454.888
593.315
803.388
1010.97
1135.95
1163.27
1123.14
1045.04
951.74
868.427
812.584
784.297
775.523
778.02
787.341
800.47
816.853
835.29
856.632
879.855
906.645
935.546
969.235
1005.37
1048.14
1093.67
1148.59
1206.35
1277.7
1351.56
1445.69
1541.4
1668.55
1795.67
1973.51
2150.32
2413.93
2684.27
3115.42
3572.07
4303.72
5056.15
6194.84
7161.78
8424.24
9116.67
10353.7
11472.1
13767.4
15855.2
14760.4
18191.5
13139.6
9283.43
7470.33
7049.34
6316.56
5817.97
4966.33
4433.27
3812.73
3437.99
3019.34
2759.59
2477.43
2305.14
2132.35
2032.21
1924.73
1855.34
1778.51
1722.15
1655.83
1594.41
1520.36
1444.06
1360.44
1280.32
1205.49
1141.77
1089.13
1047.07
1013.92
985.809
962.09
938.26
916.557
892.215
869.872
843.586
819.444
790.788
763.493
733.09
700.719
669.896
636.776
590.639
394.047
455.847
595.74
807.697
1016.66
1141.85
1168.3
1126.77
1047.21
952.555
868.169
811.676
783.12
774.3
776.852
786.256
799.468
815.919
834.41
855.789
879.036
905.835
934.738
968.415
1004.53
1047.28
1092.77
1147.65
1205.36
1276.63
1350.4
1444.42
1539.99
1666.95
1793.85
1971.39
2147.83
2410.95
2680.76
3111.42
3567.75
4299.42
5052.41
6192.28
7159.75
8421.61
9109.92
10344.1
11460.3
13774.2
15879.3
14824.3
18405.3
13389.1
9517.17
7634.74
7135.27
6350.67
5827.64
4966.88
4430.94
3809.66
3434.85
3016.47
2756.97
2475
2302.82
2130.23
2030.36
1923.18
1854.06
1777.51
1721.41
1655.36
1594.16
1520.24
1443.95
1360.24
1279.97
1205.01
1141.22
1088.58
1046.6
1013.57
985.61
962.048
938.369
916.817
892.62
870.446
844.325
820.398
791.944
764.912
734.755
702.626
672.071
639.05
592.713
394.278
456.813
598.178
812.026
1022.38
1147.78
1173.36
1130.43
1049.4
953.384
867.917
810.769
781.94
773.075
775.68
785.168
798.462
814.982
833.527
854.942
878.213
905.022
933.926
967.591
1003.69
1046.41
1091.87
1146.7
1204.36
1275.56
1349.25
1443.15
1538.58
1665.36
1792.03
1969.27
2145.34
2407.97
2677.25
3107.41
3563.43
4295.14
5048.68
6189.76
7157.77
8419.04
9103.19
10334.5
11448.4
13781.1
15903.5
14889.2
18624.6
13647.9
9762.52
7808.7
7226.34
6386.96
5838.07
4967.67
4428.69
3806.63
3431.73
3013.62
2754.38
2472.59
2300.51
2128.13
2028.51
1921.64
1852.78
1776.51
1720.68
1654.9
1593.91
1520.13
1443.85
1360.05
1279.63
1204.53
1140.66
1088.03
1046.12
1013.22
985.413
962.01
938.482
917.082
893.031
871.027
845.072
821.363
793.113
766.35
736.443
704.561
674.281
641.362
594.826
394.511
457.785
600.629
816.373
1028.12
1153.74
1178.46
1134.12
1051.61
954.228
867.671
809.862
780.758
771.846
774.506
784.076
797.453
814.042
832.64
854.091
877.387
904.206
933.112
966.765
1002.85
1045.54
1090.96
1145.74
1203.35
1274.48
1348.09
1441.87
1537.17
1663.76
1790.21
1967.15
2142.85
2405
2673.74
3103.41
3559.11
4290.87
5044.98
6187.27
7155.83
8416.52
9096.49
10324.8
11436.4
13787.9
15927.9
14955.4
18849.5
13916.4
10020.1
7992.79
7322.92
6425.58
5849.31
4968.72
4426.52
3803.64
3428.65
3010.81
2751.81
2470.2
2298.21
2126.04
2026.69
1920.11
1851.52
1775.52
1719.97
1654.45
1593.68
1520.04
1443.76
1359.87
1279.3
1204.06
1140.11
1087.48
1045.64
1012.88
985.22
961.976
938.599
917.352
893.447
871.615
845.829
822.34
794.297
767.807
738.154
706.526
676.528
643.714
596.977
394.746
458.763
603.093
820.739
1033.89
1159.72
1183.58
1137.84
1053.84
955.087
867.432
808.956
779.573
770.614
773.327
782.981
796.441
813.098
831.75
853.238
876.558
903.386
932.294
965.935
1002
1044.66
1090.06
1144.79
1202.35
1273.4