/*--------------------------------*- C++ -*----------------------------------*\
| =========                 |                                                 |
| \\      /  F ield         | OpenFOAM: The Open Source CFD Toolbox           |
|  \\    /   O peration     | Version:  2412                                  |
|   \\  /    A nd           | Website:  www.openfoam.com                      |
|    \\/     M anipulation  |                                                 |
\*---------------------------------------------------------------------------*/
FoamFile
{
    version     2.0;
    format      ascii;
    arch        "LSB;label=32;scalar=64";
    class       volScalarField;
    location    "0.4";
    object      k;
}
// * * * * * * * * * * * * * * * * * * * * * * * * * * * * * * * * * * * * * //

dimensions      [0 2 -2 0 0 0 0];

internalField   nonuniform List<scalar> 
12960
(
38.3513
41.2513
46.8264
53.96
59.8848
62.7868
63.0924
62.0409
60.4402
58.7842
57.4976
56.7791
56.5229
56.5732
56.8005
57.1726
57.6415
58.2267
58.8862
59.6651
60.5102
61.4955
62.5436
63.7687
65.052
66.5682
68.1318
70.011
71.9133
74.2536
76.5727
79.5175
82.3683
86.1339
89.694
94.6214
99.223
105.945
112.289
121.925
130.984
144.609
156.696
173.986
186.689
203.529
212.277
228.451
241.207
259.988
274.223
246.986
249.385
175.782
136.033
139.012
156.929
158.454
157.121
145.486
138.392
127.749
121.66
113.391
108.551
102.473
99.0665
95.0394
92.795
89.9821
88.2343
86.0657
84.4687
82.4457
80.606
78.3725
76.1695
73.7859
71.5682
69.4649
67.6375
66.0456
64.6899
63.5367
62.4801
61.5351
60.5513
59.6273
58.5809
57.578
56.3999
55.2476
53.9036
52.5387
51.0424
49.455
47.911
46.4155
44.596
38.3627
41.2961
46.9247
54.107
60.044
62.9148
63.1668
62.0654
60.43
58.7528
57.4549
56.7331
56.4785
56.5325
56.7636
57.1392
57.6111
58.1985
58.8598
59.6399
60.4859
61.4716
62.5199
63.7448
65.0278
66.5434
68.1063
69.9843
71.8855
74.2241
76.5414
79.4836
82.3315
86.0934
89.6492
94.5713
99.1667
105.882
112.22
121.853
130.912
144.544
156.645
173.955
186.668
203.507
212.221
228.4
241.176
260.161
274.578
247.642
250.785
177.208
137.004
139.641
157.362
158.707
157.26
145.554
138.42
127.753
121.651
113.374
108.53
102.448
99.0402
95.0138
92.7721
89.9622
88.2176
86.0531
84.4605
82.4416
80.6044
78.3716
76.1673
73.7807
71.5595
69.4534
67.6248
66.0335
64.6799
63.53
62.4771
61.536
60.5559
59.6359
58.5932
57.5949
56.4211
55.2746
53.9358
52.5774
51.0874
49.505
47.967
46.4738
44.648
38.3742
41.3411
47.0233
54.2545
60.2037
63.0433
63.2419
62.0905
60.4204
58.7216
57.4123
56.6872
56.4343
56.4918
56.7269
57.106
57.5807
58.1704
58.8335
59.6148
60.4616
61.4478
62.4963
63.721
65.0037
66.5187
68.0809
69.9579
71.8579
74.1948
76.5103
79.45
82.295
86.0532
89.6046
94.5215
99.1106
105.819
112.151
121.781
130.841
144.48
156.595
173.925
186.648
203.485
212.165
228.348
241.144
260.334
274.933
248.299
252.194
178.646
137.983
140.272
157.792
158.956
157.396
145.618
138.447
127.756
121.641
113.357
108.509
102.423
99.0131
94.9876
92.7487
89.9418
88.2006
86.0402
84.4522
82.4375
80.6029
78.3709
76.1652
73.7757
71.5508
69.442
67.612
66.0214
64.6701
63.5234
62.4743
61.5371
60.5607
59.6447
58.6058
57.6121
56.4428
55.3019
53.9685
52.6168
51.133
49.5559
48.0239
46.533
44.7006
38.3858
41.3863
47.1225
54.4026
60.3639
63.1723
63.3174
62.116
60.4109
58.6905
57.3696
56.6411
56.3898
56.4511
56.69
57.0726
57.5503
58.1423
58.8071
59.5897
60.4374
61.424
62.4727
63.6972
64.9796
66.494
68.0555
69.9314
71.8302
74.1655
76.4791
79.4163
82.2584
86.0128
89.5597
94.4714
99.0541
105.756
112.082
121.709
130.768
144.415
156.543
173.895
186.626
203.462
212.107
228.294
241.107
260.504
275.284
248.954
253.61
180.095
138.973
140.906
158.22
159.199
157.527
145.678
138.47
127.756
121.628
113.337
108.485
102.397
98.9847
94.9602
92.7242
89.9206
88.1828
86.0268
84.4433
82.433
80.6011
78.3699
76.1629
73.7705
71.5419
69.4302
67.599
66.0091
64.66
63.5166
62.4713
61.5381
60.5655
59.6535
58.6185
57.6295
56.4646
55.3296
54.0015
52.6566
51.1792
49.6075
48.0816
46.5929
44.7539
38.3974
41.4318
47.2221
54.5512
60.5247
63.3018
63.3933
62.1416
60.4014
58.6592
57.3267
56.5948
56.3452
56.4101
56.653
57.0391
57.5197
58.114
58.7806
59.5644
60.4129
61.4
62.4489
63.6732
64.9554
66.4691
68.0299
69.9047
71.8023
74.1359
76.4476
79.3823
82.2214
85.9721
89.5146
94.4209
98.9972
105.692
112.011
121.635
130.695
144.35
156.491
173.863
186.604
203.437
212.047
228.237
241.066
260.67
275.631
249.606
255.032
181.554
139.973
141.542
158.644
159.436
157.651
145.733
138.49
127.752
121.612
113.315
108.46
102.368
98.9548
94.9315
92.6986
89.8984
88.1642
86.0126
84.4339
82.4279
80.5988
78.3686
76.1602
73.7649
71.5327
69.4181
67.5857
65.9964
64.6496
63.5096
62.4681
61.539
60.5703
59.6623
58.6312
57.6469
56.4865
55.3575
54.0349
52.6968
51.2259
49.6596
48.14
46.6536
44.8077
38.4092
41.4776
47.3222
54.7004
60.6859
63.4317
63.4695
62.1674
60.3918
58.6278
57.2836
56.5482
56.3002
56.3688
56.6157
57.0053
57.4889
58.0855
58.7539
59.5389
60.3883
61.3757
62.4248
63.649
64.9309
66.4439
68.004
69.8777
71.7742
74.106
76.4159
79.348
82.1842
85.931
89.469
94.3699
98.9398
105.627
111.94
121.561
130.621
144.283
156.438
173.831
186.58
203.41
211.983
228.176
241.021
260.833
275.973
250.255
256.462
183.026
140.984
142.182
159.065
159.667
157.771
145.784
138.506
127.746
121.594
113.291
108.433
102.338
98.9232
94.9012
92.6717
89.875
88.1447
85.9976
84.4237
82.4222
80.596
78.3669
76.1572
73.7589
71.523
69.4056
67.5719
65.9833
64.6388
63.5022
62.4647
61.5397
60.5749
59.6711
58.6439
57.6644
56.5086
55.3856
54.0685
52.7375
51.2731
49.7124
48.199
46.7149
44.8621
38.421
41.5237
47.4229
54.8503
60.8478
63.562
63.546
62.1934
60.3823
58.5961
57.2401
56.5013
56.255
56.3273
56.5781
56.9713
57.4578
58.0568
58.7269
59.5132
60.3634
61.3513
62.4006
63.6246
64.9061
66.4185
67.9779
69.8505
71.7458
74.0759
76.3839
79.3134
82.1466
85.8895
89.423
94.3185
98.8818
105.562
111.869
121.486
130.546
144.215
156.383
173.797
186.555
203.382
211.918
228.112
240.971
260.992
276.311
250.902
257.9
184.512
142.009
142.827
159.484
159.893
157.884
145.83
138.518
127.736
121.573
113.264
108.403
102.306
98.8901
94.8696
92.6436
89.8506
88.1242
85.9817
84.4128
82.416
80.5927
78.3647
76.1538
73.7526
71.513
69.3927
67.5577
65.9698
64.6277
63.4946
62.4611
61.5402
60.5794
59.6797
58.6565
57.6819
56.5308
55.4139
54.1024
52.7785
51.3208
49.7658
48.2588
46.777
44.9171
38.433
41.5701
47.5241
55.0007
61.0101
63.6928
63.6228
62.2195
60.3726
58.5643
57.1963
56.454
56.2095
56.2855
56.5403
56.9371
57.4266
58.0278
58.6998
59.4873
60.3384
61.3267
62.3761
63.6
64.8812
66.3929
67.9516
69.823
71.7171
74.0455
76.3515
79.2784
82.1086
85.8477
89.3765
94.2666
98.8232
105.497
111.796
121.41
130.47
144.146
156.328
173.762
186.528
203.352
211.849
228.044
240.916
261.147
276.643
251.546
259.346
186.012
143.048
143.476
159.9
160.113
157.992
145.872
138.526
127.723
121.55
113.236
108.372
102.272
98.8555
94.8366
92.6142
89.8251
88.1028
85.9651
84.4013
82.4091
80.589
78.3621
76.15
73.7459
71.5025
69.3793
67.5431
65.956
64.6163
63.4868
62.4573
61.5406
60.5838
59.6883
58.6692
57.6995
56.553
55.4424
54.1366
52.8199
51.3691
49.8198
48.3194
46.8398
44.9727
38.445
41.6168
47.6257
55.1516
61.1728
63.824
63.7
62.2457
60.3629
58.5322
57.1523
56.4065
56.1637
56.2434
56.5023
56.9026
57.3951
57.9987
58.6725
59.4612
60.3131
61.3018
62.3515
63.5751
64.856
66.3671
67.925
69.7953
71.6882
74.0148
76.3189
79.2432
82.0703
85.8056
89.3298
94.2143
98.7642
105.431
111.723
121.333
130.393
144.077
156.271
173.726
186.5
203.32
211.778
227.973
240.856
261.299
276.971
252.188
260.801
187.527
144.103
144.132
160.315
160.327
158.094
145.909
138.531
127.707
121.523
113.204
108.339
102.237
98.8193
94.8023
92.5837
89.7986
88.0805
85.9477
84.3891
82.4017
80.5847
78.3591
76.1459
73.7389
71.4917
69.3656
67.5281
65.9418
64.6046
63.4786
62.4533
61.5408
60.5881
59.6969
58.6819
57.7172
56.5755
55.4711
54.1712
52.8618
51.4179
49.8746
48.3808
46.9035
45.0291
38.4572
41.6638
47.7279
55.3031
61.3361
63.9556
63.7775
62.272
60.3531
58.4999
57.1079
56.3586
56.1175
56.2011
56.464
56.8679
57.3634
57.9693
58.6449
59.4349
60.2877
61.2768
62.3266
63.5501
64.8306
66.341
67.8982
69.7673
71.659
73.9839
76.2861
79.2077
82.0318
85.7631
89.2826
94.1616
98.7047
105.364
111.649
121.256
130.315
144.006
156.214
173.69
186.471
203.286
211.705
227.899
240.792
261.446
277.294
252.827
262.266
189.06
145.176
144.795
160.729
160.537
158.191
145.942
138.532
127.688
121.494
113.171
108.304
102.2
98.7817
94.7666
92.5521
89.7711
88.0574
85.9297
84.3762
82.3938
80.5801
78.3558
76.1414
73.7315
71.4806
69.3516
67.5127
65.9272
64.5925
63.4703
62.449
61.5409
60.5923
59.7055
58.6946
57.7349
56.5981
55.5001
54.2061
52.9042
51.4673
49.93
48.4431
46.9681
45.0862
38.4694
41.711
47.8305
55.4551
61.4998
64.0876
63.8553
62.2986
60.3433
58.4673
57.0633
56.3104
56.0711
56.1585
56.4255
56.833
57.3315
57.9398
58.6172
59.4083
60.262
61.2516
62.3016
63.5248
64.8051
66.3147
67.8712
69.7392
71.6296
73.9527
76.253
79.172
81.993
85.7203
89.2351
94.1085
98.6448
105.297
111.575
121.177
130.236
143.935
156.156
173.652
186.441
203.251
211.629
227.822
240.723
261.59
277.612
253.465
263.742
190.612
146.267
145.467
161.142
160.742
158.283
145.97
138.529
127.666
121.463
113.136
108.267
102.162
98.7427
94.7298
92.5194
89.7427
88.0335
85.9109
84.3628
82.3854
80.5751
78.3522
76.1367
73.7239
71.4692
69.3372
67.4971
65.9124
64.5802
63.4617
62.4447
61.5409
60.5965
59.714
58.7073
57.7528
56.6209
55.5294
54.2413
52.9471
51.5173
49.9863
48.5062
47.0335
45.1441
38.4817
41.7586
47.9335
55.6075
61.664
64.2201
63.9336
62.3253
60.3334
58.4346
57.0184
56.262
56.0245
56.1157
56.3867
56.7979
57.2994
57.91
58.5892
59.3816
60.2362
61.2261
62.2763
63.4994
64.7793
66.2883
67.844
69.7108
71.6001
73.9214
76.2197
79.136
81.9539
85.6772
89.1873
94.0551
98.5845
105.229
111.5
121.099
130.157
143.862
156.097
173.614
186.41
203.215
211.551
227.741
240.65
261.731
277.926
254.1
265.229
192.183
147.379
146.148
161.556
160.943
158.37
145.995
138.524
127.641
121.429
113.099
108.229
102.122
98.7024
94.6918
92.4856
89.7134
88.0089
85.8915
84.3489
82.3765
80.5697
78.3483
76.1318
73.716
71.4575
69.3225
67.4811
65.8972
64.5677
63.4529
62.4401
61.5408
60.6006
59.7226
58.7201
57.7708
56.6439
55.5589
54.2769
52.9905
51.5679
50.0432
48.5703
47.0999
45.2028
38.4941
41.8064
48.037
55.7605
61.8286
64.3529
64.0121
62.3521
60.3234
58.4016
56.9731
56.2132
55.9775
56.0726
56.3478
56.7625
57.2671
57.8801
58.5611
59.3548
60.2102
61.2005
62.2509
63.4737
64.7533
66.2616
67.8166
69.6823
71.5703
73.8898
76.1862
79.0998
81.9146
85.6339
89.1393
94.0014
98.5239
105.161
111.425
121.019
130.077
143.79
156.038
173.575
186.378
203.177
211.471
227.658
240.573
261.868
278.235
254.735
266.729
193.775
148.514
146.84
161.97
161.14
158.453
146.015
138.514
127.614
121.393
113.06
108.189
102.081
98.6609
94.6527
92.4509
89.6834
87.9835
85.8715
84.3344
82.3673
80.564
78.3441
76.1266
73.7079
71.4455
69.3075
67.4648
65.8818
64.5549
63.4439
62.4355
61.5406
60.6047
59.7311
58.733
57.7889
56.667
55.5888
54.313
53.0344
51.6193
50.101
48.6353
47.1673
45.2624
38.5066
41.8544
48.1409
55.9138
61.9936
64.4863
64.0911
62.3791
60.3134
58.3684
56.9276
56.1641
55.9302
56.0292
56.3085
56.727
57.2346
57.85
58.5328
59.3277
60.184
61.1747
62.2253
63.4479
64.7272
66.2348
67.7891
69.6536
71.5403
73.8581
76.1525
79.0634
81.8751
85.5904
89.091
93.9474
98.4629
105.092
111.349
120.939
129.997
143.716
155.977
173.536
186.345
203.138
211.389
227.571
240.492
262.001
278.54
255.368
268.243
195.389
149.672
147.544
162.386
161.333
158.531
146.032
138.502
127.584
121.355
113.019
108.148
102.038
98.6182
94.6125
92.4153
89.6525
87.9575
85.851
84.3195
82.3576
80.558
78.3397
76.1212
73.6996
71.4333
69.2923
67.4483
65.8662
64.5418
63.4347
62.4307
61.5404
60.6088
59.7397
58.746
57.8072
56.6905
55.619
54.3494
53.0789
51.6713
50.1597
48.7013
47.2356
45.3228
38.5192
41.9027
48.2452
56.0676
62.159
64.62
64.1704
62.4063
60.3033
58.3351
56.8818
56.1147
55.8827
55.9856
56.2691
56.6912
57.2019
57.8196
58.5043
59.3005
60.1576
61.1488
62.1995
63.4219
64.7009
66.2078
67.7613
69.6246
71.5102
73.8262
76.1186
79.0268
81.8353
85.5467
89.0424
93.8931
98.4016
105.023
111.272
120.859
129.916
143.642
155.917
173.496
186.312
203.097
211.305
227.482
240.406
262.131
278.84
256
269.771
197.028
150.855
148.261
162.803
161.524
158.604
146.045
138.487
127.551
121.315
112.976
108.105
101.994
98.5744
94.5714
92.3789
89.6209
87.931
85.8299
84.3042
82.3476
80.5517
78.3352
76.1157
73.6911
71.4209
69.2768
67.4315
65.8503
64.5286
63.4254
62.4258
61.5401
60.6129
59.7484
58.7591
57.8257
56.7141
55.6495
54.3863
53.1239
51.724
50.2192
48.7684
47.3051
45.3843
38.5319
41.9513
48.3498
56.2217
62.3248
64.7542
64.2502
62.4337
60.2931
58.3015
56.8358
56.065
55.8349
55.9417
56.2294
56.6552
57.169
57.7891
58.4756
59.273
60.131
61.1227
62.1735
63.3958
64.6744
66.1807
67.7334
69.5956
71.4799
73.7941
76.0845
78.9901
81.7955
85.5027
88.9937
93.8387
98.3401
104.954
111.196
120.778
129.834
143.568
155.856
173.455
186.277
203.056
211.219
227.39
240.317
262.258
279.137
256.632
271.315
198.691
152.066
148.993
163.224
161.711
158.674
146.054
138.469
127.516
121.273
112.932
108.061
101.949
98.5296
94.5293
92.3416
89.5886
87.9038
85.8084
84.2884
82.3374
80.5453
78.3305
76.11
73.6825
71.4084
69.2612
67.4145
65.8342
64.5152
63.416
62.4209
61.5398
60.6169
59.7571
58.7723
57.8444
56.738
55.6804
54.4237
53.1696
51.7775
50.2796
48.8365
47.3756
45.4466
38.5447
42.0001
48.4548
56.3763
62.491
64.8887
64.3303
62.4613
60.283
58.2677
56.7894
56.0151
55.7868
55.8976
56.1895
56.619
57.1359
57.7584
58.4467
59.2455
60.1043
61.0964
62.1474
63.3695
64.6478
66.1533
67.7053
69.5664
71.4494
73.7618
76.0503
78.9532
81.7554
85.4586
88.9448
93.784
98.2783
104.884
111.119
120.697
129.752
143.493
155.794
173.414
186.242
203.014
211.131
227.296
240.224
262.382
279.429
257.264
272.874
200.381
153.305
149.74
163.648
161.897
158.74
146.061
138.448
127.479
121.228
112.887
108.016
101.903
98.4838
94.4864
92.3036
89.5558
87.8761
85.7865
84.2723
82.3268
80.5386
78.3257
76.1043
73.6737
71.3956
69.2453
67.3974
65.8179
64.5017
63.4065
62.4158
61.5394
60.6211
59.7659
58.7856
57.8632
56.7622
55.7116
54.4615
53.2159
51.8317
50.3409
48.9057
47.4472
45.51
38.5576
42.0492
48.5602
56.5311
62.6575
65.0237
64.4107
62.4891
60.2728
58.2337
56.7428
55.9648
55.7385
55.8533
56.1494
56.5827
57.1026
57.7276
58.4177
59.2177
60.0775
61.0699
62.1212
63.343
64.621
66.1259
67.6771
69.537
71.4188
73.7294
76.016
78.9161
81.7152
85.4143
88.8957
93.7291
98.2163
104.815
111.041
120.615
129.67
143.418
155.733
173.373
186.207
202.971
211.041
227.199
240.128
262.504
279.718
257.896
274.452
202.1
154.575
150.504
164.076
162.081
158.803
146.064
138.425
127.439
121.183
112.84
107.969
101.857
98.4371
94.4428
92.265
89.5224
87.848
85.7642
84.256
82.3161
80.5318
78.3207
76.0984
73.6649
71.3828
69.2293
67.38
65.8014
64.488
63.3968
62.4108
61.5391
60.6252
59.7748
58.7991
57.8823
56.7867
55.7433
54.4999
53.2628
51.8868
50.4031
48.976
47.52
45.5745
38.5705
42.0985
48.6659
56.6864
62.8243
65.1591
64.4916
62.5171
60.2625
58.1995
56.6959
55.9143
55.6899
55.8087
56.1091
56.5461
57.0692
57.6965
58.3885
59.1898
60.0504
61.0433
62.0948
63.3164
64.5941
66.0983
67.6488
69.5075
71.3881
73.6969
75.9815
78.8789
81.6749
85.3699
88.8464
93.6741
98.1541
104.745
110.963
120.533
129.587
143.342
155.671
173.332
186.172
202.927
210.951
227.1
240.028
262.622
280.004
258.529
276.048
203.847
155.877
151.287
164.509
162.263
158.863
146.065
138.399
127.398
121.135
112.792
107.922
101.809
98.3897
94.3984
92.2257
89.4884
87.8195
85.7415
84.2393
82.3051
80.5249
78.3158
76.0926
73.6561
71.3699
69.2132
67.3625
65.7848
64.4742
63.3871
62.4057
61.5387
60.6295
59.7838
58.8128
57.9016
56.8115
55.7753
54.5387
53.3104
51.9426
50.4663
49.0474
47.594
45.6399
38.5836
42.148
48.772
56.8419
62.9915
65.2949
64.5729
62.5452
60.2522
58.1652
56.6487
55.8634
55.641
55.7639
56.0685
56.5093
57.0355
57.6653
58.3592
59.1617
60.0233
61.0166
62.0682
63.2896
64.567
66.0705
67.6203
69.4778
71.3572
73.6643
75.9469
78.8416
81.6344
85.3254
88.7971
93.6189
98.0918
104.674
110.885
120.451
129.504
143.266
155.608
173.291
186.136
202.882
210.858
226.999
239.925
262.738
280.286
259.164
277.663
205.625
157.213
152.089
164.948
162.445
158.921
146.063
138.372
127.355
121.086
112.742
107.874
101.76
98.3415
94.3534
92.1859
89.454
87.7905
85.7186
84.2224
82.2941
80.518
78.3108
76.0867
73.6472
71.3569
69.197
67.3449
65.7681
64.4603
63.3773
62.4005
61.5384
60.6337
59.7929
58.8266
57.9211
56.8365
55.8077
54.578
53.3587
51.9992
50.5305
49.1201
47.6692
45.7065
38.5967
42.1978
48.8783
56.9977
63.159
65.431
64.6545
62.5736
60.2419
58.1306
56.6012
55.8123
55.5919
55.7188
56.0277
56.4723
57.0017
57.6339
58.3297
59.1335
59.9959
60.9896
62.0415
63.2627
64.5398
66.0426
67.5917
69.4481
71.3263
73.6315
75.9122
78.8042
81.5939
85.2808
88.7476
93.5636
98.0293
104.604
110.807
120.368
129.421
143.19
155.546
173.249
186.099
202.837
210.765
226.895
239.819
262.851
280.565
259.8
279.299
207.435
158.585
152.913
165.394
162.627
158.976
146.059
138.342
127.31
121.036
112.692
107.824
101.711
98.2926
94.3078
92.1456
89.4192
87.7613
85.6954
84.2054
82.2829
80.5109
78.3058
76.0808
73.6382
71.3438
69.1807
67.3271
65.7512
64.4463
63.3675
62.3954
61.5381
60.6381
59.8022
58.8406
57.9408
56.8619
55.8406
54.6179
53.4076
52.0567
50.5957
49.1939
47.7456
45.7743
38.6099
42.2477
48.985
57.1538
63.3267
65.5676
64.7366
62.6023
60.2316
58.0959
56.5535
55.7609
55.5425
55.6735
55.9868
56.4352
56.9677
57.6023
58.3
59.1051
59.9684
60.9626
62.0146
63.2357
64.5125
66.0146
67.563
69.4182
71.2952
73.5987
75.8774
78.7667
81.5532
85.236
88.698
93.5082
97.9666
104.533
110.729
120.285
129.338
143.114
155.483
173.208
186.063
202.792
210.67
226.79
239.71
262.962
280.842
260.439
280.956
209.279
159.994
153.76
165.847
162.809
159.029
146.052
138.31
127.264
120.985
112.641
107.775
101.661
98.2431
94.2617
92.1048
89.3841
87.7318
85.672
84.1881
82.2716
80.5039
78.3009
76.075
73.6294
71.3307
69.1643
67.3093
65.7343
64.4322
63.3576
62.3903
61.5379
60.6426
59.8116
58.8547
57.9609
56.8876
55.8739
54.6583
53.4572
52.115
50.6619
49.269
47.8233
45.8431
38.6232
42.2979
49.0919
57.3102
63.4947
65.7045
64.819
62.6311
60.2213
58.061
56.5056
55.7093
55.4928
55.628
55.9456
56.3978
56.9335
57.5706
58.2701
59.0766
59.9408
60.9354
61.9876
63.2085
64.485
65.9864
67.5341
69.3882
71.264
73.5657
75.8425
78.7291
81.5125
85.1912
88.6484
93.4527
97.9039
104.463
110.65
120.202
129.254
143.038
155.421
173.166
186.027
202.746
210.574
226.683
239.598
263.071
281.115
261.08
282.636
211.157
161.442
154.63
166.308
162.992
159.08
146.044
138.277
127.216
120.932
112.588
107.724
101.61
98.1932
94.2151
92.0637
89.3487
87.702
85.6484
84.1708
82.2602
80.4969
78.296
76.0693
73.6205
71.3177
69.1479
67.2913
65.7173
64.4181
63.3477
62.3851
61.5377
60.6471
59.8211
58.8691
57.9811
56.9137
55.9076
54.6992
53.5076
52.1741
50.7292
49.3452
47.9022
45.9132
38.6366
42.3483
49.1991
57.4668
63.663
65.8417
64.9018
62.6601
60.2109
58.0259
56.4574
55.6573
55.4429
55.5823
55.9042
56.3603
56.8991
57.5387
58.2401
59.0479
59.913
60.9081
61.9605
63.1812
64.4574
65.9582
67.5051
69.358
71.2327
73.5326
75.8075
78.6914
81.4716
85.1463
88.5986
93.3971
97.8411
104.392
110.571
120.119
129.17
142.961
155.358
173.125
185.991
202.7
210.478
226.574
239.484
263.179
281.387
261.724
284.339
213.072
162.932
155.527
166.779
163.177
159.13
146.034
138.242
127.167
120.879
112.536
107.673
101.559
98.1427
94.1682
92.0222
89.313
87.6721
85.6247
84.1534
82.2489
80.4899
78.2913
76.0636
73.6117
71.3046
69.1314
67.2734
65.7002
64.4039
63.3378
62.38
61.5376
60.6518
59.8308
58.8837
58.0017
56.9401
55.9418
54.7407
53.5586
52.2342
50.7975
49.4228
47.9825
45.9844
38.6501
42.3989
49.3066
57.6236
63.8315
65.9793
64.985
62.6894
60.2006
57.9907
56.4089
55.6051
55.3927
55.5363
55.8626
56.3225
56.8646
57.5067
58.21
59.019
59.8851
60.8806
61.9333
63.1538
64.4297
65.9298
67.476
69.3278
71.2013
73.4995
75.7724
78.6536
81.4308
85.1014
88.5488
93.3414
97.7782
104.321
110.492
120.036
129.086
142.885
155.296
173.084
185.955
202.654
210.38
226.464
239.367
263.284
281.656
262.372
286.066
215.023
164.464
156.451
167.26
163.363
159.179
146.023
138.205
127.117
120.825
112.482
107.621
101.508
98.092
94.121
91.9805
89.2772
87.642
85.601
84.1359
82.2376
80.4831
78.2866
76.0581
73.603
71.2915
69.1149
67.2553
65.683
64.3896
63.3278
62.375
61.5376
60.6566
59.8406
58.8984
58.0225
56.9668
55.9764
54.7828
53.6104
52.2951
50.8669
49.5016
48.0641
46.0568
38.6637
42.4497
49.4143
57.7807
64.0003
66.1173
65.0686
62.7189
60.1903
57.9553
56.3602
55.5527
55.3423
55.4901
55.8209
56.2846
56.8299
57.4745
58.1797
58.99
59.857
60.853
61.9059
63.1262
64.4018
65.9013
67.4468
69.2975
71.1698
73.4662
75.7373
78.6157
81.3898
85.0563
88.499
93.2857
97.7152
104.25
110.413
119.952
129.002
142.808
155.234
173.043
185.919
202.607
210.282
226.352
239.248
263.388
281.924
263.024
287.819
217.014
166.042
157.404
167.752
163.553
159.228
146.01
138.168
127.066
120.77
112.428
107.569
101.456
98.0409
94.0735
91.9386
89.2411
87.6118
85.5771
84.1184
82.2263
80.4763
78.2821
76.0527
73.5944
71.2786
69.0985
67.2373
65.6659
64.3754
63.3179
62.37
61.5377
60.6615
59.8506
58.9134
58.0436
56.9939
56.0115
54.8254
53.6628
52.3569
50.9374
49.5817
48.1471
46.1305
38.6773
42.5006
49.5222
57.9379
64.1692
66.2555
65.1526
62.7487
60.1799
57.9197
56.3112
55.4999
55.2917
55.4437
55.7789
56.2466
56.7951
57.4421
58.1493
58.9609
59.8288
60.8252
61.8783
63.0985
64.3738
65.8726
67.4175
69.2671
71.1382
73.4329
75.7021
78.5778
81.3488
85.0113
88.4491
93.23
97.6522
104.179
110.334
119.869
128.918
142.731
155.171
173.002
185.883
202.561
210.183
226.238
239.127
263.49
282.19
263.681
289.599
219.044
167.666
158.388
168.257
163.746
159.276
145.997
138.129
127.015
120.714
112.374
107.517
101.405
97.9895
94.0258
91.8965
89.205
87.5816
85.5533
84.101
82.2151
80.4696
78.2778
76.0475
73.586
71.2656
69.082
67.2192
65.6487
64.3611
63.308
62.365
61.5378
60.6665
59.8608
58.9287
58.0649
57.0213
56.047
54.8686
53.7161
52.4196
51.0089
49.6632
48.2314
46.2055
38.6911
42.5518
49.6304
58.0953
64.3383
66.3941
65.2369
62.7787
60.1696
57.884
56.2621
55.4469
55.2408
55.3971
55.7367
56.2083
56.76
57.4096
58.1187
58.9317
59.8005
60.7973
61.8507
63.0707
64.3458
65.8439
67.3881
69.2365
71.1066
73.3995
75.6668
78.5399
81.3078
84.9661
88.3992
93.1742
97.5891
104.108
110.255
119.785
128.834
142.655
155.109
172.961
185.847
202.515
210.083
226.124
239.004
263.591
282.454
264.344
291.405
221.116
169.34
159.405
168.774
163.943
159.325
145.983
138.09
126.963
120.658
112.32
107.465
101.353
97.938
93.9779
91.8543
89.1689
87.5514
85.5294
84.0836
82.2041
80.4632
78.2737
76.0425
73.5776
71.2528
69.0656
67.2011
65.6315
64.3469
63.2982
62.3601
61.5381
60.6717
59.8711
58.9441
58.0866
57.0491
56.083
54.9124
53.77
52.4832
51.0816
49.746
48.3171
46.2817
38.7049
42.6032
49.7387
58.2529
64.5076
66.5329
65.3216
62.8089
60.1593
57.8482
56.2126
55.3937
55.1897
55.3503
55.6944
56.1699
56.7249
57.3769
58.0879
58.9022
59.772
60.7693
61.8229
63.0427
64.3175
65.815
67.3586
69.2059
71.0748
73.366
75.6314
78.5018
81.2667
84.921
88.3492
93.1184
97.526
104.037
110.176
119.702
128.75
142.578
155.048
172.921
185.812
202.469
209.983
226.008
238.879
263.691
282.718
265.012
293.24
223.231
171.064
160.456
169.306
164.144
159.374
145.968
138.05
126.91
120.602
112.265
107.412
101.3
97.8864
93.93
91.812
89.1327
87.5211
85.5057
84.0663
82.1931
80.4569
78.2697
76.0376
73.5695
71.2401
69.0493
67.1831
65.6143
64.3326
63.2883
62.3553
61.5384
60.677
59.8816
58.9597
58.1085
57.0772
56.1194
54.9567
53.8247
52.5477
51.1553
49.8301
48.4042
46.3593
38.7188
42.6547
49.8473
58.4105
64.677
66.672
65.4066
62.8393
60.149
57.8122
56.163
55.3402
55.1383
55.3032
55.6519
56.1313
56.6895
57.3441
58.057
58.8727
59.7434
60.7412
61.795
63.0146
64.2892
65.7861
67.329
69.1752
71.043
73.3324
75.596
78.4637
81.2255
84.8758
88.2993
93.0626
97.4629
103.965
110.096
119.618
128.666
142.502
154.986
172.882
185.778
202.423
209.883
225.891
238.753
263.789
282.981
265.686
295.103
225.39
172.842
161.544
169.854
164.351
159.425
145.953
138.01
126.857
120.545
112.21
107.36
101.248
97.8348
93.882
91.7697
89.0965
87.491
85.482
84.0491
82.1824
80.4508
78.2661
76.033
73.5615
71.2274
69.033
67.165
65.597
64.3184
63.2785
62.3506
61.5389
60.6824
59.8923
58.9756
58.1307
57.1057
56.1563
55.0016
53.8802
52.6131
51.2302
49.9156
48.4927
46.4381
38.7328
42.7064
49.9561
58.5683
64.8466
66.8114
65.492
62.87
60.1388
57.776
56.1131
55.2865
55.0868
55.256
55.6091
56.0925
56.654
57.3111
58.026
58.843
59.7147
60.7129
61.767
62.9865
64.2608
65.757
67.2992
69.1443
71.011
73.2988
75.5605
78.4256
81.1843
84.8305
88.2493
93.0068
97.3998
103.894
110.017
119.534
128.582
142.426
154.925
172.842
185.743
202.377
209.782
225.773
238.625
263.888
283.243
266.367
296.997
227.594
174.675
162.671
170.418
164.564
159.476
145.939
137.969
126.803
120.488
112.156
107.307
101.196
97.7832
93.8341
91.7275
89.0605
87.4609
85.4584
84.032
82.1718
80.445
78.2626
76.0286
73.5536
71.2149
69.0167
67.147
65.5799
64.3042
63.2688
62.3459
61.5395
60.688
59.9032
58.9918
58.1532
57.1346
56.1937
55.0471
53.9363
52.6794
51.3062
50.0024
48.5827
46.5183
38.7469
42.7583
50.065
58.7262
65.0162
66.9511
65.5777
62.9009
60.1286
57.7398
56.063
55.2325
55.035
55.2086
55.5662
56.0536
56.6183
57.278
57.9948
58.8132
59.6858
60.6845
61.7388
62.9581
64.2322
65.7278
67.2694
69.1134
70.979
73.2651
75.525
78.3874
81.1431
84.7852
88.1992
92.9509
97.3366
103.823
109.938
119.451
128.498
142.35
154.864
172.803
185.71
202.332
209.681
225.655
238.495
263.985
283.505
267.055
298.921
229.845
176.566
163.838
170.999
164.783
159.53
145.924
137.928
126.75
120.432
112.101
107.255
101.144
97.7316
93.7863
91.6854
89.0245
87.4309
85.435
84.0152
82.1614
80.4394
78.2595
76.0244
73.546
71.2026
69.0006
67.1291
65.5627
64.29
63.2591
62.3413
61.5402
60.6938
59.9143
59.0081
58.176
57.1638
56.2315
55.0932
53.9933
52.7466
51.3833
50.0906
48.6741
46.5998
38.761
42.8104
50.1741
58.8842
65.186
67.0909
65.6638
62.9321
60.1184
57.7034
56.0127
55.1783
54.9829
55.1609
55.5232
56.0144
56.5825
57.2447
57.9635
58.7832
59.6568
60.656
61.7105
62.9297
64.2035
65.6985
67.2395
69.0824
70.9469
73.2313
75.4894
78.3491
81.1018
84.7399
88.1492
92.895
97.2734
103.751
109.858
119.367
128.414
142.273
154.803
172.765
185.677
202.287
209.58
225.535
238.365
264.082
283.766
267.751
300.877
232.145
178.516
165.048
171.6
165.01
159.585
145.91
137.887
126.697
120.375
112.047
107.203
101.092
97.6802
93.7386
91.6433
88.9887
87.4011
85.4117
83.9985
82.1513
80.434
78.2566
76.0205
73.5386
71.1903
68.9845
67.1111
65.5456
64.2759
63.2495
62.3368
61.541
60.6997
59.9256
59.0247
58.1991
57.1933
56.2698
55.1398
54.051
52.8148
51.4616
50.1802
48.7669
46.6827
38.7753
42.8626
50.2834
59.0423
65.3558
67.231
65.7502
62.9635
60.1082
57.6669
55.9622
55.1238
54.9307
55.1131
55.4799
55.9752
56.5466
57.2113
57.9321
58.7531
59.6276
60.6273
61.6821
62.9011
64.1748
65.6691
67.2094
69.0513
70.9147
73.1974
75.4537
78.3108
81.0605
84.6946
88.0991
92.8391
97.2102
103.68
109.779
119.283
128.33
142.198
154.742
172.727
185.644
202.243
209.479
225.415
238.233
264.179
284.028
268.456
302.865
234.495
180.529
166.304
172.221
165.245
159.643
145.897
137.846
126.643
120.319
111.992
107.151
101.041
97.6289
93.691
91.6015
88.9531
87.3715
85.3887
83.982
82.1414
80.429
78.2541
76.0169
73.5314
71.1783
68.9685
67.0933
65.5285
64.2618
63.24
62.3325
61.542
60.7058
59.9371
59.0415
58.2225
57.2233
56.3086
55.187
54.1094
52.8839
51.541
50.2712
48.8612
46.767
38.7896
42.915
50.3928
59.2003
65.5256
67.3713
65.8369
62.9951
60.0981
57.6302
55.9115
55.0691
54.8782
55.0651
55.4365
55.9358
56.5104
57.1777
57.9005
58.7228
59.5983
60.5985
61.6536
62.8725
64.1458
65.6396
67.1793
69.0201
70.8825
73.1634
75.418
78.2724
81.0191
84.6492
88.049
92.7832
97.147
103.608
109.699
119.199
128.246
142.122
154.682
172.69
185.612
202.2
209.378
225.294
238.1
264.275
284.291
269.169
304.885
236.896
182.606
167.607
172.864
165.489
159.704
145.885
137.806
126.59
120.263
111.939
107.1
100.99
97.5779
93.6437
91.5599
88.9177
87.3421
85.3659
83.9658
82.1318
80.4243
78.2518
76.0136
73.5245
71.1663
68.9527
67.0754
65.5114
64.2477
63.2305
62.3282
61.543
60.712
59.9487
59.0585
58.2461
57.2535
56.3477
55.2347
54.1685
52.9538
51.6216
50.3636
48.957
46.8527
38.804
42.9675
50.5023
59.3585
65.6955
67.5117
65.9239
63.027
60.0881
57.5935
55.8606
55.0142
54.8256
55.0169
55.3929
55.8962
56.4742
57.144
57.8687
58.6925
59.5689
60.5696
61.6249
62.8437
64.1168
65.6099
67.1491
68.9888
70.8501
73.1294
75.3822
78.234
80.9777
84.6038
87.9989
92.7273
97.0838
103.537
109.619
119.115
128.162
142.046
154.622
172.653
185.581
202.157
209.277
225.173
237.967
264.372
284.554
269.891
306.94
239.351
184.751
168.96
173.53
165.743
159.769
145.874
137.766
126.538
120.208
111.885
107.048
100.939
97.5272
93.5966
91.5184
88.8826
87.313
85.3433
83.9498
82.1225
80.4199
78.2499
76.0106
73.5178
71.1546
68.9369
67.0577
65.4944
64.2337
63.2211
62.324
61.5443
60.7184
59.9606
59.0758
58.2701
57.2841
56.3874
55.283
54.2284
53.0247
51.7032
50.4575
49.0543
46.9399
38.8185
43.0202
50.612
59.5166
65.8654
67.6523
66.0112
63.0591
60.0781
57.5567
55.8095
54.9591
54.7727
54.9685
55.3491
55.8564
56.4378
57.1102
57.8369
58.662
59.5394
60.5405
61.5961
62.8147
64.0877
65.5802
67.1187
68.9574
70.8176
73.0953
75.3463
78.1955
80.9362
84.5583
87.9488
92.6713
97.0205
103.465
109.54
119.031
128.078
141.971
154.563
172.616
185.551
202.115
209.176
225.051
237.832
264.469
284.818
270.624
309.029
241.861
186.966
170.365
174.22
166.006
159.837
145.864
137.726
126.486
120.153
111.833
106.998
100.888
97.4768
93.5498
91.4773
88.8478
87.2842
85.3211
83.9342
82.1136
80.4158
78.2484
76.0079
73.5113
71.143
68.9213
67.04
65.4774
64.2198
63.2118
62.3199
61.5456
60.7249
59.9726
59.0933
58.2943
57.3151
56.4275
55.3319
54.289
53.0965
51.7861
50.5527
49.153
47.0284
38.8331
43.0731
50.7217
59.6747
66.0353
67.7931
66.0988
63.0915
60.0681
57.5197
55.7582
54.9038
54.7196
54.9199
55.3052
55.8165
56.4012
57.0762
57.8048
58.6313
59.5097
60.5113
61.5672
62.7857
64.0584
65.5503
67.0882
68.9258
70.7851