/*--------------------------------*- C++ -*----------------------------------*\
| =========                 |                                                 |
| \\      /  F ield         | OpenFOAM: The Open Source CFD Toolbox           |
|  \\    /   O peration     | Version:  2412                                  |
|   \\  /    A nd           | Website:  www.openfoam.com                      |
|    \\/     M anipulation  |                                                 |
\*---------------------------------------------------------------------------*/
FoamFile
{
    version     2.0;
    format      ascii;
    arch        "LSB;label=32;scalar=64";
    class       volScalarField;
    location    "0.4";
    object      nut;
}
// * * * * * * * * * * * * * * * * * * * * * * * * * * * * * * * * * * * * * //

dimensions      [0 2 -1 0 0 0 0];

internalField   nonuniform List<scalar> 
12960
(
0.341704
0.358522
0.378205
0.388469
0.384105
0.369252
0.352319
0.339665
0.333583
0.333794
0.338461
0.34476
0.350268
0.354179
0.356702
0.358441
0.359734
0.360907
0.361969
0.363112
0.364205
0.365465
0.366662
0.3681
0.369427
0.371093
0.372564
0.374508
0.376126
0.378418
0.380198
0.38295
0.384924
0.388278
0.390481
0.394632
0.397207
0.402515
0.405758
0.412488
0.416127
0.423653
0.426651
0.43362
0.433739
0.438333
0.435812
0.44321
0.445904
0.452309
0.452437
0.425178
0.426872
0.346614
0.317359
0.359965
0.397012
0.398486
0.397685
0.386963
0.386208
0.379158
0.379467
0.37429
0.374875
0.371454
0.37267
0.370824
0.371702
0.369989
0.370188
0.368704
0.368206
0.366288
0.364793
0.362362
0.360343
0.358207
0.356841
0.3558
0.3553
0.354988
0.354786
0.354554
0.354083
0.353526
0.35261
0.351719
0.350428
0.349246
0.347608
0.346083
0.344111
0.342134
0.339957
0.337638
0.335799
0.334323
0.331849
0.341763
0.358693
0.378417
0.38859
0.384036
0.368948
0.351811
0.339049
0.332975
0.333286
0.338102
0.344549
0.350164
0.354135
0.356686
0.358435
0.359729
0.360901
0.361961
0.363102
0.364193
0.36545
0.366645
0.368082
0.369408
0.371072
0.372542
0.374485
0.376101
0.378391
0.38017
0.382919
0.384891
0.388242
0.390443
0.394591
0.397164
0.402471
0.405716
0.412453
0.4161
0.423637
0.426646
0.433622
0.433731
0.438309
0.435757
0.443186
0.445909
0.452441
0.452624
0.425625
0.427714
0.347699
0.31775
0.359928
0.397015
0.398449
0.397637
0.386912
0.386168
0.379119
0.379435
0.374262
0.374852
0.37143
0.37265
0.370811
0.371696
0.369985
0.370188
0.368708
0.368215
0.366298
0.3648
0.362363
0.360335
0.358192
0.356822
0.355782
0.355288
0.354984
0.35479
0.354565
0.354099
0.353546
0.352633
0.351745
0.350459
0.349283
0.347651
0.346137
0.344173
0.342206
0.340039
0.337722
0.335887
0.334399
0.331887
0.341822
0.358863
0.378626
0.388708
0.383965
0.368643
0.351302
0.33843
0.332363
0.332773
0.33774
0.344336
0.350059
0.354091
0.35667
0.358429
0.359725
0.360895
0.361953
0.363091
0.36418
0.365436
0.366629
0.368064
0.369389
0.371052
0.37252
0.374462
0.376077
0.378365
0.380141
0.382888
0.384858
0.388206
0.390404
0.39455
0.39712
0.402427
0.405674
0.412418
0.416072
0.423621
0.42664
0.433625
0.433724
0.438284
0.4357
0.443161
0.445913
0.452573
0.452811
0.426071
0.428557
0.348776
0.318122
0.359868
0.397008
0.398412
0.397593
0.386865
0.386131
0.379082
0.379404
0.374236
0.374829
0.371407
0.372631
0.370798
0.371689
0.369982
0.370188
0.368713
0.368223
0.366308
0.364807
0.362364
0.360328
0.358176
0.356803
0.355764
0.355275
0.354979
0.354794
0.354576
0.354115
0.353566
0.352655
0.351772
0.350489
0.349321
0.347695
0.34619
0.344235
0.342279
0.340121
0.337807
0.335976
0.334476
0.331925
0.34188
0.359031
0.378832
0.388822
0.383891
0.368335
0.35079
0.337808
0.331746
0.332256
0.337374
0.34412
0.349952
0.354046
0.356653
0.358422
0.35972
0.360889
0.361944
0.363081
0.364167
0.365421
0.366613
0.368046
0.369369
0.371031
0.372498
0.374438
0.376052
0.378338
0.380113
0.382857
0.384824
0.38817
0.390365
0.394509
0.397076
0.402382
0.405631
0.412383
0.416044
0.423604
0.426634
0.433627
0.433715
0.438258
0.435642
0.443135
0.445916
0.452705
0.452997
0.426516
0.4294
0.349845
0.318474
0.359783
0.396991
0.398373
0.397551
0.386822
0.386096
0.379048
0.379375
0.374211
0.374807
0.371385
0.372611
0.370785
0.371683
0.369979
0.370188
0.368718
0.368232
0.366318
0.364815
0.362366
0.36032
0.358161
0.356783
0.355745
0.355262
0.354975
0.354798
0.354587
0.354132
0.353586
0.352679
0.351799
0.350521
0.349359
0.34774
0.346245
0.344298
0.342354
0.340204
0.337894
0.336066
0.334554
0.331964
0.341939
0.359199
0.379035
0.388933
0.383814
0.368025
0.350275
0.337182
0.331124
0.331733
0.337004
0.343902
0.349844
0.354001
0.356636
0.358415
0.359715
0.360883
0.361936
0.36307
0.364154
0.365406
0.366596
0.368028
0.36935
0.37101
0.372476
0.374414
0.376027
0.378311
0.380084
0.382826
0.384791
0.388134
0.390326
0.394467
0.397031
0.402336
0.405588
0.412346
0.416015
0.423587
0.426628
0.433629
0.433706
0.438231
0.435582
0.443107
0.445916
0.452836
0.453182
0.426958
0.430243
0.350906
0.318806
0.35967
0.39696
0.398331
0.397512
0.386783
0.386065
0.379015
0.379347
0.374187
0.374786
0.371362
0.372592
0.370773
0.371677
0.369976
0.370188
0.368723
0.368241
0.366329
0.364822
0.362367
0.360313
0.358146
0.356763
0.355726
0.355249
0.35497
0.354802
0.354598
0.354148
0.353606
0.352702
0.351826
0.350552
0.349398
0.347784
0.3463
0.344362
0.342429
0.340289
0.337981
0.336157
0.334632
0.332002
0.341998
0.359366
0.379236
0.389041
0.383733
0.367712
0.349758
0.336553
0.330498
0.331206
0.33663
0.343682
0.349736
0.353955
0.356619
0.358408
0.35971
0.360876
0.361927
0.363059
0.364141
0.365391
0.366579
0.368009
0.36933
0.370989
0.372454
0.37439
0.376001
0.378284
0.380054
0.382794
0.384756
0.388096
0.390286
0.394425
0.396985
0.40229
0.405543
0.412309
0.415986
0.423569
0.426621
0.433629
0.433696
0.438202
0.435521
0.443077
0.445915
0.452965
0.453365
0.427399
0.431086
0.351959
0.319117
0.359528
0.396915
0.398284
0.397475
0.386747
0.386037
0.378984
0.37932
0.374164
0.374765
0.371341
0.372573
0.37076
0.371672
0.369973
0.370189
0.368729
0.36825
0.36634
0.36483
0.362369
0.360306
0.358131
0.356743
0.355707
0.355236
0.354965
0.354806
0.354609
0.354164
0.353627
0.352725
0.351854
0.350584
0.349436
0.34783
0.346356
0.344427
0.342505
0.340375
0.33807
0.33625
0.334712
0.332041
0.342057
0.359532
0.379433
0.389144
0.383649
0.367396
0.349238
0.33592
0.329867
0.330675
0.336253
0.343459
0.349626
0.353909
0.356602
0.358401
0.359705
0.36087
0.361919
0.363047
0.364128
0.365375
0.366562
0.36799
0.36931
0.370967
0.372431
0.374366
0.375975
0.378256
0.380024
0.382762
0.384721
0.388059
0.390245
0.394382
0.396938
0.402243
0.405498
0.412271
0.415955
0.42355
0.426612
0.433629
0.433684
0.438172
0.435457
0.443045
0.445911
0.453094
0.453546
0.427839
0.431929
0.353003
0.319405
0.359355
0.396853
0.398233
0.397439
0.386715
0.386011
0.378955
0.379294
0.374142
0.374746
0.371319
0.372555
0.370748
0.371666
0.36997
0.37019
0.368734
0.36826
0.366351
0.364838
0.36237
0.360299
0.358115
0.356723
0.355688
0.355223
0.354961
0.35481
0.354621
0.354181
0.353647
0.352749
0.351882
0.350616
0.349476
0.347876
0.346412
0.344492
0.342583
0.340462
0.33816
0.336344
0.334792
0.332079
0.342116
0.359697
0.379628
0.389244
0.383562
0.367078
0.348715
0.335283
0.329232
0.330138
0.335872
0.343234
0.349516
0.353863
0.356585
0.358394
0.3597
0.360863
0.36191
0.363036
0.364114
0.365359
0.366544
0.367971
0.369289
0.370945
0.372407
0.374341
0.375949
0.378227
0.379994
0.382729
0.384686
0.388021
0.390204
0.394338
0.396891
0.402195
0.405452
0.412232
0.415924
0.42353
0.426604
0.433628
0.433672
0.438141
0.435392
0.443012
0.445905
0.453222
0.453726
0.428276
0.432771
0.354038
0.31967
0.359147
0.396773
0.398175
0.397404
0.386685
0.385987
0.378927
0.37927
0.37412
0.374726
0.371298
0.372536
0.370735
0.371661
0.369967
0.370191
0.368739
0.368269
0.366361
0.364846
0.362372
0.360292
0.3581
0.356702
0.355669
0.355209
0.354956
0.354814
0.354632
0.354198
0.353668
0.352773
0.35191
0.350648
0.349515
0.347922
0.346469
0.344558
0.342661
0.34055
0.338252
0.336439
0.334873
0.332118
0.342174
0.359861
0.37982
0.38934
0.383471
0.366757
0.34819
0.334643
0.328591
0.329597
0.335487
0.343008
0.349404
0.353816
0.356567
0.358387
0.359694
0.360856
0.3619
0.363024
0.3641
0.365343
0.366526
0.367951
0.369268
0.370923
0.372384
0.374316
0.375922
0.378199
0.379963
0.382696
0.38465
0.387982
0.390162
0.394293
0.396844
0.402147
0.405405
0.412192
0.415891
0.423509
0.426594
0.433626
0.433658
0.438108
0.435325
0.442977
0.445898
0.453349
0.453904
0.428713
0.433612
0.355065
0.319912
0.358902
0.396671
0.39811
0.397369
0.386657
0.385967
0.378901
0.379247
0.3741
0.374708
0.371277
0.372518
0.370723
0.371655
0.369965
0.370192
0.368745
0.368279
0.366373
0.364854
0.362374
0.360285
0.358084
0.356682
0.35565
0.355196
0.354951
0.354818
0.354644
0.354215
0.353689
0.352797
0.351938
0.350681
0.349556
0.347969
0.346527
0.344625
0.34274
0.340639
0.338344
0.336536
0.334955
0.332157
0.342233
0.360024
0.380008
0.389432
0.383377
0.366434
0.347662
0.333999
0.327946
0.32905
0.335099
0.342778
0.349291
0.353768
0.356549
0.358379
0.359689
0.360849
0.361891
0.363012
0.364086
0.365327
0.366508
0.367931
0.369247
0.3709
0.37236
0.37429
0.375895
0.37817
0.379932
0.382662
0.384614
0.387943
0.390119
0.394249
0.396795
0.402097
0.405357
0.412152
0.415858
0.423488
0.426584
0.433624
0.433643
0.438074
0.435256
0.442941
0.445888
0.453474
0.45408
0.429147
0.434453
0.356083
0.320129
0.358617
0.396546
0.398036
0.397334
0.386632
0.385948
0.378877
0.379225
0.37408
0.37469
0.371257
0.3725
0.370711
0.37165
0.369963
0.370193
0.368751
0.368289
0.366384
0.364862
0.362377
0.360277
0.358068
0.356661
0.35563
0.355182
0.354946
0.354822
0.354656
0.354232
0.353711
0.352821
0.351967
0.350714
0.349596
0.348016
0.346585
0.344693
0.342821
0.340729
0.338439
0.336634
0.335039
0.332196
0.342292
0.360185
0.380194
0.389521
0.38328
0.366108
0.347131
0.333352
0.327297
0.328499
0.334706
0.342547
0.349177
0.353721
0.356531
0.358371
0.359683
0.360842
0.361881
0.363
0.364071
0.36531
0.36649
0.367911
0.369226
0.370877
0.372336
0.374264
0.375868
0.37814
0.379901
0.382628
0.384577
0.387903
0.390077
0.394203
0.396746
0.402048
0.405309
0.412111
0.415825
0.423466
0.426573
0.433621
0.433627
0.438039
0.435186
0.442902
0.445877
0.453599
0.454255
0.42958
0.435293
0.357092
0.320321
0.358291
0.396395
0.397952
0.397298
0.386609
0.385932
0.378855
0.379204
0.374062
0.374673
0.371237
0.372482
0.370699
0.371645
0.369961
0.370195
0.368757
0.368298
0.366395
0.364871
0.362379
0.36027
0.358053
0.35664
0.35561
0.355168
0.354941
0.354826
0.354668
0.35425
0.353732
0.352846
0.351995
0.350747
0.349637
0.348064
0.346644
0.344762
0.342902
0.340821
0.338534
0.336734
0.335123
0.332236
0.34235
0.360346
0.380377
0.389606
0.38318
0.365779
0.346598
0.332701
0.326642
0.327944
0.33431
0.342313
0.349062
0.353672
0.356513
0.358363
0.359677
0.360834
0.361871
0.362987
0.364056
0.365293
0.366471
0.367891
0.369204
0.370854
0.372311
0.374238
0.37584
0.37811
0.379869
0.382594
0.38454
0.387863
0.390033
0.394157
0.396697
0.401997
0.40526
0.412069
0.41579
0.423443
0.426561
0.433617
0.433611
0.438002
0.435113
0.442863
0.445864
0.453722
0.454429
0.430012
0.436132
0.358092
0.320487
0.357919
0.396216
0.397857
0.39726
0.386588
0.385918
0.378833
0.379184
0.374044
0.374656
0.371218
0.372464
0.370688
0.371641
0.36996
0.370197
0.368764
0.368308
0.366407
0.364879
0.362381
0.360264
0.358037
0.356619
0.35559
0.355154
0.354936
0.354831
0.35468
0.354267
0.353754
0.352871
0.352025
0.350781
0.349679
0.348113
0.346704
0.344831
0.342985
0.340914
0.338631
0.336835
0.335208
0.332276
0.342409
0.360505
0.380556
0.389687
0.383076
0.365449
0.346063
0.332046
0.325983
0.327383
0.33391
0.342078
0.348947
0.353624
0.356494
0.358355
0.35967
0.360826
0.361861
0.362974
0.364041
0.365276
0.366452
0.36787
0.369182
0.37083
0.372286
0.374212
0.375812
0.37808
0.379837
0.382559
0.384502
0.387823
0.389989
0.394111
0.396646
0.401946
0.40521
0.412026
0.415755
0.42342
0.426549
0.433613
0.433593
0.437964
0.43504
0.442821
0.445849
0.453845
0.4546
0.430442
0.436969
0.359083
0.320626
0.357501
0.396006
0.397749
0.397221
0.386569
0.385905
0.378814
0.379166
0.374028
0.37464
0.371198
0.372447
0.370677
0.371636
0.369958
0.370199
0.36877
0.368319
0.366419
0.364889
0.362384
0.360257
0.358021
0.356598
0.35557
0.35514
0.354931
0.354835
0.354692
0.354285
0.353776
0.352896
0.352054
0.350815
0.349721
0.348162
0.346765
0.344902
0.343069
0.341009
0.33873
0.336937
0.335295
0.332316
0.342467
0.360663
0.380732
0.389764
0.382969
0.365116
0.345526
0.331389
0.32532
0.326817
0.333506
0.341839
0.34883
0.353574
0.356475
0.358347
0.359664
0.360818
0.361851
0.362961
0.364026
0.365258
0.366433
0.367849
0.36916
0.370806
0.372261
0.374185
0.375784
0.37805
0.379804
0.382524
0.384464
0.387782
0.389945
0.394064
0.396596
0.401894
0.405159
0.411983
0.41572
0.423396
0.426536
0.433608
0.433574
0.437925
0.434964
0.442779
0.445832
0.453966
0.45477
0.430872
0.437805
0.360064
0.320737
0.357032
0.395763
0.397627
0.397178
0.38655
0.385895
0.378796
0.379149
0.374012
0.374625
0.37118
0.37243
0.370665
0.371632
0.369957
0.370201
0.368777
0.368329
0.366431
0.364898
0.362387
0.36025
0.358005
0.356577
0.355549
0.355126
0.354926
0.354839
0.354705
0.354303
0.353798
0.352921
0.352084
0.35085
0.349763
0.348212
0.346826
0.344974
0.343154
0.341105
0.33883
0.337042
0.335382
0.332356
0.342526
0.360819
0.380905
0.389837
0.38286
0.364781
0.344986
0.330728
0.324652
0.326246
0.333098
0.341599
0.348712
0.353525
0.356456
0.358339
0.359657
0.36081
0.36184
0.362948
0.36401
0.365241
0.366413
0.367828
0.369137
0.370782
0.372236
0.374158
0.375755
0.378019
0.379771
0.382488
0.384426
0.38774
0.389901
0.394016
0.396545
0.401842
0.405108
0.411939
0.415683
0.423371
0.426523
0.433602
0.433555
0.437885
0.434887
0.442735
0.445814
0.454087
0.454939
0.4313
0.438639
0.361035
0.32082
0.35651
0.395484
0.39749
0.397132
0.386533
0.385886
0.378779
0.379132
0.373997
0.374611
0.371162
0.372413
0.370655
0.371628
0.369956
0.370204
0.368784
0.36834
0.366444
0.364907
0.36239
0.360243
0.357989
0.356555
0.355529
0.355112
0.354921
0.354844
0.354717
0.354322
0.353821
0.352947
0.352114
0.350885
0.349806
0.348263
0.346889
0.345046
0.34324
0.341202
0.338931
0.337148
0.335471
0.332397
0.342584
0.360975
0.381075
0.389907
0.382747
0.364444
0.344445
0.330064
0.323979
0.325671
0.332686
0.341356
0.348592
0.353475
0.356437
0.35833
0.359651
0.360802
0.361829
0.362935
0.363995
0.365223
0.366394
0.367807
0.369114
0.370758
0.37221
0.374131
0.375727
0.377988
0.379738
0.382453
0.384387
0.387699
0.389856
0.393969
0.396493
0.401789
0.405057
0.411895
0.415647
0.423346
0.426509
0.433596
0.433535
0.437844
0.434809
0.442689
0.445794
0.454206
0.455106
0.431728
0.439472
0.361996
0.320873
0.355932
0.395165
0.397335
0.397082
0.386516
0.385879
0.378763
0.379117
0.373984
0.374598
0.371144
0.372397
0.370644
0.371625
0.369956
0.370206
0.368791
0.368351
0.366456
0.364917
0.362394
0.360237
0.357973
0.356534
0.355509
0.355097
0.354916
0.354849
0.35473
0.35434
0.353843
0.352973
0.352145
0.35092
0.34985
0.348314
0.346952
0.345119
0.343327
0.341301
0.339034
0.337255
0.335561
0.332438
0.342642
0.361128
0.381241
0.389972
0.382631
0.364105
0.343901
0.329397
0.323302
0.32509
0.33227
0.34111
0.348472
0.353424
0.356418
0.358322
0.359644
0.360794
0.361819
0.362921
0.363979
0.365205
0.366374
0.367785
0.369091
0.370733
0.372184
0.374103
0.375698
0.377957
0.379705
0.382417
0.384348
0.387657
0.38981
0.39392
0.396441
0.401736
0.405004
0.41185
0.415609
0.423321
0.426495
0.433589
0.433514
0.437802
0.434729
0.442642
0.445773
0.454325
0.455272
0.432155
0.440302
0.362946
0.320896
0.355296
0.394804
0.397161
0.397027
0.386499
0.385873
0.378749
0.379103
0.373971
0.374585
0.371126
0.37238
0.370634
0.371621
0.369955
0.370209
0.368799
0.368362
0.366469
0.364927
0.362397
0.360231
0.357958
0.356512
0.355488
0.355083
0.354911
0.354853
0.354743
0.354359
0.353866
0.352999
0.352176
0.350956
0.349894
0.348365
0.347016
0.345194
0.343416
0.341401
0.339139
0.337365
0.335652
0.33248
0.3427
0.361281
0.381404
0.390034
0.382513
0.363764
0.343356
0.328727
0.322621
0.324505
0.33185
0.340863
0.348351
0.353374
0.356398
0.358313
0.359637
0.360785
0.361808
0.362908
0.363963
0.365186
0.366354
0.367763
0.369068
0.370708
0.372158
0.374075
0.375668
0.377926
0.379671
0.38238
0.384309
0.387615
0.389765
0.393872
0.396389
0.401682
0.404952
0.411805
0.415572
0.423295
0.426481
0.433582
0.433492
0.437759
0.434647
0.442594
0.44575
0.454442
0.455436
0.432581
0.441131
0.363885
0.320887
0.354598
0.394398
0.396966
0.396966
0.386481
0.385868
0.378736
0.37909
0.373959
0.374572
0.371109
0.372364
0.370623
0.371618
0.369955
0.370213
0.368806
0.368374
0.366483
0.364938
0.362401
0.360224
0.357942
0.356491
0.355467
0.355068
0.354906
0.354858
0.354756
0.354378
0.35389
0.353026
0.352207
0.350992
0.349938
0.348418
0.34708
0.345269
0.343506
0.341502
0.339245
0.337476
0.335745
0.332522
0.342758
0.361432
0.381564
0.390092
0.382391
0.363421
0.342809
0.328054
0.321935
0.323914
0.331426
0.340612
0.348228
0.353322
0.356379
0.358304
0.35963
0.360776
0.361796
0.362894
0.363947
0.365168
0.366334
0.367741
0.369045
0.370683
0.372132
0.374047
0.375639
0.377894
0.379638
0.382344
0.38427
0.387572
0.389719
0.393823
0.396336
0.401628
0.404899
0.411759
0.415534
0.423269
0.426466
0.433575
0.43347
0.437715
0.434565
0.442544
0.445725
0.454559
0.455599
0.433007
0.441956
0.364811
0.320847
0.353837
0.393943
0.396749
0.396898
0.386463
0.385864
0.378724
0.379078
0.373948
0.374561
0.371093
0.372348
0.370614
0.371616
0.369955
0.370217
0.368814
0.368385
0.366496
0.364948
0.362405
0.360218
0.357926
0.356469
0.355446
0.355054
0.354901
0.354863
0.35477
0.354397
0.353913
0.353053
0.352239
0.351029
0.349984
0.348471
0.347146
0.345346
0.343597
0.341605
0.339354
0.337589
0.335839
0.332564
0.342816
0.361581
0.38172
0.390147
0.382267
0.363077
0.342261
0.327378
0.321244
0.323319
0.330998
0.34036
0.348105
0.353271
0.356359
0.358295
0.359623
0.360767
0.361785
0.36288
0.36393
0.365149
0.366313
0.367719
0.369021
0.370658
0.372106
0.374019
0.375609
0.377862
0.379604
0.382307
0.38423
0.38753
0.389673
0.393774
0.396283
0.401573
0.404845
0.411713
0.415495
0.423242
0.426451
0.433567
0.433447
0.43767
0.434481
0.442493
0.4457
0.454675
0.45576
0.433433
0.442779
0.365726
0.320774
0.353009
0.393435
0.396507
0.396822
0.386444
0.385861
0.378712
0.379067
0.373937
0.37455
0.371077
0.372333
0.370604
0.371613
0.369956
0.370221
0.368823
0.368397
0.36651
0.364959
0.36241
0.360213
0.35791
0.356447
0.355426
0.355039
0.354896
0.354868
0.354783
0.354416
0.353937
0.35308
0.352271
0.351066
0.350029
0.348525
0.347212
0.345423
0.34369
0.34171
0.339463
0.337704
0.335934
0.332607
0.342874
0.361729
0.381873
0.390198
0.38214
0.36273
0.341711
0.3267
0.32055
0.322719
0.330566
0.340105
0.34798
0.353218
0.356339
0.358285
0.359615
0.360758
0.361774
0.362865
0.363914
0.36513
0.366293
0.367697
0.368998
0.370633
0.372079
0.373991
0.375579
0.37783
0.37957
0.38227
0.38419
0.387487
0.389626
0.393725
0.396229
0.401518
0.404791
0.411666
0.415456
0.423215
0.426435
0.433559
0.433424
0.437624
0.434396
0.442441
0.445673
0.45479
0.455921
0.433859
0.443599
0.366626
0.320668
0.352111
0.392872
0.396237
0.396737
0.386423
0.385858
0.378702
0.379057
0.373928
0.37454
0.371061
0.372318
0.370595
0.371611
0.369957
0.370225
0.368831
0.368409
0.366524
0.364971
0.362415
0.360207
0.357894
0.356426
0.355405
0.355024
0.354892
0.354873
0.354797
0.354436
0.353961
0.353107
0.352303
0.351104
0.350076
0.348579
0.34728
0.345502
0.343784
0.341816
0.339575
0.33782
0.336031
0.332651
0.342931
0.361875
0.382022
0.390244
0.38201
0.362383
0.341159
0.326019
0.319851
0.322113
0.33013
0.339847
0.347854
0.353166
0.356318
0.358276
0.359608
0.360749
0.361762
0.362851
0.363897
0.365111
0.366272
0.367674
0.368974
0.370607
0.372053
0.373962
0.375549
0.377798
0.379535
0.382233
0.38415
0.387443
0.38958
0.393675
0.396176
0.401463
0.404737
0.411619
0.415417
0.423187
0.42642
0.433551
0.4334
0.437578
0.434309
0.442388
0.445645
0.454905
0.45608
0.434284
0.444415
0.367513
0.320527
0.351142
0.392249
0.395939
0.396642
0.3864
0.385855
0.378692
0.379047
0.373919
0.37453
0.371046
0.372303
0.370585
0.371609
0.369958
0.370229
0.36884
0.368422
0.366539
0.364982
0.36242
0.360201
0.357879
0.356404
0.355384
0.35501
0.354887
0.354879
0.354811
0.354456
0.353985
0.353135
0.352336
0.351142
0.350122
0.348634
0.347348
0.345582
0.343879
0.341924
0.339688
0.337939
0.336129
0.332695
0.342988
0.362019
0.382168
0.390288
0.381877
0.362033
0.340607
0.325335
0.319148
0.321503
0.329689
0.339587
0.347727
0.353113
0.356298
0.358267
0.3596
0.36074
0.36175
0.362837
0.36388
0.365092
0.366251
0.367651
0.36895
0.370582
0.372026
0.373934
0.375519
0.377765
0.379501
0.382196
0.38411
0.3874
0.389533
0.393625
0.396122
0.401408
0.404682
0.411572
0.415378
0.42316
0.426404
0.433542
0.433376
0.437531
0.434222
0.442334
0.445616
0.455019
0.456238
0.43471
0.445228
0.368385
0.320352
0.350098
0.391563
0.395608
0.396537
0.386375
0.385853
0.378683
0.379038
0.373911
0.374521
0.37103
0.372288
0.370577
0.371607
0.36996
0.370234
0.368849
0.368434
0.366553
0.364994
0.362425
0.360196
0.357863
0.356382
0.355362
0.354995
0.354882
0.354884
0.354825
0.354476
0.35401
0.353163
0.352369
0.35118
0.35017
0.34869
0.347417
0.345662
0.343976
0.342034
0.339804
0.33806
0.336229
0.33274
0.343045
0.362162
0.38231
0.390327
0.381742
0.361683
0.340053
0.324649
0.31844
0.320888
0.329244
0.339324
0.347599
0.353059
0.356277
0.358257
0.359592
0.360731
0.361738
0.362822
0.363863
0.365073
0.36623
0.367629
0.368925
0.370556
0.371999
0.373905
0.375489
0.377733
0.379466
0.382158
0.38407
0.387357
0.389486
0.393575
0.396067
0.401352
0.404627
0.411524
0.415338
0.423132
0.426388
0.433534
0.433352
0.437483
0.434133
0.442279
0.445586
0.455132
0.456395
0.435136
0.446037
0.369241
0.32014
0.348977
0.39081
0.395244
0.396419
0.386346
0.38585
0.378675
0.37903
0.373904
0.374512
0.371016
0.372273
0.370568
0.371605
0.369961
0.370239
0.368858
0.368447
0.366568
0.365007
0.36243
0.36019
0.357847
0.35636
0.355341
0.35498
0.354877
0.35489
0.354839
0.354497
0.354035
0.353192
0.352402
0.351219
0.350218
0.348746
0.347487
0.345744
0.344074
0.342145
0.339921
0.338183
0.33633
0.332785
0.343102
0.362303
0.382449
0.390363
0.381604
0.361331
0.339497
0.323961
0.317729
0.320268
0.328795
0.339059
0.34747
0.353005
0.356256
0.358247
0.359584
0.360721
0.361726
0.362807
0.363846
0.365054
0.366209
0.367606
0.368901
0.37053
0.371971
0.373876
0.375459
0.3777
0.379431
0.382121
0.384029
0.387313
0.389439
0.393525
0.396013
0.401296
0.404572
0.411477
0.415298
0.423104
0.426372
0.433525
0.433327
0.437434
0.434044
0.442223
0.445555
0.455244
0.456552
0.435563
0.446841
0.370079
0.319892
0.347778
0.389985
0.394843
0.396288
0.386314
0.385847
0.378667
0.379023
0.373897
0.374504
0.371001
0.372259
0.37056
0.371604
0.369963
0.370244
0.368868
0.368461
0.366584
0.365019
0.362436
0.360185
0.357832
0.356338
0.35532
0.354965
0.354872
0.354896
0.354854
0.354517
0.35406
0.35322
0.352436
0.351258
0.350266
0.348804
0.347558
0.345827
0.344173
0.342257
0.34004
0.338307
0.336433
0.332831
0.343159
0.362443
0.382584
0.390395
0.381463
0.360977
0.338941
0.32327
0.317014
0.319643
0.328342
0.338791
0.347339
0.352951
0.356235
0.358238
0.359577
0.360712
0.361714
0.362792
0.363829
0.365034
0.366187
0.367582
0.368877
0.370504
0.371944
0.373847
0.375428
0.377668
0.379396
0.382083
0.383989
0.387269
0.389391
0.393474
0.395958
0.401239
0.404517
0.411429
0.415258
0.423076
0.426356
0.433516
0.433301
0.437385
0.433953
0.442166
0.445524
0.455356
0.456707
0.43599
0.447641
0.3709
0.319607
0.346498
0.389086
0.394402
0.396142
0.386277
0.385843
0.378659
0.379016
0.373891
0.374497
0.370987
0.372245
0.370551
0.371603
0.369966
0.37025
0.368878
0.368474
0.366599
0.365032
0.362442
0.36018
0.357816
0.356316
0.355299
0.35495
0.354868
0.354901
0.354869
0.354538
0.354086
0.353249
0.35247
0.351298
0.350315
0.348861
0.347629
0.345911
0.344274
0.342371
0.34016
0.338434
0.336537
0.332878
0.343215
0.36258
0.382716
0.390423
0.38132
0.360623
0.338384
0.322577
0.316294
0.319013
0.327885
0.33852
0.347208
0.352896
0.356214
0.358228
0.359568
0.360702
0.361702
0.362777
0.363811
0.365014
0.366166
0.367559
0.368852
0.370478
0.371917
0.373818
0.375398
0.377635
0.379361
0.382045
0.383948
0.387225
0.389344
0.393424
0.395903
0.401182
0.404461
0.41138
0.415218
0.423047
0.426339
0.433507
0.433276
0.437336
0.433861
0.442109
0.445491
0.455467
0.456861
0.436417
0.448435
0.371701
0.319284
0.345135
0.388106
0.393918
0.395979
0.386235
0.385838
0.378652
0.379009
0.373886
0.37449
0.370973
0.372231
0.370543
0.371603
0.369968
0.370256
0.368888
0.368488
0.366615
0.365045
0.362449
0.360175
0.357801
0.356294
0.355277
0.354935
0.354863
0.354907
0.354884
0.354559
0.354111
0.353279
0.352505
0.351338
0.350365
0.34892
0.347702
0.345996
0.344376
0.342487
0.340283
0.338563
0.336643
0.332925
0.343271
0.362716
0.382844
0.390447
0.381175
0.360267
0.337826
0.321882
0.315571
0.318378
0.327423
0.338247
0.347075
0.352841
0.356193
0.358218
0.35956
0.360692
0.361689
0.362762
0.363794
0.364994
0.366144
0.367536
0.368827
0.370451
0.371889
0.373789
0.375367
0.377602
0.379326
0.382007
0.383907
0.387181
0.389296
0.393373
0.395848
0.401126
0.404405
0.411332
0.415177
0.423019
0.426323
0.433497
0.43325
0.437286
0.433769
0.44205
0.445458
0.455577
0.457015
0.436846
0.449224
0.372481
0.318924
0.343688
0.387043
0.393389
0.395799
0.386188
0.385832
0.378644
0.379003
0.373881
0.374483
0.37096
0.372217
0.370536
0.371602
0.369971
0.370262
0.368898
0.368502
0.366632
0.365059
0.362455
0.360171
0.357785
0.356272
0.355256
0.35492
0.354858
0.354913
0.354899
0.354581
0.354137
0.353308
0.35254
0.351379
0.350415
0.348979
0.347776
0.346082
0.34448
0.342605
0.340408
0.338694
0.33675
0.332973
0.343327
0.36285
0.382968
0.390468
0.381027
0.35991
0.337268
0.321185
0.314844
0.317738
0.326957
0.337972
0.346941
0.352785
0.356171
0.358207
0.359552
0.360682
0.361677
0.362747
0.363776
0.364975
0.366123
0.367512
0.368802
0.370425
0.371862
0.373759
0.375336
0.377569
0.379291
0.381969
0.383866
0.387137
0.389248
0.393322
0.395793
0.401068
0.404349
0.411283
0.415137
0.42299
0.426307
0.433488
0.433225
0.437235
0.433676
0.44199
0.445424
0.455687
0.457168
0.437275
0.450006
0.373239
0.318525
0.342156
0.385892
0.39281
0.3956
0.386134
0.385824
0.378636
0.378997
0.373877
0.374477
0.370947
0.372203
0.370528
0.371602
0.369974
0.370268
0.368909
0.368516
0.366648
0.365073
0.362462
0.360166
0.35777
0.35625
0.355234
0.354905
0.354854
0.35492
0.354914
0.354602
0.354164
0.353338
0.352575
0.35142
0.350465
0.349039
0.34785
0.346169
0.344584
0.342724
0.340534
0.338827
0.336859
0.333021
0.343383
0.362982
0.383089
0.390486
0.380877
0.359553
0.336709
0.320487
0.314113
0.317094
0.326487
0.337693
0.346805
0.352729
0.356149
0.358197
0.359544
0.360672
0.361664
0.362731
0.363758
0.364954
0.366101
0.367489
0.368778
0.370398
0.371834
0.37373
0.375305
0.377536
0.379256
0.381931
0.383825
0.387092
0.389201
0.393271
0.395738
0.401011
0.404292
0.411234
0.415096
0.422962
0.426291
0.433479
0.433199
0.437184
0.433582
0.44193
0.44539
0.455797
0.457321
0.437704
0.450782
0.373973
0.318087
0.340538
0.384649
0.39218
0.395379
0.386074
0.385815
0.378628
0.378992
0.373872
0.37447
0.370933
0.372189
0.370521
0.371602
0.369978
0.370275
0.36892
0.36853
0.366665
0.365087
0.362469
0.360162
0.357754
0.356227
0.355213
0.35489
0.354849
0.354926
0.35493
0.354624
0.35419
0.353368
0.35261
0.351461
0.350517
0.349099
0.347925
0.346258
0.344691
0.342845
0.340663
0.338963
0.33697
0.33307
0.343438
0.363112
0.383206
0.3905
0.380724
0.359194
0.336149
0.319787
0.313379
0.316445
0.326012
0.337412
0.346669
0.352672
0.356127
0.358187
0.359535
0.360662
0.361651
0.362716
0.36374
0.364934
0.366079
0.367465
0.368752
0.370372
0.371806
0.373701
0.375274
0.377502
0.379221
0.381893
0.383784
0.387048
0.389153
0.39322
0.395682
0.400954
0.404236
0.411186
0.415055
0.422933
0.426274
0.43347
0.433173
0.437133
0.433487
0.441869
0.445355
0.455906
0.457472
0.438135
0.451551
0.374681
0.317612
0.338833
0.38331
0.391494
0.395136
0.386005
0.385803
0.37862
0.378987
0.373869
0.374465
0.37092
0.372176
0.370514
0.371602
0.369981
0.370282
0.368931
0.368545
0.366682
0.365102
0.362477
0.360157
0.357739
0.356205
0.355191
0.354875
0.354844
0.354932
0.354946
0.354646
0.354217
0.353399
0.352646
0.351503
0.350568
0.349161
0.348001
0.346347
0.344798
0.342968
0.340793
0.3391
0.337083
0.33312
0.343493
0.363241
0.38332
0.39051
0.380569
0.358835
0.335589
0.319085
0.312641
0.315791
0.325533
0.337128
0.346531
0.352615
0.356105
0.358176
0.359526
0.360651
0.361638
0.3627
0.363722
0.364914
0.366057
0.367441
0.368727
0.370345
0.371778
0.373671
0.375243
0.377469
0.379185
0.381854
0.383742
0.387004
0.389105
0.393169
0.395626
0.400896
0.404179
0.411136
0.415015
0.422904
0.426258
0.433461
0.433147
0.437082
0.433391
0.441808
0.445319
0.456015
0.457624
0.438566
0.452312
0.375363
0.317098
0.337042
0.381871
0.390748
0.394869
0.385929
0.385789
0.378611
0.378981
0.373865
0.374459
0.370907
0.372162
0.370507
0.371602
0.369985
0.370289
0.368942
0.36856
0.366699
0.365116
0.362485
0.360153
0.357723
0.356183
0.35517
0.35486
0.35484
0.354939
0.354961
0.354669
0.354244
0.353429
0.352682
0.351546
0.35062
0.349222
0.348078
0.346437
0.344907
0.343092
0.340926
0.33924
0.337197
0.33317
0.343548
0.363367
0.38343
0.390516
0.380412
0.358474
0.335028
0.318382
0.3119
0.315132
0.32505
0.336842
0.346392
0.352557
0.356083
0.358166
0.359518
0.360641
0.361625
0.362684
0.363704
0.364893
0.366035
0.367417
0.368702
0.370318
0.37175
0.373641
0.375212
0.377436
0.37915
0.381816
0.383701
0.386959
0.389057
0.393118
0.395571
0.400838
0.404122
0.411087
0.414974
0.422876
0.426242
0.433452
0.433121
0.43703
0.433295
0.441746
0.445283
0.456124
0.457774
0.438998
0.453064
0.376016
0.316546
0.335164
0.380327
0.389939
0.394574
0.385842
0.385771
0.378602
0.378976
0.373862
0.374454
0.370895
0.372149
0.3705
0.371603
0.369989
0.370296
0.368954
0.368575
0.366717
0.365131
0.362492
0.360149
0.357708
0.35616
0.355148
0.354845
0.354835
0.354946
0.354978
0.354691
0.354271
0.35346
0.352719
0.351588
0.350673
0.349285
0.348156
0.346529
0.345018
0.343218
0.34106
0.339382
0.337313
0.333221
0.343603
0.363492
0.383536
0.39052
0.380253
0.358113
0.334468