/*--------------------------------*- C++ -*----------------------------------*\
| =========                 |                                                 |
| \\      /  F ield         | OpenFOAM: The Open Source CFD Toolbox           |
|  \\    /   O peration     | Version:  2412                                  |
|   \\  /    A nd           | Website:  www.openfoam.com                      |
|    \\/     M anipulation  |                                                 |
\*---------------------------------------------------------------------------*/
FoamFile
{
    version     2.0;
    format      ascii;
    arch        "LSB;label=32;scalar=64";
    class       volScalarField;
    location    "0.4";
    object      p;
}
// * * * * * * * * * * * * * * * * * * * * * * * * * * * * * * * * * * * * * //

dimensions      [0 2 -2 0 0 0 0];

internalField   nonuniform List<scalar> 
12960
(
108724
108699
108662
108598
108534
108437
108355
108230
108118
107947
107798
107585
107412
107153
106954
106636
106412
106020
105773
105284
105020
104402
104130
103340
103077
102055
101830
100488
100350
98562.2
98589.7
96175.5
96492.9
93188.2
93992.9
89408.1
91012.3
84568.8
87468.8
78300.8
83286.7
70092.3
78417.5
59211.1
72761.8
44402.8
65771.3
23226.1
55736.7
-8791.26
40097.3
-56079
19655.1
-114753
5712.92
-71890.8
11395.8
-36937.9
17379.8
-12330.6
24282.9
7193.51
31892.8
22467
39148.5
34290.6
45568.2
43274.5
50937.9
50089.5
55369
55317.2
59017.4
59381.1
62027.1
62598.9
64544.5
65232.2
66718.5
67488.8
68663.8
69496.3
70425.6
71300.8
71999.2
72913.8
73374.3
74354.4
74557.3
75660.4
75568.7
76882
76433.4
78073.2
77176.1
79281.8
77821
80529.5
78392.4
108729
108703
108666
108601
108537
108439
108358
108232
108121
107949
107800
107587
107414
107155
106956
106639
106415
106023
105776
105287
105022
104405
104133
103344
103080
102059
101834
100492
100354
98567.2
98593.4
96181.2
96496.7
93194.6
93996.4
89415.2
91015.4
84576.5
87471.2
78309
83287.9
70101.1
78418.3
59221.5
72765
44417.6
65781.3
23247
55752.3
-8777.83
40104.1
-56115.1
19628.2
-114949
5663.89
-71910.7
11391.9
-36928.7
17374
-12327.7
24276
7197.79
31889.3
22473
39148.1
34298
45570.3
43281.9
50940.8
50096
55372
55322.6
59020.2
59385.3
62029.2
62601.7
64545.6
65233.4
66718.7
67489.1
68663.7
69496.4
70425.7
71300.9
71999.7
72913.8
73374.9
74354.1
74557.8
75659.5
75568.8
76880.5
76433
78071.4
77175.1
79280.3
77819.4
80529.3
78390.8
108734
108708
108671
108605
108541
108442
108360
108235
108123
107952
107803
107589
107416
107157
106959
106641
106417
106025
105779
105290
105025
104409
104136
103348
103084
102063
101837
100497
100357
98572.3
98597.2
96186.9
96500.4
93200.9
94000
89422.3
91018.6
84584.4
87473.6
78317.4
83289.3
70110.1
78419.1
59232
72768.2
44432.6
65791.4
23267.9
55767.8
-8764.41
40110.8
-56151.3
19601
-115147
5614.52
-71930.9
11387.7
-36919.6
17368.2
-12324.7
24269.1
7202.23
31885.8
22479.1
39147.7
34305.6
45572.4
43289.5
50943.6
50102.6
55375
55328.1
59022.9
59389.5
62031.3
62604.4
64546.6
65234.7
66719
67489.4
68663.6
69496.4
70425.9
71301
72000.2
72913.9
73375.6
74353.8
74558.2
75658.7
75569
76879.1
76432.7
78069.6
77174.1
79278.9
77817.9
80529.2
78389.2
108739
108712
108675
108609
108544
108445
108363
108237
108126
107954
107805
107592
107418
107160
106961
106644
106420
106028
105781
105293
105028
104412
104139
103351
103087
102067
101841
100501
100361
98577.3
98600.9
96192.6
96504.2
93207.4
94003.6
89429.5
91021.8
84592.3
87476
78326
83290.7
70119.1
78420.1
59242.7
72771.5
44447.6
65801.4
23288.8
55783.3
-8750.95
40117.6
-56187.8
19573.4
-115347
5564.81
-71951.3
11383.2
-36910.6
17362.4
-12321.5
24262.3
7206.8
31882.3
22485.3
39147.4
34313.2
45574.5
43297
50946.5
50109.2
55377.9
55333.5
59025.5
59393.7
62033.3
62607.2
64547.7
65236.1
66719.2
67489.8
68663.6
69496.5
70426.1
71301.1
72000.8
72914
73376.2
74353.6
74558.8
75657.9
75569.1
76877.7
76432.4
78067.9
77173.3
79277.6
77816.6
80529.3
78387.7
108744
108717
108679
108613
108548
108448
108366
108240
108128
107956
107807
107594
107420
107162
106963
106646
106422
106031
105784
105296
105031
104415
104142
103355
103090
102071
101844
100506
100365
98582.5
98604.7
96198.3
96508
93213.8
94007.3
89436.7
91025
84600.3
87478.5
78334.5
83292.1
70128.3
78421
59253.4
72774.8
44462.7
65811.4
23309.9
55799
-8737.34
40124.5
-56224.5
19545.7
-115548
5514.62
-71971.7
11378.7
-36901.4
17356.5
-12318.3
24255.5
7211.43
31878.9
22491.5
39147.1
34320.9
45576.6
43304.6
50949.4
50115.8
55380.9
55339
59028.3
59398
62035.4
62610
64548.8
65237.4
66719.4
67490.2
68663.5
69496.6
70426.3
71301.3
72001.4
72914.1
73376.9
74353.3
74559.3
75657.1
75569.3
76876.3
76432.1
78066.2
77172.4
79276.2
77815.2
80529.3
78386.2
108749
108722
108684
108616
108551
108451
108369
108242
108130
107958
107809
107596
107423
107164
106965
106649
106424
106033
105786
105299
105034
104418
104145
103359
103093
102075
101848
100510
100368
98587.6
98608.5
96204.1
96511.8
93220.4
94010.9
89444
91028.3
84608.3
87480.9
78343.2
83293.5
70137.5
78422
59264.2
72778.1
44477.9
65821.6
23331.1
55814.8
-8723.57
40131.6
-56261.3
19517.8
-115752
5463.95
-71992.3
11374.2
-36892.2
17350.6
-12315.1
24248.6
7216.1
31875.4
22497.8
39146.7
34328.7
45578.7
43312.3
50952.3
50122.5
55383.9
55344.6
59031
59402.3
62037.5
62612.8
64549.9
65238.7
66719.7
67490.5
68663.5
69496.6
70426.6
71301.4
72001.9
72914.2
73377.6
74353.1
74559.8
75656.3
75569.5
76874.9
76431.8
78064.5
77171.6
79274.9
77813.7
80529.4
78384.7
108754
108727
108688
108620
108555
108454
108371
108245
108133
107961
107811
107598
107425
107166
106968
106651
106427
106036
105789
105302
105036
104422
104148
103362
103097
102079
101851
100515
100372
98592.8
98612.4
96210
96515.7
93226.9
94014.6
89451.4
91031.5
84616.4
87483.4
78351.9
83294.9
70146.7
78422.9
59275
72781.5
44493.3
65831.8
23352.6
55830.7
-8709.63
40138.7
-56298.2
19489.8
-115957
5412.79
-72013
11369.6
-36882.8
17344.6
-12311.9
24241.7
7220.8
31871.9
22504.2
39146.4
34336.5
45580.9
43320
50955.3
50129.2
55386.9
55350.1
59033.7
59406.6
62039.6
62615.6
64551
65240.1
66719.9
67490.9
68663.5
69496.7
70426.8
71301.6
72002.5
72914.3
73378.3
74352.9
74560.4
75655.5
75569.7
76873.5
76431.5
78062.8
77170.7
79273.5
77812.3
80529.4
78383.1
108759
108731
108693
108624
108559
108457
108374
108247
108135
107963
107814
107600
107427
107169
106970
106653
106429
106039
105792
105305
105039
104425
104151
103366
103100
102083
101855
100520
100376
98598
98616.3
96215.9
96519.6
93233.5
94018.3
89458.8
91034.8
84624.6
87486
78360.7
83296.4
70156.1
78423.9
59286
72784.8
44508.7
65842.1
23374.2
55846.8
-8695.52
40146
-56335.3
19461.6
-116165
5361.15
-72033.7
11365
-36873.5
17338.6
-12308.7
24234.7
7225.55
31868.4
22510.6
39146.1
34344.4
45583.1
43327.8
50958.3
50136
55389.9
55355.8
59036.5
59410.9
62041.7
62618.5
64552.2
65241.4
66720.1
67491.2
68663.4
69496.8
70427
71301.7
72003.1
72914.5
73379
74352.7
74561
75654.7
75569.9
76872.1
76431.2
78061
77169.8
79272.1
77810.9
80529.5
78381.5
108764
108736
108698
108628
108563
108461
108377
108250
108138
107965
107816
107603
107429
107171
106972
106656
106432
106041
105794
105308
105042
104428
104154
103370
103104
102088
101858
100524
100380
98603.3
98620.2
96221.8
96523.5
93240.2
94022.1
89466.2
91038.1
84632.8
87488.5
78369.5
83297.8
70165.4
78424.8
59297
72788.1
44524.2
65852.4
23395.9
55863.1
-8681.24
40153.4
-56372.5
19433.2
-116374
5309.01
-72054.6
11360.3
-36864
17332.5
-12305.4
24227.7
7230.34
31864.8
22517.1
39145.8
34352.4
45585.3
43335.7
50961.3
50142.9
55393
55361.4
59039.3
59415.3
62043.8
62621.4
64553.3
65242.8
66720.4
67491.6
68663.4
69496.9
70427.2
71301.9
72003.7
72914.6
73379.8
74352.4
74561.5
75653.9
75570.1
76870.7
76430.9
78059.2
77168.9
79270.7
77809.4
80529.5
78379.9
108770
108741
108702
108633
108566
108464
108380
108252
108140
107967
107818
107605
107431
107173
106975
106658
106434
106044
105797
105311
105045
104432
104157
103373
103107
102092
101862
100529
100383
98608.6
98624.1
96227.7
96527.4
93246.9
94025.8
89473.7
91041.5
84641.1
87491
78378.4
83299.2
70174.9
78425.8
59308
72791.5
44539.8
65862.9
23417.9
55879.5
-8666.8
40161
-56409.8
19404.6
-116585
5256.37
-72075.7
11355.6
-36854.5
17326.4
-12302.2
24220.7
7235.17
31861.3
22523.6
39145.5
34360.4
45587.6
43343.6
50964.3
50149.8
55396.1
55367.2
59042.2
59419.8
62046
62624.3
64554.4
65244.2
66720.6
67492
68663.3
69497
70427.5
71302.1
72004.3
72914.7
73380.5
74352.2
74562.1
75653.1
75570.3
76869.2
76430.6
78057.4
77168.1
79269.3
77807.9
80529.5
78378.3
108775
108746
108707
108637
108570
108467
108383
108255
108143
107970
107820
107607
107434
107176
106977
106661
106437
106047
105800
105314
105048
104435
104160
103377
103110
102096
101866
100534
100387
98613.9
98628
96233.8
96531.3
93253.7
94029.6
89481.3
91044.8
84649.4
87493.6
78387.4
83300.7
70184.4
78426.7
59319.1
72794.9
44555.5
65873.4
23440
55896
-8652.18
40168.7
-56447.2
19375.9
-116798
5203.24
-72096.9
11350.8
-36844.8
17320.2
-12298.9
24213.5
7240.04
31857.7
22530.2
39145.2
34368.5
45589.8
43351.6
50967.4
50156.7
55399.2
55372.9
59045
59424.2
62048.2
62627.2
64555.6
65245.6
66720.8
67492.3
68663.3
69497.1
70427.7
71302.3
72004.9
72914.9
73381.3
74352
74562.7
75652.3
75570.6
76867.8
76430.3
78055.6
77167.2
79267.8
77806.4
80529.6
78376.6
108780
108751
108712
108641
108574
108470
108386
108257
108145
107972
107823
107609
107436
107178
106979
106664
106439
106050
105802
105317
105051
104438
104164
103381
103114
102100
101869
100539
100391
98619.3
98632
96239.8
96535.3
93260.5
94033.5
89488.9
91048.2
84657.8
87496.2
78396.4
83302.2
70194
78427.6
59330.3
72798.2
44571.3
65884
23462.3
55912.7
-8637.39
40176.5
-56484.8
19347
-117012
5149.61
-72118.2
11345.9
-36835.2
17314
-12295.6
24206.4
7244.95
31854.1
22536.8
39144.9
34376.7
45592.1
43359.7
50970.4
50163.8
55402.4
55378.7
59047.9
59428.7
62050.4
62630.2
64556.7
65247
66721.1
67492.7
68663.2
69497.1
70427.9
71302.4
72005.6
72915
73382
74351.8
74563.3
75651.5
75570.8
76866.3
76430.1
78053.8
77166.3
79266.4
77804.9
80529.6
78374.8
108786
108756
108717
108645
108578
108473
108389
108260
108148
107975
107825
107612
107438
107181
106982
106666
106442
106052
105805
105320
105054
104442
104167
103385
103117
102105
101873
100543
100395
98624.7
98636
96245.9
96539.3
93267.3
94037.3
89496.6
91051.6
84666.3
87498.8
78405.5
83303.6
70203.6
78428.5
59341.6
72801.6
44587.2
65894.7
23484.8
55929.6
-8622.43
40184.5
-56522.5
19317.9
-117229
5095.47
-72139.6
11340.9
-36825.5
17307.7
-12292.3
24199.1
7249.89
31850.5
22543.5
39144.7
34384.9
45594.4
43367.8
50973.6
50170.8
55405.5
55384.6
59050.8
59433.2
62052.6
62633.1
64557.9
65248.4
66721.3
67493
68663.2
69497.2
70428.2
71302.6
72006.2
72915.2
73382.8
74351.6
74563.9
75650.7
75571
76864.8
76429.8
78051.9
77165.3
79264.9
77803.3
80529.6
78373.1
108791
108761
108721
108649
108581
108477
108392
108262
108150
107977
107827
107614
107441
107183
106984
106669
106444
106055
105808
105323
105057
104445
104170
103389
103121
102109
101877
100548
100399
98630.2
98640
96252
96543.4
93274.3
94041.2
89504.3
91055.1
84674.8
87501.4
78414.7
83305.1
70213.4
78429.4
59352.9
72805
44603.2
65905.4
23507.4
55946.6
-8607.29
40192.5
-56560.3
19288.7
-117448
5040.82
-72161.2
11335.8
-36815.7
17301.4
-12288.9
24191.9
7254.88
31846.9
22550.2
39144.4
34393.2
45596.7
43376
50976.7
50177.9
55408.7
55390.5
59053.7
59437.8
62054.8
62636.1
64559.1
65249.8
66721.5
67493.4
68663.1
69497.3
70428.4
71302.8
72006.8
72915.4
73383.6
74351.4
74564.6
75649.8
75571.3
76863.4
76429.5
78050
77164.4
79263.3
77801.7
80529.7
78371.3
108797
108766
108726
108653
108585
108480
108395
108265
108153
107979
107830
107616
107443
107185
106986
106671
106447
106058
105811
105326
105060
104449
104173
103393
103124
102113
101880
100553
100403
98635.7
98644.1
96258.2
96547.5
93281.2
94045.1
89512.1
91058.5
84683.4
87504.1
78423.9
83306.6
70223.1
78430.4
59364.3
72808.4
44619.4
65916.2
23530.2
55963.7
-8591.98
40200.8
-56598.2
19259.3
-117668
4985.66
-72183
11330.6
-36805.8
17295
-12285.6
24184.5
7259.91
31843.3
22557
39144.1
34401.6
45599.1
43384.2
50979.9
50185.1
55412
55396.4
59056.6
59442.4
62057.1
62639.2
64560.3
65251.2
66721.8
67493.8
68663.1
69497.4
70428.7
71303
72007.5
72915.6
73384.4
74351.3
74565.2
75649
75571.5
76861.9
76429.2
78048.1
77163.5
79261.8
77800.2
80529.7
78369.5
108803
108772
108731
108658
108589
108483
108397
108268
108155
107982
107832
107619
107445
107188
106989
106674
106450
106061
105813
105329
105063
104452
104177
103396
103128
102118
101884
100558
100407
98641.2
98648.2
96264.4
96551.5
93288.2
94049
89519.9
91062
84692.1
87506.7
78433.2
83308.1
70233
78431.3
59375.7
72811.8
44635.6
65927.1
23553.3
55981
-8576.49
40209.1
-56636.2
19229.8
-117891
4929.99
-72204.9
11325.3
-36796
17288.5
-12282.3
24177.2
7264.98
31839.6
22563.8
39143.9
34410
45601.5
43392.5
50983.1
50192.3
55415.2
55402.4
59059.6
59447
62059.3
62642.2
64561.4
65252.6
66722
67494.1
68663
69497.5
70429
71303.2
72008.2
72915.7
73385.2
74351.1
74565.8
75648.2
75571.8
76860.4
76428.9
78046.2
77162.6
79260.3
77798.6
80529.7
78367.7
108808
108777
108736
108662
108593
108486
108400
108270
108158
107984
107834
107621
107448
107190
106991
106676
106452
106064
105816
105332
105066
104456
104180
103400
103131
102122
101888
100563
100411
98646.7
98652.3
96270.7
96555.7
93295.3
94052.9
89527.8
91065.5
84700.8
87509.4
78442.6
83309.5
70242.9
78432.1
59387.3
72815.2
44651.9
65938.1
23576.4
55998.5
-8560.82
40217.6
-56674.4
19200
-118115
4873.8
-72227
11319.8
-36786.1
17282
-12278.9
24169.7
7270.08
31835.9
22570.7
39143.6
34418.5
45603.9
43400.9
50986.3
50199.6
55418.5
55408.4
59062.6
59451.7
62061.6
62645.3
64562.6
65254
66722.2
67494.5
68662.9
69497.6
70429.2
71303.5
72008.8
72915.9
73386
74350.9
74566.5
75647.4
75572
76858.9
76428.7
78044.3
77161.6
79258.7
77796.9
80529.7
78365.8
108814
108782
108741
108666
108597
108490
108404
108273
108160
107987
107837
107623
107450
107193
106994
106679
106455
106067
105819
105335
105069
104459
104183
103404
103135
102126
101892
100568
100415
98652.3
98656.4
96277
96559.8
93302.4
94056.9
89535.8
91069
84709.6
87512.1
78452
83311
70252.8
78433
59398.8
72818.6
44668.2
65949.1
23599.8
56016.1
-8544.98
40226.3
-56712.6
19170.1
-118341
4817.08
-72249.3
11314.3
-36776.1
17275.4
-12275.6
24162.2
7275.23
31832.2
22577.7
39143.4
34427.1
45606.3
43409.3
50989.5
50207
55421.8
55414.5
59065.6
59456.4
62063.9
62648.3
64563.8
65255.5
66722.4
67494.8
68662.9
69497.7
70429.5
71303.7
72009.5
72916.1
73386.9
74350.7
74567.1
75646.6
75572.3
76857.4
76428.4
78042.3
77160.7
79257.1
77795.3
80529.7
78363.9
108820
108787
108746
108671
108601
108493
108407
108276
108163
107989
107839
107626
107452
107195
106996
106682
106458
106070
105822
105339
105072
104463
104187
103408
103139
102131
101896
100573
100419
98658
98660.6
96283.3
96564
93309.5
94060.9
89543.8
91072.6
84718.4
87514.8
78461.5
83312.5
70262.8
78433.9
59410.5
72822
44684.7
65960.2
23623.3
56033.9
-8528.95
40235.1
-56751
19140.1
-118569
4759.85
-72271.8
11308.5
-36766.1
17268.7
-12272.2
24154.7
7280.41
31828.5
22584.7
39143.1
34435.7
45608.8
43417.8
50992.8
50214.3
55425.1
55420.6
59068.7
59461.1
62066.2
62651.4
64565
65256.9
66722.7
67495.2
68662.8
69497.8
70429.7
71303.9
72010.2
72916.4
73387.7
74350.6
74567.8
75645.8
75572.6
76855.8
76428.1
78040.4
77159.8
79255.4
77793.6
80529.7
78361.9
108826
108793
108751
108675
108605
108496
108410
108278
108165
107992
107841
107628
107455
107198
106999
106684
106460
106072
105825
105342
105075
104466
104190
103412
103142
102135
101900
100578
100423
98663.6
98664.8
96289.7
96568.2
93316.7
94065
89551.9
91076.1
84727.3
87517.5
78471
83314
70272.9
78434.8
59422.2
72825.5
44701.3
65971.4
23647
56051.8
-8512.75
40244
-56789.5
19109.9
-118800
4702.08
-72294.5
11302.6
-36756.1
17261.9
-12268.9
24147.1
7285.63
31824.8
22591.7
39142.9
34444.4
45611.3
43426.4
50996.1
50221.8
55428.5
55426.8
59071.7
59465.9
62068.6
62654.6
64566.3
65258.4
66722.9
67495.6
68662.8
69497.9
70430
71304.1
72010.9
72916.6
73388.6
74350.4
74568.5
75645
75572.9
76854.3
76427.8
78038.4
77158.8
79253.8
77792
80529.7
78359.9
108831
108798
108756
108679
108609
108500
108413
108281
108168
107994
107844
107630
107457
107200
107001
106687
106463
106075
105828
105345
105079
104470
104193
103416
103146
102140
101903
100583
100427
98669.4
98669
96296.2
96572.4
93323.9
94069
89560
91079.7
84736.3
87520.3
78480.6
83315.6
70283.1
78435.6
59433.9
72828.9
44718
65982.6
23670.9
56069.9
-8496.36
40253.1
-56828
19079.5
-119032
4643.78
-72317.4
11296.5
-36746.1
17255.1
-12265.5
24139.4
7290.89
31821
22598.8
39142.7
34453.2
45613.8
43435
50999.5
50229.3
55431.9
55433
59074.8
59470.7
62070.9
62657.7
64567.5
65259.8
66723.1
67495.9
68662.7
69498
70430.3
71304.4
72011.6
72916.8
73389.4
74350.2
74569.2
75644.1
75573.2
76852.7
76427.6
78036.4
77157.8
79252.1
77790.3
80529.7
78357.9
108837
108804
108761
108684
108613
108503
108416
108284
108171
107997
107846
107633
107460
107203
107004
106690
106466
106078
105831
105348
105082
104474
104197
103420
103150
102145
101907
100588
100431
98675.1
98673.3
96302.6
96576.7
93331.2
94073.1
89568.1
91083.4
84745.3
87523
78490.3
83317.1
70293.3
78436.5
59445.7
72832.3
44734.8
65994
23695
56088.1
-8479.78
40262.3
-56866.7
19049
-119266
4584.94
-72340.5
11290.2
-36736.1
17248.2
-12262.2
24131.7
7296.19
31817.3
22606
39142.4
34462
45616.4
43443.7
51002.8
50236.8
55435.3
55439.2
59077.9
59475.6
62073.3
62660.9
64568.7
65261.3
66723.3
67496.3
68662.6
69498.1
70430.6
71304.6
72012.4
72917
73390.3
74350.1
74569.9
75643.3
75573.5
76851.2
76427.3
78034.3
77156.9
79250.4
77788.5
80529.7
78355.9
108843
108809
108767
108688
108617
108507
108419
108286
108173
107999
107849
107635
107462
107205
107006
106693
106468
106081
105834
105352
105085
104477
104200
103425
103153
102149
101911
100593
100435
98680.9
98677.5
96309.1
96580.9
93338.6
94077.2
89576.4
91087
84754.4
87525.8
78500.1
83318.6
70303.5
78437.3
59457.6
72835.7
44751.6
66005.4
23719.2
56106.5
-8463.03
40271.7
-56905.5
19018.3
-119502
4525.56
-72363.9
11283.8
-36726.1
17241.1
-12258.8
24124
7301.53
31813.5
22613.2
39142.2
34470.9
45618.9
43452.5
51006.2
50244.4
55438.7
55445.5
59081
59480.4
62075.7
62664.1
64570
65262.8
66723.5
67496.7
68662.5
69498.2
70430.8
71304.9
72013.1
72917.3
73391.2
74350
74570.6
75642.5
75573.8
76849.6
76427
78032.3
77155.9
79248.7
77786.8
80529.7
78353.8
108849
108815
108772
108693
108621
108510
108422
108289
108176
108002
107851
107638
107464
107208
107009
106695
106471
106084
105837
105355
105088
104481
104204
103429
103157
102154
101915
100599
100439
98686.7
98681.8
96315.7
96585.3
93345.9
94081.3
89584.6
91090.7
84763.5
87528.6
78509.9
83320.1
70313.9
78438.2
59469.6
72839.2
44768.6
66016.8
23743.6
56125.1
-8446.08
40281.2
-56944.3
18987.4
-119741
4465.64
-72387.5
11277
-36716.1
17234
-12255.5
24116.1
7306.9
31809.7
22620.5
39142
34479.8
45621.5
43461.3
51009.6
50252.1
55442.2
55451.8
59084.2
59485.4
62078.1
62667.3
64571.2
65264.3
66723.8
67497
68662.5
69498.3
70431.1
71305.1
72013.8
72917.5
73392.1
74349.8
74571.3
75641.7
75574.1
76848
76426.8
78030.2
77154.9
79246.9
77785
80529.6
78351.6
108855
108820
108777
108697
108625
108514
108425
108292
108179
108004
107854
107640
107467
107210
107012
106698
106474
106087
105840
105358
105091
104485
104207
103433
103161
102158
101919
100604
100444
98692.6
98686.2
96322.3
96589.6
93353.4
94085.5
89593
91094.3
84772.7
87531.4
78519.8
83321.6
70324.3
78439
59481.6
72842.6
44785.6
66028.4
23768.2
56143.8
-8428.96
40290.9
-56983.3
18956.4
-119981
4405.17
-72411.3
11270.1
-36706.1
17226.8
-12252.1
24108.2
7312.31
31805.8
22627.8
39141.8
34488.9
45624.1
43470.2
51013.1
50259.8
55445.7
55458.2
59087.4
59490.3
62080.5
62670.5
64572.5
65265.8
66724
67497.4
68662.4
69498.4
70431.4
71305.4
72014.6
72917.8
73393
74349.7
74572.1
75640.8
75574.4
76846.4
76426.5
78028.1
77153.9
79245.1
77783.3
80529.6
78349.5
108862
108826
108782
108702
108630
108517
108428
108295
108181
108007
107856
107643
107469
107213
107014
106701
106477
106090
105843
105362
105095
104489
104211
103437
103165
102163
101923
100609
100448
98698.5
98690.5
96328.9
96594
93360.9
94089.7
89601.4
91098.1
84782
87534.2
78529.7
83323.2
70334.7
78439.8
59493.6
72846
44802.7
66040
23793
56162.6
-8411.64
40300.7
-57022.4
18925.3
-120223
4344.16
-72435.3
11262.9
-36696.1
17219.6
-12248.8
24100.3
7317.76
31802
22635.1
39141.6
34498
45626.8
43479.2
51016.6
50267.6
55449.2
55464.7
59090.6
59495.3
62083
62673.8
64573.7
65267.3
66724.2
67497.7
68662.3
69498.5
70431.7
71305.7
72015.4
72918
73394
74349.5
74572.8
75640
75574.7
76844.8
76426.2
78025.9
77152.9
79243.3
77781.5
80529.5
78347.3
108868
108832
108788
108707
108634
108521
108432
108298
108184
108009
107859
107645
107472
107216
107017
106704
106479
106093
105846
105365
105098
104492
104214
103441
103168
102168
101927
100614
100452
98704.4
98694.9
96335.6
96598.3
93368.4
94093.9
89609.8
91101.8
84791.3
87537.1
78539.7
83324.7
70345.2
78440.6
59505.8
72849.5
44820
66051.6
23818
56181.7
-8394.13
40310.7
-57061.5
18894
-120467
4282.59
-72459.7
11255.4
-36686.2
17212.2
-12245.5
24092.3
7323.24
31798.1
22642.6
39141.4
34507.2
45629.4
43488.2
51020.1
50275.4
55452.7
55471.1
59093.8
59500.3
62085.4
62677.1
64575
65268.8
66724.4
67498.1
68662.2
69498.6
70432
71305.9
72016.1
72918.3
73394.9
74349.4
74573.6
75639.2
75575
76843.2
76426
78023.8
77151.9
79241.5
77779.6
80529.5
78345
108874
108838
108793
108711
108638
108524
108435
108300
108187
108012
107861
107648
107474
107218
107019
106706
106482
106097
105849
105368
105101
104496
104218
103445
103172
102172
101931
100620
100456
98710.4
98699.3
96342.3
96602.8
93376
94098.1
89618.3
91105.6
84800.7
87540
78549.8
83326.3
70355.8
78441.4
59517.9
72852.9
44837.3
66063.4
23843.1
56200.8
-8376.43
40320.8
-57100.7
18862.5
-120714
4220.46
-72484.2
11247.6
-36676.3
17204.6
-12242.2
24084.2
7328.76
31794.2
22650
39141.2
34516.4
45632.1
43497.2
51023.6
50283.3
55456.3
55477.6
59097.1
59505.4
62087.9
62680.4
64576.3
65270.3
66724.6
67498.4
68662.1
69498.7
70432.3
71306.2
72016.9
72918.6
73395.9
74349.3
74574.3
75638.3
75575.4
76841.6
76425.7
78021.6
77150.9
79239.6
77777.8
80529.4
78342.8
108880
108843
108799
108716
108642
108528
108438
108303
108190
108015
107864
107650
107477
107221
107022
106709
106485
106100
105852
105372
105104
104500
104221
103450
103176
102177
101936
100625
100461
98716.4
98703.7
96349.1
96607.2
93383.6
94102.4
89626.9
91109.3
84810.1
87542.8
78559.9
83327.8
70366.4
78442.2
59530.2
72856.3
44854.7
66075.2
23868.4
56220.2
-8358.55
40331.1
-57140
18830.9
-120962
4157.77
-72509.1
11239.5
-36666.5
17197
-12238.9
24076.1
7334.32
31790.3
22657.6
39141.1
34525.7
45634.8
43506.4
51027.1
50291.2
55459.9
55484.2
59100.3
59510.4
62090.4
62683.7
64577.6
65271.8
66724.8
67498.8
68662
69498.8
70432.6
71306.5
72017.7
72918.9
73396.8
74349.2
74575.1
75637.5
75575.7
76839.9
76425.4
78019.4
77149.9
79237.7
77775.9
80529.3
78340.4
108887
108849
108804
108721
108647
108531
108441
108306
108192
108017
107866
107653
107480
107224
107025
106712
106488
106103
105855
105375
105108
104504
104225
103454
103180
102182
101940
100630
100465
98722.4
98708.2
96355.9
96611.7
93391.3
94106.7
89635.5
91113.1
84819.7
87545.7
78570.1
83329.4
70377.1
78443
59542.5
72859.7
44872.2
66087.1
23893.9
56239.7
-8340.47
40341.5
-57179.4
18799.1
-121213
4094.53
-72534.2
11231
-36656.8
17189.3
-12235.6
24067.9
7339.91
31786.4
22665.1
39140.9
34535.1
45637.6
43515.6
51030.7
50299.2
55463.5
55490.8
59103.6
59515.6
62092.9
62687
64578.8
65273.4
66725
67499.1
68661.9
69498.9
70432.9
71306.8
72018.5
72919.2
73397.8
74349.1
74575.9
75636.7
75576
76838.3
76425.2
78017.2
77148.8
79235.8
77774.1
80529.2
78338.1
108893
108855
108810
108726
108651
108535
108444
108309
108195
108020
107869
107655
107482
107226
107027
106715
106491
106106
105858
105379
105111
104508
104229
103458
103184
102187
101944
100636
100469
98728.5
98712.7
96362.8
96616.2
93399
94111
89644.1
91117
84829.2
87548.6
78580.4
83330.9
70387.9
78443.7
59554.8
72863.2
44889.8
66099.1
23919.6
56259.3
-8322.19
40352.1
-57218.9
18767.2
-121465
4030.71
-72559.6
11222.3
-36647.2
17181.4
-12232.4
24059.6
7345.54
31782.5
22672.8
39140.7
34544.5
45640.4
43524.9
51034.3
50307.2
55467.1
55497.5
59107
59520.7
62095.5
62690.4
64580.1
65274.9
66725.2
67499.5
68661.8
69499
70433.2
71307.1
72019.3
72919.5
73398.8
74349
74576.7
75635.8
75576.4
76836.6
76424.9
78015
77147.8
79233.8
77772.2
80529.1
78335.7
108900
108861
108815
108730
108655
108539
108448
108312
108198
108023
107872
107658
107485
107229
107030
106718
106494
106109
105861
105382
105114
104511
104232
103463
103188
102192
101948
100641
100474
98734.6
98717.2
96369.7
96620.7
93406.8
94115.3
89652.9
91120.8
84838.9
87551.6
78590.7
83332.5
70398.7
78444.5
59567.3
72866.6
44907.5
66111.1
23945.4
56279.1
-8303.72
40362.9
-57258.4
18735.2
-121720
3966.34
-72585.3
11213.1
-36637.6
17173.4
-12229.1
24051.3
7351.2
31778.5
22680.4
39140.6
34554
45643.2
43534.2
51038
50315.3
55470.8
55504.2
59110.3
59525.9
62098
62693.8
64581.4
65276.4
66725.4
67499.8
68661.7
69499.1
70433.6
71307.4
72020.2
72919.8
73399.8
74348.9
74577.5
75635
75576.8
76834.9
76424.6
78012.7
77146.8
79231.8
77770.2
80529
78333.3
108906
108867
108821
108735
108660
108542
108451
108315
108201
108025
107874
107661
107487
107232
107033
106721
106496
106112
105864
105386
105118
104515
104236
103467
103192
102197
101952
100647
100478
98740.8
98721.7
96376.6
96625.2
93414.6
94119.7
89661.6
91124.7
84848.6
87554.5
78601.1
83334
70409.6
78445.2
59579.7
72870
44925.2
66123.2
23971.5
56299.1
-8285.06
40373.8
-57298.1
18703
-121977
3901.4
-72611.2
11203.5
-36628.2
17165.3
-12225.9
24042.9
7356.9
31774.5
22688.2
39140.4
34563.6
45646
43543.6
51041.6
50323.4
55474.5
55510.9
59113.7
59531.1
62100.6
62697.2
64582.8
65278
66725.6
67500.2
68661.6
69499.2
70433.9
71307.7
72021
72920.2
73400.8
74348.8
74578.3
75634.2
75577.1
76833.2
76424.4
78010.4
77145.7
79229.8
77768.3
80528.9
78330.8
108913
108873
108827
108740
108664
108546
108454
108317
108203
108028
107877
107663
107490
107234
107036
106724
106499
106115
105867
105389
105121
104519
104240
103471
103196
102201
101956
100652
100483
98747
98726.3
96383.6
96629.8
93422.5
94124.1
89670.5
91128.6
84858.3
87557.5
78611.6
83335.6
70420.5
78445.9
59592.2
72873.4
44943.1
66135.4
23997.7
56319.3
-8266.2
40384.9
-57337.7
18670.7
-122236
3835.89
-72637.5
11193.6
-36618.9
17157
-12222.7
24034.4
7362.64
31770.5
22696
39140.3
34573.3
45648.8
43553.1
51045.3
50331.6
55478.2
55517.7
59117.1
59536.4
62103.2
62700.6
64584.1
65279.5
66725.8
67500.5
68661.5
69499.3
70434.2
71308
72021.8
72920.5
73401.8
74348.7
74579.1
75633.3
75577.5
76831.5
76424.1
78008.1
77144.7
79227.7
77766.3
80528.7
78328.3
108920
108879
108832
108745
108669
108550
108458
108320
108206
108031
107879
107666
107493
107237
107038
106727
106502
106119
105870
105393
105125
104523
104243
103476
103200
102206
101961
100658
100487
98753.2
98730.9
96390.6
96634.4
93430.4
94128.5
89679.3
91132.5
84868.2
87560.5
78622.2
83337.2
70431.5
78446.6
59604.8
72876.9
44961
66147.6
24024.1
56339.6
-8247.14
40396.1
-57377.5
18638.2
-122497
3769.81
-72664
11183.2
-36609.7
17148.6
-12219.6
24025.9
7368.4
31766.5
22703.8
39140.1
34583
45651.7
43562.6
51049
50339.9
55482
55524.5
59120.5
59541.7
62105.8
62704.1
64585.4
65281.1
66725.9
67500.9
68661.4
69499.5
70434.5
71308.4
72022.7
72920.8
73402.9
74348.6
74580
75632.5
75577.9
76829.8
76423.8
78005.7
77143.6
79225.6
77764.3
80528.6
78325.7
108926
108886
108838
108750
108673
108553
108461
108323
108209
108033
107882
107669
107495
107240
107041
106730
106505
106122
105873
105396
105128
104527
104247
103480
103204
102211
101965
100663
100491
98759.5
98735.5
96397.7
96639
93438.3
94132.9
89688.3
91136.5
84878.1
87563.5
78632.8
83338.8
70442.6
78447.3
59617.5
72880.3
44979
66159.9
24050.6
56360
-8227.88
40407.5
-57417.3
18605.6
-122760
3703.16
-72690.7
11172.4
-36600.7
17140.1
-12216.5
24017.3
7374.21
31762.5
22711.7
39140
34592.8
45654.6
43572.2
51052.8
50348.2
55485.7
55531.4
59123.9
59547
62108.4
62707.6
64586.7
65282.7
66726.1
67501.2
68661.3
69499.6
70434.9
71308.7
72023.6
72921.2
73403.9
74348.5
74580.8
75631.6
75578.2
76828
76423.6
78003.4
77142.5
79223.5
77762.3
80528.4
78323.1
108933
108892
108844
108755
108678
108557
108464
108326
108212
108036
107885
107671
107498
107243
107044
106733
106508
106125
105877
105400
105131
104531
104251
103485
103208
102216
101969
100669
100496
98765.8
98740.1
96404.8
96643.7
93446.3
94137.4
89697.3
91140.4
84888
87566.5
78643.4
83340.3
70453.7
78448
59630.2
72883.7
44997.1
66172.3
24077.4
56380.7
-8208.41
40419.1
-57457.2
18572.9
-123025
3635.96
-72717.8
11161.1
-36591.9
17131.3
-12213.4
24008.7
7380.04
31758.4
22719.6
39139.9
34602.6
45657.6
43581.9
51056.6
50356.5
55489.5
55538.3
59127.4
59552.4
62111.1
62711.1
64588.1
65284.2
66726.3
67501.5
68661.2
69499.7
70435.2
71309
72024.4
72921.5
73405
74348.5
74581.7
75630.8
75578.6
76826.3
76423.3
78001
77141.4
79221.3
77760.3
80528.2
78320.5
108940
108898
108850
108760
108682
108561
108468
108329
108215
108039
107887
107674
107501
107245
107047
106736
106511
106128
105880
105404
105135
104535
104255
103489
103212
102221
101973
100675
100501
98772.1
98744.8
96411.9
96648.4
93454.4
94141.9
89706.3
91144.4
84898
87569.5
78654.1
83341.9
70464.9
78448.7
59642.9
72887.1
45015.3
66184.7
24104.3
56401.5
-8188.75
40430.8
-57497.1
18540
-123293
3568.18
-72745.1
11149.3
-36583.3
17122.4
-12210.3
23999.9
7385.91
31754.3
22727.6
39139.7
34612.5
45660.5
43591.6
51060.4
50364.9
55493.4
55545.2
59130.9
59557.8
62113.7
62714.6
64589.4
65285.8
66726.5
67501.9
68661
69499.8
70435.5
71309.4
72025.3
72921.9
73406
74348.4
74582.5
75629.9
75579
76824.5
76423
77998.5
77140.3
79219.1
77758.2
80528
78317.8
108947
108904
108856
108765
108687
108565
108471
108332
108218
108042
107890
107677
107503
107248
107049
106739
106514
106132
105883
105407
105138
104539
104258
103494
103216
102226
101978
100680
100505
98778.5
98749.5
96419.1
96653.1
93462.5
94146.4
89715.4
91148.4
84908.1
87572.6
78664.9
83343.5
70476.2
78449.3
59655.7
72890.5
45033.6
66197.3
24131.4
56422.4
-8168.88
40442.7
-57537.1