/*--------------------------------*- C++ -*----------------------------------*\
| =========                 |                                                 |
| \\      /  F ield         | OpenFOAM: The Open Source CFD Toolbox           |
|  \\    /   O peration     | Version:  2412                                  |
|   \\  /    A nd           | Website:  www.openfoam.com                      |
|    \\/     M anipulation  |                                                 |
\*---------------------------------------------------------------------------*/
FoamFile
{
    version     2.0;
    format      ascii;
    arch        "LSB;label=32;scalar=64";
    class       surfaceScalarField;
    location    "0.4";
    object      phi;
}
// * * * * * * * * * * * * * * * * * * * * * * * * * * * * * * * * * * * * * //

dimensions      [0 3 -1 0 0 0 0];

oriented        oriented;

internalField   nonuniform List<scalar> 
25689
(
0.00747565
0.0135952
0.00738777
0.0121936
0.00731668
0.00999563
0.00726981
0.00626475
0.00725303
0.00115209
0.00726717
-0.00406221
0.00730895
-0.00799213
0.00736862
-0.00980775
0.0074324
-0.00969427
0.00748914
-0.00851477
0.00753546
-0.00716423
0.00757368
-0.00609759
0.00760651
-0.00529853
0.00763564
-0.00467988
0.00766152
-0.0041289
0.00768473
-0.00366767
0.00770525
-0.00322311
0.00772373
-0.0028797
0.00773995
-0.0025222
0.00775461
-0.00226765
0.00776724
-0.00196423
0.0077787
-0.00177745
0.00778812
-0.00148878
0.00779682
-0.00137267
0.00780343
-0.00108754
0.00780977
-0.00103408
0.00781387
-0.0007365
0.00781824
-0.00075491
0.00782001
-0.000415874
0.00782287
-0.00053925
0.00782255
-0.000131788
0.00782425
-0.000375507
0.0078219
0.00012978
0.00782288
-0.000289123
0.00781865
0.000335455
0.0078194
-0.000311082
0.00781348
0.000456637
0.00781497
-0.000526413
0.00780849
0.000367629
0.0078131
-0.0010765
0.00780962
-0.000140129
0.00782224
-0.00213934
0.00782737
-0.00111574
0.00785267
-0.00342631
0.00786769
-0.00183162
0.0078997
-0.00359924
0.00790791
-0.000314457
0.00791962
-0.000252954
0.00789736
0.00458651
0.00786584
0.00756684
0.00779788
0.0137766
0.00762856
0.0298515
0.00734197
0.046686
0.00738985
-0.00468609
0.00759503
-0.0315048
0.00771267
-0.0200682
0.00773522
-0.00716059
0.00774375
-0.00383045
0.00772291
0.00122647
0.00772088
-0.000389212
0.00770868
0.00151616
0.00771483
-0.00066665
0.00771129
0.000669303
0.00772121
-0.00109173
0.0077231
-1.92244e-05
0.00773441
-0.00123739
0.00773824
-0.000245763
0.007747
-0.000937115
0.00774808
-9.29672e-06
0.00775093
-0.000332435
0.00774682
0.000502565
0.00774256
0.000442378
0.00773235
0.00115013
0.0077213
0.00119903
0.00770603
0.00171645
0.00769056
0.00173323
0.00767333
0.00198983
0.00765735
0.00188809
0.00764192
0.00190025
0.00762861
0.00171235
0.00761658
0.00161399
0.0076061
0.00145456
0.00759638
0.00134798
0.00758687
0.00127434
0.00757735
0.00118268
0.00756703
0.00116463
0.00755657
0.00103864
0.00754517
0.000989915
0.00753438
0.000738968
0.00752306
0.000582381
0.00751368
0.000145937
0.00750511
-0.000240964
0.00750039
-0.000920183
0.00749951
-0.00169908
0.00750488
-0.00265499
0.00752031
-0.00402863
0.00754445
-0.00528713
0.00758821
-0.00729389
-0.0095745
0.0074757
0.0136953
0.00738792
0.0122814
0.00731691
0.0100666
0.00726999
0.00631168
0.00725298
0.0011691
0.00726673
-0.00407596
0.00730809
-0.00803349
0.00736744
-0.00986711
0.00743105
-0.00975788
0.00748768
-0.0085714
0.00753386
-0.00721041
0.00757193
-0.00613566
0.00760463
-0.00533123
0.00763363
-0.00470888
0.00765941
-0.00415468
0.00768254
-0.00369079
0.00770298
-0.00324355
0.0077214
-0.00289812
0.00773756
-0.00253836
0.00775218
-0.00228227
0.00776477
-0.00197682
0.00777619
-0.00178887
0.00778558
-0.00149817
0.00779425
-0.00138134
0.00780084
-0.00109412
0.00780715
-0.00104039
0.00781122
-0.000740571
0.00781556
-0.000759252
0.00781731
-0.000417621
0.00782014
-0.000542082
0.00781979
-0.00013144
0.00782146
-0.00037718
0.00781908
0.000132163
0.00782003
-0.000290072
0.00781576
0.000339727
0.00781647
-0.000311794
0.00781049
0.000462617
0.00781193
-0.000527848
0.00780537
0.000374188
0.0078099
-0.00108103
0.00780631
-0.000136544
0.00781887
-0.0021519
0.00782393
-0.00112081
0.00784925
-0.00345162
0.00786432
-0.0018467
0.00789648
-0.0036314
0.00790484
-0.000322819
0.00791677
-0.000264879
0.00789471
0.00460856
0.00786369
0.00759786
0.00779645
0.0138439
0.00762836
0.0300196
0.00734336
0.046971
0.00739152
-0.00473426
0.00759585
-0.0317091
0.00771267
-0.020185
0.00773451
-0.00718242
0.00774261
-0.00383856
0.00772151
0.00124756
0.00771936
-0.000387061
0.0077071
0.00152842
0.00771325
-0.000672796
0.00770971
0.000672838
0.00771964
-0.00110166
0.00772155
-2.11343e-05
0.00773289
-0.00124873
0.00773674
-0.000249612
0.00774552
-0.000945902
0.00774662
-1.039e-05
0.00774949
-0.000335306
0.00774538
0.000506676
0.00774112
0.000446632
0.0077309
0.00116036
0.00771983
0.0012101
0.00770452
0.00173176
0.00768901
0.00174874
0.00767175
0.0020071
0.00765573
0.0019041
0.00764028
0.00191571
0.00762696
0.00172566
0.00761495
0.001626
0.00760449
0.00146502
0.00759479
0.00135768
0.0075853
0.00128384
0.00757577
0.0011922
0.00756545
0.00117495
0.00755496
0.00104913
0.00754351
0.00100136
0.00753265
0.000749823
0.00752125
0.000593784
0.00751177
0.000155421
0.00750306
-0.000232258
0.0074982
-0.000915326
0.00749714
-0.00169801
0.00750233
-0.00266018
0.00751755
-0.00404386
0.00754151
-0.00531108
0.00758514
-0.00733753
-0.00963452
0.00747575
0.0137953
0.00738807
0.012369
0.00731713
0.0101376
0.00727016
0.00635865
0.00725291
0.00118635
0.00726627
-0.00408932
0.00730719
-0.00807442
0.00736623
-0.00992615
0.00742967
-0.00982132
0.00748619
-0.00862791
0.00753224
-0.00725647
0.00757016
-0.00617358
0.00760272
-0.00536378
0.0076316
-0.00473777
0.00765728
-0.00418035
0.00768032
-0.00371383
0.00770069
-0.00326392
0.00771905
-0.00291648
0.00773516
-0.00255448
0.00774974
-0.00229684
0.00776229
-0.00198937
0.00777368
-0.00180026
0.00778303
-0.00150753
0.00779167
-0.00138999
0.00779823
-0.00110068
0.00780451
-0.00104667
0.00780855
-0.000744614
0.00781287
-0.000763567
0.00781459
-0.00041934
0.00781739
-0.000544888
0.00781702
-0.000131062
0.00781866
-0.000378827
0.00781625
0.00013458
0.00781717
-0.00029099
0.00781285
0.000344039
0.00781353
-0.000312469
0.00780749
0.000468653
0.00780887
-0.000529227
0.00780223
0.000380832
0.00780668
-0.00108548
0.00780299
-0.000132857
0.00781547
-0.00216438
0.00782047
-0.00112581
0.0078458
-0.00347694
0.00786093
-0.00186183
0.00789324
-0.00366371
0.00790176
-0.000331337
0.0079139
-0.00027702
0.00789205
0.00463041
0.00786153
0.00762838
0.007795
0.0139104
0.00762815
0.0301864
0.00734475
0.0472544
0.0073932
-0.00478271
0.00759667
-0.0319126
0.00771267
-0.020301
0.00773379
-0.00720353
0.00774146
-0.00384623
0.00772011
0.00126891
0.00771783
-0.000384787
0.00770552
0.00154074
0.00771166
-0.000678936
0.00770812
0.000676369
0.00771807
-0.0011116
0.00772
-2.30591e-05
0.00773136
-0.00126009
0.00773523
-0.000253484
0.00774404
-0.000954717
0.00774516
-1.15025e-05
0.00774804
-0.000338191
0.00774394
0.00051078
0.00773968
0.000450885
0.00772945
0.00117059
0.00771836
0.00122119
0.00770302
0.0017471
0.00768747
0.00176429
0.00767016
0.0020244
0.00765412
0.00192015
0.00763864
0.00193118
0.00762532
0.00173898
0.00761332
0.00163801
0.00760288
0.00147546
0.0075932
0.00136736
0.00758372
0.00129332
0.0075742
0.00120173
0.00756386
0.00118529
0.00755334
0.00105965
0.00754184
0.00101286
0.00753093
0.000760739
0.00751944
0.000605275
0.00750985
0.000165004
0.00750101
-0.000223415
0.00749601
-0.000910329
0.00749476
-0.00169676
0.00749977
-0.00266519
0.00751478
-0.00405887
0.00753854
-0.00533484
0.00758205
-0.00738104
-0.00969442
0.0074758
0.0138953
0.00738822
0.0124566
0.00731736
0.0102084
0.00727034
0.00640567
0.00725285
0.00120383
0.00726581
-0.00410227
0.0073063
-0.00811491
0.00736502
-0.00998486
0.00742829
-0.00988459
0.00748469
-0.00868431
0.00753061
-0.00730239
0.00756838
-0.00621136
0.0076008
-0.00539619
0.00762956
-0.00476653
0.00765513
-0.00420593
0.00767808
-0.00373678
0.00769838
-0.00328422
0.00771669
-0.00293478
0.00773275
-0.00257054
0.00774728
-0.00231137
0.00775979
-0.00200188
0.00777114
-0.00181161
0.00778047
-0.00151685
0.00778908
-0.0013986
0.00779561
-0.0011072
0.00780186
-0.00105292
0.00780588
-0.00074863
0.00781017
-0.000767857
0.00781186
-0.00042103
0.00781464
-0.000547668
0.00781423
-0.000130655
0.00781585
-0.000380448
0.0078134
0.000137029
0.00781429
-0.000291879
0.00780994
0.000348393
0.00781057
-0.000313105
0.00780448
0.000474748
0.0078058
-0.00053055
0.00779907
0.000387561
0.00780344
-0.00108985
0.00779965
-0.000129067
0.00781206
-0.00217678
0.00781699
-0.00113075
0.00784233
-0.00350228
0.00785752
-0.00187701
0.00788998
-0.00369617
0.00789865
-0.000340012
0.00791101
-0.000289378
0.00788936
0.00465205
0.00785934
0.00765841
0.00779354
0.0139762
0.00762793
0.030352
0.00734615
0.0475361
0.00739489
-0.00483145
0.00759749
-0.0321152
0.00771266
-0.0204162
0.00773305
-0.00722392
0.00774029
-0.00385347
0.00771869
0.00129052
0.00771629
-0.00038239
0.00770392
0.00155311
0.00771005
-0.000685071
0.00770653
0.000679895
0.00771649
-0.00112157
0.00771843
-2.50009e-05
0.00772982
-0.00127147
0.00773372
-0.000257382
0.00774256
-0.00096356
0.00774369
-1.26337e-05
0.00774659
-0.000341091
0.0077425
0.000514878
0.00773824
0.000455137
0.007728
0.00118084
0.00771689
0.0012323
0.00770151
0.00176247
0.00768593
0.00177988
0.00766858
0.00204175
0.0076525
0.00193623
0.007637
0.00194668
0.00762368
0.0017523
0.00761169
0.00165
0.00760127
0.00148588
0.00759161
0.00137702
0.00758214
0.00130278
0.00757262
0.00121125
0.00756227
0.00119564
0.00755172
0.0010702
0.00754017
0.00102441
0.00752919
0.000771718
0.00751762
0.000616854
0.00750793
0.000174686
0.00749895
-0.000214433
0.00749381
-0.00090519
0.00749236
-0.00169531
0.00749719
-0.00267002
0.00751198
-0.00407366
0.00753555
-0.0053584
0.00757893
-0.00742442
-0.00975419
0.00747585
0.0139952
0.00738837
0.0125441
0.00731759
0.0102792
0.00727051
0.00645275
0.00725279
0.00122155
0.00726535
-0.00411482
0.00730541
-0.00815497
0.0073638
-0.0100433
0.00742689
-0.00994769
0.00748318
-0.0087406
0.00752897
-0.00734818
0.00756659
-0.00624898
0.00759886
-0.00542846
0.0076275
-0.00479517
0.00765297
-0.0042314
0.00767584
-0.00375965
0.00769607
-0.00330445
0.00771431
-0.00295303
0.00773032
-0.00258655
0.00774481
-0.00232586
0.00775728
-0.00201435
0.0077686
-0.00182293
0.00777789
-0.00152614
0.00778647
-0.00140718
0.00779297
-0.0011137
0.0077992
-0.00105915
0.00780318
-0.000752617
0.00780745
-0.000772121
0.00780911
-0.000422693
0.00781187
-0.000550423
0.00781143
-0.000130219
0.00781302
-0.000382042
0.00781054
0.000139512
0.0078114
-0.000292739
0.00780701
0.000352789
0.0078076
-0.000313704
0.00780145
0.0004809
0.00780272
-0.000531817
0.0077959
0.000394376
0.00780019
-0.00109414
0.0077963
-0.000125172
0.00780863
-0.00218911
0.0078135
-0.00113562
0.00783884
-0.00352762
0.00785409
-0.00189226
0.0078867
-0.00372878
0.00789553
-0.000348842
0.0079081
-0.000301954
0.00788666
0.00467349
0.00785714
0.00768793
0.00779206
0.0140413
0.00762769
0.0305164
0.00734755
0.0478163
0.00739659
-0.00488049
0.0075983
-0.0323169
0.00771263
-0.0205305
0.0077323
-0.00724358
0.00773911
-0.00386028
0.00771725
0.00131237
0.00771473
-0.000379874
0.00770231
0.00156553
0.00770844
-0.000691202
0.00770492
0.000683414
0.00771491
-0.00113155
0.00771687
-2.69596e-05
0.00772828
-0.00128288
0.0077322
-0.000261305
0.00774108
-0.000972431
0.00774223
-1.37846e-05
0.00774514
-0.000344006
0.00774105
0.000518968
0.0077368
0.000459389
0.00772654
0.0011911
0.00771541
0.00124343
0.00770001
0.00177787
0.00768438
0.0017955
0.00766699
0.00205914
0.00765087
0.00195234
0.00763536
0.00196219
0.00762203
0.00176563
0.00761005
0.00166198
0.00759965
0.00149628
0.00759001
0.00138666
0.00758056
0.00131224
0.00757104
0.00122077
0.00756067
0.00120601
0.0075501
0.00108077
0.0075385
0.001036
0.00752746
0.00078276
0.00751579
0.000628523
0.00750601
0.00018447
0.00749689
-0.000205312
0.0074916
-0.000899908
0.00748996
-0.00169367
0.0074946
-0.00267466
0.00750917
-0.00408823
0.00753254
-0.00538177
0.00757579
-0.00746767
-0.00981384
0.0074759
0.014095
0.00738852
0.0126315
0.00731782
0.0103499
0.0072707
0.00649987
0.00725274
0.00123951
0.00726489
-0.00412697
0.00730451
-0.00819459
0.00736258
-0.0101013
0.00742549
-0.0100106
0.00748166
-0.00879677
0.00752732
-0.00739384
0.00756479
-0.00628645
0.00759692
-0.00546059
0.00762543
-0.00482368
0.0076508
-0.00425677
0.00767358
-0.00378243
0.00769374
-0.00332461
0.00771192
-0.00297121
0.00772788
-0.00260251
0.00774232
-0.0023403
0.00775476
-0.00202679
0.00776604
-0.00183421
0.0077753
-0.0015354
0.00778385
-0.00141573
0.00779032
-0.00112017
0.00779652
-0.00106535
0.00780048
-0.000756576
0.00780472
-0.000776359
0.00780635
-0.000424328
0.00780908
-0.000553152
0.00780862
-0.000129753
0.00781019
-0.00038361
0.00780767
0.000142028
0.0078085
-0.000293568
0.00780406
0.000357227
0.00780462
-0.000314265
0.00779841
0.000487111
0.00779962
-0.000533027
0.00779272
0.000401278
0.00779693
-0.00109835
0.00779293
-0.000121171
0.00780518
-0.00220136
0.00780998
-0.00114043
0.00783534
-0.00355297
0.00785064
-0.00190757
0.0078834
-0.00376153
0.00789238
-0.000357829
0.00790518
-0.000314747
0.00788394
0.00469473
0.00785491
0.00771695
0.00779056
0.0141056
0.00762745
0.0306795
0.00734896
0.0480948
0.00739829
-0.00492982
0.00759911
-0.0325177
0.00771259
-0.020644
0.00773153
-0.00726252
0.00773791
-0.00386667
0.0077158
0.00133447
0.00771317
-0.000377238
0.00770069
0.001578
0.00770683
-0.000697333
0.00770331
0.000686925
0.00771332
-0.00114156
0.0077153
-2.89364e-05
0.00772674
-0.00129432
0.00773069
-0.000265256
0.00773959
-0.00098133
0.00774076
-1.49555e-05
0.00774369
-0.000346938
0.00773961
0.000523051
0.00773536
0.000463639
0.00772509
0.00120136
0.00771393
0.00125458
0.0076985
0.00179331
0.00768283
0.00181117
0.0076654
0.00207657
0.00764925
0.00196849
0.00763371
0.00197773
0.00762038
0.00177896
0.00760841
0.00167394
0.00759803
0.00150666
0.00758841
0.00139628
0.00757897
0.00132168
0.00756945
0.00123029
0.00755907
0.00121639
0.00754847
0.00109138
0.00753682
0.00104765
0.00752572
0.000793867
0.00751396
0.000640282
0.00750407
0.000194355
0.00749481
-0.00019605
0.00748938
-0.00089448
0.00748755
-0.00169183
0.007492
-0.00267911
0.00750635
-0.00410258
0.00752951
-0.00540492
0.00757263
-0.00751079
-0.00987336
0.00747595
0.0141948
0.00738868
0.0127188
0.00731805
0.0104206
0.00727088
0.00654705
0.00725269
0.0012577
0.00726444
-0.00413872
0.00730363
-0.00823377
0.00736136
-0.0101591
0.00742409
-0.0100733
0.00748014
-0.00885281
0.00752566
-0.00743937
0.00756298
-0.00632377
0.00759496
-0.00549257
0.00762335
-0.00485207
0.00764862
-0.00428203
0.00767131
-0.00380513
0.0076914
-0.00334469
0.00770952
-0.00298933
0.00772543
-0.00261842
0.00773983
-0.0023547
0.00775222
-0.00203919
0.00776347
-0.00184546
0.0077727
-0.00154463
0.00778122
-0.00142426
0.00778766
-0.00112661
0.00779383
-0.00107152
0.00779776
-0.000760508
0.00780198
-0.000780571
0.00780358
-0.000425934
0.00780629
-0.000555855
0.00780579
-0.000129258
0.00780733
-0.000385152
0.00780478
0.000144577
0.00780558
-0.000294368
0.0078011
0.000361707
0.00780163
-0.000314788
0.00779536
0.000493379
0.00779651
-0.00053418
0.00778952
0.000408266
0.00779365
-0.00110248
0.00778954
-0.000117064
0.00780171
-0.00221354
0.00780645
-0.00114517
0.00783181
-0.00357833
0.00784718
-0.00192293
0.00788008
-0.00379444
0.00788922
-0.000366974
0.00790224
-0.000327757
0.0078812
0.00471577
0.00785267
0.00774548
0.00778905
0.0141692
0.0076272
0.0308413
0.00735037
0.0483716
0.00740001
-0.00497945
0.00759992
-0.0327176
0.00771254
-0.0207566
0.00773074
-0.00728072
0.00773669
-0.00387262
0.00771434
0.00135683
0.00771159
-0.000374486
0.00769907
0.00159052
0.0077052
-0.000703464
0.0077017
0.000690426
0.00771172
-0.00115159
0.00771372
-3.09323e-05
0.00772519
-0.00130579
0.00772917
-0.000269233
0.0077381
-0.00099026
0.00773929
-1.61471e-05
0.00774224
-0.000349886
0.00773816
0.000527127
0.00773391
0.000467889
0.00772363
0.00121164
0.00771245
0.00126576
0.00769698
0.00180878
0.00768128
0.00182687
0.0076638
0.00209405
0.00764762
0.00198468
0.00763206
0.00199329
0.00761873
0.00179229
0.00760677
0.0016859
0.00759641
0.00151702
0.00758681
0.00140589
0.00757738
0.0013311
0.00756787
0.00123981
0.00755747
0.00122678
0.00754684
0.00110202
0.00753514
0.00105934
0.00752397
0.000805037
0.00751212
0.000652132
0.00750214
0.000204343
0.00749273
-0.000186645
0.00748716
-0.000888907
0.00748512
-0.00168979
0.00748939
-0.00268338
0.00750351
-0.0041167
0.00752646
-0.00542788
0.00756945
-0.00755378
-0.00993275
0.007476
0.0142946
0.00738883
0.0128059
0.00731829
0.0104911
0.00727107
0.00659427
0.00725265
0.00127612
0.007264
-0.00415008
0.00730274
-0.00827251
0.00736013
-0.0102164
0.00742268
-0.0101359
0.0074786
-0.00890874
0.007524
-0.00748476
0.00756116
-0.00636094
0.007593
-0.0055244
0.00762126
-0.00488034
0.00764642
-0.00430719
0.00766903
-0.00382773
0.00768904
-0.0033647
0.00770711
-0.0030074
0.00772296
-0.00263428
0.00773732
-0.00236905
0.00774967
-0.00205154
0.00776089
-0.00185667
0.00777008
-0.00155383
0.00777858
-0.00143275
0.00778499
-0.00113302
0.00779113
-0.00107766
0.00779503
-0.000764411
0.00779922
-0.000784757
0.0078008
-0.000427513
0.00780348
-0.000558533
0.00780295
-0.000128733
0.00780447
-0.000386667
0.00780188
0.00014716
0.00780265
-0.000295138
0.00779813
0.000366228
0.00779862
-0.000315272
0.00779229
0.000499707
0.00779339
-0.000535277
0.00778631
0.000415342
0.00779035
-0.00110652
0.00778614
-0.000112849
0.00779823
-0.00222563
0.0078029
-0.00114983
0.00782827
-0.0036037
0.00784369
-0.00193834
0.00787675
-0.00382749
0.00788605
-0.000376276
0.00789928
-0.000340987
0.00787844
0.00473661
0.00785041
0.0077735
0.00778751
0.0142321
0.00762694
0.0310019
0.0073518
0.0486467
0.00740173
-0.00502938
0.00760072
-0.0329166
0.00771247
-0.0208684
0.00772994
-0.00729819
0.00773546
-0.00387814
0.00771286
0.00137942
0.00771
-0.00037162
0.00769743
0.00160309
0.00770356
-0.000709598
0.00770007
0.000693916
0.00771012
-0.00116164
0.00771214
-3.29481e-05
0.00772364
-0.00131729
0.00772764
-0.000273238
0.0077366
-0.000999221
0.00773782
-1.73598e-05
0.00774078
-0.00035285
0.00773671
0.000531195
0.00773246
0.000472138
0.00772217
0.00122193
0.00771097
0.00127696
0.00769547
0.00182429
0.00767972
0.00184262
0.0076622
0.00211156
0.00764598
0.0020009
0.0076304
0.00200887
0.00761707
0.00180562
0.00760512
0.00169785
0.00759478
0.00152736
0.0075852
0.00141547
0.00757579
0.00134052
0.00756628
0.00124932
0.00755587
0.00123719
0.0075452
0.00111268
0.00753346
0.00107109
0.00752222
0.000816273
0.00751028
0.000664074
0.00750019
0.000214434
0.00749064
-0.000177097
0.00748492
-0.000883186
0.00748268
-0.00168755
0.00748676
-0.00268746
0.00750065
-0.00413059
0.0075234
-0.00545063
0.00756625
-0.00759664
-0.009992
0.00747605
0.0143943
0.00738899
0.012893
0.00731853
0.0105616
0.00727126
0.00664153
0.00725261
0.00129477
0.00726356
-0.00416103
0.00730185
-0.00831081
0.00735891
-0.0102735
0.00742126
-0.0101982
0.00747706
-0.00896455
0.00752232
-0.00753002
0.00755933
-0.00639795
0.00759102
-0.00555609
0.00761916
-0.00490847
0.00764422
-0.00433224
0.00766674
-0.00385026
0.00768668
-0.00338464
0.00770468
-0.0030254
0.00772049
-0.00265008
0.0077348
-0.00238336
0.00774711
-0.00206386
0.00775829
-0.00186785
0.00776746
-0.00156299
0.00777592
-0.00144121
0.0077823
-0.0011394
0.00778842
-0.00108378
0.00779229
-0.000768286
0.00779645
-0.000788916
0.007798
-0.000429063
0.00780065
-0.000561185
0.0078001
-0.000128178
0.00780159
-0.000388156
0.00779897
0.000149776
0.00779971
-0.000295878
0.00779515
0.000370792
0.00779559
-0.000315719
0.00778921
0.000506092
0.00779025
-0.000536316
0.00778308
0.000422506
0.00778704
-0.00111049
0.00778272
-0.000108526
0.00779474
-0.00223764
0.00779933
-0.00115443
0.00782471
-0.00362908
0.00784019
-0.00195382
0.00787339
-0.0038607
0.00788285
-0.000385736
0.0078963
-0.000354434
0.00787566
0.00475725
0.00784814
0.00780102
0.00778596
0.0142943
0.00762667
0.0311612
0.00735322
0.0489202
0.00740346
-0.00507961
0.00760152
-0.0331147
0.0077124
-0.0209792
0.00772912
-0.00731491
0.00773421
-0.00388324
0.00771137
0.00140226
0.00770839
-0.000368642
0.00769578
0.0016157
0.00770191
-0.000715735
0.00769844
0.000697393
0.00770851
-0.00117172
0.00771055
-3.49848e-05
0.00772208
-0.00132882
0.00772611
-0.000277272
0.00773511
-0.00100821
0.00773634
-1.85945e-05
0.00773932
-0.000355831
0.00773526
0.000535256
0.00773101
0.000476386
0.00772071
0.00123223
0.00770949
0.00128818
0.00769395
0.00183983
0.00767816
0.00185841
0.0076606
0.00212912
0.00764434
0.00201716
0.00762874
0.00202447
0.0076154
0.00181896
0.00760347
0.00170978
0.00759315
0.00153768
0.00758359
0.00142502
0.0075742
0.00134991
0.00756469
0.00125883
0.00755426
0.00124761
0.00754357
0.00112338
0.00753177
0.00108288
0.00752047
0.000827575
0.00750843
0.000676109
0.00749824
0.00022463
0.00748854
-0.000167403
0.00748267
-0.000877316
0.00748023
-0.00168511
0.00748411
-0.00269134
0.00749778
-0.00414425
0.00752031
-0.00547316
0.00756303
-0.00763936
-0.0100511
0.0074761
0.014494
0.00738915
0.0129799
0.00731877
0.0106319
0.00727145
0.00668885
0.00725257
0.00131365
0.00726312
-0.00417158
0.00730097
-0.00834865
0.00735768
-0.0103302
0.00741984
-0.0102604
0.00747552
-0.00902023
0.00752063
-0.00757513
0.00755749
-0.00643481
0.00758903
-0.00558763
0.00761705
-0.00493649
0.007642
-0.00435719
0.00766443
-0.00387269
0.0076843
-0.00340451
0.00770224
-0.00304334
0.007718
-0.00266584
0.00773226
-0.00239763
0.00774454
-0.00207614
0.00775568
-0.00187899
0.00776481
-0.00157212
0.00777325
-0.00144965
0.0077796
-0.00114575
0.00778569
-0.00108987
0.00778954
-0.000772133
0.00779367
-0.00079305
0.00779519
-0.000430584
0.00779782
-0.000563811
0.00779723
-0.000127594
0.00779869
-0.000389618
0.00779604
0.000152426
0.00779676
-0.000296589
0.00779215
0.000375398
0.00779256
-0.000316127
0.00778611
0.000512537
0.00778709
-0.000537298
0.00777984
0.000429759
0.00778372
-0.00111436
0.00777929
-0.000104093
0.00779122
-0.00224958
0.00779575
-0.00115896
0.00782113
-0.00365447
0.00783667
-0.00196935
0.00787002
-0.00389405
0.00787964
-0.000395355
0.00789331
-0.000368101
0.00787286
0.0047777
0.00784584
0.00782804
0.0077844
0.0143558
0.00762638
0.0313192
0.00735465
0.0491919
0.0074052
-0.00513015
0.00760232
-0.0333118
0.00771231
-0.0210892
0.00772828
-0.00733088
0.00773295
-0.00388791
0.00770987
0.00142535
0.00770678
-0.000365552
0.00769412
0.00162836
0.00770026
-0.000721877
0.0076968
0.000700856
0.0077069
-0.00118182
0.00770896
-3.70428e-05
0.00772052
-0.00134038
0.00772458
-0.000281336
0.00773361
-0.00101724
0.00773486
-1.9851e-05
0.00773786
-0.00035883
0.00773381
0.000539309
0.00772956
0.000480633
0.00771925
0.00124255
0.007708
0.00129943
0.00769243
0.0018554
0.0076766
0.00187424
0.00765899
0.00214673
0.0076427
0.00203345
0.00762707
0.00204009
0.00761373
0.0018323
0.00760181
0.0017217
0.00759152
0.00154797
0.00758198
0.00143456
0.0075726
0.00135929
0.00756309
0.00126835
0.00755265
0.00125805
0.00754192
0.00113411
0.00753008
0.00109473
0.00751871
0.000838943
0.00750658
0.000688238
0.00749628
0.000234932
0.00748644
-0.000157564
0.00748042
-0.000871295
0.00747777
-0.00168246
0.00748146
-0.00269503
0.00749488
-0.00415768
0.00751721
-0.00549549
0.00755979
-0.00768194
-0.0101101
0.00747615
0.0145936
0.0073893
0.0130668
0.00731901
0.0107022
0.00727166
0.0067362
0.00725254
0.00133277
0.00726269
-0.00418173
0.00730009
-0.00838605
0.00735645
-0.0103866
0.00741841
-0.0103223
0.00747396
-0.00907578
0.00751894
-0.00762011
0.00755564
-0.00647151
0.00758704
-0.00561903
0.00761492
-0.00496438
0.00763977
-0.00438204
0.00766212
-0.00389504
0.00768191
-0.00342431
0.00769979
-0.00306122
0.00771549
-0.00268154
0.00772971
-0.00241185
0.00774195
-0.00208837
0.00775306
-0.0018901
0.00776216
-0.00158122
0.00777056
-0.00145805
0.00777688
-0.00115207
0.00778295
-0.00109593
0.00778677
-0.000775951
0.00779087
-0.000797157
0.00779237
-0.000432077
0.00779497
-0.000566411
0.00779435
-0.000126979
0.00779579
-0.000391054
0.0077931
0.00015511
0.00779379
-0.000297269
0.00778914
0.000380047
0.00778951
-0.000316497
0.007783
0.000519042
0.00778393
-0.000538222
0.00777658
0.000437101
0.00778038
-0.00111816
0.00777583
-9.95496e-05
0.00778769
-0.00226143
0.00779214
-0.00116342
0.00781754
-0.00367986
0.00783313
-0.00198494
0.00786663
-0.00392756
0.00787641
-0.000405133
0.0078903
-0.000381987
0.00787004
0.00479796
0.00784353
0.00785455
0.00778282
0.0144165
0.00762609
0.0314759
0.00735609
0.0494619
0.00740694
-0.00518101
0.00760312
-0.033508
0.00771221
-0.0211983
0.00772743
-0.0073461
0.00773167
-0.00389214
0.00770835
0.00144867
0.00770515
-0.000362354
0.00769245
0.00164107
0.00769859
-0.000728027
0.00769515
0.000704303
0.00770528
-0.00119195
0.00770736
-3.9124e-05
0.00771895
-0.00135197
0.00772304
-0.000285429
0.0077321
-0.00102629
0.00773338
-2.11302e-05
0.0077364
-0.000361846
0.00773235
0.000543354
0.0077281
0.00048488
0.00771778
0.00125287
0.00770651
0.00131069
0.0076909
0.00187101
0.00767503
0.00189012
0.00765738
0.00216438
0.00764105
0.00204978
0.0076254
0.00205574
0.00761206
0.00184564
0.00760015
0.00173361
0.00758988
0.00155825
0.00758036
0.00144408
0.007571
0.00136866
0.00756149
0.00127785
0.00755104
0.0012685
0.00754028
0.00114487
0.00752838
0.00110663
0.00751694
0.000850378
0.00750472
0.00070046
0.00749431
0.000245341
0.00748432
-0.000147576
0.00747815
-0.000865123
0.0074753
-0.0016796
0.00747879
-0.00269852
0.00749198
-0.00417087
0.00751409
-0.0055176
0.00755653
-0.00772439
-0.010169
0.00747621
0.0146931
0.00738947
0.0131535
0.00731926
0.0107724
0.00727186
0.0067836
0.00725252
0.00135211
0.00726227
-0.00419148
0.00729921
-0.00842299
0.00735522
-0.0104426
0.00741697
-0.0103841
0.0074724
-0.0091312
0.00751723
-0.00766495
0.00755378
-0.00650806
0.00758503
-0.00565028
0.00761279
-0.00499213
0.00763753
-0.00440677
0.00765979
-0.0039173
0.00767951
-0.00344403
0.00769733
-0.00307904
0.00771298
-0.00269719
0.00772715
-0.00242602
0.00773935
-0.00210057
0.00775043
-0.00190118
0.00775949
-0.00159028
0.00776786
-0.00146642
0.00777416
-0.00115837
0.00778019
-0.00110197
0.00778398
-0.000779741
0.00778806
-0.000801238
0.00778953
-0.000433542
0.0077921
-0.000568986
0.00779146
-0.000126335
0.00779287
-0.000392464
0.00779015
0.000157827
0.0077908
-0.00029792
0.00778611
0.000384738
0.00778644
-0.000316828
0.00777988
0.000525605
0.00778074
-0.000539089
0.00777331
0.000444533
0.00777702
-0.00112186
0.00777237
-9.48953e-05
0.00778413
-0.0022732
0.00778852
-0.00116781
0.00781392
-0.00370526
0.00782957
-0.00200059
0.00786323
-0.00396122
0.00787316
-0.00041507
0.00788727
-0.000396093
0.00786721
0.00481802
0.0078412
0.00788056
0.00778122
0.0144765
0.00762579
0.0316314
0.00735754
0.0497302
0.0074087
-0.00523217
0.00760392
-0.0337032
0.00771211
-0.0213065
0.00772657
-0.00736056
0.00773038
-0.00389595
0.00770681
0.00147223
0.00770351
-0.00035905
0.00769076
0.00165381
0.00769692
-0.000734186
0.00769349
0.000707734
0.00770365
-0.00120211
0.00770576
-4.12281e-05
0.00771738
-0.00136359
0.0077215
-0.000289553
0.00773059
-0.00103538
0.00773189
-2.24323e-05
0.00773493
-0.00036488
0.00773089
0.000547392
0.00772665
0.000489125
0.00771631
0.00126321
0.00770502
0.00132198
0.00768937
0.00188666
0.00767346
0.00190603
0.00765576
0.00218207
0.0076394
0.00206615
0.00762373
0.00207141
0.00761038
0.00185899
0.00759849
0.0017455
0.00758824
0.0015685
0.00757874
0.00145357
0.00756939
0.00137801
0.00755988
0.00128736
0.00754942
0.00127897
0.00753863
0.00115566
0.00752668
0.00111858
0.00751517
0.000861881
0.00750286
0.000712778
0.00749234
0.000255857
0.0074822
-0.00013744
0.00747588
-0.000858797
0.00747281
-0.00167653
0.0074761
-0.00270182
0.00748905
-0.00418381
0.00751095
-0.00553949
0.00755325
-0.00776669
-0.0102277
0.00747626
0.0147926
0.00738963
0.0132402
0.00731951
0.0108426
0.00727207
0.00683104
0.0072525
0.00137168
0.00726184
-0.00420082
0.00729833
-0.00845948
0.00735398
-0.0104982
0.00741553
-0.0104457
0.00747082
-0.00918649
0.00751552
-0.00770965
0.00755191
-0.00654445
0.00758301
-0.00568137
0.00761064
-0.00501977
0.00763527
-0.0044314
0.00765744
-0.00393947
0.00767709
-0.00346368
0.00769485
-0.0030968
0.00771045
-0.00271279
0.00772458
-0.00244015
0.00773674
-0.00211273
0.00774778
-0.00191222
0.00775681
-0.00159931
0.00776515
-0.00147477
0.00777142
-0.00116463
0.00777742
-0.00110797
0.00778118
-0.000783503
0.00778524
-0.000805293
0.00778668
-0.000434978
0.00778922
-0.000571534
0.00778855
-0.000125661
0.00778993
-0.000393847
0.00778718
0.000160579
0.0077878
-0.000298541
0.00778307
0.000389473
0.00778336
-0.000317121
0.00777674
0.000532229
0.00777755
-0.000539897
0.00777002
0.000452055
0.00777365
-0.00112549
0.00776888
-9.01285e-05
0.00778057
-0.00228488
0.00778488
-0.00117212
0.00781029
-0.00373066
0.00782599
-0.00201629
0.0078598
-0.00399503
0.0078699
-0.000425168
0.00788422
-0.000410419
0.00786435
0.00483789
0.00783885
0.00790606
0.0077796
0.0145357
0.00762547
0.0317855
0.00735899
0.0499966
0.00741047
-0.00528365
0.00760472
-0.0338975
0.00771199
-0.0214138
0.00772569
-0.00737425
0.00772907
-0.00389933
0.00770527
0.00149603
0.00770186
-0.000355639
0.00768907
0.00166659
0.00769524
-0.000740354
0.00769183
0.000711146
0.00770202
-0.0012123
0.00770415
-4.33562e-05
0.0077158
-0.00137525
0.00771996
-0.000293709
0.00772908
-0.0010445
0.00773041
-2.37581e-05
0.00773346
-0.000367932
0.00772943
0.000551421
0.00772518
0.00049337
0.00771484
0.00127356
0.00770352
0.0013333
0.00768784
0.00190234
0.00767188
0.00192199
0.00765414
0.00219981
0.00763774
0.00208255
0.00762204
0.0020871
0.0076087
0.00187234
0.00759681
0.00175738
0.00758659
0.00157872
0.00757712
0.00146304
0.00756778
0.00138735
0.00755828
0.00129687
0.00754779
0.00128945
0.00753697
0.00116648
0.00752497
0.00113058
0.0075134
0.000873452
0.00750098
0.000725192
0.00749036
0.000266482
0.00748007
-0.000127153
0.00747359
-0.000852316
0.00747031
-0.00167325
0.00747341
-0.00270491
0.00748611
-0.00419652
0.00750778
-0.00556117
0.00754995
-0.00780886
-0.0102862
0.00747631
0.014892
0.00738979
0.0133267
0.00731976
0.0109126
0.00727228
0.00687852
0.00725248
0.00139148
0.00726143