/*--------------------------------*- C++ -*----------------------------------*\
| =========                 |                                                 |
| \\      /  F ield         | OpenFOAM: The Open Source CFD Toolbox           |
|  \\    /   O peration     | Version:  2412                                  |
|   \\  /    A nd           | Website:  www.openfoam.com                      |
|    \\/     M anipulation  |                                                 |
\*---------------------------------------------------------------------------*/
FoamFile
{
    version     2.0;
    format      ascii;
    arch        "LSB;label=32;scalar=64";
    class       volVectorField;
    location    "0.4";
    object      U;
}
// * * * * * * * * * * * * * * * * * * * * * * * * * * * * * * * * * * * * * //

dimensions      [0 1 -1 0 0 0 0];

internalField   nonuniform List<vector> 
12960
(
(100.008 -0.47159 0)
(100.17 -1.45108 -4.32184e-17)
(100.537 -2.97442 -8.09478e-17)
(101.188 -5.54117 0)
(102.277 -9.0629 -3.89084e-17)
(103.847 -12.7047 0)
(105.93 -15.5465 0)
(108.437 -17.0338 0)
(111.221 -17.2783 4.16652e-17)
(114.041 -16.8226 4.09219e-17)
(116.818 -16.2544 0)
(119.517 -15.8658 0)
(122.253 -15.6608 0)
(124.986 -15.5763 0)
(127.826 -15.5482 3.48952e-17)
(130.672 -15.5844 -6.79893e-17)
(133.67 -15.6529 0)
(136.666 -15.7859 -3.23121e-17)
(139.87 -15.9344 0)
(143.05 -16.1499 3.06344e-17)
(146.509 -16.362 2.98342e-17)
(149.907 -16.6519 -2.89274e-17)
(153.679 -16.9172 2.81308e-17)
(157.329 -17.2813 0)
(161.482 -17.5939 0)
(165.422 -18.0387 0)
(170.041 -18.3951 0)
(174.312 -18.9332 2.35591e-17)
(179.508 -19.3315 0)
(184.154 -19.9819 -4.33498e-17)
(190.071 -20.4214 7.97249e-22)
(195.142 -21.2107 -1.97391e-17)
(201.964 -21.6937 7.42351e-22)
(207.516 -22.6593 -3.54844e-17)
(215.492 -23.1953 -1.7226e-17)
(221.589 -24.3856 0)
(231.047 -25.0003 0)
(237.778 -26.4891 1.35398e-17)
(249.173 -27.2555 -3.61968e-22)
(256.706 -29.1539 2.2643e-17)
(270.712 -30.199 0)
(279.403 -32.6112 -1.13613e-21)
(297.005 -34.0186 9.69062e-23)
(307.475 -36.8693 -6.81407e-18)
(329.957 -38.4627 -1.59094e-17)
(342.896 -41.2446 4.55651e-18)
(371.386 -42.4319 0)
(386.898 -44.3115 0)
(421.915 -45.2408 -4.68179e-18)
(440.632 -45.5698 -6.78316e-19)
(483.101 -46.4852 -2.871e-18)
(507.155 -38.6686 0)
(548.036 -36.268 0)
(574.621 1.23198 5.17499e-19)
(548.105 17.4997 4.63092e-19)
(539.367 26.0819 5.5141e-18)
(502.873 31.6719 -8.38314e-19)
(486.712 32.6688 0)
(454.138 33.6023 0)
(438.986 31.4605 -1.08186e-18)
(413.136 30.8229 2.24294e-18)
(400.252 28.4833 0)
(379.742 27.8684 0)
(368.385 25.9058 2.42857e-18)
(351.796 25.4042 0)
(341.623 23.8781 -8.68308e-22)
(327.93 23.5329 0)
(318.649 22.4135 0)
(307.014 22.1683 -6.63615e-18)
(298.393 21.3416 0)
(288.248 21.1497 -4.16123e-22)
(280.184 20.5289 -7.98305e-18)
(271.169 20.3371 0)
(263.619 19.8231 -9.14132e-18)
(255.519 19.5738 9.85569e-18)
(248.504 19.0778 0)
(241.222 18.7185 1.0951e-17)
(234.809 18.184 -1.14237e-17)
(228.315 17.7269 2.40495e-17)
(222.547 17.1896 1.25013e-17)
(216.774 16.7089 0)
(211.609 16.2323 -1.35251e-17)
(206.424 15.7886 0)
(201.761 15.4038 1.45327e-17)
(197.012 15.001 0)
(192.761 14.6818 -1.556e-17)
(188.333 14.2748 -1.60294e-17)
(184.455 13.9674 -1.66207e-17)
(180.282 13.5028 0)
(176.79 13.1482 0)
(172.836 12.5789 1.81314e-17)
(169.781 12.1061 0)
(166.038 11.3946 0)
(163.508 10.7053 -4.64365e-22)
(160.022 9.82862 -2.60007e-22)
(158.137 8.80442 2.14043e-17)
(155.05 7.76458 -2.14749e-17)
(153.939 6.38261 2.26785e-17)
(151.483 4.72474 -2.25941e-17)
(100.008 -0.476042 0)
(100.171 -1.46417 -4.31961e-17)
(100.54 -2.99932 4.04478e-17)
(101.191 -5.58292 0)
(102.279 -9.12543 -1.15027e-21)
(103.844 -12.7887 0)
(105.92 -15.6499 0)
(108.421 -17.1507 0)
(111.201 -17.4 -4.17358e-17)
(114.019 -16.9419 -4.09789e-17)
(116.794 -16.369 0)
(119.491 -15.9772 3.82648e-17)
(122.223 -15.7707 3.69683e-17)
(124.954 -15.6859 0)
(127.792 -15.6578 -3.48938e-17)
(130.635 -15.6946 6.79863e-17)
(133.632 -15.7638 -3.31712e-17)
(136.625 -15.8979 6.46208e-17)
(139.827 -16.0477 0)
(143.005 -16.2648 -3.06345e-17)
(146.463 -16.4784 -2.98345e-17)
(149.859 -16.7705 -2.89281e-17)
(153.629 -17.0375 -2.81298e-17)
(157.277 -17.4043 0)
(161.428 -17.719 -2.63923e-17)
(165.366 -18.167 2.53939e-17)
(169.984 -18.5259 0)
(174.252 -19.0678 -2.35586e-17)
(179.447 -19.4688 0)
(184.09 -20.1239 2.16752e-17)
(190.004 -20.5663 7.99669e-22)
(195.072 -21.3613 3.94794e-17)
(201.892 -21.8474 7.45143e-22)
(207.441 -22.82 1.7743e-17)
(215.413 -23.3593 0)
(221.506 -24.5581 -1.56824e-17)
(230.96 -25.1763 0)
(237.685 -26.6756 0)
(249.076 -27.4463 1.33752e-17)
(256.601 -29.3582 -1.13221e-17)
(270.601 -30.4097 1.14527e-17)
(279.281 -32.8396 9.06486e-18)
(296.877 -34.2569 1.02038e-22)
(307.337 -37.1296 6.8134e-18)
(329.817 -38.7358 7.9543e-18)
(342.748 -41.5402 -4.55634e-18)
(371.242 -42.7373 0)
(386.748 -44.6328 -2.10111e-18)
(421.774 -45.5715 -4.6839e-18)
(440.484 -45.911 -6.75975e-19)
(482.995 -46.8449 2.8705e-18)
(507.078 -38.9859 0)
(548.083 -36.5878 1.24319e-18)
(574.788 1.23402 8.85307e-22)
(548.191 17.6566 0)
(539.398 26.3008 -5.5143e-18)
(502.842 31.9273 8.3827e-19)
(486.652 32.9224 0)
(454.059 33.856 -1.42025e-18)
(438.903 31.6934 2.16366e-18)
(413.051 31.0482 0)
(400.171 28.69 0)
(379.663 28.0705 0)
(368.31 26.0932 -2.42865e-18)
(351.724 25.5881 -4.38934e-18)
(341.555 24.0506 4.02848e-18)
(327.865 23.7032 0)
(318.588 22.5757 -5.46631e-18)
(306.956 22.3295 1.32724e-17)
(298.337 21.4972 0)
(288.194 21.3044 7.71918e-18)
(280.132 20.6795 0)
(271.118 20.4868 0)
(263.569 19.9693 9.14072e-18)
(255.469 19.7184 0)
(248.455 19.2187 -1.02889e-17)
(241.173 18.8568 0)
(234.76 18.3179 2.28476e-17)
(228.267 17.857 -1.20249e-17)
(222.499 17.3152 -1.25016e-17)
(216.727 16.8307 1.30435e-17)
(211.564 16.3504 1.35248e-17)
(206.38 15.9035 0)
(201.719 15.5161 -1.45316e-17)
(196.972 15.1109 1.50164e-17)
(192.72 14.79 1.55585e-17)
(188.293 14.3806 3.20555e-17)
(184.415 14.0718 0)
(180.241 13.6044 0)
(176.748 13.2482 1.77192e-17)
(172.793 12.6754 3.28103e-23)
(169.736 12.2004 0)
(165.991 11.4842 1.9218e-17)
(163.459 10.7908 -2.00977e-17)
(159.969 9.90787 -2.46813e-22)
(158.082 8.87603 2.13972e-17)
(154.99 7.82844 -2.14675e-17)
(153.879 6.43304 2.2672e-17)
(151.42 4.76299 0)
(100.008 -0.480527 0)
(100.172 -1.47733 4.31706e-17)
(100.542 -3.02426 0)
(101.195 -5.62458 0)
(102.281 -9.18771 3.89183e-17)
(103.841 -12.8723 0)
(105.91 -15.753 0)
(108.405 -17.2674 0)
(111.181 -17.5216 0)
(113.997 -17.0611 0)
(116.77 -16.4835 3.97474e-17)
(119.464 -16.0883 -3.82844e-17)
(122.194 -15.8804 -3.69758e-17)
(124.921 -15.7953 3.58446e-17)
(127.757 -15.7673 0)
(130.598 -15.8047 -3.39912e-17)
(133.592 -15.8746 3.31688e-17)
(136.584 -16.0099 -6.4618e-17)
(139.784 -16.1607 0)
(142.96 -16.3795 6.12664e-17)
(146.416 -16.5947 5.96669e-17)
(149.811 -16.8889 2.89268e-17)
(153.579 -17.1578 0)
(157.226 -17.5272 -2.71825e-17)
(161.374 -17.8441 5.27838e-17)
(165.311 -18.2953 1.00002e-21)
(169.926 -18.6565 0)
(174.192 -19.2023 -2.35602e-17)
(179.384 -19.606 0)
(184.026 -20.2658 0)
(189.937 -20.711 -2.09839e-17)
(195.003 -21.5118 1.16966e-21)
(201.819 -22.001 -1.91195e-17)
(207.365 -22.9805 1.77455e-17)
(215.334 -23.523 0)
(221.423 -24.7304 1.56826e-17)
(230.873 -25.3521 0)
(237.593 -26.8619 -1.35442e-17)
(248.979 -27.6368 0)
(256.496 -29.5622 0)
(270.489 -30.6201 -2.29049e-17)
(279.159 -33.0676 0)
(296.749 -34.4948 -9.6184e-18)
(307.198 -37.3896 6.81512e-18)
(329.676 -39.0086 -7.95437e-18)
(342.599 -41.8356 0)
(371.098 -43.0425 0)
(386.596 -44.954 4.20392e-18)
(421.632 -45.9021 4.68339e-18)
(440.335 -46.2522 6.7571e-19)
(482.889 -47.2049 -2.86901e-18)
(507 -39.3037 0)
(548.13 -36.9088 -1.24058e-18)
(574.957 1.2359 -1.03124e-18)
(548.278 17.8142 0)
(539.428 26.5203 0)
(502.811 32.1831 0)
(486.591 33.1761 -2.85644e-18)
(453.98 34.1098 1.42035e-18)
(438.819 31.9262 -1.08178e-18)
(412.966 31.2734 0)
(400.089 28.8965 7.09996e-19)
(379.584 28.2724 0)
(368.235 26.2806 -2.43002e-18)
(351.653 25.772 4.38943e-18)
(341.487 24.2231 4.03032e-18)
(327.801 23.8734 -5.53069e-18)
(318.527 22.7379 5.46628e-18)
(306.898 22.4906 3.76586e-22)
(298.281 21.6526 0)
(288.141 21.4591 7.7197e-18)
(280.08 20.83 0)
(271.068 20.6365 0)
(263.519 20.1155 9.14139e-18)
(255.42 19.863 9.85549e-18)
(248.405 19.3597 2.05774e-17)
(241.124 18.9949 -1.09511e-17)
(234.71 18.4517 2.34102e-22)
(228.218 17.987 0)
(222.451 17.4408 2.50034e-17)
(216.681 16.9524 -2.60868e-17)
(211.518 16.4684 1.2948e-23)
(206.337 16.0183 1.40277e-17)
(201.677 15.6283 1.45306e-17)
(196.931 15.2207 1.13699e-22)
(192.68 14.898 0)
(188.254 14.4864 -1.60261e-17)
(184.375 14.1761 0)
(180.201 13.7061 0)
(176.707 13.3483 -1.85689e-22)
(172.75 12.772 -1.81254e-17)
(169.692 12.2947 1.88713e-17)
(165.944 11.5738 -7.33013e-23)
(163.41 10.8765 0)
(159.915 9.98717 -2.03356e-17)
(158.027 8.94772 -3.64051e-22)
(154.929 7.89235 2.14608e-17)
(153.818 6.48347 -2.26655e-17)
(151.357 4.80122 0)
(100.008 -0.485043 0)
(100.174 -1.49055 0)
(100.545 -3.04929 4.04e-17)
(101.198 -5.66628 0)
(102.282 -9.24996 3.89254e-17)
(103.838 -12.9557 0)
(105.9 -15.8559 0)
(108.389 -17.3838 4.1852e-17)
(111.161 -17.643 0)
(113.975 -17.1801 -4.10978e-17)
(116.746 -16.5978 7.99619e-22)
(119.437 -16.1993 3.83058e-17)
(122.164 -15.9899 3.69849e-17)
(124.889 -15.9045 -3.58458e-17)
(127.722 -15.8767 0)
(130.561 -15.9146 -3.39904e-17)
(133.553 -15.9852 3.31678e-17)
(136.543 -16.1216 6.46151e-17)
(139.741 -16.2737 0)
(142.915 -16.4942 -3.06319e-17)
(146.369 -16.7108 -5.96655e-17)
(149.762 -17.0071 0)
(153.528 -17.2779 0)
(157.174 -17.65 2.71816e-17)
(161.32 -17.9689 -5.27838e-17)
(165.255 -18.4233 -5.07879e-17)
(169.868 -18.787 0)
(174.132 -19.3367 2.35597e-17)
(179.322 -19.743 0)
(183.961 -20.4075 0)
(189.87 -20.8556 0)
(194.933 -21.6621 -1.97412e-17)
(201.747 -22.1543 0)
(207.289 -23.1409 -1.77456e-17)
(215.254 -23.6866 0)
(221.339 -24.9025 -1.56854e-17)
(230.785 -25.5276 0)
(237.5 -27.048 2.70902e-17)
(248.88 -27.8271 -1.33766e-17)
(256.389 -29.7659 -1.13256e-17)
(270.377 -30.8301 2.29048e-17)
(279.036 -33.2953 0)
(296.62 -34.7324 -9.61785e-18)
(307.058 -37.6494 1.2312e-21)
(329.534 -39.2811 7.95374e-18)
(342.45 -42.1307 -4.56055e-18)
(370.952 -43.3474 -6.41424e-18)
(386.444 -45.2748 -2.10282e-18)
(421.489 -46.2324 0)
(440.185 -46.5934 6.73356e-19)
(482.782 -47.565 -2.86851e-18)
(506.921 -39.6221 0)
(548.176 -37.231 1.23452e-18)
(575.126 1.23763 -8.9679e-22)
(548.364 17.9724 0)
(539.458 26.7402 0)
(502.778 32.4393 -8.37294e-19)
(486.529 33.43 2.8566e-18)
(453.9 34.3635 0)
(438.735 32.159 1.08129e-18)
(412.88 31.4985 2.24079e-18)
(400.006 29.1029 -7.10032e-19)
(379.504 28.4743 0)
(368.16 26.4678 -6.65894e-22)
(351.581 25.9557 0)
(341.419 24.3955 -4.0304e-18)
(327.736 24.0435 -2.52657e-22)
(318.465 22.9 -5.46815e-18)
(306.839 22.6516 -1.32733e-17)
(298.225 21.808 -6.77511e-18)
(288.087 21.6138 -7.71939e-18)
(280.027 20.9805 7.98496e-18)
(271.017 20.7861 0)
(263.469 20.2617 -1.82821e-17)
(255.371 20.0076 -9.85487e-18)
(248.356 19.5006 -1.02884e-17)
(241.075 19.1331 1.09508e-17)
(234.661 18.5855 -2.28485e-17)
(228.17 18.117 -1.20253e-17)
(222.403 17.5663 -2.50037e-17)
(216.634 17.074 2.60866e-17)
(211.473 16.5863 -2.70479e-17)
(206.294 16.133 4.28382e-23)
(201.635 15.7405 -2.90591e-17)
(196.89 15.3304 -3.0028e-17)
(192.64 15.0061 0)
(188.214 14.5922 -1.60247e-17)
(184.335 14.2804 0)
(180.161 13.8078 0)
(176.665 13.4484 -1.77137e-17)
(172.707 12.8686 1.81224e-17)
(169.647 12.3891 -1.88677e-17)
(165.897 11.6634 -3.84191e-17)
(163.361 10.9621 0)
(159.861 10.0665 0)
(157.972 9.01943 -4.2768e-17)
(154.868 7.95625 2.14533e-17)
(153.757 6.53385 2.2659e-17)
(151.292 4.83938 0)
(100.008 -0.489593 4.58105e-17)
(100.175 -1.50385 -4.31254e-17)
(100.548 -3.07436 -8.07498e-17)
(101.202 -5.70794 3.88779e-17)
(102.284 -9.31202 -3.89303e-17)
(103.834 -13.0389 0)
(105.89 -15.9584 -4.11163e-17)
(108.373 -17.5 -4.19243e-17)
(111.141 -17.7643 0)
(113.953 -17.299 -8.56682e-22)
(116.722 -16.7119 -3.98255e-17)
(119.41 -16.3101 7.72118e-22)
(122.134 -16.0993 -3.69926e-17)
(124.856 -16.0136 0)
(127.686 -15.9859 0)
(130.523 -16.0243 3.3988e-17)
(133.513 -16.0957 -3.31654e-17)
(136.501 -16.2333 -3.23057e-17)
(139.697 -16.3865 0)
(142.87 -16.6086 3.06319e-17)
(146.322 -16.8269 2.98317e-17)
(149.714 -17.1253 0)
(153.478 -17.3979 0)
(157.121 -17.7726 0)
(161.266 -18.0937 2.63915e-17)
(165.199 -18.5513 2.53937e-17)
(169.81 -18.9173 0)
(174.072 -19.4709 0)
(179.259 -19.8798 0)
(183.896 -20.549 2.16788e-17)
(189.802 -21 0)
(194.863 -21.8122 0)
(201.673 -22.3075 0)
(207.212 -23.301 0)
(215.174 -23.8499 1.72301e-17)
(221.255 -25.0744 -1.27585e-21)
(230.697 -25.7029 1.53151e-17)
(237.406 -27.2338 -1.3546e-17)
(248.782 -28.0171 1.33768e-17)
(256.283 -29.9694 1.13256e-17)
(270.264 -31.0398 -1.14522e-17)
(278.913 -33.5226 -9.06802e-18)
(296.491 -34.9697 1.92343e-17)
(306.917 -37.9087 -6.81494e-18)
(329.391 -39.5533 -7.95384e-18)
(342.299 -42.4255 4.56037e-18)
(370.806 -43.6521 6.41449e-18)
(386.29 -45.5955 0)
(421.345 -46.5625 0)
(440.033 -46.9344 -6.73092e-19)
(482.674 -47.9254 2.86703e-18)
(506.841 -39.941 0)
(548.223 -37.5542 -1.23193e-18)
(575.297 1.2392 5.13828e-19)
(548.451 18.1313 0)
(539.487 26.9607 0)
(502.744 32.6959 8.37317e-19)
(486.466 33.684 2.85533e-18)
(453.819 34.6173 -1.41911e-18)
(438.65 32.3917 -2.16243e-18)
(412.793 31.7235 -2.24088e-18)
(399.923 29.3092 7.10969e-19)
(379.424 28.676 0)
(368.085 26.6549 2.4308e-18)
(351.509 26.1393 0)
(341.351 24.5677 -4.03226e-18)
(327.671 24.2135 5.53107e-18)
(318.404 23.062 5.46811e-18)
(306.781 22.8125 6.6367e-18)
(298.169 21.9633 1.35507e-17)
(288.033 21.7683 7.7199e-18)
(279.975 21.131 7.9788e-22)
(270.967 20.9357 0)
(263.419 20.4078 1.82822e-17)
(255.322 20.1522 0)
(248.307 19.6415 1.02889e-17)
(241.026 19.2712 0)
(234.612 18.7193 -2.38154e-22)
(228.121 18.247 1.20254e-17)
(222.355 17.6917 2.50041e-17)
(216.588 17.1956 -2.60864e-17)
(211.428 16.7041 1.35236e-17)
(206.25 16.2477 -1.40263e-17)
(201.592 15.8527 1.45285e-17)
(196.849 15.4402 3.00255e-17)
(192.599 15.114 0)
(188.174 14.6979 1.6023e-17)
(184.294 14.3847 0)
(180.12 13.9094 0)
(176.623 13.5484 0)
(172.664 12.9652 -3.62387e-17)
(169.602 12.4834 0)
(165.849 11.753 3.84105e-17)
(163.311 11.0479 0)
(159.807 10.1458 0)
(157.916 9.09121 2.13774e-17)
(154.807 8.0202 -2.14465e-17)
(153.695 6.58423 -2.26524e-17)
(151.228 4.87753 0)
(100.008 -0.494175 -4.57965e-17)
(100.176 -1.51722 8.62022e-17)
(100.551 -3.09949 4.03501e-17)
(101.205 -5.74957 -7.77287e-17)
(102.285 -9.37393 0)
(103.831 -13.1218 0)
(105.88 -16.0607 -1.06272e-21)
(108.357 -17.616 0)
(111.121 -17.8854 -4.20303e-17)
(113.931 -17.4178 -8.64658e-22)
(116.697 -16.826 0)
(119.383 -16.4208 -3.83471e-17)
(122.103 -16.2085 0)
(124.823 -16.1225 0)
(127.651 -16.0949 0)
(130.485 -16.134 0)
(133.473 -16.2061 0)
(136.459 -16.3448 0)
(139.654 -16.4992 -3.15052e-17)
(142.825 -16.723 8.53988e-22)
(146.275 -16.9428 0)
(149.665 -17.2433 0)
(153.427 -17.5178 -2.81296e-17)
(157.069 -17.8951 0)
(161.212 -18.2183 0)
(165.142 -18.6791 0)
(169.751 -19.0475 0)
(174.012 -19.6049 2.35619e-17)
(179.196 -20.0165 2.28192e-17)
(183.831 -20.6904 -2.16785e-17)
(189.734 -21.1443 -2.09866e-17)
(194.792 -21.9622 0)
(201.6 -22.4605 0)
(207.136 -23.461 0)
(215.094 -24.0131 -1.72303e-17)
(221.171 -25.2461 -1.28545e-21)
(230.609 -25.878 -1.53154e-17)
(237.312 -27.4194 -1.35489e-17)
(248.683 -28.2068 1.33778e-17)
(256.176 -30.1726 -1.1328e-17)
(270.151 -31.2492 1.14524e-17)
(278.789 -33.7497 9.06753e-18)
(296.361 -35.2066 -9.61644e-18)
(306.776 -38.1678 0)
(329.248 -39.8252 7.95325e-18)
(342.148 -42.7201 -4.56332e-18)
(370.659 -43.9565 -6.41672e-18)
(386.136 -45.9159 0)
(421.201 -46.8924 0)
(439.881 -47.2754 0)
(482.565 -48.2859 0)
(506.759 -40.2605 0)
(548.269 -37.8787 0)
(575.469 1.2406 -5.14099e-19)
(548.538 18.2909 4.36041e-19)
(539.516 27.1818 5.52687e-18)
(502.71 32.9527 8.36703e-19)
(486.402 33.9382 -2.85554e-18)
(453.737 34.8711 1.41918e-18)
(438.564 32.6243 1.08112e-18)
(412.706 31.9484 0)
(399.84 29.5154 -7.10997e-19)
(379.344 28.8776 0)
(368.009 26.8419 0)
(351.436 26.3229 0)
(341.282 24.7398 4.03233e-18)
(327.606 24.3834 0)
(318.342 23.2239 5.47e-18)
(306.722 22.9733 6.6373e-18)
(298.113 22.1186 9.09943e-22)
(287.98 21.9228 -7.71957e-18)
(279.923 21.2813 -7.98488e-18)
(270.916 21.0852 8.78115e-18)
(263.369 20.5538 -9.14076e-18)
(255.273 20.2967 0)
(248.257 19.7824 -1.02884e-17)
(240.977 19.4093 0)
(234.562 18.853 1.14246e-17)
(228.072 18.3769 0)
(222.306 17.8171 6.91137e-23)
(216.541 17.3171 1.30431e-17)
(211.382 16.8219 0)
(206.207 16.3624 0)
(201.55 15.9647 0)
(196.808 15.5498 -1.50115e-17)
(192.559 15.222 0)
(188.134 14.8036 0)
(184.254 14.489 0)
(180.079 14.0111 -1.70557e-17)
(176.582 13.6485 0)
(172.621 13.0618 1.81163e-17)
(169.557 12.5778 0)
(165.801 11.8427 -1.92009e-17)
(163.262 11.1337 0)
(159.753 10.2253 0)
(157.86 9.16306 0)
(154.745 8.08419 0)
(153.633 6.6346 0)
(151.163 4.91567 0)
(100.008 -0.49879 0)
(100.177 -1.53066 -4.3077e-17)
(100.554 -3.12467 0)
(101.209 -5.79118 3.88511e-17)
(102.287 -9.43569 0)
(103.828 -13.2044 0)
(105.87 -16.1626 4.12307e-17)
(108.341 -17.7317 4.20738e-17)
(111.101 -18.0063 4.21048e-17)
(113.909 -17.5365 8.25601e-17)
(116.673 -16.9399 3.99071e-17)
(119.356 -16.5313 0)
(122.073 -16.3175 0)
(124.79 -16.2313 3.58526e-17)
(127.615 -16.2039 0)
(130.447 -16.2435 0)
(133.433 -16.3163 0)
(136.417 -16.4562 0)
(139.61 -16.6118 3.15033e-17)
(142.779 -16.8372 -6.12597e-17)
(146.227 -17.0585 0)
(149.615 -17.3612 0)
(153.376 -17.6375 5.62578e-17)
(157.016 -18.0174 0)
(161.157 -18.3428 0)
(165.086 -18.8067 -2.53954e-17)
(169.692 -19.1775 0)
(173.951 -19.7389 -2.35614e-17)
(179.133 -20.1531 -2.28188e-17)
(183.766 -20.8317 0)
(189.666 -21.2884 2.09864e-17)
(194.721 -22.112 -1.97457e-17)
(201.526 -22.6133 0)
(207.059 -23.6208 0)
(215.014 -24.1761 -1.72319e-17)
(221.086 -25.4175 1.56888e-17)
(230.52 -26.0528 0)
(237.218 -27.6048 1.35492e-17)
(248.583 -28.3963 -1.3378e-17)
(256.068 -30.3755 2.26572e-17)
(270.037 -31.4583 1.99421e-22)
(278.664 -33.9764 -9.06945e-18)
(296.23 -35.4432 0)
(306.634 -38.4266 0)
(329.104 -40.0969 0)
(341.995 -43.0144 4.56316e-18)
(370.511 -44.2607 6.41701e-18)
(385.981 -46.2361 0)
(421.055 -47.2221 0)
(439.727 -47.6163 -6.69353e-19)
(482.455 -48.6466 0)
(506.677 -40.5806 0)
(548.314 -38.2043 0)
(575.642 1.24185 5.12579e-19)
(548.625 18.4511 -4.35622e-19)
(539.544 27.4034 -5.52916e-18)
(502.674 33.21 -1.67324e-18)
(486.336 34.1925 0)
(453.654 35.1249 0)
(438.478 32.8569 0)
(412.618 32.1732 0)
(399.756 29.7214 -7.11943e-19)
(379.263 29.079 0)
(367.932 27.0288 -2.43293e-18)
(351.364 26.5063 0)
(341.213 24.9119 0)
(327.541 24.5532 0)
(318.28 23.3857 -5.46996e-18)
(306.664 23.1341 -1.32747e-17)
(298.056 22.2737 -6.77626e-18)
(287.926 22.0773 0)
(279.871 21.4316 7.98605e-18)
(270.865 21.2347 -8.78056e-18)
(263.319 20.6999 0)
(255.223 20.4412 0)
(248.208 19.9232 0)
(240.927 19.5474 1.09508e-17)
(234.513 18.9867 -1.1425e-17)
(228.023 18.5067 1.20259e-17)
(222.258 17.9425 -2.50048e-17)
(216.494 17.4385 -1.3043e-17)
(211.337 16.9396 0)
(206.163 16.4769 0)
(201.508 16.0768 0)
(196.767 15.6594 0)
(192.518 15.3299 1.55509e-17)
(188.094 14.9093 1.60199e-17)
(184.213 14.5932 0)
(180.039 14.1127 -1.32762e-22)
(176.54 13.7486 0)
(172.578 13.1584 0)
(169.512 12.6723 0)
(165.753 11.9323 0)
(163.212 11.2195 0)
(159.698 10.3047 0)
(157.804 9.23497 0)
(154.682 8.14822 0)
(153.57 6.68496 0)
(151.097 4.9538 0)
(100.008 -0.503439 0)
(100.179 -1.54417 4.30558e-17)
(100.557 -3.14992 -4.0305e-17)
(101.212 -5.83276 3.88404e-17)
(102.288 -9.4973 0)
(103.825 -13.2868 0)
(105.86 -16.2643 4.12903e-17)
(108.324 -17.8472 9.7276e-22)
(111.08 -18.1271 0)
(113.886 -17.6551 -4.1342e-17)
(116.648 -17.0536 -3.99475e-17)
(119.328 -16.6416 3.8391e-17)
(122.042 -16.4264 0)
(124.757 -16.3399 -3.5854e-17)
(127.579 -16.3127 0)
(130.409 -16.3529 0)
(133.393 -16.4264 -3.31611e-17)
(136.375 -16.5675 3.23023e-17)
(139.565 -16.7243 3.15029e-17)
(142.733 -16.9514 6.12581e-17)
(146.18 -17.1742 0)
(149.566 -17.479 -2.8926e-17)
(153.324 -17.7572 8.42985e-22)
(156.963 -18.1397 0)
(161.102 -18.4671 0)
(165.029 -18.9343 -1.03325e-21)
(169.633 -19.3074 0)
(173.89 -19.8726 0)
(179.069 -20.2894 2.28201e-17)
(183.7 -20.9728 2.16813e-17)
(189.597 -21.4323 -2.09879e-17)
(194.65 -22.2617 -1.21146e-21)
(201.451 -22.766 -1.91241e-17)
(206.981 -23.7804 0)
(214.933 -24.3388 -6.85911e-22)
(221.001 -25.5888 1.56917e-17)
(230.431 -26.2274 1.53178e-17)
(237.123 -27.7899 0)
(248.483 -28.5855 1.3379e-17)
(255.96 -30.578 -1.13292e-17)
(269.923 -31.6671 -1.14521e-17)
(278.539 -34.2027 9.06898e-18)
(296.099 -35.6794 9.6153e-18)
(306.492 -38.685 0)
(328.959 -40.3682 0)
(341.842 -43.3085 4.56617e-18)
(370.363 -44.5647 -6.41932e-18)
(385.825 -46.5561 -2.11217e-18)
(420.909 -47.5516 0)
(439.572 -47.9572 1.33709e-18)
(482.344 -49.0075 2.86472e-18)
(506.593 -40.9012 0)
(548.36 -38.5311 -1.21723e-18)
(575.816 1.24292 -5.12908e-19)
(548.712 18.6121 -4.26827e-19)
(539.572 27.6255 0)
(502.637 33.4676 8.3658e-19)
(486.27 34.4469 0)
(453.571 35.3787 1.41788e-18)
(438.391 33.0894 0)
(412.53 32.3979 2.23849e-18)
(399.672 29.9274 7.11965e-19)
(379.182 29.2804 0)
(367.856 27.2155 2.43296e-18)
(351.291 26.6896 0)
(341.144 25.0838 0)
(327.476 24.7228 0)
(318.218 23.5474 -5.47188e-18)
(306.605 23.2947 6.63735e-18)
(298 22.4288 -6.77787e-18)
(287.872 22.2316 0)
(279.818 21.5819 -1.5972e-17)
(270.815 21.3841 0)
(263.269 20.8458 -9.14144e-18)
(255.174 20.5857 0)
(248.158 20.064 -1.02888e-17)
(240.878 19.6854 -1.09505e-17)
(234.463 19.1204 2.28502e-17)
(227.974 18.6365 -1.2026e-17)
(222.209 18.0677 2.50052e-17)
(216.447 17.5599 1.30429e-17)
(211.291 17.0573 0)
(206.119 16.5914 0)
(201.465 16.1887 0)
(196.726 15.769 -1.50091e-17)
(192.478 15.4378 -1.55493e-17)
(188.054 15.0149 -1.60181e-17)
(184.173 14.6975 -1.66063e-17)
(179.998 14.2143 -1.35068e-22)
(176.497 13.8487 -1.77018e-17)
(172.534 13.2551 0)
(169.467 12.7667 0)
(165.705 12.0221 0)
(163.162 11.3054 0)
(159.643 10.3842 -2.03048e-17)
(157.748 9.30695 2.13561e-17)
(154.62 8.21228 0)
(153.507 6.73531 0)
(151.031 4.9919 2.2562e-17)
(100.008 -0.508121 0)
(100.18 -1.55775 -4.3031e-17)
(100.56 -3.17523 4.02803e-17)
(101.216 -5.87432 -7.76558e-17)
(102.29 -9.55877 0)
(103.822 -13.3689 4.00156e-17)
(105.85 -16.3656 1.08962e-21)
(108.308 -17.9624 -8.44497e-17)
(111.06 -18.2477 -4.22593e-17)
(113.864 -17.7735 0)
(116.623 -17.1672 -3.99901e-17)
(119.3 -16.7518 -7.68251e-17)
(122.012 -16.5352 -3.70282e-17)
(124.723 -16.4484 0)
(127.543 -16.4213 0)
(130.371 -16.4621 0)
(133.352 -16.5364 3.31587e-17)
(136.332 -16.6786 -6.4601e-17)
(139.521 -16.8366 -3.1501e-17)
(142.687 -17.0654 -6.12565e-17)
(146.132 -17.2897 2.983e-17)
(149.516 -17.5966 -9.24892e-22)
(153.273 -17.8766 8.48804e-22)
(156.91 -18.2618 0)
(161.046 -18.5913 2.63926e-17)
(164.972 -19.0617 2.53951e-17)
(169.574 -19.4372 -2.46224e-17)
(173.828 -20.0062 0)
(179.006 -20.4257 -2.28197e-17)
(183.633 -21.1137 -2.1681e-17)
(189.528 -21.576 2.09877e-17)
(194.579 -22.4111 1.97468e-17)
(201.377 -22.9184 1.91241e-17)
(206.903 -23.9399 1.77538e-17)
(214.851 -24.5014 1.72331e-17)
(220.916 -25.7599 1.31433e-21)
(230.341 -26.4018 5.63131e-22)
(237.027 -27.9747 1.35539e-17)
(248.383 -28.7744 -1.33793e-17)
(255.851 -30.7803 -1.13318e-17)
(269.808 -31.8755 0)
(278.413 -34.4288 -9.07096e-18)
(295.967 -35.9153 -1.92293e-17)
(306.348 -38.9431 0)
(328.813 -40.6393 7.95298e-18)
(341.688 -43.6023 -4.56603e-18)
(370.213 -44.8684 6.41965e-18)
(385.668 -46.8758 2.11212e-18)
(420.762 -47.8809 0)
(439.415 -48.298 -1.10983e-21)
(482.232 -49.3686 5.37181e-22)
(506.508 -41.2224 0)
(548.405 -38.859 1.21471e-18)
(575.992 1.24384 5.11425e-19)
(548.799 18.7737 4.26e-21)
(539.599 27.8482 5.54022e-18)
(502.599 33.7256 -8.36061e-19)
(486.203 34.7014 2.85344e-18)
(453.486 35.6324 -1.41794e-18)
(438.303 33.3218 0)
(412.44 32.6225 -6.48731e-22)
(399.587 30.1332 0)
(379.1 29.4816 0)
(367.779 27.4022 0)
(351.218 26.8728 0)
(341.075 25.2556 -4.03618e-18)
(327.41 24.8924 -5.53257e-18)
(318.156 23.709 5.47182e-18)
(306.546 23.4553 0)
(297.944 22.5838 6.77763e-18)
(287.818 22.3859 0)
(279.766 21.7321 -8.2327e-22)
(270.764 21.5335 0)
(263.219 20.9918 9.14077e-18)
(255.124 20.7301 0)
(248.108 20.2048 2.0577e-17)
(240.828 19.8234 0)
(234.413 19.254 2.4432e-22)
(227.924 18.7662 1.20263e-17)
(222.161 18.193 -1.25028e-17)
(216.4 17.6812 1.30429e-17)
(211.245 17.1748 1.3522e-17)
(206.075 16.7058 0)
(201.422 16.3006 0)
(196.685 15.8785 3.00157e-17)
(192.437 15.5456 0)
(188.014 15.1205 0)
(184.132 14.8017 4.43077e-23)
(179.957 14.316 -1.37355e-22)
(176.455 13.9488 3.53978e-17)
(172.491 13.3517 1.81069e-17)
(169.422 12.8612 0)
(165.657 12.1118 0)
(163.111 11.3914 0)
(159.588 10.4637 2.02987e-17)
(157.691 9.37899 -3.79358e-22)
(154.557 8.27639 0)
(153.444 6.78566 0)
(150.965 5.02998 -2.25578e-17)
(100.008 -0.512837 0)
(100.181 -1.5714 4.30102e-17)
(100.563 -3.2006 0)
(101.219 -5.91587 3.88158e-17)
(102.292 -9.62009 -3.89673e-17)
(103.82 -13.4508 -8.00967e-17)
(105.84 -16.4667 -4.14076e-17)
(108.292 -18.0773 -9.89e-22)
(111.04 -18.3682 -9.58734e-22)
(113.841 -17.8918 0)
(116.598 -17.2807 4.00315e-17)
(119.273 -16.8619 7.68695e-17)
(121.981 -16.6437 7.40735e-17)
(124.689 -16.5567 0)
(127.507 -16.5298 3.48886e-17)
(130.332 -16.5712 0)
(133.312 -16.6462 -3.31578e-17)
(136.29 -16.7897 3.22987e-17)
(139.476 -16.9488 0)
(142.641 -17.1792 6.12549e-17)
(146.083 -17.4051 -5.96579e-17)
(149.466 -17.7142 2.89244e-17)
(153.221 -17.996 8.5463e-22)
(156.856 -18.3837 0)
(160.991 -18.7154 -2.63918e-17)
(164.914 -19.1889 2.53965e-17)
(169.514 -19.5668 2.46218e-17)
(173.766 -20.1397 0)
(178.941 -20.5618 0)
(183.567 -21.2545 0)
(189.459 -21.7196 0)
(194.507 -22.5604 1.97492e-17)
(201.302 -23.0707 1.91258e-17)
(206.825 -24.0991 -1.77539e-17)
(214.77 -24.6637 -1.72347e-17)
(220.83 -25.9307 1.32395e-21)
(230.251 -26.576 -1.53192e-17)
(236.932 -28.1593 -1.35543e-17)
(248.282 -28.963 0)
(255.742 -30.9823 -1.29515e-21)
(269.692 -32.0836 0)
(278.286 -34.6545 9.07051e-18)
(295.834 -36.1509 9.61397e-18)
(306.204 -39.2009 0)
(328.667 -40.91 -7.95244e-18)
(341.534 -43.8958 0)
(370.063 -45.1718 0)
(385.51 -47.1954 0)
(420.614 -48.2099 0)
(439.258 -48.6387 -6.66375e-19)
(482.119 -49.7298 5.46334e-22)
(506.421 -41.5441 0)
(548.45 -39.1882 1.20864e-18)
(576.168 1.24458 -5.11814e-19)
(548.886 18.9361 4.29726e-21)
(539.626 28.0715 -1.10901e-17)
(502.56 33.9839 1.67221e-18)
(486.135 34.9561 -2.85384e-18)
(453.401 35.8862 0)
(438.214 33.5541 0)
(412.351 32.8469 -6.53376e-22)
(399.501 30.3388 7.1341e-19)
(379.018 29.6827 0)
(367.702 27.5887 0)
(351.144 27.0558 4.38946e-18)
(341.005 25.4273 -9.39664e-22)
(327.345 25.0619 5.5326e-18)
(318.094 23.8705 0)
(306.487 23.6158 0)
(297.887 22.7388 -6.77926e-18)
(287.764 22.5402 7.72035e-18)
(279.713 21.8822 -8.29615e-22)
(270.713 21.6828 8.78042e-18)
(263.169 21.1377 -9.14146e-18)
(255.074 20.8745 0)
(248.058 20.3455 -2.05769e-17)
(240.779 19.9613 -1.09505e-17)
(234.363 19.3875 -1.14255e-17)
(227.875 18.8959 -1.20264e-17)
(222.112 18.3181 0)
(216.353 17.8025 -2.60855e-17)
(211.199 17.2923 -2.70432e-17)
(206.032 16.8202 0)
(201.38 16.4124 0)
(196.644 15.988 -3.00132e-17)
(192.396 15.6534 0)
(187.974 15.2261 1.6015e-17)
(184.091 14.9059 4.32381e-23)
(179.916 14.4176 -1.39635e-22)
(176.413 14.0489 -3.53917e-17)
(172.447 13.4484 -3.62073e-17)
(169.376 12.9558 0)
(165.608 12.2016 0)
(163.06 11.4774 0)
(159.532 10.5433 0)
(157.634 9.4511 -3.84617e-22)
(154.494 8.34053 0)
(153.38 6.83599 0)
(150.898 5.06805 0)
(100.008 -0.517588 0)
(100.183 -1.58513 -4.29857e-17)
(100.566 -3.22603 4.02372e-17)
(101.223 -5.95739 0)
(102.294 -9.68127 3.89741e-17)
(103.817 -13.5323 -1.17894e-21)
(105.831 -16.5674 -4.14687e-17)
(108.276 -18.1921 -9.97119e-22)
(111.019 -18.4885 8.48318e-17)
(113.818 -18.01 0)
(116.573 -17.394 0)
(119.245 -16.9717 -3.84568e-17)
(121.95 -16.7521 -7.40916e-17)
(124.656 -16.6649 0)
(127.47 -16.6382 -3.48872e-17)
(130.294 -16.6802 0)
(133.271 -16.7559 3.31554e-17)
(136.247 -16.9005 -3.22982e-17)
(139.432 -17.0609 0)
(142.594 -17.293 -6.12533e-17)
(146.035 -17.5204 5.96567e-17)
(149.416 -17.8316 -2.89251e-17)
(153.169 -18.1152 -2.81276e-17)
(156.802 -18.5056 0)
(160.935 -18.8393 2.63927e-17)
(164.856 -19.316 -2.53958e-17)
(169.454 -19.6963 0)
(173.704 -20.273 2.3565e-17)
(178.877 -20.6977 0)
(183.5 -21.3951 0)
(189.389 -21.863 0)
(194.434 -22.7095 1.23746e-21)
(201.227 -23.2228 -3.82524e-17)
(206.747 -24.2581 0)
(214.687 -24.8259 3.44707e-17)
(220.743 -26.1013 1.33359e-21)
(230.161 -26.7499 -1.53207e-17)
(236.836 -28.3437 0)
(248.181 -29.1514 0)
(255.632 -31.184 2.26676e-17)
(269.576 -32.2914 0)
(278.159 -34.8798 0)
(295.701 -36.3861 9.61349e-18)
(306.059 -39.4584 0)
(328.52 -41.1804 0)
(341.378 -44.1891 -4.5706e-18)
(369.912 -45.4751 0)
(385.351 -47.5147 0)
(420.465 -48.5387 0)
(439.099 -48.9793 6.63863e-19)
(482.006 -50.0913 -2.86152e-18)
(506.334 -41.8665 -3.91629e-18)
(548.494 -39.5186 -1.7896e-21)
(576.346 1.24516 1.53297e-18)
(548.974 19.0992 4.33506e-21)
(539.652 28.2953 5.55051e-18)
(502.52 34.2426 -3.58295e-22)
(486.066 35.2109 0)
(453.314 36.14 1.41659e-18)
(438.125 33.7864 0)
(412.26 33.0712 -2.23722e-18)
(399.416 30.5443 4.78151e-22)
(378.936 29.8836 0)
(367.624 27.775 -2.43582e-18)
(351.07 27.2388 -4.38948e-18)
(340.936 25.5989 4.03721e-18)
(327.279 25.2313 0)
(318.031 24.0319 0)
(306.428 23.7762 -6.63838e-18)
(297.83 22.8936 -9.4604e-22)
(287.71 22.6943 -7.71999e-18)
(279.661 22.0322 7.98669e-18)
(270.662 21.8321 4.2801e-22)
(263.118 21.2835 1.82822e-17)
(255.025 21.0188 0)
(248.008 20.4862 2.05768e-17)
(240.729 20.0992 1.09502e-17)
(234.313 19.5211 0)
(227.825 19.0256 -1.20267e-17)
(222.063 18.4432 0)
(216.305 17.9236 2.60854e-17)
(211.153 17.4098 1.35212e-17)
(205.987 16.9345 0)
(201.337 16.5242 0)
(196.602 16.0974 3.00106e-17)
(192.355 15.7611 -1.55445e-17)
(187.933 15.3317 -1.60132e-17)
(184.05 15.0101 3.31999e-17)
(179.875 14.5192 1.70445e-17)
(176.37 14.149 1.76929e-17)
(172.403 13.545 1.81004e-17)
(169.33 13.0503 0)
(165.56 12.2914 -1.91784e-17)
(163.01 11.5635 0)
(159.476 10.623 -2.02855e-17)
(157.577 9.52328 -2.13347e-17)
(154.43 8.40471 0)
(153.316 6.88631 0)
(150.831 5.1061 0)