/*--------------------------------*- C++ -*----------------------------------*\
| =========                 |                                                 |
| \\      /  F ield         | OpenFOAM: The Open Source CFD Toolbox           |
|  \\    /   O peration     | Version:  2412                                  |
|   \\  /    A nd           | Website:  www.openfoam.com                      |
|    \\/     M anipulation  |                                                 |
\*---------------------------------------------------------------------------*/
FoamFile
{
    version     2.0;
    format      ascii;
    arch        "LSB;label=32;scalar=64";
    class       volScalarField;
    location    "0.2";
    object      epsilon;
}
// * * * * * * * * * * * * * * * * * * * * * * * * * * * * * * * * * * * * * //

dimensions      [0 2 -3 0 0 0 0];

internalField   nonuniform List<scalar> 
13068
(
381.184
402.833
457.83
534.987
595.516
619.988
619.367
610.167
601.027
594.252
589.775
587.437
586.839
588.042
590.611
594.836
600.185
607.239
615.256
625.221
636.025
649.25
663.172
680.276
697.85
719.803
741.855
770.169
797.97
834.968
870.427
919.853
966.273
1034.14
1096.16
1191.55
1276.94
1415.42
1536.37
1740.76
1910.39
2203.34
2419.78
2801.84
3031.75
3464.03
3681.78
4181.06
4525.69
4793.52
4934.29
3592.78
2606.72
1047.4
920.473
1424.04
1937.56
2090.2
2154.92
1988.44
1895.54
1690.48
1586.65
1433.15
1365.62
1263.67
1220.44
1147.74
1113.61
1059.22
1029.82
985.597
955.824
915.563
883.32
845.502
814.22
782.062
755.472
730.102
708.767
688.963
671.124
654.314
637.931
622.09
605.611
589.206
571.75
554.03
535.376
516.228
496.796
477.022
458.139
439.933
424.163
411.021
400.973
381.192
402.858
457.861
535.023
595.576
620.075
619.466
610.264
601.119
594.34
589.859
587.52
586.921
588.123
590.693
594.918
600.268
607.324
615.343
625.311
636.119
649.348
663.273
680.382
697.961
719.921
741.982
770.308
798.122
835.139
870.618
920.063
966.496
1034.38
1096.42
1191.84
1277.27
1415.79
1536.79
1741.26
1910.98
2204.06
2420.62
2802.85
3032.9
3465.27
3683.06
4182.32
4526.86
4794.79
4935.2
3593.74
2607.68
1047.42
920.143
1423.49
1937.36
2090.25
2155.24
1988.66
1895.74
1690.7
1586.94
1433.43
1365.85
1263.84
1220.63
1147.95
1113.81
1059.41
1030
985.79
956.017
915.747
883.493
845.664
814.371
782.197
755.596
730.219
708.878
689.066
671.222
654.407
638.023
622.178
605.698
589.285
571.819
554.083
535.414
516.243
496.791
476.996
458.094
439.873
424.088
410.941
400.906
381.206
402.902
457.92
535.084
595.652
620.17
619.568
610.363
601.213
594.429
589.945
587.604
587.005
588.207
590.777
595.003
600.354
607.412
615.434
625.405
636.215
649.448
663.377
680.491
698.076
720.043
742.112
770.449
798.277
835.312
870.81
920.273
966.72
1034.62
1096.68
1192.13
1277.59
1416.16
1537.2
1741.75
1911.54
2204.74
2421.41
2803.81
3033.97
3466.39
3684.16
4183.35
4527.7
4795.65
4935.52
3594.01
2608.01
1046.99
919.228
1422.29
1936.5
2089.73
2155.09
1988.51
1895.64
1690.69
1587.05
1433.55
1365.95
1263.9
1220.73
1148.08
1113.95
1059.54
1030.14
985.941
956.175
915.9
883.639
845.805
814.502
782.315
755.704
730.323
708.977
689.159
671.311
654.494
638.109
622.263
605.781
589.361
571.888
554.136
535.451
516.259
496.789
476.972
458.052
439.815
424.016
410.863
400.841
381.226
402.965
458.009
535.171
595.741
620.268
619.668
610.458
601.301
594.513
590.027
587.685
587.085
588.287
590.858
595.086
600.438
607.498
615.522
625.496
636.309
649.545
663.478
680.597
698.187
720.161
742.238
770.586
798.426
835.479
870.994
920.474
966.932
1034.85
1096.92
1192.4
1277.88
1416.49
1537.57
1742.18
1912.04
2205.35
2422.12
2804.64
3034.87
3467.32
3685.01
4184.07
4528.09
4795.98
4935.15
3593.51
2607.65
1046.1
917.732
1420.41
1934.95
2088.6
2154.43
1987.94
1895.19
1690.42
1586.94
1433.5
1365.91
1263.84
1220.72
1148.12
1114.01
1059.6
1030.21
986.037
956.284
916.01
883.748
845.913
814.605
782.408
755.79
730.406
709.059
689.237
671.387
654.569
638.185
622.339
605.856
589.431
571.951
554.184
535.485
516.272
496.784
476.947
458.009
439.758
423.944
410.787
400.777
381.252
403.049
458.129
535.283
595.842
620.367
619.764
610.546
601.383
594.591
590.103
587.76
587.161
588.363
590.934
595.163
600.518
607.58
615.605
625.582
636.398
649.638
663.574
680.697
698.292
720.273
742.356
770.714
798.565
835.634
871.165
920.659
967.126
1035.05
1097.14
1192.64
1278.13
1416.77
1537.89
1742.55
1912.47
2205.86
2422.71
2805.34
3035.6
3468.02
3685.57
4184.43
4528
4795.75
4934.04
3592.21
2606.61
1044.74
915.663
1417.88
1932.74
2086.85
2153.25
1986.95
1894.4
1689.88
1586.62
1433.26
1365.7
1263.64
1220.6
1148.06
1113.98
1059.58
1030.21
986.074
956.339
916.073
883.816
845.985
814.675
782.471
755.85
730.466
709.119
689.295
671.446
654.629
638.248
622.403
605.922
589.493
572.008
554.227
535.515
516.281
496.777
476.92
457.965
439.7
423.873
410.711
400.714
381.283
403.153
458.28
535.42
595.954
620.466
619.853
610.626
601.457
594.661
590.172
587.829
587.23
588.433
591.005
595.236
600.592
607.656
615.684
625.663
636.481
649.724
663.664
680.791
698.389
720.376
742.465
770.832
798.693
835.776
871.321
920.828
967.301
1035.24
1097.33
1192.84
1278.35
1417.02
1538.16
1742.86
1912.82
2206.28
2423.18
2805.88
3036.13
3468.48
3685.83
4184.43
4527.43
4794.95
4932.2
3590.13
2604.89
1042.93
913.036
1414.7
1929.85
2084.51
2151.56
1985.54
1893.27
1689.07
1586.07
1432.85
1365.34
1263.32
1220.36
1147.9
1113.86
1059.49
1030.15
986.05
956.341
916.088
883.841
846.02
814.712
782.504
755.882
730.501
709.157
689.335
671.488
654.674
638.298
622.455
605.977
589.545
572.056
554.263
535.539
516.287
496.766
476.891
457.92
439.641
423.801
410.636
400.652
381.32
403.277
458.462
535.583
596.077
620.565
619.937
610.699
601.522
594.724
590.233
587.891
587.292
588.497
591.071
595.303
600.66
607.726
615.756
625.737
636.558
649.804
663.747
680.877
698.479
720.47
742.566
770.94
798.809
835.905
871.462
920.98
967.456
1035.4
1097.5
1193.01
1278.54
1417.21
1538.37
1743.1
1913.09
2206.6
2423.53
2806.27
3036.47
3468.72
3685.79
4184.06
4526.37
4793.59
4929.64
3587.28
2602.51
1040.69
909.869
1410.91
1926.32
2081.58
2149.38
1983.73
1891.8
1688
1585.31
1432.25
1364.83
1262.86
1220
1147.65
1113.66
1059.33
1030.02
985.967
956.289
916.056
883.824
846.017
814.716
782.507
755.887
730.511
709.173
689.355
671.513
654.704
638.334
622.495
606.022
589.589
572.097
554.293
535.557
516.288
496.752
476.859
457.873
439.581
423.73
410.562
400.59
381.362
403.421
458.674
535.771
596.211
620.664
620.015
610.763
601.579
594.778
590.287
587.946
587.349
588.555
591.13
595.363
600.723
607.79
615.822
625.806
636.629
649.877
663.822
680.955
698.561
720.556
742.657
771.037
798.914
836.021
871.589
921.114
967.591
1035.53
1097.63
1193.15
1278.68
1417.36
1538.53
1743.28
1913.28
2206.83
2423.76
2806.52
3036.62
3468.72
3685.47
4183.35
4524.85
4791.7
4926.39
3583.7
2599.51
1038.04
906.187
1406.53
1922.18
2078.08
2146.71
1981.52
1890.01
1686.67
1584.35
1431.49
1364.17
1262.27
1219.54
1147.29
1113.38
1059.09
1029.83
985.826
956.184
915.977
883.766
845.979
814.687
782.481
755.865
730.498
709.168
689.356
671.522
654.719
638.357
622.524
606.057
589.624
572.13
554.317
535.571
516.285
496.735
476.825
457.824
439.521
423.658
410.489
400.529
381.411
403.586
458.917
535.984
596.357
620.763
620.086
610.819
601.628
594.824
590.334
587.994
587.398
588.606
591.183
595.418
600.779
607.849
615.883
625.869
636.694
649.944
663.891
681.027
698.635
720.634
742.738
771.124
799.008
836.124
871.7
921.231
967.707
1035.65
1097.74
1193.26
1278.79
1417.47
1538.63
1743.39
1913.4
2206.96
2423.88
2806.63
3036.59
3468.51
3684.86
4182.29
4522.89
4789.29
4922.49
3579.42
2595.92
1035
902.014
1401.59
1917.44
2074.05
2143.59
1978.95
1887.92
1685.1
1583.18
1430.56
1363.37
1261.57
1218.96
1146.85
1113.01
1058.78
1029.57
985.63
956.03
915.854
883.669
845.905
814.628
782.427
755.818
730.462
709.143
689.339
671.514
654.72
638.368
622.542
606.082
589.65
572.156
554.335
535.581
516.279
496.716
476.79
457.774
439.46
423.587
410.416
400.468
381.465
403.77
459.19
536.221
596.513
620.862
620.152
610.867
601.668
594.862
590.373
588.035
587.441
588.651
591.23
595.467
600.83
607.902
615.938
625.925
636.752
650.005
663.953
681.091
698.701
720.703
742.811
771.201
799.089
836.213
871.797
921.332
967.804
1035.74
1097.83
1193.34
1278.86
1417.53
1538.68
1743.44
1913.44
2207
2423.89
2806.6
3036.39
3468.08
3683.99
4180.91
4520.5
4786.39
4917.98
3574.48
2591.77
1031.59
897.38
1396.12
1912.15
2069.52
2140.04
1976.01
1885.53
1683.3
1581.83
1429.48
1362.44
1260.75
1218.29
1146.32
1112.57
1058.4
1029.26
985.38
955.828
915.688
883.534
845.798
814.538
782.347
755.747
730.404
709.098
689.305
671.491
654.708
638.366
622.549
606.098
589.669
572.176
554.348
535.585
516.269
496.694
476.752
457.724
439.399
423.515
410.344
400.408
381.525
403.975
459.494
536.484
596.68
620.96
620.211
610.906
601.699
594.892
590.404
588.068
587.478
588.69
591.271
595.51
600.875
607.949
615.987
625.976
636.805
650.058
664.009
681.148
698.76
720.764
742.874
771.268
799.16
836.291
871.879
921.416
967.882
1035.81
1097.89
1193.39
1278.89
1417.56
1538.69
1743.44
1913.41
2206.96
2423.79
2806.44
3036.02
3467.46
3682.87
4179.23
4517.71
4783.04
4912.89
3568.92
2587.12
1027.86
892.317
1390.16
1906.33
2064.51
2136.08
1972.75
1882.86
1681.29
1580.3
1428.25
1361.38
1259.82
1217.53
1145.71
1112.05
1057.96
1028.88
985.08
955.58
915.482
883.364
845.66
814.421
782.24
755.652
730.325
709.034
689.254
671.454
654.683
638.354
622.547
606.105
589.681
572.19
554.355
535.587
516.257
496.67
476.714
457.672
439.337
423.444
410.272
400.348
381.591
404.2
459.828
536.771
596.859
621.059
620.265
610.938
601.722
594.914
590.428
588.095
587.507
588.722
591.306
595.548
600.915
607.991
616.03
626.021
636.851
650.106
664.057
681.198
698.811
720.817
742.929
771.325
799.22
836.355
871.948
921.484
967.942
1035.86
1097.92
1193.41
1278.89
1417.54
1538.65
1743.37
1913.32
2206.84
2423.6
2806.15
3035.5
3466.64
3681.5
4177.26
4514.54
4779.27
4907.27
3562.79
2582
1023.82
886.86
1383.76
1900.04
2059.06
2131.74
1969.18
1879.94
1679.08
1578.61
1426.89
1360.2
1258.79
1216.67
1145.02
1111.47
1057.46
1028.46
984.732
955.29
915.237
883.159
845.492
814.276
782.11
755.536
730.226
708.953
689.188
671.403
654.646
638.33
622.535
606.104
589.686
572.197
554.359
535.584
516.242
496.645
476.674
457.621
439.276
423.374
410.202
400.29
381.662
404.444
460.192
537.082
597.047
621.157
620.313
610.961
601.737
594.928
590.444
588.115
587.53
588.749
591.335
595.579
600.948
608.026
616.067
626.06
636.891
650.147
664.1
681.241
698.855
720.862
742.975
771.373
799.27
836.408
872.003
921.537
967.984
1035.89
1097.94
1193.4
1278.86
1417.48
1538.56
1743.26
1913.16
2206.64
2423.32
2805.76
3034.83
3465.65
3679.91
4175.02
4511.03
4775.11
4901.17
3556.13
2576.47
1019.51
881.047
1376.95
1893.31
2053.21
2127.06
1965.33
1876.79
1676.68
1576.77
1425.4
1358.91
1257.67
1215.74
1144.26
1110.82
1056.91
1027.99
984.341
954.96
914.958
882.924
845.296
814.107
781.957
755.399
730.108
708.855
689.107
671.339
654.597
638.297
622.515
606.096
589.684
572.2
554.358
535.579
516.225
496.618
476.634
457.569
439.215
423.304
410.134
400.233
381.739
404.709
460.586
537.417
597.247
621.256
620.355
610.976
601.743
594.933
590.453
588.127
587.547
588.768
591.357
595.605
600.976
608.056
616.099
626.093
636.926
650.183
664.135
681.277
698.891
720.899
743.013
771.412
799.309
836.449
872.045
921.575
968.01
1035.89
1097.93
1193.37
1278.8
1417.39
1538.43
1743.09
1912.94
2206.37
2422.95
2805.25
3034.03
3464.5
3678.12
4172.54
4507.2
4770.59
4894.64
3549.01
2570.57
1014.98
874.915
1369.78
1886.18
2047
2122.06
1961.22
1873.42
1674.12
1574.79
1423.8
1357.53
1256.47
1214.73
1143.43
1110.12
1056.31
1027.47
983.909
954.593
914.646
882.659
845.075
813.915
781.783
755.243
729.974
708.741
689.012
671.264
654.539
638.255
622.487
606.08
589.677
572.198
554.354
535.571
516.207
496.59
476.594
457.518
439.155
423.235
410.066
400.177
381.822
404.994
461.01
537.777
597.457
621.354
620.391
610.983
601.74
594.931
590.454
588.133
587.556
588.782
591.374
595.624
600.998
608.08
616.125
626.12
636.954
650.212
664.165
681.307
698.921
720.929
743.043
771.442
799.339
836.479
872.074
921.599
968.02
1035.89
1097.89
1193.31
1278.71
1417.26
1538.26
1742.87
1912.67
2206.03
2422.5
2804.65
3033.1
3463.19
3676.13
4169.83
4503.09
4765.77
4887.73
3541.46
2564.36
1010.24
868.507
1362.3
1878.7
2040.47
2116.78
1956.87
1869.86
1671.4
1572.68
1422.09
1356.05
1255.18
1213.64
1142.54
1109.36
1055.66
1026.91
983.44
954.193
914.304
882.368
844.83
813.701
781.589
755.069
729.823
708.614
688.905
671.177
654.471
638.205
622.451
606.059
589.665
572.193
554.347
535.561
516.188
496.562
476.554
457.467
439.096
423.168
410.001
400.123
381.911
405.299
461.464
538.161
597.678
621.452
620.421
610.982
601.729
594.92
590.447
588.131
587.56
588.789
591.385
595.638
601.015
608.099
616.145
626.142
636.977
650.235
664.188
681.33
698.944
720.951
743.065
771.463
799.359
836.499
872.091
921.609
968.015
1035.86
1097.84
1193.23
1278.6
1417.11
1538.06
1742.62
1912.34
2205.63
2421.97
2803.96
3032.05
3461.75
3673.97
4166.92
4498.71
4760.66
4880.49
3533.56
2557.9
1005.35
861.863
1354.55
1870.92
2033.65
2111.25
1952.33
1866.13
1668.56
1570.47
1420.3
1354.5
1253.83
1212.5
1141.6
1108.55
1054.97
1026.31
982.938
953.763
913.935
882.053
844.563
813.468
781.379
754.88
729.658
708.473
688.787
671.081
654.395
638.147
622.409
606.033
589.649
572.183
554.337
535.55
516.168
496.534
476.515
457.418
439.038
423.103
409.938
400.071
382.005
405.624
461.948
538.568
597.91
621.55
620.445
610.973
601.71
594.901
590.433
588.123
587.556
588.79
591.39
595.646
601.026
608.112
616.16
626.158
636.994
650.252
664.205
681.347
698.96
720.967
743.08
771.476
799.37
836.507
872.097
921.606
967.995
1035.82
1097.77
1193.13
1278.45
1416.92
1537.82
1742.32
1911.97
2205.17
2421.38
2803.18
3030.91
3460.18
3671.65
4163.83
4494.11
4755.33
4872.97
3525.35
2551.23
1000.33
855.028
1346.59
1862.88
2026.6
2105.51
1947.61
1862.26
1665.6
1568.16
1418.42
1352.87
1252.42
1211.31
1140.61
1107.7
1054.24
1025.68
982.407
953.305
913.542
881.717
844.278
813.218
781.153
754.676
729.48
708.32
688.659
670.976
654.311
638.083
622.362
606.001
589.628
572.171
554.326
535.537
516.147
496.507
476.476
457.37
438.982
423.04
409.878
400.021
382.105
405.969
462.461
539
598.151
621.648
620.463
610.956
601.682
594.874
590.411
588.107
587.546
588.785
591.389
595.648
601.031
608.12
616.17
626.169
637.005
650.264
664.217
681.357
698.97
720.975
743.087
771.481
799.372
836.507
872.092
921.591
967.961
1035.76
1097.68
1193
1278.29
1416.7
1537.54
1741.98
1911.56
2204.66
2420.73
2802.33
3029.67
3458.5
3669.2
4160.58
4489.32
4749.79
4865.22
3516.9
2544.41
995.232
848.043
1338.45
1854.64
2019.34
2099.6
1942.75
1858.26
1662.54
1565.77
1416.48
1351.19
1250.96
1210.06
1139.58
1106.82
1053.48
1025.02
981.85
952.824
913.128
881.361
843.975
812.953
780.913
754.459
729.29
708.158
688.521
670.863
654.22
638.012
622.31
605.965
589.605
572.156
554.313
535.524
516.127
496.48
476.439
457.323
438.929
422.979
409.82
399.974
382.211
406.334
463.005
539.455
598.404
621.746
620.476
610.931
601.646
594.839
590.382
588.084
587.529
588.773
591.381
595.645
601.03
608.122
616.174
626.174
637.011
650.27
664.222
681.362
698.974
720.978
743.087
771.478
799.366
836.496
872.076
921.564
967.914
1035.68
1097.58
1192.86
1278.1
1416.46
1537.24
1741.61
1911.1
2204.11
2420.03
2801.42
3028.34
3456.73
3666.62
4157.19
4484.36
4744.09
4857.31
3508.25
2537.51
990.087
840.953
1330.2
1846.24
2011.94
2093.54
1937.77
1854.16
1659.4
1563.32
1414.48
1349.46
1249.46
1208.78
1138.51
1105.9
1052.69
1024.34
981.271
952.323
912.696
880.99
843.659
812.674
780.66
754.232
729.09
707.985
688.375
670.744
654.124
637.937
622.253
605.926
589.578
572.139
554.299
535.511
516.108
496.455
476.404
457.279
438.878
422.921
409.766
399.929
382.323
406.719
463.578
539.934
598.666
621.843
620.483
610.897
601.601
594.796
590.345
588.054
587.506
588.755
591.368
595.636
601.025
608.118
616.172
626.174
637.011
650.27
664.222
681.361
698.971
720.973
743.081
771.468
799.351
836.477
872.05
921.525
967.855
1035.59
1097.46
1192.69
1277.89
1416.19
1536.91
1741.21
1910.61
2203.52
2419.28
2800.45
3026.95
3454.87
3663.93
4153.69
4479.26
4738.28
4849.27
3499.48
2530.57
984.935
833.801
1321.87
1837.72
2004.42
2087.37
1932.69
1849.98
1656.2
1560.81
1412.44
1347.68
1247.92
1207.46
1137.42
1104.96
1051.88
1023.64
980.674
951.805
912.249
880.605
843.33
812.385
780.398
753.994
728.882
707.806
688.223
670.618
654.023
637.858
622.193
605.884
589.55
572.122
554.285
535.498
516.09
496.432
476.372
457.238
438.83
422.867
409.715
399.888
382.44
407.124
464.18
540.437
598.939
621.941
620.484
610.856
601.548
594.745
590.301
588.017
587.476
588.731
591.349
595.621
601.013
608.109
616.165
626.168
637.007
650.265
664.217
681.354
698.963
720.963
743.068
771.451
799.329
836.449
872.015
921.476
967.784
1035.49
1097.32
1192.51
1277.66
1415.9
1536.56
1740.78
1910.09
2202.89
2418.49
2799.43
3025.5
3452.94
3661.16
4150.1
4474.06
4732.38
4841.17
3490.62
2523.65
979.811
826.629
1313.51
1829.15
1996.83
2081.13
1927.55
1845.74
1652.95
1558.26
1410.36
1345.88
1246.36
1206.12
1136.3
1104
1051.06
1022.92
980.062
951.274
911.79
880.209
842.991
812.086
780.127
753.749
728.666
707.619
688.065
670.488
653.918
637.776
622.131
605.84
589.521
572.103
554.271
535.486
516.074
496.41
476.342
457.2
438.785
422.815
409.668
399.85
382.564
407.549
464.813
540.963
599.222
622.038
620.479
610.807
601.486
594.686
590.249
587.973
587.439
588.701
591.324
595.6
600.996
608.095
616.153
626.158
636.997
650.255
664.206
681.342
698.949
720.946
743.049
771.427
799.3
836.412
871.971
921.417
967.703
1035.38
1097.17
1192.32
1277.41
1415.59
1536.18
1740.32
1909.54
2202.23
2417.67
2798.37
3023.99
3450.95
3658.31
4146.43
4468.78
4726.44
4833.05
3481.75
2516.81
974.753
819.479
1305.18
1820.55
1989.2
2074.84
1922.38
1841.47
1649.68
1555.69
1408.26
1344.06
1244.77
1204.77
1135.16
1103.02
1050.22
1022.2
979.44
950.732
911.322
879.805
842.645
811.78
779.85
753.498
728.444
707.427
687.903
670.354
653.811
637.691
622.066
605.795
589.49
572.084
554.257
535.475
516.059
496.392
476.315
457.165
438.744
422.768
409.625
399.816
382.693
407.994
465.475
541.513
599.516
622.136
620.469
610.75
601.417
594.619
590.189
587.923
587.396
588.665
591.293
595.574
600.974
608.076
616.136
626.142
636.981
650.24
664.19
681.324
698.93
720.924
743.023
771.397
799.264
836.368
871.918
921.349
967.611
1035.25
1097.01
1192.11
1277.15
1415.27
1535.79
1739.85
1908.97
2201.54
2416.82
2797.28
3022.45
3448.92
3655.41
4142.71
4463.46
4720.49
4824.96
3472.91
2510.09
969.795
812.39
1296.9
1811.98
1981.58
2068.55
1917.19
1837.18
1646.4
1553.11
1406.15
1342.23
1243.18
1203.39
1134.01
1102.03
1049.37
1021.46
978.811
950.184
910.848
879.396
842.293
811.469
779.568
753.242
728.218
707.232
687.736
670.218
653.701
637.605
622.001
605.748
589.459
572.065
554.245
535.466
516.047
496.376
476.291
457.134
438.707
422.725
409.586
399.786
382.828
408.459
466.166
542.086
599.82
622.233
620.453
610.685
601.338
594.543
590.122
587.865
587.347
588.622
591.257
595.542
600.946
608.051
616.114
626.121
636.961
650.219
664.169
681.302
698.905
720.897
742.992
771.361
799.222
836.317
871.857
921.272
967.51
1035.12
1096.84
1191.88
1276.87
1414.92
1535.38
1739.35
1908.38
2200.83
2415.95
2796.17
3020.88
3446.85
3652.47
4138.96
4458.11
4714.57
4816.95
3464.15
2503.54
964.97
805.402
1288.73
1803.49
1974.01
2062.28
1912.01
1832.9
1643.12
1550.52
1404.05
1340.39
1241.59
1202.02
1132.85
1101.03
1048.52
1020.72
978.179
949.631
910.37
878.982
841.938
811.154
779.282
752.983
727.988
707.033
687.568
670.08
653.589
637.517
621.934
605.702
589.429
572.048
554.234
535.459
516.038
496.364
476.271
457.107
438.674
422.686
409.553
399.76
382.969
408.944
466.887
542.682
600.134
622.331
620.431
610.612
601.252
594.46
590.048
587.8
587.29
588.573
591.214
595.505
600.913
608.022
616.087
626.095
636.936
650.194
664.143
681.274
698.875
720.864
742.956
771.319
799.173
836.259
871.789
921.187
967.4
1034.97
1096.65
1191.65
1276.58
1414.57
1534.95
1738.84
1907.77
2200.11
2415.06
2795.04
3019.29
3444.76
3649.5
4135.19
4452.77
4708.7
4809.05
3455.53
2497.21
960.31
798.551
1280.71
1795.1
1966.51
2056.06
1906.87
1828.64
1639.85
1547.95
1401.95
1338.57
1239.99
1200.64
1131.7
1100.04
1047.67
1019.98
977.546
949.078
909.89
878.568
841.581
810.838
778.995
752.722
727.757
706.832
687.398
669.94
653.478
637.429
621.868
605.655
589.399
572.031
554.225
535.455
516.031
496.355
476.255
457.084
438.646
422.653
409.525
399.739
383.116
409.45
467.637
543.302
600.459
622.428
620.404
610.531
601.157
594.369
589.966
587.728
587.228
588.519
591.166
595.462
600.875
607.987
616.055
626.065
636.906
650.164
664.112
681.241
698.841
720.826
742.914
771.271
799.118
836.195
871.714
921.094
967.282
1034.82
1096.46
1191.4
1276.28
1414.2
1534.51
1738.32
1907.16
2199.38
2414.16
2793.9
3017.68
3442.66
3646.52
4131.43
4447.45
4702.92
4801.31
3447.08
2491.16
955.846
791.871
1272.87
1786.86
1959.13
2049.91
1901.79
1824.42
1636.62
1545.4
1399.86
1336.75
1238.41
1199.27
1130.54
1099.05
1046.82
1019.25
976.916
948.527
909.413
878.155
841.225
810.522
778.707
752.46
727.525
706.631
687.228
669.801
653.366
637.342
621.803
605.61
589.37
572.016
554.217
535.453
516.029
496.35
476.244
457.066
438.623
422.624
409.502
399.723
383.268
409.975
468.417
543.946
600.793
622.526
620.371
610.442
601.054
594.27
589.877
587.65
587.159
588.458
591.112
595.414
600.832
607.947
616.018
626.029
636.872
650.129
664.077
681.204
698.801
720.783
742.868
771.218
799.058
836.124
871.632
920.994
967.157
1034.66
1096.26
1191.15
1275.97
1413.82
1534.06
1737.78
1906.53
2198.63
2413.26
2792.75
3016.08
3440.56
3643.53
4127.68
4442.19
4697.25
4793.77
3438.86
2485.41
951.604
785.394
1265.24
1778.81
1951.89
2043.87
1896.78
1820.25
1633.43
1542.89
1397.81
1334.96
1236.85
1197.92
1129.4
1098.06
1045.98
1018.52
976.292
947.98
908.939
877.746
840.872
810.207
778.421
752.199
727.294
706.43
687.058
669.662
653.256
637.256
621.738
605.566
589.344
572.003
554.213
535.454
516.029
496.349
476.237
457.053
438.605
422.601
409.485
399.712
383.427
410.521
469.227
544.612
601.138
622.624
620.333
610.346
600.943
594.163
589.78
587.564
587.084
588.391
591.053
595.361
600.783
607.903
615.976
625.989
636.833
650.09
664.036
681.162
698.757
720.735
742.816
771.16
798.992
836.048
871.545
920.887
967.025
1034.49
1096.05
1190.88
1275.65
1413.43
1533.6
1737.24
1905.89
2197.89
2412.36
2791.61
3014.47
3438.47
3640.56
4123.97
4437
4691.73
4786.46
3430.91
2480
947.61
779.15
1257.86
1770.98
1944.82
2037.96
1891.87
1816.16
1630.3
1540.41
1395.79
1333.19
1235.31
1196.58
1128.27
1097.09
1045.16
1017.81
975.677
947.441
908.471
877.341
840.522
809.896
778.137
751.94
727.064
706.23
686.889
669.525
653.147
637.172
621.676
605.523
589.319
571.992
554.211
535.459
516.034
496.353
476.235
457.046
438.592
422.583
409.474
399.706
383.591
411.087
470.066
545.303
601.494
622.722
620.29
610.242
600.824
594.048
589.676
587.472
587.002
588.319
590.988
595.302
600.73
607.853
615.929
625.944
636.789
650.046
663.992
681.115
698.709
720.683
742.76
771.097
798.921
835.966
871.451
920.774
966.886
1034.31
1095.83
1190.61
1275.33
1413.03
1533.14
1736.69
1905.25
2197.14
2411.46
2790.47
3012.88
3436.39
3637.61
4120.31
4431.89
4686.37
4779.41
3423.26
2474.98
943.888
773.165
1250.75
1763.39
1937.94
2032.19
1887.07
1812.16
1627.24
1537.99
1393.8
1331.46
1233.8
1195.26
1127.15
1096.13
1044.34
1017.1
975.072
946.91
908.012
876.943
840.178
809.589
777.857
751.685
726.837
706.033
686.723
669.39
653.04
637.09
621.615
605.483
589.296
571.984
554.213
535.467
516.044
496.361
476.238
457.043
438.585
422.572
409.469
399.707
383.762
411.674
470.935
546.016
601.86
622.82
620.241
610.131
600.697
593.926
589.566
587.374
586.914
588.24
590.917
595.238
600.671
607.799
615.878
625.895
636.741
649.997
663.943
681.065
698.656
720.627
742.699
771.03
798.846
835.879
871.352
920.656
966.742
1034.13
1095.61
1190.33
1274.99
1412.62
1532.66
1736.13
1904.61
2196.39
2410.57
2789.35
3011.31
3434.33
3634.69
4116.71
4426.9
4681.2
4772.66
3415.94
2470.37
940.459
767.462
1243.94
1756.08
1931.29
2026.59
1882.4
1808.25
1624.25
1535.63
1391.87
1329.76
1232.32
1193.96
1126.06
1095.19
1043.55
1016.41
974.481
946.391
907.562
876.554
839.841
809.287
777.581
751.433
726.613
705.838
686.559
669.257
652.937
637.01
621.558
605.446
589.276
571.979
554.218
535.48
516.057
496.375
476.246
457.047
438.584
422.566
409.471
399.712
383.938
412.281
471.833
546.753
602.236
622.919
620.187
610.013
600.562
593.796
589.448
587.268
586.821
588.156
590.842
595.169
600.608
607.74
615.823
625.841
636.689
649.945
663.89
681.01
698.599
720.566
742.635
770.958
798.766
835.787
871.248
920.532
966.592
1033.94
1095.38
1190.05
1274.65
1412.21
1532.19
1735.57
1903.97
2195.65
2409.69
2788.24
3009.75
3432.31
3631.82
4113.17
4422.02
4676.24
4766.23
3408.99
2466.2
937.34
762.063
1237.46
1749.07
1924.87
2021.17
1877.87
1804.45
1621.34
1533.33
1389.99
1328.11
1230.87
1192.7
1124.99
1094.27
1042.77
1015.74
973.905
945.885
907.123
876.174
839.513
808.993
777.311
751.186
726.393
705.647
686.399
669.128
652.836
636.934
621.503
605.411
589.26
571.977
554.226
535.496
516.075
496.393
476.26
457.055
438.588
422.566
409.479
399.724
384.12
412.908
472.761
547.514
602.623
623.018
620.129
609.887
600.419
593.659
589.323
587.156
586.721
588.066
590.76
595.095
600.54
607.676
615.763
625.783
636.632
649.888
663.833
680.951
698.538
720.501
742.566
770.882
798.682
835.691
871.139
920.403
966.437
1033.75
1095.14
1189.76
1274.31
1411.8
1531.71
1735.01
1903.33
2194.91
2408.82
2787.16
3008.23
3430.31
3628.99
4109.72
4417.28
4671.5
4760.14
3402.44
2462.51
934.548
756.986
1231.32
1742.38
1918.72
2015.96
1873.49
1800.77
1618.53
1531.1
1388.16
1326.51
1229.47
1191.47
1123.94
1093.38
1042.02
1015.09
973.345
945.393
906.697
875.806
839.193
808.706
777.048
750.945
726.178
705.46
686.242
669.002
652.739
636.861
621.452
605.38
589.246
571.978
554.238
535.517
516.098
496.417
476.279
457.07
438.599
422.573
409.494
399.742
384.309
413.556
473.719
548.298
603.021
623.118
620.065
609.753
600.269
593.514
589.191
587.038
586.615
587.971
590.674
595.016
600.467
607.608
615.698
625.721
636.571
649.828
663.772
680.888
698.473
720.432
742.493
770.801
798.594
835.59
871.026
920.269
966.278
1033.55
1094.9
1189.47
1273.96
1411.38
1531.23
1734.45
1902.7
2194.18
2407.97
2786.1
3006.74
3428.36
3626.21
4106.36
4412.69
4667
4754.41
3396.3
2459.29
932.097
752.246
1225.53
1736.03
1912.84
2010.96
1869.27
1797.21
1615.81
1528.95
1386.4
1324.96
1228.11
1190.27
1122.92
1092.5
1041.28
1014.46
972.805
944.918
906.286
875.45
838.884
808.428
776.793
750.71
725.968
705.278
686.09
668.881
652.646
636.792
621.404
605.352
589.236
571.983
554.255
535.542
516.126
496.446
476.304
457.091
438.616
422.587
409.515
399.766
384.503
414.224
474.707
549.105
603.429
623.218
619.997
609.613
600.111
593.362
589.052
586.914
586.503
587.87
590.582
594.932
600.39
607.535
615.629
625.655
636.506
649.763
663.707
680.821
698.405
720.36
742.416
770.717
798.502
835.485
870.908
920.13
966.114
1033.35
1094.66
1189.17
1273.61
1410.96
1530.74
1733.9
1902.07
2193.47
2407.14
2785.06
3005.29
3426.46
3623.49
4103.09
4408.25
4662.75
4749.06
3390.6
2456.59
929.997
747.855
1220.11
1730.03
1907.25
2006.18
1865.22
1793.79
1613.2
1526.87
1384.7
1323.46
1226.8
1189.11
1121.94
1091.66
1040.58
1013.86
972.284
944.46
905.889
875.107
838.586
808.159
776.545
750.482
725.765
705.101
685.942
668.764
652.558
636.727
621.36
605.327
589.23
571.992
554.275
535.571
516.158
496.48
476.335
457.118
438.639
422.607
409.543
399.796
384.704
414.913
475.724
549.936
603.848
623.32
619.924
609.466
599.946
593.202
588.906
586.783
586.385
587.763
590.485
594.843
600.307
607.458
615.556
625.584
636.437
649.694
663.638
680.751
698.332
720.284
742.336
770.63
798.406
835.376
870.786
919.988
965.946
1033.14
1094.41
1188.86
1273.25
1410.54
1530.26
1733.34
1901.45
2192.76
2406.33
2784.05
3003.87
3424.6
3620.84
4099.92
4403.98
4658.76
4744.1
3385.35
2454.41
928.259
743.823
1215.07
1724.4
1901.95
2001.63
1861.36
1790.5
1610.69
1524.89
1383.07
1322.02
1225.53
1187.99
1120.98
1090.85
1039.9
1013.28
971.785
944.02
905.509
874.778
838.299
807.9
776.306
750.261
725.567
704.93
685.8
668.652
652.474
636.666
621.321
605.307
589.227
572.004
554.299
535.605
516.196
496.52
476.371
457.151
438.669
422.633
409.579
399.833
384.91
415.623
476.772
550.791
604.278
623.422
619.846
609.312
599.773
593.036
588.754
586.646
586.262
587.651
590.383
594.75
600.221
607.377
615.479
625.51
636.365
649.622
663.566
680.676
698.256
720.204
742.252
770.538
798.306
835.264
870.661
919.841
965.774
1032.93
1094.16
1188.56
1272.9
1410.11
1529.78
1732.79
1900.84
2192.07
2405.55
2783.08
3002.5
3422.8
3618.26
4096.85
4399.87
4655.04
4739.53
3380.57
2452.76
926.888
740.157
1210.42
1719.14
1896.96
1997.32
1857.67
1787.36
1608.29
1522.98
1381.51
1320.64
1224.31
1186.9
1120.06
1090.06
1039.25
1012.72
971.307
943.599
905.145
874.464
838.025
807.651
776.075
750.048
725.377
704.765
685.663
668.545
652.395
636.61
621.285
605.29
589.229
572.021
554.328
535.643
516.238
496.565
476.413
457.19
438.704
422.666
409.621
399.876
385.123
416.353
477.849
551.67
604.719
623.526
619.764
609.151
599.593
592.862
588.595
586.503
586.133
587.534
590.277
594.651
600.13
607.291
615.398
625.431
636.288
649.546
663.489
680.599
698.177
720.12
742.164
770.443
798.203
835.147
870.531
919.691
965.599
1032.72
1093.91
1188.25
1272.53
1409.68
1529.29
1732.24
1900.23
2191.39
2404.78
2782.13
3001.17
3421.05
3615.74
4093.89
4395.94
4651.6
4735.38
3376.27
2451.66
925.89
736.861
1206.16
1714.26
1892.29
1993.25
1854.17
1784.37
1606.01
1521.16
1380.02
1319.32
1223.14
1185.86
1119.17
1089.31
1038.62
1012.19
970.851
943.198
904.798
874.165
837.764
807.412
775.854
749.844
725.193
704.605
685.532
668.443
652.32
636.559
621.254
605.278
589.234
572.041
554.361
535.686
516.286
496.616
476.461
457.235
438.747
422.706
409.67
399.925
385.342
417.105
478.957
552.572
605.171
623.63
619.678
608.984
599.406
592.682
588.43
586.353
585.998
587.412
590.165
594.549
600.034
607.202
615.312
625.349
636.208
649.466
663.41
680.517
698.094