/*--------------------------------*- C++ -*----------------------------------*\
| =========                 |                                                 |
| \\      /  F ield         | OpenFOAM: The Open Source CFD Toolbox           |
|  \\    /   O peration     | Version:  2412                                  |
|   \\  /    A nd           | Website:  www.openfoam.com                      |
|    \\/     M anipulation  |                                                 |
\*---------------------------------------------------------------------------*/
FoamFile
{
    version     2.0;
    format      ascii;
    arch        "LSB;label=32;scalar=64";
    class       volScalarField;
    location    "0.2";
    object      k;
}
// * * * * * * * * * * * * * * * * * * * * * * * * * * * * * * * * * * * * * //

dimensions      [0 2 -2 0 0 0 0];

internalField   nonuniform List<scalar> 
13068
(
37.8298
39.318
42.4867
46.238
48.6519
49.2855
48.9676
48.4631
48.0641
47.7999
47.6383
47.5663
47.5654
47.6402
47.7707
47.9719
48.2177
48.5368
48.8917
49.33
49.7959
50.3644
50.9499
51.6682
52.3875
53.2864
54.1616
55.2882
56.3532
57.7767
59.0799
60.9082
62.5333
64.924
66.9672
70.1318
72.7505
77.0191
80.4165
86.1712
90.4508
97.867
102.67
111.323
115.737
124.624
128.306
137.822
143.409
147.721
149.372
122.74
102.325
58.598
58.3677
75.7834
89.9424
93.4259
95.038
90.5976
88.5146
82.9557
80.4705
76.0595
74.3728
71.2485
70.1003
67.7384
66.7658
64.9407
64.0417
62.5036
61.5193
60.0742
58.9429
57.5494
56.4123
55.2041
54.2095
53.2357
52.4125
51.6322
50.9166
50.2338
49.5521
48.8887
48.1787
47.469
46.6938
45.9018
45.05
44.1647
43.2526
42.3076
41.4012
40.5144
39.7544
39.1347
38.6706
37.8305
39.3196
42.4885
46.24
48.6549
49.2895
48.9719
48.4672
48.068
47.8036
47.6419
47.5698
47.5689
47.6438
47.7743
47.9755
48.2214
48.5405
48.8955
49.3339
49.7999
50.3685
50.9541
51.6726
52.392
53.2912
54.1667
55.2937
56.3591
57.7832
59.087
60.9158
62.5412
64.9323
66.976
70.1413
72.7607
77.0302
80.4287
86.1848
90.4662
97.8844
102.689
111.345
115.761
124.648
128.33
137.844
143.429
147.742
149.387
122.758
102.348
58.5937
58.3551
75.7691
89.9389
93.4294
95.0466
90.6035
88.5195
82.962
80.4787
76.0674
74.3794
71.2536
70.1063
67.7452
66.7723
64.9467
64.0478
62.5102
61.526
60.0806
58.949
57.5553
56.4178
55.2091
54.2141
53.2402
52.4168
51.6362
50.9205
50.2376
49.5559
48.8924
48.1824
47.4723
46.6968
45.904
45.0514
44.1651
43.2521
42.3061
41.3988
40.5112
39.7505
39.1305
38.6673
37.8315
39.3224
42.4918
46.243
48.6584
49.2937
48.9762
48.4713
48.0719
47.8074
47.6456
47.5735
47.5726
47.6474
47.7779
47.9792
48.2251
48.5443
48.8994
49.3379
49.804
50.3728
50.9585
51.6772
52.3967
53.2961
54.1719
55.2993
56.3652
57.7898
59.0941
60.9234
62.5491
64.9406
66.9846
70.1505
72.7706
77.041
80.4404
86.1979
90.4807
97.901
102.708
111.366
115.783
124.67
128.35
137.862
143.443
147.756
149.393
122.762
102.357
58.5737
58.3225
75.7372
89.9206
93.4205
95.0451
90.601
88.5174
82.9627
80.4823
76.0713
74.3824
71.2555
70.1096
67.7496
66.7768
64.951
64.0523
62.5154
61.5314
60.086
58.9542
57.5603
56.4225
55.2134
54.2182
53.2442
52.4207
51.6399
50.9241
50.2411
49.5595
48.8959
48.1859
47.4755
46.6996
45.9062
45.0529
44.1656
43.2517
42.3047
41.3965
40.5081
39.7466
39.1264
38.664
37.8329
39.3265
42.4967
46.2471
48.6623
49.2978
48.9803
48.4753
48.0756
47.811
47.6491
47.577
47.5761
47.6509
47.7815
47.9828
48.2288
48.548
48.9032
49.3418
49.808
50.3769
50.9627
51.6815
52.4013
53.3009
54.1769
55.3046
56.3709
57.7962
59.101
60.9307
62.5565
64.9482
66.9926
70.159
72.7796
77.0507
80.4509
86.2095
90.4937
97.9156
102.724
111.384
115.801
124.687
128.366
137.874
143.45
147.762
149.387
122.751
102.352
58.5379
58.2699
75.6878
89.8869
93.3985
95.0326
90.5893
88.5075
82.9571
80.4805
76.0706
74.3813
71.2538
70.1097
67.7512
66.7788
64.9531
64.0548
62.5189
61.5352
60.0899
58.958
57.5643
56.4261
55.2167
54.2214
53.2473
52.4238
51.643
50.9271
50.2442
49.5626
48.8991
48.1891
47.4784
46.7023
45.9081
45.0543
44.1659
43.2513
42.3032
41.3942
40.5051
39.7428
39.1224
38.6608
37.8348
39.3317
42.5031
46.2522
48.6664
49.3018
48.9842
48.4788
48.079
47.8142
47.6524
47.5802
47.5793
47.6542
47.7848
47.9862
48.2322
48.5515
48.9068
49.3455
49.8118
50.3808
50.9667
51.6857
52.4055
53.3054
54.1816
55.3096
56.3762
57.802
59.1073
60.9373
62.5633
64.9552
66.9998
70.1665
72.7875
77.0592
80.4599
86.2195
90.5046
97.928
102.738
111.398
115.816
124.7
128.376
137.88
143.448
147.757
149.369
122.725
102.333
58.4865
58.1978
75.6209
89.8379
93.3633
95.0091
90.5682
88.4897
82.9449
80.4732
76.0649
74.3759
71.2483
70.1064
67.7498
66.7781
64.9527
64.0552
62.5204
61.5372
60.0922
58.9605
57.5669
56.4286
55.219
54.2235
53.2496
52.4262
51.6453
50.9295
50.2466
49.5652
48.9018
48.1918
47.481
46.7047
45.9099
45.0554
44.1661
43.2507
42.3017
41.3918
40.502
39.7391
39.1185
38.6576
37.837
39.3383
42.5112
46.2584
48.6709
49.3056
48.9877
48.4821
48.082
47.8172
47.6553
47.5832
47.5824
47.6573
47.7879
47.9893
48.2354
48.5548
48.9101
49.3489
49.8153
50.3844
50.9704
51.6895
52.4095
53.3095
54.1859
55.3142
56.3811
57.8073
59.113
60.9433
62.5693
64.9613
67.006
70.1729
72.7941
77.0662
80.4673
86.2276
90.5134
97.9378
102.748
111.41
115.826
124.708
128.38
137.879
143.437
147.744
149.34
122.684
102.301
58.4199
58.1066
75.5372
89.7738
93.3151
94.9747
90.5378
88.4639
82.9262
80.4602
76.0544
74.3661
71.2389
70.0997
67.7454
66.7746
64.95
64.0534
62.5199
61.5374
60.0929
58.9614
57.5682
56.4299
55.2201
54.2247
53.251
52.4277
51.6469
50.9312
50.2485
49.5673
48.904
48.1942
47.4833
46.7067
45.9113
45.0563
44.1662
43.25
42.3001
41.3894
40.4989
39.7353
39.1146
38.6545
37.8397
39.346
42.5208
46.2656
48.6755
49.3092
48.9908
48.4849
48.0847
47.8198
47.658
47.5859
47.5851
47.66
47.7907
47.9922
48.2384
48.5578
48.9132
49.3521
49.8185
50.3877
50.9738
51.693
52.4131
53.3132
54.1898
55.3183
56.3855
57.8122
59.1181
60.9486
62.5746
64.9666
67.0113
70.1783
72.7995
77.0718
80.4731
86.2338
90.5201
97.9453
102.756
111.418
115.833
124.712
128.379
137.871
143.419
147.721
149.299
122.628
102.255
58.3389
57.9971
75.4371
89.6951
93.2542
94.9295
90.4983
88.4304
82.901
80.4418
76.0392
74.352
71.2257
70.0896
67.738
66.7685
64.9448
64.0494
62.5175
61.5358
60.092
58.9609
57.5682
56.43
55.2202
54.2248
53.2514
52.4283
51.6477
50.9323
50.2497
49.5688
48.9057
48.1961
47.4851
46.7084
45.9125
45.057
44.166
43.2492
42.2984
41.3869
40.4958
39.7315
39.1108
38.6514
37.8427
39.355
42.5319
46.2737
48.6805
49.3126
48.9935
48.4873
48.087
47.8221
47.6603
47.5883
47.5875
47.6625
47.7933
47.9948
48.2411
48.5606
48.916
49.355
49.8215
50.3907
50.9769
51.6962
52.4164
53.3166
54.1934
55.3221
56.3895
57.8164
59.1227
60.9533
62.5791
64.971
67.0156
70.1825
72.8037
77.076
80.4773
86.2382
90.5246
97.9503
102.761
111.422
115.835
124.711
128.372
137.857
143.392
147.689
149.247
122.558
102.197
58.2441
57.8699
75.3214
89.6024
93.1812
94.8741
90.45
88.3895
82.8697
80.4181
76.0194
74.3339
71.209
70.0763
67.7277
66.7599
64.9374
64.0433
62.5131
61.5325
60.0894
58.959
57.5669
56.4289
55.2191
54.224
53.2509
52.4282
51.6478
50.9326
50.2504
49.5698
48.9069
48.1976
47.4866
46.7098
45.9135
45.0575
44.1657
43.2482
42.2965
41.3843
40.4926
39.7278
39.1069
38.6483
37.8462
39.3653
42.5447
46.2829
48.6856
49.3158
48.9959
48.4893
48.0889
47.824
47.6623
47.5903
47.5897
47.6648
47.7956
47.9972
48.2435
48.5631
48.9186
49.3576
49.8242
50.3935
50.9797
51.699
52.4193
53.3196
54.1965
55.3254
56.393
57.8202
59.1267
60.9574
62.583
64.9746
67.019
70.1857
72.8067
77.0788
80.4799
86.2408
90.5272
97.9529
102.763
111.424
115.833
124.706
128.359
137.837
143.358
147.649
149.185
122.475
102.127
58.1363
57.7261
75.1911
89.4964
93.0966
94.8089
90.3934
88.3414
82.8326
80.3894
75.9951
74.3118
71.1888
70.0598
67.7146
66.7487
64.9277
64.0351
62.5069
61.5275
60.0854
58.9557
57.5644
56.4267
55.2171
54.2221
53.2495
52.4272
51.6472
50.9324
50.2505
49.5703
48.9077
48.1987
47.4877
46.7109
45.9142
45.0578
44.1653
43.2471
42.2947
41.3817
40.4894
39.724
39.1032
38.6452
37.8501
39.3767
42.559
46.293
48.691
49.3188
48.9979
48.4909
48.0904
47.8256
47.6639
47.5921
47.5915
47.6667
47.7976
47.9993
48.2457
48.5653
48.9209
49.36
49.8266
50.396
50.9822
51.7016
52.4219
53.3223
54.1993
55.3282
56.396
57.8234
59.1301
60.9608
62.5861
64.9774
67.0215
70.1879
72.8085
77.0802
80.481
86.2417
90.5277
97.9534
102.762
111.422
115.828
124.696
128.341
137.812
143.316
147.601
149.113
122.379
102.045
58.0167
57.5667
75.047
89.3778
93.0011
94.7344
90.3289
88.2866
82.7899
80.3559
75.9668
74.286
71.1652
70.0404
67.6989
66.7351
64.9159
64.0251
62.4989
61.5208
60.0799
58.9511
57.5607
56.4234
55.214
54.2194
53.2473
52.4255
51.6459
50.9315
50.25
49.5703
48.9081
48.1994
47.4886
46.7118
45.9147
45.0579
44.1647
43.2459
42.2927
41.3791
40.4863
39.7203
39.0995
38.6422
37.8543
39.3894
42.5748
46.3041
48.6967
49.3216
48.9996
48.4922
48.0916
47.8268
47.6653
47.5936
47.5931
47.6684
47.7994
48.0012
48.2476
48.5673
48.923
49.3621
49.8287
50.3981
50.9844
51.7038
52.4242
53.3246
54.2016
55.3307
56.3985
57.8262
59.1329
60.9635
62.5885
64.9795
67.0231
70.189
72.8091
77.0804
80.4806
86.241
90.5264
97.9516
102.759
111.418
115.819
124.682
128.319
137.78
143.267
147.545
149.031
122.271
101.954
57.8861
57.3928
74.8902
89.2477
92.8955
94.6512
90.2571
88.2255
82.7419
80.318
75.9345
74.2568
71.1386
70.0181
67.6807
66.7193
64.9021
64.0132
62.4893
61.5127
60.073
58.9452
57.5558
56.4191
55.21
54.2158
53.2443
52.4231
51.6439
50.9301
50.2491
49.5698
48.9081
48.1998
47.4891
46.7124
45.9149
45.0579
44.164
43.2447
42.2907
41.3765
40.4831
39.7166
39.0958
38.6392
37.859
39.4033
42.5922
46.3162
48.7025
49.3242
49.0008
48.493
48.0924
47.8277
47.6663
47.5947
47.5944
47.6698
47.8009
48.0027
48.2492
48.5691
48.9248
49.3639
49.8306
50.4
50.9863
51.7058
52.4261
53.3266
54.2037
55.3328
56.4007
57.8284
59.1352
60.9657
62.5903
64.9807
67.0239
70.1892
72.8087
77.0794
80.4788
86.2386
90.5232
97.9479
102.754
111.411
115.807
124.665
128.291
137.744
143.212
147.482
148.941
122.153
101.854
57.7457
57.2056
74.7219
89.1067
92.7804
94.56
90.1783
88.1585
82.6891
80.2759
75.8985
74.2242
71.109
69.9933
67.6601
66.7014
64.8864
63.9997
62.4781
61.5031
60.0648
58.9382
57.5499
56.4139
55.2051
54.2113
53.2405
52.4199
51.6414
50.9281
50.2476
49.569
48.9077
48.1998
47.4893
46.7127
45.915
45.0577
44.1632
43.2434
42.2887
41.3738
40.4799
39.713
39.0922
38.6363
37.8641
39.4185
42.6111
46.3293
48.7086
49.3266
49.0017
48.4934
48.0928
47.8282
47.667
47.5956
47.5954
47.6709
47.8021
48.0041
48.2507
48.5705
48.9263
49.3655
49.8322
50.4017
50.988
51.7074
52.4277
53.3283
54.2053
55.3345
56.4024
57.8302
59.137
60.9673
62.5914
64.9813
67.0238
70.1885
72.8073
77.0772
80.4758
86.2348
90.5184
97.9422
102.747
111.401
115.792
124.644
128.26
137.702
143.151
147.413
148.844
122.024
101.746
57.5966
57.0065
74.5431
88.956
92.6568
94.4614
90.0933
88.086
82.6319
80.23
75.8592
74.1886
71.0768
69.966
67.6373
66.6816
64.869
63.9845
62.4654
61.4922
60.0554
58.93
57.543
56.4077
55.1993
54.2061
53.2361
52.4162
51.6382
50.9256
50.2458
49.5677
48.9069
48.1996
47.4893
46.7128
45.9149
45.0574
44.1623
43.242
42.2866
41.3712
40.4768
39.7094
39.0887
38.6335
37.8696
39.4349
42.6315
46.3433
48.715
49.3287
49.0023
48.4935
48.0928
47.8284
47.6674
47.5961
47.5961
47.6718
47.8031
48.0051
48.2518
48.5718
48.9276
49.3668
49.8336
50.403
50.9893
51.7088
52.4291
53.3296
54.2066
55.3358
56.4036
57.8315
59.1383
60.9684
62.5919
64.9812
67.023
70.1869
72.8048
77.0738
80.4714
86.2296
90.512
97.9347
102.737
111.389
115.773
124.62
128.224
137.657
143.084
147.338
148.739
121.887
101.631
57.4402
56.7967
74.3551
88.7966
92.5254
94.3561
90.0025
88.0087
82.5705
80.1805
75.8169
74.1503
71.0421
69.9364
67.6126
66.6599
64.85
63.9679
62.4514
61.48
60.0449
58.9209
57.5352
56.4006
55.1928
54.2002
53.2309
52.4118
51.6346
50.9227
50.2435
49.566
48.9058
48.199
47.4891
46.7128
45.9147
45.057
44.1613
43.2406
42.2846
41.3685
40.4737
39.7058
39.0852
38.6307
37.8755
39.4525
42.6534
46.3583
48.7215
49.3307
49.0025
48.4931
48.0924
47.8282
47.6674
47.5964
47.5966
47.6724
47.8038
48.006
48.2527
48.5728
48.9286
49.3679
49.8347
50.4041
50.9904
51.7098
52.4301
53.3306
54.2076
55.3367
56.4045
57.8324
59.1391
60.9689
62.5919
64.9804
67.0215
70.1845
72.8015
77.0694
80.4659
86.2231
90.5041
97.9256
102.726
111.374
115.752
124.592
128.185
137.607
143.012
147.258
148.629
121.742
101.51
57.2776
56.5778
74.1592
88.6295
92.3872
94.2449
89.9067
87.927
82.5056
80.128
75.7718
74.1095
71.0053
69.9048
67.586
66.6366
64.8295
63.95
62.4362
61.4668
60.0334
58.9109
57.5266
56.3929
55.1856
54.1936
53.2252
52.4069
51.6304
50.9193
50.2408
49.5641
48.9044
48.1982
47.4886
46.7126
45.9144
45.0565
44.1604
43.2392
42.2826
41.366
40.4707
39.7024
39.0819
38.628
37.8818
39.4713
42.6769
46.3742
48.7283
49.3325
49.0023
48.4924
48.0917
47.8277
47.6671
47.5964
47.5967
47.6727
47.8042
48.0065
48.2534
48.5735
48.9294
49.3687
49.8355
50.405
50.9913
51.7106
52.4309
53.3313
54.2083
55.3373
56.4051
57.8328
59.1394
60.9689
62.5912
64.979
67.0192
70.1813
72.7972
77.0641
80.4593
86.2153
90.4948
97.9149
102.712
111.358
115.729
124.562
128.142
137.554
142.936
147.173
148.513
121.591
101.385
57.1101
56.3512
73.9567
88.4558
92.2431
94.1285
89.8063
87.8414
82.4375
80.0726
75.7243
74.0664
70.9664
69.8714
67.5577
66.6118
64.8077
63.9309
62.4199
61.4525
60.0209
58.9
57.5172
56.3844
55.1777
54.1864
53.2189
52.4015
51.6259
50.9156
50.2378
49.5618
48.9028
48.1972
47.488
46.7122
45.914
45.0559
44.1594
43.2378
42.2806
41.3635
40.4678
39.699
39.0787
38.6254
37.8885
39.4913
42.7018
46.3911
48.7353
49.3341
49.0017
48.4913
48.0906
47.8268
47.6665
47.596
47.5966
47.6727
47.8044
48.0069
48.2538
48.574
48.93
49.3693
49.8361
50.4056
50.9918
51.7111
52.4314
53.3318
54.2087
55.3376
56.4052
57.8329
59.1393
60.9684
62.5901
64.977
67.0163
70.1773
72.7921
77.0578
80.4517
86.2064
90.4843
97.9028
102.698
111.34
115.703
124.53
128.096
137.497
142.857
147.085
148.393
121.434
101.257
56.9392
56.1183
73.7489
88.2766
92.0939
94.0076
89.7021
87.7524
82.3665
80.0149
75.6746
74.0215
70.9258
69.8364
67.528
66.5857
64.7848
63.9107
62.4027
61.4373
60.0076
58.8883
57.5071
56.3753
55.1693
54.1787
53.2121
52.3956
51.6209
50.9115
50.2345
49.5592
48.9009
48.196
47.4872
46.7117
45.9135
45.0553
44.1584
43.2365
42.2787
41.361
40.4649
39.6958
39.0756
38.6229
37.8956
39.5125
42.7283
46.4089
48.7426
49.3355
49.0008
48.4897
48.0891
47.8256
47.6656
47.5954
47.5961
47.6725
47.8044
48.0069
48.254
48.5743
48.9303
49.3697
49.8365
50.4059
50.9921
51.7114
52.4316
53.3319
54.2087
55.3375
56.405
57.8326
59.1388
60.9674
62.5884
64.9744
67.0128
70.1727
72.7863
77.0506
80.4432
86.1965
90.4727
97.8895
102.681
111.32
115.676
124.495
128.048
137.438
142.773
146.994
148.27
121.272
101.127
56.7661
55.8807
73.5371
88.0931
91.9407
93.883
89.5947
87.6606
82.2933
79.9551
75.6231
73.9749
70.8838
69.8
67.497
66.5585
64.7609
63.8896
62.3845
61.4213
59.9937
58.876
57.4965
56.3656
55.1603
54.1704
53.2048
52.3893
51.6155
50.9071
50.231
49.5565
48.8989
48.1946
47.4863
46.7111
45.9129
45.0547
44.1574
43.2352
42.2768
41.3587
40.4622
39.6926
39.0727
38.6205
37.9031
39.5349
42.7562
46.4276
48.75
49.3367
48.9996
48.4878
48.0873
47.8241
47.6644
47.5944
47.5954
47.672
47.804
48.0067
48.2539
48.5743
48.9304
49.3698
49.8366
50.406
50.9922
51.7114
52.4315
53.3318
54.2085
55.3372
56.4045
57.8318
59.1379
60.966
62.5863
64.9713
67.0087
70.1674
72.7797
77.0426
80.4338
86.1856
90.46
97.875
102.664
111.299
115.646
124.458
127.997
137.376
142.687
146.9
148.145
121.108
100.996
56.5921
55.6399
73.3226
87.9063
91.7843
93.7554
89.4846
87.5665
82.2181
79.8936
75.5702
73.9269
70.8405
69.7624
67.4649
66.5302
64.7361
63.8678
62.3657
61.4047
59.979
58.8632
57.4853
56.3555
55.1509
54.1618
53.1972
52.3827
51.6099
50.9024
50.2272
49.5535
48.8966
48.193
47.4853
46.7105
45.9123
45.0542
44.1565
43.2339
42.2751
41.3565
40.4596
39.6897
39.0699
38.6183
37.911
39.5586
42.7857
46.4473
48.7576
49.3377
48.998
48.4855
48.0851
47.8222
47.6628
47.5932
47.5945
47.6712
47.8035
48.0063
48.2536
48.5741
48.9302
49.3697
49.8365
50.4059
50.9921
51.7112
52.4312
53.3314
54.208
55.3365
56.4037
57.8308
59.1366
60.9642
62.5837
64.9678
67.0041
70.1615
72.7725
77.034
80.4235
86.1738
90.4463
97.8595
102.645
111.276
115.615
124.42
127.944
137.312
142.599
146.804
148.017
120.941
100.865
56.4185
55.3975
73.1068
87.7174
91.6256
93.6256
89.3726
87.4706
82.1415
79.8308
75.5161
73.8778
70.7962
69.7238
67.432
66.5012
64.7106
63.8453
62.3462
61.3874
59.9639
58.8499
57.4737
56.3449
55.1411
54.1528
53.1892
52.3758
51.604
50.8975
50.2232
49.5504
48.8943
48.1914
47.4842
46.7098
45.9117
45.0536
44.1556
43.2328
42.2734
41.3544
40.4572
39.6869
39.0674
38.6162
37.9194
39.5834
42.8166
46.4678
48.7655
49.3385
48.996
48.4828
48.0825
47.8199
47.6609
47.5916
47.5932
47.6702
47.8026
48.0056
48.2531
48.5736
48.9299
49.3694
49.8362
50.4056
50.9917
51.7108
52.4307
53.3308
54.2072
55.3356
56.4025
57.8294
59.1349
60.962
62.5807
64.9637
66.9989
70.1551
72.7647
77.0246
80.4126
86.1613
90.4319
97.8432
102.626
111.253
115.583
124.38
127.89
137.246
142.509
146.707
147.889
120.773
100.736
56.2466
55.1547
72.8908
87.5274
91.4656
93.4944
89.2591
87.3734
82.0638
79.767
75.4611
73.8279
70.7511
69.6845
67.3983
66.4716
64.6845
63.8223
62.3263
61.3698
59.9484
58.8362
57.4617
56.334
55.131
54.1435
53.181
52.3686
51.5979
50.8924
50.2191
49.5471
48.8918
48.1897
47.483
46.709
45.9111
45.0531
44.1548
43.2318
42.2719
41.3525
40.4549
39.6842
39.065
38.6143
37.9281
39.6094
42.8489
46.4893
48.7736
49.3391
48.9937
48.4798
48.0795
47.8173
47.6587
47.5898
47.5916
47.6689
47.8015
48.0047
48.2523
48.573
48.9293
49.3688
49.8357
50.405
50.9911
51.7101
52.4299
53.3299
54.2062
55.3344
56.4011
57.8277
59.1329
60.9595
62.5773
64.9593
66.9934
70.1481
72.7564
77.0147
80.4011
86.1482
90.4168
97.8261
102.606
111.228
115.55
124.34
127.834
137.18
142.418
146.61
147.761
120.606
100.61
56.0778
54.9132
72.6759
87.3374
91.305
93.3623
89.1449
87.2754
81.9855
79.7026
75.4055
73.7775
70.7056
69.6446
67.364
66.4414
64.6581
63.7989
62.306
61.3518
59.9325
58.8222
57.4494
56.3229
55.1207
54.134
53.1725
52.3612
51.5916
50.8872
50.2148
49.5437
48.8892
48.1879
47.4818
46.7083
45.9106
45.0526
44.1541
43.2309
42.2706
41.3507
40.4529
39.6818
39.0629
38.6127
37.9372
39.6367
42.8828
46.5117
48.7819
49.3395
48.991
48.4763
48.0762
47.8144
47.6562
47.5876
47.5898
47.6673
47.8002
48.0036
48.2513
48.5721
48.9285
49.368
49.8349
50.4042
50.9902
51.7092
52.4289
53.3288
54.205
55.3329
56.3994
57.8257
59.1306
60.9566
62.5736
64.9544
66.9873
70.1407
72.7475
77.0042
80.389
86.1344
90.401
97.8084
102.585
111.203
115.516
124.298
127.777
137.112
142.326
146.513
147.633
120.439
100.487
55.913
54.6743
72.4633
87.1484
91.1448
93.2302
89.0304
87.1771
81.9069
79.6379
75.3496
73.7267
70.6597
69.6043
67.3294
66.411
64.6314
63.7754
62.2855
61.3335
59.9164
58.808
57.437
56.3116
55.1101
54.1243
53.1639
52.3536
51.5851
50.8818
50.2105
49.5403
48.8866
48.186
47.4806
46.7076
45.9101
45.0522
44.1536
43.2301
42.2694
41.3492
40.451
39.6796
39.0609
38.6112
37.9467
39.6651
42.9181
46.535
48.7904
49.3397
48.988
48.4725
48.0725
47.8111
47.6534
47.5852
47.5877
47.6655
47.7986
48.0022
48.2501
48.571
48.9274
49.367
49.8339
50.4032
50.9892
51.708
52.4277
53.3274
54.2035
55.3312
56.3974
57.8235
59.128
60.9534
62.5695
64.9492
66.981
70.1329
72.7382
76.9933
80.3765
86.1201
90.3848
97.7902
102.563
111.178
115.481
124.256
127.719
137.044
142.234
146.416
147.508
120.274
100.37
55.7536
54.4393
72.254
86.9615
90.9857
93.0986
88.9162
87.0789
81.8284
79.5732
75.2937
73.6759
70.6137
69.5639
67.2946
66.3803
64.6046
63.7517
62.2648
61.3151
59.9002
58.7937
57.4244
56.3001
55.0995
54.1145
53.1551
52.346
51.5786
50.8764
50.2061
49.5368
48.884
48.1842
47.4794
46.7069
45.9097
45.052
44.1531
43.2295
42.2684
41.3478
40.4493
39.6776
39.0593
38.6099
37.9567
39.6947
42.9548
46.5591
48.7991
49.3397
48.9846
48.4682
48.0684
47.8075
47.6503
47.5825
47.5853
47.6635
47.7968
48.0006
48.2486
48.5696
48.9262
49.3658
49.8327
50.402
50.9879
51.7067
52.4263
53.3259
54.2018
55.3293
56.3953
57.8209
59.1251
60.9498
62.5651
64.9437
66.9742
70.1246
72.7285
76.9819
80.3635
86.1055
90.3682
97.7716
102.542
111.152
115.446
124.213
127.661
136.975
142.141
146.32
147.384
120.113
100.258
55.6006
54.2095
72.0492
86.7774
90.8285
92.9682
88.8028
86.9812
81.7503
79.5088
75.2381
73.6252
70.5679
69.5235
67.2598
66.3497
64.5778
63.728
62.2442
61.2967
59.884
58.7794
57.4118
56.2886
55.0888
54.1046
53.1462
52.3382
51.572
50.871
50.2017
49.5334
48.8814
48.1824
47.4783
46.7063
45.9094
45.0518
44.1529
43.2291
42.2676
41.3467
40.4479
39.6759
39.0579
38.6089
37.967
39.7256
42.9931
46.5842
48.808
49.3395
48.9809
48.4636
48.064
47.8036
47.6468
47.5794
47.5827
47.6611
47.7947
47.9987
48.2469
48.5681
48.9247
49.3644
49.8314
50.4006
50.9865
51.7052
52.4247
53.3241
54.1999
55.3271
56.3929
57.8182
59.122
60.9461
62.5605
64.9378
66.9672
70.1161
72.7185
76.9702
80.3501
86.0904
90.3512
97.7528
102.52
111.126
115.411
124.17
127.603
136.907
142.05
146.226
147.263
119.956
100.152
55.4549
53.986
71.8497
86.5972
90.6739
92.8396
88.6907
86.8845
81.6731
79.445
75.1829
73.5749
70.5224
69.4832
67.225
66.3191
64.5511
63.7045
62.2236
61.2784
59.8678
58.7651
57.3992
56.2771
55.0781
54.0947
53.1374
52.3305
51.5654
50.8655
50.1973
49.5299
48.8788
48.1806
47.4772
46.7058
45.9091
45.0518
44.1528
43.2289
42.2671
41.3458
40.4467
39.6745
39.0568
38.6081
37.9778
39.7576
43.0327
46.6102
48.8171
49.3391
48.9768
48.4587
48.0592
47.7993
47.643
47.5761
47.5798
47.6585
47.7924
47.9966
48.2451
48.5663
48.9231
49.3628
49.8298
50.399
50.9849
51.7035
52.4229
53.3222
54.1978
55.3248
56.3902
57.8152
59.1186
60.942
62.5556
64.9317
66.9599
70.1073
72.7082
76.9582
80.3365
86.0751
90.3341
97.7337
102.498
111.099
115.375
124.127
127.544
136.839
141.959
146.134
147.146
119.803
100.055
55.3175
53.77
71.6566
86.4215
90.5225
92.7132
88.5803
86.7891
81.5969
79.382
75.1284
73.5252
70.4773
69.4433
67.1906
66.2888
64.5247
63.6811
62.2032
61.2602
59.8518
58.7509
57.3867
56.2657
55.0674
54.0848
53.1285
52.3227
51.5588
50.8601
50.193
49.5265
48.8763
48.1789
47.4762
46.7053
45.909
45.0519
44.1528
43.2288
42.2667
41.3451
40.4458
39.6733
39.056
38.6076
37.9889
39.7908
43.0738
46.6371
48.8264
49.3386
48.9724
48.4533
48.0541
47.7947
47.639
47.5726
47.5766
47.6557
47.7899
47.9943
48.2429
48.5644
48.9212
49.361
49.828
50.3972
50.9831
51.7016
52.4209
53.3201
54.1956
55.3223
56.3874
57.812
59.115
60.9378
62.5504
64.9254
66.9523
70.0981
72.6976
76.9459
80.3226
86.0596
90.3168
97.7146
102.476
111.073
115.34
124.084
127.486
136.772
141.87
146.045
147.032
119.656
99.9657
55.1893
53.5625
71.4706
86.2511
90.375
92.5896
88.472
86.6954
81.522
79.3201
75.0748
73.4762
70.4329
69.4038
67.1564
66.2589
64.4987
63.6582
62.1831
61.2423
59.8359
58.7369
57.3743
56.2543
55.0568
54.075
53.1197
52.315
51.5523
50.8548
50.1887
49.5232
48.8738
48.1773
47.4753
46.705
45.909
45.0522
44.1531
43.229
42.2666
41.3447
40.4452
39.6724
39.0555
38.6073
38.0005
39.8252
43.1164
46.6648
48.836
49.3379
48.9677
48.4476
48.0486
47.7897
47.6346
47.5687
47.5732
47.6526
47.7871
47.9918
48.2406
48.5622
48.9192
49.3591
49.8261
50.3953
50.9811
51.6995
52.4188
53.3178
54.1931
55.3195
56.3844
57.8086
59.1112
60.9333
62.5451
64.9188
66.9445
70.0888
72.6868
76.9334
80.3086
86.0439
90.2994
97.6955
102.454
111.047
115.305
124.042
127.429
136.706
141.782
145.959
146.924
119.516
99.8856
55.0711
53.3642
71.2924
86.0868
90.2319
92.4693
88.3663
86.6037
81.4488
79.2595
75.0223
73.4281
70.3893
69.365
67.1228
66.2294
64.4731
63.6356
62.1633
61.2246
59.8203
58.7231
57.3622
56.2432
55.0464
54.0653
53.111
52.3074
51.5458
50.8495
50.1845
49.5199
48.8715
48.1757
47.4745
46.7047
45.9092
45.0527
44.1536
43.2295
42.2668
41.3446
40.4448
39.6718
39.0553
38.6074
38.0124
39.8607
43.1603
46.6934
48.8457
49.337
48.9626
48.4415
48.0427
47.7844
47.6299
47.5645
47.5694
47.6493
47.7841
47.989
48.2381
48.5598
48.9169
49.3569
49.824
50.3931
50.9789
51.6973
52.4165
53.3153
54.1905
55.3167
56.3812
57.805
59.1072
60.9286
62.5395
64.912
66.9365
70.0792
72.6758
76.9207
80.2944
86.0282
90.282
97.6764
102.432
111.022
115.271
124
127.372
136.641
141.696
145.876
146.82
119.382
99.8152
54.9634
53.1762
71.1227
85.9291
90.0936
92.3526
88.2633
86.5142
81.3774
79.2003
74.9711
73.3811
70.3466
69.3269
67.0898
66.2005
64.448
63.6136
62.144
61.2073
59.8051
58.7096
57.3502
56.2322
55.0361
54.0557
53.1025
52.2999
51.5395
50.8443
50.1805
49.5168
48.8692
48.1743
47.4738
46.7047
45.9096
45.0533
44.1542
43.2301
42.2671
41.3447
40.4448
39.6715
39.0555
38.6077
38.0248
39.8975
43.2057
46.7229
48.8557
49.3359
48.9572
48.4351
48.0365
47.7788
47.6249
47.5601
47.5655
47.6457
47.7808
47.9861
48.2354
48.5573
48.9145
49.3545
49.8217
50.3908
50.9766
51.6949
52.414
53.3127
54.1877
55.3136
56.3779
57.8012
59.103
60.9237
62.5338
64.9051
66.9283
70.0695
72.6646
76.9078
80.2801
86.0123
90.2646
97.6575
102.411
110.996
115.237
123.958
127.315
136.577
141.613
145.796
146.722
119.256
99.755
54.867
52.999
70.962
85.7785
89.9607
92.2398
88.1635
86.4271
81.3081
79.1428
74.9212
73.3353
70.305
69.2896
67.0575
66.1722
64.4236
63.5921
62.1252
61.1905
59.7902
58.6965
57.3386
56.2215
55.0261
54.0464
53.0941
52.2926
51.5333
50.8393
50.1766
49.5138
48.8671
48.173
47.4732
46.7047
45.91
45.0542
44.1551
43.231
42.2678
41.3451
40.445
39.6715
39.056
38.6084
38.0375
39.9354
43.2526
46.7533
48.8659
49.3346
48.9515
48.4283
48.03
47.7729
47.6197
47.5554
47.5613
47.6419
47.7773
47.9829
48.2324
48.5545
48.9119
49.352
49.8192
50.3883
50.9741
51.6923
52.4113
53.3099
54.1847
55.3104
56.3744
57.7973
59.0987
60.9187
62.5279
64.8979
66.9199
70.0596
72.6533
76.8949
80.2657
85.9965
90.2474
97.6388
102.39
110.972
115.203
123.918
127.26
136.515
141.532
145.721
146.629
119.138
99.7056
54.7823
52.8332
70.8109
85.6355
89.8335
92.1314
88.0671
86.3428
81.241
79.087
74.8729
73.2909
70.2645
69.2532
67.0259
66.1446
64.3999
63.5713
62.1069
61.1742
59.7758
58.6837
57.3273
56.2111
55.0162
54.0372
53.0858
52.2854
51.5272
50.8345
50.1728
49.511
48.8651
48.1718
47.4728
46.7049
45.9107
45.0552
44.1562
43.2322
42.2687
41.3459
40.4456
39.6719
39.0568
38.6093
38.0507
39.9746
43.3008
46.7846
48.8763
49.3332
48.9455
48.4212
48.0231
47.7667
47.6141
47.5504
47.5568
47.6378
47.7737
47.9795
48.2293
48.5516
48.9091
49.3493
49.8165
50.3857
50.9714
51.6896
52.4085
53.3069
54.1816
55.307
56.3707
57.7932
59.0941
60.9135
62.5218
64.8907
66.9115
70.0496
72.6419
76.8818
80.2513
85.9807
90.2303
97.6203
102.369
110.947
115.17
123.878
127.206
136.454
141.453
145.65
146.543
119.028
99.6674
54.7097
52.6794
70.6696
85.5005
89.7123
92.0276
87.9742
86.2614
81.1762
79.0332
74.8263
73.2478
70.2253
69.2178
66.9953
66.1179
64.3769
63.5511
62.0893
61.1584
59.7618
58.6714
57.3163
56.2009
55.0067
54.0283
53.0778
52.2784
51.5213
50.8298
50.1692
49.5083
48.8633
48.1708
47.4725
46.7053
45.9116
45.0564
44.1576
43.2336
42.2699
41.3469
40.4464
39.6726
39.058
38.6106
38.0643
40.0149
43.3505
46.8167
48.8869
49.3316
48.9391
48.4137
48.0159
47.7602
47.6082
47.5452
47.5521
47.6336
47.7698
47.9759
48.226
48.5484
48.9061
49.3464
49.8137
50.3829
50.9686
51.6867
52.4056
53.3038
54.1784
55.3035
56.3669
57.789
59.0895
60.9081
62.5156
64.8832
66.9028
70.0394
72.6304
76.8687
80.2369
85.965
90.2133
97.6022
102.349
110.924
115.138
123.839
127.153
136.395
141.377
145.583
146.463
118.927
99.6405
54.6497
52.538
70.5386
85.3738
89.5974
91.9285
87.8851
86.183
81.1139
78.9813
74.7813
73.2062
70.1873
69.1836
66.9655
66.092
64.3547
63.5317
62.0723
61.1431
59.7484
58.6595
57.3057
56.1911
54.9975
54.0197
53.07
52.2715
51.5156
50.8252
50.1657
49.5058
48.8616
48.1699
47.4724
46.7058
45.9126
45.0579
44.1592
43.2353
42.2714
41.3482
40.4476
39.6736
39.0595
38.6121
38.0783
40.0564
43.4016
46.8497
48.8977
49.3299
48.9325
48.4058
48.0084
47.7533
47.6021
47.5397
47.5471
47.629
47.7656
47.9721
48.2225
48.5451
48.903
49.3434
49.8107
50.3799
50.9656
51.6837
52.4025
53.3006
54.175
55.2999
56.363
57.7846
59.0847
60.9026
62.5093
64.8757
66.8941
70.0292
72.6188
76.8555
80.2226
85.9493
90.1966
97.5844
102.329
110.901
115.107
123.801
127.101
136.338
141.304
145.52
146.389
118.836
99.6254
54.6023
52.4092
70.418
85.2556
89.4889
91.8344
87.7999
86.1078
81.0542
78.9315
74.7381
73.1662
70.1507
69.1504
66.9367
66.067
64.3334
63.5131
62.0559
61.1285
59.7355
58.6481
57.2956
56.1817
54.9886
54.0113
53.0625
52.2649
51.5101
50.8209
50.1625
49.5034
48.8601
48.1692
47.4725
46.7065
45.9138
45.0595
44.161
43.2372
42.2732
41.3498
40.4491
39.675
39.0614
38.614
38.0927
40.099
43.4541
46.8836
48.9087
49.328
48.9255
48.3976
48.0005
47.7462
47.5957
47.5339
47.5419
47.6243
47.7613
47.9681
48.2188
48.5417
48.8997
49.3402
49.8076
50.3768
50.9625
51.6805
52.3993
53.2972
54.1715
55.2961
56.359
57.7801
59.0798
60.897
62.5028
64.868
66.8853
70.0188
72.6071
76.8423
80.2082
85.9338
90.1801
97.5669
102.31
110.879
115.077
123.765
127.051
136.283
141.234
145.463
146.322
118.753
99.6222
54.5679
52.2933
70.3081
85.1462
89.3871
91.7454
87.7187
86.0358
80.9971
78.8839
74.6968
73.1278
70.1155
69.1184
66.9088
66.0429
64.313
63.4953
62.0403
61.1146
59.7232
58.6373
57.2858
56.1726
54.98
54.0033
53.0552
52.2586
51.5048
50.8168
50.1594
49.5013
48.8588
48.1687
47.4727
46.7074
45.9152
45.0614
44.163
43.2394
42.2752
41.3518
40.4509
39.6767
39.0637
38.6162
38.1075
40.1429
43.508
46.9184
48.92
49.3259
48.9182
48.3891
47.9923
47.7387
47.589
47.5279
47.5365
47.6194
47.7568
47.964
48.2149
48.538
48.8962
49.3368
49.8043
50.3735
50.9593
51.6772
52.3959
53.2937
54.1679
55.2922
56.3548
57.7754
59.0747
60.8913
62.4963
64.8603
66.8764
70.0084
72.5954
76.8291
80.1939
85.9183
90.1639
97.5498
102.292
110.857
115.048
123.729
127.001
136.23
141.168
145.409
146.262
118.681
99.631
54.5465
52.1904
70.2088
85.0456
89.2921
91.6616
87.6417
85.9672
80.9427
78.8384
74.6573
73.091
70.0818
69.0876
66.8821
66.0197
64.2935
63.4784
62.0255
61.1012
59.7114
58.6269
57.2765
56.164
54.9717
53.9955
53.0482
52.2525
51.4998
50.8129
50.1566
49.4993
48.8576
48.1683
47.4731
46.7084
45.9169
45.0635
44.1653
43.2418
42.2775
41.354
40.453
39.6787
39.0663
38.6188
38.1227
40.1879
43.5633
46.954
48.9315
49.3237
48.9107
48.3803
47.9838
47.731
47.5821
47.5217
47.5308
47.6142
47.7521
47.9596
48.2108
48.5342
48.8925
49.3333
49.8009
50.3701