/*--------------------------------*- C++ -*----------------------------------*\
| =========                 |                                                 |
| \\      /  F ield         | OpenFOAM: The Open Source CFD Toolbox           |
|  \\    /   O peration     | Version:  2412                                  |
|   \\  /    A nd           | Website:  www.openfoam.com                      |
|    \\/     M anipulation  |                                                 |
\*---------------------------------------------------------------------------*/
FoamFile
{
    version     2.0;
    format      ascii;
    arch        "LSB;label=32;scalar=64";
    class       volScalarField;
    location    "0.2";
    object      nut;
}
// * * * * * * * * * * * * * * * * * * * * * * * * * * * * * * * * * * * * * //

dimensions      [0 2 -1 0 0 0 0];

internalField   nonuniform List<scalar> 
13068
(
0.337892
0.345382
0.354849
0.359664
0.357724
0.352612
0.348427
0.346431
0.345932
0.346039
0.346313
0.34664
0.346981
0.347362
0.347748
0.348192
0.348635
0.34916
0.349669
0.350293
0.350878
0.351624
0.352292
0.353187
0.353945
0.355027
0.355883
0.357208
0.358174
0.359814
0.360902
0.362974
0.364222
0.366838
0.368209
0.371501
0.373029
0.377184
0.378824
0.383909
0.38543
0.391231
0.39206
0.39808
0.39764
0.403521
0.402416
0.408876
0.408988
0.409708
0.406963
0.377382
0.361504
0.295051
0.333101
0.362969
0.375764
0.375829
0.377231
0.371504
0.371996
0.366375
0.367311
0.363292
0.364536
0.361544
0.36238
0.359807
0.360261
0.358335
0.358432
0.356741
0.356359
0.354756
0.353987
0.352541
0.351762
0.350707
0.350087
0.349353
0.348826
0.348247
0.347663
0.347095
0.346412
0.345785
0.344952
0.344188
0.343207
0.34227
0.341171
0.340057
0.338913
0.337707
0.336722
0.335795
0.335337
0.335353
0.335652
0.337895
0.345389
0.354856
0.359671
0.357732
0.35262
0.348432
0.346434
0.345935
0.346042
0.346316
0.346644
0.346984
0.347365
0.347752
0.348196
0.348639
0.349164
0.349673
0.350297
0.350882
0.351629
0.352297
0.353192
0.35395
0.355033
0.355889
0.357215
0.358181
0.359822
0.36091
0.362982
0.36423
0.366846
0.368217
0.37151
0.373039
0.377194
0.378834
0.383919
0.385442
0.391244
0.392074
0.398093
0.397654
0.403531
0.402428
0.408884
0.408996
0.409716
0.40697
0.377392
0.361529
0.295001
0.333077
0.36297
0.375775
0.375847
0.377242
0.371511
0.371998
0.366382
0.367319
0.363299
0.364539
0.361546
0.362386
0.359813
0.360265
0.358339
0.358437
0.356747
0.356364
0.354761
0.353991
0.352545
0.351764
0.350709
0.350089
0.349356
0.348829
0.348249
0.347666
0.347098
0.346415
0.345788
0.344955
0.34419
0.343208
0.34227
0.34117
0.340053
0.338909
0.337702
0.336716
0.335788
0.335329
0.335347
0.33565
0.337901
0.345401
0.354865
0.359677
0.357738
0.352626
0.348436
0.346437
0.345937
0.346045
0.346319
0.346647
0.346988
0.347369
0.347755
0.3482
0.348643
0.349169
0.349678
0.350302
0.350887
0.351633
0.352302
0.353197
0.353955
0.355039
0.355895
0.357221
0.358187
0.359829
0.360918
0.36299
0.364237
0.366854
0.368225
0.371518
0.373047
0.377203
0.378844
0.383929
0.385453
0.391255
0.392086
0.398105
0.397666
0.40354
0.402437
0.408889
0.409002
0.40972
0.406974
0.37739
0.361549
0.29492
0.333036
0.362973
0.375789
0.37587
0.377257
0.371519
0.372001
0.366391
0.367327
0.363305
0.364542
0.361548
0.362391
0.359818
0.360269
0.358342
0.358441
0.356752
0.356368
0.354765
0.353995
0.352549
0.351767
0.350711
0.350091
0.349359
0.348831
0.348252
0.347668
0.347101
0.346418
0.345791
0.344958
0.344191
0.343209
0.342269
0.341168
0.34005
0.338905
0.337696
0.336709
0.335781
0.335321
0.33534
0.335648
0.337909
0.345418
0.354878
0.359683
0.357742
0.352629
0.348439
0.346439
0.34594
0.346048
0.346322
0.34665
0.346991
0.347373
0.347759
0.348204
0.348647
0.349173
0.349682
0.350306
0.350891
0.351638
0.352307
0.353202
0.35396
0.355044
0.3559
0.357227
0.358194
0.359836
0.360925
0.362997
0.364244
0.36686
0.368232
0.371525
0.373055
0.377211
0.378852
0.383937
0.385461
0.391264
0.392096
0.398114
0.397675
0.403545
0.402443
0.408891
0.409003
0.409721
0.406975
0.377377
0.361566
0.294812
0.332978
0.362978
0.375807
0.375896
0.377274
0.37153
0.372006
0.366399
0.367336
0.363312
0.364543
0.361548
0.362395
0.359823
0.360272
0.358344
0.358444
0.356757
0.356371
0.354769
0.353997
0.352551
0.351768
0.350712
0.350092
0.349361
0.348833
0.348254
0.347671
0.347103
0.346421
0.345794
0.344961
0.344193
0.34321
0.342269
0.341167
0.340047
0.338901
0.337691
0.336703
0.335774
0.335314
0.335334
0.335645
0.337919
0.345439
0.354892
0.359687
0.357743
0.35263
0.34844
0.346441
0.345941
0.34605
0.346325
0.346653
0.346995
0.347376
0.347763
0.348208
0.348651
0.349177
0.349686
0.35031
0.350895
0.351642
0.352311
0.353207
0.353965
0.355048
0.355905
0.357232
0.358199
0.359842
0.360931
0.363003
0.364249
0.366866
0.368237
0.37153
0.37306
0.377217
0.378858
0.383944
0.385468
0.391271
0.392103
0.398121
0.397681
0.403548
0.402445
0.40889
0.409
0.409718
0.406971
0.377353
0.361578
0.294676
0.332905
0.362984
0.375828
0.375927
0.377293
0.371542
0.372011
0.366409
0.367344
0.363317
0.364544
0.361548
0.362398
0.359827
0.360274
0.358345
0.358446
0.35676
0.356374
0.354772
0.353999
0.352554
0.351769
0.350712
0.350093
0.349362
0.348835
0.348256
0.347672
0.347105
0.346423
0.345796
0.344963
0.344195
0.343211
0.342269
0.341166
0.340044
0.338897
0.337685
0.336696
0.335768
0.335307
0.335328
0.335643
0.337932
0.345464
0.35491
0.35969
0.35774
0.352628
0.348439
0.346441
0.345942
0.346052
0.346327
0.346656
0.346997
0.347379
0.347766
0.348211
0.348654
0.34918
0.349689
0.350314
0.350899
0.351646
0.352314
0.35321
0.353969
0.355052
0.355909
0.357237
0.358204
0.359848
0.360936
0.363008
0.364253
0.36687
0.368241
0.371535
0.373064
0.377221
0.378862
0.383948
0.385473
0.391276
0.392108
0.398124
0.397683
0.403547
0.402443
0.408885
0.408993
0.409711
0.406963
0.377319
0.361587
0.294516
0.332817
0.362993
0.375853
0.375961
0.377315
0.371555
0.372017
0.366419
0.367352
0.363322
0.364544
0.361547
0.3624
0.35983
0.360274
0.358346
0.358447
0.356763
0.356376
0.354774
0.354001
0.352555
0.351769
0.350712
0.350093
0.349363
0.348836
0.348257
0.347674
0.347107
0.346425
0.345798
0.344965
0.344196
0.343212
0.342268
0.341164
0.340041
0.338893
0.33768
0.33669
0.335761
0.3353
0.335323
0.335641
0.337946
0.345494
0.354929
0.359692
0.357735
0.352624
0.348437
0.34644
0.345943
0.346053
0.34633
0.346659
0.347
0.347382
0.347768
0.348214
0.348657
0.349183
0.349693
0.350317
0.350902
0.351649
0.352318
0.353214
0.353972
0.355056
0.355912
0.35724
0.358208
0.359852
0.36094
0.363012
0.364257
0.366873
0.368244
0.371537
0.373067
0.377223
0.378864
0.38395
0.385475
0.391278
0.39211
0.398126
0.397683
0.403543
0.402437
0.408876
0.408982
0.4097
0.406952
0.377275
0.361593
0.294331
0.332717
0.363004
0.375881
0.375999
0.37734
0.37157
0.372023
0.36643
0.36736
0.363327
0.364543
0.361545
0.362401
0.359831
0.360274
0.358345
0.358447
0.356765
0.356377
0.354775
0.354001
0.352556
0.351768
0.350711
0.350092
0.349364
0.348837
0.348258
0.347675
0.347108
0.346427
0.3458
0.344967
0.344198
0.343213
0.342267
0.341163
0.340038
0.33889
0.337675
0.336684
0.335755
0.335293
0.335317
0.335639
0.337963
0.345529
0.354952
0.359693
0.357727
0.352616
0.348432
0.346438
0.345943
0.346055
0.346332
0.346661
0.347002
0.347384
0.347771
0.348217
0.34866
0.349186
0.349695
0.35032
0.350905
0.351652
0.35232
0.353216
0.353974
0.355058
0.355915
0.357243
0.358211
0.359855
0.360944
0.363014
0.364259
0.366875
0.368245
0.371538
0.373068
0.377224
0.378865
0.383951
0.385476
0.391278
0.392109
0.398124
0.397678
0.403536
0.402428
0.408864
0.408967
0.409686
0.406936
0.377221
0.361597
0.294125
0.332606
0.36302
0.375914
0.376042
0.377367
0.371587
0.372031
0.366441
0.367367
0.363331
0.364542
0.361542
0.362402
0.359832
0.360273
0.358344
0.358447
0.356766
0.356377
0.354776
0.354001
0.352557
0.351767
0.35071
0.350091
0.349363
0.348837
0.348259
0.347676
0.347109
0.346428
0.345802
0.344969
0.344199
0.343213
0.342267
0.341161
0.340035
0.338886
0.33767
0.336679
0.335749
0.335286
0.335312
0.335637
0.337982
0.345568
0.354976
0.359693
0.357716
0.352605
0.348426
0.346435
0.345943
0.346056
0.346333
0.346663
0.347005
0.347386
0.347773
0.348219
0.348662
0.349188
0.349697
0.350322
0.350907
0.351654
0.352322
0.353218
0.353976
0.355061
0.355917
0.357246
0.358213
0.359858
0.360946
0.363016
0.36426
0.366875
0.368245
0.371538
0.373067
0.377223
0.378863
0.383949
0.385474
0.391276
0.392107
0.39812
0.397671
0.403526
0.402415
0.408848
0.408948
0.409668
0.406918
0.377159
0.3616
0.2939
0.332487
0.36304
0.375951
0.376089
0.377397
0.371606
0.372039
0.366453
0.367375
0.363335
0.364539
0.361539
0.362401
0.359832
0.360271
0.358342
0.358445
0.356767
0.356376
0.354776
0.354001
0.352556
0.351765
0.350707
0.350089
0.349363
0.348837
0.348259
0.347676
0.34711
0.346429
0.345803
0.344971
0.3442
0.343214
0.342266
0.34116
0.340032
0.338882
0.337665
0.336673
0.335743
0.33528
0.335307
0.335635
0.338003
0.345611
0.355003
0.359691
0.357701
0.352592
0.348417
0.346431
0.345942
0.346056
0.346335
0.346665
0.347006
0.347388
0.347775
0.348221
0.348664
0.34919
0.349699
0.350324
0.350909
0.351655
0.352324
0.35322
0.353978
0.355062
0.355919
0.357247
0.358215
0.35986
0.360948
0.363017
0.36426
0.366874
0.368244
0.371536
0.373065
0.37722
0.37886
0.383946
0.38547
0.391272
0.392101
0.398113
0.397661
0.403513
0.402399
0.40883
0.408926
0.409648
0.406897
0.377089
0.361603
0.293657
0.33236
0.363067
0.375994
0.37614
0.37743
0.371626
0.372049
0.366466
0.367383
0.363338
0.364536
0.361535
0.362399
0.359832
0.360268
0.358339
0.358443
0.356766
0.356375
0.354775
0.353999
0.352555
0.351763
0.350705
0.350087
0.349361
0.348836
0.348259
0.347676
0.34711
0.34643
0.345804
0.344972
0.344201
0.343214
0.342265
0.341158
0.340029
0.338879
0.337661
0.336667
0.335737
0.335273
0.335302
0.335633
0.338027
0.345659
0.355033
0.359688
0.357684
0.352576
0.348407
0.346426
0.34594
0.346057
0.346336
0.346666
0.347008
0.34739
0.347777
0.348222
0.348666
0.349191
0.349701
0.350325
0.35091
0.351657
0.352325
0.353221
0.353979
0.355063
0.35592
0.357248
0.358215
0.35986
0.360948
0.363017
0.364259
0.366873
0.368242
0.371534
0.373062
0.377216
0.378856
0.383941
0.385464
0.391265
0.392094
0.398104
0.397648
0.403497
0.40238
0.408809
0.4089
0.409625
0.406873
0.377012
0.361606
0.293399
0.33223
0.363101
0.376043
0.376196
0.377466
0.371649
0.372059
0.36648
0.367391
0.363341
0.364532
0.36153
0.362397
0.35983
0.360265
0.358335
0.35844
0.356765
0.356373
0.354774
0.353997
0.352554
0.35176
0.350701
0.350084
0.34936
0.348835
0.348258
0.347676
0.34711
0.346431
0.345805
0.344973
0.344202
0.343215
0.342265
0.341157
0.340027
0.338875
0.337656
0.336662
0.335731
0.335267
0.335298
0.335631
0.338052
0.345711
0.355064
0.359683
0.357663
0.352557
0.348395
0.34642
0.345938
0.346057
0.346337
0.346667
0.347009
0.347391
0.347778
0.348223
0.348667
0.349193
0.349702
0.350326
0.350911
0.351658
0.352326
0.353222
0.353979
0.355063
0.35592
0.357248
0.358215
0.359861
0.360948
0.363016
0.364257
0.36687
0.368239
0.371529
0.373057
0.377211
0.37885
0.383934
0.385457
0.391257
0.392085
0.398093
0.397633
0.403479
0.402358
0.408785
0.408871
0.409599
0.406847
0.376929
0.361611
0.293129
0.332097
0.363143
0.376098
0.376258
0.377505
0.371673
0.372071
0.366495
0.367399
0.363345
0.364528
0.361525
0.362394
0.359828
0.36026
0.358331
0.358436
0.356763
0.35637
0.354772
0.353995
0.352551
0.351757
0.350698
0.35008
0.349358
0.348833
0.348257
0.347676
0.34711
0.346431
0.345806
0.344974
0.344203
0.343215
0.342264
0.341156
0.340024
0.338872
0.337652
0.336657
0.335726
0.335261
0.335293
0.335629
0.33808
0.345767
0.355098
0.359678
0.35764
0.352535
0.348381
0.346414
0.345936
0.346056
0.346337
0.346668
0.34701
0.347392
0.347779
0.348224
0.348668
0.349194
0.349703
0.350327
0.350912
0.351658
0.352326
0.353222
0.353979
0.355063
0.35592
0.357248
0.358215
0.35986
0.360947
0.363014
0.364254
0.366866
0.368234
0.371524
0.373051
0.377204
0.378842
0.383925
0.385448
0.391247
0.392073
0.398079
0.397615
0.403458
0.402333
0.408759
0.40884
0.409572
0.40682
0.376841
0.361618
0.292849
0.331965
0.363194
0.37616
0.376325
0.377548
0.3717
0.372085
0.366511
0.367407
0.363348
0.364524
0.361519
0.36239
0.359825
0.360255
0.358326
0.358431
0.35676
0.356367
0.354769
0.353991
0.352549
0.351753
0.350693
0.350076
0.349355
0.348831
0.348256
0.347675
0.34711
0.346431
0.345806
0.344975
0.344203
0.343216
0.342263
0.341154
0.340021
0.338869
0.337647
0.336652
0.335721
0.335256
0.335289
0.335627
0.338109
0.345828
0.355135
0.359671
0.357613
0.352511
0.348366
0.346406
0.345933
0.346056
0.346338
0.346669
0.347011
0.347393
0.34778
0.348225
0.348668
0.349194
0.349703
0.350327
0.350912
0.351658
0.352326
0.353221
0.353979
0.355063
0.355919
0.357247
0.358214
0.359859
0.360946
0.363012
0.36425
0.366861
0.368229
0.371518
0.373044
0.377196
0.378833
0.383916
0.385437
0.391236
0.39206
0.398064
0.397595
0.403436
0.402305
0.40873
0.408807
0.409542
0.406792
0.37675
0.36163
0.292562
0.331836
0.363256
0.376229
0.376397
0.377594
0.371729
0.372099
0.366528
0.367416
0.363351
0.364519
0.361513
0.362386
0.359822
0.36025
0.358321
0.358426
0.356757
0.356363
0.354766
0.353988
0.352546
0.351748
0.350688
0.350072
0.349352
0.348829
0.348255
0.347674
0.347109
0.346431
0.345807
0.344976
0.344204
0.343216
0.342263
0.341153
0.340019
0.338866
0.337643
0.336647
0.335716
0.33525
0.335285
0.335625
0.338141
0.345893
0.355173
0.359663
0.357584
0.352483
0.348348
0.346397
0.345929
0.346055
0.346338
0.346669
0.347012
0.347393
0.34778
0.348226
0.348669
0.349194
0.349703
0.350327
0.350912
0.351658
0.352325
0.353221
0.353978
0.355062
0.355918
0.357245
0.358212
0.359857
0.360943
0.363008
0.364245
0.366856
0.368222
0.37151
0.373035
0.377186
0.378823
0.383905
0.385425
0.391223
0.392046
0.398047
0.397573
0.403411
0.402276
0.4087
0.408771
0.409512
0.406763
0.376655
0.361646
0.292272
0.331712
0.363329
0.376306
0.376475
0.377644
0.371761
0.372116
0.366546
0.367426
0.363354
0.364514
0.361506
0.362381
0.359818
0.360244
0.358315
0.358421
0.356753
0.356358
0.354762
0.353984
0.352542
0.351743
0.350683
0.350067
0.349349
0.348827
0.348253
0.347673
0.347109
0.346431
0.345807
0.344976
0.344204
0.343216
0.342262
0.341152
0.340016
0.338863
0.337639
0.336643
0.335711
0.335245
0.335281
0.335624
0.338175
0.345962
0.355214
0.359653
0.357551
0.352453
0.348328
0.346387
0.345925
0.346053
0.346338
0.34667
0.347012
0.347394
0.34778
0.348226
0.348669
0.349194
0.349703
0.350327
0.350911
0.351657
0.352324
0.353219
0.353977
0.35506
0.355916
0.357243
0.358209
0.359854
0.36094
0.363004
0.36424
0.366849
0.368215
0.371502
0.373026
0.377176
0.378811
0.383892
0.385411
0.391208
0.392029
0.398029
0.397548
0.403385
0.402244
0.408668
0.408734
0.409481
0.406733
0.376558
0.361668
0.29198
0.331596
0.363414
0.376392
0.37656
0.377698
0.371794
0.372133
0.366565
0.367435
0.363357
0.364508
0.3615
0.362376
0.359814
0.360238
0.358309
0.358415
0.356749
0.356353
0.354758
0.353979
0.352538
0.351738
0.350678
0.350062
0.349345
0.348824
0.348251
0.347671
0.347108
0.34643
0.345807
0.344977
0.344205
0.343216
0.342261
0.341151
0.340014
0.33886
0.337636
0.336638
0.335706
0.33524
0.335278
0.335622
0.338211
0.346036
0.355257
0.359642
0.357515
0.35242
0.348307
0.346376
0.34592
0.346052
0.346337
0.34667
0.347012
0.347394
0.34778
0.348226
0.348669
0.349194
0.349703
0.350326
0.35091
0.351656
0.352323
0.353218
0.353975
0.355058
0.355913
0.35724
0.358206
0.359851
0.360936
0.363
0.364234
0.366842
0.368206
0.371492
0.373015
0.377164
0.378799
0.383879
0.385397
0.391193
0.392012
0.398009
0.397523
0.403357
0.402211
0.408635
0.408695
0.409449
0.406704
0.37646
0.361696
0.29169
0.331491
0.363512
0.376486
0.376649
0.377755
0.371831
0.372153
0.366585
0.367446
0.363361
0.364503
0.361493
0.36237
0.35981
0.360231
0.358303
0.358408
0.356745
0.356348
0.354754
0.353974
0.352534
0.351732
0.350672
0.350057
0.349341
0.348821
0.348249
0.347669
0.347107
0.34643
0.345807
0.344977
0.344205
0.343217
0.342261
0.34115
0.340012
0.338858
0.337632
0.336634
0.335702
0.335235
0.335274
0.335621
0.33825
0.346114
0.355302
0.35963
0.357477
0.352385
0.348284
0.346364
0.345915
0.34605
0.346337
0.346669
0.347012
0.347394
0.34778
0.348225
0.348668
0.349193
0.349702
0.350325
0.350909
0.351655
0.352322
0.353216
0.353973
0.355056
0.355911
0.357237
0.358203
0.359847
0.360932
0.362994
0.364227
0.366834
0.368198
0.371482
0.373004
0.377152
0.378785
0.383865
0.385381
0.391176
0.391993
0.397988
0.397495
0.403328
0.402176
0.408601
0.408655
0.409417
0.406675
0.376363
0.361733
0.291404
0.331397
0.363624
0.376588
0.376745
0.377816
0.371869
0.372174
0.366607
0.367456
0.363364
0.364498
0.361486
0.362364
0.359805
0.360224
0.358296
0.358402
0.35674
0.356343
0.354749
0.353969
0.352529
0.351727
0.350666
0.350051
0.349337
0.348817
0.348246
0.347668
0.347105
0.346429
0.345807
0.344978
0.344206
0.343217
0.342261
0.341149
0.34001
0.338855
0.337629
0.33663
0.335698
0.335231
0.335271
0.33562
0.33829
0.346195
0.35535
0.359617
0.357435
0.352346
0.348259
0.346351
0.345909
0.346048
0.346336
0.346669
0.347011
0.347393
0.347779
0.348225
0.348667
0.349192
0.349701
0.350324
0.350908
0.351653
0.35232
0.353214
0.35397
0.355053
0.355908
0.357234
0.358199
0.359843
0.360927
0.362989
0.36422
0.366826
0.368188
0.371471
0.372992
0.377139
0.378771
0.383849
0.385365
0.391159
0.391974
0.397966
0.397467
0.403298
0.40214
0.408566
0.408614
0.409385
0.406648
0.376266
0.361778
0.291125
0.331317
0.36375
0.3767
0.376847
0.377881
0.37191
0.372197
0.366629
0.367468
0.363368
0.364492
0.361479
0.362358
0.3598
0.360217
0.358289
0.358395
0.356734
0.356337
0.354744
0.353964
0.352524
0.351721
0.350659
0.350045
0.349332
0.348814
0.348244
0.347666
0.347104
0.346428
0.345807
0.344978
0.344206
0.343217
0.34226
0.341149
0.340009
0.338853
0.337625
0.336626
0.335694
0.335226
0.335268
0.335618
0.338332
0.346281
0.355399
0.359602
0.357391
0.352305
0.348232
0.346337
0.345903
0.346045
0.346335
0.346668
0.347011
0.347392
0.347779
0.348224
0.348666
0.349191
0.3497
0.350323
0.350906
0.351651
0.352317
0.353211
0.353967
0.35505
0.355904
0.35723
0.358195
0.359838
0.360922
0.362982
0.364212
0.366816
0.368178
0.37146
0.37298
0.377125
0.378756
0.383833
0.385347
0.39114
0.391954
0.397943
0.397437
0.403266
0.402102
0.40853
0.408573
0.409353
0.406621
0.376172
0.361832
0.290856
0.331253
0.36389
0.37682
0.376954
0.377949
0.371953
0.372221
0.366653
0.36748
0.363373
0.364487
0.361473
0.362352
0.359795
0.36021
0.358282
0.358388
0.356729
0.356331
0.354739
0.353959
0.352519
0.351714
0.350653
0.350039
0.349327
0.34881
0.348241
0.347664
0.347103
0.346427
0.345807
0.344978
0.344207
0.343218
0.34226
0.341148
0.340007
0.338851
0.337623
0.336623
0.33569
0.335222
0.335266
0.335617
0.338377
0.346372
0.35545
0.359586
0.357343
0.352261
0.348204
0.346322
0.345896
0.346042
0.346334
0.346668
0.34701
0.347392
0.347778
0.348223
0.348665
0.34919
0.349698
0.350321
0.350904
0.351649
0.352315
0.353209
0.353964
0.355046
0.355901
0.357226
0.35819
0.359833
0.360916
0.362975
0.364204
0.366807
0.368167
0.371448
0.372966
0.377111
0.378741
0.383817
0.385329
0.391122
0.391932
0.397919
0.397407
0.403234
0.402064
0.408494
0.408532
0.409323
0.406597
0.37608
0.361896
0.290599
0.331206
0.364044
0.376948
0.377066
0.37802
0.371999
0.372247
0.366679
0.367493
0.363378
0.364482
0.361466
0.362345
0.35979
0.360202
0.358275
0.358381
0.356723
0.356325
0.354734
0.353953
0.352514
0.351708
0.350646
0.350033
0.349323
0.348806
0.348238
0.347662
0.347101
0.346426
0.345806
0.344979
0.344207
0.343218
0.34226
0.341148
0.340006
0.33885
0.33762
0.33662
0.335687
0.335219
0.335264
0.335616
0.338423
0.346466
0.355504
0.359568
0.357293
0.352214
0.348173
0.346306
0.345889
0.346039
0.346332
0.346667
0.347009
0.347391
0.347777
0.348221
0.348664
0.349188
0.349696
0.350319
0.350902
0.351646
0.352312
0.353206
0.353961
0.355043
0.355896
0.357221
0.358185
0.359827
0.36091
0.362968
0.364195
0.366797
0.368156
0.371435
0.372953
0.377096
0.378725
0.3838
0.385311
0.391102
0.391911
0.397895
0.397376
0.403202
0.402026
0.408457
0.408491
0.409293
0.406574
0.375993
0.36197
0.290355
0.331176
0.364212
0.377086
0.377184
0.378095
0.372046
0.372274
0.366705
0.367506
0.363383
0.364478
0.361459
0.362339
0.359784
0.360195
0.358268
0.358373
0.356717
0.356318
0.354728
0.353947
0.352509
0.351701
0.350639
0.350026
0.349318
0.348802
0.348235
0.34766
0.3471
0.346425
0.345806
0.344979
0.344208
0.343219
0.342261
0.341148
0.340005
0.338848
0.337618
0.336617
0.335684
0.335215
0.335262
0.335616
0.338472
0.346564
0.35556
0.359549
0.357239
0.352165
0.348141
0.346289
0.345881
0.346036
0.34633
0.346665
0.347008
0.347389
0.347775
0.34822
0.348662
0.349187
0.349694
0.350317
0.3509
0.351644
0.352309
0.353202
0.353958
0.355039
0.355892
0.357216
0.35818
0.359822
0.360904
0.36296
0.364186
0.366786
0.368144
0.371422
0.372938
0.37708
0.378708
0.383782
0.385292
0.391082
0.391889
0.39787
0.397344
0.403169
0.401986
0.408421
0.40845
0.409265
0.406554
0.375909
0.362056
0.290128
0.331165
0.364394
0.377231
0.377306
0.378173
0.372095
0.372302
0.366732
0.36752
0.363389
0.364473
0.361453
0.362332
0.359779
0.360188
0.358262
0.358366
0.356711
0.356312
0.354723
0.353941
0.352503
0.351695
0.350632
0.35002
0.349313
0.348798
0.348232
0.347658
0.347098
0.346424
0.345806
0.344979
0.344208
0.343219
0.342261
0.341148
0.340005
0.338847
0.337616
0.336614
0.335681
0.335212
0.335261
0.335615
0.338523
0.346666
0.355617
0.359528
0.357182
0.352113
0.348107
0.346271
0.345873
0.346033
0.346329
0.346664
0.347007
0.347388
0.347774
0.348218
0.348661
0.349185
0.349692
0.350315
0.350897
0.351641
0.352306
0.353199
0.353954
0.355035
0.355888
0.357211
0.358174
0.359815
0.360897
0.362953
0.364177
0.366775
0.368132
0.371408
0.372924
0.377064
0.378691
0.383764
0.385273
0.391062
0.391867
0.397846
0.397313
0.403136
0.401947
0.408385
0.40841
0.409238
0.406536
0.375831
0.362153
0.289918
0.331173
0.364588
0.377384
0.377433
0.378253
0.372146
0.372332
0.36676
0.367534
0.363395
0.364469
0.361447
0.362326
0.359774
0.360181
0.358255
0.358359
0.356705
0.356306
0.354717
0.353935
0.352498
0.351688
0.350625
0.350013
0.349307
0.348794
0.34823
0.347656
0.347097
0.346423
0.345805
0.34498
0.344209
0.34322
0.342262
0.341148
0.340004
0.338847
0.337614
0.336612
0.335678
0.335209
0.335259
0.335615
0.338576
0.346772
0.355677
0.359507
0.357123
0.352058
0.348071
0.346252
0.345865
0.346029
0.346327
0.346663
0.347005
0.347386
0.347772
0.348217
0.348659
0.349183
0.34969
0.350312
0.350894
0.351638
0.352303
0.353195
0.35395
0.35503
0.355883
0.357206
0.358168
0.359809
0.36089
0.362944
0.364167
0.366764
0.36812
0.371395
0.372909
0.377048
0.378674
0.383746
0.385254
0.391042
0.391845
0.397821
0.39728
0.403103
0.401908
0.408349
0.40837
0.409213
0.406521
0.375759
0.362261
0.289727
0.3312
0.364796
0.377544
0.377564
0.378335
0.372198
0.372363
0.366789
0.367549
0.363401
0.364465
0.361441
0.362319
0.359769
0.360174
0.358248
0.358352
0.356699
0.356299
0.354711
0.353929
0.352492
0.351682
0.350618
0.350007
0.349302
0.34879
0.348227
0.347653
0.347095
0.346422
0.345805
0.34498
0.34421
0.343221
0.342262
0.341149
0.340004
0.338846
0.337613
0.33661
0.335676
0.335207
0.335259
0.335614
0.33863
0.346882
0.355738
0.359483
0.35706
0.352
0.348034
0.346232
0.345855
0.346025
0.346324
0.346661
0.347004
0.347385
0.34777
0.348215
0.348657
0.34918
0.349688
0.350309
0.350891
0.351634
0.352299
0.353191
0.353946
0.355026
0.355878
0.3572
0.358162
0.359802
0.360883
0.362936
0.364158
0.366753
0.368107
0.371381
0.372894
0.377032
0.378657
0.383728
0.385234
0.391022
0.391823
0.397796
0.397248
0.40307
0.401869
0.408314
0.408331
0.409191
0.406509
0.375693
0.36238
0.289557
0.331246
0.365014
0.37771
0.377698
0.37842
0.372251
0.372395
0.366819
0.367565
0.363408
0.364461
0.361435
0.362313
0.359764
0.360167
0.358242
0.358345
0.356694
0.356293
0.354706
0.353924
0.352486
0.351675
0.350611
0.35
0.349297
0.348786
0.348224
0.347651
0.347094
0.346422
0.345805
0.34498
0.344211
0.343222
0.342263
0.34115
0.340004
0.338846
0.337612
0.336608
0.335675
0.335205
0.335258
0.335614
0.338687
0.346996
0.355801
0.359459
0.356995
0.35194
0.347994
0.346211
0.345846
0.34602
0.346322
0.346659
0.347002
0.347383
0.347768
0.348213
0.348654
0.349178
0.349685
0.350306
0.350888
0.351631
0.352296
0.353187
0.353941
0.355021
0.355873
0.357195
0.358156
0.359795
0.360875
0.362927
0.364148
0.366741
0.368095
0.371366
0.372879
0.377016
0.378639
0.38371
0.385215
0.391002
0.391801
0.397771
0.397217
0.403037
0.40183
0.40828
0.408294
0.40917
0.4065
0.375633
0.362511
0.289409
0.331311
0.365243
0.377882
0.377834
0.378506
0.372305
0.372427
0.366849
0.367581
0.363415
0.364458
0.36143
0.362307
0.359759
0.360161
0.358236
0.358339
0.356688
0.356287
0.3547
0.353918
0.352481
0.351668
0.350604
0.349993
0.349292
0.348782
0.348221
0.347649
0.347093
0.346421
0.345805
0.344981
0.344212
0.343223
0.342265
0.341151
0.340005
0.338846
0.337611
0.336607
0.335673
0.335203
0.335258
0.335614
0.338746
0.347114
0.355866
0.359432
0.356926
0.351877
0.347953
0.346189
0.345836
0.346016
0.346319
0.346657
0.347
0.347381
0.347766
0.34821
0.348652
0.349176
0.349682
0.350304
0.350885
0.351628
0.352292
0.353183
0.353937
0.355016
0.355868
0.357189
0.35815
0.359788
0.360868
0.362918
0.364137
0.36673
0.368082
0.371352
0.372863
0.376999
0.378622
0.383691
0.385195
0.390982
0.391779
0.397747
0.397185
0.403005
0.401791
0.408246
0.408257
0.409151
0.406494
0.375581
0.362654
0.289283
0.331392
0.365481
0.378059
0.377973
0.378593
0.37236
0.372461
0.36688
0.367597
0.363423
0.364454
0.361425
0.3623
0.359754
0.360154
0.35823
0.358332
0.356682
0.356281
0.354695
0.353912
0.352475
0.351662
0.350597
0.349987
0.349286
0.348778
0.348218
0.347648
0.347091
0.34642
0.345805
0.344982
0.344213
0.343225
0.342266
0.341152
0.340006
0.338847
0.337611
0.336607
0.335673
0.335202
0.335259
0.335615
0.338806
0.347235
0.355933
0.359405
0.356855
0.351811
0.34791
0.346166
0.345825
0.346011
0.346317
0.346655
0.346998
0.347379
0.347764
0.348208
0.34865
0.349173
0.349679
0.3503
0.350882
0.351624
0.352288
0.353179
0.353932
0.355011
0.355862
0.357183
0.358143
0.359781
0.36086
0.362909
0.364127
0.366718
0.368069
0.371338
0.372848
0.376982
0.378605
0.383673
0.385176
0.390962
0.391757
0.397723
0.397154
0.402973
0.401753
0.408213
0.408222
0.409135
0.406492
0.375536
0.362808
0.289181
0.331491
0.365727
0.37824
0.378113
0.378681
0.372415
0.372494
0.366911
0.367613
0.363431
0.364452
0.36142
0.362294
0.359749
0.360148
0.358225
0.358326
0.356676
0.356275
0.35469
0.353907
0.35247
0.351656
0.350591
0.349981
0.349281
0.348774
0.348215
0.347646
0.34709
0.34642
0.345805
0.344982
0.344214
0.343227
0.342268
0.341154
0.340007
0.338848
0.337611
0.336606
0.335672
0.335202
0.33526
0.335616
0.338869
0.34736
0.356001
0.359376
0.35678
0.351742
0.347865
0.346143
0.345814
0.346006
0.346314
0.346653
0.346996
0.347376
0.347762
0.348206
0.348647
0.34917
0.349676
0.350297
0.350878
0.35162
0.352284
0.353175
0.353928
0.355006
0.355857
0.357177
0.358137
0.359774
0.360852
0.3629
0.364117
0.366706
0.368056
0.371323
0.372832
0.376966
0.378587
0.383655
0.385157
0.390942
0.391736
0.397699
0.397123
0.402941
0.401716
0.408181
0.408189
0.409121
0.406492
0.375499
0.362972
0.289102
0.331604
0.36598
0.378424
0.378254
0.378769
0.37247
0.372528
0.366943
0.367629
0.363439
0.364449
0.361415
0.362288
0.359745
0.360143
0.35822
0.35832
0.356671
0.35627
0.354685
0.353901
0.352465
0.35165
0.350584
0.349974
0.349276
0.34877
0.348213
0.347644
0.347089
0.346419
0.345805
0.344983
0.344216
0.343228
0.34227
0.341156
0.340008
0.338849
0.337611
0.336606
0.335672
0.335201
0.335261
0.335616
0.338934
0.347489
0.356071
0.359345
0.356702
0.351671
0.347819
0.346118
0.345802
0.346
0.346311
0.34665
0.346993
0.347374
0.347759
0.348203
0.348644
0.349167
0.349673
0.350294
0.350874
0.351616
0.35228
0.35317
0.353923
0.355001
0.355851
0.357171
0.35813
0.359766
0.360844
0.362891
0.364106
0.366694
0.368043
0.371309
0.372817
0.376949
0.37857
0.383637
0.385139
0.390923
0.391716
0.397676
0.397093
0.40291
0.401679
0.408151
0.408157
0.40911
0.406496
0.37547
0.363148
0.289047
0.331731
0.366238
0.37861
0.378396
0.378857
0.372525
0.372562
0.366974
0.367646
0.363447
0.364447
0.361411
0.362282
0.359741
0.360138
0.358215
0.358315
0.356666
0.356264
0.35468
0.353896
0.352459
0.351643
0.350578
0.349968
0.349271
0.348767
0.34821
0.347643
0.347088
0.346419
0.345806
0.344984
0.344218
0.34323
0.342272
0.341158
0.34001
0.33885
0.337612
0.336607
0.335672
0.335201
0.335263
0.335618
0.339
0.347621
0.356143
0.359313
0.356622
0.351597
0.347771
0.346092
0.34579
0.345995
0.346308
0.346648
0.346991
0.347371
0.347757
0.3482
0.348641
0.349164
0.34967
0.35029
0.350871
0.351612
0.352275
0.353165
0.353918
0.354996
0.355846
0.357164
0.358123
0.359759
0.360836
0.362882
0.364096
0.366682
0.36803
0.371294
0.372802
0.376933
0.378553
0.38362
0.38512
0.390904
0.391696
0.397654
0.397063
0.40288
0.401644
0.408121
0.408127
0.409101
0.406503
0.375449
0.363333
0.289016
0.33187
0.366499
0.378798
0.378536
0.378945
0.372579
0.372595
0.367005
0.367662
0.363455
0.364444
0.361407
0.362277
0.359737
0.360133
0.358211
0.358309
0.356661
0.356259
0.354675
0.353891
0.352454
0.351638
0.350571
0.349962
0.349266
0.348763
0.348208
0.347641
0.347088
0.346418
0.345806
0.344985
0.344219
0.343232
0.342274
0.341161
0.340012
0.338852
0.337613
0.336608
0.335673
0.335202
0.335265
0.335619
0.339069
0.347757
0.356216
0.359279
0.356538
0.351521
0.34772
0.346066
0.345778
0.345989
0.346304
0.346645
0.346988
0.347369
0.347754
0.348197
0.348638
0.349161
0.349667
0.350287
0.350867
0.351608
0.352271
0.353161
0.353913
0.35499
0.35584
0.357158
0.358116
0.359751
0.360828
0.362873
0.364086
0.36667
0.368017
0.37128
0.372787
0.376917
0.378537
0.383603
0.385103
0.390886
0.391677
0.397632
0.397034
0.402851
0.401609
0.408093
0.408098
0.409095
0.406513
0.375435
0.363528
0.289009
0.33202
0.366762
0.378986
0.378676
0.379032
0.372633
0.372629
0.367036
0.367679
0.363464
0.364442
0.361403
0.362271
0.359733
0.360128
0.358207
0.358304
0.356656
0.356254
0.354671
0.353886
0.352449
0.351632
0.350565
0.349956
0.349262
0.348759
0.348205
0.34764
0.347087
0.346418
0.345807
0.344987
0.344221
0.343235
0.342277
0.341164
0.340015
0.338855
0.337615
0.336609
0.335674
0.335203
0.335268
0.335621
0.339139
0.347896
0.356291
0.359243
0.356452
0.351441
0.347669
0.346038