/*--------------------------------*- C++ -*----------------------------------*\
| =========                 |                                                 |
| \\      /  F ield         | OpenFOAM: The Open Source CFD Toolbox           |
|  \\    /   O peration     | Version:  2412                                  |
|   \\  /    A nd           | Website:  www.openfoam.com                      |
|    \\/     M anipulation  |                                                 |
\*---------------------------------------------------------------------------*/
FoamFile
{
    version     2.0;
    format      ascii;
    arch        "LSB;label=32;scalar=64";
    class       volScalarField;
    location    "0.2";
    object      p;
}
// * * * * * * * * * * * * * * * * * * * * * * * * * * * * * * * * * * * * * //

dimensions      [0 2 -2 0 0 0 0];

internalField   nonuniform List<scalar> 
13068
(
112249
112243
112224
112190
112149
112072
111991
111867
111754
111585
111443
111222
111051
110770
110569
110214
109988
109536
109293
108714
108467
107720
107491
106518
106344
105063
105001
103295
103436
101136
101620
98484.1
99522.1
95201.6
97110.4
91105.1
94354.5
85945.1
91223.6
79372.9
87667.7
70864.8
83546.5
59549.6
78453.3
43877.6
71441.2
21299.4
60974.4
-11261.8
45961.8
-55288.3
28465.5
-103079
16800.1
-74656.5
14462.8
-43250.1
19792.1
-16008.2
27448.6
4643.31
34606.9
20116.1
40971.9
31892.9
46449.7
40887.8
51047.1
47765.1
54881.9
53079.6
58123.1
57285.5
60933.7
60731.1
63436.5
63647.5
65691.8
66160.9
67714.6
68339.7
69510.1
70236.7
71094.8
71908.6
72498.6
73415.4
73758.2
74813.3
74909.4
76148.4
75982.2
77451.8
76996.3
78737.1
77959.3
80003
78863.6
112249
112244
112224
112190
112149
112072
111991
111867
111754
111585
111443
111222
111051
110770
110569
110214
109988
109536
109293
108714
108467
107720
107491
106518
106344
105063
105001
103295
103436
101136
101620
98484.2
99522
95201.6
97110.4
91105
94354.4
85945
91223.5
79372.8
87667.7
70864.7
83546.7
59549.8
78453.9
43878.2
71442.3
21299.9
60975.3
-11262.3
45961.5
-55289.9
28465
-103080
16800
-74657.8
14462.7
-43251
19791
-16008.8
27447.8
4643.11
34606.2
20115.7
40971.1
31892.3
46448.9
40887.1
51046.3
47764.4
54881.2
53078.9
58122.5
57284.8
60933
60730.3
63435.6
63646.4
65690.7
66159.6
67713.3
68338.2
69508.5
70235
71093
71906.7
72496.7
73413.4
73756.2
74811.3
74907.6
76146.5
75980.7
77450
76995.3
78735.6
77959.2
80001.7
78864.5
112249
112244
112224
112190
112149
112072
111991
111867
111754
111585
111443
111222
111051
110770
110570
110214
109988
109536
109293
108714
108467
107720
107491
106518
106344
105063
105001
103295
103436
101136
101620
98484.2
99522
95201.6
97110.3
91105
94354.4
85944.9
91223.4
79372.7
87667.7
70864.7
83546.9
59550
78454.6
43878.9
71443.5
21300.6
60976.1
-11262.8
45961.3
-55291.8
28464.3
-103083
16799.7
-74659.3
14462.4
-43252
19789.7
-16009.4
27447
4643
34605.5
20115.4
40970.3
31891.7
46448.1
40886.4
51045.6
47763.8
54880.6
53078.3
58121.9
57284.2
60932.3
60729.5
63434.6
63645.4
65689.6
66158.4
67711.9
68336.7
69507
70233.4
71091.3
71904.9
72494.8
73411.4
73754.3
74809.3
74905.8
76144.6
75979.2
77448.3
76994.4
78734
77959
80000.4
78865.4
112249
112244
112224
112191
112149
112072
111991
111867
111754
111585
111443
111223
111051
110770
110570
110214
109988
109536
109293
108714
108467
107720
107491
106518
106344
105063
105001
103295
103436
101137
101620
98484.3
99522.1
95201.7
97110.3
91105
94354.3
85944.9
91223.4
79372.7
87667.7
70864.8
83547.2
59550.4
78455.4
43879.7
71444.8
21301.4
60977.1
-11263.2
45961.1
-55293.9
28463.4
-103087
16799.1
-74661
14462
-43253
19788.4
-16010
27446.3
4642.98
34604.7
20115.2
40969.6
31891.2
46447.4
40885.9
51045
47763.2
54880
53077.8
58121.3
57283.6
60931.6
60728.7
63433.8
63644.4
65688.5
66157.2
67710.6
68335.3
69505.5
70231.7
71089.6
71903.1
72493
73409.4
73752.4
74807.3
74904.1
76142.6
75977.7
77446.5
76993.5
78732.5
77958.8
79999.1
78866.2
112250
112244
112224
112191
112149
112072
111991
111867
111754
111585
111443
111223
111051
110770
110570
110214
109988
109536
109293
108714
108467
107720
107492
106519
106344
105064
105001
103296
103436
101137
101620
98484.4
99522.1
95201.8
97110.3
91105.1
94354.3
85945
91223.3
79372.7
87667.7
70864.9
83547.4
59550.9
78456.2
43880.6
71446.2
21302.4
60978.2
-11263.5
45960.8
-55296.3
28462.3
-103092
16798.2
-74662.9
14461.4
-43254
19787.1
-16010.4
27445.4
4643.02
34604
20115.1
40968.8
31890.8
46446.6
40885.4
51044.3
47762.7
54879.4
53077.3
58120.7
57283
60930.9
60728
63432.9
63643.4
65687.4
66156
67709.4
68333.9
69504
70230.1
71087.9
71901.2
72491.1
73407.5
73750.6
74805.3
74902.3
76140.7
75976.2
77444.8
76992.5
78731
77958.6
79997.8
78867
112250
112244
112224
112191
112149
112072
111991
111867
111755
111585
111443
111223
111051
110770
110570
110214
109988
109536
109293
108714
108467
107720
107492
106519
106344
105064
105001
103296
103436
101137
101620
98484.6
99522.2
95201.9
97110.3
91105.2
94354.3
85945
91223.3
79372.8
87667.8
70865.2
83547.8
59551.5
78457
43881.8
71447.7
21303.6
60979.3
-11263.7
45960.6
-55299
28461
-103099
16797.1
-74665.1
14460.6
-43255.1
19785.6
-16010.8
27444.6
4643.14
34603.3
20115
40968.1
31890.5
46445.9
40884.9
51043.7
47762.2
54878.9
53076.8
58120.1
57282.4
60930.2
60727.2
63432
63642.5
65686.3
66154.9
67708.1
68332.5
69502.5
70228.5
71086.2
71899.4
72489.3
73405.5
73748.7
74803.3
74900.5
76138.8
75974.8
77443
76991.5
78729.5
77958.4
79996.6
78867.8
112250
112244
112225
112191
112150
112072
111991
111867
111755
111585
111444
111223
111051
110770
110570
110214
109989
109536
109293
108714
108468
107721
107492
106519
106344
105064
105001
103296
103436
101137
101620
98484.8
99522.3
95202.1
97110.4
91105.3
94354.3
85945.1
91223.3
79372.9
87667.8
70865.4
83548.1
59552.1
78458
43883
71449.3
21304.8
60980.6
-11263.9
45960.4
-55302
28459.5
-103106
16795.7
-74667.5
14459.6
-43256.3
19784.1
-16011.1
27443.8
4643.34
34602.5
20114.9
40967.3
31890.2
46445.2
40884.5
51043
47761.8
54878.3
53076.4
58119.6
57281.9
60929.5
60726.5
63431.1
63641.5
65685.2
66153.7
67706.8
68331.2
69501.1
70226.9
71084.5
71897.6
72487.5
73403.6
73746.8
74801.3
74898.8
76136.9
75973.3
77441.3
76990.5
78728
77958.2
79995.3
78868.6
112250
112245
112225
112191
112150
112073
111992
111867
111755
111586
111444
111223
111052
110771
110570
110214
109989
109537
109294
108715
108468
107721
107492
106519
106345
105064
105001
103296
103436
101137
101620
98485
99522.4
95202.3
97110.4
91105.5
94354.3
85945.3
91223.3
79373.1
87667.9
70865.8
83548.5
59552.9
78459
43884.4
71451
21306.3
60982
-11264.1
45960.3
-55305.2
28457.8
-103115
16794
-74670.1
14458.5
-43257.5
19782.5
-16011.4
27443
4643.6
34601.8
20115
40966.6
31889.9
46444.5
40884.1
51042.4
47761.4
54877.8
53076
58119
57281.4
60928.8
60725.8
63430.2
63640.6
65684.1
66152.5
67705.5
68329.8
69499.6
70225.3
71082.9
71895.8
72485.7
73401.6
73745
74799.3
74897
76134.9
75971.8
77439.5
76989.5
78726.5
77958
79994.1
78869.3
112251
112245
112225
112192
112150
112073
111992
111868
111755
111586
111444
111223
111052
110771
110570
110215
109989
109537
109294
108715
108468
107721
107492
106519
106345
105064
105002
103296
103436
101138
101621
98485.3
99522.5
95202.6
97110.5
91105.8
94354.3
85945.5
91223.3
79373.3
87668
70866.2
83549
59553.8
78460.1
43885.9
71452.9
21307.8
60983.4
-11264.2
45960.1
-55308.8
28455.9
-103125
16792.1
-74673
14457.3
-43258.7
19780.8
-16011.6
27442.1
4643.94
34601.1
20115.1
40965.9
31889.8
46443.9
40883.9
51041.9
47761.1
54877.2
53075.6
58118.5
57280.9
60928.1
60725.1
63429.3
63639.6
65683.1
66151.4
67704.3
68328.4
69498.1
70223.7
71081.2
71894
72483.9
73399.7
73743.1
74797.3
74895.2
76133
75970.3
77437.7
76988.5
78725
77957.7
79992.9
78870.1
112251
112245
112226
112192
112150
112073
111992
111868
111755
111586
111444
111224
111052
110771
110571
110215
109989
109537
109294
108715
108468
107721
107493
106520
106345
105065
105002
103297
103437
101138
101621
98485.6
99522.6
95202.9
97110.6
91106
94354.4
85945.8
91223.3
79373.6
87668.1
70866.6
83549.4
59554.7
78461.3
43887.6
71454.8
21309.6
60985
-11264.2
45959.9
-55312.6
28453.8
-103137
16790
-74676.1
14455.9
-43260
19779
-16011.8
27441.2
4644.36
34600.3
20115.3
40965.2
31889.7
46443.2
40883.6
51041.3
47760.8
54876.7
53075.3
58117.9
57280.4
60927.5
60724.4
63428.4
63638.7
65682
66150.2
67703
68327.1
69496.7
70222.2
71079.6
71892.2
72482.1
73397.7
73741.2
74795.3
74893.4
76131
75968.7
77436
76987.5
78723.5
77957.5
79991.7
78870.8
112251
112246
112226
112192
112151
112073
111992
111868
111756
111586
111444
111224
111052
110771
110571
110215
109990
109537
109294
108716
108469
107722
107493
106520
106345
105065
105002
103297
103437
101138
101621
98485.9
99522.8
95203.2
97110.7
91106.4
94354.4
85946.1
91223.4
79373.9
87668.3
70867.2
83549.9
59555.8
78462.5
43889.4
71456.8
21311.4
60986.6
-11264.2
45959.8
-55316.8
28451.5
-103149
16787.6
-74679.4
14454.3
-43261.4
19777.1
-16011.8
27440.4
4644.85
34599.6
20115.5
40964.5
31889.6
46442.6
40883.5
51040.8
47760.6
54876.2
53075
58117.4
57280
60926.8
60723.7
63427.5
63637.8
65680.9
66149.1
67701.8
68325.7
69495.3
70220.6
71077.9
71890.4
72480.3
73395.8
73739.4
74793.3
74891.6
76129.1
75967.2
77434.2
76986.5
78722
77957.2
79990.5
78871.5
112252
112246
112226
112192
112151
112074
111993
111868
111756
111587
111445
111224
111053
110772
110571
110215
109990
109538
109295
108716
108469
107722
107493
106520
106346
105065
105002
103297
103437
101139
101621
98486.3
99523
95203.6
97110.9
91106.7
94354.5
85946.4
91223.4
79374.3
87668.4
70867.8
83550.4
59556.9
78463.8
43891.4
71459
21313.5
60988.4
-11264.1
45959.6
-55321.2
28448.9
-103163
16784.9
-74682.9
14452.6
-43262.7
19775.2
-16011.9
27439.5
4645.41
34598.9
20115.8
40963.9
31889.6
46442
40883.3
51040.3
47760.4
54875.8
53074.8
58116.9
57279.6
60926.1
60723
63426.7
63636.8
65679.9
66148
67700.6
68324.4
69493.8
70219
71076.3
71888.7
72478.5
73393.8
73737.5
74791.2
74889.8
76127.1
75965.7
77432.4
76985.4
78720.5
77956.9
79989.3
78872.2
112252
112246
112227
112193
112151
112074
111993
111869
111756
111587
111445
111224
111053
110772
110572
110216
109990
109538
109295
108716
108469
107722
107493
106521
106346
105066
105003
103298
103437
101139
101621
98486.7
99523.2
95204
97111
91107.1
94354.6
85946.8
91223.5
79374.8
87668.6
70868.4
83551
59558.2
78465.2
43893.5
71461.3
21315.6
60990.2
-11264
45959.4
-55326
28446.1
-103178
16782
-74686.6
14450.7
-43264.2
19773.1
-16011.8
27438.6
4646.04
34598.1
20116.1
40963.2
31889.7
46441.4
40883.3
51039.8
47760.3
54875.3
53074.6
58116.4
57279.2
60925.4
60722.4
63425.8
63635.9
65678.8
66146.9
67699.3
68323.1
69492.4
70217.5
71074.7
71886.9
72476.7
73391.9
73735.6
74789.2
74888
76125.1
75964.1
77430.6
76984.3
78718.9
77956.5
79988.1
78872.9
112253
112247
112227
112193
112152
112074
111993
111869
111757
111587
111445
111225
111053
110772
110572
110216
109991
109538
109295
108717
108470
107723
107494
106521
106346
105066
105003
103298
103438
101139
101622
98487.2
99523.4
95204.4
97111.2
91107.6
94354.7
85947.3
91223.5
79375.2
87668.8
70869.1
83551.6
59559.5
78466.7
43895.7
71463.6
21317.9
60992.1
-11263.8
45959.3
-55331
28443.1
-103194
16778.9
-74690.5
14448.7
-43265.7
19771
-16011.7
27437.7
4646.75
34597.4
20116.6
40962.5
31889.8
46440.8
40883.3
51039.3
47760.2
54874.9
53074.4
58115.9
57278.8
60924.8
60721.7
63424.9
63635
65677.7
66145.8
67698.1
68321.8
69491
70215.9
71073.1
71885.1
72474.9
73389.9
73733.8
74787.2
74886.2
76123.1
75962.5
77428.8
76983.2
78717.4
77956.2
79987
78873.5
112253
112247
112228
112194
112152
112075
111994
111869
111757
111587
111446
111225
111054
110773
110572
110216
109991
109539
109296
108717
108470
107723
107494
106522
106347
105067
105003
103299
103438
101140
101622
98487.7
99523.7
95204.9
97111.4
91108
94354.8
85947.7
91223.6
79375.8
87669
70869.9
83552.2
59560.9
78468.2
43898.1
71466.1
21320.4
60994.1
-11263.6
45959.1
-55336.4
28439.9
-103211
16775.6
-74694.7
14446.5
-43267.2
19768.9
-16011.5
27436.7
4647.54
34596.7
20117
40961.9
31890
46440.2
40883.3
51038.8
47760.1
54874.4
53074.2
58115.4
57278.5
60924.1
60721.1
63424
63634.2
65676.7
66144.7
67696.9
68320.5
69489.6
70214.4
71071.5
71883.3
72473.1
73388
73731.9
74785.1
74884.4
76121.2
75961
77427
76982.1
78715.9
77955.9
79985.8
78874.2
112254
112248
112228
112194
112152
112075
111994
111870
111757
111588
111446
111225
111054
110773
110573
110217
109991
109539
109296
108717
108470
107724
107495
106522
106347
105067
105004
103299
103439
101140
101622
98488.2
99524
95205.5
97111.6
91108.6
94354.9
85948.3
91223.7
79376.4
87669.2
70870.8
83552.9
59562.5
78469.8
43900.6
71468.7
21323
60996.3
-11263.3
45959
-55342.1
28436.4
-103230
16772.1
-74699
14444.2
-43268.7
19766.6
-16011.3
27435.8
4648.4
34595.9
20117.6
40961.2
31890.3
46439.7
40883.4
51038.4
47760.2
54874
53074.1
58114.9
57278.1
60923.5
60720.5
63423.1
63633.3
65675.6
66143.6
67695.7
68319.2
69488.2
70212.9
71069.9
71881.6
72471.3
73386
73730
74783.1
74882.6
76119.2
75959.4
77425.2
76981
78714.5
77955.5
79984.7
78874.8
112254
112248
112229
112195
112153
112075
111994
111870
111758
111588
111446
111226
111054
110773
110573
110217
109992
109540
109297
108718
108471
107724
107495
106523
106347
105068
105004
103300
103439
101141
101623
98488.8
99524.2
95206
97111.8
91109.1
94355
85948.8
91223.8
79377
87669.4
70871.7
83553.6
59564.1
78471.4
43903.2
71471.4
21325.8
60998.5
-11263
45958.8
-55348.2
28432.7
-103250
16768.3
-74703.6
14441.7
-43270.3
19764.3
-16011
27434.9
4649.33
34595.2
20118.2
40960.6
31890.6
46439.2
40883.6
51038
47760.2
54873.6
53074
58114.5
57277.8
60922.8
60719.9
63422.3
63632.4
65674.6
66142.5
67694.5
68317.9
69486.8
70211.4
71068.3
71879.8
72469.5
73384
73728.2
74781.1
74880.7
76117.2
75957.8
77423.4
76979.9
78713
77955.1
79983.5
78875.4
112255
112249
112229
112195
112153
112076
111995
111870
111758
111589
111447
111226
111055
110774
110573
110218
109992
109540
109297
108718
108471
107725
107495
106523
106348
105068
105005
103300
103439
101142
101623
98489.4
99524.6
95206.7
97112
91109.8
94355.2
85949.4
91223.9
79377.7
87669.6
70872.7
83554.3
59565.8
78473.2
43906
71474.2
21328.7
61000.7
-11262.6
45958.6
-55354.5
28428.7
-103271
16764.3
-74708.3
14439.1
-43272
19761.8
-16010.7
27433.9
4650.34
34594.5
20118.9
40960
31891
46438.7
40883.8
51037.6
47760.3
54873.3
53074
58114
57277.5
60922.1
60719.3
63421.4
63631.6
65673.5
66141.5
67693.3
68316.7
69485.4
70209.9
71066.7
71878
72467.8
73382.1
73726.3
74779
74878.9
76115.2
75956.2
77421.6
76978.7
78711.5
77954.7
79982.4
78876
112255
112250
112230
112196
112154
112076
111995
111871
111758
111589
111447
111227
111055
110774
110574
110218
109993
109541
109297
108719
108472
107725
107496
106524
106348
105069
105005
103301
103440
101142
101623
98490
99524.9
95207.3
97112.3
91110.4
94355.4
85950.1
91224.1
79378.4
87669.9
70873.7
83555.1
59567.6
78474.9
43908.9
71477.1
21331.7
61003.1
-11262.2
45958.5
-55361.2
28424.5
-103293
16760.1
-74713.2
14436.4
-43273.7
19759.3
-16010.2
27432.9
4651.42
34593.7
20119.6
40959.4
31891.4
46438.2
40884.1
51037.2
47760.5
54872.9
53074
58113.6
57277.3
60921.5
60718.7
63420.5
63630.7
65672.5
66140.4
67692.1
68315.4
69484
70208.4
71065.1
71876.3
72466
73380.1
73724.4
74776.9
74877.1
76113.1
75954.5
77419.8
76977.6
78710
77954.2
79981.3
78876.6
112256
112250
112230
112196
112154
112077
111996
111871
111759
111589
111448
111227
111056
110775
110574
110219
109993
109541
109298
108719
108472
107726
107496
106524
106349
105069
105006
103302
103440
101143
101624
98490.7
99525.2
95208
97112.5
91111.1
94355.5
85950.8
91224.2
79379.2
87670.2
70874.8
83555.8
59569.5
78476.8
43912
71480.1
21334.9
61005.6
-11261.8
45958.3
-55368.2
28420
-103316
16755.7
-74718.3
14433.5
-43275.4
19756.8
-16009.7
27432
4652.58
34593
20120.4
40958.8
31891.9
46437.7
40884.4
51036.8
47760.7
54872.6
53074
58113.1
57277
60920.8
60718.2
63419.6
63629.9
65671.4
66139.4
67690.9
68314.2
69482.7
70206.9
71063.5
71874.5
72464.2
73378.2
73722.5
74774.9
74875.2
76111.1
75952.9
77418
76976.4
78708.5
77953.8
79980.2
78877.2
112257
112251
112231
112197
112155
112077
111996
111872
111759
111590
111448
111228
111056
110775
110575
110219
109994
109542
109298
108720
108473
107726
107497
106525
106349
105070
105006
103302
103441
101144
101624
98491.4
99525.6
95208.7
97112.8
91111.8
94355.7
85951.5
91224.4
79380
87670.4
70876
83556.7
59571.5
78478.7
43915.2
71483.2
21338.2
61008.1
-11261.3
45958.1
-55375.6
28415.3
-103341
16751.1
-74723.7
14430.5
-43277.2
19754.1
-16009.2
27431
4653.81
34592.2
20121.3
40958.2
31892.4
46437.3
40884.8
51036.5
47761
54872.2
53074.1
58112.7
57276.8
60920.2
60717.6
63418.7
63629
65670.4
66138.4
67689.7
68312.9
69481.3
70205.4
71061.9
71872.8
72462.5
73376.2
73720.7
74772.8
74873.4
76109.1
75951.3
77416.1
76975.2
78707
77953.3
79979.1
78877.7
112258
112252
112232
112197
112155
112078
111997
111872
111760
111590
111449
111228
111057
110776
110575
110220
109994
109542
109299
108721
108473
107727
107498
106526
106350
105071
105007
103303
103441
101144
101625
98492.2
99526
95209.5
97113.1
91112.6
94355.9
85952.3
91224.5
79380.9
87670.7
70877.2
83557.5
59573.6
78480.7
43918.5
71486.5
21341.7
61010.8
-11260.8
45957.9
-55383.3
28410.3
-103367
16746.3
-74729.2
14427.3
-43279
19751.4
-16008.6
27430
4655.12
34591.5
20122.2
40957.6
31893.1
46436.8
40885.3
51036.2
47761.3
54871.9
53074.2
58112.3
57276.6
60919.6
60717.1
63417.9
63628.2
65669.3
66137.3
67688.5
68311.7
69480
70203.9
71060.4
71871
72460.7
73374.2
73718.8
74770.7
74871.5
76107
75949.6
77414.3
76974
78705.5
77952.9
79978
78878.3
112258
112252
112232
112198
112156
112078
111997
111873
111760
111591
111449
111229
111057
110776
110576
110220
109995
109543
109300
108721
108474
107728
107498
106526
106351
105071
105007
103304
103442
101145
101625
98493
99526.4
95210.3
97113.4
91113.4
94356.2
85953.2
91224.7
79381.8
87671
70878.5
83558.4
59575.7
78482.8
43921.9
71489.8
21345.3
61013.5
-11260.2
45957.6
-55391.3
28405.1
-103394
16741.3
-74734.9
14424
-43280.9
19748.6
-16007.9
27429
4656.5
34590.8
20123.2
40957
31893.7
46436.4
40885.8
51035.9
47761.6
54871.6
53074.4
58111.8
57276.5
60918.9
60716.6
63417
63627.4
65668.3
66136.3
67687.4
68310.5
69478.6
70202.4
71058.8
71869.3
72458.9
73372.3
73716.9
74768.6
74869.6
76105
75947.9
77412.4
76972.7
78704
77952.4
79976.9
78878.8
112259
112253
112233
112198
112157
112079
111998
111873
111761
111591
111450
111229
111058
110777
110576
110221
109995
109543
109300
108722
108475
107728
107499
106527
106351
105072
105008
103304
103442
101146
101626
98493.8
99526.9
95211.2
97113.8
91114.3
94356.4
85954
91224.9
79382.8
87671.4
70879.8
83559.3
59578
78484.9
43925.5
71493.2
21349
61016.3
-11259.6
45957.4
-55399.7
28399.6
-103422
16736.1
-74740.8
14420.5
-43282.8
19745.7
-16007.1
27427.9
4657.95
34590
20124.3
40956.5
31894.5
46436
40886.4
51035.6
47762
54871.3
53074.5
58111.4
57276.3
60918.3
60716.1
63416.1
63626.6
65667.3
66135.3
67686.2
68309.3
69477.3
70201
71057.3
71867.6
72457.2
73370.3
73715
74766.6
74867.8
76102.9
75946.3
77410.6
76971.5
78702.5
77951.8
79975.9
78879.3
112260
112254
112234
112199
112157
112079
111998
111874
111761
111592
111450
111230
111058
110777
110577
110222
109996
109544
109301
108722
108475
107729
107499
106528
106352
105073
105008
103305
103443
101147
101626
98494.7
99527.3
95212.1
97114.1
91115.2
94356.7
85955
91225.1
79383.8
87671.7
70881.2
83560.2
59580.4
78487.1
43929.3
71496.7
21352.9
61019.2
-11259
45957.2
-55408.5
28393.8
-103452
16730.7
-74746.8
14416.9
-43284.7
19742.7
-16006.3
27426.9
4659.48
34589.3
20125.4
40955.9
31895.3
46435.7
40887
51035.4
47762.5
54871.1
53074.8
58111.1
57276.2
60917.6
60715.6
63415.2
63625.8
65666.2
66134.3
67685
68308.1
69476
70199.5
71055.7
71865.8
72455.4
73368.3
73713.1
74764.5
74865.9
76100.9
75944.6
77408.8
76970.2
78701
77951.3
79974.8
78879.7
112261
112255
112235
112200
112158
112080
111999
111874
111762
111593
111451
111230
111059
110778
110578
110222
109996
109545
109301
108723
108476
107730
107500
106528
106352
105074
105009
103306
103443
101148
101627
98495.6
99527.8
95213
97114.5
91116.1
94356.9
85955.9
91225.3
79384.9
87672.1
70882.7
83561.2
59582.8
78489.3
43933.1
71500.4
21356.9
61022.2
-11258.3
45956.9
-55417.6
28387.8
-103482
16725.1
-74753.1
14413.2
-43286.8
19739.6
-16005.5
27425.9
4661.08
34588.5
20126.6
40955.4
31896.2
46435.3
40887.7
51035.1
47763
54870.8
53075
58110.7
57276.1
60917
60715.1
63414.4
63625
65665.2
66133.3
67683.9
68306.9
69474.7
70198.1
71054.2
71864.1
72453.7
73366.4
73711.2
74762.4
74864
76098.8
75942.9
77406.9
76968.9
78699.5
77950.7
79973.8
78880.2
112262
112256
112235
112201
112159
112081
112000
111875
111763
111593
111451
111231
111059
110779
110578
110223
109997
109545
109302
108724
108477
107730
107501
106529
106353
105075
105010
103307
103444
101149
101627
98496.5
99528.3
95214
97114.9
91117.1
94357.2
85956.9
91225.5
79386
87672.4
70884.2
83562.2
59585.4
78491.7
43937.1
71504.1
21361.1
61025.2
-11257.6
45956.6
-55427
28381.5
-103514
16719.3
-74759.6
14409.3
-43288.8
19736.5
-16004.5
27424.8
4662.76
34587.8
20127.9
40954.8
31897.1
46435
40888.4
51034.9
47763.5
54870.6
53075.3
58110.3
57276
60916.4
60714.6
63413.5
63624.3
65664.2
66132.4
67682.8
68305.7
69473.3
70196.6
71052.7
71862.4
72451.9
73364.4
73709.4
74760.3
74862.1
76096.7
75941.2
77405
76967.6
78698.1
77950.2
79972.8
78880.7
112263
112257
112236
112201
112159
112081
112000
111876
111763
111594
111452
111232
111060
110779
110579
110224
109998
109546
109303
108725
108477
107731
107501
106530
106354
105075
105010
103308
103445
101149
101628
98497.5
99528.8
95215
97115.3
91118.2
94357.5
85958
91225.7
79387.1
87672.8
70885.8
83563.2
59588
78494.1
43941.3
71508
21365.4
61028.4
-11256.9
45956.3
-55436.8
28374.9
-103547
16713.4
-74766.3
14405.2
-43290.9
19733.3
-16003.5
27423.7
4664.51
34587.1
20129.2
40954.3
31898.1
46434.6
40889.2
51034.7
47764.1
54870.4
53075.6
58109.9
57276
60915.8
60714.1
63412.6
63623.5
65663.2
66131.4
67681.6
68304.5
69472
70195.2
71051.1
71860.7
72450.2
73362.4
73707.5
74758.2
74860.2
76094.6
75939.4
77403.2
76966.3
78696.6
77949.6
79971.8
78881.1
112263
112257
112237
112202
112160
112082
112001
111876
111764
111594
111453
111232
111061
110780
110580
110224
109998
109547
109304
108725
108478
107732
107502
106531
106355
105076
105011
103309
103445
101150
101629
98498.5
99529.4
95216
97115.7
91119.2
94357.8
85959.1
91225.9
79388.4
87673.2
70887.5
83564.3
59590.7
78496.5
43945.5
71511.9
21369.8
61031.6
-11256.1
45956
-55446.9
28368.1
-103582
16707.2
-74773.2
14401
-43293.1
19730
-16002.5
27422.7
4666.33
34586.3
20130.6
40953.8
31899.1
46434.3
40890.1
51034.5
47764.7
54870.2
53076
58109.6
57275.9
60915.1
60713.7
63411.8
63622.7
65662.1
66130.4
67680.5
68303.4
69470.8
70193.8
71049.6
71859
72448.5
73360.5
73705.6
74756
74858.3
76092.6
75937.7
77401.3
76965
78695.1
77949
79970.8
78881.5
112264
112258
112238
112203
112161
112083
112002
111877
111765
111595
111453
111233
111061
110781
110580
110225
109999
109548
109304
108726
108479
107733
107503
106532
106355
105077
105012
103310
103446
101151
101629
98499.6
99529.9
95217.1
97116.2
91120.3
94358.1
85960.2
91226.2
79389.6
87673.6
70889.2
83565.4
59593.5
78499
43949.9
71515.9
21374.4
61034.9
-11255.3
45955.7
-55457.5
28361
-103617
16700.8
-74780.3
14396.7
-43295.3
19726.6
-16001.4
27421.6
4668.22
34585.6
20132
40953.3
31900.2
46434.1
40891
51034.4
47765.4
54870
53076.4
58109.2
57275.9
60914.5
60713.3
63410.9
63622
65661.1
66129.5
67679.4
68302.2
69469.5
70192.4
71048.1
71857.3
72446.7
73358.5
73703.7
74753.9
74856.4
76090.4
75935.9
77399.4
76963.7
78693.6
77948.3
79969.8
78881.9
112265
112259
112239
112204
112162
112083
112002
111878
111765
111596
111454
111234
111062
110782
110581
110226
110000
109548
109305
108727
108480
107734
107504
106533
106356
105078
105013
103311
103447
101153
101630
98500.7
99530.5
95218.3
97116.6
91121.5
94358.4
85961.4
91226.5
79390.9
87674
70890.9
83566.5
59596.4
78501.6
43954.4
71520.1
21379.1
61038.3
-11254.4
45955.3
-55468.3
28353.6
-103654
16694.2
-74787.6
14392.2
-43297.6
19723.1
-16000.2
27420.5
4670.19
34584.8
20133.5
40952.8
31901.4
46433.8
40891.9
51034.3
47766.2
54869.8
53076.8
58108.9
57275.9
60913.9
60712.8
63410
63621.2
65660.1
66128.5
67678.2
68301.1
69468.2
70191
71046.6
71855.6
72445
73356.5
73701.8
74751.8
74854.5
76088.3
75934.2
77397.5
76962.3
78692.1
77947.7
79968.8
78882.3
112266
112260
112240
112205
112162
112084
112003
111878
111766
111597
111455
111234
111063
110782
110582
110226
110001
109549
109306
108728
108480
107735
107505
106534
106357
105079
105013
103312
103448
101154
101631
98501.8
99531.1
95219.4
97117.1
91122.7
94358.8
85962.6
91226.7
79392.3
87674.5
70892.8
83567.6
59599.4
78504.2
43959.1
71524.3
21384
61041.8
-11253.5
45955
-55479.5
28346
-103692
16687.4
-74795.1
14387.5
-43299.9
19719.5
-15999
27419.3
4672.23
34584.1
20135.1
40952.3
31902.6
46433.5
40893
51034.1
47767
54869.7
53077.3
58108.6
57276
60913.3
60712.4
63409.1
63620.5
65659.1
66127.6
67677.1
68300
69466.9
70189.6
71045.1
71853.8
72443.3
73354.6
73699.9
74749.7
74852.5
76086.2
75932.4
77395.6
76960.9
78690.7
77947
79967.8
78882.6
112268
112261
112241
112205
112163
112085
112004
111879
111767
111597
111455
111235
111064
110783
110583
110227
110002
109550
109307
108729
108481
107736
107505
106535
106358
105080
105014
103313
103448
101155
101631
98503
99531.7
95220.7
97117.6
91123.9
94359.1
85963.9
91227
79393.7
87674.9
70894.7
83568.8
59602.5
78506.9
43963.9
71528.7
21389
61045.3
-11252.6
45954.6
-55491.1
28338.1
-103732
16680.4
-74802.8
14382.7
-43302.3
19715.8
-15997.7
27418.2
4674.34
34583.3
20136.7
40951.9
31903.9
46433.3
40894
51034.1
47767.8
54869.6
53077.8
58108.2
57276
60912.7
60712
63408.3
63619.8
65658.1
66126.7
67676
68298.8
69465.7
70188.2
71043.6
71852.2
72441.5
73352.6
73698
74747.5
74850.6
76084.1
75930.6
77393.7
76959.5
78689.2
77946.3
79966.8
78883
112269
112262
112242
112206
112164
112086
112004
111880
111767
111598
111456
111236
111064
110784
110583
110228
110002
109551
109308
108730
108482
107737
107506
106536
106359
105081
105015
103314
103449
101156
101632
98504.2
99532.4
95221.9
97118.1
91125.2
94359.5
85965.2
91227.3
79395.1
87675.4
70896.6
83570
59605.7
78509.7
43968.8
71533.1
21394.1
61049
-11251.7
45954.2
-55503.1
28330
-103772
16673.2
-74810.7
14377.7
-43304.8
19712
-15996.4
27417.1
4676.52
34582.6
20138.4
40951.4
31905.2
46433.1
40895.2
51034
47768.7
54869.4
53078.3
58107.9
57276.1
60912.1
60711.7
63407.4
63619.1
65657.1
66125.8
67674.9
68297.7
69464.4
70186.8
71042.1
71850.5
72439.8
73350.6
73696.1
74745.4
74848.7
76082
75928.8
77391.8
76958.1
78687.7
77945.6
79965.9
78883.3
112270
112264
112243
112207
112165
112087
112005
111881
111768
111599
111457
111237
111065
110785
110584
110229
110003
109552
109308
108731
108483
107738
107507
106537
106359
105082
105016
103315
103450
101157
101633
98505.4
99533
95223.2
97118.7
91126.5
94359.9
85966.6
91227.6
79396.6
87675.8
70898.6
83571.2
59608.9
78512.5
43973.9
71537.7
21399.4
61052.7
-11250.7
45953.8
-55515.3
28321.6
-103814
16665.7
-74818.9
14372.5
-43307.3
19708.2
-15995
27415.9
4678.77
34581.8
20140.2
40951
31906.7
46432.9
40896.4
51033.9
47769.6
54869.3
53078.9
58107.6
57276.2
60911.5
60711.3
63406.5
63618.4
65656.1
66124.9
67673.8
68296.6
69463.2
70185.5
71040.7
71848.8
72438.1
73348.6
73694.2
74743.2
74846.7
76079.8
75927
77389.9
76956.7
78686.2
77944.9
79965
78883.6
112271
112265
112244
112208
112166
112087
112006
111881
111769
111600
111458
111237
111066
110785
110585
110230
110004
109553
109309
108732
108484
107739
107508
106538
106360
105083
105017
103316
103451
101158
101634
98506.7
99533.7
95224.5
97119.2
91127.9
94360.3
85968
91227.9
79398.2
87676.3
70900.7
83572.5
59612.3
78515.4
43979.1
71542.3
21404.8
61056.5
-11249.6
45953.4
-55528
28312.9
-103857
16658.1
-74827.3
14367.1
-43309.9
19704.2
-15993.5
27414.7
4681.1
34581
20142
40950.5
31908.1
46432.7
40897.6
51033.9
47770.6
54869.3
53079.5
58107.3
57276.3
60910.9
60710.9
63405.7
63617.7
65655.1
66124
67672.8
68295.5
69461.9
70184.1
71039.2
71847.1
72436.4
73346.7
73692.3
74741.1
74844.8
76077.7
75925.2
77388
76955.2
78684.8
77944.2
79964
78883.9
112272
112266
112245
112209
112167
112088
112007
111882
111770
111600
111459
111238
111067
110786
110586
110231
110005
109554
109310
108733
108485
107740
107509
106539
106361
105085
105018
103317
103452
101160
101634
98508
99534.4
95225.9
97119.8
91129.3
94360.7
85969.4
91228.2
79399.8
87676.8
70902.8
83573.8
59615.7
78518.4
43984.4
71547.1
21410.3
61060.4
-11248.6
45953
-55541
28304
-103901
16650.2
-74835.9
14361.6
-43312.6
19700.2
-15992
27413.5
4683.49
34580.3
20143.9
40950.1
31909.7
46432.6
40898.9
51033.9
47771.6
54869.2
53080.1
58107.1
57276.5
60910.3
60710.6
63404.8
63617
65654.1
66123.1
67671.7
68294.5
69460.7
70182.7
71037.7
71845.4
72434.7
73344.7
73690.4
74738.9
74842.8
76075.5
75923.3
77386.1
76953.8
78683.3
77943.4
79963.1
78884.2
112273
112267
112246
112210
112168
112089
112008
111883
111771
111601
111459
111239
111068
110787
110587
110232
110006
109555
109311
108734
108486
107741
107510
106540
106362
105086
105019
103319
103453
101161
101635
98509.4
99535.1
95227.3
97120.4
91130.7
94361.1
85970.9
91228.5
79401.4
87677.3
70905
83575.1
59619.2
78521.4
43989.9
71551.9
21416
61064.4
-11247.5
45952.5
-55554.3
28294.9
-103946
16642.1
-74844.7
14355.9
-43315.3
19696
-15990.4
27412.3
4685.96
34579.5
20145.9
40949.6
31911.2
46432.4
40900.3
51033.9
47772.7
54869.1
53080.8
58106.8
57276.7
60909.7
60710.3
63403.9
63616.3
65653.1
66122.2
67670.6
68293.4
69459.5
70181.4
71036.3
71843.7
72433
73342.7
73688.5
74736.7
74840.8
76073.3
75921.5
77384.1
76952.3
78681.8
77942.6
79962.2
78884.5
112275
112268
112248
112211
112169
112090
112009
111884
111772
111602
111460
111240
111069
110788
110588
110233
110007
109556
109312
108735
108487
107742
107511
106541
106363
105087
105020
103320
103454
101162
101636
98510.8
99535.9
95228.8
97121
91132.2
94361.5
85972.4
91228.9
79403.1
87677.8
70907.3
83576.4
59622.9
78524.5
43995.5
71556.9
21421.9
61068.4
-11246.3
45952.1
-55568
28285.4
-103993
16633.7
-74853.8
14350.1
-43318.1
19691.8
-15988.8
27411.1
4688.5
34578.8
20147.9
40949.2
31912.9
46432.3
40901.7
51033.9
47773.8