/*--------------------------------*- C++ -*----------------------------------*\
| =========                 |                                                 |
| \\      /  F ield         | OpenFOAM: The Open Source CFD Toolbox           |
|  \\    /   O peration     | Version:  2412                                  |
|   \\  /    A nd           | Website:  www.openfoam.com                      |
|    \\/     M anipulation  |                                                 |
\*---------------------------------------------------------------------------*/
FoamFile
{
    version     2.0;
    format      ascii;
    arch        "LSB;label=32;scalar=64";
    class       surfaceScalarField;
    location    "0.2";
    object      phi;
}
// * * * * * * * * * * * * * * * * * * * * * * * * * * * * * * * * * * * * * //

dimensions      [0 3 -1 0 0 0 0];

oriented        oriented;

internalField   nonuniform List<scalar> 
25905
(
0.00747486
0.0001988
0.00740601
0.000131967
0.00739458
1.94038e-05
0.00743853
-8.83785e-05
0.0075104
-0.000143513
0.00758321
-0.000145953
0.00764573
-0.00012571
0.00769789
-0.000104658
0.00774244
-8.90144e-05
0.00778122
-7.71092e-05
0.00781503
-6.70678e-05
0.00784451
-5.84075e-05
0.00787009
-5.06867e-05
0.00789237
-4.41005e-05
0.00791162
-3.80853e-05
0.00792837
-3.31087e-05
0.00794262
-2.82634e-05
0.00795503
-2.47527e-05
0.00796538
-2.10389e-05
0.00797441
-1.87515e-05
0.00798169
-1.57484e-05
0.00798814
-1.42725e-05
0.00799289
-1.12106e-05
0.00799737
-1.03294e-05
0.00800016
-6.79675e-06
0.00800322
-5.96805e-06
0.00800451
-1.3477e-06
0.00800668
-5.80808e-08
0.00800682
6.61646e-06
0.00800876
8.52667e-06
0.00800824
1.63503e-05
0.00801056
1.54705e-05
0.00800989
1.9489e-05
0.00801358
1.14931e-05
0.00801363
9.42404e-06
0.00801989
-7.35819e-06
0.00802177
-1.7423e-05
0.00803247
-4.71852e-05
0.00803789
-6.7576e-05
0.00805512
-0.00011426
0.00806554
-0.000142753
0.00809008
-0.000201782
0.00810374
-0.000214728
0.00813095
-0.000266423
0.0081389
-0.000217917
0.0081552
-0.000195955
0.00814053
1.73502e-05
0.00812696
0.000114715
0.00807865
0.00035977
0.00800666
0.000322077
0.00788552
0.000447041
0.00763515
0.000424402
0.00724563
0.000601606
0.00726219
-2.05273e-05
0.00752188
-0.000415031
0.00767513
-0.000270663
0.00773667
0.000181694
0.00777647
0.000213497
0.00778454
0.000299967
0.00780042
0.000143334
0.00779819
0.000233413
0.00780868
0.000113304
0.00780796
0.000135432
0.0078187
7.13894e-05
0.00781907
8.76074e-05
0.00782736
2.63263e-05
0.00782539
-6.46941e-06
0.00782845
-0.000101169
0.00782238
-0.000140798
0.00781938
-0.000203175
0.00780888
-0.000220703
0.00780023
-0.000253282
0.00778625
-0.000248101
0.00777406
-0.000252254
0.00775921
-0.000235659
0.00774673
-0.00023947
0.00773348
-0.000237547
0.00772246
-0.000252923
0.00771144
-0.000265024
0.00770209
-0.000290864
0.00769274
-0.000321542
0.00768424
-0.000364602
0.00767572
-0.000426198
0.00766773
-0.000498523
0.00766007
-0.00059927
0.00765322
-0.000698559
0.00764749
-0.000836332
0.00764365
-0.000949447
0.00764222
-0.0011151
0.0076444
-0.00121671
0.00765053
-0.00139803
0.00766294
-0.0014511
0.00768111
-0.00163025
0.00770911
-0.00157794
0.0077448
-0.00172802
0.00779446
-0.00150228
0.00785379
-0.00159836
0.00793065
-0.00115726
-0.00111051
0.00747486
0.000299701
0.007406
0.000200822
0.00739455
3.08549e-05
0.00743849
-0.000132314
0.00751034
-0.000215371
0.00758315
-0.000218756
0.00764568
-0.00018824
0.00769783
-0.000156811
0.00774239
-0.000133571
0.00778117
-0.000115885
0.00781498
-0.000100878
0.00784446
-8.78888e-05
0.00787004
-7.62699e-05
0.00789232
-6.63838e-05
0.00791157
-5.73359e-05
0.00792833
-4.98642e-05
0.00794258
-4.25151e-05
0.00795499
-3.716e-05
0.00796534
-3.13865e-05
0.00797438
-2.77911e-05
0.00798166
-2.30275e-05
0.0079881
-2.07189e-05
0.00799286
-1.59635e-05
0.00799733
-1.48058e-05
0.00800013
-9.5934e-06
0.00800318
-9.01959e-06
0.00800447
-2.63655e-06
0.00800665
-2.23425e-06
0.00800679
6.47118e-06
0.00800873
6.58557e-06
0.00800821
1.68735e-05
0.00801054
1.31398e-05
0.00800987
2.01585e-05
0.00801356
7.80129e-06
0.00801361
9.38126e-06
0.00801987
-1.36221e-05
0.00802175
-1.92979e-05
0.00803245
-5.78916e-05
0.00803787
-7.29913e-05
0.00805509
-0.000131486
0.00806551
-0.00015317
0.00809006
-0.000226331
0.00810372
-0.000228388
0.00813093
-0.000293636
0.00813889
-0.000225876
0.00815519
-0.000212257
0.00814052
3.20244e-05
0.00812694
0.000128292
0.00807862
0.000408096
0.00800662
0.000394076
0.00788544
0.000568216
0.0076351
0.000674748
0.00724565
0.000991057
0.00726218
-3.70565e-05
0.00752182
-0.00067467
0.00767508
-0.000423927
0.00773663
0.000120145
0.00777643
0.000173695
0.00778449
0.000291908
0.00780038
0.000127444
0.00779816
0.000235632
0.00780867
0.000102795
0.00780794
0.00013616
0.00781868
6.06473e-05
0.00781905
8.72429e-05
0.00782735
1.80189e-05
0.00782538
-4.49626e-06
0.00782844
-0.00010423
0.00782238
-0.000134731
0.00781937
-0.000200171
0.00780887
-0.000210205
0.00780022
-0.000244629
0.00778624
-0.000234121
0.00777405
-0.000240064
0.00775919
-0.0002208
0.00774672
-0.000226997
0.00773347
-0.000224295
0.00772244
-0.000241895
0.00771142
-0.000254004
0.00770206
-0.000281509
0.00769271
-0.000312186
0.0076842
-0.000356098
0.00767569
-0.00041768
0.00766769
-0.000490526
0.00766003
-0.000591608
0.00765318
-0.00069171
0.00764743
-0.000830588
0.00764359
-0.000945608
0.00764215
-0.00111366
0.00764434
-0.00121889
0.00765047
-0.00140417
0.0076629
-0.00146353
0.0076811
-0.00164845
0.00770914
-0.00160599
0.00774488
-0.00176375
0.00779461
-0.00155201
0.00785401
-0.00165776
0.00793094
-0.00123419
-0.00120417
0.00747485
0.000400604
0.00740599
0.000269691
0.0073945
4.23366e-05
0.00743841
-0.000176219
0.00751025
-0.000287213
0.00758306
-0.000291559
0.00764559
-0.000250776
0.00769775
-0.000208969
0.00774231
-0.000178131
0.00778109
-0.000154664
0.0078149
-0.000134691
0.00784439
-0.000117373
0.00786997
-0.000101856
0.00789226
-8.86702e-05
0.00791151
-7.65894e-05
0.00792827
-6.66224e-05
0.00794253
-5.67694e-05
0.00795494
-4.95698e-05
0.00796529
-4.17364e-05
0.00797433
-3.68328e-05
0.00798161
-3.03084e-05
0.00798806
-2.71669e-05
0.00799281
-2.07178e-05
0.00799729
-1.92835e-05
0.00800009
-1.23909e-05
0.00800314
-1.2072e-05
0.00800443
-3.92638e-06
0.00800661
-4.41182e-06
0.00800676
6.3239e-06
0.0080087
4.64113e-06
0.00800818
1.73925e-05
0.00801052
1.08051e-05
0.00800985
2.08258e-05
0.00801354
4.10875e-06
0.00801358
9.33893e-06
0.00801985
-1.98849e-05
0.00802172
-2.11708e-05
0.00803242
-6.85954e-05
0.00803783
-7.84032e-05
0.00805506
-0.00014871
0.00806547
-0.000163584
0.00809002
-0.000250879
0.00810368
-0.000242048
0.0081309
-0.000320853
0.00813886
-0.000233839
0.00815517
-0.000228564
0.00814049
4.66998e-05
0.00812691
0.000141876
0.00807856
0.000456444
0.00800655
0.000466084
0.00788535
0.000689421
0.00763502
0.000925077
0.00724566
0.00138042
0.00726215
-5.35507e-05
0.00752174
-0.000934255
0.00767501
-0.000577197
0.00773656
5.85959e-05
0.00777637
0.00013388
0.00778442
0.000283859
0.00780033
0.000111539
0.00779812
0.000237834
0.00780865
9.22709e-05
0.00780792
0.000136888
0.00781866
4.99042e-05
0.00781903
8.6875e-05
0.00782735
9.70058e-06
0.00782538
-2.53046e-06
0.00782844
-0.000107291
0.00782238
-0.000128665
0.00781938
-0.000197168
0.00780888
-0.000199709
0.00780023
-0.000235975
0.00778624
-0.000220139
0.00777405
-0.000227873
0.00775919
-0.000205941
0.00774672
-0.000214523
0.00773346
-0.000211041
0.00772243
-0.000230864
0.00771141
-0.000242982
0.00770205
-0.000272151
0.00769269
-0.000302825
0.00768418
-0.000347591
0.00767566
-0.00040916
0.00766766
-0.000482525
0.00765999
-0.000583939
0.00765314
-0.000684853
0.00764738
-0.000824835
0.00764354
-0.000941762
0.00764209
-0.00111222
0.00764427
-0.00122108
0.00765042
-0.00141031
0.00766286
-0.00147597
0.00768108
-0.00166667
0.00770916
-0.00163407
0.00774494
-0.00179953
0.00779474
-0.00160181
0.00785421
-0.00171724
0.0079312
-0.00131118
-0.00129789
0.00747485
0.000501509
0.00740597
0.000338574
0.00739446
5.38488e-05
0.00743833
-0.000220093
0.00751016
-0.00035904
0.00758296
-0.000364361
0.0076455
-0.000313314
0.00769766
-0.00026113
0.00774222
-0.000222693
0.007781
-0.000193445
0.00781482
-0.000168506
0.00784431
-0.000146861
0.0078699
-0.000127445
0.00789219
-0.00011096
0.00791144
-9.58458e-05
0.0079282
-8.33835e-05
0.00794246
-7.10264e-05
0.00795487
-6.19822e-05
0.00796523
-5.20887e-05
0.00797427
-4.58769e-05
0.00798155
-3.75915e-05
0.007988
-3.36169e-05
0.00799276
-2.54737e-05
0.00799724
-2.37625e-05
0.00800004
-1.51897e-05
0.00800309
-1.51256e-05
0.00800438
-5.21748e-06
0.00800656
-6.59104e-06
0.00800671
6.17443e-06
0.00800866
2.6933e-06
0.00800814
1.79073e-05
0.00801048
8.46646e-06
0.00800982
2.14909e-05
0.00801351
4.15761e-07
0.00801355
9.29765e-06
0.00801981
-2.61458e-05
0.00802168
-2.30406e-05
0.00803238
-7.92958e-05
0.00803779
-8.38106e-05
0.00805501
-0.000165929
0.00806542
-0.000173994
0.00808997
-0.000275426
0.00810363
-0.000255707
0.00813085
-0.000348073
0.00813882
-0.000241806
0.00815513
-0.000244874
0.00814045
6.13786e-05
0.00812686
0.000155468
0.00807848
0.000504818
0.00800646
0.000538101
0.00788523
0.000810657
0.00763492
0.00117539
0.00724566
0.00176967
0.00726212
-7.00074e-05
0.00752164
-0.00119378
0.00767491
-0.000730471
0.00773646
-2.95275e-06
0.00777629
9.40491e-05
0.00778434
0.000275816
0.00780026
9.56115e-05
0.00779808
0.000240014
0.00780863
8.17279e-05
0.0078079
0.000137614
0.00781865
3.91578e-05
0.00781902
8.65016e-05
0.00782735
1.36934e-06
0.0078254
-5.73574e-07
0.00782846
-0.000110352
0.00782239
-0.0001226
0.00781939
-0.000194167
0.0078089
-0.000189216
0.00780024
-0.00022732
0.00778626
-0.000206154
0.00777406
-0.00021568
0.0077592
-0.00019108
0.00774673
-0.000202046
0.00773347
-0.000197784
0.00772243
-0.00021983
0.00771141
-0.000231958
0.00770205
-0.000262789
0.00769268
-0.000293461
0.00768417
-0.000339081
0.00767565
-0.000400635
0.00766764
-0.000474521
0.00765997
-0.000576264
0.0076531
-0.000677989
0.00764734
-0.000819073
0.00764349
-0.000937908
0.00764203
-0.00111077
0.00764421
-0.00122326
0.00765036
-0.00141645
0.00766281
-0.00148843
0.00768106
-0.00168492
0.00770918
-0.00166219
0.007745
-0.00183536
0.00779486
-0.00165166
0.0078544
-0.00177678
0.00793145
-0.00138823
-0.00139167
0.00747485
0.000602416
0.00740595
0.000407471
0.00739441
6.53904e-05
0.00743825
-0.000263934
0.00751006
-0.000430848
0.00758286
-0.000437158
0.0076454
-0.000375854
0.00769756
-0.000313292
0.00774213
-0.000267257
0.00778091
-0.000232228
0.00781473
-0.000202324
0.00784422
-0.00017635
0.00786981
-0.000153037
0.0078921
-0.000133252
0.00791136
-0.000115105
0.00792813
-0.000100147
0.00794239
-8.52862e-05
0.0079548
-7.43974e-05
0.00796516
-6.24435e-05
0.0079742
-5.49235e-05
0.00798149
-4.48767e-05
0.00798794
-4.00689e-05
0.0079927
-3.02313e-05
0.00799718
-2.82431e-05
0.00799998
-1.79898e-05
0.00800303
-1.81807e-05
0.00800433
-6.51011e-06
0.00800651
-8.77229e-06
0.00800666
6.02249e-06
0.00800861
7.41735e-07
0.0080081
1.84176e-05
0.00801044
6.12345e-06
0.00800978
2.21537e-05
0.00801348
-3.278e-06
0.00801352
9.25722e-06
0.00801978
-3.24051e-05
0.00802164
-2.49074e-05
0.00803234
-8.99927e-05
0.00803774
-8.92132e-05
0.00805496
-0.000183145
0.00806536
-0.000184401
0.00808991
-0.000299973
0.00810357
-0.000269366
0.00813079
-0.000375298
0.00813876
-0.000249775
0.00815507
-0.000261187
0.00814039
7.60629e-05
0.00812679
0.00016907
0.00807839
0.000553221
0.00800636
0.00061013
0.00788509
0.000931926
0.00763479
0.00142569
0.00724565
0.00215881
0.00726206
-8.64233e-05
0.00752153
-0.00145324
0.0076748
-0.000883747
0.00773634
-6.44988e-05
0.00777619
5.4199e-05
0.00778424
0.000267775
0.00780019
7.96582e-05
0.00779804
0.000242168
0.0078086
7.11626e-05
0.00780788
0.000138334
0.00781863
2.84057e-05
0.00781901
8.61206e-05
0.00782736
-6.97695e-06
0.00782541
1.37297e-06
0.00782848
-0.000113416
0.00782241
-0.000116536
0.00781941
-0.000191168
0.00780892
-0.000178726
0.00780027
-0.000218664
0.00778628
-0.000192167
0.00777409
-0.000203486
0.00775922
-0.000176218
0.00774674
-0.000189567
0.00773348
-0.000184523
0.00772245
-0.000208794
0.00771142
-0.00022093
0.00770205
-0.000253424
0.00769268
-0.000284092
0.00768417
-0.000330568
0.00767564
-0.000392107
0.00766763
-0.000466511
0.00765995
-0.000568583
0.00765308
-0.000671117
0.00764731
-0.000813301
0.00764344
-0.000934045
0.00764198
-0.0011093
0.00764416
-0.00122543
0.0076503
-0.0014226
0.00766277
-0.00150089
0.00768104
-0.00170318
0.00770919
-0.00169035
0.00774506
-0.00187123
0.00779497
-0.00170157
0.00785458
-0.00183638
0.00793169
-0.00146535
-0.00148551
0.00747485
0.000703325
0.00740594
0.000476378
0.00739437
7.696e-05
0.00743818
-0.000307743
0.00750997
-0.000502637
0.00758276
-0.000509948
0.0076453
-0.000438394
0.00769746
-0.000365455
0.00774203
-0.000311821
0.00778081
-0.000271011
0.00781463
-0.000236143
0.00784412
-0.000205841
0.00786972
-0.000178631
0.00789201
-0.000155546
0.00791127
-0.000134367
0.00792804
-0.000116914
0.0079423
-9.95485e-05
0.00795472
-8.68152e-05
0.00796508
-7.2801e-05
0.00797413
-6.39725e-05
0.00798141
-5.21643e-05
0.00798787
-4.65231e-05
0.00799263
-3.49909e-05
0.00799711
-3.27255e-05
0.00799991
-2.07915e-05
0.00800297
-2.12374e-05
0.00800426
-7.80449e-06
0.00800645
-1.09558e-05
0.0080066
5.86793e-06
0.00800856
-1.21366e-06
0.00800805
1.89235e-05
0.0080104
3.7762e-06
0.00800974
2.28143e-05
0.00801343
-6.9722e-06
0.00801347
9.21815e-06
0.00801973
-3.86622e-05
0.00802159
-2.67704e-05
0.00803228
-0.000100685
0.00803768
-9.461e-05
0.00805489
-0.000200356
0.00806529
-0.000194802
0.00808984
-0.000324517
0.0081035
-0.000283023
0.00813072
-0.000402525
0.00813869
-0.000257744
0.00815501
-0.000277503
0.00814032
9.0755e-05
0.0081267
0.000182683
0.00807827
0.000601658
0.00800623
0.000682168
0.00788493
0.00105323
0.00763464
0.00167597
0.00724563
0.00254783
0.007262
-0.000102796
0.00752139
-0.00171263
0.00767466
-0.00103702
0.0077362
-0.000126041
0.00777608
1.43255e-05
0.00778412
0.000259734
0.0078001
6.36737e-05
0.00779798
0.000244291
0.00780857
6.0571e-05
0.00780786
0.000139047
0.00781862
1.76456e-05
0.00781901
8.57302e-05
0.00782737
-1.53402e-05
0.00782544
3.30779e-06
0.0078285
-0.000116483
0.00782244
-0.000110474
0.00781945
-0.000188171
0.00780896
-0.00016824
0.0078003
-0.000210007
0.00778631
-0.000178177
0.00777412
-0.00019129
0.00775925
-0.000161356
0.00774677
-0.000177085
0.00773351
-0.000171258
0.00772247
-0.000197754
0.00771144
-0.0002099
0.00770207
-0.000244054
0.00769269
-0.000274719
0.00768418
-0.00032205
0.00767564
-0.000383575
0.00766763
-0.000458497
0.00765994
-0.000560894
0.00765306
-0.000664237
0.00764728
-0.000807518
0.0076434
-0.000930172
0.00764193
-0.00110783
0.00764411
-0.00122761
0.00765025
-0.00142874
0.00766273
-0.00151338
0.00768101
-0.00172146
0.0077092
-0.00171854
0.00774512
-0.00190715
0.00779508
-0.00175154
0.00785476
-0.00189606
0.00793193
-0.00154252
-0.00157941
0.00747485
0.000804236
0.00740593
0.000545296
0.00739433
8.85561e-05
0.00743811
-0.000351519
0.00750988
-0.000574403
0.00758266
-0.00058273
0.0076452
-0.00050093
0.00769736
-0.000417617
0.00774192
-0.000356385
0.0077807
-0.000309795
0.00781452
-0.000269962
0.00784402
-0.000235334
0.00786961
-0.000204227
0.00789191
-0.000177842
0.00791117
-0.00015363
0.00792794
-0.000133683
0.00794221
-0.000113813
0.00795463
-9.92356e-05
0.00796499
-8.31609e-05
0.00797404
-7.30241e-05
0.00798133
-5.94543e-05
0.00798779
-5.29796e-05
0.00799255
-3.97525e-05
0.00799703
-3.721e-05
0.00799984
-2.3595e-05
0.0080029
-2.42961e-05
0.00800419
-9.10089e-06
0.00800638
-1.31418e-05
0.00800654
5.71052e-06
0.0080085
-3.17317e-06
0.00800799
1.94246e-05
0.00801035
1.42437e-06
0.00800969
2.34725e-05
0.00801338
-1.06672e-05
0.00801342
9.18031e-06
0.00801968
-4.49173e-05
0.00802153
-2.86294e-05
0.00803222
-0.000111374
0.00803761
-0.000100001
0.00805482
-0.000217562
0.00806521
-0.000205198
0.00808976
-0.000349059
0.00810341
-0.000296677
0.00813064
-0.000429756
0.00813861
-0.000265714
0.00815493
-0.000293822
0.00814023
0.000105456
0.0081266
0.000196307
0.00807813
0.000650131
0.00800608
0.000754218
0.00788474
0.00117457
0.00763448
0.00192624
0.0072456
0.00293671
0.00726192
-0.000119123
0.00752123
-0.00197194
0.0076745
-0.00119029
0.00773604
-0.000187576
0.00777594
-2.55745e-05
0.00778398
0.000251689
0.0078
4.76537e-05
0.00779792
0.000246379
0.00780854
4.99497e-05
0.00780783
0.000139751
0.0078186
6.87535e-06
0.00781901
8.53284e-05
0.00782739
-2.37223e-05
0.00782547
5.22944e-06
0.00782854
-0.000119555
0.00782248
-0.000104416
0.00781949
-0.000185178
0.007809
-0.000157756
0.00780035
-0.000201351
0.00778635
-0.000164186
0.00777416
-0.000179092
0.00775929
-0.000146492
0.00774681
-0.000164601
0.00773354
-0.00015799
0.0077225
-0.00018671
0.00771146
-0.000198866
0.00770209
-0.000234681
0.00769271
-0.000265341
0.00768419
-0.000313529
0.00767565
-0.000375038
0.00766763
-0.000450477
0.00765994
-0.000553197
0.00765305
-0.000657347
0.00764725
-0.000801724
0.00764337
-0.000926289
0.00764189
-0.00110635
0.00764405
-0.00122978
0.0076502
-0.00143489
0.00766269
-0.00152587
0.00768099
-0.00173976
0.00770921
-0.00174676
0.00774517
-0.0019431
0.00779519
-0.00180156
0.00785493
-0.00195579
0.00793216
-0.00161976
-0.00167337
0.00747484
0.000905149
0.00740592
0.000614222
0.0073943
0.000100177
0.00743804
-0.000395261
0.00750978
-0.000646147
0.00758256
-0.000655501
0.00764509
-0.000563463
0.00769725
-0.000469777
0.00774181
-0.000400946
0.00778059
-0.000348577
0.00781441
-0.000303781
0.0078439
-0.000264827
0.0078695
-0.000229823
0.0078918
-0.000200141
0.00791107
-0.000172896
0.00792784
-0.000150454
0.0079421
-0.000128081
0.00795453
-0.000111659
0.00796489
-9.35234e-05
0.00797394
-8.20783e-05
0.00798124
-6.67466e-05
0.0079877
-5.94385e-05
0.00799246
-4.45163e-05
0.00799695
-4.16965e-05
0.00799975
-2.64004e-05
0.00800281
-2.73568e-05
0.00800411
-1.03994e-05
0.0080063
-1.53305e-05
0.00800646
5.5501e-06
0.00800842
-5.13683e-06
0.00800793
1.99212e-05
0.00801028
-9.31984e-07
0.00800963
2.41287e-05
0.00801332
-1.43627e-05
0.00801336
9.14419e-06
0.00801961
-5.11699e-05
0.00802147
-3.04836e-05
0.00803215
-0.000122057
0.00803753
-0.000105384
0.00805473
-0.000234762
0.00806512
-0.000215588
0.00808966
-0.000373598
0.00810331
-0.000310328
0.00813055
-0.00045699
0.00813852
-0.000273682
0.00815484
-0.000310142
0.00814012
0.00012017
0.00812649
0.000209943
0.00807797
0.000698644
0.00800591
0.000826278
0.00788454
0.00129595
0.00763429
0.00217649
0.00724556
0.00332545
0.00726183
-0.000135402
0.00752106
-0.00223116
0.00767432
-0.00134356
0.00773585
-0.000249104
0.00777578
-6.55044e-05
0.00778383
0.000243638
0.00779989
3.15932e-05
0.00779784
0.000248427
0.0078085
3.92952e-05
0.00780781
0.000140443
0.00781859
-3.9072e-06
0.007819
8.49135e-05
0.00782741
-3.21251e-05
0.0078255
7.13674e-06
0.00782858
-0.000122633
0.00782252
-9.83605e-05
0.00781953
-0.000182188
0.00780905
-0.000147275
0.0078004
-0.000192694
0.0077864
-0.000150192
0.0077742
-0.000166894
0.00775934
-0.000131627
0.00774685
-0.000152114
0.00773358
-0.000144717
0.00772253
-0.000175664
0.00771149
-0.00018783
0.00770212
-0.000225304
0.00769273
-0.000255959
0.00768421
-0.000305004
0.00767567
-0.000366497
0.00766764
-0.000442451
0.00765994
-0.000545492
0.00765304
-0.000650448
0.00764723
-0.000795918
0.00764334
-0.000922394
0.00764184
-0.00110486
0.00764401
-0.00123194
0.00765015
-0.00144103
0.00766265
-0.00153837
0.00768096
-0.00175808
0.00770922
-0.00177501
0.00774522
-0.0019791
0.00779529
-0.00185164
0.00785509
-0.00201559
0.00793238
-0.00169705
-0.00176739
0.00747484
0.00100606
0.00740591
0.000683155
0.00739427
0.000111822
0.00743797
-0.000438971
0.00750969
-0.000717865
0.00758245
-0.000728258
0.00764498
-0.000625988
0.00769713
-0.000521932
0.00774169
-0.000445505
0.00778047
-0.000387357
0.00781429
-0.000337599
0.00784378
-0.00029432
0.00786938
-0.000255421
0.00789168
-0.00022244
0.00791095
-0.000192164
0.00792772
-0.000167227
0.00794199
-0.00014235
0.00795442
-0.000124084
0.00796478
-0.000103888
0.00797384
-9.1135e-05
0.00798113
-7.40414e-05
0.00798759
-6.58998e-05
0.00799236
-4.92823e-05
0.00799685
-4.61853e-05
0.00799966
-2.92078e-05
0.00800272
-3.04199e-05
0.00800402
-1.17004e-05
0.00800621
-1.75222e-05
0.00800638
5.38653e-06
0.00800834
-7.10492e-06
0.00800785
2.04129e-05
0.00801021
-3.29309e-06
0.00800956
2.47824e-05
0.00801326
-1.8059e-05
0.00801329
9.10968e-06
0.00801954
-5.74201e-05
0.00802139
-3.23331e-05
0.00803207
-0.000132735
0.00803744
-0.000110761
0.00805464
-0.000251957
0.00806502
-0.00022597
0.00808956
-0.000398135
0.00810321
-0.000323975
0.00813044
-0.000484226
0.00813841
-0.000281647
0.00815473
-0.000326465
0.00814
0.000134896
0.00812635
0.000223593
0.0080778
0.0007472
0.00800573
0.000898348
0.00788431
0.00141737
0.00763408
0.00242672
0.00724551
0.00371402
0.00726174
-0.000151631
0.00752087
-0.00249029
0.00767412
-0.00149682
0.00773564
-0.000310621
0.0077756
-0.000105467
0.00778367
0.000235576
0.00779977
1.54888e-05
0.00779777
0.000250432
0.00780846
2.86042e-05
0.00780778
0.000141121
0.00781857
-1.4704e-05
0.007819
8.44837e-05
0.00782743
-4.05503e-05
0.00782554
9.02841e-06
0.00782862
-0.000125717
0.00782257
-9.23093e-05
0.00781959
-0.000179202
0.00780911
-0.000136798
0.00780045
-0.000184037
0.00778646
-0.000136196
0.00777426
-0.000154695
0.00775939
-0.00011676
0.0077469
-0.000139624
0.00773362
-0.00013144
0.00772257
-0.000164613
0.00771153
-0.00017679
0.00770215
-0.000215923
0.00769276
-0.000246572
0.00768423
-0.000296474
0.00767569
-0.00035795
0.00766765
-0.000434419
0.00765994
-0.000537778
0.00765303
-0.000643539
0.00764721
-0.0007901
0.0076433
-0.000918488
0.0076418
-0.00110335
0.00764396
-0.0012341
0.0076501
-0.00144717
0.00766261
-0.00155088
0.00768094
-0.00177641
0.00770922
-0.0018033
0.00774526
-0.00201513
0.00779539
-0.00190177
0.00785525
-0.00207545
0.0079326
-0.0017744
-0.00186147
0.00747484
0.00110698
0.0074059
0.000752094
0.00739424
0.00012349
0.00743791
-0.000482646
0.0075096
-0.000789556
0.00758234
-0.000801001
0.00764486
-0.000688505
0.00769701
-0.000574081
0.00774157
-0.000490058
0.00778034
-0.000426134
0.00781416
-0.000371415
0.00784365
-0.000323812
0.00786925
-0.000281018
0.00789155
-0.00024474
0.00791082
-0.000211433
0.00792759
-0.000184002
0.00794186
-0.000156622
0.00795429
-0.000136512
0.00796466
-0.000114256
0.00797372
-0.000100194
0.00798102
-8.13386e-05
0.00798748
-7.23636e-05
0.00799225
-5.40506e-05
0.00799674
-5.06763e-05
0.00799955
-3.20174e-05
0.00800262
-3.34855e-05
0.00800392
-1.30038e-05
0.00800611
-1.9717e-05
0.00800628
5.21971e-06
0.00800825
-9.07741e-06
0.00800777
2.08999e-05
0.00801013
-5.65881e-06
0.00800948
2.54342e-05
0.00801318
-2.17557e-05
0.00801321
9.07729e-06
0.00801946
-6.36673e-05
0.0080213
-3.4177e-05
0.00803197
-0.000143407
0.00803734
-0.000116129
0.00805453
-0.000269144
0.0080649
-0.000236345
0.00808944
-0.000422669
0.00810308
-0.000337618
0.00813032
-0.000511465
0.00813828
-0.000289609
0.00815461
-0.00034279
0.00813987
0.000149637
0.0081262
0.000237256
0.0080776
0.000795802
0.00800552
0.000970427
0.00788407
0.00153882
0.00763386
0.00267693
0.00724545
0.00410243
0.00726163
-0.000167807
0.00752067
-0.00274933
0.00767391
-0.00165006
0.00773541
-0.000372126
0.00777541
-0.000145465
0.00778348
0.000227503
0.00779964
-6.6403e-07
0.00779768
0.000252391
0.00780841
1.78737e-05
0.00780775
0.000141784
0.00781856
-2.55171e-05
0.007819
8.40374e-05
0.00782745
-4.89994e-05
0.00782558
1.09033e-05
0.00782867
-0.000128809
0.00782263
-8.62628e-05
0.00781964
-0.000176221
0.00780917
-0.000126324
0.00780051
-0.00017538
0.00778651
-0.000122198
0.00777431
-0.000142495
0.00775945
-0.000101892
0.00774695
-0.000127131
0.00773367
-0.000118159
0.00772262
-0.000153559
0.00771157
-0.000165747
0.00770219
-0.000206538
0.0076928
-0.00023718
0.00768426
-0.00028794
0.00767571
-0.000349398
0.00766767
-0.00042638
0.00765995
-0.000530055
0.00765303
-0.00063662
0.0076472
-0.000784269
0.00764328
-0.000914569
0.00764176
-0.00110183
0.00764391
-0.00123625
0.00765004
-0.0014533
0.00766256
-0.0015634
0.0076809
-0.00179476
0.00770922
-0.00183162
0.00774529
-0.0020512
0.00779547
-0.00195195
0.00785539
-0.00213537
0.0079328
-0.00185181
-0.0019556
0.00747484
0.0012079
0.0074059
0.000821038
0.00739421
0.000135178
0.00743785
-0.000526286
0.00750951
-0.000861218
0.00758224
-0.000873725
0.00764474
-0.000751012
0.00769688
-0.000626223
0.00774143
-0.000534606
0.00778021
-0.000464906
0.00781402
-0.000405228
0.00784351
-0.000353303
0.00786911
-0.000306616
0.00789141
-0.000267041
0.00791068
-0.000230702
0.00792745
-0.000200779
0.00794173
-0.000170895
0.00795416
-0.000148941
0.00796453
-0.000124625
0.00797359
-0.000109256
0.00798089
-8.86382e-05
0.00798736
-7.88299e-05
0.00799213
-5.88212e-05
0.00799662
-5.51698e-05
0.00799943
-3.48292e-05
0.0080025
-3.65536e-05
0.00800381
-1.43099e-05
0.008006
-2.1915e-05
0.00800618
5.04951e-06
0.00800815
-1.10545e-05
0.00800767
2.13821e-05
0.00801004
-8.02941e-06
0.00800939
2.60836e-05
0.00801309
-2.5453e-05
0.00801312
9.04693e-06
0.00801936
-6.99117e-05
0.0080212
-3.60152e-05
0.00803187
-0.000154074
0.00803723
-0.000121488
0.00805441
-0.000286326
0.00806477
-0.000246711
0.0080893
-0.000447199
0.00810294
-0.000351257
0.00813018
-0.000538706
0.00813814
-0.000297567
0.00815447
-0.000359116
0.00813971
0.000164395
0.00812603
0.000250934
0.00807739
0.00084445
0.0080053
0.00104252
0.00788381
0.00166031
0.00763362
0.00292712
0.00724539
0.00449066
0.00726151
-0.000183929
0.00752045
-0.00300827
0.00767367
-0.00180329
0.00773516
-0.000433616
0.0077752
-0.0001855
0.00778328
0.000219415
0.00779949
-1.68683e-05
0.00779758
0.000254299
0.00780835
7.10104e-06
0.00780771
0.000142429
0.00781854
-3.63481e-05
0.007819
8.35732e-05
0.00782748
-5.7474e-05
0.00782562
1.27603e-05
0.00782872
-0.00013191
0.00782268
-8.02216e-05
0.00781971
-0.000173244
0.00780924
-0.000115854
0.00780058
-0.000166724
0.00778658
-0.000108199
0.00777438
-0.000130293
0.00775951
-8.70221e-05
0.00774701
-0.000114634
0.00773372
-0.000104872
0.00772266
-0.000142502
0.00771162
-0.000154701
0.00770223
-0.00019715
0.00769283
-0.000227784
0.00768429
-0.000279401
0.00767574
-0.00034084
0.00766769
-0.000418334
0.00765996
-0.000522322
0.00765303
-0.000629689
0.00764718
-0.000778424
0.00764325
-0.000910636
0.00764172
-0.0011003
0.00764386
-0.00123839
0.00764999
-0.00145943
0.00766251
-0.00157592
0.00768087
-0.00181311
0.00770921
-0.00185996
0.00774532
-0.00208731
0.00779555
-0.00200218
0.00785553
-0.00219535
0.007933
-0.00192927
-0.00204979
0.00747484
0.00130882
0.00740589
0.000889984
0.00739418
0.000146887
0.00743779
-0.000569891
0.00750942
-0.00093285
0.00758213
-0.00094643
0.00764462
-0.000813505
0.00769675
-0.000678355
0.00774129
-0.000579147
0.00778006
-0.000503674
0.00781387
-0.000439038
0.00784336
-0.000382792
0.00786896
-0.000332212
0.00789126
-0.000289341
0.00791053
-0.000249973
0.0079273
-0.000217556
0.00794158
-0.00018517
0.00795401
-0.000161373
0.00796438
-0.000134997
0.00797345
-0.00011832
0.00798075
-9.59402e-05
0.00798722
-8.52986e-05
0.00799199
-6.35941e-05
0.00799649
-5.96657e-05
0.0079993
-3.76434e-05
0.00800237
-3.96244e-05
0.00800368
-1.56188e-05
0.00800588
-2.41165e-05
0.00800606
4.8759e-06
0.00800804
-1.30361e-05
0.00800756
2.18597e-05
0.00800994
-1.04046e-05
0.00800929
2.67312e-05
0.00801299
-2.91506e-05
0.00801302
9.01922e-06
0.00801926
-7.61526e-05
0.00802109
-3.78468e-05
0.00803175
-0.000164734
0.0080371
-0.000126838
0.00805427
-0.0003035
0.00806463
-0.000257069
0.00808916
-0.000471726
0.00810279
-0.00036489
0.00813003
-0.00056595
0.00813799
-0.000305519
0.00815431
-0.000375445
0.00813954
0.00017917
0.00812585
0.000264626
0.00807715
0.000893148
0.00800505
0.00111461
0.00788352
0.00178184
0.00763336
0.00317728
0.00724532
0.0048787
0.00726138
-0.000199996
0.00752021
-0.00326709
0.00767342
-0.0019565
0.00773489
-0.000495088
0.00777497
-0.000225575
0.00778307
0.00021131
0.00779933
-3.31275e-05
0.00779748
0.000256153
0.00780829
-3.71663e-06
0.00780767
0.000143055
0.00781852
-4.71986e-05
0.007819
8.30896e-05
0.0078275
-6.59754e-05
0.00782567
1.45983e-05
0.00782878
-0.000135021
0.00782274
-7.41863e-05
0.00781977
-0.000170272
0.0078093
-0.000105387
0.00780065
-0.000158067
0.00778664
-9.41972e-05
0.00777444
-0.000118092
0.00775957
-7.21505e-05
0.00774707
-0.000102133
0.00773378
-9.15804e-05
0.00772272
-0.00013144
0.00771167
-0.000143652
0.00770227
-0.000187757
0.00769287
-0.000218382
0.00768433
-0.000270857
0.00767576
-0.000332276
0.00766771
-0.00041028
0.00765997
-0.000514579
0.00765302
-0.000622746
0.00764717
-0.000772565
0.00764322
-0.00090669
0.00764167
-0.00109876
0.0076438
-0.00124052
0.00764993
-0.00146556
0.00766246
-0.00158845
0.00768083
-0.00183148
0.0077092
-0.00188833
0.00774534
-0.00212345
0.00779562
-0.00205246
0.00785566
-0.00225539
0.00793318
-0.00200679
-0.00214403
0.00747484
0.00140974
0.00740589
0.000958931
0.00739416
0.000158615
0.00743773
-0.000613461
0.00750933
-0.00100445
0.00758201
-0.00101911
0.00764449
-0.000875984
0.00769661
-0.000730477
0.00774115
-0.00062368
0.00777991
-0.000542435
0.00781371
-0.000472843
0.0078432
-0.000412278
0.00786879
-0.000357806
0.00789109
-0.000311641
0.00791036
-0.000269243
0.00792714
-0.000234335
0.00794142
-0.000199446
0.00795385
-0.000173806
0.00796423
-0.00014537
0.00797329
-0.000127386
0.0079806
-0.000103244
0.00798707
-9.17697e-05
0.00799184
-6.83693e-05
0.00799634
-6.41641e-05
0.00799916
-4.04599e-05
0.00800223
-4.2698e-05
0.00800354
-1.69305e-05
0.00800575
-2.63214e-05
0.00800593
4.69882e-06
0.00800791
-1.50224e-05
0.00800744
2.23325e-05
0.00800982
-1.27846e-05
0.00800917
2.73768e-05
0.00801287
-3.28487e-05
0.0080129
8.99404e-06
0.00801913
-8.23902e-05
0.00802096
-3.96718e-05
0.00803161
-0.000175387
0.00803695
-0.000132179
0.00805412
-0.000320666
0.00806447
-0.000267417
0.00808899
-0.000496249
0.00810262
-0.000378518
0.00812986
-0.000593196
0.00813781
-0.000313466
0.00815414
-0.000391776
0.00813935
0.000193963
0.00812564
0.000278332
0.00807689
0.000941898
0.00800479
0.00118671
0.00788323
0.00190341
0.00763309
0.00342742
0.00724524
0.00526654
0.00726126
-0.000216007
0.00751997
-0.00352581
0.00767315
-0.00210969
0.00773461
-0.000556539
0.00777472
-0.00026569
0.00778284
0.000203187
0.00779916
-4.94443e-05