/*--------------------------------*- C++ -*----------------------------------*\
| =========                 |                                                 |
| \\      /  F ield         | OpenFOAM: The Open Source CFD Toolbox           |
|  \\    /   O peration     | Version:  2412                                  |
|   \\  /    A nd           | Website:  www.openfoam.com                      |
|    \\/     M anipulation  |                                                 |
\*---------------------------------------------------------------------------*/
FoamFile
{
    version     2.0;
    format      ascii;
    arch        "LSB;label=32;scalar=64";
    class       volVectorField;
    location    "0.2";
    object      U;
}
// * * * * * * * * * * * * * * * * * * * * * * * * * * * * * * * * * * * * * //

dimensions      [0 1 -1 0 0 0 0];

internalField   nonuniform List<vector> 
13068
(
(99.9911 -0.00782599 0)
(100.166 -0.042096 -7.32229e-19)
(101.035 -0.0989897 -3.5141e-19)
(102.836 -0.15446 0)
(105.348 -0.184934 0)
(108.088 -0.189754 0)
(110.81 -0.183228 -1.00961e-18)
(113.435 -0.176108 6.65596e-19)
(116.039 -0.171679 0)
(118.62 -0.169094 6.43525e-19)
(121.244 -0.167572 -3.15804e-19)
(123.86 -0.166742 -3.09575e-19)
(126.556 -0.16652 -6.06945e-19)
(129.249 -0.166865 0)
(132.064 -0.167647 0)
(134.872 -0.168985 0)
(137.853 -0.170674 0)
(140.811 -0.172979 -5.42047e-19)
(144.008 -0.175536 -2.64683e-19)
(147.15 -0.17874 2.57477e-19)
(150.62 -0.182001 7.53357e-19)
(153.978 -0.185917 -7.30641e-19)
(157.786 -0.189635 2.37251e-19)
(161.395 -0.194068 0)
(165.621 -0.198016 2.23066e-19)
(169.518 -0.202743 -4.28952e-19)
(174.261 -0.206638 -2.08586e-19)
(178.486 -0.211354 -3.9856e-19)
(183.872 -0.214828 -3.87652e-19)
(188.468 -0.219294 3.67182e-19)
(194.662 -0.223225 -1.7881e-19)
(199.68 -0.229859 -1.67376e-19)
(206.897 -0.237878 0)
(212.406 -0.249449 0)
(220.933 -0.263449 2.96311e-19)
(227.023 -0.281151 -1.33231e-19)
(237.242 -0.302985 0)
(244.052 -0.329458 3.45844e-19)
(256.481 -0.361541 2.34576e-19)
(264.225 -0.399694 2.90433e-19)
(279.563 -0.441594 -3.06505e-19)
(288.538 -0.488987 -7.79251e-20)
(307.643 -0.526821 0)
(318.138 -0.571792 0)
(341.925 -0.577329 -1.46948e-19)
(354.087 -0.576841 0)
(383.345 -0.482962 -1.77637e-19)
(397.22 -0.436639 -1.63471e-20)
(432.817 -0.331089 0)
(449.515 -0.38801 0)
(490.824 -0.376038 -5.75029e-20)
(510.579 -0.46267 0)
(545.664 -0.482473 1.68173e-20)
(562.057 0.0386118 1.27851e-20)
(541.306 0.235309 3.05859e-20)
(535.701 0.310154 0)
(501.514 0.545573 0)
(488.248 0.548434 -8.34402e-20)
(456.619 0.568784 1.32772e-20)
(443.621 0.458669 -1.14774e-20)
(417.306 0.490034 0)
(405.509 0.406419 -1.12204e-20)
(383.994 0.399715 -2.86237e-20)
(373.492 0.353203 0)
(355.802 0.346038 0)
(346.214 0.300902 9.05971e-20)
(331.402 0.264161 0)
(322.439 0.196815 0)
(309.817 0.157695 0)
(301.379 0.111264 1.04519e-19)
(290.455 0.0885239 -1.23782e-19)
(282.516 0.0614629 1.86115e-19)
(272.954 0.0553465 0)
(265.55 0.0472134 0)
(257.144 0.0503379 1.56355e-19)
(250.347 0.0431149 -1.60805e-19)
(242.964 0.0381249 8.64001e-20)
(236.793 0.0237625 0)
(230.276 0.0106339 1.89145e-19)
(224.684 -0.010189 9.78158e-20)
(218.874 -0.0348963 -2.05342e-19)
(213.788 -0.0668061 0)
(208.542 -0.111209 1.10723e-19)
(203.904 -0.161934 -3.43743e-19)
(199.122 -0.231359 0)
(194.904 -0.29922 3.68747e-19)
(190.533 -0.392237 -3.80463e-19)
(186.739 -0.468362 -2.62715e-19)
(182.761 -0.578759 0)
(179.419 -0.646507 0)
(175.849 -0.766277 -4.3006e-19)
(173.005 -0.801127 1.4898e-19)
(169.884 -0.918527 0)
(167.597 -0.88309 1.5825e-19)
(164.989 -0.980532 -1.60574e-19)
(163.327 -0.830187 5.02762e-19)
(161.3 -0.891294 3.38e-19)
(160.333 -0.598925 -1.76422e-19)
(158.91 -0.564162 0)
(99.9911 -0.0117187 0)
(100.166 -0.0676315 2.19653e-18)
(101.034 -0.163449 0)
(102.835 -0.257218 0)
(105.348 -0.308315 -1.35382e-18)
(108.087 -0.316102 0)
(110.809 -0.305089 6.73037e-19)
(113.434 -0.293355 -6.65568e-19)
(116.039 -0.286173 0)
(118.619 -0.282017 -6.43505e-19)
(121.243 -0.279528 0)
(123.86 -0.278146 0)
(126.555 -0.277742 6.0693e-19)
(129.249 -0.278312 0)
(132.063 -0.279594 0)
(134.871 -0.281816 0)
(137.852 -0.28456 0)
(140.81 -0.288323 5.42038e-19)
(144.008 -0.292405 0)
(147.149 -0.2976 -5.14945e-19)
(150.619 -0.302804 -5.0223e-19)
(153.977 -0.309247 4.87087e-19)
(157.785 -0.315299 9.48991e-19)
(161.395 -0.322833 0)
(165.62 -0.32949 4.46127e-19)
(169.518 -0.337964 4.28945e-19)
(174.26 -0.344942 4.17166e-19)
(178.485 -0.354167 1.19566e-18)
(183.871 -0.361119 1.16294e-18)
(188.467 -0.371016 3.67176e-19)
(194.661 -0.378859 0)
(199.68 -0.392071 0)
(206.897 -0.404556 0)
(212.406 -0.42417 6.02337e-19)
(220.933 -0.443324 2.96305e-19)
(227.023 -0.470893 -5.32912e-19)
(237.241 -0.498867 0)
(244.051 -0.53758 -2.30557e-19)
(256.48 -0.577202 -2.3457e-19)
(264.224 -0.63047 -1.93616e-19)
(279.562 -0.68145 2.04331e-19)
(288.537 -0.746653 1.55846e-19)
(307.642 -0.794137 -3.50283e-19)
(318.137 -0.858048 0)
(341.925 -0.871717 -1.46946e-19)
(354.086 -0.888197 1.53566e-19)
(383.345 -0.799555 1.18422e-19)
(397.22 -0.767004 0)
(432.816 -0.669869 -1.75493e-19)
(449.512 -0.72661 -3.03741e-20)
(490.821 -0.71864 5.75012e-20)
(510.572 -0.736832 0)
(545.663 -0.724414 -1.00892e-19)
(562.061 0.0589665 8.52508e-21)
(541.299 0.34697 -2.32591e-25)
(535.699 0.501328 -8.9163e-20)
(501.509 0.776865 0)
(488.247 0.786717 5.56251e-20)
(456.615 0.810635 0)
(443.619 0.688388 -2.29566e-20)
(417.304 0.71725 0)
(405.508 0.619016 7.48004e-21)
(383.993 0.607984 0)
(373.491 0.548321 0)
(355.801 0.538351 7.39473e-20)
(346.213 0.482849 -6.03976e-20)
(331.402 0.444795 9.07753e-20)
(322.439 0.369314 -8.34473e-20)
(309.817 0.329262 0)
(301.379 0.276315 -1.43786e-24)
(290.455 0.252541 1.23781e-19)
(282.516 0.219988 -2.48148e-19)
(272.954 0.21217 0)
(265.549 0.198861 1.42694e-19)
(257.144 0.199178 -1.56354e-19)
(250.347 0.186721 1.60804e-19)
(242.964 0.178244 1.72795e-19)
(236.792 0.159052 0)
(230.275 0.142422 -1.89144e-19)
(224.683 0.117496 1.95623e-19)
(218.873 0.0896463 2.05341e-19)
(213.787 0.054428 0)
(208.541 0.00719591 2.21434e-19)
(203.903 -0.0463798 2.29159e-19)
(199.121 -0.11861 0)
(194.903 -0.189284 -4.9165e-19)
(190.532 -0.285426 5.0727e-19)
(186.737 -0.364808 2.62715e-19)
(182.76 -0.478921 2.69996e-19)
(179.418 -0.550836 0)
(175.848 -0.675112 2.86705e-19)
(173.004 -0.715595 2.97947e-19)
(169.884 -0.838442 0)
(167.597 -0.810653 0)
(164.991 -0.914544 3.2114e-19)
(163.329 -0.774184 -6.70336e-19)
(161.304 -0.842683 -3.37998e-19)
(160.338 -0.562257 7.0568e-19)
(158.917 -0.539164 0)
(99.9911 -0.0156104 0)
(100.166 -0.0931578 -2.92846e-18)
(101.034 -0.227889 0)
(102.834 -0.359956 0)
(105.346 -0.431686 1.35374e-18)
(108.086 -0.442447 0)
(110.808 -0.42695 -1.346e-18)
(113.433 -0.410602 0)
(116.037 -0.400667 0)
(118.618 -0.394939 0)
(121.242 -0.391483 0)
(123.859 -0.38955 -1.23823e-18)
(126.554 -0.388964 -1.21383e-18)
(129.248 -0.389759 0)
(132.062 -0.39154 0)
(134.87 -0.394648 1.13678e-18)
(137.851 -0.398446 0)
(140.809 -0.403667 -1.08406e-18)
(144.007 -0.409274 0)
(147.148 -0.416459 1.02987e-18)
(150.618 -0.423606 1.00444e-18)
(153.976 -0.432577 0)
(157.784 -0.440962 7.61249e-25)
(161.394 -0.451596 0)
(165.619 -0.460962 6.80443e-25)
(169.517 -0.473183 0)
(174.259 -0.483245 -8.34317e-19)
(178.484 -0.496978 -7.97092e-19)
(183.87 -0.50741 -7.75275e-19)
(188.466 -0.522738 5.86103e-25)
(194.661 -0.534493 7.15212e-19)
(199.679 -0.554283 0)
(206.896 -0.571234 0)
(212.405 -0.598888 -6.02324e-19)
(220.932 -0.623197 -1.35088e-25)
(227.022 -0.660632 5.32899e-19)
(237.24 -0.694744 0)
(244.05 -0.745697 0)
(256.479 -0.792857 4.69126e-19)
(264.223 -0.86124 3.8722e-19)
(279.56 -0.921301 -4.08649e-19)
(288.535 -1.00431 3.1168e-19)
(307.64 -1.06145 7.00543e-19)
(318.135 -1.1443 0)
(341.924 -1.16611 -2.61613e-24)
(354.085 -1.19955 -1.53562e-19)
(383.344 -1.11615 0)
(397.218 -1.09736 0)
(432.814 -1.00863 1.75489e-19)
(449.508 -1.06519 3.03734e-20)
(490.818 -1.06122 0)
(510.563 -1.01099 0)
(545.66 -0.966405 1.34505e-19)
(562.066 0.0793414 5.62287e-25)
(541.291 0.458653 2.03918e-20)
(535.696 0.692495 -8.91641e-20)
(501.503 1.00815 0)
(488.245 1.02499 0)
(456.611 1.05249 0)
(443.616 0.918096 6.88702e-20)
(417.301 0.944455 0)
(405.507 0.831604 -1.4959e-20)
(383.992 0.816253 0)
(373.49 0.743438 0)
(355.8 0.730663 -7.39468e-20)
(346.213 0.664791 0)
(331.403 0.625427 -9.0774e-20)
(322.439 0.541816 8.34459e-20)
(309.817 0.500831 2.14898e-19)
(301.379 0.441367 -1.04516e-19)
(290.455 0.41656 -2.47554e-19)
(282.516 0.378516 3.72212e-19)
(272.954 0.368997 0)
(265.55 0.350513 -1.42693e-19)
(257.144 0.348022 3.12699e-19)
(250.347 0.33033 0)
(242.964 0.318368 -1.72795e-19)
(236.792 0.294347 0)
(230.275 0.274215 0)
(224.683 0.245187 -1.95622e-19)
(218.873 0.214196 0)
(213.787 0.175669 -4.24932e-19)
(208.54 0.125608 2.21424e-19)
(203.902 0.0691828 0)
(199.121 -0.00585069 0)
(194.902 -0.0793365 2.4582e-19)
(190.531 -0.178602 -7.60877e-19)
(186.736 -0.261243 0)
(182.759 -0.379071 2.69981e-19)
(179.416 -0.455157 0)
(175.847 -0.583942 -5.73383e-19)
(173.002 -0.630067 2.97933e-19)
(169.883 -0.758364 0)
(167.596 -0.738236 0)
(164.992 -0.84858 -3.21141e-19)
(163.331 -0.718217 3.35164e-19)
(161.308 -0.794113 0)
(160.342 -0.52563 3.52819e-19)
(158.923 -0.514205 0)
(99.9911 -0.0195008 0)
(100.166 -0.118675 2.92818e-18)
(101.034 -0.292309 1.4055e-18)
(102.833 -0.462674 1.36678e-18)
(105.345 -0.555045 -1.35366e-18)
(108.085 -0.56879 0)
(110.806 -0.548812 2.69187e-18)
(113.431 -0.527849 1.33103e-18)
(116.036 -0.51516 0)
(118.616 -0.50786 0)
(121.24 -0.503438 -1.26311e-18)
(123.857 -0.500954 1.2382e-18)
(126.553 -0.500186 1.2138e-18)
(129.246 -0.501206 0)
(132.061 -0.503486 1.16331e-18)
(134.869 -0.507479 -1.13675e-18)
(137.85 -0.512332 -1.11164e-18)
(140.808 -0.519011 1.08403e-18)
(144.006 -0.526142 0)
(147.147 -0.535317 -2.05971e-18)
(150.617 -0.544408 1.05398e-24)
(153.975 -0.555905 0)
(157.783 -0.566625 9.86741e-25)
(161.393 -0.580359 9.1684e-19)
(165.618 -0.592434 8.95024e-25)
(169.516 -0.608401 0)
(174.258 -0.621547 -7.75234e-25)
(178.483 -0.639789 0)
(183.869 -0.653701 0)
(188.465 -0.67446 8.42895e-25)
(194.66 -0.690129 -7.15196e-19)
(199.678 -0.716497 0)
(206.896 -0.737912 0)
(212.404 -0.773607 6.02314e-19)
(220.931 -0.803069 -1.18517e-18)
(227.021 -0.850368 -5.32887e-19)
(237.239 -0.890619 0)
(244.049 -0.953812 -4.61088e-19)
(256.478 -1.00851 -4.69115e-19)
(264.222 -1.09201 -7.74418e-19)
(279.559 -1.16115 -9.27676e-26)
(288.534 -1.26197 4.73962e-25)
(307.638 -1.32876 -3.50261e-19)
(318.133 -1.43056 2.34437e-19)
(341.922 -1.46049 5.87752e-19)
(354.083 -1.51091 -1.53565e-19)
(383.342 -1.43273 0)
(397.215 -1.42771 0)
(432.811 -1.34737 0)
(449.502 -1.40376 0)
(490.813 -1.40376 0)
(510.553 -1.28513 0)
(545.656 -1.20845 -6.7245e-20)
(562.07 0.0997432 -1.70612e-20)
(541.282 0.570361 -4.07903e-20)
(535.692 0.883651 1.78319e-19)
(501.494 1.23942 0)
(488.241 1.26325 -1.11244e-19)
(456.605 1.29434 0)
(443.612 1.14778 1.49807e-24)
(417.298 1.17164 -8.21987e-20)
(405.506 1.04418 1.49587e-20)
(383.991 1.02452 1.14478e-19)
(373.489 0.938552 7.03563e-20)
(355.799 0.922969 1.47887e-19)
(346.212 0.846722 1.20789e-19)
(331.403 0.806052 -1.8154e-19)
(322.44 0.714315 1.66885e-19)
(309.817 0.672399 -2.8056e-24)
(301.379 0.606417 0)
(290.456 0.580575 4.95102e-19)
(282.516 0.537044 -2.42057e-24)
(272.955 0.525825 0)
(265.55 0.502164 -2.85377e-19)
(257.144 0.496864 -3.12697e-19)
(250.347 0.473939 -3.21591e-19)
(242.964 0.458491 3.45579e-19)
(236.792 0.42964 3.56855e-19)
(230.275 0.406005 0)
(224.683 0.372874 0)
(218.873 0.338742 0)
(213.787 0.296905 8.65157e-24)
(208.54 0.244014 -8.857e-19)
(203.902 0.184739 0)
(199.12 0.106902 0)
(194.901 0.0306039 -4.91612e-19)
(190.53 -0.0717842 5.07244e-19)
(186.735 -0.157686 0)
(182.757 -0.27923 -5.39974e-19)
(179.415 -0.359492 0)
(175.845 -0.492789 1.34405e-23)
(173.001 -0.544563 -5.95882e-19)
(169.883 -0.678314 0)
(167.596 -0.665853 0)
(164.993 -0.782654 0)
(163.332 -0.662292 0)
(161.311 -0.745586 0)
(160.346 -0.489037 -1.1206e-23)
(158.929 -0.489276 0)
(99.9911 -0.02339 0)
(100.166 -0.144182 1.46393e-18)
(101.033 -0.356707 -1.40542e-18)
(102.832 -0.565368 -1.36672e-18)
(105.344 -0.67839 -1.35359e-18)
(108.083 -0.695128 0)
(110.805 -0.670674 -1.34587e-18)
(113.43 -0.645095 -1.33097e-18)
(116.035 -0.629652 0)
(118.615 -0.620781 2.57377e-18)
(121.239 -0.615393 1.26307e-18)
(123.856 -0.612357 -2.47633e-18)
(126.552 -0.611408 2.42753e-18)
(129.245 -0.612653 0)
(132.06 -0.615431 -1.16328e-18)
(134.868 -0.62031 -2.27345e-18)
(137.849 -0.626217 3.33484e-18)
(140.807 -0.634354 0)
(144.004 -0.643009 0)
(147.146 -0.654175 1.02983e-18)
(150.616 -0.665209 -1.00441e-18)
(153.974 -0.679233 0)
(157.782 -0.692286 9.48945e-19)
(161.391 -0.709121 -9.16825e-19)
(165.617 -0.723904 -8.92209e-19)
(169.514 -0.743618 0)
(174.257 -0.759847 8.34288e-19)
(178.482 -0.782598 0)
(183.868 -0.799991 0)
(188.464 -0.826183 -7.34307e-19)
(194.659 -0.845766 0)
(199.677 -0.878712 0)
(206.895 -0.904589 0)
(212.403 -0.948323 -6.02303e-19)
(220.93 -0.982937 1.77772e-18)
(227.02 -1.0401 5.32876e-19)
(237.238 -1.08649 0)
(244.048 -1.16192 1.38324e-18)
(256.476 -1.22415 -9.38209e-19)
(264.22 -1.32277 3.872e-19)
(279.557 -1.40099 4.08628e-19)
(288.531 -1.51963 -3.11662e-19)
(307.636 -1.59607 -7.00509e-19)
(318.131 -1.71681 -2.34431e-19)
(341.92 -1.75488 -8.81621e-19)
(354.081 -1.82225 4.60697e-19)
(383.34 -1.7493 0)
(397.212 -1.75804 0)
(432.807 -1.68608 3.50989e-19)
(449.495 -1.7423 0)
(490.807 -1.74627 0)
(510.541 -1.55926 0)
(545.651 -1.45056 0)
(562.073 0.12017 3.41416e-20)
(541.271 0.682095 4.07936e-20)
(535.686 1.0748 -1.78321e-19)
(501.484 1.47068 0)
(488.236 1.50149 1.11236e-19)
(456.598 1.53618 0)
(443.607 1.37745 -4.59129e-20)
(417.295 1.39881 8.21975e-20)
(405.505 1.25674 -1.49586e-20)
(383.99 1.23278 -1.14475e-19)
(373.488 1.13366 -7.03553e-20)
(355.799 1.11527 -2.65443e-24)
(346.212 1.02865 -1.43161e-24)
(331.404 0.986673 3.63073e-19)
(322.44 0.886816 -1.66883e-19)
(309.818 0.843967 -2.14892e-19)
(301.38 0.771468 0)
(290.457 0.744591 -2.60088e-24)
(282.517 0.695575 -2.48132e-19)
(272.955 0.682656 0)
(265.551 0.653819 2.79124e-24)
(257.145 0.645709 3.12689e-19)
(250.348 0.617551 3.93166e-24)
(242.964 0.598619 -4.78994e-24)
(236.792 0.564937 -3.56855e-19)
(230.276 0.5378 0)
(224.683 0.500567 3.91221e-19)
(218.873 0.463293 0)
(213.787 0.418145 4.2492e-19)
(208.54 0.362425 8.85678e-19)
(203.901 0.3003 -4.58269e-19)
(199.12 0.219662 0)
(194.901 0.140552 9.83207e-19)
(190.529 0.0350421 5.07215e-19)
(186.734 -0.0541216 5.25365e-19)
(182.756 -0.179381 5.39944e-19)
(179.413 -0.263824 0)
(175.844 -0.401634 5.73369e-19)
(172.999 -0.459066 5.95854e-19)
(169.882 -0.598275 0)
(167.595 -0.593493 0)
(164.994 -0.716755 6.4226e-19)
(163.334 -0.606403 -6.70282e-19)
(161.315 -0.697098 0)
(160.35 -0.452482 -1.41121e-18)
(158.935 -0.464381 0)
(99.9911 -0.0272778 0)
(100.166 -0.169681 5.76533e-24)
(101.033 -0.421087 0)
(102.832 -0.66804 2.73335e-18)
(105.343 -0.801721 2.70706e-18)
(108.082 -0.821461 0)
(110.803 -0.792533 0)
(113.428 -0.762341 0)
(116.033 -0.744142 0)
(118.614 -0.733699 -2.57369e-18)
(121.237 -0.727345 0)
(123.854 -0.723758 4.95252e-18)
(126.55 -0.722628 3.33418e-24)
(129.243 -0.724098 0)
(132.058 -0.727376 0)
(134.866 -0.73314 -3.35318e-24)
(137.847 -0.740101 -2.22318e-18)
(140.805 -0.749696 0)
(144.003 -0.759876 0)
(147.144 -0.773032 0)
(150.614 -0.786008 0)
(153.972 -0.802559 0)
(157.781 -0.817945 -1.89786e-18)
(161.39 -0.83788 0)
(165.616 -0.855372 0)
(169.513 -0.878833 0)
(174.256 -0.898146 0)
(178.48 -0.925407 -1.59411e-18)
(183.867 -0.946281 0)
(188.463 -0.977905 1.46859e-18)
(194.657 -1.0014 0)
(199.676 -1.04093 -1.33888e-18)
(206.893 -1.07127 -1.30834e-18)
(212.402 -1.12304 0)
(220.929 -1.1628 -1.18513e-18)
(227.019 -1.22983 -1.06574e-18)
(237.237 -1.28235 0)
(244.046 -1.37002 -9.22141e-19)
(256.475 -1.43979 1.87639e-18)
(264.218 -1.55352 0)
(279.555 -1.64082 0)
(288.529 -1.77727 0)
(307.634 -1.86336 7.00496e-19)
(318.128 -2.00305 0)
(341.917 -2.04926 5.87742e-19)
(354.077 -2.1336 -3.07132e-19)
(383.337 -2.06587 -4.73705e-19)
(397.208 -2.08835 0)
(432.803 -2.02476 -3.50991e-19)
(449.487 -2.08082 0)
(490.801 -2.08875 -2.29986e-19)
(510.527 -1.83337 2.76232e-19)
(545.645 -1.69273 -1.3445e-19)
(562.076 0.140623 -6.83226e-20)
(541.258 0.793857 -4.08029e-20)
(535.68 1.26593 -5.33425e-24)
(501.472 1.70192 0)
(488.23 1.7397 0)
(456.59 1.77801 0)
(443.602 1.60709 4.59137e-20)
(417.291 1.62595 0)
(405.503 1.46928 1.49582e-20)
(383.989 1.44104 1.14468e-19)
(373.487 1.32877 7.03538e-20)
(355.798 1.30757 -1.47884e-19)
(346.212 1.21056 -1.20787e-19)
(331.405 1.16729 -1.81534e-19)
(322.441 1.05932 1.66877e-19)
(309.819 1.01554 0)
(301.381 0.936519 0)
(290.458 0.908608 -2.52829e-24)
(282.519 0.854108 -2.48126e-19)
(272.957 0.839491 0)
(265.552 0.805476 2.85371e-19)
(257.146 0.794557 -3.12689e-19)
(250.349 0.761167 3.21585e-19)
(242.965 0.73875 -3.45575e-19)
(236.793 0.700238 0)
(230.276 0.669598 0)
(224.683 0.628264 -3.91221e-19)
(218.873 0.587848 -4.10638e-19)
(213.787 0.539389 0)
(208.54 0.48084 -9.32498e-24)
(203.901 0.415866 4.58268e-19)
(199.12 0.332428 0)
(194.9 0.250506 -4.91594e-19)
(190.528 0.141876 -5.07212e-19)
(186.733 0.0494497 -5.25363e-19)
(182.755 -0.0795259 -5.39942e-19)
(179.412 -0.168154 0)
(175.843 -0.31048 -5.73342e-19)
(172.998 -0.373578 -5.95855e-19)
(169.882 -0.518247 0)
(167.595 -0.521156 0)
(164.995 -0.650881 -1.28451e-18)
(163.335 -0.550549 6.70278e-19)
(161.318 -0.648649 0)
(160.354 -0.415963 7.05583e-19)
(158.941 -0.439519 0)
(99.991 -0.0311642 0)
(100.166 -0.195173 -5.8542e-18)
(101.033 -0.485448 0)
(102.831 -0.770689 -2.73324e-18)
(105.341 -0.925037 0)
(108.08 -0.947787 0)
(110.802 -0.91439 -2.69155e-18)
(113.427 -0.879583 0)
(116.032 -0.85863 0)
(118.612 -0.846616 2.57361e-18)
(121.236 -0.839296 2.52599e-18)
(123.853 -0.835158 3.89113e-24)
(126.548 -0.833847 -2.42741e-18)
(129.242 -0.835541 0)
(132.056 -0.839319 0)
(134.865 -0.845969 4.54672e-18)
(137.846 -0.853984 0)
(140.804 -0.865036 -2.16795e-18)
(144.001 -0.876741 2.11725e-18)
(147.143 -0.891887 0)
(150.613 -0.906806 0)
(153.971 -0.925883 -1.94819e-18)
(157.779 -0.943603 1.89783e-18)
(161.388 -0.966638 -1.8336e-18)
(165.614 -0.986838 0)
(169.512 -1.01405 0)
(174.254 -1.03644 0)
(178.479 -1.06821 1.59408e-18)
(183.865 -1.09257 0)
(188.461 -1.12963 3.22367e-24)
(194.656 -1.15704 -1.43032e-18)
(199.675 -1.20314 1.33886e-18)
(206.892 -1.23794 1.30833e-18)
(212.401 -1.29775 1.20458e-18)
(220.928 -1.34266 0)
(227.018 -1.41955 1.06572e-18)
(237.235 -1.47821 0)
(244.044 -1.57812 0)
(256.473 -1.65542 -9.38182e-19)
(264.215 -1.78426 7.74375e-19)
(279.552 -1.88064 -8.17231e-19)
(288.526 -2.03491 6.23307e-19)
(307.631 -2.13065 0)
(318.124 -2.28929 -4.6886e-19)
(341.914 -2.34363 0)
(354.074 -2.44493 0)
(383.334 -2.38242 4.73708e-19)
(397.203 -2.41864 -1.30814e-19)
(432.798 -2.36341 -3.51011e-19)
(449.477 -2.4193 -6.07535e-20)
(490.793 -2.43118 2.29987e-19)
(510.511 -2.10745 -5.52524e-19)
(545.637 -1.93497 1.34441e-19)
(562.079 0.161105 3.41839e-20)
(541.243 0.905649 0)
(535.672 1.45706 1.78309e-19)
(501.459 1.93315 0)
(488.223 1.97789 -2.22446e-19)
(456.58 2.01982 0)
(443.596 1.8367 -4.59119e-20)
(417.286 1.85306 0)
(405.501 1.6818 0)
(383.987 1.64928 -1.14465e-19)
(373.486 1.52387 -7.03529e-20)
(355.798 1.49986 0)
(346.213 1.39246 2.41571e-19)
(331.406 1.3479 3.63055e-19)
(322.443 1.23182 -1.66876e-19)
(309.821 1.18711 0)
(301.382 1.10157 0)
(290.46 1.07262 -2.47543e-19)
(282.52 1.01264 7.44371e-19)
(272.958 0.996331 0)
(265.553 0.957137 0)
(257.147 0.943408 6.25364e-19)
(250.35 0.904786 0)
(242.966 0.878886 6.91133e-19)
(236.794 0.835543 7.13683e-19)
(230.277 0.801399 -7.56503e-19)
(224.684 0.755964 0)
(218.874 0.712407 4.10637e-19)
(213.787 0.660637 -8.49784e-19)
(208.541 0.599259 -4.42823e-19)
(203.901 0.531436 0)
(199.12 0.445199 0)
(194.9 0.360466 9.83135e-19)
(190.528 0.248717 -1.01437e-18)
(186.732 0.153027 0)
(182.754 0.0203351 1.07983e-18)
(179.411 -0.0724826 0)
(175.842 -0.219326 -5.73315e-19)
(172.997 -0.288098 1.19165e-18)
(169.881 -0.438232 0)
(167.594 -0.448841 0)
(164.996 -0.585034 6.42251e-19)
(163.336 -0.494731 1.3405e-18)
(161.322 -0.600239 0)
(160.357 -0.37948 0)
(158.947 -0.414689 0)
(99.991 -0.0350493 3.02925e-18)
(100.166 -0.220659 2.92666e-18)
(101.032 -0.549791 0)
(102.83 -0.873316 2.73316e-18)
(105.34 -1.04834 0)
(108.079 -1.0741 -2.70304e-18)
(110.8 -1.03624 5.38293e-18)
(113.425 -0.996822 -2.66169e-18)
(116.03 -0.973113 -2.6206e-18)
(118.61 -0.959528 -5.14706e-18)
(121.234 -0.951243 -2.52591e-18)
(123.851 -0.946555 -4.95225e-18)
(126.547 -0.945063 -2.42735e-18)
(129.24 -0.946983 0)
(132.055 -0.951259 2.32642e-18)
(134.863 -0.958795 -2.27332e-18)
(137.844 -0.967864 0)
(140.802 -0.980375 2.16791e-18)
(144 -0.993604 4.115e-24)
(147.141 -1.01074 0)
(150.611 -1.0276 -2.00873e-18)
(153.969 -1.04921 1.94816e-18)
(157.777 -1.06926 3.784e-24)
(161.387 -1.09539 3.66715e-18)
(165.612 -1.1183 1.78435e-18)
(169.51 -1.14926 0)
(174.252 -1.17474 0)
(178.477 -1.21102 0)
(183.864 -1.23885 0)
(188.459 -1.28135 -1.46855e-18)
(194.654 -1.31268 1.4303e-18)
(199.673 -1.36536 0)
(206.891 -1.40461 1.30832e-18)
(212.399 -1.47246 -2.40913e-18)
(220.926 -1.52252 1.18511e-18)
(227.016 -1.60927 0)
(237.233 -1.67406 1.06137e-18)
(244.042 -1.78621 -9.22123e-19)
(256.47 -1.87104 0)
(264.213 -2.015 -1.54874e-18)
(279.549 -2.12045 1.63445e-18)
(288.522 -2.29254 -6.233e-19)
(307.627 -2.39793 7.00491e-19)
(318.12 -2.57553 4.68857e-19)
(341.91 -2.638 -5.87764e-19)
(354.069 -2.75626 3.07163e-19)
(383.33 -2.69895 -4.73738e-19)
(397.197 -2.74891 1.30817e-19)
(432.792 -2.70201 3.51019e-19)
(449.466 -2.75775 -5.11973e-25)
(490.785 -2.77356 -2.29989e-19)
(510.493 -2.38151 2.76298e-19)
(545.628 -2.17728 0)
(562.082 0.181617 -6.84274e-20)
(541.228 1.01747 8.16293e-20)
(535.663 1.64817 0)
(501.443 2.16435 -7.01661e-20)
(488.214 2.21604 2.2242e-19)
(456.57 2.26162 -1.06121e-19)
(443.589 2.06628 0)
(417.28 2.08015 0)
(405.499 1.8943 0)
(383.986 1.85752 0)
(373.486 1.71896 0)
(355.797 1.69214 0)
(346.213 1.57435 -2.41572e-19)
(331.407 1.5285 -3.63054e-19)
(322.444 1.40432 0)
(309.822 1.35868 0)
(301.384 1.26662 0)
(290.462 1.23664 0)
(282.522 1.17118 -9.92486e-19)
(272.96 1.15317 0)
(265.555 1.1088 0)
(257.149 1.09226 -6.25365e-19)
(250.351 1.04841 0)
(242.967 1.01903 -6.91137e-19)
(236.795 0.970852 -7.13687e-19)
(230.278 0.933204 7.56506e-19)
(224.685 0.883669 -7.82402e-19)
(218.874 0.836971 8.21244e-19)
(213.788 0.781889 1.68004e-23)
(208.541 0.717681 0)
(203.902 0.64701 0)
(199.12 0.557976 9.49828e-19)
(194.9 0.470432 -2.4459e-23)
(190.528 0.355565 2.52036e-23)
(186.731 0.256611 1.05063e-18)
(182.753 0.120203 -2.15962e-18)
(179.409 0.0231912 0)
(175.841 -0.128173 1.14666e-18)
(172.995 -0.202627 -1.19165e-18)
(169.881 -0.358229 0)
(167.594 -0.376548 0)
(164.997 -0.519213 -1.28447e-18)
(163.337 -0.438948 -1.34049e-18)
(161.325 -0.551867 0)
(160.361 -0.343032 0)
(158.952 -0.389893 0)
(99.991 -0.0389332 -3.02885e-18)
(100.166 -0.24614 2.9262e-18)
(101.032 -0.614119 2.8101e-18)
(102.829 -0.975919 6.48507e-24)
(105.339 -1.17162 0)
(108.077 -1.20041 2.70298e-18)
(110.799 -1.15809 -2.6914e-18)
(113.423 -1.11406 5.32322e-18)
(116.028 -1.08759 2.62052e-18)
(118.608 -1.07244 5.14691e-18)
(121.232 -1.06319 0)
(123.849 -1.05795 2.47606e-18)
(126.545 -1.05628 2.42729e-18)
(129.238 -1.05842 0)
(132.053 -1.0632 4.73474e-24)
(134.861 -1.07162 0)
(137.842 -1.08174 -2.22307e-18)
(140.8 -1.09571 0)
(143.998 -1.11046 -2.11718e-18)
(147.139 -1.12959 -2.05955e-18)
(150.609 -1.1484 4.0174e-18)
(153.967 -1.17253 -1.94814e-18)
(157.775 -1.19491 -1.89779e-18)
(161.385 -1.22415 -1.83355e-18)
(165.61 -1.24976 3.94011e-24)
(169.508 -1.28446 0)
(174.25 -1.31303 0)
(178.475 -1.35382 1.59405e-18)
(183.862 -1.38514 0)
(188.457 -1.43307 1.46854e-18)
(194.652 -1.46831 0)
(199.671 -1.52757 0)
(206.889 -1.57128 -1.3083e-18)
(212.397 -1.64716 2.40911e-18)
(220.924 -1.70237 -2.3702e-18)
(227.014 -1.79898 0)
(237.231 -1.86991 3.69458e-25)
(244.039 -1.99428 9.22117e-19)
(256.468 -2.08665 9.38171e-19)
(264.21 -2.24572 7.74364e-19)
(279.546 -2.36025 -8.17222e-19)
(288.518 -2.55016 6.23303e-19)
(307.623 -2.6652 3.62799e-24)
(318.116 -2.86175 0)
(341.906 -2.93235 5.8777e-19)
(354.064 -3.06757 -3.07168e-19)
(383.326 -3.01547 4.73749e-19)
(397.189 -3.07915 0)
(432.786 -3.04057 0)
(449.453 -3.09617 6.07568e-20)
(490.776 -3.1159 4.59988e-19)
(510.474 -2.65553 0)
(545.619 -2.41967 -2.68794e-19)
(562.084 0.202162 6.84799e-20)
(541.211 1.12933 -8.16558e-20)
(535.653 1.83928 0)
(501.427 2.39554 1.40311e-19)
(488.204 2.45416 2.22403e-19)
(456.558 2.50339 2.12217e-19)
(443.581 2.29581 -9.182e-20)
(417.274 2.30719 1.64356e-19)
(405.496 2.10676 0)
(383.984 2.06575 0)
(373.485 1.91404 1.40704e-19)
(355.797 1.88441 2.95749e-19)
(346.213 1.75623 2.4157e-19)
(331.409 1.70909 -3.63043e-19)
(322.446 1.57682 3.33742e-19)
(309.824 1.53025 0)
(301.386 1.43168 -4.18034e-19)
(290.464 1.40066 4.95074e-19)
(282.524 1.32973 4.96241e-19)
(272.962 1.31002 0)
(265.557 1.26047 -5.70721e-19)
(257.151 1.24112 0)
(250.353 1.19204 0)
(242.969 1.15917 6.91122e-19)
(236.796 1.10616 7.13671e-19)
(230.279 1.06501 0)
(224.686 1.01138 7.82403e-19)
(218.875 0.96154 -8.21245e-19)
(213.789 0.903144 8.49766e-19)
(208.542 0.836109 -8.85588e-19)
(203.902 0.76259 0)
(199.12 0.670759 -1.89963e-18)
(194.9 0.580406 -9.83102e-19)
(190.527 0.462422 1.01433e-18)
(186.731 0.360202 -2.10123e-18)
(182.753 0.220077 1.07979e-18)
(179.408 0.118868 0)
(175.84 -0.037019 -1.1466e-18)
(172.994 -0.117163 0)
(169.88 -0.278238 0)
(167.593 -0.304277 0)
(164.998 -0.453418 1.28446e-18)
(163.338 -0.3832 0)
(161.328 -0.503532 0)
(160.364 -0.306619 0)
(158.958 -0.365128 0)
(99.991 -0.0428158 3.02844e-18)
(100.166 -0.271616 -2.92568e-18)
(101.032 -0.678431 -2.80986e-18)
(102.829 -1.0785 -2.733e-18)
(105.338 -1.29488 0)
(108.076 -1.32671 0)
(110.797 -1.27992 -2.69135e-18)
(113.422 -1.23128 -5.32308e-18)
(116.026 -1.20207 2.62045e-18)
(118.606 -1.18534 -2.57338e-18)
(121.23 -1.17513 0)
(123.847 -1.16934 0)
(126.542 -1.16749 0)
(129.236 -1.16986 0)
(132.05 -1.17513 -2.32632e-18)
(134.859 -1.18444 -2.27324e-18)
(137.84 -1.19562 4.44605e-18)
(140.798 -1.21104 0)
(143.995 -1.22732 2.11715e-18)
(147.137 -1.24844 -5.35809e-24)
(150.607 -1.26919 -2.00867e-18)
(153.965 -1.29584 1.94811e-18)
(157.773 -1.32056 0)
(161.382 -1.3529 -3.66708e-18)
(165.608 -1.38122 -1.78431e-18)
(169.505 -1.41967 0)
(174.248 -1.45132 0)
(178.473 -1.49662 -1.59403e-18)
(183.859 -1.53142 0)
(188.455 -1.58478 1.46853e-18)
(194.65 -1.62394 2.86054e-18)
(199.669 -1.68978 2.67767e-18)
(206.887 -1.73795 -2.6166e-18)
(212.395 -1.82186 -1.20455e-18)
(220.922 -1.88222 1.1851e-18)
(227.011 -1.98869 0)
(237.229 -2.06574 -3.18411e-18)
(244.037 -2.20235 0)
(256.465 -2.30224 -2.81451e-18)
(264.206 -2.47643 -1.54874e-18)
(279.542 -2.60004 0)
(288.514 -2.80776 -6.23302e-19)
(307.619 -2.93246 -7.00495e-19)
(318.11 -3.14796 -9.37759e-19)
(341.902 -3.22669 0)
(354.058 -3.37887 -6.14396e-19)
(383.32 -3.33196 -9.47578e-19)
(397.181 -3.40936 0)
(432.778 -3.37908 0)
(449.439 -3.43454 1.21518e-19)
(490.765 -3.45819 -2.3e-19)
(510.454 -2.92951 5.52858e-19)
(545.608 -2.66214 2.68777e-19)
(562.086 0.222739 -6.85516e-20)
(541.192 1.24122 0)
(535.641 2.03037 0)
(501.408 2.62671 -7.01434e-20)
(488.193 2.69224 -2.22371e-19)
(456.545 2.74514 -1.06094e-19)
(443.573 2.52531 9.18149e-20)
(417.268 2.5342 -3.28698e-19)
(405.494 2.31921 0)
(383.982 2.27397 0)
(373.484 2.10911 1.44228e-24)
(355.796 2.07667 -2.95751e-19)
(346.214 1.93809 -2.41572e-19)
(331.41 1.88968 3.63043e-19)
(322.448 1.74931 -3.33741e-19)
(309.826 1.70182 0)
(301.388 1.59673 2.18251e-24)
(290.466 1.56468 -9.90151e-19)
(282.526 1.48827 -4.96235e-19)
(272.964 1.46687 -5.59973e-19)
(265.559 1.41214 5.70723e-19)
(257.153 1.38998 0)
(250.355 1.33567 0)
(242.971 1.29932 -6.91128e-19)
(236.798 1.24148 -1.0283e-23)
(230.28 1.19683 7.5648e-19)
(224.687 1.13909 7.8238e-19)
(218.876 1.08611 -8.21217e-19)
(213.789 1.0244 0)
(208.542 0.954541 8.85588e-19)
(203.903 0.878174 0)
(199.12 0.783549 9.49801e-19)
(194.9 0.690386 -9.8305e-19)
(190.527 0.569287 0)
(186.73 0.4638 1.0506e-18)
(182.752 0.319959 0)
(179.407 0.214548 0)
(175.839 0.0541359 1.1466e-18)
(172.993 -0.0317061 0)
(169.879 -0.198256 0)
(167.592 -0.232026 0)
(164.999 -0.387647 0)
(163.339 -0.327485 0)
(161.331 -0.455235 0)
(160.367 -0.270241 0)
(158.963 -0.340396 0)
(99.991 -0.0466972 -3.02799e-18)
(100.166 -0.29709 0)
(101.032 -0.742728 0)
(102.828 -1.18106 0)
(105.337 -1.41812 0)
(108.075 -1.45299 0)
(110.796 -1.40175 2.6913e-18)
(113.42 -1.3485 2.66148e-18)
(116.024 -1.31653 2.62039e-18)
(118.604 -1.29824 5.14661e-18)
(121.228 -1.28706 0)
(123.845 -1.28072 4.95187e-18)
(126.54 -1.27869 4.85436e-18)
(129.233 -1.28129 0)
(132.048 -1.28706 0)
(134.856 -1.29726 2.27319e-18)
(137.837 -1.30949 2.223e-18)
(140.795 -1.32637 0)
(143.993 -1.34418 -2.11712e-18)
(147.134 -1.36728 2.05949e-18)
(150.604 -1.38997 0)
(153.962 -1.41915 0)
(157.771 -1.4462 3.7955e-18)
(161.38 -1.48164 3.66704e-18)
(165.606 -1.51267 -3.5686e-18)
(169.503 -1.55487 3.43117e-18)
(174.246 -1.5896 0)
(178.47 -1.63941 0)
(183.857 -1.67769 0)
(188.453 -1.7365 -2.93702e-18)
(194.648 -1.77958 -2.86052e-18)
(199.667 -1.85199 -2.67765e-18)
(206.884 -1.90461 2.61659e-18)
(212.393 -1.99656 2.40911e-18)
(220.92 -2.06205 0)
(227.009 -2.17838 0)
(237.226 -2.26156 2.12274e-18)
(244.033 -2.41041 -1.84425e-18)
(256.461 -2.51782 -7.59053e-25)
(264.202 -2.70712 1.54874e-18)
(279.538 -2.83981 0)
(288.509 -3.06535 0)
(307.614 -3.1997 -1.40102e-18)
(318.105 -3.43416 -1.7199e-23)
(341.896 -3.52101 1.17564e-18)
(354.051 -3.69016 6.14414e-19)
(383.315 -3.64843 9.47613e-19)
(397.172 -3.73954 2.61747e-19)
(432.77 -3.71754 7.02195e-19)
(449.424 -3.77287 -1.21523e-19)
(490.754 -3.80043 0)
(510.431 -3.20346 -1.10594e-18)
(545.597 -2.9047 0)
(562.088 0.243351 6.86119e-20)
(541.173 1.35316 -8.16795e-20)
(535.629 2.22145 -3.56562e-19)
(501.388 2.85786 0)
(488.181 2.93028 0)
(456.531 2.98686 -1.06064e-19)
(443.564 2.75475 -9.18105e-20)
(417.261 2.76116 3.28677e-19)
(405.491 2.53162 -2.99244e-20)
(383.979 2.48217 0)
(373.483 2.30416 -1.40701e-19)