/*--------------------------------*- C++ -*----------------------------------*\
| =========                 |                                                 |
| \\      /  F ield         | OpenFOAM: The Open Source CFD Toolbox           |
|  \\    /   O peration     | Version:  2412                                  |
|   \\  /    A nd           | Website:  www.openfoam.com                      |
|    \\/     M anipulation  |                                                 |
\*---------------------------------------------------------------------------*/
FoamFile
{
    version     2.0;
    format      ascii;
    arch        "LSB;label=32;scalar=64";
    class       volScalarField;
    location    "0.3";
    object      epsilon;
}
// * * * * * * * * * * * * * * * * * * * * * * * * * * * * * * * * * * * * * //

dimensions      [0 2 -3 0 0 0 0];

internalField   nonuniform List<scalar> 
13068
(
399.43
480.069
625.706
775.779
858.746
868.461
835.678
785.418
736.824
702.243
682.919
674.695
673.024
675.615
680.808
688.436
697.687
709.135
721.968
737.286
753.963
773.759
794.941
820.244
846.922
879.257
912.824
954.383
996.787
1050.85
1105.03
1176.75
1247.2
1344.62
1438.98
1576.52
1709.2
1913.38
2113.45
2434.32
2746.72
3245.78
3694.28
4383.85
4885.11
5637.68
6068.48
7039.03
7880.7
9084.26
10068.7
8656.15
10122.4
6334.3
4292.73
4253.1
4667.45
4338.32
4018.15
3446.11
3120.88
2715.54
2481.72
2189.97
2021.36
1829.24
1728.8
1611.12
1550.04
1474.53
1430.53
1370.65
1324.99
1266.25
1213.46
1151.97
1095.23
1037.57
987.254
940.958
901.888
868.086
839.621
815.159
792.85
772.951
752.786
734.316
714.179
695.827
675.269
656.833
636.464
618.123
599.407
581.697
567.147
554.58
529.847
399.065
478.5
622.311
771.172
854.414
865.43
834.101
785.011
737.195
703.022
683.842
675.625
673.905
676.436
681.572
689.155
698.371
709.796
722.615
737.929
754.608
774.416
795.614
820.944
847.652
880.028
913.641
955.259
997.726
1051.87
1106.14
1177.98
1248.55
1346.15
1440.72
1578.53
1711.52
1916.08
2116.5
2437.75
2750.4
3249.65
3698.22
4387.84
4889.7
5643.22
6076.1
7045.47
7884.98
9075.6
10049
8620.81
10054.7
6298.18
4282.46
4245.98
4657.31
4330.53
4013.63
3444.39
3120.86
2716.22
2482.57
2191.1
2022.72
1830.74
1730.3
1612.49
1551.23
1475.51
1431.31
1371.29
1325.54
1266.76
1213.97
1152.53
1095.85
1038.23
987.94
941.643
902.545
868.687
840.15
815.604
793.21
773.223
752.976
734.42
714.206
695.76
675.117
656.561
636.082
617.587
598.722
580.832
566.069
553.286
528.557
398.703
476.946
618.948
766.609
850.129
862.444
832.561
784.63
737.583
703.811
684.771
676.559
674.791
677.261
682.341
689.878
699.059
710.461
723.266
738.576
755.258
775.077
796.292
821.648
848.386
880.804
914.462
956.139
998.671
1052.89
1107.25
1179.2
1249.91
1347.68
1442.46
1580.54
1713.83
1918.77
2119.55
2441.17
2754.07
3253.51
3702.15
4391.81
4894.27
5648.73
6083.62
7051.75
7889
9066.64
10028.8
8584.54
9984.25
6259.82
4270.5
4237.09
4645.55
4321.54
4008.31
3442.16
3120.49
2716.67
2483.23
2192.08
2023.97
1832.15
1731.73
1613.81
1552.37
1476.46
1432.06
1371.9
1326.06
1267.24
1214.47
1153.08
1096.46
1038.89
988.618
942.319
903.195
869.282
840.674
816.047
793.569
773.494
753.166
734.524
714.234
695.695
674.967
656.293
635.705
617.057
598.045
579.977
565.006
552.011
527.286
398.345
475.408
615.62
762.092
845.891
859.497
831.051
784.266
737.979
704.601
685.7
677.492
675.675
678.086
683.11
690.601
699.747
711.126
723.916
739.222
755.906
775.737
796.968
822.349
849.118
881.576
915.28
957.015
999.61
1053.91
1108.36
1180.42
1251.26
1349.2
1444.18
1582.53
1716.13
1921.44
2122.57
2444.55
2757.69
3257.31
3706.02
4395.72
4898.73
5654.1
6090.92
7057.77
7892.61
9057.22
10008
8547.21
9910.74
6218.99
4256.66
4226.31
4632.09
4311.28
4002.13
3439.37
3119.74
2716.82
2483.66
2192.88
2025.07
1833.45
1733.08
1615.06
1553.46
1477.36
1432.77
1372.47
1326.55
1267.69
1214.95
1153.6
1097.04
1039.51
989.275
942.977
903.829
869.864
841.187
816.48
793.919
773.758
753.349
734.624
714.259
695.627
674.815
656.023
635.327
616.529
597.37
579.128
563.953
550.75
526.031
397.992
473.89
612.328
757.622
841.699
856.588
829.564
783.915
738.379
705.391
686.626
678.422
676.557
678.907
683.875
691.321
700.432
711.787
724.563
739.864
756.551
776.392
797.639
823.046
849.844
882.342
916.09
957.883
1000.54
1054.92
1109.45
1181.63
1252.59
1350.71
1445.89
1584.5
1718.39
1924.06
2125.54
2447.87
2761.25
3261.04
3709.8
4399.52
4903.06
5659.29
6097.97
7063.46
7895.77
9047.29
9986.33
8508.81
9834.12
6175.57
4240.8
4213.54
4616.88
4299.74
3995.07
3435.99
3118.59
2716.68
2483.86
2193.49
2026.01
1834.62
1734.32
1616.23
1554.48
1478.19
1433.41
1372.98
1326.98
1268.11
1215.39
1154.09
1097.6
1040.12
989.908
943.613
904.442
870.428
841.684
816.899
794.257
774.011
753.524
734.715
714.276
695.553
674.657
655.749
634.946
615.999
596.697
578.284
562.908
549.5
524.79
397.644
472.389
609.074
753.2
837.553
853.715
828.102
783.574
738.781
706.179
687.549
679.348
677.434
679.725
684.636
692.037
701.113
712.444
725.206
740.502
757.19
777.042
798.305
823.736
850.562
883.1
916.891
958.74
1001.46
1055.91
1110.53
1182.82
1253.91
1352.19
1447.56
1586.43
1720.61
1926.64
2128.46
2451.13
2764.73
3264.68
3713.47
4403.19
4907.22
5664.28
6104.72
7068.8
7898.44
9036.84
9963.95
8469.33
9754.38
6129.45
4222.81
4198.72
4599.9
4286.91
3987.13
3432.03
3117.02
2716.23
2483.81
2193.9
2026.79
1835.66
1735.46
1617.31
1555.42
1478.96
1434
1373.45
1327.37
1268.47
1215.78
1154.55
1098.12
1040.69
990.513
944.223
905.033
870.972
842.164
817.303
794.581
774.253
753.688
734.798
714.285
695.471
674.493
655.469
634.561
615.466
596.023
577.441
561.868
548.262
523.562
397.3
470.907
605.856
748.825
833.451
850.878
826.662
783.245
739.185
706.964
688.467
680.269
678.307
680.538
685.393
692.748
701.789
713.097
725.844
741.135
757.824
777.686
798.963
824.418
851.272
883.848
917.681
959.586
1002.36
1056.89
1111.59
1183.99
1255.2
1353.64
1449.21
1588.33
1722.8
1929.18
2131.32
2454.32
2768.12
3268.22
3717.02
4406.74
4911.22
5669.07
6111.19
7073.79
7900.63
9025.88
9940.84
8428.82
9671.54
6080.56
4202.59
4181.79
4581.13
4272.8
3978.34
3427.5
3115.06
2715.48
2483.53
2194.11
2027.41
1836.58
1736.49
1618.31
1556.29
1479.66
1434.53
1373.85
1327.72
1268.8
1216.14
1154.97
1098.61
1041.23
991.089
944.807
905.601
871.496
842.625
817.691
794.892
774.482
753.841
734.87
714.285
695.382
674.322
655.183
634.171
614.931
595.346
576.599
560.833
547.032
522.344
396.96
469.443
602.674
744.495
829.394
848.075
825.245
782.926
739.59
707.746
689.38
681.185
679.175
681.346
686.146
693.455
702.461
713.745
726.476
741.762
758.452
778.323
799.614
825.092
851.973
884.587
918.461
960.42
1003.25
1057.86
1112.63
1185.13
1256.46
1355.07
1450.82
1590.2
1724.94
1931.66
2134.11
2457.44
2771.44
3271.67
3720.46
4410.15
4915.04
5673.64
6117.36
7078.42
7902.35
9014.42
9917.02
8387.32
9585.64
6028.84
4180.06
4162.72
4560.59
4257.44
3968.7
3422.4
3112.7
2714.44
2483.01
2194.14
2027.88
1837.36
1737.42
1619.22
1557.09
1480.3
1434.99
1374.21
1328.01
1269.08
1216.46
1155.35
1099.06
1041.74
991.636
945.364
906.145
871.998
843.068
818.062
795.188
774.698
753.982
734.932
714.276
695.283
674.143
654.891
633.774
614.39
594.668
575.757
559.802
545.809
521.136
396.625
467.996
599.528
740.211
825.381
845.308
823.849
782.617
739.998
708.526
690.289
682.096
680.039
682.15
686.894
694.158
703.128
714.388
727.104
742.383
759.073
778.953
800.258
825.758
852.665
885.315
919.229
961.241
1004.13
1058.81
1113.66
1186.26
1257.71
1356.47
1452.41
1592.02
1727.03
1934.09
2136.85
2460.48
2774.66
3275.02
3723.78
4413.42
4918.68
5677.99
6123.24
7082.71
7903.59
9002.47
9892.54
8344.9
9496.76
5974.26
4155.15
4141.47
4538.28
4240.85
3958.25
3416.77
3109.96
2713.11
2482.26
2193.98
2028.19
1838.02
1738.25
1620.04
1557.81
1480.87
1435.4
1374.5
1328.25
1269.31
1216.74
1155.7
1099.49
1042.22
992.153
945.894
906.665
872.479
843.493
818.417
795.469
774.901
754.112
734.983
714.257
695.177
673.956
654.591
633.372
613.846
593.986
574.915
558.773
544.593
519.935
396.294
466.567
596.417
735.973
821.411
842.575
822.476
782.319
740.407
709.302
691.193
683.003
680.897
682.948
687.637
694.855
703.79
715.026
727.725
742.998
759.688
779.576
800.894
826.415
853.348
886.033
919.986
962.049
1004.99
1059.74
1114.67
1187.37
1258.93
1357.84
1453.96
1593.81
1729.09
1936.46
2139.52
2463.45
2777.8
3278.26
3726.98
4416.54
4922.15
5682.13
6128.82
7086.65
7904.39
8990.08
9867.42
8301.6
9404.98
5916.81
4127.81
4118.02
4514.23
4223.07
3947.01
3410.62
3106.85
2711.5
2481.29
2193.63
2028.34
1838.56
1738.97
1620.78
1558.46
1481.38
1435.75
1374.75
1328.44
1269.51
1216.98
1156.01
1099.87
1042.67
992.639
946.396
907.16
872.939
843.898
818.755
795.736
775.091
754.23
735.024
714.228
695.06
673.76
654.284
632.963
613.296
593.3
574.071
557.746
543.383
518.742
395.967
465.155
593.34
731.778
817.485
839.876
821.125
782.031
740.818
710.075
692.093
683.904
681.75
683.742
688.376
695.548
704.447
715.658
728.341
743.607
760.296
780.192
801.522
827.064
854.02
886.74
920.73
962.843
1005.84
1060.66
1115.66
1188.45
1260.12
1359.19
1455.48
1595.56
1731.09
1938.78
2142.12
2466.34
2780.84
3281.39
3730.05
4419.53
4925.44
5686.06
6134.12
7090.25
7904.74
8977.25
9841.72
8257.5
9310.41
5856.49
4097.99
4092.37
4488.45
4204.13
3935.01
3403.96
3103.38
2709.62
2480.1
2193.11
2028.36
1838.97
1739.59
1621.44
1559.04
1481.83
1436.04
1374.93
1328.58
1269.65
1217.18
1156.28
1100.22
1043.08
993.096
946.871
907.63
873.376
844.284
819.076
795.987
775.267
754.335
735.053
714.189
694.935
673.556
653.969
632.546
612.74
592.61
573.225
556.72
542.177
517.556
395.645
463.76
590.297
727.628
813.602
837.211
819.796
781.753
741.23
710.846
692.988
684.8
682.598
684.531
689.109
696.236
705.099
716.285
728.951
744.21
760.898
780.801
802.142
827.704
854.683
887.436
921.462
963.624
1006.67
1061.56
1116.63
1189.52
1261.29
1360.5
1456.96
1597.27
1733.05
1941.05
2144.66
2469.15
2783.79
3284.42
3733
4422.37
4928.55
5689.78
6139.14
7093.53
7904.67
8964.03
9815.46
8212.67
9213.17
5793.32
4065.66
4064.51
4461
4184.08
3922.3
3396.83
3099.58
2707.48
2478.71
2192.42
2028.23
1839.27
1740.11
1622.01
1559.55
1482.21
1436.27
1375.07
1328.68
1269.75
1217.34
1156.51
1100.54
1043.46
993.523
947.318
908.076
873.792
844.65
819.38
796.224
775.43
754.429
735.072
714.139
694.8
673.343
653.647
632.123
612.179
591.916
572.377
555.694
540.974
516.374
395.326
462.381
587.287
723.521
809.762
834.58
818.488
781.486
741.645
711.614
693.878
685.69
683.441
685.315
689.837
696.919
705.746
716.906
729.556
744.806
761.492
781.402
802.753
828.335
855.336
888.121
922.182
964.391
1007.49
1062.44
1117.57
1190.55
1262.43
1361.78
1458.41
1598.94
1734.96
1943.25
2147.13
2471.89
2786.65
3287.33
3735.82
4425.07
4931.49
5693.28
6143.87
7096.49
7904.19
8950.43
9788.71
8167.18
9113.42
5727.36
4030.81
4034.47
4431.9
4162.96
3908.9
3389.24
3095.46
2705.09
2477.12
2191.57
2027.96
1839.45
1740.54
1622.5
1559.99
1482.53
1436.44
1375.15
1328.72
1269.81
1217.46
1156.71
1100.83
1043.81
993.919
947.738
908.497
874.187
844.998
819.667
796.445
775.579
754.51
735.079
714.08
694.656
673.121
653.316
631.692
611.611
591.216
571.526
554.668
539.774
515.196
395.012
461.019
584.31
719.457
805.963
831.983
817.202
781.228
742.061
712.378
694.763
686.576
684.279
686.094
690.561
697.596
706.387
717.522
730.154
745.396
762.08
781.995
803.356
828.956
855.979
888.794
922.889
965.143
1008.29
1063.3
1118.5
1191.57
1263.55
1363.04
1459.83
1600.57
1736.82
1945.4
2149.53
2474.54
2789.41
3290.14
3738.51
4427.62
4934.25
5696.59
6148.33
7099.14
7903.31
8936.48
9761.51
8121.1
9011.31
5658.65
3993.45
4002.27
4401.22
4140.83
3894.86
3381.24
3091.03
2702.47
2475.35
2190.56
2027.56
1839.52
1740.87
1622.92
1560.36
1482.79
1436.56
1375.19
1328.73
1269.83
1217.54
1156.87
1101.08
1044.13
994.286
948.131
908.895
874.56
845.327
819.937
796.652
775.716
754.58
735.076
714.01
694.502
672.89
652.977
631.253
611.037
590.511
570.671
553.64
538.575
514.022
394.701
459.673
581.366
715.436
802.207
829.418
815.937
780.98
742.479
713.14
695.643
687.455
685.111
686.868
691.279
698.268
707.023
718.132
730.746
745.98
762.66
782.581
803.951
829.568
856.611
889.456
923.583
965.881
1009.07
1064.14
1119.41
1192.56
1264.64
1364.26
1461.21
1602.16
1738.63
1947.49
2151.86
2477.11
2792.08
3292.84
3741.08
4430.04
4936.83
5699.69
6152.53
7101.49
7902.07
8922.22
9733.91
8074.51
8907.01
5587.27
3953.57
3967.94
4369.02
4117.75
3880.22
3372.83
3086.31
2699.63
2473.4
2189.4
2027.04
1839.49
1741.11
1623.25
1560.67
1482.99
1436.63
1375.17
1328.69
1269.81
1217.58
1157
1101.29
1044.42
994.624
948.497
909.268
874.911
845.637
820.191
796.843
775.839
754.637
735.061
713.93
694.339
672.65
652.63
630.807
610.456
589.799
569.812
552.61
537.378
512.85
394.394
458.343
578.454
711.457
798.493
826.887
814.693
780.743
742.898
713.898
696.518
688.33
685.938
687.636
691.991
698.935
707.653
718.736
731.332
746.557
763.234
783.159
804.537
830.17
857.232
890.106
924.264
966.605
1009.84
1064.97
1120.3
1193.53
1265.7
1365.46
1462.55
1603.7
1740.4
1949.52
2154.12
2479.6
2794.65
3295.43
3743.52
4432.31
4939.25
5702.59
6156.47
7103.55
7900.47
8907.68
9705.94
8027.5
8800.72
5513.31
3911.21
3931.54
4335.36
4093.78
3865.03
3364.06
3081.33
2696.58
2471.29
2188.1
2026.4
1839.35
1741.27
1623.52
1560.91
1483.13
1436.65
1375.11
1328.6
1269.75
1217.59
1157.09
1101.48
1044.67
994.934
948.836
909.617
875.242
845.929
820.428
797.021
775.948
754.683
735.035
713.84
694.166
672.401
652.274
630.352
609.868
589.082
568.949
551.579
536.181
511.68
394.092
457.028
575.574
707.52
794.819
824.388
813.47
780.515
743.318
714.653
697.388
689.199
686.759
688.398
692.699
699.596
708.278
719.335
731.912
747.127
763.799
783.728
805.114
830.763
857.843
890.744
924.932
967.314
1010.59
1065.78
1121.17
1194.48
1266.74
1366.62
1463.86
1605.21
1742.11
1951.5
2156.32
2482.01
2797.13
3297.92
3745.84
4434.44
4941.5
5705.31
6160.16
7105.34
7898.53
8892.89
9677.68
7980.15
8692.63
5436.89
3866.42
3893.12
4300.32
4068.97
3849.32
3354.94
3076.1
2693.34
2469.03
2186.68
2025.64
1839.13
1741.35
1623.71
1561.09
1483.22
1436.62
1375.01
1328.48
1269.65
1217.56
1157.15
1101.63
1044.9
995.215
949.15
909.943
875.552
846.202
820.65
797.184
776.046
754.717
734.999
713.74
693.984
672.143
651.91
629.89
609.274
588.359
568.081
550.545
534.984
510.511
393.793
455.73
572.726
703.625
791.187
821.922
812.268
780.296
743.741
715.405
698.253
690.062
687.575
689.156
693.401
700.252
708.897
719.927
732.485
747.69
764.358
784.29
805.683
831.346
858.444
891.371
925.587
968.009
1011.33
1066.57
1122.01
1195.4
1267.74
1367.75
1465.14
1606.67
1743.78
1953.42
2158.44
2484.33
2799.51
3300.29
3748.03
4436.44
4943.59
5707.84
6163.61
7106.87
7896.29
8877.87
9649.16
7932.53
8582.96
5358.13
3819.23
3852.75
4263.97
4043.39
3833.14
3345.52
3070.65
2689.93
2466.62
2185.13
2024.79
1838.81
1741.35
1623.84
1561.22
1483.26
1436.55
1374.86
1328.31
1269.51
1217.49
1157.18
1101.75
1045.09
995.468
949.438
910.247
875.842
846.458
820.855
797.333
776.13
754.74
734.953
713.63
693.793
671.876
651.538
629.42
608.673
587.63
567.209
549.508
533.787
509.343
393.497
454.446
569.909
699.771
787.595
819.488
811.086
780.087
744.164
716.154
699.113
690.92
688.385
689.907
694.097
700.902
709.51
720.513
733.052
748.246
764.909
784.843
806.242
831.92
859.034
891.986
926.229
968.689
1012.05
1067.34
1122.84
1196.3
1268.73
1368.85
1466.37
1608.09
1745.4
1955.28
2160.5
2486.58
2801.81
3302.57
3750.11
4438.3
4945.52
5710.19
6166.83
7108.15
7893.75
8862.67
9620.43
7884.74
8471.93
5277.16
3769.73
3810.51
4226.41
4017.12
3816.55
3335.83
3064.99
2686.34
2464.09
2183.47
2023.84
1838.4
1741.27
1623.91
1561.29
1483.25
1436.43
1374.67
1328.11
1269.34
1217.4
1157.17
1101.85
1045.26
995.695
949.702
910.529
876.113
846.696
821.045
797.468
776.203
754.751
734.896
713.511
693.593
671.601
651.158
628.943
608.064
586.894
566.333
548.468
532.589
508.176
393.206
453.178
567.123
695.957
784.043
817.085
809.924
779.888
744.589
716.9
699.967
691.772
689.19
690.653
694.788
701.547
710.117
721.093
733.612
748.795
765.452
785.389
806.793
832.483
859.613
892.589
926.857
969.354
1012.75
1068.1
1123.64
1197.18
1269.68
1369.92
1467.58
1609.48
1746.97
1957.08
2162.5
2488.76
2804.01
3304.73
3752.07
4440.04
4947.29
5712.37
6169.83
7109.2
7890.95
8847.31
9591.55
7836.84
8359.76
5194.14
3717.99
3766.49
4187.72
3990.23
3799.59
3325.89
3059.15
2682.62
2461.44
2181.71
2022.79
1837.92
1741.13
1623.91
1561.31
1483.2
1436.26
1374.44
1327.88
1269.14
1217.27
1157.14
1101.91
1045.4
995.897
949.942
910.789
876.364
846.918
821.221
797.59
776.263
754.752
734.829
713.382
693.384
671.317
650.77
628.457
607.45
586.153
565.451
547.425
531.389
507.008
392.918
451.925
564.367
692.185
780.531
814.714
808.782
779.697
745.015
717.642
700.816
692.618
689.988
691.394
695.473
702.185
710.719
721.667
734.166
749.337
765.988
785.926
807.335
833.038
860.181
893.18
927.473
970.005
1013.44
1068.83
1124.43
1198.03
1270.61
1370.96
1468.75
1610.82
1748.49
1958.83
2164.42
2490.85
2806.12
3306.8
3753.91
4441.65
4948.93
5714.39
6172.62
7110.03
7887.89
8831.83
9562.57
7788.93
8246.69
5109.24
3664.11
3720.79
4148
3962.78
3782.3
3315.74
3053.15
2678.76
2458.68
2179.86
2021.67
1837.36
1740.92
1623.86
1561.28
1483.1
1436.06
1374.18
1327.61
1268.9
1217.11
1157.07
1101.94
1045.52
996.073
950.159
911.028
876.598
847.124
821.382
797.7
776.312
754.743
734.753
713.244
693.166
671.025
650.375
627.965
606.829
585.405
564.565
546.38
530.189
505.84
392.634
450.687
561.642
688.452
777.06
812.374
807.659
779.515
745.442
718.38
701.66
693.458
690.781
692.128
696.152
702.818
711.314
722.235
734.713
749.873
766.517
786.455
807.868
833.582
860.739
893.76
928.076
970.642
1014.11
1069.55
1125.19
1198.86
1271.51
1371.97
1469.88
1612.12
1749.97
1960.52
2166.29
2492.87
2808.15
3308.77
3755.65
4443.14
4950.42
5716.25
6175.21
7110.65
7884.62
8816.25
9533.53
7741.09
8132.96
5022.62
3608.19
3673.52
4107.36
3934.86
3764.75
3305.4
3047
2674.78
2455.83
2177.92
2020.47
1836.74
1740.65
1623.75
1561.2
1482.96
1435.83
1373.88
1327.31
1268.64
1216.93
1156.98
1101.95
1045.61
996.226
950.354
911.248
876.813
847.314
821.529
797.797
776.351
754.723
734.668
713.098
692.941
670.726
649.972
627.465
606.201
584.652
563.675
545.331
528.988
504.672
392.353
449.463
558.948
684.76
773.627
810.065
806.556
779.343
745.869
719.115
702.499
694.293
691.567
692.857
696.826
703.446
711.904
722.796
735.254
750.401
767.038
786.976
808.393
834.117
861.286
894.328
928.666
971.264
1014.76
1070.25
1125.94
1199.67
1272.39
1372.96
1470.98
1613.39
1751.4
1962.17
2168.09
2494.82
2810.09
3310.65
3757.28
4444.52
4951.78
5717.96
6177.62
7111.08
7881.14
8800.61
9504.49
7693.39
8018.8
4934.48
3550.34
3624.79
4065.89
3906.53
3746.97
3294.92
3040.74
2670.71
2452.9
2175.91
2019.21
1836.06
1740.33
1623.6
1561.08
1482.78
1435.56
1373.56
1326.98
1268.35
1216.71
1156.87
1101.94
1045.67
996.356
950.528
911.448
877.012
847.489
821.663
797.883
776.378
754.694
734.573
712.943
692.708
670.419
649.563
626.959
605.568
583.893
562.78
544.279
527.785
503.503
392.076
448.254
556.283
681.107
770.233
807.786
805.471
779.178
746.298
719.846
703.331
695.121
692.348
693.58
697.494
704.067
712.487
723.351
735.788
750.923
767.552
787.49
808.908
834.643
861.823
894.885
929.243
971.873
1015.4
1070.93
1126.66
1200.46
1273.25
1373.91
1472.05
1614.61
1752.79
1963.75
2169.83
2496.69
2811.96
3312.43
3758.8
4445.78
4953.01
5719.53
6179.85
7111.33
7877.48
8784.94
9475.48
7645.91
7904.46
4845.01
3490.71
3574.73
4023.71
3877.87
3729.02
3284.32
3034.38
2666.55
2449.91
2173.84
2017.89
1835.32
1739.96
1623.4
1560.92
1482.57
1435.26
1373.2
1326.62
1268.03
1216.48
1156.73
1101.9
1045.72
996.465
950.682
911.631
877.195
847.65
821.785
797.957
776.396
754.656
734.471
712.781
692.467
670.104
649.147
626.446
604.929
583.129
561.881
543.224
526.581
502.334
391.802
447.06
553.649
677.495
766.879
805.538
804.406
779.022
746.727
720.573
704.158
695.943
693.123
694.296
698.155
704.682
713.064
723.9
736.316
751.437
768.058
787.995
809.415
835.159
862.35
895.43
929.808
972.468
1016.03
1071.6
1127.37
1201.22
1274.07
1374.84
1473.09
1615.8
1754.14
1965.29
2171.51
2498.5
2813.74
3314.12
3760.23
4446.94
4954.12
5720.97
6181.92
7111.42
7873.66
8769.26
9446.56
7598.73
7790.17
4754.41
3429.43
3523.46
3980.93
3848.95
3710.94
3273.63
3027.94
2662.32
2446.86
2171.72
2016.52
1834.54
1739.54
1623.16
1560.73
1482.33
1434.93
1372.82
1326.25
1267.7
1216.22
1156.56
1101.84
1045.74
996.554
950.817
911.796
877.362
847.798
821.894
798.022
776.405
754.61
734.361
712.611
692.22
669.784
648.724
625.927
604.284
582.36
560.978
542.167
525.376
501.164
391.532
445.88
551.044
673.921
763.563
803.319
803.359
778.874
747.156
721.297
704.98
696.759
693.891
695.007
698.811
705.291
713.636
724.443
736.837
751.945
768.557
788.492
809.914
835.666
862.867
895.965
930.361
973.049
1016.64
1072.25
1128.06
1201.96
1274.88
1375.74
1474.1
1616.96
1755.44
1966.78
2173.13
2500.24
2815.45
3315.73
3761.57
4448.01
4955.12
5722.29
6183.83
7111.37
7869.71
8753.61
9417.77
7551.92
7676.17
4662.89
3366.64
3471.13
3937.65
3819.86
3692.79
3262.88
3021.44
2658.04
2443.76
2169.55
2015.1
1833.71
1739.08
1622.88
1560.5
1482.06
1434.58
1372.42
1325.85
1267.34
1215.94
1156.38
1101.76
1045.74
996.623
950.934
911.946
877.516
847.933
821.993
798.076
776.404
754.556
734.243
712.434
691.966
669.456
648.296
625.403
603.635
581.587
560.073
541.108
524.171
499.995
391.266
444.715
548.468
670.387
760.285
801.13
802.33
778.734
747.586
722.016
705.795
697.568
694.653
695.712
699.461
705.895
714.201
724.979
737.352
752.446
769.049
788.982
810.404
836.164
863.374
896.488
930.902
973.617
1017.23
1072.88
1128.73
1202.69
1275.66
1376.61
1475.08
1618.08
1756.71
1968.22
2174.7
2501.92
2817.09
3317.26
3762.82
4448.97
4956.01
5723.5
6185.61
7111.18
7865.64
8738.01
9389.15
7505.55
7562.69
4570.66
3302.51
3417.88
3894
3790.66
3674.6
3252.11
3014.91
2653.72
2440.64
2167.35
2013.66
1832.84
1738.59
1622.58
1560.24
1481.76
1434.2
1372
1325.43
1266.96
1215.64
1156.18
1101.66
1045.73
996.675
951.035
912.08
877.655
848.056
822.081
798.121
776.396
754.494
734.119
712.251
691.706
669.124
647.863
624.874
602.982
580.809
559.164
540.047
522.965
498.825
391.002
443.564
545.922
666.892
757.045
798.97
801.32
778.602
748.016
722.731
706.605
698.371
695.409
696.41
700.105
706.492
714.76
725.51
737.86
752.939
769.533
789.463
810.886
836.652
863.871
897.002
931.432
974.172
1017.81
1073.5
1129.38
1203.39
1276.42
1377.46
1476.03
1619.16
1757.94
1969.62
2176.22
2503.54
2818.65
3318.71
3763.99
4449.86
4956.81
5724.6
6187.26
7110.87
7861.47
8722.49
9360.75
7459.68
7449.96
4477.94
3237.2
3363.84
3850.08
3761.43
3656.42
3241.34
3008.36
2649.37
2437.49
2165.13
2012.18
1831.95
1738.06
1622.24
1559.96
1481.44
1433.81
1371.56
1325
1266.56
1215.33
1155.96
1101.55
1045.69
996.711
951.12
912.2
877.782
848.168
822.159
798.157
776.38
754.425
733.988
712.062
691.44
668.785
647.425
624.34
602.324
580.028
558.252
538.985
521.759
497.655
390.743
442.427
543.406
663.435
753.843
796.839
800.327
778.477
748.446
723.442
707.408
699.168
696.158
697.102
700.743
707.083
715.313
726.034
738.361
753.427
770.01
789.938
811.36
837.133
864.359
897.504
931.95
974.715
1018.38
1074.1
1130.02
1204.07
1277.16
1378.29
1476.95
1620.22
1759.12
1970.97
2177.68
2505.09
2820.16
3320.09
3765.08
4450.66
4957.52
5725.61
6188.8
7110.46
7857.23
8707.07
9332.59
7414.37
7338.19
4384.94
3170.88
3309.18
3806
3732.23
3638.29
3230.59
3001.81
2645.02
2434.33
2162.89
2010.68
1831.03
1737.51
1621.87
1559.66
1481.1
1433.4
1371.1
1324.55
1266.16
1215
1155.72
1101.42
1045.65
996.732
951.191
912.307
877.898
848.269
822.228
798.185
776.357
754.35
733.852
711.868
691.17
668.442
646.982
623.801
601.663
579.244
557.339
537.922
520.553
496.487
390.486
441.304
540.918
660.017
750.679
794.737
799.351
778.359
748.876
724.149
708.206
699.958
696.901
697.788
701.374
707.669
715.86
726.551
738.857
753.907
770.481
790.404
811.826
837.604
864.837
897.997
932.457
975.246
1018.93
1074.69
1130.63
1204.74
1277.88
1379.09
1477.85
1621.24
1760.28
1972.28
2179.1
2506.6
2821.6
3321.4
3766.09
4451.38
4958.15
5726.53
6190.23
7109.96
7852.93
8691.78
9304.72
7369.69
7227.59
4291.89
3103.73
3254.04
3761.88
3703.14
3620.27
3219.91
2995.28
2640.66
2431.18
2160.64
2009.18
1830.1
1736.94
1621.49
1559.34
1480.74
1432.98
1370.63
1324.09
1265.73
1214.66
1155.48
1101.27
1045.59
996.739
951.249
912.401
878.003
848.362
822.289
798.207
776.327
754.27
733.71
711.669
690.895
668.095
646.536
623.26
600.999
578.458
556.424
536.858
519.349
495.319
390.233
440.194
538.459
656.638
747.552
792.664
798.393
778.249
749.306
724.852
708.997
700.742
697.638
698.468
702
708.248
716.401
727.063
739.346
754.381
770.944
790.864
812.284
838.067
865.307
898.48
932.953
975.765
1019.47
1075.26
1131.24
1205.39
1278.58
1379.87
1478.72
1622.24
1761.4
1973.55
2180.48
2508.05
2822.98
3322.65
3767.05
4452.04
4958.71
5727.38
6191.56
7109.38
7848.6
8676.64
9277.17
7325.69
7118.36
4198.98
3035.93
3198.57
3717.82
3674.21
3602.38
3209.3
2988.78
2636.32
2428.04
2158.39
2007.66
1829.15
1736.36
1621.09
1559
1480.38
1432.54
1370.16
1323.62
1265.3
1214.3
1155.22
1101.11
1045.51
996.733
951.295
912.485
878.098
848.446
822.343
798.221
776.292
754.184
733.564
711.465
690.616
667.744
646.087
622.715
600.333
577.67
555.508
535.795
518.145
494.153
389.983
439.099
536.03
653.297
744.462
790.618
797.451
778.145
749.735
725.549
709.783
701.519
698.368
699.142
702.619
708.821
716.936
727.569
739.828
754.849
771.4
791.316
812.734
838.522
865.767
898.953
933.439
976.272
1020
1075.82
1131.82
1206.02
1279.26
1380.62
1479.56
1623.21
1762.49
1974.79
2181.81
2509.45
2824.31
3323.83
3767.94
4452.63
4959.2
5728.16
6192.82
7108.74
7844.25
8661.67
9249.97
7282.42
7010.69
4106.45
2967.67
3142.93
3673.93
3645.52
3584.66
3198.79
2982.34
2632.01
2424.91
2156.15
2006.15
1828.2
1735.76
1620.68
1558.65
1480
1432.1
1369.67
1323.15
1264.87
1213.94
1154.95
1100.95
1045.43
996.717
951.33
912.559
878.184
848.522
822.389
798.23
776.252
754.094
733.414
711.258
690.334
667.39
645.634
622.168
599.665
576.88
554.591
534.732
516.944
492.99
389.736
438.018
533.628
649.994
741.41
788.601
796.526
778.048
750.164
726.243
710.562
702.29
699.091
699.809
703.232
709.388
717.465
728.068
740.305
755.31
771.85
791.761
813.177
838.969
866.219
899.417
933.915
976.769
1020.52
1076.36
1132.4
1206.63
1279.92
1381.36
1480.39
1624.15
1763.55
1975.99
2183.1
2510.8
2825.59
3324.97
3768.77
4453.17
4959.63
5728.87
6194
7108.04
7839.89
8646.9
9223.15
7239.92
6904.74
4014.49
2899.12
3087.26
3630.31
3617.12
3567.15
3188.41
2975.96
2627.74
2421.82
2153.93
2004.64
1827.24
1735.16
1620.26
1558.29
1479.61
1431.66
1369.19
1322.67
1264.42
1213.57
1154.67
1100.77
1045.33
996.691
951.356
912.625
878.262
848.591
822.43
798.234
776.207
754
733.26
711.048
690.049
667.034
645.18
621.618
598.996
576.089
553.675
533.671
515.746
491.828
389.493
436.95
531.256
646.73
738.393
786.611
795.617
777.958
750.592
726.931
711.334
703.053
699.808
700.469
703.839
709.949
717.988
728.562
740.775
755.764
772.294
792.2
813.613
839.409
866.663
899.872
934.381
977.255
1021.02
1076.9
1132.96
1207.23
1280.56
1382.08
1481.19
1625.06
1764.58
1977.15
2184.35
2512.11
2826.82
3326.05
3769.56
4453.66
4960.02
5729.54
6195.13
7107.31
7835.55
8632.33
9196.74
7198.24
6800.69
3923.31
2830.48
3031.71
3587.07
3589.07
3549.88
3178.18
2969.67
2623.52
2418.77
2151.74
2003.14
1826.29
1734.55
1619.83
1557.93
1479.22
1431.21
1368.7
1322.18
1263.98
1213.2
1154.38
1100.58
1045.23
996.657
951.374
912.682
878.334
848.654
822.465
798.233
776.159
753.903
733.104
710.835
689.762
666.675
644.724
621.068
598.326
575.299
552.76
532.612
514.55
490.67
389.253
435.896
528.912
643.503
735.414
784.649
794.725
777.873
751.019
727.615
712.1
703.81
700.518
701.124
704.44
710.504
718.505
729.049
741.239
756.213
772.731
792.631
814.042
839.84
867.099
900.318
934.838
977.73
1021.51
1077.42
1133.5
1207.82
1281.19
1382.78
1481.97
1625.96
1765.58
1978.29
2185.57
2513.38
2828.01
3327.09
3770.3
4454.11
4960.36
5730.16
6196.2
7106.54
7831.23
8617.98
9170.75
7157.41
6698.68
3833.09
2761.92
2976.43
3544.28
3561.42
3532.89
3168.12
2963.47
2619.36
2415.76
2149.57
2001.66
1825.34
1733.94
1619.4
1557.56
1478.82
1430.76
1368.21
1321.7
1263.53
1212.82
1154.09
1100.39
1045.12
996.616
951.384
912.732
878.399
848.712
822.496
798.228
776.107
753.803
732.945
710.62
689.473
666.315
644.267
620.516
597.656
574.509
551.846
531.556
513.359
489.516
389.016
434.855
526.596
640.314
732.471
782.713
793.849
777.795
751.446
728.294
712.86
704.56
701.222
701.771
705.035
711.054
719.016
729.531
741.698
756.655
773.161
793.056
814.463
840.265
867.527
900.756
935.286
978.196
1022
1077.93
1134.04
1208.39
1281.8
1383.46
1482.73
1626.83
1766.56
1979.39
2186.75
2514.61
2829.17
3328.08
3771
4454.52
4960.66
5730.75
6197.24
7105.75
7826.96
8603.88
9145.23
7117.47
6598.84
3744.04
2693.64
2921.56
3502.04
3534.22
3516.19
3158.24
2957.38
2615.27
2412.81
2147.44
2000.21
1824.4
1733.34
1618.96
1557.19
1478.43
1430.31
1367.72
1321.22
1263.08
1212.44
1153.8
1100.2
1045
996.569
951.389
912.777
878.459
848.765
822.523
798.22
776.053
753.701
732.785
710.403
689.183
665.953
643.809
619.965
596.987
573.719
550.934
530.502
512.172
488.366
388.783
433.828
524.309
637.163
729.564
780.805
792.988
777.723
751.871
728.968
713.613
705.303
701.918
702.413
705.623
711.597
719.521
730.006
742.15
757.091
773.585
793.475
814.878
840.682
867.947
901.186
935.726
978.653
1022.47
1078.42
1134.56
1208.94
1282.4
1384.13
1483.48
1627.68
1767.51
1980.47
2187.9
2515.81
2830.28
3329.03
3771.66
4454.89
4960.93
5731.3
6198.24
7104.96
7822.75
8590.03
9120.17
7078.44
6501.29
3656.31
2625.81
2867.22
3460.44
3507.52
3499.83
3148.56
2951.41
2611.26
2409.91
2145.35
1998.78
1823.49
1732.74
1618.54
1556.83
1478.04
1429.87
1367.24
1320.74
1262.64
1212.06
1153.51
1100
1044.89
996.517
951.388
912.817
878.514
848.814
822.547
798.21
775.997
753.597
732.623
710.185
688.892
665.591
643.352
619.413
596.318
572.932
550.024
529.453
510.99
487.221
388.552
432.815
522.05
634.049
726.693
778.924
792.142
777.656
752.295
729.636
714.36
706.04
702.608
703.048
706.206
712.134
720.02
730.476
742.597
757.522
774.004
793.887
815.287
841.093
868.36
901.608
936.157