/*--------------------------------*- C++ -*----------------------------------*\
| =========                 |                                                 |
| \\      /  F ield         | OpenFOAM: The Open Source CFD Toolbox           |
|  \\    /   O peration     | Version:  2412                                  |
|   \\  /    A nd           | Website:  www.openfoam.com                      |
|    \\/     M anipulation  |                                                 |
\*---------------------------------------------------------------------------*/
FoamFile
{
    version     2.0;
    format      ascii;
    arch        "LSB;label=32;scalar=64";
    class       volScalarField;
    location    "0.3";
    object      k;
}
// * * * * * * * * * * * * * * * * * * * * * * * * * * * * * * * * * * * * * //

dimensions      [0 2 -2 0 0 0 0];

internalField   nonuniform List<scalar> 
13068
(
39.1306
44.1108
51.2095
56.7146
58.4131
57.4296
55.6001
53.8022
52.4117
51.5876
51.2208
51.1377
51.2065
51.3891
51.6465
51.9907
52.39
52.875
53.4064
54.0353
54.7057
55.4968
56.3235
57.3065
58.3143
59.5312
60.7528
62.2614
63.7401
65.6236
67.4231
69.8066
72.0166
75.079
77.8518
81.8979
85.5037
91.0388
95.9875
103.815
110.642
121.294
129.687
142.379
150.188
162.397
168.208
183.079
194.168
209.774
220.727
198.558
213.323
152.711
122.162
127.951
138.518
133.933
130.02
119.707
114.367
105.942
101.432
94.6916
91.1105
86.325
84.0809
80.9189
79.4823
77.3455
76.2082
74.4075
73.0931
71.2568
69.6302
67.6457
65.8319
63.9387
62.2902
60.7355
59.4161
58.2532
57.2578
56.3849
55.5642
54.8231
54.0436
53.3283
52.5194
51.7878
50.9396
50.1863
49.3299
48.5616
47.7716
47.0145
46.4239
45.8992
44.6742
39.1079
44.0274
51.0613
56.5506
58.2913
57.3718
55.5938
53.8263
52.45
51.6299
51.2619
51.1759
51.2416
51.4215
51.6766
52.019
52.4169
52.901
53.4318
54.0605
54.7308
55.5222
56.3494
57.333
58.3417
59.5597
60.7826
62.2927
63.7731
65.6586
67.4603
69.8466
72.0598
75.1262
77.9037
81.9555
85.5675
91.1091
96.0633
103.894
110.722
121.371
129.761
142.449
150.266
162.486
168.328
183.167
194.221
209.648
220.476
198.057
212.419
152.086
121.896
127.739
138.295
133.788
129.943
119.682
114.373
105.959
101.452
94.72
91.1452
86.3645
84.1204
80.9554
79.5138
77.3717
76.2292
74.4252
73.1087
71.2719
69.6463
67.6638
65.8523
63.9609
62.3136
60.759
59.4389
58.2741
57.2762
56.4005
55.5766
54.8323
54.0497
53.3311
52.5192
51.7837
50.9319
50.1732
49.3119
48.5364
47.7394
46.9738
46.373
45.8383
44.6146
39.0853
43.9445
50.9139
56.3875
58.1705
57.3149
55.5883
53.8508
52.4885
51.6723
51.3031
51.2142
51.2768
51.4539
51.7068
52.0474
52.444
52.9272
53.4574
54.0858
54.7561
55.5478
56.3754
57.3598
58.3692
59.5884
60.8125
62.3242
63.8062
65.6938
67.4976
69.8867
72.103
75.1734
77.9556
82.013
85.6313
91.1794
96.1389
103.973
110.802
121.448
129.835
142.518
150.344
162.574
168.446
183.252
194.271
209.517
220.218
197.544
211.48
151.429
121.602
127.5
138.051
133.627
129.855
119.649
114.373
105.972
101.468
94.7453
91.1774
86.4019
84.1583
80.9906
79.5444
77.397
76.2494
74.4422
73.1238
71.2866
69.6621
67.6815
65.8724
63.9828
62.3367
60.7824
59.4615
58.2949
57.2946
56.4159
55.589
54.8414
54.0559
53.334
52.5192
51.7797
50.9244
50.1604
49.2942
48.5115
47.7076
46.9335
46.3226
45.7782
44.5558
39.0628
43.8621
50.7674
56.2254
58.0506
57.2588
55.5832
53.8755
52.527
51.7147
51.3443
51.2525
51.3119
51.4863
51.7369
52.0758
52.471
52.9533
53.4829
54.1111
54.7813
55.5733
56.4013
57.3864
58.3966
59.6169
60.8422
62.3555
63.8391
65.7287
67.5347
69.9264
72.1459
75.2202
78.007
82.07
85.6944
91.2489
96.2136
104.051
110.881
121.525
129.908
142.586
150.42
162.661
168.56
183.334
194.315
209.381
219.952
197.016
210.506
150.737
121.275
127.231
137.784
133.45
129.756
119.608
114.367
105.98
101.48
94.767
91.2065
86.4368
84.1942
81.0241
79.5734
77.421
76.2682
74.458
73.1378
71.3003
69.6771
67.6985
65.8918
64.004
62.3591
60.8051
59.4836
58.3152
57.3125
56.431
55.6011
54.8503
54.0619
53.3367
52.5189
51.7756
50.9167
50.1474
49.2764
48.4867
47.6759
46.8935
46.2727
45.7186
44.4978
39.0406
43.7804
50.6219
56.0643
57.9316
57.2032
55.5783
53.9001
52.5653
51.7568
51.3852
51.2905
51.3469
51.5186
51.7669
52.104
52.4979
52.9793
53.5083
54.1362
54.8064
55.5986
56.427
57.4127
58.4238
59.6452
60.8716
62.3864
63.8716
65.7632
67.5713
69.9657
72.1882
75.2664
78.0577
82.1262
85.7566
91.3172
96.2871
104.127
110.958
121.599
129.979
142.652
150.494
162.744
168.671
183.411
194.353
209.239
219.677
196.473
209.495
150.006
120.915
126.932
137.494
133.256
129.645
119.559
114.354
105.982
101.487
94.7846
91.2321
86.4688
84.2276
81.0556
79.6006
77.4433
76.2856
74.4724
73.1506
71.3129
69.691
67.7146
65.9102
64.0243
62.3807
60.827
59.5049
58.3349
57.3299
56.4456
55.6128
54.8589
54.0675
53.3391
52.5185
51.7712
50.9089
50.1343
49.2585
48.4618
47.6442
46.8536
46.2231
45.6596
44.4402
39.0185
43.6994
50.4774
55.9042
57.8133
57.1482
55.5737
53.9247
52.6034
51.7987
51.426
51.3284
51.3817
51.5507
51.7967
52.1321
52.5247
53.0051
53.5334
54.1611
54.8312
55.6237
56.4524
57.4388
58.4506
59.6731
60.9007
62.417
63.9037
65.7972
67.6073
70.0043
72.2298
75.3118
78.1076
82.1814
85.8176
91.3844
96.3591
104.203
111.033
121.672
130.048
142.716
150.564
162.824
168.776
183.484
194.384
209.09
219.392
195.915
208.447
149.236
120.52
126.603
137.18
133.045
129.522
119.501
114.335
105.979
101.49
94.7981
91.2542
86.4978
84.2585
81.085
79.626
77.4639
76.3013
74.4853
73.1619
71.3243
69.7038
67.7296
65.9277
64.0437
62.4014
60.8481
59.5255
58.3539
57.3466
56.4596
55.624
54.867
54.0727
53.3412
52.5177
51.7666
50.9007
50.121
49.2404
48.4369
47.6125
46.8139
46.1737
45.601
44.3832
38.9967
43.619
50.3338
55.7451
57.6959
57.0937
55.5692
53.9492
52.6413
51.8404
51.4664
51.366
51.4163
51.5826
51.8264
52.1599
52.5512
53.0307
53.5584
54.1858
54.8558
55.6485
56.4776
57.4646
58.4771
59.7006
60.9293
62.4471
63.9353
65.8307
67.6428
70.0423
72.2707
75.3565
78.1566
82.2357
85.8775
91.4502
96.4296
104.276
111.106
121.742
130.114
142.777
150.632
162.901
168.877
183.551
194.409
208.934
219.099
195.344
207.362
148.425
120.087
126.241
136.842
132.817
129.388
119.434
114.309
105.97
101.488
94.8074
91.2728
86.5238
84.2869
81.1122
79.6495
77.4827
76.3154
74.4966
73.1719
71.3344
69.7155
67.7435
65.9442
64.062
62.4211
60.8683
59.5453
58.3722
57.3628
56.4731
55.6347
54.8747
54.0776
53.3429
52.5165
51.7617
50.8924
50.1075
49.2221
48.4118
47.5807
46.7741
46.1246
45.5427
44.3265
38.975
43.5392
50.1913
55.587
57.5792
57.0397
55.5649
53.9736
52.679
51.8817
51.5067
51.4033
51.4506
51.6142
51.8558
52.1876
52.5775
53.056
53.5831
54.2102
54.8802
55.673
56.5024
57.4901
58.5033
59.7278
60.9576
62.4768
63.9664
65.8636
67.6776
70.0797
72.3108
75.4002
78.2046
82.2888
85.9362
91.5146
96.4986
104.348
111.178
121.811
130.178
142.836
150.697
162.974
168.974
183.613
194.427
208.773
218.798
194.758
206.239
147.573
119.615
125.847
136.481
132.574
129.242
119.36
114.277
105.956
101.482
94.8128
91.288
86.5468
84.3128
81.1373
79.671
77.4998
76.3278
74.5064
73.1805
71.3432
69.7259
67.7563
65.9596
64.0794
62.4399
60.8876
59.5643
58.3898
57.3783
56.486
55.6449
54.8819
54.082
53.3442
52.515
51.7564
50.8837
50.0937
49.2036
48.3865
47.5488
46.7344
46.0755
45.4848
44.2702
38.9536
43.4601
50.0497
55.4298
57.4633
56.9862
55.5608
53.998
52.7165
51.9229
51.5466
51.4405
51.4848
51.6457
51.885
52.2151
52.6036
53.0812
53.6076
54.2344
54.9042
55.6973
56.527
57.5152
58.5291
59.7546
60.9854
62.506
63.997
65.896
67.7118
70.1163
72.3502
75.4432
78.2517
82.3408
85.9936
91.5776
96.5659
104.417
111.247
121.877
130.24
142.892
150.759
163.043
169.066
183.67
194.439
208.605
218.488
194.16
205.08
146.677
119.105
125.421
136.096
132.315
129.086
119.277
114.239
105.937
101.471
94.8141
91.2997
86.5668
84.3361
81.1601
79.6906
77.5151
76.3386
74.5147
73.1876
71.3507
69.7352
67.768
65.9739
64.0957
62.4577
60.906
59.5825
58.4066
57.3931
56.4984
55.6546
54.8886
54.086
53.3451
52.5132
51.7508
50.8747
50.0796
49.1848
48.361
47.5168
46.6946
46.0266
45.4271
44.2143
38.9324
43.3817
49.9091
55.2736
57.3482
56.9332
55.5569
54.0223
52.7537
51.9637
51.5863
51.4774
51.5187
51.6769
51.914
52.2423
52.6295
53.1061
53.6319
54.2583
54.928
55.7212
56.5512
57.54
58.5545
59.781
61.0128
62.5347
64.0271
65.9278
67.7454
70.1522
72.3887
75.4852
78.2977
82.3917
86.0497
91.6391
96.6315
104.485
111.315
121.941
130.299
142.946
150.817
163.11
169.153
183.722
194.444
208.432
218.171
193.549
203.885
145.738
118.554
124.962
135.689
132.041
128.919
119.186
114.195
105.913
101.455
94.8117
91.308
86.584
84.357
81.1809
79.7084
77.5286
76.3477
74.5214
73.1934
71.3569
69.7432
67.7785
65.9871
64.111
62.4744
60.9235
59.5998
58.4227
57.4072
56.5101
55.6637
54.8948
54.0895
53.3456
52.511
51.7449
50.8653
50.0652
49.1658
48.3353
47.4846
46.6548
45.9777
45.3695
44.1586
38.9113
43.3038
49.7694
55.1184
57.2339
56.8807
55.5531
54.0465
52.7908
52.0043
51.6258
51.514
51.5523
51.708
51.9428
52.2693
52.6551
53.1308
53.6559
54.282
54.9515
55.7449
56.5751
57.5645
58.5796
59.8069
61.0397
62.5629
64.0566
65.959
67.7783
70.1873
72.4264
75.5263
78.3427
82.4415
86.1045
91.6991
96.6954
104.552
111.38
122.003
130.356
142.997
150.873
163.173
169.235
183.769
194.444
208.253
217.846
192.927
202.656
144.756
117.962
124.47
135.259
131.752
128.741
119.089
114.145
105.884
101.436
94.8055
91.3132
86.5983
84.3754
81.1995
79.7243
77.5405
76.3553
74.5266
73.1977
71.3618
69.7501
67.7879
65.9992
64.1252
62.4902
60.9401
59.6163
58.438
57.4207
56.5212
55.6723
54.9006
54.0926
53.3457
52.5083
51.7386
50.8556
50.0505
49.1464
48.3094
47.4522
46.6148
45.9288
45.3122
44.1031
38.8905
43.2266
49.6307
54.964
57.1204
56.8287
55.5495
54.0706
52.8276
52.0447
51.6649
51.5504
51.5858
51.7387
51.9714
52.2961
52.6805
53.1552
53.6796
54.3054
54.9748
55.7682
56.5987
57.5885
58.6042
59.8324
61.0661
62.5905
64.0855
65.9895
67.8105
70.2217
72.4632
75.5664
78.3867
82.4901
86.1579
91.7576
96.7576
104.616
111.443
122.063
130.411
143.046
150.925
163.232
169.314
183.812
194.438
208.07
217.515
192.294
201.394
143.731
117.329
123.946
134.807
131.449
128.555
118.984
114.089
105.851
101.413
94.7956
91.3151
86.6098
84.3915
81.216
79.7383
77.5506
76.3613
74.5303
73.2007
71.3654
69.7557
67.7962
66.0103
64.1384
62.505
60.9557
59.632
58.4526
57.4335
56.5317
55.6803
54.9058
54.0953
53.3454
52.5053
51.7319
50.8456
50.0355
49.1268
48.2832
47.4196
46.5748
45.88
45.2549
44.0478
38.8698
43.15
49.4929
54.8107
57.0077
56.7773
55.5461
54.0947
52.8642
52.0847
51.7038
51.5865
51.619
51.7693
51.9997
52.3227
52.7057
53.1795
53.7032
54.3285
54.9977
55.7912
56.6219
57.6122
58.6285
59.8575
61.092
62.6177
64.1139
66.0195
67.842
70.2553
72.4992
75.6056
78.4296
82.5374
86.21
91.8146
96.8181
104.678
111.505
122.12
130.463
143.092
150.974
163.288
169.387
183.85
194.426
207.882
217.178
191.653
200.1
142.663
116.654
123.389
134.335
131.132
128.359
118.872
114.028
105.813
101.386
94.7824
91.3141
86.6186
84.4052
81.2305
79.7506
77.5591
76.3658
74.5326
73.2024
71.3678
69.7602
67.8033
66.0202
64.1505
62.5188
60.9704
59.6468
58.4664
57.4457
56.5416
55.6878
54.9106
54.0975
53.3446
52.5019
51.7249
50.8352
50.0201
49.1069
48.2568
47.3868
46.5346
45.831
45.1977
43.9926
38.8494
43.0741
49.356
54.6582
56.8957
56.7263
55.5429
54.1186
52.9006
52.1245
51.7425
51.6224
51.6519
51.7996
52.0279
52.3491
52.7307
53.2034
53.7264
54.3513
55.0203
55.8139
56.6448
57.6356
58.6523
59.8821
61.1175
62.6443
64.1416
66.0487
67.8728
70.2881
72.5344
75.6439
78.4714
82.5836
86.2607
91.87
96.8768
104.739
111.563
122.175
130.512
143.135
151.02
163.341
169.457
183.884
194.409
207.689
216.835
191.002
198.776
141.552
115.938
122.801
133.842
130.804
128.155
118.755
113.962
105.771
101.355
94.7658
91.3101
86.6249
84.4166
81.243
79.761
77.566
76.3687
74.5335
73.2028
71.369
69.7635
67.8093
66.0291
64.1616
62.5316
60.9842
59.6608
58.4795
57.4571
56.5509
55.6948
54.9149
54.0993
53.3435
52.4981
51.7175
50.8245
50.0044
49.0866
48.2301
47.3538
46.4942
45.782
45.1406
43.9375
38.8291
42.9987
49.22
54.5067
56.7845
56.6758
55.5399
54.1426
52.9368
52.1641
51.7809
51.6581
51.6846
51.8297
52.0558
52.3752
52.7554
53.2271
53.7494
54.3739
55.0427
55.8363
56.6673
57.6585
58.6757
59.9063
61.1425
62.6704
64.1688
66.0774
67.9029
70.3202
72.5686
75.6812
78.5121
82.6286
86.31
91.9239
96.9338
104.797
111.62
122.228
130.559
143.176
151.064
163.39
169.522
183.914
194.387
207.493
216.487
190.344
197.425
140.4
115.181
122.182
133.329
130.463
127.944
118.631
113.892
105.725
101.321
94.7461
91.3034
86.6286
84.4259
81.2536
79.7698
77.5713
76.3703
74.533
73.2019
71.369
69.7658
67.8143
66.037
64.1717
62.5435
60.997
59.6739
58.4918
57.468
56.5597
55.7012
54.9186
54.1006
53.3419
52.494
51.7097
50.8134
49.9884
49.066
48.2031
47.3204
46.4536
45.733
45.0835
43.8825
38.809
42.9239
49.085
54.3561
56.6741
56.6258
55.537
54.1664
52.9728
52.2034
51.819
51.6935
51.7171
51.8596
52.0834
52.4011
52.7799
53.2506
53.7721
54.3962
55.0647
55.8584
56.6895
57.6811
58.6987
59.9301
61.167
62.696
64.1955
66.1054
67.9323
70.3515
72.602
75.7175
78.5518
82.6723
86.3579
91.9762
96.989
104.854
111.675
122.279
130.604
143.215
151.104
163.437
169.583
183.939
194.36
207.293
216.134
189.68
196.047
139.207
114.383
121.533
132.799
130.112
127.725
118.503
113.817
105.675
101.284
94.7234
91.2941
86.63
84.4331
81.2623
79.777
77.5751
76.3704
74.5312
73.1998
71.3678
69.7669
67.8182
66.0438
64.1808
62.5544
61.009
59.6863
58.5035
57.4781
56.5678
55.7071
54.922
54.1014
53.34
52.4894
51.7015
50.8019
49.9721
49.0451
48.1758
47.2869
46.4129
45.6837
45.0263
43.8274
38.7891
42.8497
48.9508
54.2065
56.5644
56.5763
55.5343
54.1902
53.0086
52.2424
51.8568
51.7286
51.7493
51.8892
52.1108
52.4267
52.8041
53.2738
53.7945
54.4182
55.0865
55.8801
56.7113
57.7033
58.7213
59.9533
61.191
62.721
64.2215
66.1328
67.961
70.3819
72.6345
75.7528
78.5904
82.7149
86.4045
92.027
97.0425
104.908
111.728
122.328
130.646
143.251
151.141
163.48
169.641
183.961
194.329
207.091
215.778
189.01
194.646
137.976
113.546
120.855
132.251
129.751
127.499
118.369
113.739
105.621
101.244
94.698
91.2822
86.6291
84.4383
81.2693
79.7826
77.5775
76.3692
74.5281
73.1965
71.3655
69.7669
67.821
66.0497
64.1889
62.5644
61.0202
59.6979
58.5144
57.4876
56.5754
55.7125
54.9248
54.1019
53.3376
52.4844
51.693
50.7901
49.9554
49.0238
48.1482
47.253
46.3719
45.6344
44.9691
43.7724
38.7694
42.7762
48.8175
54.0578
56.4556
56.5273
55.5318
54.2139
53.0442
52.2811
51.8944
51.7634
51.7813
51.9186
52.138
52.4521
52.8281
53.2967
53.8167
54.4399
55.1079
55.9015
56.7328
57.7251
58.7435
59.9762
61.2144
62.7455
64.2469
66.1595
67.9889
70.4116
72.6662
75.7872
78.6279
82.7562
86.4497
92.0763
97.0942
104.961
111.778
122.374
130.685
143.284
151.176
163.521
169.694
183.979
194.294
206.885
215.419
188.337
193.223
136.706
112.669
120.15
131.687
129.38
127.268
118.231
113.656
105.565
101.201
94.6699
91.2681
86.626
84.4415
81.2745
79.7866
77.5785
76.3668
74.5238
73.1921
71.3621
69.7659
67.8228
66.0545
64.1961
62.5734
61.0304
59.7086
58.5246
57.4966
56.5824
55.7174
54.9272
54.1019
53.3348
52.4791
51.6842
50.7779
49.9384
49.0023
48.1203
47.2189
46.3308
45.5849
44.9119
43.7174
38.7498
42.7032
48.6852
53.91
56.3475
56.4788
55.5294
54.2375
53.0795
52.3196
51.9317
51.798
51.813
51.9478
52.1649
52.4773
52.8519
53.3194
53.8386
54.4613
55.129
55.9226
56.7539
57.7465
58.7653
59.9986
61.2375
62.7694
64.2717
66.1856
68.0162
70.4405
72.6969
75.8207
78.6643
82.7964
86.4936
92.124
97.1442
105.012
111.827
122.418
130.723
143.315
151.208
163.558
169.744
183.994
194.254
206.678
215.057
187.66
191.782
135.401
111.754
119.417
131.108
129.002
127.032
118.089
113.571
105.505
101.156
94.6395
91.2517
86.6209
84.4429
81.2781
79.7893
77.5781
76.3631
74.5184
73.1866
71.3577
69.7639
67.8237
66.0584
64.2024
62.5816
61.0398
59.7187
58.5341
57.5048
56.5888
55.7217
54.9291
54.1015
53.3316
52.4734
51.6749
50.7654
49.921
48.9804
48.0922
47.1845
46.2894
45.5353
44.8546
43.6624
38.7305
42.6308
48.5538
53.7631
56.2401
56.4308
55.5272
54.2611
53.1147
52.3578
51.9687
51.8324
51.8445
51.9767
52.1916
52.5022
52.8754
53.3419
53.8603
54.4825
55.1498
55.9433
56.7747
57.7676
58.7866
60.0205
61.26
62.7928
64.296
66.211
68.0428
70.4687
72.7269
75.8532
78.6997
82.8354
86.5361
92.1702
97.1926
105.061
111.873
122.46
130.758
143.344
151.237
163.593
169.791
184.005
194.211
206.468
214.693
186.981
190.324
134.063
110.803
118.66
130.516
128.616
126.791
117.943
113.482
105.443
101.108
94.6069
91.2334
86.6139
84.4426
81.2802
79.7905
77.5765
76.3583
74.5119
73.1801
71.3523
69.7609
67.8236
66.0614
64.2077
62.5889
61.0485
59.728
58.543
57.5126
56.5948
55.7257
54.9307
54.1007
53.3281
52.4673
51.6654
50.7525
49.9034
48.9581
48.0637
47.1498
46.2478
45.4855
44.7972
43.6073
38.7113
42.559
48.4232
53.6172
56.1336
56.3832
55.5252
54.2846
53.1496
52.3958
52.0054
51.8664
51.8757
52.0053
52.2181
52.5269
52.8986
53.364
53.8816
54.5033
55.1703
55.9638
56.7951
57.7882
58.8076
60.042
61.282
62.8157
64.3197
66.2358
68.0686
70.496
72.7559
75.8847
78.734
82.8732
86.5773
92.215
97.2393
105.109
111.918
122.5
130.791
143.371
151.264
163.626
169.834
184.013
194.164
206.257
214.328
186.301
188.854
132.692
109.817
117.879
129.912
128.224
126.546
117.795
113.39
105.379
101.059
94.5723
91.2132
86.6052
84.4408
81.2808
79.7905
77.5738
76.3524
74.5043
73.1727
71.346
69.7571
67.8226
66.0635
64.2122
62.5954
61.0563
59.7366
58.5513
57.5197
56.6002
55.7291
54.9317
54.0995
53.3242
52.4609
51.6555
50.7394
49.8854
48.9356
48.035
47.1148
46.2059
45.4355
44.7397
43.5521
38.6923
42.4877
48.2936
53.4723
56.0278
56.3361
55.5233
54.308
53.1843
52.4334
52.0418
51.9002
51.9067
52.0337
52.2443
52.5513
52.9216
53.3859
53.9027
54.5239
55.1905
55.9838
56.8152
57.8085
58.8281
60.063
61.3035
62.8381
64.3428
66.26
68.0938
70.5227
72.7842
75.9154
78.7674
82.9099
86.6173
92.2583
97.2844
105.154
111.96
122.538
130.822
143.396
151.289
163.655
169.874
184.018
194.115
206.045
213.962
185.622
187.373
131.293
108.797
117.077
129.297
127.827
126.298
117.644
113.297
105.312
101.007
94.5359
91.1914
86.5948
84.4374
81.28
79.7893
77.5699
76.3456
74.4959
73.1643
71.3388
69.7523
67.8208
66.0647
64.2159
62.6011
61.0634
59.7445
58.5589
57.5263
56.6051
55.7321
54.9324
54.098
53.32
52.4541
51.6452
50.7259
49.8671
48.9128
48.006
47.0796
46.1639
45.3854
44.6821
43.4969
38.6734
42.4171
48.1649
53.3282
55.9228
56.2895
55.5216
54.3313
53.2188
52.4708
52.078
51.9337
51.9374
52.0618
52.2703
52.5755
52.9443
53.4076
53.9235
54.5442
55.2104
56.0036
56.8349
57.8284
58.8482
60.0836
61.3246
62.8599
64.3653
66.2835
68.1183
70.5485
72.8116
75.9451
78.7997
82.9455
86.6559
92.3002
97.3279
105.198
112.001
122.574
130.851
143.418
151.311
163.683
169.912
184.021
194.063
205.833
213.596
184.944
185.884
129.866
107.746
116.254
128.673
127.426
126.048
117.49
113.201
105.244
100.955
94.4979
91.168
86.583
84.4327
81.278
79.7869
77.565
76.3378
74.4865
73.1552
71.3308
69.7468
67.8181
66.0652
64.2188
62.606
61.0698
59.7518
58.5659
57.5323
56.6095
55.7347
54.9327
54.0961
53.3154
52.4471
51.6347
50.7121
49.8486
48.8897
47.9768
47.0442
46.1216
45.3351
44.6244
43.4416
38.6548
42.347
48.0371
53.1852
55.8186
56.2434
55.52
54.3545
53.2531
52.5079
52.1139
51.967
51.9678
52.0897
52.296
52.5994
52.9668
53.429
53.944
54.5641
55.23
56.023
56.8543
57.8479
58.8679
60.1038
61.3452
62.8812
64.3873
66.3065
68.1421
70.5737
72.8382
75.974
78.8311
82.9799
86.6934
92.3408
97.3699
105.24
112.04
122.609
130.878
143.439
151.331
163.708
169.946
184.021
194.008
205.62
213.23
184.268
184.39
128.416
106.665
115.413
128.041
127.022
125.795
117.336
113.104
105.174
100.9
94.4586
91.1433
86.5698
84.4267
81.2749
79.7835
77.5592
76.3292
74.4763
73.1453
71.322
69.7405
67.8147
66.0649
64.221
62.6102
61.0755
59.7584
58.5724
57.5379
56.6135
55.7369
54.9327
54.0938
53.3105
52.4397
51.6239
50.698
49.8298
48.8663
47.9473
47.0085
46.0792
45.2847
44.5666
43.3862
38.6363
42.2776
47.9102
53.0431
55.7152
56.1977
55.5185
54.3776
53.2871
52.5448
52.1495
51.9999
51.998
52.1174
52.3214
52.6231
52.989
53.4501
53.9643
54.5838
55.2493
56.0422
56.8733
57.8671
58.8873
60.1235
61.3653
62.9021
64.4087
66.3288
68.1653
70.5981
72.864
76.002
78.8615
83.0134
86.7296
92.38
97.4105
105.281
112.077
122.641
130.903
143.458
151.349
163.732
169.978
184.019
193.951
205.407
212.865
183.596
182.895
126.944
105.558
114.557
127.403
126.615
125.542
117.18
113.006
105.103
100.845
94.418
91.1175
86.5554
84.4195
81.2706
79.7792
77.5526
76.3198
74.4655
73.1346
71.3125
69.7335
67.8106
66.064
64.2224
62.6138
61.0806
59.7645
58.5784
57.543
56.6171
55.7387
54.9323
54.0912
53.3053
52.432
51.6128
50.6836
49.8107
48.8427
47.9175
46.9726
46.0366
45.2342
44.5087
43.3308
38.618
42.2087
47.7842
52.9019
55.6125
56.1525
55.5172
54.4007
53.3209
52.5813
52.1848
52.0326
52.0279
52.1447
52.3466
52.6465
53.011
53.4709
53.9843
54.6032
55.2683
56.061
56.892
57.8859
58.9062
60.1428
61.385
62.9224
64.4296
66.3506
68.1878
70.6219
72.8891
76.0292
78.8909
83.0458
86.7647
92.4179
97.4496
105.32
112.113
122.672
130.927
143.475
151.365
163.753
170.008
184.015
193.893
205.195
212.502
182.929
181.4
125.454
104.426
113.686
126.76
126.207
125.288
117.023
112.906
105.031
100.789
94.3765
91.0906
86.54
84.4114
81.2654
79.774
77.5451
76.3098
74.4539
73.1234
71.3025
69.7259
67.8059
66.0623
64.2232
62.6167
61.0851
59.77
58.5838
57.5476
56.6203
55.7401
54.9315
54.0884
53.2998
52.4241
51.6015
50.669
49.7914
48.8188
47.8876
46.9365
45.9938
45.1835
44.4508
43.2753
38.5999
42.1404
47.6592
52.7617
55.5106
56.1078
55.5161
54.4236
53.3545
52.6176
52.2198
52.065
52.0575
52.1719
52.3716
52.6697
53.0327
53.4915
54.004
54.6224
55.287
56.0794
56.9103
57.9044
58.9248
60.1617
61.4043
62.9423
64.45
66.3718
68.2098
70.6449
72.9134
76.0555
78.9195
83.0772
86.7987
92.4546
97.4873
105.357
112.147
122.701
130.949
143.49
151.38
163.773
170.035
184.009
193.833
204.983
212.14
182.266
179.909
123.949
103.271
112.804
126.114
125.799
125.034
116.866
112.806
104.958
100.732
94.3343
91.063
86.5237
84.4023
81.2594
79.7681
77.537
76.2991
74.4418
73.1116
71.2918
69.7177
67.8005
66.0601
64.2235
62.619
61.089
59.7749
58.5888
57.5519
56.6231
55.7412
54.9305
54.0852
53.2941
52.4159
51.5899
50.6542
49.7719
48.7947
47.8575
46.9002
45.9509
45.1327
44.3928
43.2198
38.582
42.0727
47.5351
52.6225
55.4095
56.0635
55.5151
54.4465
53.3879
52.6536
52.2545
52.0971
52.0869
52.1987
52.3963
52.6926
53.0542
53.5119
54.0235
54.6412
55.3054
56.0976
56.9284
57.9225
58.943
60.1802
61.4231
62.9616
64.4699
66.3925
68.2311
70.6674
72.9371
76.0811
78.9473
83.1076
86.8317
92.4901
97.5237
105.393
112.18
122.728
130.969
143.505
151.393
163.791
170.061
184.002
193.771
204.773
211.781
181.61
178.425
122.431
102.097
111.911
125.466
125.391
124.78
116.709
112.706
104.885
100.675
94.2914
91.0346
86.5065
84.3924
81.2525
79.7614
77.5283
76.2879
74.4292
73.0993
71.2806
69.709
67.7946
66.0573
64.2231
62.6208
61.0923
59.7794
58.5934
57.5557
56.6255
55.742
54.9292
54.0818
53.2881
52.4075
51.5781
50.6391
49.7521
48.7704
47.8272
46.8637
45.9079
45.0819
44.3348
43.1643
38.5642
42.0056
47.4119
52.4843
55.3093
56.0197
55.5141
54.4692
53.421
52.6892
52.2889
52.1289
52.1159
52.2253
52.4207
52.7152
53.0754
53.532
54.0427
54.6598
55.3235
56.1155
56.9461
57.9402
58.9608
60.1984
61.4415
62.9806
64.4893
66.4127
68.2519
70.6891
72.96
76.106
78.9742
83.1372
86.8636
92.5245
97.5589
105.428
112.211
122.755
130.988
143.517
151.404
163.808
170.085
183.993
193.709
204.564
211.425
180.962
176.949
120.904
100.906
111.012
124.818
124.985
124.528
116.553
112.605
104.811
100.618
94.2481
91.0058
86.4888
84.3819
81.2451
79.7542
77.519
76.2763
74.4162
73.0867
71.269
69.6998
67.7882
66.054
64.2223
62.6221
61.0952
59.7835
58.5975
57.5592
56.6277
55.7425
54.9276
54.0782
53.2819
52.3989
51.5661
50.6238
49.7322
48.746
47.7967
46.8271
45.8647
45.031
44.2768
43.1087
38.5466
41.9391
47.2897
52.347
55.2097
55.9763
55.5134
54.4918
53.4539
52.7246
52.323
52.1605
52.1448
52.2516
52.4449
52.7377
53.0963
53.5518
54.0616
54.6781
55.3413
56.1331
56.9635
57.9577
58.9783
60.2161
61.4595
62.9991
64.5082
66.4323
68.2721
70.7103
72.9823
76.1301
79.0003
83.1659
86.8946
92.5578
97.5929
105.462
112.24
122.779
131.005
143.529
151.414
163.823
170.107
183.982
193.646
204.357
211.072
180.321
175.486
119.371
99.7003
110.107
124.172
124.582
124.278
116.397
112.505
104.738
100.561
94.2047
90.9766
86.4706
84.3708
81.237
79.7465
77.5093
76.2644
74.4028
73.0736
71.257
69.6902
67.7814
66.0503
64.2209
62.6229
61.0976
59.7871
58.6013
57.5623
56.6295
55.7428
54.9258
54.0744
53.2755
52.3901
51.5539
50.6084
49.7122
48.7214
47.7661
46.7904
45.8215
44.98
44.2188
43.0532
38.5292
41.8732
47.1684
52.2108
55.111
55.9334
55.5127
54.5144
53.4865
52.7597
52.3568
52.1917
52.1733
52.2777
52.4688
52.7598
53.117
53.5714
54.0803
54.6962
55.3589
56.1504
56.9806
57.9748
58.9954
60.2335
61.477
63.0172
64.5267
66.4514
68.2918
70.731
73.004
76.1536
79.0257
83.1937
86.9246
92.5901
97.6258
105.494
112.269
122.803
131.021
143.539
151.423
163.837
170.127
183.971
193.582
204.152
210.723
179.689
174.036
117.836
98.4839
109.199
123.528
124.181
124.029
116.243
112.405
104.664
100.504
94.1611
90.9472
86.4519
84.3593
81.2285
79.7384
77.4993
76.2521
74.3891
73.0603
71.2447
69.6802
67.7742
66.0461
64.2192
62.6232
61.0997
59.7903
58.6047
57.5651
56.631
55.7428
54.9238
54.0703
53.269
52.3811
51.5416
50.5928
49.692
48.6966
47.7354
46.7536
45.7782
44.9291
44.1608
42.9977
38.512
41.8079
47.0481
52.0756
55.0131
55.891
55.5121
54.5367
53.5189
52.7945
52.3903
52.2227
52.2016
52.3035
52.4925
52.7817
53.1375
53.5907
54.0987
54.714
55.3761
56.1674
56.9974
57.9916
59.0122
60.2505
61.4943
63.0348
64.5447
66.4701
68.311
70.751
73.025
76.1764
79.0504
83.2207
86.9537
92.6213
97.6576
105.525
112.296
122.825
131.036
143.548
151.43
163.85
170.147
183.959
193.518
203.949
210.378
179.067
172.603
116.3
97.2591
108.29
122.888
123.785
123.784
116.091
112.306
104.591
100.447
94.1178
90.9177
86.4331
84.3474
81.2196
79.7299
77.4889
76.2396
74.3752
73.0468
71.2322
69.67
67.7666
66.0416
64.2171
62.6233
61.1013
59.7932
58.6078
57.5677
56.6324
55.7426
54.9216
54.0661
53.2623
52.372
51.5291
50.5771
49.6717
48.6718
47.7047
46.7167
45.7349
44.8782
44.1029
42.9423
38.4949
41.7431
46.9287
51.9414
54.916
55.849
55.5117
54.559
53.551
52.829
52.4235
52.2534
52.2296
52.3291
52.5159
52.8034
53.1577
53.6098
54.1169
54.7315
55.3932
56.1841
57.0139
58.008
59.0287
60.2672
61.5111
63.0521
64.5623
66.4883
68.3296
70.7705
73.0455
76.1986
79.0744
83.247
86.9821
92.6517
97.6885
105.555
112.323
122.847
131.05
143.556
151.437
163.862
170.165
183.946
193.455
203.749
210.037
178.454
171.189
114.769
96.0291
107.383
122.253
123.393
123.542
115.94
112.209
104.519
100.391
94.0746
90.8883
86.4141
84.3352
81.2104
79.7212
77.4784
76.227
74.3612
73.0331
71.2194
69.6595
67.7588
66.0368
64.2147
62.6229
61.1027
59.7958
58.6107
57.57
56.6335
55.7422
54.9193
54.0618
53.2554
52.3628
51.5166
50.5613
49.6513
48.6468
47.6738
46.6798
45.6916
44.8273
44.0451
42.8869
38.478
41.679
46.8103
51.8082
54.8197
55.8074
55.5114
54.5812
53.5829
52.8632
52.4564
52.2837
52.2573
52.3543
52.5391
52.8248
53.1777
53.6286
54.1348
54.7488
55.4099
56.2006
57.0301
58.0242
59.0448
60.2835
61.5276
63.069
64.5795
66.5061
68.3479
70.7896
73.0655
76.2201
79.0977
83.2726
87.0096
92.6812
97.7184
105.584
112.348
122.867
131.063
143.564
151.443
163.874
170.183
183.933
193.391
203.551
209.702
177.853
169.795
113.243
94.7966
106.479
121.626
123.006
123.303
115.792
112.112
104.448
100.336
94.0319
90.8591
86.3951
84.323
81.2011
79.7123
77.4677
76.2143
74.3471
73.0193
71.2066
69.6488
67.7507
66.0317
64.212
62.6223
61.1037
59.7981
58.6133
57.5721
56.6344
55.7417
54.9168
54.0573
53.2485
52.3534
51.5039
50.5454
49.6308
48.6218
47.643
46.6428
45.6483
44.7764
43.9874
42.8317
38.4613
41.6155
46.6929
51.676
54.7242
55.7663
55.5111
54.6032
53.6145
52.8971
52.489
52.3138
52.2847
52.3794
52.562
52.846
53.1974
53.6472
54.1525
54.7658
55.4264
56.2168
57.046
58.0401
59.0607
60.2996
61.5437
63.0855
64.5963
66.5235
68.3656
70.8081
73.0849
76.2412
79.1205
83.2976
87.0364
92.7099
97.7474
105.613
112.372
122.886
131.076
143.57
151.449
163.884
170.199
183.919
193.328
203.357
209.371
177.263
168.425
111.727
93.5647
105.581
121.005
122.626
123.068
115.646
112.017
104.378
100.281
93.9898
90.8303
86.3762
84.3107
81.1916
79.7032
77.457
76.2015
74.333
73.0055
71.1936
69.638
67.7425
66.0264
64.2091
62.6215
61.1045
59.8002
58.6156
57.574
56.6351
55.741
54.9142
54.0528
53.2414
52.344
51.4912
50.5295
49.6103
48.5968
47.6121
46.6059
45.605
44.7257
43.9298
42.7766
38.4448
41.5525
46.5765
51.5449
54.6296
55.7257
55.511
54.6251
53.6458
52.9307
52.5213
52.3436
52.3118
52.4041
52.5847
52.8669
53.2169
53.6656
54.1699
54.7826
55.4427
56.2327
57.0617
58.0558
59.0762
60.3153
61.5596
63.1017
64.6128
66.5404
68.383
70.8262
73.1038
76.2617
79.1427
83.3219
87.0625
92.7378
97.7756
105.64
112.396
122.905
131.087
143.577
151.453
163.895
170.215
183.905
193.265
203.165
209.046
176.685
167.078
110.223
92.3363
104.69
120.394
122.252
122.838
115.503
111.923
104.309
100.228
93.9484
90.8018
86.3575
84.2984
81.1821
79.6942
77.4462
76.1889
74.319
72.9918
71.1806
69.6271
67.7341
66.021
64.206
62.6204
61.1051
59.8021
58.6178
57.5758
56.6358
55.7402
54.9115
54.0481
53.2343
52.3345
51.4784
50.5135
49.5898
48.5717
47.5813
46.569
45.5619
44.6752
43.8725
42.7217
38.4284
41.4902
46.461
51.4148
54.5357
55.6854
55.5109
54.6468
53.6769
52.9639
52.5533
52.3731
52.3387
52.4286
52.6071
52.8876
53.2361
53.6837
54.1871
54.7991
55.4587
56.2484
57.0771
58.0711
59.0915
60.3307
61.5751
63.1176
64.6288
66.557
68.3999
70.8439
73.1223
76.2817
79.1644
83.3456
87.088
92.7651
97.8031
105.666
112.419
122.923
131.098
143.582
151.458
163.904
170.231
183.891
193.204
202.978
208.727
176.119
165.758
108.735
91.1143
103.808
119.793
121.886
122.612
115.362
111.832
104.241
100.176
93.9078
90.774
86.3391
84.2862
81.1726
79.6852
77.4355
76.1763
74.3051
72.9781
71.1677
69.6162
67.7257
66.0154
64.2027
62.6192
61.1055
59.8037
58.6199
57.5774
56.6363
55.7393
54.9087
54.0434
53.2272
52.325
51.4656
50.4975
49.5692
48.5467
47.5505
46.5322
45.5188
44.6247
43.8153
42.6669
38.4122
41.4285
46.3466
51.2858
54.4427
55.6457
55.511
54.6684
53.7078
52.9969
52.5849
52.4023
52.3653
52.4528
52.6293
52.9081
53.2551
53.7016
54.2041
54.8154
55.4744