/*--------------------------------*- C++ -*----------------------------------*\
| =========                 |                                                 |
| \\      /  F ield         | OpenFOAM: The Open Source CFD Toolbox           |
|  \\    /   O peration     | Version:  2412                                  |
|   \\  /    A nd           | Website:  www.openfoam.com                      |
|    \\/     M anipulation  |                                                 |
\*---------------------------------------------------------------------------*/
FoamFile
{
    version     2.0;
    format      ascii;
    arch        "LSB;label=32;scalar=64";
    class       volScalarField;
    location    "0.3";
    object      nut;
}
// * * * * * * * * * * * * * * * * * * * * * * * * * * * * * * * * * * * * * //

dimensions      [0 2 -1 0 0 0 0];

internalField   nonuniform List<scalar> 
13068
(
0.345013
0.364778
0.377202
0.37316
0.357601
0.341793
0.332931
0.331697
0.335533
0.341071
0.345753
0.348833
0.350641
0.351792
0.352614
0.35337
0.354062
0.354826
0.355558
0.35642
0.357237
0.358239
0.35916
0.360336
0.361368
0.362757
0.363905
0.365559
0.366831
0.368828
0.370243
0.372693
0.37426
0.377295
0.379075
0.382902
0.384963
0.389846
0.392357
0.398456
0.401118
0.407943
0.409738
0.416178
0.415563
0.421013
0.419621
0.428554
0.43056
0.435971
0.435493
0.409914
0.404611
0.331347
0.312883
0.346439
0.369977
0.372134
0.378648
0.37424
0.377196
0.371984
0.373112
0.368491
0.369603
0.366644
0.368037
0.365777
0.366809
0.365139
0.365383
0.363537
0.362895
0.360889
0.359594
0.357503
0.35613
0.35461
0.353715
0.352823
0.352288
0.351819
0.351421
0.351016
0.350462
0.349959
0.349187
0.348558
0.347596
0.346893
0.345841
0.34511
0.344104
0.343363
0.342657
0.341986
0.342004
0.341891
0.339004
0.344928
0.364591
0.377068
0.373221
0.357917
0.3423
0.333486
0.332166
0.335854
0.341252
0.345841
0.348874
0.350662
0.351807
0.352629
0.353385
0.354079
0.354844
0.355578
0.356441
0.35726
0.358263
0.359185
0.360362
0.361396
0.362787
0.363936
0.365592
0.366864
0.368863
0.37028
0.372732
0.374302
0.37734
0.379122
0.382953
0.385016
0.3899
0.392409
0.398504
0.40116
0.407979
0.40977
0.416206
0.415607
0.421062
0.419691
0.428574
0.430562
0.43586
0.435352
0.409521
0.403885
0.330528
0.312271
0.345869
0.369593
0.371994
0.378626
0.374269
0.377235
0.372009
0.37313
0.368522
0.369635
0.366679
0.368064
0.365795
0.36682
0.365144
0.365385
0.363541
0.362901
0.3609
0.359608
0.357521
0.35615
0.354631
0.353734
0.35284
0.352302
0.351828
0.351427
0.351017
0.35046
0.349953
0.349179
0.348546
0.347581
0.346872
0.345815
0.345074
0.344059
0.343305
0.342587
0.341903
0.341903
0.341782
0.338926
0.344841
0.364403
0.376931
0.37328
0.358232
0.342805
0.334036
0.332631
0.33617
0.341431
0.345927
0.348914
0.350683
0.351822
0.352643
0.353401
0.354095
0.354863
0.355598
0.356463
0.357283
0.358287
0.35921
0.360389
0.361424
0.362816
0.363967
0.365624
0.366898
0.368899
0.370317
0.372771
0.374343
0.377384
0.37917
0.383003
0.385069
0.389953
0.392461
0.398551
0.401203
0.408014
0.409802
0.416235
0.41565
0.42111
0.41976
0.428593
0.430562
0.435749
0.435208
0.409122
0.403151
0.329687
0.311633
0.345296
0.369221
0.371871
0.378618
0.374308
0.37728
0.372038
0.37315
0.368555
0.369669
0.366715
0.368091
0.365814
0.36683
0.365148
0.365387
0.363545
0.362908
0.36091
0.359623
0.357539
0.35617
0.354651
0.353754
0.352858
0.352317
0.351838
0.351432
0.351019
0.350458
0.349948
0.349171
0.348534
0.347566
0.34685
0.345789
0.345037
0.344016
0.343247
0.342518
0.34182
0.341803
0.341674
0.338849
0.344754
0.364212
0.376791
0.373337
0.358544
0.343306
0.334581
0.33309
0.336483
0.341607
0.346013
0.348954
0.350704
0.351837
0.352658
0.353416
0.354112
0.354881
0.355618
0.356484
0.357305
0.358311
0.359236
0.360416
0.361451
0.362845
0.363997
0.365656
0.366932
0.368934
0.370354
0.37281
0.374384
0.377428
0.379217
0.383053
0.385121
0.390006
0.392512
0.398598
0.401244
0.408048
0.409833
0.416262
0.415691
0.421157
0.419827
0.42861
0.43056
0.435635
0.435063
0.408715
0.402408
0.328822
0.310971
0.344721
0.368863
0.371767
0.378624
0.374357
0.377332
0.372071
0.373173
0.368589
0.369704
0.366751
0.368119
0.365834
0.366842
0.365153
0.365388
0.363549
0.362915
0.36092
0.359637
0.357557
0.35619
0.354671
0.353773
0.352875
0.352331
0.351848
0.351438
0.35102
0.350456
0.349942
0.349163
0.348522
0.347551
0.346829
0.345763
0.345001
0.343972
0.34319
0.342449
0.341738
0.341703
0.341566
0.338772
0.344667
0.36402
0.376647
0.37339
0.358853
0.343804
0.335122
0.333544
0.336792
0.34178
0.346098
0.348993
0.350725
0.351852
0.352672
0.353431
0.354129
0.354899
0.355638
0.356505
0.357328
0.358335
0.35926
0.360442
0.361479
0.362874
0.364027
0.365688
0.366964
0.368968
0.37039
0.372848
0.374425
0.377471
0.379263
0.383102
0.385173
0.390057
0.392562
0.398643
0.401285
0.408081
0.409862
0.416288
0.415731
0.421201
0.419891
0.428625
0.430556
0.43552
0.434915
0.4083
0.401658
0.327933
0.310283
0.344144
0.36852
0.371681
0.378644
0.374416
0.377389
0.372107
0.373198
0.368624
0.36974
0.366788
0.368148
0.365853
0.366853
0.365157
0.36539
0.363553
0.362921
0.360931
0.359652
0.357574
0.35621
0.354691
0.353792
0.352892
0.352345
0.351857
0.351443
0.351022
0.350455
0.349936
0.349155
0.34851
0.347536
0.346808
0.345737
0.344965
0.343928
0.343133
0.34238
0.341655
0.341604
0.341459
0.338695
0.34458
0.363825
0.376501
0.373441
0.359159
0.344298
0.335658
0.333993
0.337097
0.341952
0.346182
0.349032
0.350746
0.351867
0.352686
0.353446
0.354145
0.354917
0.355657
0.356526
0.35735
0.358358
0.359285
0.360467
0.361506
0.362902
0.364057
0.365719
0.366997
0.369002
0.370425
0.372885
0.374464
0.377514
0.379308
0.38315
0.385223
0.390108
0.392611
0.398688
0.401324
0.408113
0.40989
0.416312
0.415769
0.421244
0.419952
0.428639
0.430548
0.435402
0.434765
0.407878
0.400899
0.327017
0.309568
0.343567
0.368193
0.371615
0.378679
0.374484
0.377452
0.372146
0.373224
0.368659
0.369777
0.366826
0.368176
0.365873
0.366863
0.365161
0.365391
0.363556
0.362927
0.360941
0.359666
0.357592
0.356229
0.35471
0.353811
0.352909
0.352358
0.351867
0.351449
0.351023
0.350453
0.349931
0.349147
0.348498
0.347522
0.346787
0.345711
0.344929
0.343884
0.343076
0.342312
0.341573
0.341506
0.341353
0.338619
0.344492
0.363629
0.376351
0.373488
0.359461
0.344787
0.336188
0.334438
0.337399
0.342122
0.346264
0.34907
0.350766
0.351881
0.352699
0.353461
0.354161
0.354934
0.355676
0.356546
0.357371
0.358381
0.359309
0.360493
0.361532
0.36293
0.364086
0.365749
0.367028
0.369035
0.37046
0.372922
0.374503
0.377555
0.379353
0.383196
0.385272
0.390157
0.392659
0.39873
0.401361
0.408143
0.409917
0.416335
0.415805
0.421285
0.42001
0.42865
0.430538
0.435284
0.434612
0.40745
0.400132
0.326073
0.308827
0.34299
0.367883
0.37157
0.378729
0.374562
0.37752
0.372189
0.373253
0.368696
0.369814
0.366864
0.368205
0.365893
0.366874
0.365165
0.365391
0.363559
0.362933
0.36095
0.359679
0.357609
0.356248
0.354729
0.353829
0.352925
0.352372
0.351876
0.351454
0.351024
0.35045
0.349925
0.349138
0.348486
0.347507
0.346765
0.345685
0.344893
0.34384
0.343019
0.342243
0.341492
0.341408
0.341247
0.338542
0.344404
0.363431
0.376198
0.373531
0.35976
0.345272
0.336714
0.334877
0.337697
0.34229
0.346346
0.349108
0.350786
0.351896
0.352713
0.353475
0.354177
0.354952
0.355694
0.356566
0.357392
0.358404
0.359332
0.360517
0.361558
0.362957
0.364114
0.365779
0.367059
0.369068
0.370493
0.372957
0.374541
0.377595
0.379396
0.383242
0.38532
0.390205
0.392705
0.398772
0.401398
0.408172
0.409942
0.416356
0.415839
0.421324
0.420066
0.428659
0.430525
0.435163
0.434457
0.407015
0.399358
0.325102
0.308059
0.342415
0.367591
0.371545
0.378794
0.37465
0.377594
0.372234
0.373284
0.368733
0.369852
0.366902
0.368234
0.365913
0.366885
0.365168
0.365391
0.363562
0.362938
0.36096
0.359693
0.357625
0.356267
0.354747
0.353846
0.352941
0.352385
0.351885
0.351459
0.351025
0.350448
0.349919
0.34913
0.348473
0.347491
0.346744
0.345658
0.344857
0.343797
0.342962
0.342175
0.34141
0.34131
0.341141
0.338466
0.344316
0.363231
0.376042
0.373572
0.360056
0.345754
0.337234
0.335311
0.337991
0.342456
0.346427
0.349146
0.350806
0.35191
0.352726
0.353489
0.354192
0.354968
0.355713
0.356586
0.357413
0.358426
0.359355
0.360542
0.361583
0.362984
0.364142
0.365808
0.367089
0.369099
0.370526
0.372992
0.374578
0.377635
0.379438
0.383287
0.385366
0.390252
0.39275
0.398812
0.401432
0.4082
0.409965
0.416376
0.41587
0.421361
0.420119
0.428666
0.43051
0.435041
0.434301
0.406574
0.398578
0.324103
0.307265
0.341844
0.367319
0.371541
0.378875
0.374748
0.377674
0.372283
0.373316
0.368771
0.36989
0.36694
0.368264
0.365933
0.366895
0.365171
0.365391
0.363564
0.362943
0.360968
0.359706
0.357641
0.356285
0.354765
0.353863
0.352956
0.352398
0.351893
0.351464
0.351026
0.350446
0.349913
0.349121
0.348461
0.347476
0.346722
0.345632
0.344821
0.343753
0.342905
0.342106
0.341328
0.341212
0.341035
0.33839
0.344228
0.363029
0.375883
0.373608
0.360348
0.34623
0.337749
0.335741
0.338282
0.342619
0.346507
0.349183
0.350825
0.351923
0.352738
0.353503
0.354207
0.354985
0.35573
0.356605
0.357433
0.358447
0.359378
0.360565
0.361608
0.36301
0.364169
0.365837
0.367119
0.36913
0.370558
0.373026
0.374613
0.377673
0.379479
0.38333
0.385411
0.390297
0.392793
0.39885
0.401465
0.408226
0.409986
0.416395
0.4159
0.421397
0.420169
0.428671
0.430492
0.434918
0.434142
0.406127
0.397793
0.323075
0.306446
0.341278
0.367069
0.37156
0.37897
0.374855
0.377758
0.372335
0.37335
0.368809
0.369929
0.366978
0.368293
0.365953
0.366905
0.365174
0.36539
0.363565
0.362948
0.360977
0.359718
0.357657
0.356302
0.354782
0.35388
0.352971
0.35241
0.351902
0.351468
0.351027
0.350443
0.349907
0.349113
0.348448
0.347461
0.346701
0.345605
0.344784
0.343708
0.342848
0.342037
0.341247
0.341115
0.34093
0.338315
0.34414
0.362826
0.37572
0.373642
0.360637
0.346703
0.338259
0.336166
0.338569
0.342781
0.346586
0.349219
0.350844
0.351937
0.352751
0.353516
0.354222
0.355001
0.355748
0.356624
0.357453
0.358468
0.3594
0.360589
0.361632
0.363035
0.364195
0.365864
0.367148
0.36916
0.370589
0.373059
0.374648
0.377711
0.379519
0.383372
0.385455
0.390341
0.392835
0.398888
0.401497
0.40825
0.410006
0.416411
0.415928
0.42143
0.420216
0.428674
0.430471
0.434793
0.433982
0.405676
0.397003
0.322018
0.305602
0.340719
0.366841
0.371602
0.379082
0.374972
0.377848
0.37239
0.373387
0.368849
0.369969
0.367017
0.368323
0.365973
0.366915
0.365176
0.365389
0.363566
0.362952
0.360985
0.35973
0.357672
0.356319
0.354799
0.353896
0.352986
0.352423
0.35191
0.351472
0.351027
0.350441
0.349901
0.349104
0.348436
0.347445
0.346679
0.345579
0.344748
0.343664
0.342791
0.341969
0.341166
0.341017
0.340825
0.338239
0.344052
0.362621
0.375555
0.373672
0.360922
0.347171
0.338764
0.336585
0.338853
0.342941
0.346664
0.349255
0.350863
0.35195
0.352763
0.353529
0.354236
0.355017
0.355765
0.356642
0.357473
0.358489
0.359421
0.360611
0.361655
0.36306
0.364221
0.365892
0.367176
0.36919
0.37062
0.373091
0.374682
0.377747
0.379558
0.383413
0.385498
0.390383
0.392875
0.398923
0.401527
0.408273
0.410025
0.416427
0.415953
0.421461
0.420261
0.428676
0.430448
0.434667
0.43382
0.405221
0.396211
0.320934
0.304734
0.34017
0.366638
0.371668
0.379209
0.375098
0.377944
0.372449
0.373425
0.368889
0.370009
0.367055
0.368352
0.365993
0.366925
0.365178
0.365388
0.363567
0.362956
0.360993
0.359742
0.357687
0.356335
0.354815
0.353911
0.353
0.352434
0.351918
0.351477
0.351028
0.350438
0.349894
0.349095
0.348423
0.347429
0.346657
0.345552
0.344711
0.34362
0.342733
0.3419
0.341084
0.34092
0.34072
0.338163
0.343963
0.362414
0.375386
0.373699
0.361203
0.347635
0.339264
0.337
0.339133
0.343099
0.346741
0.349291
0.350881
0.351963
0.352775
0.353542
0.35425
0.355032
0.355782
0.35666
0.357492
0.358509
0.359442
0.360634
0.361679
0.363084
0.364246
0.365918
0.367203
0.369218
0.370649
0.373122
0.374715
0.377783
0.379596
0.383453
0.385539
0.390424
0.392914
0.398958
0.401555
0.408295
0.410042
0.41644
0.415977
0.421491
0.420303
0.428675
0.430423
0.434541
0.433657
0.404762
0.395418
0.319823
0.303844
0.339633
0.366461
0.371758
0.379352
0.375234
0.378044
0.37251
0.373465
0.368929
0.370049
0.367094
0.368382
0.366012
0.366935
0.365179
0.365386
0.363566
0.36296
0.361
0.359753
0.357701
0.356351
0.35483
0.353926
0.353014
0.352446
0.351926
0.351481
0.351028
0.350435
0.349887
0.349085
0.34841
0.347413
0.346634
0.345524
0.344674
0.343575
0.342676
0.341831
0.341003
0.340823
0.340616
0.338087
0.343875
0.362206
0.375214
0.373722
0.361481
0.348094
0.339759
0.33741
0.33941
0.343255
0.346817
0.349326
0.350899
0.351975
0.352787
0.353555
0.354264
0.355047
0.355798
0.356677
0.35751
0.358529
0.359463
0.360655
0.361701
0.363108
0.364271
0.365944
0.36723
0.369246
0.370678
0.373153
0.374747
0.377817
0.379632
0.383492
0.385579
0.390464
0.392952
0.398991
0.401582
0.408315
0.410057
0.416453
0.415999
0.421519
0.420343
0.428673
0.430395
0.434414
0.433494
0.4043
0.394625
0.318686
0.302934
0.33911
0.366312
0.371873
0.37951
0.375379
0.378149
0.372574
0.373506
0.36897
0.37009
0.367132
0.368411
0.366031
0.366944
0.36518
0.365383
0.363566
0.362963
0.361006
0.359764
0.357714
0.356366
0.354845
0.353941
0.353027
0.352457
0.351933
0.351484
0.351028
0.350431
0.34988
0.349076
0.348396
0.347397
0.346612
0.345497
0.344637
0.34353
0.342618
0.341762
0.340921
0.340726
0.340511
0.338012
0.343786
0.361996
0.375039
0.373742
0.361756
0.348549
0.340248
0.337816
0.339684
0.343409
0.346892
0.349361
0.350917
0.351988
0.352799
0.353567
0.354277
0.355062
0.355814
0.356695
0.357528
0.358548
0.359483
0.360676
0.361723
0.363131
0.364295
0.365969
0.367255
0.369273
0.370706
0.373182
0.374778
0.37785
0.379668
0.383529
0.385618
0.390503
0.392988
0.399022
0.401607
0.408334
0.410071
0.416464
0.416019
0.421545
0.42038
0.428669
0.430366
0.434286
0.433329
0.403837
0.393834
0.317525
0.302006
0.338604
0.366193
0.372013
0.379685
0.375532
0.378259
0.37264
0.37355
0.369012
0.370131
0.367171
0.36844
0.366051
0.366953
0.365181
0.36538
0.363565
0.362965
0.361013
0.359774
0.357727
0.356381
0.354859
0.353955
0.35304
0.352468
0.35194
0.351488
0.351028
0.350428
0.349873
0.349066
0.348383
0.34738
0.346589
0.345469
0.344599
0.343485
0.342561
0.341693
0.34084
0.340629
0.340406
0.337936
0.343697
0.361785
0.374861
0.373758
0.362027
0.349
0.340732
0.338216
0.339954
0.343561
0.346967
0.349395
0.350935
0.352
0.35281
0.353579
0.35429
0.355076
0.355829
0.356711
0.357546
0.358566
0.359502
0.360697
0.361744
0.363153
0.364318
0.365993
0.36728
0.369299
0.370733
0.37321
0.374808
0.377883
0.379702
0.383565
0.385655
0.39054
0.393022
0.399052
0.401631
0.408352
0.410083
0.416474
0.416038
0.42157
0.420414
0.428664
0.430334
0.434159
0.433164
0.403371
0.393047
0.316341
0.301063
0.338119
0.366105
0.372179
0.379875
0.375695
0.378374
0.37271
0.373595
0.369053
0.370172
0.367209
0.368469
0.366069
0.366961
0.365181
0.365377
0.363563
0.362967
0.361018
0.359783
0.357739
0.356395
0.354873
0.353968
0.353053
0.352479
0.351947
0.351491
0.351027
0.350424
0.349866
0.349056
0.348369
0.347364
0.346566
0.345441
0.344562
0.343439
0.342503
0.341623
0.340758
0.340532
0.340302
0.33786
0.343609
0.361573
0.37468
0.373771
0.362294
0.349446
0.341212
0.338612
0.34022
0.343711
0.34704
0.349429
0.350952
0.352012
0.352821
0.35359
0.354303
0.35509
0.355844
0.356728
0.357563
0.358585
0.359521
0.360717
0.361765
0.363175
0.36434
0.366017
0.367305
0.369325
0.370759
0.373238
0.374837
0.377914
0.379735
0.3836
0.385691
0.390575
0.393055
0.399081
0.401654
0.408368
0.410094
0.416482
0.416054
0.421593
0.420447
0.428657
0.430301
0.434031
0.432999
0.402905
0.392265
0.315136
0.300107
0.337657
0.366049
0.372372
0.38008
0.375866
0.378493
0.372781
0.373641
0.369096
0.370213
0.367247
0.368498
0.366088
0.366969
0.36518
0.365373
0.363561
0.362969
0.361023
0.359792
0.357751
0.356408
0.354886
0.353981
0.353065
0.352489
0.351954
0.351494
0.351026
0.35042
0.349859
0.349046
0.348355
0.347347
0.346543
0.345413
0.344524
0.343393
0.342444
0.341554
0.340677
0.340435
0.340197
0.337784
0.34352
0.361359
0.374496
0.373781
0.362558
0.349888
0.341686
0.339003
0.340484
0.343859
0.347112
0.349462
0.350969
0.352023
0.352831
0.353602
0.354315
0.355104
0.355859
0.356743
0.35758
0.358602
0.35954
0.360736
0.361785
0.363196
0.364362
0.36604
0.367328
0.369349
0.370784
0.373265
0.374866
0.377944
0.379768
0.383634
0.385725
0.39061
0.393087
0.399108
0.401675
0.408383
0.410104
0.41649
0.416069
0.421615
0.420477
0.428649
0.430265
0.433903
0.432834
0.402439
0.391492
0.313912
0.29914
0.337222
0.366028
0.372591
0.380301
0.376046
0.378616
0.372856
0.373689
0.369139
0.370255
0.367285
0.368527
0.366106
0.366977
0.36518
0.365369
0.363559
0.36297
0.361028
0.359801
0.357762
0.356421
0.354899
0.353993
0.353076
0.352499
0.35196
0.351496
0.351025
0.350416
0.349851
0.349036
0.348341
0.34733
0.346519
0.345384
0.344486
0.343348
0.342386
0.341484
0.340595
0.340338
0.340093
0.337708
0.343431
0.361144
0.37431
0.373788
0.362818
0.350325
0.342154
0.33939
0.340744
0.344005
0.347184
0.349495
0.350986
0.352035
0.352842
0.353613
0.354327
0.355117
0.355874
0.356759
0.357596
0.35862
0.359558
0.360755
0.361805
0.363217
0.364383
0.366062
0.367351
0.369373
0.370809
0.37329
0.374893
0.377974
0.379799
0.383667
0.385759
0.390643
0.393117
0.399134
0.401694
0.408397
0.410112
0.416496
0.416083
0.421635
0.420505
0.428639
0.430229
0.433775
0.432669
0.401974
0.390728
0.312672
0.298168
0.336817
0.366043
0.372836
0.380537
0.376233
0.378743
0.372932
0.373739
0.369182
0.370297
0.367322
0.368555
0.366124
0.366985
0.365179
0.365364
0.363556
0.36297
0.361031
0.359808
0.357773
0.356433
0.354911
0.354005
0.353087
0.352508
0.351966
0.351499
0.351024
0.350412
0.349843
0.349026
0.348327
0.347312
0.346496
0.345356
0.344448
0.343301
0.342327
0.341414
0.340513
0.340241
0.339988
0.337632
0.343343
0.360928
0.37412
0.373791
0.363074
0.350757
0.342618
0.339772
0.341001
0.34415
0.347254
0.349528
0.351002
0.352046
0.352852
0.353623
0.354339
0.35513
0.355888
0.356774
0.357612
0.358637
0.359576
0.360774
0.361824
0.363237
0.364404
0.366084
0.367373
0.369396
0.370832
0.373315
0.374919
0.378002
0.379829
0.383698
0.385791
0.390674
0.393146
0.399159
0.401713
0.408409
0.410119
0.416501
0.416095
0.421654
0.420531
0.428629
0.43019
0.433648
0.432505
0.40151
0.389976
0.311418
0.297192
0.336445
0.366095
0.373108
0.380787
0.376428
0.378873
0.373011
0.37379
0.369225
0.370338
0.36736
0.368583
0.366142
0.366992
0.365177
0.36536
0.363552
0.362971
0.361035
0.359816
0.357783
0.356445
0.354922
0.354016
0.353098
0.352517
0.351972
0.351501
0.351023
0.350407
0.349835
0.349015
0.348312
0.347295
0.346472
0.345327
0.344409
0.343255
0.342268
0.341343
0.340431
0.340144
0.339884
0.337556
0.343254
0.36071
0.373928
0.373791
0.363327
0.351186
0.343077
0.340149
0.341254
0.344292
0.347324
0.34956
0.351018
0.352056
0.352861
0.353634
0.354351
0.355143
0.355901
0.356789
0.357628
0.358653
0.359593
0.360792
0.361842
0.363256
0.364424
0.366105
0.367395
0.369419
0.370855
0.373339
0.374944
0.378029
0.379858
0.383729
0.385822
0.390705
0.393173
0.399182
0.40173
0.408421
0.410125
0.416505
0.416106
0.421672
0.420555
0.428617
0.430151
0.433521
0.432341
0.401048
0.389238
0.310154
0.296218
0.33611
0.366186
0.373407
0.381052
0.37663
0.379007
0.373092
0.373842
0.369268
0.37038
0.367397
0.368611
0.366159
0.366999
0.365176
0.365354
0.363548
0.36297
0.361038
0.359822
0.357792
0.356456
0.354933
0.354027
0.353108
0.352526
0.351977
0.351503
0.351021
0.350402
0.349827
0.349004
0.348297
0.347277
0.346447
0.345297
0.34437
0.343208
0.342209
0.341273
0.340348
0.340047
0.339779
0.33748
0.343165
0.360491
0.373733
0.373788
0.363576
0.351609
0.34353
0.340522
0.341504
0.344433
0.347393
0.349591
0.351034
0.352067
0.352871
0.353644
0.354362
0.355155
0.355914
0.356803
0.357643
0.358669
0.359609
0.360809
0.36186
0.363275
0.364443
0.366125
0.367416
0.36944
0.370877
0.373362
0.374969
0.378056
0.379886
0.383758
0.385852
0.390734
0.3932
0.399204
0.401745
0.408431
0.41013
0.416509
0.416115
0.421689
0.420578
0.428604
0.43011
0.433395
0.432178
0.400589
0.388514
0.308882
0.295248
0.335815
0.366317
0.373732
0.38133
0.376839
0.379145
0.373175
0.373896
0.369312
0.370422
0.367433
0.368638
0.366176
0.367006
0.365174
0.365349
0.363544
0.36297
0.36104
0.359828
0.357801
0.356466
0.354943
0.354037
0.353118
0.352535
0.351982
0.351504
0.351019
0.350398
0.349818
0.348993
0.348282
0.347259
0.346423
0.345268
0.344331
0.343161
0.34215
0.341202
0.340266
0.33995
0.339675
0.337404
0.343077
0.360272
0.373536
0.373782
0.363822
0.352028
0.343979
0.34089
0.341751
0.344572
0.347461
0.349622
0.351049
0.352077
0.35288
0.353654
0.354372
0.355167
0.355927
0.356817
0.357658
0.358685
0.359625
0.360826
0.361878
0.363293
0.364462
0.366145
0.367436
0.369461
0.370899
0.373385
0.374992
0.378081
0.379912
0.383786
0.38588
0.390762
0.393225
0.399225
0.40176
0.40844
0.410133
0.416511
0.416123
0.421705
0.420599
0.42859
0.430069
0.433269
0.432016
0.400134
0.387809
0.307605
0.294289
0.335564
0.366488
0.374083
0.381621
0.377054
0.379285
0.373259
0.373951
0.369356
0.370464
0.367469
0.368665
0.366193
0.367013
0.365171
0.365343
0.363539
0.362968
0.361042
0.359834
0.357809
0.356476
0.354953
0.354046
0.353127
0.352543
0.351987
0.351506
0.351017
0.350392
0.349809
0.348982
0.348267
0.34724
0.346399
0.345238
0.344292
0.343114
0.342091
0.341131
0.340184
0.339853
0.33957
0.337327
0.342988
0.360051
0.373336
0.373773
0.364064
0.352443
0.344422
0.341253
0.341995
0.344709
0.347528
0.349653
0.351065
0.352087
0.352889
0.353663
0.354383
0.355179
0.35594
0.35683
0.357672
0.3587
0.359641
0.360842
0.361895
0.363311
0.36448
0.366164
0.367455
0.369481
0.370919
0.373406
0.375015
0.378106
0.379938
0.383814
0.385908
0.390789
0.393249
0.399245
0.401773
0.408449
0.410136
0.416512
0.41613
0.421719
0.420618
0.428576
0.430026
0.433145
0.431855
0.399682
0.387122
0.306327
0.293343
0.33536
0.366702
0.374459
0.381924
0.377275
0.379428
0.373345
0.374006
0.3694
0.370506
0.367505
0.368692
0.366209
0.367019
0.365169
0.365337
0.363534
0.362967
0.361043
0.359839
0.357816
0.356485
0.354962
0.354055
0.353136
0.352551
0.351992
0.351507
0.351015
0.350387
0.349801
0.34897
0.348252
0.347222
0.346374
0.345208
0.344253
0.343066
0.342031
0.34106
0.340101
0.339755
0.339466
0.337251
0.3429
0.35983
0.373133
0.373761
0.364303
0.352853
0.34486
0.341612
0.342236
0.344845
0.347594
0.349683
0.351079
0.352097
0.352898
0.353673
0.354393
0.35519
0.355952
0.356844
0.357686
0.358714
0.359656
0.360858
0.361911
0.363328
0.364498
0.366182
0.367474
0.369501
0.370939
0.373427
0.375037
0.37813
0.379964
0.38384
0.385934
0.390815
0.393271
0.399264
0.401786
0.408456
0.410137
0.416513
0.416136
0.421733
0.420636
0.428561
0.429983
0.433022
0.431696
0.399235
0.386455
0.30505
0.292416
0.335208
0.366958
0.37486
0.382239
0.377501
0.379573
0.373432
0.374063
0.369444
0.370547
0.36754
0.368718
0.366225
0.367025
0.365166
0.365331
0.363528
0.362965
0.361044
0.359844
0.357824
0.356494
0.35497
0.354064
0.353144
0.352558
0.351996
0.351508
0.351012
0.350382
0.349792
0.348959
0.348236
0.347203
0.346349
0.345178
0.344213
0.343018
0.341972
0.340989
0.340019
0.339658
0.339362
0.337175
0.342812
0.359607
0.372928
0.373746
0.364538
0.353259
0.345294
0.341967
0.342473
0.344978
0.347659
0.349713
0.351094
0.352107
0.352907
0.353682
0.354403
0.355201
0.355964
0.356856
0.357699
0.358729
0.359671
0.360874
0.361927
0.363345
0.364515
0.3662
0.367492
0.36952
0.370958
0.373447
0.375058
0.378153
0.379988
0.383865
0.38596
0.39084
0.393293
0.399282
0.401797
0.408463
0.410138
0.416513
0.416141
0.421747
0.420652
0.428545
0.429939
0.4329
0.431538
0.398793
0.38581
0.303778
0.291513
0.335109
0.367256
0.375286
0.382565
0.377732
0.37972
0.373521
0.37412
0.369488
0.370589
0.367575
0.368744
0.366241
0.36703
0.365163
0.365325
0.363522
0.362963
0.361044
0.359848
0.35783
0.356503
0.354979
0.354072
0.353152
0.352565
0.352
0.351509
0.351009
0.350376
0.349783
0.348947
0.34822
0.347184
0.346324
0.345148
0.344173
0.342971
0.341912
0.340917
0.339936
0.339561
0.339257
0.337099
0.342723
0.359384
0.372721
0.373727
0.364769
0.35366
0.345722
0.342317
0.342708
0.34511
0.347723
0.349742
0.351108
0.352116
0.352915
0.353691
0.354413
0.355212
0.355976
0.356869
0.357713
0.358743
0.359686
0.360889
0.361942
0.363361
0.364532
0.366217
0.36751
0.369538
0.370977
0.373467
0.375078
0.378175
0.380011
0.38389
0.385984
0.390864
0.393314
0.399299
0.401807
0.408468
0.410138
0.416513
0.416145
0.421759
0.420667
0.428529
0.429895
0.432779
0.431382
0.398357
0.385188
0.302515
0.290639
0.335067
0.367598
0.375734
0.382902
0.377967
0.379868
0.37361
0.374178
0.369532
0.37063
0.367609
0.368769
0.366256
0.367036
0.36516
0.365318
0.363516
0.36296
0.361043
0.359851
0.357836
0.35651
0.354986
0.35408
0.35316
0.352572
0.352004
0.351509
0.351006
0.35037
0.349773
0.348935
0.348204
0.347165
0.346298
0.345117
0.344134
0.342922
0.341852
0.340846
0.339854
0.339464
0.339153
0.337023
0.342635
0.35916
0.372512
0.373706
0.364997
0.354057
0.346145
0.342663
0.342939
0.34524
0.347787
0.349771
0.351123
0.352125
0.352923
0.353699
0.354422
0.355222
0.355987
0.356881
0.357725
0.358756
0.3597
0.360904
0.361958
0.363377
0.364548
0.366234
0.367527
0.369556
0.370994
0.373485
0.375098
0.378196
0.380034
0.383914
0.386008
0.390887
0.393334
0.399315
0.401817
0.408473
0.410138
0.416512
0.416149
0.421771
0.420681
0.428512
0.42985
0.43266
0.431227
0.397927
0.384591
0.301264
0.289798
0.335085
0.367983
0.376205
0.383247
0.378206
0.380018
0.3737
0.374237
0.369576
0.370671
0.367643
0.368794
0.366271
0.367041
0.365157
0.365311
0.36351
0.362957
0.361043
0.359854
0.357842
0.356518
0.354993
0.354087
0.353167
0.352579
0.352008
0.35151
0.351003
0.350364
0.349764
0.348923
0.348188
0.347146
0.346273
0.345086
0.344094
0.342874
0.341792
0.340774
0.339771
0.339367
0.339049
0.336948
0.342548
0.358935
0.3723
0.373682
0.365222
0.354449
0.346563
0.343004
0.343167
0.345368
0.347849
0.349799
0.351136
0.352134
0.352931
0.353707
0.354431
0.355232
0.355998
0.356893
0.357738
0.358769
0.359713
0.360918
0.361972
0.363392
0.364563
0.36625
0.367543
0.369573
0.371012
0.373504
0.375117
0.378217
0.380055
0.383936
0.386031
0.390909
0.393352
0.39933
0.401826
0.408478
0.410137
0.416511
0.416152
0.421782
0.420694
0.428495
0.429805
0.432542
0.431074
0.397503
0.384018
0.300028
0.288996
0.335166
0.36841
0.376696
0.383601
0.378448
0.380169
0.373791
0.374296
0.369619
0.370712
0.367676
0.368819
0.366285
0.367046
0.365153
0.365304
0.363503
0.362954
0.361042
0.359857
0.357847
0.356525
0.355
0.354094
0.353174
0.352585
0.352011
0.35151
0.351
0.350358
0.349754
0.348911
0.348172
0.347126
0.346247
0.345055
0.344053
0.342826
0.341731
0.340702
0.339688
0.33927
0.338946
0.336872
0.34246
0.35871
0.372086
0.373656
0.365443
0.354836
0.346976
0.343341
0.343392
0.345495
0.347911
0.349827
0.35115
0.352143
0.352939
0.353716
0.35444
0.355242
0.356009
0.356904
0.35775
0.358782
0.359727
0.360932
0.361986
0.363407
0.364579
0.366266
0.367559
0.369589
0.371028
0.373521
0.375135
0.378237
0.380076
0.383959
0.386052
0.39093
0.39337
0.399344
0.401834
0.408481
0.410135
0.416509
0.416154
0.421793
0.420706
0.428478
0.42976
0.432426
0.430923
0.397086
0.38347
0.29881
0.288238
0.335311
0.368879
0.377207
0.383961
0.378692
0.38032
0.373882
0.374356
0.369662
0.370752
0.367709
0.368843
0.366299
0.36705
0.365149
0.365297
0.363496
0.36295
0.36104
0.359859
0.357851
0.356531
0.355007
0.354101
0.353181
0.352591
0.352015
0.35151
0.350997
0.350352
0.349745
0.348898
0.348156
0.347107
0.346221
0.345024
0.344013
0.342777
0.341671
0.340631
0.339606
0.339174
0.338842
0.336797
0.342373
0.358484
0.37187
0.373626
0.365661
0.355219
0.347385
0.343673
0.343614
0.34562
0.347972
0.349855
0.351163
0.352151
0.352946
0.353723
0.354449
0.355252
0.356019
0.356916
0.357762
0.358795
0.35974
0.360945
0.362
0.363421
0.364593
0.366282
0.367575
0.369606
0.371044
0.373538
0.375153
0.378256
0.380097
0.38398
0.386073
0.390951
0.393387
0.399358
0.401841
0.408485
0.410133
0.416507
0.416156
0.421804
0.420718
0.42846
0.429715
0.432311
0.430775
0.396677
0.382949
0.297614
0.287528
0.335524
0.369389
0.377736
0.384328
0.378938
0.380472
0.373974
0.374415
0.369705
0.370792
0.367741
0.368866
0.366313
0.367055
0.365146
0.36529
0.363489
0.362946
0.361038
0.35986
0.357855
0.356537
0.355013
0.354107
0.353187
0.352597
0.352018
0.35151
0.350993
0.350346
0.349735
0.348886
0.348139
0.347087
0.346196
0.344993
0.343973
0.342729
0.341611
0.340559
0.339524
0.339078
0.338739
0.336722
0.342285
0.358258
0.371653
0.373594
0.365875
0.355598
0.347788
0.344002
0.343834
0.345743
0.348032
0.349882
0.351176
0.352159
0.352953
0.353731
0.354457
0.355261
0.356029
0.356927
0.357773
0.358807
0.359752
0.360959
0.362014
0.363435
0.364607
0.366296
0.36759
0.369621
0.37106
0.373554
0.37517
0.378275
0.380117
0.384001
0.386094
0.390971
0.393404
0.399371
0.401848
0.408487
0.41013
0.416505
0.416157
0.421814
0.420728
0.428442
0.42967
0.432199
0.430628
0.396274
0.382454
0.296441
0.286872
0.335804
0.369939
0.378282
0.384701
0.379185
0.380623
0.374065
0.374475
0.369748
0.370832
0.367773
0.368889
0.366326
0.367059
0.365142
0.365283
0.363481
0.362942
0.361036
0.359862
0.357859
0.356543
0.355018
0.354113
0.353193
0.352602
0.352021
0.35151
0.35099
0.350339
0.349725
0.348873
0.348123
0.347067
0.34617
0.344962
0.343933
0.34268
0.341551
0.340487
0.339441
0.338981
0.338636
0.336647
0.342199
0.358031
0.371433
0.373559
0.366085
0.355972
0.348186
0.344325
0.34405
0.345864
0.348091
0.349909
0.351189
0.352167
0.35296
0.353739
0.354466
0.35527
0.356039
0.356937
0.357785
0.358819
0.359764
0.360972
0.362027
0.363449
0.364621
0.366311
0.367604
0.369636
0.371075
0.37357
0.375187
0.378294
0.380136
0.384021
0.386114
0.39099
0.39342
0.399383
0.401854
0.40849
0.410127
0.416502
0.416158
0.421824
0.420739
0.428425
0.429626
0.432088
0.430483
0.39588
0.381984
0.295296
0.286274
0.336155
0.370528
0.378843
0.385077
0.379433
0.380774
0.374156
0.374535
0.36979
0.370871
0.367804
0.368911
0.366339
0.367063
0.365138
0.365276
0.363474
0.362938
0.361033
0.359863
0.357863
0.356548
0.355024
0.354118
0.353199
0.352608
0.352023
0.351509
0.350986
0.350333
0.349715
0.348861
0.348106
0.347047
0.346144
0.344931
0.343892
0.342632
0.341491
0.340416
0.339359
0.338886
0.338534
0.336572
0.342112
0.357804
0.371212
0.373522
0.366293
0.356342
0.34858