/*--------------------------------*- C++ -*----------------------------------*\
| =========                 |                                                 |
| \\      /  F ield         | OpenFOAM: The Open Source CFD Toolbox           |
|  \\    /   O peration     | Version:  2412                                  |
|   \\  /    A nd           | Website:  www.openfoam.com                      |
|    \\/     M anipulation  |                                                 |
\*---------------------------------------------------------------------------*/
FoamFile
{
    version     2.0;
    format      ascii;
    arch        "LSB;label=32;scalar=64";
    class       volScalarField;
    location    "0.3";
    object      p;
}
// * * * * * * * * * * * * * * * * * * * * * * * * * * * * * * * * * * * * * //

dimensions      [0 2 -2 0 0 0 0];

internalField   nonuniform List<scalar> 
13068
(
109911
109889
109859
109800
109745
109656
109578
109448
109333
109162
109021
108809
108642
108377
108184
107855
107637
107225
106986
106466
106213
105549
105296
104439
104210
103090
102923
101443
101402
99420.3
99607
96920.3
97493.8
93804.6
95012.9
89882.9
92109.9
84892
88731
78472.1
84832.9
70131.9
80368.3
59130.5
75110.7
44113.2
68239.2
22435.9
57850.7
-10018
42133.3
-56990
22053.4
-114420
9321.97
-73168
11820
-40264.8
17020.4
-14148.3
24965.2
6655.04
33034.9
22245.7
40006.6
33883
46005
42743.9
51079.1
49496.6
55268.4
54657.6
58707.4
58664.3
61576.2
61885.1
64063.2
64613.1
66311.8
67022.3
68371.9
69174.3
70231.5
71082.1
71871.3
72761.8
73292.5
74248.8
74515.4
75592.9
75566.7
76848.7
76470.1
78067.8
77240.7
79292.4
77885.9
80540.7
78409.7
109906
109885
109855
109797
109742
109653
109575
109446
109330
109159
109019
108806
108639
108375
108182
107852
107635
107222
106984
106463
106210
105546
105293
104435
104206
103086
102920
101438
101398
99415.4
99603.6
96914.9
97490.6
93798.7
95010
89876.4
92107.4
84885
88729.3
78464.6
84831.7
70123.7
80366.4
59120.1
75105.2
44097.7
68227.5
22416.3
57837.8
-10028.6
42129.1
-56954.6
22082.5
-114236
9362.21
-73151.7
11829.7
-40263.9
17032.1
-14151.2
24969.8
6646.27
33034
22236.2
40004.6
33874.5
46002
42735.8
51075.4
49489.3
55264.8
54651.7
58704.6
58660.2
61574.6
61882.8
64062.5
64611.8
66311.2
67021.1
68370.8
69172.6
70229.5
71080
71868.8
72759.5
73289.9
74246.8
74512.8
75591.4
75564.6
76847.7
76468.7
78067.2
77240.4
79291.6
77886.9
80539
78412.5
109902
109881
109852
109794
109739
109651
109573
109443
109328
109157
109016
108804
108637
108372
108179
107850
107632
107219
106981
106460
106207
105542
105290
104431
104203
103082
102916
101434
101395
99410.5
99600.2
96909.6
97487.5
93792.8
95007.1
89869.9
92105
84877.9
88727.5
78457.2
84830.4
70115.6
80364.4
59109.7
75099.7
44082.3
68216.1
22397.1
57825.2
-10039.1
42125.1
-56919.2
22111.5
-114052
9402.02
-73135.2
11839.6
-40263
17043.5
-14154.2
24974.3
6637.55
33033.2
22226.8
40002.7
33866.1
45999.1
42727.8
51071.7
49482.1
55261.2
54645.9
58701.8
58656.1
61573
61880.5
64061.8
64610.5
66310.6
67019.9
68369.6
69170.9
70227.6
71077.9
71866.4
72757.3
73287.2
74244.8
74510.4
75589.9
75562.5
76846.7
76467.3
78066.4
77239.9
79290.7
77887.9
80537.1
78415.3
109898
109877
109848
109790
109736
109648
109570
109440
109325
109155
109014
108801
108634
108370
108177
107847
107629
107217
106978
106456
106204
105539
105287
104428
104200
103078
102913
101429
101392
99405.7
99596.9
96904.3
97484.3
93786.9
95004.3
89863.4
92102.6
84870.9
88725.6
78449.7
84829.1
70107.4
80362.3
59099.3
75094.3
44067.2
68204.9
22378.2
57812.8
-10049.3
42121.3
-56883.8
22140.5
-113871
9441.37
-73118.5
11849.6
-40262.1
17054.7
-14157.3
24978.7
6628.89
33032.3
22217.5
40000.8
33857.8
45996.3
42720
51068.2
49475.1
55257.7
54640.2
58699.1
58652.2
61571.3
61878.1
64061.1
64609.1
66310
67018.6
68368.4
69169.3
70225.7
71075.8
71863.9
72755.1
73284.6
74242.8
74507.9
75588.4
75560.5
76845.6
76465.9
78065.7
77239.5
79289.7
77888.8
80535.1
78417.9
109894
109873
109844
109787
109733
109645
109567
109438
109323
109152
109012
108799
108632
108367
108174
107844
107627
107214
106975
106453
106201
105535
105284
104424
104196
103074
102909
101425
101388
99400.9
99593.6
96899
97481.2
93781.1
95001.4
89857
92100.2
84864
88723.8
78442.4
84827.7
70099.4
80360.3
59089.1
75088.9
44052.1
68193.9
22359.4
57800.6
-10059.4
42117.6
-56848.6
22169.3
-113690
9480.32
-73101.9
11859.5
-40261.1
17065.8
-14160.3
24983.1
6620.3
33031.5
22208.3
39998.9
33849.6
45993.4
42712.2
51064.6
49468.1
55254.2
54634.5
58696.3
58648.2
61569.7
61875.8
64060.3
64607.8
66309.4
67017.4
68367.3
69167.6
70223.8
71073.8
71861.5
72753
73282.1
74240.9
74505.5
75586.9
75558.4
76844.6
76464.4
78064.9
77239
79288.6
77889.6
80533.1
78420.4
109890
109869
109841
109784
109729
109642
109565
109435
109320
109150
109009
108797
108630
108365
108172
107842
107624
107211
106972
106450
106198
105532
105281
104420
104193
103070
102906
101421
101385
99396.1
99590.4
96893.8
97478.1
93775.3
94998.6
89850.7
92097.8
84857.1
88722
78435
84826.4
70091.3
80358.3
59078.8
75083.6
44037.2
68182.9
22340.8
57788.5
-10069.3
42114
-56813.5
22198
-113512
9518.87
-73085.2
11869.5
-40260.1
17076.8
-14163.3
24987.4
6611.79
33030.6
22199.2
39997
33841.4
45990.7
42704.4
51061.1
49461.1
55250.8
54628.9
58693.7
58644.3
61568.1
61873.5
64059.6
64606.5
66308.8
67016.1
68366.1
69165.9
70222
71071.7
71859.1
72750.8
73279.5
74238.9
74503
75585.4
75556.4
76843.5
76463
78064.1
77238.5
79287.6
77890.5
80531.1
78423
109885
109865
109837
109780
109726
109639
109562
109433
109318
109148
109007
108794
108627
108363
108169
107839
107622
107208
106970
106447
106196
105529
105278
104417
104190
103066
102903
101416
101382
99391.4
99587.1
96888.6
97475
93769.6
94995.8
89844.4
92095.4
84850.2
88720.2
78427.7
84825.1
70083.3
80356.2
59068.7
75078.3
44022.4
68172
22322.3
57776.5
-10079.1
42110.4
-56778.5
22226.4
-113336
9557.02
-73068.6
11879.4
-40259.1
17087.8
-14166.2
24991.8
6603.35
33029.8
22190.1
39995.2
33833.3
45987.9
42696.7
51057.6
49454.2
55247.4
54623.3
58691
58640.3
61566.6
61871.3
64058.9
64605.1
66308.2
67014.9
68365
69164.3
70220.1
71069.7
71856.8
72748.6
73276.9
74237
74500.6
75583.8
75554.3
76842.5
76461.6
78063.3
77238.1
79286.6
77891.3
80529.1
78425.5
109881
109862
109833
109777
109723
109637
109559
109430
109316
109145
109005
108792
108625
108360
108167
107837
107619
107205
106967
106444
106193
105525
105274
104413
104187
103062
102900
101412
101378
99386.7
99583.9
96883.4
97472
93763.9
94993
89838.1
92093.1
84843.5
88718.5
78420.5
84823.8
70075.4
80354.2
59058.6
75073
44007.7
68161.3
22304.1
57764.6
-10088.8
42107
-56743.8
22254.8
-113161
9594.77
-73052
11889.4
-40258
17098.8
-14169.1
24996.1
6595
33029
22181.1
39993.3
33825.2
45985.1
42689.1
51054.1
49447.3
55244
54617.7
58688.3
58636.5
61565
61869
64058.2
64603.8
66307.6
67013.6
68363.8
69162.7
70218.2
71067.6
71854.4
72746.5
73274.4
74235.1
74498.2
75582.3
75552.3
76841.4
76460.2
78062.5
77237.6
79285.5
77892.2
80527.1
78428.1
109877
109858
109830
109774
109720
109634
109557
109428
109313
109143
109003
108790
108623
108358
108165
107834
107617
107203
106964
106441
106190
105522
105271
104410
104184
103058
102896
101408
101375
99382.1
99580.8
96878.3
97468.9
93758.3
94990.3
89831.9
92090.8
84836.7
88716.7
78413.4
84822.5
70067.5
80352.2
59048.6
75067.8
43993.2
68150.6
22286
57752.9
-10098.3
42103.7
-56709.1
22282.9
-112988
9632.13
-73035.4
11899.3
-40256.9
17109.7
-14172
25000.4
6586.72
33028.2
22172.2
39991.5
33817.2
45982.4
42681.6
51050.7
49440.5
55240.6
54612.2
58685.7
58632.6
61563.4
61866.7
64057.4
64602.5
66306.9
67012.4
68362.7
69161
70216.4
71065.6
71852
72744.4
73271.8
74233.1
74495.8
75580.8
75550.3
76840.4
76458.8
78061.7
77237.1
79284.4
77893
80525.1
78430.6
109873
109854
109826
109771
109717
109631
109554
109426
109311
109141
109000
108788
108621
108355
108162
107832
107614
107200
106962
106438
106187
105519
105268
104406
104181
103054
102893
101404
101372
99377.5
99577.6
96873.3
97465.9
93752.7
94987.6
89825.8
92088.4
84830
88714.9
78406.3
84821.1
70059.7
80350.2
59038.7
75062.6
43978.7
68140.1
22268.1
57741.3
-10107.7
42100.4
-56674.7
22310.9
-112816
9669.09
-73018.8
11909.2
-40255.7
17120.5
-14174.8
25004.7
6578.52
33027.5
22163.3
39989.6
33809.3
45979.7
42674.1
51047.3
49433.8
55237.2
54606.8
58683.1
58628.8
61561.8
61864.5
64056.7
64601.2
66306.3
67011.1
68361.5
69159.4
70214.5
71063.6
71849.7
72742.3
73269.3
74231.2
74493.4
75579.3
75548.3
76839.3
76457.4
78060.9
77236.7
79283.3
77893.9
80523.1
78433.1
109869
109850
109822
109767
109714
109629
109552
109423
109309
109139
108998
108785
108618
108353
108160
107829
107612
107197
106959
106435
106184
105516
105266
104403
104177
103050
102890
101399
101369
99372.9
99574.5
96868.3
97463
93747.2
94984.8
89819.7
92086.1
84823.4
88713.2
78399.2
84819.8
70052
80348.2
59028.8
75057.5
43964.4
68129.6
22250.4
57729.9
-10117
42097.2
-56640.4
22338.7
-112646
9705.65
-73002.3
11919.2
-40254.4
17131.3
-14177.6
25008.9
6570.4
33026.7
22154.6
39987.8
33801.4
45977
42666.6
51043.9
49427.1
55233.9
54601.4
58680.5
58625
61560.3
61862.2
64055.9
64599.9
66305.7
67009.9
68360.4
69157.8
70212.7
71061.6
71847.3
72740.1
73266.8
74229.3
74491
75577.8
75546.2
76838.2
76456.1
78060
77236.2
79282.2
77894.7
80521.1
78435.6
109866
109847
109819
109764
109711
109626
109549
109421
109306
109136
108996
108783
108616
108351
108158
107827
107609
107195
106956
106432
106181
105513
105263
104399
104174
103047
102887
101395
101366
99368.4
99571.4
96863.3
97460
93741.7
94982.2
89813.6
92083.9
84816.9
88711.5
78392.2
84818.5
70044.3
80346.2
59019
75052.4
43950.2
68119.3
22232.8
57718.6
-10126.2
42094.1
-56606.3
22366.4
-112478
9741.82
-72985.7
11929.1
-40253.1
17142
-14180.3
25013.2
6562.35
33025.9
22145.8
39986
33793.6
45974.3
42659.2
51040.5
49420.4
55230.6
54596
58677.9
58621.2
61558.7
61860
64055.2
64598.6
66305
67008.7
68359.2
69156.1
70210.8
71059.6
71845
72738
73264.3
74227.4
74488.6
75576.3
75544.2
76837.1
76454.7
78059.2
77235.7
79281.1
77895.5
80519
78438
109862
109843
109815
109761
109708
109623
109547
109419
109304
109134
108994
108781
108614
108348
108155
107824
107607
107192
106954
106430
106179
105509
105260
104396
104171
103043
102884
101391
101362
99363.9
99568.3
96858.4
97457.1
93736.3
94979.5
89807.6
92081.6
84810.4
88709.8
78385.3
84817.2
70036.6
80344.2
59009.3
75047.3
43936.1
68109
22215.4
57707.4
-10135.2
42091.1
-56572.3
22393.8
-112311
9777.6
-72969.2
11939.1
-40251.7
17152.7
-14183
25017.4
6554.38
33025.2
22137.2
39984.2
33785.9
45971.6
42651.9
51037.2
49413.8
55227.3
54590.6
58675.3
58617.5
61557.2
61857.8
64054.5
64597.2
66304.4
67007.5
68358.1
69154.5
70209
71057.6
71842.7
72735.9
73261.8
74225.5
74486.2
75574.8
75542.2
76836
76453.3
78058.3
77235.3
79280
77896.3
80517
78440.5
109858
109840
109812
109758
109705
109621
109544
109416
109302
109132
108992
108779
108612
108346
108153
107822
107604
107189
106951
106427
106176
105506
105257
104392
104168
103039
102881
101387
101359
99359.5
99565.2
96853.5
97454.2
93730.9
94976.8
89801.7
92079.4
84803.9
88708.1
78378.4
84816
70029.1
80342.3
58999.7
75042.3
43922.1
68098.9
22198.2
57696.3
-10144.2
42088.2
-56538.6
22421
-112147
9812.99
-72952.6
11949.1
-40250.3
17163.3
-14185.7
25021.6
6546.48
33024.4
22128.7
39982.5
33778.2
45969
42644.6
51033.9
49407.3
55224.1
54585.4
58672.8
58613.7
61555.6
61855.6
64053.7
64595.9
66303.8
67006.2
68356.9
69152.9
70207.2
71055.6
71840.4
72733.9
73259.3
74223.6
74483.9
75573.2
75540.3
76834.9
76451.9
78057.4
77234.8
79278.9
77897.2
80515
78442.9
109854
109836
109809
109755
109702
109618
109542
109414
109300
109130
108989
108777
108609
108344
108151
107819
107602
107187
106949
106424
106173
105503
105254
104389
104165
103035
102878
101383
101356
99355.1
99562.2
96848.6
97451.3
93725.5
94974.2
89795.8
92077.1
84797.5
88706.4
78371.6
84814.7
70021.5
80340.3
58990.1
75037.3
43908.3
68088.9
22181.1
57685.3
-10152.9
42085.4
-56505
22448
-111983
9847.99
-72936.1
11959.1
-40248.7
17173.9
-14188.3
25025.8
6538.66
33023.7
22120.2
39980.7
33770.6
45966.3
42637.4
51030.6
49400.8
55220.8
54580.1
58670.2
58610
61554.1
61853.4
64053
64594.6
66303.1
67005
68355.8
69151.3
70205.4
71053.7
71838.1
72731.8
73256.9
74221.7
74481.5
75571.7
75538.3
76833.8
76450.6
78056.5
77234.3
79277.7
77898
80513
78445.4
109850
109833
109805
109752
109700
109616
109539
109412
109298
109128
108987
108774
108607
108342
108148
107817
107600
107184
106946
106421
106171
105500
105251
104386
104162
103032
102875
101379
101353
99350.7
99559.2
96843.8
97448.4
93720.2
94971.6
89790
92074.9
84791.2
88704.7
78364.8
84813.4
70014.1
80338.4
58980.6
75032.4
43894.5
68078.9
22164.3
57674.5
-10161.6
42082.6
-56471.6
22474.9
-111822
9882.61
-72919.6
11969.2
-40247.2
17184.5
-14190.9
25029.9
6530.92
33023
22111.8
39978.9
33763
45963.7
42630.3
51027.3
49394.4
55217.6
54574.9
58667.7
58606.4
61552.6
61851.2
64052.2
64593.3
66302.5
67003.8
68354.7
69149.7
70203.6
71051.7
71835.8
72729.7
73254.4
74219.8
74479.2
75570.2
75536.3
76832.7
76449.2
78055.6
77233.9
79276.5
77898.8
80511
78447.8
109847
109829
109802
109749
109697
109613
109537
109409
109295
109126
108985
108772
108605
108339
108146
107815
107597
107182
106944
106418
106168
105497
105248
104382
104159
103028
102872
101375
101350
99346.4
99556.2
96839
97445.6
93714.9
94969
89784.2
92072.7
84784.9
88703
78358.1
84812.1
70006.7
80336.4
58971.2
75027.5
43880.9
68069.1
22147.5
57663.8
-10170.2
42079.9
-56438.5
22501.5
-111662
9916.86
-72903
11979.2
-40245.5
17195
-14193.4
25034
6523.25
33022.3
22103.4
39977.2
33755.5
45961.1
42623.2
51024.1
49388
55214.5
54569.7
58665.2
58602.7
61551
61849.1
64051.5
64592
66301.8
67002.6
68353.5
69148.2
70201.8
71049.8
71833.5
72727.7
73252
74217.9
74476.9
75568.7
75534.3
76831.6
76447.8
78054.7
77233.4
79275.4
77899.6
80509
78450.2
109843
109826
109799
109746
109694
109611
109534
109407
109293
109124
108983
108770
108603
108337
108144
107812
107595
107179
106941
106416
106165
105494
105245
104379
104157
103024
102869
101371
101347
99342.1
99553.3
96834.3
97442.8
93709.7
94966.5
89778.4
92070.6
84778.6
88701.4
78351.5
84810.9
69999.3
80334.5
58961.8
75022.6
43867.5
68059.4
22131
57653.2
-10178.6
42077.3
-56405.5
22527.8
-111504
9950.74
-72886.4
11989.3
-40243.8
17205.4
-14195.9
25038.1
6515.66
33021.6
22095.2
39975.5
33748.1
45958.5
42616.1
51020.8
49381.7
55211.3
54564.6
58662.7
58599.1
61549.5
61846.9
64050.7
64590.7
66301.2
67001.3
68352.4
69146.6
70200
71047.8
71831.3
72725.6
73249.5
74216.1
74474.6
75567.2
75532.4
76830.5
76446.5
78053.8
77233
79274.2
77900.4
80507
78452.6
109839
109822
109795
109743
109691
109608
109532
109405
109291
109121
108981
108768
108601
108335
108142
107810
107593
107176
106939
106413
106163
105491
105243
104376
104154
103021
102866
101367
101344
99337.8
99550.3
96829.6
97440
93704.6
94963.9
89772.7
92068.4
84772.5
88699.7
78344.9
84809.6
69992
80332.6
58952.6
75017.8
43854.1
68049.7
22114.6
57642.8
-10187
42074.7
-56372.7
22553.9
-111347
9984.26
-72869.9
11999.5
-40242
17215.8
-14198.3
25042.2
6508.13
33020.9
22087
39973.7
33740.7
45956
42609.2
51017.7
49375.4
55208.2
54559.5
58660.3
58595.5
61548
61844.8
64050
64589.4
66300.5
67000.1
68351.3
69145
70198.3
71045.9
71829
72723.6
73247.1
74214.2
74472.2
75565.7
75530.4
76829.3
76445.1
78052.8
77232.5
79273
77901.2
80505
78454.9
109836
109819
109792
109740
109688
109606
109530
109403
109289
109119
108979
108766
108599
108333
108140
107808
107590
107174
106936
106410
106160
105488
105240
104373
104151
103017
102863
101364
101341
99333.6
99547.4
96825
97437.2
93699.4
94961.4
89767.1
92066.3
84766.3
88698.1
78338.3
84808.4
69984.8
80330.7
58943.4
75013
43840.8
68040.2
22098.4
57632.5
-10195.2
42072.3
-56340.2
22579.8
-111192
10017.4
-72853.3
12009.7
-40240.1
17226.1
-14200.7
25046.2
6500.69
33020.3
22078.8
39972
33733.4
45953.5
42602.2
51014.5
49369.2
55205.1
54554.5
58657.8
58592
61546.5
61842.6
64049.2
64588.2
66299.9
66998.9
68350.1
69143.4
70196.5
71044
71826.8
72721.5
73244.7
74212.3
74470
75564.1
75528.5
76828.2
76443.8
78051.9
77232
79271.8
77901.9
80503
78457.3
109832
109815
109789
109737
109686
109603
109527
109401
109287
109117
108977
108764
108597
108331
108138
107805
107588
107172
106934
106407
106157
105485
105237
104369
104148
103014
102860
101360
101338
99329.4
99544.6
96820.4
97434.5
93694.4
94958.9
89761.5
92064.2
84760.3
88696.5
78331.8
84807.1
69977.6
80328.8
58934.2
75008.3
43827.7
68030.8
22082.4
57622.3
-10203.3
42069.8
-56307.9
22605.5
-111038
10050.2
-72836.6
12019.9
-40238.2
17236.4
-14203.1
25050.3
6493.31
33019.6
22070.8
39970.3
33726.2
45950.9
42595.4
51011.3
49363
55202
54549.4
58655.4
58588.5
61545
61840.5
64048.5
64586.9
66299.2
66997.7
68349
69141.9
70194.7
71042.1
71824.6
72719.5
73242.3
74210.5
74467.7
75562.6
75526.5
76827
76442.4
78050.9
77231.6
79270.6
77902.7
80501
78459.6
109828
109812
109785
109734
109683
109601
109525
109398
109285
109115
108975
108762
108595
108329
108135
107803
107586
107169
106931
106405
106155
105482
105235
104366
104145
103010
102857
101356
101335
99325.3
99541.7
96815.8
97431.8
93689.3
94956.4
89756
92062.1
84754.3
88694.9
78325.4
84805.9
69970.5
80326.9
58925.2
75003.6
43814.7
68021.5
22066.5
57612.2
-10211.3
42067.5
-56275.8
22630.8
-110886
10082.7
-72820
12030.2
-40236.2
17246.6
-14205.4
25054.3
6486.01
33018.9
22062.8
39968.6
33719
45948.4
42588.6
51008.2
49356.9
55198.9
54544.5
58653
58584.9
61543.6
61838.4
64047.7
64585.6
66298.5
66996.5
68347.9
69140.3
70193
71040.2
71822.4
72717.5
73239.9
74208.6
74465.4
75561.1
75524.6
76825.9
76441.1
78049.9
77231.1
79269.4
77903.5
80499
78462
109825
109809
109782
109731
109680
109599
109523
109396
109283
109113
108973
108760
108593
108327
108133
107801
107583
107167
106929
106402
106152
105479
105232
104363
104142
103007
102854
101352
101333
99321.1
99538.9
96811.3
97429.1
93684.4
94954
89750.5
92060
84748.3
88693.3
78319
84804.7
69963.5
80325
58916.2
74998.9
43801.8
68012.2
22050.8
57602.2
-10219.2
42065.2
-56243.9
22655.9
-110736
10114.9
-72803.3
12040.6
-40234.1
17256.8
-14207.7
25058.2
6478.78
33018.3
22054.9
39967
33711.8
45945.9
42581.8
51005.1
49350.8
55195.9
54539.6
58650.6
58581.5
61542.1
61836.3
64047
64584.3
66297.9
66995.3
68346.8
69138.8
70191.3
71038.3
71820.2
72715.5
73237.6
74206.7
74463.1
75559.6
75522.7
76824.7
76439.7
78049
77230.7
79268.2
77904.3
80497
78464.3
109821
109805
109779
109728
109678
109596
109520
109394
109281
109111
108971
108758
108591
108324
108131
107799
107581
107164
106927
106399
106150
105477
105229
104360
104140
103004
102851
101348
101330
99317.1
99536.1
96806.9
97426.4
93679.4
94951.6
89745.1
92057.9
84742.4
88691.7
78312.7
84803.4
69956.5
80323.1
58907.3
74994.3
43789
68003.1
22035.2
57592.4
-10227
42063
-56212.3
22680.7
-110588
10146.7
-72786.5
12051
-40232
17266.9
-14209.9
25062.2
6471.62
33017.6
22047.1
39965.3
33704.8
45943.5
42575.1
51002
49344.8
55192.8
54534.7
58648.2
58578
61540.6
61834.2
64046.2
64583
66297.2
66994.1
68345.6
69137.3
70189.5
71036.4
71818
72713.5
73235.2
74204.9
74460.9
75558.1
75520.8
76823.6
76438.4
78048
77230.2
79266.9
77905
80495
78466.6
109818
109802
109776
109726
109675
109594
109518
109392
109279
109109
108969
108756
108589
108322
108129
107797
107579
107162
106924
106397
106147
105474
105227
104357
104137
103000
102848
101345
101327
99313
99533.3
96802.4
97423.8
93674.5
94949.2
89739.7
92055.9
84736.6
88690.1
78306.5
84802.2
69949.6
80321.3
58898.5
74989.7
43776.4
67994.1
22019.8
57582.6
-10234.6
42060.8
-56180.9
22705.3
-110440
10178.2
-72769.7
12061.4
-40229.8
17277
-14212.1
25066.1
6464.53
33017
22039.3
39963.6
33697.8
45941
42568.5
50999
49338.8
55189.9
54529.8
58645.8
58574.6
61539.2
61832.2
64045.5
64581.8
66296.5
66992.9
68344.5
69135.7
70187.8
71034.5
71815.8
72711.5
73232.9
74203.1
74458.6
75556.5
75518.9
76822.4
76437.1
78047
77229.7
79265.7
77905.8
80493
78468.8
109815
109799
109773
109723
109672
109592
109516
109390
109277
109107
108967
108754
108587
108320
108127
107794
107577
107159
106922
106394
106145
105471
105224
104354
104134
102997
102846
101341
101324
99309.1
99530.6
96798
97421.2
93669.7
94946.8
89734.3
92053.8
84730.8
88688.6
78300.3
84801
69942.7
80319.4
58889.7
74985.2
43763.9
67985.2
22004.6
57573
-10242.2
42058.7
-56149.7
22729.5
-110295
10209.4
-72752.9
12071.9
-40227.5
17287
-14214.3
25069.9
6457.51
33016.4
22031.6
39962
33690.8
45938.6
42561.9
50995.9
49332.9
55186.9
54525
58643.5
58571.2
61537.7
61830.1
64044.7
64580.5
66295.9
66991.7
68343.4
69134.2
70186.1
71032.6
71813.7
72709.5
73230.5
74201.2
74456.4
75555
75517
76821.2
76435.7
78045.9
77229.3
79264.4
77906.5
80491
78471.1
109811
109796
109770
109720
109670
109589
109514
109388
109275
109106
108965
108752
108585
108318
108125
107792
107575
107157
106920
106392
106142
105468
105221
104351
104131
102994
102843
101338
101321
99305.1
99527.8
96793.7
97418.6
93664.9
94944.4
89729.1
92051.8
84725
88687.1
78294.1
84799.8
69935.9
80317.6
58881
74980.7
43751.4
67976.4
21989.6
57563.5
-10249.7
42056.6
-56118.8
22753.5
-110151
10240.3
-72736
12082.5
-40225.2
17297
-14216.5
25073.8
6450.56
33015.8
22024
39960.4
33683.9
45936.2
42555.4
50992.9
49327
55183.9
54520.3
58641.2
58567.8
61536.3
61828.1
64044
64579.2
66295.2
66990.5
68342.3
69132.7
70184.4
71030.8
71811.5
72707.5
73228.2
74199.4
74454.1
75553.5
75515.1
76820
76434.4
78044.9
77228.8
79263.2
77907.3
80489
78473.4
109808
109793
109767
109717
109667
109587
109512
109386
109273
109104
108963
108750
108583
108316
108123
107790
107573
107155
106918
106389
106140
105465
105219
104348
104129
102990
102840
101334
101319
99301.2
99525.1
96789.4
97416
93660.1
94942.1
89723.8
92049.8
84719.3
88685.5
78288.1
84798.6
69929.1
80315.8
58872.4
74976.2
43739.2
67967.6
21974.7
57554.2
-10257
42054.6
-56088.2
22777.1
-110009
10271
-72719
12093.1
-40222.8
17306.9
-14218.6
25077.6
6443.68
33015.2
22016.4
39958.7
33677.1
45933.8
42549
50990
49321.2
55181
54515.6
58638.9
58564.5
61534.8
61826
64043.2
64578
66294.5
66989.3
68341.2
69131.2
70182.7
71028.9
71809.4
72705.6
73225.9
74197.6
74451.9
75552
75513.2
76818.8
76433.1
78043.9
77228.4
79261.9
77908
80487
78475.6
109805
109790
109764
109715
109665
109585
109509
109384
109271
109102
108961
108748
108581
108314
108121
107788
107571
107153
106915
106387
106138
105463
105216
104345
104126
102987
102837
101330
101316
99297.3
99522.5
96785.1
97413.5
93655.4
94939.7
89718.6
92047.9
84713.7
88684
78282
84797.4
69922.4
80314
58863.9
74971.8
43727
67959
21959.9
57544.9
-10264.3
42052.6
-56057.8
22800.5
-109868
10301.3
-72702
12103.8
-40220.3
17316.7
-14220.7
25081.4
6436.87
33014.5
22009
39957.1
33670.3
45931.4
42542.6
50987
49315.4
55178.1
54510.9
58636.6
58561.2
61533.4
61824
64042.4
64576.7
66293.8
66988.1
68340.1
69129.7
70181
71027.1
71807.2
72703.6
73223.6
74195.7
74449.7
75550.5
75511.3
76817.6
76431.8
78042.9
77227.9
79260.6
77908.7
80485
78477.8
109801
109787
109761
109712
109662
109583
109507
109382
109269
109100
108959
108746
108579
108312
108119
107786
107568
107150
106913
106384
106135
105460
105214
104342
104124
102984
102835
101327
101313
99293.5
99519.8
96780.9
97411
93650.8
94937.4
89713.5
92045.9
84708.1
88682.5
78276.1
84796.3
69915.8
80312.2
58855.5
74967.5
43714.9
67950.5
21945.4
57535.8
-10271.5
42050.7
-56027.6
22823.5
-109728
10331.4
-72684.9
12114.5
-40217.8
17326.5
-14222.7
25085.1
6430.12
33013.9
22001.5
39955.5
33663.6
45929
42536.2
50984.1
49309.7
55175.2
54506.2
58634.3
58557.9
61532
61822
64041.7
64575.4
66293.2
66987
68339
69128.2
70179.3
71025.3
71805.1
72701.7
73221.3
74193.9
74447.5
75548.9
75509.4
76816.4
76430.5
78041.8
77227.4
79259.3
77909.5
80483
78480
109798
109784
109758
109709
109660
109580
109505
109380
109267
109098
108958
108744
108577
108310
108117
107784
107566
107148
106911
106382
106133
105457
105211
104339
104121
102981
102832
101323
101310
99289.7
99517.2
96776.7
97408.5
93646.2
94935.2
89708.4
92044
84702.6
88681
78270.1
84795.1
69909.2
80310.4
58847.1
74963.1
43703
67942
21930.9
57526.7
-10278.6
42048.9
-55997.7
22846.3
-109591
10361.3
-72667.7
12125.3
-40215.3
17336.2
-14224.8
25088.8
6423.45
33013.3
21994.2
39953.9
33657
45926.6
42529.9
50981.2
49304.1
55172.4
54501.6
58632
58554.6
61530.6
61820
64040.9
64574.2
66292.5
66985.8
68337.9
69126.7
70177.6
71023.4
71803
72699.7
73219
74192.1
74445.3
75547.4
75507.5
76815.2
76429.2
78040.7
77227
79258
77910.2
80481.1
78482.2
109795
109781
109755
109707
109657
109578
109503
109378
109265
109096
108956
108743
108575
108308
108115
107782
107564
107146
106909
106379
106131
105455
105209
104336
104118
102978
102829
101320
101308
99285.9
99514.6
96772.6
97406
93641.6
94932.9
89703.4
92042.1
84697.1
88679.5
78264.3
84793.9
69902.7
80308.6
58838.8
74958.8
43691.2
67933.7
21916.7
57517.8
-10285.5
42047.1
-55968.1
22868.7
-109455
10390.9
-72650.5
12136.1
-40212.7
17345.8
-14226.8
25092.5
6416.83
33012.8
21986.9
39952.3
33650.4
45924.3
42523.7
50978.3
49298.5
55169.6
54497.1
58629.8
58551.4
61529.2
61818
64040.2
64572.9
66291.8
66984.6
68336.8
69125.2
70175.9
71021.6
71800.9
72697.8
73216.7
74190.3
74443.1
75545.9
75505.7
76814
76427.9
78039.7
77226.5
79256.7
77910.9
80479.1
78484.4
109792
109778
109752
109704
109655
109576
109501
109376
109263
109094
108954
108741
108574
108307
108113
107780
107562
107144
106907
106377
106128
105452
105207
104333
104116
102974
102827
101317
101305
99282.2
99512
96768.5
97403.5
93637.1
94930.7
89698.4
92040.2
84691.7
88678.1
78258.5
84792.8
69896.2
80306.9
58830.6
74954.6
43679.5
67925.5
21902.6
57509
-10292.4
42045.3
-55938.8
22890.8
-109320
10420.3
-72633.2
12146.9
-40210.1
17355.3
-14228.8
25096.2
6410.29
33012.2
21979.7
39950.8
33643.9
45922
42517.5
50975.4
49292.9
55166.7
54492.6
58627.6
58548.2
61527.8
61816.1
64039.4
64571.7
66291.1
66983.4
68335.7
69123.7
70174.3
71019.8
71798.8
72695.9
73214.5
74188.5
74440.9
75544.4
75503.8
76812.8
76426.5
78038.6
77226
79255.4
77911.6
80477.1
78486.6
109789
109775
109749
109701
109653
109574
109499
109374
109261
109093
108952
108739
108572
108305
108111
107778
107560
107141
106904
106375
106126
105450
105204
104330
104113
102971
102824
101313
101303
99278.5
99509.5
96764.4
97401.1
93632.6
94928.5
89693.5
92038.3
84686.4
88676.6
78252.7
84791.6
69889.8
80305.1
58822.4
74950.4
43667.9
67917.3
21888.6
57500.3
-10299.2
42043.6
-55909.7
22912.6
-109187
10449.5
-72615.8
12157.8
-40207.4
17364.8
-14230.7
25099.8
6403.81
33011.6
21972.6
39949.2
33637.4
45919.7
42511.4
50972.6
49287.4
55164
54488.1
58625.4
58545
61526.4
61814.1
64038.6
64570.5
66290.4
66982.3
68334.6
69122.2
70172.6
71018
71796.7
72694
73212.2
74186.7
74438.8
75542.8
75501.9
76811.6
76425.2
78037.5
77225.6
79254.1
77912.3
80475.1
78488.7
109785
109772
109746
109699
109650
109572
109497
109372
109259
109091
108950
108737
108570
108303
108110
107776
107558
107139
106902
106372
106124
105447
105202
104328
104111
102968
102822
101310
101300
99274.8
99507
96760.4
97398.7
93628.2
94926.3
89688.6
92036.4
84681.1
88675.2
78247
84790.5
69883.5
80303.4
58814.3
74946.2
43656.4
67909.3
21874.9
57491.7
-10305.9
42041.9
-55880.9
22934.2
-109055
10478.4
-72598.4
12168.7
-40204.8
17374.2
-14232.7
25103.3
6397.4
33011
21965.5
39947.6
33631
45917.4
42505.4
50969.7
49282
55161.2
54483.7
58623.2
58541.8
61525
61812.2
64037.9
64569.2
66289.7
66981.1
68333.5
69120.7
70171
71016.2
71794.7
72692.1
73210
74184.9
74436.6
75541.3
75500.1
76810.3
76423.9
78036.4
77225.1
79252.8
77913
80473.2
78490.8
109782
109769
109744
109696
109648
109570
109495
109370
109258
109089
108949
108735
108568
108301
108108
107774
107556
107137
106900
106370
106122
105444
105199
104325
104108
102965
102819
101307
101297
99271.2
99504.5
96756.4
97396.3
93623.8
94924.1
89683.8
92034.6
84675.8
88673.8
78241.4
84789.3
69877.2
80301.7
58806.3
74942.1
43645.1
67901.3
21861.2
57483.2
-10312.5
42040.3
-55852.4
22955.4
-108925
10507.2
-72580.9
12179.6
-40202.1
17383.5
-14234.6
25106.8
6391.05
33010.4
21958.6
39946.1
33624.7
45915.1
42499.4
50966.9
49276.5
55158.5
54479.3
58621
58538.7
61523.6
61810.2
64037.1
64568
66289.1
66979.9
68332.4
69119.3
70169.3
71014.5
71792.6
72690.2
73207.7
74183.1
74434.5
75539.8
75498.3
76809.1
76422.7
78035.3
77224.6
79251.5
77913.7
80471.2
78493
109779
109766
109741
109694
109646
109568
109493
109369
109256
109087
108947
108734
108566
108299
108106
107772
107554
107135
106898
106368
106119
105442
105197
104322
104106
102962
102817
101303
101295
99267.6
99502
96752.5
97394
93619.4
94922
89679
92032.7
84670.6
88672.4
78235.8
84788.2
69871
80299.9
58798.4
74938
43633.9
67893.4
21847.8
57474.8
-10319
42038.7
-55824.1
22976.3
-108797
10535.8
-72563.3
12190.5
-40199.3
17392.7
-14236.5
25110.3
6384.76
33009.8
21951.6
39944.6
33618.4
45912.9
42493.4
50964.2
49271.2
55155.8
54474.9
58618.8
58535.6
61522.2
61808.3
64036.4
64566.8
66288.4
66978.8
68331.3
69117.8
70167.7
71012.7
71790.6
72688.3
73205.5
74181.3
74432.3
75538.3
75496.4
76807.9
76421.4
78034.2
77224.2
79250.2
77914.4
80469.2
78495.1
109776
109763
109738
109691
109643
109566
109491
109367
109254
109085
108945
108732
108565
108297
108104
107770
107553
107133
106896
106365
106117
105439
105195
104319
104104
102959
102814
101300
101292
99264.1
99499.6
96748.6
97391.7
93615.1
94919.8
89674.3
92030.9
84665.5
88670.9
78230.3
84787.1
69864.8
80298.2
58790.6
74934
43622.8
67885.7
21834.5
57466.6
-10325.4
42037.1
-55796.1
22996.9
-108670
10564.2
-72545.7
12201.5
-40196.6
17401.8
-14238.4
25113.8
6378.54
33009.3
21944.8
39943
33612.2
45910.7
42487.5
50961.4
49265.9
55153.1
54470.6
58616.7
58532.5
61520.9
61806.4
64035.6
64565.6
66287.7
66977.6
68330.2
69116.4
70166.1
71010.9
71788.5
72686.4
73203.3
74179.5
74430.2
75536.7
75494.6
76806.6
76420.1
78033.1
77223.7
79248.8
77915
80467.3
78497.2
109773
109760
109735
109689
109641
109564
109489
109365
109252
109084
108943
108730
108563
108296
108102
107768
107551
107131
106894
106363
106115
105437
105193
104317
104101
102956
102812
101297
101290
99260.6
99497.1
96744.8
97389.4
93610.9
94917.7
89669.6
92029.1
84660.4
88669.6
78224.8
84786
69858.7
80296.6
58782.8
74930
43611.8
67878
21821.3
57458.4
-10331.8
42035.6
-55768.4
23017.2
-108544
10592.4
-72528.1
12212.4
-40193.9
17410.8