/*--------------------------------*- C++ -*----------------------------------*\
| =========                 |                                                 |
| \\      /  F ield         | OpenFOAM: The Open Source CFD Toolbox           |
|  \\    /   O peration     | Version:  2412                                  |
|   \\  /    A nd           | Website:  www.openfoam.com                      |
|    \\/     M anipulation  |                                                 |
\*---------------------------------------------------------------------------*/
FoamFile
{
    version     2.0;
    format      ascii;
    arch        "LSB;label=32;scalar=64";
    class       surfaceScalarField;
    location    "0.3";
    object      phi;
}
// * * * * * * * * * * * * * * * * * * * * * * * * * * * * * * * * * * * * * //

dimensions      [0 3 -1 0 0 0 0];

oriented        oriented;

internalField   nonuniform List<scalar> 
25905
(
0.00747476
-0.0132445
0.0073897
-0.0113275
0.00733288
-0.00742514
0.00731314
-0.00169007
0.00733109
0.00413883
0.00737803
0.00805267
0.00743854
0.00934433
0.00749672
0.00868772
0.00754531
0.00736517
0.00758516
0.00620088
0.00761909
0.00534152
0.00764891
0.0046891
0.00767521
0.00411824
0.00769856
0.00363261
0.0077191
0.00318301
0.00773735
0.00281398
0.0077532
0.0024451
0.0077673
0.00216908
0.00777931
0.00186274
0.00778999
0.00165893
0.00779876
0.00139181
0.00780659
0.00124898
0.00781248
0.000988878
0.00781791
0.000916336
0.00782134
0.00065558
0.00782481
0.000650474
0.00782609
0.00037553
0.00782805
0.000450836
0.00782743
0.000134497
0.00782838
0.000324842
0.00782616
-5.76806e-05
0.00782659
0.000265215
0.00782299
-0.000207857
0.00782343
0.000299878
0.0078188
-0.000280821
0.00782002
0.000455942
0.00781503
-0.000252848
0.00781845
0.000802895
0.00781485
-1.95295e-05
0.0078234
0.00144934
0.00782514
0.000546283
0.00784338
0.00243545
0.00785402
0.00127423
0.00788286
0.0032539
0.00789785
0.00126148
0.00792563
0.00264395
0.007925
-0.000870558
0.00792895
-0.000605876
0.00790226
-0.00484319
0.00787032
-0.00730369
0.00780241
-0.0131874
0.00763256
-0.0293032
0.00734548
-0.0463003
0.0073924
0.00394478
0.0076033
0.0315941
0.00771306
0.018968
0.00772618
0.00639224
0.00773109
0.00395967
0.0077149
-8.19178e-06
0.00771981
0.00171837
0.00771285
-0.000312159
0.00772154
0.00150251
0.00771835
1.70881e-05
0.00772775
0.00154738
0.00772852
0.000353394
0.00773887
0.00141098
0.0077408
0.000237727
0.00774774
0.000784836
0.00774592
-0.000347092
0.00774567
-0.000139034
0.00773728
-0.00112414
0.00772898
-0.00107785
0.00771467
-0.00181563
0.00770068
-0.0017625
0.00768341
-0.00218422
0.00766778
-0.00201047
0.00765176
-0.00212249
0.00763843
-0.00185356
0.00762619
-0.00178547
0.00761647
-0.00152754
0.00760779
-0.00144635
0.00760045
-0.00130486
0.00759339
-0.001282
0.00758636
-0.00126906
0.00757917
-0.00129371
0.00757139
-0.00135323
0.00756367
-0.0013716
0.00755539
-0.00141285
0.00754807
-0.00134452
0.00754057
-0.00128524
0.0075353
-0.00107806
0.00753076
-0.000779972
0.00753007
-0.000378676
0.00753208
0.000350861
0.00753977
0.00098673
0.00755461
0.00242067
0.00757743
0.00335169
0.00761567
0.00570257
0.00780216
0.00747472
-0.0131434
0.0073896
-0.0112424
0.00733281
-0.00736835
0.00731327
-0.00167052
0.00733155
0.00412055
0.00737883
0.00800539
0.00743957
0.00928359
0.00749791
0.00862938
0.00754666
0.00731642
0.00758668
0.00616085
0.00762076
0.00530743
0.00765072
0.00465913
0.00767714
0.00409181
0.00770059
0.00360916
0.00772121
0.00316239
0.00773954
0.00279566
0.00775545
0.00242918
0.00776961
0.00215493
0.00778167
0.00185069
0.00779239
0.00164821
0.0078012
0.001383
0.00780907
0.00124112
0.00781499
0.000982953
0.00782046
0.000910864
0.00782392
0.000652122
0.00782743
0.000646968
0.00782874
0.000374211
0.00783073
0.000448847
0.00783014
0.000135087
0.00783113
0.000323853
0.00782895
-5.5497e-05
0.0078294
0.000264758
0.00782584
-0.000204291
0.00782632
0.000299401
0.00782173
-0.000276237
0.007823
0.000454671
0.00781807
-0.000247919
0.00782156
0.000799413
0.00781804
-1.60178e-05
0.00782666
0.00144072
0.00782848
0.000544465
0.00784675
0.00241718
0.00785741
0.00126357
0.0078862
0.0032251
0.00790112
0.00124656
0.00792877
0.00261629
0.00792804
-0.000869822
0.00793182
-0.000609662
0.00790493
-0.00481629
0.00787244
-0.0072712
0.00780377
-0.0131187
0.00763262
-0.029132
0.00734395
-0.0460116
0.00739071
0.00389802
0.00760254
0.0313823
0.00771308
0.0188575
0.00772688
0.00637844
0.00773222
0.00395433
0.00771624
7.7815e-06
0.00772124
0.00171337
0.0077143
-0.00030522
0.00772298
0.00149383
0.00771981
2.02635e-05
0.00772922
0.00153797
0.00772998
0.000352634
0.00774031
0.00140065
0.00774222
0.000235822
0.00774913
0.000777921
0.0077473
-0.00034526
0.00774705
-0.000138787
0.00773867
-0.00111576
0.0077304
-0.00106958
0.00771613
-0.00180136
0.00770219
-0.00174856
0.00768497
-0.002167
0.00766938
-0.00199488
0.00765338
-0.00210649
0.00764005
-0.00184024
0.0076278
-0.00177322
0.00761805
-0.00151779
0.00760934
-0.00143764
0.00760196
-0.00129749
0.00759486
-0.0012749
0.00758782
-0.00126202
0.00758062
-0.00128651
0.00757284
-0.00134545
0.00756513
-0.00136389
0.00755689
-0.00140461
0.00754962
-0.00133726
0.00754219
-0.00127781
0.00753701
-0.00107288
0.0075326
-0.000775562
0.00753205
-0.000378128
0.00753426
0.000348648
0.00754216
0.000978829
0.00755729
0.00240554
0.00758039
0.00332859
0.00761896
0.00566401
0.00774714
0.00747468
-0.0130424
0.0073895
-0.0111572
0.00733274
-0.00731159
0.00731338
-0.00165116
0.00733198
0.00410195
0.00737959
0.00795779
0.00744056
0.00922261
0.00749907
0.00857087
0.00754798
0.00726751
0.00758817
0.00612066
0.00762242
0.00527319
0.00765252
0.00462904
0.00767906
0.00406528
0.00770261
0.00358561
0.00772331
0.00314168
0.00774171
0.00277726
0.00775769
0.00241321
0.0077719
0.00214072
0.00778401
0.00183858
0.00779477
0.00163744
0.00780363
0.00137415
0.00781153
0.00123321
0.00781749
0.000976992
0.007823
0.000905358
0.00782649
0.00064863
0.00783003
0.000643428
0.00783138
0.000372858
0.0078334
0.000446825
0.00783285
0.000135641
0.00783387
0.000322833
0.00783172
-5.33499e-05
0.00783221
0.00026427
0.00782869
-0.000200765
0.0078292
0.000298891
0.00782466
-0.0002717
0.00782597
0.000453357
0.00782111
-0.000243054
0.00782465
0.000795871
0.00782122
-1.25879e-05
0.00782991
0.00143203
0.0078318
0.000542572
0.00785011
0.00239887
0.00786078
0.0012529
0.00788953
0.00319635
0.00790437
0.00123173
0.00793189
0.00258877
0.00793106
-0.000868989
0.00793468
-0.000613284
0.00790757
-0.00478917
0.00787454
-0.00723818
0.00780511
-0.0130493
0.00763266
-0.0289596
0.00734242
-0.0457214
0.007389
0.00385144
0.00760176
0.0311695
0.00771306
0.0187461
0.00772756
0.00636395
0.00773332
0.00394857
0.00771757
2.35302e-05
0.00772266
0.00170829
0.00771574
-0.000298299
0.00772441
0.00148515
0.00772126
2.34212e-05
0.00773068
0.00152855
0.00773144
0.000351872
0.00774175
0.00139034
0.00774364
0.00023394
0.00775053
0.000771031
0.00774869
-0.000343419
0.00774844
-0.000138539
0.00774008
-0.0011074
0.00773184
-0.00106134
0.00771761
-0.00178714
0.00770371
-0.00173467
0.00768654
-0.00214983
0.00767098
-0.00197932
0.007655
-0.00209051
0.00764168
-0.00182691
0.00762942
-0.00176096
0.00761964
-0.00150801
0.00761089
-0.00142889
0.00760347
-0.00129007
0.00759635
-0.00126777
0.00758928
-0.00125495
0.00758207
-0.00127929
0.00757429
-0.00133768
0.0075666
-0.0013562
0.00755839
-0.0013964
0.00755118
-0.00133004
0.00754382
-0.00127045
0.00753872
-0.00106778
0.00753444
-0.000771278
0.00753402
-0.000377716
0.00753644
0.000346232
0.00754455
0.000970721
0.00755996
0.00239013
0.00758334
0.00330521
0.00762222
0.00562513
0.0076918
0.00747464
-0.0129412
0.00738941
-0.011072
0.00733266
-0.00725484
0.00731349
-0.00163199
0.00733241
0.00408303
0.00738034
0.00790985
0.00744155
0.00916141
0.00750022
0.0085122
0.0075493
0.00721844
0.00758966
0.0060803
0.00762406
0.00523879
0.0076543
0.0045988
0.00768096
0.00403862
0.00770461
0.00356196
0.0077254
0.00312089
0.00774387
0.00275878
0.00775991
0.00239717
0.00777418
0.00212645
0.00778633
0.00182642
0.00779715
0.00162663
0.00780604
0.00136526
0.00781398
0.00122527
0.00781998
0.000970993
0.00782552
0.000899817
0.00782905
0.000645101
0.00783262
0.000639855
0.00783401
0.00037147
0.00783607
0.000444771
0.00783555
0.00013616
0.0078366
0.000321781
0.00783449
-5.12392e-05
0.00783501
0.000263751
0.00783152
-0.000197278
0.00783206
0.000298346
0.00782758
-0.000267211
0.00782893
0.000452
0.00782413
-0.000238253
0.00782773
0.00079227
0.00782438
-9.23973e-06
0.00783314
0.00142328
0.0078351
0.000540606
0.00785345
0.00238052
0.00786414
0.00124222
0.00789284
0.00316765
0.0079076
0.00121696
0.007935
0.00256137
0.00793407
-0.000868059
0.00793752
-0.000616742
0.0079102
-0.00476185
0.00787662
-0.0072046
0.00780643
-0.0129791
0.00763268
-0.0287858
0.00734087
-0.0454296
0.00738728
0.00380502
0.00760095
0.0309558
0.00771302
0.0186341
0.0077282
0.00634877
0.0077344
0.00394237
0.00771888
3.90506e-05
0.00772406
0.0017031
0.00771716
-0.0002914
0.00772584
0.00147648
0.0077227
2.65585e-05
0.00773214
0.00151911
0.0077329
0.000351106
0.0077432
0.00138004
0.00774506
0.00023208
0.00775192
0.000764165
0.00775007
-0.000341566
0.00774982
-0.000138289
0.00774148
-0.00109906
0.00773327
-0.00105313
0.00771909
-0.00177295
0.00770524
-0.00172082
0.00768811
-0.00213271
0.00767259
-0.00196379
0.00765663
-0.00207455
0.00764331
-0.00181359
0.00763103
-0.00174869
0.00762122
-0.0014982
0.00761244
-0.00142011
0.00760499
-0.00128263
0.00759783
-0.00126061
0.00759074
-0.00124786
0.00758352
-0.00127207
0.00757575
-0.00132991
0.00756807
-0.00134852
0.0075599
-0.00138823
0.00755273
-0.00132287
0.00754544
-0.00126317
0.00754043
-0.00106276
0.00753627
-0.000767122
0.00753599
-0.00037744
0.00753861
0.000343615
0.00754693
0.000962407
0.00756262
0.00237444
0.00758628
0.00328155
0.00762546
0.00558595
0.00763616
0.0074746
-0.0128401
0.00738931
-0.0109867
0.00733258
-0.00719811
0.00731359
-0.00161299
0.00733283
0.00406379
0.00738109
0.00786159
0.00744253
0.00909997
0.00750137
0.00845336
0.0075506
0.0071692
0.00759113
0.00603976
0.0076257
0.00520422
0.00765607
0.00456842
0.00768285
0.00401184
0.0077066
0.00353821
0.00772747
0.00310001
0.00774602
0.00274024
0.00776212
0.00238106
0.00777644
0.00211213
0.00778865
0.00181422
0.00779951
0.00161577
0.00780844
0.00135632
0.00781642
0.00121729
0.00782246
0.000964957
0.00782804
0.000894241
0.0078316
0.000641537
0.00783521
0.000636249
0.00783663
0.000370046
0.00783872
0.000442684
0.00783823
0.000136643
0.00783932
0.000320698
0.00783724
-4.91647e-05
0.00783779
0.000263201
0.00783435
-0.00019383
0.00783492
0.000297768
0.00783048
-0.00026277
0.00783188
0.000450599
0.00782714
-0.000233515
0.0078308
0.000788609
0.00782754
-5.97226e-06
0.00783636
0.00141446
0.0078384
0.000538568
0.00785678
0.00236214
0.00786748
0.00123152
0.00789613
0.003139
0.00791082
0.00120227
0.00793809
0.00253411
0.00793706
-0.00086703
0.00794035
-0.000620034
0.0079128
-0.0047343
0.00787868
-0.00717048
0.00780773
-0.0129081
0.00763268
-0.0286108
0.00733931
-0.0451362
0.00738554
0.00375879
0.00760011
0.0307413
0.00771294
0.0185212
0.00772881
0.0063329
0.00773545
0.00393572
0.00772017
5.43341e-05
0.00772545
0.00169781
0.00771858
-0.000284524
0.00772725
0.0014678
0.00772414
2.96727e-05
0.00773359
0.00150966
0.00773436
0.000350334
0.00774464
0.00136976
0.00774648
0.000230243
0.00775332
0.000757324
0.00775146
-0.000339703
0.00775121
-0.000138038
0.00774289
-0.00109074
0.00773471
-0.00104495
0.00772057
-0.00175881
0.00770677
-0.00170702
0.00768969
-0.00211563
0.00767419
-0.0019483
0.00765826
-0.00205861
0.00764494
-0.00180027
0.00763265
-0.0017364
0.00762281
-0.00148836
0.00761399
-0.00141129
0.00760651
-0.00127514
0.00759931
-0.00125342
0.0075922
-0.00124074
0.00758497
-0.00126484
0.0075772
-0.00132214
0.00756954
-0.00134086
0.0075614
-0.00138009
0.00755428
-0.00131575
0.00754707
-0.00125596
0.00754213
-0.00105783
0.0075381
-0.000763091
0.00753796
-0.000377297
0.00754078
0.000340799
0.00754929
0.000953889
0.00756526
0.00235847
0.0075892
0.00325761
0.00762869
0.00554646
0.00758022
0.00747457
-0.0127389
0.00738923
-0.0109014
0.00733251
-0.0071414
0.00731369
-0.00159418
0.00733324
0.00404424
0.00738183
0.00781301
0.0074435
0.0090383
0.0075025
0.00839435
0.0075519
0.0071198
0.0075926
0.00599906
0.00762732
0.00516951
0.00765784
0.00453791
0.00768473
0.00398495
0.00770858
0.00351436
0.00772954
0.00307905
0.00774816
0.00272162
0.00776433
0.0023649
0.0077787
0.00209776
0.00779096
0.00180196
0.00780186
0.00160487
0.00781084
0.00134734
0.00781885
0.00120927
0.00782493
0.000958883
0.00783054
0.00088863
0.00783414
0.000637938
0.00783778
0.000632609
0.00783924
0.000368587
0.00784136
0.000440565
0.00784091
0.00013709
0.00784202
0.000319582
0.00783999
-4.71265e-05
0.00784057
0.000262619
0.00783716
-0.000190421
0.00783777
0.000297156
0.00783338
-0.000258376
0.00783482
0.000449156
0.00783014
-0.00022884
0.00783386
0.000784889
0.00783068
-2.78541e-06
0.00783957
0.00140557
0.00784168
0.000536458
0.00786009
0.00234372
0.00787081
0.0012208
0.00789941
0.00311039
0.00791403
0.00118766
0.00794116
0.00250697
0.00794003
-0.000865901
0.00794316
-0.000623158
0.00791539
-0.00470654
0.00788072
-0.00713581
0.00780901
-0.0128364
0.00763266
-0.0284344
0.00733774
-0.0448413
0.00738379
0.00371275
0.00759924
0.0305258
0.00771282
0.0184077
0.00772938
0.00631633
0.00773648
0.00392863
0.00772143
6.9377e-05
0.00772683
0.00169242
0.00771998
-0.000277676
0.00772866
0.00145912
0.00772557
3.27611e-05
0.00773504
0.00150019
0.00773582
0.000349553
0.00774609
0.00135949
0.00774791
0.000228425
0.00775473
0.000750506
0.00775285
-0.000337829
0.0077526
-0.000137785
0.0077443
-0.00108244
0.00773615
-0.0010368
0.00772205
-0.00174471
0.00770829
-0.00169326
0.00769126
-0.00209859
0.0076758
-0.00193284
0.00765988
-0.00204269
0.00764657
-0.00178695
0.00763426
-0.00172409
0.0076244
-0.0014785
0.00761555
-0.00140243
0.00760802
-0.00126762
0.0076008
-0.0012462
0.00759367
-0.00123361
0.00758642
-0.0012576
0.00757866
-0.00131438
0.00757101
-0.00133322
0.00756291
-0.00137198
0.00755583
-0.00130866
0.00754869
-0.00124882
0.00754384
-0.00105297
0.00753993
-0.000759184
0.00753992
-0.000377288
0.00754293
0.000337786
0.00755165
0.000945168
0.0075679
0.00234222
0.00759211
0.00323339
0.0076319
0.00550667
0.00752397
0.00747453
-0.0126377
0.00738914
-0.010816
0.00733244
-0.0070847
0.0073138
-0.00157553
0.00733366
0.00402438
0.00738256
0.00776411
0.00744446
0.0089764
0.00750363
0.00833518
0.00755319
0.00707024
0.00759406
0.0059582
0.00762894
0.00513463
0.00765959
0.00450726
0.0076866
0.00395794
0.00771055
0.00349041
0.00773159
0.003058
0.00775029
0.00270293
0.00776652
0.00234866
0.00778095
0.00208333
0.00779325
0.00178965
0.0078042
0.00159393
0.00781322
0.00133832
0.00782128
0.00120122
0.00782739
0.000952773
0.00783303
0.000882984
0.00783667
0.000634304
0.00784034
0.000628936
0.00784183
0.000367093
0.00784399
0.000438413
0.00784357
0.000137502
0.00784472
0.000318435
0.00784272
-4.51242e-05
0.00784333
0.000262007
0.00783996
-0.000187051
0.00784061
0.00029651
0.00783626
-0.000254029
0.00783775
0.000447669
0.00783313
-0.000224228
0.00783691
0.00078111
0.0078338
3.22316e-07
0.00784276
0.00139661
0.00784494
0.000534277
0.00786339
0.00232527
0.00787412
0.00121008
0.00790267
0.00308184
0.00791721
0.00117312
0.00794422
0.00247997
0.00794299
-0.000864672
0.00794595
-0.000626116
0.00791796
-0.00467855
0.00788274
-0.00710059
0.00781027
-0.0127639
0.00763262
-0.0282568
0.00733617
-0.0445448
0.00738202
0.00366689
0.00759834
0.0303095
0.00771267
0.0182933
0.00772993
0.00629908
0.00773748
0.00392108
0.00772268
8.41711e-05
0.00772819
0.00168691
0.00772137
-0.000270856
0.00773005
0.00145044
0.00772699
3.58213e-05
0.00773649
0.0014907
0.00773728
0.000348762
0.00774753
0.00134924
0.00774933
0.000226627
0.00775613
0.000743711
0.00775424
-0.000335943
0.00775399
-0.000137531
0.00774571
-0.00107415
0.00773759
-0.00102869
0.00772353
-0.00173066
0.00770982
-0.00167955
0.00769283
-0.0020816
0.00767741
-0.00191742
0.00766151
-0.00202679
0.00764819
-0.00177364
0.00763588
-0.00171178
0.00762599
-0.00146861
0.0076171
-0.00139355
0.00760954
-0.00126006
0.00760229
-0.00123894
0.00759513
-0.00122645
0.00758787
-0.00125034
0.00758011
-0.00130662
0.00757249
-0.00132559
0.00756441
-0.00136391
0.00755738
-0.00130163
0.00755031
-0.00124175
0.00754554
-0.0010482
0.00754175
-0.000755401
0.00754188
-0.000377411
0.00754509
0.000334576
0.00755401
0.000936246
0.00757052
0.00232571
0.00759501
0.00320891
0.00763509
0.00546659
0.00746744
0.0074745
-0.0125364
0.00738906
-0.0107305
0.00733237
-0.00702802
0.0073139
-0.00155706
0.00733407
0.00400421
0.00738329
0.00771489
0.00744542
0.00891427
0.00750476
0.00827583
0.00755448
0.00702052
0.00759552
0.00591716
0.00763055
0.0050996
0.00766133
0.00447647
0.00768846
0.00393081
0.00771251
0.00346637
0.00773364
0.00303687
0.0077524
0.00268417
0.0077687
0.00233237
0.00778318
0.00206884
0.00779554
0.0017773
0.00780653
0.00158293
0.00781559
0.00132926
0.00782368
0.00119312
0.00782983
0.000946625
0.00783551
0.000877303
0.00783918
0.000630634
0.00784289
0.00062523
0.00784442
0.000365564
0.0078466
0.000436228
0.00784623
0.000137878
0.00784741
0.000317255
0.00784544
-4.31585e-05
0.00784608
0.000261364
0.00784275
-0.000183719
0.00784343
0.00029583
0.00783913
-0.000249729
0.00784066
0.00044614
0.00783611
-0.000219677
0.00783995
0.000777273
0.00783692
3.35097e-06
0.00784594
0.00138759
0.00784819
0.000532027
0.00786668
0.00230679
0.00787741
0.00119934
0.00790592
0.00305333
0.00792039
0.00115865
0.00794726
0.00245309
0.00794593
-0.00086334
0.00794872
-0.000628907
0.00792051
-0.00465033
0.00788474
-0.00706482
0.00781151
-0.0126907
0.00763257
-0.0280779
0.00733458
-0.0442468
0.00738024
0.00362124
0.00759741
0.0300923
0.00771249
0.0181782
0.00773045
0.00628113
0.00773846
0.00391307
0.00772392
9.87129e-05
0.00772954
0.00168129
0.00772275
-0.000264066
0.00773144
0.00144174
0.00772841
3.88507e-05
0.00773793
0.00148118
0.00773873
0.000347957
0.00774898
0.00133899
0.00775076
0.000224849
0.00775753
0.00073694
0.00775563
-0.000334047
0.00775538
-0.000137276
0.00774711
-0.00106589
0.00773903
-0.0010206
0.00772502
-0.00171665
0.00771135
-0.00166589
0.00769441
-0.00206466
0.00767902
-0.00190203
0.00766314
-0.00201091
0.00764982
-0.00176032
0.00763749
-0.00169945
0.00762758
-0.00145869
0.00761865
-0.00138463
0.00761106
-0.00125247
0.00760378
-0.00123166
0.00759659
-0.00121927
0.00758933
-0.00124307
0.00758157
-0.00129886
0.00757396
-0.00131797
0.00756592
-0.00135587
0.00755892
-0.00129463
0.00755193
-0.00123475
0.00754723
-0.00104351
0.00754357
-0.00075174
0.00754383
-0.000377665
0.00754723
0.000331172
0.00755635
0.000927125
0.00757314
0.00230892
0.00759789
0.00318415
0.00763827
0.00542621
0.00741061
0.00747447
-0.0124351
0.00738898
-0.010645
0.00733231
-0.00697135
0.007314
-0.00153875
0.00733447
0.00398374
0.00738401
0.00766536
0.00744637
0.00885191
0.00750587
0.00821633
0.00755576
0.00697063
0.00759696
0.00587596
0.00763215
0.00506441
0.00766307
0.00444555
0.00769031
0.00390357
0.00771446
0.00344222
0.00773567
0.00301565
0.00775451
0.00266533
0.00777086
0.00231601
0.00778541
0.0020543
0.00779781
0.00176489
0.00780885
0.0015719
0.00781795
0.00132016
0.00782608
0.00118499
0.00783227
0.00094044
0.00783798
0.000871587
0.00784169
0.000626929
0.00784543
0.00062149
0.00784699
0.000364
0.00784921
0.00043401
0.00784887
0.000138219
0.00785008
0.000316044
0.00784815
-4.12285e-05
0.00784882
0.000260689
0.00784553
-0.000180426
0.00784624
0.000295117
0.00784199
-0.000245477
0.00784356
0.000444567
0.00783908
-0.000215189
0.00784297
0.000773378
0.00784002
6.3015e-06
0.0078491
0.00137851
0.00785142
0.000529707
0.00786994
0.00228827
0.00788069
0.00118859
0.00790915
0.00302487
0.00792354
0.00114426
0.00795029
0.00242634
0.00794886
-0.000861906
0.00795148
-0.00063153
0.00792304
-0.00462188
0.00788672
-0.00702851
0.00781273
-0.0126167
0.0076325
-0.0278976
0.00733299
-0.0439473
0.00737844
0.00357579
0.00759645
0.0298743
0.00771228
0.0180624
0.00773093
0.00626248
0.00773941
0.00390459
0.00772513
0.000112995
0.00773087
0.00167554
0.00772412
-0.00025731
0.00773282
0.00143304
0.00772982
4.1847e-05
0.00773937
0.00147164
0.00774019
0.000347138
0.00775042
0.00132875
0.00775218
0.000223088
0.00775893
0.000730191
0.00775703
-0.00033214
0.00775677
-0.000137019
0.00774852
-0.00105764
0.00774047
-0.00101254
0.0077265
-0.00170268
0.00771288
-0.00165227
0.00769598
-0.00204776
0.00768063
-0.00188668
0.00766476
-0.00199505
0.00765145
-0.00174701
0.00763911
-0.0016871
0.00762916
-0.00144875
0.00762021
-0.00137567
0.00761258
-0.00124484
0.00760526
-0.00122434
0.00759806
-0.00121206
0.00759078
-0.00123579
0.00758303
-0.00129111
0.00757543
-0.00131038
0.00756742
-0.00134787
0.00756047
-0.00128768
0.00755354
-0.00122782
0.00754893
-0.0010389
0.00754539
-0.000748201
0.00754577
-0.000378048
0.00754937
0.000327576
0.00755869
0.000917806
0.00757574
0.00229187
0.00760076
0.00315913
0.00764143
0.00538555
0.00735349
0.00747444
-0.0123338
0.0073889
-0.0105595
0.00733225
-0.0069147
0.00731411
-0.00152061
0.00733488
0.00396297
0.00738472
0.00761551
0.00744731
0.00878932
0.00750698
0.00815665
0.00755703
0.00692058
0.0075984
0.00583459
0.00763374
0.00502907
0.00766479
0.00441449
0.00769215
0.00387621
0.00771639
0.00341798
0.00773769
0.00299435
0.0077566
0.00264642
0.00777302
0.00229959
0.00778762
0.00203971
0.00780007
0.00175244
0.00781115
0.00156082
0.00782029
0.00131102
0.00782847
0.00117682
0.00783469
0.000934217
0.00784044
0.000865837
0.00784418
0.000623188
0.00784795
0.000617718
0.00784955
0.000362402
0.0078518
0.00043176
0.0078515
0.000138524
0.00785274
0.000314801
0.00785085
-3.93347e-05
0.00785155
0.000259983
0.0078483
-0.000177171
0.00784904
0.00029437
0.00784484
-0.000241271
0.00784645
0.000442952
0.00784203
-0.000210763
0.00784598
0.000769426
0.00784311
9.17397e-06
0.00785226
0.00136936
0.00785464
0.000527319
0.0078732
0.00226972
0.00788396
0.00117783
0.00791237
0.00299646
0.00792668
0.00112995
0.00795331
0.00239971
0.00795177
-0.000860367
0.00795422
-0.000633983
0.00792554
-0.00459321
0.00788869
-0.00699165
0.00781394
-0.012542
0.00763241
-0.0277161
0.00733139
-0.0436463
0.00737662
0.00353056
0.00759546
0.0296555
0.00771204
0.0179458
0.00773139
0.00624314
0.00774034
0.00389563
0.00772632
0.000127013
0.00773219
0.00166968
0.00772547
-0.00025059
0.00773419
0.00142432
0.00773123
4.48079e-05
0.0077408
0.00146206
0.00774164
0.000346303
0.00775187
0.00131852
0.00775361
0.000221345
0.00776034
0.000723465
0.00775842
-0.000330221
0.00775816
-0.000136762
0.00774993
-0.00104942
0.00774191
-0.00100452
0.00772798
-0.00168875
0.00771441
-0.0016387
0.00769755
-0.0020309
0.00768223
-0.00187135
0.00766639
-0.00197921
0.00765308
-0.0017337
0.00764072
-0.00167475
0.00763075
-0.00143878
0.00762176
-0.00136668
0.0076141
-0.00123718
0.00760675
-0.00121699
0.00759952
-0.00120484
0.00759223
-0.0012285
0.00758448
-0.00128335
0.00757689
-0.00130279
0.00756892
-0.00133989
0.00756201
-0.00128078
0.00755515
-0.00122096
0.00755062
-0.00103436
0.0075472
-0.000744783
0.00754771
-0.000378561
0.0075515
0.000323788
0.00756102
0.00090829
0.00757833
0.00227455
0.00760362
0.00313384
0.00764457
0.0053446
0.00729608
0.00747441
-0.0122325
0.00738882
-0.0104739
0.00733218
-0.00685806
0.00731421
-0.00150263
0.00733528
0.0039419
0.00738543
0.00756535
0.00744825
0.00872651
0.00750809
0.00809681
0.0075583
0.00687037
0.00759983
0.00579306
0.00763532
0.00499358
0.00766651
0.00438331
0.00769398
0.00384874
0.00771832
0.00339364
0.00773971
0.00297297
0.00775868
0.00262744
0.00777517
0.00228311
0.00778982
0.00202506
0.00780232
0.00173993
0.00781344
0.0015497
0.00782263
0.00130183
0.00783084
0.00116861
0.0078371
0.000927958
0.00784288
0.000860051
0.00784666
0.000619413
0.00785047
0.000613911
0.0078521
0.000360768
0.00785438
0.000429478
0.00785411
0.000138794
0.00785539
0.000313526
0.00785353
-3.74771e-05
0.00785427
0.000259246
0.00785105
-0.000173955
0.00785183
0.000293589
0.00784767
-0.000237111
0.00784933
0.000441293
0.00784497
-0.000206398
0.00784898
0.000765415
0.00784618
1.19698e-05
0.00785539
0.00136015
0.00785785
0.000524863
0.00787643
0.00225113
0.0078872
0.00116706
0.00791557
0.00296809
0.00792981
0.00111571
0.0079563
0.00237321
0.00795466
-0.000858725
0.00795695
-0.000636268
0.00792804
-0.0045643
0.00789063
-0.00695425
0.00781513
-0.0124665
0.00763231
-0.0275333
0.00732979
-0.0433438
0.0073748
0.00348555
0.00759445
0.0294358
0.00771176
0.0178285
0.00773181
0.00622309
0.00774125
0.00388619
0.0077275
0.000140762
0.0077335
0.00166368
0.00772681
-0.000243908
0.00773555
0.00141559
0.00773263
4.77306e-05
0.00774223
0.00145246
0.00774308
0.000345449
0.00775331
0.0013083
0.00775503
0.000219619
0.00776174
0.00071676
0.00775981
-0.000328291
0.00775955
-0.000136502
0.00775134
-0.00104121
0.00774335
-0.000996526
0.00772947
-0.00167486
0.00771594
-0.00162518
0.00769913
-0.00201408
0.00768384
-0.00185606
0.00766801
-0.00196338
0.0076547
-0.00172039
0.00764233
-0.00166238
0.00763234
-0.00142879
0.00762331
-0.00135766
0.00761562
-0.00122948
0.00760824
-0.00120961
0.00760099
-0.00119759
0.00759369
-0.0012212
0.00758593
-0.0012756
0.00757836
-0.00129522
0.00757042
-0.00133195
0.00756355
-0.00127391
0.00755676
-0.00121417
0.0075523
-0.0010299
0.00754901
-0.000741483
0.00754965
-0.000379201
0.00755362
0.00031981
0.00756333
0.00089858
0.00758091
0.00225697
0.00760646
0.00310829
0.0076477
0.00530337
0.00723839
0.00747439
-0.0121311
0.00738875
-0.0103883
0.00733212
-0.00680143
0.00731431
-0.00148482
0.00733567
0.00392053
0.00738614
0.00751489
0.00744918
0.00866347
0.00750918
0.00803681
0.00755956
0.00682
0.00760125
0.00575137
0.0076369
0.00495794
0.00766822
0.00435199
0.0076958
0.00382116
0.00772024
0.0033692
0.00774171
0.0029515
0.00776076
0.00260839
0.0077773
0.00226657
0.00779201
0.00201036
0.00780456
0.00172738
0.00781573
0.00153853
0.00782495
0.00129261
0.0078332
0.00116036
0.0078395
0.000921662
0.00784532
0.00085423
0.00784913
0.000615602
0.00785297
0.000610072
0.00785464
0.000359099
0.00785695
0.000427162
0.00785672
0.000139029
0.00785802
0.000312218
0.0078562
-3.56549e-05
0.00785697
0.000258478
0.00785379
-0.000170777
0.00785461
0.000292774
0.00785049
-0.000232998
0.00785219
0.000439592
0.00784789
-0.000202094
0.00785196
0.000761348
0.00784924
1.46891e-05
0.00785851
0.00135087
0.00786104
0.00052234
0.00787965
0.00223252
0.00789043
0.00115628
0.00791875
0.00293978
0.00793291
0.00110155
0.00795928
0.00234684
0.00795754
-0.000856976
0.00795965
-0.000638383
0.0079305
-0.00453515
0.00789256
-0.0069163
0.0078163
-0.0123902
0.0076322
-0.0273492
0.00732818
-0.0430398
0.00737296
0.00344078
0.00759341
0.0292154
0.00771146
0.0177105
0.00773221
0.00620234
0.00774213
0.00387627
0.00772866
0.000154237
0.00773479
0.00165755
0.00772815
-0.000237266
0.0077369
0.00140684
0.00773401
5.06141e-05
0.00774365
0.00144282
0.00774453
0.000344574
0.00775475
0.00129808
0.00775646
0.000217909
0.00776314
0.000710077
0.0077612
-0.000326349
0.00776094
-0.000136241
0.00775275
-0.00103303
0.00774479
-0.000988565
0.00773095
-0.00166102
0.00771747
-0.0016117
0.0077007
-0.00199731
0.00768544
-0.00184081
0.00766963
-0.00194758
0.00765632
-0.00170708
0.00764394
-0.00164999
0.00763392
-0.00141877
0.00762487
-0.0013486
0.00761713
-0.00122175
0.00760972
-0.00120221
0.00760245
-0.00119032
0.00759514
-0.00121388
0.00758739
-0.00126785
0.00757983
-0.00128766
0.00757192
-0.00132404
0.00756509
-0.00126709
0.00755837
-0.00120745
0.00755399
-0.00102552
0.00755081
-0.000738303
0.00755157
-0.000379968
0.00755574
0.000315645
0.00756564
0.000888676
0.00758348
0.00223914
0.00760929
0.00308248
0.00765081
0.00526185
0.00718042
0.00747436
-0.0120297
0.00738868
-0.0103026
0.00733206
-0.00674481
0.00731441
-0.00146716
0.00733606
0.00389888
0.00738684
0.00746411
0.0074501
0.00860021
0.00751027
0.00797663
0.00756081
0.00676947
0.00760266
0.00570951
0.00763846
0.00492214
0.00766991
0.00432053
0.00769761
0.00379346
0.00772214
0.00334467
0.00774369
0.00292996
0.00776282
0.00258927
0.00777942
0.00224996
0.00779418
0.0019956
0.00780678
0.00171478
0.007818
0.00152732
0.00782726
0.00128334
0.00783555
0.00115207
0.00784188
0.000915328
0.00784774
0.000848375
0.00785158
0.000611756
0.00785546
0.000606199
0.00785716
0.000357396
0.00785951
0.000424815
0.00785931
0.000139228
0.00786065
0.00031088
0.00785886
-3.38687e-05
0.00785966
0.000257679
0.00785652
-0.000167637
0.00785737
0.000291926
0.0078533
-0.000228932
0.00785504
0.000437849
0.0078508
-0.000197851
0.00785493
0.000757224
0.00785228
1.73325e-05
0.00786162
0.00134153
0.00786421
0.000519751
0.00788286
0.00221387
0.00789365
0.00114549
0.00792192
0.00291151
0.007936
0.00108747
0.00796225
0.00232059
0.00796039
-0.000855122
0.00796234
-0.000640328
0.00793295
-0.00450577
0.00789446
-0.00687781
0.00781746
-0.0123132
0.00763207
-0.0271638
0.00732657
-0.0427343
0.0073711
0.00339624
0.00759234
0.0289942
0.00771113
0.0175917
0.00773258
0.00618088
0.007743
0.00386585
0.0077298
0.000167433
0.00773606
0.00165129
0.00772947
-0.000230667
0.00773824
0.00139806
0.0077354
5.34557e-05
0.00774507
0.00143315
0.00774597
0.000343678
0.00775618
0.00128786
0.00775788
0.000216214
0.00776454
0.000703415
0.00776259
-0.000324397
0.00776233
-0.000135979
0.00775416
-0.00102486
0.00774623
-0.000980635
0.00773243
-0.00164722
0.00771899
-0.00159826
0.00770226
-0.00198058
0.00768704
-0.00182558
0.00767125
-0.00193179
0.00765794
-0.00169378
0.00764555
-0.0016376
0.0076355
-0.00140872
0.00762641
-0.00133951
0.00761865
-0.00121398
0.00761121
-0.00119477
0.00760391
-0.00118302
0.00759658
-0.00120656
0.00758883
-0.0012601
0.00758129
-0.00128012
0.00757341
-0.00131616
0.00756663
-0.0012603
0.00755997
-0.00120079
0.00755566
-0.00102122
0.0075526
-0.00073524
0.00755349
-0.000380862
0.00755785
0.000311292
0.00756794
0.00087858
0.00758604
0.00222104
0.00761211
0.00305641
0.0076539
0.00522007
0.00712218
0.00747434
-0.0119283
0.00738861
-0.0102168
0.00733201
-0.00668821
0.00731451
-0.00144966
0.00733645
0.00387693
0.00738753
0.00741303
0.00745102
0.00853672
0.00751136
0.00791629
0.00756205
0.00671877
0.00760407
0.00566749
0.00764002
0.0048862
0.0076716
0.00428895
0.00769941
0.00376565
0.00772404
0.00332004