/*--------------------------------*- C++ -*----------------------------------*\
| =========                 |                                                 |
| \\      /  F ield         | OpenFOAM: The Open Source CFD Toolbox           |
|  \\    /   O peration     | Version:  2412                                  |
|   \\  /    A nd           | Website:  www.openfoam.com                      |
|    \\/     M anipulation  |                                                 |
\*---------------------------------------------------------------------------*/
FoamFile
{
    version     2.0;
    format      ascii;
    arch        "LSB;label=32;scalar=64";
    class       volVectorField;
    location    "0.3";
    object      U;
}
// * * * * * * * * * * * * * * * * * * * * * * * * * * * * * * * * * * * * * //

dimensions      [0 1 -1 0 0 0 0];

internalField   nonuniform List<vector> 
13068
(
(100.006 0.424952 0)
(100.149 1.7518 -4.29806e-17)
(100.61 4.42584 -4.11082e-17)
(101.56 8.36647 0)
(103.117 12.4268 0)
(105.225 15.2744 0)
(107.751 16.4187 0)
(110.416 16.2811 8.62226e-17)
(113.061 15.7019 0)
(115.623 15.2194 -4.05602e-17)
(118.196 14.9451 0)
(120.763 14.8077 0)
(123.41 14.7358 0)
(126.062 14.7224 0)
(128.834 14.7456 0)
(131.606 14.8268 3.48933e-17)
(134.547 14.9303 -3.41068e-17)
(137.472 15.092 3.32513e-17)
(140.625 15.2596 3.24576e-17)
(143.733 15.4923 3.15702e-17)
(147.148 15.7136 3.07723e-17)
(150.47 16.0153 -9.91369e-22)
(154.206 16.2844 2.90474e-17)
(157.773 16.659 -2.80707e-17)
(161.902 16.9728 -8.85261e-22)
(165.749 17.4296 0)
(170.362 17.7865 0)
(174.527 18.3403 2.43703e-17)
(179.741 18.7398 -2.36451e-17)
(184.263 19.4102 0)
(190.23 19.8535 2.17726e-17)
(195.156 20.668 0)
(202.075 21.1616 0)
(207.456 22.1557 1.83824e-17)
(215.588 22.7128 -3.58787e-17)
(221.492 23.9297 0)
(231.188 24.5796 1.59915e-17)
(237.719 26.0824 -1.40345e-17)
(249.46 26.8983 2.80604e-22)
(256.819 28.7816 -1.17461e-17)
(271.307 29.8591 2.42027e-17)
(279.885 32.1723 9.41934e-18)
(298.094 33.5018 -2.44208e-22)
(308.425 36.0991 7.09101e-18)
(331.474 37.4201 8.57166e-18)
(343.943 39.8657 4.71432e-18)
(372.702 40.835 -6.90793e-18)
(387.211 42.7818 2.09766e-18)
(422.57 44.0389 -5.03295e-18)
(440.504 44.5728 8.02227e-19)
(483.762 45.6581 3.13416e-18)
(507.064 37.5938 4.14647e-18)
(548.687 34.893 1.95315e-21)
(574.476 -1.58215 -5.38893e-19)
(548.654 -16.4914 0)
(539.987 -25.8896 -5.82933e-18)
(502.312 -31.3051 0)
(486.095 -31.7465 0)
(453.231 -32.0193 0)
(438.961 -29.879 0)
(413.053 -29.3682 0)
(400.771 -27.3206 0)
(379.906 -26.8185 3.43846e-18)
(368.9 -25.0409 0)
(351.897 -24.6216 -2.26417e-22)
(342.003 -23.2301 4.03514e-18)
(327.94 -23.0046 -5.65485e-18)
(318.848 -22.0043 1.03734e-21)
(306.878 -21.8929 6.74405e-18)
(298.355 -21.1608 -1.00262e-21)
(287.891 -21.0656 -7.80706e-18)
(279.836 -20.4676 -8.00127e-18)
(270.551 -20.2949 4.36138e-22)
(263.009 -19.7274 9.16649e-18)
(254.744 -19.4196 0)
(247.797 -18.8152 1.03107e-17)
(240.481 -18.3719 1.21544e-22)
(234.21 -17.7476 -1.14319e-17)
(227.772 -17.2521 -1.20589e-17)
(222.161 -16.6881 0)
(216.463 -16.2325 2.16633e-22)
(211.425 -15.784 1.35859e-17)
(206.299 -15.4071 0)
(201.725 -15.0756 -4.33169e-22)
(197.024 -14.7597 1.51465e-17)
(192.843 -14.5035 -1.56867e-17)
(188.471 -14.2018 0)
(184.666 -13.9649 -1.67469e-17)
(180.566 -13.6306 0)
(177.154 -13.351 -3.57771e-22)
(173.286 -12.9423 5.04123e-22)
(170.315 -12.5378 0)
(166.654 -12.0167 -3.53003e-22)
(164.196 -11.3666 0)
(160.742 -10.7026 -2.02221e-17)
(158.894 -9.63908 0)
(155.724 -8.80635 0)
(154.613 -7.19039 0)
(151.918 -5.62698 0)
(100.005 0.421119 -4.59451e-17)
(100.148 1.73694 4.30073e-17)
(100.609 4.39157 -4.11241e-17)
(101.56 8.30672 0)
(103.121 12.341 0)
(105.234 15.168 0)
(107.765 16.3016 0)
(110.432 16.1636 -4.30554e-17)
(113.08 15.5887 0)
(115.645 15.11 4.05428e-17)
(118.221 14.8377 0)
(120.79 14.701 -3.82705e-17)
(123.44 14.6293 3.73776e-17)
(126.094 14.6158 3.65228e-17)
(128.869 14.6386 0)
(131.643 14.719 -3.48947e-17)
(134.585 14.8216 0)
(137.512 14.982 -6.65037e-17)
(140.667 15.1484 -3.24585e-17)
(143.777 15.3793 -3.15709e-17)
(147.194 15.599 -3.07711e-17)
(150.517 15.8985 -5.96874e-17)
(154.255 16.1657 -5.80945e-17)
(157.824 16.5376 2.80689e-17)
(161.955 16.8492 -2.72834e-17)
(165.804 17.3027 0)
(170.419 17.6572 2.54806e-17)
(174.586 18.2068 0)
(179.803 18.6036 2.36433e-17)
(184.328 19.2692 0)
(190.297 19.7095 -2.17709e-17)
(195.226 20.518 0)
(202.148 21.0084 0)
(207.533 21.9952 0)
(215.668 22.5488 1.79384e-17)
(221.576 23.7568 0)
(231.276 24.4026 -1.59899e-17)
(237.813 25.8944 1.40338e-17)
(249.559 26.7051 1.40329e-17)
(256.926 28.5743 1.11911e-21)
(271.42 29.6441 -1.21011e-17)
(280.007 31.9393 -1.88378e-17)
(298.22 33.2583 -1.02662e-17)
(308.56 35.8347 0)
(331.61 37.1447 -1.71426e-17)
(344.086 39.5711 4.71096e-18)
(372.843 40.5335 6.90512e-18)
(387.362 42.465 2.09412e-18)
(422.713 43.7103 5.03345e-18)
(440.652 44.2317 -8.02515e-19)
(483.863 45.2974 0)
(507.135 37.2769 -4.15092e-18)
(548.626 34.5725 -1.48022e-18)
(574.301 -1.57936 5.4023e-19)
(548.572 -16.339 0)
(539.961 -25.6662 0)
(502.342 -31.044 0)
(486.156 -31.4911 0)
(453.307 -31.7688 0)
(439.04 -29.6502 0)
(413.132 -29.1457 0)
(400.845 -27.1146 0)
(379.978 -26.6159 -3.43843e-18)
(368.969 -24.8522 -2.44271e-18)
(351.964 -24.4364 -4.55022e-18)
(342.067 -23.0563 -4.03492e-18)
(328 -22.8326 -5.65394e-18)
(318.906 -21.8403 5.47495e-18)
(306.933 -21.7296 0)
(298.408 -21.0029 -9.89947e-22)
(287.942 -20.908 -7.80631e-18)
(279.887 -20.3144 8.00151e-18)
(270.602 -20.1427 8.86363e-18)
(263.06 -19.5795 -9.16663e-18)
(254.795 -19.2741 0)
(247.848 -18.6745 -1.03106e-17)
(240.532 -18.2348 1.09988e-17)
(234.259 -17.6157 0)
(227.821 -17.1243 1.20585e-17)
(222.208 -16.5648 0)
(216.507 -16.1128 1.31013e-17)
(211.467 -15.6678 -2.71719e-17)
(206.339 -15.2937 0)
(201.764 -14.9645 -2.9272e-17)
(197.061 -14.651 -1.51472e-17)
(192.88 -14.3966 0)
(188.508 -14.0973 0)
(184.702 -13.8621 0)
(180.602 -13.5307 0)
(177.191 -13.2529 -1.7825e-17)
(173.325 -12.8478 1.82204e-17)
(170.355 -12.4455 0)
(166.696 -11.9291 -3.84832e-17)
(164.24 -11.2822 0)
(160.792 -10.6242 2.0227e-17)
(158.945 -9.56646 0)
(155.784 -8.74126 0)
(154.674 -7.13604 0)
(151.99 -5.58551 0)
(100.005 0.417315 4.59626e-17)
(100.147 1.7221 0)
(100.607 4.35723 8.22843e-17)
(101.56 8.24673 -4.10914e-17)
(103.124 12.2548 0)
(105.243 15.0613 -4.31734e-17)
(107.778 16.1842 0)
(110.448 16.0459 -4.29988e-17)
(113.098 15.4753 0)
(115.667 15.0004 0)
(118.246 14.7301 0)
(120.818 14.5941 7.65382e-17)
(123.47 14.5227 -3.73786e-17)
(126.126 14.509 -3.65243e-17)
(128.903 14.5314 0)
(131.679 14.6111 0)
(134.624 14.7128 0)
(137.552 14.8719 6.65038e-17)
(140.709 15.037 0)
(143.82 15.2662 0)
(147.239 15.4843 8.64709e-22)
(150.564 15.7816 2.98435e-17)
(154.304 16.0469 8.69682e-22)
(157.875 16.416 -2.8069e-17)
(162.008 16.7255 -2.72817e-17)
(165.859 17.1756 -2.62436e-17)
(170.477 17.5276 -2.54805e-17)
(174.646 18.0732 0)
(179.864 18.4674 -2.3643e-17)
(184.392 19.1279 0)
(190.364 19.5654 2.17705e-17)
(195.295 20.3678 0)
(202.22 20.855 0)
(207.609 21.8345 0)
(215.748 22.3847 0)
(221.66 23.5836 0)
(231.364 24.2255 1.59891e-17)
(237.907 25.7062 0)
(249.658 26.5116 1.40317e-17)
(257.033 28.3667 1.11884e-21)
(271.532 29.4288 0)
(280.128 31.706 9.41842e-18)
(298.346 33.0145 0)
(308.695 35.57 0)
(331.745 36.8691 6.1577e-22)
(344.229 39.2761 -4.71087e-18)
(372.983 40.2318 -6.90462e-18)
(387.512 42.1479 -2.09423e-18)
(422.855 43.3815 -5.03174e-18)
(440.799 43.8906 8.04479e-19)
(483.964 44.9368 0)
(507.205 36.9606 0)
(548.564 34.2531 1.48701e-18)
(574.127 -1.57645 -5.3987e-19)
(548.488 -16.1872 0)
(539.933 -25.4431 0)
(502.369 -30.7833 0)
(486.215 -31.2357 3.33618e-18)
(453.382 -31.5184 0)
(439.118 -29.4213 -1.28498e-18)
(413.21 -28.9232 0)
(400.919 -26.9084 0)
(380.05 -26.4132 0)
(369.038 -24.6635 2.44258e-18)
(352.031 -24.2511 0)
(342.131 -22.8823 0)
(328.062 -22.6606 3.52012e-22)
(318.963 -21.6762 5.47284e-18)
(306.989 -21.5661 0)
(298.461 -20.845 -6.78308e-18)
(287.994 -20.7503 7.80657e-18)
(279.938 -20.1611 0)
(270.653 -19.9905 0)
(263.112 -19.4316 0)
(254.846 -19.1286 0)
(247.899 -18.5338 0)
(240.583 -18.0978 0)
(234.309 -17.4838 0)
(227.869 -16.9964 -1.20584e-17)
(222.255 -16.4415 0)
(216.552 -15.9931 0)
(211.51 -15.5515 1.35859e-17)
(206.38 -15.1802 0)
(201.803 -14.8535 1.46363e-17)
(197.099 -14.5423 0)
(192.917 -14.2898 -1.56871e-17)
(188.544 -13.9928 0)
(184.738 -13.7593 0)
(180.639 -13.4308 0)
(177.228 -13.1548 0)
(173.363 -12.7533 0)
(170.394 -12.3532 0)
(166.739 -11.8415 1.92446e-17)
(164.284 -11.1979 0)
(160.842 -10.5459 0)
(158.997 -9.49398 2.11656e-17)
(155.844 -8.67629 0)
(154.735 -7.08183 -2.22178e-17)
(152.06 -5.54417 0)
(100.005 0.413538 0)
(100.146 1.70733 0)
(100.605 4.32296 -4.11605e-17)
(101.559 8.18675 4.10881e-17)
(103.127 12.1686 0)
(105.252 14.9544 4.3115e-17)
(107.791 16.0667 4.34736e-17)
(110.464 15.928 4.2945e-17)
(113.117 15.3617 0)
(115.688 14.8907 0)
(118.27 14.6223 -3.93089e-17)
(120.845 14.4871 -3.82677e-17)
(123.5 14.4159 0)
(126.158 14.4021 0)
(128.937 14.4241 0)
(131.716 14.503 -3.48947e-17)
(134.662 14.6039 0)
(137.592 14.7617 -8.77516e-22)
(140.751 14.9255 0)
(143.864 15.1529 -3.15693e-17)
(147.284 15.3695 8.5356e-22)
(150.611 15.6645 0)
(154.353 15.928 2.90464e-17)
(157.926 16.2943 0)
(162.061 16.6016 2.72817e-17)
(165.914 17.0484 2.62435e-17)
(170.533 17.398 0)
(174.705 17.9395 2.43655e-17)
(179.926 18.3309 0)
(184.456 18.9866 0)
(190.43 19.4211 -2.17687e-17)
(195.365 20.2175 0)
(202.293 20.7015 -1.98647e-17)
(207.685 21.6737 0)
(215.827 22.2203 0)
(221.744 23.4103 -1.62418e-17)
(231.452 24.0481 -1.59874e-17)
(238.001 25.5177 0)
(249.756 26.3179 -1.40311e-17)
(257.14 28.1589 2.34847e-17)
(271.644 29.2132 1.21002e-17)
(280.249 31.4724 -9.41631e-18)
(298.472 32.7704 1.02657e-17)
(308.829 35.3051 0)
(331.88 36.5933 6.10732e-22)
(344.371 38.981 -4.70757e-18)
(373.122 39.9299 0)
(387.661 41.8306 0)
(422.996 43.0525 5.03225e-18)
(440.945 43.5494 -8.04767e-19)
(484.063 44.5765 0)
(507.274 36.6448 4.1523e-18)
(548.5 33.9346 -1.48994e-18)
(573.951 -1.57347 5.41289e-19)
(548.402 -16.036 0)
(539.903 -25.2204 0)
(502.394 -30.5228 -9.39874e-19)
(486.272 -30.9804 -3.33724e-18)
(453.456 -31.2679 0)
(439.196 -29.1924 2.56999e-18)
(413.288 -28.7005 0)
(400.991 -26.7022 6.65017e-19)
(380.121 -26.2104 0)
(369.107 -24.4747 2.44041e-18)
(352.098 -24.0657 0)
(342.195 -22.7083 4.03146e-18)
(328.123 -22.4885 5.65317e-18)
(319.021 -21.512 -5.47276e-18)
(307.044 -21.4027 6.7423e-18)
(298.514 -20.687 0)
(288.046 -20.5926 7.80584e-18)
(279.99 -20.0078 -7.99942e-18)
(270.704 -19.8383 0)
(263.163 -19.2838 0)
(254.897 -18.983 0)
(247.951 -18.393 -1.03093e-17)
(240.633 -17.9607 0)
(234.36 -17.3518 0)
(227.917 -16.8684 0)
(222.302 -16.318 0)
(216.596 -15.8732 0)
(211.553 -15.4352 0)
(206.42 -15.0666 0)
(201.842 -14.7424 0)
(197.136 -14.4336 0)
(192.954 -14.1829 4.65116e-22)
(188.58 -13.8883 1.61691e-17)
(184.775 -13.6565 0)
(180.675 -13.3309 0)
(177.265 -13.0566 0)
(173.401 -12.6588 0)
(170.434 -12.261 0)
(166.782 -11.754 0)
(164.328 -11.1137 0)
(160.892 -10.4676 0)
(159.048 -9.42159 -2.11715e-17)
(155.904 -8.61138 -2.1149e-17)
(154.795 -7.02769 5.48626e-22)
(152.13 -5.50286 0)
(100.005 0.409786 0)
(100.145 1.6926 4.30831e-17)
(100.604 4.28867 0)
(101.559 8.12663 0)
(103.131 12.0821 0)
(105.26 14.8473 4.30551e-17)
(107.804 15.9491 -4.3409e-17)
(110.48 15.81 0)
(113.135 15.248 0)
(115.709 14.7808 -4.04892e-17)
(118.294 14.5143 3.9303e-17)
(120.872 14.3799 -3.82651e-17)
(123.529 14.309 0)
(126.19 14.295 0)
(128.971 14.3167 0)
(131.752 14.3948 3.4896e-17)
(134.7 14.4948 0)
(137.632 14.6514 -3.32524e-17)
(140.792 14.8139 0)
(143.907 15.0396 3.15699e-17)
(147.329 15.2546 6.15406e-17)
(150.658 15.5473 0)
(154.401 15.8089 0)
(157.976 16.1725 0)
(162.113 16.4776 0)
(165.968 16.921 0)
(170.59 17.2682 2.54777e-17)
(174.763 17.8056 -2.43653e-17)
(179.987 18.1944 -2.36401e-17)
(184.519 18.8451 -2.24302e-17)
(190.497 19.2766 2.17683e-17)
(195.434 20.067 -2.04353e-17)
(202.365 20.5478 1.98642e-17)
(207.76 21.5126 1.83743e-17)
(215.906 22.0557 1.79341e-17)
(221.828 23.2368 1.15545e-21)
(231.539 23.8705 1.59867e-17)
(238.094 25.3291 1.40271e-17)
(249.855 26.1239 1.40299e-17)
(257.246 27.9508 -1.17415e-17)
(271.755 28.9973 -1.90834e-22)
(280.37 31.2386 9.4164e-18)
(298.596 32.526 -2.05316e-17)
(308.962 35.0399 7.08567e-18)
(332.014 36.3172 8.56958e-18)
(344.512 38.6856 4.70751e-18)
(373.26 39.6277 -6.90036e-18)
(387.809 41.513 0)
(423.137 42.7233 -5.03065e-18)
(441.089 43.2082 -8.06682e-19)
(484.161 44.2164 3.13814e-18)
(507.341 36.3297 -4.15698e-18)
(548.435 33.6171 0)
(573.776 -1.57039 5.41042e-19)
(548.315 -15.8852 0)
(539.87 -24.9981 0)
(502.416 -30.2626 9.40784e-19)
(486.328 -30.7253 0)
(453.528 -31.0175 0)
(439.272 -28.9634 -2.57023e-18)
(413.365 -28.4776 0)
(401.064 -26.4958 -6.64979e-19)
(380.192 -26.0075 0)
(369.176 -24.2858 -4.87955e-18)
(352.165 -23.8802 0)
(342.259 -22.5342 -4.03121e-18)
(328.184 -22.3163 0)
(319.079 -21.3478 0)
(307.099 -21.2391 -6.74235e-18)
(298.567 -20.5289 0)
(288.098 -20.4348 -1.56117e-17)
(280.041 -19.8544 7.99965e-18)
(270.755 -19.6861 0)
(263.214 -19.1358 0)
(254.948 -18.8374 0)
(248.002 -18.2523 1.03092e-17)
(240.684 -17.8236 1.09978e-17)
(234.41 -17.2198 0)
(227.966 -16.7404 0)
(222.348 -16.1945 0)
(216.641 -15.7533 0)
(211.595 -15.3187 1.35853e-17)
(206.461 -14.953 -1.41259e-17)
(201.881 -14.6312 0)
(197.174 -14.3247 1.51472e-17)
(192.991 -14.0759 3.13762e-17)
(188.616 -13.7838 -1.61701e-17)
(184.811 -13.5536 0)
(180.711 -13.2309 0)
(177.303 -12.9585 0)
(173.44 -12.5644 0)
(170.473 -12.1688 0)
(166.824 -11.6665 0)
(164.372 -11.0295 -2.00594e-17)
(160.941 -10.3895 2.0241e-17)
(159.099 -9.34931 0)
(155.963 -8.54657 4.23124e-17)
(154.855 -6.97367 2.22334e-17)
(152.2 -5.46166 0)
(100.005 0.406059 0)
(100.144 1.6779 -8.62203e-17)
(100.602 4.25436 0)
(101.558 8.06637 -4.10787e-17)
(103.134 11.9954 0)
(105.269 14.7399 -4.2998e-17)
(107.817 15.8312 0)
(110.496 15.6918 0)
(113.153 15.1342 4.17592e-17)
(115.73 14.6707 8.09452e-17)
(118.318 14.4062 3.92955e-17)
(120.899 14.2726 3.82642e-17)
(123.559 14.2019 -3.73782e-17)
(126.222 14.1878 3.65253e-17)
(129.005 14.2092 0)
(131.787 14.2865 0)
(134.737 14.3857 0)
(137.671 14.5409 0)
(140.833 14.7022 3.24573e-17)
(143.95 14.9261 0)
(147.374 15.1395 -3.07704e-17)
(150.704 15.43 0)
(154.45 15.6897 2.90444e-17)
(158.026 16.0506 -2.80655e-17)
(162.165 16.3535 0)
(166.022 16.7936 0)
(170.646 17.1383 -8.14739e-22)
(174.822 17.6716 2.43631e-17)
(180.048 18.0577 2.36399e-17)
(184.583 18.7034 2.24299e-17)
(190.563 19.132 2.17665e-17)
(195.503 19.9163 2.04349e-17)
(202.437 20.3939 1.98625e-17)
(207.836 21.3514 -1.83737e-17)
(215.985 21.8909 -1.79335e-17)
(221.911 23.063 1.14611e-21)
(231.626 23.6926 0)
(238.187 25.1402 -2.80519e-17)
(249.952 25.9296 -2.85991e-22)
(257.351 27.7424 0)
(271.866 28.7811 -1.20997e-17)
(280.49 31.0045 -9.41436e-18)
(298.721 32.2813 1.02659e-17)
(309.094 34.7744 -7.08592e-18)
(332.148 36.0408 0)
(344.652 38.39 -4.70429e-18)
(373.398 39.3253 6.89998e-18)
(387.957 41.1952 0)
(423.276 42.394 1.00614e-17)
(441.232 42.867 1.61475e-18)
(484.259 43.8566 -3.13954e-18)
(507.406 36.0151 0)
(548.369 33.3007 0)
(573.6 -1.56721 -1.08427e-18)
(548.225 -15.735 -7.90978e-19)
(539.836 -24.7762 0)
(502.436 -30.0026 0)
(486.382 -30.4702 -3.33865e-18)
(453.599 -30.767 -1.46497e-18)
(439.348 -28.7343 1.28507e-18)
(413.441 -28.2547 0)
(401.135 -26.2892 0)
(380.262 -25.8045 -3.43764e-18)
(369.244 -24.0968 2.43913e-18)
(352.232 -23.6947 0)
(342.323 -22.3601 4.029e-18)
(328.245 -22.1441 -5.65168e-18)
(319.137 -21.1835 0)
(307.154 -21.0755 0)
(298.621 -20.3708 0)
(288.149 -20.277 1.56113e-17)
(280.093 -19.7011 0)
(270.806 -19.5338 0)
(263.266 -18.9879 -9.16394e-18)
(255 -18.6918 -9.92467e-18)
(248.054 -18.1115 -1.03084e-17)
(240.735 -17.6864 -1.09976e-17)
(234.46 -17.0877 0)
(228.014 -16.6123 -1.20575e-17)
(222.395 -16.071 0)
(216.685 -15.6334 0)
(211.638 -15.2022 -2.71706e-17)
(206.502 -14.8394 3.72746e-22)
(201.92 -14.5199 -1.46361e-17)
(197.212 -14.2159 -1.51479e-17)
(193.028 -13.9689 -1.56887e-17)
(188.653 -13.6792 0)
(184.847 -13.4508 1.67504e-17)
(180.748 -13.131 0)
(177.34 -12.8604 -1.78303e-17)
(173.478 -12.4699 -1.82261e-17)
(170.513 -12.0766 -1.89344e-17)
(166.867 -11.579 0)
(164.416 -10.9454 2.0293e-22)
(160.991 -10.3114 -1.28056e-22)
(159.149 -9.27715 0)
(156.022 -8.48187 -4.23269e-17)
(154.915 -6.91977 -2.22404e-17)
(152.27 -5.42056 0)
(100.005 0.402355 0)
(100.143 1.66324 8.62734e-17)
(100.601 4.22005 0)
(101.558 8.006 4.10763e-17)
(103.138 11.9084 4.19634e-17)
(105.277 14.6323 -4.29394e-17)
(107.829 15.7131 0)
(110.511 15.5735 0)
(113.172 15.0202 -9.01876e-22)
(115.751 14.5605 -4.04562e-17)
(118.342 14.298 -8.20421e-22)
(120.925 14.1651 -3.82617e-17)
(123.588 14.0947 7.47574e-17)
(126.254 14.0805 -3.65268e-17)
(129.039 14.1015 0)
(131.823 14.1781 -3.48961e-17)
(134.775 14.2764 0)
(137.711 14.4304 0)
(140.875 14.5904 -6.49153e-17)
(143.993 14.8126 -3.15684e-17)
(147.419 15.0243 0)
(150.751 15.3126 0)
(154.498 15.5704 -2.90446e-17)
(158.076 15.9285 2.80657e-17)
(162.217 16.2292 0)
(166.076 16.666 0)
(170.703 17.0082 -2.54768e-17)
(174.88 17.5375 -1.03017e-21)
(180.109 17.9208 0)
(184.646 18.5616 2.24275e-17)
(190.629 18.9872 -2.17662e-17)
(195.572 19.7655 0)
(202.509 20.2398 -3.97235e-17)
(207.911 21.19 -1.83709e-17)
(216.063 21.726 -1.79318e-17)
(221.993 22.8891 1.13682e-21)
(231.713 23.5146 -1.5984e-17)
(238.28 24.951 1.40248e-17)
(250.05 25.7351 -1.40286e-17)
(257.457 27.5338 1.17377e-17)
(271.976 28.5647 0)
(280.609 30.7701 9.4145e-18)
(298.844 32.0364 1.02656e-17)
(309.226 34.5087 0)
(332.281 35.7643 0)
(344.792 38.0941 9.40697e-18)
(373.535 39.0226 0)
(388.103 40.8772 0)
(423.415 42.0644 -5.03075e-18)
(441.374 42.5258 -8.0807e-19)
(484.355 43.497 0)
(507.47 35.7012 0)
(548.302 32.9853 0)
(573.424 -1.56392 5.43278e-19)
(548.133 -15.5854 1.19098e-18)
(539.799 -24.5547 0)
(502.454 -29.7429 -9.44812e-19)
(486.434 -30.2153 3.33918e-18)
(453.669 -30.5165 1.46482e-18)
(439.423 -28.5051 0)
(413.517 -28.0317 0)
(401.206 -26.0826 0)
(380.333 -25.6015 7.97476e-23)
(369.312 -23.9078 0)
(352.299 -23.5091 4.54756e-18)
(342.387 -22.1858 -8.05652e-18)
(328.306 -21.9717 5.65144e-18)
(319.195 -21.0191 -5.46853e-18)
(307.21 -20.9119 -6.74106e-18)
(298.674 -20.2126 -6.77897e-18)
(288.201 -20.1192 -1.56109e-17)
(280.144 -19.5477 0)
(270.857 -19.3815 0)
(263.317 -18.84 1.83275e-17)
(255.051 -18.5462 9.9247e-18)
(248.105 -17.9707 2.06162e-17)
(240.786 -17.5492 1.09973e-17)
(234.51 -16.9555 0)
(228.063 -16.4842 1.20573e-17)
(222.442 -15.9473 -1.252e-17)
(216.73 -15.5133 1.31e-17)
(211.681 -15.0857 1.35853e-17)
(206.542 -14.7256 1.41262e-17)
(201.96 -14.4087 2.92728e-17)
(197.249 -14.107 1.51476e-17)
(193.065 -13.8619 0)
(188.689 -13.5747 -1.61704e-17)
(184.884 -13.348 -1.67517e-17)
(180.784 -13.031 -1.7198e-17)
(177.377 -12.7623 3.56638e-17)
(173.516 -12.3755 3.64559e-17)
(170.552 -11.9845 1.89371e-17)
(166.909 -11.4916 1.92553e-17)
(164.459 -10.8614 4.01344e-17)
(161.04 -10.2333 -2.02506e-17)
(159.2 -9.20511 -2.11883e-17)
(156.081 -8.41727 2.11706e-17)
(154.975 -6.86598 2.22484e-17)
(152.339 -5.37955 2.21914e-17)
(100.005 0.398674 0)
(100.142 1.64863 -8.6327e-17)
(100.599 4.18573 0)
(101.557 7.94552 0)
(103.141 11.8213 -4.19316e-17)
(105.286 14.5245 4.28836e-17)
(107.842 15.5949 0)
(110.527 15.4551 0)
(113.19 14.906 -4.16937e-17)
(115.772 14.4501 0)
(118.366 14.1896 -7.85657e-17)
(120.952 14.0575 3.82608e-17)
(123.617 13.9874 -3.73793e-17)
(126.285 13.973 3.65267e-17)
(129.073 13.9937 0)
(131.858 14.0696 6.97941e-17)
(134.812 14.167 0)
(137.75 14.3197 -3.32518e-17)
(140.915 14.4785 8.13569e-22)
(144.035 14.6989 3.1569e-17)
(147.463 14.909 0)
(150.797 15.1951 2.98397e-17)
(154.546 15.451 2.90433e-17)
(158.126 15.8063 0)
(162.269 16.1049 0)
(166.13 16.5382 2.62385e-17)
(170.758 16.878 0)
(174.938 17.4032 -2.43618e-17)
(180.169 17.7838 0)
(184.709 18.4196 -2.24273e-17)
(190.694 18.8423 0)
(195.64 19.6145 0)
(202.58 20.0856 1.9861e-17)
(207.985 21.0284 1.83704e-17)
(216.141 21.5609 3.5862e-17)
(222.076 22.715 1.62357e-17)
(231.8 23.3363 1.59833e-17)
(238.372 24.7617 0)
(250.147 25.5404 0)
(257.561 27.3249 -1.08038e-21)
(272.086 28.3479 0)
(280.728 30.5354 9.41254e-18)
(298.968 31.7912 -2.05315e-17)
(309.358 34.2427 0)
(332.413 35.4874 0)
(344.931 37.7981 -1.55963e-21)
(373.671 38.7197 0)
(388.249 40.5589 0)
(423.553 41.7347 5.02931e-18)
(441.514 42.1846 -8.09932e-19)
(484.45 43.1376 3.1416e-18)
(507.533 35.3879 0)
(548.234 32.671 -1.51179e-18)
(573.248 -1.56053 0)
(548.039 -15.4363 -3.99076e-19)
(539.76 -24.3336 -5.88908e-18)
(502.469 -29.4835 1.89197e-18)
(486.484 -29.9605 0)
(453.738 -30.266 0)
(439.497 -28.2759 -1.28538e-18)
(413.591 -27.8085 2.35955e-18)
(401.277 -25.8759 0)
(380.402 -25.3983 3.43727e-18)
(369.38 -23.7186 0)
(352.366 -23.3234 -9.09431e-18)
(342.451 -22.0115 9.55553e-22)
(328.367 -21.7993 5.65052e-18)
(319.253 -20.8547 9.71167e-22)
(307.265 -20.7481 6.74111e-18)
(298.727 -20.0544 1.35574e-17)
(288.253 -19.9613 7.80551e-18)
(280.196 -19.3942 0)
(270.908 -19.2292 8.86197e-18)
(263.369 -18.692 -9.16357e-18)
(255.102 -18.4006 -9.92421e-18)
(248.157 -17.8298 -1.03078e-17)
(240.837 -17.4119 -1.09971e-17)
(234.56 -16.8233 0)
(228.111 -16.356 -1.2057e-17)
(222.489 -15.8236 2.50396e-17)
(216.775 -15.3932 -1.31e-17)
(211.724 -14.969 -1.35849e-17)
(206.583 -14.6118 -1.41258e-17)
(201.999 -14.2973 -1.46367e-17)
(197.287 -13.998 -3.0296e-17)
(193.102 -13.7548 0)
(188.725 -13.47 1.61714e-17)
(184.92 -13.2451 -1.6752e-17)
(180.821 -12.931 5.56669e-22)
(177.414 -12.6642 -3.56667e-17)
(173.555 -12.281 -1.82298e-17)
(170.591 -11.8924 -1.89393e-17)
(166.951 -11.4042 -3.85164e-17)
(164.503 -10.7775 -2.09583e-22)
(161.089 -10.1554 0)
(159.25 -9.13317 2.11942e-17)
(156.14 -8.35276 0)
(155.034 -6.8123 -2.22553e-17)
(152.407 -5.33863 -2.21977e-17)
(100.005 0.395014 0)
(100.141 1.63404 4.31913e-17)
(100.598 4.15141 0)
(101.557 7.88493 0)
(103.144 11.7339 0)
(105.294 14.4164 4.28264e-17)
(107.855 15.4765 -4.31537e-17)
(110.542 15.3365 4.26816e-17)
(113.208 14.7917 4.16603e-17)
(115.793 14.3396 0)
(118.39 14.081 3.92769e-17)
(120.978 13.9497 0)
(123.646 13.8799 0)
(126.316 13.8654 -3.65282e-17)
(129.106 13.8858 0)
(131.894 13.9609 -3.4898e-17)
(134.85 14.0575 0)
(137.789 14.2089 8.42999e-22)
(140.956 14.3664 3.2458e-17)
(144.078 14.5851 0)
(147.507 14.7936 3.07686e-17)
(150.843 15.0775 -2.98401e-17)
(154.594 15.3314 -8.25466e-22)
(158.175 15.684 0)
(162.32 15.9803 0)
(166.183 16.4103 -9.82601e-22)
(170.814 16.7476 -2.54743e-17)
(174.996 17.2688 0)
(180.229 17.6467 2.36363e-17)
(184.771 18.2775 0)
(190.76 18.6972 0)
(195.708 19.4634 0)
(202.651 19.9312 1.98594e-17)
(208.06 20.8667 0)
(216.219 21.3955 -1.79302e-17)
(222.158 22.5406 0)
(231.885 23.1578 0)
(238.464 24.5721 -1.40204e-17)
(250.243 25.3454 -1.40268e-17)
(257.666 27.1157 -1.17362e-17)
(272.196 28.1309 1.20987e-17)
(280.846 30.3004 -9.41274e-18)
(299.09 31.5457 2.54387e-22)
(309.488 33.9765 0)
(332.545 35.2104 0)
(345.069 37.5018 -1.54689e-21)
(373.807 38.4166 0)
(388.394 40.2404 0)
(423.69 41.4049 -5.02996e-18)
(441.653 41.8433 8.10236e-19)
(484.545 42.7785 -2.48954e-22)
(507.595 35.0752 0)
(548.165 32.3577 -1.90986e-21)
(573.071 -1.55702 5.44066e-19)
(547.943 -15.2877 -4.03301e-19)
(539.718 -24.1128 5.8992e-18)
(502.483 -29.2244 7.7765e-22)
(486.533 -29.7059 0)
(453.805 -30.0155 0)
(439.57 -28.0466 1.2851e-18)
(413.665 -27.5852 4.14621e-22)
(401.347 -25.6691 0)
(380.471 -25.1951 0)
(369.448 -23.5294 0)
(352.432 -23.1376 9.09327e-18)
(342.515 -21.8371 9.4807e-22)
(328.428 -21.6268 -5.65028e-18)
(319.311 -20.6902 5.46737e-18)
(307.32 -20.5843 0)
(298.781 -19.8961 -6.7784e-18)
(288.305 -19.8034 7.80485e-18)
(280.247 -19.2407 7.99654e-18)
(270.959 -19.0769 -3.99428e-22)
(263.42 -18.544 0)
(255.154 -18.2549 9.92425e-18)
(248.208 -17.6889 0)
(240.888 -17.2746 0)
(234.61 -16.6911 0)
(228.16 -16.2277 2.41136e-17)
(222.536 -15.6999 -1.25196e-17)
(216.819 -15.273 0)
(211.766 -14.8523 2.71697e-17)
(206.624 -14.498 3.67592e-22)
(202.038 -14.1859 0)
(197.325 -13.889 1.51484e-17)
(193.139 -13.6477 0)
(188.761 -13.3654 -1.61713e-17)
(184.956 -13.1422 4.31642e-22)
(180.857 -12.831 5.54338e-22)
(177.45 -12.5661 3.56695e-17)
(173.593 -12.1866 0)
(170.63 -11.8003 2.63379e-22)
(166.993 -11.3169 3.85219e-17)
(164.546 -10.6936 -4.01497e-17)
(161.138 -10.0775 -2.02598e-17)
(159.3 -9.06134 0)
(156.198 -8.28835 0)
(155.093 -6.75873 5.52018e-22)
(152.475 -5.2978 0)
(100.005 0.391375 0)
(100.141 1.6195 -4.3217e-17)
(100.597 4.11709 0)
(101.556 7.82423 0)
(103.147 11.6464 0)
(105.302 14.3081 -1.04029e-21)
(107.867 15.3579 4.30932e-17)
(110.557 15.2178 -4.26322e-17)
(113.225 14.6773 -8.77437e-22)
(115.814 14.229 4.04064e-17)
(118.414 13.9723 0)
(121.005 13.8418 0)
(123.675 13.7724 0)
(126.347 13.7577 0)
(129.139 13.7778 0)
(131.929 13.8521 -3.48977e-17)
(134.887 13.9478 -3.41089e-17)
(137.827 14.098 8.36136e-22)
(140.997 14.2542 -3.24572e-17)
(144.12 14.4711 3.15677e-17)
(147.551 14.6781 -3.07691e-17)
(150.888 14.9597 -2.98387e-17)
(154.641 15.2117 -8.18774e-22)
(158.225 15.5616 0)
(162.372 15.8557 2.72765e-17)
(166.236 16.2823 -2.62376e-17)
(170.869 16.6172 5.09478e-17)
(175.053 17.1342 -2.43586e-17)
(180.289 17.5094 -4.72715e-17)
(184.834 18.1353 0)
(190.825 18.5519 2.17627e-17)
(195.776 19.3121 0)
(202.722 19.7767 -3.97175e-17)
(208.134 20.7048 1.83662e-17)
(216.296 21.23 -1.79287e-17)
(222.24 22.3661 -1.62312e-17)
(231.971 22.9791 0)
(238.556 24.3822 2.80387e-17)
(250.339 25.1501 1.40264e-17)
(257.769 26.9063 1.17339e-17)
(272.305 27.9137 -1.20988e-17)
(280.964 30.0652 0)
(299.212 31.2999 1.0266e-17)
(309.618 33.71 0)
(332.676 34.9331 -8.56638e-18)
(345.206 37.2053 -4.69965e-18)
(373.942 38.1132 0)
(388.538 39.9217 0)
(423.826 41.0748 0)
(441.791 41.5021 0)
(484.638 42.4196 -2.42487e-22)
(507.655 34.7632 0)
(548.095 32.0455 1.52004e-18)
(572.894 -1.5534 -8.25766e-22)
(547.845 -15.1396 -1.56578e-21)
(539.675 -23.8924 0)
(502.494 -28.9656 -9.48565e-19)
(486.581 -29.4514 0)
(453.871 -29.765 1.46776e-18)
(439.642 -27.8172 1.28528e-18)
(413.739 -27.3619 -2.35912e-18)
(401.417 -25.4621 -6.59748e-19)
(380.54 -24.9918 0)
(369.515 -23.3402 -2.43358e-18)
(352.498 -22.9518 -4.54621e-18)
(342.579 -21.6626 4.02507e-18)
(328.489 -21.4542 0)
(319.369 -20.5256 0)
(307.376 -20.4204 0)
(298.834 -19.7378 0)
(288.357 -19.6454 -1.56098e-17)
(280.299 -19.0872 -7.99681e-18)
(271.01 -18.9245 -1.77236e-17)
(263.471 -18.396 -9.16203e-18)
(255.205 -18.1092 0)
(248.26 -17.548 0)
(240.938 -17.1372 1.09965e-17)
(234.66 -16.5588 1.14282e-17)
(228.208 -16.0994 -1.20567e-17)
(222.583 -15.576 0)
(216.864 -15.1528 0)
(211.809 -14.7356 -1.35849e-17)
(206.664 -14.3841 1.41261e-17)
(202.077 -14.0745 0)
(197.363 -13.78 0)
(193.176 -13.5406 1.56899e-17)
(188.798 -13.2607 3.23441e-17)
(184.992 -13.0393 4.30427e-22)
(180.893 -12.731 1.72011e-17)
(177.487 -12.468 -1.78364e-17)
(173.631 -12.0922 0)
(170.669 -11.7083 1.89443e-17)
(167.035 -11.2296 -1.92639e-17)
(164.59 -10.6098 2.16006e-22)
(161.186 -9.99965 2.02646e-17)
(159.35 -8.98961 0)
(156.256 -8.22403 -2.11924e-17)
(155.152 -6.70526 2.22707e-17)
(152.543 -5.25706 0)
(100.005 0.387754 -4.60882e-17)
(100.14 1.60499 4.3246e-17)
(100.595 4.08276 0)
(101.556 7.76342 4.10644e-17)
(103.151 11.5586 0)
(105.31 14.1996 -1.03002e-21)
(107.879 15.2392 4.30315e-17)
(110.572 15.0989 0)
(113.243 14.5628 -4.15976e-17)
(115.834 14.1181 -8.18956e-22)
(118.437 13.8635 0)
(121.031 13.7338 0)
(123.703 13.6646 0)
(126.378 13.6499 0)
(129.172 13.6696 0)
(131.964 13.7432 6.97973e-17)
(134.923 13.8381 3.411e-17)
(137.866 13.9869 6.65053e-17)
(141.037 14.1419 3.24581e-17)
(144.162 14.3571 -3.15684e-17)
(147.595 14.5624 3.07681e-17)
(150.934 14.8418 2.98392e-17)
(154.688 15.0919 -2.90426e-17)
(158.274 15.439 2.80619e-17)
(162.423 15.7309 -2.72767e-17)
(166.289 16.1542 -2.62358e-17)
(170.925 16.4866 -2.54735e-17)
(175.11 16.9995 2.43586e-17)
(180.349 17.3719 2.36353e-17)
(184.896 17.9929 0)
(190.89 18.4065 -6.83592e-22)
(195.843 19.1607 0)
(202.792 19.6219 1.98582e-17)
(208.208 20.5427 -3.67306e-17)
(216.373 21.0643 1.79282e-17)
(222.321 22.1914 3.24604e-17)
(232.056 22.8002 1.598e-17)
(238.647 24.1922 -1.40184e-17)
(250.435 24.9546 1.40255e-17)
(257.873 26.6966 -1.05485e-21)
(272.413 27.6961 0)
(281.081 29.8296 0)
(299.334 31.0539 1.02659e-17)
(309.748 33.4433 0)
(332.807 34.6556 8.56656e-18)
(345.343 36.9085 0)
(374.077 37.8096 0)
(388.681 39.6028 0)
(423.962 40.7446 0)
(441.927 41.1608 0)
(484.731 42.061 -3.14548e-18)
(507.714 34.4518 0)
(548.025 31.7343 0)
(572.717 -1.54965 -5.46763e-19)
(547.745 -14.992 4.07109e-19)
(539.629 -23.6724 0)
(502.503 -28.7071 0)
(486.626 -29.197 3.33895e-18)
(453.936 -29.5146 -1.46738e-18)
(439.714 -27.5878 -1.28493e-18)
(413.811 -27.1384 2.35947e-18)
(401.486 -25.2551 7.98134e-22)
(380.609 -24.7884 3.43637e-18)
(369.582 -23.1508 2.43341e-18)
(352.565 -22.7659 0)
(342.643 -21.488 -4.02293e-18)
(328.55 -21.2816 0)
(319.427 -20.3609 0)
(307.431 -20.2565 0)
(298.887 -19.5793 -6.77603e-18)
(288.409 -19.4874 1.56095e-17)
(280.35 -18.9337 -7.99549e-18)
(271.061 -18.7721 3.941e-22)
(263.523 -18.2479 9.16218e-18)
(255.257 -17.9635 -9.92359e-18)
(248.311 -17.407 0)
(240.989 -16.9998 -2.19928e-17)
(234.71 -16.4264 -1.14281e-17)
(228.256 -15.971 1.20564e-17)
(222.629 -15.4521 1.25188e-17)
(216.908 -15.0325 0)
(211.852 -14.6187 0)
(206.705 -14.2701 -1.41257e-17)
(202.116 -13.9629 0)
(197.4 -13.6709 1.51483e-17)
(193.213 -13.4334 -1.56908e-17)
(188.834 -13.156 -1.61728e-17)
(185.029 -12.9363 3.35093e-17)
(180.93 -12.631 -1.72014e-17)
(177.524 -12.3699 0)
(173.669 -11.9978 -1.8234e-17)
(170.708 -11.6163 -1.89465e-17)
(167.077 -11.1423 0)
(164.633 -10.5261 2.00826e-17)
(161.235 -9.92188 0)
(159.4 -8.91799 2.12107e-17)
(156.314 -8.1598 2.11993e-17)
(155.211 -6.6519 -2.22776e-17)
(152.611 -5.2164 2.22193e-17)
(100.005 0.384153 4.61059e-17)
(100.139 1.59051 0)
(100.594 4.04843 0)
(101.556 7.70251 -8.21264e-17)
(103.154 11.4706 0)
(105.318 14.0909 -8.53249e-17)
(107.892 15.1202 -4.29726e-17)
(110.587 14.9799 0)
(113.261 14.4481 0)
(115.855 14.0072 -4.03757e-17)
(118.46 13.7545 0)