/*--------------------------------*- C++ -*----------------------------------*\
| =========                 |                                                 |
| \\      /  F ield         | OpenFOAM: The Open Source CFD Toolbox           |
|  \\    /   O peration     | Version:  2412                                  |
|   \\  /    A nd           | Website:  www.openfoam.com                      |
|    \\/     M anipulation  |                                                 |
\*---------------------------------------------------------------------------*/
FoamFile
{
    version     2.0;
    format      ascii;
    arch        "LSB;label=32;scalar=64";
    class       volScalarField;
    location    "0.3";
    object      epsilon;
}
// * * * * * * * * * * * * * * * * * * * * * * * * * * * * * * * * * * * * * //

dimensions      [0 2 -3 0 0 0 0];

internalField   nonuniform List<scalar> 
13077
(
475.168
770.853
1216.78
1561.38
1634.26
1478.43
1224.88
966.042
756.326
627.817
571.358
556.473
559.744
570.093
582.754
596.401
610.302
624.829
639.709
655.73
672.459
691.096
710.814
733.413
757.398
785.62
815.293
851.138
887.888
933.495
978.433
1036.63
1091.77
1168.8
1239.67
1345.04
1436.15
1586.23
1736.26
475.996
773.161
1220.4
1565.3
1638.01
1481.79
1227.5
967.663
756.899
627.607
570.767
555.772
559.048
569.431
582.126
595.796
609.71
624.239
639.114
655.122
671.834
690.444
710.134
732.697
756.645
784.822
814.45
850.24
886.935
932.475
977.331
1035.42
1090.42
1167.3
1237.96
1343.12
1433.82
1583.39
1732.71
2016.61
2331.78
2884.54
3453.09
4359.26
5037.68
5784.66
5563.37
6016.14
6760.62
10203.9
13731.5
26297.2
88823.6
120198
83488.3
56251.2
35557.1
18469.1
8491.93
4622.05
3474.38
2872.25
2544.17
2215.75
2019.26
1817.9
1705.43
1594.41
1542.1
476.831
775.459
1223.96
1569.1
1641.62
1485.01
1230.04
969.244
757.463
627.405
570.187
555.082
558.363
568.781
581.509
595.201
609.128
623.659
638.53
654.525
671.22
689.805
709.469
731.996
755.91
784.043
813.628
849.367
886.011
931.487
976.267
1034.26
1089.12
1165.86
1236.33
1341.28
1431.59
1580.67
1729.31
2012.84
2328.04
2882.2
3453.6
4367.85
5057.83
5821.73
5598.74
6038.14
6770.96
10230.2
13795.7
26663.5
90422.1
121551
84442.4
57016.7
36109
18842.7
8685.01
4718.73
3529.02
2913.23
2576.5
2244.83
2044.44
1841.54
1726.38
1613.6
1558.79
1486.89
1441.01
1388.47
1356.07
1313.54
1268.09
1200.11
1119.06
1032.16
958.173
901.49
863.955
842.069
831.805
826.902
821.32
814.286
804.248
796.247
787.164
783.589
778.092
781.836
784.002
802.316
826.345
882.003
1037.02
1461.32
2432.61
477.678
777.759
1227.47
1572.78
1645.07
1488.1
1232.47
970.762
758.004
627.201
569.613
554.401
557.687
568.138
580.9
594.614
608.554
623.087
637.955
653.937
670.616
689.176
708.814
731.308
755.188
783.28
812.824
848.516
885.111
930.529
975.237
1033.14
1087.88
1164.48
1234.76
1339.54
1429.46
1578.09
1726.06
2009.29
2324.58
2880.31
3454.83
4377.87
5080.5
5863.51
5639.81
6065.36
6784.98
10259.3
13862.3
27033.2
92020
122867
85424.3
57838.6
36712.6
19259.2
8904.2
4830.72
3592.86
2961.17
2614.31
2278.82
2073.92
1869.23
1750.94
1636.13
1578.4
1504.18
1455.6
1400.83
1366.4
1322.32
1275.55
1206.4
1124.21
1036.33
961.583
904.415
866.603
844.602
834.332
829.463
823.895
816.809
806.692
798.611
789.496
785.951
780.545
784.533
787.044
806.222
831.614
891.456
1056.85
1510.71
2527.01
478.537
780.066
1230.93
1576.34
1648.35
1491.02
1234.79
972.208
758.512
626.99
569.044
553.727
557.019
567.504
580.299
594.035
607.988
622.524
637.387
653.358
670.02
688.558
708.171
730.632
754.481
782.533
812.04
847.687
884.238
929.603
974.243
1032.06
1086.68
1163.16
1233.26
1337.88
1427.45
1575.66
1722.99
2005.99
2321.42
2878.89
3456.8
4389.44
5105.87
5910.43
5687.17
6098.41
6803.14
10291.6
13931.4
27406.1
93616.4
124147
86438
58724.1
37375.8
19726
9154.27
4960.91
3667.61
3017.34
2658.53
2318.53
2108.37
1901.6
1779.69
1662.53
1601.37
1524.48
1472.74
1415.34
1378.51
1332.61
1284.26
1213.77
1130.28
1041.29
965.68
907.947
869.791
847.623
837.307
832.442
826.866
819.708
809.493
801.312
792.148
788.617
783.289
787.513
790.372
810.438
837.261
901.532
1077.85
1562.43
2623.79
479.409
782.379
1234.36
1579.78
1651.47
1493.79
1236.98
973.579
758.987
626.773
568.48
553.062
556.359
566.879
579.706
593.465
607.43
621.968
636.829
652.787
669.435
687.95
707.54
729.97
753.79
781.805
811.277
846.884
883.393
928.712
973.291
1031.04
1085.54
1161.91
1231.85
1336.33
1425.56
1573.39
1720.11
2002.94
2318.6
2878.02
3459.62
4402.69
5134.22
5963.06
5741.61
6138.08
6826.07
10327.7
14003.7
27782.7
95211
125388
87488.6
59682.2
38108.4
20252.4
9441.17
5112.93
3755.44
3083.33
2710.33
2364.97
2148.65
1939.44
1813.33
1693.45
1628.29
1548.26
1492.84
1432.36
1392.7
1344.63
1294.42
1222.36
1137.41
1047.16
970.564
912.17
873.595
851.199
840.79
835.892
830.284
823.032
812.697
804.393
795.16
791.623
786.363
790.814
794.023
815
843.327
912.29
1100.08
1616.53
2722.88
480.297
784.702
1237.74
1583.09
1654.41
1496.39
1239.05
974.871
759.427
626.55
567.921
552.405
555.71
566.263
579.124
592.903
606.881
621.422
636.28
652.228
668.861
687.355
706.923
729.325
753.117
781.099
810.538
846.11
882.583
927.862
972.387
1030.07
1084.47
1160.75
1230.53
1334.91
1423.82
1571.31
1717.46
2000.2
2316.15
2877.74
3463.37
4417.83
5165.86
6022.03
5804
6185.32
6854.53
10368.1
14079.6
28163.3
96804.2
126591
88582.1
60723.2
38921.6
20849
9772.13
5291.25
3858.99
3161.09
2771.14
2419.35
2195.77
1983.72
1852.71
1729.67
1659.83
1576.11
1516.39
1452.3
1409.31
1358.67
1306.27
1232.39
1145.75
1054.08
976.358
917.19
878.105
855.411
844.852
839.882
834.209
826.838
816.36
807.908
798.583
795.02
789.813
794.481
798.043
819.959
849.869
923.798
1123.63
1673.07
2824.25
481.199
787.034
1241.07
1586.27
1657.18
1498.83
1240.99
976.086
759.833
626.321
567.369
551.758
555.071
565.659
578.551
592.353
606.343
620.887
635.742
651.68
668.301
686.775
706.322
728.698
752.465
780.417
809.829
845.369
881.812
927.06
971.539
1029.17
1083.48
1159.69
1229.33
1333.63
1422.25
1569.46
1715.07
1997.81
2314.15
2878.16
3468.19
4435.06
5201.16
6088.07
5875.37
6241.2
6889.39
10413.7
14160
28548.8
98396.5
127757
89725.1
61858.2
39828.2
21528.8
10155.8
5501.35
3981.51
3253.01
2842.71
2483.16
2250.97
2035.56
1898.82
1772.12
1696.79
1608.76
1544
1475.68
1428.76
1375.08
1320.1
1244.1
1155.53
1062.23
983.207
923.133
883.432
860.355
849.58
844.487
838.716
831.195
820.547
811.918
802.478
798.864
793.694
798.57
802.488
825.371
856.949
936.136
1148.59
1732.12
2927.89
482.117
789.375
1244.36
1589.32
1659.76
1501.09
1242.81
977.225
760.208
626.09
566.825
551.124
554.445
565.067
577.992
591.814
605.818
620.365
635.218
651.147
667.755
686.211
705.741
728.093
751.838
779.765
809.152
844.669
881.087
926.313
970.754
1028.36
1082.58
1158.73
1228.25
1332.51
1420.88
1567.86
1712.99
1995.81
2312.65
2879.37
3474.21
4454.63
5240.52
6162
5956.86
6306.93
6931.64
10465.4
14245.6
28939.8
99988.7
128885
90924.9
63099.6
40842.5
22306.3
10602.8
5749.98
4127.03
3362.04
2927.16
2558.2
2315.75
2096.35
1952.89
1821.91
1740.14
1647.03
1576.36
1503.08
1451.53
1394.27
1336.25
1257.77
1166.96
1071.81
991.284
930.147
889.702
866.144
855.073
849.8
843.887
836.183
825.333
816.497
806.912
803.223
798.073
803.142
807.42
831.303
864.642
949.394
1175.06
1793.74
3033.76
483.052
791.726
1247.6
1592.23
1662.17
1503.19
1244.51
978.287
760.551
625.856
566.292
550.502
553.833
564.489
577.446
591.29
605.306
619.857
634.71
650.63
667.228
685.668
705.182
727.513
751.24
779.145
808.514
844.013
880.414
925.629
970.043
1027.62
1081.78
1157.9
1227.32
1331.57
1419.73
1566.55
1711.24
1994.26
2311.72
2881.46
3481.57
4476.8
5284.37
6244.7
6049.77
6383.9
6982.42
10524.3
14337.5
29337.2
101582
129977
92189.2
64460.7
41980.5
23198.9
11125.7
6045.53
4300.52
3491.83
3027.13
2646.68
2391.91
2167.74
2016.36
1880.39
1791.04
1691.95
1614.34
1535.22
1478.2
1416.71
1355.1
1273.73
1180.35
1083.05
1000.79
938.402
897.063
872.906
861.447
855.923
849.82
841.892
830.806
821.725
811.966
808.171
803.021
808.272
812.914
837.831
873.031
963.673
1203.16
1858
3141.86
484.004
794.086
1250.79
1595
1664.38
1505.12
1246.07
979.275
760.867
625.624
565.771
549.896
553.236
563.926
576.915
590.781
604.811
619.366
634.219
650.133
666.722
685.148
704.648
726.962
750.675
778.564
807.92
843.409
879.801
925.017
969.416
1027
1081.1
1157.22
1226.56
1330.85
1418.83
1565.56
1709.88
1993.22
2311.44
2884.54
3490.45
4501.85
5333.2
6337.16
6155.54
6473.7
7043.01
10591.4
14436.8
29742.2
103177
131034
93526.5
65956.1
43260.4
24226.6
11739.9
6398.42
4508.24
3646.95
3145.86
2751.31
2481.67
2251.78
2091.02
1949.2
1850.89
1744.74
1658.94
1572.95
1509.47
1442.98
1377.13
1292.37
1196.01
1096.23
1011.96
948.099
905.689
880.792
868.833
862.978
856.624
848.425
837.062
827.697
817.729
813.795
808.625
814.042
819.052
845.042
882.212
979.087
1233.02
1924.99
3252.2
484.974
796.458
1253.92
1597.63
1666.41
1506.87
1247.52
980.189
761.156
625.396
565.265
549.307
552.658
563.382
576.403
590.291
604.334
618.894
633.748
649.656
666.239
684.654
704.144
726.444
750.147
778.026
807.375
842.864
879.257
924.486
968.885
1026.48
1080.56
1156.7
1225.99
1330.36
1418.21
1564.94
1708.97
1992.76
2311.89
2888.75
3501.03
4530.1
5387.53
6440.46
6275.82
6578.11
7114.89
10668.1
14544.8
30156
104775
132057
94946.2
67601.7
44702.4
25412.8
12464.1
6821.76
4758.04
3833.19
3287.44
2875.5
2587.77
2350.98
2179.04
2030.33
1921.39
1806.89
1711.41
1617.29
1546.16
1473.74
1402.89
1314.17
1214.33
1111.69
1025.06
959.473
915.778
889.976
877.386
871.101
864.427
855.902
844.216
834.521
824.303
820.194
814.979
820.547
825.931
853.035
892.294
995.767
1264.77
1994.79
3364.8
485.963
798.84
1257.01
1600.12
1668.24
1508.45
1248.83
981.033
761.423
625.175
564.777
548.739
552.099
562.858
575.911
589.821
603.878
618.444
633.3
649.205
665.783
684.189
703.672
725.964
749.662
777.538
806.888
842.386
878.79
924.047
968.461
1026.1
1080.17
1156.36
1225.63
1330.14
1417.92
1564.73
1708.54
1992.94
2313.17
2894.22
3513.49
4561.88
5447.94
6555.81
6412.42
6699.2
7199.73
10755.9
14662.8
30580
106378
133050
96458.2
69415.1
46329.1
26784.9
13321.2
7332.1
5059.9
4057.87
3457.02
3023.5
2713.64
2468.43
2283.1
2126.25
2004.64
1880.2
1773.21
1669.47
1589.27
1509.82
1433.04
1339.66
1235.78
1129.81
1040.43
972.797
927.568
900.663
887.285
880.453
873.374
864.46
852.396
842.317
831.806
827.481
822.195
827.895
833.659
861.924
903.402
1013.86
1298.58
2067.53
3479.71
486.972
801.233
1260.03
1602.45
1669.88
1509.86
1250.03
981.81
761.671
624.964
564.309
548.193
551.564
562.356
575.442
589.374
603.446
618.019
632.879
648.782
665.357
683.758
703.238
725.526
749.226
777.105
806.464
841.983
878.41
923.713
968.159
1025.87
1079.95
1156.24
1225.52
1330.23
1417.99
1564.99
1708.68
1993.85
2315.38
2901.1
3528.06
4597.58
5515.06
6684.53
6567.44
6839.32
7299.46
10856.7
14792.6
31015.7
107988
134014
98073.8
71415
48166
28374.7
14339.1
7950.44
5426.64
4330.43
3661.14
3200.72
2863.56
2608.03
2406.55
2239.99
2103.21
1966.9
1846.19
1730.99
1639.98
1552.17
1468.37
1369.51
1260.9
1151.04
1058.44
988.396
941.332
913.091
898.738
891.219
883.636
874.254
861.75
851.229
840.373
835.784
830.398
836.21
842.363
871.84
915.678
1033.53
1334.63
2143.31
3597.01
488.001
803.639
1263
1604.63
1671.31
1511.08
1251.1
982.521
761.904
624.768
563.867
547.673
551.054
561.881
574.999
588.953
603.041
617.622
632.487
648.39
664.966
683.365
702.847
725.137
748.843
776.736
806.113
841.665
878.128
923.497
967.994
1025.8
1079.92
1156.34
1225.68
1330.65
1418.46
1565.77
1709.44
1995.58
2318.62
2909.54
3544.98
4637.62
5589.59
6828.11
6743.22
7001.17
7416.28
10972.3
14935.9
31465.1
109606
134954
99805.2
73622.2
50241.7
30219.3
15552.2
8703.61
5874.76
4663.07
3908.26
3414.09
3043
2774.7
2553.57
2375.4
2220.33
2069.77
1932.59
1803.7
1699.76
1601.97
1509.83
1404.49
1290.33
1175.93
1079.56
1006.65
957.399
927.54
911.989
903.615
895.407
885.467
872.449
861.415
850.158
845.254
839.733
845.636
852.185
882.931
929.285
1054.96
1373.12
2222.3
3716.84
489.052
806.058
1265.92
1606.66
1672.54
1512.12
1252.04
983.171
762.127
624.592
563.453
547.183
550.574
561.435
574.585
588.563
602.667
617.257
632.128
648.035
664.614
683.015
702.503
724.801
748.522
776.437
805.843
841.442
877.957
923.412
967.982
1025.91
1080.11
1156.71
1226.14
1331.45
1419.4
1567.13
1710.91
1998.23
2323.04
2919.74
3564.51
4682.44
5672.29
6988.17
6942.42
7187.89
7552.74
11105
15094.9
31930
111234
135873
101666
76059.5
52587.9
32362
17002.4
9625.98
6425.76
5071.77
4209.35
3672.56
3258.92
2974.69
2729.48
2537.29
2360.02
2192.24
2035.19
1889.85
1770.38
1660.65
1558.55
1445.55
1324.87
1205.13
1104.31
1028.02
976.152
944.342
927.325
917.896
908.915
898.308
884.688
873.063
861.339
856.059
850.366
856.335
863.292
895.37
944.41
1078.38
1414.29
2304.68
3839.4
490.126
808.491
1268.77
1608.53
1673.57
1512.99
1252.87
983.764
762.345
624.441
563.073
546.728
550.128
561.022
574.205
588.206
602.326
616.927
631.807
647.719
664.305
682.714
702.213
724.526
748.27
776.217
805.664
841.327
877.91
923.474
968.142
1026.24
1080.54
1157.38
1226.95
1332.68
1420.83
1569.14
1713.16
2001.89
2328.76
2931.89
3586.94
4732.55
5764.03
7166.54
7168.07
7403.08
7711.75
11257.4
15272.1
32413
112876
136776
103671
78751.4
55240.2
34852.7
18741.2
10761.7
7107.76
5577.54
4578.79
3987.8
3520.37
3216.05
2941.05
2731.8
2527.41
2338.67
2157.5
1992.26
1854.05
1729.95
1615.93
1493.82
1365.44
1239.42
1133.36
1053.05
998.054
963.889
945.086
934.357
924.428
913.022
898.698
886.388
874.12
868.396
862.489
868.497
875.873
909.354
961.269
1104.02
1458.41
2390.69
3964.94
491.224
810.939
1271.57
1610.24
1674.39
1513.67
1253.58
984.305
762.566
624.321
562.731
546.311
549.719
560.646
573.862
587.887
602.025
616.638
631.529
647.449
664.046
682.466
701.982
724.319
748.094
776.086
805.587
841.33
878.001
923.701
968.495
1026.79
1081.24
1158.37
1228.14
1334.38
1422.84
1571.88
1716.28
2006.69
2335.93
2946.22
3612.59
4788.51
5865.73
7365.24
7423.59
7650.95
7896.74
11432.6
15470
32916.5
114532
137670
105838
81725.3
58237.9
37748.8
20830.9
12167.5
7957.77
6208.35
5035.64
4375.24
3839.13
3509.25
3197.04
2966.81
2729.02
2514.6
2303.9
2114.47
1953.49
1812.01
1683.66
1550.69
1413.18
1279.75
1167.48
1082.4
1023.65
986.651
965.672
953.349
942.257
929.893
914.742
901.639
888.739
882.493
876.323
882.339
890.15
925.112
980.11
1132.19
1505.8
2480.61
4093.83
492.347
813.403
1274.31
1611.78
1675
1514.17
1254.18
984.801
762.796
624.24
562.435
545.938
549.353
560.313
573.561
587.61
601.768
616.394
631.298
647.23
663.841
682.28
701.82
724.188
748.005
776.055
805.623
841.467
878.246
924.111
969.062
1027.6
1082.25
1159.73
1229.76
1336.61
1425.48
1575.42
1720.37
2012.76
2344.72
2962.95
3641.82
4850.95
5978.46
7586.54
7712.91
7936.4
8111.64
11633.8
15691.9
33443.6
116208
138561
108186
85010.9
61625
41116
23347.4
13915.9
9024.67
7001.54
5605.37
4855.38
4230.76
3867.96
3508.82
3252.55
2973.26
2727.1
2480.01
2260.93
2072.12
1909.52
1763.82
1617.85
1469.49
1327.28
1207.64
1116.86
1053.62
1013.19
989.566
975.29
962.773
949.257
933.132
919.107
905.472
898.615
892.126
898.116
906.377
942.909
1001.22
1163.19
1556.84
2574.8
4226.53
493.496
815.886
1276.98
1613.17
1675.4
1514.49
1254.66
985.257
763.043
624.204
562.192
545.615
549.035
560.027
573.308
587.382
601.56
616.202
631.121
647.069
663.699
682.161
701.732
724.142
748.011
776.134
805.786
841.752
878.663
924.726
969.868
1028.7
1083.59
1161.49
1231.85
1339.42
1428.82
1579.85
1725.55
2020.23
2355.31
2982.37
3675.03
4920.55
6103.37
7832.98
8040.48
8265.17
8361.1
11865.1
15941.2
33997.6
117905
139456
110736
88641.1
65449.5
45028.5
26381
16099.6
10373.1
8007.32
6322.25
5455.77
4715.98
4310.31
3891.3
3602.35
3271.05
2985.33
2693.02
2437.33
2214.27
2025.8
1859.03
1697.39
1536.07
1383.42
1254.99
1157.39
1088.76
1044.19
1017.34
1000.68
986.412
971.508
954.231
939.132
924.642
917.067
910.196
916.12
924.853
963.053
1024.95
1197.43
1611.96
2673.7
4363.67
494.673
818.388
1279.6
1614.39
1675.59
1514.63
1255.04
985.683
763.317
624.225
562.008
545.35
548.773
559.796
573.109
587.209
601.408
616.067
631.004
646.971
663.625
682.117
701.728
724.19
748.124
776.335
806.091
842.203
879.271
925.568
970.939
1030.12
1085.3
1163.71
1234.48
1342.89
1432.95
1585.27
1731.93
2029.28
2367.92
3004.78
3712.65
4998.08
6241.77
8107.39
8411.39
8643.98
8650.54
12131.1
16222.1
34582.3
119629
140367
113514
92652.1
69764.3
49569.3
30038.6
18835.1
12088.4
9293.27
7232.78
6213.72
5322.59
4860.43
4364.23
4033.75
3636.68
3301.22
2952.22
2650.95
2385.41
2165.07
1972.52
1791.9
1615.02
1449.9
1310.97
1205.19
1130.05
1080.47
1049.7
1030.11
1013.7
997.115
978.468
962.113
946.627
938.211
930.884
936.695
945.924
985.903
1051.67
1235.35
1671.67
2777.85
4506.02
495.88
820.911
1282.17
1615.44
1675.56
1514.59
1255.32
986.087
763.629
624.311
561.893
545.149
548.572
559.625
572.971
587.097
601.318
615.996
630.955
646.946
663.629
682.159
701.818
724.344
748.356
776.674
806.552
842.836
880.092
926.662
972.304
1031.9
1087.43
1166.43
1237.69
1347.09
1437.94
1591.8
1739.65
2040.06
2382.77
3030.5
3755.18
5084.42
6395.15
8412.98
8831.44
9080.76
8986.37
12437.1
16539.1
35202
121382
141302
116548
97084
74627.2
54830
34444.4
22267.2
14282.3
10950.2
8400.22
7180.03
6088.23
5550.73
4953.93
4570.03
4089.01
3690.42
3269.74
2911.24
2592.6
2332.67
2108.36
1904.63
1708.98
1528.9
1377.36
1261.72
1178.7
1123.04
1087.49
1064.3
1045.26
1026.64
1006.35
988.522
971.87
962.47
954.599
960.244
969.996
1011.88
1081.85
1277.47
1736.6
2887.94
4654.56
497.117
823.458
1284.67
1616.33
1675.32
1514.38
1255.5
986.479
763.991
624.474
561.857
545.023
548.442
559.523
572.902
587.055
601.299
615.999
630.981
647
663.719
682.294
702.011
724.614
748.72
777.164
807.186
843.673
881.148
928.036
973.996
1034.07
1090.02
1169.71
1241.55
1352.08
1443.9
1599.55
1748.86
2052.79
2400.1
3059.92
3803.16
5180.55
6565.14
8753.34
9307.29
9584.86
9376.18
12789.4
16897.7
35861.4
123171
142275
119871
101982
80100.8
60910
39739.1
26571.4
17099.8
13099.6
9910.75
8424.2
7064.16
6425.07
5695.73
5242.25
4653.08
4173.64
3661.5
3230.51
2844.93
2535.46
2271.74
2039.66
1821.22
1623.11
1456.36
1328.8
1236.23
1173.14
1131.74
1104.13
1081.84
1060.74
1038.49
1018.92
1000.9
990.342
981.826
987.242
997.55
1041.49
1116.04
1324.42
1807.47
3004.81
4810.52
498.387
826.031
1287.12
1617.05
1674.86
1513.99
1255.6
986.87
764.416
624.728
561.912
544.981
548.391
559.499
572.909
587.09
601.358
616.082
631.092
647.144
663.904
682.534
702.32
725.014
749.23
777.822
808.013
844.735
882.464
929.718
976.05
1036.67
1093.12
1173.6
1246.15
1357.97
1450.93
1608.66
1759.72
2067.66
2420.2
3093.43
3857.23
5287.57
6753.64
9132.53
9846.49
10167.3
9829
13195.1
17304
36566.2
125001
143299
123521
107394
86252.3
67915.4
46078.7
31954.3
20725
15901.3
11881.3
10041.2
8320.42
7542.91
6637.27
6092.02
5362.32
4778.4
4148.57
3624.92
3154.25
2782.25
2469.26
2202.16
1955.91
1735.94
1550.76
1408.71
1304.48
1232.33
1183.73
1150.68
1124.38
1100.23
1075.62
1053.98
1034.34
1022.42
1013.14
1018.25
1029.15
1075.3
1154.87
1376.94
1885.17
3129.47
4975.43
499.692
828.632
1289.51
1617.61
1674.19
1513.43
1255.62
987.276
764.921
625.086
562.07
545.034
548.43
559.563
573.004
587.212
601.507
616.256
631.297
647.387
664.196
682.89
702.756
725.557
749.901
778.665
809.053
846.045
884.069
931.743
978.503
1039.75
1096.78
1178.18
1251.54
1364.85
1459.14
1619.26
1772.41
2084.92
2443.39
3131.53
3918.07
5406.73
6962.78
9555.18
10457.7
10841.3
10355.6
13663
17765.2
37322.4
126878
144391
127542
113379
93153.8
75957.3
53630.4
38650.3
25385.2
19561.4
14468.7
12160.4
9952.68
8985.03
7842.9
7175.24
6261.55
5541.48
4758.94
4115.84
3536.07
3084.51
2709.41
2398.75
2118.31
1871.72
1664.09
1504.33
1385.82
1302.52
1245.06
1205.26
1173.99
1146.1
1118.61
1094.5
1072.95
1059.41
1049.22
1053.93
1065.47
1114.03
1199.11
1435.89
1970.74
3263.21
5151.17
501.033
831.264
1291.85
1618
1673.31
1512.7
1255.56
987.709
765.522
625.567
562.346
545.195
548.572
559.726
573.198
587.433
601.755
616.533
631.608
647.741
664.606
683.375
703.334
726.258
750.751
779.714
810.327
847.63
885.992
934.145
981.398
1043.36
1101.07
1183.51
1257.82
1372.82
1468.66
1631.53
1787.13
2104.84
2470.01
3174.72
3986.48
5539.46
7194.99
10026.5
11150.8
11622.2
10968.9
14203.2
18289.7
38137.1
128809
145568
131987
119998
100882
85149.4
62567.5
46912.2
31350.7
24336.8
17879
14954.9
12090.8
10860.7
9399.47
8566.89
7410.79
6512.11
5529.99
4731.67
4010.87
3457.2
3003.18
2637.89
2315.15
2035.94
1800.83
1619.33
1483.22
1386.14
1317.71
1269.53
1232.07
1199.53
1168.53
1141.45
1117.62
1102.17
1090.88
1095.09
1107.32
1158.49
1249.68
1502.32
2065.45
3407.58
5340.05
502.413
833.93
1294.14
1618.23
1672.21
1511.81
1255.45
988.188
766.238
626.187
562.757
545.48
548.828
560.001
573.501
587.765
602.114
616.923
632.036
648.219
665.148
684.003
704.069
727.135
751.798
780.988
811.861
849.518
888.266
936.963
984.779
1047.56
1106.05
1189.68
1265.09
1382
1479.64
1645.64
1804.1
2127.71
2500.46
3223.61
4063.35
5687.42
7453.07
10552.5
11937.1
12528.6
11684.4
14827.9
18887.2
39018.4
130803
146850
136917
127325
109517
95605.8
73062.7
56997.6
38925.9
30531.9
22374.1
18651.7
14908.8
13315.9
11423.3
10366.9
8890.25
7756.09
6511.67
5510.19
4605.71
3919.96
3364.85
2930.51
2555.08
2235.67
1966.74
1758.39
1600.47
1486.28
1404.19
1345.54
1300.32
1262.02
1226.69
1196.02
1169.46
1151.71
1139.12
1142.68
1155.67
1209.7
1307.67
1577.49
2170.86
3564.48
5544.89
503.834
836.634
1296.38
1618.3
1670.92
1510.77
1255.3
988.732
767.093
626.97
563.321
545.903
549.215
560.402
573.93
588.222
602.599
617.441
632.596
648.835
665.836
684.788
704.976
728.206
753.063
782.512
813.68
851.739
890.927
940.24
988.697
1052.4
1111.78
1196.77
1273.44
1392.51
1492.22
1661.79
1823.57
2153.86
2535.17
3278.86
4149.71
5852.47
7740.25
11140
12829.4
13582.3
12521
15551.5
19569.2
39975.5
132868
148261
142402
135442
119145
107438
85281.2
69152
48432.6
38485.1
28270.6
23536.1
18633.4
16542.1
14067.8
12706.9
10806
9360.79
7770.56
6501.78
5356.56
4498.66
3813.05
3290.8
2849.27
2480.03
2169.24
1927.56
1742.45
1606.88
1507.67
1435.89
1380.92
1335.39
1294.7
1259.65
1229.78
1209.29
1195.11
1197.86
1211.67
1268.85
1374.41
1662.92
2288.82
3736.26
5769.16
505.298
839.38
1298.58
1618.22
1669.42
1509.59
1255.11
989.362
768.11
627.937
564.059
546.485
549.75
560.946
574.499
588.818
603.225
618.102
633.302
649.603
666.686
685.749
706.075
729.49
754.567
784.311
815.814
854.327
894.012
944.02
993.206
1057.95
1118.35
1204.87
1282.99
1404.51
1506.58
1680.2
1845.82
2183.67
2574.65
3341.24
4246.72
6036.8
8060.25
11796.8
13842.3
14809.2
13501.2
16391.5
20349.1
41018.7
135016
149826
148529
144445
129856
120754
99374.2
83591.6
60184.3
48541.2
35924.1
29945.6
23548.4
20781.6
17530.1
15755.7
13296.1
11440.7
9394.67
7773.25
6311.06
5227.45
4372.2
3737.16
3212.15
2780.8
2417.97
2134.68
1915.47
1753.01
1632.25
1543.87
1476.58
1421.94
1374.57
1334.13
1300.24
1276.41
1260.32
1262.04
1276.76
1337.41
1451.51
1760.44
2421.62
3925.79
6017.05
506.808
842.172
1300.74
1617.98
1667.73
1508.27
1254.92
990.103
769.318
629.116
564.995
547.245
550.452
561.65
575.226
589.571
604.007
618.922
634.171
650.541
667.714
686.902
707.384
731.008
756.335
786.41
818.292
857.317
897.566
948.356
998.365
1064.29
1125.84
1214.09
1293.86
1418.13
1522.9
1701.11
1871.15
2217.55
2619.45
3411.63
4355.72
6242.92
8417.42
12532.1
14992.4
16239.7
14652.7
17368.7
21243.1
42160.1
137258
151575
155397
154447
141743
135654
115474
100490
74457.2
61014.6
45696.4
38245.7
29987.1
26324.7
22053.4
19722.6
16534.5
14142.4
11498.6
9412.42
7532.08
6151.23
5074.21
4293.51
3662.44
3153.28
2725.45
2389.97
2127.75
1931.27
1783.18
1673.73
1590.74
1524.55
1468.78
1421.67
1382.84
1354.95
1336.52
1336.94
1352.65
1417.15
1540.93
1872.31
2572.05
4136.6
6293.7
508.366
845.014
1302.86
1617.6
1665.85
1506.83
1254.73
990.982
770.746
630.537
566.155
548.209
551.342
562.536
576.131
590.501
604.966
619.919
635.221
651.667
668.941
688.268
708.926
732.784
758.392
788.841
821.15
860.75
901.633
953.299
1004.24
1071.48
1134.35
1224.55
1306.2
1433.57
1541.41
1724.8
1899.91
2255.98
2670.21
3491.01
4478.27
6473.8
8816.83
13356.3
16298.6
17909.9
16008.9
18508.7
22270.1
43413.5
139608
153541
163124
165578
154907
152231
133690
119974
91467.8
76154.1
57906.9
48783.4
38304.8
33493.2
27918.9
24853
20731.4
17646.7
14227.6
11532.7
9101.75
7328.81
5960.71
4990.92
4224.36
3617.31
3108.01
2706.8
2390.06
2150.26
1967.32
1830.92
1727.84
1646.91
1580.48
1525.03
1480.09
1447.22
1425.9
1424.66
1441.48
1510.28
1645.08
2001.28
2743.55
4373
6605.34
509.977
847.912
1304.95
1617.08
1663.79
1505.28
1254.57
992.03
772.431
632.233
567.57
549.402
552.446
563.628
577.236
591.629
606.122
621.116
636.474
653.003
670.387
689.87
710.722
734.844
760.766
791.634
824.422
864.667
906.262
958.911
1010.89
1079.61
1143.97
1236.36
1320.15
1451
1562.33
1751.56
1932.47
2299.47
2727.65
3580.53
4616.14
6732.87
9264.46
14281.9
17782.4
19861.8
17610.4
19842.2
23452.9
44794.9
142082
155761
171853
177995
169454
170571
154110
142122
111360
94122
72786.5
61828.7
48829.8
42602.1
35422.7
31411.2
26123.7
22164.6
17758.6
14276.2
11125.3
8836.18
7085.58
5869.43
4929.09
4198.53
3586.91
3102.7
2716.52
2421.28
2193.61
2022.54
1893.59
1793.69
1713.67
1647.69
1595.14
1556.07
1531.19
1527.83
1545.87
1619.47
1766.94
2150.72
2940.33
4640.31
6959.55
511.642
850.871
1307.03
1616.42
1661.57
1503.65
1254.47
993.28
774.41
634.242
569.274
550.856
553.791
564.95
578.567
592.98
607.5
622.534
637.951
654.569
672.075
691.73
712.8
737.215
763.488
794.825
828.15
869.115
911.509
965.254
1018.41
1088.79
1154.83
1249.67
1335.89
1470.63
1585.92
1781.75
1969.28
2348.64
2792.59
3681.51
4771.43
7024.19
9767.36
15323.2
19468.2
22144
19506.7
21407.1
24818.8
46322.6
144696
158278
181750
191883
185502
190751
176801
166973
134209
114994
90450.3
77525.6
61802.5
53907.2
44834.5
39648.7
32953.5
27922.4
22293.8
17813.5
13733.6
10769.7
8517.58
6980.13
5816.46
4929.83
4189.68
3600.56
3125.75
2759.24
2473.84
2257.91
2095.4
1970.94
1873.42
1794.07
1731.91
1685.12
1655.76
1649.68
1669.07
1748.06
1910.19
2324.83
3167.61
4945.05
7365.53
513.367
853.897
1309.09
1615.65
1659.19
1501.94
1254.45
994.772
776.726
636.607
571.306
552.604
555.409
566.534
580.153
594.58
609.125
624.199
639.678
656.393
674.031
693.876
715.185
739.927
766.591
798.45
832.374
874.144
917.43
972.4
1026.87
1099.1
1167.02
1264.63
1353.58
1492.71
1612.47
1815.73
2010.81
2404.17
2865.96
3795.46
4946.54
7352.57
10333.9
16497.3
21383.8
24812.8
21757.4
23249.4
26400.6
48018.2
147472
161139
193015
207465
203179
212845
201809
194532
160031
138776
110904
95878.1
77325.4
67550.8
56347.4
49761.3
41432.4
35134
28043.9
22335.8
17082.3
13247.8
10342.6
8387.13
6936.57
5852.9
4951.67
4230.19
3642.16
3183.77
2823.55
2549.26
2342.98
2186.52
2066.28
1969.78
1895.42
1838.88
1803.86
1794.27
1815.13
1900.18
2079.38
2528.78
3431.87
5295.24
7834.41
515.153
856.998
1311.14
1614.77
1656.68
1500.18
1254.54
996.547
779.429
639.374
573.708
554.686
557.337
568.412
582.025
596.462
611.027
626.142
641.684
658.501
676.283
696.335
717.909
743.012
770.111
802.55
837.143
879.807
924.09
980.422
1036.36
1110.65
1180.71
1281.4
1373.45
1517.49
1642.3
1853.94
2057.61
2466.81
2948.85
3924.16
5144.32
7723.71
10974.1
17824.6
23561.2
27932.2
24435
25426
28238.2
49906.4
150433
164400
205885
225007
222630
236922
229167
224788
188802
165429
134080
116778
95352.7
83534.3
70035.4
61848.5
51701.7
43963.2
35199.3
28036.9
21344.5
16409.3
12664.4
10168.8
8351.09
7019.52
5917.51
5029.92
4297.63
3720.76
3263.32
2912.78
2649.1
2450.65
2300.74
2182.03
2092.01
2023.07
1980.83
1966.66
1989.12
2081.01
2280.23
2769.02
3741.1
5700.72
8379.56
517.006
860.181
1313.2
1613.79
1654.04
1498.39
1254.79
998.654
782.571
642.598
576.529
557.147
559.614
570.624
584.219
598.66
613.241
628.393
643.999
660.925
678.862
699.14
721.005
746.506
774.086
807.168
842.504
886.162
931.556
989.403
1046.99
1123.58
1196.01
1300.17
1395.7
1545.25
1675.77
1896.84
2110.3
2537.46
3042.47
4069.64
5368.11
8144.42
11700.1
19329.4
26037.1
31574.4
27626.3
28006.6
30379.9
52016.6
153603
168121
220639
244831
244022
263050
258896
257712
220472
194891
159873
140060
115724
101731
85842.7
75894
63802.1
54489
43893.8
35084.1
26694
20406.9
15602.7
12417.5
10133.5
8492.24
7142.22
6048.14
5133.29
4404.07
3820.27
3369.87
3030.62
2776.78
2587.81
2440.14
2329.83
2244.98
2193.43
2173.26
2197.39
2297.01
2519.85
3053.56
4105.2
6173.54
9016.93
518.929
863.453
1315.27
1612.72
1651.3
1496.61
1255.24
1001.15
786.214
646.338
579.827
560.037
562.287
573.212
586.778
601.213
615.803
630.989
646.659
663.699
681.8
702.324
724.507
750.447
778.558
812.352
848.513
893.273
939.903
999.432
1058.85
1138
1213.11
1321.13
1420.6
1576.32
1713.28
1944.98
2169.57
2617.11
3148.26
4234.31
5621.84
8622.87
12526.3
21041.1
28854
35819.4
31434.7
31077
32884.6
54382.9
157014
172374
237610
267326
267550
291304
291007
293271
254981
227095
188182
165556
138227
121937
103611
91779.2
77669.8
66689.3
54174.7
43584.9
33280.7
25392.1
19286.7
15236.4
12367.7
10343.5
8691.26
7344.2
6201.04
5277.43
4529.97
3948.8
3509.82
3182.6
2941.9
2756.14
2619.36
2513.89
2450.24
2422.12
2447.94
2556.28
2807.12
3392.37
4536.42
6728.35
9765.3
520.928
866.825
1317.36
1611.59
1648.48
1494.87
1255.92
1004.08
790.424
650.662
583.662
563.412
565.409
576.226
589.747
604.166
618.755
633.97
649.702
666.86
685.137
705.926
728.456
754.876
783.573
818.152
855.226
901.206
949.21
1010.61
1072.07
1154.06
1232.17
1344.51
1448.4
1611.04
1755.28
1998.97
2236.22
2706.91
3267.83
4420.96
5910.18
9168.94
13470.4
22995.3
32061.7
40755.7
35982.4
34743
35824.1
57045.7
160699
177241
257186
292957
293447
321768
325511
331429
292265
261973
218920
193128
162652
143928
123131
109325
93163.1
80453.7
65994
53561.5
41201
31494.7
23842.9
18733.1
15143.6
12652.9
10638.6
8987.92
7564.44
6396.08
5438.35
4686.61
4116.07
3691.4
3381.88
3145.73
2974.09
2841.69
2762.14
2723.45
2750.84
2868.98
3153.17
3797.81
5049.75
7382.8
10646.4
523.008
870.306
1319.5
1610.42
1645.61
1493.19
1256.88
1007.52
795.276
655.645
588.107
567.338
569.039
579.722
593.179
607.568
622.146
637.382
653.172
670.451
688.912
709.988
732.893
759.839
789.179
824.623
862.708
910.037
959.564
1023.03
1086.76
1171.92
1253.38
1370.55
1479.43
1649.83
1802.27
2059.47
2311.14
2808.17
3403.09