/*--------------------------------*- C++ -*----------------------------------*\
| =========                 |                                                 |
| \\      /  F ield         | OpenFOAM: The Open Source CFD Toolbox           |
|  \\    /   O peration     | Version:  2412                                  |
|   \\  /    A nd           | Website:  www.openfoam.com                      |
|    \\/     M anipulation  |                                                 |
\*---------------------------------------------------------------------------*/
FoamFile
{
    version     2.0;
    format      ascii;
    arch        "LSB;label=32;scalar=64";
    class       volScalarField;
    location    "0.3";
    object      k;
}
// * * * * * * * * * * * * * * * * * * * * * * * * * * * * * * * * * * * * * //

dimensions      [0 2 -2 0 0 0 0];

internalField   nonuniform List<scalar> 
13077
(
42.8316
55.8396
70.6094
77.9338
75.4674
67.2997
58.4149
51.5549
47.4636
45.7835
45.5484
45.9165
46.4581
47.0484
47.6393
48.2385
48.8338
49.4509
50.0763
50.7475
51.4398
52.2082
53.0076
53.9188
54.8645
55.97
57.099
58.4538
59.7915
61.4436
62.9983
65.0163
66.8293
69.3839
71.5795
74.8606
77.4651
81.8496
85.9239
42.8677
55.9151
70.6997
78.0102
75.5266
67.3401
58.4289
51.5412
47.432
45.7455
45.5106
45.8814
46.4259
47.0185
47.6111
48.2114
48.8072
49.4245
50.0497
50.7203
51.4119
52.1792
52.9775
53.8873
54.8315
55.9351
57.0623
58.4148
59.7502
61.3994
62.9507
64.9643
66.7718
69.3206
71.5087
74.7812
77.3709
81.737
85.7889
93.3333
100.823
113.182
124.224
140.361
150.01
159.848
154.461
163.935
176.453
223.263
260.833
363.645
693.122
785.763
611.771
428.126
300.062
204.954
151.287
123.604
113.64
103.8
98.3284
91.0783
87.1827
82.259
80.0606
77.3931
76.5889
42.9041
55.9902
70.7881
78.0835
75.5826
67.378
58.4417
51.5271
47.4005
45.7078
45.4731
45.8465
46.3939
46.9889
47.5832
48.1845
48.7809
49.3982
50.0233
50.6934
51.3842
52.1505
52.9477
53.8559
54.7986
55.9004
57.0257
58.376
59.7091
61.3553
62.9031
64.9123
66.7143
69.2571
71.4377
74.7016
77.2763
81.6238
85.6528
93.1794
100.66
113.021
124.085
140.265
149.989
159.862
154.406
163.719
176.206
223.242
261.202
366.204
700.4
791.748
615.16
430.499
301.707
205.994
151.749
123.784
113.686
103.815
98.3159
91.0668
87.1556
82.2367
80.0302
77.3669
76.5619
74.8753
74.1344
72.9787
72.4299
71.345
70.0874
67.9441
65.3568
62.5766
60.2548
58.472
57.3308
56.7123
56.4667
56.3522
56.1619
55.9197
55.5635
55.318
55.007
54.9339
54.7404
54.9489
55.0438
55.7573
56.5184
57.7724
60.4477
64.8666
73.2948
42.9411
56.0653
70.875
78.1535
75.6348
67.4129
58.4526
51.5121
47.3687
45.6702
45.4358
45.8118
46.3621
46.9594
47.5554
48.1576
48.7546
49.372
49.9969
50.6664
51.3565
52.1217
52.9178
53.8245
54.7657
55.8656
56.989
58.337
59.6678
61.311
62.8553
64.86
66.6564
69.1933
71.3661
74.6215
77.1811
81.5097
85.5153
93.0237
100.494
112.856
123.94
140.164
149.966
159.877
154.362
163.506
175.954
223.206
261.552
368.737
707.608
797.514
618.45
432.883
303.388
207.079
152.239
123.98
113.737
103.835
98.3057
91.059
87.1315
82.2179
80.002
77.3429
76.5359
74.8554
74.116
72.965
72.421
71.3417
70.0868
67.9401
65.3433
62.5526
60.2237
58.4385
57.299
56.6858
56.448
56.3413
56.1571
55.9185
55.5651
55.3223
55.0153
54.9476
54.7603
54.9791
55.0847
55.8224
56.6086
57.935
60.7251
65.4374
74.0803
42.9787
56.1406
70.9604
78.2203
75.6831
67.4445
58.4612
51.496
47.3367
45.6327
45.3987
45.7772
46.3304
46.93
47.5276
48.1308
48.7283
49.3458
49.9705
50.6394
51.3288
52.0929
52.8878
53.793
54.7328
55.8307
56.9522
58.2979
59.6262
61.2664
62.8071
64.8074
66.5981
69.1289
71.2939
74.5407
77.0849
81.3945
85.3762
92.8658
100.325
112.687
123.79
140.057
149.939
159.895
154.326
163.295
175.696
223.152
261.88
371.238
714.736
803.047
621.64
435.284
305.114
208.218
152.763
124.195
113.795
103.859
98.2981
91.0553
87.1104
82.2029
79.9761
77.3211
76.5107
74.8368
74.0986
72.9523
72.4127
71.3393
70.0871
67.9373
65.3311
62.5299
60.1937
58.4057
57.2676
56.6594
56.4293
56.3303
56.1523
55.9174
55.5669
55.3268
55.0237
54.9611
54.7798
55.0086
55.1248
55.8863
56.6972
58.0975
61.0038
66.011
74.8482
43.017
56.2162
71.0445
78.2837
75.7272
67.4725
58.4676
51.4787
47.3042
45.5952
45.3617
45.7428
46.2988
46.9007
47.4999
48.1041
48.7021
49.3196
49.9441
50.6124
51.3011
52.064
52.8578
53.7614
54.6996
55.7956
56.9152
58.2585
59.5844
61.2215
62.7586
64.7543
66.5392
69.0639
71.221
74.4591
76.9879
81.2782
85.2354
92.7053
100.152
112.511
123.634
139.943
149.908
159.913
154.3
163.087
175.432
223.079
262.184
373.703
721.778
808.339
624.735
437.715
306.897
209.423
153.329
124.433
113.862
103.889
98.2939
91.0563
87.0928
82.192
79.953
77.3019
76.4866
74.8195
74.0819
72.9403
72.4049
71.3375
70.0883
67.9354
65.32
62.5084
60.1647
58.3736
57.2366
56.633
56.4104
56.319
56.1475
55.9162
55.5687
55.3311
55.0319
54.9743
54.7989
55.0374
55.1637
55.9486
56.7839
58.2594
61.2831
66.5854
75.596
43.0559
56.2921
71.1271
78.3437
75.7671
67.4969
58.4716
51.4602
47.2714
45.5578
45.3249
45.7085
46.2673
46.8715
47.4722
48.0773
48.6758
49.2934
49.9176
50.5853
51.2732
52.0351
52.8276
53.7297
54.6664
55.7604
56.878
58.2189
59.5423
61.1764
62.7097
64.7008
66.4798
68.9983
71.1474
74.3767
76.89
81.1609
85.093
92.5423
99.9758
112.33
123.471
139.821
149.872
159.932
154.284
162.883
175.163
222.986
262.463
376.13
728.728
813.379
627.741
440.186
308.753
210.709
153.947
124.698
113.939
103.927
98.2941
91.063
87.0795
82.1862
79.9331
77.2858
76.4639
74.8036
74.0661
72.9292
72.3977
71.3364
70.0903
67.9348
65.3104
62.4883
60.1368
58.3424
57.2061
56.6068
56.3913
56.3075
56.1425
55.9151
55.5705
55.3355
55.04
54.9872
54.8174
55.0652
55.2014
56.0091
56.8684
58.4205
61.5621
67.1584
76.3211
43.0956
56.3683
71.2083
78.4002
75.8028
67.5178
58.4732
51.4404
47.2381
45.5204
45.2882
45.6743
46.2359
46.8423
47.4446
48.0506
48.6495
49.2671
49.8911
50.5582
51.2453
52.006
52.7974
53.6979
54.633
55.725
56.8406
58.1791
59.4999
61.1309
62.6604
64.647
66.42
68.9323
71.0731
74.2937
76.7913
81.0425
84.9491
92.3767
99.7952
112.144
123.301
139.692
149.831
159.953
154.281
162.684
174.889
222.874
262.718
378.516
735.581
818.161
630.661
442.71
310.698
212.095
154.628
124.998
114.031
103.975
98.3003
91.0767
87.0716
82.1864
79.9174
77.2734
76.4431
74.7896
74.0515
72.9192
72.3914
71.3364
70.0935
67.9358
65.3026
62.47
60.1103
58.3121
57.1761
56.5806
56.3721
56.2957
56.1373
55.9139
55.5724
55.3398
55.048
54.9998
54.8355
55.0922
55.2378
56.0678
56.9506
58.5804
61.8403
67.7281
77.0212
43.1361
56.4449
71.288
78.4531
75.8341
67.535
58.4724
51.4193
47.2045
45.4831
45.2517
45.6403
46.2046
46.8132
47.417
48.0239
48.6233
49.2409
49.8646
50.5311
51.2174
51.9769
52.7671
53.666
54.5995
55.6895
56.803
58.1391
59.4573
61.0851
62.6108
64.5928
66.3597
68.8656
70.9981
74.2099
76.6918
80.9233
84.8037
92.2086
99.6107
111.951
123.124
139.554
149.784
159.976
154.292
162.492
174.612
222.741
262.946
380.858
742.334
822.675
633.503
445.302
312.749
213.599
155.385
125.339
114.142
104.036
98.3141
91.0988
87.07
82.1938
79.9066
77.2657
76.4247
74.778
74.0385
72.9108
72.3862
71.3378
70.0984
67.9387
65.2969
62.4537
60.0856
58.2832
57.1469
56.5548
56.3527
56.2837
56.132
55.9127
55.5744
55.3442
55.0561
55.0121
54.8532
55.1183
55.273
56.1246
57.0303
58.739
62.1168
68.2922
77.6939
43.1773
56.5218
71.3661
78.5024
75.861
67.5485
58.4693
51.3971
47.1705
45.4459
45.2153
45.6064
46.1735
46.7841
47.3895
47.9972
48.5971
49.2146
49.8381
50.5039
51.1894
51.9478
52.7367
53.634
54.5659
55.6538
56.7653
58.0989
59.4144
61.0391
62.5609
64.5382
66.299
68.7985
70.9226
74.1256
76.5916
80.8031
84.6569
92.0379
99.4223
111.752
122.939
139.408
149.732
160
154.317
162.308
174.333
222.588
263.149
383.154
748.981
826.914
636.271
447.973
314.927
215.245
156.235
125.732
114.275
104.113
98.3374
91.131
87.0763
82.2096
79.9018
77.2636
76.4095
74.7693
74.0275
72.9043
72.3825
71.3409
70.1053
67.9442
65.294
62.4401
60.0631
58.2558
57.1187
56.5293
56.3333
56.2716
56.1267
55.9117
55.5767
55.3488
55.0642
55.0243
54.8705
55.1436
55.3069
56.1794
57.1075
58.8959
62.3909
68.8484
78.3367
43.2194
56.5991
71.4426
78.5479
75.8835
67.5584
58.4637
51.3736
47.1361
45.4088
45.1792
45.5727
46.1424
46.7552
47.3621
47.9706
48.5709
49.1884
49.8116
50.4767
51.1614
51.9186
52.7063
53.602
54.5322
55.6181
56.7274
58.0585
59.3714
60.9929
62.5107
64.4833
66.2378
68.731
70.8464
74.0406
76.4908
80.6823
84.5089
91.8649
99.2301
111.548
122.747
139.252
149.674
160.026
154.36
162.133
174.053
222.414
263.325
385.403
755.517
830.87
638.97
450.739
317.252
217.057
157.196
126.185
114.437
104.21
98.3728
91.1753
87.0918
82.2353
79.9042
77.2682
76.3982
74.7642
74.0191
72.9002
72.3809
71.3463
70.1148
67.9528
65.2944
62.4296
60.0431
58.2305
57.0917
56.5045
56.3141
56.2593
56.1215
55.9109
55.5794
55.3538
55.0727
55.0365
54.8877
55.1682
55.3396
56.2323
57.1822
59.051
62.6618
69.3943
78.9469
43.2623
56.6767
71.5175
78.5895
75.9014
67.5645
58.4558
51.3489
47.1014
45.3718
45.1432
45.5391
46.1115
46.7264
47.3347
47.9441
48.5447
49.1621
49.7851
50.4495
51.1334
51.8894
52.6759
53.5699
54.4984
55.5822
56.6894
58.018
59.3281
60.9464
62.4602
64.4281
66.1763
68.663
70.7697
73.9551
76.3894
80.5607
84.3598
91.6895
99.034
111.337
122.548
139.087
149.609
160.055
154.422
161.97
173.773
222.22
263.474
387.6
761.939
834.537
641.605
453.612
319.746
219.063
158.29
126.714
114.634
104.332
98.4231
91.2341
87.1184
82.2726
79.9152
77.2806
76.3918
74.7635
74.0138
72.8992
72.3817
71.3545
70.1274
67.9651
65.2989
62.423
60.0263
58.2075
57.0663
56.4804
56.295
56.2471
56.1164
55.9105
55.5827
55.3592
55.0815
55.0489
54.9047
55.1922
55.3713
56.2832
57.2541
59.204
62.9285
69.9274
79.5221
43.3062
56.7548
71.5907
78.6273
75.9147
67.5668
58.4455
51.3231
47.0664
45.3349
45.1075
45.5057
46.0807
46.6977
47.3074
47.9175
48.5186
49.1359
49.7586
50.4224
51.1054
51.8602
52.6454
53.5377
54.4646
55.5463
56.6513
57.9774
59.2846
60.8997
62.4094
64.3727
66.1144
68.5946
70.6926
73.8691
76.2875
80.4386
84.2097
91.5118
98.8342
111.119
122.34
138.912
149.538
160.087
154.504
161.82
173.495
222.006
263.596
389.745
768.24
837.907
644.181
456.605
322.432
221.292
159.542
127.334
114.875
104.485
98.4918
91.3101
87.1581
82.3234
79.9364
77.3025
76.3913
74.7682
74.0124
72.9018
72.3855
71.3661
70.1439
67.982
65.3081
62.4208
60.0132
58.1873
57.0428
56.4574
56.2763
56.2349
56.1115
55.9105
55.5866
55.3653
55.091
55.0615
54.9219
55.2157
55.4019
56.3322
57.3234
59.3545
63.1899
70.445
80.0594
43.351
56.8333
71.6623
78.6611
75.9233
67.5654
58.4329
51.2962
47.0312
45.2983
45.072
45.4725
46.05
46.669
47.2802
47.8911
48.4925
49.1098
49.7321
50.3952
51.0774
51.831
52.6149
53.5056
54.4307
55.5103
56.6131
57.9366
59.241
60.8528
62.3584
64.317
66.0522
68.5259
70.615
73.7826
76.1853
80.316
84.0587
91.3319
98.6307
110.895
122.125
138.727
149.459
160.121
154.61
161.686
173.221
221.773
263.692
391.835
774.415
840.974
646.702
459.731
325.333
223.778
160.984
128.064
115.171
104.676
98.5834
91.4067
87.2135
82.3901
79.9697
77.3355
76.3981
74.7794
74.0157
72.9087
72.393
71.3819
70.165
68.0042
65.323
62.4239
60.0045
58.1704
57.0215
56.4356
56.2581
56.223
56.1069
55.9111
55.5913
55.3722
55.1012
55.0746
54.9393
55.2389
55.4317
56.3794
57.3899
59.5023
63.4451
70.9442
80.5562
43.3968
56.9123
71.7321
78.6908
75.9272
67.5602
58.418
51.2681
46.9957
45.2618
45.0367
45.4395
46.0195
46.6405
47.2531
47.8647
48.4665
49.0836
49.7057
50.3681
51.0494
51.8018
52.5844
53.4734
54.3968
55.4743
56.5748
57.8957
59.1972
60.8058
62.3072
64.261
65.9898
68.4569
70.537
73.6958
76.0827
80.193
83.9071
91.15
98.4235
110.665
121.901
138.53
149.372
160.159
154.74
161.569
172.952
221.52
263.762
393.867
780.46
843.733
649.171
463.003
328.476
226.559
162.651
128.93
115.533
104.914
98.7031
91.5282
87.2876
82.4755
80.0174
77.3818
76.4137
74.7983
74.0247
72.9209
72.405
71.4025
70.1915
68.0328
65.3446
62.4333
60.0008
58.1574
57.0029
56.4154
56.2407
56.2114
56.1029
55.9125
55.5971
55.3802
55.1125
55.0885
54.9573
55.262
55.4609
56.4248
57.4538
59.6471
63.6928
71.4223
81.0097
43.4437
56.9918
71.8001
78.7165
75.9263
67.5511
58.4007
51.2391
46.9601
45.2256
45.0018
45.4066
45.9891
46.6122
47.2261
47.8384
48.4405
49.0576
49.6793
50.3409
51.0214
51.7726
52.5539
53.4412
54.3628
55.4382
56.5364
57.8547
59.1533
60.7586
62.2557
64.2049
65.9271
68.3877
70.4587
73.6086
75.98
80.0699
83.7549
90.9662
98.2129
110.428
121.669
138.321
149.277
160.199
154.898
161.473
172.691
221.249
263.805
395.839
786.367
846.178
651.593
466.432
331.886
229.674
164.585
129.961
115.979
105.21
98.8579
91.6797
87.3843
82.5831
80.0824
77.444
76.4402
74.8265
74.0406
72.9395
72.4223
71.4289
70.2245
68.0688
65.3739
62.4499
60.003
58.1489
56.9874
56.3971
56.2241
56.2003
56.0994
55.9149
55.6042
55.3896
55.125
55.1033
54.976
55.2852
55.4895
56.4685
57.515
59.7884
63.932
71.8765
81.4174
43.4916
57.0718
71.8665
78.7381
75.9206
67.5382
58.3812
51.209
46.9244
45.1896
44.9671
45.374
45.9589
46.5839
47.1992
47.8122
48.4146
49.0315
49.6529
50.3139
50.9934
51.7434
52.5233
53.409
54.3288
55.4021
56.498
57.8137
59.1093
60.7112
62.2042
64.1487
65.8643
68.3182
70.3802
73.5213
75.8773
79.9467
83.6025
90.7806
97.9989
110.184
121.428
138.101
149.173
160.242
155.086
161.399
172.438
220.96
263.823
397.75
792.131
848.307
653.97
470.028
335.589
233.166
166.835
131.197
116.529
105.579
99.0567
91.8678
87.5081
82.7169
80.168
77.5252
76.48
74.8662
74.0648
72.9655
72.4459
71.4621
70.265
68.1136
65.4124
62.4749
60.0122
58.1456
56.9755
56.3811
56.2087
56.1898
56.0966
55.9183
55.6128
55.4005
55.1392
55.1195
54.9958
55.3088
55.5179
56.5109
57.5735
59.9261
64.1614
72.3037
81.7765
43.5407
57.1525
71.931
78.7554
75.9099
67.5214
58.3594
51.1781
46.8887
45.154
44.9327
45.3416
45.9288
46.5558
47.1724
47.7861
48.3888
49.0056
49.6266
50.2868
50.9655
51.7142
52.4929
53.3768
54.2949
55.366
56.4595
57.7726
59.0651
60.6638
62.1525
64.0923
65.8013
68.2487
70.3016
73.4338
75.7746
79.8236
83.4501
90.5935
97.7818
109.934
121.178
137.867
149.059
160.288
155.307
161.351
172.198
220.654
263.815
399.596
797.745
850.116
656.306
473.802
339.611
237.081
169.459
132.685
117.21
106.04
99.311
92.1012
87.6652
82.8824
80.2787
77.6293
76.5361
74.9196
74.0993
73.0005
72.4772
71.5034
70.3144
68.1686
65.4614
62.5098
60.0293
58.1485
56.968
56.3677
56.1948
56.1802
56.0948
55.9231
55.6231
55.4133
55.1553
55.1372
55.017
55.3331
55.5465
56.552
57.6297
60.0597
64.3798
72.7012
82.0848
43.591
57.2338
71.9938
78.7685
75.8943
67.5007
58.3354
51.1463
46.8529
45.1188
44.8987
45.3095
45.899
46.5278
47.1457
47.7601
48.363
48.9797
49.6004
50.2598
50.9376
51.6851
52.4624
53.3446
54.2609
55.3298
56.421
57.7314
59.0209
60.6163
62.1007
64.0359
65.7383
68.1791
70.2229
73.3463
75.6722
79.7009
83.2978
90.405
97.5617
109.677
120.919
137.62
148.935
160.336
155.563
161.333
171.97
220.332
263.782
401.375
803.203
851.605
658.603
477.762
343.981
241.468
172.519
134.483
118.055
106.616
99.6358
92.3909
87.8632
83.0861
80.4199
77.7613
76.6124
74.9901
74.1462
73.0464
72.5175
71.5542
70.3742
68.2354
65.5227
62.556
60.0557
58.1584
56.9655
56.3576
56.1826
56.1717
56.0941
55.9294
55.6355
55.4283
55.1736
55.157
55.0401
55.3586
55.5755
56.5922
57.6835
60.1889
64.586
73.0662
82.3399
43.6425
57.3158
72.0549
78.7773
75.8737
67.4762
58.3093
51.1138
46.8173
45.084
44.8651
45.2776
45.8693
46.5
47.1192
47.7342
48.3374
48.9539
49.5742
50.2329
50.9098
51.6561
52.432
53.3125
54.227
55.2937
56.3824
57.6903
58.9766
60.5688
62.0488
63.9795
65.6754
68.1095
70.1442
73.2589
75.5702
79.5786
83.1461
90.2154
97.3388
109.413
120.651
137.358
148.799
160.386
155.856
161.347
171.76
219.994
263.724
403.086
808.498
852.774
660.866
481.914
348.722
246.375
176.091
136.664
119.11
107.34
100.051
92.7515
88.1123
83.3367
80.5986
77.9275
76.714
75.0814
74.2086
73.1055
72.5687
71.6163
70.4461
68.3161
65.5984
62.6155
60.0929
58.1766
56.9688
56.3514
56.1728
56.1646
56.0948
55.9376
55.6502
55.4459
55.1947
55.1792
55.0655
55.3856
55.6054
56.6319
57.7353
60.3135
64.7788
73.396
82.5398
43.6954
57.3986
72.1142
78.7819
75.848
67.4477
58.2811
51.0807
46.782
45.0497
44.8319
45.246
45.8398
46.4724
47.0928
47.7084
48.3119
48.9282
49.5481
50.2061
50.882
51.6271
52.4017
53.2805
54.1931
55.2577
56.3439
57.6491
58.9324
60.5213
61.997
63.9232
65.6125
68.0401
70.0658
73.1718
75.4689
79.457
82.9951
90.025
97.1136
109.143
120.374
137.081
148.651
160.438
156.19
161.399
171.568
219.642
263.643
404.725
813.623
853.624
663.096
486.265
353.859
251.853
180.252
139.317
120.43
108.251
100.583
93.2024
88.4256
83.6453
80.8237
78.136
76.8471
75.1989
74.2901
73.1806
72.6331
71.6916
70.5323
68.4129
65.6909
62.6906
60.1427
58.2045
56.979
56.3497
56.1657
56.1593
56.0972
55.9479
55.6677
55.4665
55.219
55.2044
55.0937
55.4147
55.6368
56.6714
57.7854
60.4332
64.9571
73.6883
82.683
43.7497
57.4822
72.1718
78.782
75.8173
67.4154
58.2509
51.047
46.7469
45.016
44.7992
45.2147
45.8106
46.4449
47.0665
47.6827
48.2864
48.9026
49.5221
50.1793
50.8544
51.5982
52.3714
53.2485
54.1592
55.2217
56.3055
57.608
58.8882
60.4738
61.9453
63.867
65.5498
67.9709
69.9877
73.085
75.3684
79.3364
82.8453
89.834
96.8862
108.866
120.087
136.789
148.49
160.49
156.568
161.494
171.399
219.277
263.54
406.29
818.572
854.158
665.299
490.818
359.415
257.948
185.089
142.545
122.087
109.403
101.266
93.7696
88.8211
84.0266
81.1071
78.3971
77.0204
75.3493
74.3955
73.2754
72.7134
71.7826
70.6352
68.5286
65.8029
62.7838
60.2074
58.2437
56.9974
56.3536
56.162
56.1562
56.1016
55.9607
55.6884
55.4907
55.2471
55.2332
55.1254
55.4466
55.6703
56.7114
57.8341
60.5479
65.12
73.9407
82.7682
43.8054
57.5668
72.2277
78.7779
75.7815
67.3793
58.2188
51.013
46.7122
44.9829
44.767
45.1838
45.7816
46.4176
47.0404
47.6572
48.2611
48.877
49.4961
50.1526
50.8268
51.5693
52.3412
53.2166
54.1255
55.1858
56.2671
57.5671
58.844
60.4265
61.8937
63.8111
65.4875
67.9021
69.9101
72.9989
75.269
79.2171
82.697
89.6428
96.657
108.582
119.791
136.481
148.315
160.542
156.992
161.637
171.255
218.901
263.415
407.78
823.336
854.382
667.479
495.576
365.409
264.705
190.686
146.469
124.174
110.864
102.148
94.4879
89.3224
84.5
81.4642
78.7245
77.2446
75.5413
74.5314
73.3947
72.8132
71.8925
70.7579
68.6664
65.9379
62.8984
60.2896
58.2961
57.0253
56.3639
56.1624
56.1559
56.1085
55.9764
55.7128
55.519
55.2796
55.2662
55.1613
55.482
55.7067
56.7526
57.8821
60.6574
65.2665
74.1514
82.7949
43.8627
57.6524
72.282
78.7693
75.7406
67.3393
58.1849
50.9787
46.6782
44.9506
44.7353
45.1532
45.7528
46.3905
47.0145
47.6318
48.2359
48.8516
49.4703
50.1261
50.7993
51.5406
52.3111
53.1848
54.0918
55.15
56.2289
57.5262
58.8
60.3793
61.8424
63.7554
65.4256
67.8339
69.8332
72.9135
75.171
79.0993
82.5507
89.452
96.4266
108.293
119.485
136.155
148.124
160.593
157.466
161.835
171.142
218.515
263.269
409.191
827.908
854.304
669.641
500.539
371.856
272.161
197.129
151.22
126.802
112.72
103.291
95.404
89.9617
85.0915
81.9156
79.1361
77.5345
75.7866
74.7061
73.5447
72.937
72.0249
70.9039
68.8302
66.0998
63.0382
60.3924
58.3644
57.0647
56.3822
56.168
56.159
56.1185
55.9956
55.7414
55.5521
55.3172
55.3042
55.2022
55.5217
55.7467
56.7956
57.93
60.7618
65.396
74.3189
82.7628
43.9217
57.7391
72.3347
78.7564
75.6945
67.2956
58.1493
50.9444
46.6448
44.9191
44.7043
45.123
45.7243
46.3637
46.9887
47.6066
48.2109
48.8264
49.4446
50.0996
50.7719
51.512
52.2811
53.1532
54.0583
55.1144
56.1908
57.4856
58.7563
60.3325
61.7914
63.7003
65.3644
67.7664
69.7573
72.8292
75.0747
78.9834
82.4069
89.2618
96.1954
107.997
119.171
135.813
147.918
160.641
157.992
162.096
171.062
218.12
263.104
410.522
832.282
853.931
671.794
505.706
378.767
280.346
204.492
156.933
130.105
115.079
104.773
96.58
90.7822
85.8357
82.4885
79.6554
77.9093
76.101
74.931
73.7336
73.0907
72.1845
71.0775
69.0245
66.2935
63.2078
60.5199
58.4515
57.1177
56.41
56.1798
56.1665
56.1321
56.0189
55.775
55.5907
55.3608
55.3482
55.2491
55.5666
55.7915
56.8415
57.9787
60.8613
65.5082
74.4422
82.6729
43.9823
57.827
72.3858
78.7392
75.6434
67.2482
58.1122
50.9102
46.6123
44.8886
44.674
45.0933
45.6962
46.3371
46.9632
47.5816
48.186
48.8012
49.419
50.0733
50.7446
51.4835
52.2513
53.1217
54.025
55.079
56.153
57.4452
58.7128
60.286
61.7408
63.6457
65.3039
67.6998
69.6825
72.7461
74.9804
78.8699
82.266
89.0728
95.9639
107.695
118.847
135.452
147.694
160.686
158.573
162.429
171.023
217.72
262.921
411.769
836.45
853.275
673.946
511.076
386.146
289.278
212.836
163.74
134.236
118.07
106.698
98.0971
91.842
86.7786
83.2192
80.3137
78.3945
76.5051
75.2213
73.9723
73.2817
72.3774
71.2841
69.255
66.5248
63.413
60.6769
58.5613
57.1873
56.4494
56.1995
56.1793
56.1502
56.047
55.8142
55.6357
55.4113
55.3992
55.3031
55.6181
55.8422
56.8914
58.0291
60.9563
65.603
74.5209
82.5265
44.0448
57.9162
72.4354
78.7177
75.5872
67.1971
58.0737
50.8763
46.5809
44.8591
44.6445
45.064
45.6683
46.3107
46.9379
47.5568
48.1613
48.7763
49.3936
50.0471
50.7175
51.4552
52.2216
53.0905
53.9919
55.0439
56.1154
57.4052
58.6696
60.2399
61.6908
63.5918
65.2443
67.6343
69.6091
72.6647
74.8885
78.7591
82.1286
88.8857
95.7329
107.389
118.514
135.073
147.453
160.725
159.211
162.845
171.031
217.314
262.721
412.932
840.406
852.35
676.11
516.645
393.994
298.965
222.203
171.749
139.359
121.837
109.188
100.059
93.2175
87.9813
84.1557
81.1518
79.024
77.0269
75.5974
74.2754
73.5201
72.6108
71.5302
69.5282
66.8009
63.6608
60.8696
58.6986
57.2769
56.503
56.2288
56.1989
56.1739
56.0808
55.8601
55.6881
55.47
55.4583
55.3655
55.6774
55.9004
56.9467
58.0827
61.0474
65.6808
74.5552
82.3263
44.1091
58.0069
72.4837
78.692
75.526
67.1426
58.0341
50.8431
46.5508
44.8309
44.6158
45.0353
45.6408
46.2846
46.9128
47.5321
48.1367
48.7515
49.3684
50.0211
50.6906
51.4271
52.1922
53.0594
53.9591
55.0091
56.0782
57.3656
58.627
60.1944
61.6415
63.5389
65.186
67.5701
69.5375
72.5851
74.7995
78.6515
81.9954
88.701
95.5031
107.077
118.173
134.675
147.193
160.757
159.909
163.355
171.093
216.908
262.507
414.007
844.142
851.17
678.299
522.411
402.302
309.398
232.61
181.035
145.631
126.536
112.388
102.591
95.007
89.5226
85.3607
82.2231
79.8423
77.7033
76.087
74.6627
73.8191
72.8945
71.8237
69.8523
67.1301
63.9598
61.1056
58.8695
57.391
56.5742
56.2702
56.227
56.2046
56.1216
55.9139
55.7492
55.5381
55.5271
55.438
55.7462
55.9676
57.009
58.141
61.1357
65.7425
74.5463
82.0762
44.1755
58.0992
72.5307
78.662
75.4599
67.0847
57.9936
50.8107
46.5222
44.8041
44.5881
45.0072
45.6137
46.2588
46.888
47.5077
48.1124
48.7268
49.3433
49.9952
50.6638
51.3992
52.163
53.0287
53.9266
54.9747
56.0414
57.3265
58.585
60.1497
61.5932
63.487
65.129
67.5076
69.468
72.5079
74.7137
78.5477
81.867
88.5195
95.2753
106.762
117.823
134.258
146.914
160.78
160.667
163.972
171.219
216.502
262.28
414.993
847.653
849.754
680.534
528.371
411.055
320.558
244.049
191.63
153.188
132.313
116.45
105.836
97.3313
91.5013
86.9144
83.5957
80.9069
78.5828
76.7272
75.1607
74.1962
73.2406
72.1746
70.2368
67.5228
64.3204
61.3945
59.0816
57.5356
56.667
56.3268
56.2659
56.2438
56.1707
55.9768
55.8205
55.6173
55.6072
55.5222
55.8263
56.046
57.0805
58.206
61.2226
65.7897
74.4962
81.7813
44.244
58.1932
72.5765
78.628
75.3889
67.0236
57.9524
50.7795
46.4953
44.7788
44.5615
44.9797
45.5871
46.2334
46.8635
47.4836
48.0883
48.7024
49.3184
49.9696
50.6373
51.3715
52.1341
52.9983
53.8945
54.9407
56.0051
57.288
58.5437
60.1058
61.5458
63.4365
65.0738
67.447
69.4009
72.4334
74.6319
78.4482
81.7442
88.3421
95.0505
106.443
117.467
133.823
146.616
160.793
161.487
164.714
171.421
216.102
262.042
415.888
850.934
848.12
682.837
534.524
420.231
332.408
256.487
203.518
162.12
139.291
121.517
109.942
100.329
94.0354
88.9152
85.354
82.2903
79.728
77.567
75.8049
74.675
73.6649
72.5947
70.6933
67.9912
64.7555
61.7481
59.3449
57.718
56.7872
56.4027
56.3186
56.294
56.23
56.0507
55.9037
55.7094
55.7007
55.6204
55.92
56.138
57.1634
58.2804
61.3101
65.8247
74.4083
81.4486
44.3147
58.289
72.6212
78.59
75.3132
66.9595
57.9109
50.7498
46.4706
44.7553
44.5361
44.953
45.561
46.2084
46.8393
47.4597
48.0645
48.6783
49.2937
49.9442
50.611
51.3442
52.1055
52.9682
53.8628
54.9072
55.9695
57.2503
58.5032
60.063
61.4998
63.3875
65.0204
67.3887
69.3367
72.3621
74.5544
78.3537
81.6279
88.1696
94.8297
106.122
117.104
133.37
146.298
160.795
162.37
165.595
171.715
215.713
261.797
416.689
853.979
846.29
685.236
540.872
429.803
344.9
269.867
216.64
172.462
147.548
127.704
115.038
104.145
97.2546
91.4779
87.5981
84.081
81.217
78.6701
76.643
75.2869
74.188
73.0989
71.2354
68.5496
65.2805
62.1815
59.6719
57.948
56.9419
56.5031
56.389
56.358
56.3018
56.1378
56.0011
55.8169
55.81
55.7352
56.0301
56.2464
57.2608
58.367
61.4009
65.8508
74.2871
81.0868
44.3878
58.3869
72.6651
78.5481
75.233
66.8926
57.8693
50.7221
46.4482
44.7338
44.512
44.9272
45.5354
46.1838
46.8154
47.4361
48.0409
48.6544
49.2693
49.919
50.585
51.3171
52.0772
52.9386
53.8316
54.8744
55.9346
57.2135
58.4638
60.0214
61.4553
63.3403
64.9694
67.3331
69.2759
72.2944
74.482
78.2649
81.5189
88.0031
94.6143
105.8
116.735
132.899
145.961
160.784
163.314
166.636
172.118
215.339
261.547
417.395
856.783
844.288
687.767
547.421
439.736
357.975
284.115
230.899
184.187
157.11
135.078
121.213
108.907
101.286
94.725
90.4384
86.3804
83.1429
80.1164
77.7365
76.0733
74.8364
73.7055
71.8789
69.2149
65.9139
62.7128
60.0787
58.2381
57.1404
56.635
56.4821
56.4397
56.3894
56.2408
56.1153
55.9424
55.9381
55.8696
56.1597
56.3747
57.3763
58.4699
61.4986
65.8727
74.1391
80.7073
44.4634
58.4871
72.7082
78.5025
75.1483
66.8233
57.8281
50.6968
46.4287
44.7145
44.4895
44.9023
45.5105
46.1596
46.792
47.4129
48.0177
48.6307
49.2452
49.8942
50.5593
51.2904
52.0494
52.9096
53.801
54.8424
55.9006
57.1777
58.4257
59.9813
61.4125
63.2952
64.9211
67.2805
69.2189
72.2311
74.4154
78.1827
81.4183
87.8439
94.4056
105.479
116.364
132.413
145.606
160.76
164.32
167.856
172.651
214.99
261.297
418.004
859.344
842.138
690.469
554.184
449.994
371.563
299.142
246.178
197.218
167.949
143.65
128.498
114.703
106.235
98.7721
93.9857
89.2968
85.6094
82.0011
79.1636
77.0886
75.6445
74.4364
72.6418
70.0058
66.677
63.3645
60.5857
58.6048
57.3952
56.8074
56.6048
56.5442
56.4967
56.3633
56.2498
56.0895
56.0883
56.0274
56.3127
56.5271
57.514
58.5936
61.6077
65.8965
73.9726
80.3239
44.5416
58.5897
72.7507
78.4535
75.0595
66.7517
57.7876
50.6743
46.4123
44.6978
44.4687
44.8785
45.4862
46.136
46.769
47.3901
47.9948
48.6075
49.2214
49.8696
50.5339
51.2641
52.022
52.881
53.7711
54.8111
55.8675
57.1431
58.3889
59.9428
61.3718
63.2525
64.8758
67.2314
69.1663
72.1726
74.3553
78.1078
81.3272
87.6932
94.2051
105.159
115.99
131.912
145.235
160.725
165.386
169.275
173.344
214.676
261.05
418.516
861.659
839.867
693.394
561.182
460.537
385.59
314.851
262.348
211.436
179.992
153.379
136.863
121.562
112.162
103.709
98.3359
92.9333
88.7213
84.4296
81.0175
78.4016
76.6561
75.3186
73.5444
70.943
67.594
64.1631
61.218
59.0691
57.7225
57.0328
56.7662
56.6783
56.6291
56.5098
56.4087
56.2623
56.265
56.213
56.4938
56.7086
57.6794
58.744
61.7342
65.9298
73.7984
79.9537
44.6227
58.695
72.793
78.4011
74.9668
66.6783
57.7484
50.6552
46.3997
44.684
44.4498
44.856
45.4628
46.113
46.7465
47.3678
47.9723
48.5845
49.1979
49.8455
50.5089
51.2383
51.9952
52.8532
53.742
54.7808
55.8356
57.1099
58.3538
59.9063
61.3335
63.2127
64.834
67.1864
69.1187
72.1198
74.3026
78.0415
81.2467
87.5525
94.0148
104.844
115.617
131.401
144.851
160.682
166.512
170.914
174.228
214.411
260.813
418.929
863.726
837.504
696.599
568.448
471.325
399.975
331.138
279.277
226.705
193.138
164.19
146.237
129.451
119.071
109.584
103.554
97.3733
92.5714
87.5066
83.4021
80.0963
77.9269
76.3846
74.6087
72.0478
68.6908
65.1389
62.0067
59.6581
58.1439
57.3271
56.9783
56.8512
56.7937
56.6863
56.5975
56.4662
56.4736
56.4319
56.7085
56.9254
57.8787
58.9284
61.8857
65.9829
73.6301
79.6176
44.7066
58.8031
72.8351
78.3458
74.8705
66.6034
57.7111
50.6401
46.3912
44.6735
44.4332
44.8348
45.4404
46.0907
46.7246
47.3459
47.9502
48.562
49.1749
49.8217
50.4844
51.2129
51.969
52.8261
53.7138
54.7517
55.8051
57.0782
58.3206
59.8721
61.2979
63.176
64.7962
67.1459
69.0768
72.0734
74.2582
77.9846
81.1784
87.4236
93.8366
104.536
115.247
130.882
144.458
160.635
167.699
172.795
175.343
214.214
260.595
419.242
865.546
835.079
700.153
576.025
482.322
414.636
347.901
296.837
242.879
207.266
175.987
156.523
138.292
126.919
116.395
109.666
102.668
97.2265
91.3223
86.4212
82.2684
79.5245
77.6734
75.8578
73.3405
69.9931
66.3252
62.9883
60.4055
58.6871
57.7122
57.2576
57.0752
57
56.9006
56.8231
56.7076
56.7203
56.6906
56.9637
57.1847
58.1198
59.1555
62.0717
66.0685
73.4849
79.3405
44.7937
58.9144
72.8775
78.2878
74.771
66.5276
57.6761
50.6297
46.3875
44.6666
44.419
44.8152
45.419
46.0692
46.7033
47.3246
47.9287
48.54
49.1523
49.7984
50.4604
51.1882
51.9435
52.7998
53.6867
54.7237
55.776
57.0484
58.2896
59.8404
61.2654
63.143
64.7629
67.1107
69.0414
72.0343
74.2232
77.9386
81.1237
87.3083
93.6729
104.237
114.885
130.361
144.064
160.593
168.948
174.936
176.737
214.109
260.403
419.457
867.118
832.622
704.132
583.978
493.498
429.495
365.036
314.906
259.818
222.257
188.67
167.623
147.984
135.626
124.099
116.657
108.831
102.718
95.9369
90.163
85.0173
81.5282
79.2316
77.316
74.8389
71.524
67.7552
64.2035
61.3523
59.3877
58.2163
57.6258
57.3669
57.2607
57.1629
57.0944
56.9948
57.0134
56.9973
57.2677
57.4953
58.4121
59.436
62.3042
66.2024
73.3838
79.1518
44.8841
59.029
72.9202
78.2273
74.6687
66.4515
57.6443
50.6248
46.3893
44.6639
44.4077
44.7975
45.3988
46.0486
46.6828
47.3039
47.9077
48.5185
49.1302
49.7756
50.4369
51.1641
51.9187
52.7744
53.6606
54.6972
55.7487
57.0206
58.2611
59.8116
61.2365
63.1141
64.7347
67.0813
69.0132
72.0034
74.1987
77.9048
81.0844
87.2088
93.5265
103.952
114.533
129.844
143.676
160.57
170.265
177.356
178.464
214.129
260.251
419.574
868.446
830.167
708.627
592.387
504.832
444.475
382.446
333.374
277.391
237.993
202.142
179.45
158.427
145.104
132.628
124.482
115.841
109.041
101.373
94.6854
88.4329
84.024
81.1136
79.0084
76.556
73.2999
69.4583
65.6947
62.5461
60.2901
58.8764
58.1121
57.7486
57.5931
57.487
57.4229
57.3385
57.3626
57.3618
57.6304
57.868
58.7668
59.7832
62.598
66.404
73.3524
79.085
44.978
59.1474
72.9638
78.1649
74.5641
66.3754
57.6164
50.6262
46.3973
44.6659
44.3996
44.7819
45.38
46.0291
46.6631
47.2839
47.8873
48.4975
49.1086