/*--------------------------------*- C++ -*----------------------------------*\
| =========                 |                                                 |
| \\      /  F ield         | OpenFOAM: The Open Source CFD Toolbox           |
|  \\    /   O peration     | Version:  2412                                  |
|   \\  /    A nd           | Website:  www.openfoam.com                      |
|    \\/     M anipulation  |                                                 |
\*---------------------------------------------------------------------------*/
FoamFile
{
    version     2.0;
    format      ascii;
    arch        "LSB;label=32;scalar=64";
    class       volScalarField;
    location    "0.3";
    object      nut;
}
// * * * * * * * * * * * * * * * * * * * * * * * * * * * * * * * * * * * * * //

dimensions      [0 2 -1 0 0 0 0];

internalField   nonuniform List<scalar> 
13077
(
0.347475
0.364046
0.368771
0.350095
0.313646
0.275719
0.250723
0.24762
0.268074
0.300488
0.3268
0.340986
0.347037
0.349452
0.3505
0.35115
0.351672
0.352233
0.352797
0.353465
0.35414
0.354961
0.355764
0.356759
0.357685
0.358873
0.359903
0.3613
0.362379
0.363985
0.365065
0.366999
0.368168
0.370698
0.371975
0.374984
0.376058
0.38011
0.382698
0.347455
0.363941
0.368617
0.349903
0.313419
0.275426
0.250308
0.247074
0.267514
0.300089
0.326595
0.340893
0.346987
0.349413
0.350463
0.351111
0.351631
0.352189
0.35275
0.353415
0.354086
0.354903
0.355701
0.35669
0.35761
0.35879
0.359813
0.361199
0.362268
0.363859
0.364924
0.366839
0.367989
0.370497
0.371751
0.374725
0.375754
0.379745
0.382277
0.388771
0.392348
0.399687
0.402206
0.406744
0.402025
0.39754
0.385959
0.402039
0.414491
0.439652
0.445913
0.452574
0.486782
0.462305
0.403455
0.293261
0.227897
0.204695
0.242572
0.297493
0.334526
0.337607
0.342023
0.33694
0.338775
0.334995
0.338256
0.338102
0.342343
0.347436
0.363837
0.368465
0.349711
0.313194
0.275137
0.249901
0.246536
0.26696
0.299691
0.326389
0.340798
0.346935
0.349372
0.350423
0.351069
0.351587
0.352142
0.3527
0.353361
0.354028
0.35484
0.355634
0.356615
0.35753
0.358701
0.359714
0.36109
0.362146
0.363722
0.364769
0.366663
0.367792
0.370276
0.371504
0.37444
0.37542
0.379345
0.381815
0.388216
0.391711
0.398877
0.401242
0.405389
0.400311
0.395074
0.383251
0.399518
0.412699
0.438442
0.445094
0.45266
0.488271
0.464151
0.403328
0.292539
0.226881
0.202679
0.238628
0.292246
0.329611
0.332959
0.337644
0.332491
0.334394
0.330515
0.333898
0.333854
0.338439
0.339345
0.343253
0.345221
0.348174
0.348759
0.348636
0.346199
0.343536
0.341445
0.341021
0.341333
0.342395
0.343755
0.344989
0.345629
0.345631
0.345617
0.345487
0.345881
0.345949
0.346605
0.3466
0.347573
0.34781
0.348739
0.347905
0.340576
0.317114
0.259142
0.198754
0.347419
0.363735
0.368314
0.34952
0.312969
0.274852
0.249501
0.246007
0.266413
0.299297
0.326182
0.340701
0.34688
0.349329
0.350381
0.351024
0.35154
0.352091
0.352646
0.353303
0.353965
0.354772
0.35556
0.356535
0.357442
0.358604
0.359607
0.36097
0.362013
0.363571
0.364599
0.36647
0.367576
0.370032
0.371232
0.374125
0.375052
0.378904
0.381306
0.387602
0.391004
0.397976
0.400168
0.403879
0.398401
0.392337
0.380239
0.39669
0.410668
0.437056
0.444144
0.452667
0.489718
0.465889
0.402967
0.291585
0.225645
0.200391
0.23426
0.286376
0.324047
0.327692
0.332693
0.327476
0.329459
0.325472
0.328983
0.329053
0.334008
0.335265
0.339644
0.342048
0.345457
0.346411
0.346592
0.344352
0.341819
0.339811
0.339462
0.339838
0.34097
0.342404
0.343717
0.344428
0.344492
0.344535
0.344461
0.344912
0.345032
0.345735
0.345761
0.346758
0.346981
0.347861
0.346805
0.338864
0.314027
0.255102
0.195452
0.347403
0.363635
0.368163
0.349327
0.312744
0.274569
0.249107
0.245488
0.265874
0.298906
0.325974
0.340601
0.346821
0.349281
0.350334
0.350976
0.351488
0.352036
0.352587
0.353239
0.353897
0.354698
0.355481
0.356447
0.357346
0.358497
0.359489
0.360838
0.361866
0.363404
0.364412
0.366256
0.367337
0.369762
0.37093
0.373776
0.374646
0.378417
0.380744
0.386924
0.39022
0.396973
0.398971
0.4022
0.39628
0.389307
0.376898
0.393524
0.408372
0.435473
0.443048
0.452584
0.491114
0.467508
0.402361
0.290384
0.22417
0.197805
0.229433
0.279828
0.317765
0.321742
0.327109
0.321841
0.323919
0.319814
0.323459
0.323645
0.328999
0.330637
0.335533
0.338423
0.342343
0.343714
0.344244
0.342234
0.339856
0.337946
0.337685
0.338137
0.339348
0.340866
0.342269
0.343062
0.343197
0.343302
0.34329
0.343804
0.343982
0.344737
0.344795
0.345817
0.346023
0.346844
0.345546
0.336958
0.310742
0.251001
0.192166
0.347388
0.363537
0.368012
0.349132
0.312519
0.274288
0.248719
0.244978
0.265343
0.298518
0.325767
0.340498
0.346758
0.349229
0.350283
0.350923
0.351432
0.351976
0.352523
0.353171
0.353824
0.354618
0.355393
0.356351
0.357241
0.35838
0.35936
0.360693
0.361704
0.36322
0.364205
0.36602
0.367072
0.369463
0.370596
0.37339
0.374198
0.377881
0.380124
0.386174
0.38935
0.39586
0.39764
0.400336
0.393928
0.385959
0.373198
0.389986
0.405779
0.433669
0.441787
0.452399
0.49245
0.469
0.401498
0.288921
0.222438
0.194901
0.224113
0.272547
0.310696
0.315038
0.320829
0.315528
0.317718
0.31349
0.317274
0.317578
0.323356
0.325408
0.330867
0.334292
0.338782
0.340625
0.341552
0.339809
0.337613
0.33582
0.335662
0.336202
0.337506
0.339118
0.340623
0.341509
0.341725
0.341902
0.341959
0.342542
0.342781
0.343593
0.343687
0.344733
0.344918
0.345671
0.34411
0.334843
0.307256
0.24684
0.188891
0.347375
0.36344
0.367861
0.348937
0.312292
0.27401
0.248338
0.244477
0.264821
0.298135
0.325558
0.340392
0.346692
0.349173
0.350228
0.350864
0.35137
0.351911
0.352454
0.353096
0.353743
0.35453
0.355298
0.356246
0.357125
0.358251
0.359217
0.360532
0.361525
0.363016
0.363976
0.365759
0.366779
0.369131
0.370226
0.372962
0.373703
0.377288
0.37944
0.385344
0.388387
0.394626
0.396161
0.398272
0.391327
0.382273
0.369113
0.386041
0.402855
0.431619
0.440342
0.4521
0.493718
0.470353
0.400366
0.287184
0.220432
0.191656
0.218272
0.264487
0.302772
0.307512
0.31379
0.30848
0.310805
0.30645
0.310377
0.310798
0.317024
0.319521
0.325589
0.3296
0.334723
0.337094
0.338473
0.337037
0.335055
0.3334
0.333361
0.334004
0.335413
0.337135
0.338756
0.339748
0.340056
0.340314
0.340447
0.341105
0.341412
0.342285
0.342418
0.34349
0.34365
0.344325
0.342478
0.332503
0.303562
0.242621
0.185622
0.347363
0.363345
0.367711
0.348739
0.312064
0.273733
0.247963
0.243985
0.264307
0.297755
0.325347
0.340281
0.346619
0.349111
0.350166
0.3508
0.351303
0.351839
0.352377
0.353014
0.353655
0.354434
0.355193
0.356131
0.356998
0.358109
0.359059
0.360354
0.361326
0.362791
0.363722
0.365469
0.366454
0.368763
0.369816
0.372488
0.373155
0.376633
0.378684
0.384427
0.38732
0.393258
0.394522
0.39599
0.388457
0.378223
0.364614
0.381651
0.399566
0.429293
0.438691
0.451672
0.494907
0.471558
0.398952
0.285157
0.218136
0.188054
0.211886
0.255611
0.293929
0.299099
0.305929
0.300643
0.303127
0.298647
0.30272
0.303257
0.309949
0.312921
0.319642
0.324291
0.330109
0.333071
0.334958
0.333875
0.332142
0.330648
0.330747
0.331509
0.333042
0.334888
0.33664
0.337754
0.338166
0.338515
0.338733
0.339473
0.339855
0.340794
0.340968
0.342066
0.342197
0.342784
0.340631
0.329919
0.299655
0.238343
0.182351
0.347353
0.363252
0.36756
0.34854
0.311835
0.273459
0.247593
0.243501
0.263801
0.297377
0.325134
0.340166
0.346541
0.349043
0.350098
0.350729
0.351228
0.35176
0.352293
0.352924
0.353558
0.354328
0.355078
0.356003
0.356858
0.357952
0.358885
0.360158
0.361105
0.36254
0.363439
0.365147
0.366093
0.368354
0.369359
0.371961
0.372549
0.375908
0.377849
0.383412
0.38614
0.391744
0.392708
0.393474
0.385301
0.37379
0.359674
0.376781
0.395874
0.426663
0.436812
0.451101
0.496009
0.472603
0.397244
0.28283
0.215538
0.184083
0.204947
0.245896
0.284114
0.289739
0.297185
0.291966
0.294638
0.29004
0.294259
0.29491
0.302082
0.305554
0.312969
0.318306
0.324885
0.3285
0.330958
0.330276
0.328829
0.327523
0.327782
0.328683
0.330357
0.332346
0.334248
0.335499
0.336031
0.336482
0.336793
0.337623
0.338086
0.339097
0.339316
0.340441
0.34054
0.341028
0.338546
0.327076
0.295529
0.234005
0.179075
0.347344
0.363161
0.36741
0.348339
0.311606
0.273187
0.24723
0.243026
0.263302
0.297001
0.324918
0.340044
0.346457
0.348967
0.350023
0.35065
0.351146
0.351673
0.352201
0.352824
0.35345
0.354212
0.354951
0.355862
0.356702
0.357779
0.358691
0.359939
0.360861
0.362262
0.363126
0.364789
0.365693
0.367899
0.368853
0.371376
0.371878
0.375107
0.376926
0.382292
0.384836
0.390072
0.390704
0.390705
0.381837
0.368952
0.354269
0.371394
0.391739
0.423695
0.43468
0.450372
0.497013
0.473475
0.395227
0.28019
0.212625
0.179739
0.197457
0.23534
0.27329
0.279383
0.287508
0.282406
0.285297
0.280595
0.284962
0.285722
0.293381
0.297373
0.305516
0.311586
0.31899
0.323325
0.326418
0.326191
0.325072
0.323982
0.324426
0.325486
0.327322
0.329475
0.331547
0.332955
0.333622
0.334189
0.334602
0.335531
0.336081
0.33717
0.337438
0.338591
0.338654
0.339032
0.336202
0.323954
0.29118
0.229607
0.175786
0.347337
0.363072
0.36726
0.348137
0.311375
0.272916
0.246872
0.242559
0.262809
0.296626
0.324697
0.339916
0.346364
0.348883
0.349939
0.350563
0.351054
0.351576
0.352099
0.352714
0.353332
0.354083
0.35481
0.355707
0.35653
0.357586
0.358476
0.359697
0.360589
0.361952
0.362778
0.364392
0.365247
0.367394
0.36829
0.370727
0.371134
0.374221
0.375908
0.381054
0.383396
0.388228
0.388495
0.387665
0.378047
0.363689
0.348374
0.365455
0.387122
0.420354
0.432268
0.449467
0.497908
0.474161
0.392888
0.277229
0.209393
0.175024
0.189435
0.223969
0.261437
0.267998
0.276855
0.27193
0.275076
0.270291
0.274804
0.275668
0.283811
0.288336
0.297234
0.304078
0.312367
0.317487
0.321283
0.321565
0.32082
0.319978
0.320632
0.321876
0.323899
0.326238
0.328504
0.33009
0.330911
0.331606
0.332134
0.333169
0.333815
0.334988
0.335309
0.336491
0.336514
0.336772
0.333573
0.320535
0.286601
0.225145
0.172479
0.347331
0.362985
0.36711
0.347932
0.311143
0.272648
0.24652
0.2421
0.262323
0.296251
0.324471
0.339779
0.346261
0.34879
0.349845
0.350466
0.350953
0.351469
0.351985
0.352593
0.353201
0.35394
0.354654
0.355534
0.356339
0.357372
0.358238
0.359427
0.360286
0.361608
0.36239
0.36395
0.364753
0.366833
0.367664
0.370007
0.370312
0.373242
0.374783
0.379688
0.381807
0.386196
0.386063
0.384335
0.373912
0.357985
0.34197
0.35893
0.38198
0.416604
0.429547
0.44837
0.498683
0.474648
0.390212
0.273939
0.205837
0.169952
0.18092
0.211834
0.248567
0.255575
0.265203
0.260522
0.263959
0.259122
0.263776
0.264738
0.273351
0.278414
0.288081
0.295733
0.304961
0.310931
0.315497
0.316347
0.316021
0.315462
0.316356
0.31781
0.320046
0.322597
0.325081
0.326869
0.327864
0.328704
0.329357
0.33051
0.331259
0.332524
0.332901
0.334114
0.334093
0.334221
0.330635
0.316801
0.281789
0.220617
0.169145
0.347328
0.362901
0.36696
0.347726
0.310911
0.272382
0.246173
0.241649
0.261842
0.295874
0.324237
0.339632
0.346149
0.348686
0.34974
0.350358
0.35084
0.35135
0.351859
0.352458
0.353056
0.353781
0.354481
0.355342
0.356127
0.357134
0.357972
0.359127
0.35995
0.361226
0.36196
0.363459
0.364203
0.366209
0.36697
0.369207
0.369401
0.372161
0.373543
0.378183
0.380058
0.383963
0.383392
0.380697
0.369413
0.351825
0.335043
0.351791
0.376273
0.412407
0.426486
0.44706
0.499325
0.474919
0.387185
0.270315
0.20196
0.164544
0.171969
0.199021
0.234722
0.242132
0.252547
0.248182
0.251945
0.247098
0.251887
0.252939
0.261996
0.267592
0.278029
0.28651
0.296721
0.303601
0.309004
0.310481
0.310624
0.310383
0.311547
0.313239
0.315717
0.318509
0.321241
0.323258
0.324449
0.32545
0.326243
0.327523
0.328383
0.329747
0.330186
0.331431
0.331363
0.33135
0.32736
0.312732
0.276738
0.216019
0.165777
0.347326
0.362818
0.36681
0.347519
0.310677
0.272117
0.245832
0.241204
0.261365
0.295495
0.323995
0.339474
0.346024
0.348569
0.349623
0.350236
0.350714
0.351218
0.351719
0.352308
0.352894
0.353605
0.354289
0.35513
0.355891
0.35687
0.357677
0.358794
0.359576
0.3608
0.361481
0.362913
0.363593
0.365515
0.366199
0.36832
0.368393
0.370966
0.372175
0.376525
0.378133
0.381511
0.380464
0.376732
0.364533
0.345199
0.327582
0.344012
0.369959
0.407721
0.423053
0.445519
0.499822
0.474959
0.383793
0.266355
0.197769
0.158835
0.162662
0.185654
0.219986
0.227722
0.238909
0.234937
0.239058
0.23425
0.239166
0.2403
0.249761
0.255872
0.267063
0.27638
0.287606
0.295446
0.30175
0.303912
0.304576
0.304688
0.306155
0.308117
0.310869
0.313932
0.316942
0.319217
0.320629
0.321812
0.322757
0.324176
0.325156
0.326626
0.327132
0.328411
0.328292
0.32813
0.323721
0.308311
0.271442
0.211345
0.162367
0.347326
0.362738
0.366661
0.347309
0.310442
0.271855
0.245496
0.240766
0.260891
0.295112
0.323743
0.339303
0.345884
0.348438
0.349491
0.350101
0.350573
0.35107
0.351563
0.352141
0.352715
0.35341
0.354075
0.354893
0.355629
0.356577
0.357349
0.358423
0.359159
0.360327
0.360949
0.362307
0.362915
0.364746
0.365343
0.367337
0.367279
0.369647
0.370668
0.374702
0.376019
0.378824
0.377262
0.372421
0.359256
0.338098
0.319582
0.335574
0.363002
0.402507
0.419214
0.443724
0.500161
0.474752
0.380021
0.26206
0.19328
0.152869
0.153096
0.171889
0.204487
0.212439
0.224347
0.22084
0.225344
0.220637
0.225665
0.226874
0.236684
0.243279
0.255186
0.265328
0.277583
0.286427
0.293686
0.296592
0.297824
0.298329
0.300131
0.302393
0.305452
0.30882
0.312143
0.314708
0.316368
0.317752
0.318866
0.320435
0.321546
0.32313
0.323707
0.325022
0.324849
0.32453
0.319692
0.303518
0.265898
0.206589
0.158907
0.347328
0.362661
0.366512
0.347097
0.310205
0.271594
0.245165
0.240334
0.26042
0.294723
0.323477
0.339116
0.345729
0.34829
0.349343
0.349948
0.350415
0.350904
0.351389
0.351955
0.352515
0.353192
0.353837
0.35463
0.355338
0.35625
0.356984
0.358011
0.358697
0.359801
0.360358
0.361634
0.362163
0.363892
0.364395
0.366248
0.366048
0.368193
0.369009
0.372698
0.3737
0.375886
0.373766
0.367747
0.353567
0.33052
0.311047
0.326466
0.355366
0.396724
0.414933
0.441653
0.500327
0.474278
0.375854
0.257434
0.18851
0.1467
0.143388
0.157916
0.188398
0.196425
0.208954
0.205978
0.21088
0.20634
0.211464
0.21274
0.222828
0.229862
0.242424
0.253362
0.266637
0.27651
0.284773
0.288473
0.290321
0.291255
0.293425
0.296021
0.299421
0.303129
0.3068
0.309689
0.311627
0.313236
0.314534
0.316266
0.317517
0.319223
0.319877
0.32123
0.321001
0.320519
0.315242
0.298336
0.2601
0.201746
0.155387
0.347333
0.362586
0.366363
0.346884
0.309968
0.271335
0.244839
0.239908
0.259949
0.294326
0.323197
0.338911
0.345555
0.348125
0.349176
0.349777
0.350238
0.35072
0.351194
0.351747
0.352292
0.35295
0.353573
0.354337
0.355014
0.355886
0.356578
0.357552
0.358182
0.359216
0.359701
0.360887
0.361328
0.362945
0.363344
0.365042
0.364689
0.36659
0.367185
0.3705
0.37116
0.372678
0.369959
0.362692
0.347455
0.322467
0.301987
0.316688
0.347022
0.39033
0.410175
0.439282
0.500307
0.47352
0.371278
0.252483
0.183486
0.14039
0.133667
0.14395
0.17194
0.179869
0.192868
0.190474
0.195772
0.191473
0.196672
0.198007
0.208287
0.215697
0.228832
0.240509
0.254771
0.265681
0.274979
0.279519
0.282027
0.283423
0.285992
0.288952
0.292729
0.296812
0.30087
0.30412
0.306367
0.308226
0.309726
0.311634
0.313035
0.314872
0.315608
0.317002
0.316714
0.316063
0.310344
0.292749
0.254045
0.196807
0.151797
0.347339
0.362514
0.366214
0.346668
0.309729
0.271078
0.244518
0.239487
0.259478
0.293919
0.322899
0.338686
0.34536
0.347937
0.348988
0.349585
0.35004
0.350513
0.350977
0.351516
0.352044
0.352681
0.353278
0.354012
0.354653
0.355482
0.356126
0.357042
0.35761
0.358567
0.358973
0.360058
0.360404
0.361896
0.362181
0.36371
0.36319
0.364827
0.365181
0.368092
0.368383
0.369183
0.365822
0.357241
0.34091
0.313947
0.292422
0.306246
0.337947
0.383286
0.404901
0.436587
0.500083
0.472455
0.366279
0.247218
0.178238
0.134009
0.124068
0.130222
0.155374
0.163007
0.176272
0.17449
0.180162
0.176179
0.181424
0.182812
0.193183
0.200893
0.21449
0.226826
0.242011
0.253942
0.264288
0.269703
0.272907
0.274797
0.277791
0.281145
0.285332
0.289828
0.29431
0.29796
0.300551
0.302685
0.304407
0.306505
0.308065
0.310042
0.310866
0.312304
0.311955
0.311132
0.304972
0.286742
0.247727
0.191764
0.148128
0.347348
0.362444
0.366066
0.346451
0.309489
0.270822
0.244201
0.239069
0.259005
0.293498
0.32258
0.338437
0.345141
0.347726
0.348776
0.349368
0.349817
0.350281
0.350734
0.351258
0.351767
0.35238
0.35295
0.353649
0.354252
0.355033
0.355624
0.356476
0.356975
0.357847
0.358165
0.35914
0.35938
0.360735
0.360895
0.362239
0.361538
0.362889
0.362984
0.365457
0.365351
0.365383
0.361337
0.351379
0.333924
0.304972
0.28238
0.295164
0.328127
0.375555
0.399077
0.433541
0.499641
0.471064
0.360844
0.241652
0.172804
0.127629
0.114731
0.116968
0.138989
0.146116
0.159393
0.158226
0.164225
0.160626
0.165886
0.167319
0.177667
0.185588
0.199511
0.2124
0.228409
0.241318
0.252705
0.259015
0.262942
0.265349
0.26879
0.272565
0.277193
0.282135
0.287079
0.291168
0.294139
0.296578
0.29854
0.300842
0.302573
0.304698
0.305615
0.3071
0.30669
0.305693
0.299099
0.2803
0.241143
0.186609
0.144371
0.347359
0.362378
0.365918
0.346231
0.309247
0.270568
0.243888
0.238655
0.258528
0.293062
0.322237
0.338161
0.344895
0.347488
0.348537
0.349125
0.349567
0.350021
0.350462
0.350969
0.351459
0.352045
0.352585
0.353246
0.353806
0.354534
0.355067
0.355847
0.356271
0.357048
0.357271
0.358124
0.358248
0.359452
0.359475
0.360616
0.35972
0.360761
0.360577
0.362579
0.362048
0.36126
0.356487
0.345093
0.326494
0.295563
0.271899
0.283474
0.317557
0.367105
0.392664
0.430119
0.498962
0.469323
0.354959
0.235802
0.167223
0.121325
0.105785
0.104409
0.123091
0.129502
0.142499
0.141915
0.148164
0.145013
0.150246
0.151719
0.161921
0.169948
0.18404
0.197346
0.214048
0.227861
0.240254
0.247462
0.252127
0.255066
0.258969
0.263184
0.268279
0.273699
0.279143
0.28371
0.287097
0.28987
0.292094
0.294615
0.296527
0.298808
0.299824
0.301359
0.300888
0.299719
0.292701
0.273414
0.234291
0.181332
0.140513
0.347373
0.362315
0.365771
0.346009
0.309004
0.270315
0.243578
0.238242
0.258044
0.292607
0.321866
0.337853
0.344616
0.347218
0.348268
0.348851
0.349286
0.34973
0.350158
0.350647
0.351114
0.351672
0.352179
0.352798
0.35331
0.35398
0.354448
0.35515
0.35549
0.356164
0.356281
0.357001
0.356998
0.358036
0.357909
0.35883
0.357723
0.358428
0.357945
0.35944
0.358455
0.356796
0.351254
0.338373
0.318619
0.285742
0.261025
0.271226
0.306247
0.357908
0.385629
0.426293
0.498028
0.467209
0.348615
0.229685
0.161536
0.115166
0.0973473
0.0927433
0.107979
0.113485
0.125888
0.125819
0.132214
0.129554
0.134714
0.136218
0.146148
0.154167
0.16825
0.181816
0.199044
0.213652
0.226985
0.235074
0.240478
0.243954
0.248322
0.252988
0.258569
0.264494
0.27047
0.275553
0.279393
0.28253
0.285038
0.287792
0.289895
0.292341
0.293461
0.29505
0.294518
0.293181
0.285759
0.266075
0.227167
0.175926
0.136547
0.347389
0.362254
0.365623
0.345785
0.308759
0.270063
0.243272
0.237831
0.257552
0.292129
0.321462
0.33751
0.344303
0.346914
0.347963
0.348542
0.34897
0.349404
0.349817
0.350287
0.35073
0.351257
0.351727
0.3523
0.35276
0.353365
0.353763
0.354377
0.354626
0.355186
0.355187
0.355761
0.355618
0.356475
0.356184
0.356865
0.355532
0.355876
0.355071
0.356025
0.354556
0.351974
0.345624
0.331211
0.310303
0.275543
0.249814
0.258484
0.294221
0.347944
0.377941
0.422035
0.496821
0.464697
0.3418
0.223324
0.15579
0.109217
0.0895125
0.0821264
0.0939256
0.0983733
0.109871
0.110215
0.116623
0.114479
0.119512
0.121038
0.130568
0.13846
0.152343
0.16599
0.183542
0.198805
0.212981
0.22191
0.228033
0.232038
0.236862
0.241979
0.248055
0.254502
0.261037
0.266671
0.271001
0.274531
0.277346
0.280348
0.282653
0.28527
0.2865
0.288145
0.287554
0.286058
0.278255
0.258279
0.219771
0.170381
0.132462
0.347408
0.362197
0.365477
0.345558
0.308512
0.269812
0.242969
0.23742
0.257049
0.291624
0.32102
0.337126
0.343949
0.346569
0.34762
0.348194
0.348616
0.349038
0.349437
0.349885
0.350303
0.350795
0.351225
0.351747
0.352149
0.352683
0.353003
0.353522
0.35367
0.354105
0.35398
0.354394
0.354099
0.354758
0.354288
0.354708
0.353132
0.353087
0.351938
0.352314
0.350332
0.346777
0.339582
0.323601
0.301555
0.265001
0.238329
0.245323
0.281517
0.337202
0.369569
0.417317
0.495321
0.461762
0.334506
0.216741
0.150025
0.103533
0.08235
0.072664
0.0811541
0.0844429
0.0947544
0.095382
0.101649
0.100018
0.104864
0.106401
0.115409
0.123054
0.136541
0.150073
0.167722
0.183465
0.19835
0.208053
0.214857
0.219368
0.224625
0.230178
0.236745
0.243722
0.250835
0.257047
0.2619
0.265855
0.268998
0.272261
0.274777
0.277573
0.278918
0.280623
0.279977
0.27833
0.27018
0.250025
0.212105
0.164689
0.12825
0.34743
0.362144
0.36533
0.345329
0.308263
0.269561
0.242667
0.237007
0.256531
0.291087
0.320535
0.336696
0.343548
0.34618
0.347232
0.347803
0.348217
0.348628
0.349011
0.349437
0.349826
0.350281
0.350667
0.351133
0.351472
0.351928
0.352163
0.352577
0.352615
0.352913
0.352649
0.352889
0.352428
0.35287
0.352207
0.352344
0.350507
0.350045
0.34853
0.348292
0.345768
0.341192
0.333117
0.315542
0.292386
0.254158
0.226639
0.231837
0.268191
0.325681
0.360492
0.412112
0.493507
0.458377
0.326729
0.20996
0.144285
0.098158
0.0759002
0.0644063
0.0698228
0.0719137
0.0808167
0.0815808
0.0875412
0.0863925
0.0909885
0.0925188
0.100897
0.10818
0.121076
0.134291
0.15179
0.167807
0.183238
0.19362
0.201045
0.206022
0.211671
0.21763
0.224667
0.232167
0.239864
0.246676
0.252081
0.256488
0.25998
0.263519
0.266255
0.269234
0.270699
0.272467
0.27177
0.269986
0.261527
0.241318
0.204172
0.158844
0.123903
0.347454
0.362093
0.365184
0.345097
0.308012
0.269311
0.242368
0.23659
0.255996
0.290512
0.320001
0.336213
0.343096
0.34574
0.346794
0.347362
0.34777
0.348169
0.348535
0.348937
0.349295
0.34971
0.350048
0.350453
0.350723
0.351093
0.351234
0.351534
0.351451
0.3516
0.351185
0.351234
0.350593
0.3508
0.349927
0.349758
0.347642
0.346734
0.34483
0.343941
0.340846
0.335203
0.326219
0.307036
0.282814
0.243063
0.214821
0.218127
0.254317
0.313393
0.350693
0.406392
0.491357
0.454515
0.318464
0.203005
0.138607
0.0931237
0.0701751
0.0573483
0.0600134
0.0609305
0.0682833
0.0690351
0.0745254
0.0738004
0.0780823
0.079586
0.0872447
0.0940584
0.106183
0.118882
0.135971
0.152035
0.167815
0.178758
0.186722
0.192107
0.19809
0.204405
0.211874
0.219873
0.228145
0.235567
0.241546
0.246429
0.25029
0.254116
0.257079
0.260246
0.261835
0.263668
0.262927
0.261022
0.252301
0.232169
0.195977
0.15284
0.119416
0.347482
0.362047
0.365038
0.344863
0.307758
0.269061
0.242069
0.236169
0.255439
0.289895
0.31941
0.335671
0.342585
0.345242
0.346301
0.346866
0.347268
0.347655
0.348003
0.34838
0.348705
0.349076
0.349362
0.3497
0.349894
0.350171
0.350209
0.350384
0.350169
0.350155
0.349576
0.349419
0.348582
0.348533
0.347433
0.346936
0.344521
0.343139
0.340822
0.339246
0.335552
0.328799
0.31888
0.298088
0.27286
0.231765
0.202952
0.204307
0.239988
0.300366
0.340163
0.400131
0.48885
0.450149
0.309714
0.195901
0.133025
0.0884487
0.0651604
0.051436
0.0517293
0.0515532
0.0573073
0.0579124
0.0627868
0.0624039
0.0663111
0.0677639
0.0746361
0.0808913
0.0920873
0.10408
0.120502
0.136372
0.152281
0.16364
0.172041
0.17776
0.184
0.190603
0.198443
0.206897
0.215718
0.223744
0.230309
0.235687
0.239935
0.244058
0.247255
0.250611
0.252327
0.254229
0.253451
0.251445
0.242513
0.222596
0.187532
0.146674
0.114785
0.347512
0.362004
0.364892
0.344625
0.307502
0.26881
0.24177
0.235741
0.254856
0.289228
0.318755
0.335061
0.342008
0.34468
0.345744
0.346308
0.346704
0.347079
0.34741
0.347759
0.348049
0.348372
0.348601
0.348867
0.348979
0.349154
0.34908
0.349118
0.34876
0.348569
0.347812
0.34743
0.346382
0.346055
0.344711
0.34386
0.341128
0.339241
0.336489
0.334191
0.329873
0.321971
0.311098
0.288711
0.262552
0.22032
0.191113
0.190497
0.225311
0.286642
0.328902
0.393305
0.485963
0.445251
0.300483
0.188674
0.127567
0.084139
0.0608199
0.0465772
0.0449029
0.0437571
0.0479566
0.0483098
0.052456
0.0523182
0.055798
0.0571726
0.0632188
0.068847
0.0789885
0.0901086
0.105623
0.12105
0.136854
0.148464
0.157182
0.163147
0.16955
0.176353
0.184482
0.193324
0.202645
0.211252
0.218404
0.224288
0.228935
0.233361
0.236796
0.240343
0.242189
0.244161
0.243355
0.24127
0.232187
0.212623
0.17885
0.140347
0.110009
0.347546
0.361965
0.364747
0.344385
0.307242
0.268559
0.24147
0.235303
0.254243
0.288503
0.318027
0.334374
0.341355
0.344046
0.345117
0.345681
0.346072
0.346435
0.346748
0.347068
0.34732
0.347593
0.34776
0.347947
0.347969
0.348033
0.347838
0.347728
0.347213
0.34683
0.345881
0.345256
0.343979
0.343354
0.341746
0.340517
0.337449
0.335028
0.331817
0.328762
0.323795
0.314712
0.302871
0.278918
0.25192
0.208784
0.179382
0.17682
0.21041
0.272282
0.316922
0.385891
0.482672
0.439794
0.290782
0.181348
0.122256
0.0801898
0.0571012
0.0426544
0.0394107
0.0374436
0.0402113
0.0402464
0.0435976
0.043603
0.0466158
0.0478841
0.0530935
0.0580509
0.067052
0.0771646
0.0915574
0.106304
0.12176
0.133445
0.142346
0.148457
0.154916
0.161814
0.170126
0.179265
0.189013
0.198158
0.205881
0.212273
0.217326
0.22206
0.225733
0.229468
0.231446
0.233489
0.232665
0.230526
0.221356
0.202284
0.169951
0.133862
0.105091
0.347582
0.361929
0.364601
0.344141
0.306979
0.268306
0.241168
0.234854
0.253594
0.287714
0.317217
0.333601
0.340619
0.34333
0.344411
0.344977
0.345364
0.345716
0.346009
0.346299
0.346511
0.346729
0.34683
0.346933
0.346857
0.3468
0.346473
0.346202
0.345519
0.344928
0.34377
0.342883
0.341361
0.340414
0.338524
0.336891
0.333467
0.330483
0.326792
0.322949
0.317312
0.307019
0.294206
0.268731
0.241003
0.197216
0.167837
0.163401
0.195422
0.257365
0.304247
0.37787
0.478954
0.433752
0.280628
0.173947
0.117106
0.0765868
0.0539415
0.0395374
0.035092
0.0324593
0.0339728
0.0336651
0.0362064
0.0362593
0.0387829
0.0399184
0.0443087
0.0485786
0.0563975
0.0654066
0.0785062
0.0923541
0.107229
0.118804
0.127746
0.133897
0.140298
0.147168
0.155539
0.164862
0.174939
0.184553
0.192813
0.199701
0.20516
0.2102
0.214111
0.218029
0.220138
0.222253
0.221424
0.219257
0.210068
0.191621
0.160861
0.127228
0.100038
0.347622
0.361898
0.364456
0.343893
0.306713
0.268052
0.240864
0.23439
0.252904
0.286851
0.316313
0.332732
0.339787
0.342522
0.343616
0.344186
0.344571
0.344912
0.345187
0.345445
0.345615
0.345775
0.345804
0.345815
0.345634
0.345447
0.344977
0.344532
0.343665
0.34285
0.341468
0.3403
0.338513
0.337223
0.335031
0.332968
0.329169
0.325594
0.321402
0.316741
0.310414
0.298893
0.285109
0.258176
0.229839
0.185675
0.156548
0.150357
0.180491
0.241988
0.290916
0.369227
0.474784
0.4271
0.270044
0.166494
0.112129
0.0733083
0.0512731
0.0370959
0.0317693
0.0286191
0.0290825
0.0284439
0.0302107
0.0302316
0.032264
0.0332449
0.0368595
0.0404521
0.0470925
0.054946
0.0666313
0.0793966
0.0934725
0.104758
0.1136
0.119683
0.125908
0.132622
0.140911
0.15028
0.160563
0.170554
0.179295
0.186653
0.192508
0.197845
0.201989
0.206082
0.208322
0.210507
0.209686
0.207521
0.198383
0.180687
0.151614
0.12046
0.0948644
0.347665
0.36187
0.364311
0.343642
0.306442
0.267795
0.240554
0.233909
0.252166
0.285904
0.315305
0.331753
0.33885
0.341612
0.342722
0.343298
0.343684
0.344015
0.344271
0.344498
0.344623
0.34472
0.344674
0.344586
0.344291
0.343964
0.343339
0.342706
0.341643
0.340586
0.338964
0.337494
0.335425
0.333765
0.331252
0.328735
0.324542
0.320349
0.315637
0.310131
0.303101
0.290338
0.275596
0.247285
0.218477
0.17422
0.14558
0.137799
0.165767
0.226266
0.276981
0.359949
0.470138
0.419814
0.259063
0.159012
0.107327
0.0703277
0.049028
0.035207
0.0292657
0.0257287
0.0253466
0.0244148
0.0254838
0.025416
0.0269759
0.0277877
0.0306909
0.0336413
0.0391499
0.0458414
0.0560475
0.0675891
0.0806801
0.0915069
0.100113
0.106029
0.111965
0.118393
0.126448
0.135711
0.146054
0.156301
0.165443
0.173228
0.179458
0.185079
0.189445
0.193702
0.19607
0.198323
0.197525
0.19539
0.186376
0.169545
0.14225
0.113577
0.0895876
0.347712
0.361846
0.364165
0.343387
0.306168
0.267535
0.240239
0.233406
0.251375
0.284863
0.314179
0.330652
0.337793
0.340588
0.341717
0.342304
0.342692
0.343015
0.343254
0.343447
0.343526
0.343558
0.34343
0.343236
0.34282
0.34234
0.34155
0.340714
0.33944
0.338124
0.336244
0.334452
0.332081
0.33003
0.327177
0.324179
0.319575
0.314739
0.30949
0.303117
0.295371
0.281364
0.265686
0.236095
0.206964
0.162907
0.134989
0.125824
0.151399
0.210329
0.26251
0.350032
0.464993
0.411874
0.247724
0.151523
0.102701
0.067615
0.0471411
0.0337617
0.0274177
0.0236027
0.0225612
0.021387
0.0218608
0.0216727
0.0227977
0.023435
0.0257062
0.0280694
0.0325295
0.0380961
0.0468162
0.0570432
0.0690027
0.0792227
0.0874731
0.0931319
0.0986812
0.104699
0.112368
0.121362
0.131599
0.14196
0.1514
0.159548
0.166119
0.172
0.176574
0.180979
0.18347
0.185788
0.185028
0.182951
0.174134
0.158266
0.132818
0.106608
0.0842339
0.347761
0.361826
0.364019
0.343127
0.305888
0.267271
0.239917
0.232879
0.250521
0.283717
0.312922
0.329414
0.336604
0.339435
0.34059
0.34119
0.341585
0.341902
0.342124
0.342284
0.342315
0.342277
0.342063
0.341756
0.34121
0.340568
0.339599
0.338546
0.337046
0.335453
0.333298
0.331162
0.328472
0.326005
0.322792
0.31929
0.314259
0.308757
0.302956
0.295698
0.287231
0.271986
0.255405
0.224649
0.195354
0.151792
0.124824
0.114514
0.137531
0.194323
0.247588
0.339477
0.459324
0.403263
0.236079
0.14405
0.0982443
0.065139
0.0455526
0.0326661
0.0260827
0.0220762
0.0205326
0.0191684
0.0191596
0.0188422
0.0195838
0.0200511
0.0217778
0.0236228
0.0271456
0.0316624
0.0389438
0.0478182
0.0585459
0.0680381
0.0758319
0.0811638
0.0862489
0.0917512
0.0988906
0.107449
0.117404
0.127715
0.137326
0.145752
0.152616
0.158725
0.163486
0.168018
0.170626
0.173003
0.172298
0.170308
0.161758
0.146934
0.123377
0.0995895
0.0788366
0.347814
0.361809
0.363872
0.342862
0.305602
0.267002
0.239585
0.232324
0.249598
0.282452
0.311518
0.328024
0.335266
0.33814
0.339325
0.339944
0.340349
0.340663
0.34087
0.340997
0.340979
0.340869
0.340564
0.340137
0.339451
0.338635
0.337476
0.336192
0.334449
0.332562
0.330115
0.327614
0.324585
0.32168
0.318088
0.314059
0.308585
0.302399
0.296035
0.287879
0.27869
0.262225
0.244783
0.212997
0.183704
0.140928
0.115121
0.103932
0.124294
0.178402
0.232314
0.328292
0.453109
0.393969
0.224188
0.136618
0.0939491
0.0628681
0.044209
0.0318425
0.0251419
0.0210106
0.019091
0.0175832
0.0171995
0.016761
0.0171792
0.0174894
0.0187605
0.0201637
0.0228767
0.0264483
0.0323851
0.0399203
0.0493649
0.0580402
0.0653005