/*--------------------------------*- C++ -*----------------------------------*\
| =========                 |                                                 |
| \\      /  F ield         | OpenFOAM: The Open Source CFD Toolbox           |
|  \\    /   O peration     | Version:  2412                                  |
|   \\  /    A nd           | Website:  www.openfoam.com                      |
|    \\/     M anipulation  |                                                 |
\*---------------------------------------------------------------------------*/
FoamFile
{
    version     2.0;
    format      ascii;
    arch        "LSB;label=32;scalar=64";
    class       volScalarField;
    location    "0.3";
    object      p;
}
// * * * * * * * * * * * * * * * * * * * * * * * * * * * * * * * * * * * * * //

dimensions      [0 2 -2 0 0 0 0];

internalField   nonuniform List<scalar> 
13077
(
111027
110881
110772
110540
110413
110211
110102
109935
109817
109637
109495
109291
109123
108881
108685
108392
108168
107807
107552
107100
106816
106242
105933
105197
104873
103918
103602
102347
102081
100408
100265
98003.9
98107.8
94996.8
95553.1
91187.3
92534.9
86280.7
88981.1
111042
110894
110783
110548
110419
110216
110106
109939
109822
109642
109499
109296
109127
108886
108690
108398
108174
107813
107558
107106
106822
106249
105939
105204
104880
103926
103609
102356
102088
100418
100272
98015.1
98114.1
95009.2
95558.7
91201.1
92539.6
86295.9
88984.2
79869.1
84863.9
71472.9
80425.2
60783
75980.4
47129
71143.1
27325.4
61701.4
-6777.18
44194.7
-62577.5
15673.6
-159420
1020.21
-74856.6
9610.74
-40654.7
14072
-14190
23588.8
8073.46
32886.9
24064.4
40087.7
35304.8
46123.7
43971.8
51375.9
111058
110907
110794
110556
110426
110221
110111
109943
109826
109647
109504
109301
109132
108891
108696
108403
108179
107818
107564
107113
106828
106256
105946
105212
104887
103935
103616
102365
102095
100429
100279
98026.3
98120.3
95021.7
95564.3
91215.1
92544.3
86311.2
88987.4
79884.3
84864.2
71486.4
80424.9
60798.6
75988.6
47161.3
71177.1
27383.7
61747.7
-6731.56
44229.9
-62605.2
15599.9
-159958
928.575
-74841.2
9590.16
-40661.9
14037.4
-14198.5
23569.8
8083.34
32881.8
24077.8
40083.7
35313.9
46120.9
43980.8
51376.6
50592.2
55619.8
55542.2
58998.7
59251.9
61650.6
62068.6
63848.5
64470.6
65984.4
66815.9
68133.8
69023.6
70086
70919.3
71701.6
72459.9
72996.1
73734.1
74059.4
74849.3
74958.7
75895.3
75739.2
76981.5
76443.2
78275.3
77128.1
80068.4
77896.5
111073
110920
110806
110564
110432
110226
110115
109948
109831
109652
109509
109306
109137
108896
108700
108409
108184
107824
107570
107119
106834
106263
105952
105220
104893
103943
103623
102374
102101
100439
100285
98037.6
98126.5
95034.3
95569.9
91229.2
92549.1
86326.7
88990.7
79899.8
84864.8
71500.3
80425
60814.7
75997.3
47194.2
71211.5
27442.5
61794.5
-6685.08
44266
-62631.9
15526.7
-160501
834.312
-74827.2
9568.36
-40669.8
14002.2
-14207.8
23549.7
8092.17
32875.6
24090.2
40078.7
35322.2
46117.3
43989.1
51376.4
50600.6
55621.4
55549.5
59000.6
59257
61650.6
62069.6
63845.3
64468.5
65981
66814.5
68133
69024.4
70087.3
70920.9
71703.2
72460.4
72996.6
73732.6
74058.4
74845.4
74956
75888.5
75734.5
76971.6
76436.4
78263.5
77121.1
80063.3
77891.2
111089
110933
110818
110572
110439
110231
110120
109952
109835
109656
109513
109311
109142
108901
108705
108414
108190
107830
107575
107125
106840
106270
105959
105228
104900
103952
103630
102384
102108
100449
100292
98048.9
98132.8
95046.9
95575.6
91243.4
92553.9
86342.3
88994.1
79915.5
84865.7
71514.6
80425.4
60831.4
76006.6
47227.8
71246.3
27502
61841.9
-6637.62
44303
-62657.7
15454.1
-161048
737.534
-74814.5
9545.28
-40678.4
13966.5
-14218
23528.3
8099.83
32868.2
24101.7
40072.8
35329.6
46112.8
43996.5
51375.4
50608.2
55622.2
55556.3
59001.9
59261.7
61650.2
62070.3
63842.1
64466.2
65977.5
66813.1
68132
69025.1
70088.6
70922.5
71704.8
72460.9
72997.1
73731.2
74057.5
74841.6
74953.4
75881.9
75729.9
76961.8
76429.8
78252
77114.5
80058.6
77886.4
111105
110946
110830
110581
110446
110236
110124
109956
109840
109661
109518
109316
109147
108906
108711
108420
108195
107836
107581
107132
106846
106277
105965
105235
104907
103960
103637
102393
102115
100459
100299
98060.3
98139.1
95059.6
95581.3
91257.6
92558.8
86358
88997.6
79931.4
84866.7
71529.1
80426.2
60848.5
76016.3
47262.2
71282
27562.7
61890.4
-6589.03
44341.1
-62682.3
15381.6
-161598
638.839
-74802.5
9520.94
-40688.1
13929.7
-14229.6
23505.4
8106.16
32859.6
24112
40065.8
35336.1
46107.4
44003.1
51373.6
50615
55622.3
55562.5
59002.7
59266
61649.5
62070.8
63838.6
64463.9
65974
66811.7
68131.1
69025.8
70089.7
70923.9
71706.3
72461.4
72997.6
73729.7
74056.5
74837.8
74950.8
75875.3
75725.5
76952.2
76423.4
78240.7
77108.3
80054.1
77882
111121
110960
110842
110589
110453
110241
110129
109960
109844
109666
109523
109321
109151
108911
108716
108425
108200
107842
107587
107138
106852
106284
105971
105243
104914
103969
103644
102403
102122
100470
100306
98071.7
98145.5
95072.4
95587.1
91272
92563.8
86373.9
89001.2
79947.5
84867.8
71543.9
80427.1
60866
76026.6
47297.6
71318.7
27624.5
61940
-6539.2
44380.5
-62705.7
15309.3
-162153
538.192
-74791.4
9495.25
-40699
13891.7
-14242.6
23480.9
8111
32849.6
24121.1
40057.6
35341.6
46100.9
44008.7
51370.9
50621.1
55621.6
55568
59002.9
59269.8
61648.4
62071
63834.9
64461.4
65970.2
66810.2
68129.9
69026.3
70090.8
70925.3
71707.7
72461.8
72998
73728.1
74055.5
74833.9
74948.1
75868.6
75720.9
76942.4
76417
78229.4
77102.4
80049.5
77877.8
111138
110973
110854
110598
110460
110246
110133
109965
109849
109671
109528
109326
109156
108917
108721
108430
108206
107848
107592
107145
106859
106292
105978
105251
104920
103977
103651
102412
102129
100480
100312
98083.2
98151.9
95085.2
95592.9
91286.5
92568.8
86389.9
89004.9
79963.7
84869.1
71558.9
80428.4
60884.1
76037.5
47333.8
71356.4
27687.7
61990.8
-6488.03
44421.1
-62727.7
15237.2
-162712
435.445
-74781.1
9468.13
-40711.1
13852.5
-14257
23454.6
8114.24
32838
24129
40048.2
35346
46093.4
44013.4
51367.1
50626.2
55620.1
55572.8
59002.5
59273.1
61646.8
62070.9
63830.9
64458.6
65966.3
66808.4
68128.7
69026.7
70091.7
70926.6
71709
72462
72998.3
73726.5
74054.3
74829.9
74945.4
75861.8
75716.3
76932.6
76410.6
78217.9
77096.5
80044.9
77873.8
111155
110987
110867
110606
110467
110251
110138
109969
109853
109675
109532
109330
109161
108922
108726
108436
108211
107854
107598
107151
106865
106299
105985
105259
104927
103986
103658
102421
102136
100490
100319
98094.7
98158.3
95098.2
95598.8
91301
92573.9
86406
89008.7
79980.2
84870.5
71574.2
80430
60902.6
76049
47371
71395.2
27752.3
62043
-6435.39
44463.1
-62748.3
15165.6
-163276
330.467
-74771.9
9439.49
-40724.3
13812.3
-14272.8
23426.5
8115.75
32824.9
24135.4
40037.5
35349.3
46084.7
44017
51362.3
50630.4
55617.6
55576.8
59001.4
59275.8
61644.8
62070.3
63826.5
64455.6
65962.2
66806.5
68127.3
69027
70092.5
70927.7
71710.2
72462.2
72998.5
73724.7
74053.1
74825.8
74942.6
75854.9
75711.7
76922.6
76404.1
78206.4
77090.8
80040.2
77870.1
111172
111001
110879
110615
110474
110256
110142
109973
109858
109680
109537
109335
109166
108927
108731
108441
108217
107860
107604
107158
106871
106306
105991
105267
104934
103995
103665
102431
102143
100501
100326
98106.3
98164.8
95111.2
95604.7
91315.7
92579.1
86422.3
89012.6
79996.9
84872.2
71589.8
80431.9
60921.6
76061.2
47409.3
71435.1
27818.3
62096.6
-6381.17
44506.6
-62767.4
15094.4
-163843
223.136
-74763.9
9409.25
-40738.8
13771.1
-14290.1
23396.4
8115.43
32810
24140.4
40025.4
35351.3
46074.8
44019.5
51356.3
50633.5
55614.2
55580
58999.5
59277.9
61642.3
62069.4
63821.8
64452.3
65957.8
66804.4
68125.7
69027.2
70093.2
70928.8
71711.3
72462.2
72998.5
73722.8
74051.8
74821.7
74939.7
75848
75706.9
76912.5
76397.6
78194.8
77085.3
80035.5
77866.6
111189
111015
110892
110624
110481
110261
110147
109977
109862
109685
109542
109340
109171
108932
108736
108447
108222
107866
107610
107165
106877
106313
105998
105275
104941
104003
103672
102441
102150
100511
100333
98118
98171.4
95124.3
95610.7
91330.5
92584.4
86438.8
89016.7
80013.8
84874
71605.8
80434.2
60941.3
76074.2
47448.7
71476.1
27885.9
62151.7
-6325.23
44551.8
-62784.8
15023.8
-164414
113.322
-74757.2
9377.36
-40754.4
13729.1
-14308.6
23364.4
8113.24
32793.3
24143.8
40011.8
35352.2
46063.7
44020.8
51349.2
50635.5
55609.7
55582.2
58996.8
59279.3
61639.1
62067.9
63816.7
64448.6
65953.1
66802
68123.9
69027.1
70093.7
70929.6
71712.2
72462.1
72998.5
73720.9
74050.4
74817.4
74936.7
75840.9
75702.1
76902.4
76391.1
78183.1
77079.9
80030.7
77863.3
111206
111029
110904
110632
110489
110267
110151
109981
109867
109690
109547
109345
109176
108937
108741
108452
108227
107872
107616
107171
106883
106320
106004
105283
104948
104012
103679
102450
102157
100522
100340
98129.8
98178
95137.5
95616.8
91345.4
92589.7
86455.4
89020.9
80030.9
84876.1
71622.1
80436.9
60961.6
76088
47489.2
71518.3
27955.1
62208.5
-6267.43
44598.8
-62800.3
14953.8
-164989
0.88915
-74752
9343.79
-40771
13686.4
-14328.2
23330.6
8109.15
32774.8
24145.6
39996.8
35351.7
46051.2
44020.9
51340.7
50636.4
55604.1
55583.5
58993.2
59280
61635.3
62066
63811.2
64444.6
65948.1
66799.4
68121.8
69026.9
70094
70930.3
71712.9
72461.8
72998.3
73718.7
74048.8
74813
74933.6
75833.7
75697.3
76892.1
76384.5
78171.3
77074.7
80025.8
77860.3
111223
111043
110917
110641
110496
110272
110156
109986
109871
109695
109551
109350
109181
108942
108746
108458
108233
107878
107622
107178
106890
106328
106011
105291
104955
104021
103686
102460
102165
100533
100347
98141.6
98184.6
95150.8
95622.9
91360.4
92595.2
86472.2
89025.2
80048.3
84878.4
71638.8
80440
60982.7
76102.6
47530.8
71561.7
28025.8
62267
-6207.62
44647.7
-62814
14884.6
-165569
-114.304
-74748.2
9308.52
-40788.5
13643.3
-14348.6
23295
8103.18
32754.4
24145.8
39980.4
35350.1
46037.6
44019.8
51331
50636.1
55597.3
55583.7
58988.6
59279.8
61630.8
62063.4
63805.2
64440.3
65942.8
66796.6
68119.5
69026.4
70094.1
70930.8
71713.5
72461.4
72997.9
73716.5
74047.2
74808.5
74930.4
75826.4
75692.3
76881.7
76378
78159.6
77069.8
80020.9
77857.5
111241
111058
110930
110650
110503
110277
110160
109990
109876
109699
109556
109355
109185
108947
108751
108464
108238
107884
107628
107184
106896
106335
106018
105299
104962
104030
103693
102470
102172
100543
100354
98153.5
98191.3
95164.1
95629.2
91375.6
92600.7
86489.2
89029.7
80066
84881
71656
80443.7
61004.4
76118.1
47573.6
71606.4
28098.3
62327.4
-6145.67
44698.8
-62825.5
14816.3
-166152
-232.401
-74746.1
9271.57
-40806.8
13600.2
-14369.4
23258
8095.46
32732.2
24144.5
39962.5
35347.2
46022.7
44017.6
51320.1
50634.6
55589.3
55582.8
58983
59278.8
61625.5
62060.3
63798.6
64435.5
65937.2
66793.4
68117
69025.7
70094
70931.1
71713.8
72460.8
72997.3
73714
74045.3
74803.8
74927
75819
75687.2
76871.2
76371.4
78147.7
77065
80015.8
77854.9
111259
111073
110943
110659
110510
110282
110165
109994
109880
109704
109561
109360
109190
108953
108756
108469
108244
107890
107633
107191
106902
106342
106024
105307
104969
104039
103700
102479
102179
100554
100361
98165.5
98198.1
95177.6
95635.5
91390.9
92606.4
86506.4
89034.4
80083.9
84883.9
71673.5
80447.9
61027
76134.6
47617.6
71652.1
28172.3
62389.7
-6081.4
44752.1
-62834.8
14749
-166740
-353.548
-74745.6
9232.99
-40825.6
13557.4
-14390.3
23219.7
8086.16
32708.3
24141.6
39943.2
35343.2
46006.6
44014.2
51307.9
50631.9
55580.1
55580.8
58976.3
59276.8
61619.4
62056.5
63791.6
64430.3
65931.2
66789.9
68114.2
69024.7
70093.5
70931.1
71713.9
72459.9
72996.6
73711.4
74043.3
74799
74923.6
75811.5
75682.1
76860.6
76364.9
78135.9
77060.4
80010.8
77852.6
111277
111087
110956
110668
110517
110287
110169
109998
109885
109709
109566
109365
109195
108958
108762
108475
108250
107896
107639
107198
106909
106350
106031
105315
104976
104048
103708
102489
102186
100565
100368
98177.5
98204.9
95191.2
95641.9
91406.4
92612.3
86523.8
89039.3
80102.2
84887.1
71691.6
80452.7
61050.4
76152
47662.8
71699.1
28248.1
62453.9
-6014.67
44807.8
-62841.7
14682.9
-167332
-477.893
-74746.9
9192.86
-40844.7
13515.4
-14410.7
23180.6
8075.55
32682.8
24137.4
39922.7
35338.2
45989.5
44009.8
51294.5
50628.1
55569.6
55577.6
58968.4
59273.9
61612.5
62051.9
63783.9
64424.6
65924.8
66786.1
68111
69023.4
70092.8
70930.8
71713.8
72458.9
72995.6
73708.6
74041.1
74794.1
74920
75803.8
75676.9
76850
76358.3
78124
77056
80005.6
77850.6
111296
111102
110970
110677
110524
110292
110174
110002
109889
109714
109571
109370
109200
108963
108767
108481
108255
107902
107645
107205
106915
106357
106038
105323
104983
104057
103715
102499
102194
100576
100375
98189.7
98211.8
95205
95648.4
91422
92618.2
86541.5
89044.4
80120.8
84890.6
71710.2
80458.1
61074.6
76170.5
47709.2
71747
28325.4
62520.3
-5945.33
44866.1
-62846
14618.1
-167928
-605.586
-74750.1
9151.3
-40863.7
13474.6
-14430
23141.3
8064
32656
24132
39901.2
35332.3
45971.5
44004.4
51280
50623.1
55557.9
55573.2
58959.5
59269.9
61604.6
62046.7
63775.6
64418.4
65918
66781.9
68107.5
69021.8
70091.8
70930.3
71713.4
72457.5
72994.4
73705.6
74038.8
74788.9
74916.3
75796
75671.5
76839.2
76351.7
78112.2
77051.9
80000.4
77848.7
111315
111117
110983
110686
110532
110297
110178
110006
109894
109719
109576
109375
109205
108968
108772
108486
108261
107909
107651
107211
106921
106365
106045
105331
104990
104066
103722
102509
102201
100587
100383
98202
98218.8
95218.8
95655
91437.8
92624.4
86559.4
89049.8
80139.8
84894.6
71729.4
80464.1
61099.8
76190
47756.8
71796
28404.2
62588.7
-5873.23
44927.3
-62847.5
14554.7
-168528
-736.774
-74755
9108.44
-40882.4
13435.5
-14447.7
23102.3
8051.98
32628.3
24125.7
39878.7
35325.8
45952.8
43998.3
51264.6
50617.2
55545.2
55567.8
58949.3
59264.9
61595.8
62040.7
63766.8
64411.8
65910.8
66777.4
68103.6
69019.8
70090.5
70929.5
71712.6
72456
72992.9
73702.3
74036.2
74783.6
74912.4
75788.1
75666.1
76828.3
76345.2
78100.4
77048
79995.1
77847.2
111333
111132
110997
110695
110539
110302
110182
110010
109898
109724
109581
109380
109210
108974
108777
108492
108266
107915
107657
107218
106928
106372
106052
105340
104997
104075
103730
102519
102209
100598
100390
98214.3
98225.9
95232.8
95661.7
91453.8
92630.6
86577.5
89055.4
80159.1
84898.9
71749.1
80470.9
61126
76210.6
47805.4
71845.9
28484.4
62659.2
-5798.23
44991.3
-62846.1
14493
-169132
-871.604
-74761.8
9064.46
-40900.5
13398.6
-14463.2
23064.3
8040.03
32600.1
24118.8
39855.7
35318.8
45933.5
43991.7
51248.4
50610.4
55531.4
55561.3
58938.1
59258.9
61586.1
62033.9
63757.2
64404.6
65903.1
66772.5
68099.4
69017.5
70088.8
70928.3
71711.6
72454.1
72991.2
73698.8
74033.4
74778.1
74908.3
75780
75660.6
76817.4
76338.7
78088.5
77044.4
79989.8
77845.9
111353
111148
111010
110704
110546
110307
110187
110015
109903
109729
109586
109385
109215
108979
108783
108498
108272
107921
107663
107225
106934
106380
106058
105348
105005
104084
103737
102529
102216
100609
100398
98226.8
98233.1
95246.9
95668.5
91470
92637.1
86595.9
89061.3
80178.9
84903.7
71769.5
80478.5
61153.2
76232.3
47855.2
71896.5
28565.8
62731.7
-5720.22
45058.6
-62841.5
14433
-169740
-1010.22
-74770.3
9019.57
-40917.5
13364.3
-14475.8
23027.9
8028.74
32571.9
24111.7
39832.5
35311.7
45914
43984.8
51231.7
50603
55516.8
55553.9
58925.9
59251.9
61575.5
62026.4
63747.1
64397
65895
66767.1
68094.8
69014.8
70086.7
70926.7
71710.2
72451.9
72989.2
73695.1
74030.4
74772.4
74904.1
75771.8
75655
76806.3
76332.3
78076.8
77041
79984.3
77844.8
111372
111163
111024
110713
110553
110312
110191
110019
109907
109734
109591
109391
109220
108984
108788
108503
108278
107927
107669
107232
106941
106387
106065
105356
105012
104093
103745
102539
102224
100620
100405
98239.3
98240.4
95261.2
95675.5
91486.3
92643.8
86614.6
89067.4
80199.1
84909
71790.5
80486.8
61181.4
76255.1
47905.8
71947.7
28648.2
62806.2
-5639.1
45129.1
-62833.5
14375
-170352
-1152.75
-74780.7
8973.98
-40933.3
13333.1
-14485.2
22994
8018.75
32544.3
24104.9
39809.3
35304.8
45894.6
43977.8
51214.6
50595.1
55501.6
55545.7
58912.7
59244
61564
62018.2
63736.4
64388.9
65886.5
66761.4
68089.8
69011.7
70084.2
70924.8
71708.5
72449.3
72986.9
73691.1
74027.1
74766.5
74899.7
75763.4
75649.3
76795.3
76325.9
78065.1
77037.9
79978.9
77844
111392
111179
111038
110722
110561
110317
110196
110023
109912
109739
109596
109396
109225
108990
108793
108509
108283
107934
107676
107239
106947
106395
106072
105365
105019
104102
103752
102549
102231
100632
100413
98252
98247.8
95275.6
95682.6
91502.9
92650.6
86633.6
89073.9
80219.7
84914.8
71812.2
80496
61210.7
76279
47957.4
71999.2
28731.4
62882.6
-5554.8
45203.1
-62821.9
14319.3
-170968
-1299.34
-74792.8
8927.92
-40947.5
13305.1
-14490.9
22963
8010.65
32517.8
24098.7
39786.7
35298.4
45875.5
43971
51197.5
50587
55485.9
55536.9
58898.8
59235.3
61551.7
62009.3
63725.1
64380.3
65877.6
66755.3
68084.3
69008.2
70081.3
70922.4
71706.3
72446.5
72984.3
73686.8
74023.6
74760.3
74895.1
75754.9
75643.5
76784.1
76319.6
78053.6
77035.1
79973.3
77843.4
111412
111195
111052
110732
110568
110322
110200
110027
109916
109744
109601
109401
109231
108995
108799
108515
108289
107940
107682
107246
106954
106403
106079
105373
105027
104112
103760
102560
102239
100643
100420
98264.8
98255.3
95290.2
95689.9
91519.8
92657.7
86653
89080.8
80240.8
84921.1
71834.7
80506.1
61241
76303.9
48009.8
72051
28815.1
62960.7
-5467.3
45280.6
-62806.5
14265.8
-171589
-1450.09
-74806.5
8881.63
-40959.9
13280.6
-14492.7
22935.4
8005
32493
24093.7
39765.1
35292.9
45857.1
43964.7
51180.7
50579
55470
55527.8
58884.3
59225.9
61538.7
61999.8
63713.3
64371.4
65868.3
66748.9
68078.6
69004.3
70078
70919.7
71703.8
72443.2
72981.3
73682.2
74019.8
74754
74890.3
75746.3
75637.7
76773
76313.5
78042.1
77032.6
79967.7
77843.2
111432
111211
111067
110741
110575
110327
110204
110031
109921
109749
109606
109406
109236
109001
108804
108521
108295
107946
107688
107253
106961
106410
106086
105382
105034
104121
103768
102570
102247
100655
100428
98277.8
98262.9
95304.9
95697.4
91536.8
92665.1
86672.6
89087.9
80262.4
84928
71858
80517.2
61272.5
76330
48062.8
72102.7
28899
63040.3
-5376.59
45361.9
-62787.1
14215
-172213
-1605.12
-74821.8
8835.33
-40970.3
13259.7
-14490.5
22911.8
8002.24
32470.6
24090.3
39744.9
35288.5
45839.7
43959.2
51164.4
50571.4
55454.1
55518.5
58869.4
59216
61525.2
61989.8
63701.1
64362.2
65858.7
66742.2
68072.4
69000
70074.2
70916.5
71700.9
72439.6
72978
73677.4
74015.8
74747.5
74885.4
75737.5
75631.8
76761.9
76307.4
78030.8
77030.4
79962.1
77843.1
111453
111227
111081
110751
110583
110332
110208
110035
109925
109754
109611
109411
109241
109006
108809
108527
108300
107953
107694
107260
106967
106418
106093
105390
105041
104130
103775
102581
102255
100666
100436
98290.8
98270.7
95319.9
95705
91554.1
92672.6
86692.7
89095.5
80284.5
84935.4
71882
80529.1
61305.1
76357.1
48116.3
72154.2
28982.6
63121.1
-5282.76
45446.9
-62763.4
14167
-172841
-1764.5
-74838.6
8789.25
-40978.6
13242.4
-14484.2
22892.1
8002.67
32450.9
24089
39726.3
35285.5
45823.6
43954.7
51148.9
50564.3
55438.7
55509.3
58854.3
59205.9
61511.3
61979.5
63688.7
64352.7
65849
66735.2
68065.9
68995.4
70070.1
70912.9
71697.5
72435.7
72974.4
73672.2
74011.6
74740.7
74880.3
75728.6
75625.8
76750.7
76301.6
78019.7
77028.6
79956.4
77843.4
111473
111243
111096
110760
110590
110338
110213
110039
109930
109759
109616
109416
109246
109011
108815
108532
108306
107959
107700
107267
106974
106426
106100
105399
105049
104140
103783
102591
102263
100678
100444
98304
98278.6
95335
95712.8
91571.7
92680.5
86713.1
89103.5
80307.1
84943.6
71906.9
80542.1
61338.8
76385.2
48170.2
72205.2
29065.6
63202.8
-5185.91
45535.8
-62735.3
14122.1
-173473
-1928.31
-74856.7
8743.58
-40984.7
13228.5
-14474.2
22876.4
8006.42
32434.2
24089.9
39709.9
35284.3
45808.9
43951.5
51134.5
50558.1
55423.8
55500.5
58839.3
59195.6
61497.2
61969
63676.1
64343.2
65839.1
66728
68059.2
68990.4
70065.5
70909
71693.8
72431.4
72970.5
73666.8
74007
74733.8
74875
75719.7
75619.8
76739.7
76295.9
78008.8
77027.1
79950.7
77843.9
111495
111260
111110
110770
110598
110343
110217
110043
109934
109765
109621
109422
109251
109017
108820
108538
108312
107965
107706
107274
106981
106434
106108
105407
105056
104149
103791
102602
102271
100690
100452
98317.4
98286.6
95350.4
95720.9
91589.5
92688.7
86733.9
89111.9
80330.4
84952.4
71932.7
80556.1
61373.7
76414.3
48224.3
72255.4
29147.6
63285
-5086.24
45628.4
-62702.6
14080.5
-174109
-2096.59
-74876.1
8698.5
-40988.6
13218
-14460.6
22864.7
8013.46
32420.8
24093.4
39695.8
35284.9
45796
43949.7
51121.4
50553
55409.9
55492.3
58824.6
59185.5
61483.1
61958.5
63663.6
64333.8
65829.2
66720.8
68052.3
68985.1
70060.6
70904.6
71689.7
72426.7
72966.2
73661.1
74002.3
74726.7
74869.7
75710.7
75613.9
76728.7
76290.5
77998.2
77026
79945
77844.7
111516
111276
111125
110780
110605
110348
110221
110047
109939
109770
109626
109427
109256
109022
108826
108544
108318
107972
107713
107281
106987
106441
106115
105416
105064
104159
103799
102612
102279
100702
100460
98330.9
98294.8
95365.9
95729.1
91607.7
92697.1
86755.1
89120.7
80354.2
84961.9
71959.3
80571.2
61409.6
76444.3
48278.4
72304.6
29228.2
63367.3
-4983.99
45724.8
-62665.1
14042.5
-174749
-2269.34
-74896.6
8654.15
-40990.3
13210.4
-14443.9
22856.5
8023.6
32410.5
24099.3
39684.1
35287.6
45784.9
43949.5
51109.7
50549.1
55397
55484.9
58810.6
59175.8
61469.2
61948.3
63651.3
64324.5
65819.5
66713.5
68045.3
68979.6
70055.4
70899.9
71685.2
72421.7
72961.6
73655.2
73997.3
74719.4
74864.2
75701.6
75608
76717.8
76285.3
77987.9
77025.3
79939.3
77845.8
111538
111293
111140
110789
110613
110353
110225
110051
109944
109775
109631
109432
109261
109028
108831
108550
108324
107978
107719
107288
106994
106449
106122
105425
105072
104169
103807
102623
102287
100714
100468
98344.6
98303.2
95381.7
95737.6
91626.1
92705.9
86776.7
89130.1
80378.6
84972.1
71986.8
80587.3
61446.6
76475
48332.5
72352.6
29306.9
63449.3
-4879.5
45824.9
-62622.5
14008.3
-175393
-2446.55
-74918.1
8610.66
-40989.8
13205.5
-14424.4
22851.5
8036.56
32403.3
24107.8
39674.8
35292.2
45775.7
43950.8
51099.4
50546.5
55385.3
55478.6
58797.4
59166.7
61455.9
61938.4
63639.3
64315.6
65810.1
66706.5
68038.3
68974
70049.9
70894.9
71680.4
72416.5
72956.8
73649.1
73992.2
74712
74858.6
75692.6
75602.1
76707.2
76280.5
77977.9
77025.1
79933.6
77847.2
111560
111310
111156
110799
110620
110358
110229
110055
109948
109780
109636
109438
109267
109034
108837
108556
108330
107985
107725
107295
107001
106457
106129
105434
105079
104178
103815
102634
102295
100726
100477
98358.4
98311.7
95397.7
95746.3
91644.9
92715
86798.7
89139.9
80403.7
84983.1
72015.3
80604.4
61484.6
76506.5
48386.2
72399.2
29383.5
63530.4
-4773.16
45928.4
-62574.8
13978.2
-176041
-2628.15
-74940.6
8568.09
-40987.3
13203.1
-14402.7
22849.3
8051.96
32398.8
24118.5
39668
35298.7
45768.4
43953.6
51090.7
50545.3
55375
55473.5
58785.2
59158.4
61443.2
61929.2
63628
64307.4
65801.1
66699.8
68031.3
68968.4
70044.3
70889.6
71675.3
72410.9
72951.8
73642.8
73986.9
74704.6
74853
75683.6
75596.4
76696.8
76276
77968.4
77025.3
79928
77849
111582
111327
111171
110809
110628
110363
110233
110059
109953
109785
109642
109443
109272
109039
108842
108562
108336
107992
107732
107303
107008
106465
106137
105442
105087
104188
103823
102645
102304
100738
100486
98372.5
98320.4
95413.9
95755.3
91664
92724.4
86821.2
89150.2
80429.4
84994.8
72044.6
80622.7
61523.6
76538.6
48439.6
72444.2
29457.4
63610.2
-4665.44
46035.1
-62521.9
13952.4
-176692
-2814.03
-74963.9
8526.51
-40983
13202.8
-14378.9
22849.5
8069.4
32396.8
24131.3
39663.3
35307
45762.8
43957.9
51083.5
50545.5
55366.1
55469.6
58774.2
59151.1
61431.3
61920.8
63617.5
64299.8
65792.7
66693.4
68024.7
68962.8
70038.6
70884.2
71670.1
72405.2
72946.6
73636.4
73981.6
74697.1
74847.5
75674.6
75590.9
76686.6
76272
77959.3
77025.9
79922.5
77851
111605
111345
111187
110819
110635
110368
110238
110063
109957
109791
109647
109448
109277
109045
108848
108568
108342
107998
107738
107310
107015
106473
106144
105451
105095
104198
103831
102656
102312
100751
100494
98386.7
98329.4
95430.4
95764.5
91683.4
92734.2
86844.2
89161
80455.7
85007.3
72074.9
80641.9
61563.6
76571.3
48492.3
72487.5
29528.4
63688.1
-4556.88
46144.6
-62463.7
13931.3
-177347
-3004.03
-74987.8
8485.92
-40976.9
13204.3
-14353.7
22851.6
8088.52
32396.8
24145.7
39660.6
35316.9
45758.9
43963.6
51077.7
50546.9
55358.6
55467
58764.4
59145
61420.5
61913.3
63607.9
64293.2
65785.1
66687.7
68018.4
68957.4
70032.9
70878.7
71664.7
72399.4
72941.2
73629.8
73976.1
74689.6
74841.9
75665.9
75585.6
76676.9
76268.4
77950.7
77027.1
79917.2
77853.5
111628
111362
111202
110829
110643
110373
110242
110067
109962
109796
109652
109454
109283
109050
108853
108574
108348
108005
107745
107317
107022
106482
106152
105460
105103
104208
103840
102667
102321
100763
100503
98401.1
98338.5
95447.2
95774
91703.2
92744.4
86867.6
89172.4
80482.7
85020.6
72106.1
80662.2
61604.3
76604.3
48544.3
72528.9
29596.3
63763.8
-4448.07
46256.6
-62400.1
13915.2
-178005
-3197.94
-75012.3
8446.33
-40969.1
13207.4
-14327.2
22855.3
8108.95
32398.5
24161.5
39659.5
35328.1
45756.4
43970.4
51073.2
50549.5
55352.3
55465.7
58755.9
59140
61410.9
61907
63599.4
64287.5
65778.4
66682.7
68012.7
68952.3
70027.3
70873.3
71659.2
72393.5
72935.8
73623.3
73970.7
74682.2
74836.5
75657.4
75580.5
76667.5
76265.4
77942.7
77028.9
79912
77856.3
111651
111380
111218
110839
110650
110378
110246
110071
109966
109801
109657
109459
109288
109056
108859
108581
108354
108012
107751
107325
107029
106490
106159
105469
105111
104218
103848
102679
102330
100776
100512
98415.7
98347.8
95464.2
95783.7
91723.3
92755
86891.5
89184.3
80510.3
85034.7
72138.2
80683.5
61645.8
76637.6
48595.3
72568.2
29660.8
63836.8
-4339.62
46370.6
-62331.2
13904.2
-178667
-3395.51
-75037.2
8407.71
-40959.9
13211.8
-14299.7
22860.2
8130.4
32401.6
24178.3
39659.9
35340.4
45755.2
43978.3
51069.9
50553.2
55347.3
55465.5
58748.6
59136.3
61402.5
61901.8
63592
64283.1
65772.8
66678.6
68007.5
68947.7
70022.1
70868
71653.8
72387.7
72930.5
73616.9
73965.4
74674.9
74831.3
75649.1
75575.9
76658.6
76263
77935.3
77031.3
79907.1
77859.5
111675
111398
111234
110849
110658
110383
110250
110075
109971
109806
109663
109465
109293
109062
108865
108587
108360
108018
107758
107332
107036
106498
106167
105479
105119
104229
103857
102690
102339
100789
100521
98430.5
98357.3
95481.4
95793.8
91743.7
92765.9
86915.8
89196.7
80538.6
85049.5
72171.1
80705.7
61688
76671.1
48645.4
72605.6
29721.8
63906.7
-4232.2
46486
-62257
13898.7
-179333
-3596.4
-75062.4
8370.02
-40949.4
13217.3
-14271.5
22866.1
8152.63
32405.8
24195.9
39661.4
35353.6
45755.1
43986.9
51067.5
50557.7
55343.3
55466.4
58742.6
59133.7
61395.3
61897.9
63585.9
64279.8
65768.2
66675.4
68003.2
68943.7
70017.1
70862.9
71648.6
72381.9
72925.2
73610.6
73960.2
74667.9
74826.3
75641.2
75571.7
76650.4
76261.2
77928.6
77034.3
79902.5
77863.2
111699
111416
111250
110860
110666
110388
110254
110078
109975
109812
109668
109470
109299
109068
108871
108593
108366
108025
107765
107340
107043
106506
106174
105488
105127
104239
103865
102702
102348
100802
100531
98445.5
98367.1
95499
95804.2
91764.6
92777.3
86940.6
89209.7
80567.6
85065.2
72204.9
80728.8
61730.7
76704.6
48694.3
72640.9
29779.3
63973.3
-4126.46
46602.2
-62177.8
13898.9
-180002
-3800.23
-75087.8
8333.22
-40937.7
13223.7
-14242.7
22872.7
8175.42
32410.9
24214
39663.9
35367.3
45755.9
43996.2
51066
50562.9
55340.2
55468.2
58737.6
59132.2
61389.3
61895.1
63581.1
64277.7
65764.8
66673.2
67999.6
68940.2
70012.7
70858.2
71643.6
72376.4
72920.2
73604.5
73955.2
74661.1
74821.7
75633.8
75567.9
76642.7
76260.2
77922.6
77038
79898.3
77867.3
111723
111434
111267
110870
110674
110393
110257
110082
109980
109817
109674
109476
109304
109074
108876
108599
108372
108032
107771
107347
107050
106515
106182
105497
105136
104249
103874
102713
102357
100815
100540
98460.7
98377.1
95516.8
95814.8
91785.7
92789
86965.9
89223.2
80597.1
85081.6
72239.4
80752.8
61773.8
76738
48741.9
72674.1
29833.3
64036.2
-4023.03
46718.5
-62093.8
13905
-180674
-4006.58
-75113.3
8297.25
-40925
13231
-14213.5
22880
8198.64
32416.7
24232.5
39667
35381.5
45757.5
44006
51065.2
50568.7
55338
55470.7
58733.5
59131.8
61384.4
61893.5
63577.4
64276.9
65762.6
66672.1
67997
68937.6
70008.9
70853.9
71638.9
72371.2
72915.4
73598.7
73950.6
74654.7
74817.4
75626.8
75564.7
76635.7
76259.8
77917.5
77042.4
79894.4
77871.9
111748
111453
111283
110881
110681
110398
110261
110086
109984
109822
109679
109481
109310
109079
108882
108606
108378
108039
107778
107355
107057
106523
106190
105507
105144
104260
103883
102725
102366
100829
100550
98476.1
98387.3
95534.9
95825.7
91807.3
92801.1
86991.6
89237.2
80627.2
85098.7
72274.6
80777.4
61817.3
76771.1
48788.2
72705.3
29883.8
64095.4
-3922.53
46834.3
-62005.2
13917.3
-181351
-4214.96
-75138.6
8262.05
-40911.3
13238.9
-14183.9
22887.7
8222.17
32423.1
24251.2
39670.8
35396
45759.7
44016.2
51065
50574.9
55336.4
55473.9
58730.3
59132.1
61380.5
61893
63574.9
64277.2
65761.5
66672
67995.2
68935.7
70005.7
70850.2
71634.7
72366.5
72911
73593.3
73946.3
74648.8
74813.6
75620.4
75562.1
76629.5
76260.3
77913.2
77047.6
79891.1
77877.1
111773
111471
111300
110891
110689
110403
110265
110090
109988
109828
109684
109487
109315
109085
108888
108612
108385
108046
107785
107362
107065
106532
106198
105516
105152
104270
103892
102737
102375
100842
100560
98491.7
98397.7
95553.3
95837
91829.2
92813.6
87017.8
89251.7
80657.8
85116.5
72310.5
80802.7
61860.8
76803.8
48833.1
72734.5
29931
64150.7
-3825.47
46948.8
-61912.4
13935.9
-182030
-4424.88
-75163.7
8227.58
-40896.7
13247.4
-14154.1
22895.8
8245.91
32430.1
24270.2
39675.1
35410.6
45762.3
44026.6
51065.4
50581.5
55335.3
55477.5
58727.8
59133.2
61377.4
61893.4
63573.4
64278.5
65761.4
66672.8
67994.4
68934.6
70003.2
70847.1
71631.1
72362.2
72907
73588.3
73942.5
74643.3
74810.2
75614.5
75560.2
76624.1
76261.7
77909.8
77053.5
79888.3
77882.8
111799
111490
111317
110902
110697
110408
110269
110093
109993
109833
109690
109493
109321
109091
108894
108618
108391
108053
107792
107370
107072
106540
106206
105526
105161
104281
103901
102749
102385
100856
100570
98507.6
98408.4
95571.9
95848.5
91851.4
92826.5
87044.3
89266.7
80689
85134.9
72347
80828.6
61904.4
76836
48876.5
72761.7
29975.1
64202.4
-3732.34
47061.3