/*--------------------------------*- C++ -*----------------------------------*\
| =========                 |                                                 |
| \\      /  F ield         | OpenFOAM: The Open Source CFD Toolbox           |
|  \\    /   O peration     | Version:  2412                                  |
|   \\  /    A nd           | Website:  www.openfoam.com                      |
|    \\/     M anipulation  |                                                 |
\*---------------------------------------------------------------------------*/
FoamFile
{
    version     2.0;
    format      ascii;
    arch        "LSB;label=32;scalar=64";
    class       surfaceScalarField;
    location    "0.3";
    object      phi;
}
// * * * * * * * * * * * * * * * * * * * * * * * * * * * * * * * * * * * * * //

dimensions      [0 3 -1 0 0 0 0];

oriented        oriented;

internalField   nonuniform List<scalar> 
25922
(
0.00749384
0.0260283
0.00743778
0.0216586
0.00739505
0.014873
0.00735254
0.00609125
0.00731184
-0.0030022
0.00727886
-0.00998628
0.00726228
-0.0136703
0.00726333
-0.013785
0.00727172
-0.0117524
0.00727905
-0.00959649
0.00728439
-0.00812576
0.0072898
-0.00717837
0.00729563
-0.00637686
0.00730201
-0.00570885
0.00730835
-0.00505252
0.00731469
-0.00452056
0.00732035
-0.00393848
0.00732563
-0.00351737
0.00732978
-0.0029939
0.00733341
-0.00266596
0.00733555
-0.00217292
0.00733724
-0.00193564
0.00733707
-0.00142333
0.00733675
-0.00130977
0.00733425
-0.00077047
0.0073321
-0.000790593
0.0073274
-0.000199611
0.00732388
-0.000392151
0.0073172
0.000308113
0.00731289
-0.000132066
0.00730446
0.000742334
0.00729974
2.05342e-05
0.00728924
0.0011501
0.00728404
4.98874e-05
0.00727099
0.00149084
0.00726519
-7.86239e-05
0.0072486
0.00173297
0.00724054
-0.000459469
0.00163147
0.00749433
0.0261097
0.00743903
0.0217139
0.00739688
0.0149152
0.00735434
0.0061338
0.00731295
-0.00296082
0.00727884
-0.00995217
0.00726098
-0.0136525
0.00726106
-0.0137851
0.00726892
-0.0117602
0.00727597
-0.00960355
0.00728108
-0.00813087
0.00728628
-0.00718356
0.00729193
-0.0063825
0.00729817
-0.00571509
0.00730439
-0.00505875
0.00731064
-0.00452681
0.00731621
-0.00394405
0.00732142
-0.00352258
0.0073255
-0.00299798
0.00732908
-0.00266953
0.00733117
-0.00217502
0.00733281
-0.00193728
0.00733259
-0.00142312
0.00733222
-0.0013094
0.00732967
-0.00076792
0.00732748
-0.000788404
0.00732272
-0.000194855
0.00731915
-0.00038858
0.00731242
0.000314843
0.00730807
-0.000127714
0.00729959
0.000750813
0.00729483
2.52947e-05
0.00728429
0.00116064
0.00727905
5.51214e-05
0.00726594
0.00150395
0.00726011
-7.2791e-05
0.00724345
0.00174963
0.00723534
-0.000451354
0.00721304
0.00165377
0.00720331
-0.00156725
0.00718326
0.000315133
0.00718617
-0.0043108
0.00718627
-0.00265721
0.00721969
-0.00821123
0.00725389
-0.00528122
0.00732235
-0.00946476
0.00735475
-0.00134129
0.00738398
-0.00147187
0.00736645
0.00820632
0.00739912
0.00803756
0.00744486
0.016175
0.00754916
0.0377237
0.00771645
0.0609327
0.00790365
-0.0170733
0.00789382
-0.0476487
0.00778022
-0.0211802
0.00760443
0.00233483
0.00748565
0.0018102
0.00742064
0.00514264
0.00742061
-0.00163929
0.00741639
0.00166804
0.0074276
-0.00265652
0.00742563
0.000469964
0.00743839
-0.00289914
0.00744216
-0.000360615
0.00745687
-0.00286004
0.00746316
-0.000601067
0.00747482
-0.00194699
0.000406651
0.00749482
0.0261906
0.0074403
0.0217684
0.00739876
0.0149567
0.00735618
0.00617637
0.00731411
-0.00291875
0.00727885
-0.0099169
0.00725969
-0.0136333
0.00725877
-0.0137841
0.0072661
-0.0117676
0.00727288
-0.00961033
0.00727775
-0.00813575
0.00728274
-0.00718855
0.00728821
-0.00638798
0.00729431
-0.00572119
0.00730042
-0.00506485
0.00730657
-0.00453296
0.00731206
-0.00394954
0.0073172
-0.00352773
0.00732123
-0.003002
0.00732474
-0.00267305
0.00732678
-0.00217706
0.00732837
-0.00193886
0.00732811
-0.00142286
0.00732769
-0.00130898
0.00732509
-0.000765322
0.00732286
-0.00078617
0.00731805
-0.000190049
0.00731443
-0.000384964
0.00730765
0.000321625
0.00730326
-0.000123322
0.00729473
0.000759344
0.00728993
3.00912e-05
0.00727934
0.00117123
0.00727408
6.03867e-05
0.00726091
0.00151711
0.00725505
-6.69289e-05
0.00723833
0.00176635
0.00723016
-0.000443187
0.00720773
0.00167621
0.00719783
-0.00155735
0.00717755
0.000335409
0.00718024
-0.00431349
0.00718012
-0.00265708
0.0072134
-0.00824451
0.00724765
-0.00531547
0.00731651
-0.00953362
0.00734951
-0.0013743
0.00737908
-0.00150144
0.00736146
0.00822394
0.00739434
0.00800469
0.00744083
0.0161285
0.00754843
0.0376161
0.00772134
0.0607597
0.00790964
-0.0172616
0.00789649
-0.0476356
0.00778058
-0.0210643
0.00760347
0.00251193
0.00748376
0.0019299
0.00741815
0.00520825
0.00741789
-0.00163903
0.00741378
0.00167214
0.00742511
-0.00266784
0.00742319
0.000471879
0.00743594
-0.00291189
0.0074397
-0.000364385
0.00745442
-0.00287475
0.00746077
-0.000607417
0.00747247
-0.0019587
0.00747278
0.000406344
0.00747316
-0.000113415
0.00746384
0.00194587
0.0074536
0.00187922
0.00743441
0.00358792
0.00741273
0.00366193
0.00738528
0.00471394
0.00735932
0.00438484
0.00733581
0.00446191
0.00732044
0.00358751
0.00731163
0.00311549
0.00730886
0.00235166
0.00730777
0.00211531
0.00730634
0.0018997
0.00730139
0.00204584
0.00729209
0.00224277
0.00727821
0.00247463
0.00726045
0.00270396
0.00724004
0.00271917
0.00721668
0.0027753
0.00719189
0.00243733
0.00716341
0.00227212
0.00713479
0.00147793
0.00710128
0.000900924
0.00707098
-0.000562117
0.00703481
-0.00193463
0.0070108
-0.00436549
0.0069817
-0.00738779
0.0069777
-0.0109533
0.0069251
-0.0160449
-0.0193415
0.00749533
0.0262711
0.0074416
0.0218221
0.00740068
0.0149977
0.00735809
0.00621896
0.00731532
-0.00287598
0.00727889
-0.00988047
0.00725841
-0.0136129
0.00725647
-0.0137822
0.00726327
-0.0117744
0.00726977
-0.00961683
0.00727442
-0.0081404
0.0072792
-0.00719333
0.00728449
-0.00639327
0.00729045
-0.00572714
0.00729644
-0.00507085
0.0073025
-0.00453902
0.00730791
-0.00395495
0.00731298
-0.0035328
0.00731694
-0.00300596
0.0073204
-0.00267651
0.00732239
-0.00217905
0.00732393
-0.0019404
0.00732362
-0.00142254
0.00732315
-0.00130852
0.00732051
-0.000762676
0.00731823
-0.00078389
0.00731338
-0.000185195
0.00730971
-0.000381302
0.00730288
0.000328457
0.00729845
-0.00011889
0.00728987
0.000767921
0.00728505
3.49186e-05
0.00727441
0.00118187
0.00726911
6.56816e-05
0.0072559
0.00153033
0.00725001
-6.10391e-05
0.00723323
0.00178313
0.00722501
-0.00043497
0.00720244
0.00169878
0.00719238
-0.00154729
0.00717187
0.000355915
0.00717433
-0.00431595
0.00717397
-0.00265672
0.0072071
-0.00827764
0.00724138
-0.00534975
0.00731063
-0.00960287
0.00734428
-0.00140794
0.00737423
-0.0015314
0.00735652
0.00824164
0.00738957
0.00797164
0.00743678
0.0160813
0.00754767
0.0375052
0.00772619
0.0605812
0.00791559
-0.017451
0.00789915
-0.0476191
0.007781
-0.0209462
0.00760263
0.0026903
0.00748198
0.00205055
0.00741573
0.0052745
0.00741517
-0.00163848
0.00741119
0.00167613
0.00742263
-0.00267928
0.00742079
0.000473721
0.00743351
-0.0029246
0.00743728
-0.000368162
0.00745199
-0.00288946
0.00745839
-0.000613821
0.00747015
-0.00197045
0.00747053
0.000405963
0.00747093
-0.000113817
0.00746161
0.00195519
0.00745134
0.00188949
0.00743211
0.00360715
0.00741036
0.00368369
0.00738278
0.00474151
0.00735668
0.00441095
0.00733303
0.00448555
0.00731759
0.00360295
0.00730879
0.00312428
0.0073061
0.00235436
0.00730513
0.00211628
0.00730381
0.00190102
0.00729893
0.00205071
0.00728967
0.00225203
0.00727576
0.00248855
0.00725794
0.00272178
0.00723744
0.00273967
0.00721396
0.00279877
0.00718903
0.00246226
0.00716039
0.00230076
0.00713154
0.00150678
0.00709775
0.000934716
0.0070671
-0.00053147
0.00703041
-0.00189794
0.00700585
-0.00434093
0.00697542
-0.00735735
0.00696958
-0.0109475
0.00691186
-0.0159872
-0.0192779
0.00749584
0.026351
0.00744294
0.021875
0.00740265
0.0150379
0.00736005
0.00626155
0.00731659
-0.00283252
0.00727898
-0.00984286
0.00725715
-0.013591
0.00725418
-0.0137792
0.00726042
-0.0117806
0.00726665
-0.00962306
0.00727107
-0.00814482
0.00727564
-0.00719791
0.00728076
-0.00639839
0.00728658
-0.00573295
0.00729246
-0.00507673
0.00729842
-0.00454498
0.00730375
-0.00396028
0.00730875
-0.0035378
0.00731265
-0.00300986
0.00731606
-0.00267992
0.007318
-0.00218099
0.00731949
-0.00194189
0.00731913
-0.00142219
0.00731862
-0.00130801
0.00731593
-0.000759985
0.00731361
-0.000781565
0.0073087
-0.000180292
0.007305
-0.000377599
0.00729812
0.000335339
0.00729365
-0.000114418
0.00728502
0.000776546
0.00728016
3.97774e-05
0.00726948
0.00119255
0.00726416
7.10045e-05
0.00725089
0.0015436
0.00724497
-5.5124e-05
0.00722814
0.00179997
0.00721987
-0.000426707
0.00719717
0.00172148
0.00718695
-0.00153707
0.00716621
0.000376653
0.00716845
-0.00431819
0.00716785
-0.00265612
0.0072008
-0.0083106
0.00723511
-0.00538406
0.00730473
-0.0096725
0.00733905
-0.00144226
0.00736942
-0.00156176
0.00735163
0.00825943
0.00738483
0.00793844
0.00743272
0.0160334
0.00754688
0.037391
0.007731
0.0603971
0.00792148
-0.0176414
0.00790179
-0.0475995
0.00778148
-0.0208259
0.00760191
0.00286986
0.00748031
0.00217215
0.00741336
0.00534145
0.00741247
-0.00163759
0.00740861
0.00167999
0.00742018
-0.00269085
0.00741842
0.000475477
0.00743111
-0.00293729
0.00743489
-0.000371944
0.00744958
-0.00290414
0.00745604
-0.000620282
0.00746785
-0.00198226
0.00746832
0.000405499
0.00746874
-0.000114243
0.00745943
0.0019645
0.00744914
0.00189978
0.00742988
0.00362642
0.00740805
0.00370552
0.00738036
0.0047692
0.0073541
0.0044372
0.00733031
0.00450934
0.00731478
0.00361848
0.00730599
0.00313308
0.00730337
0.00235697
0.00730251
0.00211715
0.00730129
0.00190223
0.0072965
0.0020555
0.00728728
0.00226126
0.00727334
0.00250248
0.00725546
0.00273966
0.00723487
0.00276026
0.00721129
0.00282235
0.00718622
0.00248733
0.0071574
0.00232958
0.00712834
0.00153584
0.00709426
0.000968799
0.00706326
-0.000500479
0.00702606
-0.00186074
0.00700094
-0.00431582
0.00696913
-0.00732554
0.00696134
-0.0109397
0.00689844
-0.0159243
-0.0192094
0.00749637
0.0264304
0.0074443
0.0219271
0.00740467
0.0150776
0.00736209
0.00630414
0.00731792
-0.00278835
0.00727911
-0.00980404
0.00725591
-0.0135678
0.00725187
-0.0137752
0.00725756
-0.0117863
0.00726352
-0.00962901
0.00726772
-0.00814902
0.00727208
-0.00720227
0.00727703
-0.00640333
0.0072827
-0.00573862
0.00728846
-0.00508249
0.00729433
-0.00455085
0.00729958
-0.00396553
0.00730452
-0.00354274
0.00730836
-0.0030137
0.00731171
-0.00268327
0.0073136
-0.00218288
0.00731504
-0.00194333
0.00731464
-0.00142178
0.00731409
-0.00130746
0.00731135
-0.000757248
0.00730898
-0.000779198
0.00730403
-0.000175344
0.00730029
-0.000373851
0.00729336
0.000342266
0.00728885
-0.000109904
0.00728018
0.000785213
0.00727529
4.46658e-05
0.00726457
0.00120327
0.00725922
7.63534e-05
0.0072459
0.00155692
0.00723996
-4.91862e-05
0.00722306
0.00181687
0.00721476
-0.000418402
0.00719193
0.00174431
0.00718156
-0.0015267
0.00716059
0.000397622
0.00716259
-0.00432018
0.00716174
-0.00265527
0.00719451
-0.00834337
0.00722881
-0.00541836
0.00729881
-0.00974249
0.00733384
-0.0014773
0.00736465
-0.00159256
0.00734678
0.00827729
0.00738011
0.0079051
0.00742864
0.0159849
0.00754605
0.0372736
0.00773576
0.0602074
0.00792731
-0.017833
0.00790442
-0.0475766
0.00778201
-0.0207035
0.00760131
0.00305056
0.00747876
0.00229471
0.00741106
0.00540915
0.00740977
-0.0016363
0.00740603
0.00168372
0.00741775
-0.00270257
0.0074161
0.000477129
0.00742875
-0.00294994
0.00743253
-0.00037573
0.0074472
-0.00291881
0.00745372
-0.0006268
0.00746558
-0.00199412
0.00746614
0.000404941
0.00746659
-0.0001147
0.0074573
0.0019738
0.007447
0.00191008
0.0074277
0.00364571
0.0074058
0.00372743
0.00737799
0.004797
0.00735158
0.00446362
0.00732764
0.00453328
0.00731201
0.00363411
0.00730321
0.00314188
0.00730066
0.00235952
0.0072999
0.0021179
0.0072988
0.00190333
0.0072941
0.0020602
0.00728491
0.00227045
0.00727097
0.00251643
0.00725303
0.0027576
0.00723235
0.00278094
0.00720866
0.00284604
0.00718345
0.00251253
0.00715446
0.00235857
0.00712518
0.00156513
0.00709081
0.00100317
0.00705948
-0.000469145
0.00702175
-0.00182302
0.00699607
-0.00429013
0.00696283
-0.0072923
0.006953
-0.0109298
0.00688489
-0.0158562
-0.019136
0.00749691
0.0265092
0.0074457
0.0219783
0.00740675
0.0151165
0.00736418
0.00634671
0.00731931
-0.00274348
0.00727928
-0.00976401
0.00725468
-0.0135432
0.00724957
-0.0137701
0.00725469
-0.0117914
0.00726037
-0.0096347
0.00726436
-0.00815301
0.00726851
-0.00720643
0.00727328
-0.0064081
0.00727881
-0.00574415
0.00728446
-0.00508815
0.00729024
-0.00455662
0.00729541
-0.0039707
0.00730028
-0.00354761
0.00730406
-0.00301748
0.00730736
-0.00268657
0.0073092
-0.00218472
0.0073106
-0.00194473
0.00731015
-0.00142133
0.00730955
-0.00130686
0.00730677
-0.000754466
0.00730436
-0.000776788
0.00729937
-0.000170349
0.00729558
-0.000370063
0.0072886
0.000349241
0.00728405
-0.000105356
0.00727534
0.000793926
0.00727042
4.95825e-05
0.00725966
0.00121404
0.00725429
8.17285e-05
0.00724092
0.00157029
0.00723496
-4.32274e-05
0.00721801
0.00183381
0.00720967
-0.000410059
0.00718672
0.00176725
0.0071762
-0.00151617
0.007155
0.00041882
0.00715675
-0.00432194
0.00715565
-0.00265416
0.00718821
-0.00837594
0.0072225
-0.00545265
0.00729285
-0.00981285
0.00732864
-0.00151309
0.00735993
-0.00162384
0.00734199
0.00829523
0.00737542
0.00787167
0.00742455
0.0159358
0.00754519
0.037153
0.00774047
0.0600121
0.00793308
-0.0180256
0.00790703
-0.0475505
0.00778263
-0.0205791
0.00760087
0.00323231
0.00747734
0.00241823
0.00740884
0.00547766
0.00740708
-0.00163454
0.00740347
0.00168733
0.00741533
-0.00271443
0.0074138
0.000478657
0.00742642
-0.00296256
0.00743021
-0.000379517
0.00744483
-0.00293344
0.00745141
-0.000633379
0.00746333
-0.00200604
0.00746399
0.000404275
0.00746449
-0.000115196
0.00745522
0.00198308
0.00744491
0.00192039
0.00742559
0.00366502
0.00740362
0.0037494
0.0073757
0.00482492
0.00734912
0.00449019
0.00732502
0.00455739
0.00730928
0.00364985
0.00730046
0.0031507
0.00729797
0.00236201
0.00729732
0.00211855
0.00729634
0.00190432
0.00729173
0.00206481
0.00728259
0.00227959
0.00726863
0.00253039
0.00725063
0.00277559
0.00722987
0.00280171
0.00720607
0.00286984
0.00718073
0.00253787
0.00715157
0.00238773
0.00712208
0.00159462
0.00708742
0.00103783
0.00705574
-0.000437469
0.0070175
-0.00178477
0.00699124
-0.00426387
0.00695652
-0.00725758
0.00694457
-0.0109179
0.0068712
-0.0157828
-0.0190577
0.00749747
0.0265875
0.00744713
0.0220287
0.00740889
0.0151548
0.00736635
0.00638925
0.00732077
-0.0026979
0.00727949
-0.00972273
0.00725347
-0.0135172
0.00724725
-0.0137639
0.0072518
-0.011796
0.00725722
-0.00964011
0.00726098
-0.00815677
0.00726494
-0.00721038
0.00726953
-0.00641269
0.00727492
-0.00574954
0.00728046
-0.00509368
0.00728614
-0.0045623
0.00729123
-0.00397579
0.00729603
-0.00355241
0.00729975
-0.00302119
0.007303
-0.00268982
0.00730479
-0.00218652
0.00730615
-0.00194609
0.00730565
-0.00142084
0.00730501
-0.00130622
0.00730219
-0.00075164
0.00729974
-0.000774338
0.0072947
-0.000165307
0.00729087
-0.000366235
0.00728385
0.000356262
0.00727927
-0.000100773
0.00727051
0.000802681
0.00726557
5.45254e-05
0.00725476
0.00122484
0.00724937
8.71233e-05
0.00723596
0.0015837
0.00722998
-3.72504e-05
0.00721298
0.00185081
0.00720461
-0.000401683
0.00718155
0.00179031
0.00717087
-0.00150549
0.00714944
0.000440248
0.00715095
-0.00432345
0.00714958
-0.00265279
0.00718192
-0.00840828
0.00721617
-0.00548689
0.00728686
-0.00988355
0.00732345
-0.00154967
0.00735525
-0.00165564
0.00733726
0.00831322
0.00737076
0.00783817
0.00742046
0.0158861
0.00754428
0.0370291
0.00774513
0.0598113
0.00793878
-0.0182192
0.00790964
-0.0475214
0.00778333
-0.0204528
0.00760061
0.00341503
0.00747609
0.00254275
0.0074067
0.00554704
0.00740439
-0.00163223
0.00740091
0.00169081
0.00741293
-0.00272645
0.00741155
0.000480038
0.00742412
-0.00297513
0.00742791
-0.000383305
0.00744249
-0.00294801
0.00744913
-0.000640019
0.0074611
-0.00201801
0.00746189
0.000403488
0.00746243
-0.000115737
0.00745319
0.00199232
0.00744288
0.0019307
0.00742355
0.00368435
0.00740151
0.00377144
0.00737348
0.00485296
0.00734674
0.00451693
0.00732246
0.00458166
0.0073066
0.00366571
0.00729775
0.00315955
0.00729531
0.00236445
0.00729476
0.0021191
0.0072939
0.00190519
0.00728938
0.00206932
0.0072803
0.00228868
0.00726633
0.00254435
0.00724829
0.00279364
0.00722743
0.00282256
0.00720353
0.00289374
0.00717806
0.00256335
0.00714873
0.00241705
0.00711902
0.00162433
0.00708408
0.00107277
0.00705206
-0.000405452
0.0070133
-0.00174602
0.00698646
-0.00423702
0.00695022
-0.00722134
0.00693603
-0.0109037
0.00685739
-0.0157042
-0.0189745
0.00749804
0.0266652
0.0074486
0.0220781
0.00741109
0.0151923
0.00736859
0.00643175
0.00732229
-0.0026516
0.00727975
-0.00968019
0.00725227
-0.0134897
0.00724493
-0.0137565
0.00724891
-0.0117999
0.00725405
-0.00964526
0.0072576
-0.00816032
0.00726135
-0.00721413
0.00726577
-0.00641711
0.00727102
-0.00575479
0.00727644
-0.00509911
0.00728203
-0.00456789
0.00728705
-0.00398081
0.00729178
-0.00355715
0.00729545
-0.00302486
0.00729864
-0.00269301
0.00730039
-0.00218826
0.00730169
-0.00194739
0.00730116
-0.0014203
0.00730048
-0.00130555
0.00729761
-0.000748771
0.00729512
-0.000771848
0.00729004
-0.000160224
0.00728617
-0.000362368
0.00727911
0.000363327
0.00727449
-9.61541e-05
0.00726569
0.000811474
0.00726073
5.94946e-05
0.00724988
0.00123568
0.00724447
9.25379e-05
0.00723101
0.00159716
0.00722502
-3.12582e-05
0.00720798
0.00186784
0.00719958
-0.00039328
0.00717641
0.00181348
0.00716558
-0.00149467
0.00714393
0.000461905
0.00714519
-0.00432471
0.00714353
-0.00265113
0.00717563
-0.00844038
0.00720981
-0.00552107
0.00728083
-0.00995457
0.00731826
-0.0015871
0.00735063
-0.00168801
0.00733259
0.00833125
0.00736614
0.00780462
0.00741636
0.0158358
0.00754335
0.0369022
0.00774972
0.0596049
0.0079444
-0.0184139
0.00791224
-0.0474892
0.00778414
-0.0203247
0.00760054
0.00359863
0.00747501
0.00266828
0.00740466
0.00561739
0.0074017
-0.00162927
0.00739835
0.00169417
0.00741054
-0.00273864
0.00740933
0.000481245
0.00742187
-0.00298766
0.00742565
-0.000387093
0.00744017
-0.00296253
0.00744687
-0.000646724
0.0074589
-0.00203004
0.00745982
0.000402565
0.00746042
-0.000116335
0.00745123
0.00200151
0.00744091
0.00194101
0.00742158
0.00370369
0.00739948
0.00379354
0.00737133
0.0048811
0.00734443
0.00454384
0.00731997
0.00460612
0.00730396
0.00368171
0.00729507
0.00316844
0.00729267
0.00236685
0.00729222
0.00211955
0.00729148
0.00190593
0.00728707
0.00207373
0.00727804
0.00229771
0.00726408
0.00255831
0.00724599
0.00281172
0.00722505
0.0028435
0.00720104
0.00291775
0.00717544
0.00258895
0.00714595
0.00244654
0.00711602
0.00165426
0.0070808
0.00110799
0.00704844
-0.000373096
0.00700917
-0.00170674
0.00698172
-0.00420958
0.00694392
-0.00718354
0.0069274
-0.0108872
0.00684347
-0.0156202
-0.0188865
0.00749862
0.0267424
0.00745011
0.0221266
0.00741334
0.015229
0.0073709
0.00647419
0.00732388
-0.00260458
0.00728006
-0.00963638
0.00725109
-0.0134607
0.0072426
-0.013748
0.00724599
-0.0118033
0.00725087
-0.00965014
0.00725421
-0.00816366
0.00725776
-0.00721768
0.007262
-0.00642136
0.00726711
-0.00575991
0.00727243
-0.00510442
0.00727792
-0.00457339
0.00728286
-0.00398575
0.00728753
-0.00356182
0.00729113
-0.00302846
0.00729428
-0.00269616
0.00729598
-0.00218995
0.00729724
-0.00194866
0.00729666
-0.00141972
0.00729594
-0.00130483
0.00729304
-0.000745863
0.00729051
-0.000769318
0.00728538
-0.000155098
0.00728147
-0.000358462
0.00727437
0.000370433
0.00726972
-9.15009e-05
0.00726088
0.000820306
0.00725589
6.4484e-05
0.00724502
0.00124656
0.00723959
9.79694e-05
0.00722609
0.00161066
0.00722008
-2.52536e-05
0.007203
0.00188492
0.00719458
-0.000384853
0.0071713
0.00183675
0.00716034
-0.00148371
0.00713846
0.00048379
0.00713946
-0.00432571
0.00713751
-0.00264919
0.00716934
-0.00847221
0.00720343
-0.00555515
0.00727475
-0.0100259
0.00731308
-0.00162543
0.00734606
-0.00172099
0.007328
0.0083493
0.00736156
0.00777106
0.00741225
0.0157852
0.00754237
0.036772
0.00775423
0.059393
0.00794995
-0.0186096
0.00791483
-0.0474541
0.00778507
-0.0201949
0.00760069
0.00378301
0.00747413
0.00279485
0.00740274
0.00568877
0.00739902
-0.00162555
0.00739579
0.0016974
0.00740816
-0.00275101
0.00740716
0.000482246
0.00741964
-0.00300015
0.00742343
-0.00039088
0.00743786
-0.00297696
0.00744463
-0.000653495
0.00745672
-0.00204212
0.0074578
0.000401486
0.00745846
-0.000117
0.00744932
0.00201064
0.00743902
0.00195132
0.00741969
0.00372302
0.00739754
0.00381569
0.00736928
0.00490936
0.0073422
0.00457092
0.00731754
0.00463078
0.00730138
0.00369788
0.00729242
0.0031774
0.00729006
0.00236921
0.00728971
0.0021199
0.00728908
0.00190656
0.00728479
0.00207803
0.00727583
0.00230666
0.00726187
0.00257227
0.00724374
0.00282986
0.00722272
0.00286452
0.00719861
0.00294185
0.00717288
0.00261469
0.00714322
0.0024762
0.00711309
0.00168439
0.00707758
0.00114349
0.00704489
-0.000340403
0.0070051
-0.00166695
0.00697705
-0.00418153
0.00693763
-0.00714412
0.00691868
-0.0108682
0.00682945
-0.015531
-0.0187936
0.00749922
0.0268189
0.00745165
0.0221742
0.00741566
0.015265
0.00737328
0.00651657
0.00732553
-0.00255683
0.00728041
-0.00959126
0.00724993
-0.0134303
0.00724027
-0.0137384
0.00724306
-0.0118061
0.00724768
-0.00965476
0.00725081
-0.00816679
0.00725415
-0.00722102
0.00725823
-0.00642543
0.0072632
-0.00576488
0.0072684
-0.00510962
0.0072738
-0.00457879
0.00727867
-0.00399061
0.00728327
-0.00356643
0.00728682
-0.00303201
0.00728991
-0.00269925
0.00729156
-0.00219161
0.00729279
-0.00194988
0.00729217
-0.0014191
0.00729141
-0.00130407
0.00728846
-0.000742912
0.0072859
-0.000766752
0.00728073
-0.00014993
0.00727679
-0.000354524
0.00726964
0.000377582
0.00726496
-8.68202e-05
0.00725609
0.000829177
0.00725108
6.94937e-05
0.00724017
0.00125747
0.00723472
0.000103415
0.00722119
0.00162419
0.00721517
-1.92394e-05
0.00719806
0.00190204
0.00718961
-0.000376408
0.00716624
0.00186012
0.00715514
-0.00147261
0.00713303
0.000505903
0.00713377
-0.00432645
0.00713152
-0.00264695
0.00716306
-0.00850375
0.00719701
-0.00558911
0.00726862
-0.0100975
0.00730789
-0.0016647
0.00734154
-0.00175464
0.00732349
0.00836736
0.00735703
0.00773752
0.00740815
0.015734
0.00754135
0.0366388
0.00775868
0.0591757
0.0079554
-0.0188064
0.00791743
-0.0474161
0.00778613
-0.0200636
0.00760109
0.00396806
0.00747347
0.00292247
0.00740095
0.00576129
0.00739635
-0.00162095
0.00739323
0.00170052
0.00740578
-0.00276356
0.00740502
0.000483006
0.00741745
-0.00301258
0.00742124
-0.000394671
0.00743558
-0.0029913
0.00744242
-0.000660335
0.00745455
-0.00205426
0.00745581
0.000400231
0.00745655
-0.000117745
0.00744749
0.00201971
0.0074372
0.00196161
0.00741789
0.00374233
0.00739569
0.00383789
0.00736733
0.00493772
0.00734006
0.00459819
0.0073152
0.00465564
0.00729886
0.00371422
0.00728982
0.00318644
0.00728748
0.00237156
0.00728722
0.00212016
0.00728671
0.00190707
0.00728253
0.00208221
0.00727366
0.00231554
0.00725972
0.00258621
0.00724155
0.00284803
0.00722046
0.00288562
0.00719625
0.00296606
0.00717038
0.00264056
0.00714057
0.00250601
0.00711022
0.00171474
0.00707445
0.00117927
0.00704142
-0.000307375
0.0070011
-0.00162663
0.00697244
-0.00415286
0.00693135
-0.00710303
0.00690988
-0.0108468
0.00681535
-0.0154365
-0.018696
0.00749984
0.0268948
0.00745324
0.0222208
0.00741805
0.0153002
0.00737575
0.00655887
0.00732726
-0.00250834
0.00728081
-0.00954481
0.00724878
-0.0133982
0.00723793
-0.0137275
0.00724012
-0.0118083
0.00724448
-0.00965912
0.0072474
-0.00816971
0.00725054
-0.00722416
0.00725444
-0.00642932
0.00725927
-0.00576971
0.00726436
-0.00511471
0.00726968
-0.00458411
0.00727447
-0.0039954
0.00727901
-0.00357097
0.0072825
-0.0030355
0.00728555
-0.0027023
0.00728715
-0.00219321
0.00728833
-0.00195107
0.00728767
-0.00141844
0.00728688
-0.00130328
0.00728389
-0.000739925
0.00728129
-0.000764149
0.00727608
-0.000144724
0.00727211
-0.000350548
0.00726492
0.000384767
0.00726021
-8.2109e-05
0.00725131
0.000838082
0.00724628
7.45208e-05
0.00723534
0.00126841
0.00722988
0.000108873
0.00721631
0.00163776
0.00721029
-1.32191e-05
0.00719314
0.00191919
0.00718469
-0.000367952
0.00716123
0.00188358
0.00714999
-0.00146137
0.00712765
0.000528244
0.00712812
-0.00432691
0.00712556
-0.00264439
0.00715677
-0.00853496
0.00719057
-0.00562291
0.00726243
-0.0101694
0.0073027
-0.00170496
0.00733708
-0.00178902
0.00731906
0.00838537
0.00735256
0.00770403
0.00740406
0.0156825
0.0075403
0.0365026
0.00776303
0.058953
0.00796075
-0.0190041
0.00792003
-0.0473754
0.00778735
-0.0199309
0.00760176
0.00415364
0.00747306
0.00305117
0.0073993
0.00583505
0.00739366
-0.00161531
0.00739065
0.00170354
0.00740338
-0.0027763
0.00740291
0.000483479
0.00741529
-0.00302496
0.00741909
-0.000398468
0.0074333
-0.00300551
0.00744021
-0.000667247
0.00745241
-0.00206645
0.00745386
0.000398779
0.0074547
-0.000118583
0.00744573
0.00202867
0.00743547
0.00197187
0.00741618
0.00376162
0.00739393
0.00386013
0.00736548
0.00496617
0.00733803
0.00462563
0.00731294
0.00468072
0.0072964
0.00373076
0.00728726
0.00319558
0.00728492
0.0023739
0.00728475
0.00212033
0.00728437
0.00190745
0.00728032
0.00208626
0.00727153
0.00232433
0.00725762
0.00260012
0.00723942
0.00286622
0.00721825
0.00290679
0.00719395
0.00299036
0.00716796
0.00266655
0.00713799
0.00253598
0.00710744
0.00174529
0.00707139
0.00121533
0.00703803
-0.000274014
0.00699719
-0.0015858
0.00696789
-0.00412356
0.00692508
-0.00706022
0.006901
-0.0108227
0.00680118
-0.0153366
-0.0185936
0.00750047
0.0269701
0.00745486
0.0222664
0.0074205
0.0153346
0.00737829
0.00660108
0.00732906
-0.00245911
0.00728126
-0.00949702
0.00724766
-0.0133646
0.00723558
-0.0137155
0.00723716
-0.0118099
0.00724126
-0.00966322
0.00724398
-0.00817244
0.00724692
-0.00722711
0.00725065
-0.00643305
0.00725535
-0.00577441
0.00726033
-0.00511969
0.00726555
-0.00458933
0.00727026
-0.00400011
0.00727474
-0.00357545
0.00727818
-0.00303893
0.00728118
-0.0027053
0.00728274
-0.00219477
0.00728388
-0.00195221
0.00728318
-0.00141775
0.00728235
-0.00130245
0.00727932
-0.000736898
0.00727669
-0.000761514
0.00727145
-0.000139481
0.00726744
-0.000346542
0.00726022
0.000391991
0.00725548
-7.7371e-05
0.00724654
0.000847019
0.0072415
7.95649e-05
0.00723053
0.00127937
0.00722507
0.000114336
0.00721147
0.00165137
0.00720544
-7.19615e-06
0.00718827
0.00193636
0.00717981
-0.000359491
0.00715626
0.00190713
0.0071449
-0.00145001
0.00712233
0.000550811
0.00712251
-0.0043271
0.00711962
-0.0026415
0.00715049
-0.00856583
0.00718409
-0.00565651
0.00725617
-0.0102414
0.00729749
-0.00174629
0.00733267
-0.00182419
0.00731472
0.00840332
0.00734814
0.00767061
0.00739998
0.0156307
0.0075392
0.0363634
0.0077673
0.0587249
0.00796599
-0.0192028
0.00792262
-0.047332
0.00778874
-0.019797
0.00760274
0.00433963
0.00747294
0.00318098
0.00739783
0.00591016
0.00739098
-0.00160846
0.00738805
0.00170647
0.00740097
-0.00278922
0.00740083
0.000483618
0.00741316
-0.00303729
0.00741697
-0.000402277
0.00743104
-0.00301959
0.00743803
-0.000674234
0.00745027
-0.00207869
0.00745195
0.000397103
0.0074529
-0.000119531
0.00744404
0.00203753
0.00743381
0.0019821
0.00741457
0.00378087
0.00739229
0.0038824
0.00736374
0.00499472
0.0073361
0.00465327
0.00731078
0.00470604
0.00729401
0.00374753
0.00728475
0.00320484
0.0072824
0.00237625
0.00728231
0.00212042
0.00728205
0.0019077
0.00727813
0.00209018
0.00726945
0.00233302
0.00725557
0.00261399
0.00723736
0.00288444
0.00721612
0.00292802
0.00719173
0.00301476
0.00716561
0.00269267
0.00713549
0.0025661
0.00710473
0.00177604
0.00706841
0.00125165
0.00703472
-0.000240323
0.00699337
-0.00154444
0.00696342
-0.0040936
0.00691884
-0.00701565
0.00689206
-0.0107959
0.00678695
-0.0152315
-0.0184866
0.00750112
0.0270447
0.00745653
0.022311
0.00742301
0.0153681
0.00738091
0.00664318
0.00733093
-0.00240912
0.00728177
-0.00944785
0.00724655
-0.0133294
0.00723323
-0.0137021
0.00723418
-0.0118108
0.00723803
-0.00966707
0.00724055
-0.00817496
0.0072433
-0.00722985
0.00724685
-0.0064366
0.00725141
-0.00577896
0.00725628
-0.00512457
0.00726142
-0.00459447
0.00726606
-0.00400475
0.00727047
-0.00357986
0.00727385
-0.00304231
0.0072768
-0.00270825
0.00727832
-0.00219629
0.00727943
-0.00195331
0.00727869
-0.00141701
0.00727782
-0.00130158
0.00727476
-0.000733838
0.0072721
-0.000758846
0.00726682
-0.000134202
0.00726278
-0.000342505
0.00725552
0.000399248
0.00725076
-7.26067e-05
0.00724179
0.000855984
0.00723674
8.46194e-05
0.00722575
0.00129036
0.00722028
0.000119807
0.00720665
0.001665
0.00720063
-1.17383e-06
0.00718343
0.00195356
0.00717497
-0.000351029
0.00715135
0.00193074
0.00713986
-0.00143852
0.00711706
0.000573605
0.00711696
-0.00432699
0.00711372
-0.00263826
0.0071442
-0.0085963
0.00717757
-0.00568987
0.00724983
-0.0103137
0.00729227
-0.00178873
0.00732831
-0.00186024
0.00731048
0.00842115
0.00734379
0.00763731
0.00739591
0.0155786
0.00753807
0.0362212
0.00777146
0.0584915
0.00797111
-0.0194024
0.00792523
-0.0472861
0.00779031
-0.0196621
0.00760406
0.00452588
0.00747312
0.00331191
0.00739655
0.00598674
0.00738829
-0.00160021
0.00738543
0.00170933
0.00739853
-0.00280232
0.00739878
0.000483362
0.00741106
-0.00304957
0.00741489
-0.000406108
0.00742879
-0.00303348
0.00743585
-0.000681298
0.00744815
-0.00209098
0.00745007
0.000395173
0.00745115
-0.000120607
0.00744244
0.00204624
0.00743226
0.00199228
0.00741307
0.00380006
0.00739077
0.0039047
0.00736213
0.00502336
0.0073343
0.00468111
0.00730872
0.00473162
0.0072917
0.00376455
0.00728229
0.00321425
0.00727991
0.00237863
0.00727989
0.00212044
0.00727977
0.00190782
0.00727599
0.00209396
0.00726741
0.00234159
0.00725359
0.00262781
0.00723537
0.00290266
0.00721407
0.00294932
0.00718958
0.00303924
0.00716335
0.0027189
0.00713307
0.00259638
0.00710212
0.00180699
0.00706553
0.00128823
0.00703151
-0.000206305
0.00698964
-0.00150257
0.00695902
-0.00406299
0.00691264
-0.00696926
0.00688306
-0.0107663
0.00677269
-0.0151212
-0.0183749
0.00750179
0.0271187
0.00745825
0.0223546
0.0074256
0.0154007
0.00738362
0.00668516
0.00733288
-0.00235838
0.00728232
-0.00939729
0.00724546
-0.0132925
0.00723086
-0.0136875
0.00723118
-0.0118111
0.00723478
-0.00967066