/*--------------------------------*- C++ -*----------------------------------*\
| =========                 |                                                 |
| \\      /  F ield         | OpenFOAM: The Open Source CFD Toolbox           |
|  \\    /   O peration     | Version:  2412                                  |
|   \\  /    A nd           | Website:  www.openfoam.com                      |
|    \\/     M anipulation  |                                                 |
\*---------------------------------------------------------------------------*/
FoamFile
{
    version     2.0;
    format      ascii;
    arch        "LSB;label=32;scalar=64";
    class       volVectorField;
    location    "0.3";
    object      U;
}
// * * * * * * * * * * * * * * * * * * * * * * * * * * * * * * * * * * * * * //

dimensions      [0 1 -1 0 0 0 0];

internalField   nonuniform List<vector> 
13077
(
(100.05 -1.43312 0)
(100.608 -4.50101 8.52739e-17)
(101.456 -9.22566 -8.33213e-17)
(102.424 -15.3084 0)
(103.359 -21.5906 0)
(104.435 -26.5124 0)
(105.682 -29.2754 0)
(107.315 -29.7478 0)
(109.206 -28.8566 0)
(111.186 -27.9011 -9.07432e-17)
(113.198 -27.4141 0)
(115.264 -27.2827 0)
(117.444 -27.2762 0)
(119.69 -27.3732 -7.27629e-17)
(122.076 -27.5072 0)
(124.507 -27.7407 0)
(127.106 -27.9851 6.79747e-17)
(129.726 -28.3359 6.63382e-17)
(132.555 -28.6675 3.46021e-21)
(135.372 -29.1282 6.30798e-17)
(138.458 -29.5343 0)
(141.484 -30.1105 5.97136e-17)
(144.871 -30.5852 -5.81073e-17)
(148.126 -31.2921 -5.62365e-17)
(151.871 -31.8319 0)
(155.378 -32.6955 0)
(159.566 -33.2978 -5.10668e-17)
(163.351 -34.3533 4.89725e-17)
(168.095 -35.014 3.20152e-21)
(172.187 -36.3031 9.03867e-17)
(177.64 -37.0149 0)
(182.062 -38.5854 0)
(188.421 -39.3396 0)
(193.177 -41.2473 3.72749e-17)
(200.692 -42.0544 -3.61461e-17)
(205.776 -44.3702 0)
(214.777 -45.2723 3.23225e-17)
(220.156 -48.0755 0)
(231.004 -49.2336 -2.83494e-17)
(100.051 -1.45 0)
(100.62 -4.53773 9.90092e-21)
(101.478 -9.27408 8.336e-17)
(102.452 -15.3588 -8.68722e-17)
(103.381 -21.642 0)
(104.444 -26.5674 0)
(105.672 -29.3388 0)
(107.287 -29.821 -1.13694e-16)
(109.166 -28.9342 0)
(111.141 -27.9789 9.08451e-17)
(113.148 -27.4914 0)
(115.21 -27.3611 7.74347e-17)
(117.386 -27.356 0)
(119.628 -27.4547 -3.40334e-21)
(122.01 -27.5901 0)
(124.439 -27.8251 0)
(127.035 -28.0708 6.79796e-17)
(129.652 -28.4232 0)
(132.479 -28.7559 -6.47786e-17)
(135.292 -29.2183 3.79582e-21)
(138.376 -29.6256 0)
(141.399 -30.2036 -5.97146e-17)
(144.783 -30.6794 -3.54193e-21)
(148.035 -31.3886 0)
(151.777 -31.9296 0)
(155.281 -32.7959 0)
(159.464 -33.3993 -5.10786e-17)
(163.246 -34.4583 0)
(167.986 -35.1203 -4.74348e-17)
(172.074 -36.4138 -4.52041e-17)
(177.522 -37.1267 -4.37438e-17)
(181.94 -38.7027 4.13246e-17)
(188.294 -39.4577 3.99891e-17)
(193.045 -41.3721 -3.72888e-17)
(200.555 -42.1794 0)
(205.631 -44.5032 3.31289e-17)
(214.628 -45.4049 -6.46875e-17)
(219.997 -48.2168 -2.87956e-17)
(230.839 -49.3736 5.67517e-17)
(236.468 -52.9471 -4.59758e-21)
(249.791 -54.8294 0)
(256.203 -59.5382 1.92396e-17)
(273.338 -62.4503 0)
(281.626 -68.2504 2.92582e-17)
(304.426 -71.605 -3.51585e-17)
(315.913 -77.2293 1.04534e-17)
(346.157 -78.8636 -7.27139e-21)
(359.067 -82.1524 0)
(395.032 -84.117 0)
(409.538 -87.8536 1.04769e-18)
(459.279 -94.0812 -6.3019e-18)
(486.082 -86.0606 0)
(557.644 -95.2292 -1.70343e-18)
(622.871 -1.83564 0)
(577.881 48.2211 2.17704e-19)
(552.228 65.5191 1.39626e-17)
(499.071 72.9034 2.45635e-18)
(473.557 68.9243 1.20908e-17)
(435.994 65.7402 3.72331e-18)
(422.116 59.3529 3.20542e-18)
(396.89 57.8802 4.97023e-18)
(385.651 53.4726 0)
(365.307 52.5928 7.39313e-18)
(355.104 48.9435 5.72558e-18)
(338.701 48.2483 0)
(329.492 45.304 -9.1165e-18)
(316.035 44.8479 -1.22226e-17)
(307.559 42.759 0)
(296.122 42.6393 2.10467e-22)
(100.052 -1.46722 0)
(100.632 -4.57501 -1.7062e-16)
(101.501 -9.32294 -8.33811e-17)
(102.48 -15.4094 8.69057e-17)
(103.404 -21.6929 0)
(104.454 -26.6216 0)
(105.663 -29.4013 -1.14567e-16)
(107.259 -29.8935 1.13923e-16)
(109.127 -29.0115 0)
(111.095 -28.0563 0)
(113.098 -27.5685 0)
(115.156 -27.4392 -7.74449e-17)
(117.328 -27.4356 7.4719e-17)
(119.566 -27.5359 7.27618e-17)
(121.945 -27.6728 0)
(124.37 -27.9094 0)
(126.964 -28.1563 -6.79781e-17)
(129.578 -28.5103 0)
(132.402 -28.8442 0)
(135.213 -29.3082 3.77243e-21)
(138.294 -29.7167 6.14981e-17)
(141.314 -30.2966 5.9724e-17)
(144.695 -30.7735 5.81146e-17)
(147.944 -31.4849 0)
(151.682 -32.027 0)
(155.183 -32.8961 0)
(159.363 -33.5007 -3.39137e-21)
(163.141 -34.5632 0)
(167.877 -35.2263 4.74493e-17)
(171.961 -36.5243 0)
(177.405 -37.2383 4.37549e-17)
(181.818 -38.8199 4.74384e-21)
(188.167 -39.5755 -4.00035e-17)
(192.913 -41.4967 0)
(200.417 -42.3043 3.61856e-17)
(205.487 -44.6361 -3.31484e-17)
(214.479 -45.5373 3.23674e-17)
(219.839 -48.3578 5.76468e-17)
(230.674 -49.5134 -2.84053e-17)
(236.288 -53.0971 2.41117e-17)
(249.601 -54.9819 -2.43523e-17)
(255.991 -59.7071 1.92822e-17)
(273.114 -62.6296 2.05927e-17)
(281.375 -68.4539 -1.46766e-17)
(304.166 -71.827 -1.96403e-21)
(315.638 -77.4816 -1.05157e-17)
(345.904 -79.123 1.5463e-17)
(358.816 -82.4221 -5.38657e-18)
(394.783 -84.3875 -1.09929e-17)
(409.242 -88.1606 -1.05034e-18)
(459.014 -94.4482 6.31213e-18)
(485.834 -86.4966 0)
(557.785 -95.8939 1.69791e-18)
(623.486 -1.91305 0)
(578.177 48.5687 -1.20139e-20)
(552.313 65.9062 -2.74305e-21)
(499.034 73.2832 2.4563e-18)
(473.468 69.2454 0)
(435.856 65.9989 0)
(421.963 59.5595 0)
(396.744 58.0768 0)
(385.521 53.6552 -1.78607e-18)
(365.187 52.7745 -7.48632e-18)
(354.987 49.1106 0)
(338.589 48.413 0)
(329.384 45.4571 0)
(315.933 45 1.23778e-17)
(307.461 42.9037 0)
(296.031 42.7862 -1.45649e-17)
(287.864 41.2857 0)
(277.752 41.17 -1.65716e-17)
(269.915 40.0022 -1.69714e-17)
(260.859 39.812 0)
(253.321 38.7761 -1.89895e-17)
(245.067 38.2741 0)
(237.974 37.0408 0)
(230.658 36.0411 0)
(224.433 34.5696 2.34876e-17)
(218.315 33.3925 -2.46777e-17)
(213.061 32.1443 -2.55897e-17)
(207.847 31.2418 2.66422e-17)
(203.167 30.4286 2.75196e-17)
(198.392 29.8367 0)
(193.94 29.3239 2.94154e-17)
(189.341 28.8127 3.0391e-17)
(185.042 28.3433 0)
(180.614 27.7064 -3.22819e-17)
(176.554 27.1681 -3.32422e-17)
(172.306 26.3372 3.40612e-17)
(168.527 25.6853 3.5043e-17)
(164.388 24.5733 3.57866e-17)
(160.942 23.7002 0)
(156.814 22.1552 2.28312e-21)
(153.854 20.8332 -3.85989e-17)
(149.634 18.6396 0)
(147.569 16.3788 0)
(143.182 13.4346 0)
(142.614 10.0173 0)
(136.043 6.92665 -7.35967e-17)
(100.054 -1.48477 0)
(100.644 -4.6129 8.53247e-17)
(101.524 -9.37246 8.34198e-17)
(102.51 -15.4602 8.69522e-17)
(103.427 -21.7438 0)
(104.465 -26.6754 1.06462e-16)
(105.654 -29.463 1.14736e-16)
(107.231 -29.9652 -1.14158e-16)
(109.086 -29.0882 -1.0381e-16)
(111.049 -28.1334 0)
(113.048 -27.6453 -8.23104e-17)
(115.101 -27.517 0)
(117.269 -27.5148 -1.49443e-16)
(119.503 -27.6169 0)
(121.879 -27.7552 0)
(124.302 -27.9934 -6.95233e-17)
(126.892 -28.2417 0)
(129.504 -28.5972 0)
(132.325 -28.9323 6.47887e-17)
(135.133 -29.398 -6.30881e-17)
(138.211 -29.8075 -6.14996e-17)
(141.229 -30.3893 3.95099e-21)
(144.606 -30.8674 5.81247e-17)
(147.853 -31.581 0)
(151.588 -32.1243 -5.46534e-17)
(155.086 -32.9961 0)
(159.262 -33.6019 5.10951e-17)
(163.037 -34.6679 0)
(167.768 -35.3321 -4.74589e-17)
(171.848 -36.6346 0)
(177.287 -37.3496 0)
(181.696 -38.9369 -4.13569e-17)
(188.041 -39.6932 0)
(192.781 -41.6212 0)
(200.281 -42.4289 -3.62057e-17)
(205.344 -44.7688 3.31808e-17)
(214.33 -45.6696 0)
(219.681 -48.4987 5.21753e-21)
(230.511 -49.6529 2.84399e-17)
(236.109 -53.2468 0)
(249.412 -55.1341 2.43915e-17)
(255.78 -59.8757 -1.9322e-17)
(272.89 -62.8085 -4.12875e-17)
(281.124 -68.6569 0)
(303.906 -72.0485 -2.09801e-21)
(315.362 -77.7333 1.06009e-17)
(345.65 -79.3823 1.5596e-17)
(358.567 -82.6921 1.08585e-17)
(394.537 -84.658 1.10442e-17)
(408.948 -88.4676 0)
(458.748 -94.8154 0)
(485.585 -86.9339 -8.09051e-18)
(557.923 -96.562 0)
(624.097 -1.99117 1.07746e-18)
(578.468 48.9182 -9.10671e-20)
(552.4 66.295 -2.49359e-21)
(499.004 73.6648 -5.74462e-21)
(473.388 69.5684 -1.23495e-17)
(435.723 66.2588 0)
(421.811 59.7663 3.33288e-18)
(396.599 58.2731 5.11285e-18)
(385.391 53.8377 -1.64668e-21)
(365.068 52.9562 -7.59173e-18)
(354.872 49.2778 -5.89596e-18)
(338.478 48.5779 -1.01287e-17)
(329.276 45.6102 0)
(315.831 45.1522 0)
(307.364 43.0485 0)
(295.941 42.9332 0)
(287.778 41.4289 0)
(277.67 41.3145 -2.96207e-22)
(269.834 40.1433 -2.12099e-21)
(260.779 39.9542 0)
(253.242 38.9159 1.91167e-17)
(244.987 38.4131 0)
(237.891 37.1746 2.12792e-17)
(230.573 36.169 0)
(224.346 34.6885 2.35946e-17)
(218.229 33.5041 2.47866e-17)
(212.98 32.2495 2.56979e-17)
(207.771 31.3439 -2.67484e-17)
(203.095 30.5291 -2.76244e-17)
(198.325 29.9376 -2.85848e-17)
(193.876 29.4256 -5.90278e-17)
(189.278 28.9152 -3.04883e-17)
(184.979 28.4459 0)
(180.55 27.8083 3.23735e-17)
(176.489 27.2695 6.39085e-22)
(172.24 26.4372 -3.41461e-17)
(168.458 25.7852 -3.51226e-17)
(164.317 24.6706 -3.58659e-17)
(160.865 23.7982 0)
(156.732 22.2482 2.26089e-21)
(153.765 20.9274 3.86918e-17)
(149.534 18.7219 -3.91833e-17)
(147.46 16.4624 4.17192e-17)
(143.029 13.4933 0)
(142.435 10.1047 0)
(135.686 6.98862 7.48188e-17)
(100.055 -1.50267 0)
(100.656 -4.65138 8.53546e-17)
(101.548 -9.42249 -1.6689e-16)
(102.54 -15.5113 -8.6986e-17)
(103.452 -21.7944 -9.58035e-17)
(104.476 -26.7286 -1.0656e-16)
(105.645 -29.5239 0)
(107.203 -30.0362 1.1438e-16)
(109.046 -29.1644 1.04002e-16)
(111.004 -28.2102 0)
(112.998 -27.7219 8.23497e-17)
(115.046 -27.5946 0)
(117.21 -27.5939 1.49453e-16)
(119.441 -27.6977 0)
(121.814 -27.8374 0)
(124.233 -28.0773 -3.45684e-21)
(126.821 -28.3268 0)
(129.43 -28.6839 -6.63541e-17)
(132.247 -29.0202 -6.47897e-17)
(135.054 -29.4876 0)
(138.128 -29.8982 0)
(141.144 -30.4819 -5.97335e-17)
(144.518 -30.9611 3.53343e-21)
(147.762 -31.677 5.62716e-17)
(151.494 -32.2213 1.09323e-16)
(154.988 -33.096 0)
(159.16 -33.7029 0)
(162.932 -34.7724 0)
(167.659 -35.4378 4.74767e-17)
(171.736 -36.7448 -4.52569e-17)
(177.17 -37.4608 4.37916e-17)
(181.575 -39.0537 4.13834e-17)
(187.915 -39.8106 -4.00468e-17)
(192.65 -41.7454 3.73632e-17)
(200.144 -42.5534 0)
(205.2 -44.9014 -3.32058e-17)
(214.182 -45.8017 3.24273e-17)
(219.524 -48.6394 -2.88914e-17)
(230.348 -49.7923 -5.69538e-17)
(235.93 -53.3963 -2.41973e-17)
(249.225 -55.2862 0)
(255.569 -60.0441 0)
(272.667 -62.987 -1.67288e-22)
(280.874 -68.8595 1.47981e-17)
(303.646 -72.2696 -2.23382e-21)
(315.085 -77.9846 -2.13685e-17)
(345.395 -79.6413 -1.57297e-17)
(358.319 -82.9622 -5.47717e-18)
(394.294 -84.9286 0)
(408.656 -88.7748 0)
(458.484 -95.1826 0)
(485.333 -87.3725 8.09033e-18)
(558.059 -97.2335 0)
(624.704 -2.06996 -1.07369e-18)
(578.756 49.2697 0)
(552.488 66.6857 -2.30557e-21)
(498.98 74.048 -4.95202e-18)
(473.315 69.8931 1.25068e-17)
(435.596 66.5196 0)
(421.661 59.9732 2.7886e-21)
(396.453 58.4692 -5.21113e-18)
(385.262 54.0201 1.84832e-18)
(364.95 53.138 1.54342e-17)
(354.758 49.4451 1.1996e-17)
(338.37 48.7429 1.0298e-17)
(329.169 45.7634 9.5472e-18)
(315.73 45.3043 0)
(307.268 43.1932 0)
(295.852 43.0802 -1.49716e-17)
(287.693 41.5721 0)
(277.589 41.4591 -6.34781e-23)
(269.754 40.2845 1.73041e-17)
(260.702 40.0967 0)
(253.164 39.056 -1.92617e-17)
(244.909 38.5524 0)
(237.81 37.3086 -2.14062e-17)
(230.489 36.2972 0)
(224.261 34.8076 -8.48569e-22)
(218.145 33.6157 2.49097e-17)
(212.898 32.3548 0)
(207.695 31.4459 2.68717e-17)
(203.024 30.6295 2.77445e-17)
(198.258 30.0384 2.87013e-17)
(193.812 29.5273 2.96273e-17)
(189.216 29.0177 -6.49752e-22)
(184.916 28.5486 3.15758e-17)
(180.488 27.9103 -3.24795e-17)
(176.425 27.371 3.34326e-17)
(172.175 26.5373 6.84904e-17)
(168.39 25.8852 1.77794e-21)
(164.246 24.7683 3.59612e-17)
(160.789 23.8965 0)
(156.652 22.3414 3.75978e-17)
(153.677 21.022 0)
(149.434 18.8046 3.9321e-17)
(147.352 16.5468 -4.19491e-17)
(142.874 13.5529 0)
(142.253 10.1949 0)
(135.324 7.05301 0)
(100.056 -1.52092 0)
(100.669 -4.69048 -1.70738e-16)
(101.572 -9.47309 1.6695e-16)
(102.572 -15.5625 0)
(103.478 -21.8447 9.58626e-17)
(104.489 -26.7811 0)
(105.636 -29.584 1.1508e-16)
(107.175 -30.1065 1.14609e-16)
(109.006 -29.2403 0)
(110.957 -28.2868 0)
(112.948 -27.7982 -8.23962e-17)
(114.992 -27.672 -7.74922e-17)
(117.151 -27.6727 -7.47308e-17)
(119.378 -27.7782 7.27732e-17)
(121.748 -27.9195 -7.11414e-17)
(124.164 -28.1609 1.39056e-16)
(126.749 -28.4118 0)
(129.355 -28.7705 6.63553e-17)
(132.17 -29.108 -6.47984e-17)
(134.974 -29.577 -6.31038e-17)
(138.046 -29.9888 0)
(141.059 -30.5743 0)
(144.43 -31.0546 3.54828e-21)
(147.671 -31.7727 -1.1256e-16)
(151.399 -32.3182 3.52563e-21)
(154.891 -33.1956 0)
(159.059 -33.8037 -5.11242e-17)
(162.828 -34.8767 0)
(167.55 -35.5433 -4.749e-17)
(171.623 -36.8547 4.52723e-17)
(177.053 -37.5718 -4.38089e-17)
(181.453 -39.1703 -4.14029e-17)
(187.788 -39.9279 -2.60338e-21)
(192.518 -41.8695 -3.73867e-17)
(200.008 -42.6776 0)
(205.058 -45.0338 3.32446e-17)
(214.035 -45.9336 -6.49216e-17)
(219.367 -48.78 0)
(230.186 -49.9315 2.85183e-17)
(235.753 -53.5457 2.42397e-17)
(249.038 -55.438 0)
(255.36 -60.2121 0)
(272.444 -63.1653 -2.32592e-22)
(280.624 -69.0617 4.26624e-21)
(303.385 -72.4901 1.79303e-17)
(314.806 -78.2354 -7.97224e-21)
(345.139 -79.9002 -1.58967e-17)
(358.074 -83.2326 0)
(394.054 -85.1995 1.11971e-17)
(408.366 -89.0821 1.03077e-18)
(458.219 -95.5499 0)
(485.079 -87.8123 0)
(558.192 -97.9084 1.6514e-18)
(625.307 -2.14944 -1.07758e-18)
(579.04 49.6229 0)
(552.578 67.0781 -1.41566e-17)
(498.964 74.4331 6.50421e-21)
(473.253 70.2197 0)
(435.474 66.7816 3.97078e-18)
(421.511 60.1805 3.19773e-21)
(396.308 58.6652 0)
(385.133 54.2023 -1.8891e-18)
(364.835 53.3198 -7.8634e-18)
(354.646 49.6126 -6.11653e-18)
(338.262 48.908 1.04907e-17)
(329.063 45.9166 -9.73547e-18)
(315.63 45.4565 1.30059e-17)
(307.172 43.3379 1.28423e-17)
(295.765 43.2272 3.04527e-17)
(287.61 41.7154 0)
(277.509 41.6038 1.71748e-17)
(269.677 40.4259 0)
(260.627 40.2394 0)
(253.089 39.1963 0)
(244.833 38.692 0)
(237.731 37.443 2.15541e-17)
(230.408 36.4256 -2.29044e-17)
(224.176 34.9268 -4.77277e-17)
(218.062 33.7274 -5.01083e-17)
(212.818 32.46 0)
(207.619 31.5479 2.70127e-17)
(202.953 30.7298 0)
(198.192 30.1392 0)
(193.749 29.629 0)
(189.155 29.1203 6.14533e-17)
(184.855 28.6514 1.76309e-22)
(180.427 28.0125 6.52019e-17)
(176.362 27.4727 0)
(172.111 26.6375 -6.87188e-17)
(168.323 25.9854 3.53293e-17)
(164.177 24.8661 0)
(160.715 23.9949 0)
(156.572 22.4349 3.77091e-17)
(153.59 21.1169 0)
(149.335 18.8876 0)
(147.244 16.6321 0)
(142.719 13.6134 0)
(142.068 10.2876 0)
(134.96 7.11966 0)
(100.058 -1.53953 0)
(100.682 -4.73021 8.53827e-17)
(101.597 -9.52428 -8.35006e-17)
(102.604 -15.6139 0)
(103.504 -21.8947 0)
(104.502 -26.833 0)
(105.628 -29.6433 -2.30489e-16)
(107.147 -30.1761 4.36455e-21)
(108.965 -29.3156 0)
(110.911 -28.363 0)
(112.897 -27.8742 8.2436e-17)
(114.937 -27.7491 7.75048e-17)
(117.092 -27.7513 0)
(119.316 -27.8586 -7.27742e-17)
(121.682 -28.0013 7.11422e-17)
(124.095 -28.2444 3.48243e-21)
(126.677 -28.4966 0)
(129.281 -28.8569 -6.63649e-17)
(132.093 -29.1955 6.48014e-17)
(134.894 -29.6662 -3.81243e-21)
(137.963 -30.0791 6.15239e-17)
(140.974 -30.6666 0)
(144.341 -31.148 -1.16299e-16)
(147.58 -31.8683 5.62899e-17)
(151.305 -32.415 -5.46831e-17)
(154.794 -33.2951 5.27282e-17)
(158.958 -33.9043 1.02276e-16)
(162.723 -34.9809 0)
(167.441 -35.6485 0)
(171.511 -36.9645 0)
(176.936 -37.6826 -4.38348e-17)
(181.332 -39.2867 4.14349e-17)
(187.663 -40.045 4.00959e-17)
(192.387 -41.9934 3.74237e-17)
(199.872 -42.8017 0)
(204.915 -45.166 -6.65586e-17)
(213.888 -46.0653 6.49987e-17)
(219.211 -48.9204 0)
(230.025 -50.0705 0)
(235.577 -53.6948 0)
(248.852 -55.5896 -2.4542e-17)
(255.152 -60.3799 0)
(272.223 -63.3432 -3.03065e-22)
(280.374 -69.2634 -1.49411e-17)
(303.124 -72.7102 0)
(314.526 -78.4855 1.08862e-17)
(344.882 -80.1588 1.60675e-17)
(357.83 -83.5033 -5.61717e-18)
(393.817 -85.4705 -2.25591e-17)
(408.079 -89.3896 -1.03539e-18)
(457.955 -95.9173 -6.40179e-18)
(484.823 -88.2533 0)
(558.322 -98.5866 -7.6791e-21)
(625.904 -2.22963 2.15257e-18)
(579.319 49.978 4.02993e-20)
(552.67 67.4723 1.42357e-17)
(498.955 74.82 2.50705e-18)
(473.201 70.5484 0)
(435.359 67.0451 -4.07459e-18)
(421.363 60.388 -3.60756e-18)
(396.163 58.8608 0)
(385.005 54.3843 3.86899e-18)
(364.721 53.5017 -8.03029e-18)
(354.536 49.7802 0)
(338.157 49.0732 -2.42272e-21)
(328.958 46.0698 0)
(315.532 45.6087 -2.11624e-21)
(307.078 43.4826 -2.62337e-17)
(295.678 43.3742 -1.09231e-21)
(287.529 41.8588 0)
(277.432 41.7488 0)
(269.601 40.5676 0)
(260.554 40.3824 0)
(253.016 39.3369 0)
(244.76 38.8319 2.09054e-17)
(237.654 37.5778 -2.17257e-17)
(230.328 36.5543 2.30735e-17)
(224.093 35.0462 1.008e-21)
(217.979 33.8391 2.52209e-17)
(212.738 32.5651 0)
(207.544 31.6498 -5.11768e-22)
(202.883 30.8301 2.80421e-17)
(198.127 30.24 -2.89901e-17)
(193.687 29.7308 0)
(189.095 29.223 5.74621e-22)
(184.795 28.7544 -3.18428e-17)
(180.366 28.1148 1.57936e-22)
(176.299 27.5745 0)
(172.048 26.7379 3.44913e-17)
(168.256 26.0858 3.54549e-17)
(164.109 24.9641 3.61959e-17)
(160.641 24.0937 0)
(156.494 22.5288 -2.24206e-21)
(153.504 21.2122 0)
(149.237 18.9711 3.96519e-17)
(147.137 16.7183 4.24795e-17)
(142.563 13.6749 4.65429e-17)
(141.88 10.3832 6.12046e-17)
(134.594 7.18882 7.8685e-17)
(100.059 -1.55852 0)
(100.695 -4.7706 8.54121e-17)
(101.623 -9.57609 -8.35399e-17)
(102.637 -15.6656 0)
(103.532 -21.9446 -9.60004e-17)
(104.515 -26.8842 0)
(105.621 -29.7017 1.15406e-16)
(107.119 -30.2449 -2.30089e-16)
(108.924 -29.3905 1.04579e-16)
(110.865 -28.439 0)
(112.846 -27.95 8.24833e-17)
(114.882 -27.826 7.75251e-17)
(117.033 -27.8297 0)
(119.253 -27.9388 -7.27831e-17)
(121.616 -28.083 0)
(124.026 -28.3277 3.49491e-21)
(126.605 -28.5812 6.80023e-17)
(129.206 -28.9431 6.63683e-17)
(132.015 -29.2829 -6.48124e-17)
(134.814 -29.7552 -3.8274e-21)
(137.88 -30.1693 -1.23063e-16)
(140.888 -30.7586 0)
(144.253 -31.2412 -3.5775e-21)
(147.489 -31.9637 0)
(151.21 -32.5115 0)
(154.696 -33.3944 -5.27406e-17)
(158.857 -34.0047 -5.11539e-17)
(162.619 -35.0849 0)
(167.333 -35.7536 0)
(171.398 -37.0741 0)
(176.819 -37.7932 -2.99079e-21)
(181.211 -39.403 -4.14605e-17)
(187.537 -40.162 0)
(192.257 -42.1171 -3.74543e-17)
(199.737 -42.9257 0)
(204.773 -45.298 6.66418e-17)
(213.741 -46.1969 -6.50851e-17)
(219.056 -49.0607 0)
(229.865 -50.2095 -2.86189e-17)
(235.402 -53.8438 2.43552e-17)
(248.668 -55.7411 2.46045e-17)
(254.944 -60.5474 1.95577e-17)
(272.003 -63.5208 2.09218e-17)
(280.125 -69.4646 1.50324e-17)
(302.863 -72.9297 -1.8181e-17)
(314.244 -78.7351 0)
(344.623 -80.4173 0)
(357.588 -83.7744 -1.31578e-20)
(393.583 -85.7419 -9.53175e-21)
(407.795 -89.6974 0)
(457.692 -96.2848 6.42427e-18)
(484.565 -88.6956 0)
(558.45 -99.268 -1.63488e-18)
(626.496 -2.31051 -1.07534e-18)
(579.594 50.3347 -1.35506e-20)
(552.766 67.8683 -1.84045e-21)
(498.956 75.209 -2.51835e-18)
(473.161 70.8795 -1.31549e-17)
(435.252 67.3101 0)
(421.217 60.596 0)
(396.017 59.0563 0)
(384.877 54.5661 3.17537e-22)
(364.609 53.6837 8.23176e-18)
(354.427 49.9479 0)
(338.053 49.2386 -1.09822e-17)
(328.854 46.2232 0)
(315.434 45.7609 -2.72287e-17)
(306.984 43.6273 -1.14329e-21)
(295.593 43.5213 -3.17358e-17)
(287.449 42.0024 0)
(277.356 41.8939 1.77615e-17)
(269.528 40.7094 0)
(260.483 40.5256 -1.9377e-17)
(252.945 39.4778 -1.98635e-17)
(244.689 38.9722 -4.22355e-17)
(237.58 37.7128 0)
(230.25 36.6833 0)
(224.012 35.1659 4.84468e-17)
(217.898 33.951 0)
(212.659 32.6703 2.63194e-17)
(207.47 31.7516 -5.47256e-17)
(202.813 30.9303 -2.82245e-17)
(198.063 30.3408 2.91667e-17)
(193.625 29.8325 0)
(189.036 29.3258 -6.20803e-17)
(184.736 28.8575 -3.20065e-17)
(180.307 28.2173 -6.5801e-17)
(176.238 27.6766 -3.38396e-17)
(171.986 26.8385 0)
(168.191 26.1864 -3.56039e-17)
(164.042 25.0624 -3.63437e-17)
(160.569 24.1927 0)
(156.417 22.6229 -7.59903e-17)
(153.419 21.308 0)
(149.141 19.055 -3.98606e-17)
(147.031 16.8055 -8.56034e-17)
(142.406 13.7376 -4.71397e-17)
(141.689 10.4815 -6.22875e-17)
(134.226 7.26051 -8.00677e-17)
(100.061 -1.57789 0)
(100.708 -4.81166 1.06744e-20)
(101.649 -9.62854 8.35608e-17)
(102.671 -15.7176 8.71582e-17)
(103.56 -21.9942 9.60608e-17)
(104.53 -26.9348 0)
(105.614 -29.7592 0)
(107.091 -30.3129 1.15257e-16)
(108.883 -29.4649 -1.04761e-16)
(110.818 -28.5146 0)
(112.795 -28.0255 -8.25242e-17)
(114.827 -27.9026 -7.75397e-17)
(116.974 -27.9078 0)
(119.19 -28.0187 -3.40877e-21)
(121.549 -28.1644 0)
(123.957 -28.4108 -1.39091e-16)
(126.533 -28.6656 -6.80064e-17)
(129.132 -29.0291 0)
(131.938 -29.3701 -3.47685e-21)
(134.734 -29.8441 1.26257e-16)
(137.797 -30.2593 -3.55317e-21)
(140.803 -30.8505 0)
(144.165 -31.3342 5.81725e-17)
(147.398 -32.059 -5.6323e-17)
(151.116 -32.6079 0)
(154.599 -33.4936 -5.2764e-17)
(158.756 -34.105 0)
(162.514 -35.1886 -4.91049e-17)
(167.224 -35.8586 4.75573e-17)
(171.286 -37.1835 -4.53531e-17)
(176.703 -37.9037 -3.00999e-21)
(181.091 -39.5191 4.14995e-17)
(187.412 -40.2788 -4.01643e-17)
(192.126 -42.2408 0)
(199.602 -43.0495 0)
(204.632 -45.43 -3.33645e-17)
(213.596 -46.3284 3.259e-17)
(218.901 -49.2009 2.90893e-17)
(229.706 -50.3483 2.86762e-17)
(235.228 -53.9927 -4.88345e-17)
(248.485 -55.8924 2.46753e-17)
(254.739 -60.7147 -1.96289e-17)
(271.784 -63.6982 0)
(279.877 -69.6654 -3.02541e-17)
(302.602 -73.1487 -2.87953e-21)
(313.96 -78.9839 1.11522e-17)
(344.363 -80.6755 0)
(357.348 -84.0458 1.15426e-17)
(393.352 -86.0137 1.14852e-17)
(407.515 -90.0055 0)
(457.43 -96.6526 0)
(484.305 -89.1391 0)
(558.573 -99.9526 0)
(627.081 -2.3921 0)
(579.864 50.693 -1.39051e-20)
(552.865 68.2662 -1.4448e-17)
(498.968 75.6002 5.0881e-18)
(473.134 71.2132 -4.53435e-21)
(435.153 67.5769 0)
(421.072 60.8045 0)
(395.871 59.2515 5.7787e-18)
(384.749 54.7478 -2.05081e-18)
(364.498 53.8656 0)
(354.32 50.1159 -6.6066e-18)
(337.951 49.4042 0)
(328.751 46.3766 -1.05101e-17)
(315.337 45.913 2.93527e-21)
(306.891 43.7719 1.38101e-17)
(295.509 43.6683 3.25413e-17)
(287.37 42.1461 -1.63919e-17)
(277.283 42.0392 -3.62614e-17)
(269.457 40.8515 0)
(260.414 40.6691 1.96804e-17)
(252.877 39.6191 4.02652e-17)
(244.62 39.1129 8.33323e-22)
(237.508 37.8483 2.21565e-17)
(230.175 36.8127 2.34924e-17)
(223.933 35.2858 -4.88932e-17)
(217.818 34.0629 2.56325e-17)
(212.581 32.7755 -8.4864e-22)
(207.396 31.8534 6.56948e-22)
(202.744 31.0305 -2.84344e-17)
(197.999 30.4415 -2.93699e-17)
(193.565 29.9343 3.02759e-17)
(188.978 29.4287 6.24636e-17)
(184.678 28.9607 3.21937e-17)
(180.249 28.3199 3.30838e-17)
(176.179 27.7788 3.40187e-17)
(171.925 26.9394 -3.48168e-17)
(168.128 26.2872 3.57718e-17)
(163.976 25.1609 -3.65114e-17)
(160.498 24.292 3.75429e-17)
(156.341 22.7174 7.6344e-17)
(153.336 21.4043 0)
(149.045 19.1393 0)
(146.926 16.8937 4.31628e-17)
(142.248 13.8015 0)
(141.495 10.5827 0)
(133.856 7.33473 0)
(100.062 -1.59765 0)
(100.722 -4.8534 -8.54381e-17)
(101.676 -9.68164 -8.36005e-17)
(102.706 -15.7698 -8.71939e-17)
(103.59 -22.0435 9.61338e-17)
(104.545 -26.9848 0)
(105.607 -29.8158 0)
(107.063 -30.3801 0)
(108.841 -29.5388 -1.04949e-16)
(110.771 -28.59 -9.16983e-17)
(112.744 -28.1008 8.2573e-17)
(114.771 -27.979 -7.75625e-17)
(116.914 -27.9858 0)
(119.127 -28.0984 7.27947e-17)
(121.483 -28.2457 0)
(123.888 -28.4938 6.95523e-17)
(126.461 -28.7499 -6.80187e-17)
(129.057 -29.1149 6.63902e-17)
(131.86 -29.4572 1.2966e-16)
(134.654 -29.9328 3.85839e-21)
(137.715 -30.3492 6.15532e-17)
(140.718 -30.9423 0)
(144.076 -31.427 5.81913e-17)
(147.307 -32.154 5.63362e-17)
(151.021 -32.704 5.47359e-17)
(154.502 -33.5925 5.2781e-17)
(158.655 -34.2051 0)
(162.41 -35.2923 4.91265e-17)
(167.116 -35.9633 -4.75814e-17)
(171.174 -37.2928 -4.74903e-21)
(176.586 -38.014 4.39201e-17)
(180.97 -39.6351 -8.30703e-17)
(187.287 -40.3954 -2.68457e-21)
(191.997 -42.3642 0)
(199.468 -43.1731 0)
(204.491 -45.5619 3.34216e-17)
(213.451 -46.4598 0)
(218.748 -49.341 -5.8297e-17)
(229.548 -50.487 -2.8743e-17)
(235.055 -54.1415 2.44864e-17)
(248.304 -56.0436 -2.47536e-17)
(254.534 -60.8818 0)
(271.567 -63.8753 2.11181e-17)
(279.629 -69.8657 3.04702e-17)
(302.34 -73.3672 1.8489e-17)
(313.674 -79.2321 9.27062e-21)
(344.101 -80.9333 0)
(357.109 -84.3176 -5.85968e-18)
(393.126 -86.286 1.16226e-17)
(407.238 -90.3141 0)
(457.17 -97.0205 0)
(484.043 -89.584 0)
(558.694 -100.64 -1.60467e-18)
(627.659 -2.47439 0)
(580.129 51.0528 -1.31582e-20)
(552.969 68.666 0)
(498.992 75.9938 -2.57414e-18)
(473.124 71.5498 1.37567e-17)
(435.065 67.8458 0)
(420.929 61.0136 0)
(395.725 59.4463 -6.00174e-18)
(384.621 54.9291 0)
(364.389 54.0476 0)
(354.215 50.284 6.82522e-18)
(337.851 49.5699 1.16437e-17)
(328.65 46.53 1.08565e-17)
(315.241 46.0652 1.44409e-17)
(306.798 43.9166 0)
(295.427 43.8154 -1.67422e-17)
(287.294 42.2899 1.68332e-17)
(277.212 42.1848 1.85623e-17)
(269.388 40.9939 1.87643e-17)
(260.348 40.8129 0)
(252.812 39.7607 -2.04467e-17)
(244.555 39.2539 1.04947e-21)
(237.439 37.9843 -2.24262e-17)
(230.102 36.9425 -2.37563e-17)
(223.855 35.406 1.36795e-21)
(217.739 34.175 -5.17788e-17)
(212.503 32.8807 -9.45646e-22)
(207.323 31.9551 7.44174e-22)
(202.675 31.1305 2.86753e-17)
(197.936 30.5421 2.96025e-17)
(193.505 30.0362 -3.05006e-17)
(188.921 29.5317 -3.14509e-17)
(184.621 29.0641 0)
(180.193 28.4228 0)
(176.12 27.8812 3.42223e-17)
(171.866 27.0404 6.33688e-22)
(168.066 26.3883 -3.59692e-17)
(163.912 25.2598 1.41729e-21)
(160.428 24.3917 -3.77408e-17)
(156.267 22.8123 -3.83772e-17)
(153.254 21.501 0)
(148.951 19.2242 4.03615e-17)
(146.822 16.9831 0)
(142.089 13.8667 0)
(141.298 10.6867 0)
(133.485 7.41152 0)
(100.064 -1.61781 0)
(100.737 -4.89586 0)
(101.704 -9.73542 1.67252e-16)
(102.742 -15.8223 0)
(103.621 -22.0926 -9.6195e-17)
(104.562 -27.034 0)
(105.601 -29.8715 0)
(107.035 -30.4466 1.1568e-16)
(108.8 -29.6121 1.05127e-16)
(110.724 -28.6651 1.83601e-16)
(112.693 -28.1759 -8.26159e-17)
(114.716 -28.0551 7.75799e-17)
(116.855 -28.0634 -7.478e-17)
(119.064 -28.1779 0)
(121.416 -28.3267 0)
(123.818 -28.5765 0)
(126.388 -28.8339 6.80259e-17)
(128.982 -29.2006 -1.328e-16)
(131.783 -29.544 -6.48405e-17)
(134.574 -30.0214 -6.31518e-17)
(137.632 -30.4388 -6.15712e-17)
(140.632 -31.0338 0)
(143.988 -31.5197 -5.82051e-17)
(147.216 -32.2489 0)
(150.927 -32.8001 -5.47535e-17)
(154.405 -33.6913 0)
(158.554 -34.305 0)
(162.306 -35.3957 0)
(167.008 -36.0679 4.76155e-17)
(171.063 -37.4019 4.54159e-17)
(176.47 -38.1241 0)
(180.85 -39.7509 4.15754e-17)
(187.163 -40.5119 8.04929e-17)
(191.867 -42.4876 -3.75935e-17)
(199.334 -43.2967 0)
(204.35 -45.6936 -6.69529e-17)
(213.307 -46.5911 0)
(218.595 -49.4811 5.84346e-17)
(229.391 -50.6257 5.7631e-17)
(234.884 -54.2903 2.45714e-17)
(248.124 -56.1948 2.48423e-17)
(254.331 -61.0488 0)
(271.351 -64.0521 6.82039e-22)
(279.382 -70.0655 5.08482e-21)
(302.078 -73.585 0)
(313.386 -79.4793 -2.29367e-17)
(343.837 -81.1909 0)
(356.872 -84.5898 0)
(392.904 -86.5589 -1.17569e-17)
(406.966 -90.6231 1.01785e-18)
(456.911 -97.3886 0)
(483.781 -90.0301 0)
(558.81 -101.331 7.39904e-21)
(628.228 -2.5574 1.08423e-18)
(580.388 51.414 0)
(553.078 69.0677 0)
(499.03 76.3899 2.5955e-18)
(473.13 71.8897 0)
(434.987 68.1171 -4.61291e-18)
(420.788 61.2234 0)
(395.577 59.6409 6.24929e-18)
(384.492 55.1101 0)
(364.281 54.2296 0)
(354.111 50.4523 -7.08394e-18)
(337.753 49.7359 -1.20673e-17)
(328.549 46.6836 0)
(315.146 46.2174 1.49566e-17)
(306.706 44.0611 -1.47554e-17)
(295.345 43.9625 1.72901e-17)
(287.219 42.4339 -1.73509e-17)
(277.143 42.3305 0)
(269.322 41.1366 -3.84341e-17)
(260.286 40.9571 0)
(252.75 39.9028 -2.08137e-17)
(244.493 39.3955 2.1989e-17)
(237.374 38.1208 0)
(230.032 37.0728 2.40586e-17)
(223.78 35.5265 2.5005e-17)
(217.662 34.2872 5.23711e-17)
(212.427 32.9859 -5.41657e-17)
(207.251 32.0568 5.62234e-17)
(202.608 31.2306 2.89522e-17)
(197.873 30.6428 2.98697e-17)
(193.446 30.138 -3.07588e-17)
(188.866 29.6348 -3.17023e-17)
(184.566 29.1677 0)
(180.138 28.5258 0)
(176.064 27.9839 -3.44575e-17)
(171.809 27.1417 7.0494e-17)
(168.005 26.4896 -3.61919e-17)
(163.849 25.3589 7.3862e-17)
(160.361 24.4917 0)
(156.194 22.9075 -3.86097e-17)
(153.174 21.5982 0)
(148.859 19.3096 -8.134e-17)
(146.719 17.0735 0)
(141.93 13.9332 0)
(141.099 10.7935 0)
(133.113 7.49091 0)
(100.065 -1.63839 0)
(100.751 -4.93904 8.54844e-17)
(101.732 -9.7899 -1.67313e-16)
(102.779 -15.8752 0)
(103.652 -22.1415 0)
(104.579 -27.0827 0)
(105.595 -29.9263 0)
(107.007 -30.5122 4.37239e-21)
(108.758 -29.685 0)
(110.676 -28.7399 -9.19025e-17)
(112.642 -28.2507 0)
(114.66 -28.131 -7.76062e-17)
(116.795 -28.1409 -3.33857e-21)
(119.001 -28.2572 -7.28199e-17)
(121.35 -28.4076 0)
(123.749 -28.659 0)
(126.316 -28.9178 6.80418e-17)
(128.907 -29.2861 6.64117e-17)
(131.705 -29.6307 -6.48582e-17)
(134.494 -30.1098 -6.31713e-17)
(137.549 -30.5283 1.23172e-16)
(140.547 -31.1252 0)
(143.899 -31.6122 5.82286e-17)
(147.125 -32.3437 0)
(150.833 -32.8959 -5.47811e-17)
(154.308 -33.79 0)
(158.453 -34.4048 0)
(162.202 -35.4991 0)
(166.9 -36.1723 -4.76471e-17)
(170.951 -37.5109 4.54607e-17)
(176.355 -38.2341 0)
(180.73 -39.8666 -4.16282e-17)
(187.039 -40.6283 2.73495e-21)
(191.739 -42.6109 7.52931e-17)
(199.201 -43.4201 0)
(204.211 -45.8253 6.70814e-17)
(213.164 -46.7224 0)
(218.443 -49.6211 5.68912e-21)
(229.236 -50.7644 -2.88965e-17)
(234.714 -54.439 -2.46545e-17)
(247.947 -56.3459 6.72819e-22)
(254.13 -61.2156 1.99153e-17)
(271.136 -64.2287 -2.13626e-17)
(279.135 -70.2649 -1.54868e-17)
(301.816 -73.8022 0)
(313.095 -79.7257 1.16518e-17)
(343.571 -81.448 0)
(356.637 -84.8624 0)
(392.686 -86.8324 -1.19324e-17)
(406.698 -90.9328 -2.0436e-18)
(456.654 -97.757 0)
(483.516 -90.4776 0)
(558.923 -102.024 1.59123e-18)
(628.789 -2.64112 -1.08307e-18)
(580.642 51.7764 0)
(553.192 69.4714 -1.4903e-17)
(499.083 76.7888 -9.64974e-21)
(473.155 72.2331 0)
(434.923 68.3909 9.63672e-18)
(420.65 61.4341 0)
(395.429 59.8351 -6.56473e-18)
(384.362 55.2907 0)
(364.175 54.4114 0)
(354.009 50.6208 1.47744e-17)
(337.657 49.9021 0)
(328.448 46.8373 0)
(315.052 46.3696 -1.55697e-17)
(306.615 44.2057 3.03931e-22)
(295.265 44.1096 -1.79385e-17)
(287.146 42.578 3.20699e-23)
(277.076 42.4766 0)
(269.258 41.2797 1.97473e-17)
(260.226 41.1017 0)
(252.691 40.0453 2.12417e-17)
(244.434 39.5376 0)
(237.311 38.2578 2.31031e-17)
(229.964 37.2036 -2.44141e-17)