/*--------------------------------*- C++ -*----------------------------------*\
| =========                 |                                                 |
| \\      /  F ield         | OpenFOAM: The Open Source CFD Toolbox           |
|  \\    /   O peration     | Version:  2412                                  |
|   \\  /    A nd           | Website:  www.openfoam.com                      |
|    \\/     M anipulation  |                                                 |
\*---------------------------------------------------------------------------*/
FoamFile
{
    version     2.0;
    format      ascii;
    arch        "LSB;label=32;scalar=64";
    class       volScalarField;
    location    "0.6";
    object      epsilon;
}
// * * * * * * * * * * * * * * * * * * * * * * * * * * * * * * * * * * * * * //

dimensions      [0 2 -3 0 0 0 0];

internalField   nonuniform List<scalar> 
13068
(
376.793
377.773
383.194
399.925
442.002
529.391
675.985
870.85
1074.51
1241.58
1347.21
1393.88
1399.28
1383.99
1362.6
1344.26
1332.36
1329.26
1334.5
1349.2
1371.78
1403.75
1442.98
1492.3
1548.84
1617.46
1693.87
1786.07
1887.24
2010.38
2144.29
2310.39
2489.99
2719.1
2966.21
3292.55
3644.26
4127.99
4652.55
5406.61
6231.23
7451.46
8765.82
10688.5
12619.6
15260.7
17565.6
20378.2
22670
24390.6
25313.3
20335.3
15077.8
7312.04
4238.33
3798.72
5436.73
6948.06
8203.86
8217.92
7985.07
7209.33
6561.72
5781.91
5206.51
4633.28
4229.15
3850.48
3581.45
3329.14
3142.07
2963.96
2822.61
2683.32
2561.25
2436.11
2316.98
2194.85
2076.4
1959.9
1849.3
1746.1
1650.69
1565.34
1486.79
1417.77
1352.38
1294.41
1236.31
1183.33
1127.01
1073.98
1015.64
959.37
897.458
837.354
773.184
712.643
652.316
376.794
377.775
383.198
399.932
442.013
529.4
675.984
870.843
1074.51
1241.62
1347.29
1394
1399.42
1384.14
1362.74
1344.4
1332.5
1329.39
1334.63
1349.33
1371.91
1403.89
1443.12
1492.45
1548.99
1617.61
1694.04
1786.25
1887.43
2010.59
2144.52
2310.66
2490.29
2719.44
2966.59
3292.96
3644.71
4128.48
4653.08
5407.22
6231.95
7452.35
8766.98
10690.1
12621.7
15263.5
17569
20381.9
22673.5
24393.8
25316.1
20338.1
15081.4
7314.4
4239.97
3799.75
5437.31
6948.46
8204.64
8219.08
7986.25
7210.32
6562.59
5782.76
5207.33
4634.03
4229.77
3851.02
3581.94
3329.6
3142.51
2964.38
2823.01
2683.71
2561.63
2436.46
2317.31
2195.17
2076.7
1960.18
1849.57
1746.36
1650.93
1565.58
1487.03
1418.01
1352.62
1294.66
1236.56
1183.58
1127.26
1074.21
1015.84
959.531
897.576
837.417
773.191
712.591
652.212
376.795
377.778
383.205
399.948
442.04
529.435
676.014
870.862
1074.54
1241.67
1347.39
1394.12
1399.56
1384.28
1362.88
1344.53
1332.62
1329.52
1334.76
1349.46
1372.03
1404.02
1443.26
1492.59
1549.14
1617.77
1694.21
1786.43
1887.62
2010.81
2144.76
2310.93
2490.6
2719.79
2966.97
3293.39
3645.16
4128.96
4653.61
5407.83
6232.66
7453.24
8768.13
10691.7
12623.9
15266.3
17572.5
20385.8
22677
24397.3
25319.3
20341.3
15085.5
7317.15
4241.92
3800.97
5437.98
6948.86
8205.39
8220.17
7987.35
7211.23
6563.39
5783.55
5208.13
4634.75
4230.38
3851.53
3582.42
3330.05
3142.95
2964.8
2823.42
2684.1
2562
2436.82
2317.65
2195.49
2077.01
1960.48
1849.85
1746.63
1651.19
1565.82
1487.27
1418.25
1352.87
1294.91
1236.82
1183.84
1127.51
1074.44
1016.06
959.708
897.712
837.499
773.219
712.56
652.13
376.796
377.782
383.216
399.971
442.084
529.496
676.076
870.91
1074.58
1241.73
1347.47
1394.23
1399.68
1384.4
1363
1344.64
1332.73
1329.62
1334.87
1349.57
1372.15
1404.14
1443.39
1492.73
1549.28
1617.93
1694.37
1786.61
1887.81
2011.02
2144.99
2311.19
2490.9
2720.13
2967.34
3293.79
3645.59
4129.42
4654.11
5408.39
6233.32
7454.07
8769.23
10693.2
12625.9
15269.1
17575.8
20389.5
22680.5
24400.8
25322.5
20344.5
15090
7320.18
4244.09
3802.33
5438.71
6949.22
8206.03
8221.12
7988.29
7211.99
6564.06
5784.24
5208.83
4635.39
4230.92
3851.99
3582.84
3330.47
3143.35
2965.19
2823.8
2684.48
2562.37
2437.17
2317.98
2195.81
2077.31
1960.77
1850.13
1746.89
1651.44
1566.07
1487.51
1418.49
1353.12
1295.17
1237.08
1184.1
1127.77
1074.69
1016.28
959.894
897.858
837.593
773.261
712.545
652.063
376.798
377.788
383.23
400.004
442.146
529.586
676.172
870.989
1074.64
1241.8
1347.56
1394.33
1399.79
1384.5
1363.09
1344.72
1332.81
1329.71
1334.96
1349.66
1372.25
1404.25
1443.5
1492.85
1549.41
1618.06
1694.52
1786.77
1887.99
2011.21
2145.21
2311.43
2491.18
2720.45
2967.69
3294.16
3645.98
4129.84
4654.56
5408.89
6233.91
7454.83
8770.23
10694.6
12627.9
15271.8
17579
20393.1
22683.7
24404.1
25325.6
20347.8
15094.6
7323.43
4246.46
3803.81
5439.46
6949.52
8206.53
8221.9
7989.05
7212.57
6564.57
5784.8
5209.43
4635.95
4231.39
3852.39
3583.2
3330.83
3143.71
2965.55
2824.16
2684.83
2562.71
2437.5
2318.3
2196.11
2077.61
1961.05
1850.4
1747.14
1651.68
1566.3
1487.74
1418.73
1353.36
1295.42
1237.34
1184.36
1128.03
1074.93
1016.5
960.087
898.014
837.699
773.315
712.543
652.011
376.8
377.794
383.247
400.045
442.225
529.705
676.303
871.099
1074.73
1241.87
1347.64
1394.42
1399.87
1384.58
1363.16
1344.79
1332.88
1329.77
1335.03
1349.74
1372.33
1404.34
1443.6
1492.96
1549.53
1618.19
1694.65
1786.91
1888.14
2011.38
2145.4
2311.66
2491.43
2720.74
2968.01
3294.5
3646.34
4130.22
4654.96
5409.33
6234.42
7455.49
8771.14
10695.9
12629.7
15274.3
17582.1
20396.4
22686.7
24407.2
25328.5
20351.1
15099.6
7326.9
4249.02
3805.4
5440.24
6949.74
8206.9
8222.49
7989.61
7212.95
6564.91
5785.21
5209.91
4636.4
4231.76
3852.7
3583.5
3331.13
3144.02
2965.86
2824.48
2685.15
2563.03
2437.8
2318.6
2196.4
2077.88
1961.32
1850.65
1747.38
1651.91
1566.52
1487.96
1418.95
1353.59
1295.66
1237.59
1184.62
1128.28
1075.18
1016.73
960.286
898.177
837.814
773.381
712.555
651.971
376.803
377.802
383.268
400.094
442.322
529.852
676.47
871.241
1074.83
1241.95
1347.72
1394.49
1399.94
1384.63
1363.2
1344.82
1332.91
1329.82
1335.07
1349.8
1372.4
1404.41
1443.68
1493.05
1549.63
1618.3
1694.77
1787.04
1888.29
2011.54
2145.58
2311.86
2491.67
2721
2968.3
3294.81
3646.66
4130.54
4655.29
5409.7
6234.86
7456.06
8771.93
10697.1
12631.4
15276.7
17584.9
20399.5
22689.3
24410
25331.4
20354.4
15104.7
7330.58
4251.77
3807.11
5441.05
6949.9
8207.12
8222.9
7989.96
7213.13
6565.08
5785.48
5210.27
4636.76
4232.05
3852.94
3583.73
3331.37
3144.27
2966.14
2824.76
2685.44
2563.32
2438.09
2318.88
2196.67
2078.14
1961.57
1850.89
1747.61
1652.12
1566.72
1488.16
1419.16
1353.81
1295.9
1237.84
1184.88
1128.54
1075.43
1016.96
960.491
898.347
837.938
773.458
712.579
651.945
376.806
377.812
383.293
400.152
442.437
530.028
676.671
871.413
1074.95
1242.04
1347.79
1394.55
1399.98
1384.66
1363.21
1344.83
1332.93
1329.83
1335.1
1349.83
1372.45
1404.47
1443.75
1493.12
1549.71
1618.39
1694.87
1787.15
1888.41
2011.68
2145.74
2312.04
2491.88
2721.24
2968.57
3295.09
3646.93
4130.82
4655.57
5410.01
6235.21
7456.54
8772.62
10698.2
12633
15278.9
17587.5
20402.4
22691.7
24412.7
25334.1
20357.6
15110
7334.47
4254.69
3808.93
5441.9
6949.99
8207.2
8223.12
7990.1
7213.13
6565.07
5785.6
5210.5
4637.01
4232.25
3853.1
3583.89
3331.56
3144.48
2966.37
2825.01
2685.7
2563.58
2438.35
2319.13
2196.92
2078.39
1961.8
1851.11
1747.82
1652.32
1566.92
1488.36
1419.37
1354.03
1296.13
1238.08
1185.13
1128.79
1075.68
1017.2
960.7
898.525
838.071
773.546
712.617
651.932
376.809
377.822
383.321
400.219
442.57
530.233
676.907
871.617
1075.09
1242.13
1347.85
1394.6
1400.01
1384.66
1363.2
1344.82
1332.91
1329.83
1335.11
1349.85
1372.48
1404.51
1443.8
1493.18
1549.78
1618.47
1694.96
1787.25
1888.52
2011.8
2145.88
2312.21
2492.07
2721.46
2968.8
3295.32
3647.17
4131.05
4655.8
5410.24
6235.48
7456.92
8773.21
10699.2
12634.4
15280.9
17589.9
20405.1
22693.9
24415.1
25336.7
20360.9
15115.6
7338.57
4257.81
3810.88
5442.78
6950.01
8207.14
8223.17
7990.05
7212.92
6564.89
5785.59
5210.62
4637.16
4232.36
3853.18
3583.98
3331.68
3144.64
2966.55
2825.22
2685.93
2563.81
2438.59
2319.37
2197.16
2078.62
1962.02
1851.32
1748.02
1652.51
1567.1
1488.54
1419.56
1354.24
1296.35
1238.32
1185.38
1129.05
1075.93
1017.44
960.915
898.71
838.214
773.644
712.666
651.933
376.813
377.834
383.353
400.295
442.721
530.466
677.177
871.852
1075.25
1242.23
1347.91
1394.63
1400.01
1384.64
1363.17
1344.78
1332.88
1329.8
1335.09
1349.85
1372.49
1404.53
1443.83
1493.23
1549.83
1618.53
1695.03
1787.33
1888.61
2011.9
2146
2312.35
2492.24
2721.65
2969
3295.53
3647.36
4131.23
4655.96
5410.41
6235.68
7457.21
8773.68
10700
12635.7
15282.8
17592.1
20407.5
22695.7
24417.3
25339.2
20364.1
15121.4
7342.9
4261.13
3812.95
5443.7
6949.99
8206.95
8223.03
7989.8
7212.53
6564.54
5785.43
5210.62
4637.22
4232.39
3853.19
3584.01
3331.75
3144.75
2966.7
2825.39
2686.12
2564.02
2438.8
2319.59
2197.37
2078.83
1962.22
1851.51
1748.2
1652.68
1567.27
1488.72
1419.74
1354.43
1296.57
1238.55
1185.62
1129.3
1076.18
1017.68
961.136
898.903
838.366
773.754
712.729
651.946
376.817
377.847
383.388
400.379
442.889
530.728
677.483
872.118
1075.43
1242.34
1347.97
1394.65
1399.99
1384.59
1363.1
1344.71
1332.82
1329.75
1335.06
1349.83
1372.48
1404.54
1443.85
1493.25
1549.87
1618.57
1695.09
1787.39
1888.68
2011.99
2146.1
2312.47
2492.38
2721.81
2969.17
3295.7
3647.52
4131.36
4656.07
5410.5
6235.79
7457.41
8774.05
10700.7
12636.8
15284.5
17594.1
20409.7
22697.3
24419.3
25341.6
20367.4
15127.4
7347.46
4264.64
3815.16
5444.68
6949.91
8206.65
8222.73
7989.36
7211.96
6564.02
5785.13
5210.51
4637.17
4232.33
3853.12
3583.97
3331.76
3144.81
2966.8
2825.53
2686.29
2564.21
2438.99
2319.78
2197.57
2079.02
1962.41
1851.69
1748.37
1652.84
1567.43
1488.88
1419.92
1354.62
1296.78
1238.78
1185.87
1129.55
1076.43
1017.92
961.361
899.103
838.528
773.876
712.804
651.973
376.822
377.862
383.426
400.471
443.075
531.019
677.823
872.415
1075.63
1242.45
1348.02
1394.66
1399.96
1384.53
1363.02
1344.62
1332.73
1329.68
1335
1349.79
1372.45
1404.53
1443.85
1493.26
1549.89
1618.61
1695.12
1787.44
1888.74
2012.06
2146.19
2312.57
2492.5
2721.95
2969.32
3295.83
3647.63
4131.44
4656.12
5410.53
6235.82
7457.51
8774.32
10701.3
12637.9
15286.1
17596
20411.7
22698.6
24421.2
25343.9
20370.7
15133.7
7352.25
4268.37
3817.51
5445.72
6949.8
8206.22
8222.27
7988.74
7211.2
6563.35
5784.69
5210.28
4637.03
4232.19
3852.98
3583.86
3331.71
3144.82
2966.86
2825.64
2686.43
2564.36
2439.16
2319.96
2197.75
2079.21
1962.59
1851.86
1748.52
1652.99
1567.57
1489.03
1420.08
1354.81
1296.98
1239
1186.11
1129.81
1076.69
1018.17
961.593
899.31
838.699
774.008
712.893
652.013
376.827
377.878
383.468
400.573
443.279
531.338
678.197
872.743
1075.85
1242.57
1348.07
1394.65
1399.9
1384.43
1362.9
1344.5
1332.62
1329.58
1334.92
1349.73
1372.41
1404.5
1443.84
1493.26
1549.9
1618.62
1695.15
1787.47
1888.78
2012.11
2146.25
2312.65
2492.6
2722.06
2969.43
3295.93
3647.7
4131.48
4656.12
5410.49
6235.77
7457.52
8774.48
10701.8
12638.7
15287.5
17597.6
20413.5
22699.6
24422.8
25346.1
20374
15140.3
7357.3
4272.31
3820.02
5446.83
6949.66
8205.69
8221.65
7987.94
7210.27
6562.52
5784.13
5209.94
4636.8
4231.96
3852.77
3583.69
3331.61
3144.78
2966.89
2825.71
2686.53
2564.49
2439.31
2320.12
2197.92
2079.37
1962.75
1852.01
1748.66
1653.12
1567.71
1489.17
1420.24
1354.98
1297.18
1239.22
1186.35
1130.06
1076.94
1018.43
961.83
899.526
838.88
774.152
712.995
652.066
376.832
377.895
383.514
400.683
443.501
531.686
678.606
873.101
1076.09
1242.7
1348.11
1394.63
1399.83
1384.32
1362.77
1344.36
1332.48
1329.46
1334.82
1349.65
1372.35
1404.45
1443.8
1493.24
1549.89
1618.62
1695.16
1787.49
1888.81
2012.14
2146.3
2312.71
2492.67
2722.14
2969.51
3296
3647.74
4131.47
4656.05
5410.38
6235.64
7457.44
8774.53
10702.2
12639.5
15288.7
17599.1
20415
22700.4
24424.3
25348.2
20377.3
15147.2
7362.6
4276.47
3822.68
5448.02
6949.5
8205.07
8220.89
7986.97
7209.17
6561.54
5783.44
5209.5
4636.47
4231.66
3852.49
3583.46
3331.45
3144.7
2966.87
2825.75
2686.61
2564.6
2439.43
2320.25
2198.06
2079.52
1962.89
1852.15
1748.79
1653.25
1567.83
1489.3
1420.38
1355.15
1297.37
1239.44
1186.58
1130.31
1077.2
1018.68
962.073
899.749
839.071
774.308
713.109
652.134
376.838
377.913
383.563
400.801
443.74
532.062
679.049
873.49
1076.35
1242.83
1348.15
1394.6
1399.74
1384.18
1362.6
1344.19
1332.33
1329.32
1334.7
1349.55
1372.27
1404.39
1443.76
1493.21
1549.87
1618.6
1695.15
1787.49
1888.81
2012.16
2146.32
2312.75
2492.73
2722.2
2969.57
3296.03
3647.73
4131.41
4655.93
5410.21
6235.44
7457.27
8774.49
10702.4
12640.1
15289.9
17600.3
20416.4
22701
24425.5
25350.3
20380.8
15154.3
7368.17
4280.87
3825.52
5449.3
6949.34
8204.36
8219.99
7985.84
7207.91
6560.41
5782.62
5208.95
4636.06
4231.28
3852.14
3583.17
3331.24
3144.57
2966.82
2825.75
2686.66
2564.68
2439.54
2320.37
2198.19
2079.66
1963.03
1852.27
1748.91
1653.36
1567.94
1489.42
1420.52
1355.31
1297.55
1239.65
1186.82
1130.56
1077.46
1018.94
962.322
899.98
839.272
774.475
713.238
652.214
376.844
377.933
383.616
400.929
443.997
532.466
679.527
873.91
1076.63
1242.97
1348.19
1394.55
1399.62
1384.02
1362.41
1344
1332.14
1329.16
1334.56
1349.43
1372.17
1404.31
1443.69
1493.16
1549.83
1618.57
1695.12
1787.47
1888.8
2012.15
2146.33
2312.76
2492.75
2722.23
2969.59
3296.03
3647.68
4131.3
4655.76
5409.96
6235.15
7457.01
8774.34
10702.6
12640.6
15290.8
17601.4
20417.5
22701.3
24426.7
25352.3
20384.3
15161.8
7374.02
4285.51
3828.54
5450.69
6949.18
8203.57
8218.96
7984.55
7206.49
6559.13
5781.68
5208.29
4635.56
4230.82
3851.72
3582.82
3330.98
3144.39
2966.72
2825.72
2686.69
2564.74
2439.62
2320.48
2198.31
2079.78
1963.15
1852.38
1749.01
1653.45
1568.04
1489.53
1420.65
1355.46
1297.73
1239.86
1187.05
1130.81
1077.72
1019.2
962.577
900.219
839.483
774.654
713.379
652.309
376.85
377.954
383.672
401.065
444.272
532.899
680.038
874.36
1076.93
1243.12
1348.22
1394.49
1399.49
1383.83
1362.2
1343.78
1331.93
1328.97
1334.4
1349.29
1372.06
1404.21
1443.61
1493.09
1549.77
1618.53
1695.09
1787.44
1888.78
2012.13
2146.32
2312.76
2492.76
2722.24
2969.59
3296
3647.6
4131.15
4655.53
5409.66
6234.79
7456.66
8774.09
10702.6
12641
15291.7
17602.3
20418.5
22701.4
24427.6
25354.3
20387.9
15169.7
7380.17
4290.41
3831.76
5452.19
6949.04
8202.72
8217.82
7983.12
7204.92
6557.73
5780.63
5207.55
4634.97
4230.29
3851.24
3582.4
3330.66
3144.18
2966.59
2825.67
2686.69
2564.77
2439.69
2320.56
2198.41
2079.88
1963.25
1852.48
1749.1
1653.54
1568.13
1489.63
1420.76
1355.61
1297.91
1240.06
1187.28
1131.06
1077.99
1019.47
962.838
900.466
839.704
774.845
713.534
652.418
376.857
377.976
383.732
401.209
444.564
533.36
680.584
874.84
1077.25
1243.27
1348.25
1394.43
1399.34
1383.63
1361.96
1343.53
1331.7
1328.76
1334.21
1349.13
1371.92
1404.1
1443.52
1493.01
1549.7
1618.46
1695.03
1787.39
1888.73
2012.1
2146.29
2312.74
2492.74
2722.22
2969.56
3295.93
3647.47
4130.95
4655.24
5409.28
6234.36
7456.22
8773.75
10702.5
12641.2
15292.4
17603.1
20419.3
22701.2
24428.5
25356.2
20391.6
15177.9
7386.62
4295.57
3835.18
5453.82
6948.93
8201.83
8216.57
7981.55
7203.22
6556.19
5779.47
5206.7
4634.31
4229.69
3850.69
3581.94
3330.3
3143.92
2966.43
2825.58
2686.66
2564.79
2439.73
2320.63
2198.5
2079.98
1963.34
1852.57
1749.18
1653.61
1568.2
1489.72
1420.88
1355.74
1298.08
1240.26
1187.51
1131.31
1078.25
1019.74
963.106
900.722
839.936
775.048
713.703
652.541
376.864
377.999
383.795
401.363
444.875
533.85
681.164
875.351
1077.59
1243.43
1348.28
1394.34
1399.18
1383.4
1361.7
1343.27
1331.45
1328.53
1334.01
1348.96
1371.77
1403.97
1443.41
1492.91
1549.61
1618.39
1694.96
1787.32
1888.67
2012.04
2146.24
2312.69
2492.7
2722.18
2969.5
3295.82
3647.31
4130.7
4654.9
5408.85
6233.84
7455.69
8773.31
10702.3
12641.4
15292.9
17603.7
20419.8
22700.9
24429.2
25358.2
20395.4
15186.4
7393.4
4301.02
3838.83
5455.6
6948.87
8200.89
8215.22
7979.85
7201.38
6554.53
5778.2
5205.77
4633.57
4229.02
3850.09
3581.42
3329.89
3143.62
2966.23
2825.46
2686.6
2564.78
2439.76
2320.69
2198.57
2080.06
1963.42
1852.64
1749.25
1653.68
1568.27
1489.8
1420.98
1355.88
1298.24
1240.46
1187.74
1131.56
1078.52
1020.02
963.38
900.986
840.178
775.264
713.886
652.678
376.872
378.024
383.862
401.525
445.203
534.367
681.777
875.892
1077.94
1243.6
1348.3
1394.25
1398.99
1383.14
1361.41
1342.97
1331.17
1328.28
1333.79
1348.76
1371.6
1403.82
1443.28
1492.8
1549.51
1618.29
1694.87
1787.24
1888.6
2011.97
2146.17
2312.63
2492.64
2722.11
2969.41
3295.69
3647.1
4130.41
4654.5
5408.34
6233.26
7455.08
8772.77
10702
12641.4
15293.4
17604.1
20420.2
22700.3
24429.7
25360.1
20399.4
15195.4
7400.51
4306.75
3842.72
5457.54
6948.88
8199.93
8213.79
7978.04
7199.41
6552.75
5776.83
5204.75
4632.75
4228.29
3849.42
3580.84
3329.43
3143.28
2966
2825.32
2686.53
2564.75
2439.76
2320.72
2198.63
2080.13
1963.49
1852.7
1749.3
1653.73
1568.33
1489.87
1421.07
1356
1298.4
1240.65
1187.96
1131.81
1078.79
1020.3
963.661
901.259
840.43
775.491
714.083
652.829
376.88
378.05
383.932
401.695
445.549
534.913
682.425
876.463
1078.32
1243.78
1348.32
1394.15
1398.79
1382.87
1361.1
1342.65
1330.87
1328
1333.54
1348.55
1371.42
1403.66
1443.13
1492.67
1549.39
1618.18
1694.77
1787.14
1888.51
2011.88
2146.08
2312.54
2492.56
2722.01
2969.29
3295.52
3646.86
4130.07
4654.06
5407.78
6232.59
7454.39
8772.14
10701.7
12641.3
15293.7
17604.3
20420.4
22699.5
24430.2
25362.1
20403.5
15204.8
7407.98
4312.8
3846.85
5459.66
6948.95
8198.97
8212.29
7976.11
7197.33
6550.86
5775.36
5203.65
4631.87
4227.49
3848.7
3580.22
3328.93
3142.9
2965.73
2825.14
2686.42
2564.7
2439.76
2320.75
2198.68
2080.18
1963.55
1852.75
1749.35
1653.77
1568.37
1489.93
1421.16
1356.12
1298.56
1240.84
1188.18
1132.06
1079.06
1020.58
963.948
901.541
840.694
775.732
714.294
652.995
376.889
378.078
384.006
401.875
445.912
535.487
683.106
877.064
1078.71
1243.96
1348.34
1394.03
1398.56
1382.57
1360.76
1342.31
1330.54
1327.7
1333.28
1348.31
1371.21
1403.48
1442.97
1492.52
1549.26
1618.06
1694.66
1787.03
1888.4
2011.77
2145.98
2312.44
2492.45
2721.89
2969.14
3295.31
3646.58
4129.68
4653.55
5407.14
6231.86
7453.61
8771.41
10701.2
12641.1
15293.9
17604.4
20420.5
22698.5
24430.5
25364.1
20407.8
15214.7
7415.81
4319.16
3851.26
5461.97
6949.13
8198
8210.73
7974.09
7195.13
6548.87
5773.8
5202.47
4630.91
4226.64
3847.93
3579.55
3328.39
3142.48
2965.44
2824.94
2686.3
2564.63
2439.73
2320.75
2198.71
2080.23
1963.6
1852.8
1749.38
1653.8
1568.41
1489.98
1421.24
1356.23
1298.71
1241.03
1188.41
1132.31
1079.34
1020.87
964.243
901.832
840.968
775.985
714.52
653.175
376.898
378.106
384.084
402.063
446.293
536.09
683.821
877.695
1079.13
1244.15
1348.35
1393.91
1398.33
1382.25
1360.4
1341.94
1330.19
1327.38
1332.99
1348.06
1370.99
1403.28
1442.8
1492.36
1549.12
1617.92
1694.52
1786.9
1888.27
2011.64
2145.85
2312.31
2492.32
2721.75
2968.96
3295.08
3646.26
4129.25
4653
5406.45
6231.05
7452.74
8770.59
10700.6
12640.8
15293.9
17604.4
20420.4
22697.4
24430.8
25366.2
20412.4
15225
7424.04
4325.87
3855.95
5464.49
6949.41
8197.06
8209.12
7971.99
7192.84
6546.78
5772.16
5201.21
4629.9
4225.72
3847.1
3578.83
3327.81
3142.03
2965.11
2824.72
2686.16
2564.54
2439.69
2320.75
2198.73
2080.26
1963.63
1852.83
1749.4
1653.82
1568.44
1490.03
1421.31
1356.34
1298.85
1241.21
1188.63
1132.57
1079.62
1021.16
964.544
902.131
841.253
776.25
714.759
653.371
376.907
378.136
384.165
402.26
446.692
536.72
684.57
878.356
1079.56
1244.35
1348.36
1393.77
1398.07
1381.91
1360.02
1341.55
1329.81
1327.04
1332.68
1347.79
1370.75
1403.07
1442.61
1492.19
1548.95
1617.77
1694.38
1786.76
1888.13
2011.5
2145.71
2312.16
2492.17
2721.58
2968.76
3294.81
3645.91
4128.78
4652.39
5405.7
6230.17
7451.8
8769.69
10699.9
12640.3
15293.9
17604.2
20420.1
22696
24431
25368.3
20417.1
15235.8
7432.66
4332.92
3860.95
5467.24
6949.82
8196.16
8207.48
7969.81
7190.46
6544.6
5770.44
5199.89
4628.82
4224.76
3846.23
3578.07
3327.18
3141.55
2964.76
2824.47
2685.99
2564.44
2439.63
2320.73
2198.74
2080.29
1963.66
1852.85
1749.42
1653.84
1568.46
1490.07
1421.38
1356.44
1299
1241.39
1188.85
1132.82
1079.9
1021.46
964.853
902.44
841.55
776.529
715.014
653.581
376.917
378.168
384.25
402.466
447.109
537.378
685.352
879.047
1080.02
1244.56
1348.37
1393.62
1397.8
1381.55
1359.61
1341.13
1329.42
1326.67
1332.36
1347.5
1370.49
1402.84
1442.4
1492
1548.78
1617.6
1694.21
1786.6
1887.97
2011.34
2145.55
2312
2492
2721.38
2968.52
3294.51
3645.51
4128.26
4651.73
5404.88
6229.22
7450.78
8768.69
10699.1
12639.8
15293.7
17603.9
20419.7
22694.5
24431.2
25370.6
20422.1
15247.1
7441.72
4340.34
3866.27
5470.24
6950.37
8195.31
8205.82
7967.56
7188
6542.34
5768.64
5198.5
4627.68
4223.74
3845.31
3577.26
3326.52
3141.03
2964.37
2824.2
2685.81
2564.31
2439.56
2320.7
2198.74
2080.3
1963.67
1852.86
1749.42
1653.84
1568.47
1490.1
1421.44
1356.54
1299.14
1241.57
1189.07
1133.08
1080.18
1021.77
965.169
902.758
841.858
776.821
715.283
653.806
376.927
378.2
384.338
402.68
447.544
538.065
686.168
879.768
1080.49
1244.78
1348.38
1393.47
1397.51
1381.17
1359.18
1340.69
1329
1326.29
1332.01
1347.19
1370.22
1402.59
1442.18
1491.79
1548.58
1617.41
1694.04
1786.42
1887.79
2011.16
2145.37
2311.81
2491.8
2721.16
2968.26
3294.18
3645.08
4127.69
4651.01
5404
6228.2
7449.67
8767.61
10698.3
12639.2
15293.5
17603.4
20419.1
22692.9
24431.2
25372.9
20427.3
15259
7451.21
4348.15
3871.92
5473.5
6951.09
8194.52
8204.16
7965.26
7185.46
6540
5766.78
5197.05
4626.5
4222.67
3844.34
3576.41
3325.82
3140.48
2963.97
2823.91
2685.6
2564.18
2439.48
2320.66
2198.73
2080.31
1963.68
1852.86
1749.42
1653.83
1568.47
1490.12
1421.49
1356.63
1299.27
1241.75
1189.29
1133.33
1080.47
1022.08
965.493
903.086
842.177
777.126
715.567
654.047
376.937
378.234
384.431
402.904
447.996
538.779
687.017
880.519
1080.99
1245
1348.38
1393.3
1397.2
1380.76
1358.72
1340.23
1328.55
1325.88
1331.64
1346.86
1369.92
1402.33
1441.94
1491.57
1548.37
1617.22
1693.84
1786.23
1887.6
2010.97
2145.17
2311.6
2491.58
2720.92
2967.97
3293.81
3644.61
4127.09
4650.25
5403.07
6227.11
7448.49
8766.44
10697.3
12638.5
15293.1
17602.8
20418.4
22691
24431.3
25375.4
20432.8
15271.4
7461.16
4356.37
3877.93
5477.04
6951.99
8193.83
8202.5
7962.92
7182.86
6537.6
5764.85
5195.55
4625.26
4221.56
3843.34
3575.53
3325.09
3139.9
2963.53
2823.59
2685.38
2564.02
2439.38
2320.61
2198.71
2080.3
1963.68
1852.85
1749.4
1653.82
1568.47
1490.13
1421.54
1356.72
1299.4
1241.93
1189.51
1133.59
1080.76
1022.39
965.824
903.423
842.509
777.445
715.867
654.303
376.948
378.27
384.526
403.136
448.466
539.522
687.9
881.299
1081.5
1245.23
1348.39
1393.12
1396.88
1380.34
1358.24
1339.74
1328.08
1325.45
1331.25
1346.51
1369.61
1402.05
1441.68
1491.33
1548.15
1617
1693.63
1786.02
1887.4
2010.76
2144.96
2311.38
2491.34
2720.65
2967.66
3293.41
3644.11
4126.44
4649.43
5402.07
6225.95
7447.23
8765.19
10696.3
12637.7
15292.6
17602.1
20417.6
22689.1
24431.3
25378
20438.6
15284.4
7471.6
4365
3884.32
5480.89
6953.09
8193.23
8200.87
7960.56
7180.21
6535.13
5762.87
5193.99
4623.97
4220.41
3842.29
3574.61
3324.32
3139.3
2963.08
2823.26
2685.14
2563.86
2439.27
2320.55
2198.68
2080.29
1963.67
1852.83
1749.38
1653.8
1568.45
1490.14
1421.58
1356.8
1299.53
1242.1
1189.73
1133.85
1081.06
1022.71
966.163
903.77
842.852
777.777
716.181
654.574
376.96
378.306
384.626
403.377
448.954
540.293
688.816
882.11
1082.03
1245.47
1348.39
1392.93
1396.54
1379.89
1357.74
1339.23
1327.59
1324.99
1330.84
1346.15
1369.29
1401.75
1441.41
1491.08
1547.91
1616.77
1693.41
1785.8
1887.17
2010.53
2144.72
2311.13
2491.08
2720.35
2967.31
3292.98
3643.56
4125.74
4648.57
5401.01
6224.72
7445.9
8763.86
10695.1
12636.8
15292.1
17601.3
20416.6
22687
24431.3
25380.7
20444.8
15298.1
7482.54
4374.08
3891.11
5485.06
6954.41
8192.75
8199.27
7958.17
7177.52
6532.62
5760.84
5192.39
4622.65
4219.22
3841.21
3573.66
3323.53
3138.67
2962.6
2822.91
2684.89
2563.68
2439.15
2320.48
2198.65
2080.27
1963.65
1852.81
1749.35
1653.77
1568.43
1490.15
1421.62
1356.88
1299.66
1242.27
1189.95
1134.11
1081.36
1023.04
966.509
904.127
843.207
778.123
716.511
654.861
376.971
378.344
384.729
403.627
449.46
541.091
689.765
882.95
1082.58
1245.72
1348.39
1392.74
1396.18
1379.42
1357.22
1338.69
1327.08
1324.52
1330.41
1345.76
1368.94
1401.44
1441.12
1490.81
1547.66
1616.53
1693.17
1785.56
1886.93
2010.28
2144.47
2310.87
2490.8
2720.03
2966.94
3292.52
3642.99
4125.01
4647.65
5399.9
6223.43
7444.5
8762.45
10693.9
12635.8
15291.4
17600.4
20415.6
22684.8
24431.3
25383.7
20451.2
15312.3
7494.01
4383.61
3898.31
5489.58
6955.96
8192.42
8197.73
7955.79
7174.79
6530.06
5758.76
5190.75
4621.29
4217.99
3840.1
3572.67
3322.7
3138.01
2962.1
2822.53
2684.62
2563.49
2439.03
2320.4
2198.6
2080.24
1963.63
1852.78
1749.32
1653.73
1568.4
1490.14
1421.65
1356.96
1299.78
1242.45
1190.17
1134.37
1081.66
1023.37
966.864
904.495
843.574
778.483
716.856
655.164
376.984
378.384
384.835
403.886
449.984
541.918
690.748
883.82
1083.16
1245.97
1348.39
1392.53
1395.81
1378.93
1356.67
1338.13
1326.54
1324.02
1329.97
1345.36
1368.58
1401.11
1440.82
1490.53
1547.39
1616.27
1692.92
1785.3
1886.68
2010.02
2144.2
2310.58
2490.49
2719.69
2966.54
3292.03
3642.37
4124.23
4646.69
5398.73
6222.07
7443.02
8760.96
10692.6
12634.7
15290.7
17599.3
20414.4
22682.5
24431.4
25386.8
20458.1
15327.3
7506.02
4393.63
3905.96
5494.46
6957.78
8192.23
8196.26
7953.41
7172.04
6527.47
5756.64
5189.07
4619.89
4216.73
3838.96
3571.66
3321.85
3137.33
2961.58
2822.15
2684.34
2563.28
2438.89
2320.31
2198.55
2080.21
1963.59
1852.74
1749.27
1653.68
1568.37
1490.13
1421.68
1357.03
1299.9
1242.62
1190.39
1134.64
1081.97
1023.71
967.227
904.872
843.953
778.857
717.217
655.483
376.996
378.425
384.946
404.154
450.525
542.772
691.764
884.72
1083.75
1246.24
1348.39
1392.32
1395.43
1378.42
1356.09
1337.55
1325.98
1323.51
1329.5
1344.94
1368.2
1400.77
1440.5
1490.23
1547.11
1615.99
1692.65
1785.04
1886.4
2009.74
2143.91
2310.27
2490.16
2719.32
2966.11
3291.51
3641.72
4123.41
4645.68
5397.5
6220.65
7441.46
8759.39
10691.3
12633.5
15289.9
17598.2
20413.1
22680
24431.4
25390.2
20465.3
15342.9
7518.6
4404.15
3914.06
5499.73
6959.87
8192.22
8194.86
7951.05
7169.28
6524.85
5754.5
5187.35
4618.46
4215.44
3837.79
3570.62
3320.98
3136.62
2961.04
2821.75
2684.05
2563.07
2438.74
2320.22
2198.49
2080.17
1963.56
1852.7
1749.22
1653.63
1568.33
1490.12
1421.7
1357.1
1300.02
1242.79
1190.62
1134.91
1082.28
1024.05
967.599
905.26
844.345
779.245
717.594
655.818
377.009
378.467
385.06
404.431
451.085
543.655
692.814
885.649
1084.36
1246.51
1348.39
1392.1
1395.02
1377.9
1355.5
1336.94
1325.4
1322.97
1329.01
1344.5
1367.8
1400.4
1440.17
1489.92
1546.81
1615.7
1692.36
1784.75
1886.12
2009.44
2143.6
2309.95
2489.81
2718.93
2965.66
3290.95
3641.04
4122.55
4644.62
5396.21
6219.16
7439.84
8757.75
10689.8
12632.3
15289
17597
20411.7
22677.5
24431.5
25393.8
20472.9
15359.3
7531.78
4415.18
3922.64
5505.4
6962.26
8192.39
8193.56
7948.72
7166.51
6522.2
5752.32
5185.61
4617
4214.13
3836.59
3569.55
3320.08
3135.9
2960.48
2821.33
2683.74
2562.84
2438.59
2320.11
2198.43
2080.12
1963.51
1852.65
1749.16
1653.57
1568.28
1490.09
1421.72
1357.16
1300.14
1242.96
1190.84
1135.18
1082.6
1024.4
967.979
905.658
844.749
779.648
717.987
656.169
377.023
378.51
385.178
404.716
451.662
544.565
693.896
886.608
1084.99
1246.79
1348.39
1391.86
1394.61
1377.35
1354.88
1336.31
1324.79
1322.41
1328.5
1344.04
1367.39
1400.03
1439.82
1489.59
1546.5
1615.4
1692.06
1784.45
1885.81
2009.13
2143.28
2309.6
2489.44
2718.51
2965.18
3290.37
3640.31
4121.65
4643.51
5394.87
6217.62
7438.15
8756.04
10688.3
12631
15288
17595.6
20410.2
22674.9
24431.7
25397.6
20481
15376.5
7545.57
4426.76
3931.72
5511.5
6964.96
8192.78
8192.38
7946.44
7163.75
6519.55
5750.13
5183.85
4615.52
4212.79
3835.37
3568.46
3319.16
3135.16
2959.91
2820.9
2683.42
2562.61
2438.42
2320.01
2198.36
2080.07
1963.46
1852.59
1749.1
1653.51
1568.23
1490.07
1421.73
1357.22
1300.25
1243.13
1191.06
1135.45
1082.92
1024.76
968.367
906.066
845.166
780.064
718.396
656.537
377.036
378.555
385.299
405.011
452.257
545.504
695.012
887.597
1085.64
1247.09
1348.38
1391.62
1394.17
1376.78
1354.24
1335.66
1324.17
1321.82
1327.97
1343.56
1366.96
1399.63
1439.46
1489.25
1546.17
1615.08
1691.75
1784.13
1885.49
2008.8
2142.93
2309.24
2489.05
2718.07
2964.67
3289.75
3639.56
4120.7
4642.35
5393.48
6216
7436.39
8754.25
10686.7
12629.7
15287
17594.2
20408.7
22672.2
24431.9
25401.7
20489.5
15394.4
7560
4438.9
3941.32
5518.04
6968.01
8193.39
8191.32
7944.22
7161.01
6516.89
5747.92
5182.07
4614.03
4211.44
3834.13
3567.35
3318.22
3134.4
2959.33
2820.46
2683.1
2562.37
2438.26
2319.9
2198.29
2080.02
1963.41
1852.53
1749.03
1653.44
1568.17
1490.04
1421.74
1357.28
1300.37
1243.29
1191.29
1135.73
1083.24
1025.12
968.764
906.486
845.595
780.496
718.822
656.921
377.051
378.601
385.425
405.315
452.871
546.47
696.16
888.616
1086.31
1247.39
1348.38
1391.38
1393.73
1376.19
1353.58
1334.98
1323.51
1321.22
1327.42
1343.07
1366.51
1399.22
1439.08
1488.89
1545.83
1614.74
1691.42
1783.8
1885.16
2008.45
2142.57
2308.85
2488.64
2717.61
2964.14
3289.11
3638.77
4119.72
4641.15
5392.03
6214.33
7434.57
8752.39
10685.1
12628.2
15285.9
17592.7
20407
22669.5
24432.2
25406.1
20498.4
15413.1
7575.09
4451.63
3951.48
5525.06
6971.41
8194.24
8190.4
7942.06
7158.29
6514.23
5745.71
5180.27
4612.51
4210.06
3832.87
3566.23
3317.27
3133.63
2958.73
2820.01
2682.76
2562.13
2438.08
2319.78
2198.22
2079.96
1963.35
1852.46
1748.95
1653.36
1568.11
1490
1421.75
1357.34
1300.48
1243.46
1191.52
1136.01
1083.57
1025.49
969.17
906.916
846.038
780.942
719.263
657.322
377.065
378.649
385.554
405.628
453.502
547.464
697.342
889.665
1087.01
1247.7
1348.38
1391.12
1393.27
1375.58
1352.9
1334.28
1322.84
1320.6
1326.85
1342.55
1366.04
1398.8
1438.68
1488.52
1545.47
1614.4
1691.07
1783.45
1884.8
2008.09
2142.2
2308.45
2488.2
2717.12
2963.58
3288.43
3637.94
4118.7
4639.9
5390.53
6212.6
7432.67
8750.47
10683.3
12626.7
15284.7
17591.2
20405.3
22666.7
24432.5
25410.8
20507.9
15432.7
7590.87
4464.96
3962.19
5532.56
6975.18
8195.35
8189.64
7939.99
7155.61
6511.59
5743.49
5178.47
4610.99
4208.68
3831.6
3565.09
3316.3
3132.84
2958.12
2819.55
2682.42
2561.87
2437.91
2319.66
2198.14
2079.9
1963.29
1852.39
1748.88
1653.28
1568.04
1489.96
1421.75
1357.39
1300.59
1243.63
1191.74
1136.29
1083.91
1025.87
969.585
907.358
846.493
781.403
719.722
657.739
377.081
378.698
385.687
405.95
454.151
548.486
698.557
890.743
1087.72
1248.02
1348.38
1390.86
1392.79
1374.96
1352.19
1333.56
1322.15
1319.95
1326.27
1342.02
1365.56
1398.35
1438.27
1488.13
1545.1
1614.03
1690.71
1783.09
1884.44
2007.71
2141.8
2308.03
2487.75
2716.61
2962.99