/*--------------------------------*- C++ -*----------------------------------*\
| =========                 |                                                 |
| \\      /  F ield         | OpenFOAM: The Open Source CFD Toolbox           |
|  \\    /   O peration     | Version:  2412                                  |
|   \\  /    A nd           | Website:  www.openfoam.com                      |
|    \\/     M anipulation  |                                                 |
\*---------------------------------------------------------------------------*/
FoamFile
{
    version     2.0;
    format      ascii;
    arch        "LSB;label=32;scalar=64";
    class       volScalarField;
    location    "0.6";
    object      k;
}
// * * * * * * * * * * * * * * * * * * * * * * * * * * * * * * * * * * * * * //

dimensions      [0 2 -2 0 0 0 0];

internalField   nonuniform List<scalar> 
13068
(
37.5045
37.6827
38.2849
39.7907
42.9202
48.2845
55.6882
63.7558
70.6007
74.9913
76.8517
76.9245
76.1185
75.1433
74.3519
73.8858
73.7251
73.8702
74.2613
74.9215
75.7862
76.9087
78.2079
79.7797
81.513
83.5638
85.7683
88.3713
91.1215
94.4008
97.8178
101.968
106.241
111.571
116.996
123.979
131.006
140.377
149.752
162.704
175.559
193.599
210.897
234.67
255.549
282.584
303.031
327.623
345.513
357.361
361.518
306.539
250.197
144.731
105.762
119.379
158.084
182.219
198.178
194.978
190.29
177.967
168.719
156.839
148.549
139.498
133.357
126.975
122.536
117.947
114.59
111.115
108.349
105.414
102.789
99.9484
97.1974
94.2961
91.4596
88.6285
85.9181
83.3567
80.947
78.7543
76.6721
74.8005
72.9467
71.2598
69.4797
67.8135
65.9532
64.1598
62.1021
60.0756
57.7663
55.4843
52.9772
50.5869
48.154
37.5045
37.6828
38.2852
39.7913
42.921
48.2852
55.6885
63.7558
70.6014
74.9933
76.855
76.9286
76.1229
75.1476
74.3561
73.8898
73.729
73.874
74.2652
74.9254
75.7902
76.9128
78.2121
79.784
81.5174
83.5684
85.7731
88.3763
91.1268
94.4064
97.824
101.975
106.248
111.579
117.005
123.988
131.015
140.387
149.762
162.714
175.57
193.613
210.913
234.691
255.574
282.613
303.063
327.655
345.54
357.387
361.54
306.567
250.241
144.765
105.788
119.397
158.095
182.228
198.191
194.994
190.305
177.98
168.731
156.852
148.562
139.51
133.367
126.984
122.545
117.955
114.599
111.124
108.357
105.422
102.797
99.9558
97.2045
94.303
91.4663
88.6351
85.9246
83.3631
80.9533
78.7607
76.6786
74.8073
72.9538
71.2671
69.4872
67.8209
65.9603
64.1662
62.1075
60.0795
57.7685
55.4843
52.9749
50.5822
48.1473
37.5046
37.6831
38.2859
39.7926
42.9229
48.2873
55.69
63.7567
70.6024
74.9953
76.8581
76.9325
76.127
75.1516
74.3599
73.8935
73.7327
73.8777
74.269
74.9293
75.7942
76.9168
78.2163
79.7883
81.5219
83.5731
85.7779
88.3814
91.1323
94.4122
97.8303
101.982
106.256
111.587
117.014
123.997
131.024
140.396
149.772
162.725
175.582
193.627
210.929
234.711
255.599
282.643
303.096
327.688
345.568
357.415
361.565
306.598
250.29
144.805
105.819
119.417
158.108
182.237
198.204
195.01
190.32
177.991
168.742
156.864
148.575
139.521
133.376
126.992
122.553
117.964
114.607
111.132
108.365
105.43
102.805
99.9635
97.2119
94.3102
91.4733
88.642
85.9313
83.3697
80.9598
78.7672
76.6853
74.8142
72.9611
71.2747
69.495
67.8287
65.9679
64.1731
62.1135
60.0841
57.7715
55.485
52.9735
50.5784
48.1414
37.5047
37.6835
38.2868
39.7945
42.926
48.2908
55.6929
63.7584
70.6037
74.9971
76.8608
76.9357
76.1304
75.155
74.3631
73.8967
73.7359
73.881
74.2723
74.9327
75.7978
76.9206
78.2202
79.7924
81.5262
83.5776
85.7826
88.3863
91.1375
94.4178
97.8364
101.988
106.263
111.595
117.022
124.005
131.033
140.405
149.781
162.734
175.593
193.639
210.945
234.731
255.623
282.672
303.128
327.72
345.596
357.443
361.591
306.631
250.345
144.849
105.853
119.439
158.122
182.247
198.217
195.025
190.332
178.001
168.752
156.875
148.586
139.531
133.385
127
122.561
117.972
114.615
111.14
108.373
105.438
102.813
99.971
97.2192
94.3173
91.4802
88.6487
85.9379
83.3762
80.9662
78.7736
76.6919
74.8211
72.9683
71.2823
69.5028
67.8366
65.9756
64.1803
62.1198
60.089
57.7748
55.4863
52.9726
50.5752
48.1362
37.5049
37.684
38.2881
39.7971
42.9302
48.2959
55.6972
63.7611
70.6052
74.9986
76.8628
76.9383
76.1331
75.1576
74.3656
73.8991
73.7385
73.8837
74.2752
74.9357
75.801
76.924
78.2238
79.7961
81.5301
83.5816
85.7869
88.3908
91.1423
94.423
97.842
101.995
106.27
111.602
117.03
124.013
131.041
140.413
149.789
162.743
175.603
193.651
210.959
234.749
255.646
282.7
303.158
327.75
345.621
357.47
361.617
306.664
250.403
144.898
105.89
119.463
158.137
182.255
198.228
195.038
190.343
178.009
168.76
156.885
148.596
139.54
133.392
127.007
122.568
117.979
114.623
111.148
108.381
105.445
102.82
99.9782
97.2261
94.324
91.4868
88.6552
85.9443
83.3824
80.9724
78.7798
76.6982
74.8278
72.9754
71.2898
69.5107
67.8446
65.9834
64.1876
62.1263
60.0942
57.7786
55.4881
52.9724
50.5727
48.1317
37.5051
37.6847
38.2897
39.8004
42.9355
48.3025
55.703
63.7647
70.607
74.9998
76.8643
76.94
76.1349
75.1593
74.3673
73.9009
73.7403
73.8857
74.2775
74.9383
75.8037
76.9269
78.2269
79.7995
81.5336
83.5853
85.7908
88.3949
91.1467
94.4278
97.8473
102.001
106.276
111.609
117.037
124.02
131.048
140.42
149.796
162.751
175.611
193.661
210.972
234.766
255.668
282.726
303.186
327.778
345.644
357.495
361.642
306.698
250.465
144.951
105.931
119.489
158.152
182.264
198.238
195.049
190.352
178.015
168.766
156.892
148.605
139.547
133.398
127.012
122.573
117.985
114.629
111.154
108.387
105.452
102.827
99.9849
97.2327
94.3305
91.4931
88.6614
85.9503
83.3883
80.9782
78.7857
76.7043
74.8343
72.9823
71.2972
69.5184
67.8525
65.9913
64.195
62.133
60.0997
57.7827
55.4902
52.9726
50.5707
48.1277
37.5053
37.6854
38.2916
39.8043
42.9421
48.3106
55.7103
63.7693
70.609
75.0007
76.8651
76.941
76.1358
75.1601
74.3682
73.9019
73.7415
73.8872
74.2792
74.9402
75.8059
76.9294
78.2296
79.8023
81.5367
83.5886
85.7943
88.3986
91.1507
94.4321
97.852
102.006
106.282
111.615
117.043
124.026
131.054
140.426
149.802
162.757
175.619
193.67
210.984
234.782
255.688
282.75
303.212
327.804
345.665
357.519
361.667
306.732
250.53
145.007
105.975
119.516
158.168
182.271
198.247
195.059
190.358
178.019
168.77
156.898
148.611
139.554
133.403
127.016
122.578
117.99
114.634
111.16
108.394
105.459
102.833
99.9912
97.2388
94.3365
91.4991
88.6672
85.956
83.3939
80.9837
78.7913
76.7102
74.8405
72.989
71.3044
69.526
67.8604
65.9991
64.2025
62.1399
60.1055
57.7872
55.4929
52.9733
50.5694
48.1244
37.5055
37.6863
38.2938
39.809
42.9498
48.3203
55.7191
63.7748
70.6113
75.0013
76.8653
76.9411
76.1359
75.1601
74.3682
73.9021
73.742
73.888
74.2803
74.9417
75.8077
76.9313
78.2318
79.8048
81.5393
83.5914
85.7973
88.4019
91.1542
94.4359
97.8563
102.011
106.288
111.621
117.049
124.032
131.06
140.431
149.808
162.763
175.625
193.678
210.994
234.796
255.706
282.773
303.236
327.828
345.683
357.541
361.691
306.767
250.599
145.068
106.023
119.545
158.185
182.279
198.255
195.066
190.362
178.02
168.772
156.902
148.617
139.558
133.406
127.019
122.581
117.994
114.639
111.165
108.399
105.464
102.839
99.997
97.2446
94.3422
91.5047
88.6727
85.9613
83.3991
80.9889
78.7965
76.7157
74.8465
72.9955
71.3114
69.5336
67.8682
66.007
64.2102
62.147
60.1115
57.792
55.4959
52.9746
50.5686
48.1217
37.5058
37.6873
38.2964
39.8143
42.9587
48.3315
55.7293
63.7812
70.6138
75.0017
76.8649
76.9405
76.1351
75.1592
74.3674
73.9015
73.7418
73.8882
74.2809
74.9426
75.8089
76.9329
78.2336
79.8067
81.5415
83.5938
85.7999
88.4047
91.1572
94.4392
97.86
102.015
106.292
111.626
117.054
124.037
131.064
140.436
149.812
162.767
175.629
193.684
211.003
234.808
255.723
282.794
303.258
327.849
345.699
357.561
361.714
306.802
250.672
145.134
106.074
119.576
158.203
182.285
198.261
195.072
190.364
178.02
168.772
156.905
148.62
139.561
133.408
127.021
122.583
117.997
114.643
111.169
108.404
105.47
102.844
100.002
97.2499
94.3475
91.5099
88.6778
85.9663
83.404
80.9937
78.8015
76.721
74.8522
73.0019
71.3183
69.541
67.876
66.015
64.2179
62.1542
60.1178
57.7971
55.4994
52.9763
50.5685
48.1197
37.5062
37.6884
38.2992
39.8203
42.9688
48.3443
55.7409
63.7885
70.6166
75.0017
76.8638
76.9391
76.1334
75.1575
74.3658
73.9002
73.7409
73.8877
74.2808
74.9429
75.8096
76.9339
78.2349
79.8083
81.5433
83.5958
85.802
88.407
91.1598
94.4421
97.8633
102.018
106.296
111.63
117.059
124.041
131.068
140.439
149.815
162.77
175.633
193.689
211.01
234.819
255.737
282.813
303.277
327.869
345.712
357.581
361.737
306.838
250.749
145.203
106.128
119.609
158.222
182.292
198.266
195.075
190.364
178.017
168.77
156.905
148.622
139.563
133.409
127.021
122.584
117.999
114.646
111.173
108.408
105.474
102.849
100.007
97.2548
94.3525
91.5148
88.6826
85.9709
83.4085
80.9982
78.8061
76.726
74.8577
73.008
71.3251
69.5484
67.8838
66.0229
64.2257
62.1616
60.1244
57.8026
55.5033
52.9786
50.5689
48.1182
37.5065
37.6897
38.3024
39.827
42.98
48.3586
55.754
63.7967
70.6196
75.0014
76.8622
76.9368
76.1309
75.1549
74.3633
73.8981
73.7393
73.8866
74.2802
74.9428
75.8098
76.9344
78.2357
79.8094
81.5446
83.5973
85.8038
88.4089
91.162
94.4445
97.8661
102.022
106.3
111.634
117.062
124.045
131.071
140.441
149.816
162.771
175.635
193.692
211.016
234.829
255.751
282.83
303.295
327.887
345.724
357.599
361.76
306.874
250.83
145.277
106.186
119.644
158.241
182.298
198.27
195.077
190.362
178.012
168.766
156.904
148.623
139.563
133.408
127.02
122.584
118
114.648
111.176
108.412
105.478
102.853
100.012
97.2594
94.3571
91.5193
88.687
85.9752
83.4127
81.0024
78.8105
76.7307
74.863
73.0139
71.3317
69.5556
67.8915
66.0309
64.2337
62.1692
60.1312
57.8084
55.5076
52.9814
50.5699
48.1173
37.5069
37.691
38.3059
39.8344
42.9924
48.3744
55.7686
63.8059
70.6228
75.0009
76.8599
76.9338
76.1275
75.1514
74.36
73.8953
73.737
73.8849
74.279
74.942
75.8095
76.9345
78.2361
79.8101
81.5455
83.5984
85.8051
88.4104
91.1637
94.4465
97.8684
102.024
106.303
111.637
117.065
124.047
131.073
140.443
149.817
162.772
175.636
193.694
211.02
234.837
255.763
282.846
303.311
327.902
345.733
357.615
361.782
306.912
250.915
145.355
106.248
119.681
158.262
182.304
198.273
195.078
190.358
178.004
168.761
156.901
148.622
139.562
133.406
127.018
122.583
118
114.649
111.178
108.415
105.482
102.857
100.016
97.2635
94.3613
91.5235
88.6911
85.9792
83.4165
81.0063
78.8145
76.7351
74.868
73.0196
71.3382
69.5628
67.8993
66.039
64.2417
62.177
60.1383
57.8146
55.5124
52.9847
50.5715
48.1171
37.5073
37.6925
38.3097
39.8424
43.006
48.3917
55.7846
63.816
70.6263
75
76.857
76.93
76.1233
75.1471
74.3559
73.8917
73.734
73.8825
74.2772
74.9408
75.8088
76.9341
78.2361
79.8103
81.546
83.599
85.8059
88.4114
91.165
94.448
97.8701
102.026
106.305
111.64
117.068
124.049
131.074
140.443
149.817
162.771
175.635
193.695
211.023
234.844
255.773
282.86
303.325
327.916
345.74
357.63
361.804
306.95
251.004
145.438
106.314
119.72
158.284
182.31
198.275
195.076
190.352
177.995
168.753
156.897
148.62
139.56
133.403
127.015
122.581
117.999
114.649
111.18
108.417
105.485
102.861
100.019
97.2673
94.3651
91.5273
88.6948
85.9828
83.4201
81.0098
78.8183
76.7393
74.8728
73.0252
71.3445
69.5699
67.9069
66.047
64.2499
62.1849
60.1456
57.8211
55.5176
52.9885
50.5737
48.1175
37.5078
37.6941
38.3139
39.8511
43.0207
48.4106
55.802
63.8269
70.63
74.9989
76.8535
76.9255
76.1182
75.1419
74.351
73.8873
73.7304
73.8795
74.2749
74.939
75.8075
76.9333
78.2356
79.8101
81.546
83.5993
85.8064
88.412
91.1658
94.449
97.8714
102.028
106.307
111.642
117.069
124.05
131.074
140.443
149.816
162.77
175.633
193.694
211.024
234.849
255.782
282.872
303.337
327.927
345.744
357.644
361.826
306.989
251.098
145.526
106.383
119.762
158.307
182.316
198.276
195.073
190.344
177.984
168.743
156.891
148.616
139.556
133.399
127.011
122.578
117.997
114.649
111.18
108.419
105.487
102.863
100.023
97.2707
94.3687
91.5308
88.6983
85.9861
83.4233
81.0131
78.8217
76.7432
74.8774
73.0306
71.3508
69.5769
67.9146
66.0551
64.2582
62.1931
60.1533
57.828
55.5232
52.9928
50.5765
48.1185
37.5083
37.6959
38.3183
39.8606
43.0367
48.4309
55.8209
63.8388
70.634
74.9974
76.8494
76.9201
76.1123
75.1359
74.3453
73.8822
73.726
73.8759
74.272
74.9367
75.8057
76.9319
78.2346
79.8094
81.5456
83.5991
85.8063
88.4122
91.1661
94.4495
97.8723
102.029
106.309
111.643
117.07
124.051
131.074
140.441
149.813
162.767
175.63
193.692
211.024
234.853
255.789
282.883
303.347
327.937
345.747
357.657
361.848
307.029
251.196
145.619
106.457
119.807
158.332
182.322
198.276
195.069
190.334
177.971
168.732
156.883
148.611
139.551
133.393
127.006
122.573
117.995
114.647
111.18
108.42
105.489
102.866
100.025
97.2737
94.3718
91.534
88.7014
85.9891
83.4262
81.016
78.8249
76.7469
74.8818
73.0358
71.3568
69.5838
67.9223
66.0633
64.2666
62.2014
60.1612
57.8353
55.5293
52.9977
50.58
48.1201
37.5088
37.6977
38.3231
39.8706
43.0537
48.4528
55.8412
63.8515
70.6381
74.9957
76.8447
76.914
76.1056
75.129
74.3388
73.8763
73.7209
73.8716
74.2685
74.9338
75.8034
76.9301
78.2332
79.8083
81.5448
83.5984
85.8059
88.4119
91.166
94.4496
97.8726
102.03
106.309
111.644
117.071
124.05
131.073
140.439
149.81
162.763
175.626
193.689
211.023
234.855
255.795
282.892
303.356
327.945
345.747
357.669
361.869
307.07
251.299
145.716
106.535
119.854
158.358
182.329
198.275
195.063
190.322
177.957
168.719
156.874
148.604
139.545
133.386
126.999
122.568
117.991
114.645
111.18
108.42
105.491
102.868
100.028
97.2764
94.3747
91.5369
88.7042
85.9918
83.4288
81.0187
78.8278
76.7503
74.8859
73.0408
71.3628
69.5906
67.9299
66.0715
64.2751
62.21
60.1694
57.8429
55.5358
53.0031
50.584
48.1224
37.5094
37.6997
38.3282
39.8814
43.0719
48.4762
55.8628
63.8652
70.6425
74.9937
76.8394
76.9072
76.098
75.1213
74.3314
73.8697
73.7152
73.8668
74.2644
74.9305
75.8006
76.9278
78.2314
79.8068
81.5435
83.5974
85.805
88.4112
91.1655
94.4492
97.8724
102.03
106.309
111.644
117.07
124.049
131.07
140.435
149.806
162.757
175.621
193.685
211.02
234.856
255.799
282.9
303.362
327.951
345.746
357.679
361.891
307.113
251.407
145.819
106.618
119.904
158.386
182.336
198.274
195.056
190.309
177.94
168.705
156.863
148.596
139.538
133.378
126.992
122.562
117.987
114.642
111.179
108.42
105.491
102.869
100.03
97.2787
94.3773
91.5395
88.7067
85.9942
83.4311
81.021
78.8305
76.7535
74.8899
73.0457
71.3687
69.5974
67.9376
66.0798
64.2838
62.2187
60.1779
57.8509
55.5428
53.009
50.5887
48.1253
37.51
37.7018
38.3336
39.8929
43.0913
48.5011
55.8859
63.8797
70.6471
74.9914
76.8335
76.8995
76.0896
75.1127
74.3233
73.8623
73.7087
73.8612
74.2597
74.9266
75.7974
76.9251
78.229
79.8048
81.5418
83.5959
85.8037
88.41
91.1645
94.4484
97.8718
102.029
106.309
111.643
117.07
124.047
131.068
140.431
149.8
162.751
175.614
193.679
211.017
234.856
255.802
282.906
303.367
327.955
345.743
357.689
361.914
307.158
251.52
145.927
106.706
119.958
158.416
182.344
198.273
195.048
190.295
177.922
168.688
156.852
148.587
139.529
133.369
126.983
122.555
117.981
114.639
111.177
108.42
105.492
102.87
100.031
97.2807
94.3795
91.5418
88.7089
85.9962
83.4331
81.0231
78.8329
76.7564
74.8936
73.0504
71.3744
69.6041
67.9452
66.0881
64.2925
62.2277
60.1867
57.8593
55.5503
53.0155
50.5939
48.1289
37.5106
37.704
38.3393
39.905
43.1118
48.5274
55.9104
63.8951
70.652
74.9888
76.827
76.8912
76.0803
75.1033
74.3143
73.8542
73.7016
73.8551
74.2545
74.9221
75.7936
76.9219
78.2263
79.8024
81.5397
83.594
85.802
88.4085
91.1631
94.4471
97.8706
102.028
106.308
111.642
117.068
124.045
131.064
140.426
149.794
162.744
175.606
193.672
211.011
234.855
255.803
282.911
303.37
327.957
345.738
357.698
361.936
307.204
251.638
146.041
106.798
120.015
158.448
182.352
198.271
195.039
190.278
177.902
168.671
156.838
148.577
139.52
133.36
126.974
122.547
117.975
114.635
111.174
108.419
105.492
102.871
100.033
97.2823
94.3814
91.5438
88.7108
85.998
83.4349
81.0249
78.835
76.7592
74.8972
73.0549
71.38
69.6108
67.9528
66.0965
64.3015
62.2369
60.1958
57.868
55.5582
53.0225
50.5999
48.1331
37.5113
37.7063
38.3453
39.9178
43.1335
48.5553
55.9363
63.9113
70.6571
74.986
76.8199
76.8821
76.0703
75.0931
74.3046
73.8454
73.6938
73.8483
74.2487
74.9172
75.7893
76.9182
78.2231
79.7995
81.5371
83.5917
85.7999
88.4064
91.1612
94.4453
97.869
102.027
106.307
111.64
117.066
124.041
131.059
140.42
149.787
162.735
175.597
193.663
211.005
234.852
255.803
282.915
303.371
327.958
345.731
357.707
361.959
307.252
251.761
146.161
106.896
120.075
158.483
182.361
198.269
195.029
190.261
177.881
168.652
156.824
148.565
139.509
133.349
126.963
122.538
117.968
114.63
111.171
108.417
105.491
102.871
100.033
97.2837
94.3831
91.5455
88.7125
85.9996
83.4363
81.0265
78.8369
76.7617
74.9006
73.0594
71.3856
69.6174
67.9605
66.105
64.3106
62.2463
60.2051
57.8771
55.5666
53.0301
50.6064
48.138
37.512
37.7088
38.3517
39.9313
43.1563
48.5846
55.9636
63.9285
70.6624
74.9828
76.8123
76.8722
76.0594
75.082
74.294
73.8358
73.6853
73.841
74.2423
74.9117
75.7846
76.9141
78.2194
79.7963
81.5342
83.5889
85.7973
88.404
91.1589
94.4431
97.8669
102.024
106.305
111.638
117.063
124.037
131.054
140.413
149.778
162.726
175.587
193.654
210.997
234.848
255.802
282.917
303.371
327.957
345.722
357.714
361.983
307.302
251.891
146.287
106.999
120.14
158.52
182.371
198.267
195.018
190.242
177.858
168.631
156.808
148.553
139.497
133.337
126.952
122.528
117.961
114.624
111.167
108.415
105.49
102.871
100.034
97.2848
94.3845
91.547
88.7139
86.0008
83.4375
81.0277
78.8385
76.764
74.9038
73.0636
71.391
69.624
67.9681
66.1135
64.3198
62.2559
60.2148
57.8867
55.5755
53.0382
50.6136
48.1435
37.5127
37.7114
38.3584
39.9454
43.1803
48.6154
55.9923
63.9465
70.6679
74.9794
76.804
76.8617
76.0477
75.0702
74.2827
73.8254
73.6761
73.8329
74.2354
74.9056
75.7794
76.9094
78.2153
79.7926
81.5308
83.5857
85.7943
88.4011
91.1561
94.4404
97.8644
102.022
106.302
111.635
117.059
124.033
131.048
140.406
149.769
162.715
175.576
193.643
210.988
234.842
255.8
282.917
303.369
327.955
345.712
357.721
362.007
307.354
252.026
146.418
107.108
120.208
158.559
182.383
198.265
195.006
190.222
177.834
168.61
156.791
148.539
139.484
133.324
126.94
122.517
117.952
114.618
111.163
108.413
105.489
102.871
100.034
97.2855
94.3856
91.5482
88.715
86.0018
83.4384
81.0288
78.8399
76.7661
74.9068
73.0678
71.3964
69.6305
67.9758
66.1221
64.3291
62.2657
60.2248
57.8966
55.5848
53.0469
50.6214
48.1497
37.5135
37.7141
38.3654
39.9602
43.2054
48.6477
56.0223
63.9653
70.6736
74.9757
76.7952
76.8503
76.0353
75.0575
74.2706
73.8143
73.6663
73.8243
74.2279
74.8991
75.7736
76.9044
78.2108
79.7884
81.5269
83.5821
85.7909
88.3978
91.1529
94.4373
97.8613
102.019
106.299
111.632
117.055
124.027
131.041
140.397
149.758
162.703
175.563
193.631
210.978
234.836
255.796
282.917
303.366
327.951
345.7
357.728
362.033
307.409
252.167
146.557
107.223
120.281
158.602
182.396
198.264
194.994
190.201
177.809
168.587
156.773
148.524
139.471
133.31
126.927
122.506
117.943
114.611
111.159
108.41
105.487
102.87
100.034
97.2861
94.3865
91.5492
88.7159
86.0025
83.4391
81.0296
78.8411
76.768
74.9097
73.0718
71.4016
69.637
67.9835
66.1308
64.3387
62.2758
60.2352
57.9069
55.5947
53.0562
50.6299
48.1566
37.5143
37.7169
38.3727
39.9757
43.2316
48.6814
56.0537
63.985
70.6796
74.9718
76.7859
76.8383
76.022
75.044
74.2576
73.8025
73.6557
73.8151
74.2198
74.892
75.7674
76.8988
78.2058
79.7838
81.5227
83.5781
85.787
88.3941
91.1493
94.4337
97.8578
102.015
106.295
111.628
117.05
124.021
131.033
140.387
149.747
162.69
175.549
193.618
210.966
234.828
255.791
282.915
303.361
327.946
345.687
357.734
362.059
307.466
252.315
146.702
107.344
120.358
158.648
182.41
198.262
194.981
190.179
177.783
168.563
156.753
148.509
139.456
133.295
126.913
122.494
117.933
114.604
111.153
108.406
105.485
102.869
100.034
97.2863
94.3872
91.5499
88.7165
86.003
83.4395
81.0301
78.8421
76.7697
74.9124
73.0757
71.4068
69.6435
67.9912
66.1396
64.3484
62.2861
60.2458
57.9176
55.605
53.066
50.639
48.1641
37.5151
37.7199
38.3803
39.9919
43.259
48.7166
56.0865
64.0056
70.6857
74.9676
76.776
76.8256
76.0079
75.0296
74.2439
73.7899
73.6445
73.8052
74.2111
74.8844
75.7607
76.8928
78.2004
79.7788
81.518
83.5736
85.7828
88.3899
91.1452
94.4296
97.8538
102.011
106.291
111.623
117.044
124.014
131.025
140.377
149.735
162.677
175.535
193.604
210.953
234.819
255.785
282.912
303.354
327.939
345.672
357.741
362.087
307.526
252.469
146.854
107.471
120.44
158.696
182.426
198.262
194.968
190.156
177.756
168.538
156.733
148.492
139.441
133.28
126.898
122.481
117.923
114.595
111.148
108.402
105.483
102.867
100.033
97.2863
94.3876
91.5505
88.717
86.0033
83.4397
81.0305
78.8428
76.7712
74.915
73.0795
71.412
69.65
67.999
66.1484
64.3582
62.2966
60.2568
57.9287
55.6158
53.0764
50.6488
48.1724
37.516
37.723
38.3883
40.0088
43.2876
48.7533
56.1206
64.027
70.6921
74.9631
76.7655
76.8121
75.993
75.0145
74.2294
73.7766
73.6327
73.7947
74.2019
74.8763
75.7535
76.8864
78.1945
79.7734
81.5129
83.5688
85.7781
88.3853
91.1407
94.4251
97.8493
102.007
106.286
111.618
117.038
124.007
131.015
140.366
149.721
162.662
175.519
193.588
210.94
234.809
255.778
282.908
303.347
327.931
345.656
357.747
362.116
307.589
252.63
147.013
107.605
120.527
158.749
182.444
198.261
194.955
190.133
177.728
168.512
156.712
148.475
139.424
133.264
126.883
122.467
117.911
114.587
111.141
108.398
105.48
102.866
100.032
97.2861
94.3878
91.5508
88.7172
86.0034
83.4397
81.0306
78.8434
76.7725
74.9174
73.0832
71.417
69.6564
68.0067
66.1574
64.3682
62.3074
60.268
57.9403
55.6271
53.0874
50.6592
48.1813
37.5169
37.7262
38.3965
40.0263
43.3172
48.7914
56.1561
64.0492
70.6987
74.9583
76.7545
76.7979
75.9774
74.9985
74.2141
73.7626
73.6201
73.7836
74.1921
74.8676
75.7458
76.8794
78.1882
79.7675
81.5074
83.5635
85.773
88.3803
91.1358
94.4202
97.8444
102.002
106.281
111.612
117.032
123.999
131.005
140.354
149.707
162.646
175.502
193.572
210.925
234.798
255.769
282.903
303.338
327.922
345.639
357.753
362.146
307.655
252.799
147.18
107.746
120.619
158.805
182.464
198.262
194.941
190.109
177.699
168.485
156.69
148.457
139.407
133.247
126.867
122.453
117.9
114.578
111.135
108.393
105.477
102.864
100.031
97.2857
94.3878
91.5509
88.7172
86.0032
83.4395
81.0305
78.8438
76.7737
74.9197
73.0868
71.422
69.6628
68.0146
66.1665
64.3784
62.3184
60.2797
57.9522
55.6389
53.099
50.6703
48.1909
37.5178
37.7295
38.4051
40.0445
43.348
48.8309
56.1929
64.0723
70.7056
74.9533
76.7429
76.7831
75.9609
74.9818
74.1981
73.7478
73.6069
73.7719
74.1818
74.8585
75.7376
76.872
78.1814
79.7612
81.5015
83.5578
85.7675
88.3749
91.1304
94.4148
97.839
101.996
106.275
111.605
117.024
123.99
130.994
140.341
149.692
162.629
175.484
193.554
210.909
234.786
255.76
282.896
303.328
327.911
345.621
357.759
362.178
307.725
252.974
147.354
107.894
120.717
158.865
182.487
198.264
194.928
190.084
177.669
168.458
156.668
148.438
139.39
133.229
126.85
122.438
117.887
114.568
111.128
108.388
105.473
102.861
100.03
97.2851
94.3876
91.5508
88.717
86.0028
83.439
81.0302
78.8439
76.7747
74.9219
73.0903
71.427
69.6692
68.0224
66.1756
64.3888
62.3296
60.2916
57.9646
55.6513
53.1111
50.6821
48.2012
37.5188
37.733
38.414
40.0634
43.3799
48.8719
56.231
64.0962
70.7126
74.948
76.7308
76.7675
75.9437
74.9642
74.1812
73.7323
73.593
73.7596
74.1709
74.8488
75.729
76.8642
78.1742
79.7545
81.4951
83.5517
85.7616
88.369
91.1246
94.409
97.8331
101.99
106.269
111.598
117.016
123.98
130.983
140.327
149.676
162.611
175.465
193.535
210.891
234.773
255.749
282.889
303.316
327.9
345.602
357.765
362.212
307.798
253.157
147.537
108.05
120.821
158.929
182.511
198.267
194.915
190.059
177.638
168.429
156.644
148.418
139.371
133.211
126.833
122.422
117.875
114.558
111.12
108.383
105.47
102.859
100.028
97.2843
94.3873
91.5505
88.7166
86.0023
83.4384
81.0297
78.8439
76.7756
74.9239
73.0937
71.4319
69.6756
68.0304
66.1849
64.3993
62.3412
60.3039
57.9774
55.6641
53.1239
50.6946
48.2122
37.5198
37.7365
38.4233
40.0829
43.4129
48.9143
56.2705
64.1209
70.7199
74.9425
76.7181
76.7512
75.9257
74.9459
74.1636
73.7161
73.5784
73.7466
74.1594
74.8386
75.7198
76.8559
78.1666
79.7474
81.4884
83.5452
85.7552
88.3627
91.1184
94.4027
97.8268
101.983
106.262
111.591
117.008
123.97
130.971
140.312
149.659
162.592
175.444
193.515
210.873
234.759
255.738
282.881
303.304
327.887
345.581
357.771
362.247
307.874
253.348
147.728
108.214
120.93
158.997
182.539
198.271
194.902
190.034
177.607
168.4
156.62
148.398
139.353
133.193
126.815
122.406
117.861
114.548
111.112
108.377
105.466
102.856
100.026
97.2833
94.3868
91.5501
88.7161
86.0015
83.4376
81.029
78.8438
76.7763
74.9258
73.097
71.4368
69.682
68.0384
66.1943
64.4101
62.3529
60.3166
57.9906
55.6775
53.1373
50.7077
48.2239
37.5209
37.7402
38.4328
40.1031
43.4471
48.9581
56.3112
64.1465
70.7273
74.9367
76.705
76.7343
75.907
74.9267
74.1452
73.6992
73.5632
73.7331
74.1474
74.8279
75.7102
76.8471
78.1585
79.7398
81.4812
83.5382
85.7484
88.356
91.1117
94.396
97.82
101.976
106.255
111.583
116.998
123.959
130.958
140.297
149.641
162.572
175.423
193.494
210.854
234.744
255.726
282.871
303.29
327.873
345.56
357.778
362.285
307.955
253.547
147.927
108.386
121.046
159.07
182.569
198.277
194.89
190.009
177.576
168.371
156.596
148.377
139.333
133.173
126.796
122.39
117.847
114.537
111.104
108.371
105.461
102.853
100.025
97.2821
94.3861
91.5496
88.7154
86.0006
83.4366
81.0282
78.8434
76.7769
74.9276
73.1003
71.4416
69.6884
68.0464
66.2038
64.421
62.365
60.3296
58.0043
55.6914
53.1513
50.7216
48.2363
37.5219
37.7441
38.4427
40.124
43.4823
49.0034
56.3533
64.1728
70.735
74.9307
76.6913
76.7166
75.8874
74.9068
74.126
73.6815
73.5473
73.7189
74.1348
74.8167
75.7001
76.8379
78.15
79.7318
81.4736
83.5309
85.7413
88.3489
91.1046
94.3888
97.8127
101.969
106.247
111.574
116.988
123.947
130.944
140.281
149.623
162.551
175.401
193.472
210.834
234.727
255.712
282.861
303.275
327.858
345.538
357.786
362.325
308.039
253.755
148.135
108.566
121.169
159.148
182.603
198.284
194.878
189.984
177.544
168.341
156.571
148.356
139.313
133.154
126.777
122.373
117.833
114.525
111.096
108.365
105.457
102.85
100.022
97.2809
94.3853
91.5489
88.7145
85.9996
83.4354
81.0272
78.843
76.7773
74.9293
73.1034
71.4464
69.6949
68.0545
66.2134
64.4321
62.3773
60.3429
58.0184
55.7058
53.1659
50.7361
48.2494
37.5231
37.748
38.4529
40.1456
43.5187
49.05
56.3967
64.2
70.7429
74.9244
76.677
76.6983
75.8671
74.8861
74.1061
73.6631
73.5307
73.7042
74.1217
74.8049
75.6895
76.8282
78.141
79.7234
81.4656
83.5231
85.7337
88.3414
91.0971
94.3812
97.805
101.961
106.238
111.565
116.978
123.935
130.929
140.264
149.603
162.53
175.378
193.45
210.813
234.711
255.698
282.85
303.259
327.843
345.515
357.794
362.367
308.128
253.971
148.352
108.755
121.299
159.23
182.64
198.293
194.867
189.958
177.513
168.311
156.546
148.334
139.293
133.133
126.758
122.355
117.818
114.514
111.087
108.359
105.452
102.846
100.02
97.2795
94.3844
91.548
88.7135
85.9983
83.4341
81.026
78.8423
76.7776
74.9309
73.1066
71.4512
69.7013
68.0627
66.2232
64.4435
62.3899
60.3567
58.0329
55.7208
53.1811
50.7514
48.2633
37.5242
37.7521
38.4634
40.1678
43.5562
49.0981
56.4414
64.228
70.7511
74.9179
76.6623
76.6793
75.8461
74.8645
74.0854
73.644
73.5135
73.6888
74.108
74.7926
75.6784
76.8181
78.1317
79.7145
81.4571
83.5149
85.7257
88.3334
91.0892
94.3731
97.7968
101.952
106.229
111.555
116.967
123.922
130.914
140.246
149.583
162.507
175.354
193.426
210.79
234.693
255.683
282.838
303.243
327.826
345.492
357.803
362.411
308.221
254.196
148.579
108.953
121.435
159.318
182.68
198.304
194.857
189.934
177.481
168.28
156.52
148.312
139.272
133.113
126.738
122.338
117.803
114.502
111.078
108.352
105.447
102.843
100.018
97.278
94.3834
91.5471
88.7124
85.997
83.4326
81.0247
78.8416
76.7778
74.9325
73.1096
71.456
69.7078
68.071
66.2331
64.455
62.4027
60.3707
58.0479
55.7362
53.1969
50.7673
48.2778
37.5254
37.7563
38.4742
40.1907
43.5948
49.1475
56.4874
64.2568
70.7594
74.9112
76.647
76.6596
75.8243
74.8423
74.064
73.6242
73.4957
73.6728
74.0938
74.7799
75.6669
76.8075
78.1218
79.7053
81.4483
83.5063
85.7173
88.3251
91.0809
94.3646
97.7882
101.943
106.22
111.544
116.955
123.908
130.898
140.227
149.561
162.483
175.328
193.401
210.767
234.674
255.667
282.826
303.225
327.809
345.468
357.812
362.459
308.32
254.43
148.815
109.161
121.58
159.412
182.723
198.317
194.848
189.909
177.449
168.25
156.494
148.29
139.251
133.092
126.718
122.319
117.788
114.489
111.068
108.345
105.442
102.839
100.015
97.2764
94.3823
91.546
88.7112
85.9955
83.431
81.0233
78.8407
76.7779
74.9339
73.1126
71.4607
69.7143
68.0793
66.2431
64.4667
62.4159
60.3852
58.0634
55.7523
53.2134
50.784
48.2931
37.5266
37.7606
38.4854
40.2143
43.6346
49.1984
56.5346
64.2864
70.768
74.9042
76.6312
76.6393
75.8017
74.8192
74.0417
73.6037
73.4771
73.6563
74.079
74.7666
75.6548
76.7965
78.1116
79.6956
81.439
83.4973
85.7085
88.3163
91.0721
94.3557
97.7791
101.934
106.21
111.534
116.943
123.894
130.882
140.208
149.539
162.459
175.302
193.375
210.743
234.655
255.651
282.813
303.206
327.791
345.443
357.823
362.509
308.422
254.673
149.062
109.378
121.732
159.511
182.771
198.332
194.84
189.885
177.417
168.219
156.468
148.267
139.23
133.071
126.698
122.301
117.772
114.477
111.059
108.338
105.437
102.835
100.013
97.2747
94.3811
91.5449
88.7098
85.9938
83.4293
81.0217
78.8397
76.7779
74.9353
73.1156
71.4655
69.7209
68.0878
66.2533
64.4787
62.4293
60.4
58.0793
55.7688
53.2305
50.8014
48.3092
37.5279
37.7651
38.4969
40.2386
43.6754
49.2506
56.5832
64.3168
70.7768
74.897
76.6149
76.6183
75.7785
74.7954
74.0188
73.5824
73.4579
73.6391
74.0636
74.7528
75.6423
76.785
78.1009
79.6855
81.4294
83.4879
85.6992
88.3071
91.0629
94.3464
97.7695
101.924
106.199
111.522
116.93
123.879
130.864
140.188
149.516
162.433
175.275
193.348
210.718
234.634
255.633
282.799
303.187
327.772
345.418
357.835
362.561
308.53
254.927
149.319
109.605
121.892
159.616
182.823
198.35
194.833
189.861
177.385
168.188
156.441
148.245
139.208
133.049
126.677
122.282
117.756
114.464
111.049
108.33
105.432
102.831
100.01
97.2729
94.3799
91.5436
88.7084
85.9921
83.4274
81.02
78.8385
76.7778
74.9366
73.1185
71.4702
69.7274
68.0963
66.2636
64.4908
62.443
60.4152
58.0956
55.786
53.2482
50.8195
48.326
37.5292
37.7697
38.5087
40.2635
43.7173
49.3042
56.633
64.348
70.7858
74.8895
76.5982
76.5967
75.7544
74.7708
73.995
73.5605
73.4381
73.6213
74.0477
74.7385
75.6293
76.773
78.0898
79.675
81.4193
83.4781
85.6896