/*--------------------------------*- C++ -*----------------------------------*\
| =========                 |                                                 |
| \\      /  F ield         | OpenFOAM: The Open Source CFD Toolbox           |
|  \\    /   O peration     | Version:  2412                                  |
|   \\  /    A nd           | Website:  www.openfoam.com                      |
|    \\/     M anipulation  |                                                 |
\*---------------------------------------------------------------------------*/
FoamFile
{
    version     2.0;
    format      ascii;
    arch        "LSB;label=32;scalar=64";
    class       volScalarField;
    location    "0.6";
    object      nut;
}
// * * * * * * * * * * * * * * * * * * * * * * * * * * * * * * * * * * * * * //

dimensions      [0 2 -1 0 0 0 0];

internalField   nonuniform List<scalar> 
13068
(
0.335974
0.338295
0.344253
0.356309
0.375095
0.396352
0.412888
0.420086
0.417494
0.407652
0.394561
0.382074
0.372664
0.367188
0.365139
0.365495
0.367157
0.369462
0.371919
0.374436
0.376825
0.37923
0.38149
0.383857
0.386091
0.38855
0.390855
0.393519
0.395967
0.398946
0.401601
0.405028
0.407969
0.412019
0.415324
0.420151
0.423853
0.429633
0.433808
0.440668
0.445157
0.452698
0.456656
0.463706
0.465743
0.470939
0.470493
0.474052
0.473935
0.471232
0.464678
0.415876
0.373655
0.257827
0.237525
0.337647
0.413694
0.430099
0.430857
0.416342
0.408129
0.395391
0.390438
0.382893
0.38145
0.377999
0.378463
0.376846
0.377321
0.376082
0.376117
0.374903
0.374316
0.372703
0.371264
0.369061
0.366969
0.364607
0.362568
0.360708
0.359256
0.358141
0.357256
0.356602
0.35585
0.355178
0.354124
0.353069
0.351424
0.349759
0.347364
0.344962
0.341754
0.338573
0.33464
0.330882
0.326691
0.323182
0.319927
0.335974
0.338296
0.344256
0.356313
0.3751
0.396357
0.412892
0.42009
0.4175
0.407661
0.39457
0.382082
0.37267
0.367192
0.365141
0.365497
0.367159
0.369465
0.371921
0.37444
0.376829
0.379234
0.381494
0.383861
0.386096
0.388555
0.39086
0.393524
0.395972
0.398953
0.401608
0.405036
0.407977
0.412026
0.415331
0.420157
0.42386
0.42964
0.433816
0.440676
0.445165
0.452708
0.456666
0.463718
0.465755
0.47095
0.470502
0.474058
0.473938
0.471238
0.464684
0.415894
0.373695
0.257864
0.237549
0.337655
0.41371
0.430115
0.430874
0.416353
0.408132
0.395392
0.390442
0.3829
0.381455
0.378
0.378462
0.376846
0.377323
0.376085
0.37612
0.374906
0.374319
0.372706
0.371267
0.369063
0.36697
0.364608
0.36257
0.36071
0.359258
0.358143
0.357258
0.356604
0.355854
0.355182
0.354129
0.353074
0.351428
0.349762
0.347364
0.34496
0.341747
0.338561
0.334622
0.330857
0.32666
0.323145
0.319887
0.335975
0.338298
0.344261
0.356322
0.375111
0.396365
0.412896
0.420093
0.417503
0.407665
0.394576
0.382087
0.372673
0.367194
0.365143
0.365498
0.367161
0.369467
0.371925
0.374443
0.376833
0.379238
0.381499
0.383866
0.386101
0.38856
0.390865
0.39353
0.395978
0.398959
0.401615
0.405043
0.407985
0.412034
0.415338
0.420164
0.423866
0.429647
0.433822
0.440683
0.445174
0.452717
0.456677
0.46373
0.465768
0.470961
0.470511
0.474063
0.473941
0.471244
0.464691
0.415914
0.373741
0.257908
0.237577
0.337661
0.413727
0.430134
0.430893
0.416367
0.408138
0.395395
0.390447
0.382908
0.381461
0.378002
0.378461
0.376846
0.377325
0.376088
0.376124
0.37491
0.374323
0.37271
0.37127
0.369065
0.366972
0.36461
0.362571
0.360711
0.359259
0.358145
0.35726
0.356607
0.355858
0.355187
0.354135
0.353079
0.351434
0.349766
0.347366
0.344958
0.341741
0.338549
0.334605
0.330834
0.32663
0.32311
0.319849
0.335976
0.338302
0.344269
0.356336
0.375127
0.396377
0.412901
0.420092
0.417501
0.407665
0.394577
0.382088
0.372674
0.367195
0.365144
0.3655
0.367163
0.36947
0.371928
0.374447
0.376837
0.379243
0.381503
0.383871
0.386106
0.388565
0.39087
0.393535
0.395984
0.398965
0.401622
0.405051
0.407993
0.412042
0.415345
0.42017
0.423872
0.429653
0.433829
0.44069
0.445182
0.452727
0.456688
0.463741
0.465779
0.470972
0.470519
0.474068
0.473943
0.471251
0.4647
0.415936
0.373793
0.25796
0.237609
0.337665
0.413745
0.430155
0.430914
0.416382
0.408144
0.395398
0.390453
0.382916
0.381468
0.378005
0.378461
0.376847
0.377328
0.376092
0.376128
0.374914
0.374328
0.372714
0.371273
0.369068
0.366974
0.364612
0.362572
0.360712
0.359261
0.358147
0.357263
0.356611
0.355862
0.355192
0.354141
0.353085
0.351439
0.34977
0.347368
0.344957
0.341736
0.338539
0.334589
0.330812
0.326603
0.323077
0.319813
0.335977
0.338306
0.344279
0.356353
0.375148
0.396393
0.412907
0.42009
0.417495
0.407659
0.394573
0.382086
0.372673
0.367193
0.365143
0.3655
0.367165
0.369473
0.371932
0.374451
0.376841
0.379247
0.381508
0.383875
0.38611
0.388569
0.390875
0.39354
0.395989
0.398971
0.401628
0.405058
0.408
0.412048
0.415352
0.420176
0.423877
0.429658
0.433835
0.440697
0.445189
0.452735
0.456698
0.463752
0.465791
0.470982
0.470527
0.474072
0.473946
0.471257
0.464709
0.415959
0.37385
0.258018
0.237645
0.337669
0.413765
0.430178
0.430937
0.416399
0.408152
0.395402
0.39046
0.382926
0.381476
0.378008
0.378461
0.376848
0.377331
0.376097
0.376132
0.374919
0.374332
0.372718
0.371277
0.369071
0.366977
0.364613
0.362574
0.360714
0.359262
0.358148
0.357265
0.356614
0.355866
0.355197
0.354147
0.353092
0.351445
0.349775
0.347371
0.344956
0.341731
0.33853
0.334575
0.330791
0.326576
0.323045
0.319779
0.335978
0.338311
0.344292
0.356376
0.375174
0.396412
0.412913
0.420084
0.417485
0.407648
0.394564
0.382079
0.372668
0.36719
0.365142
0.365501
0.367167
0.369476
0.371935
0.374455
0.376846
0.379252
0.381512
0.38388
0.386115
0.388574
0.39088
0.393545
0.395995
0.398977
0.401634
0.405064
0.408007
0.412055
0.415357
0.420181
0.423882
0.429662
0.43384
0.440702
0.445196
0.452743
0.456707
0.463762
0.465801
0.470991
0.470533
0.474076
0.473947
0.471265
0.464719
0.415984
0.373914
0.258084
0.237685
0.337672
0.413786
0.430203
0.430962
0.416417
0.40816
0.395407
0.390468
0.382936
0.381484
0.378012
0.378461
0.376849
0.377334
0.376101
0.376137
0.374924
0.374337
0.372722
0.371281
0.369074
0.366979
0.364615
0.362575
0.360715
0.359263
0.35815
0.357267
0.356617
0.355871
0.355203
0.354153
0.353098
0.351451
0.34978
0.347374
0.344956
0.341728
0.338522
0.334562
0.330772
0.326551
0.323015
0.319746
0.33598
0.338318
0.344308
0.356402
0.375206
0.396436
0.412919
0.420076
0.417469
0.407632
0.394551
0.382069
0.37266
0.367185
0.365139
0.3655
0.367168
0.369479
0.371939
0.374459
0.37685
0.379256
0.381516
0.383884
0.386119
0.388578
0.390884
0.393549
0.395999
0.398982
0.40164
0.40507
0.408013
0.41206
0.415362
0.420185
0.423886
0.429666
0.433844
0.440707
0.445202
0.45275
0.456715
0.463772
0.465811
0.470999
0.470538
0.474078
0.473948
0.471272
0.46473
0.41601
0.373983
0.258158
0.23773
0.337675
0.413809
0.43023
0.430989
0.416436
0.40817
0.395413
0.390477
0.382947
0.381493
0.378016
0.378462
0.37685
0.377337
0.376106
0.376142
0.374929
0.374342
0.372727
0.371285
0.369077
0.366982
0.364618
0.362577
0.360716
0.359265
0.358152
0.357269
0.35662
0.355875
0.355209
0.35416
0.353105
0.351458
0.349786
0.347378
0.344958
0.341726
0.338515
0.33455
0.330754
0.326528
0.322987
0.319715
0.335982
0.338325
0.344326
0.356434
0.375244
0.396463
0.412926
0.420065
0.417449
0.407611
0.394532
0.382054
0.372649
0.367177
0.365135
0.3655
0.36717
0.369482
0.371942
0.374463
0.376854
0.37926
0.38152
0.383888
0.386123
0.388582
0.390888
0.393553
0.396004
0.398986
0.401645
0.405076
0.408019
0.412065
0.415366
0.420189
0.423889
0.429669
0.433847
0.440711
0.445207
0.452757
0.456723
0.463781
0.46582
0.471007
0.470543
0.47408
0.473948
0.471279
0.464742
0.416038
0.374057
0.258238
0.237779
0.337677
0.413833
0.430258
0.431017
0.416457
0.40818
0.39542
0.390486
0.382959
0.381503
0.37802
0.378462
0.376851
0.377341
0.376111
0.376147
0.374934
0.374347
0.372732
0.371289
0.36908
0.366984
0.36462
0.362579
0.360718
0.359266
0.358153
0.357272
0.356623
0.35588
0.355214
0.354167
0.353113
0.351466
0.349792
0.347383
0.344959
0.341724
0.338509
0.334539
0.330737
0.326506
0.32296
0.319685
0.335984
0.338333
0.344346
0.35647
0.375287
0.396494
0.412934
0.420051
0.417423
0.407584
0.394509
0.382035
0.372634
0.367168
0.36513
0.365498
0.367171
0.369485
0.371946
0.374467
0.376858
0.379264
0.381524
0.383892
0.386127
0.388586
0.390892
0.393557
0.396008
0.39899
0.40165
0.405081
0.408023
0.41207
0.41537
0.420191
0.423891
0.429671
0.43385
0.440714
0.445211
0.452762
0.45673
0.463789
0.465828
0.471013
0.470546
0.474081
0.473947
0.471287
0.464754
0.416067
0.374138
0.258326
0.237833
0.337679
0.413858
0.430289
0.431047
0.416478
0.408192
0.395428
0.390497
0.382972
0.381513
0.378025
0.378463
0.376853
0.377344
0.376116
0.376152
0.37494
0.374353
0.372737
0.371293
0.369084
0.366987
0.364622
0.36258
0.360719
0.359267
0.358155
0.357274
0.356627
0.355884
0.35522
0.354174
0.35312
0.351473
0.349799
0.347388
0.344962
0.341724
0.338504
0.33453
0.330722
0.326486
0.322936
0.319657
0.335987
0.338343
0.344369
0.35651
0.375335
0.396529
0.412941
0.420034
0.417393
0.407551
0.39448
0.382012
0.372617
0.367156
0.365123
0.365496
0.367172
0.369488
0.37195
0.374471
0.376863
0.379268
0.381528
0.383896
0.38613
0.388589
0.390895
0.39356
0.396011
0.398994
0.401654
0.405085
0.408028
0.412074
0.415373
0.420193
0.423893
0.429673
0.433851
0.440717
0.445215
0.452767
0.456737
0.463796
0.465835
0.471019
0.470549
0.474082
0.473946
0.471295
0.464768
0.416097
0.374224
0.258421
0.237892
0.337681
0.413885
0.430321
0.431079
0.416501
0.408204
0.395436
0.390509
0.382986
0.381524
0.37803
0.378465
0.376855
0.377348
0.376121
0.376158
0.374946
0.374359
0.372743
0.371298
0.369088
0.36699
0.364624
0.362582
0.36072
0.359268
0.358156
0.357276
0.35663
0.355889
0.355227
0.354181
0.353128
0.351481
0.349806
0.347394
0.344965
0.341724
0.3385
0.334522
0.330709
0.326468
0.322913
0.319631
0.335989
0.338353
0.344395
0.356555
0.375389
0.396568
0.41295
0.420014
0.417359
0.407514
0.394446
0.381984
0.372596
0.367142
0.365116
0.365494
0.367173
0.36949
0.371954
0.374476
0.376867
0.379272
0.381532
0.383899
0.386133
0.388592
0.390898
0.393563
0.396014
0.398998
0.401658
0.405089
0.408032
0.412077
0.415375
0.420195
0.423893
0.429673
0.433852
0.440718
0.445217
0.452771
0.456742
0.463803
0.465841
0.471024
0.47055
0.474081
0.473944
0.471303
0.464782
0.41613
0.374315
0.258523
0.237956
0.337682
0.413913
0.430355
0.431112
0.416524
0.408217
0.395445
0.390521
0.383
0.381535
0.378035
0.378466
0.376857
0.377352
0.376127
0.376164
0.374952
0.374365
0.372748
0.371302
0.369092
0.366994
0.364627
0.362584
0.360721
0.359269
0.358158
0.357278
0.356634
0.355894
0.355233
0.354189
0.353137
0.35149
0.349814
0.3474
0.34497
0.341725
0.338497
0.334515
0.330697
0.326451
0.322891
0.319607
0.335992
0.338365
0.344423
0.356604
0.375448
0.39661
0.412958
0.419992
0.417319
0.407471
0.394407
0.381953
0.372573
0.367126
0.365107
0.365491
0.367174
0.369493
0.371958
0.37448
0.376871
0.379276
0.381536
0.383902
0.386137
0.388595
0.390901
0.393566
0.396017
0.399001
0.401661
0.405092
0.408035
0.41208
0.415377
0.420195
0.423893
0.429673
0.433852
0.440719
0.445219
0.452775
0.456747
0.463809
0.465847
0.471028
0.47055
0.47408
0.473941
0.471311
0.464797
0.416163
0.374413
0.258633
0.238025
0.337684
0.413942
0.430391
0.431147
0.416549
0.408231
0.395455
0.390534
0.383015
0.381547
0.378041
0.378468
0.376859
0.377356
0.376132
0.376171
0.374959
0.374372
0.372754
0.371307
0.369096
0.366997
0.364629
0.362585
0.360722
0.35927
0.358159
0.357281
0.356637
0.355899
0.35524
0.354197
0.353145
0.351499
0.349822
0.347407
0.344974
0.341728
0.338496
0.334509
0.330686
0.326435
0.322872
0.319584
0.335995
0.338378
0.344454
0.356658
0.375512
0.396656
0.412967
0.419967
0.417275
0.407422
0.394364
0.381917
0.372546
0.367108
0.365097
0.365487
0.367174
0.369496
0.371962
0.374484
0.376875
0.37928
0.381539
0.383906
0.386139
0.388598
0.390903
0.393568
0.396019
0.399003
0.401664
0.405095
0.408038
0.412082
0.415378
0.420195
0.423893
0.429672
0.433852
0.440719
0.44522
0.452777
0.456751
0.463814
0.465852
0.471031
0.47055
0.474078
0.473938
0.471319
0.464813
0.416199
0.374516
0.258751
0.2381
0.337685
0.413972
0.430428
0.431182
0.416574
0.408245
0.395465
0.390548
0.38303
0.38156
0.378047
0.37847
0.376861
0.377361
0.376139
0.376177
0.374966
0.374378
0.37276
0.371312
0.3691
0.367
0.364632
0.362587
0.360724
0.359271
0.35816
0.357283
0.356641
0.355905
0.355247
0.354205
0.353155
0.351508
0.349831
0.347415
0.34498
0.341731
0.338495
0.334505
0.330676
0.326422
0.322854
0.319563
0.335999
0.338391
0.344487
0.356717
0.375582
0.396705
0.412976
0.419938
0.417225
0.407368
0.394315
0.381877
0.372516
0.367088
0.365086
0.365483
0.367175
0.369499
0.371966
0.374489
0.376879
0.379284
0.381542
0.383908
0.386142
0.3886
0.390905
0.39357
0.396021
0.399005
0.401666
0.405097
0.40804
0.412083
0.415378
0.420194
0.423891
0.429671
0.43385
0.440718
0.445221
0.45278
0.456755
0.463819
0.465856
0.471033
0.470548
0.474075
0.473934
0.471328
0.46483
0.416236
0.374626
0.258876
0.23818
0.337686
0.414003
0.430466
0.43122
0.416601
0.408261
0.395476
0.390562
0.383047
0.381573
0.378054
0.378473
0.376864
0.377365
0.376145
0.376184
0.374973
0.374385
0.372766
0.371318
0.369105
0.367004
0.364635
0.362589
0.360725
0.359272
0.358162
0.357285
0.356645
0.35591
0.355254
0.354213
0.353164
0.351518
0.349841
0.347423
0.344987
0.341734
0.338496
0.334502
0.330668
0.32641
0.322838
0.319543
0.336003
0.338406
0.344523
0.35678
0.375657
0.396759
0.412985
0.419907
0.417171
0.407309
0.394261
0.381833
0.372483
0.367066
0.365074
0.365478
0.367175
0.369502
0.37197
0.374493
0.376883
0.379287
0.381546
0.383911
0.386144
0.388602
0.390907
0.393572
0.396023
0.399007
0.401668
0.405099
0.408041
0.412084
0.415378
0.420193
0.423889
0.429668
0.433848
0.440717
0.445221
0.452781
0.456758
0.463823
0.465859
0.471035
0.470546
0.474072
0.47393
0.471337
0.464848
0.416275
0.374741
0.25901
0.238266
0.337686
0.414035
0.430506
0.431258
0.416628
0.408276
0.395488
0.390577
0.383063
0.381586
0.378061
0.378475
0.376866
0.37737
0.376151
0.376192
0.37498
0.374392
0.372773
0.371323
0.369109
0.367008
0.364637
0.362591
0.360726
0.359273
0.358163
0.357287
0.356648
0.355916
0.355261
0.354222
0.353174
0.351528
0.349851
0.347432
0.344994
0.341739
0.338497
0.3345
0.330662
0.326399
0.322824
0.319526
0.336007
0.338422
0.344562
0.356847
0.375737
0.396815
0.412995
0.419873
0.417113
0.407244
0.394202
0.381785
0.372447
0.367042
0.36506
0.365473
0.367175
0.369505
0.371975
0.374497
0.376887
0.379291
0.381549
0.383914
0.386146
0.388604
0.390909
0.393573
0.396024
0.399008
0.401669
0.405101
0.408042
0.412084
0.415377
0.420191
0.423886
0.429665
0.433845
0.440715
0.445219
0.452782
0.45676
0.463827
0.465862
0.471036
0.470542
0.474068
0.473925
0.471346
0.464867
0.416316
0.374863
0.259151
0.238357
0.337687
0.414067
0.430547
0.431297
0.416655
0.408293
0.3955
0.390593
0.383081
0.3816
0.378068
0.378478
0.376869
0.377375
0.376158
0.376199
0.374988
0.3744
0.37278
0.371329
0.369114
0.367012
0.36464
0.362592
0.360727
0.359274
0.358164
0.35729
0.356652
0.355921
0.355269
0.354231
0.353184
0.351538
0.349861
0.347442
0.345002
0.341745
0.3385
0.334499
0.330657
0.32639
0.322811
0.31951
0.336011
0.338438
0.344602
0.356919
0.375822
0.396876
0.413005
0.419837
0.417049
0.407174
0.394138
0.381733
0.372407
0.367016
0.365045
0.365467
0.367175
0.369508
0.371979
0.374502
0.376892
0.379295
0.381552
0.383916
0.386148
0.388605
0.39091
0.393574
0.396025
0.399009
0.40167
0.405101
0.408043
0.412083
0.415375
0.420188
0.423882
0.429661
0.433841
0.440712
0.445218
0.452782
0.456761
0.46383
0.465864
0.471036
0.470538
0.474063
0.47392
0.471356
0.464888
0.416359
0.374991
0.259301
0.238456
0.337687
0.4141
0.430588
0.431338
0.416683
0.40831
0.395513
0.39061
0.383099
0.381615
0.378076
0.378481
0.376871
0.37738
0.376165
0.376207
0.374996
0.374407
0.372786
0.371335
0.369119
0.367016
0.364643
0.362594
0.360728
0.359275
0.358166
0.357292
0.356656
0.355927
0.355277
0.35424
0.353194
0.351549
0.349872
0.347452
0.34501
0.341752
0.338503
0.334499
0.330653
0.326383
0.3228
0.319495
0.336015
0.338456
0.344646
0.356995
0.375913
0.39694
0.413015
0.419797
0.41698
0.407098
0.394069
0.381676
0.372365
0.366987
0.365029
0.36546
0.367175
0.369511
0.371983
0.374506
0.376896
0.379298
0.381554
0.383918
0.38615
0.388606
0.390911
0.393575
0.396025
0.399009
0.40167
0.405102
0.408043
0.412082
0.415373
0.420184
0.423878
0.429656
0.433836
0.440708
0.445215
0.452781
0.456762
0.463832
0.465865
0.471035
0.470533
0.474057
0.473914
0.471366
0.464909
0.416404
0.375125
0.259459
0.23856
0.337686
0.414134
0.430631
0.431378
0.416712
0.408327
0.395526
0.390627
0.383118
0.38163
0.378084
0.378484
0.376874
0.377385
0.376172
0.376214
0.375004
0.374415
0.372793
0.371341
0.369124
0.36702
0.364646
0.362596
0.360729
0.359275
0.358167
0.357294
0.35666
0.355933
0.355284
0.35425
0.353205
0.35156
0.349883
0.347462
0.34502
0.341759
0.338508
0.334501
0.33065
0.326377
0.322791
0.319483
0.33602
0.338475
0.344692
0.357075
0.376008
0.397007
0.413026
0.419754
0.416907
0.407017
0.393995
0.381615
0.372319
0.366956
0.365011
0.365453
0.367174
0.369514
0.371988
0.374511
0.3769
0.379301
0.381557
0.38392
0.386151
0.388607
0.390911
0.393575
0.396025
0.399009
0.40167
0.405102
0.408042
0.412081
0.41537
0.42018
0.423873
0.429651
0.433831
0.440704
0.445212
0.45278
0.456763
0.463834
0.465866
0.471034
0.470527
0.474051
0.473908
0.471376
0.464931
0.41645
0.375265
0.259626
0.238672
0.337686
0.414167
0.430674
0.43142
0.416741
0.408344
0.395539
0.390644
0.383137
0.381645
0.378092
0.378487
0.376877
0.37739
0.376179
0.376223
0.375013
0.374423
0.372801
0.371347
0.369129
0.367024
0.364649
0.362598
0.360729
0.359276
0.358168
0.357297
0.356664
0.355939
0.355293
0.35426
0.353216
0.351572
0.349895
0.347474
0.34503
0.341767
0.338514
0.334504
0.33065
0.326372
0.322784
0.319471
0.336025
0.338495
0.344741
0.35716
0.376109
0.397078
0.413036
0.419709
0.416829
0.406931
0.393916
0.38155
0.37227
0.366923
0.364993
0.365445
0.367173
0.369517
0.371992
0.374516
0.376904
0.379305
0.38156
0.383922
0.386152
0.388608
0.390911
0.393575
0.396025
0.399009
0.40167
0.405101
0.408041
0.412079
0.415367
0.420175
0.423867
0.429644
0.433825
0.440698
0.445208
0.452778
0.456762
0.463835
0.465866
0.471032
0.47052
0.474044
0.473901
0.471387
0.464955
0.416499
0.375412
0.259802
0.23879
0.337685
0.4142
0.430717
0.431462
0.41677
0.408362
0.395553
0.390662
0.383156
0.381661
0.3781
0.37849
0.37688
0.377395
0.376186
0.376231
0.375021
0.374431
0.372808
0.371353
0.369135
0.367028
0.364652
0.362599
0.36073
0.359277
0.358169
0.357299
0.356668
0.355946
0.355301
0.35427
0.353227
0.351584
0.349907
0.347486
0.345041
0.341777
0.338521
0.334508
0.33065
0.32637
0.322778
0.319462
0.33603
0.338516
0.344792
0.357249
0.376215
0.397152
0.413047
0.41966
0.416746
0.406839
0.393832
0.381481
0.372218
0.366888
0.364973
0.365436
0.367172
0.36952
0.371997
0.37452
0.376908
0.379308
0.381562
0.383924
0.386153
0.388608
0.390911
0.393574
0.396025
0.399008
0.401669
0.4051
0.408039
0.412076
0.415363
0.42017
0.42386
0.429638
0.433818
0.440693
0.445204
0.452775
0.456761
0.463835
0.465865
0.471029
0.470512
0.474037
0.473893
0.471399
0.464979
0.416551
0.375565
0.259987
0.238916
0.337683
0.414233
0.430761
0.431504
0.416799
0.40838
0.395567
0.39068
0.383176
0.381677
0.378108
0.378493
0.376883
0.3774
0.376193
0.376239
0.37503
0.37444
0.372815
0.371359
0.36914
0.367033
0.364655
0.362601
0.360731
0.359277
0.35817
0.357301
0.356673
0.355952
0.355309
0.35428
0.353239
0.351597
0.34992
0.347498
0.345052
0.341787
0.338529
0.334514
0.330652
0.326369
0.322775
0.319454
0.336036
0.338538
0.344845
0.357343
0.376326
0.397229
0.413058
0.419609
0.416658
0.406742
0.393743
0.381407
0.372162
0.366851
0.364951
0.365427
0.367171
0.369523
0.372001
0.374525
0.376912
0.379311
0.381564
0.383925
0.386154
0.388608
0.390911
0.393574
0.396024
0.399007
0.401667
0.405098
0.408037
0.412073
0.415358
0.420164
0.423853
0.42963
0.433811
0.440686
0.445198
0.452772
0.45676
0.463835
0.465864
0.471026
0.470503
0.474029
0.473886
0.47141
0.465005
0.416604
0.375725
0.260181
0.239049
0.337681
0.414264
0.430804
0.431547
0.416829
0.408398
0.395581
0.390699
0.383196
0.381693
0.378117
0.378497
0.376886
0.377406
0.376201
0.376248
0.375039
0.374448
0.372823
0.371366
0.369146
0.367037
0.364659
0.362603
0.360732
0.359278
0.358171
0.357304
0.356677
0.355959
0.355318
0.354291
0.353251
0.35161
0.349934
0.347511
0.345065
0.341798
0.338538
0.334521
0.330655
0.326369
0.322773
0.319448
0.336042
0.338561
0.344901
0.357441
0.376442
0.39731
0.413069
0.419554
0.416565
0.40664
0.393649
0.381329
0.372104
0.366811
0.364929
0.365418
0.36717
0.369526
0.372006
0.37453
0.376916
0.379314
0.381566
0.383926
0.386154
0.388608
0.39091
0.393572
0.396022
0.399005
0.401666
0.405096
0.408034
0.412069
0.415353
0.420157
0.423845
0.429622
0.433802
0.440679
0.445192
0.452769
0.456758
0.463835
0.465862
0.471022
0.470494
0.47402
0.473878
0.471423
0.465033
0.41666
0.375892
0.260384
0.23919
0.337678
0.414295
0.430847
0.431589
0.416858
0.408416
0.395595
0.390718
0.383216
0.38171
0.378126
0.378501
0.37689
0.377411
0.376208
0.376257
0.375048
0.374457
0.372831
0.371373
0.369151
0.367042
0.364662
0.362604
0.360732
0.359278
0.358172
0.357306
0.356681
0.355965
0.355327
0.354302
0.353263
0.351623
0.349947
0.347525
0.345078
0.34181
0.338548
0.334529
0.33066
0.326371
0.322772
0.319444
0.336048
0.338585
0.34496
0.357543
0.376563
0.397394
0.41308
0.419497
0.416468
0.406532
0.393549
0.381247
0.372042
0.36677
0.364905
0.365407
0.367168
0.369529
0.37201
0.374534
0.37692
0.379317
0.381568
0.383927
0.386155
0.388607
0.390909
0.393571
0.39602
0.399003
0.401663
0.405093
0.408031
0.412064
0.415347
0.420149
0.423837
0.429613
0.433794
0.440671
0.445186
0.452764
0.456756
0.463834
0.46586
0.471017
0.470484
0.474011
0.473869
0.471436
0.465061
0.416719
0.376065
0.260597
0.23934
0.337674
0.414325
0.43089
0.431631
0.416886
0.408433
0.39561
0.390737
0.383237
0.381726
0.378135
0.378504
0.376893
0.377416
0.376216
0.376266
0.375058
0.374466
0.372839
0.37138
0.369157
0.367046
0.364665
0.362606
0.360733
0.359278
0.358173
0.357308
0.356686
0.355972
0.355336
0.354313
0.353276
0.351637
0.349962
0.347539
0.345092
0.341823
0.338559
0.334538
0.330666
0.326375
0.322774
0.319441
0.336054
0.33861
0.345021
0.35765
0.376689
0.397482
0.413091
0.419436
0.416366
0.406418
0.393445
0.381161
0.371977
0.366726
0.36488
0.365396
0.367166
0.369532
0.372015
0.374539
0.376924
0.37932
0.38157
0.383928
0.386155
0.388607
0.390908
0.393569
0.396018
0.399
0.401661
0.40509
0.408027
0.412059
0.41534
0.420141
0.423827
0.429603
0.433784
0.440663
0.445179
0.45276
0.456753
0.463832
0.465857
0.471012
0.470473
0.474001
0.473861
0.471449
0.465091
0.41678
0.376246
0.26082
0.239497
0.337669
0.414353
0.430931
0.431672
0.416915
0.408451
0.395624
0.390756
0.383258
0.381743
0.378144
0.378508
0.376896
0.377422
0.376224
0.376275
0.375067
0.374475
0.372847
0.371387
0.369163
0.367051
0.364668
0.362608
0.360734
0.359279
0.358174
0.357311
0.35669
0.355979
0.355346
0.354324
0.353289
0.351651
0.349977
0.347554
0.345106
0.341837
0.338572
0.334548
0.330674
0.326381
0.322777
0.31944
0.336061
0.338636
0.345084
0.35776
0.376819
0.397572
0.413102
0.419373
0.416258
0.4063
0.393335
0.381071
0.371908
0.366679
0.364853
0.365385
0.367164
0.369535
0.37202
0.374544
0.376928
0.379323
0.381572
0.383929
0.386155
0.388606
0.390906
0.393567
0.396016
0.398998
0.401658
0.405087
0.408023
0.412054
0.415333
0.420133
0.423818
0.429593
0.433774
0.440653
0.445171
0.452754
0.456749
0.463831
0.465853
0.471006
0.470462
0.473991
0.473852
0.471463
0.465122
0.416844
0.376434
0.261053
0.239664
0.337663
0.414379
0.430972
0.431713
0.416942
0.408468
0.395638
0.390775
0.383279
0.38176
0.378153
0.378512
0.376899
0.377427
0.376232
0.376284
0.375077
0.374485
0.372856
0.371394
0.369169
0.367056
0.364672
0.362609
0.360734
0.359279
0.358174
0.357313
0.356694
0.355986
0.355355
0.354336
0.353302
0.351665
0.349992
0.34757
0.345122
0.341851
0.338585
0.33456
0.330683
0.326388
0.322782
0.319441
0.336068
0.338663
0.34515
0.357875
0.376955
0.397665
0.413112
0.419306
0.416146
0.406175
0.393221
0.380976
0.371837
0.366631
0.364825
0.365372
0.367162
0.369538
0.372025
0.374549
0.376932
0.379326
0.381574
0.383929
0.386154
0.388605
0.390905
0.393565
0.396013
0.398994
0.401654
0.405083
0.408018
0.412048
0.415325
0.420124
0.423807
0.429582
0.433763
0.440644
0.445163
0.452748
0.456745
0.463828
0.465849
0.471
0.470449
0.473981
0.473843
0.471478
0.465155
0.41691
0.376628
0.261296
0.239839
0.337656
0.414403
0.431011
0.431753
0.416969
0.408484
0.395651
0.390794
0.3833
0.381777
0.378162
0.378516
0.376902
0.377433
0.37624
0.376294
0.375087
0.374494
0.372864
0.371401
0.369176
0.367061
0.364675
0.362611
0.360734
0.359279
0.358175
0.357315
0.356699
0.355993
0.355365
0.354348
0.353316
0.35168
0.350008
0.347586
0.345138
0.341867
0.3386
0.334573
0.330694
0.326396
0.322788
0.319443
0.336075
0.338691
0.345219
0.357995
0.377095
0.397762
0.413123
0.419237
0.416029
0.406046
0.393101
0.380877
0.371762
0.36658
0.364796
0.365359
0.367159
0.36954
0.372029
0.374553
0.376936
0.379329
0.381575
0.38393
0.386154
0.388603
0.390903
0.393562
0.39601
0.398991
0.40165
0.405078
0.408013
0.412041
0.415317
0.420114
0.423796
0.42957
0.433751
0.440633
0.445154
0.452742
0.456741
0.463826
0.465845
0.470993
0.470436
0.473969
0.473833
0.471493
0.465189
0.41698
0.37683
0.26155
0.240024
0.337648
0.414425
0.431049
0.431792
0.416995
0.4085
0.395665
0.390814
0.383321
0.381794
0.378171
0.378519
0.376905
0.377438
0.376248
0.376303
0.375097
0.374504
0.372873
0.371408
0.369182
0.367066
0.364678
0.362613
0.360735
0.359279
0.358176
0.357317
0.356704
0.356001
0.355375
0.35436
0.35333
0.351696
0.350024
0.347603
0.345155
0.341883
0.338615
0.334588
0.330706
0.326406
0.322797
0.319447
0.336082
0.33872
0.34529
0.358118
0.37724
0.397862
0.413134
0.419164
0.415907
0.40591
0.392977
0.380773
0.371684
0.366527
0.364765
0.365346
0.367156
0.369543
0.372034
0.374558
0.37694
0.379331
0.381577
0.38393
0.386153
0.388601
0.3909
0.393559
0.396006
0.398987
0.401646
0.405073
0.408007
0.412034
0.415309
0.420103
0.423784
0.429558
0.433739
0.440622
0.445145
0.452735
0.456736
0.463822
0.46584
0.470986
0.470423
0.473958
0.473824
0.47151
0.465225
0.417052
0.37704
0.261815
0.240218
0.337638
0.414443
0.431085
0.431829
0.41702
0.408515
0.395678
0.390833
0.383342
0.381811
0.37818
0.378523
0.376908
0.377443
0.376256
0.376313
0.375108
0.374514
0.372882
0.371416
0.369188
0.367071
0.364682
0.362614
0.360735
0.359279
0.358177
0.35732
0.356708
0.356008
0.355385
0.354372
0.353344
0.351711
0.350041
0.34762
0.345172
0.341901
0.338632
0.334603
0.330719
0.326418
0.322807
0.319453
0.33609
0.33875
0.345363
0.358246
0.377389
0.397964
0.413144
0.419089
0.415781
0.40577
0.392847
0.380666
0.371602
0.366472
0.364733
0.365331
0.367153
0.369546
0.372039
0.374563
0.376944
0.379334
0.381578
0.38393
0.386152
0.3886
0.390898
0.393556
0.396003
0.398983
0.401641
0.405068
0.408001
0.412027
0.415299
0.420093
0.423772
0.429546
0.433727
0.440611
0.445135
0.452728
0.45673
0.463819
0.465834
0.470978
0.470409
0.473946
0.473814
0.471527
0.465263
0.417128
0.377257
0.262091
0.240423
0.337626
0.414459
0.431118
0.431865
0.417044
0.408529
0.395691
0.390852
0.383363
0.381829
0.37819
0.378527
0.376911
0.377449
0.376264
0.376323
0.375118
0.374524
0.37289
0.371424
0.369195
0.367076
0.364685
0.362616
0.360735
0.359279
0.358177
0.357322
0.356713
0.356016
0.355396
0.354385
0.353359
0.351727
0.350058
0.347638
0.345191
0.341919
0.33865
0.33462
0.330734
0.326432
0.322819
0.31946
0.336098
0.338781
0.345439
0.358377
0.377543
0.398069
0.413155
0.41901
0.415649
0.405624
0.392712
0.380553
0.371517
0.366414
0.3647
0.365316
0.367149
0.369549
0.372044
0.374568
0.376948
0.379337
0.381579
0.38393
0.386151
0.388597
0.390895
0.393552
0.395999
0.398978
0.401636
0.405062
0.407994
0.412018
0.415289
0.420081
0.423759
0.429532
0.433713
0.440599
0.445125
0.452721
0.456725
0.463815
0.465828
0.47097
0.470394
0.473934
0.473804
0.471545
0.465301
0.417207
0.377481
0.262378
0.240637
0.337613
0.414471
0.43115
0.4319
0.417066
0.408543
0.395703
0.39087
0.383384
0.381846
0.378199
0.37853
0.376914
0.377454
0.376272
0.376333
0.375129
0.374534
0.372899
0.371431
0.369202
0.367082
0.364689
0.362617
0.360735
0.359278
0.358178
0.357324
0.356718
0.356023
0.355406
0.354398
0.353374
0.351744
0.350076
0.347656
0.34521
0.341938
0.338668
0.334638
0.33075
0.326447
0.322833
0.319469
0.336106
0.338814
0.345518
0.358513
0.377702
0.398178
0.413165
0.418928
0.415512
0.405472
0.392572
0.380437
0.371429
0.366355
0.364665
0.3653
0.367146
0.369551
0.372049
0.374573
0.376952
0.379339
0.38158
0.38393
0.386149
0.388595
0.390891
0.393548
0.395994
0.398973
0.40163
0.405056
0.407987
0.41201
0.415279
0.420069
0.423746
0.429518
0.433699
0.440586
0.445114
0.452712
0.456719
0.463811
0.465822
0.470961
0.470378
0.473921
0.473794
0.471563
0.465342
0.417289
0.377713
0.262676
0.240862
0.337597
0.414478
0.431178
0.431932
0.417087
0.408555
0.395714
0.390888
0.383405
0.381863
0.378208
0.378534
0.376917
0.377459
0.37628
0.376343
0.375139
0.374544
0.372908
0.371439
0.369208
0.367087
0.364692
0.362618
0.360735
0.359278
0.358178
0.357327
0.356723
0.356031
0.355417
0.354411
0.353389
0.351761
0.350094
0.347675
0.34523
0.341958
0.338688
0.334658
0.330768
0.326463
0.322848
0.31948
0.336114
0.338847
0.345599
0.358653
0.377865
0.398288
0.413175
0.418843
0.415371
0.405315
0.392426
0.380316
0.371337
0.366292
0.364629
0.365284
0.367142
0.369554
0.372054
0.374578
0.376956
0.379342
0.381581
0.383929
0.386148
0.388592
0.390888
0.393544
0.395989
0.398968
0.401625
0.405049
0.40798
0.412001
0.415268
0.420057
0.423732
0.429504
0.433685
0.440573
0.445102
0.452704
0.456712
0.463807
0.465816
0.470952
0.470363
0.473908
0.473784
0.471583
0.465385
0.417374
0.377953
0.262987
0.241097
0.33758
0.414482
0.431203
0.431962
0.417106
0.408566
0.395725
0.390906
0.383425
0.381879
0.378216
0.378537
0.376919
0.377464
0.376288
0.376353
0.37515
0.374554
0.372918
0.371447
0.369215
0.367092
0.364695
0.36262
0.360735
0.359278
0.358179
0.357329
0.356728
0.356039
0.355428
0.354425
0.353405
0.351778
0.350113
0.347695
0.34525
0.341979
0.338709
0.334678
0.330787
0.326482
0.322865
0.319492
0.336123
0.338881
0.345682
0.358797
0.378033
0.398402
0.413184
0.418755
0.415224
0.405153