/*--------------------------------*- C++ -*----------------------------------*\
| =========                 |                                                 |
| \\      /  F ield         | OpenFOAM: The Open Source CFD Toolbox           |
|  \\    /   O peration     | Version:  2412                                  |
|   \\  /    A nd           | Website:  www.openfoam.com                      |
|    \\/     M anipulation  |                                                 |
\*---------------------------------------------------------------------------*/
FoamFile
{
    version     2.0;
    format      ascii;
    arch        "LSB;label=32;scalar=64";
    class       volScalarField;
    location    "0.6";
    object      p;
}
// * * * * * * * * * * * * * * * * * * * * * * * * * * * * * * * * * * * * * //

dimensions      [0 2 -2 0 0 0 0];

internalField   nonuniform List<scalar> 
13068
(
106372
106366
106336
106294
106241
106169
106096
105995
105898
105751
105610
105403
105218
104954
104737
104416
104173
103783
103515
103036
102747
102152
101851
101101
100800
99839.8
99565
98315.8
98105.9
96455.3
96374.4
94159.1
94309.4
91291
91834.2
87661.5
88853
83004.1
85247
76940.9
80873.1
68926.8
75559.6
58154.4
69081.1
43351.9
61032.3
22376.4
50524.3
-8230.68
36001.1
-51680.5
17993.5
-101326
4414.23
-69848.9
9175.17
-35571.2
17482.3
-10158
24801.7
8337.87
31728.3
22496.5
38325.3
33570
44405.3
42338.9
49862.4
49336.6
54630.7
54917.9
58683.4
59349.8
62057
62872.2
64846.7
65707.1
67172
68043.2
69143.4
70026.5
70846
71761.1
72336
73316.5
73644.4
74738.2
74784
76059.2
75758.7
77308.9
76569.7
78517.9
77218.3
79717.4
77706.1
80938.4
78030.4
106372
106366
106336
106294
106242
106169
106096
105995
105898
105751
105610
105403
105218
104954
104737
104416
104173
103783
103515
103036
102748
102152
101851
101101
100800
99839.9
99565.1
98315.8
98106
96455.4
96374.4
94159.2
94309.4
91291.1
91834.3
87661.5
88853
83004.2
85247
76941
80873.1
68926.7
75559.5
58154.3
69081
43351.9
61032.4
22376.8
50524.8
-8230.16
36001.7
-51681.2
17993.2
-101330
4413.68
-69849.5
9175.45
-35570.8
17483.1
-10157.2
24802.3
8338.04
31728.3
22496.4
38325.1
33569.8
44405
42338.6
49861.9
49336.1
54630.2
54917.5
58683
59349.5
62056.8
62872.1
64846.7
65707.1
67172.1
68043.4
69143.5
70026.7
70846.1
71761.2
72336.2
73316.5
73644.5
74738.2
74784
76059.2
75758.7
77308.8
76569.6
78517.8
77218.2
79717.2
77706.1
80938.1
78030.8
106372
106366
106336
106294
106242
106169
106096
105995
105898
105751
105610
105403
105218
104954
104737
104416
104173
103783
103515
103036
102748
102152
101851
101101
100801
99839.9
99565.2
98315.9
98106
96455.5
96374.5
94159.3
94309.5
91291.2
91834.4
87661.7
88853.1
83004.3
85247
76941.1
80873
68926.8
75559.4
58154.3
69080.8
43352
61032.5
22377.2
50525.4
-8229.59
36002.2
-51682.1
17992.7
-101334
4412.75
-69850.4
9175.64
-35570.3
17483.9
-10156.3
24802.7
8338.26
31728.2
22496.3
38325
33569.6
44404.7
42338.3
49861.5
49335.7
54629.8
54917.1
58682.7
59349.3
62056.6
62872
64846.6
65707.1
67172.2
68043.5
69143.7
70026.8
70846.2
71761.3
72336.3
73316.6
73644.6
74738.3
74784
76059.1
75758.6
77308.7
76569.5
78517.6
77218.2
79717
77706.2
80937.8
78031.1
106372
106366
106336
106295
106242
106169
106097
105995
105898
105751
105610
105403
105218
104954
104737
104416
104173
103783
103515
103036
102748
102153
101851
101101
100801
99840
99565.2
98316
98106.1
96455.6
96374.6
94159.5
94309.6
91291.4
91834.5
87661.9
88853.2
83004.5
85247.1
76941.2
80873
68926.9
75559.3
58154.4
69080.8
43352.3
61032.7
22377.7
50526.1
-8228.95
36002.8
-51683.3
17992.1
-101340
4411.44
-69851.6
9175.73
-35569.7
17484.7
-10155.4
24803.2
8338.52
31728.2
22496.2
38324.8
33569.4
44404.4
42338
49861.2
49335.4
54629.4
54916.7
58682.3
59349.1
62056.5
62872
64846.6
65707.2
67172.3
68043.6
69143.8
70027
70846.4
71761.5
72336.4
73316.7
73644.6
74738.3
74784.1
76059.1
75758.6
77308.6
76569.4
78517.4
77218.1
79716.8
77706.3
80937.6
78031.5
106372
106366
106336
106295
106242
106169
106097
105995
105898
105751
105610
105403
105218
104954
104737
104416
104173
103783
103515
103036
102748
102153
101851
101101
100801
99840.2
99565.4
98316.2
98106.3
96455.8
96374.7
94159.7
94309.8
91291.6
91834.6
87662.1
88853.3
83004.8
85247.2
76941.5
80873.1
68927.1
75559.2
58154.6
69080.7
43352.6
61032.9
22378.4
50526.8
-8228.23
36003.4
-51684.8
17991.3
-101347
4409.75
-69853.1
9175.73
-35569.1
17485.6
-10154.3
24803.7
8338.84
31728.1
22496.2
38324.6
33569.3
44404.2
42337.8
49860.8
49335.1
54628.9
54916.5
58682
59348.9
62056.3
62871.9
64846.6
65707.3
67172.4
68043.7
69143.9
70027.1
70846.5
71761.6
72336.5
73316.8
73644.7
74738.4
74784.1
76059.1
75758.6
77308.5
76569.3
78517.3
77218.1
79716.6
77706.4
80937.3
78031.8
106372
106366
106337
106295
106242
106169
106097
105995
105898
105751
105610
105403
105218
104954
104737
104417
104173
103783
103515
103036
102748
102153
101851
101101
100801
99840.3
99565.5
98316.4
98106.4
96456
96374.9
94159.9
94309.9
91291.8
91834.8
87662.4
88853.5
83005.1
85247.3
76941.8
80873.1
68927.4
75559.2
58154.9
69080.6
43353
61033.1
22379.3
50527.6
-8227.42
36004
-51686.6
17990.2
-101356
4407.68
-69855
9175.65
-35568.4
17486.4
-10153.2
24804.1
8339.2
31728
22496.2
38324.4
33569.3
44403.9
42337.6
49860.4
49334.8
54628.6
54916.2
58681.8
59348.8
62056.2
62872
64846.7
65707.4
67172.5
68043.9
69144.1
70027.3
70846.7
71761.7
72336.7
73316.9
73644.8
74738.4
74784.2
76059
75758.5
77308.4
76569.3
78517.1
77218.1
79716.4
77706.5
80937.1
78032.1
106373
106367
106337
106295
106242
106169
106097
105995
105898
105751
105610
105403
105218
104954
104737
104417
104173
103783
103515
103037
102748
102153
101851
101101
100801
99840.5
99565.6
98316.6
98106.6
96456.2
96375.1
94160.2
94310.1
91292.2
91835
87662.7
88853.7
83005.5
85247.4
76942.2
80873.2
68927.8
75559.1
58155.3
69080.6
43353.6
61033.3
22380.2
50528.4
-8226.53
36004.6
-51688.7
17989
-101366
4405.23
-69857.1
9175.49
-35567.5
17487.3
-10152
24804.6
8339.61
31727.9
22496.2
38324.1
33569.2
44403.6
42337.5
49860.1
49334.6
54628.2
54916
58681.5
59348.7
62056.1
62872
64846.7
65707.6
67172.6
68044.1
69144.3
70027.4
70846.9
71761.9
72336.8
73317
73645
74738.4
74784.2
76059
75758.5
77308.3
76569.3
78517
77218
79716.2
77706.6
80936.8
78032.5
106373
106367
106337
106295
106243
106170
106097
105995
105898
105751
105610
105403
105218
104954
104738
104417
104173
103783
103515
103037
102748
102153
101852
101101
100801
99840.7
99565.8
98316.8
98106.8
96456.5
96375.3
94160.5
94310.4
91292.5
91835.2
87663.2
88853.9
83005.9
85247.6
76942.7
80873.3
68928.3
75559.1
58155.8
69080.6
43354.3
61033.6
22381.3
50529.3
-8225.55
36005.2
-51691
17987.7
-101377
4402.4
-69859.5
9175.24
-35566.7
17488.1
-10150.7
24805
8340.07
31727.7
22496.3
38323.9
33569.2
44403.3
42337.4
49859.7
49334.4
54627.8
54915.8
58681.3
59348.7
62056.1
62872.1
64846.8
65707.7
67172.8
68044.3
69144.4
70027.6
70847.1
71762
72337
73317.1
73645.1
74738.5
74784.3
76059
75758.6
77308.2
76569.2
78516.8
77218
79716
77706.7
80936.5
78032.8
106373
106367
106337
106296
106243
106170
106097
105995
105898
105751
105611
105403
105219
104955
104738
104417
104173
103784
103515
103037
102748
102153
101852
101101
100801
99840.9
99566
98317.1
98107
96456.8
96375.6
94160.8
94310.6
91292.9
91835.5
87663.6
88854.1
83006.4
85247.8
76943.2
80873.4
68928.8
75559.2
58156.4
69080.6
43355.1
61034
22382.5
50530.3
-8224.49
36005.9
-51693.6
17986.1
-101389
4399.19
-69862.1
9174.91
-35565.7
17489
-10149.3
24805.4
8340.58
31727.6
22496.4
38323.7
33569.2
44403.1
42337.3
49859.4
49334.2
54627.5
54915.7
58681.1
59348.7
62056.1
62872.2
64846.9
65707.9
67173
68044.5
69144.6
70027.8
70847.2
71762.2
72337.2
73317.2
73645.2
74738.5
74784.4
76058.9
75758.6
77308.1
76569.2
78516.6
77218
79715.8
77706.8
80936.3
78033.1
106374
106368
106338
106296
106243
106170
106098
105995
105898
105751
105611
105403
105219
104955
104738
104417
104173
103784
103516
103037
102748
102153
101852
101102
100802
99841.2
99566.3
98317.4
98107.3
96457.1
96375.8
94161.2
94310.9
91293.4
91835.8
87664.1
88854.4
83007
85248.1
76943.8
80873.6
68929.4
75559.2
58157
69080.7
43355.9
61034.3
22383.9
50531.3
-8223.34
36006.6
-51696.5
17984.4
-101403
4395.61
-69865.1
9174.49
-35564.6
17489.9
-10147.8
24805.8
8341.14
31727.4
22496.6
38323.4
33569.3
44402.8
42337.3
49859
49334.1
54627.2
54915.6
58680.9
59348.7
62056.1
62872.4
64847.1
65708.1
67173.2
68044.7
69144.8
70028
70847.4
71762.3
72337.3
73317.4
73645.4
74738.6
74784.5
76058.9
75758.6
77308
76569.2
78516.5
77218.1
79715.6
77706.9
80936
78033.5
106374
106368
106338
106296
106243
106170
106098
105996
105899
105752
105611
105404
105219
104955
104738
104417
104174
103784
103516
103037
102749
102154
101852
101102
100802
99841.4
99566.5
98317.7
98107.5
96457.5
96376.1
94161.7
94311.2
91293.9
91836.1
87664.7
88854.7
83007.6
85248.4
76944.5
80873.7
68930.1
75559.3
58157.8
69080.7
43357
61034.8
22385.4
50532.4
-8222.11
36007.2
-51699.7
17982.5
-101418
4391.64
-69868.4
9173.99
-35563.5
17490.8
-10146.2
24806.2
8341.75
31727.2
22496.8
38323.1
33569.4
44402.5
42337.3
49858.7
49334
54626.9
54915.6
58680.7
59348.8
62056.1
62872.6
64847.2
65708.4
67173.4
68044.9
69145.1
70028.2
70847.6
71762.5
72337.5
73317.5
73645.5
74738.6
74784.6
76058.9
75758.7
77307.9
76569.3
78516.3
77218.1
79715.4
77707
80935.8
78033.8
106375
106369
106339
106297
106244
106171
106098
105996
105899
105752
105611
105404
105219
104955
104738
104417
104174
103784
103516
103037
102749
102154
101852
101102
100802
99841.8
99566.8
98318
98107.8
96457.9
96376.5
94162.1
94311.6
91294.4
91836.5
87665.3
88855.1
83008.3
85248.7
76945.2
80874
68930.9
75559.4
58158.6
69080.8
43358.1
61035.2
22387
50533.5
-8220.8
36007.9
-51703.1
17980.4
-101434
4387.3
-69872
9173.41
-35562.3
17491.8
-10144.6
24806.6
8342.41
31727
22497.1
38322.9
33569.6
44402.2
42337.3
49858.4
49334
54626.6
54915.6
58680.6
59348.9
62056.1
62872.8
64847.4
65708.6
67173.6
68045.2
69145.3
70028.4
70847.8
71762.7
72337.7
73317.6
73645.7
74738.6
74784.7
76058.8
75758.7
77307.8
76569.3
78516.1
77218.1
79715.2
77707.1
80935.5
78034.1
106375
106369
106339
106297
106244
106171
106098
105996
105899
105752
105611
105404
105219
104955
104738
104417
104174
103784
103516
103038
102749
102154
101853
101102
100802
99842.1
99567.1
98318.4
98108.2
96458.4
96376.8
94162.6
94312
91295
91836.9
87666
88855.5
83009.1
85249
76946
80874.2
68931.8
75559.5
58159.6
69080.9
43359.3
61035.7
22388.8
50534.8
-8219.4
36008.7
-51706.9
17978.1
-101452
4382.58
-69875.8
9172.74
-35561
17492.7
-10142.9
24807
8343.11
31726.8
22497.4
38322.6
33569.7
44401.9
42337.4
49858.1
49334
54626.4
54915.6
58680.5
59349.1
62056.2
62873
64847.6
65708.9
67173.8
68045.4
69145.5
70028.6
70848.1
71762.8
72337.9
73317.7
73645.8
74738.7
74784.8
76058.8
75758.8
77307.6
76569.3
78515.9
77218.2
79714.9
77707.3
80935.3
78034.4
106376
106370
106339
106298
106245
106171
106099
105996
105899
105752
105611
105404
105219
104955
104738
104418
104174
103784
103516
103038
102749
102154
101853
101103
100803
99842.4
99567.4
98318.8
98108.5
96458.8
96377.2
94163.2
94312.4
91295.7
91837.3
87666.7
88855.9
83009.9
85249.4
76946.9
80874.5
68932.7
75559.6
58160.6
69081
43360.6
61036.2
22390.7
50536
-8217.92
36009.4
-51710.9
17975.7
-101471
4377.48
-69879.9
9171.99
-35559.6
17493.7
-10141.1
24807.3
8343.87
31726.5
22497.7
38322.3
33570
44401.7
42337.5
49857.8
49334
54626.1
54915.7
58680.4
59349.2
62056.3
62873.3
64847.8
65709.2
67174.1
68045.7
69145.8
70028.9
70848.3
71763
72338.1
73317.8
73646
74738.7
74784.9
76058.7
75758.9
77307.5
76569.4
78515.8
77218.2
79714.7
77707.4
80935.1
78034.7
106376
106370
106340
106298
106245
106172
106099
105997
105899
105752
105611
105404
105219
104955
104739
104418
104174
103785
103517
103038
102749
102155
101853
101103
100803
99842.8
99567.8
98319.3
98108.9
96459.4
96377.6
94163.8
94312.8
91296.4
91837.8
87667.5
88856.4
83010.8
85249.8
76947.9
80874.7
68933.7
75559.8
58161.7
69081.2
43362.1
61036.8
22392.8
50537.4
-8216.35
36010.2
-51715.1
17973.1
-101491
4372.01
-69884.4
9171.15
-35558.2
17494.7
-10139.2
24807.7
8344.67
31726.3
22498.1
38322
33570.2
44401.4
42337.6
49857.5
49334.1
54625.9
54915.8
58680.4
59349.5
62056.4
62873.6
64848
65709.6
67174.4
68046
69146
70029.1
70848.5
71763.2
72338.3
73317.9
73646.2
74738.8
74785.1
76058.7
75759
77307.4
76569.5
78515.6
77218.3
79714.5
77707.5
80934.8
78035.1
106377
106371
106341
106299
106246
106172
106099
105997
105900
105752
105612
105404
105220
104956
104739
104418
104174
103785
103517
103038
102750
102155
101853
101103
100803
99843.2
99568.1
98319.8
98109.3
96459.9
96378.1
94164.4
94313.3
91297.1
91838.3
87668.4
88856.8
83011.7
85250.2
76948.9
80875.1
68934.8
75559.9
58162.9
69081.3
43363.6
61037.4
22394.9
50538.8
-8214.7
36010.9
-51719.7
17970.2
-101513
4366.16
-69889.1
9170.22
-35556.7
17495.7
-10137.2
24808
8345.52
31726
22498.5
38321.7
33570.5
44401.1
42337.8
49857.2
49334.2
54625.7
54915.9
58680.4
59349.7
62056.6
62874
64848.3
65709.9
67174.6
68046.3
69146.3
70029.3
70848.8
71763.3
72338.5
73318
73646.4
74738.8
74785.2
76058.7
75759.1
77307.3
76569.5
78515.4
77218.4
79714.3
77707.7
80934.6
78035.4
106377
106371
106341
106299
106246
106173
106100
105997
105900
105753
105612
105405
105220
104956
104739
104418
104175
103785
103517
103039
102750
102155
101854
101104
100804
99843.7
99568.5
98320.3
98109.7
96460.5
96378.5
94165.1
94313.8
91297.9
91838.8
87669.3
88857.3
83012.8
85250.7
76950.1
80875.4
68936
75560.1
58164.2
69081.5
43365.3
61038
22397.2
50540.3
-8212.97
36011.7
-51724.5
17967.3
-101535
4359.93
-69894.1
9169.22
-35555.1
17496.7
-10135.1
24808.4
8346.42
31725.7
22498.9
38321.4
33570.8
44400.8
42338
49857
49334.4
54625.6
54916.1
58680.4
59350
62056.8
62874.4
64848.6
65710.3
67174.9
68046.7
69146.6
70029.6
70849
71763.5
72338.7
73318.1
73646.6
74738.9
74785.4
76058.6
75759.3
77307.2
76569.6
78515.2
77218.5
79714.1
77707.8
80934.4
78035.7
106378
106372
106342
106300
106247
106173
106100
105998
105900
105753
105612
105405
105220
104956
104739
104418
104175
103785
103517
103039
102750
102156
101854
101104
100804
99844.1
99568.9
98320.8
98110.2
96461.1
96379
94165.8
94314.3
91298.7
91839.3
87670.2
88857.9
83013.8
85251.2
76951.2
80875.8
68937.3
75560.3
58165.6
69081.7
43367.1
61038.7
22399.7
50541.8
-8211.15
36012.5
-51729.7
17964.1
-101560
4353.33
-69899.4
9168.12
-35553.4
17497.7
-10133
24808.7
8347.37
31725.4
22499.4
38321
33571.2
44400.5
42338.3
49856.7
49334.6
54625.4
54916.4
58680.4
59350.4
62057
62874.8
64848.9
65710.7
67175.3
68047
69146.9
70029.8
70849.3
71763.7
72339
73318.2
73646.8
74738.9
74785.6
76058.6
75759.4
77307
76569.7
78515
77218.6
79713.9
77708
80934.1
78036
106379
106373
106342
106300
106247
106174
106101
105998
105900
105753
105612
105405
105220
104956
104739
104419
104175
103786
103518
103039
102751
102156
101854
101105
100804
99844.6
99569.4
98321.4
98110.7
96461.8
96379.5
94166.6
94314.9
91299.6
91839.9
87671.2
88858.5
83015
85251.7
76952.5
80876.2
68938.6
75560.6
58167.1
69081.9
43369
61039.4
22402.3
50543.4
-8209.24
36013.4
-51735
17960.7
-101585
4346.35
-69905
9166.94
-35551.6
17498.7
-10130.7
24809
8348.36
31725
22499.9
38320.7
33571.6
44400.2
42338.6
49856.5
49334.8
54625.2
54916.6
58680.4
59350.7
62057.2
62875.2
64849.2
65711.1
67175.6
68047.3
69147.2
70030.1
70849.5
71763.9
72339.2
73318.4
73647
74738.9
74785.8
76058.5
75759.5
77306.9
76569.8
78514.8
77218.7
79713.7
77708.1
80933.9
78036.3
106380
106373
106343
106301
106248
106174
106101
105998
105901
105753
105613
105405
105220
104956
104740
104419
104175
103786
103518
103040
102751
102156
101855
101105
100805
99845.1
99569.8
98322
98111.2
96462.4
96380.1
94167.4
94315.5
91300.5
91840.5
87672.3
88859.1
83016.2
85252.2
76953.8
80876.6
68940.1
75560.8
58168.7
69082.2
43371
61040.1
22405
50545.1
-8207.25
36014.2
-51740.7
17957.2
-101612
4338.99
-69910.9
9165.67
-35549.8
17499.8
-10128.4
24809.3
8349.41
31724.7
22500.5
38320.3
33572
44399.9
42338.9
49856.2
49335.1
54625.1
54916.9
58680.5
59351.2
62057.5
62875.7
64849.6
65711.6
67175.9
68047.7
69147.5
70030.4
70849.8
71764.1
72339.4
73318.5
73647.2
74739
74786
76058.5
75759.7
77306.8
76570
78514.7
77218.8
79713.5
77708.3
80933.7
78036.6
106380
106374
106344
106302
106248
106175
106102
105999
105901
105754
105613
105405
105221
104957
104740
104419
104176
103786
103518
103040
102751
102157
101855
101106
100805
99845.7
99570.3
98322.6
98111.7
96463.2
96380.7
94168.2
94316.1
91301.5
91841.2
87673.4
88859.7
83017.4
85252.8
76955.2
80877.1
68941.6
75561.1
58170.4
69082.5
43373.1
61040.9
22407.8
50546.8
-8205.18
36015.1
-51746.7
17953.5
-101640
4331.27
-69917
9164.31
-35547.8
17500.9
-10126
24809.5
8350.5
31724.3
22501.1
38320
33572.5
44399.7
42339.3
49856
49335.4
54625
54917.3
58680.6
59351.6
62057.8
62876.2
64849.9
65712.1
67176.3
68048.1
69147.8
70030.7
70850.1
71764.3
72339.7
73318.6
73647.4
74739
74786.2
76058.4
75759.9
77306.6
76570.1
78514.5
77218.9
79713.3
77708.5
80933.5
78036.8
106381
106375
106345
106302
106249
106175
106102
105999
105901
105754
105613
105406
105221
104957
104740
104420
104176
103787
103519
103040
102752
102157
101856
101106
100806
99846.3
99570.8
98323.2
98112.3
96463.9
96381.3
94169.1
94316.7
91302.5
91841.9
87674.6
88860.4
83018.8
85253.4
76956.7
80877.5
68943.1
75561.4
58172.1
69082.7
43375.3
61041.7
22410.8
50548.6
-8203.02
36016
-51752.9
17949.6
-101669
4323.16
-69923.5
9162.87
-35545.8
17501.9
-10123.5
24809.8
8351.63
31723.9
22501.7
38319.6
33573
44399.4
42339.7
49855.8
49335.7
54624.9
54917.7
58680.7
59352.1
62058.1
62876.7
64850.3
65712.6
67176.7
68048.5
69148.1
70031
70850.4
71764.5
72339.9
73318.7
73647.7
74739.1
74786.4
76058.4
75760.1
77306.5
76570.3
78514.3
77219
79713.1
77708.6
80933.3
78037.1
106382
106376
106345
106303
106250
106176
106103
105999
105902
105754
105613
105406
105221
104957
104740
104420
104176
103787
103519
103041
102752
102158
101856
101107
100806
99846.8
99571.4
98323.9
98112.9
96464.7
96381.9
94170
94317.4
91303.6
91842.6
87675.8
88861.1
83020.2
85254.1
76958.2
80878
68944.8
75561.7
58174
69083
43377.6
61042.6
22413.9
50550.5
-8200.77
36016.9
-51759.4
17945.5
-101700
4314.69
-69930.2
9161.34
-35543.8
17503
-10121
24810.1
8352.82
31723.5
22502.4
38319.2
33573.6
44399.1
42340.1
49855.6
49336.1
54624.9
54918.1
58680.9
59352.6
62058.4
62877.3
64850.7
65713.1
67177.1
68048.9
69148.5
70031.3
70850.6
71764.7
72340.2
73318.8
73647.9
74739.1
74786.6
76058.3
75760.3
77306.4
76570.4
78514.1
77219.2
79712.9
77708.8
80933
78037.4
106383
106377
106346
106304
106250
106176
106103
106000
105902
105755
105614
105406
105221
104958
104741
104420
104177
103787
103519
103041
102752
102158
101857
101107
100807
99847.5
99571.9
98324.6
98113.5
96465.5
96382.6
94171
94318.1
91304.7
91843.3
87677.1
88861.9
83021.6
85254.8
76959.8
80878.6
68946.6
75562.1
58175.9
69083.4
43380.1
61043.4
22417.2
50552.4
-8198.44
36017.8
-51766.2
17941.2
-101732
4305.84
-69937.3
9159.72
-35541.6
17504.1
-10118.3
24810.3
8354.05
31723.1
22503.1
38318.8
33574.2
44398.8
42340.6
49855.4
49336.5
54624.8
54918.6
58681.1
59353.2
62058.8
62877.9
64851.2
65713.6
67177.5
68049.3
69148.8
70031.6
70850.9
71764.9
72340.5
73319
73648.2
74739.1
74786.9
76058.3
75760.5
77306.2
76570.6
78513.9
77219.4
79712.6
77709
80932.8
78037.7
106384
106377
106347
106305
106251
106177
106104
106000
105902
105755
105614
105407
105222
104958
104741
104420
104177
103788
103520
103042
102753
102159
101857
101108
100807
99848.1
99572.5
98325.4
98114.1
96466.4
96383.3
94172
94318.9
91305.8
91844.1
87678.4
88862.6
83023.1
85255.5
76961.5
80879.1
68948.4
75562.4
58177.9
69083.7
43382.6
61044.4
22420.6
50554.4
-8196.02
36018.7
-51773.2
17936.8
-101765
4296.61
-69944.6
9158.01
-35539.4
17505.2
-10115.6
24810.5
8355.33
31722.6
22503.9
38318.4
33574.8
44398.5
42341.1
49855.2
49337
54624.8
54919.1
58681.3
59353.8
62059.1
62878.5
64851.6
65714.2
67177.9
68049.8
69149.2
70031.9
70851.3
71765.1
72340.8
73319.1
73648.4
74739.2
74787.1
76058.2
75760.7
77306.1
76570.8
78513.7
77219.5
79712.4
77709.2
80932.6
78038
106385
106378
106348
106305
106252
106178
106104
106001
105903
105755
105614
105407
105222
104958
104741
104421
104177
103788
103520
103042
102753
102159
101857
101108
100808
99848.8
99573.1
98326.2
98114.8
96467.3
96384
94173
94319.7
91307
91844.9
87679.8
88863.4
83024.7
85256.2
76963.3
80879.7
68950.3
75562.8
58180.1
69084.1
43385.3
61045.3
22424.1
50556.4
-8193.52
36019.7
-51780.5
17932.1
-101800
4287.02
-69952.2
9156.21
-35537.1
17506.4
-10112.8
24810.7
8356.65
31722.1
22504.7
38318
33575.4
44398.2
42341.7
49855
49337.5
54624.8
54919.7
58681.5
59354.5
62059.6
62879.2
64852.1
65714.8
67178.4
68050.2
69149.6
70032.2
70851.6
71765.3
72341
73319.2
73648.7
74739.2
74787.4
76058.2
75760.9
77305.9
76571
78513.5
77219.7
79712.2
77709.4
80932.4
78038.2
106386
106379
106349
106306
106253
106178
106105
106001
105903
105756
105615
105407
105222
104958
104742
104421
104178
103788
103520
103043
102754
102160
101858
101109
100808
99849.5
99573.7
98327
98115.5
96468.2
96384.8
94174.1
94320.5
91308.3
91845.7
87681.3
88864.3
83026.3
85257
76965.1
80880.3
68952.3
75563.2
58182.3
69084.5
43388.1
61046.3
22427.7
50558.5
-8190.93
36020.7
-51788.2
17927.3
-101836
4277.05
-69960.1
9154.32
-35534.7
17507.5
-10109.9
24810.9
8358.02
31721.7
22505.5
38317.5
33576.1
44397.9
42342.3
49854.8
49338
54624.8
54920.3
58681.7
59355.1
62060
62879.9
64852.6
65715.4
67178.9
68050.7
69150
70032.5
70851.9
71765.5
72341.3
73319.3
73649
74739.3
74787.6
76058.1
75761.2
77305.8
76571.2
78513.2
77219.9
79712
77709.6
80932.2
78038.5
106387
106380
106350
106307
106254
106179
106105
106002
105904
105756
105615
105408
105223
104959
104742
104422
104178
103789
103521
103043
102754
102160
101859
101110
100809
99850.2
99574.4
98327.8
98116.2
96469.2
96385.5
94175.2
94321.3
91309.6
91846.6
87682.8
88865.1
83028.1
85257.8
76967
80881
68954.4
75563.7
58184.6
69084.9
43391
61047.4
22431.5
50560.7
-8188.26
36021.7
-51796
17922.3
-101873
4266.71
-69968.2
9152.34
-35532.2
17508.7
-10106.9
24811.1
8359.44
31721.1
22506.4
38317.1
33576.9
44397.6
42342.9
49854.6
49338.6
54624.8
54920.9
58682
59355.9
62060.5
62880.6
64853.1
65716
67179.3
68051.2
69150.4
70032.9
70852.2
71765.7
72341.6
73319.5
73649.3
74739.3
74787.9
76058.1
75761.4
77305.6
76571.5
78513
77220.1
79711.8
77709.8
80932
78038.8
106388
106381
106351
106308
106254
106180
106106
106002
105904
105756
105615
105408
105223
104959
104742
104422
104178
103789
103521
103044
102755
102161
101859
101110
100809
99850.9
99575.1
98328.7
98116.9
96470.2
96386.3
94176.4
94322.2
91310.9
91847.5
87684.3
88866
83029.8
85258.6
76969
80881.7
68956.5
75564.1
58187
69085.3
43394
61048.4
22435.5
50563
-8185.5
36022.7
-51804.2
17917.1
-101912
4256
-69976.7
9150.27
-35529.7
17509.8
-10103.8
24811.3
8360.9
31720.6
22507.3
38316.6
33577.6
44397.3
42343.6
49854.5
49339.2
54624.9
54921.6
58682.3
59356.6
62060.9
62881.4
64853.7
65716.7
67179.8
68051.7
69150.8
70033.2
70852.6
71766
72341.9
73319.6
73649.6
74739.4
74788.2
76058
75761.7
77305.5
76571.7
78512.8
77220.3
79711.6
77710
80931.8
78039
106389
106383
106352
106309
106255
106181
106107
106003
105905
105757
105616
105408
105223
104959
104743
104422
104179
103790
103522
103044
102755
102161
101860
101111
100810
99851.7
99575.8
98329.6
98117.7
96471.2
96387.2
94177.6
94323
91312.3
91848.4
87685.9
88867
83031.7
85259.5
76971
80882.4
68958.7
75564.6
58189.5
69085.7
43397.1
61049.5
22439.5
50565.3
-8182.65
36023.7
-51812.7
17911.8
-101952
4244.92
-69985.4
9148.1
-35527.1
17511
-10100.7
24811.4
8362.41
31720.1
22508.2
38316.2
33578.4
44397
42344.3
49854.3
49339.9
54624.9
54922.3
58682.6
59357.4
62061.5
62882.2
64854.2
65717.4
67180.3
68052.2
69151.2
70033.6
70852.9
71766.2
72342.2
73319.7
73649.9
74739.4
74788.5
76058
75762
77305.3
76571.9
78512.6
77220.5
79711.3
77710.2
80931.6
78039.3
106391
106384
106353
106310
106256
106181
106107
106003
105905
105757
105616
105409
105224
104960
104743
104423
104179
103790
103522
103045
102756
102162
101860
101112
100811
99852.5
99576.5
98330.5
98118.5
96472.3
96388
94178.8
94324
91313.8
91849.4
87687.6
88867.9
83033.6
85260.4
76973.1
80883.1
68961
75565.1
58192.1
69086.2
43400.3
61050.7
22443.7
50567.6
-8179.72
36024.8
-51821.4
17906.2
-101993
4233.47
-69994.5
9145.84
-35524.4
17512.1
-10097.5
24811.6
8363.96
31719.5
22509.2
38315.7
33579.3
44396.7
42345
49854.2
49340.6
54625
54923.1
58683
59358.3
62062
62883
64854.8
65718.1
67180.9
68052.8
69151.6
70033.9
70853.3
71766.4
72342.6
73319.9
73650.2
74739.4
74788.8
76057.9
75762.3
77305.2
76572.2
78512.4
77220.8
79711.1
77710.4
80931.4
78039.5
106392
106385
106354
106311
106257
106182
106108
106004
105906
105758
105617
105409
105224
104960
104743
104423
104180
103791
103523
103045
102756
102163
101861
101112
100811
99853.4
99577.2
98331.4
98119.3
96473.4
96388.9
94180.1
94324.9
91315.3
91850.4
87689.3
88868.9
83035.5
85261.3
76975.3
80883.8
68963.4
75565.6
58194.7
69086.7
43403.6
61051.8
22448
50570.1
-8176.7
36025.8
-51830.4
17900.5
-102036
4221.65
-70003.8
9143.49
-35521.7
17513.3
-10094.2
24811.7
8365.56
31718.9
22510.2
38315.2
33580.2
44396.4
42345.7
49854
49341.3
54625.1
54923.9
58683.4
59359.1
62062.6
62883.9
64855.4
65718.8
67181.4
68053.3
69152.1
70034.3
70853.6
71766.7
72342.9
73320
73650.5
74739.5
74789.1
76057.9
75762.6
77305
76572.5
78512.2
77221
79710.9
77710.6
80931.3
78039.8
106393
106386
106355
106312
106258
106183
106109
106004
105906
105758
105617
105409
105224
104961
104744
104424
104180
103791
103523
103046
102757
102163
101861
101113
100812
99854.2
99578
98332.4
98120.1
96474.6
96389.8
94181.4
94325.9
91316.8
91851.4
87691.1
88870
83037.5
85262.2
76977.6
80884.6
68965.9
75566.1
58197.5
69087.2
43407
61053
22452.5
50572.6
-8173.6
36026.9
-51839.7
17894.5
-102080
4209.46
-70013.4
9141.05
-35518.9
17514.5
-10090.8
24811.8
8367.2
31718.3
22511.3
38314.7
33581.1
44396
42346.6
49853.9
49342.1
54625.2
54924.7
58683.8
59360
62063.2
62884.8
64856.1
65719.6
67182
68053.9
69152.5
70034.7
70854
71766.9
72343.2
73320.1
73650.8
74739.5
74789.5
76057.8
75762.9
77304.9
76572.8
78511.9
77221.2
79710.7
77710.8
80931.1
78040
106394
106387
106357
106313
106259
106184
106110
106005
105907
105758
105617
105410
105225
104961
104744
104424
104181
103792
103524
103046
102757
102164
101862
101114
100813
99855.1
99578.8
98333.4
98121
96475.7
96390.8
94182.8
94326.9
91318.4
91852.5
87692.9
88871
83039.6
85263.2
76979.9
80885.4
68968.5
75566.7
58200.3
69087.7
43410.6
61054.3
22457.1
50575.1
-8170.4
36028.1
-51849.2
17888.4
-102125
4196.89
-70023.3
9138.5
-35516
17515.7
-10087.4
24811.9
8368.89
31717.6
22512.4
38314.2
33582
44395.7
42347.4
49853.8
49342.9
54625.4
54925.6
58684.2
59361
62063.8
62885.7
64856.7
65720.3
67182.6
68054.4
69153
70035.1
70854.4
71767.1
72343.6
73320.3
73651.2
74739.6
74789.8
76057.7
75763.3
77304.7
76573.1
78511.7
77221.5
79710.5
77711
80930.9
78040.3
106396
106389
106358
106314
106260
106185
106110
106006
105907
105759
105618
105410
105225
104961
104745
104424
104181
103792
103524
103047
102758
102165
101863
101115
100814
99856
99579.6
98334.5
98121.9
96476.9
96391.8
94184.2
94328
91320
91853.6
87694.8
88872.1
83041.8
85264.2
76982.3
80886.2
68971.1
75567.2
58203.3
69088.2
43414.2
61055.6
22461.8
50577.8
-8167.12
36029.2
-51859
17882.1
-102171
4183.96
-70033.4
9135.87
-35513
17516.9
-10083.8
24812
8370.62
31717
22513.5
38313.7
33583
44395.4
42348.3
49853.7
49343.7
54625.5
54926.5
58684.6
59362
62064.4
62886.6
64857.4
65721.1
67183.1
68055
69153.4
70035.5
70854.7
71767.4
72343.9
73320.4
73651.5
74739.6
74790.2
76057.7
75763.6
77304.6
76573.4
78511.5
77221.8
79710.2
77711.3
80930.7
78040.5
106397
106390
106359
106315
106261
106186
106111
106006
105908
105759
105618
105411
105226
104962
104745
104425
104182
103793
103525
103047
102759
102165
101863
101115
100814
99856.9
99580.4
98335.6
98122.8
96478.2
96392.8
94185.7
94329
91321.7
91854.7
87696.7
88873.2
83044
85265.3
76984.8
80887.1
68973.8
75567.8
58206.3
69088.8
43418
61056.9
22466.7
50580.5
-8163.76
36030.3
-51869.1
17875.6
-102219
4170.66
-70043.9
9133.13
-35510
17518.1
-10080.2
24812
8372.4
31716.3
22514.7
38313.2
33584
44395.1
42349.2
49853.5
49344.6
54625.7
54927.4
58685.1
59363
62065.1
62887.6
64858.1
65722
67183.8
68055.6
69153.9
70035.9
70855.1
71767.6
72344.3
73320.5
73651.9
74739.7
74790.5
76057.6
75764
77304.4
76573.7
78511.2
77222
79710
77711.5
80930.5
78040.8
106399
106391
106360
106317
106262
106187
106112
106007
105908
105760
105619
105411
105226
104962
104745
104425
104182
103793
103525
103048
102759
102166
101864
101116
100815
99857.9
99581.3
98336.7
98123.8
96479.5
96393.8
94187.1
94330.1
91323.4
91855.9
87698.7
88874.4
83046.3
85266.4
76987.3
80888
68976.6
75568.4
58209.4
69089.3
43421.9
61058.2
22471.7
50583.2
-8160.3
36031.5
-51879.5
17868.9
-102268
4156.99
-70054.6
9130.3
-35506.8
17519.3
-10076.5
24812
8374.21
31715.6
22515.9
38312.6
33585.1
44394.8
42350.1
49853.5
49345.5
54625.9
54928.4
58685.6
59364.1
62065.8
62888.6
64858.8
65722.8
67184.4
68056.3
69154.4
70036.3
70855.5
71767.9
72344.6
73320.7
73652.3
74739.7
74790.9
76057.6
75764.3
77304.2
76574.1
78511
77222.3
79709.8
77711.7
80930.4
78041
106400
106393
106362
106318
106264
106188
106113
106008
105909
105760
105619
105412
105227
104963
104746
104426
104183
103794
103526
103049
102760
102167
101865
101117
100816
99858.9
99582.2
98337.8
98124.7
96480.8
96394.8
94188.7
94331.3
91325.2
91857
87700.8
88875.6
83048.6
85267.5
76990
80888.9
68979.5
75569.1
58212.6
69089.9
43425.8
61059.6
22476.8
50586
-8156.76
36032.7
-51890.2
17862.1
-102319
4142.96
-70065.6
9127.37
-35503.7
17520.5
-10072.8
24812.1
8376.08
31714.8
22517.1
38312
33586.2
44394.5
42351.1
49853.4
49346.5
54626.1
54929.5
58686.1
59365.2
62066.5
62889.7
64859.6
65723.7
67185
68056.9
69154.9
70036.7
70855.9
71768.1
72345
73320.8
73652.6
74739.7
74791.3
76057.5
75764.7
77304.1
76574.4
78510.8
77222.6
79709.5
77712
80930.2
78041.2
106402
106394
106363
106319
106265
106189
106114
106008
105909
105761
105620
105412
105227
104963
104746
104426
104183
103794
103526
103049
102761
102168
101866
101118
100817
99859.9
99583.1
98339
98125.7
96482.1
96395.9
94190.2
94332.4
91327
91858.3
87702.9
88876.8
83051
85268.6
76992.6
80889.8