/*--------------------------------*- C++ -*----------------------------------*\
| =========                 |                                                 |
| \\      /  F ield         | OpenFOAM: The Open Source CFD Toolbox           |
|  \\    /   O peration     | Version:  2412                                  |
|   \\  /    A nd           | Website:  www.openfoam.com                      |
|    \\/     M anipulation  |                                                 |
\*---------------------------------------------------------------------------*/
FoamFile
{
    version     2.0;
    format      ascii;
    arch        "LSB;label=32;scalar=64";
    class       surfaceScalarField;
    location    "0.6";
    object      phi;
}
// * * * * * * * * * * * * * * * * * * * * * * * * * * * * * * * * * * * * * //

dimensions      [0 3 -1 0 0 0 0];

oriented        oriented;

internalField   nonuniform List<scalar> 
25905
(
0.00747459
0.000202436
0.00738318
0.000183019
0.00730108
0.000164114
0.00722981
0.000141439
0.00717596
0.000104965
0.00714978
4.82082e-05
0.0071595
-2.39963e-05
0.00720445
-9.39136e-05
0.00727497
-0.000144195
0.00735731
-0.000167186
0.00743935
-0.000166279
0.00751381
-0.000150965
0.00757821
-0.00013061
0.00763335
-0.000111818
0.00768097
-9.64548e-05
0.00772278
-8.45702e-05
0.00775958
-7.4344e-05
0.00779233
-6.60594e-05
0.00782123
-5.82444e-05
0.00784714
-5.21336e-05
0.00787003
-4.60995e-05
0.00789074
-4.17687e-05
0.00790887
-3.67476e-05
0.00792551
-3.38322e-05
0.00793981
-2.91967e-05
0.00795315
-2.69138e-05
0.0079642
-2.18106e-05
0.00797478
-1.94738e-05
0.0079829
-1.27375e-05
0.00799122
-9.79837e-06
0.00799668
-8.78743e-08
0.00800306
4.41224e-06
0.00800598
1.78544e-05
0.00801086
2.25222e-05
0.00801151
3.74332e-05
0.00801554
3.81153e-05
0.00801425
5.06734e-05
0.00801845
4.21988e-05
0.00801598
4.78892e-05
0.00802199
2.3498e-05
0.00802023
1.35315e-05
0.00803103
-3.72685e-05
0.00803291
-7.16288e-05
0.00805103
-0.000149854
0.00805708
-0.000201293
0.00807879
-0.000273131
0.00807925
-0.000260523
0.00808384
-0.000190855
0.00805347
-1.78197e-05
0.00799732
0.000201802
0.00788897
0.000381422
0.00765275
0.000682832
0.00728754
0.000699127
0.00732994
-9.52477e-05
0.00756634
-0.000566152
0.00772233
-0.000344126
0.00779967
-0.000124541
0.00785201
4.18824e-05
0.00785782
0.00017917
0.00786443
0.000234683
0.00785126
0.000301592
0.00785037
0.000314009
0.00784046
0.000322678
0.00784318
0.000294555
0.00784017
0.000289953
0.00784671
0.000271851
0.00784831
0.00027313
0.00785592
0.000242095
0.00785875
0.000210063
0.00786474
0.000148481
0.00786607
9.94619e-05
0.00786811
4.12553e-05
0.00786553
1.95544e-06
0.0078621
-3.70265e-05
0.00785458
-5.53579e-05
0.00784578
-6.78301e-05
0.00783406
-6.49522e-05
0.00782142
-5.96976e-05
0.00780736
-4.76818e-05
0.00779314
-3.54952e-05
0.00777876
-2.04898e-05
0.00776472
-6.33897e-06
0.00775143
6.358e-06
0.00773857
1.53635e-05
0.00772693
1.74437e-05
0.0077155
1.20377e-05
0.00770549
-5.0339e-06
0.00769546
-3.19669e-05
0.00768723
-7.44475e-05
0.00767892
-0.000126082
0.00767297
-0.00019821
0.00766758
-0.000273802
0.0076654
-0.000379516
0.00766546
-0.000471281
0.00766974
-0.0006145
0.00767936
-0.000701119
0.00769448
-0.000884305
0.00771865
-0.000922341
-0.00117793
0.00747459
0.000303607
0.00738318
0.000274427
0.00730108
0.000246209
0.00722982
0.000212707
0.00717596
0.000158818
0.00714978
7.43946e-05
0.00715948
-3.37034e-05
0.00720442
-0.000138853
0.00727493
-0.000214706
0.00735726
-0.000249513
0.00743929
-0.000248312
0.00751376
-0.000225433
0.00757816
-0.000195005
0.0076333
-0.000166965
0.00768092
-0.000144071
0.00772273
-0.000126382
0.00775953
-0.000111142
0.00779228
-9.88077e-05
0.00782118
-8.71466e-05
0.00784709
-7.80408e-05
0.00786998
-6.8988e-05
0.00789069
-6.24841e-05
0.00790882
-5.48722e-05
0.00792547
-5.04801e-05
0.00793976
-4.34944e-05
0.0079531
-4.02521e-05
0.00796415
-3.28624e-05
0.00797474
-3.00588e-05
0.00798286
-2.08551e-05
0.00799117
-1.81155e-05
0.00799664
-5.55405e-06
0.00800302
-1.96535e-06
0.00800594
1.4936e-05
0.00801083
1.76327e-05
0.00801147
3.6785e-05
0.00801551
3.40793e-05
0.00801421
5.19681e-05
0.00801842
3.79959e-05
0.00801595
5.03566e-05
0.00802196
1.74909e-05
0.00802019
1.52938e-05
0.00803099
-4.80635e-05
0.00803287
-7.35056e-05
0.00805098
-0.000167965
0.00805703
-0.000207347
0.00807874
-0.00029484
0.00807921
-0.000260987
0.00808381
-0.000195457
0.00805344
1.25445e-05
0.00799731
0.000257939
0.00788895
0.000489779
0.00765273
0.000919048
0.00728754
0.00106432
0.00732995
-0.000137657
0.00756633
-0.00080253
0.00772229
-0.000500093
0.00779962
-0.000201864
0.00785197
-1.04709e-05
0.00785778
0.000173355
0.0078644
0.000228067
0.00785122
0.00031477
0.00785034
0.000314891
0.00784043
0.00033259
0.00784315
0.000291833
0.00784014
0.000292961
0.00784668
0.000265316
0.00784827
0.000271533
0.00785589
0.000234482
0.00785872
0.000207234
0.00786471
0.000142488
0.00786604
9.81354e-05
0.00786808
3.92174e-05
0.00786549
4.54224e-06
0.00786207
-3.36027e-05
0.00785454
-4.78343e-05
0.00784575
-5.90358e-05
0.00783403
-5.32295e-05
0.00782139
-4.70621e-05
0.00780733
-3.36182e-05
0.00779311
-2.12781e-05
0.00777873
-6.11145e-06
0.0077647
7.69585e-06
0.0077514
1.96541e-05
0.00773854
2.82186e-05
0.0077269
2.90881e-05
0.00771547
2.34695e-05
0.00770545
4.98199e-06
0.00769542
-2.19308e-05
0.00768717
-6.62055e-05
0.00767885
-0.000117758
0.00767288
-0.000192243
0.00766748
-0.000268401
0.00766528
-0.000377315
0.00766533
-0.000471334
0.0076696
-0.000618764
0.00767922
-0.000710741
0.00769434
-0.000899428
0.00771854
-0.000946533
-0.00121385
0.00747459
0.000404777
0.00738318
0.000365834
0.00730109
0.000328302
0.00722982
0.000283975
0.00717597
0.000212674
0.00714977
0.000100591
0.00715946
-4.33915e-05
0.00720437
-0.000183771
0.00727487
-0.000285198
0.00735718
-0.00033183
0.00743921
-0.000330343
0.00751368
-0.000299903
0.00757808
-0.000259402
0.00763323
-0.000222113
0.00768085
-0.000191689
0.00772266
-0.000168195
0.00775946
-0.00014794
0.00779221
-0.000131556
0.00782111
-0.000116049
0.00784702
-0.000103949
0.00786991
-9.18773e-05
0.00789062
-8.32001e-05
0.00790875
-7.29975e-05
0.0079254
-6.71287e-05
0.00793969
-5.77928e-05
0.00795303
-5.35912e-05
0.00796409
-4.39149e-05
0.00797467
-4.06445e-05
0.00798279
-2.89737e-05
0.00799111
-2.64336e-05
0.00799658
-1.10216e-05
0.00800296
-8.34475e-06
0.00800588
1.20153e-05
0.00801077
1.27404e-05
0.00801142
3.6134e-05
0.00801546
3.00413e-05
0.00801416
5.3262e-05
0.00801837
3.37936e-05
0.0080159
5.28259e-05
0.0080219
1.14869e-05
0.00802013
1.70605e-05
0.00803092
-5.88533e-05
0.00803279
-7.53769e-05
0.0080509
-0.000186073
0.00805696
-0.0002134
0.00807867
-0.000316554
0.00807914
-0.00026146
0.00808376
-0.000200071
0.0080534
4.28992e-05
0.00799727
0.000314066
0.00788892
0.000598135
0.00765271
0.00115526
0.00728755
0.00142948
0.00732996
-0.00018007
0.00756631
-0.00103888
0.00772225
-0.000656032
0.00779956
-0.000279173
0.00785192
-6.28304e-05
0.00785774
0.000167533
0.00786436
0.000221448
0.00785118
0.00032795
0.0078503
0.000315772
0.00784039
0.0003425
0.00784311
0.00028911
0.0078401
0.00029597
0.00784664
0.000258781
0.00784823
0.000269935
0.00785585
0.000226867
0.00785868
0.000204404
0.00786467
0.000136496
0.007866
9.68104e-05
0.00786803
3.71805e-05
0.00786545
7.12945e-06
0.00786202
-3.01791e-05
0.0078545
-4.03118e-05
0.00784571
-5.02435e-05
0.00783399
-4.15093e-05
0.00782136
-3.44291e-05
0.00780729
-1.95567e-05
0.00779308
-7.06226e-06
0.0077787
8.26645e-06
0.00776466
2.17309e-05
0.00775137
3.2951e-05
0.00773851
4.10751e-05
0.00772686
4.07349e-05
0.00771543
3.49052e-05
0.00770541
1.5004e-05
0.00769536
-1.18861e-05
0.00768711
-5.79524e-05
0.00767877
-0.000109421
0.00767279
-0.000186261
0.00766737
-0.000262983
0.00766515
-0.000375097
0.00766519
-0.000471374
0.00766944
-0.000623015
0.00767906
-0.000720361
0.00769419
-0.000914551
0.0077184
-0.000970742
-0.00124979
0.00747459
0.000505946
0.00738318
0.000457238
0.00730109
0.000410392
0.00722983
0.00035524
0.00717597
0.000266531
0.00714976
0.000126798
0.00715943
-5.30591e-05
0.00720432
-0.000228662
0.00727479
-0.000355668
0.0073571
-0.000414133
0.00743912
-0.000412369
0.00751359
-0.000374372
0.00757799
-0.0003238
0.00763314
-0.000277262
0.00768076
-0.000239306
0.00772257
-0.000210007
0.00775937
-0.000184738
0.00779211
-0.000164305
0.00782102
-0.000144952
0.00784693
-0.000129857
0.00786982
-0.000114767
0.00789053
-0.000103917
0.00790866
-9.11234e-05
0.00792531
-8.37779e-05
0.00793961
-7.20919e-05
0.00795295
-6.69309e-05
0.007964
-5.49682e-05
0.00797459
-5.12309e-05
0.00798271
-3.7093e-05
0.00799102
-3.47528e-05
0.00799649
-1.64905e-05
0.00800287
-1.4726e-05
0.0080058
9.09207e-06
0.00801069
7.84532e-06
0.00801135
3.54804e-05
0.00801539
2.60015e-05
0.00801409
5.45553e-05
0.00801829
2.9592e-05
0.00801582
5.52975e-05
0.00802182
5.48661e-06
0.00802005
1.88325e-05
0.00803084
-6.96373e-05
0.0080327
-7.72419e-05
0.0080508
-0.000204177
0.00805686
-0.000219451
0.00807857
-0.000338272
0.00807905
-0.000261941
0.00808368
-0.0002047
0.00805334
7.32423e-05
0.00799723
0.000370179
0.00788888
0.000706483
0.00765269
0.00139145
0.00728756
0.00179462
0.00732997
-0.000222487
0.00756629
-0.0012752
0.0077222
-0.000811941
0.00779949
-0.000356465
0.00785186
-0.000115194
0.00785769
0.000161704
0.00786431
0.000214829
0.00785113
0.000341131
0.00785025
0.000316652
0.00784034
0.000352407
0.00784306
0.000286386
0.00784005
0.000298981
0.00784659
0.000252248
0.00784818
0.000268336
0.0078558
0.00021925
0.00785863
0.000201573
0.00786462
0.000130504
0.00786595
9.54864e-05
0.00786799
3.51443e-05
0.0078654
9.71693e-06
0.00786197
-2.67559e-05
0.00785445
-3.27904e-05
0.00784566
-4.14529e-05
0.00783394
-2.97915e-05
0.00782131
-2.17983e-05
0.00780725
-5.49688e-06
0.00779304
7.1527e-06
0.00777866
2.26442e-05
0.00776463
3.57664e-05
0.00775133
4.62488e-05
0.00773847
5.39331e-05
0.00772682
5.23843e-05
0.00771538
4.6345e-05
0.00770535
2.50323e-05
0.0076953
-1.83281e-06
0.00768703
-4.96878e-05
0.00767868
-0.00010107
0.00767268
-0.000180263
0.00766725
-0.00025755
0.00766501
-0.000372861
0.00766504
-0.000471401
0.00766928
-0.000627251
0.00767889
-0.000729977
0.00769401
-0.000929672
0.00771824
-0.000994965
-0.00128576
0.00747459
0.000607115
0.00738319
0.00054864
0.0073011
0.000492479
0.00722984
0.000426503
0.00717598
0.000320389
0.00714976
0.000153014
0.00715941
-6.2705e-05
0.00720427
-0.000273525
0.00727472
-0.000426112
0.007357
-0.00049642
0.00743902
-0.000494388
0.00751349
-0.00044884
0.00757789
-0.000388198
0.00763304
-0.00033241
0.00768065
-0.000286922
0.00772246
-0.000251818
0.00775926
-0.000221535
0.00779201
-0.000197053
0.00782091
-0.000173854
0.00784682
-0.000155765
0.00786971
-0.000137657
0.00789043
-0.000124633
0.00790855
-0.00010925
0.0079252
-0.000100428
0.0079395
-8.63915e-05
0.00795284
-8.02711e-05
0.00796389
-6.6022e-05
0.00797448
-6.18179e-05
0.0079826
-4.52132e-05
0.00799092
-4.30728e-05
0.00799639
-2.19607e-05
0.00800278
-2.11089e-05
0.0080057
6.16656e-06
0.0080106
2.9476e-06
0.00801125
3.48244e-05
0.0080153
2.19601e-05
0.008014
5.58484e-05
0.0080182
2.53916e-05
0.00801573
5.77719e-05
0.00802173
-5.09645e-07
0.00801995
2.06104e-05
0.00803073
-8.04149e-05
0.00803258
-7.91e-05
0.00805068
-0.000222276
0.00805673
-0.000225501
0.00807845
-0.000359994
0.00807895
-0.000262432
0.00808359
-0.000209345
0.00805326
0.000103572
0.00799716
0.000426276
0.00788883
0.000814819
0.00765266
0.00162762
0.00728757
0.0021597
0.00732999
-0.000264906
0.00756627
-0.00151148
0.00772215
-0.000967817
0.00779942
-0.000433737
0.00785179
-0.00016756
0.00785762
0.00015587
0.00786424
0.000208209
0.00785106
0.000354313
0.00785018
0.000317529
0.00784028
0.000362311
0.007843
0.00028366
0.00783999
0.000301992
0.00784652
0.000245714
0.00784813
0.000266735
0.00785575
0.000211631
0.00785858
0.000198741
0.00786457
0.000124513
0.00786589
9.41632e-05
0.00786793
3.31087e-05
0.00786534
1.23045e-05
0.00786192
-2.33328e-05
0.0078544
-2.52699e-05
0.00784561
-3.2664e-05
0.00783389
-1.80757e-05
0.00782126
-9.16954e-06
0.00780721
8.56154e-06
0.00779299
2.1367e-05
0.00777861
3.70221e-05
0.00776458
4.98026e-05
0.00775128
5.95475e-05
0.00773842
6.67926e-05
0.00772677
6.4036e-05
0.00771532
5.77889e-05
0.00770529
3.50668e-05
0.00769523
8.22927e-06
0.00768695
-4.14116e-05
0.00767858
-9.27059e-05
0.00767257
-0.000174248
0.00766712
-0.000252099
0.00766486
-0.000370606
0.00766488
-0.000471412
0.0076691
-0.000631472
0.00767871
-0.000739587
0.00769382
-0.000944788
0.00771806
-0.0010192
-0.00132176
0.00747459
0.000708282
0.00738319
0.000640039
0.00730111
0.000574562
0.00722985
0.000497762
0.00717599
0.000374246
0.00714977
0.000179239
0.00715939
-7.23282e-05
0.00720422
-0.000318356
0.00727464
-0.000496526
0.0073569
-0.000578688
0.00743892
-0.000576398
0.00751338
-0.000523306
0.00757778
-0.000452595
0.00763292
-0.000387557
0.00768054
-0.000334535
0.00772235
-0.000293626
0.00775914
-0.00025833
0.00779189
-0.000229799
0.00782079
-0.000202756
0.0078467
-0.000181672
0.00786958
-0.000160546
0.0078903
-0.00014535
0.00790843
-0.000127376
0.00792508
-0.000117077
0.00793938
-0.000100691
0.00795272
-9.36117e-05
0.00796377
-7.70763e-05
0.00797436
-7.24055e-05
0.00798248
-5.3334e-05
0.0079908
-5.13937e-05
0.00799627
-2.7432e-05
0.00800266
-2.74936e-05
0.00800559
3.23883e-06
0.00801049
-1.95268e-06
0.00801114
3.41661e-05
0.00801519
1.79173e-05
0.00801389
5.71415e-05
0.00801809
2.11925e-05
0.00801562
6.02495e-05
0.00802161
-6.5013e-06
0.00801982
2.23948e-05
0.00803059
-9.11856e-05
0.00803244
-8.09505e-05
0.00805054
-0.00024037
0.00805659
-0.000231549
0.00807831
-0.000381722
0.00807882
-0.000262934
0.00808348
-0.000214008
0.00805316
0.000133887
0.00799709
0.000482351
0.00788877
0.000923139
0.00765263
0.00186376
0.00728759
0.00252474
0.00733001
-0.000307326
0.00756625
-0.00174772
0.00772209
-0.00112366
0.00779934
-0.000510986
0.0078517
-0.000219925
0.00785754
0.000150032
0.00786416
0.00020159
0.00785098
0.000367497
0.0078501
0.000318403
0.0078402
0.00037221
0.00784293
0.000280933
0.00783992
0.000305003
0.00784645
0.00023918
0.00784806
0.000265131
0.00785568
0.000204008
0.00785851
0.000195907
0.00786451
0.000118521
0.00786583
9.28402e-05
0.00786787
3.10733e-05
0.00786528
1.48923e-05
0.00786185
-1.99101e-05
0.00785434
-1.77502e-05
0.00784555
-2.38766e-05
0.00783383
-6.36173e-06
0.00782121
3.45767e-06
0.00780715
2.26189e-05
0.00779293
3.55812e-05
0.00777856
5.14004e-05
0.00776452
6.38397e-05
0.00775122
7.28475e-05
0.00773836
7.96537e-05
0.0077267
7.56903e-05
0.00771526
6.92369e-05
0.00770521
4.51076e-05
0.00769514
1.83002e-05
0.00768686
-3.31237e-05
0.00767848
-8.4327e-05
0.00767244
-0.000168217
0.00766698
-0.000246631
0.0076647
-0.000368333
0.0076647
-0.000471407
0.0076689
-0.000635677
0.0076785
-0.000749189
0.00769362
-0.000959899
0.00771786
-0.00104345
-0.00135777
0.00747459
0.000809447
0.0073832
0.000731434
0.00730112
0.000656641
0.00722986
0.000569017
0.00717601
0.000428101
0.00714977
0.000205473
0.00715937
-8.19274e-05
0.00720417
-0.000363153
0.00727455
-0.000566909
0.0073568
-0.000660935
0.0074388
-0.000658398
0.00751326
-0.000597767
0.00757766
-0.00051699
0.0076328
-0.0004427
0.00768041
-0.000382145
0.00772221
-0.000335431
0.00775901
-0.000295122
0.00779175
-0.000262543
0.00782065
-0.000231655
0.00784656
-0.000207578
0.00786944
-0.000183435
0.00789016
-0.000166066
0.00790829
-0.000145502
0.00792494
-0.000133727
0.00793924
-0.000114991
0.00795258
-0.000106953
0.00796363
-8.81308e-05
0.00797422
-8.29935e-05
0.00798234
-6.14553e-05
0.00799066
-5.97154e-05
0.00799614
-3.29044e-05
0.00800252
-3.38798e-05
0.00800545
3.09013e-07
0.00801035
-6.85542e-06
0.00801102
3.35058e-05
0.00801506
1.38731e-05
0.00801377
5.8435e-05
0.00801796
1.69952e-05
0.00801548
6.27309e-05
0.00802147
-1.24879e-05
0.00801968
2.41866e-05
0.00803044
-0.000101949
0.00803228
-8.27928e-05
0.00805037
-0.000258459
0.00805642
-0.000237594
0.00807815
-0.000403456
0.00807866
-0.000263447
0.00808335
-0.00021869
0.00805305
0.000164184
0.007997
0.000538403
0.0078887
0.00103144
0.00765259
0.00209986
0.00728761
0.00288973
0.00733003
-0.000349747
0.00756622
-0.00198392
0.00772202
-0.00127946
0.00779925
-0.000588209
0.00785161
-0.000272289
0.00785745
0.000144192
0.00786407
0.000194971
0.00785088
0.000380682
0.00785001
0.000319275
0.00784012
0.000382105
0.00784285
0.000278202
0.00783984
0.000308013
0.00784637
0.000232645
0.00784798
0.000263525
0.00785561
0.000196381
0.00785844
0.000193071
0.00786444
0.000112528
0.00786576
9.15173e-05
0.00786779
2.9038e-05
0.00786521
1.748e-05
0.00786178
-1.64875e-05
0.00785427
-1.02313e-05
0.00784548
-1.50904e-05
0.00783377
5.35068e-06
0.00782114
1.60836e-05
0.00780708
3.66756e-05
0.00779287
4.97953e-05
0.00777849
6.57793e-05
0.00776445
7.78779e-05
0.00775115
8.61488e-05
0.00773829
9.25165e-05
0.00772663
8.73472e-05
0.00771518
8.0689e-05
0.00770513
5.51547e-05
0.00769505
2.83801e-05
0.00768675
-2.4824e-05
0.00767836
-7.59336e-05
0.00767231
-0.000162168
0.00766682
-0.000241145
0.00766453
-0.000366039
0.00766451
-0.000471384
0.00766869
-0.000639864
0.00767829
-0.000758783
0.00769339
-0.000975003
0.00771765
-0.00106771
-0.00139381
0.00747459
0.000910611
0.0073832
0.000822826
0.00730113
0.000738715
0.00722988
0.000640267
0.00717603
0.000481954
0.00714978
0.000231714
0.00715936
-9.15019e-05
0.00720412
-0.000407913
0.00727447
-0.000637257
0.00735669
-0.000743157
0.00743868
-0.000740386
0.00751313
-0.000672223
0.00757752
-0.000581381
0.00763266
-0.000497839
0.00768027
-0.00042975
0.00772207
-0.000377231
0.00775886
-0.00033191
0.0077916
-0.000295284
0.0078205
-0.000260553
0.0078464
-0.000233483
0.00786929
-0.000206322
0.00789
-0.000186782
0.00790813
-0.000163628
0.00792478
-0.000150377
0.00793908
-0.000129291
0.00795242
-0.000120293
0.00796347
-9.91856e-05
0.00797406
-9.35818e-05
0.00798218
-6.9577e-05
0.00799051
-6.80378e-05
0.00799598
-3.83778e-05
0.00800237
-4.02675e-05
0.0080053
-2.62276e-06
0.00801021
-1.17605e-05
0.00801087
3.28434e-05
0.00801491
9.82787e-06
0.00801362
5.9729e-05
0.00801781
1.27999e-05
0.00801533
6.52165e-05
0.00802131
-1.8469e-05
0.00801951
2.59862e-05
0.00803026
-0.000112704
0.0080321
-8.46261e-05
0.00805018
-0.000276543
0.00805623
-0.000243637
0.00807797
-0.000425197
0.00807849
-0.000263971
0.00808319
-0.000223393
0.00805292
0.000194463
0.00799689
0.000594428
0.00788862
0.00113971
0.00765255
0.00233592
0.00728763
0.00325465
0.00733005
-0.000392166
0.0075662
-0.00222006
0.00772195
-0.00143522
0.00779915
-0.000665401
0.00785151
-0.000324649
0.00785735
0.000138352
0.00786396
0.000188354
0.00785078
0.000393869
0.00784991
0.000320142
0.00784002
0.000391994
0.00784275
0.000275468
0.00783974
0.000311023
0.00784628
0.000226108
0.00784789
0.000261915
0.00785552
0.00018875
0.00785836
0.000190231
0.00786436
0.000106534
0.00786568
9.0194e-05
0.00786772
2.70026e-05
0.00786513
2.00678e-05
0.00786171
-1.30651e-05
0.00785419
-2.713e-06
0.0078454
-6.30529e-06
0.00783369
1.70619e-05
0.00782107
2.87086e-05
0.00780701
5.0732e-05
0.0077928
6.40099e-05
0.00777842
8.01592e-05
0.00776438
9.19173e-05
0.00775107
9.94514e-05
0.00773821
0.000105381
0.00772655
9.90066e-05
0.00771509
9.21453e-05
0.00770504
6.52082e-05
0.00769495
3.84691e-05
0.00768664
-1.65121e-05
0.00767823
-6.75253e-05
0.00767216
-0.000156102
0.00766666
-0.000235639
0.00766434
-0.000363725
0.0076643
-0.000471344
0.00766847
-0.000644032
0.00767805
-0.000768367
0.00769315
-0.000990099
0.00771742
-0.00109197
-0.00142987
0.0074746
0.00101177
0.00738321
0.000914213
0.00730114
0.000820784
0.0072299
0.000711511
0.00717605
0.000535802
0.0071498
0.000257963
0.00715935
-0.000101051
0.00720407
-0.000452635
0.00727438
-0.000707566
0.00735657
-0.000825353
0.00743855
-0.000822359
0.007513
-0.000746672
0.00757738
-0.000645766
0.00763251
-0.000552973
0.00768011
-0.000477349
0.00772191
-0.000419027
0.00775869
-0.000368694
0.00779143
-0.000328022
0.00782033
-0.000289448
0.00784623
-0.000259385
0.00786911
-0.000229208
0.00788983
-0.000207496
0.00790795
-0.000181753
0.0079246
-0.000167026
0.0079389
-0.000143591
0.00795224
-0.000133634
0.0079633
-0.00011024
0.00797389
-0.00010417
0.00798201
-7.76991e-05
0.00799033
-7.63607e-05
0.00799581
-4.38521e-05
0.0080022
-4.66567e-05
0.00800513
-5.55634e-06
0.00801004
-1.66679e-05
0.0080107
3.21795e-05
0.00801475
5.78166e-06
0.00801345
6.10241e-05
0.00801764
8.60681e-06
0.00801515
6.77069e-05
0.00802113
-2.44442e-05
0.00801932
2.77945e-05
0.00803007
-0.00012345
0.00803189
-8.64498e-05
0.00804997
-0.000294621
0.00805601
-0.000249678
0.00807776
-0.000446944
0.0080783
-0.000264509
0.00808302
-0.000228119
0.00805276
0.000224721
0.00799677
0.000650421
0.00788853
0.00124796
0.00765251
0.00257194
0.00728766
0.00361949
0.00733008
-0.000434583
0.00756617
-0.00245614
0.00772188
-0.00159093
0.00779904
-0.00074256
0.00785139
-0.000377002
0.00785723
0.000132512
0.00786385
0.000181739
0.00785066
0.000407057
0.00784979
0.000321005
0.00783991
0.000401878
0.00784265
0.00027273
0.00783964
0.000314031
0.00784618
0.00021957
0.00784779
0.000260301
0.00785543
0.000181114
0.00785827
0.000187388
0.00786427
0.000100538
0.00786559
8.88701e-05
0.00786763
2.49669e-05
0.00786504
2.26556e-05
0.00786162
-9.64293e-06
0.0078541
4.80478e-06
0.00784532
2.4789e-06
0.00783361
2.8772e-05
0.00782098
4.13329e-05
0.00780693
6.47885e-05
0.00779271
7.82252e-05
0.00777833
9.45403e-05
0.00776429
0.000105958
0.00775099
0.000112756
0.00773812
0.000118247
0.00772646
0.000110669
0.007715
0.000103606
0.00770494
7.52682e-05
0.00769484
4.85672e-05
0.00768651
-8.1881e-06
0.00767809
-5.91018e-05
0.00767201
-0.000150018
0.00766648
-0.000230114
0.00766414
-0.000361389
0.00766408
-0.000471283
0.00766823
-0.00064818
0.0076778
-0.000777938
0.00769289
-0.00100518
0.00771716
-0.00111625
-0.00146595
0.0074746
0.00111293
0.00738321
0.0010056
0.00730115
0.000902846
0.00722992
0.000782748
0.00717607
0.000589645
0.00714982
0.000284218
0.00715934
-0.000110572
0.00720402
-0.000497314
0.00727429
-0.000777834
0.00735645
-0.000907519
0.00743841
-0.000904317
0.00751285
-0.000821112
0.00757723
-0.000710146
0.00763236
-0.0006081
0.00767995
-0.000524941
0.00772174
-0.000460815
0.00775852
-0.000405472
0.00779125
-0.000360755
0.00782014
-0.000318339
0.00784604
-0.000285285
0.00786892
-0.000252092
0.00788964
-0.000228209
0.00790776
-0.000199877
0.00792441
-0.000183675
0.00793871
-0.00015789
0.00795205
-0.000146975
0.0079631
-0.000121295
0.00797369
-0.000114759
0.00798182
-8.58214e-05
0.00799014
-8.46842e-05
0.00799561
-4.93271e-05
0.008002
-5.30472e-05
0.00800494
-8.49165e-06
0.00800985
-2.15774e-05
0.00801051
3.15139e-05
0.00801456
1.73469e-06
0.00801327
6.23203e-05
0.00801746
4.41637e-06
0.00801496
7.02025e-05
0.00802093
-3.04129e-05
0.00801911
2.96119e-05
0.00802985
-0.000134188
0.00803166
-8.82633e-05
0.00804973
-0.000312694
0.00805577
-0.000255717
0.00807753
-0.000468699
0.00807808
-0.00026506
0.00808283
-0.00023287
0.00805259
0.000254956
0.00799664
0.00070638
0.00788843
0.00135617
0.00765247
0.0028079
0.0072877
0.00398427
0.00733011
-0.000476996
0.00756613
-0.00269217
0.0077218
-0.00174659
0.00779892
-0.000819683
0.00785127
-0.000429347
0.0078571
0.000126675
0.00786371
0.000175127
0.00785052
0.000420246
0.00784967
0.000321862
0.00783979
0.000411754
0.00784253
0.000269987
0.00783953
0.000317037
0.00784607
0.000213029
0.00784769
0.000258683
0.00785533
0.000173472
0.00785818
0.000184541
0.00786417
9.45393e-05
0.0078655
8.75451e-05
0.00786754
2.29308e-05
0.00786495
2.52432e-05
0.00786153
-6.22083e-06
0.00785401
1.23222e-05
0.00784523
1.12623e-05
0.00783352
4.04814e-05
0.00782089
5.3957e-05
0.00780684
7.88453e-05
0.00779262
9.24414e-05
0.00777824
0.000108923
0.00776419
0.000120001
0.00775089
0.000126061
0.00773802
0.000131115
0.00772635
0.000122333
0.00771489
0.00011507
0.00770482
8.53346e-05
0.00769472
5.86746e-05
0.00768638
1.48335e-07
0.00767794
-5.06628e-05
0.00767184
-0.000143915
0.00766629
-0.000224569
0.00766393
-0.000359031
0.00766385
-0.000471202
0.00766798
-0.000652307
0.00767754
-0.000787497
0.00769261
-0.00102026
0.00771689
-0.00114053
-0.00150205
0.0074746
0.00121409
0.00738322
0.00109697
0.00730117
0.000984902
0.00722994
0.000853978
0.0071761
0.000643482
0.00714984
0.000310479
0.00715933
-0.000120066
0.00720397
-0.000541948
0.00727419
-0.000848056
0.00735632
-0.000989653
0.00743826
-0.000986256
0.00751269
-0.000895543
0.00757707
-0.000774518
0.00763218
-0.000663219
0.00767977
-0.000572525
0.00772155
-0.000502597
0.00775832
-0.000442244
0.00779105
-0.000393484
0.00781994
-0.000347226
0.00784584
-0.000311182
0.00786872
-0.000274974
0.00788943
-0.000248921
0.00790755
-0.000218
0.0079242
-0.000200323
0.0079385
-0.000172189
0.00795184
-0.000160315
0.00796289
-0.000132349
0.00797348
-0.000125347
0.0079816
-9.39437e-05
0.00798993
-9.30081e-05
0.0079954
-5.48026e-05
0.00800179
-5.9439e-05
0.00800473
-1.14285e-05
0.00800964
-2.6489e-05
0.00801031
3.0847e-05
0.00801436
-2.31288e-06
0.00801306
6.3618e-05
0.00801725
2.2883e-07
0.00801475
7.27037e-05
0.00802071
-3.63747e-05
0.00801888
3.14394e-05
0.00802961
-0.000144915
0.00803141
-9.00659e-05
0.00804948
-0.00033076
0.00805551
-0.000261753
0.00807728
-0.000490462
0.00807784
-0.000265625
0.00808262
-0.000237646
0.00805241
0.000285167
0.00799649
0.000762301
0.00788832
0.00146434
0.00765242
0.00304379
0.00728773
0.00434895
0.00733014
-0.000519405
0.0075661
-0.00292812
0.00772171
-0.00190221
0.00779879
-0.000896766
0.00785113
-0.00048168
0.00785696
0.000120842
0.00786357
0.000168518
0.00785038
0.000433438
0.00784953
0.000322715
0.00783966
0.000421623
0.00784241
0.000267239
0.0078394
0.000320041
0.00784595
0.000206485
0.00784757
0.00025706
0.00785522
0.000165824
0.00785807
0.000181689
0.00786407
8.85377e-05
0.0078654
8.62187e-05
0.00786744
2.08939e-05
0.00786485
2.78308e-05
0.00786143
-2.79877e-06
0.00785391
1.98393e-05
0.00784513
2.00452e-05
0.00783342
5.21903e-05
0.00782079
6.6581e-05
0.00780674
9.29028e-05
0.00779252
0.000106659
0.00777813
0.000123307
0.00776409
0.000134045
0.00775078
0.000139369
0.00773791
0.000143985
0.00772624
0.000134001
0.00771477
0.000126539
0.0077047
9.54075e-05
0.00769458
6.87914e-05
0.00768624
8.49727e-06
0.00767778
-4.22079e-05
0.00767166
-0.000137794
0.00766609
-0.000219003
0.00766371
-0.00035665
0.00766361
-0.000471099
0.00766771
-0.000656413
0.00767726
-0.000797041
0.00769232
-0.00103532
0.0077166
-0.00116481
-0.00153817
0.0074746
0.00131525
0.00738323
0.00118835
0.00730118
0.00106695
0.00722996
0.000925199
0.00717613
0.000697312
0.00714986
0.000336746
0.00715933
-0.000129531
0.00720392
-0.000586535
0.00727409
-0.000918231
0.00735619
-0.00107175
0.00743811
-0.00106818
0.00751253
-0.000969963
0.00757689
-0.000838881
0.007632
-0.000718329
0.00767958
-0.0006201
0.00772135
-0.000544369
0.00775812
-0.00047901
0.00779084
-0.000426207
0.00781972
-0.000376109
0.00784561
-0.000337075
0.00786849
-0.000297853
0.0078892
-0.00026963
0.00790732
-0.000236121
0.00792397
-0.000216969
0.00793827
-0.000186487
0.00795161
-0.000173655
0.00796266
-0.000143403
0.00797325
-0.000135936
0.00798137
-0.000102066
0.0079897
-0.000101332
0.00799517
-6.02788e-05
0.00800157
-6.58319e-05
0.0080045
-1.43669e-05
0.00800942
-3.14024e-05
0.00801009
3.0179e-05
0.00801413
-6.36087e-06
0.00801283
6.49176e-05
0.00801702
-3.95555e-06
0.00801451
7.52111e-05
0.00802047
-4.23291e-05
0.00801863
3.32774e-05
0.00802935
-0.000155632
0.00803114
-9.1857e-05
0.0080492
-0.000348819
0.00805523
-0.000267786
0.008077
-0.000512233
0.00807758
-0.000266206
0.00808239
-0.000242451
0.0080522
0.000315352
0.00799632
0.000818181
0.0078882
0.00157246
0.00765237
0.00327962
0.00728777
0.00471355
0.00733018
-0.000561808
0.00756606
-0.00316401
0.00772162
-0.00205777
0.00779866
-0.000973806
0.00785098
-0.000534001
0.00785681
0.000115014
0.00786341
0.000161914
0.00785022
0.000446631
0.00784937
0.000323561
0.00783951
0.000431484
0.00784227
0.000264484
0.00783927
0.000323042
0.00784581
0.000199937
0.00784744
0.000255431
0.0078551
0.000158169
0.00785796
0.000178831
0.00786396
8.25327e-05
0.00786529
8.48907e-05
0.00786733
1.88562e-05
0.00786474
3.04181e-05
0.00786132
6.23225e-07
0.0078538
2.73562e-05
0.00784502
2.88277e-05
0.00783331
6.38991e-05
0.00782068
7.92054e-05
0.00780663
0.000106961
0.00779241
0.000120878
0.00777802
0.000137693
0.00776397
0.000148091
0.00775066
0.000152679
0.00773779
0.000156857
0.00772612
0.000145671
0.00771465
0.000138012
0.00770457
0.000105487
0.00769444
7.89177e-05
0.00768608
1.68589e-05
0.00767761
-3.3737e-05
0.00767147
-0.000131653
0.00766588
-0.000213414
0.00766348
-0.000354246
0.00766335
-0.000470973
0.00766743
-0.000660495
0.00767696
-0.000806569
0.00769201
-0.00105037
0.0077163
-0.0011891
-0.0015743
0.0074746
0.0014164
0.00738324
0.00127971
0.0073012
0.00114899
0.00722999
0.00099641
0.00717617
0.000751132
0.00714989
0.000363017
0.00715933
-0.000138965
0.00720387
-0.000631071
0.00727399
-0.000988354
0.00735605
-0.00115381
0.00743795
-0.00115007
0.00751236
-0.00104437
0.00757671
-0.000903234
0.00763181
-0.000773428
0.00767937
-0.000667664
0.00772114
-0.000586133
0.00775789
-0.000515767
0.00779061
-0.000458923
0.00781949
-0.000404987
0.00784538
-0.000362965
0.00786825
-0.000320729
0.00788896
-0.000290337
0.00790708
-0.000254241
0.00792372
-0.000233615
0.00793802
-0.000200784
0.00795136
-0.000186994
0.00796241
-0.000154456
0.007973
-0.000146524
0.00798112
-0.000110188
0.00798945
-0.000109657
0.00799493
-6.57554e-05
0.00800132
-7.22259e-05
0.00800426
-1.73065e-05
0.00800917
-3.63177e-05
0.00800984
2.951e-05
0.00801389
-1.04091e-05
0.00801259
6.62193e-05
0.00801677
-8.1364e-06
0.00801426
7.77251e-05
0.0080202
-4.82757e-05
0.00801835
3.51267e-05
0.00802906
-0.000166339
0.00803084
-9.3636e-05
0.00804889
-0.000366872
0.00805492
-0.000273816
0.0080767
-0.000534014
0.0080773
-0.000266802
0.00808213
-0.000247285
0.00805198
0.000345508
0.00799614
0.000874016
0.00788807
0.00168054
0.00765231
0.00351537
0.00728782
0.00507804
0.00733021
-0.000604204
0.00756602
-0.00339982
0.00772153
-0.00221327
0.00779852
-0.0010508
0.00785082
-0.000586307
0.00785665
0.000109194
0.00786324
0.000155314
0.00785005
0.000459826
0.00784921
0.000324401
0.00783936
0.000441337
0.00784212
0.000261724
0.00783912
0.00032604
0.00784567
0.000193385
0.00784731
0.000253797