/*--------------------------------*- C++ -*----------------------------------*\
| =========                 |                                                 |
| \\      /  F ield         | OpenFOAM: The Open Source CFD Toolbox           |
|  \\    /   O peration     | Version:  2412                                  |
|   \\  /    A nd           | Website:  www.openfoam.com                      |
|    \\/     M anipulation  |                                                 |
\*---------------------------------------------------------------------------*/
FoamFile
{
    version     2.0;
    format      ascii;
    arch        "LSB;label=32;scalar=64";
    class       volVectorField;
    location    "0.6";
    object      U;
}
// * * * * * * * * * * * * * * * * * * * * * * * * * * * * * * * * * * * * * //

dimensions      [0 1 -1 0 0 0 0];

internalField   nonuniform List<vector> 
13068
(
(100.007 -0.00552524 0)
(100.144 -0.0157463 -7.09029e-19)
(100.439 -0.0259297 -3.43429e-19)
(100.857 -0.0382758 0)
(101.49 -0.0577911 0)
(102.447 -0.0877597 0)
(103.942 -0.125826 -8.08644e-19)
(106.043 -0.163291 5.21262e-19)
(108.721 -0.19164 0)
(111.769 -0.206866 5.18957e-19)
(115.024 -0.210539 -2.6327e-19)
(118.295 -0.207081 -2.66699e-19)
(121.562 -0.201143 -5.36348e-19)
(124.755 -0.195905 0)
(127.979 -0.19242 0)
(131.174 -0.190692 0)
(134.476 -0.189992 0)
(137.766 -0.190226 -4.85928e-19)
(141.224 -0.190938 -2.35971e-19)
(144.667 -0.192499 2.28568e-19)
(148.346 -0.194395 6.65292e-19)
(151.993 -0.197186 -6.43219e-19)
(155.964 -0.200082 2.07849e-19)
(159.867 -0.203897 0)
(164.204 -0.207462 1.94071e-19)
(168.413 -0.211988 -3.72909e-19)
(173.206 -0.215794 -1.8031e-19)
(177.774 -0.220669 -3.44759e-19)
(183.128 -0.224209 -3.32987e-19)
(188.112 -0.228986 3.16215e-19)
(194.162 -0.231614 -1.52579e-19)
(199.629 -0.23584 -1.4358e-19)
(206.548 -0.237352 0)
(212.574 -0.241873 0)
(220.593 -0.244083 2.48727e-19)
(227.275 -0.251751 -1.13484e-19)
(236.707 -0.25777 0)
(244.171 -0.271879 2.93587e-19)
(255.45 -0.28549 1.91677e-19)
(263.882 -0.310632 2.45586e-19)
(277.627 -0.338399 -2.45163e-19)
(287.335 -0.381669 -6.55943e-20)
(304.446 -0.430666 0)
(315.922 -0.493744 0)
(337.6 -0.56131 -1.10643e-19)
(351.471 -0.62357 0)
(378.991 -0.659171 -1.29989e-19)
(395.742 -0.634196 -1.48512e-20)
(429.832 -0.575323 0)
(449.782 -0.464002 0)
(489.413 -0.414097 -3.95298e-20)
(512.445 -0.286229 0)
(546.204 -0.409301 1.03239e-20)
(568.025 -0.000634595 1.43899e-20)
(545.659 0.132886 1.12538e-20)
(537.68 0.264759 0)
(505.905 0.354709 0)
(491.963 0.443693 -6.00261e-20)
(462.049 0.493719 1.03198e-20)
(446.694 0.517692 -6.50284e-21)
(421.265 0.534103 0)
(407.171 0.534853 -1.8499e-20)
(386.52 0.520785 -2.47353e-20)
(374.138 0.496539 0)
(357.416 0.478105 0)
(346.514 0.460565 9.10662e-20)
(332.758 0.448627 0)
(323.018 0.422457 0)
(311.44 0.39055 0)
(302.615 0.344357 1.02762e-19)
(292.639 0.302784 -1.17402e-19)
(284.545 0.258525 1.83095e-19)
(275.748 0.224268 0)
(268.253 0.192506 0)
(260.352 0.172811 1.51799e-19)
(253.389 0.158617 -1.58963e-19)
(246.222 0.153723 8.46478e-20)
(239.782 0.151564 0)
(233.265 0.153684 1.86727e-19)
(227.36 0.156796 9.74126e-20)
(221.435 0.161715 -2.03567e-19)
(216.07 0.166693 0)
(210.679 0.170833 1.0981e-19)
(205.838 0.172916 -3.41811e-19)
(200.907 0.170665 0)
(196.562 0.163685 3.66028e-19)
(192.007 0.149268 -3.76506e-19)
(188.131 0.128621 -2.6076e-19)
(183.868 0.0980653 0)
(180.452 0.0616178 0)
(176.412 0.0121065 -4.27338e-19)
(173.474 -0.039355 1.4915e-19)
(169.608 -0.110339 0)
(167.198 -0.171359 1.60075e-19)
(163.481 -0.266377 -1.62111e-19)
(161.681 -0.322496 5.16712e-19)
(158.112 -0.442978 3.45911e-19)
(157.043 -0.465676 -1.85201e-19)
(153.601 -0.631218 0)
(100.007 -0.00924985 0)
(100.144 -0.0263324 2.12694e-18)
(100.439 -0.0431825 0)
(100.858 -0.0633079 0)
(101.49 -0.0951089 -1.224e-18)
(102.447 -0.14443 0)
(103.942 -0.207691 5.39088e-19)
(106.042 -0.270375 -5.21246e-19)
(108.721 -0.318002 0)
(111.768 -0.343659 -5.18928e-19)
(115.024 -0.349919 0)
(118.295 -0.344235 0)
(121.561 -0.33443 5.36323e-19)
(124.755 -0.325832 0)
(127.979 -0.320157 0)
(131.173 -0.317399 0)
(134.475 -0.31632 0)
(137.766 -0.316792 4.85917e-19)
(141.223 -0.318033 0)
(144.666 -0.320687 -4.57127e-19)
(148.345 -0.323846 -4.43519e-19)
(151.992 -0.328491 4.28804e-19)
(155.963 -0.333246 8.31382e-19)
(159.866 -0.339588 0)
(164.203 -0.345501 3.88135e-19)
(168.412 -0.353206 3.72902e-19)
(173.205 -0.359785 3.60613e-19)
(177.773 -0.368534 1.03426e-18)
(183.127 -0.375237 9.98947e-19)
(188.111 -0.384686 3.16211e-19)
(194.161 -0.390854 0)
(199.627 -0.400718 0)
(206.547 -0.406149 0)
(212.573 -0.41753 5.14862e-19)
(220.592 -0.424087 2.48724e-19)
(227.274 -0.440205 -4.5393e-19)
(236.706 -0.45109 0)
(244.17 -0.47574 -1.95723e-19)
(255.449 -0.495015 -1.91674e-19)
(263.881 -0.533597 -1.63722e-19)
(277.626 -0.568474 1.63439e-19)
(287.333 -0.629098 1.31186e-19)
(304.444 -0.687392 -2.72399e-19)
(315.92 -0.77202 0)
(337.598 -0.850765 -1.1064e-19)
(351.469 -0.936339 1.30228e-19)
(378.989 -0.982234 8.66577e-20)
(395.74 -0.975519 0)
(429.831 -0.923624 -1.25687e-19)
(449.781 -0.813511 -1.9215e-20)
(489.412 -0.76411 3.95289e-20)
(512.443 -0.571546 0)
(546.203 -0.668111 -6.19337e-20)
(568.026 0.00341556 9.5927e-21)
(545.659 0.261944 -1.28079e-24)
(537.678 0.455238 -8.96434e-20)
(505.901 0.578094 0)
(491.96 0.675804 4.0016e-20)
(462.046 0.739977 0)
(446.692 0.755113 -1.30033e-20)
(421.263 0.770597 0)
(407.169 0.755766 1.23328e-20)
(386.518 0.736403 0)
(374.137 0.697232 0)
(357.415 0.673487 6.61704e-20)
(346.513 0.643825 -6.07105e-20)
(332.757 0.627664 8.3124e-20)
(323.017 0.592303 -8.24018e-20)
(311.439 0.557197 0)
(302.614 0.504213 -8.76864e-25)
(292.638 0.460275 1.17401e-19)
(284.544 0.411181 -2.44123e-19)
(275.747 0.375179 0)
(268.251 0.339904 1.40642e-19)
(260.35 0.318607 -1.51798e-19)
(253.388 0.301473 1.58963e-19)
(246.221 0.294611 1.69295e-19)
(239.781 0.28952 0)
(233.264 0.289074 -1.86727e-19)
(227.359 0.289099 1.94826e-19)
(221.435 0.290917 2.03567e-19)
(216.069 0.292767 0)
(210.678 0.293509 2.19619e-19)
(205.837 0.292684 2.27872e-19)
(200.906 0.286976 0)
(196.561 0.277506 -4.8803e-19)
(192.006 0.259661 5.02003e-19)
(188.13 0.236966 2.60757e-19)
(183.867 0.202935 2.6742e-19)
(180.45 0.16469 0)
(176.41 0.111456 2.84892e-19)
(173.472 0.0580352 2.98303e-19)
(169.606 -0.017125 0)
(167.195 -0.0809203 0)
(163.478 -0.180724 3.24238e-19)
(161.678 -0.241276 -6.88996e-19)
(158.109 -0.36727 -3.45941e-19)
(157.04 -0.396455 7.40878e-19)
(153.599 -0.57149 0)
(100.007 -0.0129749 0)
(100.144 -0.0369195 -2.83571e-18)
(100.439 -0.0604365 0)
(100.858 -0.0883407 0)
(101.49 -0.132425 1.22392e-18)
(102.447 -0.201094 0)
(103.942 -0.289544 -1.07816e-18)
(106.042 -0.377446 0)
(108.72 -0.444351 0)
(111.767 -0.480443 0)
(115.022 -0.489294 0)
(118.293 -0.481387 -1.06668e-18)
(121.56 -0.467716 -1.0726e-18)
(124.753 -0.455756 0)
(127.977 -0.447892 0)
(131.172 -0.444103 1.02722e-18)
(134.474 -0.442645 0)
(137.764 -0.443355 -9.71809e-19)
(141.222 -0.445126 0)
(144.664 -0.448874 9.14233e-19)
(148.343 -0.453295 8.87019e-19)
(151.991 -0.459794 0)
(155.961 -0.466408 5.10245e-25)
(159.864 -0.475276 0)
(164.202 -0.483537 5.35615e-25)
(168.411 -0.494421 0)
(173.203 -0.503773 -7.21214e-19)
(177.771 -0.516396 -6.89494e-19)
(183.125 -0.526262 -6.65952e-19)
(188.11 -0.540384 7.46523e-25)
(194.159 -0.550091 6.10297e-19)
(199.626 -0.565593 0)
(206.545 -0.574944 0)
(212.571 -0.593185 -5.14852e-19)
(220.59 -0.60409 5.11979e-25)
(227.272 -0.628657 4.53923e-19)
(236.705 -0.644408 0)
(244.169 -0.679597 0)
(255.447 -0.704535 3.83342e-19)
(263.879 -0.756556 3.27439e-19)
(277.624 -0.798541 -3.26872e-19)
(287.331 -0.876518 2.62366e-19)
(304.442 -0.944108 5.44784e-19)
(315.917 -1.05029 0)
(337.594 -1.14021 3.23786e-25)
(351.465 -1.2491 -1.30224e-19)
(378.986 -1.30529 0)
(395.737 -1.31684 0)
(429.828 -1.27193 1.25685e-19)
(449.778 -1.16302 1.92145e-20)
(489.411 -1.11412 0)
(512.441 -0.85686 0)
(546.203 -0.926934 8.25622e-20)
(568.028 0.00746389 9.9148e-25)
(545.659 0.391018 7.49482e-21)
(537.676 0.645732 -8.96426e-20)
(505.898 0.801482 0)
(491.957 0.907905 0)
(462.044 0.986224 0)
(446.69 0.992529 3.90063e-20)
(421.261 1.00709 0)
(407.167 0.976676 -2.46667e-20)
(386.516 0.952018 0)
(374.135 0.897922 0)
(357.413 0.868867 -6.61692e-20)
(346.511 0.827083 0)
(332.755 0.806699 -8.31241e-20)
(323.015 0.762147 8.24018e-20)
(311.438 0.723842 2.00423e-19)
(302.613 0.664069 -1.0276e-19)
(292.636 0.617767 -2.34795e-19)
(284.542 0.563837 3.66177e-19)
(275.745 0.526089 0)
(268.25 0.487303 -1.40641e-19)
(260.349 0.464401 3.03592e-19)
(253.386 0.444326 0)
(246.219 0.435495 -1.69295e-19)
(239.78 0.427474 0)
(233.263 0.424461 0)
(227.358 0.4214 -1.94826e-19)
(221.434 0.420118 0)
(216.068 0.41884 -4.23353e-19)
(210.678 0.416184 2.19618e-19)
(205.836 0.412452 0)
(200.906 0.403287 0)
(196.56 0.391328 2.4401e-19)
(192.005 0.370057 -7.52991e-19)
(188.128 0.345315 0)
(183.865 0.30781 2.67417e-19)
(180.449 0.26777 0)
(176.408 0.210815 -5.69782e-19)
(173.47 0.155434 2.98304e-19)
(169.603 0.0760983 0)
(167.192 0.00952527 0)
(163.475 -0.0950635 -3.24253e-19)
(161.675 -0.160057 3.4452e-19)
(158.106 -0.291562 0)
(157.037 -0.327247 3.70471e-19)
(153.597 -0.511782 0)
(100.007 -0.0167005 0)
(100.144 -0.0475079 2.83549e-18)
(100.439 -0.0776922 1.37341e-18)
(100.858 -0.113375 1.30769e-18)
(101.49 -0.16974 -1.22383e-18)
(102.447 -0.257752 0)
(103.942 -0.371385 2.15628e-18)
(106.041 -0.484499 1.04244e-18)
(108.719 -0.570686 0)
(111.766 -0.617217 0)
(115.021 -0.628665 -1.05291e-18)
(118.292 -0.618537 1.06663e-18)
(121.558 -0.601 1.07255e-18)
(124.752 -0.585679 0)
(127.976 -0.575624 1.0508e-18)
(131.171 -0.570805 -1.0272e-18)
(134.472 -0.568968 -1.0009e-18)
(137.763 -0.569916 9.71784e-19)
(141.22 -0.572216 0)
(144.663 -0.577057 -1.82842e-18)
(148.342 -0.582741 6.28457e-25)
(151.989 -0.591094 0)
(155.959 -0.599567 6.63968e-25)
(159.862 -0.610961 8.01646e-19)
(164.2 -0.62157 6.97363e-25)
(168.409 -0.635633 0)
(173.202 -0.647758 -7.26188e-25)
(177.769 -0.664255 0)
(183.123 -0.677285 0)
(188.108 -0.696078 9.73487e-25)
(194.157 -0.709325 -6.10284e-19)
(199.624 -0.730466 0)
(206.543 -0.743737 0)
(212.569 -0.768838 5.14844e-19)
(220.588 -0.78409 -9.94858e-19)
(227.27 -0.817105 -4.53917e-19)
(236.703 -0.837722 0)
(244.167 -0.883449 -3.91435e-19)
(255.445 -0.914049 -3.83335e-19)
(263.876 -0.979508 -6.54867e-19)
(277.621 -1.0286 -3.21764e-26)
(287.328 -1.12393 6.73555e-25)
(304.438 -1.20081 -2.72384e-19)
(315.913 -1.32854 1.96844e-19)
(337.59 -1.42965 4.42534e-19)
(351.461 -1.56186 -1.30222e-19)
(378.982 -1.62835 0)
(395.733 -1.65817 0)
(429.825 -1.62023 0)
(449.775 -1.51253 0)
(489.408 -1.46413 0)
(512.438 -1.14218 0)
(546.202 -1.18578 -4.12727e-20)
(568.03 0.0115091 -1.91783e-20)
(545.658 0.52011 -1.49908e-20)
(537.673 0.836242 1.79276e-19)
(505.893 1.02488 0)
(491.953 1.14 -8.00204e-20)
(462.04 1.23246 0)
(446.687 1.22994 -2.58184e-24)
(421.258 1.24358 -6.79318e-20)
(407.164 1.19758 2.46664e-20)
(386.514 1.16763 9.89363e-20)
(374.132 1.09861 7.44819e-20)
(357.41 1.06424 1.32334e-19)
(346.509 1.01034 1.21418e-19)
(332.753 0.98573 -1.66246e-19)
(323.013 0.931985 1.64801e-19)
(311.436 0.890484 -1.51175e-24)
(302.611 0.823921 0)
(292.634 0.775255 4.69583e-19)
(284.54 0.716489 -1.39033e-24)
(275.744 0.676995 0)
(268.248 0.634697 -2.81276e-19)
(260.347 0.610192 -3.03589e-19)
(253.385 0.587175 -3.17921e-19)
(246.218 0.576375 3.38588e-19)
(239.779 0.565424 3.54288e-19)
(233.261 0.559846 0)
(227.357 0.553699 0)
(221.433 0.549318 0)
(216.067 0.544913 -9.16239e-25)
(210.677 0.538859 -8.7846e-19)
(205.835 0.53222 0)
(200.905 0.519599 0)
(196.559 0.505151 -4.88013e-19)
(192.003 0.480455 5.01984e-19)
(188.127 0.453668 0)
(183.864 0.412691 -5.34827e-19)
(180.447 0.370854 0)
(176.406 0.31018 1.73345e-25)
(173.467 0.252838 -5.96612e-19)
(169.6 0.169327 0)
(167.189 0.099973 0)
(163.472 -0.00940165 0)
(161.671 -0.0788433 0)
(158.103 -0.215861 0)
(157.033 -0.258055 -2.39264e-24)
(153.595 -0.452096 0)
(100.007 -0.0204267 0)
(100.144 -0.058098 1.41764e-18)
(100.439 -0.0949499 -1.37329e-18)
(100.858 -0.13841 -1.30755e-18)
(101.49 -0.207055 -1.22372e-18)
(102.447 -0.314403 0)
(103.942 -0.453211 -1.07812e-18)
(106.041 -0.591534 -1.04242e-18)
(108.718 -0.697003 0)
(111.764 -0.75398 2.07544e-18)
(115.019 -0.76803 1.05287e-18)
(118.29 -0.755684 -2.13318e-18)
(121.557 -0.734282 2.14504e-18)
(124.75 -0.715599 0)
(127.974 -0.703353 -1.05077e-18)
(131.169 -0.697503 -2.05434e-18)
(134.47 -0.695286 3.00263e-18)
(137.761 -0.696473 0)
(141.218 -0.699302 0)
(144.661 -0.705237 9.14187e-19)
(148.34 -0.712184 -8.86977e-19)
(151.987 -0.72239 0)
(155.957 -0.732722 8.3133e-19)
(159.86 -0.746642 -8.01628e-19)
(164.198 -0.759599 -7.76223e-19)
(168.407 -0.776841 0)
(173.199 -0.791739 7.21186e-19)
(177.767 -0.81211 0)
(183.121 -0.828302 0)
(188.105 -0.851768 -6.32383e-19)
(194.155 -0.868555 0)
(199.621 -0.895334 0)
(206.54 -0.912526 0)
(212.566 -0.944488 -5.14835e-19)
(220.586 -0.964086 1.49226e-18)
(227.268 -1.00555 4.5391e-19)
(236.7 -1.03103 0)
(244.164 -1.08729 1.17429e-18)
(255.442 -1.12355 -7.66658e-19)
(263.873 -1.20245 3.27428e-19)
(277.617 -1.25865 3.26858e-19)
(287.324 -1.37133 -2.62354e-19)
(304.434 -1.45751 -5.44754e-19)
(315.908 -1.60679 -1.96838e-19)
(337.585 -1.71907 -6.63781e-19)
(351.456 -1.87461 3.90656e-19)
(378.976 -1.9514 0)
(395.728 -1.99949 0)
(429.821 -1.96852 2.51375e-19)
(449.771 -1.86204 0)
(489.405 -1.81413 0)
(512.435 -1.4275 0)
(546.201 -1.44465 0)
(568.033 0.0155531 3.8353e-20)
(545.658 0.649225 1.49763e-20)
(537.671 1.02677 -1.79278e-19)
(505.889 1.24827 0)
(491.948 1.37209 8.00155e-20)
(462.036 1.4787 0)
(446.683 1.46735 -2.59988e-20)
(421.254 1.48006 6.79303e-20)
(407.161 1.41848 -2.4668e-20)
(386.511 1.38323 -9.89342e-20)
(374.13 1.29929 -7.448e-20)
(357.408 1.25962 -7.08141e-25)
(346.506 1.19359 -3.40864e-25)
(332.75 1.16476 3.32491e-19)
(323.011 1.10182 -1.64801e-19)
(311.434 1.05712 -2.00418e-19)
(302.609 0.983771 0)
(292.632 0.932741 -1.70587e-24)
(284.538 0.86914 -2.4411e-19)
(275.742 0.8279 0)
(268.246 0.782089 6.78425e-25)
(260.346 0.755979 3.03585e-19)
(253.383 0.730021 -2.59118e-26)
(246.216 0.717252 1.39892e-25)
(239.777 0.703371 -3.54287e-19)
(233.26 0.695227 0)
(227.355 0.685996 3.8965e-19)
(221.431 0.678515 0)
(216.066 0.670983 4.23345e-19)
(210.675 0.661533 8.78451e-19)
(205.834 0.651987 -4.55727e-19)
(200.903 0.63591 0)
(196.558 0.618975 9.76006e-19)
(192.002 0.590856 5.01974e-19)
(188.125 0.562025 5.21491e-19)
(183.862 0.517576 5.34819e-19)
(180.445 0.473946 0)
(176.404 0.409553 5.69775e-19)
(173.464 0.35025 5.96612e-19)
(169.597 0.262564 0)
(167.186 0.190427 0)
(163.468 0.0762663 6.48558e-19)
(161.667 0.00236977 -6.89116e-19)
(158.099 -0.140162 0)
(157.029 -0.188878 -1.48214e-18)
(153.591 -0.39243 0)
(100.007 -0.0241537 0)
(100.144 -0.0686899 6.23992e-24)
(100.439 -0.11221 0)
(100.858 -0.163448 2.61482e-18)
(101.49 -0.24437 2.44718e-18)
(102.448 -0.371048 0)
(103.942 -0.535023 0)
(106.04 -0.698548 0)
(108.717 -0.8233 0)
(111.763 -0.890729 -2.0754e-18)
(115.018 -0.907387 0)
(118.288 -0.892826 4.26625e-18)
(121.555 -0.86756 1.40392e-24)
(124.748 -0.845515 0)
(127.972 -0.831077 0)
(131.167 -0.824196 -1.61152e-24)
(134.468 -0.8216 -2.0017e-18)
(137.759 -0.823024 0)
(141.216 -0.826383 0)
(144.658 -0.833412 0)
(148.337 -0.841621 0)
(151.985 -0.853681 0)
(155.955 -0.865872 -1.66262e-18)
(159.858 -0.882319 0)
(164.195 -0.897623 0)
(168.404 -0.918044 0)
(173.197 -0.935715 0)
(177.764 -0.95996 -1.37891e-18)
(183.118 -0.979314 0)
(188.102 -1.00745 1.26475e-18)
(194.152 -1.02778 0)
(199.618 -1.0602 -1.14853e-18)
(206.537 -1.08131 -1.10821e-18)
(212.563 -1.12013 0)
(220.583 -1.14408 -9.94825e-19)
(227.264 -1.19399 -9.07814e-19)
(236.697 -1.22433 0)
(244.161 -1.29113 -7.82851e-19)
(255.438 -1.33305 1.53329e-18)
(263.869 -1.42538 0)
(277.613 -1.48868 0)
(287.32 -1.61871 0)
(304.429 -1.71418 5.44741e-19)
(315.903 -1.88501 0)
(337.579 -2.00848 4.42508e-19)
(351.449 -2.18734 -2.60431e-19)
(378.97 -2.27445 -3.46608e-19)
(395.722 -2.34081 0)
(429.815 -2.31682 -2.51372e-19)
(449.765 -2.21155 0)
(489.402 -2.16414 -1.58106e-19)
(512.431 -1.71283 2.33986e-19)
(546.201 -1.70355 -8.24978e-20)
(568.036 0.0195964 -7.66893e-20)
(545.657 0.778364 -1.49731e-20)
(537.668 1.21731 -5.03736e-24)
(505.883 1.47168 0)
(491.943 1.60416 0)
(462.032 1.72492 0)
(446.679 1.70475 2.59918e-20)
(421.25 1.71654 0)
(407.157 1.63937 2.46677e-20)
(386.507 1.59883 9.89313e-20)
(374.126 1.49997 7.4478e-20)
(357.404 1.45499 -1.32328e-19)
(346.503 1.37684 -1.21415e-19)
(332.747 1.34378 -1.66245e-19)
(323.008 1.27165 1.64799e-19)
(311.431 1.22376 0)
(302.606 1.14362 0)
(292.63 1.09022 -1.62527e-24)
(284.536 1.02179 -2.44104e-19)
(275.739 0.978801 0)
(268.244 0.929478 2.81269e-19)
(260.343 0.901763 -3.03582e-19)
(253.381 0.872864 3.17917e-19)
(246.215 0.858125 -3.38585e-19)
(239.775 0.841314 0)
(233.258 0.830606 0)
(227.354 0.81829 -3.89647e-19)
(221.43 0.807711 -4.07126e-19)
(216.064 0.797052 0)
(210.674 0.784205 1.04273e-24)
(205.832 0.771752 4.5572e-19)
(200.902 0.752221 0)
(196.556 0.732799 -4.87993e-19)
(192 0.701258 -5.01962e-19)
(188.123 0.670384 -5.21479e-19)
(183.86 0.622466 -5.3481e-19)
(180.442 0.577043 0)
(176.401 0.508934 -5.6977e-19)
(173.461 0.44767 -5.96612e-19)
(169.594 0.355809 0)
(167.182 0.280886 0)
(163.464 0.16194 -1.29716e-18)
(161.663 0.083582 6.89151e-19)
(158.095 -0.0644644 0)
(157.025 -0.119713 7.41127e-19)
(153.588 -0.332784 0)
(100.007 -0.0278816 0)
(100.144 -0.0792841 -5.66958e-18)
(100.439 -0.129473 0)
(100.858 -0.188489 -2.6145e-18)
(101.49 -0.281686 0)
(102.448 -0.427688 0)
(103.942 -0.616819 -2.15614e-18)
(106.04 -0.805539 0)
(108.716 -0.949575 0)
(111.761 -1.02746 2.07538e-18)
(115.016 -1.04673 2.10566e-18)
(118.287 -1.02996 1.65515e-24)
(121.553 -1.00083 -2.14495e-18)
(124.746 -0.975425 0)
(127.97 -0.958795 0)
(131.165 -0.950883 4.10847e-18)
(134.466 -0.947907 0)
(137.756 -0.94957 -1.94341e-18)
(141.213 -0.953458 1.88749e-18)
(144.656 -0.961582 0)
(148.335 -0.971053 0)
(151.982 -0.984966 -1.71502e-18)
(155.952 -0.999017 1.66259e-18)
(159.855 -1.01799 -1.60319e-18)
(164.192 -1.03564 0)
(168.401 -1.05924 0)
(173.194 -1.07968 0)
(177.761 -1.1078 1.37889e-18)
(183.115 -1.13032 0)
(188.099 -1.16313 3.31545e-24)
(194.149 -1.187 -1.2205e-18)
(199.615 -1.22505 1.14851e-18)
(206.534 -1.25009 1.10819e-18)
(212.56 -1.29577 1.02964e-18)
(220.579 -1.32406 0)
(227.261 -1.38242 9.07801e-19)
(236.693 -1.41762 0)
(244.157 -1.49496 0)
(255.434 -1.54253 -7.66635e-19)
(263.865 -1.6483 6.54844e-19)
(277.608 -1.7187 -6.53693e-19)
(287.314 -1.86608 5.2469e-19)
(304.423 -1.97084 0)
(315.896 -2.16322 -3.9366e-19)
(337.572 -2.29787 0)
(351.442 -2.50006 0)
(378.963 -2.59748 3.46603e-19)
(395.714 -2.68213 -1.18824e-19)
(429.809 -2.66511 -2.51377e-19)
(449.759 -2.56105 -3.84072e-20)
(489.397 -2.51415 1.581e-19)
(512.426 -1.99817 -4.67936e-19)
(546.2 -1.96248 8.24784e-20)
(568.04 0.02364 3.83353e-20)
(545.657 0.90753 0)
(537.665 1.40788 1.79271e-19)
(505.878 1.69509 0)
(491.937 1.83623 -1.59999e-19)
(462.026 1.97113 0)
(446.674 1.94214 -2.59906e-20)
(421.245 1.95301 0)
(407.152 1.86026 0)
(386.503 1.81441 -9.89286e-20)
(374.122 1.70063 -7.44757e-20)
(357.401 1.65035 0)
(346.499 1.56008 2.42827e-19)
(332.744 1.52279 3.32484e-19)
(323.005 1.44147 -1.64799e-19)
(311.428 1.39038 0)
(302.603 1.30346 0)
(292.627 1.2477 -2.34778e-19)
(284.534 1.17443 7.323e-19)
(275.737 1.1297 0)
(268.242 1.07686 0)
(260.341 1.04754 6.07157e-19)
(253.379 1.0157 0)
(246.212 0.998994 6.77167e-19)
(239.773 0.979253 7.0857e-19)
(233.256 0.965981 -7.46898e-19)
(227.352 0.950581 0)
(221.428 0.936904 4.07122e-19)
(216.062 0.923119 -8.46677e-19)
(210.672 0.906875 -4.39216e-19)
(205.831 0.891516 0)
(200.9 0.868531 0)
(196.554 0.846623 9.75968e-19)
(191.998 0.811662 -1.0039e-18)
(188.121 0.778747 0)
(183.857 0.727361 1.0696e-18)
(180.44 0.680147 0)
(176.398 0.608321 -5.69764e-19)
(173.458 0.545097 1.19322e-18)
(169.59 0.449063 0)
(167.178 0.371351 0)
(163.46 0.24762 6.48602e-19)
(161.658 0.164793 1.37836e-18)
(158.09 0.0112314 0)
(157.02 -0.0505623 0)
(153.584 -0.273157 0)
(100.007 -0.0316105 2.89027e-18)
(100.144 -0.0898806 2.83454e-18)
(100.439 -0.146739 0)
(100.858 -0.213533 2.61414e-18)
(101.491 -0.319005 0)
(102.448 -0.484324 -2.28082e-18)
(103.942 -0.698599 4.31217e-18)
(106.039 -0.912507 -2.08479e-18)
(108.715 -1.07583 -2.06281e-18)
(111.76 -1.16418 -4.15079e-18)
(115.014 -1.18607 -2.10565e-18)
(118.285 -1.16709 -4.26616e-18)
(121.551 -1.1341 -2.14493e-18)
(124.744 -1.10533 0)
(127.968 -1.08651 2.10141e-18)
(131.162 -1.07756 -2.05419e-18)
(134.463 -1.07421 0)
(137.754 -1.07611 1.94336e-18)
(141.211 -1.08053 2.28136e-24)
(144.653 -1.08974 0)
(148.332 -1.10048 -1.77382e-18)
(151.979 -1.11625 1.71498e-18)
(155.949 -1.13215 2.56421e-24)
(159.852 -1.15365 3.20632e-18)
(164.189 -1.17365 1.55236e-18)
(168.398 -1.20043 0)
(173.19 -1.22365 0)
(177.758 -1.25564 0)
(183.111 -1.28132 0)
(188.095 -1.3188 -1.2647e-18)
(194.145 -1.34621 1.22048e-18)
(199.611 -1.3899 0)
(206.53 -1.41886 1.10818e-18)
(212.556 -1.4714 -2.05925e-18)
(220.575 -1.50404 9.94801e-19)
(227.257 -1.57084 0)
(236.689 -1.6109 8.80772e-19)
(244.152 -1.69877 -7.82844e-19)
(255.429 -1.752 0)
(263.86 -1.8712 -1.30967e-18)
(277.603 -1.9487 1.30737e-18)
(287.308 -2.11342 -5.24679e-19)
(304.416 -2.22747 5.44715e-19)
(315.889 -2.44141 3.93649e-19)
(337.564 -2.58725 -4.42485e-19)
(351.433 -2.81277 2.60429e-19)
(378.955 -2.9205 -3.46601e-19)
(395.706 -3.02343 1.18823e-19)
(429.802 -3.0134 2.51375e-19)
(449.752 -2.91056 4.75587e-24)
(489.392 -2.86416 -1.58098e-19)
(512.421 -2.28353 2.33949e-19)
(546.2 -2.22146 0)
(568.044 0.0276846 -7.6663e-20)
(545.656 1.03673 2.98774e-20)
(537.662 1.59847 0)
(505.871 1.91852 -4.05385e-20)
(491.93 2.0683 1.59987e-19)
(462.02 2.21733 -8.25592e-20)
(446.668 2.17953 0)
(421.239 2.18947 0)
(407.146 2.08113 0)
(386.498 2.02999 0)
(374.118 1.90129 0)
(357.396 1.84571 0)
(346.495 1.74332 -2.42824e-19)
(332.74 1.7018 -3.32483e-19)
(323.002 1.61128 0)
(311.425 1.557 0)
(302.6 1.4633 0)
(292.625 1.40518 0)
(284.531 1.32707 -9.76381e-19)
(275.734 1.28059 0)
(268.239 1.22424 0)
(260.339 1.19332 -6.0715e-19)
(253.376 1.15854 0)
(246.21 1.13986 -6.77159e-19)
(239.771 1.11719 -7.08561e-19)
(233.254 1.10135 7.4689e-19)
(227.35 1.08287 -7.79284e-19)
(221.426 1.06609 8.14239e-19)
(216.06 1.04918 -2.22623e-24)
(210.67 1.02954 0)
(205.829 1.01128 0)
(200.898 0.984839 9.40867e-19)
(196.552 0.960447 1.42138e-24)
(191.996 0.922066 -1.77238e-24)
(188.119 0.887112 1.0429e-18)
(183.855 0.83226 -2.13917e-18)
(180.437 0.783256 0)
(176.395 0.707716 1.13951e-18)
(173.455 0.642531 -1.19321e-18)
(169.586 0.542325 0)
(167.173 0.461822 0)
(163.455 0.333305 -1.29724e-18)
(161.653 0.246005 -1.37842e-18)
(158.086 0.0869257 0)
(157.015 0.0185757 0)
(153.58 -0.213551 0)
(100.007 -0.0353406 -2.89003e-18)
(100.144 -0.10048 2.83428e-18)
(100.439 -0.164009 2.74541e-18)
(100.858 -0.238582 7.44729e-24)
(101.491 -0.356326 0)
(102.448 -0.540955 2.2806e-18)
(103.942 -0.780363 -2.15603e-18)
(106.039 -1.01945 4.16961e-18)
(108.713 -1.20205 2.06285e-18)
(111.758 -1.30087 4.15086e-18)
(115.012 -1.32539 0)
(118.282 -1.30422 2.13309e-18)
(121.549 -1.26736 2.14493e-18)
(124.742 -1.23522 0)
(127.965 -1.21421 2.20988e-24)
(131.159 -1.20423 0)
(134.46 -1.2005 -2.00154e-18)
(137.751 -1.20264 0)
(141.208 -1.20759 -1.88738e-18)
(144.65 -1.2179 -1.82818e-18)
(148.328 -1.2299 3.54755e-18)
(151.976 -1.24752 -1.71494e-18)
(155.946 -1.26528 -1.66251e-18)
(159.848 -1.28931 -1.60312e-18)
(164.185 -1.31165 3.01951e-24)
(168.394 -1.34161 0)
(173.186 -1.3676 0)
(177.754 -1.40347 1.37884e-18)
(183.107 -1.43231 0)
(188.091 -1.47446 1.26468e-18)
(194.141 -1.50541 0)
(199.607 -1.55474 0)
(206.525 -1.58762 -1.10816e-18)
(212.551 -1.64702 2.05922e-18)
(220.57 -1.68401 -1.98958e-18)
(227.252 -1.75925 0)
(236.684 -1.80417 2.71259e-24)
(244.147 -1.90257 7.82836e-19)
(255.424 -1.96146 7.66621e-19)
(263.854 -2.09408 6.54828e-19)
(277.596 -2.17867 -6.53672e-19)
(287.301 -2.36075 5.24676e-19)
(304.409 -2.48408 2.5623e-25)
(315.88 -2.71957 0)
(337.555 -2.87659 4.42474e-19)
(351.424 -3.12546 -2.60423e-19)
(378.945 -3.24351 3.46596e-19)
(395.697 -3.36473 0)
(429.794 -3.36167 0)
(449.743 -3.26007 3.84001e-20)
(489.386 -3.21417 3.16185e-19)
(512.416 -2.5689 0)
(546.2 -2.48048 -1.64831e-19)
(568.049 0.0317311 7.66365e-20)
(545.655 1.16596 -2.98693e-20)
(537.658 1.78908 0)
(505.864 2.14196 8.10693e-20)
(491.923 2.30035 1.59965e-19)
(462.013 2.46352 1.65111e-19)
(446.661 2.4169 -5.1955e-20)
(421.232 2.42593 1.35857e-19)
(407.14 2.30199 0)
(386.492 2.24555 0)
(374.113 2.10194 1.48943e-19)
(357.392 2.04106 2.64627e-19)
(346.49 1.92654 2.42821e-19)
(332.736 1.8808 -3.32477e-19)
(322.998 1.78109 3.29592e-19)
(311.421 1.72362 0)
(302.597 1.62313 -4.10993e-19)
(292.621 1.56265 4.69531e-19)
(284.528 1.47971 4.88181e-19)
(275.731 1.43148 0)
(268.236 1.37162 -5.62511e-19)
(260.336 1.33909 0)
(253.374 1.30137 0)
(246.207 1.28072 6.77152e-19)
(239.768 1.25512 7.08557e-19)
(233.252 1.23672 0)
(227.347 1.21515 7.79276e-19)
(221.423 1.19528 -8.14231e-19)
(216.058 1.17525 8.4666e-19)
(210.667 1.15221 -8.78416e-19)
(205.826 1.13104 0)
(200.895 1.10115 -1.8817e-18)
(196.55 1.07427 -9.75923e-19)
(191.994 1.03247 1.00385e-18)
(188.116 0.995479 -2.08575e-18)
(183.852 0.937163 1.06956e-18)
(180.434 0.88637 0)
(176.392 0.807118 -1.1395e-18)
(173.451 0.739973 0)
(169.582 0.635595 0)
(167.169 0.5523 0)
(163.451 0.418997 1.29727e-18)
(161.648 0.327216 0)
(158.081 0.162619 0)
(157.009 0.0877012 0)
(153.575 -0.153964 0)
(100.007 -0.039072 2.8898e-18)
(100.144 -0.111082 -2.834e-18)
(100.439 -0.181282 -2.74506e-18)
(100.859 -0.263635 -2.61332e-18)
(101.491 -0.393651 0)
(102.449 -0.597583 0)
(103.942 -0.862111 -2.15597e-18)
(106.038 -1.12636 -4.16966e-18)
(108.712 -1.32825 2.06291e-18)
(111.757 -1.43755 -2.0755e-18)
(115.01 -1.46471 0)
(118.28 -1.44133 0)
(121.546 -1.40061 0)
(124.739 -1.36511 0)
(127.962 -1.3419 -2.10135e-18)
(131.157 -1.33089 -2.0541e-18)
(134.457 -1.32678 4.00298e-18)
(137.747 -1.32916 0)
(141.204 -1.33464 1.88733e-18)
(144.646 -1.34604 -3.13086e-24)
(148.325 -1.3593 -1.77373e-18)
(151.972 -1.37878 1.7149e-18)
(155.942 -1.39841 0)
(159.844 -1.42496 -3.20619e-18)
(164.181 -1.44965 -1.55229e-18)
(168.39 -1.48278 0)
(173.182 -1.51154 0)
(177.749 -1.55128 -1.37882e-18)
(183.103 -1.58329 0)
(188.087 -1.63011 1.26467e-18)
(194.136 -1.6646 2.44088e-18)
(199.602 -1.71957 2.29691e-18)
(206.521 -1.75637 -2.21629e-18)
(212.546 -1.82264 -1.02959e-18)
(220.565 -1.86396 9.94776e-19)
(227.247 -1.94765 0)
(236.678 -1.99743 -2.64227e-18)
(244.141 -2.10636 0)
(255.418 -2.17089 -2.29984e-18)
(263.847 -2.31695 -1.30966e-18)
(277.589 -2.40863 0)
(287.293 -2.60804 -5.24666e-19)
(304.4 -2.74066 -5.44692e-19)
(315.871 -2.99771 -7.87281e-19)
(337.545 -3.16592 0)
(351.413 -3.43813 -5.20855e-19)
(378.935 -3.5665 -6.93192e-19)
(395.686 -3.70602 0)
(429.785 -3.70994 0)
(449.734 -3.60957 7.67765e-20)
(489.38 -3.56419 -1.58086e-19)
(512.41 -2.8543 4.67872e-19)
(546.2 -2.73955 1.64784e-19)
(568.055 0.0357802 -7.66285e-20)
(545.654 1.29523 0)
(537.655 1.97972 0)
(505.857 2.3654 -4.05307e-20)
(491.915 2.5324 -1.59952e-19)
(462.006 2.7097 -8.25512e-20)
(446.654 2.65427 5.19521e-20)
(421.225 2.66237 -2.71707e-19)
(407.134 2.52283 0)
(386.486 2.4611 0)
(374.107 2.30258 1.27715e-24)
(357.387 2.2364 -2.64618e-19)
(346.485 2.10976 -2.42817e-19)
(332.731 2.05978 3.32475e-19)
(322.993 1.95088 -3.2959e-19)
(311.417 1.89022 0)
(302.593 1.78295 8.03203e-25)
(292.618 1.72012 -9.39042e-19)
(284.524 1.63234 -4.88171e-19)
(275.728 1.58237 -5.38105e-19)
(268.233 1.51899 5.62501e-19)
(260.333 1.48486 0)
(253.371 1.44419 0)
(246.205 1.42157 -6.77143e-19)
(239.766 1.39305 2.42525e-24)
(233.249 1.37208 7.46879e-19)
(227.345 1.34743 7.79272e-19)
(221.421 1.32447 -8.14227e-19)
(216.055 1.3013 0)
(210.665 1.27487 8.78404e-19)
(205.824 1.25079 0)
(200.893 1.21745 9.40831e-19)
(196.547 1.18809 -9.75902e-19)
(191.991 1.14288 0)
(188.113 1.10385 1.04285e-18)
(183.849 1.04207 0)
(180.43 0.98949 0)
(176.388 0.906527 1.13948e-18)
(173.447 0.837422 0)
(169.578 0.728873 0)
(167.164 0.642784 0)
(163.446 0.504695 0)
(161.642 0.408428 0)
(158.075 0.238311 0)
(157.003 0.156814 0)
(153.57 -0.0943974 0)
(100.007 -0.0428047 -2.88955e-18)
(100.144 -0.121688 0)
(100.439 -0.198561 0)
(100.859 -0.288693 0)
(101.492 -0.43098 0)
(102.449 -0.654207 0)
(103.942 -0.94384 2.15591e-18)
(106.038 -1.23325 2.08487e-18)
(108.711 -1.45441 2.063e-18)
(111.755 -1.5742 4.15118e-18)
(115.008 -1.604 0)
(118.278 -1.57843 4.26636e-18)
(121.544 -1.53386 4.28995e-18)
(124.736 -1.49499 0)
(127.96 -1.46958 0)
(131.153 -1.45754 2.05405e-18)
(134.454 -1.45305 2.00144e-18)
(137.744 -1.45567 0)
(141.201 -1.46168 -1.88727e-18)
(144.643 -1.47418 1.82808e-18)
(148.321 -1.4887 0)
(151.968 -1.51003 0)
(155.938 -1.53152 3.32488e-18)
(159.84 -1.56059 3.20612e-18)
(164.177 -1.58763 -3.10454e-18)
(168.385 -1.62395 2.98273e-18)
(173.177 -1.65548 0)
(177.745 -1.69909 0)
(183.098 -1.73426 0)
(188.082 -1.78576 -2.52928e-18)
(194.131 -1.82378 -2.44084e-18)
(199.597 -1.88439 -2.29687e-18)
(206.515 -1.92511 2.21625e-18)
(212.541 -1.99824 2.05918e-18)
(220.559 -2.04391 0)
(227.241 -2.13604 0)
(236.672 -2.19067 1.7615e-18)
(244.135 -2.31013 -1.56568e-18)
(255.411 -2.38031 -5.26363e-24)
(263.84 -2.53979 1.30964e-18)
(277.582 -2.63856 0)
(287.285 -2.85532 0)
(304.391 -2.99722 -1.08936e-18)
(315.861 -3.27582 -1.08542e-23)
(337.535 -3.45522 8.84909e-19)
(351.402 -3.75077 5.20843e-19)
(378.924 -3.88948 6.93184e-19)
(395.675 -4.0473 2.37697e-19)
(429.774 -4.0582 5.02777e-19)
(449.724 -3.95907 -7.67741e-20)
(489.372 -3.91422 0)
(512.403 -3.13971 -9.35668e-19)
(546.2 -2.99867 0)
(568.06 0.0398329 7.65977e-20)
(545.653 1.42454 -2.97736e-20)
(537.651 2.17039 -3.58573e-19)
(505.849 2.58887 0)
(491.907 2.76445 0)
(461.997 2.95587 -8.25534e-20)
(446.646 2.89163 -5.1933e-20)
(421.217 2.89881 2.71702e-19)
(407.126 2.74367 -4.93484e-20)
(386.479 2.67663 0)
(374.101 2.5032 -1.48933e-19)
(357.381 2.43173 2.64606e-19)
(346.48 2.29297 2.42815e-19)
(332.726 2.23876 0)
(322.989 2.12067 0)
(311.413 2.05682 -4.0079e-19)