/*--------------------------------*- C++ -*----------------------------------*\
| =========                 |                                                 |
| \\      /  F ield         | OpenFOAM: The Open Source CFD Toolbox           |
|  \\    /   O peration     | Version:  2412                                  |
|   \\  /    A nd           | Website:  www.openfoam.com                      |
|    \\/     M anipulation  |                                                 |
\*---------------------------------------------------------------------------*/
FoamFile
{
    version     2.0;
    format      ascii;
    arch        "LSB;label=32;scalar=64";
    class       volScalarField;
    location    "0.3";
    object      epsilon;
}
// * * * * * * * * * * * * * * * * * * * * * * * * * * * * * * * * * * * * * //

dimensions      [0 2 -3 0 0 0 0];

internalField   nonuniform List<scalar> 
13068
(
378.737
389.192
422.802
495.274
599.422
697.811
757.727
776.968
772.143
759.418
747.032
737.9
732.132
729.872
730.454
734.153
740.156
749.109
760.004
774.022
789.776
809.199
830.235
855.93
883.114
916.549
951.273
994.764
1039.19
1096.35
1153.83
1230.41
1306.52
1412.09
1515.66
1665.26
1810.92
2030.69
2244
2576.66
2893.4
3391.23
3833.25
4517.02
5042.67
5838.8
6352.88
7196.23
7860.53
8335.27
8589.87
6325.77
4443.24
1732.17
1166.46
1802.96
2744.34
3154.87
3362.78
3134.66
2982.85
2653.28
2454.58
2190.35
2045.66
1869.54
1776.04
1657.29
1589.24
1502.8
1448.3
1380.1
1329.78
1268.62
1216.38
1157.22
1104.74
1051.16
1004.46
960.325
922.322
887.824
857.303
829.387
803.055
778.242
753.103
728.547
702.47
676.398
648.402
620.087
590.261
560.246
530.053
500.678
473.245
448.757
427.696
378.74
389.204
422.824
495.297
599.446
697.855
757.803
777.07
772.254
759.528
747.137
738
732.229
729.967
730.548
734.247
740.25
749.205
760.102
774.122
789.88
809.307
830.348
856.047
883.237
916.679
951.412
994.914
1039.36
1096.54
1154.03
1230.65
1306.77
1412.37
1515.96
1665.59
1811.28
2031.11
2244.48
2577.22
2894.08
3392.07
3834.28
4518.32
5044.22
5840.55
6354.73
7198.03
7862.18
8337.1
8591.39
6327.47
4445.28
1733.05
1166.68
1802.83
2744.37
3155.16
3363.44
3135.22
2983.29
2653.68
2455.04
2190.81
2046.06
1869.86
1776.32
1657.59
1589.53
1503.08
1448.56
1380.36
1330.04
1268.87
1216.62
1157.44
1104.95
1051.35
1004.64
960.491
922.477
887.969
857.44
829.52
803.186
778.371
753.229
728.667
702.581
676.491
648.476
620.132
590.276
560.227
530.003
500.597
473.136
448.629
427.572
378.745
389.224
422.866
495.35
599.498
697.917
757.89
777.176
772.366
759.637
747.241
738.1
732.326
730.062
730.643
734.342
740.346
749.303
760.203
774.226
789.987
809.418
830.463
856.169
883.365
916.814
951.556
995.07
1039.53
1096.73
1154.25
1230.89
1307.03
1412.65
1516.27
1665.92
1811.65
2031.52
2244.95
2577.79
2894.75
3392.91
3835.31
4519.6
5045.74
5842.26
6356.51
7199.74
7863.67
8338.74
8592.63
6328.83
4447.05
1733.77
1166.63
1802.33
2744
3155.05
3363.77
3135.51
2983.51
2653.9
2455.38
2191.17
2046.39
1870.1
1776.54
1657.83
1589.78
1503.32
1448.79
1380.6
1330.28
1269.11
1216.85
1157.66
1105.15
1051.54
1004.82
960.652
922.629
888.112
857.577
829.653
803.317
778.5
753.358
728.79
702.696
676.59
648.554
620.182
590.298
560.215
529.96
500.523
473.035
448.51
427.456
378.752
389.254
422.93
495.434
599.579
697.998
757.983
777.281
772.473
759.739
747.337
738.192
732.416
730.152
730.733
734.433
740.439
749.397
760.3
774.326
790.091
809.526
830.576
856.287
883.489
916.945
951.696
995.221
1039.69
1096.91
1154.46
1231.12
1307.29
1412.92
1516.56
1666.23
1812
2031.91
2245.4
2578.31
2895.38
3393.7
3836.27
4520.81
5047.16
5843.84
6358.1
7201.23
7864.84
8340.04
8593.43
6329.73
4448.5
1734.3
1166.29
1801.45
2743.2
3154.52
3363.72
3135.48
2983.46
2653.92
2455.54
2191.39
2046.6
1870.25
1776.69
1658.01
1589.98
1503.51
1448.99
1380.8
1330.49
1269.32
1217.05
1157.85
1105.33
1051.71
1004.97
960.8
922.768
888.244
857.704
829.777
803.441
778.624
753.482
728.91
702.808
676.687
648.633
620.233
590.322
560.206
529.921
500.454
472.939
448.396
427.346
378.761
389.293
423.016
495.55
599.691
698.097
758.082
777.382
772.571
759.83
747.423
738.275
732.497
730.233
730.815
734.516
740.524
749.485
760.391
774.42
790.189
809.628
830.683
856.398
883.606
917.07
951.829
995.365
1039.85
1097.09
1154.65
1231.34
1307.52
1413.18
1516.82
1666.53
1812.31
2032.27
2245.8
2578.79
2895.95
3394.41
3837.15
4521.9
5048.43
5845.25
6359.46
7202.44
7865.65
8340.94
8593.74
6330.13
4449.57
1734.64
1165.67
1800.19
2741.95
3153.54
3363.27
3135.12
2983.12
2653.71
2455.53
2191.47
2046.68
1870.3
1776.74
1658.11
1590.11
1503.65
1449.13
1380.96
1330.67
1269.49
1217.22
1158.02
1105.49
1051.87
1005.11
960.93
922.892
888.362
857.818
829.891
803.556
778.741
753.599
729.024
702.917
676.782
648.71
620.284
590.346
560.198
529.884
500.388
472.848
448.288
427.24
378.772
389.341
423.125
495.699
599.832
698.213
758.185
777.479
772.66
759.91
747.497
738.346
732.568
730.305
730.888
734.592
740.602
749.566
760.474
774.508
790.28
809.723
830.782
856.503
883.716
917.186
951.954
995.5
1040
1097.25
1154.84
1231.54
1307.74
1413.41
1517.07
1666.79
1812.6
2032.59
2246.16
2579.21
2896.46
3395.05
3837.93
4522.88
5049.56
5846.46
6360.58
7203.36
7866.06
8341.43
8593.54
6330.02
4450.29
1734.77
1164.78
1798.55
2740.28
3152.12
3362.41
3134.4
2982.5
2653.26
2455.33
2191.4
2046.64
1870.24
1776.7
1658.12
1590.16
1503.73
1449.22
1381.07
1330.8
1269.63
1217.36
1158.16
1105.63
1051.99
1005.23
961.041
922.998
888.465
857.919
829.992
803.661
778.848
753.709
729.133
703.021
676.873
648.784
620.334
590.371
560.192
529.85
500.325
472.761
448.184
427.139
378.785
389.399
423.255
495.881
600.003
698.346
758.292
777.57
772.738
759.979
747.559
738.406
732.629
730.367
730.953
734.659
740.672
749.639
760.551
774.588
790.364
809.811
830.874
856.599
883.818
917.294
952.069
995.624
1040.14
1097.4
1155.01
1231.73
1307.95
1413.63
1517.29
1667.03
1812.85
2032.86
2246.47
2579.57
2896.9
3395.6
3838.61
4523.74
5050.52
5847.48
6361.44
7203.98
7866.09
8341.49
8592.84
6329.41
4450.64
1734.72
1163.61
1796.55
2738.17
3150.27
3361.17
3133.36
2981.59
2652.6
2454.95
2191.18
2046.48
1870.07
1776.56
1658.06
1590.15
1503.74
1449.25
1381.14
1330.89
1269.73
1217.46
1158.27
1105.74
1052.1
1005.33
961.132
923.087
888.551
858.006
830.082
803.756
778.947
753.811
729.235
703.119
676.96
648.857
620.383
590.395
560.187
529.817
500.266
472.677
448.085
427.043
378.8
389.467
423.409
496.095
600.205
698.497
758.403
777.657
772.807
760.035
747.61
738.455
732.679
730.419
731.008
734.717
740.734
749.704
760.62
774.66
790.44
809.891
830.958
856.688
883.912
917.393
952.175
995.739
1040.26
1097.54
1155.17
1231.91
1308.13
1413.82
1517.49
1667.23
1813.07
2033.1
2246.73
2579.88
2897.26
3396.07
3839.19
4524.47
5051.33
5848.31
6362.06
7204.3
7865.72
8341.14
8591.64
6328.32
4450.64
1734.47
1162.18
1794.19
2735.66
3147.99
3359.54
3131.98
2980.4
2651.7
2454.39
2190.82
2046.19
1869.79
1776.33
1657.92
1590.07
1503.7
1449.24
1381.15
1330.93
1269.8
1217.54
1158.35
1105.82
1052.18
1005.4
961.204
923.158
888.623
858.08
830.16
803.84
779.037
753.906
729.331
703.213
677.044
648.927
620.43
590.42
560.183
529.787
500.209
472.597
447.991
426.952
378.818
389.543
423.584
496.341
600.436
698.665
758.518
777.738
772.866
760.08
747.648
738.492
732.718
730.462
731.054
734.767
740.788
749.762
760.681
774.726
790.509
809.964
831.035
856.769
883.997
917.484
952.272
995.844
1040.38
1097.67
1155.31
1232.07
1308.3
1413.99
1517.67
1667.41
1813.25
2033.3
2246.94
2580.13
2897.57
3396.46
3839.68
4525.09
5051.99
5848.95
6362.43
7204.33
7864.99
8340.39
8589.97
6326.75
4450.32
1734.06
1160.51
1791.5
2732.74
3145.31
3357.54
3130.28
2978.94
2650.59
2453.66
2190.31
2045.78
1869.41
1776.02
1657.7
1589.92
1503.6
1449.17
1381.13
1330.94
1269.83
1217.58
1158.4
1105.88
1052.24
1005.46
961.257
923.213
888.679
858.14
830.226
803.914
779.118
753.994
729.421
703.302
677.124
648.994
620.477
590.445
560.18
529.759
500.155
472.522
447.901
426.865
378.837
389.63
423.782
496.62
600.696
698.85
758.637
777.814
772.914
760.113
747.674
738.518
732.747
730.494
731.091
734.809
740.833
749.812
760.735
774.783
790.571
810.029
831.104
856.841
884.074
917.566
952.36
995.938
1040.48
1097.79
1155.44
1232.21
1308.45
1414.15
1517.82
1667.56
1813.4
2033.46
2247.11
2580.33
2897.8
3396.77
3840.07
4525.58
5052.49
5849.4
6362.57
7204.08
7863.88
8339.26
8587.83
6324.73
4449.69
1733.48
1158.6
1788.48
2729.44
3142.23
3355.17
3128.27
2977.21
2649.28
2452.76
2189.67
2045.26
1868.93
1775.61
1657.4
1589.71
1503.44
1449.06
1381.06
1330.91
1269.82
1217.59
1158.43
1105.92
1052.27
1005.49
961.291
923.25
888.72
858.187
830.281
803.978
779.19
754.074
729.505
703.386
677.201
649.06
620.523
590.47
560.178
529.733
500.104
472.45
447.817
426.783
378.859
389.725
424.003
496.931
600.987
699.053
758.761
777.886
772.953
760.134
747.689
738.532
732.764
730.517
731.119
734.841
740.871
749.853
760.781
774.833
790.624
810.086
831.165
856.906
884.142
917.639
952.438
996.023
1040.57
1097.89
1155.55
1232.34
1308.58
1414.28
1517.94
1667.69
1813.52
2033.57
2247.23
2580.47
2897.97
3397
3840.37
4525.97
5052.85
5849.68
6362.47
7203.56
7862.42
8337.76
8585.27
6322.28
4448.78
1732.75
1156.47
1785.17
2725.79
3138.78
3352.46
3125.96
2975.23
2647.75
2451.7
2188.89
2044.62
1868.36
1775.12
1657.03
1589.43
1503.23
1448.9
1380.95
1330.84
1269.78
1217.57
1158.43
1105.93
1052.29
1005.51
961.308
923.271
888.746
858.221
830.325
804.033
779.255
754.147
729.583
703.466
677.275
649.124
620.568
590.495
560.178
529.71
500.057
472.382
447.737
426.705
378.882
389.831
424.245
497.274
601.306
699.272
758.888
777.952
772.982
760.143
747.691
738.535
732.772
730.53
731.137
734.865
740.9
749.888
760.82
774.876
790.671
810.136
831.218
856.963
884.203
917.703
952.507
996.098
1040.65
1097.98
1155.66
1232.45
1308.7
1414.39
1518.05
1667.78
1813.61
2033.65
2247.31
2580.55
2898.08
3397.16
3840.58
4526.24
5053.07
5849.78
6362.15
7202.77
7860.63
8335.91
8582.3
6319.43
4447.6
1731.88
1154.13
1781.56
2721.79
3134.97
3349.42
3123.38
2973.01
2646.04
2450.48
2187.99
2043.87
1867.69
1774.55
1656.59
1589.09
1502.96
1448.69
1380.8
1330.74
1269.71
1217.52
1158.4
1105.92
1052.28
1005.5
961.307
923.277
888.759
858.244
830.359
804.079
779.311
754.214
729.656
703.542
677.346
649.186
620.613
590.521
560.18
529.689
500.013
472.318
447.662
426.633
378.908
389.945
424.51
497.65
601.655
699.508
759.02
778.014
773.002
760.141
747.681
738.527
732.768
730.533
731.147
734.881
740.921
749.914
760.851
774.911
790.71
810.179
831.264
857.012
884.255
917.759
952.567
996.163
1040.73
1098.06
1155.75
1232.55
1308.8
1414.48
1518.13
1667.85
1813.66
2033.7
2247.34
2580.59
2898.13
3397.24
3840.7
4526.41
5053.16
5849.72
6361.61
7201.73
7858.51
8333.73
8578.94
6316.21
4446.19
1730.9
1151.61
1777.7
2717.47
3130.83
3346.07
3120.52
2970.57
2644.14
2449.11
2186.97
2043.02
1866.94
1773.91
1656.08
1588.69
1502.65
1448.44
1380.61
1330.6
1269.61
1217.45
1158.35
1105.89
1052.26
1005.48
961.29
923.267
888.758
858.254
830.382
804.116
779.361
754.275
729.724
703.614
677.415
649.246
620.658
590.549
560.184
529.672
499.972
472.259
447.593
426.565
378.936
390.07
424.797
498.057
602.033
699.762
759.156
778.071
773.012
760.127
747.66
738.507
732.754
730.526
731.147
734.888
740.934
749.932
760.874
774.939
790.742
810.214
831.303
857.053
884.299
917.806
952.619
996.219
1040.79
1098.13
1155.82
1232.63
1308.88
1414.56
1518.19
1667.89
1813.69
2033.7
2247.33
2580.57
2898.11
3397.26
3840.73
4526.48
5053.11
5849.49
6360.87
7200.45
7856.08
8331.23
8575.23
6312.65
4444.58
1729.82
1148.92
1773.59
2712.85
3126.38
3342.43
3117.41
2967.9
2642.07
2447.61
2185.83
2042.08
1866.1
1773.19
1655.51
1588.24
1502.28
1448.15
1380.39
1330.43
1269.47
1217.35
1158.28
1105.83
1052.21
1005.44
961.256
923.243
888.745
858.253
830.396
804.145
779.403
754.33
729.788
703.683
677.481
649.306
620.703
590.577
560.19
529.657
499.936
472.204
447.528
426.502
378.966
390.203
425.107
498.496
602.441
700.032
759.296
778.124
773.012
760.102
747.626
738.476
732.73
730.509
731.139
734.886
740.939
749.943
760.89
774.959
790.766
810.242
831.334
857.086
884.336
917.845
952.661
996.265
1040.84
1098.18
1155.88
1232.7
1308.94
1414.61
1518.22
1667.91
1813.68
2033.67
2247.28
2580.5
2898.04
3397.21
3840.69
4526.45
5052.94
5849.12
6359.93
7198.94
7853.36
8328.45
8571.2
6308.77
4442.79
1728.65
1146.08
1769.27
2707.97
3121.64
3338.51
3114.06
2965.03
2639.84
2445.97
2184.59
2041.04
1865.18
1772.4
1654.88
1587.73
1501.88
1447.81
1380.13
1330.22
1269.31
1217.22
1158.18
1105.76
1052.15
1005.38
961.208
923.205
888.719
858.242
830.4
804.166
779.439
754.379
729.847
703.748
677.545
649.365
620.748
590.607
560.198
529.646
499.903
472.154
447.469
426.444
378.998
390.346
425.438
498.967
602.877
700.319
759.441
778.172
773.003
760.065
747.581
738.433
732.694
730.483
731.121
734.876
740.936
749.946
760.899
774.972
790.783
810.262
831.357
857.112
884.364
917.876
952.695
996.301
1040.88
1098.23
1155.94
1232.75
1308.99
1414.64
1518.24
1667.9
1813.64
2033.61
2247.18
2580.39
2897.92
3397.09
3840.57
4526.33
5052.66
5848.6
6358.81
7197.21
7850.37
8325.4
8566.87
6304.61
4440.85
1727.42
1143.1
1764.75
2702.84
3116.63
3334.34
3110.49
2961.98
2637.46
2444.21
2183.24
2039.92
1864.19
1771.55
1654.19
1587.17
1501.42
1447.44
1379.83
1329.99
1269.13
1217.07
1158.06
1105.67
1052.07
1005.31
961.144
923.153
888.681
858.22
830.396
804.179
779.469
754.423
729.902
703.811
677.608
649.423
620.794
590.639
560.209
529.638
499.875
472.109
447.416
426.392
379.032
390.499
425.792
499.47
603.342
700.623
759.59
778.216
772.985
760.017
747.524
738.379
732.649
730.447
731.094
734.858
740.925
749.942
760.9
774.978
790.793
810.275
831.373
857.13
884.384
917.898
952.72
996.329
1040.91
1098.26
1155.97
1232.79
1309.02
1414.66
1518.23
1667.87
1813.58
2033.51
2247.05
2580.23
2897.74
3396.91
3840.38
4526.12
5052.26
5847.94
6357.5
7195.28
7847.11
8322.1
8562.27
6300.2
4438.8
1726.15
1140.02
1760.07
2697.5
3111.39
3329.94
3106.72
2958.74
2634.93
2442.34
2181.81
2038.71
1863.13
1770.63
1653.44
1586.57
1500.93
1447.04
1379.51
1329.73
1268.91
1216.9
1157.93
1105.56
1051.98
1005.22
961.067
923.09
888.633
858.189
830.384
804.186
779.493
754.463
729.954
703.871
677.669
649.481
620.841
590.672
560.223
529.634
499.851
472.069
447.368
426.345
379.069
390.661
426.168
500.005
603.836
700.943
759.744
778.256
772.957
759.957
747.455
738.314
732.592
730.401
731.058
734.831
740.906
749.929
760.893
774.976
790.796
810.281
831.382
857.141
884.397
917.913
952.736
996.347
1040.93
1098.29
1156
1232.82
1309.04
1414.66
1518.21
1667.81
1813.49
2033.38
2246.88
2580.02
2897.51
3396.67
3840.12
4525.82
5051.75
5847.15
6356.03
7193.15
7843.63
8318.58
8557.45
6295.57
4436.66
1724.84
1136.85
1755.24
2691.96
3105.93
3325.34
3102.77
2955.35
2632.28
2440.36
2180.28
2037.44
1862.01
1769.66
1652.65
1585.92
1500.4
1446.6
1379.16
1329.44
1268.68
1216.7
1157.77
1105.43
1051.87
1005.12
960.978
923.014
888.573
858.149
830.364
804.187
779.512
754.498
730.002
703.928
677.729
649.539
620.889
590.708
560.241
529.634
499.831
472.034
447.326
426.304
379.107
390.832
426.566
500.571
604.359
701.281
759.902
778.291
772.921
759.886
747.375
738.238
732.526
730.345
731.013
734.795
740.879
749.909
760.879
774.968
790.791
810.279
831.383
857.144
884.402
917.919
952.744
996.356
1040.94
1098.3
1156.01
1232.83
1309.04
1414.64
1518.16
1667.73
1813.37
2033.21
2246.67
2579.78
2897.23
3396.37
3839.79
4525.45
5051.15
5846.24
6354.4
7190.84
7839.92
8314.87
8552.42
6290.76
4434.48
1723.53
1133.61
1750.31
2686.27
3100.29
3320.54
3098.65
2951.82
2629.51
2438.28
2178.68
2036.09
1860.83
1768.64
1651.81
1585.23
1499.84
1446.14
1378.78
1329.13
1268.42
1216.49
1157.6
1105.29
1051.74
1005.01
960.876
922.928
888.505
858.101
830.337
804.182
779.525
754.53
730.048
703.984
677.789
649.597
620.938
590.746
560.261
529.638
499.817
472.004
447.291
426.268
379.148
391.013
426.986
501.169
604.911
701.635
760.064
778.322
772.875
759.804
747.283
738.15
732.449
730.28
730.959
734.751
740.844
749.882
760.858
774.951
790.779
810.271
831.377
857.14
884.4
917.917
952.744
996.356
1040.94
1098.3
1156.01
1232.82
1309.03
1414.61
1518.1
1667.62
1813.22
2033.02
2246.43
2579.49
2896.9
3396.02
3839.4
4525
5050.45
5845.22
6352.62
7188.37
7836.01
8310.98
8547.23
6285.8
4432.28
1722.23
1130.33
1745.28
2680.44
3094.48
3315.58
3094.38
2948.15
2626.63
2436.12
2177.01
2034.69
1859.6
1767.57
1650.93
1584.5
1499.24
1445.64
1378.38
1328.8
1268.14
1216.26
1157.42
1105.13
1051.61
1004.88
960.763
922.831
888.427
858.044
830.304
804.171
779.535
754.558
730.091
704.038
677.848
649.656
620.99
590.787
560.285
529.646
499.807
471.981
447.261
426.238
379.19
391.204
427.429
501.799
605.491
702.006
760.231
778.349
772.819
759.71
747.18
738.052
732.361
730.205
730.896
734.699
740.801
749.846
760.829
774.928
790.76
810.255
831.364
857.129
884.39
917.908
952.735
996.348
1040.93
1098.29
1156
1232.81
1309
1414.55
1518.01
1667.5
1813.05
2032.8
2246.16
2579.16
2896.53
3395.62
3838.96
4524.49
5049.67
5844.09
6350.71
7185.74
7831.92
8306.94
8541.91
6280.72
4430.1
1720.97
1127.03
1740.19
2674.51
3088.55
3310.49
3089.98
2944.37
2623.66
2433.89
2175.27
2033.22
1858.32
1766.45
1650
1583.74
1498.61
1445.12
1377.95
1328.45
1267.85
1216.02
1157.22
1104.97
1051.46
1004.75
960.639
922.725
888.34
857.981
830.265
804.155
779.54
754.582
730.131
704.091
677.906
649.716
621.043
590.831
560.313
529.66
499.803
471.963
447.238
426.215
379.235
391.404
427.893
502.46
606.1
702.393
760.402
778.371
772.755
759.605
747.064
737.942
732.263
730.12
730.824
734.638
740.75
749.803
760.794
774.898
790.734
810.232
831.344
857.11
884.372
917.891
952.719
996.331
1040.91
1098.27
1155.98
1232.78
1308.96
1414.49
1517.91
1667.35
1812.86
2032.55
2245.85
2578.8
2896.12
3395.17
3838.46
4523.91
5048.81
5842.87
6348.67
7182.98
7827.67
8302.77
8536.48
6275.57
4427.97
1719.77
1123.73
1735.07
2668.5
3082.5
3305.27
3085.47
2940.49
2620.61
2431.58
2173.48
2031.71
1856.99
1765.3
1649.05
1582.95
1497.96
1444.58
1377.51
1328.07
1267.54
1215.76
1157
1104.79
1051.3
1004.6
960.506
922.61
888.246
857.91
830.22
804.135
779.543
754.604
730.17
704.143
677.965
649.777
621.098
590.878
560.346
529.678
499.804
471.951
447.221
426.197
379.282
391.614
428.38
503.153
606.737
702.797
760.578
778.39
772.682
759.49
746.938
737.821
732.155
730.026
730.743
734.569
740.691
749.753
760.75
774.86
790.701
810.203
831.316
857.084
884.347
917.866
952.694
996.305
1040.89
1098.24
1155.95
1232.74
1308.9
1414.4
1517.79
1667.19
1812.64
2032.27
2245.51
2578.4
2895.66
3394.67
3837.91
4523.28
5047.88
5841.56
6346.52
7180.09
7823.27
8298.51
8530.99
6270.38
4425.93
1718.64
1120.45
1729.95
2662.45
3076.38
3299.96
3080.88
2936.52
2617.49
2429.22
2171.64
2030.16
1855.63
1764.11
1648.06
1582.12
1497.29
1444.02
1377.05
1327.69
1267.21
1215.49
1156.78
1104.6
1051.13
1004.44
960.364
922.487
888.145
857.834
830.17
804.111
779.541
754.624
730.208
704.194
678.024
649.839
621.156
590.929
560.382
529.701
499.811
471.945
447.212
426.186
379.331
391.833
428.89
503.877
607.404
703.218
760.759
778.405
772.6
759.363
746.8
737.689
732.036
729.922
730.653
734.491
740.624
749.695
760.7
774.815
790.661
810.166
831.282
857.051
884.315
917.834
952.661
996.271
1040.85
1098.2
1155.91
1232.69
1308.83
1414.3
1517.65
1667
1812.39
2031.96
2245.14
2577.96
2895.17
3394.14
3837.31
4522.59
5046.88
5840.17
6344.26
7177.09
7818.75
8294.17
8525.47
6265.18
4424.01
1717.62
1117.22
1724.84
2656.39
3070.21
3294.58
3076.21
2932.49
2614.32
2426.81
2169.75
2028.57
1854.24
1762.9
1647.04
1581.28
1496.59
1443.44
1376.57
1327.29
1266.88
1215.2
1156.54
1104.4
1050.95
1004.28
960.215
922.357
888.037
857.752
830.116
804.083
779.538
754.642
730.244
704.245
678.084
649.903
621.217
590.983
560.424
529.73
499.824
471.946
447.209
426.181
379.382
392.062
429.421
504.633
608.098
703.656
760.944
778.416
772.51
759.225
746.65
737.546
731.907
729.808
730.554
734.405
740.549
749.63
760.642
774.764
790.615
810.122
831.241
857.011
884.276
917.794
952.621
996.229
1040.81
1098.15
1155.85
1232.62
1308.75
1414.19
1517.49
1666.79
1812.13
2031.63
2244.74
2577.5
2894.65
3393.56
3836.67
4521.86
5045.82
5838.7
6341.91
7173.98
7814.13
8289.77
8519.94
6260.01
4422.25
1716.71
1114.06
1719.78
2650.33
3064.02
3289.15
3071.49
2928.41
2611.1
2424.36
2167.84
2026.96
1852.82
1761.66
1646
1580.41
1495.88
1442.85
1376.08
1326.88
1266.53
1214.91
1156.3
1104.19
1050.76
1004.1
960.058
922.22
887.923
857.665
830.058
804.053
779.532
754.658
730.28
704.296
678.145
649.968
621.28
591.041
560.47
529.764
499.843
471.953
447.214
426.184
379.436
392.301
429.975
505.421
608.821
704.11
761.134
778.423
772.41
759.077
746.489
737.392
731.767
729.685
730.446
734.311
740.467
749.557
760.577
774.705
790.561
810.072
831.193
856.964
884.23
917.747
952.573
996.179
1040.75
1098.1
1155.79
1232.55
1308.65
1414.06
1517.32
1666.57
1811.85
2031.27
2244.31
2577
2894.09
3392.95
3836
4521.08
5044.71
5837.17
6339.47
7170.8
7809.42
8285.35
8514.44
6254.9
4420.68
1715.94
1110.99
1714.79
2644.32
3057.83
3283.7
3066.73
2924.28
2607.84
2421.88
2165.9
2025.31
1851.38
1760.4
1644.94
1579.53
1495.15
1442.24
1375.58
1326.45
1266.17
1214.61
1156.05
1103.97
1050.57
1003.92
959.896
922.077
887.805
857.575
829.997
804.02
779.524
754.674
730.315
704.347
678.207
650.036
621.347
591.104
560.521
529.804
499.868
471.967
447.225
426.193
379.491
392.549
430.551
506.24
609.573
704.581
761.329
778.427
772.302
758.917
746.317
737.227
731.618
729.552
730.329
734.209
740.376
749.476
760.505
774.639
790.5
810.015
831.138
856.91
884.176
917.693
952.518
996.12
1040.69
1098.03
1155.71
1232.46
1308.54
1413.92
1517.14
1666.32
1811.54
2030.9
2243.86
2576.47
2893.5
3392.3
3835.28
4520.26
5043.55
5835.59
6336.96
7167.53
7804.63
8280.92
8509.01
6249.88
4419.33
1715.34
1108.03
1709.91
2638.38
3051.66
3278.24
3061.95
2920.14
2604.57
2419.38
2163.94
2023.65
1849.93
1759.12
1643.87
1578.63
1494.41
1441.63
1375.07
1326.02
1265.8
1214.3
1155.8
1103.75
1050.37
1003.74
959.728
921.93
887.682
857.48
829.932
803.985
779.515
754.688
730.35
704.399
678.27
650.106
621.417
591.17
560.577
529.85
499.9
471.988
447.245
426.209
379.549
392.807
431.15
507.09
610.353
705.069
761.528
778.427
772.186
758.747
746.133
737.051
731.458
729.41
730.204
734.098
740.278
749.388
760.426
774.567
790.433
809.95
831.077
856.849
884.116
917.631
952.455
996.054
1040.62
1097.95
1155.63
1232.36
1308.42
1413.76
1516.93
1666.06
1811.21
2030.49
2243.38
2575.92
2892.88
3391.63
3834.54
4519.41
5042.35
5833.96
6334.38
7164.21
7799.8
8276.5
8503.66
6244.99
4418.24
1714.91
1105.21
1705.14
2632.53
3045.55
3272.8
3057.18
2915.98
2601.28
2416.87
2161.96
2021.98
1848.46
1757.83
1642.78
1577.72
1493.66
1441.01
1374.56
1325.59
1265.43
1213.99
1155.53
1103.53
1050.17
1003.55
959.555
921.778
887.555
857.382
829.866
803.948
779.505
754.702
730.385
704.452
678.335
650.179
621.491
591.242
560.639
529.902
499.938
472.017
447.272
426.232
379.609
393.075
431.771
507.973
611.161
705.573
761.733
778.423
772.061
758.566
745.939
736.864
731.288
729.258
730.07
733.979
740.172
749.293
760.34
774.487
790.359
809.88
831.008
856.782
884.049
917.562
952.385
995.98
1040.54
1097.86
1155.53
1232.25
1308.29
1413.59
1516.72
1665.79
1810.87
2030.07
2242.88
2575.34
2892.23
3390.92
3833.77
4518.53
5041.12
5832.28
6331.75
7160.83
7794.93
8272.13
8498.43
6240.25
4417.43
1714.69
1102.55
1700.52
2626.8
3039.51
3267.39
3052.42
2911.83
2597.99
2414.35
2159.99
2020.3
1846.99
1756.53
1641.68
1576.79
1492.9
1440.38
1374.04
1325.15
1265.06
1213.67
1155.27
1103.3
1049.96
1003.36
959.379
921.623
887.425
857.282
829.797
803.91
779.495
754.716
730.421
704.506
678.402
650.255
621.569
591.318
560.706
529.961
499.984
472.053
447.307
426.263
379.671
393.352
432.414
508.886
611.998
706.094
761.943
778.416
771.927
758.374
745.733
736.667
731.108
729.097
729.927
733.852
740.059
749.191
760.247
774.401
790.278
809.802
830.933
856.707
883.975
917.487
952.308
995.899
1040.46
1097.77
1155.43
1232.13
1308.15
1413.41
1516.49
1665.49
1810.51
2029.63
2242.36
2574.74
2891.56
3390.19
3832.97
4517.62
5039.85
5830.57
6329.07
7157.42
7790.03
8267.81
8493.36
6235.71
4416.93
1714.68
1100.05
1696.07
2621.22
3033.57
3262.04
3047.69
2907.69
2594.71
2411.84
2158.01
2018.62
1845.51
1755.23
1640.57
1575.87
1492.14
1439.75
1373.52
1324.7
1264.68
1213.35
1155
1103.07
1049.75
1003.16
959.2
921.464
887.292
857.179
829.728
803.872
779.484
754.73
730.457
704.561
678.472
650.334
621.651
591.399
560.779
530.026
500.036
472.096
447.35
426.301
379.735
393.639
433.08
509.832
612.863
706.632
762.157
778.406
771.785
758.172
745.516
736.459
730.917
728.927
729.775
733.717
739.938
749.081
760.146
774.308
790.19
809.718
830.852
856.627
883.894
917.405
952.224
995.81
1040.36
1097.67
1155.32
1232
1307.99
1413.21
1516.24
1665.18
1810.13
2029.17
2241.81
2574.11
2890.86
3389.44
3832.15
4516.7
5038.57
5828.83
6326.35
7153.97
7785.14
8263.56
8488.45
6231.39
4416.79
1714.91
1097.76
1691.82
2615.8
3027.76
3256.77
3043
2903.58
2591.45
2409.34
2156.04
2016.95
1844.04
1753.93
1639.47
1574.94
1491.38
1439.12
1372.99
1324.26
1264.3
1213.04
1154.74
1102.84
1049.54
1002.96
959.018
921.303
887.158
857.075
829.657
803.832
779.473
754.745
730.495
704.618
678.544
650.416
621.737
591.486
560.859
530.098
500.095
472.147
447.402
426.347
379.801
393.936
433.768
510.809
613.757
707.187
762.377
778.392
771.635
757.959
745.288
736.24
730.717
728.748
729.615
733.573
739.809
748.964
760.039
774.208
790.096
809.628
830.764
856.539
883.807
917.315
952.132
995.714
1040.26
1097.56
1155.19
1231.86
1307.82
1413
1515.98
1664.86
1809.73
2028.69
2241.25
2573.46
2890.15
3388.66
3831.32
4515.75
5037.26
5827.07
6323.6
7150.51
7780.25
8259.41
8483.75
6227.31
4417.01
1715.4
1095.67
1687.77
2610.59
3022.09
3251.59
3038.38
2899.51
2588.22
2406.85
2154.08
2015.28
1842.57
1752.63
1638.36
1574.01
1490.62
1438.49
1372.47
1323.82
1263.93
1212.72
1154.47
1102.6
1049.33
1002.76
958.834
921.141
887.021
856.97
829.585
803.793
779.463
754.76
730.534
704.677
678.618
650.501
621.828
591.577
560.944
530.176
500.162
472.206
447.461
426.4
379.87
394.243
434.479
511.817
614.68
707.759
762.602
778.376
771.477
757.737
745.049
736.01
730.507
728.559
729.446
733.422
739.673
748.84
759.925
774.102
789.996
809.531
830.67
856.446
883.713
917.22
952.034
995.61
1040.15
1097.44
1155.06
1231.71
1307.65
1412.78
1515.71
1664.52
1809.32
2028.19
2240.67
2572.79
2889.41
3387.87
3830.46
4514.8
5035.94
5825.29
6320.82
7147.04
7775.39
8255.38
8479.26
6223.5
4417.63
1716.16
1093.82
1683.96
2605.58
3016.58
3246.52
3033.84
2895.49
2585.03
2404.39
2152.14
2013.62
1841.11
1751.34
1637.26
1573.08
1489.85
1437.86
1371.96
1323.38
1263.55
1212.4
1154.21
1102.37
1049.11
1002.56
958.65
920.977
886.884
856.865
829.514
803.754
779.454
754.777
730.575
704.738
678.695
650.59
621.923
591.674
561.035
530.262
500.237
472.272
447.529
426.462
379.941
394.56
435.213
512.858
615.631
708.349
762.833
778.356
771.311
757.503
744.8
735.77
730.287
728.361
729.269
733.263
739.529
748.709
759.804
773.989
789.889
809.428
830.569
856.345
883.613
917.117
951.929
995.5
1040.04
1097.31
1154.92
1231.55
1307.46
1412.55
1515.43
1664.17
1808.89
2027.67
2240.07
2572.11
2888.65
3387.06
3829.6
4513.83
5034.62
5823.51
6318.03
7143.58
7770.57
8251.48
8475.03
6219.99
4418.68
1717.21
1092.21
1680.4
2600.81
3011.25
3241.57
3029.38
2891.54
2581.88
2401.97
2150.22
2011.99
1839.67
1750.05
1636.16
1572.15
1489.1
1437.24
1371.44
1322.94
1263.18
1212.09
1153.94
1102.14
1048.9
1002.36
958.465
920.813
886.746
856.759
829.443
803.716
779.445
754.795
730.617
704.801
678.776
650.683
622.023
591.777
561.133
530.355
500.319
472.347
447.606
426.531
380.014
394.887
435.969
513.93
616.61
708.955
763.069
778.333
771.137
757.26
744.539
735.52
730.057
728.154
729.083
733.096
739.378
748.571
759.677
773.869
789.775
809.318
830.462
856.239
883.506
917.008
951.817
995.382
1039.91
1097.17
1154.77
1231.38
1307.26
1412.31
1515.13
1663.8
1808.45
2027.14
2239.45
2571.4
2887.88
3386.24
3828.72
4512.86
5033.29
5821.71
6315.23
7140.12
7765.79
8247.72
8471.06
6216.8
4420.17
1718.56
1090.87
1677.1
2596.3
3006.12
3236.77
3025.02
2887.66
2578.78
2399.58
2148.33
2010.37
1838.24
1748.78
1635.07
1571.23
1488.35
1436.62
1370.93
1322.51
1262.81
1211.78
1153.68
1101.91
1048.69
1002.16
958.28
920.648
886.608
856.653
829.372
803.679
779.438
754.815
730.662
704.867
678.859
650.78
622.127
591.886
561.238
530.455
500.408
472.43
447.691
426.608
380.089
395.223
436.748
515.033
617.619
709.578
763.31
778.308
770.956
757.006
744.268
735.259
729.818
727.937
728.889
732.921
739.219
748.426
759.543
773.743
789.656
809.202
830.349
856.126
883.393
916.893
951.699
995.258
1039.78
1097.03
1154.62
1231.2
1307.05
1412.06
1514.83
1663.43
1808
2026.59
2238.81
2570.68
2887.1
3385.4
3827.84
4511.88
5031.95
5819.92
6312.43
7136.67
7761.08
8244.12
8467.37
6213.96
4422.14
1720.24
1089.81
1674.09
2592.05
3001.21
3232.13
3020.78
2883.86
2575.75
2397.23
2146.47
2008.78
1836.84
1747.52
1633.99
1570.32
1487.61
1436.02
1370.43
1322.08
1262.45
1211.47
1153.43
1101.68
1048.48
1001.96
958.096
920.484
886.471
856.547
829.302
803.643
779.433
754.837
730.709
704.936
678.946
650.881
622.237
592
561.349
530.562
500.506
472.522
447.785
426.694
380.167
395.57
437.55
516.169
618.656
710.219
763.558
778.28
770.767
756.743
743.986
734.988
729.568
727.712
728.687
732.738
739.053
748.273
759.402
773.61
789.53
809.08
830.23
856.007
883.274
916.771
951.574
995.127
1039.64
1096.88
1154.45
1231.01
1306.84
1411.8
1514.51
1663.03
1807.53
2026.03
2238.16
2569.94
2886.3
3384.55
3826.95
4510.91
5030.63
5818.13
6309.63
7133.26
7756.43
8240.69
8464
6211.48
4424.6
1722.25
1089.04
1671.38
2588.1
2996.53
3227.65
3016.65
2880.14
2572.78
2394.93
2144.65
2007.22
1835.45
1746.28
1632.92
1569.42
1486.88
1435.42
1369.94
1321.66
1262.1
1211.17
1153.18
1101.46
1048.27
1001.76
957.913
920.321
886.334
856.443
829.234
803.608
779.429
754.861
730.759
705.007
679.037
650.986
622.352
592.12
561.467
530.677
500.611
472.622
447.888
426.788
380.246
395.927
438.375
517.337
619.721
710.877
763.811
778.25
770.57
756.47
743.694
734.706
729.31
727.478
728.476
732.547
738.88
748.114
759.254
773.471
789.397
808.952
830.105
855.882
883.149
916.643
951.443
994.989
1039.5
1096.72