/*--------------------------------*- C++ -*----------------------------------*\
| =========                 |                                                 |
| \\      /  F ield         | OpenFOAM: The Open Source CFD Toolbox           |
|  \\    /   O peration     | Version:  2412                                  |
|   \\  /    A nd           | Website:  www.openfoam.com                      |
|    \\/     M anipulation  |                                                 |
\*---------------------------------------------------------------------------*/
FoamFile
{
    version     2.0;
    format      ascii;
    arch        "LSB;label=32;scalar=64";
    class       volScalarField;
    location    "0.3";
    object      k;
}
// * * * * * * * * * * * * * * * * * * * * * * * * * * * * * * * * * * * * * //

dimensions      [0 2 -2 0 0 0 0];

internalField   nonuniform List<scalar> 
13068
(
37.6718
38.5452
40.8334
44.9546
49.9042
53.7451
55.5009
55.6318
55.0642
54.4299
53.9472
53.6457
53.4854
53.4605
53.5387
53.7348
54.0124
54.4032
54.8596
55.4361
56.066
56.8357
57.6471
58.6328
59.6447
60.8849
62.1288
63.6836
65.2078
67.1672
69.0435
71.5448
73.891
77.1445
80.1229
84.4163
88.2738
94.0626
99.1772
107.059
113.78
124.171
132.277
144.717
152.919
165.701
172.63
185.055
193.504
199.166
201.354
164.656
134.011
71.5931
63.8619
86.1506
109.214
117.161
120.97
115.51
112.567
105.135
101.154
94.9279
91.8903
87.4594
85.365
82.1576
80.5056
78.0599
76.6416
74.6234
73.2004
71.3099
69.7252
67.8322
66.1714
64.4177
62.8945
61.4148
60.134
58.9417
57.8677
56.8626
55.8899
54.9563
53.9821
53.0155
51.9601
50.8895
49.7111
48.4992
47.195
45.8572
44.4898
43.1378
41.8688
40.7371
39.7637
37.6721
38.5461
40.8349
44.9561
49.9056
53.7473
55.5044
55.636
55.0686
54.4341
53.9511
53.6495
53.4891
53.4642
53.5424
53.7386
54.0162
54.407
54.8635
55.44
56.0701
56.8399
57.6514
58.6372
59.6493
60.8897
62.1339
63.689
65.2136
67.1736
69.0505
71.5524
73.8991
77.1529
80.1316
84.4255
88.2837
94.0733
99.1889
107.072
113.795
124.188
132.297
144.74
152.945
165.728
172.657
185.08
193.526
199.19
201.374
164.682
134.048
71.6097
63.8653
86.148
109.216
117.169
120.985
115.522
112.576
105.143
101.164
94.9388
91.8999
87.4669
85.3722
82.1656
80.5136
78.0674
76.6489
74.6309
73.2081
71.3174
69.7324
67.8391
66.1779
64.4238
62.9003
61.4203
60.1393
58.9467
57.8726
56.8674
55.8948
54.9611
53.9868
53.0201
51.9643
50.893
49.7137
48.5006
47.1951
45.8557
44.4869
43.1334
41.863
40.7304
39.7575
37.6725
38.5476
40.8376
44.959
49.9081
53.7501
55.508
55.6402
55.0728
54.4382
53.9551
53.6533
53.4929
53.468
53.5461
53.7423
54.02
54.4109
54.8675
55.4441
56.0742
56.8442
57.6558
58.6418
59.654
60.8947
62.1391
63.6945
65.2196
67.1801
69.0576
71.5602
73.9072
77.1614
80.1404
84.4348
88.2935
94.0839
99.2005
107.085
113.81
124.205
132.317
144.763
152.97
165.754
172.683
185.103
193.546
199.211
201.39
164.703
134.082
71.6217
63.8602
86.1371
109.211
117.171
120.994
115.529
112.581
105.149
101.173
94.9475
91.9076
87.4727
85.378
82.1723
80.5206
78.0742
76.6555
74.6379
73.2153
71.3246
69.7392
67.8457
66.1842
64.4297
62.9059
61.4257
60.1444
58.9517
57.8775
56.8722
55.8996
54.966
53.9917
53.0247
51.9686
50.8966
49.7165
48.5022
47.1954
45.8545
44.4843
43.1294
41.8576
40.7241
39.7516
37.673
38.5498
40.8416
44.9635
49.9118
53.7534
55.5117
55.6442
55.0768
54.442
53.9587
53.6568
53.4964
53.4715
53.5497
53.7459
54.0237
54.4146
54.8713
55.448
56.0783
56.8483
57.6601
58.6462
59.6587
60.8995
62.1441
63.6999
65.2253
67.1864
69.0646
71.5677
73.9151
77.1695
80.1488
84.4436
88.3028
94.094
99.2114
107.097
113.824
124.221
132.335
144.784
152.994
165.778
172.706
185.123
193.561
199.228
201.4
164.717
134.111
71.6284
63.8463
86.1177
109.199
117.165
120.997
115.53
112.581
105.15
101.177
94.9535
91.9129
87.4764
85.3819
82.1773
80.526
78.0797
76.661
74.6439
73.2215
71.3309
69.7454
67.8516
66.19
64.4352
62.9109
61.4306
60.1492
58.9563
57.882
56.8767
55.9042
54.9706
53.9964
53.0293
51.9729
50.9003
49.7194
48.5039
47.1959
45.8535
44.4819
43.1256
41.8524
40.7181
39.7459
37.6738
38.5526
40.847
44.9697
49.9167
53.7572
55.5152
55.6478
55.0803
54.4453
53.9619
53.66
53.4996
53.4747
53.5529
53.7493
54.0271
54.4181
54.8749
55.4517
56.0821
56.8523
57.6642
58.6504
59.663
60.904
62.1489
63.705
65.2308
67.1924
69.0711
71.5747
73.9225
77.1771
80.1566
84.4517
88.3113
94.103
99.2213
107.108
113.836
124.236
132.352
144.803
153.015
165.8
172.726
185.139
193.571
199.24
201.405
164.724
134.134
71.6299
63.8237
86.0898
109.179
117.152
120.993
115.526
112.575
105.148
101.179
94.9564
91.9153
87.4776
85.3835
82.1804
80.5298
78.0836
76.6652
74.6487
73.2267
71.3362
69.7506
67.8568
66.195
64.4399
62.9154
61.4349
60.1534
58.9604
57.8861
56.8809
55.9085
54.975
54.0009
53.0337
51.9771
50.9038
49.7222
48.5056
47.1965
45.8526
44.4796
43.1219
41.8475
40.7124
39.7406
37.6747
38.5561
40.8538
44.9774
49.9227
53.7613
55.5186
55.651
55.0834
54.4482
53.9646
53.6628
53.5024
53.4776
53.5559
53.7523
54.0302
54.4213
54.8782
55.4552
56.0857
56.8559
57.668
58.6543
59.6671
60.9083
62.1534
63.7098
65.2359
67.198
69.0772
71.5813
73.9293
77.184
80.1637
84.4589
88.3189
94.1111
99.2299
107.118
113.847
124.249
132.367
144.82
153.033
165.818
172.742
185.151
193.576
199.247
201.404
164.723
134.153
71.6261
63.7926
86.0535
109.151
117.132
120.983
115.515
112.565
105.141
101.177
94.9561
91.915
87.4762
85.3829
82.1815
80.5318
78.086
76.6679
74.6522
73.2308
71.3405
69.7549
67.8612
66.1993
64.4439
62.9192
61.4386
60.157
58.964
57.8897
56.8846
55.9124
54.9791
54.0051
53.0379
51.9811
50.9073
49.725
48.5072
47.197
45.8518
44.4775
43.1184
41.8428
40.7069
39.7354
37.6758
38.5603
40.8619
44.9868
49.9299
53.7659
55.5219
55.6538
55.0859
54.4505
53.9669
53.6651
53.5048
53.48
53.5585
53.755
54.033
54.4243
54.8813
55.4583
56.0889
56.8593
57.6715
58.658
59.6709
60.9122
62.1575
63.7142
65.2407
67.2032
69.0829
71.5874
73.9355
77.1903
80.17
84.4654
88.3256
94.118
99.2374
107.126
113.857
124.26
132.38
144.835
153.049
165.833
172.754
185.159
193.576
199.248
201.396
164.714
134.166
71.6173
63.7533
86.0091
109.115
117.104
120.966
115.499
112.55
105.129
101.171
94.9527
91.9119
87.4724
85.38
82.1805
80.5319
78.0867
76.6693
74.6544
73.2337
71.3437
69.7582
67.8646
66.2027
64.4472
62.9223
61.4416
60.1601
58.9671
57.8928
56.8879
55.9159
54.9828
54.0091
53.0418
51.9849
50.9106
49.7277
48.5089
47.1976
45.851
44.4755
43.1151
41.8383
40.7017
39.7306
37.677
38.5652
40.8714
44.9978
49.9383
53.7709
55.525
55.6562
55.0879
54.4523
53.9687
53.6669
53.5068
53.4822
53.5607
53.7573
54.0355
54.4269
54.884
55.4612
56.0919
56.8624
57.6747
58.6613
59.6743
60.9158
62.1613
63.7182
65.245
67.2079
69.088
71.5929
73.9412
77.196
80.1756
84.471
88.3312
94.1239
99.2436
107.133
113.865
124.269
132.391
144.848
153.062
165.845
172.762
185.163
193.57
199.244
201.382
164.699
134.175
71.6037
63.7061
85.9568
109.072
117.069
120.943
115.477
112.529
105.114
101.161
94.9462
91.906
87.4661
85.3749
82.1776
80.5304
78.086
76.6692
74.6554
73.2354
71.3459
69.7606
67.8672
66.2054
64.4498
62.9247
61.444
60.1625
58.9696
57.8955
56.8908
55.9191
54.9863
54.0127
53.0455
51.9885
50.9138
49.7303
48.5105
47.1983
45.8504
44.4736
43.1119
41.834
40.6968
39.7259
37.6784
38.5708
40.8822
45.0105
49.9478
53.7763
55.528
55.6581
55.0894
54.4536
53.97
53.6684
53.5083
53.4839
53.5626
53.7594
54.0377
54.4292
54.8864
55.4637
56.0946
56.8652
57.6776
58.6643
59.6775
60.9191
62.1648
63.7218
65.2489
67.2122
69.0927
71.5979
73.9463
77.201
80.1804
84.4758
88.336
94.1288
99.2486
107.138
113.871
124.277
132.4
144.858
153.072
165.854
172.766
185.162
193.56
199.235
201.362
164.677
134.179
71.5856
63.6513
85.8971
109.022
117.027
120.913
115.45
112.504
105.094
101.148
94.9367
91.8975
87.4573
85.3677
82.1726
80.527
78.0837
76.6678
74.6551
73.236
71.347
69.7621
67.869
66.2073
64.4516
62.9264
61.4457
60.1644
58.9716
57.8977
56.8933
55.922
54.9894
54.0161
53.049
51.992
50.9169
49.7328
48.5121
47.1989
45.8497
44.4718
43.1089
41.83
40.6921
39.7215
37.68
38.577
40.8944
45.0247
49.9585
53.782
55.5308
55.6596
55.0903
54.4544
53.9709
53.6694
53.5095
53.4853
53.5641
53.7611
54.0396
54.4312
54.8886
55.466
56.097
56.8677
57.6802
58.667
59.6803
60.922
62.1679
63.7251
65.2525
67.216
69.0969
71.6024
73.9508
77.2054
80.1846
84.4797
88.3398
94.1325
99.2525
107.143
113.876
124.283
132.407
144.867
153.08
165.86
172.767
185.157
193.544
199.222
201.337
164.648
134.179
71.5634
63.5894
85.8302
108.965
116.979
120.878
115.417
112.474
105.07
101.132
94.9243
91.8863
87.4463
85.3583
82.1658
80.5221
78.0799
76.6651
74.6536
73.2355
71.3471
69.7626
67.87
66.2085
64.4528
62.9275
61.4469
60.1657
58.9731
57.8995
56.8954
55.9244
54.9922
54.0193
53.0523
51.9953
50.9199
49.7353
48.5137
47.1996
45.8492
44.4702
43.1061
41.8261
40.6877
39.7174
37.6818
38.5839
40.9079
45.0405
49.9703
53.7882
55.5335
55.6608
55.0908
54.4547
53.9712
53.6699
53.5103
53.4863
53.5653
53.7625
54.0411
54.4329
54.8904
55.468
56.0991
56.8699
57.6825
58.6694
59.6828
60.9246
62.1706
63.728
65.2556
67.2194
69.1007
71.6064
73.9547
77.2091
80.188
84.4829
88.3427
94.1353
99.2552
107.145
113.879
124.287
132.412
144.873
153.085
165.863
172.764
185.149
193.524
199.203
201.306
164.613
134.175
71.5374
63.5208
85.7568
108.902
116.925
120.837
115.379
112.44
105.043
101.113
94.9091
91.8726
87.4329
85.3469
82.1572
80.5154
78.0747
76.6611
74.651
73.2339
71.3463
69.7623
67.8701
66.2089
64.4532
62.9279
61.4474
60.1665
58.9741
57.9008
56.8971
55.9266
54.9948
54.0222
53.0554
51.9985
50.9227
49.7378
48.5153
47.2004
45.8488
44.4687
43.1035
41.8224
40.6835
39.7135
37.6837
38.5915
40.9228
45.058
49.9832
53.7948
55.5361
55.6615
55.0908
54.4545
53.9711
53.67
53.5107
53.4869
53.5662
53.7635
54.0423
54.4343
54.892
55.4697
56.1009
56.8718
57.6845
58.6715
59.685
60.9269
62.173
63.7306
65.2584
67.2225
69.104
71.6098
73.9581
77.2122
80.1907
84.4852
88.3447
94.137
99.2567
107.147
113.881
124.29
132.416
144.877
153.088
165.863
172.758
185.137
193.499
199.18
201.271
164.572
134.168
71.5081
63.4461
85.6771
108.833
116.864
120.791
115.336
112.401
105.012
101.09
94.8912
91.8565
87.4174
85.3335
82.1468
80.5072
78.0681
76.6558
74.6473
73.2314
71.3445
69.7611
67.8695
66.2087
64.4531
62.9277
61.4474
60.1667
58.9747
57.9017
56.8985
55.9284
54.9971
54.0249
53.0584
52.0015
50.9255
49.7401
48.5169
47.2012
45.8485
44.4673
43.101
41.819
40.6796
39.7098
37.6858
38.5998
40.939
45.077
49.9973
53.8018
55.5385
55.6618
55.0902
54.4538
53.9705
53.6697
53.5106
53.4871
53.5667
53.7642
54.0433
54.4354
54.8933
55.4711
56.1024
56.8734
57.6862
58.6733
59.6869
60.9289
62.1751
63.7328
65.2607
67.225
69.1068
71.6128
73.9609
77.2146
80.1927
84.4868
88.3458
94.1378
99.2572
107.148
113.882
124.292
132.417
144.88
153.088
165.861
172.748
185.121
193.47
199.153
201.231
164.526
134.158
71.476
63.3658
85.5918
108.758
116.798
120.739
115.288
112.358
104.977
101.065
94.8707
91.8382
87.3999
85.3183
82.1347
80.4976
78.0602
76.6494
74.6425
73.2278
71.3419
69.7591
67.8682
66.2077
64.4522
62.927
61.4469
60.1665
58.9747
57.9023
56.8995
55.93
54.9991
54.0274
53.0611
52.0044
50.9282
49.7425
48.5186
47.202
45.8483
44.4661
43.0987
41.8158
40.6759
39.7064
37.688
38.6087
40.9566
45.0976
50.0124
53.8092
55.5408
55.6616
55.0892
54.4526
53.9695
53.6689
53.5102
53.487
53.5668
53.7646
54.0439
54.4362
54.8942
55.4722
56.1036
56.8748
57.6877
58.6748
59.6884
60.9305
62.1769
63.7347
65.2627
67.2272
69.1092
71.6152
73.9632
77.2165
80.1941
84.4876
88.3461
94.1375
99.2565
107.147
113.881
124.291
132.418
144.88
153.086
165.856
172.735
185.102
193.436
199.122
201.186
164.475
134.145
71.4415
63.2804
85.5013
108.678
116.727
120.683
115.237
112.311
104.939
101.036
94.8478
91.8176
87.3804
85.3012
82.121
80.4864
78.051
76.6419
74.6367
73.2234
71.3384
69.7564
67.8662
66.2062
64.4508
62.9256
61.4458
60.1657
58.9744
57.9024
56.9001
55.9312
55.0008
54.0296
53.0637
52.0072
50.9309
49.7448
48.5202
47.203
45.8482
44.4651
43.0966
41.8129
40.6726
39.7032
37.6905
38.6183
40.9755
45.1198
50.0287
53.817
55.5429
55.6611
55.0877
54.4508
53.9679
53.6677
53.5094
53.4865
53.5666
53.7647
54.0442
54.4367
54.8949
55.473
56.1046
56.8758
57.6888
58.676
59.6897
60.9319
62.1783
63.7362
65.2644
67.229
69.1111
71.6172
73.9649
77.2177
80.1947
84.4876
88.3455
94.1364
99.2548
107.145
113.879
124.29
132.416
144.879
153.082
165.849
172.719
185.079
193.399
199.087
201.138
164.419
134.131
71.4052
63.1906
85.4063
108.593
116.651
120.622
115.181
112.26
104.899
101.006
94.8227
91.795
87.359
85.2825
82.1058
80.4739
78.0406
76.6334
74.63
73.218
71.3341
69.7529
67.8635
66.204
64.4489
62.9238
61.4442
60.1645
58.9736
57.9022
56.9005
55.9322
55.0024
54.0317
53.0661
52.0098
50.9334
49.7472
48.5219
47.204
45.8482
44.4642
43.0947
41.8101
40.6695
39.7004
37.6931
38.6286
40.9957
45.1435
50.0461
53.8251
55.5449
55.6602
55.0857
54.4486
53.9659
53.6661
53.5081
53.4856
53.5661
53.7644
54.0442
54.4369
54.8953
55.4735
56.1053
56.8766
57.6897
58.6769
59.6907
60.9329
62.1794
63.7374
65.2656
67.2304
69.1126
71.6187
73.9661
77.2184
80.1948
84.4869
88.3441
94.1343
99.2521
107.142
113.876
124.287
132.414
144.876
153.076
165.839
172.701
185.054
193.358
199.05
201.086
164.359
134.115
71.3675
63.0969
85.3073
108.504
116.571
120.557
115.121
112.206
104.855
100.972
94.7954
91.7705
87.336
85.2622
82.0891
80.4602
78.0291
76.6238
74.6223
73.2118
71.329
69.7487
67.8602
66.2013
64.4464
62.9214
61.4421
60.1629
58.9724
57.9016
56.9005
55.9329
55.0037
54.0335
53.0684
52.0124
50.936
49.7495
48.5237
47.2051
45.8484
44.4635
43.0931
41.8077
40.6667
39.6977
37.6958
38.6395
41.0172
45.1688
50.0646
53.8337
55.5468
55.6589
55.0831
54.4459
53.9635
53.6641
53.5065
53.4844
53.5652
53.7638
54.0438
54.4368
54.8954
55.4738
56.1056
56.8771
57.6902
58.6775
59.6914
60.9336
62.1802
63.7382
65.2666
67.2314
69.1137
71.6197
73.9668
77.2185
80.1942
84.4855
88.3419
94.1313
99.2485
107.138
113.872
124.283
132.409
144.871
153.068
165.827
172.679
185.025
193.313
199.009
201.031
164.297
134.099
71.3291
63.0002
85.2049
108.412
116.486
120.489
115.058
112.149
104.808
100.937
94.7661
91.7442
87.3113
85.2404
82.0711
80.4452
78.0166
76.6133
74.6138
73.2048
71.3232
69.7439
67.8563
66.198
64.4433
62.9185
61.4396
60.1608
58.9709
57.9007
56.9003
55.9334
55.0048
54.0353
53.0706
52.0149
50.9385
49.7518
48.5255
47.2063
45.8487
44.463
43.0916
41.8055
40.6642
39.6954
37.6988
38.6512
41.0401
45.1957
50.0842
53.8426
55.5485
55.6572
55.0801
54.4427
53.9605
53.6616
53.5045
53.4828
53.5639
53.7629
54.0432
54.4364
54.8952
55.4738
56.1058
56.8773
57.6905
58.6779
59.6918
60.9341
62.1807
63.7387
65.2671
67.232
69.1144
71.6202
73.967
77.2181
80.1929
84.4835
88.3389
94.1275
99.2438
107.133
113.866
124.278
132.404
144.865
153.058
165.813
172.655
184.994
193.265
198.965
200.974
164.231
134.082
71.2904
62.9009
85.0997
108.317
116.399
120.416
114.991
112.09
104.759
100.899
94.7349
91.7163
87.2851
85.2173
82.0518
80.429
78.0031
76.6019
74.6046
73.1971
71.3167
69.7385
67.8519
66.1942
64.4398
62.9152
61.4366
60.1583
58.969
57.8995
56.8998
55.9336
55.0057
54.0368
53.0726
52.0173
50.9409
49.7542
48.5274
47.2077
45.8492
44.4627
43.0904
41.8035
40.662
39.6933
37.7019
38.6635
41.0643
45.2241
50.1049
53.8519
55.5501
55.6551
55.0767
54.439
53.9571
53.6586
53.502
53.4808
53.5623
53.7617
54.0423
54.4357
54.8947
55.4735
56.1056
56.8772
57.6905
58.6779
59.6919
60.9342
62.1808
63.7389
65.2673
67.2322
69.1146
71.6203
73.9667
77.2171
80.1911
84.4807
88.3352
94.1228
99.2383
107.127
113.86
124.271
132.397
144.858
153.046
165.797
172.629
184.96
193.215
198.919
200.914
164.162
134.065
71.2521
62.7999
84.9924
108.218
116.308
120.341
114.922
112.027
104.708
100.86
94.7022
91.6868
87.2575
85.1928
82.0313
80.4119
77.9886
76.5898
74.5946
73.1887
71.3096
69.7325
67.8469
66.1899
64.4359
62.9115
61.4332
60.1555
58.9668
57.8979
56.8991
55.9337
55.0065
54.0383
53.0746
52.0196
50.9434
49.7566
48.5294
47.2092
45.8499
44.4626
43.0895
41.8019
40.6601
39.6916
37.7052
38.6764
41.0898
45.2541
50.1266
53.8616
55.5516
55.6526
55.0727
54.4348
53.9533
53.6553
53.4992
53.4784
53.5604
53.7601
54.041
54.4348
54.894
55.4729
56.1051
56.8769
57.6903
58.6777
59.6917
60.934
62.1807
63.7388
65.2672
67.2321
69.1144
71.62
73.9659
77.2156
80.1887
84.4773
88.3307
94.1173
99.2318
107.119
113.852
124.263
132.389
144.849
153.033
165.779
172.6
184.924
193.162
198.871
200.852
164.092
134.049
71.2148
62.6978
84.8836
108.118
116.215
120.264
114.85
111.962
104.655
100.818
94.6678
91.6559
87.2287
85.1672
82.0097
80.3937
77.9733
76.5769
74.5839
73.1797
71.3019
69.726
67.8415
66.1852
64.4315
62.9073
61.4295
60.1523
58.9642
57.8962
56.8982
55.9336
55.0071
54.0396
53.0765
52.0219
50.9458
49.759
48.5314
47.2108
45.8507
44.4627
43.0888
41.8005
40.6586
39.6901
37.7086
38.69
41.1166
45.2856
50.1495
53.8716
55.5529
55.6497
55.0682
54.4301
53.9489
53.6515
53.496
53.4757
53.5582
53.7582
54.0395
54.4335
54.8929
55.472
56.1044
56.8762
57.6897
58.6772
59.6912
60.9336
62.1803
63.7383
65.2667
67.2316
69.1139
71.6192
73.9646
77.2135
80.1857
84.4733
88.3256
94.1111
99.2245
107.111
113.844
124.255
132.379
144.839
153.018
165.76
172.57
184.886
193.106
198.821
200.789
164.021
134.035
71.179
62.5952
84.7739
108.017
116.119
120.184
114.776
111.895
104.6
100.776
94.6322
91.6239
87.1988
85.1406
81.9872
80.3747
77.9573
76.5633
74.5726
73.1702
71.2937
69.7191
67.8357
66.1801
64.4268
62.9029
61.4254
60.1488
58.9614
57.8942
56.897
55.9333
55.0076
54.0408
53.0783
52.0242
50.9483
49.7615
48.5336
47.2125
45.8518
44.4631
43.0883
41.7994
40.6574
39.6889
37.7122
38.7043
41.1448
45.3186
50.1734
53.8821
55.5541
55.6465
55.0633
54.4249
53.9441
53.6473
53.4923
53.4726
53.5555
53.756
54.0376
54.4319
54.8916
55.4709
56.1034
56.8754
57.6889
58.6764
59.6905
60.9329
62.1796
63.7375
65.2659
67.2307
69.1129
71.6181
73.9629
77.211
80.1822
84.4686
88.3198
94.1041
99.2165
107.102
113.834
124.245
132.369
144.828
153.002
165.739
172.537
184.846
193.048
198.769
200.725
163.948
134.023
71.1453
62.493
84.6639
107.914
116.022
120.102
114.7
111.827
104.544
100.731
94.5953
91.5907
87.1678
85.113
81.9637
80.3549
77.9406
76.5492
74.5608
73.1601
71.2851
69.7117
67.8295
66.1747
64.4217
62.898
61.421
60.145
58.9583
57.8919
56.8957
55.9328
55.0079
54.0419
53.08
52.0264
50.9508
49.764
48.5359
47.2145
45.853
44.4637
43.0882
41.7986
40.6565
39.6881
37.716
38.7193
41.1743
45.3532
50.1984
53.8929
55.5552
55.6428
55.0579
54.4192
53.9389
53.6426
53.4883
53.4692
53.5526
53.7535
54.0355
54.4301
54.89
55.4695
56.1022
56.8742
57.6878
58.6754
59.6895
60.9318
62.1785
63.7365
65.2648
67.2295
69.1116
71.6165
73.9608
77.208
80.1781
84.4634
88.3133
94.0964
99.2076
107.093
113.824
124.234
132.358
144.816
152.985
165.717
172.503
184.804
192.988
198.717
200.661
163.876
134.013
71.1144
62.3918
84.5544
107.811
115.924
120.018
114.622
111.756
104.486
100.686
94.5574
91.5566
87.1361
85.0846
81.9395
80.3343
77.9232
76.5345
74.5485
73.1496
71.276
69.7039
67.8229
66.1689
64.4163
62.8929
61.4164
60.141
58.955
57.8895
56.8942
55.9322
55.0082
54.0429
53.0817
52.0287
50.9533
49.7666
48.5383
47.2166
45.8545
44.4646
43.0883
41.7982
40.6559
39.6876
37.7199
38.7349
41.205
45.3893
50.2244
53.9041
55.5561
55.6388
55.052
54.413
53.9331
53.6376
53.4839
53.4654
53.5493
53.7507
54.033
54.4279
54.8881
55.4678
56.1007
56.8728
57.6865
58.6741
59.6882
60.9305
62.1772
63.7351
65.2634
67.2279
69.1099
71.6145
73.9582
77.2045
80.1736
84.4576
88.3062
94.088
99.198
107.082
113.812
124.223
132.346
144.802
152.967
165.693
172.467
184.761
192.927
198.664
200.596
163.804
134.006
71.0868
62.2924
84.4459
107.708
115.825
119.934
114.544
111.685
104.428
100.64
94.5187
91.5216
87.1035
85.0554
81.9146
80.3132
77.9054
76.5194
74.5358
73.1387
71.2666
69.6958
67.8161
66.1628
64.4107
62.8875
61.4114
60.1367
58.9515
57.8868
56.8925
55.9315
55.0083
54.0439
53.0834
52.0309
50.9558
49.7693
48.5408
47.2188
45.8561
44.4657
43.0887
41.798
40.6558
39.6874
37.724
38.7512
41.2371
45.4269
50.2515
53.9156
55.557
55.6344
55.0456
54.4064
53.927
53.6321
53.4791
53.4612
53.5457
53.7475
54.0302
54.4255
54.886
55.4658
56.0989
56.8711
57.6849
58.6725
59.6867
60.929
62.1757
63.7335
65.2617
67.2261
69.1079
71.6121
73.9552
77.2005
80.1685
84.4512
88.2985
94.079
99.1877
107.071
113.8
124.211
132.333
144.788
152.947
165.668
172.429
184.716
192.864
198.61
200.531
163.732
134.003
71.063
62.1953
84.339
107.606
115.726
119.848
114.464
111.613
104.368
100.593
94.4792
91.486
87.0704
85.0256
81.889
80.2914
77.887
76.5038
74.5227
73.1274
71.2569
69.6875
67.809
66.1565
64.4048
62.8819
61.4063
60.1321
58.9477
57.884
56.8907
55.9307
55.0084
54.0448
53.085
52.0332
50.9585
49.7721
48.5435
47.2213
45.858
44.4671
43.0894
41.7982
40.656
39.6875
37.7283
38.7682
41.2705
45.466
50.2797
53.9276
55.5577
55.6296
55.0388
54.3993
53.9203
53.6262
53.4739
53.4567
53.5417
53.744
54.0272
54.4228
54.8835
55.4636
56.0968
56.8692
57.6831
58.6707
59.6849
60.9272
62.1738
63.7315
65.2596
67.2239
69.1055
71.6093
73.9518
77.1962
80.163
84.4444
88.2903
94.0693
99.1767
107.059
113.788
124.198
132.319
144.774
152.927
165.643
172.391
184.67
192.8
198.556
200.467
163.662
134.005
71.0437
62.1013
84.2343
107.505
115.627
119.763
114.384
111.54
104.308
100.545
94.4392
91.4498
87.0367
84.9953
81.8629
80.2692
77.8683
76.488
74.5094
73.1159
71.2469
69.6789
67.8016
66.15
64.3986
62.876
61.4009
60.1274
58.9438
57.8811
56.8888
55.9298
55.0085
54.0457
53.0867
52.0354
50.9611
49.7751
48.5464
47.224
45.8602
44.4688
43.0904
41.7988
40.6565
39.688
37.7328
38.7858
41.3052
45.5067
50.3089
53.9399
55.5583
55.6245
55.0315
54.3917
53.9132
53.6198
53.4684
53.4518
53.5374
53.7402
54.0238
54.4198
54.8808
55.4611
56.0945
56.867
57.6809
58.6686
59.6828
60.9251
62.1717
63.7293
65.2573
67.2213
69.1028
71.6062
73.9479
77.1914
80.157
84.437
88.2815
94.059
99.1651
107.046
113.774
124.184
132.305
144.758
152.906
165.616
172.351
184.623
192.736
198.502
200.405
163.594
134.011
71.0294
62.011
84.1325
107.406
115.529
119.677
114.303
111.466
104.247
100.497
94.3987
91.4133
87.0026
84.9646
81.8364
80.2467
77.8493
76.4719
74.4958
73.1041
71.2367
69.6701
67.7941
66.1433
64.3923
62.87
61.3953
60.1225
58.9398
57.878
56.8869
55.9289
55.0084
54.0465
53.0883
52.0377
50.9639
49.7781
48.5494
47.2268
45.8626
44.4707
43.0917
41.7997
40.6575
39.6889
37.7374
38.8041
41.3411
45.5488
50.3391
53.9525
55.5587
55.619
55.0237
54.3836
53.9057
53.6131
53.4624
53.4465
53.5328
53.7361
54.0202
54.4165
54.8779
55.4584
56.092
56.8645
57.6786
58.6663
59.6805
60.9227
62.1693
63.7268
65.2547
67.2185
69.0997
71.6027
73.9438
77.1861
80.1505
84.4291
88.2721
94.0482
99.1529
107.033
113.76
124.17
132.29
144.742
152.884
165.588
172.31
184.575
192.67
198.448
200.343
163.528
134.022
71.0207
61.9251
84.034
107.308
115.432
119.592
114.222
111.392
104.186
100.449
94.3579
91.3764
86.9683
84.9335
81.8096
80.2238
77.83
76.4556
74.482
73.0922
71.2263
69.6612
67.7865
66.1364
64.3859
62.8638
61.3896
60.1175
58.9356
57.8749
56.8848
55.9279
55.0084
54.0474
53.09
52.0401
50.9667
49.7812
48.5526
47.2299
45.8653
44.473
43.0934
41.8009
40.6588
39.6901
37.7422
38.8231
41.3784
45.5924
50.3704
53.9656
55.5591
55.6131
55.0155
54.375
53.8977
53.6059
53.456
53.4409
53.5278
53.7317
54.0162
54.4129
54.8746
55.4554
56.0892
56.8618
57.676
58.6637
59.6779
60.9201
62.1666
63.724
65.2518
67.2154
69.0963
71.5988
73.9392
77.1805
80.1436
84.4208
88.2623
94.0368
99.1401
107.019
113.746
124.155
132.275
144.725
152.861
165.56
172.268
184.527
192.605
198.396
200.284
163.465
134.039
71.018
61.8442
83.9394
107.214
115.337
119.507
114.142
111.319
104.125
100.4
94.3171
91.3394
86.9338
84.9023
81.7825
80.2007
77.8106
76.4391
74.4681
73.0802
71.2158
69.6521
67.7787
66.1295
64.3793
62.8575
61.3838
60.1123
58.9313
57.8716
56.8827
55.9268
55.0083
54.0483
53.0917
52.0425
50.9697
49.7845
48.5559
47.2332
45.8682
44.4756
43.0954
41.8025
40.6606
39.6916
37.7472
38.8427
41.417
45.6375
50.4027
53.979
55.5593
55.6068
55.0068
54.366
53.8892
53.5983
53.4493
53.4349
53.5225
53.727
54.012
54.4091
54.8711
55.4521
56.0861
56.8589
57.6731
58.6609
59.6751
60.9172
62.1637
63.721
65.2486
67.2119
69.0926
71.5946
73.9343
77.1745
80.1364
84.412
88.252
94.025
99.1268
107.005
113.731
124.14
132.259
144.708
152.838
165.532
172.226
184.478
192.539
198.344
200.226
163.405
134.063
71.0219
61.7689
83.8493
107.123
115.243
119.423
114.062
111.245
104.064
100.352
94.2762
91.3023
86.8992
84.8709
81.7553
80.1774
77.791
76.4226
74.4541
73.068
71.2053
69.643
67.7709
66.1224
64.3726
62.8511
61.3779
60.1071
58.9269
57.8683
56.8805
55.9258
55.0083
54.0491
53.0935
52.045
50.9727
49.788
48.5595
47.2368
45.8714
44.4784
43.0977
41.8045
40.6627
39.6936
37.7523
38.863
41.4568
45.6841
50.4361
53.9928
55.5594
55.6002
54.9977
54.3565
53.8804
53.5903
53.4422
53.4286
53.5169
53.722
54.0075
54.405
54.8673
55.4486
56.0828
56.8557
57.67
58.6578
59.6721
60.9141
62.1606
63.7177
65.2452
67.2082
69.0886
71.5901
73.929
77.1681
80.1287
84.4028
88.2412
94.0126
99.113
106.99
113.715
124.124
132.242
144.691
152.815
165.502
172.183
184.429
192.473
198.293
200.171
163.349
134.093
71.0329
61.6997
83.7641
107.035
115.151
119.341
113.983
111.172
104.004
100.304
94.2354
91.2653
86.8647
84.8395
81.7279
80.154
77.7714
76.4061
74.4401
73.0559
71.1947
69.6339
67.7631
66.1153
64.3659
62.8446
61.3719
60.1018
58.9225
57.8649
56.8783
55.9247
55.0082
54.05
53.0953
52.0475
50.9758
49.7915
48.5632
47.2406
45.8749
44.4816
43.1004
41.8069
40.6653
39.6959
37.7576
38.884
41.4979
45.7322
50.4705
54.0069
55.5595
55.5933
54.9881
54.3466
53.871
53.5819
53.4347
53.422
53.5109
53.7166
54.0026
54.4006
54.8633
55.4448
56.0792
56.8523
57.6667
58.6545
59.6688
60.9108
62.1572
63.7142
65.2414
67.2042
69.0843
71.5853
73.9234
77.1614
80.1206
84.3931
88.2299
93.9997
99.0987
106.975
113.699
124.108
132.226
144.673
152.791
165.473
172.139
184.379
192.407
198.244
200.119
163.297
134.131
71.0513
61.6372
83.6842
106.951
115.062
119.26
113.905
111.1
103.944
100.256
94.1949
91.2284
86.8303
84.8081
81.7005
80.1306
77.7518
76.3896
74.4262
73.0437
71.1841
69.6248
67.7552
66.1082
64.3591
62.8381
61.3658
60.0964
58.918
57.8615
56.8761
55.9236
55.0082
54.051
53.0971
52.0502
50.9791
49.7953
48.5672
47.2446
45.8786
44.4852
43.1034
41.8097
40.6682
39.6987
37.7631
38.9056
41.5404
45.7817
50.5059
54.0214
55.5594
55.586
54.9781
54.3362
53.8612
53.5731
53.4268
53.4149
53.5047
53.711
53.9975
54.3959
54.859
55.4408
56.0754
56.8486
57.6631
58.651
59.6652
60.9072
62.1535
63.7104
65.2375
67.2
69.0797
71.5801
73.9175
77.1543
80.1121
84.3831
88.2183
93.9864
99.0839
106.959
113.682
124.091
132.209
144.656
152.768
165.443
172.095
184.329
192.342
198.197
200.07
163.25
134.176
71.0777
61.5819
83.6101
106.872
114.976
119.181
113.828
111.029
103.885
100.208
94.1547
91.1919
86.7961
84.7769
81.6732
80.1072
77.7322
76.3732
74.4123
73.0317
71.1736
69.6157
67.7474
66.1011
64.3524
62.8316
61.3597
60.0909
58.9134
57.8581
56.8739
55.9226
55.0082
54.052
53.099
52.0529
50.9825
49.7992
48.5714
47.2489
45.8827
44.489
43.1069
41.8128
40.6716
39.7018
37.7687
38.9279
41.5841
45.8327
50.5424
54.0363
55.5592
55.5783
54.9676
54.3253
53.851
53.5638
53.4186
53.4076
53.4981
53.705
53.9922
54.391
54.8544
55.4365
56.0713
56.8447
57.6593
58.6472
59.6615
60.9034
62.1497
63.7063
65.2332
67.1954
69.0748
71.5746
73.9112
77.1469
80.1033
84.3727
88.2062
93.9727
99.0688
106.943
113.666
124.074
132.192
144.637
152.744
165.413
172.051
184.28
192.277
198.151
200.025
163.207
134.229
71.1124
61.5342
83.5423
106.797
114.893
119.104
113.752
110.958
103.826
100.161
94.115
91.1556
86.7622
84.7458
81.646
80.084
77.7128
76.3569
74.3986
73.0197
71.1632
69.6068
67.7397
66.094
64.3456
62.825
61.3536
60.0855
58.9089
57.8547
56.8717
55.9215
55.0083
54.053
53.101
52.0557
50.986
49.8032
48.5757
47.2534
45.887
44.4932
43.1106
41.8164
40.6755
39.7053
37.7745
38.9509
41.6291
45.8852
50.5798
54.0515
55.5588
55.5703
54.9567
54.3139
53.8404
53.5542
53.41
53.3999
53.4912
53.6988
53.9865
54.3858
54.8496
55.432
56.0671
56.8405
57.6553
58.6432
59.6575
60.8993
62.1455
63.7021
65.2288
67.1906
69.0696
71.5689
73.9046
77.1391
80.0942
84.3619
88.1938
93.9586
99.0532
106.926
113.648
124.057
132.174
144.619
152.719
165.384
172.007
184.231
192.213
198.108
199.983
163.17
134.29
71.1559
61.4946
83.481
106.727
114.814
119.029
113.679
110.889
103.769
100.115
94.0758
91.1199
86.7287
84.7151
81.619
80.0609
77.6936
76.3409
74.385
73.0079
71.1529
69.5979
67.732
66.087
64.3388
62.8185
61.3475
60.08
58.9043
57.8513
56.8696
55.9206
55.0084
54.0542
53.1031
52.0587
50.9897
49.8075
48.5803
47.2583
45.8917
44.4978
43.1148
41.8203
40.6798
39.7092
37.7805
38.9745
41.6753
45.9392
50.6183
54.0671
55.5584
55.5619
54.9453
54.3021
53.8293
53.5442
53.401
53.3918
53.4839
53.6923
53.9806
54.3804
54.8446
55.4273
56.0625
56.8362
57.651
58.6389
59.6533
60.8951
62.1412
63.6975
65.2241
67.1855
69.0641
71.5628
73.8978
77.131
80.0847
84.3508
88.181
93.9441
99.0372
106.909
113.631
124.04
132.157
144.601
152.695
165.354
171.963
184.182
192.15
198.067
199.945
163.139
134.361
71.2085
61.4636
83.4266
106.663
114.739
118.957
113.607
110.821
103.713
100.07
94.0373
91.0846
86.6957
84.6846
81.5922
80.038
77.6746
76.325
74.3716
72.9962
71.1427
69.5892
67.7245
66.0801
64.3322
62.812
61.3414
60.0746
58.8998
57.8479
56.8674
55.9196
55.0086
54.0554
53.1053
52.0617
50.9935
49.8119
48.5852
47.2633
45.8967
44.5027
43.1193
41.8247
40.6845
39.7135
37.7867
38.9988
41.7229
45.9946
50.6578
54.0831
55.5579
55.5533
54.9335
54.2899
53.8178
53.5337
53.3916
53.3834
53.4764
53.6854
53.9743
54.3746
54.8393
55.4223
56.0578
56.8315
57.6465
58.6345
59.6488
60.8906
62.1366
63.6928
65.2191
67.1802
69.0584
71.5565
73.8906
77.1227
80.0749
84.3393
88.1678
93.9293
99.0209
106.892
113.613
124.022
132.14
144.583
152.671
165.324
171.919
184.133
192.088
198.028
199.911
163.113
134.44
71.2706
61.4414
83.3795
106.604
114.667
118.888
113.537
110.755
103.657
100.025
93.9995
91.05
86.6631
84.6546
81.5657
80.0153
77.6558
76.3094
74.3585
72.9847
71.1328
69.5806
67.7171
66.0733
64.3256
62.8055
61.3353
60.0691
58.8953
57.8445
56.8654
55.9188
55.0089
54.0566
53.1076
52.0649
50.9975
49.8165
48.5902
47.2687
45.902
44.5079
43.1242
41.8295
40.6896
39.7183
37.793
39.0238
41.7717
46.0514
50.6983
54.0995
55.5574
55.5442
54.9213
54.2772
53.8059
53.5229
53.3819
53.3747
53.4685
53.6783
53.9678
54.3686
54.8337
55.417
56.0528
56.8267
57.6418