/*--------------------------------*- C++ -*----------------------------------*\
| =========                 |                                                 |
| \\      /  F ield         | OpenFOAM: The Open Source CFD Toolbox           |
|  \\    /   O peration     | Version:  2412                                  |
|   \\  /    A nd           | Website:  www.openfoam.com                      |
|    \\/     M anipulation  |                                                 |
\*---------------------------------------------------------------------------*/
FoamFile
{
    version     2.0;
    format      ascii;
    arch        "LSB;label=32;scalar=64";
    class       volScalarField;
    location    "0.3";
    object      nut;
}
// * * * * * * * * * * * * * * * * * * * * * * * * * * * * * * * * * * * * * //

dimensions      [0 2 -1 0 0 0 0];

internalField   nonuniform List<scalar> 
13068
(
0.337239
0.343573
0.354925
0.367237
0.373924
0.372548
0.365873
0.358496
0.353414
0.351105
0.350623
0.351006
0.35166
0.352421
0.35317
0.353971
0.354737
0.355588
0.356395
0.357334
0.35821
0.359277
0.360244
0.36148
0.362551
0.364004
0.365194
0.366926
0.368253
0.370346
0.371833
0.374411
0.376107
0.379306
0.3812
0.385136
0.387264
0.392132
0.394496
0.400341
0.402688
0.409192
0.410814
0.417281
0.417354
0.423223
0.422188
0.428292
0.428717
0.428304
0.424792
0.385732
0.363767
0.266314
0.31467
0.370488
0.391163
0.391587
0.391654
0.383085
0.382327
0.374932
0.37517
0.370268
0.371492
0.368231
0.369275
0.366554
0.367034
0.364919
0.365017
0.363146
0.362652
0.360754
0.359711
0.357848
0.356718
0.35529
0.354433
0.353485
0.352858
0.352177
0.351545
0.350864
0.350078
0.349272
0.348247
0.347209
0.345903
0.344585
0.343008
0.341397
0.339618
0.337814
0.336081
0.334504
0.333378
0.332821
0.332722
0.337241
0.343578
0.354932
0.367243
0.37393
0.372556
0.365882
0.358504
0.353419
0.351108
0.350626
0.351008
0.351663
0.352424
0.353174
0.353975
0.354741
0.355592
0.3564
0.357338
0.358215
0.359282
0.360249
0.361486
0.362557
0.36401
0.3652
0.366932
0.368259
0.370354
0.371841
0.374419
0.376115
0.379313
0.381208
0.385144
0.387273
0.392141
0.394506
0.400352
0.402699
0.409204
0.410827
0.417295
0.417368
0.423234
0.422198
0.428299
0.428724
0.428312
0.4248
0.385751
0.363802
0.266303
0.314645
0.370492
0.391175
0.391605
0.39167
0.383091
0.382329
0.374937
0.375179
0.370275
0.371496
0.368232
0.369279
0.36656
0.367039
0.364923
0.365021
0.363151
0.362656
0.360758
0.359714
0.357851
0.35672
0.355292
0.354434
0.353487
0.352861
0.35218
0.351548
0.350867
0.350081
0.349275
0.34825
0.347211
0.345904
0.344584
0.343005
0.341391
0.33961
0.337804
0.336069
0.33449
0.333363
0.332807
0.332713
0.337244
0.343587
0.354944
0.367252
0.373936
0.372561
0.365888
0.358509
0.353423
0.351111
0.350628
0.351011
0.351666
0.352428
0.353178
0.353979
0.354745
0.355596
0.356404
0.357343
0.35822
0.359287
0.360254
0.361491
0.362562
0.364015
0.365206
0.366939
0.368266
0.370362
0.371849
0.374427
0.376123
0.379321
0.381215
0.385152
0.387281
0.39215
0.394515
0.400361
0.40271
0.409215
0.410839
0.417307
0.417381
0.423244
0.422207
0.428305
0.42873
0.42832
0.424806
0.385765
0.363839
0.266281
0.314609
0.370501
0.391195
0.391628
0.39169
0.383101
0.382333
0.374945
0.375189
0.370283
0.371499
0.368233
0.369282
0.366566
0.367044
0.364927
0.365025
0.363156
0.362661
0.360763
0.359718
0.357854
0.356723
0.355294
0.354436
0.353489
0.352863
0.352182
0.351551
0.35087
0.350084
0.349278
0.348253
0.347214
0.345906
0.344584
0.343003
0.341386
0.339603
0.337795
0.336057
0.334476
0.333348
0.332792
0.332705
0.337248
0.3436
0.354961
0.367263
0.37394
0.372564
0.365891
0.358512
0.353425
0.351113
0.35063
0.351013
0.351669
0.352431
0.353181
0.353982
0.354749
0.3556
0.356409
0.357347
0.358224
0.359292
0.360259
0.361496
0.362567
0.364021
0.365211
0.366945
0.368273
0.370369
0.371857
0.374435
0.37613
0.379328
0.381222
0.385159
0.387289
0.392158
0.394523
0.40037
0.40272
0.409225
0.410851
0.417318
0.417392
0.423253
0.422214
0.428309
0.428733
0.428327
0.424812
0.385775
0.363877
0.266249
0.314563
0.370515
0.391222
0.391657
0.391714
0.383113
0.38234
0.374954
0.3752
0.370292
0.371504
0.368234
0.369286
0.366572
0.367049
0.364931
0.365029
0.363162
0.362666
0.360767
0.359721
0.357857
0.356725
0.355296
0.354438
0.353491
0.352865
0.352185
0.351554
0.350873
0.350088
0.349282
0.348257
0.347217
0.345908
0.344584
0.343001
0.341382
0.339596
0.337785
0.336045
0.334463
0.333333
0.332779
0.332697
0.337253
0.343616
0.354982
0.367277
0.373944
0.372563
0.36589
0.358512
0.353425
0.351113
0.350631
0.351015
0.351672
0.352434
0.353184
0.353986
0.354753
0.355604
0.356413
0.357352
0.358229
0.359296
0.360263
0.361501
0.362572
0.364026
0.365217
0.36695
0.368279
0.370376
0.371864
0.374442
0.376137
0.379334
0.381229
0.385165
0.387295
0.392165
0.394531
0.400378
0.402728
0.409235
0.410861
0.417328
0.417401
0.42326
0.422219
0.428312
0.428735
0.428333
0.424816
0.385782
0.363918
0.266209
0.314507
0.370534
0.391254
0.391692
0.391743
0.383129
0.382348
0.374964
0.375212
0.370301
0.371508
0.368235
0.36929
0.366578
0.367054
0.364935
0.365033
0.363167
0.362671
0.360771
0.359725
0.35786
0.356728
0.355297
0.354439
0.353493
0.352868
0.352187
0.351557
0.350876
0.350091
0.349285
0.34826
0.34722
0.345909
0.344584
0.342999
0.341377
0.33959
0.337776
0.336034
0.33445
0.333319
0.332766
0.332689
0.33726
0.343636
0.355009
0.367294
0.373946
0.372558
0.365885
0.358509
0.353423
0.351113
0.350632
0.351017
0.351674
0.352437
0.353188
0.353989
0.354757
0.355608
0.356417
0.357356
0.358233
0.3593
0.360268
0.361505
0.362577
0.36403
0.365222
0.366955
0.368285
0.370382
0.37187
0.374448
0.376143
0.37934
0.381234
0.38517
0.387301
0.39217
0.394537
0.400384
0.402736
0.409242
0.410869
0.417337
0.417409
0.423265
0.422222
0.428313
0.428735
0.428337
0.42482
0.385784
0.36396
0.26616
0.314443
0.370559
0.391293
0.391731
0.391775
0.383147
0.382358
0.374976
0.375226
0.370311
0.371512
0.368236
0.369293
0.366584
0.367058
0.364938
0.365036
0.363171
0.362676
0.360775
0.359728
0.357863
0.35673
0.355299
0.35444
0.353495
0.35287
0.352189
0.351559
0.350879
0.350095
0.349289
0.348264
0.347223
0.345912
0.344584
0.342998
0.341373
0.339584
0.337768
0.336024
0.334438
0.333306
0.332754
0.332682
0.337267
0.34366
0.35504
0.367313
0.373948
0.372551
0.365877
0.358503
0.35342
0.351111
0.350632
0.351019
0.351676
0.35244
0.353191
0.353993
0.35476
0.355611
0.35642
0.357359
0.358236
0.359304
0.360271
0.361509
0.362581
0.364035
0.365226
0.36696
0.36829
0.370387
0.371876
0.374454
0.376148
0.379344
0.381238
0.385175
0.387305
0.392175
0.394541
0.40039
0.402741
0.409249
0.410876
0.417344
0.417415
0.423268
0.422223
0.428312
0.428732
0.428339
0.424822
0.385782
0.364004
0.266103
0.31437
0.370589
0.391338
0.391776
0.391811
0.383168
0.382371
0.37499
0.37524
0.370321
0.371517
0.368237
0.369296
0.366589
0.367063
0.364942
0.36504
0.363176
0.36268
0.360779
0.359731
0.357866
0.356732
0.3553
0.354441
0.353496
0.352871
0.352192
0.351562
0.350882
0.350098
0.349292
0.348268
0.347226
0.345914
0.344585
0.342997
0.34137
0.339579
0.33776
0.336014
0.334426
0.333293
0.332742
0.332675
0.337276
0.343688
0.355076
0.367334
0.373948
0.372539
0.365864
0.358493
0.353414
0.351109
0.350632
0.35102
0.351679
0.352442
0.353194
0.353996
0.354763
0.355615
0.356423
0.357363
0.35824
0.359308
0.360275
0.361512
0.362584
0.364038
0.36523
0.366964
0.368294
0.370392
0.371881
0.374459
0.376152
0.379348
0.381241
0.385178
0.387308
0.392178
0.394545
0.400394
0.402746
0.409254
0.410882
0.417349
0.417418
0.423269
0.422222
0.428309
0.428727
0.428341
0.424822
0.385777
0.36405
0.266039
0.314289
0.370624
0.39139
0.391826
0.391851
0.383191
0.382385
0.375005
0.375256
0.370332
0.371522
0.368238
0.3693
0.366595
0.367067
0.364945
0.365043
0.36318
0.362684
0.360782
0.359734
0.357869
0.356733
0.355301
0.354441
0.353497
0.352873
0.352194
0.351564
0.350885
0.350101
0.349296
0.348271
0.347229
0.345916
0.344586
0.342996
0.341367
0.339573
0.337752
0.336005
0.334415
0.333281
0.332731
0.332669
0.337286
0.343719
0.355117
0.367358
0.373946
0.372524
0.365848
0.358481
0.353406
0.351105
0.350631
0.351021
0.351681
0.352445
0.353196
0.353998
0.354766
0.355617
0.356426
0.357366
0.358243
0.359311
0.360278
0.361515
0.362587
0.364041
0.365233
0.366968
0.368298
0.370396
0.371885
0.374463
0.376155
0.379351
0.381244
0.38518
0.387311
0.392181
0.394547
0.400396
0.402749
0.409258
0.410886
0.417352
0.41742
0.423268
0.422218
0.428304
0.428721
0.428341
0.424822
0.385768
0.364099
0.265969
0.314202
0.370666
0.391448
0.391882
0.391895
0.383216
0.3824
0.375021
0.375272
0.370344
0.371527
0.368239
0.369303
0.3666
0.367071
0.364948
0.365046
0.363184
0.362688
0.360786
0.359736
0.357871
0.356735
0.355301
0.354442
0.353498
0.352874
0.352195
0.351566
0.350888
0.350104
0.349299
0.348275
0.347232
0.345919
0.344586
0.342995
0.341364
0.339569
0.337745
0.335996
0.334405
0.33327
0.332721
0.332663
0.337297
0.343754
0.355163
0.367384
0.373943
0.372506
0.365828
0.358466
0.353396
0.3511
0.35063
0.351022
0.351683
0.352447
0.353199
0.354001
0.354769
0.35562
0.356429
0.357368
0.358245
0.359313
0.360281
0.361518
0.36259
0.364044
0.365236
0.366971
0.368301
0.3704
0.371889
0.374466
0.376158
0.379352
0.381245
0.385181
0.387312
0.392182
0.394549
0.400398
0.402751
0.40926
0.410888
0.417355
0.41742
0.423266
0.422212
0.428298
0.428712
0.428339
0.424821
0.385756
0.36415
0.265893
0.314108
0.370713
0.391512
0.391942
0.391943
0.383244
0.382418
0.375039
0.37529
0.370356
0.371532
0.36824
0.369306
0.366605
0.367075
0.364951
0.365049
0.363188
0.362691
0.360789
0.359738
0.357873
0.356736
0.355301
0.354442
0.353498
0.352876
0.352197
0.351569
0.35089
0.350108
0.349303
0.348278
0.347235
0.345921
0.344587
0.342995
0.341361
0.339564
0.337738
0.335987
0.334395
0.333259
0.332711
0.332657
0.337309
0.343793
0.355213
0.367412
0.373939
0.372484
0.365804
0.358447
0.353385
0.351094
0.350628
0.351022
0.351684
0.352449
0.353201
0.354003
0.354771
0.355623
0.356432
0.357371
0.358248
0.359316
0.360283
0.36152
0.362592
0.364046
0.365238
0.366973
0.368304
0.370402
0.371892
0.374469
0.37616
0.379354
0.381246
0.385182
0.387312
0.392182
0.394549
0.400398
0.402752
0.409261
0.410889
0.417355
0.417418
0.423262
0.422205
0.42829
0.428701
0.428337
0.424819
0.385741
0.364204
0.265812
0.314008
0.370767
0.391582
0.392007
0.391994
0.383275
0.382437
0.375058
0.375308
0.370368
0.371537
0.368241
0.369308
0.36661
0.367079
0.364954
0.365052
0.363192
0.362694
0.360791
0.359741
0.357875
0.356737
0.355301
0.354441
0.353499
0.352877
0.352199
0.351571
0.350893
0.350111
0.349306
0.348282
0.347238
0.345924
0.344589
0.342995
0.341359
0.33956
0.337732
0.335979
0.334386
0.333248
0.332702
0.332652
0.337322
0.343835
0.355268
0.367443
0.373934
0.372458
0.365776
0.358425
0.353371
0.351087
0.350626
0.351022
0.351686
0.352451
0.353203
0.354006
0.354773
0.355625
0.356434
0.357373
0.35825
0.359318
0.360285
0.361522
0.362594
0.364048
0.36524
0.366975
0.368306
0.370405
0.371895
0.374471
0.376161
0.379354
0.381246
0.385181
0.387311
0.392181
0.394548
0.400397
0.402751
0.409261
0.410889
0.417354
0.417415
0.423256
0.422195
0.42828
0.428689
0.428333
0.424816
0.385723
0.364262
0.265726
0.313903
0.370827
0.391659
0.392077
0.392048
0.383307
0.382458
0.375079
0.375327
0.370381
0.371543
0.368242
0.369311
0.366614
0.367083
0.364957
0.365054
0.363195
0.362697
0.360794
0.359743
0.357877
0.356738
0.355301
0.354441
0.353499
0.352877
0.3522
0.351573
0.350896
0.350114
0.349309
0.348286
0.347242
0.345927
0.34459
0.342995
0.341357
0.339557
0.337726
0.335972
0.334377
0.333239
0.332694
0.332647
0.337337
0.343881
0.355328
0.367476
0.373927
0.372429
0.365744
0.358401
0.353355
0.351079
0.350622
0.351022
0.351687
0.352453
0.353205
0.354008
0.354775
0.355627
0.356436
0.357375
0.358252
0.359319
0.360286
0.361523
0.362595
0.36405
0.365242
0.366976
0.368307
0.370406
0.371896
0.374472
0.376161
0.379353
0.381245
0.385179
0.387309
0.392179
0.394546
0.400396
0.40275
0.40926
0.410888
0.417352
0.41741
0.423248
0.422184
0.428268
0.428674
0.428329
0.424813
0.385703
0.364323
0.265638
0.313795
0.370893
0.391742
0.392152
0.392106
0.383343
0.38248
0.375101
0.375347
0.370394
0.371548
0.368243
0.369313
0.366619
0.367086
0.364959
0.365057
0.363198
0.3627
0.360796
0.359745
0.357878
0.356738
0.355301
0.35444
0.353499
0.352878
0.352201
0.351575
0.350898
0.350117
0.349313
0.348289
0.347245
0.34593
0.344592
0.342995
0.341355
0.339553
0.337721
0.335965
0.334368
0.33323
0.332686
0.332643
0.337352
0.343931
0.355392
0.367511
0.373919
0.372396
0.365709
0.358373
0.353337
0.351069
0.350619
0.351022
0.351688
0.352455
0.353207
0.354009
0.354777
0.355628
0.356437
0.357376
0.358253
0.359321
0.360287
0.361525
0.362596
0.364051
0.365243
0.366977
0.368308
0.370408
0.371897
0.374473
0.376161
0.379352
0.381243
0.385177
0.387306
0.392176
0.394542
0.400393
0.402747
0.409257
0.410885
0.417349
0.417403
0.423239
0.422171
0.428256
0.428659
0.428324
0.424809
0.385681
0.364387
0.265548
0.313683
0.370967
0.391831
0.392232
0.392168
0.38338
0.382505
0.375124
0.375368
0.370408
0.371554
0.368244
0.369316
0.366623
0.36709
0.364962
0.365059
0.363201
0.362703
0.360799
0.359746
0.35788
0.356739
0.3553
0.354439
0.353498
0.352879
0.352202
0.351577
0.350901
0.35012
0.349316
0.348293
0.347249
0.345933
0.344594
0.342996
0.341354
0.33955
0.337716
0.335958
0.33436
0.333221
0.332679
0.332639
0.337369
0.343984
0.355461
0.367548
0.37391
0.37236
0.365669
0.358342
0.353317
0.351059
0.350614
0.351021
0.351689
0.352456
0.353209
0.354011
0.354779
0.35563
0.356438
0.357377
0.358254
0.359322
0.360288
0.361525
0.362597
0.364051
0.365243
0.366978
0.368309
0.370408
0.371898
0.374473
0.37616
0.37935
0.38124
0.385174
0.387302
0.392172
0.394538
0.400389
0.402743
0.409254
0.410881
0.417344
0.417395
0.423229
0.422156
0.428241
0.428641
0.428318
0.424805
0.385658
0.364456
0.265457
0.313569
0.371047
0.391926
0.392317
0.392232
0.383419
0.38253
0.375149
0.37539
0.370422
0.37156
0.368245
0.369318
0.366627
0.367093
0.364964
0.365061
0.363204
0.362705
0.360801
0.359748
0.357881
0.356739
0.355299
0.354438
0.353498
0.352879
0.352203
0.351578
0.350903
0.350123
0.34932
0.348297
0.347252
0.345936
0.344596
0.342997
0.341353
0.339548
0.337711
0.335952
0.334353
0.333213
0.332672
0.332636
0.337387
0.344041
0.355535
0.367588
0.373899
0.37232
0.365626
0.358308
0.353296
0.351047
0.35061
0.35102
0.351689
0.352457
0.35321
0.354012
0.35478
0.355631
0.35644
0.357378
0.358255
0.359322
0.360289
0.361526
0.362597
0.364051
0.365243
0.366978
0.368309
0.370408
0.371898
0.374472
0.376158
0.379347
0.381236
0.385169
0.387298
0.392167
0.394533
0.400384
0.402738
0.409249
0.410876
0.417339
0.417385
0.423217
0.422139
0.428226
0.428623
0.428312
0.424801
0.385633
0.36453
0.265366
0.313454
0.371134
0.392028
0.392406
0.3923
0.383461
0.382557
0.375174
0.375413
0.370437
0.371566
0.368246
0.36932
0.366631
0.367096
0.364966
0.365063
0.363207
0.362707
0.360802
0.359749
0.357882
0.356739
0.355298
0.354437
0.353497
0.352879
0.352204
0.35158
0.350905
0.350126
0.349323
0.348301
0.347256
0.34594
0.344598
0.342998
0.341352
0.339546
0.337707
0.335947
0.334346
0.333206
0.332666
0.332633
0.337406
0.344102
0.355613
0.36763
0.373887
0.372277
0.365579
0.358271
0.353272
0.351034
0.350604
0.351019
0.35169
0.352458
0.353211
0.354013
0.354781
0.355632
0.35644
0.357379
0.358255
0.359323
0.360289
0.361526
0.362597
0.364051
0.365243
0.366978
0.368308
0.370408
0.371897
0.374471
0.376156
0.379344
0.381232
0.385164
0.387292
0.392161
0.394527
0.400378
0.402732
0.409244
0.41087
0.417332
0.417374
0.423204
0.422121
0.428209
0.428603
0.428305
0.424797
0.385607
0.364608
0.265276
0.313338
0.371229
0.392136
0.392499
0.392371
0.383505
0.382586
0.375201
0.375436
0.370452
0.371572
0.368247
0.369322
0.366635
0.367099
0.364969
0.365065
0.363209
0.362709
0.360804
0.35975
0.357883
0.356739
0.355297
0.354435
0.353496
0.352879
0.352205
0.351582
0.350908
0.350129
0.349326
0.348305
0.34726
0.345943
0.344601
0.343
0.341352
0.339544
0.337704
0.335942
0.33434
0.333199
0.332661
0.33263
0.337426
0.344166
0.355696
0.367674
0.373873
0.37223
0.365528
0.358231
0.353246
0.35102
0.350598
0.351017
0.35169
0.352459
0.353212
0.354014
0.354782
0.355633
0.356441
0.357379
0.358256
0.359323
0.360289
0.361525
0.362597
0.36405
0.365242
0.366977
0.368307
0.370406
0.371896
0.374469
0.376153
0.37934
0.381227
0.385159
0.387286
0.392154
0.39452
0.400371
0.402725
0.409237
0.410863
0.417324
0.417362
0.42319
0.422102
0.428192
0.428582
0.428298
0.424793
0.385581
0.364692
0.265189
0.313223
0.371331
0.39225
0.392597
0.392445
0.38355
0.382616
0.375229
0.37546
0.370467
0.371579
0.368248
0.369324
0.366638
0.367103
0.364971
0.365067
0.363212
0.362711
0.360806
0.359751
0.357884
0.356739
0.355296
0.354433
0.353495
0.352879
0.352206
0.351584
0.35091
0.350132
0.34933
0.348308
0.347264
0.345947
0.344604
0.343002
0.341352
0.339543
0.337701
0.335937
0.334334
0.333192
0.332656
0.332628
0.337448
0.344234
0.355783
0.36772
0.373858
0.37218
0.365473
0.358188
0.353218
0.351005
0.350592
0.351015
0.35169
0.35246
0.353213
0.354015
0.354783
0.355633
0.356441
0.357379
0.358256
0.359322
0.360288
0.361525
0.362596
0.364049
0.365241
0.366975
0.368306
0.370405
0.371894
0.374467
0.37615
0.379335
0.381221
0.385152
0.387279
0.392147
0.394512
0.400363
0.402717
0.40923
0.410855
0.417315
0.417348
0.423175
0.422081
0.428173
0.42856
0.428291
0.424789
0.385555
0.364781
0.265106
0.313109
0.37144
0.39237
0.392699
0.392521
0.383597
0.382647
0.375259
0.375485
0.370483
0.371585
0.368249
0.369326
0.366642
0.367105
0.364973
0.365069
0.363214
0.362713
0.360807
0.359752
0.357885
0.356739
0.355294
0.354432
0.353494
0.352879
0.352207
0.351585
0.350913
0.350135
0.349333
0.348312
0.347268
0.345951
0.344607
0.343004
0.341353
0.339543
0.337698
0.335934
0.334329
0.333187
0.332652
0.332626
0.33747
0.344305
0.355875
0.367768
0.373842
0.372126
0.365414
0.358141
0.353188
0.350989
0.350584
0.351013
0.35169
0.352461
0.353214
0.354016
0.354783
0.355633
0.356441
0.357379
0.358255
0.359322
0.360288
0.361524
0.362595
0.364048
0.36524
0.366974
0.368304
0.370403
0.371892
0.374464
0.376146
0.379329
0.381215
0.385145
0.387271
0.392139
0.394504
0.400355
0.402709
0.409222
0.410847
0.417305
0.417334
0.423158
0.422059
0.428154
0.428538
0.428284
0.424786
0.38553
0.364876
0.265027
0.312997
0.371556
0.392495
0.392804
0.3926
0.383646
0.38268
0.375289
0.375511
0.3705
0.371592
0.36825
0.369328
0.366645
0.367108
0.364975
0.365071
0.363216
0.362715
0.360808
0.359753
0.357885
0.356738
0.355293
0.35443
0.353493
0.352878
0.352207
0.351587
0.350915
0.350138
0.349337
0.348316
0.347272
0.345955
0.34461
0.343006
0.341354
0.339542
0.337696
0.33593
0.334325
0.333182
0.332649
0.332625
0.337494
0.34438
0.355971
0.367818
0.373824
0.372068
0.365351
0.358092
0.353156
0.350972
0.350577
0.35101
0.351689
0.352461
0.353214
0.354016
0.354783
0.355633
0.356441
0.357379
0.358255
0.359321
0.360287
0.361522
0.362593
0.364046
0.365238
0.366972
0.368302
0.3704
0.371889
0.37446
0.376141
0.379324
0.381208
0.385137
0.387263
0.39213
0.394494
0.400346
0.4027
0.409213
0.410837
0.417295
0.417318
0.423141
0.422036
0.428133
0.428514
0.428277
0.424784
0.385505
0.364977
0.264955
0.312889
0.37168
0.392626
0.392914
0.392682
0.383697
0.382714
0.37532
0.375537
0.370516
0.371599
0.368251
0.369329
0.366648
0.367111
0.364977
0.365073
0.363218
0.362716
0.360809
0.359754
0.357886
0.356738
0.355291
0.354427
0.353491
0.352878
0.352208
0.351588
0.350917
0.350141
0.34934
0.34832
0.347276
0.345959
0.344613
0.343009
0.341355
0.339542
0.337694
0.335927
0.334321
0.333177
0.332646
0.332624
0.337519
0.344458
0.356071
0.36787
0.373805
0.372007
0.365285
0.35804
0.353122
0.350953
0.350568
0.351007
0.351689
0.352461
0.353215
0.354017
0.354783
0.355633
0.356441
0.357378
0.358254
0.35932
0.360285
0.361521
0.362592
0.364044
0.365236
0.366969
0.368299
0.370397
0.371886
0.374456
0.376136
0.379317
0.3812
0.385129
0.387253
0.39212
0.394484
0.400336
0.40269
0.409203
0.410827
0.417284
0.417302
0.423122
0.422012
0.428112
0.42849
0.42827
0.424783
0.385481
0.365085
0.26489
0.312784
0.37181
0.392762
0.393027
0.392766
0.383749
0.382749
0.375352
0.375564
0.370533
0.371606
0.368252
0.369331
0.366651
0.367114
0.36498
0.365074
0.36322
0.362718
0.36081
0.359755
0.357886
0.356737
0.355289
0.354425
0.35349
0.352877
0.352208
0.35159
0.35092
0.350144
0.349344
0.348324
0.347281
0.345963
0.344617
0.343012
0.341356
0.339543
0.337693
0.335925
0.334317
0.333173
0.332644
0.332623
0.337545
0.34454
0.356176
0.367924
0.373784
0.371942
0.365215
0.357984
0.353086
0.350933
0.350559
0.351004
0.351688
0.352461
0.353215
0.354017
0.354783
0.355633
0.35644
0.357378
0.358253
0.359319
0.360284
0.361519
0.36259
0.364042
0.365233
0.366966
0.368296
0.370394
0.371882
0.374452
0.37613
0.37931
0.381192
0.38512
0.387244
0.39211
0.394474
0.400325
0.402679
0.409193
0.410816
0.417272
0.417284
0.423103
0.421987
0.428091
0.428466
0.428264
0.424783
0.385459
0.3652
0.264833
0.312684
0.371948
0.392904
0.393143
0.392851
0.383802
0.382784
0.375384
0.375591
0.37055
0.371613
0.368253
0.369332
0.366654
0.367117
0.364982
0.365076
0.363222
0.362719
0.360811
0.359755
0.357886
0.356736
0.355287
0.354423
0.353488
0.352877
0.352209
0.351592
0.350922
0.350147
0.349348
0.348329
0.347285
0.345968
0.344621
0.343015
0.341359
0.339544
0.337692
0.335923
0.334314
0.33317
0.332642
0.332623
0.337572
0.344625
0.356285
0.36798
0.373762
0.371874
0.36514
0.357925
0.353048
0.350913
0.35055
0.351
0.351687
0.352461
0.353215
0.354017
0.354783
0.355632
0.35644
0.357376
0.358252
0.359317
0.360282
0.361517
0.362587
0.36404
0.36523
0.366963
0.368293
0.37039
0.371878
0.374447
0.376124
0.379302
0.381183
0.38511
0.387233
0.392099
0.394462
0.400314
0.402668
0.409182
0.410805
0.417259
0.417266
0.423084
0.421961
0.428069
0.428441
0.428258
0.424783
0.385439
0.365322
0.264785
0.312589
0.372092
0.39305
0.393261
0.392939
0.383856
0.382821
0.375418
0.375618
0.370568
0.37162
0.368255
0.369334
0.366657
0.367119
0.364984
0.365078
0.363223
0.36272
0.360812
0.359756
0.357887
0.356735
0.355285
0.35442
0.353486
0.352876
0.352209
0.351593
0.350925
0.35015
0.349351
0.348333
0.34729
0.345972
0.344625
0.343019
0.341361
0.339546
0.337692
0.335922
0.334312
0.333167
0.332641
0.332623
0.3376
0.344713
0.356398
0.368038
0.373738
0.371802
0.365062
0.357864
0.353008
0.350891
0.35054
0.350996
0.351686
0.352461
0.353215
0.354016
0.354783
0.355632
0.356439
0.357375
0.35825
0.359315
0.36028
0.361515
0.362585
0.364037
0.365227
0.36696
0.368289
0.370386
0.371873
0.374441
0.376117
0.379294
0.381174
0.3851
0.387222
0.392088
0.394451
0.400303
0.402656
0.409171
0.410793
0.417246
0.417248
0.423063
0.421934
0.428046
0.428416
0.428253
0.424786
0.385421
0.365451
0.264748
0.312499
0.372243
0.3932
0.393383
0.393028
0.383912
0.382858
0.375452
0.375646
0.370585
0.371627
0.368256
0.369335
0.36666
0.367122
0.364986
0.36508
0.363225
0.362721
0.360813
0.359756
0.357887
0.356734
0.355283
0.354418
0.353484
0.352875
0.35221
0.351595
0.350927
0.350154
0.349355
0.348337
0.347294
0.345977
0.34463
0.343023
0.341364
0.339548
0.337693
0.335921
0.33431
0.333165
0.332641
0.332624
0.337629
0.344806
0.356515
0.368098
0.373712
0.371727
0.364981
0.357799
0.352966
0.350867
0.350529
0.350992
0.351685
0.352461
0.353215
0.354016
0.354782
0.355631
0.356437
0.357374
0.358248
0.359313
0.360278
0.361512
0.362582
0.364033
0.365224
0.366956
0.368285
0.370382
0.371868
0.374436
0.37611
0.379286
0.381164
0.385089
0.387211
0.392076
0.394438
0.40029
0.402644
0.409159
0.410781
0.417233
0.417228
0.423042
0.421907
0.428024
0.428391
0.428249
0.424789
0.385406
0.365588
0.264723
0.312416
0.372399
0.393355
0.393507
0.393118
0.383968
0.382896
0.375486
0.375675
0.370603
0.371635
0.368257
0.369336
0.366663
0.367125
0.364989
0.365082
0.363227
0.362722
0.360813
0.359757
0.357887
0.356733
0.35528
0.354415
0.353482
0.352875
0.35221
0.351596
0.35093
0.350157
0.349359
0.348342
0.347299
0.345982
0.344634
0.343027
0.341367
0.33955
0.337693
0.335921
0.334309
0.333164
0.332642
0.332625
0.337659
0.344901
0.356637
0.36816
0.373685
0.371648
0.364895
0.357731
0.352921
0.350843
0.350518
0.350988
0.351684
0.35246
0.353214
0.354015
0.354781
0.35563
0.356436
0.357372
0.358246
0.359311
0.360275
0.361509
0.362579
0.36403
0.36522
0.366952
0.36828
0.370377
0.371863
0.374429
0.376103
0.379277
0.381154
0.385078
0.387199
0.392063
0.394425
0.400278
0.402631
0.409147
0.410768
0.417219
0.417209
0.423021
0.421879
0.428001
0.428366
0.428246
0.424794
0.385394
0.365733
0.26471
0.31234
0.372561
0.393513
0.393632
0.39321
0.384025
0.382934
0.375522
0.375703
0.370621
0.371642
0.368259
0.369337
0.366665
0.367128
0.364991
0.365084
0.363229
0.362723
0.360814
0.359757
0.357887
0.356732
0.355278
0.354412
0.35348
0.352874
0.35221
0.351598
0.350933
0.35016
0.349363
0.348346
0.347304
0.345987
0.344639
0.343032
0.341371
0.339553
0.337695
0.335922
0.334308
0.333163
0.332643
0.332627
0.337691
0.345
0.356762
0.368223
0.373657
0.371565
0.364805
0.35766
0.352875
0.350818
0.350506
0.350983
0.351682
0.35246
0.353214
0.354015
0.35478
0.355629
0.356435
0.35737
0.358244
0.359308
0.360272
0.361506
0.362575
0.364026
0.365216
0.366947
0.368275
0.370371
0.371857
0.374423
0.376095
0.379268
0.381144
0.385066
0.387186
0.39205
0.394412
0.400265
0.402618
0.409135
0.410755
0.417205
0.417188
0.422999
0.42185
0.427978
0.428341
0.428244
0.424801
0.385385
0.365886
0.26471
0.31227
0.372728
0.393674
0.39376
0.393302
0.384082
0.382973
0.375557
0.375732
0.370639
0.371649
0.36826
0.369338
0.366668
0.36713
0.364993
0.365086
0.36323
0.362724
0.360815
0.359757
0.357887
0.356731
0.355275
0.354409
0.353478
0.352873
0.352211
0.3516
0.350935
0.350163
0.349367
0.348351
0.347309
0.345993
0.344645
0.343037
0.341375
0.339556
0.337697
0.335923
0.334309
0.333163
0.332644
0.332629
0.337723
0.345102
0.356892
0.368288
0.373627
0.371479
0.364712
0.357586
0.352827
0.350791
0.350493
0.350978
0.35168
0.352459
0.353213
0.354014
0.354779
0.355627
0.356433
0.357368
0.358242
0.359306
0.360269
0.361503
0.362572
0.364022
0.365212
0.366943
0.36827
0.370366
0.371851
0.374416
0.376087
0.379258
0.381133
0.385054
0.387173
0.392037
0.394399
0.400252
0.402605
0.409122
0.410742
0.417191
0.417168
0.422977
0.421822
0.427955
0.428316
0.428243
0.42481
0.38538
0.366047
0.264725
0.312208
0.3729
0.393838
0.393888
0.393395
0.384139
0.383012
0.375592
0.375761
0.370657
0.371657
0.368261
0.369339
0.36667
0.367133
0.364996
0.365088
0.363232
0.362725
0.360815
0.359758
0.357887
0.356729
0.355273
0.354406
0.353476
0.352872
0.352211
0.351601
0.350938
0.350167
0.349371
0.348355
0.347315
0.345998
0.34465
0.343042
0.34138
0.33956
0.337699
0.335925
0.334309
0.333164
0.332647
0.332632
0.337757
0.345208
0.357025
0.368354
0.373595
0.371389
0.364615
0.357509
0.352777
0.350763
0.35048
0.350973
0.351678
0.352458
0.353213
0.354013
0.354778
0.355626
0.356431
0.357366
0.358239
0.359303
0.360266
0.361499
0.362568
0.364018
0.365207
0.366938
0.368265
0.37036
0.371845
0.374409
0.376078
0.379248
0.381121
0.385042
0.38716
0.392024
0.394385
0.400238
0.402592
0.409109
0.410729
0.417176
0.417147
0.422954
0.421792
0.427932
0.428291
0.428243
0.42482
0.385379
0.366217
0.264755
0.312153
0.373075
0.394005
0.394018
0.393488
0.384197
0.383051
0.375628
0.375789
0.370675
0.371664
0.368263
0.36934
0.366672
0.367135
0.364999
0.36509
0.363234
0.362726
0.360816
0.359758
0.357887
0.356728
0.35527
0.354403
0.353474
0.352871
0.352211
0.351603
0.350941
0.35017
0.349375
0.34836
0.34732
0.346004
0.344656
0.343048
0.341385
0.339565
0.337702
0.335927
0.33431
0.333165
0.33265
0.332634
0.337792
0.345316
0.357163
0.368422
0.373561
0.371296
0.364514
0.357429
0.352724
0.350734
0.350466
0.350967
0.351676
0.352457
0.353212
0.354012
0.354777
0.355624
0.356429
0.357364
0.358236
0.3593
0.360263
0.361495
0.362564
0.364014
0.365203
0.366933
0.368259
0.370354
0.371838
0.374401
0.376069
0.379238
0.38111
0.385029
0.387147
0.39201
0.39437
0.400224
0.402578
0.409096
0.410715
0.417162
0.417126
0.422932
0.421763
0.427909
0.428267
0.428244
0.424833
0.385382
0.366395
0.264801
0.312106
0.373254
0.394173
0.394147
0.393581
0.384254
0.38309
0.375664
0.375818
0.370693
0.371671
0.368264
0.369341
0.366674
0.367138
0.365001
0.365092
0.363235
0.362727
0.360816
0.359758
0.357886
0.356727
0.355268
0.354401
0.353472
0.35287
0.352212
0.351605
0.350944
0.350174
0.349379
0.348365
0.347325
0.34601
0.344662
0.343054
0.34139
0.33957
0.337706
0.33593
0.334312
0.333167
0.332654
0.332638
0.337827
0.345429
0.357304
0.368492
0.373526
0.371199
0.364409
0.357346
0.35267
0.350704
0.350452
0.350961
0.351674
0.352456
0.353211
0.354011
0.354775
0.355622
0.356427
0.357361
0.358234
0.359296
0.360259
0.361491
0.362559
0.364009
0.365198
0.366927
0.368254
0.370347
0.371831
0.374393
0.37606
0.379227
0.381098
0.385016
0.387133
0.391995
0.394356
0.40021
0.402564
0.409083
0.410702
0.417147
0.417105
0.422909
0.421733
0.427886
0.428244
0.428247
0.424847
0.385389
0.366581
0.264863
0.312066
0.373436
0.394343
0.394277
0.393673
0.384311
0.383129
0.3757
0.375847
0.370711
0.371679
0.368266
0.369341
0.366676
0.367141
0.365004
0.365094
0.363237
0.362728
0.360817
0.359759
0.357886
0.356725
0.355265
0.354398
0.353469
0.352869
0.352212
0.351606
0.350947
0.350178
0.349383
0.34837
0.347331
0.346016
0.344668
0.34306
0.341396
0.339575
0.33771
0.335933
0.334315
0.333169
0.332658
0.332642
0.337864
0.345544
0.357449
0.368563
0.373489
0.371098
0.3643
0.357259
0.352613
0.350673
0.350437
0.350955
0.351671
0.352455
0.35321
0.354009
0.354773
0.35562
0.356424
0.357358
0.35823
0.359293
0.360255
0.361487
0.362555
0.364004
0.365192
0.366922
0.368248
0.370341
0.371824
0.374385
0.376051
0.379216
0.381086
0.385003
0.387119
0.391981
0.394341
0.400196
0.40255
0.40907
0.410688
0.417133
0.417084
0.422886
0.421704
0.427864
0.428221
0.428251
0.424864
0.385401
0.366776
0.264942
0.312034
0.373619
0.394513
0.394407
0.393766
0.384368
0.383168
0.375735
0.375875
0.370729
0.371686
0.368267
0.369342
0.366678
0.367143
0.365007
0.365097
0.363239
0.362729
0.360817
0.359759
0.357886
0.356724
0.355263
0.354395
0.353467
0.352867
0.352212
0.351608
0.35095
0.350182
0.349388
0.348375
0.347337
0.346023
0.344675
0.343067
0.341402
0.339581
0.337715
0.335937
0.334318
0.333172
0.332663
0.332646
0.337902
0.345662
0.357598
0.368636
0.373451
0.370994