/*--------------------------------*- C++ -*----------------------------------*\
| =========                 |                                                 |
| \\      /  F ield         | OpenFOAM: The Open Source CFD Toolbox           |
|  \\    /   O peration     | Version:  2412                                  |
|   \\  /    A nd           | Website:  www.openfoam.com                      |
|    \\/     M anipulation  |                                                 |
\*---------------------------------------------------------------------------*/
FoamFile
{
    version     2.0;
    format      ascii;
    arch        "LSB;label=32;scalar=64";
    class       volScalarField;
    location    "0.3";
    object      p;
}
// * * * * * * * * * * * * * * * * * * * * * * * * * * * * * * * * * * * * * //

dimensions      [0 2 -2 0 0 0 0];

internalField   nonuniform List<scalar> 
13068
(
109637
109632
109609
109575
109537
109471
109401
109283
109172
109006
108866
108651
108484
108213
108020
107680
107463
107036
106801
106260
106016
105324
105088
104194
103992
102822
102699
101150
101177
99099.1
99385
96566.6
97281.5
93413.4
94817.8
89450.7
91941.5
84419.9
88597.8
77962.9
84724.1
69563.8
80209.7
58413.9
74750.2
43112.9
67558.4
21247.1
57131
-10601.1
41998.3
-54510.9
23941.9
-102928
11995.2
-71692.6
12690.6
-40108.7
17778.5
-14374.4
25229
6053.12
32946.6
21603.8
39841
33299
45773.9
42186
50801.3
48991.6
54999.2
54244.7
58492.3
58365.9
61433.4
61692.3
63972.6
64478.5
66222.4
66887.6
68240.4
69005.9
70044
70878.1
71639.4
72539.2
73039
74029.3
74265.1
75392.6
75345.1
76672.7
76305.4
77905.7
77167.5
79115.8
77943.7
80314.8
78633.7
109637
109632
109609
109575
109537
109471
109401
109283
109173
109006
108866
108651
108484
108213
108020
107680
107463
107036
106801
106260
106016
105324
105088
104194
103992
102822
102699
101150
101177
99099.2
99385.1
96566.7
97281.6
93413.4
94817.8
89450.7
91941.4
84419.9
88597.6
77962.8
84723.9
69563.7
80209.6
58414
74750.5
43113.3
67559.2
21247.8
57132
-10601
41998.4
-54512.3
23941.3
-102931
11995.4
-71692.8
12691
-40108.5
17778.2
-14375
25228.2
6052.53
32945.9
21603.5
39840.4
33298.7
45773.3
42185.5
50800.7
48991.1
54998.7
54244.3
58491.8
58365.4
61432.9
61691.9
63972.1
64478
66221.8
66886.9
68239.6
69005
70043
70877
71638.2
72538
73037.6
74027.8
74263.7
75391
75343.6
76671.2
76304.1
77904.2
77166.7
79114.4
77943.6
80313.7
78634.5
109637
109632
109609
109575
109537
109471
109401
109283
109173
109006
108866
108651
108484
108213
108020
107680
107463
107036
106801
106260
106016
105324
105088
104194
103992
102822
102700
101150
101177
99099.3
99385.1
96566.7
97281.6
93413.5
94817.8
89450.7
91941.4
84419.9
88597.5
77962.8
84723.8
69563.6
80209.6
58414.1
74750.8
43113.8
67560.1
21248.7
57133.1
-10600.9
41998.5
-54514
23940.6
-102935
11995.3
-71693.2
12691.3
-40108.2
17777.7
-14375.5
25227.4
6052.02
32945.2
21603.3
39839.9
33298.4
45772.6
42185.1
50800.1
48990.7
54998.1
54243.9
58491.3
58365.1
61432.5
61691.5
63971.6
64477.4
66221.2
66886.2
68238.8
69004.1
70042.1
70875.9
71637.1
72536.7
73036.3
74026.4
74262.3
75389.5
75342.2
76669.6
76302.9
77902.7
77165.8
79113.1
77943.5
80312.5
78635.3
109637
109632
109609
109575
109537
109471
109401
109283
109173
109006
108866
108652
108484
108213
108020
107680
107464
107036
106801
106260
106016
105324
105088
104194
103992
102822
102700
101150
101177
99099.4
99385.2
96566.9
97281.6
93413.6
94817.8
89450.8
91941.3
84419.9
88597.4
77962.8
84723.7
69563.7
80209.6
58414.3
74751.2
43114.5
67561
21249.7
57134.2
-10600.7
41998.7
-54516
23939.6
-102940
11994.8
-71693.8
12691.5
-40107.9
17777.2
-14375.9
25226.5
6051.58
32944.5
21603.1
39839.3
33298.2
45772.1
42184.7
50799.5
48990.3
54997.6
54243.5
58490.9
58364.7
61432.1
61691.1
63971.1
64476.9
66220.5
66885.5
68238
69003.3
70041.1
70874.9
71635.9
72535.5
73035.1
74025
74260.9
75388
75340.9
76668.1
76301.7
77901.3
77165
79111.8
77943.3
80311.4
78636.1
109638
109632
109609
109575
109537
109471
109401
109283
109173
109006
108866
108652
108484
108214
108020
107680
107464
107036
106801
106260
106017
105325
105088
104194
103992
102822
102700
101150
101177
99099.6
99385.3
96567
97281.7
93413.7
94817.8
89450.9
91941.3
84420
88597.4
77962.9
84723.6
69563.7
80209.6
58414.6
74751.6
43115.2
67562.1
21250.9
57135.4
-10600.4
41998.8
-54518.2
23938.4
-102946
11994
-71694.6
12691.6
-40107.7
17776.7
-14376.3
25225.6
6051.21
32943.8
21603.1
39838.8
33298.1
45771.5
42184.4
50798.9
48989.9
54997.1
54243.2
58490.5
58364.4
61431.7
61690.7
63970.6
64476.4
66219.9
66884.8
68237.3
69002.4
70040.2
70873.8
71634.9
72534.3
73033.8
74023.6
74259.6
75386.5
75339.5
76666.6
76300.5
77899.8
77164.2
79110.4
77943.2
80310.3
78636.8
109638
109632
109609
109575
109537
109471
109401
109283
109173
109006
108866
108652
108484
108214
108020
107681
107464
107036
106802
106260
106017
105325
105089
104194
103993
102822
102700
101150
101177
99099.8
99385.4
96567.3
97281.8
93414
94817.9
89451.1
91941.3
84420.2
88597.3
77963
84723.5
69563.9
80209.7
58415
74752
43116.1
67563.2
21252.2
57136.8
-10600
41999
-54520.8
23937.1
-102954
11993
-71695.6
12691.7
-40107.4
17776
-14376.7
25224.7
6050.9
32943
21603.1
39838.3
33298
45771
42184.2
50798.4
48989.6
54996.7
54242.9
58490.1
58364.1
61431.3
61690.3
63970.2
64475.9
66219.3
66884.2
68236.5
69001.6
70039.3
70872.8
71633.8
72533.1
73032.6
74022.2
74258.2
75385
75338.2
76665
76299.3
77898.3
77163.4
79109.1
77943
80309.1
78637.6
109638
109632
109610
109575
109537
109471
109401
109283
109173
109006
108866
108652
108484
108214
108020
107681
107464
107037
106802
106261
106017
105325
105089
104194
103993
102823
102700
101151
101177
99100
99385.6
96567.5
97282
93414.2
94818
89451.4
91941.4
84420.4
88597.3
77963.2
84723.4
69564.1
80209.7
58415.5
74752.5
43117.1
67564.4
21253.6
57138.2
-10599.6
41999.1
-54523.6
23935.5
-102963
11991.6
-71696.7
12691.6
-40107.1
17775.3
-14377.1
25223.7
6050.65
32942.3
21603.2
39837.8
33298
45770.4
42184
50797.9
48989.4
54996.2
54242.7
58489.7
58363.9
61430.9
61690
63969.7
64475.4
66218.7
66883.5
68235.7
69000.8
70038.4
70871.8
71632.7
72531.9
73031.3
74020.9
74256.9
75383.5
75336.8
76663.5
76298.1
77896.9
77162.6
79107.8
77942.8
80308
78638.3
109638
109633
109610
109576
109538
109472
109401
109283
109173
109007
108866
108652
108485
108214
108020
107681
107464
107037
106802
106261
106017
105325
105089
104194
103993
102823
102700
101151
101177
99100.3
99385.8
96567.8
97282.1
93414.5
94818.1
89451.7
91941.4
84420.7
88597.2
77963.4
84723.4
69564.4
80209.8
58416
74753.1
43118.3
67565.7
21255.2
57139.7
-10599.1
41999.3
-54526.7
23933.7
-102973
11989.9
-71698.1
12691.5
-40106.8
17774.5
-14377.4
25222.7
6050.46
32941.6
21603.3
39837.4
33298.1
45769.9
42183.9
50797.4
48989.2
54995.8
54242.5
58489.4
58363.6
61430.6
61689.7
63969.2
64474.9
66218.1
66882.9
68235
68999.9
70037.5
70870.8
71631.6
72530.7
73030.1
74019.5
74255.5
75382
75335.5
76662
76296.9
77895.4
77161.8
79106.5
77942.6
80306.9
78639
109638
109633
109610
109576
109538
109472
109401
109283
109173
109007
108867
108652
108485
108214
108021
107681
107464
107037
106802
106261
106017
105325
105089
104195
103993
102823
102700
101151
101178
99100.6
99386
96568.1
97282.3
93414.8
94818.2
89452
91941.5
84421
88597.2
77963.8
84723.3
69564.8
80209.9
58416.7
74753.7
43119.5
67567.1
21257
57141.4
-10598.6
41999.5
-54530.2
23931.7
-102985
11987.8
-71699.5
12691.3
-40106.5
17773.6
-14377.8
25221.7
6050.33
32940.9
21603.5
39836.9
33298.2
45769.4
42183.9
50796.9
48989.1
54995.4
54242.3
58489
58363.4
61430.2
61689.3
63968.8
64474.4
66217.5
66882.2
68234.2
68999.1
70036.6
70869.8
71630.5
72529.5
73028.9
74018.1
74254.2
75380.5
75334.1
76660.4
76295.7
77893.9
77160.9
79105.2
77942.4
80305.9
78639.7
109639
109633
109611
109576
109538
109472
109402
109284
109173
109007
108867
108652
108485
108214
108021
107681
107464
107037
106802
106261
106017
105326
105089
104195
103993
102823
102701
101151
101178
99100.9
99386.2
96568.5
97282.5
93415.2
94818.4
89452.4
91941.5
84421.4
88597.2
77964.1
84723.3
69565.2
80210
58417.4
74754.4
43120.9
67568.6
21258.9
57143.1
-10598
41999.7
-54533.9
23929.6
-102997
11985.5
-71701.2
12691.1
-40106.2
17772.6
-14378
25220.6
6050.27
32940.2
21603.8
39836.4
33298.4
45769
42183.9
50796.4
48989
54995
54242.2
58488.7
58363.2
61429.9
61689
63968.3
64473.9
66216.9
66881.5
68233.5
68998.3
70035.7
70868.8
71629.5
72528.3
73027.7
74016.7
74252.9
75379
75332.8
76658.9
76294.5
77892.5
77160.1
79103.9
77942.2
80304.8
78640.4
109639
109634
109611
109577
109538
109472
109402
109284
109174
109007
108867
108653
108485
108215
108021
107681
107465
107037
106802
106261
106018
105326
105090
104195
103994
102824
102701
101152
101178
99101.3
99386.5
96568.9
97282.8
93415.7
94818.6
89452.8
91941.6
84421.8
88597.2
77964.5
84723.3
69565.7
80210.2
58418.2
74755.1
43122.4
67570.2
21260.9
57144.9
-10597.3
42000
-54537.9
23927.1
-103012
11982.8
-71703
12690.7
-40106
17771.6
-14378.3
25219.5
6050.26
32939.5
21604.2
39836
33298.7
45768.5
42183.9
50796
48988.9
54994.6
54242.1
58488.4
58363.1
61429.5
61688.8
63967.9
64473.5
66216.3
66880.9
68232.8
68997.5
70034.8
70867.8
71628.4
72527.1
73026.5
74015.4
74251.6
75377.5
75331.4
76657.3
76293.3
77891
77159.2
79102.6
77942
80303.7
78641.1
109640
109634
109611
109577
109539
109472
109402
109284
109174
109007
108867
108653
108485
108215
108021
107682
107465
107038
106803
106262
106018
105326
105090
104196
103994
102824
102701
101152
101178
99101.8
99386.8
96569.4
97283
93416.1
94818.8
89453.3
91941.8
84422.3
88597.3
77965
84723.3
69566.3
80210.3
58419.1
74755.8
43124.1
67571.9
21263.1
57146.8
-10596.6
42000.2
-54542.3
23924.5
-103027
11979.9
-71705
12690.3
-40105.7
17770.5
-14378.6
25218.3
6050.32
32938.8
21604.6
39835.6
33299
45768.1
42184
50795.6
48988.9
54994.3
54242
58488.1
58363
61429.2
61688.5
63967.4
64473
66215.7
66880.3
68232
68996.7
70033.9
70866.8
71627.4
72525.9
73025.3
74014
74250.2
75376
75330.1
76655.8
76292.1
77889.5
77158.4
79101.3
77941.8
80302.7
78641.8
109640
109634
109612
109577
109539
109473
109402
109284
109174
109008
108867
108653
108486
108215
108022
107682
107465
107038
106803
106262
106018
105327
105090
104196
103994
102825
102702
101153
101179
99102.2
99387.1
96569.9
97283.3
93416.7
94819
89453.8
91941.9
84422.8
88597.3
77965.6
84723.3
69566.9
80210.5
58420.1
74756.6
43125.8
67573.7
21265.5
57148.9
-10595.8
42000.5
-54546.9
23921.7
-103044
11976.6
-71707.2
12689.9
-40105.4
17769.3
-14378.8
25217.1
6050.44
32938.1
21605.1
39835.1
33299.4
45767.7
42184.2
50795.2
48989
54994
54242
58487.8
58362.9
61428.9
61688.3
63967
64472.5
66215.1
66879.6
68231.3
68995.9
70033.1
70865.9
71626.4
72524.8
73024.1
74012.7
74248.9
75374.5
75328.8
76654.3
76290.9
77888
77157.5
79100
77941.5
80301.6
78642.4
109640
109635
109612
109578
109539
109473
109403
109285
109174
109008
108868
108653
108486
108215
108022
107682
107465
107038
106803
106262
106019
105327
105091
104196
103995
102825
102702
101153
101179
99102.7
99387.4
96570.4
97283.6
93417.2
94819.2
89454.4
91942.1
84423.4
88597.4
77966.2
84723.3
69567.6
80210.7
58421.2
74757.5
43127.7
67575.5
21267.9
57151
-10594.9
42000.7
-54551.9
23918.6
-103062
11973.1
-71709.6
12689.3
-40105.1
17768
-14379
25215.9
6050.61
32937.4
21605.7
39834.7
33299.8
45767.2
42184.4
50794.9
48989.1
54993.7
54242.1
58487.6
58362.8
61428.6
61688
63966.5
64472.1
66214.5
66879
68230.6
68995.1
70032.2
70864.9
71625.4
72523.6
73022.9
74011.3
74247.6
75373
75327.4
76652.7
76289.7
77886.6
77156.6
79098.7
77941.3
80300.6
78643.1
109641
109635
109613
109578
109540
109473
109403
109285
109175
109008
108868
108654
108486
108216
108022
107683
107466
107039
106804
106263
106019
105327
105091
104197
103995
102826
102702
101154
101179
99103.3
99387.8
96571
97283.9
93417.8
94819.5
89455.1
91942.2
84424.1
88597.4
77966.8
84723.3
69568.4
80211
58422.4
74758.4
43129.7
67577.5
21270.6
57153.2
-10594
42001
-54557.1
23915.4
-103081
11969.2
-71712.1
12688.7
-40104.7
17766.7
-14379.1
25214.6
6050.85
32936.7
21606.3
39834.3
33300.3
45766.9
42184.7
50794.5
48989.3
54993.4
54242.2
58487.3
58362.8
61428.3
61687.8
63966.1
64471.7
66213.9
66878.4
68229.8
68994.3
70031.3
70863.9
71624.4
72522.4
73021.7
74010
74246.3
75371.5
75326.1
76651.2
76288.5
77885.1
77155.8
79097.4
77941
80299.5
78643.7
109641
109636
109613
109578
109540
109474
109403
109285
109175
109008
108868
108654
108486
108216
108022
107683
107466
107039
106804
106263
106019
105328
105091
104197
103995
102826
102703
101154
101180
99103.9
99388.2
96571.6
97284.3
93418.5
94819.8
89455.8
91942.4
84424.8
88597.5
77967.5
84723.4
69569.2
80211.2
58423.6
74759.3
43131.8
67579.6
21273.4
57155.5
-10593
42001.3
-54562.7
23911.9
-103101
11965
-71714.7
12688
-40104.4
17765.2
-14379.3
25213.3
6051.15
32936
21607
39834
33300.9
45766.5
42185
50794.2
48989.5
54993.2
54242.3
58487.1
58362.8
61428
61687.6
63965.7
64471.3
66213.3
66877.8
68229.1
68993.5
70030.5
70863
71623.4
72521.3
73020.6
74008.6
74245
75370.1
75324.8
76649.6
76287.3
77883.6
77154.9
79096.1
77940.7
80298.5
78644.3
109642
109636
109614
109579
109540
109474
109404
109285
109175
109009
108869
108654
108487
108216
108023
107683
107466
107039
106804
106264
106020
105328
105092
104198
103996
102827
102703
101155
101180
99104.5
99388.6
96572.3
97284.7
93419.2
94820.1
89456.5
91942.7
84425.5
88597.6
77968.3
84723.4
69570.1
80211.5
58424.9
74760.3
43134.1
67581.7
21276.3
57157.9
-10591.9
42001.6
-54568.5
23908.2
-103123
11960.5
-71717.6
12687.2
-40104.1
17763.7
-14379.4
25211.9
6051.51
32935.3
21607.8
39833.6
33301.5
45766.1
42185.4
50793.9
48989.7
54993
54242.4
58486.9
58362.8
61427.8
61687.4
63965.2
64470.8
66212.7
66877.2
68228.4
68992.8
70029.6
70862
71622.4
72520.1
73019.4
74007.3
74243.8
75368.6
75323.5
76648
76286.1
77882.1
77154
79094.9
77940.5
80297.5
78644.9
109643
109637
109614
109579
109541
109474
109404
109286
109176
109009
108869
108655
108487
108217
108023
107684
107467
107040
106805
106264
106020
105329
105092
104198
103996
102827
102704
101155
101181
99105.1
99389.1
96573
97285.1
93420
94820.5
89457.3
91942.9
84426.3
88597.7
77969.1
84723.5
69571
80211.8
58426.4
74761.4
43136.5
67583.9
21279.4
57160.5
-10590.8
42001.9
-54574.7
23904.3
-103146
11955.8
-71720.6
12686.3
-40103.8
17762.1
-14379.5
25210.5
6051.93
32934.6
21608.7
39833.2
33302.2
45765.8
42185.8
50793.6
48990
54992.8
54242.6
58486.7
58362.9
61427.5
61687.3
63964.8
64470.4
66212.1
66876.6
68227.7
68992
70028.8
70861.1
71621.4
72519
73018.3
74005.9
74242.5
75367.1
75322.1
76646.5
76284.8
77880.6
77153.1
79093.6
77940.2
80296.5
78645.5
109643
109637
109615
109580
109541
109475
109404
109286
109176
109009
108869
108655
108487
108217
108023
107684
107467
107040
106805
106264
106021
105329
105093
104199
103997
102828
102704
101156
101181
99105.8
99389.5
96573.7
97285.5
93420.8
94820.8
89458.1
91943.1
84427.2
88597.9
77970
84723.6
69572
80212.1
58427.9
74762.5
43139
67586.2
21282.6
57163.1
-10589.6
42002.2
-54581.2
23900.1
-103171
11950.7
-71723.8
12685.4
-40103.5
17760.4
-14379.6
25209.1
6052.41
32933.9
21609.6
39832.9
33302.9
45765.5
42186.3
50793.4
48990.4
54992.6
54242.9
58486.6
58362.9
61427.3
61687.1
63964.4
64470
66211.6
66876
68227
68991.2
70028
70860.2
71620.4
72517.9
73017.1
74004.6
74241.2
75365.6
75320.8
76644.9
76283.6
77879.1
77152.2
79092.3
77939.8
80295.5
78646.1
109644
109638
109615
109581
109542
109475
109405
109287
109176
109010
108870
108655
108488
108217
108024
107684
107468
107041
106806
106265
106021
105330
105093
104199
103997
102828
102705
101157
101182
99106.6
99390
96574.5
97286
93421.6
94821.2
89459
91943.4
84428.1
88598
77970.9
84723.7
69573.1
80212.4
58429.5
74763.6
43141.6
67588.7
21286
57165.8
-10588.4
42002.5
-54588
23895.8
-103196
11945.4
-71727.1
12684.4
-40103.2
17758.7
-14379.6
25207.6
6052.95
32933.2
21610.6
39832.5
33303.7
45765.2
42186.9
50793.1
48990.8
54992.4
54243.1
58486.4
58363.1
61427
61687
63964
64469.6
66211
66875.4
68226.3
68990.5
70027.2
70859.3
71619.4
72516.7
73016
74003.3
74240
75364.1
75319.5
76643.4
76282.4
77877.6
77151.3
79091
77939.5
80294.5
78646.6
109644
109639
109616
109581
109542
109476
109405
109287
109177
109010
108870
108656
108488
108218
108024
107685
107468
107041
106806
106265
106021
105330
105094
104200
103998
102829
102705
101157
101182
99107.3
99390.6
96575.3
97286.5
93422.5
94821.6
89459.9
91943.7
84429
88598.2
77971.9
84723.8
69574.3
80212.8
58431.2
74764.8
43144.3
67591.2
21289.5
57168.6
-10587.1
42002.8
-54595.1
23891.2
-103223
11939.7
-71730.6
12683.3
-40102.8
17756.8
-14379.7
25206.1
6053.55
32932.5
21611.6
39832.2
33304.6
45764.9
42187.5
50792.9
48991.2
54992.3
54243.5
58486.3
58363.2
61426.8
61686.9
63963.6
64469.3
66210.4
66874.8
68225.6
68989.7
70026.3
70858.3
71618.5
72515.6
73014.9
74001.9
74238.7
75362.6
75318.2
76641.8
76281.2
77876.1
77150.3
79089.7
77939.2
80293.6
78647.2
109645
109639
109617
109582
109543
109476
109406
109287
109177
109010
108870
108656
108489
108218
108025
107685
107468
107042
106807
106266
106022
105331
105094
104201
103998
102830
102706
101158
101183
99108.1
99391.1
96576.2
97287
93423.4
94822
89460.9
91944
84430.1
88598.4
77973
84723.9
69575.5
80213.1
58432.9
74766
43147.2
67593.8
21293.1
57171.5
-10585.7
42003.2
-54602.5
23886.3
-103251
11933.8
-71734.3
12682.2
-40102.5
17754.9
-14379.7
25204.6
6054.21
32931.8
21612.8
39831.9
33305.6
45764.6
42188.2
50792.7
48991.7
54992.2
54243.8
58486.2
58363.4
61426.6
61686.8
63963.2
64468.9
66209.8
66874.2
68224.9
68989
70025.5
70857.4
71617.5
72514.5
73013.8
74000.6
74237.4
75361.1
75316.9
76640.2
76279.9
77874.6
77149.4
79088.5
77938.8
80292.6
78647.7
109646
109640
109617
109582
109543
109477
109406
109288
109178
109011
108871
108656
108489
108219
108025
107686
107469
107042
106807
106267
106023
105331
105095
104201
103999
102830
102706
101159
101184
99109
99391.7
96577.1
97287.5
93424.4
94822.5
89461.9
91944.3
84431.1
88598.6
77974.1
84724
69576.8
80213.5
58434.8
74767.3
43150.2
67596.4
21297
57174.5
-10584.3
42003.5
-54610.2
23881.3
-103281
11927.5
-71738.1
12681
-40102.2
17752.9
-14379.7
25203
6054.93
32931
21614
39831.6
33306.6
45764.4
42188.9
50792.5
48992.3
54992.1
54244.2
58486.1
58363.6
61426.4
61686.7
63962.8
64468.5
66209.2
66873.6
68224.2
68988.3
70024.7
70856.5
71616.6
72513.4
73012.7
73999.3
74236.2
75359.6
75315.6
76638.6
76278.7
77873.1
77148.5
79087.2
77938.5
80291.7
78648.2
109647
109641
109618
109583
109544
109477
109407
109288
109178
109011
108871
108657
108489
108219
108026
107686
107469
107043
106808
106267
106023
105332
105095
104202
104000
102831
102707
101160
101184
99109.8
99392.3
96578.1
97288.1
93425.4
94823
89463
91944.7
84432.3
88598.8
77975.3
84724.2
69578.1
80214
58436.7
74768.7
43153.3
67599.2
21300.9
57177.6
-10582.8
42003.8
-54618.3
23876
-103312
11921
-71742.1
12679.7
-40101.9
17750.8
-14379.6
25201.3
6055.7
32930.3
21615.2
39831.3
33307.6
45764.1
42189.7
50792.4
48992.9
54992
54244.7
58486
58363.8
61426.2
61686.6
63962.4
64468.2
66208.7
66873.1
68223.5
68987.5
70023.9
70855.6
71615.7
72512.3
73011.6
73997.9
74235
75358.1
75314.3
76637.1
76277.5
77871.6
77147.5
79085.9
77938.1
80290.7
78648.7
109647
109642
109619
109584
109545
109478
109407
109289
109178
109012
108872
108657
108490
108220
108026
107687
107470
107043
106808
106268
106024
105333
105096
104203
104000
102832
102708
101161
101185
99110.8
99392.9
96579.1
97288.6
93426.5
94823.4
89464.1
91945.1
84433.4
88599
77976.5
84724.3
69579.5
80214.4
58438.7
74770
43156.5
67602.1
21305
57180.8
-10581.2
42004.2
-54626.7
23870.5
-103344
11914.2
-71746.2
12678.3
-40101.5
17748.7
-14379.6
25199.7
6056.54
32929.6
21616.6
39831
33308.7
45763.9
42190.5
50792.3
48993.6
54991.9
54245.1
58486
58364
61426
61686.6
63962
64467.8
66208.1
66872.5
68222.8
68986.8
70023.2
70854.7
71614.7
72511.2
73010.5
73996.6
74233.7
75356.6
75313
76635.5
76276.2
77870.1
77146.6
79084.6
77937.7
80289.8
78649.2
109648
109642
109620
109584
109545
109478
109408
109289
109179
109012
108872
108658
108490
108220
108027
107687
107470
107044
106809
106268
106024
105333
105097
104203
104001
102833
102708
101161
101185
99111.7
99393.6
96580.1
97289.2
93427.6
94824
89465.3
91945.4
84434.7
88599.2
77977.8
84724.5
69581
80214.8
58440.8
74771.5
43159.9
67605
21309.3
57184
-10579.6
42004.6
-54635.3
23864.7
-103377
11907.1
-71750.6
12676.9
-40101.2
17746.4
-14379.5
25197.9
6057.44
32928.9
21618
39830.8
33309.9
45763.7
42191.4
50792.2
48994.3
54991.9
54245.6
58485.9
58364.3
61425.8
61686.5
63961.6
64467.5
66207.5
66871.9
68222.1
68986.1
70022.4
70853.9
71613.8
72510.1
73009.4
73995.3
74232.5
75355.1
75311.7
76633.9
76275
77868.6
77145.6
79083.4
77937.3
80288.9
78649.7
109649
109643
109620
109585
109546
109479
109408
109290
109179
109013
108873
108658
108491
108221
108027
107688
107471
107044
106809
106269
106025
105334
105097
104204
104002
102834
102709
101162
101186
99112.7
99394.3
96581.2
97289.9
93428.8
94824.5
89466.6
91945.8
84435.9
88599.5
77979.1
84724.7
69582.6
80215.3
58443
74773
43163.3
67608.1
21313.7
57187.4
-10577.9
42004.9
-54644.4
23858.7
-103412
11899.8
-71755
12675.3
-40100.9
17744.1
-14379.4
25196.2
6058.39
32928.2
21619.5
39830.5
33311.2
45763.5
42192.4
50792.1
48995
54991.9
54246.2
58485.9
58364.6
61425.6
61686.5
63961.2
64467.2
66206.9
66871.4
68221.4
68985.4
70021.6
70853
71612.9
72509
73008.4
73994
74231.3
75353.6
75310.4
76632.3
76273.8
77867.1
77144.7
79082.1
77936.9
80288
78650.1
109650
109644
109621
109586
109547
109480
109409
109290
109180
109013
108873
108659
108491
108221
108028
107688
107472
107045
106810
106270
106026
105335
105098
104205
104002
102834
102710
101163
101187
99113.7
99395
96582.3
97290.5
93430
94825.1
89467.8
91946.3
84437.3
88599.7
77980.5
84724.9
69584.2
80215.8
58445.3
74774.5
43166.9
67611.2
21318.2
57190.9
-10576.2
42005.3
-54653.7
23852.5
-103448
11892.1
-71759.7
12673.7
-40100.6
17741.7
-14379.3
25194.4
6059.41
32927.5
21621
39830.3
33312.5
45763.4
42193.4
50792
48995.8
54991.9
54246.8
58485.9
58364.9
61425.5
61686.5
63960.8
64466.8
66206.4
66870.8
68220.7
68984.7
70020.8
70852.1
71612
72507.9
73007.3
73992.7
74230.1
75352.1
75309.1
76630.7
76272.5
77865.6
77143.7
79080.9
77936.5
80287.1
78650.6
109651
109645
109622
109587
109547
109480
109410
109291
109181
109014
108874
108659
108492
108222
108028
107689
107472
107046
106811
106270
106026
105336
105099
104206
104003
102835
102711
101164
101188
99114.8
99395.7
96583.4
97291.2
93431.2
94825.7
89469.2
91946.7
84438.7
88600
77982
84725.1
69585.8
80216.3
58447.7
74776
43170.6
67614.4
21322.9
57194.5
-10574.4
42005.7
-54663.3
23846
-103485
11884.2
-71764.5
12672.1
-40100.2
17739.2
-14379.1
25192.5
6060.48
32926.7
21622.6
39830
33313.9
45763.2
42194.4
50792
48996.7
54992
54247.4
58485.9
58365.3
61425.3
61686.5
63960.5
64466.5
66205.8
66870.3
68220.1
68984
70020.1
70851.3
71611.1
72506.9
73006.2
73991.4
74228.9
75350.6
75307.8
76629.1
76271.3
77864.1
77142.7
79079.6
77936.1
80286.2
78651
109652
109646
109623
109588
109548
109481
109410
109291
109181
109014
108874
108660
108492
108222
108029
107690
107473
107046
106811
106271
106027
105336
105099
104207
104004
102836
102711
101165
101188
99115.9
99396.5
96584.6
97291.9
93432.5
94826.3
89470.5
91947.2
84440.1
88600.3
77983.5
84725.3
69587.6
80216.8
58450.1
74777.7
43174.5
67617.7
21327.7
57198.1
-10572.6
42006
-54673.3
23839.3
-103524
11875.9
-71769.4
12670.3
-40099.9
17736.6
-14379
25190.7
6061.61
32926
21624.3
39829.8
33315.3
45763.1
42195.6
50791.9
48997.6
54992
54248.1
58485.9
58365.7
61425.2
61686.6
63960.1
64466.2
66205.2
66869.8
68219.4
68983.3
70019.3
70850.4
71610.3
72505.8
73005.2
73990.1
74227.6
75349.1
75306.5
76627.5
76270
77862.5
77141.7
79078.3
77935.6
80285.3
78651.4
109653
109647
109624
109588
109549
109482
109411
109292
109182
109015
108875
108661
108493
108223
108029
107690
107473
107047
106812
106272
106028
105337
105100
104208
104005
102837
102712
101166
101189
99117.1
99397.3
96585.9
97292.6
93433.8
94826.9
89472
91947.7
84441.6
88600.6
77985.1
84725.5
69589.4
80217.4
58452.6
74779.3
43178.4
67621.1
21332.7
57201.9
-10570.7
42006.4
-54683.6
23832.4
-103564
11867.4
-71774.6
12668.5
-40099.6
17733.9
-14378.8
25188.7
6062.8
32925.3
21626.1
39829.6
33316.8
45763
42196.7
50791.9
48998.5
54992.1
54248.8
58486
58366.1
61425.1
61686.6
63959.7
64465.9
66204.7
66869.2
68218.7
68982.6
70018.6
70849.6
71609.4
72504.7
73004.2
73988.8
74226.5
75347.6
75305.2
76625.9
76268.8
77861
77140.7
79077.1
77935.2
80284.4
78651.8
109654
109648
109625
109589
109550
109482
109411
109293
109182
109015
108875
108661
108494
108223
108030
107691
107474
107048
106813
106273
106028
105338
105101
104209
104005
102838
102713
101167
101190
99118.2
99398.1
96587.2
97293.4
93435.2
94827.5
89473.4
91948.1
84443.2
88600.9
77986.7
84725.7
69591.2
80218
58455.2
74781
43182.5
67624.6
21337.8
57205.7
-10568.7
42006.8
-54694.3
23825.2
-103605
11858.7
-71779.9
12666.5
-40099.3
17731.1
-14378.6
25186.8
6064.05
32924.6
21627.9
39829.4
33318.4
45762.9
42198
50792
48999.5
54992.2
54249.6
58486.1
58366.6
61425
61686.7
63959.4
64465.6
66204.1
66868.7
68218.1
68981.9
70017.8
70848.7
71608.5
72503.7
73003.1
73987.5
74225.3
75346
75303.9
76624.3
76267.5
77859.5
77139.7
79075.8
77934.7
80283.6
78652.2
109655
109649
109626
109590
109551
109483
109412
109293
109183
109016
108876
108662
108494
108224
108031
107692
107475
107048
106813
106273
106029
105339
105102
104209
104006
102839
102714
101169
101191
99119.5
99398.9
96588.5
97294.2
93436.6
94828.2
89475
91948.7
84444.8
88601.3
77988.4
84726
69593.2
80218.5
58457.9
74782.8
43186.7
67628.2
21343.1
57209.7
-10566.7
42007.2
-54705.2
23817.8
-103647
11849.6
-71785.3
12664.5
-40099
17728.2
-14378.4
25184.7
6065.35
32923.8
21629.8
39829.2
33320
45762.8
42199.2
50792
49000.5
54992.3
54250.4
58486.1
58367
61424.9
61686.8
63959
64465.3
66203.5
66868.2
68217.4
68981.3
70017.1
70847.9
71607.7
72502.6
73002.1
73986.2
74224.1
75344.5
75302.6
76622.7
76266.3
77858
77138.7
79074.6
77934.2
80282.7
78652.6
109656
109650
109627
109591
109551
109484
109413
109294
109183
109017
108877
108662
108495
108225
108031
107692
107475
107049
106814
106274
106030
105340
105102
104210
104007
102840
102715
101170
101192
99120.7
99399.8
96589.9
97295
93438.1
94828.9
89476.5
91949.2
84446.4
88601.6
77990.1
84726.2
69595.1
80219.1
58460.7
74784.6
43191
67631.9
21348.5
57213.7
-10564.6
42007.6
-54716.5
23810.2
-103691
11840.3
-71791
12662.4
-40098.7
17725.3
-14378.2
25182.7
6066.71
32923.1
21631.7
39829
33321.7
45762.7
42200.6
50792.1
49001.6
54992.5
54251.2
58486.2
58367.6
61424.8
61686.9
63958.7
64465.1
66203
66867.7
68216.7
68980.6
70016.4
70847.1
71606.8
72501.6
73001.1
73984.9
74222.9
75343
75301.3
76621.1
76265
77856.4
77137.7
79073.3
77933.7
80281.9
78653
109657
109651
109628
109592
109552
109484
109414
109295
109184
109017
108877
108663
108496
108225
108032
107693
107476
107050
106815
106275
106031
105341
105103
104211
104008
102841
102716
101171
101193
99122
99400.7
96591.3
97295.8
93439.6
94829.6
89478.2
91949.8
84448.1
88602
77991.9
84726.5
69597.2
80219.8
58463.6
74786.4
43195.5
67635.6
21354
57217.8
-10562.4
42008
-54728.1
23802.3
-103736
11830.6
-71796.8
12660.3
-40098.5
17722.2
-14377.9
25180.6
6068.13
32922.4
21633.8
39828.9
33323.4
45762.7
42202
50792.2
49002.8
54992.6
54252.1
58486.4
58368.1
61424.7
61687
63958.3
64464.8
66202.4
66867.1
68216.1
68979.9
70015.6
70846.2
71606
72500.6
73000.1
73983.6
74221.7
75341.5
75300
76619.5
76263.7
77854.9
77136.6
79072.1
77933.2
80281.1
78653.3
109658
109652
109629
109593
109553
109485
109414
109295
109185
109018
108878
108664
108496
108226
108033
107694
107477
107051
106816
106276
106032
105342
105104
104213
104009
102843
102717
101172
101194
99123.3
99401.6
96592.7
97296.7
93441.2
94830.4
89479.8
91950.3
84449.9
88602.3
77993.8
84726.8
69599.3
80220.4
58466.5
74788.3
43200
67639.5
21359.7
57222.1
-10560.2
42008.4
-54740
23794.1
-103783
11820.7
-71802.7
12658
-40098.2
17719.1
-14377.7
25178.4
6069.61
32921.6
21635.9
39828.7
33325.2
45762.6
42203.4
50792.3
49004
54992.8
54253
58486.5
58368.6
61424.6
61687.1
63958
64464.5
66201.9
66866.6
68215.4
68979.3
70014.9
70845.4
71605.2
72499.5
72999.1
73982.3
74220.5
75340
75298.7
76617.9
76262.5
77853.4
77135.6
79070.8
77932.7
80280.2
78653.6
109660
109653
109630
109594
109554
109486
109415
109296
109186
109019
108879
108664
108497
108227
108033
107695
107478
107052
106816
106277
106032
105343
105105
104214
104010
102844
102718
101173
101195
99124.7
99402.6
96594.2
97297.6
93442.8
94831.1
89481.6
91950.9
84451.7
88602.7
77995.7
84727.1
69601.5
80221.1
58469.5
74790.2
43204.7
67643.4
21365.6
57226.4
-10557.9
42008.9
-54752.3
23785.8
-103830
11810.5
-71808.9
12655.7
-40097.9
17715.8
-14377.4
25176.2
6071.14
32920.9
21638.1
39828.6
33327.1
45762.6
42204.9
50792.4
49005.2
54993
54254
58486.6
58369.2
61424.6
61687.3
63957.6
64464.3
66201.3
66866.1
68214.8
68978.6
70014.2
70844.6
71604.4
72498.5
72998.1
73981
74219.4
75338.5
75297.4
76616.3
76261.2
77851.8
77134.5
79069.6
77932.1
80279.4
78654
109661
109654
109631
109595
109555
109487
109416
109297
109186
109019
108879
108665
108498
108228
108034
107695
107478
107052
106817
106278
106033
105344
105106
104215
104011
102845
102719
101175
101196
99126.1
99403.5
96595.7
97298.5
93444.5
94831.9
89483.3
91951.5
84453.6
88603.1
77997.7
84727.4
69603.7
80221.7
58472.6
74792.2
43209.5
67647.4
21371.6
57230.8
-10555.6
42009.3
-54764.9
23777.2
-103879
11800
-71815.2
12653.2
-40097.7
17712.5
-14377.1
25174
6072.73
32920.2
21640.3
39828.5
33329.1
45762.6
42206.5
50792.5
49006.5
54993.3
54255
58486.8
58369.9
61424.5
61687.4
63957.3
64464
66200.8
66865.6
68214.1
68978
70013.5
70843.8
71603.6
72497.5
72997.1
73979.7
74218.2
75337
75296.2
76614.6
76259.9
77850.3
77133.5
79068.3
77931.6
80278.6
78654.3
109662
109655
109633
109596
109556
109488
109417
109297
109187
109020
108880
108666
108498
108228
108035
107696
107479
107053
106818
106279
106034
105345
105107
104216
104012
102846
102720
101176
101197
99127.6
99404.5
96597.3
97299.4
93446.2
94832.7
89485.2
91952.2
84455.5
88603.5
77999.7
84727.7
69606.1
80222.4
58475.8
74794.2
43214.4
67651.5
21377.7
57235.3
-10553.2
42009.7
-54777.8
23768.3
-103930
11789.3
-71821.7
12650.7
-40097.5