/*--------------------------------*- C++ -*----------------------------------*\
| =========                 |                                                 |
| \\      /  F ield         | OpenFOAM: The Open Source CFD Toolbox           |
|  \\    /   O peration     | Version:  2412                                  |
|   \\  /    A nd           | Website:  www.openfoam.com                      |
|    \\/     M anipulation  |                                                 |
\*---------------------------------------------------------------------------*/
FoamFile
{
    version     2.0;
    format      ascii;
    arch        "LSB;label=32;scalar=64";
    class       surfaceScalarField;
    location    "0.3";
    object      phi;
}
// * * * * * * * * * * * * * * * * * * * * * * * * * * * * * * * * * * * * * //

dimensions      [0 3 -1 0 0 0 0];

oriented        oriented;

internalField   nonuniform List<scalar> 
25905
(
0.00747374
0.000203086
0.00738575
0.000171802
0.00732801
0.000109052
0.00731786
1.44773e-05
0.00735658
-8.12327e-05
0.00742619
-0.000141714
0.00750405
-0.00015807
0.00757546
-0.000145384
0.00763618
-0.000123889
0.00768763
-0.000104933
0.00773206
-9.04758e-05
0.00777102
-7.9247e-05
0.00780518
-6.95151e-05
0.00783523
-6.12077e-05
0.00786151
-5.36111e-05
0.00788469
-4.72712e-05
0.00790481
-4.11266e-05
0.00792263
-3.64558e-05
0.00793796
-3.16113e-05
0.00795161
-2.83359e-05
0.00796313
-2.43817e-05
0.00797346
-2.2087e-05
0.00798177
-1.82019e-05
0.00798945
-1.65833e-05
0.00799512
-1.22492e-05
0.00800068
-1.07239e-05
0.00800415
-5.25921e-06
0.00800811
-3.30523e-06
0.00800969
4.33673e-06
0.00801264
7.11142e-06
0.00801274
1.72719e-05
0.00801523
1.93499e-05
0.00801428
2.85023e-05
0.00801714
2.49537e-05
0.00801589
2.90375e-05
0.00802022
1.70175e-05
0.00801963
1.32319e-05
0.00802712
-1.12121e-05
0.00802894
-2.76173e-05
0.00804187
-6.95724e-05
0.00804839
-0.000102617
0.00806887
-0.000162121
0.00808055
-0.00019904
0.00810643
-0.000257861
0.00811696
-0.000262003
0.00813664
-0.00025451
0.00812902
-0.000113689
0.00811999
2.96274e-05
0.00807607
0.000257875
0.00800624
0.000352434
0.00788705
0.000459428
0.00763882
0.000536665
0.00725474
0.000604502
0.00727895
-0.000124721
0.00753484
-0.000477666
0.00769549
-0.000262157
0.00775838
8.85707e-05
0.00779564
0.000239463
0.0077978
0.000353225
0.00781042
0.000244417
0.00780601
0.000296704
0.00781577
0.000187524
0.00781439
0.000200544
0.00782495
0.000125463
0.00782609
0.000155105
0.00783526
0.000104208
0.00783561
9.46338e-05
0.00784062
1.2442e-05
0.0078377
-3.15851e-05
0.00783715
-9.6061e-05
0.00782975
-0.000124464
0.00782317
-0.000159503
0.00781124
-0.000165808
0.00779981
-0.000168918
0.00778513
-0.000152566
0.00777164
-0.000140086
0.00775702
-0.000124312
0.00774407
-0.000116266
0.00773129
-0.000109822
0.00772018
-0.000109278
0.00770956
-0.000115217
0.00769999
-0.000127802
0.0076908
-0.000155322
0.00768208
-0.000192279
0.00767377
-0.000252605
0.00766578
-0.000318819
0.00765857
-0.000415012
0.00765226
-0.000506433
0.00764772
-0.000635901
0.00764531
-0.000738217
0.007646
-0.000893898
0.00765105
-0.000983058
0.00766086
-0.00115489
0.00767841
-0.00118973
0.00770254
-0.00136112
0.00773878
-0.00128127
0.00778363
-0.00143449
0.0078446
-0.00118385
-0.0012489
0.00747374
0.000305101
0.00738574
0.000259801
0.007328
0.000166798
0.00731784
2.46386e-05
0.00735654
-0.000119939
0.00742614
-0.000211314
0.00750399
-0.000235918
0.00757541
-0.000216798
0.00763612
-0.000184607
0.00768757
-0.000156383
0.00773201
-0.000134908
0.00777097
-0.00011821
0.00780513
-0.000103674
0.00783518
-9.12591e-05
0.00786146
-7.98949e-05
0.00788464
-7.04469e-05
0.00790477
-6.12531e-05
0.00792259
-5.42765e-05
0.00793792
-4.69442e-05
0.00795156
-4.19819e-05
0.00796308
-3.59e-05
0.00797342
-3.24255e-05
0.00798172
-2.65048e-05
0.00798941
-2.4266e-05
0.00799508
-1.79183e-05
0.00800064
-1.62892e-05
0.00800411
-8.72322e-06
0.00800807
-7.26901e-06
0.00800965
2.75989e-06
0.0080126
4.15978e-06
0.00801271
1.71615e-05
0.0080152
1.68606e-05
0.00801425
2.94524e-05
0.00801712
2.20855e-05
0.00801586
3.02936e-05
0.00802019
1.26879e-05
0.0080196
1.38219e-05
0.00802708
-1.86972e-05
0.00802891
-2.94393e-05
0.00804184
-8.25017e-05
0.00804835
-0.000109136
0.00806883
-0.0001826
0.00808051
-0.000210721
0.00810639
-0.000283738
0.00811693
-0.000272541
0.00813662
-0.000274202
0.008129
-0.000106068
0.00811997
3.86551e-05
0.00807604
0.000301807
0.0080062
0.00042227
0.007887
0.000578631
0.00763878
0.000784889
0.00725476
0.00098852
0.00727896
-0.000148921
0.0075348
-0.000733506
0.00769544
-0.000422801
0.00775833
2.56787e-05
0.0077956
0.000202197
0.00779775
0.000351071
0.00781038
0.000231794
0.00780597
0.000301107
0.00781574
0.000177758
0.00781437
0.00020192
0.00782493
0.000114902
0.00782606
0.000153968
0.00783523
9.5038e-05
0.00783559
9.42722e-05
0.0078406
7.43212e-06
0.00783768
-2.86649e-05
0.00783713
-9.55022e-05
0.00782973
-0.000117068
0.00782315
-0.000152925
0.00781122
-0.000153882
0.00779978
-0.000157479
0.00778511
-0.000137891
0.00777162
-0.000126596
0.007757
-0.00010969
0.00774405
-0.000103318
0.00773126
-9.70325e-05
0.00772016
-9.8175e-05
0.00770953
-0.000104588
0.00769996
-0.000118237
0.00769076
-0.000146122
0.00768204
-0.000183562
0.00767372
-0.000244284
0.00766572
-0.000310823
0.00765851
-0.000407795
0.00765219
-0.000500112
0.00764764
-0.000631353
0.00764522
-0.000735799
0.0076459
-0.00089458
0.00765096
-0.00098812
0.00766079
-0.00116471
0.00767836
-0.0012073
0.00770251
-0.00138527
0.0077388
-0.00131756
0.00778371
-0.0014794
0.00784474
-0.00124488
-0.0013262
0.00747374
0.000407116
0.00738574
0.000347804
0.00732798
0.000224557
0.0073178
3.48242e-05
0.00735648
-0.000158618
0.00742606
-0.000280897
0.0075039
-0.00031376
0.00757532
-0.000288213
0.00763604
-0.000245329
0.00768749
-0.000207835
0.00773192
-0.000179342
0.00777089
-0.000157176
0.00780505
-0.000137834
0.0078351
-0.000121312
0.00786139
-0.000106181
0.00788457
-9.36244e-05
0.0079047
-8.13814e-05
0.00792252
-7.2099e-05
0.00793785
-6.22789e-05
0.0079515
-5.56295e-05
0.00796302
-4.74198e-05
0.00797336
-4.27654e-05
0.00798166
-3.48091e-05
0.00798935
-3.19498e-05
0.00799502
-2.35883e-05
0.00800058
-2.18553e-05
0.00800405
-1.21881e-05
0.00800801
-1.12337e-05
0.00800959
1.18168e-06
0.00801255
1.20612e-06
0.00801266
1.70481e-05
0.00801515
1.43679e-05
0.00801421
3.03995e-05
0.00801708
1.92157e-05
0.00801582
3.15495e-05
0.00802015
8.35938e-06
0.00801956
1.44139e-05
0.00802704
-2.61795e-05
0.00802886
-3.12574e-05
0.00804178
-9.54268e-05
0.00804829
-0.00011565
0.00806877
-0.000203077
0.00808045
-0.0002224
0.00810633
-0.000309617
0.00811687
-0.000283085
0.00813657
-0.000293901
0.00812896
-9.84536e-05
0.00811993
4.76806e-05
0.00807599
0.000345747
0.00800615
0.000492111
0.00788694
0.000697848
0.00763872
0.0010331
0.00725477
0.00137247
0.00727896
-0.000173113
0.00753476
-0.000989296
0.00769539
-0.000583432
0.00775828
-3.72146e-05
0.00779555
0.000164923
0.0077977
0.000348925
0.00781032
0.000219169
0.00780593
0.0003055
0.00781571
0.00016798
0.00781433
0.000203292
0.0078249
0.000104341
0.00782603
0.000152831
0.00783521
8.58627e-05
0.00783558
9.39043e-05
0.00784059
2.42079e-06
0.00783767
-2.57444e-05
0.00783711
-9.49434e-05
0.00782971
-0.000109673
0.00782314
-0.000146347
0.00781121
-0.000141954
0.00779977
-0.000146039
0.00778509
-0.000123217
0.0077716
-0.000113106
0.00775698
-9.50666e-05
0.00774403
-9.03677e-05
0.00773124
-8.42403e-05
0.00772013
-8.70688e-05
0.0077095
-9.39553e-05
0.00769993
-0.000108668
0.00769073
-0.000136918
0.007682
-0.00017484
0.00767368
-0.000235957
0.00766567
-0.000302819
0.00765845
-0.00040057
0.00765212
-0.000493781
0.00764756
-0.000626794
0.00764513
-0.000733373
0.00764581
-0.000895255
0.00765087
-0.000993183
0.0076607
-0.00117454
0.00767829
-0.0012249
0.00770247
-0.00140946
0.00773881
-0.00135389
0.00778376
-0.00152436
0.00784485
-0.00130597
-0.00140356
0.00747374
0.000509132
0.00738574
0.000435809
0.00732797
0.000282327
0.00731776
4.50341e-05
0.00735641
-0.000197268
0.00742597
-0.000350458
0.0075038
-0.000391595
0.00757522
-0.000359629
0.00763594
-0.000306053
0.0076874
-0.000259289
0.00773183
-0.000223777
0.0077708
-0.000196142
0.00780496
-0.000171996
0.00783502
-0.000151367
0.0078613
-0.000132468
0.00788448
-0.000116804
0.00790461
-0.000101511
0.00792244
-8.99233e-05
0.00793777
-7.76152e-05
0.00795142
-6.92788e-05
0.00796294
-5.89413e-05
0.00797328
-5.31068e-05
0.00798159
-4.31147e-05
0.00798928
-3.96348e-05
0.00799495
-2.92595e-05
0.00800051
-2.74223e-05
0.00800398
-1.5654e-05
0.00800795
-1.51995e-05
0.00800953
-3.98019e-07
0.00801248
-1.74958e-06
0.0080126
1.69318e-05
0.00801509
1.18718e-05
0.00801415
3.13437e-05
0.00801702
1.63445e-05
0.00801576
3.28055e-05
0.00802009
4.0322e-06
0.0080195
1.50087e-05
0.00802698
-3.36582e-05
0.00802879
-3.30708e-05
0.00804171
-0.000108347
0.00804822
-0.000122159
0.00806869
-0.00022355
0.00808037
-0.000234078
0.00810625
-0.000335499
0.0081168
-0.000293634
0.00813651
-0.000313608
0.0081289
-9.08463e-05
0.00811988
5.67034e-05
0.00807593
0.000389697
0.00800608
0.000561953
0.00788685
0.000817079
0.00763866
0.00128129
0.00725478
0.00175635
0.00727897
-0.000197297
0.0075347
-0.00124503
0.00769532
-0.000744046
0.00775821
-0.000100106
0.00779549
0.000127641
0.00779763
0.000346788
0.00781025
0.000206541
0.00780587
0.000309881
0.00781567
0.000158187
0.0078143
0.00020466
0.00782486
9.37784e-05
0.007826
0.000151691
0.00783518
7.66807e-05
0.00783556
9.3529e-05
0.00784057
-2.59283e-06
0.00783765
-2.28244e-05
0.00783709
-9.43848e-05
0.0078297
-0.00010228
0.00782312
-0.000139769
0.00781119
-0.000130026
0.00779975
-0.000134599
0.00778508
-0.000108543
0.00777159
-9.96144e-05
0.00775696
-8.04417e-05
0.00774401
-7.74149e-05
0.00773121
-7.14455e-05
0.00772011
-7.59595e-05
0.00770947
-8.33195e-05
0.0076999
-9.90959e-05
0.00769069
-0.000127711
0.00768196
-0.000166115
0.00767363
-0.000227624
0.00766562
-0.000294808
0.00765838
-0.000393334
0.00765204
-0.000487439
0.00764747
-0.000622222
0.00764504
-0.000730938
0.0076457
-0.000895924
0.00765077
-0.000998248
0.0076606
-0.00118437
0.00767821
-0.00124251
0.00770242
-0.00143367
0.0077388
-0.00139026
0.0077838
-0.00156937
0.00784495
-0.00136712
-0.00148098
0.00747374
0.000611149
0.00738573
0.000523817
0.00732795
0.000340107
0.00731772
5.52681e-05
0.00735634
-0.000235888
0.00742588
-0.000419997
0.0075037
-0.00046942
0.00757512
-0.000431042
0.00763584
-0.000366777
0.00768729
-0.000310743
0.00773173
-0.000268212
0.0077707
-0.000235108
0.00780486
-0.000206158
0.00783491
-0.000181423
0.0078612
-0.000158756
0.00788438
-0.000139984
0.00790451
-0.000121643
0.00792234
-0.000107749
0.00793768
-9.29531e-05
0.00795133
-8.29295e-05
0.00796285
-7.04642e-05
0.0079732
-6.34495e-05
0.0079815
-5.14216e-05
0.00798919
-4.73209e-05
0.00799486
-3.49316e-05
0.00800043
-3.29903e-05
0.0080039
-1.91209e-05
0.00800786
-1.91664e-05
0.00800944
-1.97917e-06
0.0080124
-4.70738e-06
0.00801252
1.68125e-05
0.00801502
9.37222e-06
0.00801408
3.22852e-05
0.00801695
1.34718e-05
0.0080157
3.40619e-05
0.00802002
-2.9345e-07
0.00801942
1.56065e-05
0.0080269
-4.11332e-05
0.00802871
-3.48788e-05
0.00804162
-0.000121262
0.00804812
-0.000128662
0.00806859
-0.00024402
0.00808027
-0.000245754
0.00810615
-0.000361383
0.00811671
-0.000304188
0.00813642
-0.000333324
0.00812882
-8.32456e-05
0.0081198
6.5723e-05
0.00807584
0.000433658
0.008006
0.000631797
0.00788676
0.000936322
0.00763858
0.00152947
0.00725479
0.00214014
0.00727897
-0.000221473
0.00753464
-0.0015007
0.00769523
-0.00090464
0.00775812
-0.000162992
0.00779541
9.03498e-05
0.00779754
0.000344656
0.00781017
0.000193907
0.00780581
0.000314248
0.00781562
0.000148378
0.00781426
0.000206021
0.00782482
8.32129e-05
0.00782596
0.000150549
0.00783515
6.74907e-05
0.00783554
9.31453e-05
0.00784055
-7.60966e-06
0.00783764
-1.99054e-05
0.00783708
-9.38269e-05
0.00782969
-9.4889e-05
0.00782311
-0.000133192
0.00781118
-0.000118098
0.00779974
-0.000123157
0.00778506
-9.38678e-05
0.00777157
-8.61224e-05
0.00775694
-6.58151e-05
0.00774399
-6.44595e-05
0.00773119
-5.8648e-05
0.00772008
-6.48473e-05
0.00770944
-7.26804e-05
0.00769986
-8.95209e-05
0.00769065
-0.000118501
0.00768192
-0.000157385
0.00767359
-0.000219284
0.00766557
-0.000286789
0.00765832
-0.000386088
0.00765197
-0.000481086
0.00764738
-0.000617639
0.00764494
-0.000728493
0.0076456
-0.000896583
0.00765066
-0.00100331
0.0076605
-0.00119421
0.00767813
-0.00126014
0.00770236
-0.0014579
0.00773877
-0.00142667
0.00778383
-0.00161442
0.00784503
-0.00142833
-0.00155846
0.00747374
0.000713167
0.00738573
0.000611827
0.00732794
0.000397897
0.00731768
6.55254e-05
0.00735627
-0.000274476
0.00742579
-0.000489511
0.0075036
-0.000547232
0.00757501
-0.000502452
0.00763573
-0.0004275
0.00768718
-0.000362196
0.00773162
-0.000312646
0.00777058
-0.000274074
0.00780475
-0.00024032
0.0078348
-0.000211479
0.00786109
-0.000185045
0.00788427
-0.000163165
0.00790441
-0.000141775
0.00792223
-0.000125576
0.00793757
-0.000108292
0.00795122
-9.65817e-05
0.00796275
-8.19886e-05
0.00797309
-7.37936e-05
0.0079814
-5.97299e-05
0.00798909
-5.50082e-05
0.00799476
-4.06049e-05
0.00800033
-3.85592e-05
0.0080038
-2.25888e-05
0.00800777
-2.31345e-05
0.00800935
-3.56186e-06
0.00801231
-7.66734e-06
0.00801243
1.66902e-05
0.00801493
6.86927e-06
0.008014
3.32241e-05
0.00801687
1.05979e-05
0.00801561
3.5319e-05
0.00801994
-4.6172e-06
0.00801933
1.62079e-05
0.0080268
-4.86037e-05
0.00802861
-3.66808e-05
0.00804152
-0.000134171
0.00804801
-0.00013516
0.00806848
-0.000264486
0.00808015
-0.000257428
0.00810604
-0.00038727
0.0081166
-0.000314747
0.00813632
-0.000353049
0.00812873
-7.56509e-05
0.00811971
7.4739e-05
0.00807574
0.000477629
0.0080059
0.000701639
0.00788665
0.00105557
0.0076385
0.00177762
0.0072548
0.00252384
0.00727896
-0.000245638
0.00753457
-0.0017563
0.00769514
-0.00106521
0.00775801
-0.00022587
0.00779531
5.305e-05
0.00779744
0.000342531
0.00781008
0.000181265
0.00780573
0.000318597
0.00781556
0.000138548
0.00781421
0.000207375
0.00782478
7.26434e-05
0.00782592
0.000149402
0.00783512
5.82916e-05
0.00783552
9.27522e-05
0.00784054
-1.26306e-05
0.00783762
-1.69879e-05
0.00783706
-9.327e-05
0.00782967
-8.74998e-05
0.0078231
-0.000126615
0.00781117
-0.000106169
0.00779972
-0.000111714
0.00778505
-7.91926e-05
0.00777155
-7.26293e-05
0.00775693
-5.11862e-05
0.00774397
-5.15012e-05
0.00773117
-4.58477e-05
0.00772005
-5.37321e-05
0.00770941
-6.20381e-05
0.00769983
-7.99428e-05
0.00769062
-0.000109287
0.00768188
-0.00014865
0.00767354
-0.000210939
0.00766551
-0.000278761
0.00765825
-0.000378831
0.00765189
-0.000474721
0.00764729
-0.000613042
0.00764484
-0.000726037
0.00764549
-0.000897234
0.00765055
-0.00100838
0.00766039
-0.00120405
0.00767804
-0.00127778
0.00770229
-0.00148215
0.00773874
-0.00146313
0.00778384
-0.00165952
0.0078451
-0.00148958
-0.001636
0.00747374
0.000815185
0.00738573
0.000699839
0.00732793
0.000455694
0.00731765
7.58052e-05
0.00735621
-0.000313033
0.00742569
-0.000558999
0.00750349
-0.00062503
0.0075749
-0.000573855
0.00763562
-0.00048822
0.00768707
-0.000413646
0.0077315
-0.000357078
0.00777046
-0.000313038
0.00780462
-0.000274481
0.00783468
-0.000241534
0.00786097
-0.000211334
0.00788415
-0.000186347
0.00790428
-0.000161908
0.00792211
-0.000143404
0.00793745
-0.000123633
0.0079511
-0.000110235
0.00796263
-9.35141e-05
0.00797297
-8.41389e-05
0.00798128
-6.80392e-05
0.00798897
-6.26966e-05
0.00799465
-4.62792e-05
0.00800022
-4.41291e-05
0.00800369
-2.60578e-05
0.00800766
-2.71038e-05
0.00800924
-5.14599e-06
0.0080122
-1.06294e-05
0.00801233
1.65652e-05
0.00801483
4.36293e-06
0.0080139
3.41604e-05
0.00801677
7.72271e-06
0.00801551
3.65769e-05
0.00801984
-8.93894e-06
0.00801923
1.68133e-05
0.0080267
-5.60696e-05
0.00802849
-3.84763e-05
0.00804139
-0.000147073
0.00804788
-0.00014165
0.00806834
-0.000284948
0.00808002
-0.000269099
0.0081059
-0.000413159
0.00811647
-0.000325312
0.0081362
-0.000372783
0.00812861
-6.80625e-05
0.0081196
8.3751e-05
0.00807562
0.000521612
0.00800578
0.000771479
0.00788652
0.00117483
0.0076384
0.00202574
0.0072548
0.00290743
0.00727896
-0.000269792
0.00753449
-0.00201183
0.00769503
-0.00122575
0.00775789
-0.000288736
0.0077952
1.57414e-05
0.00779732
0.00034041
0.00780997
0.000168613
0.00780564
0.000322926
0.0078155
0.000128698
0.00781415
0.000208719
0.00782473
6.20685e-05
0.00782588
0.00014825
0.00783509
4.90823e-05
0.00783549
9.23487e-05
0.00784052
-1.76565e-05
0.0078376
-1.40725e-05
0.00783705
-9.27146e-05
0.00782966
-8.01125e-05
0.00782308
-0.000120039
0.00781115
-9.42388e-05
0.00779971
-0.00010027
0.00778503
-6.45167e-05
0.00777154
-5.91349e-05
0.00775691
-3.65549e-05
0.00774394
-3.85397e-05
0.00773114
-3.30444e-05
0.00772002
-4.26139e-05
0.00770938
-5.13927e-05
0.0076998
-7.03616e-05
0.00769058
-0.00010007
0.00768184
-0.000139911
0.00767349
-0.000202586
0.00766545
-0.000270725
0.00765818
-0.000371562
0.00765181
-0.000468343
0.0076472
-0.000608432
0.00764473
-0.00072357
0.00764537
-0.000897874
0.00765043
-0.00101344
0.00766027
-0.0012139
0.00767793
-0.00129544
0.00770221
-0.00150643
0.0077387
-0.00149961
0.00778384
-0.00170466
0.00784515
-0.0015509
-0.0017136
0.00747374
0.000917204
0.00738573
0.000787852
0.00732792
0.000513498
0.00731762
8.61067e-05
0.00735614
-0.000351556
0.0074256
-0.000628457
0.00750338
-0.000702811
0.00757478
-0.00064525
0.00763549
-0.000548935
0.00768694
-0.000465092
0.00773137
-0.000401506
0.00777033
-0.000351999
0.00780449
-0.00030864
0.00783454
-0.000271588
0.00786083
-0.000237623
0.00788401
-0.000209528
0.00790415
-0.000182042
0.00792197
-0.000161232
0.00793732
-0.000138974
0.00795097
-0.00012389
0.0079625
-0.000105041
0.00797284
-9.44854e-05
0.00798115
-7.63497e-05
0.00798884
-7.0386e-05
0.00799452
-5.19544e-05
0.00800009
-4.97001e-05
0.00800356
-2.95277e-05
0.00800753
-3.10744e-05
0.00800912
-6.73168e-06
0.00801208
-1.35937e-05
0.00801221
1.64373e-05
0.00801472
1.85324e-06
0.00801378
3.50943e-05
0.00801666
4.84654e-06
0.0080154
3.7836e-05
0.00801972
-1.32583e-05
0.00801911
1.74232e-05
0.00802657
-6.35301e-05
0.00802836
-4.02644e-05
0.00804125
-0.000159969
0.00804774
-0.000148133
0.00806819
-0.000305404
0.00807986
-0.000280766
0.00810575
-0.00043905
0.00811632
-0.00033588
0.00813606
-0.000392527
0.00812848
-6.04797e-05
0.00811947
9.27586e-05
0.00807548
0.000565606
0.00800564
0.000841314
0.00788638
0.0012941
0.00763829
0.00227384
0.00725481
0.00329091
0.00727895
-0.000293935
0.0075344
-0.00226727
0.00769491
-0.00138626
0.00775776
-0.000351586
0.00779507
-2.15757e-05
0.00779719
0.000338294
0.00780985
0.000155948
0.00780555
0.000327233
0.00781542
0.000118823
0.00781409
0.000210052
0.00782467
5.14873e-05
0.00782583
0.000147093
0.00783505
3.98617e-05
0.00783546
9.19341e-05
0.0078405
-2.26882e-05
0.00783758
-1.116e-05
0.00783703
-9.21608e-05
0.00782964
-7.27271e-05
0.00782307
-0.000113463
0.00781114
-8.23079e-05
0.00779969
-8.88251e-05
0.00778501
-4.984e-05
0.00777152
-4.56389e-05
0.00775688
-2.19209e-05
0.00774392
-2.55748e-05
0.00773111
-2.02381e-05
0.00771999
-3.14927e-05
0.00770934
-4.0744e-05
0.00769976
-6.07773e-05
0.00769054
-9.08491e-05
0.00768179
-0.000131168
0.00767344
-0.000194227
0.00766539
-0.00026268
0.00765811
-0.000364283
0.00765172
-0.000461953
0.0076471
-0.000603807
0.00764462
-0.00072109
0.00764524
-0.000898504
0.0076503
-0.00101849
0.00766015
-0.00122374
0.00767782
-0.00131311
0.00770211
-0.00153072
0.00773864
-0.00153614
0.00778382
-0.00174985
0.00784519
-0.00161226
-0.00179126
0.00747374
0.00101922
0.00738572
0.000875866
0.00732791
0.000571308
0.00731759
9.64294e-05
0.00735608
-0.000390045
0.00742551
-0.000697884
0.00750327
-0.000780572
0.00757465
-0.000716635
0.00763536
-0.000609643
0.0076868
-0.000516533
0.00773123
-0.000445929
0.00777018
-0.000390956
0.00780434
-0.000342797
0.00783439
-0.000301641
0.00786068
-0.00026391
0.00788386
-0.000232709
0.007904
-0.000202175
0.00792182
-0.000179061
0.00793717
-0.000154316
0.00795082
-0.000137545
0.00796235
-0.000116568
0.0079727
-0.000104833
0.00798101
-8.46611e-05
0.0079887
-7.80764e-05
0.00799438
-5.76305e-05
0.00799995
-5.52719e-05
0.00800342
-3.29986e-05
0.00800739
-3.50462e-05
0.00800898
-8.3188e-06
0.00801194
-1.65602e-05
0.00801207
1.63067e-05
0.00801459
-6.59741e-07
0.00801366
3.60261e-05
0.00801653
1.96937e-06
0.00801527
3.90965e-05
0.00801959
-1.75751e-05
0.00801897
1.8038e-05
0.00802643
-7.09852e-05
0.00802821
-4.20448e-05
0.0080411
-0.000172857
0.00804757
-0.000154607
0.00806802
-0.000325856
0.00807969
-0.00029243
0.00810558
-0.000464944
0.00811615
-0.000346453
0.00813591
-0.00041228
0.00812833
-5.29027e-05
0.00811933
0.000101761
0.00807532
0.000609613
0.00800549
0.000911142
0.00788622
0.00141337
0.00763817
0.00252189
0.00725481
0.00367427
0.00727894
-0.000318066
0.0075343
-0.00252263
0.00769477
-0.00154674
0.0077576
-0.000414417
0.00779493
-5.89013e-05
0.00779704
0.00033618
0.00780972
0.000143269
0.00780544
0.000331515
0.00781534
0.000108922
0.00781402
0.000211373
0.00782461
4.08984e-05
0.00782577
0.000145928
0.00783501
3.06287e-05
0.00783543
9.15072e-05
0.00784047
-2.77265e-05
0.00783756
-8.25065e-06
0.00783701
-9.16092e-05
0.00782963
-6.53439e-05
0.00782305
-0.000106888
0.00781112
-7.03763e-05
0.00779967
-7.7379e-05
0.007785
-3.51625e-05
0.0077715
-3.2141e-05
0.00775686
-7.2838e-06
0.00774389
-1.26064e-05
0.00773108
-7.42855e-06
0.00771996
-2.03684e-05
0.00770931
-3.00922e-05
0.00769972
-5.119e-05
0.0076905
-8.16249e-05
0.00768175
-0.000122419
0.00767338
-0.00018586
0.00766533
-0.000254625
0.00765803
-0.000356991
0.00765163
-0.00045555
0.00764699
-0.000599167
0.0076445
-0.000718598
0.00764512
-0.000899121
0.00765017
-0.00102354
0.00766001
-0.00123358
0.0076777
-0.0013308
0.00770201
-0.00155503
0.00773857
-0.0015727
0.00778379
-0.00179508
0.00784521
-0.00167368
-0.00186897
0.00747374
0.00112125
0.00738572
0.00096388
0.00732791
0.000629121
0.00731757
0.000106772
0.00735602
-0.000428499
0.00742541
-0.000767279
0.00750315
-0.000858313
0.00757453
-0.000788007
0.00763523
-0.000670342
0.00768666
-0.000567967
0.00773108
-0.000490347
0.00777003
-0.000429909
0.00780418
-0.000376949
0.00783423
-0.000331691
0.00786052
-0.000290195
0.0078837
-0.000255889
0.00790383
-0.000222308
0.00792166
-0.00019689
0.007937
-0.000169658
0.00795066
-0.000151201
0.00796219
-0.000128097
0.00797254
-0.000115181
0.00798085
-9.29735e-05
0.00798854
-8.57676e-05
0.00799422
-6.33075e-05
0.00799979
-6.08447e-05
0.00800326
-3.64705e-05
0.00800723
-3.90193e-05
0.00800882
-9.9074e-06
0.00801179
-1.95289e-05
0.00801193
1.61734e-05
0.00801444
-3.17596e-06
0.00801351
3.69558e-05
0.00801639
-9.08593e-07
0.00801513
4.03587e-05
0.00801944
-2.1889e-05
0.00801882
1.86582e-05
0.00802627
-7.84341e-05
0.00802804
-4.38165e-05
0.00804092
-0.000185737
0.00804739
-0.000161073
0.00806783
-0.000346302
0.00807949
-0.00030409
0.00810539
-0.00049084
0.00811597
-0.00035703
0.00813573
-0.000432044
0.00812816
-4.53313e-05
0.00811916
0.000110758
0.00807514
0.000653633
0.00800532
0.000980962
0.00788606
0.00153263
0.00763804
0.00276991
0.00725481
0.0040575
0.00727892
-0.000342184
0.00753419
-0.0027779
0.00769463
-0.00170717
0.00775744
-0.000477226
0.00779477
-9.6235e-05
0.00779688
0.000334069
0.00780958
0.000130573
0.00780532
0.000335771
0.00781525
9.89919e-05
0.00781394
0.000212681
0.00782454
3.03008e-05
0.00782571
0.000144754
0.00783496
2.13824e-05
0.0078354
9.10674e-05
0.00784045
-3.27723e-05
0.00783754
-5.34518e-06
0.00783699
-9.10599e-05
0.00782961
-5.79628e-05
0.00782304
-0.000100313
0.0078111
-5.84436e-05
0.00779966
-6.59317e-05
0.00778498
-2.04838e-05
0.00777148
-1.86412e-05
0.00775684
7.35667e-06
0.00774386
3.65804e-07
0.00773105
5.38425e-06
0.00771992
-9.24117e-06
0.00770927
-1.94372e-05
0.00769968
-4.15995e-05
0.00769045
-7.2397e-05
0.0076817
-0.000113666
0.00767332
-0.000177486
0.00766526
-0.000246561
0.00765795
-0.000349687
0.00765154
-0.000449133
0.00764688
-0.000594512
0.00764438
-0.000716091
0.00764498
-0.000899726
0.00765003
-0.00102859
0.00765987
-0.00124342
0.00767756
-0.00134849
0.00770189
-0.00157936
0.00773848
-0.00160929
0.00778375
-0.00184034
0.00784522
-0.00173515
-0.00194674
0.00747374
0.00122327
0.00738572
0.00105189
0.00732791
0.000686937
0.00731754
0.000117135
0.00735596
-0.000466917
0.00742532
-0.000836638
0.00750304
-0.000936029
0.00757439
-0.000859365
0.00763508
-0.000731032
0.00768651
-0.000619392
0.00773092
-0.000534757
0.00776987
-0.000468856
0.00780401
-0.000411098
0.00783406
-0.000361737
0.00786034
-0.000316479
0.00788352
-0.000279068
0.00790365
-0.00024244
0.00792148
-0.000214719
0.00793683
-0.000185
0.00795048
-0.000164857
0.00796201
-0.000139626
0.00797236
-0.00012553
0.00798067
-0.000101287
0.00798837
-9.34597e-05
0.00799404
-6.89852e-05
0.00799962
-6.64183e-05
0.00800309
-3.99432e-05
0.00800706
-4.29937e-05
0.00800865
-1.14974e-05
0.00801163
-2.24998e-05
0.00801176
1.60377e-05
0.00801428
-5.69536e-06
0.00801335
3.78835e-05
0.00801623
-3.78723e-06
0.00801497
4.16229e-05
0.00801928
-2.61999e-05
0.00801865
1.92843e-05
0.00802609
-8.58766e-05
0.00802786
-4.55791e-05
0.00804073
-0.000198608
0.00804718
-0.000167529
0.00806762
-0.000366742
0.00807928
-0.000315746
0.00810518
-0.000516739
0.00811576
-0.000367611
0.00813553
-0.00045182
0.00812797
-3.77654e-05
0.00811898
0.000119749
0.00807495
0.000697665
0.00800514
0.00105077
0.00788587
0.0016519
0.0076379
0.00301789
0.00725481
0.00444059
0.00727891
-0.000366288
0.00753408
-0.00303307
0.00769447
-0.00186756
0.00775725
-0.000540008
0.0077946
-0.000133576
0.0077967
0.000331959
0.00780942
0.000117859
0.00780519
0.000339997
0.00781515
8.90318e-05
0.00781386
0.000213974
0.00782447
1.96933e-05
0.00782565
0.000143572
0.00783491
1.21218e-05
0.00783536
9.06138e-05
0.00784042
-3.78264e-05
0.00783752
-2.4441e-06
0.00783697
-9.05133e-05
0.00782959
-5.05838e-05
0.00782302
-9.37384e-05
0.00781108
-4.65099e-05
0.00779963
-5.44832e-05
0.00778495
-5.8039e-06
0.00777145
-5.13904e-06
0.00775681
2.20008e-05
0.00774383
1.3342e-05
0.00773102
1.82004e-05
0.00771989
1.88913e-06
0.00770923
-8.77917e-06
0.00769963
-3.20061e-05
0.0076904
-6.31654e-05
0.00768164
-0.000104908
0.00767326
-0.000169105
0.00766519
-0.000238487
0.00765787
-0.00034237
0.00765144
-0.000442701
0.00764677
-0.00058984
0.00764425
-0.000713569
0.00764484
-0.000900317
0.00764988
-0.00103363
0.00765971
-0.00125326
0.00767742
-0.0013662
0.00770176
-0.00160371
0.00773839
-0.00164591
0.00778369
-0.00188565
0.00784521
-0.00179667
-0.00202456
0.00747373
0.00132529
0.00738572
0.00113991
0.0073279
0.000744754
0.00731752
0.000127517
0.0073559
-0.000505297
0.00742522
-0.00090596
0.00750291
-0.00101372
0.00757426
-0.000930707
0.00763493
-0.000791709
0.00768635
-0.000670807
0.00773075
-0.000579159
0.00776969
-0.000507796
0.00780383
-0.000445241
0.00783388
-0.00039178
0.00786016
-0.000342759
0.00788333
-0.000302244
0.00790346
-0.000262571
0.00792129
-0.000232546
0.00793663
-0.000200342
0.00795029
-0.000178514
0.00796182
-0.000151155
0.00797217
-0.00013588
0.00798048
-0.0001096
0.00798818
-0.000101153
0.00799385
-7.46636e-05
0.00799943
-7.19929e-05
0.0080029
-4.34169e-05
0.00800688
-4.69693e-05
0.00800847
-1.30888e-05
0.00801144
-2.54728e-05
0.00801158
1.58994e-05
0.0080141
-8.21784e-06
0.00801318
3.88096e-05
0.00801606
-6.66641e-06
0.00801479
4.28894e-05
0.0080191
-3.05073e-05
0.00801847
1.99168e-05
0.0080259
-9.3312e-05
0.00802765
-4.73319e-05
0.00804052
-0.000211471
0.00804696
-0.000173975
0.0080674
-0.000387175
0.00807905
-0.000327397
0.00810495
-0.00054264
0.00811553
-0.000378197
0.00813532
-0.000471606
0.00812776
-3.02051e-05
0.00811878
0.000128732
0.00807473
0.00074171
0.00800493
0.00112057
0.00788567
0.00177116
0.00763775
0.00326582
0.0072548
0.00482353
0.00727889
-0.000390379
0.00753396
-0.00328814
0.00769431
-0.00202791
0.00775706
-0.000602761
0.00779441
-0.000170925
0.00779651
0.00032985
0.00780925
0.000105124
0.00780505
0.000344191
0.00781505
7.90395e-05
0.00781377
0.000215251
0.00782439
9.07506e-06
0.00782558
0.00014238
0.00783486
2.84603e-06
0.00783532
9.01456e-05
0.00784039
-4.28895e-05
0.00783749
4.52067e-07
0.00783695
-8.99699e-05
0.00782957
-4.3207e-05
0.007823
-8.71644e-05
0.00781106
-3.45751e-05
0.00779961
-4.30334e-05
0.00778493
8.87745e-06
0.00777143
8.3657e-06
0.00775678
3.66488e-05
0.0077438
2.63223e-05
0.00773098
3.10201e-05
0.00771984
1.30224e-05
0.00770918
1.88198e-06
0.00769959
-2.24096e-05
0.00769035
-5.39301e-05
0.00768159
-9.61438e-05
0.0076732
-0.000160715
0.00766511
-0.000230402
0.00765778
-0.00033504
0.00765134
-0.000436254
0.00764665
-0.000585152
0.00764411
-0.000711032
0.00764469
-0.000900893
0.00764972
-0.00103866
0.00765955
-0.0012631
0.00767726
-0.00138391
0.00770162
-0.00162807
0.00773828
-0.00168257
0.00778362
-0.00193099
0.00784519
-0.00185823
-0.00210244
0.00747373
0.00142732
0.00738572
0.00122792
0.0073279
0.000802572
0.0073175
0.000137918
0.00735584
-0.000543639
0.00742513
-0.000975242
0.00750279
-0.00109138
0.00757411
-0.00100203
0.00763478
-0.000852372
0.00768618
-0.000722211
0.00773057
-0.000623551
0.0077695
-0.000546729
0.00780364
-0.000479377
0.00783368
-0.000421818
0.00785996
-0.000369035
0.00788313
-0.000325418
0.00790326
-0.0002827
0.00792109
-0.000250373
0.00793643
-0.000215684
0.00795008
-0.00019217
0.00796161
-0.000162685
0.00797196
-0.00014623
0.00798028
-0.000117915
0.00798797
-0.000108846
0.00799365
-8.03427e-05
0.00799923
-7.75683e-05
0.0080027
-4.68914e-05
0.00800668
-5.09462e-05
0.00800827
-1.46815e-05
0.00801125
-2.84479e-05
0.00801139
1.57588e-05
0.00801391
-1.07433e-05
0.00801299
3.9734e-05
0.00801587
-9.54601e-06
0.0080146
4.41584e-05
0.0080189
-3.48112e-05
0.00801826
2.05559e-05
0.00802569
-0.00010074
0.00802743
-4.90743e-05
0.00804028
-0.000224324
0.00804672
-0.00018041
0.00806715
-0.000407602
0.00807879
-0.000339043
0.0081047
-0.000568545
0.00811529
-0.000388786
0.00813509
-0.000491405
0.00812753
-2.26505e-05
0.00811855
0.000137709
0.0080745
0.000785768
0.00800472
0.00119035
0.00788546
0.00189041
0.00763759
0.0035137
0.0072548
0.00520631
0.00727888
-0.000414455
0.00753384
-0.0035431
0.00769413
-0.0021882
0.00775685
-0.000665479
0.0077942
-0.00020828
0.00779631
0.000327742
0.00780907
9.23674e-05
0.0078049
0.000348353
0.00781493
6.90129e-05
0.00781367