/*--------------------------------*- C++ -*----------------------------------*\
| =========                 |                                                 |
| \\      /  F ield         | OpenFOAM: The Open Source CFD Toolbox           |
|  \\    /   O peration     | Version:  2412                                  |
|   \\  /    A nd           | Website:  www.openfoam.com                      |
|    \\/     M anipulation  |                                                 |
\*---------------------------------------------------------------------------*/
FoamFile
{
    version     2.0;
    format      ascii;
    arch        "LSB;label=32;scalar=64";
    class       volVectorField;
    location    "0.3";
    object      U;
}
// * * * * * * * * * * * * * * * * * * * * * * * * * * * * * * * * * * * * * //

dimensions      [0 1 -1 0 0 0 0];

internalField   nonuniform List<vector> 
13068
(
(100.006 -0.00537433 0)
(100.122 -0.0220187 -7.19532e-19)
(100.53 -0.0544222 -3.43387e-19)
(101.507 -0.102824 0)
(103.302 -0.152443 0)
(105.764 -0.185485 0)
(108.601 -0.197198 -9.40593e-19)
(111.487 -0.194601 6.29218e-19)
(114.337 -0.187585 0)
(117.101 -0.181679 6.20245e-19)
(119.876 -0.178071 -3.05008e-19)
(122.625 -0.176059 -2.98941e-19)
(125.445 -0.174938 -5.85578e-19)
(128.251 -0.174532 0)
(131.17 -0.174624 0)
(134.075 -0.175366 0)
(137.147 -0.176474 0)
(140.191 -0.178259 -5.20602e-19)
(143.467 -0.180296 -2.54009e-19)
(146.689 -0.18306 2.46943e-19)
(150.227 -0.185887 7.2195e-19)
(153.663 -0.189464 -6.99846e-19)
(157.527 -0.192812 2.27044e-19)
(161.212 -0.196956 0)
(165.478 -0.200529 2.1316e-19)
(169.452 -0.205001 -4.09844e-19)
(174.215 -0.20847 -1.99004e-19)
(178.519 -0.212966 -3.80317e-19)
(183.899 -0.215905 -3.69164e-19)
(188.579 -0.220036 3.499e-19)
(194.73 -0.222479 -1.69903e-19)
(199.841 -0.227406 -1.59264e-19)
(206.966 -0.232025 0)
(212.577 -0.240924 0)
(220.945 -0.250767 2.79736e-19)
(227.15 -0.265628 -1.26316e-19)
(237.122 -0.283125 0)
(244.057 -0.306433 3.27133e-19)
(256.127 -0.335513 2.19009e-19)
(264.017 -0.370901 2.73905e-19)
(278.86 -0.415092 -2.83834e-19)
(288.052 -0.46312 -7.32379e-20)
(306.547 -0.515569 0)
(317.463 -0.565635 0)
(340.59 -0.60439 -1.33552e-19)
(353.564 -0.614398 0)
(382.17 -0.567209 -1.60303e-19)
(397.305 -0.492463 -1.56199e-20)
(432.004 -0.397143 0)
(450.056 -0.36755 0)
(490.223 -0.366255 -5.04339e-20)
(511.376 -0.387362 0)
(545.374 -0.478277 1.40971e-20)
(563.768 -0.0258122 1.41378e-20)
(542.15 0.194006 2.31419e-20)
(536.725 0.318927 0)
(503.229 0.486709 0)
(489.327 0.565401 -7.42179e-20)
(457.85 0.602559 1.15436e-20)
(443.934 0.523754 -9.98624e-21)
(418.083 0.531202 0)
(405.57 0.45459 -1.41892e-20)
(384.638 0.442447 -2.67128e-20)
(373.484 0.388367 0)
(356.381 0.390742 0)
(346.277 0.351986 9.28092e-20)
(332.011 0.331304 0)
(322.696 0.271695 0)
(310.533 0.230473 0)
(301.869 0.182262 1.05246e-19)
(291.301 0.152937 -1.21835e-19)
(283.21 0.123814 1.86823e-19)
(273.887 0.110398 0)
(266.352 0.102414 0)
(258.067 0.105292 1.55146e-19)
(251.126 0.108176 -1.60929e-19)
(243.767 0.112117 8.59271e-20)
(237.454 0.112724 0)
(230.918 0.111715 1.88346e-19)
(225.215 0.108003 9.77364e-20)
(219.382 0.099555 -2.0458e-19)
(214.229 0.0875183 0)
(208.965 0.0654331 1.10345e-19)
(204.292 0.0377144 -3.43169e-19)
(199.487 -0.00536693 0)
(195.246 -0.0518506 3.68291e-19)
(190.821 -0.117924 -3.79709e-19)
(186.999 -0.180259 -2.62634e-19)
(182.915 -0.267362 0)
(179.528 -0.336093 0)
(175.779 -0.439577 -4.30316e-19)
(172.871 -0.498615 1.49439e-19)
(169.482 -0.611791 0)
(167.114 -0.633897 1.59146e-19)
(164.14 -0.745887 -1.61261e-19)
(162.394 -0.691286 5.07156e-19)
(159.902 -0.790357 3.39936e-19)
(158.87 -0.622609 -1.78445e-19)
(156.891 -0.661316 0)
(100.006 -0.00854019 0)
(100.122 -0.0348472 2.15842e-18)
(100.53 -0.0878655 0)
(101.507 -0.1688 0)
(103.301 -0.252393 -1.26633e-18)
(105.764 -0.308036 0)
(108.6 -0.327614 6.27022e-19)
(111.486 -0.323202 -6.29181e-19)
(114.336 -0.311554 0)
(117.101 -0.301896 -6.2022e-19)
(119.875 -0.296069 0)
(122.624 -0.292844 0)
(125.444 -0.29103 5.85562e-19)
(128.25 -0.290395 0)
(131.169 -0.290575 0)
(134.074 -0.291867 0)
(137.146 -0.293734 0)
(140.19 -0.296734 5.20592e-19)
(143.467 -0.30007 0)
(146.688 -0.304634 -4.93878e-19)
(150.227 -0.309213 -4.81292e-19)
(153.662 -0.315144 4.66556e-19)
(157.526 -0.320641 9.08161e-19)
(161.211 -0.327716 0)
(165.477 -0.333807 4.26313e-19)
(169.451 -0.341848 4.09838e-19)
(174.214 -0.348191 3.98002e-19)
(178.518 -0.357 1.14093e-18)
(183.898 -0.363175 1.10748e-18)
(188.578 -0.372523 3.49895e-19)
(194.729 -0.378592 0)
(199.84 -0.389853 0)
(206.965 -0.39857 0)
(212.576 -0.415231 5.72186e-19)
(220.944 -0.429783 2.79731e-19)
(227.149 -0.454176 -5.05255e-19)
(237.121 -0.477257 0)
(244.056 -0.5124 -2.18084e-19)
(256.126 -0.548472 -2.19004e-19)
(264.016 -0.598621 -1.82599e-19)
(278.859 -0.651747 1.89218e-19)
(288.051 -0.717648 1.46472e-19)
(306.545 -0.780637 -3.21306e-19)
(317.461 -0.850424 0)
(340.588 -0.899382 -1.33549e-19)
(353.563 -0.927586 1.4414e-19)
(382.169 -0.887542 1.06867e-19)
(397.304 -0.825958 0)
(432.003 -0.73818 -1.5708e-19)
(450.054 -0.708073 -2.7189e-20)
(490.221 -0.709665 5.04324e-20)
(511.372 -0.663652 0)
(545.372 -0.723617 -8.457e-20)
(563.772 -0.0102875 9.42613e-21)
(542.148 0.308581 5.74859e-26)
(536.722 0.505841 -8.38767e-20)
(503.225 0.718054 0)
(489.325 0.80592 4.94768e-20)
(457.848 0.848925 0)
(443.932 0.755766 -1.99737e-20)
(418.081 0.760259 0)
(405.568 0.667702 9.45905e-21)
(384.637 0.651486 0)
(373.483 0.583599 0)
(356.38 0.582864 7.06225e-20)
(346.276 0.533403 -6.18727e-20)
(332.011 0.510744 8.78344e-20)
(322.695 0.443063 -8.44816e-20)
(310.533 0.400376 0)
(301.869 0.345984 -1.02496e-24)
(291.3 0.31539 1.21834e-19)
(283.209 0.281363 -2.49093e-19)
(273.886 0.266388 0)
(266.352 0.254007 1.42962e-19)
(258.066 0.254511 -1.55146e-19)
(251.125 0.252867 1.60928e-19)
(243.766 0.253565 1.71851e-19)
(237.453 0.249623 0)
(230.918 0.245004 -1.88346e-19)
(225.214 0.237115 1.95468e-19)
(219.381 0.225202 2.0458e-19)
(214.228 0.209683 0)
(208.964 0.184512 2.20683e-19)
(204.291 0.153949 2.28777e-19)
(199.486 0.108008 0)
(195.245 0.0590173 -4.91045e-19)
(190.82 -0.00999782 5.06268e-19)
(186.997 -0.0749486 2.62633e-19)
(182.913 -0.165416 2.69771e-19)
(179.526 -0.237368 0)
(175.777 -0.344899 2.86878e-19)
(172.869 -0.408363 2.98869e-19)
(169.48 -0.526471 0)
(167.113 -0.554905 0)
(164.139 -0.672824 3.22524e-19)
(162.393 -0.627037 -6.76214e-19)
(159.904 -0.733065 -3.39943e-19)
(158.872 -0.576382 7.13795e-19)
(156.895 -0.626754 0)
(100.006 -0.0117059 0)
(100.122 -0.0476738 -2.87764e-18)
(100.53 -0.121301 0)
(101.506 -0.234761 0)
(103.301 -0.352326 1.26627e-18)
(105.762 -0.430574 0)
(108.599 -0.458025 -1.25396e-18)
(111.485 -0.451802 0)
(114.334 -0.435522 0)
(117.099 -0.422113 0)
(119.874 -0.414066 0)
(122.623 -0.409629 -1.19569e-18)
(125.443 -0.407121 -1.17109e-18)
(128.248 -0.406256 0)
(131.168 -0.406525 0)
(134.073 -0.408366 1.09355e-18)
(137.145 -0.410993 0)
(140.189 -0.415208 -1.04116e-18)
(143.465 -0.419844 0)
(146.687 -0.426207 9.87736e-19)
(150.225 -0.432536 9.62566e-19)
(153.661 -0.440823 0)
(157.525 -0.448469 7.09e-25)
(161.21 -0.458475 0)
(165.476 -0.467084 6.90899e-25)
(169.45 -0.478692 0)
(174.213 -0.487909 -7.95991e-19)
(178.517 -0.501031 -7.60608e-19)
(183.896 -0.510443 -7.38303e-19)
(188.577 -0.525008 7.71733e-25)
(194.728 -0.534703 6.79582e-19)
(199.839 -0.5523 0)
(206.964 -0.565115 0)
(212.575 -0.589536 -5.72174e-19)
(220.943 -0.608796 5.86069e-26)
(227.148 -0.642721 5.05245e-19)
(237.12 -0.671385 0)
(244.055 -0.718362 0)
(256.124 -0.761425 4.37996e-19)
(264.014 -0.826334 3.65187e-19)
(278.857 -0.888395 -3.78424e-19)
(288.049 -0.972169 2.92933e-19)
(306.543 -1.0457 6.42591e-19)
(317.459 -1.13521 0)
(340.586 -1.19437 -1.15649e-24)
(353.56 -1.24077 -1.44135e-19)
(382.167 -1.20788 0)
(397.302 -1.15945 0)
(432 -1.07921 1.57077e-19)
(450.051 -1.04859 2.71881e-20)
(490.218 -1.05306 0)
(511.367 -0.939937 0)
(545.37 -0.968994 1.1274e-19)
(563.776 0.00524131 8.22233e-25)
(542.145 0.423181 1.54291e-20)
(536.719 0.692759 -8.38741e-20)
(503.22 0.949391 0)
(489.322 1.04643 0)
(457.845 1.09529 0)
(443.928 0.987775 5.9921e-20)
(418.078 0.989307 0)
(405.566 0.880806 -1.89145e-20)
(384.635 0.860523 0)
(373.481 0.778829 0)
(356.378 0.774985 -7.06217e-20)
(346.275 0.714817 0)
(332.01 0.690182 -8.78335e-20)
(322.695 0.614431 8.44803e-20)
(310.532 0.570281 2.09993e-19)
(301.868 0.509707 -1.05243e-19)
(291.3 0.477842 -2.43662e-19)
(283.209 0.438912 3.73631e-19)
(273.886 0.422379 0)
(266.351 0.405602 -1.42961e-19)
(258.066 0.403731 3.10285e-19)
(251.125 0.397558 0)
(243.766 0.395013 -1.71851e-19)
(237.452 0.386524 0)
(230.917 0.378296 0)
(225.213 0.366231 -1.95468e-19)
(219.38 0.350853 0)
(214.227 0.331851 -4.24305e-19)
(208.964 0.303595 2.20675e-19)
(204.29 0.270188 0)
(199.485 0.221391 0)
(195.243 0.169894 2.45519e-19)
(190.819 0.0979385 -7.5938e-19)
(186.995 0.0303726 0)
(182.912 -0.063458 2.6976e-19)
(179.524 -0.138633 0)
(175.775 -0.250212 -5.73737e-19)
(172.866 -0.318109 2.98861e-19)
(169.478 -0.441152 0)
(167.111 -0.475923 0)
(164.138 -0.599774 -3.22531e-19)
(162.392 -0.562814 3.38112e-19)
(159.905 -0.675803 0)
(158.873 -0.530193 3.56889e-19)
(156.898 -0.592233 0)
(100.006 -0.0148713 0)
(100.122 -0.0604984 2.87735e-18)
(100.53 -0.154729 1.37325e-18)
(101.506 -0.300706 1.3085e-18)
(103.3 -0.452239 -1.26623e-18)
(105.761 -0.553098 0)
(108.598 -0.588429 2.50778e-18)
(111.483 -0.5804 1.25822e-18)
(114.333 -0.55949 0)
(117.098 -0.542328 0)
(119.873 -0.532062 -1.21991e-18)
(122.622 -0.526411 1.19565e-18)
(125.441 -0.52321 1.17106e-18)
(128.247 -0.522117 0)
(131.167 -0.522474 1.12009e-18)
(134.071 -0.524864 -1.09352e-18)
(137.143 -0.528249 -1.06844e-18)
(140.187 -0.533681 1.04114e-18)
(143.464 -0.539616 0)
(146.686 -0.547778 -1.97543e-18)
(150.224 -0.555858 9.21707e-25)
(153.659 -0.5665 0)
(157.523 -0.576295 9.19793e-25)
(161.208 -0.589231 8.77096e-19)
(165.475 -0.600359 9.00134e-25)
(169.449 -0.615534 0)
(174.211 -0.627625 -8.5476e-25)
(178.516 -0.64506 0)
(183.895 -0.657709 0)
(188.576 -0.677491 1.03663e-24)
(194.726 -0.690814 -6.79567e-19)
(199.838 -0.714747 0)
(206.962 -0.731659 0)
(212.573 -0.76384 5.72164e-19)
(220.942 -0.787806 -1.11888e-18)
(227.146 -0.831263 -5.05236e-19)
(237.118 -0.865508 0)
(244.053 -0.924318 -4.36146e-19)
(256.122 -0.974371 -4.37985e-19)
(264.012 -1.05404 -7.30353e-19)
(278.854 -1.12504 4.75154e-25)
(288.046 -1.22668 2.61511e-25)
(306.54 -1.31075 -3.21285e-19)
(317.456 -1.41999 2.19726e-19)
(340.583 -1.48936 5.34161e-19)
(353.557 -1.55396 -1.44136e-19)
(382.164 -1.52821 0)
(397.3 -1.49294 0)
(431.998 -1.42022 0)
(450.046 -1.38909 0)
(490.214 -1.39643 0)
(511.36 -1.21622 0)
(545.368 -1.21441 -5.63601e-20)
(563.78 0.0207767 -1.88562e-20)
(542.141 0.537812 -3.08622e-20)
(536.715 0.879682 1.67737e-19)
(503.215 1.18072 0)
(489.319 1.28693 -9.8939e-20)
(457.84 1.34166 0)
(443.924 1.21978 1.19362e-24)
(418.074 1.21834 -7.36733e-20)
(405.564 1.0939 1.89141e-20)
(384.633 1.06955 1.06833e-19)
(373.479 0.974055 7.40245e-20)
(356.377 0.967102 1.41238e-19)
(346.273 0.896223 1.23742e-19)
(332.009 0.869612 -1.75661e-19)
(322.694 0.785795 1.68955e-19)
(310.532 0.740183 -2.33802e-24)
(301.867 0.673427 0)
(291.299 0.640291 4.87316e-19)
(283.208 0.596459 -1.5578e-24)
(273.885 0.578369 0)
(266.351 0.557195 -2.85916e-19)
(258.065 0.552949 -3.10283e-19)
(251.124 0.542248 -3.21846e-19)
(243.765 0.536461 3.43695e-19)
(237.452 0.523424 3.56869e-19)
(230.916 0.511586 0)
(225.213 0.495344 0)
(219.38 0.476502 0)
(214.226 0.454017 5.14011e-24)
(208.963 0.422675 -8.82702e-19)
(204.289 0.386424 0)
(199.484 0.334769 0)
(195.242 0.280766 -4.91017e-19)
(190.817 0.205871 5.06246e-19)
(186.994 0.13569 0)
(182.91 0.0384958 -5.39528e-19)
(179.522 -0.0399053 0)
(175.773 -0.155533 1.02491e-23)
(172.864 -0.227868 -5.9774e-19)
(169.476 -0.35585 0)
(167.109 -0.396967 0)
(164.137 -0.526752 0)
(162.391 -0.498626 0)
(159.906 -0.618577 0)
(158.874 -0.484043 -1.00253e-23)
(156.901 -0.557745 0)
(100.006 -0.0180364 0)
(100.122 -0.073321 1.43852e-18)
(100.53 -0.188149 -1.37311e-18)
(101.506 -0.366634 -1.30844e-18)
(103.299 -0.552131 -1.26619e-18)
(105.76 -0.675606 0)
(108.596 -0.718825 -1.25383e-18)
(111.482 -0.708995 -1.25816e-18)
(114.331 -0.683457 0)
(117.096 -0.662541 2.4806e-18)
(119.871 -0.650055 1.21987e-18)
(122.62 -0.643192 -2.39124e-18)
(125.44 -0.639297 2.34204e-18)
(128.245 -0.637975 0)
(131.165 -0.63842 -1.12006e-18)
(134.07 -0.64136 -2.18699e-18)
(137.141 -0.645504 3.20525e-18)
(140.186 -0.652152 0)
(143.462 -0.659386 0)
(146.684 -0.669347 9.87694e-19)
(150.222 -0.679178 -9.62527e-19)
(153.657 -0.692174 0)
(157.521 -0.704119 9.08112e-19)
(161.207 -0.719985 -8.77079e-19)
(165.473 -0.73363 -8.52579e-19)
(169.447 -0.752373 0)
(174.21 -0.767338 7.95961e-19)
(178.514 -0.789086 0)
(183.893 -0.804972 0)
(188.574 -0.829973 -6.99746e-19)
(194.724 -0.846923 0)
(199.836 -0.877192 0)
(206.96 -0.8982 0)
(212.572 -0.93814 -5.72154e-19)
(220.94 -0.966812 1.67828e-18)
(227.144 -1.0198 5.05227e-19)
(237.116 -1.05962 0)
(244.051 -1.13027 1.30841e-18)
(256.12 -1.18731 -8.7595e-19)
(264.009 -1.28174 3.65167e-19)
(278.851 -1.36167 3.78403e-19)
(288.042 -1.48119 -2.92915e-19)
(306.536 -1.5758 -6.4255e-19)
(317.452 -1.70476 -2.19719e-19)
(340.579 -1.78434 -8.01224e-19)
(353.553 -1.86714 4.32403e-19)
(382.16 -1.84853 0)
(397.296 -1.82642 0)
(431.994 -1.76122 3.14163e-19)
(450.041 -1.72957 0)
(490.21 -1.73979 0)
(511.352 -1.4925 0)
(545.365 -1.45988 0)
(563.785 0.0363177 3.77227e-20)
(542.136 0.652476 3.08625e-20)
(536.711 1.06661 -1.67728e-19)
(503.208 1.41205 0)
(489.314 1.52741 9.89306e-20)
(457.835 1.58803 0)
(443.92 1.45177 -3.99461e-20)
(418.07 1.44737 7.36715e-20)
(405.561 1.30697 -1.89112e-20)
(384.631 1.27858 -1.0683e-19)
(373.477 1.16928 -7.40227e-20)
(356.375 1.15922 -1.79082e-24)
(346.272 1.07762 -3.3787e-25)
(332.008 1.04904 3.51315e-19)
(322.693 0.957157 -1.68952e-19)
(310.531 0.910084 -2.09985e-19)
(301.867 0.837147 0)
(291.299 0.802739 -2.10164e-24)
(283.207 0.754005 -2.49078e-19)
(273.885 0.734359 0)
(266.35 0.708789 1.45527e-24)
(258.065 0.702167 3.10277e-19)
(251.124 0.686938 1.90367e-24)
(243.765 0.677909 -2.50471e-24)
(237.451 0.660326 -3.56868e-19)
(230.916 0.644878 0)
(225.212 0.624459 3.90921e-19)
(219.379 0.602152 0)
(214.225 0.576185 4.24296e-19)
(208.962 0.541757 8.82685e-19)
(204.288 0.502662 -4.57518e-19)
(199.482 0.448152 0)
(195.241 0.391644 9.82017e-19)
(190.816 0.313812 5.06225e-19)
(186.992 0.241014 5.25217e-19)
(182.908 0.140458 5.39505e-19)
(179.52 0.0588285 0)
(175.771 -0.0608498 5.73731e-19)
(172.861 -0.137629 5.97721e-19)
(169.474 -0.270551 0)
(167.106 -0.318022 0)
(164.136 -0.453744 6.45069e-19)
(162.39 -0.434466 -6.76218e-19)
(159.906 -0.561382 0)
(158.874 -0.437929 -1.42757e-18)
(156.904 -0.523296 0)
(100.006 -0.021201 0)
(100.122 -0.0861419 5.28697e-24)
(100.53 -0.221562 0)
(101.505 -0.432545 2.61675e-18)
(103.298 -0.652001 2.53228e-18)
(105.759 -0.798096 0)
(108.595 -0.849212 0)
(111.48 -0.837586 0)
(114.33 -0.80742 0)
(117.095 -0.782752 -2.48052e-18)
(119.869 -0.768045 0)
(122.618 -0.759969 4.78233e-18)
(125.438 -0.755381 2.58031e-24)
(128.244 -0.75383 0)
(131.163 -0.754364 0)
(134.068 -0.757853 -2.67938e-24)
(137.139 -0.762756 -2.13678e-18)
(140.184 -0.770619 0)
(143.46 -0.779153 0)
(146.682 -0.790913 0)
(150.22 -0.802495 0)
(153.655 -0.817846 0)
(157.519 -0.831939 -1.81619e-18)
(161.205 -0.850736 0)
(165.471 -0.866898 0)
(169.445 -0.889209 0)
(174.207 -0.907048 0)
(178.512 -0.933109 -1.52113e-18)
(183.891 -0.952232 0)
(188.571 -0.98245 1.39947e-18)
(194.722 -1.00303 0)
(199.834 -1.03963 -1.27399e-18)
(206.958 -1.06474 -1.23969e-18)
(212.569 -1.11244 0)
(220.938 -1.14581 -1.11883e-18)
(227.142 -1.20833 -1.01044e-18)
(237.114 -1.25373 0)
(244.048 -1.33621 -8.72256e-19)
(256.116 -1.40024 1.75186e-18)
(264.006 -1.50942 0)
(278.847 -1.59828 0)
(288.038 -1.73568 0)
(306.532 -1.84084 6.42533e-19)
(317.447 -1.98953 0)
(340.574 -2.07932 5.34137e-19)
(353.549 -2.18032 -2.88265e-19)
(382.156 -2.16885 -4.27473e-19)
(397.291 -2.15989 0)
(431.989 -2.1022 -3.1416e-19)
(450.034 -2.07005 0)
(490.204 -2.08313 -2.01709e-19)
(511.344 -1.76877 2.66065e-19)
(545.361 -1.7054 -1.12665e-19)
(563.79 0.0518653 -7.54623e-20)
(542.131 0.767175 -3.08676e-20)
(536.706 1.25355 -2.42394e-24)
(503.2 1.64336 0)
(489.309 1.76789 0)
(457.829 1.83439 0)
(443.914 1.68375 3.99464e-20)
(418.065 1.67637 0)
(405.558 1.52003 1.89106e-20)
(384.629 1.48759 1.06821e-19)
(373.475 1.3645 7.40208e-20)
(356.373 1.35132 -1.41232e-19)
(346.27 1.25902 -1.23741e-19)
(332.007 1.22845 -1.75655e-19)
(322.692 1.12852 1.68947e-19)
(310.53 1.07998 0)
(301.866 1.00087 0)
(291.298 0.965186 -2.00465e-24)
(283.207 0.911551 -2.49073e-19)
(273.884 0.890349 0)
(266.35 0.860383 2.85909e-19)
(258.064 0.851385 -3.10275e-19)
(251.123 0.831628 3.2184e-19)
(243.764 0.819359 -3.4369e-19)
(237.45 0.797229 0)
(230.915 0.778172 0)
(225.211 0.753576 -3.9092e-19)
(219.378 0.727805 -4.0913e-19)
(214.224 0.698354 0)
(208.961 0.66084 -5.68517e-24)
(204.287 0.618903 4.57514e-19)
(199.481 0.561539 0)
(195.24 0.502527 -4.91e-19)
(190.814 0.421758 -5.0622e-19)
(186.99 0.346345 -5.25213e-19)
(182.906 0.242427 -5.39502e-19)
(179.517 0.157567 0)
(175.768 0.0338376 -5.73712e-19)
(172.858 -0.0473913 -5.97726e-19)
(169.471 -0.185256 0)
(167.104 -0.239091 0)
(164.134 -0.380754 -1.29015e-18)
(162.389 -0.370332 6.76229e-19)
(159.906 -0.504217 0)
(158.875 -0.391852 7.13784e-19)
(156.907 -0.488883 0)
(100.006 -0.0243651 0)
(100.121 -0.0989615 -5.7526e-18)
(100.53 -0.25497 0)
(101.505 -0.498442 -2.6166e-18)
(103.298 -0.75185 0)
(105.758 -0.920568 0)
(108.593 -0.979587 -2.5075e-18)
(111.479 -0.966171 0)
(114.328 -0.931379 0)
(117.093 -0.902958 2.48045e-18)
(119.868 -0.88603 2.43959e-18)
(122.616 -0.876742 3.02026e-24)
(125.436 -0.871461 -2.3419e-18)
(128.241 -0.869681 0)
(131.161 -0.870303 0)
(134.066 -0.874342 4.37376e-18)
(137.137 -0.880005 0)
(140.182 -0.889084 -2.08214e-18)
(143.458 -0.898917 2.03183e-18)
(146.68 -0.912476 0)
(150.218 -0.925808 0)
(153.653 -0.943513 -1.86605e-18)
(157.517 -0.959756 1.81616e-18)
(161.202 -0.981482 -1.7541e-18)
(165.468 -1.00016 0)
(169.442 -1.02604 0)
(174.205 -1.04675 0)
(178.509 -1.07713 1.52111e-18)
(183.888 -1.09949 0)
(188.569 -1.13492 3.66724e-24)
(194.719 -1.15913 -1.35905e-18)
(199.831 -1.20207 1.27397e-18)
(206.955 -1.23127 1.23967e-18)
(212.567 -1.28673 1.14428e-18)
(220.935 -1.32481 0)
(227.139 -1.39685 1.01042e-18)
(237.111 -1.44783 0)
(244.045 -1.54214 0)
(256.113 -1.61315 -8.75916e-19)
(264.002 -1.73709 7.30306e-19)
(278.843 -1.83489 -7.56769e-19)
(288.034 -1.99016 5.85804e-19)
(306.526 -2.10586 0)
(317.442 -2.27428 -4.39422e-19)
(340.569 -2.37428 0)
(353.543 -2.49349 0)
(382.151 -2.48916 4.27471e-19)
(397.285 -2.49335 -1.24996e-19)
(431.984 -2.44315 -3.14174e-19)
(450.027 -2.4105 -5.43626e-20)
(490.198 -2.42644 2.01704e-19)
(511.334 -2.04504 -5.32126e-19)
(545.357 -1.95097 1.12645e-19)
(563.795 0.0674201 3.77407e-20)
(542.125 0.881913 0)
(536.7 1.44049 1.67699e-19)
(503.191 1.87467 0)
(489.302 2.00834 -1.97815e-19)
(457.822 2.08074 0)
(443.908 1.91571 -3.99443e-20)
(418.06 1.90536 0)
(405.554 1.73307 0)
(384.626 1.6966 -1.06817e-19)
(373.473 1.55971 -7.40187e-20)
(356.371 1.54343 0)
(346.268 1.4404 2.47482e-19)
(332.006 1.40786 3.51297e-19)
(322.691 1.29987 -1.68944e-19)
(310.53 1.24988 0)
(301.865 1.16458 0)
(291.298 1.12763 -2.43646e-19)
(283.206 1.0691 7.47206e-19)
(273.884 1.04634 0)
(266.349 1.01198 0)
(258.064 1.0006 6.20538e-19)
(251.122 0.976318 0)
(243.764 0.960809 6.87368e-19)
(237.45 0.934133 7.13718e-19)
(230.914 0.911466 -7.53339e-19)
(225.21 0.882694 0)
(219.377 0.853458 4.09128e-19)
(214.223 0.820524 -8.48553e-19)
(208.96 0.779925 -4.41329e-19)
(204.286 0.735145 0)
(199.48 0.674928 0)
(195.238 0.613413 9.8196e-19)
(190.813 0.529709 -1.0124e-18)
(186.988 0.451682 0)
(182.904 0.344402 1.07896e-18)
(179.515 0.25631 0)
(175.766 0.128528 -5.73692e-19)
(172.856 0.0428443 1.19541e-18)
(169.469 -0.0999661 0)
(167.101 -0.160174 0)
(164.132 -0.307779 6.45085e-19)
(162.387 -0.306226 1.35243e-18)
(159.906 -0.447082 0)
(158.875 -0.345811 0)
(156.909 -0.454507 0)
(100.006 -0.0275285 2.96727e-18)
(100.121 -0.11178 2.87588e-18)
(100.53 -0.288373 0)
(101.505 -0.564323 2.61643e-18)
(103.297 -0.851677 0)
(105.757 -1.04302 -2.50242e-18)
(108.592 -1.10995 5.01491e-18)
(111.477 -1.09475 -2.5161e-18)
(114.326 -1.05533 -2.50885e-18)
(117.091 -1.02316 -4.96076e-18)
(119.866 -1.00401 -2.43951e-18)
(122.614 -0.993509 -4.78204e-18)
(125.434 -0.987536 -2.34184e-18)
(128.239 -0.985527 0)
(131.159 -0.986238 2.23994e-18)
(134.063 -0.990827 -2.18683e-18)
(137.135 -0.997249 0)
(140.179 -1.00754 2.08209e-18)
(143.456 -1.01868 3.48234e-24)
(146.677 -1.03403 0)
(150.215 -1.04912 -1.92495e-18)
(153.651 -1.06918 1.86602e-18)
(157.514 -1.08757 3.53383e-24)
(161.2 -1.11222 3.50814e-18)
(165.466 -1.13342 1.70508e-18)
(169.44 -1.16287 0)
(174.202 -1.18645 0)
(178.506 -1.22114 0)
(183.885 -1.24674 0)
(188.566 -1.28739 -1.39942e-18)
(194.716 -1.31523 1.35903e-18)
(199.828 -1.36451 0)
(206.952 -1.3978 1.23965e-18)
(212.564 -1.46101 -2.28853e-18)
(220.932 -1.50379 1.1188e-18)
(227.136 -1.58536 0)
(237.107 -1.64192 9.9724e-19)
(244.041 -1.74805 -8.72234e-19)
(256.109 -1.82605 0)
(263.997 -1.96475 -1.46059e-18)
(278.838 -2.07147 1.51351e-18)
(288.028 -2.24462 -5.85791e-19)
(306.521 -2.37086 6.42505e-19)
(317.435 -2.55902 4.39412e-19)
(340.562 -2.66924 -5.34129e-19)
(353.537 -2.80665 2.88279e-19)
(382.144 -2.80946 -4.27487e-19)
(397.279 -2.82679 1.24996e-19)
(431.977 -2.78409 3.14174e-19)
(450.018 -2.75093 2.67187e-24)
(490.191 -2.76974 -2.01701e-19)
(511.323 -2.32131 2.66064e-19)
(545.352 -2.19661 0)
(563.8 0.0829828 -7.55145e-20)
(542.119 0.996694 6.17362e-20)
(536.693 1.62745 0)
(503.181 2.10598 -5.94203e-20)
(489.295 2.24878 1.9779e-19)
(457.814 2.32708 -9.22789e-20)
(443.901 2.14766 0)
(418.054 2.13432 0)
(405.55 1.94609 0)
(384.623 1.90559 0)
(373.47 1.75491 0)
(356.369 1.73552 0)
(346.266 1.62177 -2.47481e-19)
(332.005 1.58726 -3.51293e-19)
(322.69 1.47122 0)
(310.529 1.41978 0)
(301.864 1.3283 0)
(291.297 1.29007 0)
(283.206 1.22664 -9.9626e-19)
(273.884 1.20233 0)
(266.348 1.16357 0)
(258.063 1.14982 -6.20534e-19)
(251.122 1.12101 0)
(243.763 1.10226 -6.87366e-19)
(237.449 1.07104 -7.13718e-19)
(230.914 1.04476 7.53339e-19)
(225.209 1.01181 -7.81815e-19)
(219.376 0.979112 8.18236e-19)
(214.222 0.942695 9.97298e-24)
(208.959 0.89901 0)
(204.285 0.851389 0)
(199.479 0.78832 9.47181e-19)
(195.237 0.724304 -1.59752e-23)
(190.811 0.637666 1.67724e-23)
(186.986 0.557024 1.05035e-18)
(182.902 0.446383 -2.15788e-18)
(179.512 0.355058 0)
(175.763 0.223222 1.1474e-18)
(172.853 0.133078 -1.19542e-18)
(169.466 -0.0146802 0)
(167.098 -0.0812693 0)
(164.13 -0.234821 -1.29016e-18)
(162.385 -0.242146 -1.35245e-18)
(159.906 -0.389977 0)
(158.874 -0.299807 0)
(156.911 -0.420168 0)
(100.006 -0.0306913 -2.96695e-18)
(100.121 -0.124598 2.87544e-18)
(100.53 -0.321772 2.74474e-18)
(101.505 -0.630191 6.40318e-24)
(103.296 -0.95148 0)
(105.755 -1.16545 2.5024e-18)
(108.59 -1.2403 -2.50744e-18)
(111.475 -1.22332 5.03213e-18)
(114.324 -1.17928 2.5088e-18)
(117.089 -1.14335 4.96064e-18)
(119.863 -1.12198 0)
(122.612 -1.11027 2.39095e-18)
(125.431 -1.1036 2.34177e-18)
(128.237 -1.10137 0)
(131.156 -1.10217 3.77937e-24)
(134.061 -1.10731 0)
(137.132 -1.11449 -2.13664e-18)
(140.176 -1.126 0)
(143.453 -1.13843 -2.03174e-18)
(146.674 -1.15559 -1.97524e-18)
(150.213 -1.17242 3.84983e-18)
(153.648 -1.19483 -1.86599e-18)
(157.511 -1.21537 -1.8161e-18)
(161.197 -1.24296 -1.75404e-18)
(165.463 -1.26667 3.9014e-24)
(169.437 -1.29969 0)
(174.199 -1.32615 0)
(178.503 -1.36515 1.52107e-18)
(183.882 -1.39398 0)
(188.563 -1.43986 1.3994e-18)
(194.713 -1.47132 0)
(199.825 -1.52694 0)
(206.949 -1.56433 -1.23963e-18)
(212.561 -1.63529 2.28851e-18)
(220.928 -1.68277 -2.23758e-18)
(227.132 -1.77387 0)
(237.103 -1.83599 8.05888e-25)
(244.037 -1.95396 8.72222e-19)
(256.104 -2.03893 8.75892e-19)
(263.992 -2.19239 7.30283e-19)
(278.833 -2.30804 -7.56743e-19)
(288.022 -2.49907 5.85785e-19)
(306.514 -2.63585 8.67452e-25)
(317.428 -2.84374 0)
(340.555 -2.96418 5.34122e-19)
(353.529 -3.1198 -2.88276e-19)
(382.138 -3.12975 4.27488e-19)
(397.271 -3.16022 0)
(431.97 -3.12499 0)
(450.008 -3.09135 5.43581e-20)
(490.183 -3.11301 4.03394e-19)
(511.312 -2.59757 0)
(545.347 -2.44231 -2.25153e-19)
(563.805 0.0985539 7.55345e-20)
(542.112 1.11152 -6.1751e-20)
(536.686 1.81441 0)
(503.17 2.33728 1.18821e-19)
(489.286 2.48921 1.97758e-19)
(457.805 2.57341 1.84532e-19)
(443.893 2.37958 -7.98838e-20)
(418.047 2.36326 1.47293e-19)
(405.545 2.15909 0)
(384.619 2.11457 0)
(373.467 1.9501 1.48032e-19)
(356.366 1.92761 2.82439e-19)
(346.264 1.80314 2.47482e-19)
(332.003 1.76666 -3.51282e-19)
(322.689 1.64256 3.37874e-19)
(310.528 1.58967 0)
(301.864 1.49201 -4.20927e-19)
(291.297 1.45251 4.87271e-19)
(283.205 1.38418 4.98123e-19)
(273.883 1.35832 0)
(266.348 1.31517 -5.71793e-19)
(258.063 1.29904 0)
(251.121 1.2657 0)
(243.762 1.24371 6.87355e-19)
(237.448 1.20794 7.13707e-19)
(230.913 1.17806 0)
(225.209 1.14093 7.81814e-19)
(219.375 1.10477 -8.18234e-19)
(214.221 1.06487 8.48535e-19)
(208.958 1.0181 -8.82613e-19)
(204.284 0.967635 0)
(199.478 0.901715 -1.89433e-18)
(195.235 0.835198 -9.81925e-19)
(190.809 0.745628 1.01236e-18)
(186.984 0.662373 -2.10066e-18)
(182.899 0.548372 1.07892e-18)
(179.51 0.453811 0)
(175.761 0.31792 -1.14736e-18)
(172.849 0.223311 0)
(169.463 0.070602 0)
(167.095 -0.00237724 0)
(164.128 -0.161878 1.29018e-18)
(162.382 -0.178093 0)
(159.905 -0.332901 0)
(158.874 -0.253838 0)
(156.912 -0.385866 0)
(100.006 -0.0338534 2.96663e-18)
(100.121 -0.137415 -2.87496e-18)
(100.53 -0.355168 -2.74427e-18)
(101.505 -0.696045 -2.61603e-18)
(103.296 -1.05126 0)
(105.754 -1.28786 0)
(108.589 -1.37063 -2.50745e-18)
(111.473 -1.35187 -5.03211e-18)
(114.322 -1.30322 2.50877e-18)
(117.087 -1.26354 -2.48026e-18)
(119.861 -1.23995 0)
(122.61 -1.22702 0)
(125.429 -1.21967 0)
(128.234 -1.2172 0)
(131.154 -1.21809 -2.23982e-18)
(134.058 -1.22378 -2.18673e-18)
(137.129 -1.23172 4.27318e-18)
(140.174 -1.24445 0)
(143.45 -1.25818 2.03171e-18)
(146.671 -1.27713 -4.65991e-24)
(150.21 -1.29572 -1.92488e-18)
(153.645 -1.32049 1.86596e-18)
(157.508 -1.34317 0)
(161.194 -1.37369 -3.50805e-18)
(165.459 -1.39992 -1.70503e-18)
(169.433 -1.4365 0)
(174.196 -1.46583 0)
(178.5 -1.50915 -1.52104e-18)
(183.879 -1.54122 0)
(188.559 -1.59231 1.39939e-18)
(194.709 -1.62741 2.71799e-18)
(199.821 -1.68936 2.54784e-18)
(206.945 -1.73084 -2.47924e-18)
(212.557 -1.80956 -1.14424e-18)
(220.924 -1.86173 1.11878e-18)
(227.128 -1.96236 0)
(237.099 -2.03006 -2.99166e-18)
(244.032 -2.15985 0)
(256.099 -2.2518 -2.62765e-18)
(263.986 -2.42001 -1.46056e-18)
(278.826 -2.54459 0)
(288.015 -2.75349 -5.85775e-19)
(306.507 -2.90082 -6.42484e-19)
(317.421 -3.12845 -8.78822e-19)
(340.548 -3.2591 0)
(353.521 -3.43293 -5.76587e-19)
(382.13 -3.45003 -8.55021e-19)
(397.262 -3.49363 0)
(431.962 -3.46587 0)
(449.997 -3.43174 1.08702e-19)
(490.174 -3.45626 -2.01694e-19)
(511.299 -2.87382 5.3222e-19)
(545.342 -2.68808 2.25109e-19)
(563.811 0.114134 -7.5575e-20)
(542.104 1.22639 0)
(536.678 2.00139 0)
(503.158 2.56857 -5.93996e-20)
(489.277 2.72961 -1.97726e-19)
(457.795 2.81973 -9.22524e-20)
(443.884 2.61149 7.98778e-20)
(418.04 2.59217 -2.94565e-19)
(405.54 2.37206 0)
(384.615 2.32354 0)
(373.463 2.14529 2.17285e-24)
(356.363 2.11969 -2.82434e-19)
(346.261 1.98449 -2.47481e-19)
(332.002 1.94604 3.51279e-19)
(322.688 1.8139 -3.37868e-19)
(310.527 1.75956 0)
(301.863 1.65572 5.31678e-25)
(291.296 1.61495 -9.74531e-19)
(283.205 1.54172 -4.98115e-19)
(273.882 1.51431 -5.53809e-19)
(266.347 1.46676 5.71788e-19)
(258.062 1.44826 0)
(251.121 1.41039 0)
(243.762 1.38517 -6.87352e-19)
(237.447 1.34485 -5.07408e-24)
(230.912 1.31135 7.53319e-19)
(225.208 1.27005 7.81798e-19)
(219.374 1.23042 -8.18214e-19)
(214.22 1.18704 0)
(208.957 1.13718 8.82608e-19)
(204.282 1.08388 0)
(199.476 1.01511 9.4715e-19)
(195.234 0.946097 -9.81884e-19)
(190.808 0.853596 0)
(186.982 0.767727 1.05031e-18)
(182.897 0.650367 0)
(179.507 0.552569 0)
(175.758 0.412623 1.14736e-18)
(172.846 0.313543 0)
(169.46 0.155881 0)
(167.092 0.0765031 0)
(164.126 -0.0889505 0)
(162.38 -0.114065 0)
(159.904 -0.275855 0)
(158.873 -0.207905 0)
(156.913 -0.3516 0)
(100.006 -0.0370147 -2.96629e-18)
(100.121 -0.150232 0)
(100.53 -0.388562 0)
(101.504 -0.761885 0)
(103.295 -1.15102 0)
(105.753 -1.41024 0)
(108.587 -1.50094 2.50748e-18)
(111.472 -1.48042 2.51606e-18)
(114.32 -1.42714 2.50875e-18)
(117.085 -1.38371 4.96044e-18)
(119.859 -1.35791 0)
(122.607 -1.34377 4.78163e-18)
(125.426 -1.33572 4.68328e-18)
(128.231 -1.33303 0)
(131.151 -1.33401 0)
(134.055 -1.34025 2.18667e-18)
(137.126 -1.34895 2.13655e-18)
(140.17 -1.36289 0)
(143.447 -1.37792 -2.03166e-18)
(146.668 -1.39867 1.97517e-18)
(150.206 -1.41901 0)
(153.641 -1.44613 0)
(157.505 -1.47097 3.6321e-18)
(161.19 -1.50441 3.50799e-18)
(165.456 -1.53316 -3.41002e-18)
(169.43 -1.5733 3.27825e-18)
(174.192 -1.60551 0)
(178.496 -1.65314 0)
(183.875 -1.68845 0)
(188.555 -1.74476 -2.79872e-18)
(194.705 -1.78348 -2.71794e-18)
(199.817 -1.85178 -2.5478e-18)
(206.941 -1.89735 2.47921e-18)
(212.553 -1.98382 2.28849e-18)
(220.92 -2.04069 0)
(227.123 -2.15083 0)
(237.094 -2.2241 1.99443e-18)
(244.027 -2.36572 -1.74443e-18)
(256.093 -2.46465 -4.68496e-25)
(263.98 -2.64761 1.46054e-18)
(278.82 -2.78112 0)
(288.008 -3.0079 0)
(306.499 -3.16577 -1.28495e-18)
(317.412 -3.41314 -1.2935e-23)
(340.539 -3.55401 1.06826e-18)
(353.512 -3.74605 5.76586e-19)
(382.121 -3.77028 8.55031e-19)
(397.253 -3.82702 2.50085e-19)
(431.952 -3.80672 6.28436e-19)
(449.984 -3.77211 -1.08701e-19)
(490.165 -3.79949 0)
(511.285 -3.15008 -1.06448e-18)
(545.336 -2.93393 0)
(563.816 0.129723 7.55981e-20)
(542.097 1.34132 -6.17451e-20)
(536.67 2.18839 -3.35241e-19)
(503.145 2.79987 0)
(489.267 2.96999 0)
(457.784 3.06604 -9.22296e-20)
(443.875 2.84336 -7.98744e-20)
(418.032 2.82104 2.94536e-19)
(405.535 2.585 -3.78076e-20)
(384.611 2.53249 0)
(373.46 2.34046 -1.48024e-19)
(356.36 2.31176 2.82423e-19)