/*--------------------------------*- C++ -*----------------------------------*\
| =========                 |                                                 |
| \\      /  F ield         | OpenFOAM: The Open Source CFD Toolbox           |
|  \\    /   O peration     | Version:  2412                                  |
|   \\  /    A nd           | Website:  www.openfoam.com                      |
|    \\/     M anipulation  |                                                 |
\*---------------------------------------------------------------------------*/
FoamFile
{
    version     2.0;
    format      ascii;
    arch        "LSB;label=32;scalar=64";
    class       volScalarField;
    location    "0.9";
    object      epsilon;
}
// * * * * * * * * * * * * * * * * * * * * * * * * * * * * * * * * * * * * * //

dimensions      [0 2 -3 0 0 0 0];

internalField   nonuniform List<scalar> 
78408
(
4.35945e+06
4.7635e+06
3.5833e+06
2.88832e+06
2.58697e+06
2.45299e+06
2.39969e+06
2.39421e+06
2.42437e+06
2.47999e+06
2.5535e+06
2.63599e+06
2.72326e+06
2.81099e+06
2.89979e+06
2.98802e+06
3.08056e+06
3.17546e+06
3.27966e+06
3.3904e+06
3.51777e+06
3.65577e+06
3.82081e+06
3.99876e+06
4.21476e+06
4.44462e+06
4.72879e+06
5.0249e+06
5.40348e+06
5.78622e+06
6.29764e+06
6.79705e+06
7.49543e+06
8.16287e+06
9.14441e+06
1.00515e+07
1.1479e+07
1.27304e+07
1.48804e+07
1.66457e+07
2.00252e+07
2.25752e+07
2.81432e+07
3.19389e+07
4.15984e+07
4.73393e+07
6.48421e+07
7.35614e+07
1.0736e+08
1.21581e+08
1.99521e+08
2.28749e+08
6.21642e+08
7.26103e+08
4.32432e+08
2.68272e+08
1.94199e+08
1.48727e+08
1.19125e+08
9.6318e+07
7.97881e+07
6.62083e+07
5.61335e+07
4.76159e+07
4.13501e+07
3.59501e+07
3.1959e+07
2.8349e+07
2.55102e+07
2.28043e+07
2.05307e+07
1.83669e+07
1.65124e+07
1.48001e+07
1.33356e+07
1.20215e+07
1.0901e+07
9.91264e+06
9.06345e+06
8.31254e+06
7.65051e+06
7.05837e+06
6.51819e+06
6.03e+06
5.57284e+06
5.16083e+06
4.76955e+06
4.42261e+06
4.08753e+06
3.8002e+06
3.51615e+06
3.28473e+06
3.04459e+06
2.86669e+06
2.66301e+06
2.54001e+06
2.36548e+06
2.30402e+06
2.16924e+06
1.6973e+07
9.54014e+06
3.54298e+06
1.62548e+06
969378
731391
652447
644939
669446
710951
758867
811393
865126
921623
978150
1.03678e+06
1.09286e+06
1.1508e+06
1.20436e+06
1.26108e+06
1.31302e+06
1.37256e+06
1.4268e+06
1.49703e+06
1.56066e+06
1.65056e+06
1.72952e+06
1.84932e+06
1.94769e+06
2.11177e+06
2.23463e+06
2.46337e+06
2.63275e+06
2.95749e+06
3.1877e+06
3.6595e+06
3.97196e+06
4.68184e+06
5.11079e+06
6.21631e+06
6.81532e+06
8.60613e+06
9.46725e+06
1.24922e+07
1.37906e+07
1.91441e+07
2.12259e+07
3.09395e+07
3.46126e+07
5.22873e+07
6.15147e+07
8.99871e+07
1.24159e+08
3.43365e+08
3.09999e+08
1.8421e+08
1.08703e+08
7.84633e+07
5.81054e+07
4.68283e+07
3.67839e+07
3.07664e+07
2.51038e+07
2.15324e+07
1.81626e+07
1.59153e+07
1.38239e+07
1.23069e+07
1.08801e+07
9.74157e+06
8.66211e+06
7.75544e+06
6.91285e+06
6.19695e+06
5.55148e+06
5.00251e+06
4.52128e+06
4.10874e+06
3.75382e+06
3.44473e+06
3.17433e+06
2.93288e+06
2.71445e+06
2.51494e+06
2.33032e+06
2.16034e+06
2.00193e+06
1.85663e+06
1.72149e+06
1.59883e+06
1.48512e+06
1.38323e+06
1.2906e+06
1.207e+06
1.13572e+06
1.06805e+06
1.01865e+06
967459
935095
2.14378e+06
2.49978e+06
1.22022e+06
659654
411817
299755
252143
238289
242304
256887
276916
300469
325745
352854
380957
410736
440869
472459
503565
535988
567295
600638
632500
668436
703128
745045
785717
838093
888057
956603
1.02019e+06
1.11271e+06
1.19536e+06
1.32544e+06
1.43598e+06
1.62415e+06
1.77225e+06
2.05342e+06
2.25414e+06
2.68931e+06
2.96438e+06
3.6662e+06
4.05047e+06
5.23636e+06
5.79307e+06
7.91215e+06
8.77967e+06
1.27273e+07
1.41771e+07
2.16073e+07
2.45341e+07
3.81042e+07
3.58454e+07
1.13986e+08
1.83865e+08
1.33164e+08
8.38257e+07
5.73092e+07
4.25844e+07
3.29536e+07
2.61197e+07
2.12772e+07
1.75476e+07
1.48197e+07
1.26368e+07
1.09866e+07
9.6248e+06
8.53429e+06
7.58633e+06
6.77557e+06
6.04513e+06
5.40319e+06
4.82582e+06
4.32089e+06
3.87524e+06
3.48987e+06
3.1565e+06
2.86909e+06
2.62267e+06
2.40817e+06
2.22032e+06
2.05208e+06
1.89969e+06
1.75945e+06
1.62971e+06
1.50908e+06
1.39715e+06
1.29322e+06
1.19769e+06
1.10948e+06
1.02939e+06
955704
890323
829858
778773
730182
693296
657248
630998
272084
522907
374501
274989
210643
170976
148924
139299
137844
142000
149560
159475
170755
183290
196642
211135
226221
242519
259100
276916
294603
313771
332287
353131
372983
396738
419164
448012
474613
511699
544672
594494
635477
705119
758959
859117
929528
1.07892e+06
1.17138e+06
1.40201e+06
1.52328e+06
1.89347e+06
2.05308e+06
2.67508e+06
2.89027e+06
3.99928e+06
4.31867e+06
6.40894e+06
6.92693e+06
1.09509e+07
1.18285e+07
1.98827e+07
1.48612e+07
4.48093e+07
1.1298e+08
1.05061e+08
7.20166e+07
4.90125e+07
3.63456e+07
2.75925e+07
2.18568e+07
1.7577e+07
1.45264e+07
1.21839e+07
1.04308e+07
9.04572e+06
7.95697e+06
7.05073e+06
6.28649e+06
5.61317e+06
5.01801e+06
4.48441e+06
4.01025e+06
3.59028e+06
3.22256e+06
2.90239e+06
2.62678e+06
2.38875e+06
2.18474e+06
2.00706e+06
1.85115e+06
1.7111e+06
1.5839e+06
1.4663e+06
1.3573e+06
1.25551e+06
1.16105e+06
1.07299e+06
992278
917435
849829
787306
732084
680869
637342
596455
564411
534291
511281
61006.9
139859
145694
142591
132249
120006
110066
104034
101674
102392
105254
109685
115096
121335
128117
135570
143415
151997
160856
170546
180343
191167
201775
213894
225445
239374
252327
269142
284178
305644
323815
352633
374648
414842
443010
500962
536952
623775
669433
804061
860820
1.07739e+06
1.14605e+06
1.50979e+06
1.59174e+06
2.24042e+06
2.34937e+06
3.58357e+06
3.75132e+06
6.17233e+06
6.39644e+06
1.14015e+07
8.03316e+06
2.07043e+07
6.83917e+07
8.34063e+07
6.34546e+07
4.43025e+07
3.29762e+07
2.48601e+07
1.96527e+07
1.57041e+07
1.29736e+07
1.08457e+07
9.29895e+06
8.05832e+06
7.10389e+06
6.29666e+06
5.62434e+06
5.02373e+06
4.49676e+06
4.01971e+06
3.59778e+06
3.22176e+06
2.89359e+06
2.60694e+06
2.3607e+06
2.1479e+06
1.96539e+06
1.80626e+06
1.66631e+06
1.54025e+06
1.42542e+06
1.31892e+06
1.22001e+06
1.12743e+06
1.04146e+06
961213
887681
819491
757944
701067
650798
604322
564571
527617
497996
470912
449738
25158.6
62544.9
80499.8
90904.3
94227.8
92502.9
88890
85686.1
83818.2
83542.4
84583.2
86681.2
89490.7
92885.2
96666.1
100873
105332
110235
115327
120936
126662
133051
139389
146690
153704
162176
170043
180230
189230
202117
212752
229938
242572
266455
282184
316681
336392
388310
412580
493618
522291
653493
685026
906414
937880
1.33449e+06
1.3674e+06
2.12973e+06
2.17344e+06
3.69479e+06
3.72607e+06
6.81861e+06
5.13721e+06
1.13668e+07
4.05323e+07
6.49983e+07
5.56471e+07
4.06939e+07
3.06657e+07
2.31566e+07
1.82986e+07
1.45876e+07
1.2045e+07
1.00562e+07
8.62875e+06
7.47871e+06
6.60259e+06
5.85641e+06
5.23805e+06
4.68156e+06
4.19458e+06
3.75136e+06
3.36e+06
3.01003e+06
2.70496e+06
2.43805e+06
2.20893e+06
2.01083e+06
1.84073e+06
1.69219e+06
1.56122e+06
1.44292e+06
1.33484e+06
1.23439e+06
1.14091e+06
1.05333e+06
971947
895992
826376
761900
703686
650024
602513
558781
521171
486518
458267
432963
412902
15793.6
39684.5
55035.1
66164.9
72838
75254.7
75005.6
73812.8
72734.2
72329.7
72666.4
73693.8
75231.7
77201.1
79464.8
82030.9
84780.9
87825.5
91006.6
94527.6
98150
102212
106282
110981
115535
121004
126102
132620
138365
146484
153123
163791
171526
186202
195573
216686
228243
259986
273893
323571
339376
420212
436224
573446
586435
834138
842310
1.32402e+06
1.32939e+06
2.30468e+06
2.29726e+06
4.19787e+06
3.69646e+06
7.41381e+06
2.42309e+07
4.95556e+07
4.80241e+07
3.73485e+07
2.87391e+07
2.1891e+07
1.73373e+07
1.38311e+07
1.14229e+07
9.53805e+06
8.19072e+06
7.10455e+06
6.28027e+06
5.57596e+06
4.99305e+06
4.46613e+06
4.00514e+06
3.58412e+06
3.21241e+06
2.87926e+06
2.58893e+06
2.33462e+06
2.11633e+06
1.92746e+06
1.76503e+06
1.6229e+06
1.49723e+06
1.38341e+06
1.27915e+06
1.18206e+06
1.09159e+06
1.0068e+06
927977
854472
787094
724804
668542
616829
570969
528944
492640
459441
432040
407845
388490
11923.3
29807.2
42265.2
52206.1
59419.6
63474.2
65030.1
65200
64867.8
64642.8
64753.7
65280.4
66157
67352.9
68779.5
70438.3
72245.6
74271.5
76409.2
78792.5
81266.5
84052.1
86868.6
90115.9
93286.1
97055.2
100583
105013
108923
114328
118744
125704
130748
140178
146131
159571
166830
186889
195496
226766
236355
287203
296541
383061
389821
547022
549552
858628
858243
1.49005e+06
1.49781e+06
2.70596e+06
2.90765e+06
5.52155e+06
1.53046e+07
3.72111e+07
4.06572e+07
3.39939e+07
2.69137e+07
2.08031e+07
1.65616e+07
1.32562e+07
1.09627e+07
9.16604e+06
7.8803e+06
6.84424e+06
6.05825e+06
5.38548e+06
4.82816e+06
4.32278e+06
3.8801e+06
3.47476e+06
3.1166e+06
2.79505e+06
2.51473e+06
2.26894e+06
2.05786e+06
1.87504e+06
1.71751e+06
1.57934e+06
1.45681e+06
1.34552e+06
1.24333e+06
1.14803e+06
1.05914e+06
975851
898420
826300
760205
699222
644136
593647
548820
507906
472441
440209
413361
389888
371002
9900.06
24430.9
34709.7
43356.2
50307.6
54944.2
57465.8
58539.3
58823.5
58871.8
58973.6
59282.4
59810.4
60567.9
61505.7
62629.4
63880.8
65308.9
66837.9
68560.7
70368.9
72412.9
74497.4
76890.7
79240.2
81996.8
84584.3
87765.5
90578.3
94371.3
97474.4
102248
105725
112078
116087
125041
129899
143115
148842
169272
175651
208660
214953
270942
275848
377795
380866
582773
587349
1.00252e+06
1.03929e+06
1.86924e+06
2.44526e+06
4.48999e+06
1.05266e+07
2.78243e+07
3.38309e+07
3.05962e+07
2.50765e+07
1.97696e+07
1.58671e+07
1.27721e+07
1.05894e+07
8.87564e+06
7.64324e+06
6.65042e+06
5.89568e+06
5.24876e+06
4.71155e+06
4.2231e+06
3.79432e+06
3.4008e+06
3.05262e+06
2.73951e+06
2.46634e+06
2.22658e+06
2.02047e+06
1.84172e+06
1.68735e+06
1.55158e+06
1.4308e+06
1.32081e+06
1.21957e+06
1.12508e+06
1.03687e+06
954270
877509
806118
740726
680516
626140
576436
532277
492113
457211
425647
399173
376183
357619
8652.3
21019.5
29707.6
37258
43733.1
48490.7
51514.5
53178.4
53943.7
54273.6
54463.5
54703
55055.3
55562.9
56207.8
57004.1
57913.3
58974
60130.7
61451.1
62854.3
64445.6
66080.5
67944.9
69780.7
71900.9
73892
76286.1
78403.6
81186.6
83467.1
86887.1
89394.7
93867.1
96710.7
102935
106364
115462
119514
133441
138023
160318
165065
202613
207028
275255
280089
415650
426739
707745
769359
1.39365e+06
2.15929e+06
3.86676e+06
7.88967e+06
2.09632e+07
2.77901e+07
2.72231e+07
2.3199e+07
1.87333e+07
1.51993e+07
1.23293e+07
1.02614e+07
8.63062e+06
7.44878e+06
6.49624e+06
5.76926e+06
5.14519e+06
4.62505e+06
4.1509e+06
3.73342e+06
3.34941e+06
3.009e+06
2.7024e+06
2.43459e+06
2.19925e+06
1.99668e+06
1.82071e+06
1.66833e+06
1.53392e+06
1.41396e+06
1.30443e+06
1.20341e+06
1.10905e+06
1.02095e+06
938508
861956
790878
725825
666055
612103
562912
519198
479557
445050
413966
387755
365093
346753
7781.72
18611.6
26119.3
32788.1
38762.1
43436.4
46700.5
48743.9
49873.6
50459.8
50776.9
51027
51304
51674.4
52144.8
52738.5
53433.1
54262.5
55185.4
56253.2
57402.1
58706.9
60054.7
61577
63075.9
64776.7
66370
68242.1
69895
72012.5
73748
76288.5
78161.7
81428.5
83527.5
88024
90548.8
97070.9
100083
109983
113475
129178
133033
159267
163528
211014
217299
311793
327887
527098
604662
1.11238e+06
1.97497e+06
3.46158e+06
6.34288e+06
1.6078e+07
2.26688e+07
2.39751e+07
2.12962e+07
1.7673e+07
1.45304e+07
1.19002e+07
9.95434e+06
8.40944e+06
7.27841e+06
6.36545e+06
5.66482e+06
5.0622e+06
4.55756e+06
4.09623e+06
3.68857e+06
3.31269e+06
2.97869e+06
2.67739e+06
2.41379e+06
2.18186e+06
1.98187e+06
1.80779e+06
1.65661e+06
1.52284e+06
1.40304e+06
1.2934e+06
1.19209e+06
1.09741e+06
1.00902e+06
926399
849757
778724
713784
654242
600541
551691
508287
469030
434814
404090
378074
355639
337452
7116.89
16777.1
23386.8
29352.4
34861.5
39365.1
42719.5
45000.3
46400.3
47206.6
47661.5
47964
48225.6
48529.2
48900.2
49370.8
49931.9
50615.5
51390.9
52298.5
53285.4
54405.1
55564.4
56858
58127.7
59540.4
60857
62367.5
63695.3
65354.2
66710.9
68653.1
70090.1
72549.1
74145.2
77500.1
79421.9
84265.6
86592.8
93902.6
96683.6
108197
111473
130578
134732
169211
176397
245189
264445
413651
499913
937860
1.85259e+06
3.18428e+06
5.37391e+06
1.26442e+07
1.84848e+07
2.09468e+07
1.94035e+07
1.65879e+07
1.38485e+07
1.14696e+07
9.65372e+06
8.19892e+06
7.12052e+06
6.24778e+06
5.57334e+06
4.99174e+06
4.50194e+06
4.05271e+06
3.65404e+06
3.28551e+06
2.95714e+06
2.66039e+06
2.40028e+06
2.17107e+06
1.97302e+06
1.80023e+06
1.64968e+06
1.51603e+06
1.39594e+06
1.28577e+06
1.18382e+06
1.08852e+06
999578
916550
839628
768473
703506
644064
590509
541898
498725
459764
425782
395341
369480
347204
329123
6575.06
15299.2
21208.8
26610.4
31707.2
36008.2
39366.6
41788.7
43385.8
44375.1
44963.6
45339.3
45621.2
45903
46224
46624.4
47105.7
47700
48384.5
49192
50076.5
51075.6
52109.6
53246.4
54355.6
55563.9
56681
57931.4
59022.9
60353.2
61435.6
62954.4
64078.5
65974.2
67214.3
69784.9
71285.2
74991.4
76843.8
82423.4
84712.5
93463.5
96330.7
110796
114833
140926
148589
200940
222001
340012
430533
824226
1.76977e+06
2.98754e+06
4.73072e+06
1.02322e+07
1.5164e+07
1.82071e+07
1.75629e+07
1.54888e+07
1.31512e+07
1.10302e+07
9.35134e+06
7.99098e+06
6.96777e+06
6.13658e+06
5.48892e+06
4.9285e+06
4.4534e+06
4.01604e+06
3.62601e+06
3.26443e+06
2.94125e+06
2.64861e+06
2.39155e+06
2.16463e+06
1.96807e+06
1.79615e+06
1.64583e+06
1.51193e+06
1.39122e+06
1.28024e+06
1.17739e+06
1.08127e+06
991612
908035
830718
759341
694269
634854
581388
532960
489975
451262
417481
387277
361550
339390
321381
6112.59
14058.4
19409.8
24354.8
29092
33185.4
36498.5
38997.1
40735.1
41873.1
42584.3
43041.3
43364.6
43653.6
43957.9
44324.3
44762.9
45306.8
45939
46686.8
47508.8
48430.6
49381
50408.8
51403.1
52462.3
53431.4
54489
55403.1
56490
57367
58575.5
59466.9
60955.6
61934
63946.3
65140.1
68047.2
69556.3
73937.6
75870
82735.3
85296.3
96638
100549
121066
128940
170475
192511
290490
382923
747289
1.71324e+06
2.8444e+06
4.28319e+06
8.52251e+06
1.25798e+07
1.57929e+07
1.58153e+07
1.43921e+07
1.24419e+07
1.05797e+07
9.04296e+06
7.78082e+06
6.8155e+06
6.0275e+06
5.40757e+06
4.86884e+06
4.40868e+06
3.98326e+06
3.6018e+06
3.24705e+06
2.92885e+06
2.64011e+06
2.38584e+06
2.16093e+06
1.96558e+06
1.79423e+06
1.64385e+06
1.50945e+06
1.38787e+06
1.27588e+06
1.17199e+06
1.0749e+06
984427
900220
822448
750799
685585
626163
572765
524491
481679
443190
409598
379606
354005
331936
313976
5704.99
12984.9
17882
22452.9
26878.4
30771.4
34012.2
36543.6
38379.6
39636.5
40456.6
40996
41372.2
41687.1
41997.5
42355.1
42777.3
43298
43905.2
44621.7
45408.9
46282.9
47178.5
48130
49040.8
49988.9
50845.4
51756.3
52533.6
53435
54153.6
55128
55841.3
57026.8
57806.5
59408.8
60372.2
62699.8
63951.8
67475.9
69139.6
74674.8
76997.4
86168.8
89953.8
106648
114584
148791
171344
256072
349309
693636
1.67472e+06
2.73847e+06
3.95997e+06
7.29159e+06
1.05907e+07
1.37111e+07
1.4192e+07
1.33159e+07
1.17277e+07
1.0119e+07
8.72702e+06
7.56583e+06
6.66093e+06
5.91772e+06
5.32665e+06
4.81032e+06
4.36552e+06
3.9523e+06
3.57952e+06
3.23166e+06
2.9184e+06
2.63348e+06
2.38187e+06
2.15882e+06
1.96449e+06
1.79351e+06
1.64288e+06
1.50778e+06
1.38519e+06
1.27205e+06
1.167e+06
1.06889e+06
977538
892665
814417
742482
677121
617687
564356
516234
473596
435325
401922
372131
346660
324665
306742
5337.91
12035.7
16555.8
20816.3
24971.3
28676.9
31831.8
34366.4
36268
37618.4
38533.3
39152
39586.7
39939.2
40271.1
40637.8
41062.3
41579.7
42181.5
42887
43659.1
44506.3
45367.3
46265.4
47114.8
47978.7
48748
49544.6
50214.1
50970.8
51564.4
52357.6
52930.8
53884.6
54509.2
55802.3
56587.6
58483.2
59536.6
62429.7
63884.7
68454
70585.9
78205.3
81873.1
95870.4
103794
132898
155736
231471
325059
655428
1.64882e+06
2.65924e+06
3.71962e+06
6.38854e+06
9.06452e+06
1.19462e+07
1.27127e+07
1.22771e+07
1.1017e+07
9.65106e+06
8.40375e+06
7.34495e+06
6.50249e+06
5.8055e+06
5.24441e+06
4.75123e+06
4.32233e+06
3.9217e+06
3.55784e+06
3.217e+06
2.90878e+06
2.62769e+06
2.37871e+06
2.15745e+06
1.96404e+06
1.7933e+06
1.64227e+06
1.50635e+06
1.38263e+06
1.26827e+06
1.16202e+06
1.06284e+06
970605
885066
806351
734141
668651
609220
555973
508013
465564
427516
394314
364724
339389
317466
299573
5002.54
11183
15384.8
19384.4
23303.9
26836.8
29900.1
32418.1
34361
35783.7
36779.8
37472.4
37967.2
38364.4
38728.1
39116.7
39557.2
40085.8
40696.6
41405.9
42177.1
43012.5
43853.4
44714.7
45518.8
46318.1
47018.5
47724.6
48307.3
48948.9
49441.6
50091.6
50552.4
51325
51825.8
52880
53524.2
55089.8
55986.2
58402.9
59691.4
63541.2
65517.6
71998.8
75561.6
87609
95487.2
120952
143975
213486
307308
627856
1.63189e+06
2.59965e+06
3.53674e+06
5.71288e+06
7.89014e+06
1.04684e+07
1.13868e+07
1.12901e+07
1.03186e+07
9.18002e+06
8.07458e+06
7.11817e+06
6.33951e+06
5.68984e+06
5.15976e+06
4.69047e+06
4.27804e+06
3.8904e+06
3.53577e+06
3.20219e+06
2.89914e+06
2.62199e+06
2.37566e+06
2.15618e+06
1.96363e+06
1.79305e+06
1.64155e+06
1.50473e+06
1.37982e+06
1.2642e+06
1.15673e+06
1.05648e+06
963390
877210
798060
725608
660022
600622
547489
499714
457475
419665
386680
357300
332114
310266
292402
4693.35
10408.7
14336.9
18114.1
21827.3
25202.7
28173.2
30661.9
32627.5
34105.2
35169.7
35929.8
36484.1
36929.7
37332.2
37751.4
38218
38768.5
39398.8
40122.7
40903.6
41738.2
42569.6
43406.2
44176.9
44925.9
45571.3
46204.5
46716.3
47264.6
47674.7
48209.3
48578.1
49206.3
49606.3
50472.3
51002.3
52310.5
53079.8
55128.9
56281.8
59583.3
61431
67059.1
70530.9
81138.3
88962.6
111781
134959
200114
294209
607838
1.6214e+06
2.5548e+06
3.39505e+06
5.19765e+06
6.98013e+06
9.2409e+06
1.02146e+07
1.03657e+07
9.64149e+06
8.71056e+06
7.74187e+06
6.88622e+06
6.17195e+06
5.57029e+06
5.07206e+06
4.6273e+06
4.2319e+06
3.85767e+06
3.51262e+06
3.18656e+06
2.88887e+06
2.6158e+06
2.3722e+06
2.15453e+06
1.96282e+06
1.79237e+06
1.64035e+06
1.50259e+06
1.37648e+06
1.2596e+06
1.15092e+06
1.04964e+06
955727
868954
789419
716771
651134
591806
538823
491263
449263
411712
378964
349807
324787
303021
285191
4406.65
9700.03
13389.5
16974.3
20505.7
23737.9
26617.3
29068.2
31042.8
32561.2
33682.8
34503.7
35115
35610.6
36056.1
36512.3
37012
37592.3
38250.2
38996.8
39794.9
40636.8
41466.6
42287.5
43033.6
43743.1
44344
44917.7
45370.8
45842.4
46183.7
46623.9
46916.3
47427.4
47743.9
48458.9
48894.9
49998.6
50663.1
52423
53463.2
56338.8
58078.6
63055.4
66450.5
75975.5
83751
104617
127957
190056
284530
593321
1.61553e+06
2.52116e+06
3.28369e+06
4.79779e+06
6.2682e+06
8.226e+06
9.18974e+06
9.51102e+06
8.99261e+06
8.24742e+06
7.40819e+06
6.65032e+06
6.00023e+06
5.44683e+06
4.98104e+06
4.56132e+06
4.18344e+06
3.82303e+06
3.48789e+06
3.16964e+06
2.87753e+06
2.60869e+06
2.36794e+06
2.15212e+06
1.96128e+06
1.79095e+06
1.6384e+06
1.49969e+06
1.37239e+06
1.25427e+06
1.14443e+06
1.04218e+06
947508
860204
780346
707561
641928
582717
529927
482617
440887
403621
371134
342216
317380
295710
277922
4139.9
9047.96
12526.1
15942.1
19311.9
22414
25205.5
27613.7
29587
31134.4
32303
33177.8
33843.1
34388.6
34879.5
35376.7
35914.8
36530.6
37221.9
37997.1
38818.2
39673.4
40507.3
41319.1
42047.4
42725.8
43290.3
43814.9
44218.6
44626.4
44909.7
45271.6
45499.7
45914.5
46160.9
46752.8
47110.1
48048.6
48625.2
50153.7
51098.8
53637.5
55286.3
59758.3
63090.1
71790.3
79529
98941.1
122470
182442
277422
582889
1.61295e+06
2.49614e+06
3.19516e+06
4.4825e+06
5.7052e+06
7.38809e+06
8.30117e+06
8.72954e+06
8.37762e+06
7.79507e+06
7.07631e+06
6.41198e+06
5.82508e+06
5.31969e+06
4.88666e+06
4.49234e+06
4.13237e+06
3.78614e+06
3.46125e+06
3.15106e+06
2.86478e+06
2.60034e+06
2.36256e+06
2.14869e+06
1.95876e+06
1.78857e+06
1.6355e+06
1.49587e+06
1.36741e+06
1.2481e+06
1.13717e+06
1.03402e+06
938661
850903
770795
697939
632369
573329
520778
473756
432330
395375
363174
334516
309884
288326
270592
3891.27
8445.85
11734.3
15000.1
18225.1
21208.7
23916.4
26279
28243.4
29810.3
31017.3
31939.5
32654.9
33249.3
33786.6
34327.5
34907.5
35563
36291.9
37100.1
37948.3
38821
39663.2
40471.1
41186.7
41840.4
42374.8
42858.4
43220.5
43574.5
43808.3
44104.6
44277.8
44612.4
44799.2
45289.5
45579.8
46383.1
46884.9
48225.1
49088.7
51357.3
52928.4
57004.2
60285.5
68350.7
76068
94392.3
118146
176671
272286
575537
1.61265e+06
2.4778e+06
3.12414e+06
4.23039e+06
5.25498e+06
6.69567e+06
7.53537e+06
8.02175e+06
7.80058e+06
7.35745e+06
6.74893e+06
6.17287e+06
5.64742e+06
5.18932e+06
4.78909e+06
4.42032e+06
4.07858e+06
3.74681e+06
3.43246e+06
3.13061e+06
2.85037e+06
2.59053e+06
2.35585e+06
2.14402e+06
1.95506e+06
1.78505e+06
1.6315e+06
1.49099e+06
1.36143e+06
1.24101e+06
1.12907e+06
1.0251e+06
929151
841024
760746
687891
622449
563634
511370
464676
423590
386974
355085
326707
302300
280872
263207
3659.32
7888.59
11004.8
14135.1
17229.2
20104.7
22732.9
25048.6
26998.4
28577.2
29814.8
30778.3
31539.9
32181.3
32765.1
33351.2
33975.4
34673.6
35443.1
36287.3
37165.5
38058.9
38912.6
39720.2
40427
41061
41570.5
42019.6
42345.9
42654.3
42845.6
43086.2
43212.3
43479.2
43614.7
44020.1
44253
44943.9
45381
46566.2
47359
49407.9
50912.6
54674.4
57916.8
65490
73202.5
90715.1
114730
172320
268684
570534
1.61388e+06
2.46463e+06
3.06672e+06
4.02625e+06
4.89097e+06
6.12193e+06
6.87788e+06
7.38574e+06
7.264e+06
6.93786e+06
6.42861e+06
5.9347e+06
5.46831e+06
5.05632e+06
4.68862e+06
4.34538e+06
4.02205e+06
3.70496e+06
3.40141e+06
3.10813e+06
2.83414e+06
2.57907e+06
2.34764e+06
2.13795e+06
1.95003e+06
1.78027e+06
1.62629e+06
1.48497e+06
1.35438e+06
1.23294e+06
1.12009e+06
1.01541e+06
918963
830561
750198
677420
612172
553639
501711
455386
414673
378427
346875
318799
294638
273362
255783
3442.89
7372.1
10330.3
13336.8
16311.5
19087.7
21640.9
23909.5
25840.5
27425
28686.6
29685.8
30489.5
31175.7
31805.3
32437.1
33107
33849.6
34661.7
35544.1
36454.3
37370.6
38237.9
39048.2
39749.1
40367.5
40855.9
41275.8
41571.4
41840.6
41995.1
42188
42273.2
42482.6
42573.6
42907.1
43090.3
43686.6
44067.2
45123
45853.4
47721.6
49169.4
52680.6
55895
63085.7
70810.5
87723.1
112036
169078
266290
567330
1.61605e+06
2.45546e+06
3.02003e+06
3.85914e+06
4.59358e+06
5.64466e+06
6.31452e+06
6.81783e+06
6.76896e+06
6.53885e+06
6.1176e+06
5.69914e+06
5.28886e+06
4.92137e+06
4.58566e+06
4.26773e+06
3.96286e+06
3.66058e+06
3.36802e+06
3.08352e+06
2.816e+06
2.56586e+06
2.33782e+06
2.13037e+06
1.94358e+06
1.77414e+06
1.6198e+06
1.47775e+06
1.34624e+06
1.22387e+06
1.11022e+06
1.00493e+06
908102
819522
739164
666539
601553
543360
491816
445902
405597
369749
338560
310808
286915
265811
248337
3240.96
6893.02
9705.13
12596.9
15461.9
18146.6
20629
22850.8
24760.1
26345.2
27625.2
28654.8
29496.6
30225.2
30899.3
31576.7
32292.9
33081.1
33937.1
34859
35802.4
36742.9
37625.4
38440.4
39137.8
39743.5
40214.3
40609.1
40878
41113.5
41235.7
41387.7
41437
41597.1
41649
41921.3
42060.9
42576.8
42907.3
43853.8
44528.8
46247
47645.6
50956.2
54152.2
61046.3
68800
85278.2
109923
166716
264858
565512
1.61872e+06
2.44936e+06
2.98185e+06
3.72098e+06
4.34821e+06
5.24574e+06
5.83203e+06
6.3132e+06
6.31533e+06
6.16224e+06
5.81782e+06
5.46775e+06
5.11015e+06
4.78521e+06
4.48067e+06
4.18762e+06
3.90115e+06
3.61373e+06
3.33232e+06
3.05675e+06
2.79586e+06
2.55083e+06
2.3263e+06
2.12121e+06
1.93564e+06
1.76659e+06
1.61199e+06
1.46931e+06
1.33697e+06
1.2138e+06
1.09946e+06
993690
896584
807929
727667
655276
590619
532823
481712
436247
396384
360961
330160
302754
279149
258240
240892
3052.63
6448.46
9124.39
11909
14672.2
17272.1
19687.6
21863.4
23748.9
25330.5
26623.9
27679.3
28555.5
29323.6
30040.7
30763.1
31525.6
32359.9
33260.4
34222.4
35199.6
36165.3
37063.9
37885
38580.6
39176.2
39631.9
40005.2
40250.8
40456.9
40550.9
40667.3
40685.1
40802.6
40820
41039.5
41140.4
41587.3
41873
42726.2
43351.4
44943.8
46300.3
49449.9
52636.7
59302.3
67100.6
83275.9
108282
165060
264193
564754
1.62151e+06
2.44558e+06
2.95048e+06
3.60575e+06
4.14392e+06
4.91053e+06
5.41851e+06
5.86641e+06
5.90204e+06
5.80917e+06
5.5308e+06
5.24193e+06
4.93326e+06
4.64857e+06
4.37413e+06
4.10538e+06
3.83712e+06
3.56452e+06
3.29433e+06
3.02783e+06
2.77372e+06
2.53392e+06
2.31304e+06
2.11041e+06
1.92616e+06
1.7576e+06
1.60284e+06
1.45962e+06
1.32658e+06
1.20273e+06
1.08784e+06
981706
884440
795814
715739
643660
579400
522057
471425
426448
387059
352089
321699
294660
271364
250673
233472
2877.08
6035.92
8584.17
11267.6
13935.7
16456.5
18808.8
20939.8
22799.9
24374.7
25677.3
26754.2
27661
28465.9
29224.2
29990.7
30799
31679.3
32624.3
33626.7
34637.9
35629
36544.3
37372.4
38067.6
38655
39097.8
39452.5
39677.5
39858.1
39927.1
40012.4
40002.4
40082.7
40069.4
40243.1
40309.4
40696.4
40941.6
41714.4
42294.4
43780.7
45101
48121.9
51307.9
57799.9
65657.8
81635.8
107030
163974
264146
564803
1.62417e+06
2.44351e+06
2.92457e+06
3.50888e+06
3.97238e+06
4.62731e+06
5.0635e+06
5.47181e+06
5.52727e+06
5.48014e+06
5.25769e+06
5.02288e+06
4.75915e+06
4.51219e+06
4.26656e+06
4.02136e+06
3.77099e+06
3.51307e+06
3.25413e+06
2.99678e+06
2.74958e+06
2.51513e+06
2.29802e+06
2.09796e+06
1.91512e+06
1.74715e+06
1.59233e+06
1.4487e+06
1.31508e+06
1.19069e+06
1.07538e+06
969012
871704
783213
703416
631728
567931
511095
460987
416536
377651
343160
313203
286552
263584
243133
226101
2713.51
5653.1
8081.12
10668.3
13246.9
15693.6
17986
20073.2
21907
23472.3
24780.4
25875
26809
27648
28445.4
29254.6
30107.9
31033.9
32023.1
33065.5
34110.5
35127
36058.9
36894.8
37590.4
38171.3
38602.9
38941.4
39148.3
39306.4
39353.3
39411.3
39376.4
39424.3
39383.5
39517.1
39552.1
39886.8
40094.9
40797.7
41336.3
42732.4
44022.1
46940.7
50133.7
56497.2
64428.6
80295.3
106100
163354
264593
565455
1.62645e+06
2.44267e+06
2.90307e+06
3.42682e+06
3.82722e+06
4.38667e+06
4.75799e+06
5.1238e+06
5.18872e+06
5.17509e+06
4.99929e+06
4.81161e+06
4.5887e+06
4.37677e+06
4.15849e+06
3.93592e+06
3.70302e+06
3.45957e+06
3.21185e+06
2.96367e+06
2.72347e+06
2.49448e+06
2.28124e+06
2.08384e+06
1.90252e+06
1.73524e+06
1.58048e+06
1.43657e+06
1.30251e+06
1.17772e+06
1.06212e+06
955650
858419
770167
690741
619519
556249
499973
450433
406542
368190
334202
304699
278454
255833
235644
218803
2561.2
5297.95
7612.32
10107.4
12601.3
14978.1
17213.5
19258.3
21065
22618.5
23929
25037.9
25995.8
26866.1
27700.6
28551
29448.3
30418.9
31451.6
32533.4
33611.6
34653.2
35601.8
36445.7
37142.4
37717.8
38139.7
38463.9
38654.8
38793.1
38820.3
38854.4
38797.2
38816.4
38750.9
38849.1
38855.6
39144.1
39317.9
39959.3
40459.6
41778.9
43043
45881.4
49088.7
55360.9
63378.5
79204.7
105438
163113
265436
566544
1.6282e+06
2.44263e+06
2.8851e+06
3.35684e+06
3.70348e+06
4.18105e+06
4.49431e+06
4.81707e+06
4.88379e+06
4.89355e+06
4.75604e+06
4.6089e+06
4.42269e+06
4.24295e+06
4.0504e+06
3.84944e+06
3.63347e+06
3.40419e+06
3.1676e+06
2.92859e+06
2.69544e+06
2.472e+06
2.26272e+06
2.06808e+06
1.88838e+06
1.7219e+06
1.56731e+06
1.42325e+06
1.2889e+06
1.16384e+06
1.04811e+06
941665
844630
756721
677754
607074
544392
488727
439795
396498
358706
325243
296213
270393
248135
228230
211602
2419.42
4968.55
7175.2
9581.67
11994.9
14305.5
16486.5
18490
20269.3
21809.2
23119.3
24239.4
25218.3
26117.3
26986.7
27876.5
28816.4
29830.7
30905.9
32026.2
33136.7
34202.7
35167.5
36019.6
36717.7
37288.6
37702
38013.7
38190.2
38311.1
38320.6
38333.5
38256.3
38250.2
38162.2
38229
38209.3
38456.7
38598.6
39185.4
39650.3
40903.8
42146.7
44923.7
48152.1
54364.4
62480
78324
105000
163183
266593
567936
1.62927e+06
2.44308e+06
2.86996e+06
3.29673e+06
3.59728e+06
4.0044e+06
4.26599e+06
4.54671e+06
4.60973e+06
4.63469e+06
4.52807e+06
4.41535e+06
4.26175e+06
4.11132e+06
3.94278e+06
3.76228e+06
3.56261e+06
3.34714e+06
3.12152e+06
2.89164e+06
2.66557e+06
2.44772e+06
2.24248e+06
2.05069e+06
1.87271e+06
1.70714e+06
1.55287e+06
1.40879e+06
1.27429e+06
1.14912e+06
1.03339e+06
927106
830385
742922
664500
594434
532399
477393
429108
386435
349228
316311
287771
262393
240515
220914
204520
2287.5
4663.1
6767.47
9088.44
11424.4
13671.9
15801
17764.3
19515.8
21040.7
22348.1
23476.6
24473.6
25398.7
26300.8
27228.4
28209.3
29265.9
30382.3
31540
32681.8
33771.4
34751.8
35611.9
36311.7
36878.8
37284.6
37585.2
37748.9
37854.3
37847.9
37841.9
37746.8
37718.1
37609.6
37648.3
37604.3
37814.8
37926.5
38464.6
38896.5
40093.6
41319.7
44051.3
47307.3
53486.1
61710.5
77620.7
104751
163507
267995
569520
1.62955e+06
2.44371e+06
2.85709e+06
3.24477e+06
3.50552e+06
3.85183e+06
4.06759e+06
4.30822e+06
4.36377e+06
4.39744e+06
4.31527e+06
4.23133e+06
4.10642e+06
3.98241e+06
3.83606e+06
3.67479e+06
3.49073e+06
3.28863e+06
3.07378e+06
2.85292e+06
2.63394e+06
2.42171e+06
2.22059e+06
2.03173e+06
1.85556e+06
1.69101e+06
1.53718e+06
1.39323e+06
1.25874e+06
1.13361e+06
1.01802e+06
912023
815732
728814
651022
581640
520309
466007
418404
376385
339786
307434
279400
254479
232995
213717
197577
2164.81
4379.94
6387.04
8625.27
10887
13074.2
15153.3
17077.6
18801.1
20309.7
21612.3
22746.7
23759.2
24708
25640.7
26604
27624.4
28721.8
29878
31071.7
32243.6
33355.7
34351.1
35218.8
35920.3
36484.1
36883.1
37173.9
37326
37417.5
37396.9
37374.2
37262.6
37213.8
37086.4
37099.9
37033.1
37210.1
37293.4
37787.5
38188.4
39337.3
40550.8
43250.8
46540.6
52708.5
61051.3
77068.3
104660
164039
269584
571204
1.62897e+06
2.4443e+06
2.846e+06
3.19954e+06
3.42575e+06
3.71935e+06
3.89455e+06
4.09761e+06
4.14321e+06
4.18053e+06
4.11731e+06
4.05708e+06
3.9571e+06
3.85666e+06
3.73065e+06
3.58732e+06
3.41809e+06
3.22887e+06
3.02452e+06
2.81256e+06
2.60063e+06
2.39405e+06
2.19709e+06
2.01122e+06
1.83697e+06
1.67356e+06
1.52029e+06
1.37663e+06
1.24229e+06
1.11734e+06
1.00204e+06
896468
800720
714445
637363
568731
508158
454603
407716
366377
330406
298636
271123
246673
225595
206659
190792
2050.71
4117.5
6032.03
8190.02
10380.2
12509.3
14540.5
16426.5
18122.1
19613.4
20909.4
22047.4
23073
24043.2
25004.2
26001.4
27059.4
28196
29390.4
30618.6
31819.1
32952.6
33962.1
34837
35540.2
36101.1
36493.9
36775.8
36917.4
36996.6
36963.1
36925.4
36799
36732
36587.2
36577.7
36489.5
36635.9
36691.9
37146.2
37517.9
38625.6
39830.6
42511.3
45840.6
52017
60486.9
76644.4
104702
164737
271311
572909
1.62747e+06
2.44465e+06
2.83628e+06
3.1599e+06
3.35596e+06
3.60373e+06
3.74306e+06
3.91132e+06
3.9455e+06
3.98261e+06
3.93369e+06
3.89263e+06
3.81407e+06
3.73443e+06
3.62691e+06
3.50019e+06
3.34496e+06
3.16806e+06
2.97392e+06
2.77069e+06
2.56574e+06
2.3648e+06
2.17204e+06
1.98924e+06
1.81699e+06
1.65484e+06
1.50228e+06
1.35903e+06
1.225e+06
1.10039e+06
985519
880492
785397
699858
623565
555746
495981
443213
397074
356439
321116
289943
262963
238995
218336
199756
184181
1944.64