/*--------------------------------*- C++ -*----------------------------------*\
| =========                 |                                                 |
| \\      /  F ield         | OpenFOAM: The Open Source CFD Toolbox           |
|  \\    /   O peration     | Version:  2412                                  |
|   \\  /    A nd           | Website:  www.openfoam.com                      |
|    \\/     M anipulation  |                                                 |
\*---------------------------------------------------------------------------*/
FoamFile
{
    version     2.0;
    format      ascii;
    arch        "LSB;label=32;scalar=64";
    class       volScalarField;
    location    "0.9";
    object      nut;
}
// * * * * * * * * * * * * * * * * * * * * * * * * * * * * * * * * * * * * * //

dimensions      [0 2 -1 0 0 0 0];

internalField   nonuniform List<scalar> 
78408
(
0.00128471
0.00129761
0.00115689
0.00105504
0.000996217
0.000958298
0.000931101
0.000910244
0.000893844
0.000880341
0.000868508
0.000857178
0.000845781
0.000833866
0.000821512
0.000808561
0.00079545
0.000782046
0.000768854
0.000755605
0.000742974
0.000730375
0.000718775
0.000707133
0.000696698
0.000685923
0.000676674
0.000666583
0.000658565
0.000649008
0.000642286
0.000633048
0.000627577
0.000618679
0.000614733
0.000605947
0.000603889
0.000594861
0.000595068
0.000585347
0.000588457
0.000577419
0.000584193
0.000571011
0.00058232
0.000565538
0.000581686
0.000559163
0.000581328
0.000551873
0.000588488
0.000552098
0.000675069
0.000724334
0.000620031
0.000570048
0.000551803
0.000541899
0.000538268
0.000534595
0.000533695
0.000531643
0.000532113
0.000531455
0.000533852
0.000535435
0.000540081
0.000543493
0.000548744
0.000552019
0.000555901
0.0005579
0.000560149
0.000561179
0.000562582
0.000563483
0.000564938
0.000566406
0.000568405
0.000570542
0.000572922
0.000575365
0.000577606
0.000579817
0.000581473
0.000583172
0.000584138
0.000585394
0.000585698
0.000586844
0.000586739
0.000588224
0.000587877
0.000590335
0.00058986
0.000594294
0.000593716
0.000601808
0.000602775
0.00386861
0.0038712
0.00266174
0.0020335
0.00172021
0.0015581
0.00149477
0.00149798
0.00153722
0.00158303
0.00162209
0.00164814
0.00166377
0.00167039
0.00167198
0.00166915
0.00166384
0.00165453
0.00164347
0.00162818
0.00161137
0.0015904
0.00156861
0.00154246
0.0015177
0.00148851
0.00146259
0.00143217
0.00140661
0.0013759
0.00135236
0.00132179
0.00130047
0.00127326
0.00125449
0.00123115
0.00121388
0.0011952
0.00117853
0.00116566
0.00114738
0.00114226
0.00111965
0.00112512
0.00109487
0.0011157
0.00107581
0.00111464
0.00105994
0.00111124
0.00103389
0.00108287
0.000809595
0.00128325
0.00200071
0.00211738
0.00231465
0.00223721
0.00242168
0.00232168
0.00247072
0.00238255
0.00251914
0.00247334
0.0026197
0.00262709
0.00278227
0.00282289
0.00296039
0.00300009
0.00309973
0.00312449
0.00318862
0.00320235
0.0032438
0.00325478
0.00328459
0.00329732
0.00331743
0.00332604
0.00333274
0.00332839
0.00331708
0.00329644
0.00326783
0.00323438
0.0031945
0.00315441
0.00310991
0.00307102
0.00302726
0.00299477
0.00295332
0.00293413
0.00289409
0.00289857
0.00285668
0.00291046
0.00285548
0.00159732
0.00247566
0.00214774
0.00197458
0.00201837
0.00223926
0.00253398
0.0027837
0.00294538
0.00301083
0.00301181
0.00296405
0.00289329
0.00280596
0.0027182
0.00263005
0.00255338
0.00248008
0.00242104
0.00236347
0.00231845
0.00226969
0.00223234
0.00218342
0.0021476
0.00209418
0.00205811
0.00199897
0.00196501
0.00189993
0.00187195
0.00180198
0.00177781
0.00170556
0.00168679
0.00161499
0.00160379
0.00153212
0.00152938
0.00145768
0.00146269
0.001391
0.00140238
0.00133212
0.00134815
0.00128311
0.00130505
0.00125261
0.00127767
0.00124144
0.00125007
0.00128728
0.00107881
0.00111268
0.00241408
0.0030153
0.00368232
0.00375781
0.00423591
0.00416151
0.0045212
0.00442405
0.00473856
0.004706
0.00503762
0.00510953
0.00546297
0.00559987
0.0059151
0.00603982
0.00626903
0.00635077
0.0064994
0.00654909
0.00664553
0.00668241
0.00674896
0.00678163
0.0068196
0.00683127
0.00683185
0.00680678
0.00676275
0.00669868
0.00661618
0.00652465
0.00641962
0.0063163
0.00620372
0.00610569
0.00599767
0.0059166
0.0058176
0.00576628
0.00567294
0.00567371
0.00557701
0.00568206
0.0055835
0.00192309
0.00189197
0.00239178
0.00298837
0.00374385
0.00460132
0.00539391
0.00595523
0.0062455
0.00627897
0.00614366
0.00589563
0.00559912
0.00527577
0.00495934
0.00465244
0.00437867
0.0041256
0.00391319
0.00372026
0.00356462
0.00341844
0.00330377
0.00318276
0.00308933
0.0029766
0.00289211
0.00277841
0.00270039
0.00258253
0.00251371
0.00239349
0.00233479
0.0022132
0.0021632
0.00204525
0.00200858
0.00189447
0.0018723
0.00176179
0.00175323
0.00164531
0.00164875
0.00154327
0.00155736
0.00145615
0.00148444
0.00139658
0.00144295
0.00137859
0.00143242
0.00150402
0.00171517
0.00109898
0.00257246
0.00365809
0.00473771
0.00507559
0.00581982
0.00588847
0.00642636
0.00641395
0.00687217
0.0069229
0.00740787
0.00759429
0.00811943
0.00838695
0.00885907
0.00909203
0.009435
0.00958911
0.00981096
0.00990647
0.01005
0.0101174
0.010214
0.0102647
0.0103134
0.0103218
0.0103077
0.0102541
0.0101696
0.0100555
0.0099142
0.00976059
0.00958868
0.00942062
0.00924102
0.00908363
0.00891461
0.00878511
0.00863514
0.00855077
0.00842124
0.00841006
0.00829039
0.00842673
0.00833432
0.00623042
0.00433299
0.00564207
0.0067139
0.00777475
0.00883788
0.00978044
0.0104499
0.0107928
0.0107916
0.0105336
0.0100882
0.00954777
0.00895252
0.0083573
0.00777239
0.0072362
0.0067347
0.00629999
0.00590307
0.00557202
0.0052655
0.00501688
0.00476813
0.00456876
0.00434736
0.00417273
0.00395943
0.0038009
0.00358802
0.00344648
0.00323591
0.00311552
0.00290887
0.00280657
0.00260967
0.00253105
0.00234543
0.00229195
0.00211813
0.00208812
0.00192496
0.00191554
0.00176185
0.00177085
0.00162635
0.00165835
0.00153182
0.00159962
0.00150632
0.00163047
0.00173931
0.00287669
0.00138883
0.0026408
0.00410178
0.00555613
0.00617611
0.00716721
0.00741966
0.00812565
0.00823676
0.00882867
0.00899217
0.00961857
0.00993793
0.0106208
0.0110281
0.0116431
0.0119884
0.0124337
0.0126621
0.0129489
0.0130909
0.0132751
0.0133718
0.0134921
0.0135561
0.0136087
0.0136075
0.013572
0.0134844
0.0133549
0.0131878
0.0129866
0.0127707
0.012534
0.012303
0.0120608
0.0118467
0.0116225
0.011447
0.0112532
0.011137
0.0109799
0.0109563
0.0108301
0.010989
0.0109238
0.0159582
0.0113022
0.0122754
0.0127554
0.0134308
0.0142469
0.0150396
0.0156296
0.0159316
0.0158785
0.0155249
0.0149272
0.014186
0.013354
0.0125034
0.0116549
0.0108609
0.0101093
0.00944333
0.00882883
0.00830341
0.00781372
0.00740468
0.00699807
0.00666115
0.006296
0.00599732
0.00564677
0.00537427
0.00502766
0.00478239
0.00444213
0.00423214
0.00390167
0.00372463
0.00341014
0.00327194
0.00297619
0.00287961
0.00260452
0.00254774
0.00229307
0.00227227
0.002037
0.00204934
0.00183132
0.00188291
0.00168911
0.00180579
0.0016563
0.00191897
0.00208267
0.00469998
0.00225097
0.00280561
0.00442682
0.00620956
0.00710403
0.00831982
0.00876437
0.00962949
0.00987909
0.0105992
0.0108883
0.0116495
0.0121084
0.0129393
0.0134869
0.0142337
0.0146892
0.0152274
0.0155279
0.0158726
0.0160588
0.0162782
0.016401
0.0165392
0.0166114
0.0166615
0.0166453
0.016583
0.0164572
0.0162801
0.0160586
0.0157981
0.015521
0.0152224
0.0149314
0.0146312
0.0143637
0.0140901
0.0138714
0.0136399
0.0134937
0.013315
0.0132795
0.013156
0.0133325
0.0133048
0.0292695
0.0214388
0.0209932
0.0202404
0.0201167
0.0203976
0.0208405
0.0212111
0.0213815
0.0212338
0.0207816
0.0200549
0.0191483
0.0181189
0.0170502
0.0159724
0.0149502
0.013975
0.0130988
0.0122845
0.0115761
0.0109106
0.0103411
0.00977273
0.00928723
0.00876474
0.00832329
0.00781592
0.00740711
0.00690433
0.0065323
0.0060384
0.00571623
0.00523655
0.00496527
0.00450556
0.00429094
0.00385428
0.00370214
0.00329127
0.00320146
0.00281743
0.00278736
0.00243059
0.00245949
0.00212664
0.00222576
0.00192089
0.00213841
0.00188913
0.00240581
0.00268873
0.00722495
0.00389796
0.00328033
0.00472163
0.00675915
0.00790586
0.00932256
0.00995251
0.0109656
0.0113565
0.0121993
0.0126182
0.0135088
0.0141082
0.015079
0.0157636
0.0166326
0.0171936
0.0178166
0.0181849
0.0185817
0.0188086
0.019058
0.019203
0.0193538
0.0194291
0.0194711
0.0194351
0.0193417
0.0191748
0.0189486
0.0186724
0.0183537
0.0180173
0.01766
0.0173121
0.0169584
0.0166411
0.0163227
0.016064
0.0157996
0.0156258
0.0154298
0.0153832
0.0152664
0.0154586
0.0154736
0.0431743
0.0328687
0.0307089
0.0285355
0.0274442
0.0270356
0.0270059
0.0270591
0.0270225
0.0267311
0.0261581
0.0253033
0.0242477
0.0230465
0.0217891
0.0205132
0.0192928
0.0181238
0.0170641
0.0160754
0.0152043
0.0143809
0.0136618
0.0129399
0.0123065
0.0116264
0.0110351
0.0103654
0.00980887
0.00914232
0.00863032
0.00797462
0.00752606
0.00688836
0.00650971
0.00589412
0.0055901
0.00499887
0.00478015
0.00421479
0.00408501
0.00354648
0.00350817
0.00299809
0.00305855
0.00257202
0.00275603
0.00229247
0.00268675
0.00229097
0.003219
0.00374046
0.0103477
0.0062701
0.00425968
0.00507781
0.00726185
0.00862178
0.0102142
0.0110153
0.0121631
0.0126913
0.0136503
0.0141985
0.0152131
0.0159509
0.0170539
0.0178704
0.0188528
0.0195133
0.0202137
0.0206451
0.0210882
0.0213519
0.0216268
0.0217898
0.0219482
0.0220219
0.0220508
0.021991
0.0218629
0.0216528
0.0213766
0.021046
0.0206707
0.0202773
0.0198644
0.0194629
0.0190596
0.018696
0.0183371
0.0180417
0.0177482
0.017549
0.017339
0.0172822
0.0171742
0.0173811
0.0174407
0.0565617
0.0445754
0.0407932
0.0372421
0.0351488
0.0339921
0.0334223
0.0330935
0.0327921
0.0323116
0.0315886
0.0305939
0.0293916
0.0280313
0.0266042
0.0251531
0.0237586
0.0224209
0.0212017
0.0200616
0.0190476
0.0180838
0.0172274
0.0163625
0.0155857
0.0147524
0.0140101
0.0131794
0.0124708
0.0116412
0.0109834
0.0101674
0.00958542
0.00879206
0.008299
0.00752989
0.00712841
0.00638458
0.0060911
0.00537055
0.00519423
0.00449573
0.0044485
0.00377325
0.00387897
0.00321832
0.00352789
0.00287334
0.00353348
0.00296634
0.0044681
0.0053659
0.0138791
0.00915966
0.00583301
0.00558363
0.0077719
0.0092871
0.0110273
0.0119805
0.0132485
0.013906
0.0149737
0.0156476
0.0167805
0.0176525
0.0188806
0.0198227
0.0209103
0.0216638
0.0224347
0.022924
0.023408
0.0237047
0.0240006
0.0241775
0.0243389
0.0244066
0.0244181
0.0243308
0.0241654
0.0239106
0.023584
0.0231996
0.0227695
0.0223214
0.021856
0.0214042
0.0209548
0.0205484
0.0201526
0.0198234
0.0195041
0.0192818
0.0190602
0.0189944
0.0188963
0.0191172
0.0192207
0.0690512
0.0560759
0.0509016
0.0461126
0.0430585
0.0411488
0.0400092
0.039259
0.038651
0.0379432
0.0370407
0.0358883
0.0345333
0.0330175
0.0314311
0.0298202
0.0282696
0.0267826
0.0254228
0.0241498
0.0230088
0.0219187
0.020935
0.0199357
0.0190201
0.0180386
0.0171464
0.0161583
0.015297
0.0143085
0.0135035
0.0125329
0.0118155
0.010874
0.0102626
0.00935011
0.00884747
0.00796194
0.00758877
0.00672463
0.00649671
0.00564948
0.00559191
0.0047614
0.00492351
0.00409558
0.00456777
0.0037224
0.00473135
0.00401265
0.00620185
0.00757568
0.0176287
0.0123712
0.0079501
0.00631691
0.00834526
0.00993466
0.0117894
0.0128722
0.0142447
0.0150207
0.0161889
0.016983
0.0182282
0.0192292
0.0205753
0.021636
0.022821
0.0236609
0.0244953
0.0250376
0.0255576
0.0258832
0.0261958
0.0263829
0.026543
0.0266007
0.0265908
0.026473
0.0262681
0.0259674
0.0255904
0.0251533
0.0246702
0.0241697
0.0236546
0.0231555
0.0226636
0.0222173
0.0217879
0.0214278
0.0210855
0.0208422
0.0206107
0.0205371
0.0204496
0.0206838
0.0208301
0.0806013
0.0671623
0.060848
0.054992
0.0510555
0.0484196
0.0467065
0.0455145
0.0445711
0.0436054
0.0424966
0.0411669
0.0396483
0.0379748
0.0362336
0.0344724
0.0327781
0.0311562
0.0296703
0.0282784
0.027022
0.0258156
0.0247117
0.0235842
0.0225329
0.0214073
0.0203668
0.0192253
0.0182126
0.0170705
0.0161194
0.0150012
0.0141491
0.0130684
0.0123381
0.0112941
0.0106897
0.00967658
0.00922169
0.008231
0.00794865
0.0069733
0.00690479
0.00594449
0.00617262
0.00520866
0.00587355
0.0048733
0.00629217
0.00548672
0.00839679
0.0102772
0.0214487
0.0157598
0.0104803
0.00733624
0.00903613
0.0105961
0.0125251
0.0137109
0.0151711
0.0160532
0.0173131
0.0182205
0.0195718
0.0206956
0.0221525
0.0233248
0.0245994
0.0255191
0.0264107
0.0270012
0.0275523
0.027903
0.0282283
0.0284216
0.0285766
0.0286205
0.0285859
0.0284349
0.0281887
0.0278414
0.0274142
0.0269254
0.0263911
0.0258405
0.0252786
0.024735
0.0242035
0.0237204
0.0232603
0.0228718
0.0225088
0.0222465
0.0220068
0.0219263
0.0218496
0.0220966
0.0222843
0.0912978
0.0777594
0.0705357
0.0637839
0.0590587
0.0557415
0.0534679
0.0518277
0.0505306
0.0492834
0.0479448
0.0464187
0.0447239
0.0428868
0.0409913
0.0390849
0.0372554
0.0355088
0.0339071
0.0324062
0.0310425
0.0297265
0.0285065
0.0272543
0.0260692
0.0248023
0.023615
0.0223238
0.0211617
0.0198713
0.0187768
0.017518
0.0165338
0.0153228
0.0144753
0.013311
0.0126061
0.0114796
0.0109432
0.00984399
0.00950672
0.00842696
0.00834895
0.00729183
0.00759593
0.00654221
0.00742333
0.00632949
0.00819285
0.00738946
0.0109793
0.0133294
0.0252386
0.0192242
0.0132844
0.00867189
0.00989126
0.0113018
0.0132571
0.0145149
0.0160447
0.0170191
0.0183613
0.0193743
0.0208251
0.0220649
0.0236257
0.0249019
0.0262587
0.0272517
0.0281945
0.0288281
0.029406
0.029778
0.0301121
0.0303082
0.0304543
0.030481
0.0304186
0.0302321
0.0299431
0.0295487
0.0290717
0.0285324
0.0279487
0.0273503
0.026744
0.0261588
0.0255904
0.0250732
0.024585
0.0241706
0.0237889
0.0235094
0.0232626
0.0231762
0.0231104
0.0233696
0.0235971
0.10126
0.0878562
0.0799187
0.0724292
0.067012
0.0630679
0.0602578
0.0581726
0.0565117
0.0549655
0.0533773
0.051637
0.0497528
0.0477445
0.0456925
0.0436431
0.0416835
0.0398191
0.038109
0.0365056
0.0350399
0.0336179
0.0322837
0.0309083
0.0295902
0.0281836
0.0268508
0.0254132
0.0241041
0.0226703
0.0214355
0.0200429
0.01893
0.0175969
0.0166351
0.0153607
0.0145581
0.0133311
0.0127151
0.0115241
0.0111335
0.00997265
0.00988896
0.00876977
0.00916125
0.00806976
0.00918578
0.00807037
0.0103894
0.00967646
0.013856
0.0166039
0.0289361
0.0226946
0.016248
0.0103217
0.0109446
0.0120798
0.0140063
0.0153003
0.0168803
0.017932
0.0193466
0.0204567
0.0220002
0.0233489
0.025006
0.026379
0.0278106
0.0288704
0.0298587
0.0305307
0.0311312
0.0315206
0.03186
0.0320553
0.0321892
0.0321956
0.0321026
0.0318786
0.0315457
0.0311039
0.0305777
0.0299891
0.0293577
0.0287137
0.0280654
0.027441
0.0268384
0.0262897
0.0257756
0.0253375
0.0249389
0.0246439
0.0243911
0.0242995
0.0242445
0.0245154
0.0247809
0.110605
0.0974722
0.088981
0.0808936
0.0748774
0.0703646
0.0670484
0.0645285
0.0624997
0.060642
0.0587879
0.0568174
0.0547308
0.052543
0.0503305
0.0481382
0.0460514
0.0440737
0.0422598
0.0405581
0.0389928
0.0374663
0.0360181
0.0345196
0.033068
0.0315226
0.0300454
0.0284642
0.0270107
0.0254383
0.0240668
0.0225464
0.0213088
0.0198611
0.0187886
0.0174132
0.0165163
0.0152
0.0145074
0.0132397
0.0127989
0.0115784
0.0114951
0.0103474
0.0108394
0.00976155
0.0111276
0.0100616
0.0128298
0.0122794
0.0169347
0.0199935
0.0325055
0.0261237
0.0192861
0.0122553
0.0122135
0.0129544
0.014791
0.0160817
0.017691
0.0188039
0.0202806
0.0214787
0.0231078
0.0245578
0.0263037
0.0277662
0.0292653
0.0303857
0.0314139
0.0321196
0.0327387
0.0331419
0.0334833
0.0336745
0.0337929
0.033776
0.0336502
0.033387
0.0330092
0.0325198
0.031945
0.0313084
0.0306311
0.0299435
0.0292555
0.0285944
0.0279598
0.0273819
0.0268441
0.0263843
0.0259706
0.0256615
0.0254035
0.0253075
0.0252629
0.025545
0.0258469
0.119439
0.106641
0.0977238
0.0891589
0.0826298
0.0776066
0.0738182
0.0708783
0.0684823
0.0663044
0.0641711
0.0619564
0.0596554
0.0572795
0.0549018
0.0525653
0.0503523
0.0482638
0.0463487
0.0445507
0.0428866
0.0412553
0.0396918
0.0380691
0.0364833
0.0347995
0.0331787
0.0314564
0.0298611
0.0281544
0.0266501
0.0250075
0.0236494
0.0220937
0.0209146
0.019446
0.0184586
0.017063
0.0162975
0.0149661
0.0144797
0.0132188
0.013144
0.0119987
0.0126059
0.0115892
0.0132173
0.012264
0.0154616
0.0151236
0.0201345
0.0234163
0.0359286
0.0294797
0.0223389
0.0144244
0.0136973
0.0139446
0.0156277
0.0168725
0.0184886
0.0196453
0.0211733
0.02245
0.024157
0.0257006
0.0275279
0.0290722
0.030632
0.0318066
0.0328695
0.0336043
0.0342382
0.0346516
0.0349917
0.0351756
0.0352758
0.0352329
0.035072
0.0347681
0.0343448
0.033808
0.0331852
0.0325018
0.0317803
0.0310511
0.0303255
0.0296299
0.0289656
0.0283607
0.0278011
0.0273215
0.0268941
0.0265723
0.0263098
0.0262101
0.0261757
0.0264683
0.0268047
0.127851
0.115402
0.106158
0.0972179
0.0902535
0.0847761
0.0805505
0.0772084
0.074449
0.0719455
0.0695224
0.0670511
0.0645247
0.0619523
0.0594043
0.0569214
0.0545822
0.0523837
0.0503685
0.0484745
0.0467109
0.0449731
0.0432923
0.0415436
0.0398223
0.038
0.0362365
0.0343753
0.0326409
0.0308041
0.0291706
0.0274111
0.0259369
0.0242793
0.0229978
0.0214429
0.0203693
0.0189029
0.0180687
0.0166852
0.0161585
0.0148745
0.0148178
0.0137032
0.0144414
0.013528
0.0154272
0.0146386
0.0182367
0.0181384
0.0233894
0.0268124
0.0391981
0.0327422
0.0253648
0.0167734
0.0153804
0.0150624
0.0165307
0.0176847
0.0192838
0.0204659
0.022034
0.023379
0.0251561
0.0267854
0.0286864
0.030305
0.0319185
0.033141
0.0342335
0.034993
0.035638
0.0360582
0.0363941
0.0365677
0.0366468
0.0365755
0.0363778
0.0360319
0.0355625
0.0349783
0.0343085
0.0335795
0.0328154
0.0320465
0.0312854
0.0305575
0.0298656
0.0292356
0.0286561
0.0281584
0.0277186
0.0273854
0.0271191
0.0270161
0.0269915
0.0272941
0.0276634
0.135916
0.123795
0.114301
0.10507
0.0977394
0.0918608
0.0872326
0.0835075
0.080391
0.0775588
0.0748373
0.0720991
0.0693373
0.0665606
0.063837
0.0612049
0.0587385
0.05643
0.0543144
0.0523235
0.0504584
0.0486117
0.0468107
0.0449338
0.0430754
0.0411145
0.039209
0.0372112
0.0353405
0.0333773
0.0316186
0.0297471
0.0281609
0.026407
0.0250275
0.0233925
0.0222368
0.0207071
0.019809
0.0183833
0.0178227
0.0165312
0.0165035
0.0154453
0.0163307
0.015557
0.0177335
0.0171497
0.0211122
0.021262
0.0266474
0.0301401
0.0423137
0.0358986
0.028336
0.019248
0.0172358
0.0163126
0.0175109
0.0185289
0.020086
0.0212742
0.0228707
0.0242735
0.0261123
0.0278192
0.0297862
0.0314713
0.0331318
0.0343962
0.0355132
0.036293
0.0369456
0.0373694
0.037698
0.0378586
0.0379141
0.0378122
0.0375759
0.037187
0.0366712
0.0360399
0.0353238
0.0345506
0.0337456
0.0329389
0.0321442
0.0313859
0.0306683
0.0300152
0.0294174
0.0289033
0.0284523
0.0281089
0.0278393
0.0277335
0.0277182
0.0280304
0.0284308
0.143696
0.13186
0.122172
0.112721
0.105083
0.0988519
0.0938549
0.0897668
0.0863007
0.0831385
0.0801119
0.0770978
0.0740919
0.0711035
0.0681994
0.0654151
0.0628198
0.0604003
0.0581831
0.0560933
0.0541241
0.0521653
0.0502409
0.0482333
0.0462362
0.0441365
0.04209
0.0399575
0.0379533
0.0358674
0.0339873
0.0320083
0.0303146
0.0284693
0.0269962
0.0252866
0.0240533
0.022467
0.0215097
0.020051
0.0194633
0.0181784
0.0181918
0.0172137
0.0182624
0.0176593
0.0201159
0.0197656
0.0240517
0.0244421
0.0298692
0.0333713
0.0452793
0.038942
0.0312339
0.0217994
0.0192304
0.0176929
0.0185756
0.0194139
0.020903
0.0220778
0.0236901
0.0251402
0.0270324
0.0288083
0.0308335
0.0325773
0.034278
0.0355781
0.0367149
0.0375107
0.0381676
0.0385918
0.0389104
0.0390552
0.0390849
0.0389503
0.038674
0.0382413
0.0376788
0.0370009
0.0362394
0.0354233
0.0345789
0.0337362
0.0329097
0.032123
0.0313815
0.0307072
0.0300928
0.0295637
0.0291027
0.02875
0.0284777
0.0283696
0.0283632
0.0286843
0.0291142
0.151241
0.139633
0.129792
0.120177
0.112284
0.105743
0.10041
0.0959788
0.0921718
0.0886797
0.0853427
0.0820451
0.0787872
0.0755807
0.0724913
0.0695516
0.0668254
0.0642931
0.0619724
0.0597811
0.0577043
0.0556297
0.0535786
0.0514377
0.0493006
0.0470619
0.0448753
0.0426104
0.0404754
0.0382703
0.0362727
0.0341904
0.0323933
0.0304615
0.0288989
0.02712
0.0258134
0.0241765
0.0231651
0.0216816
0.0210743
0.0198094
0.0198766
0.0190004
0.0202283
0.0198213
0.0225574
0.0224586
0.0270242
0.0276364
0.0330256
0.0364881
0.0481009
0.0418694
0.0340469
0.0243869
0.0213295
0.0191944
0.0197275
0.0203467
0.0217418
0.0228835
0.0244988
0.0259852
0.0279221
0.0297582
0.0318337
0.0336284
0.0353625
0.0366924
0.0378441
0.038652
0.0393097
0.0397314
0.0400374
0.0401639
0.0401655
0.0399965
0.0396789
0.0392016
0.0385925
0.0378684
0.0370625
0.0362049
0.0353227
0.0344457
0.0335893
0.0327761
0.0320124
0.0313185
0.0306889
0.0301463
0.0296763
0.0293154
0.0290408
0.0289307
0.0289327
0.0292623
0.0297203
0.158592
0.147148
0.137182
0.127448
0.119344
0.112532
0.106894
0.102138
0.0979988
0.0941776
0.0905262
0.0869386
0.083422
0.0799916
0.0767124
0.0736142
0.0707548
0.0681077
0.0656808
0.0633847
0.0611966
0.0590024
0.056821
0.0545444
0.0522659
0.0498882
0.0475627
0.0451674
0.0429044
0.0405836
0.0384723
0.0362909
0.0343946
0.0323806
0.0307328
0.0288892
0.0275138
0.0258318
0.0247715
0.023271
0.0226519
0.0214196
0.0215543
0.0208
0.0222223
0.0220319
0.0250439
0.0252053
0.0300039
0.0308112
0.0360959
0.0394803
0.0507859
0.0446805
0.0367681
0.0269776
0.0234997
0.0208033
0.0209657
0.0213322
0.0226085
0.0236973
0.0253025
0.026814
0.0287865
0.0306739
0.0327915
0.0346292
0.0363901
0.0377438
0.0389059
0.0397218
0.0403772
0.0407933
0.0410842
0.0411901
0.0411616
0.0409566
0.0405967
0.0400744
0.0394187
0.0386491
0.0377999
0.0369021
0.0359836
0.0350741
0.0341894
0.0333514
0.0325673
0.0318555
0.031212
0.0306572
0.0301793
0.0298111
0.0295346
0.0294228
0.029433
0.0297705
0.0302552
0.165781
0.154435
0.144362
0.134544
0.126266
0.119217
0.113302
0.10824
0.103777
0.0996284
0.0956594
0.0917763
0.0879951
0.0843357
0.0808626
0.077603
0.0746079
0.0718434
0.0693074
0.066903
0.0645995
0.0622816
0.0599666
0.0575519
0.0551309
0.0526144
0.0501512
0.0476277
0.0452397
0.0428066
0.0405851
0.0383087
0.0363171
0.034225
0.0324963
0.0305923
0.0291525
0.0274306
0.0263268
0.0248166
0.0241943
0.0230068
0.023223
0.0226094
0.0242403
0.0242825
0.0275635
0.0279855
0.0329697
0.0339404
0.0390661
0.0423425
0.053342
0.0473772
0.0393941
0.0295457
0.025711
0.0225024
0.0222854
0.0223729
0.0235076
0.0245242
0.0261062
0.0276313
0.0296303
0.0315597
0.0337112
0.0355839
0.037365
0.0387368
0.0399046
0.0407246
0.0413747
0.0417825
0.0420559
0.0421389
0.0420785
0.041836
0.0414329
0.0408653
0.0401633
0.0393489
0.0384574
0.0375208
0.0365676
0.0356272
0.0347161
0.033855
0.0330519
0.0323237
0.0316678
0.0311021
0.0306172
0.0302426
0.0299646
0.0298515
0.0298693
0.0302143
0.0307245
0.172834
0.161522
0.151351
0.141477
0.133056
0.1258
0.119633
0.114281
0.109503
0.105028
0.100739
0.0965561
0.0925054
0.0886123
0.0849418
0.0815179
0.0783846
0.0755
0.0728516
0.070335
0.0679119
0.0654663
0.0630144
0.0604595
0.0578952
0.0552402
0.0526408
0.0499914
0.0474812
0.0449392
0.0426113
0.0402435
0.0381606
0.0359946
0.0341889
0.0322288
0.0307288
0.028972
0.0278303
0.0263176
0.0257008
0.0245699
0.0248824
0.0244272
0.0262796
0.0265661
0.030106
0.030782
0.0359047
0.0370041
0.0419271
0.0450736
0.0557773
0.0499625
0.0419238
0.0320719
0.0279375
0.0242731
0.0236787
0.0234693
0.0244422
0.0253683
0.0269142
0.0284414
0.0304574
0.0324195
0.0345965
0.0364964
0.0382909
0.039675
0.0408442
0.0416645
0.0423063
0.0427031
0.0429567
0.0430148
0.0429209
0.0426396
0.0421927
0.0415796
0.0408316
0.0399732
0.0390406
0.0380666
0.0370804
0.0361107
0.0351748
0.0342923
0.0334718
0.0327287
0.0320615
0.0314861
0.0309952
0.030615
0.0303358
0.0302218
0.0302468
0.030599
0.0311334
0.179769
0.168432
0.158168
0.148257
0.139717
0.132281
0.125884
0.120258
0.115173
0.110375
0.105763
0.101276
0.0969514
0.0928209
0.0889499
0.0853589
0.0820848
0.0790773
0.076313
0.0736801
0.0711331
0.0685561
0.0659643
0.0632672
0.060559
0.0577661
0.0550321
0.0522591
0.0496299
0.0469822
0.0445516
0.0420961
0.0399258
0.0376895
0.035811
0.0337988
0.0322427
0.030456
0.0292821
0.0277738
0.0271719
0.0261097
0.0265335
0.0262531
0.0283386
0.0288771
0.0326629
0.0335806
0.0387949
0.0399876
0.0446738
0.0476745
0.0580994
0.0524403
0.0443578
0.0345421
0.0301577
0.0260959
0.0251356
0.0246196
0.0254139
0.0262328
0.0277301
0.0292478
0.0312714
0.0332566
0.0354508
0.0373698
0.0391712
0.040562
0.0417282
0.0425452
0.0431758
0.0435589
0.0437906
0.0438219
0.0436929
0.0433719
0.0428806
0.0422219
0.0414285
0.040527
0.0395545
0.0385446
0.0375268
0.0365297
0.0355704
0.0346681
0.0338317
0.0330751
0.032398
0.031814
0.0313179
0.030933
0.0306531
0.0305384
0.0305703
0.0309293
0.0314868
0.186602
0.175187
0.164829
0.154894
0.146257
0.138664
0.132057
0.126171
0.120785
0.115664
0.110729
0.105934
0.101332
0.0969609
0.0928865
0.0891261
0.0857087
0.0825752
0.0796914
0.076938
0.0742631
0.0715508
0.0688163
0.0659756
0.0631231
0.0601932
0.0573263
0.0544323
0.051687
0.0489369
0.0464072
0.0438676
0.0416137
0.0393109
0.0373634
0.0353029
0.0336951
0.0318832
0.0306831
0.0291863
0.0286091
0.0276274
0.028178
0.0280879
0.0304163
0.031211
0.035227
0.036369
0.0416297
0.0428805
0.0473039
0.0501484
0.060316
0.0548151
0.046698
0.0369464
0.0323544
0.0279525
0.0266444
0.0258202
0.0264228
0.02712
0.0285565
0.0300536
0.0320751
0.034074
0.0362768
0.038207
0.040009
0.0414009
0.0425598
0.0433699
0.0439864
0.0443535
0.0445612
0.0445639
0.0443986
0.0440369
0.0435009
0.0427969
0.0419587
0.041015
0.0400039
0.0389595
0.0379118
0.0368887
0.0359078
0.0349872
0.0341364
0.0333677
0.0326818
0.0320904
0.0315899
0.031201
0.0309208
0.0308057
0.0308442
0.0312096
0.0317894
0.193343
0.181805
0.17135
0.1614
0.152681
0.14495
0.138151
0.132016
0.126336
0.120894
0.115633
0.110529
0.105646
0.101032
0.0967515
0.0928193
0.0892561
0.0859936
0.0829866
0.0801088
0.0773017
0.0744507
0.071571
0.0685854
0.0655888
0.0625228
0.0595251
0.0565126
0.0536543
0.0508051
0.0481798
0.0455597
0.0432259
0.04086
0.0388475
0.0367426
0.0350874
0.033255
0.0320349
0.0305567
0.0300145
0.0291254
0.0298183
0.0299329
0.0325123
0.0335638
0.0377919
0.0391371
0.0444008
0.0456758
0.0498174
0.0524991
0.0624341
0.0570917
0.048947
0.039278
0.0345139
0.0298256
0.0281929
0.0270656
0.0274677
0.0280308
0.0293957
0.0308611
0.0328712
0.0348741
0.0370772
0.0390107
0.0408067
0.0421944
0.0433419
0.0441416
0.0447414
0.04509
0.0452718
0.0452443
0.0450415
0.0446383
0.0440575
0.0433084
0.0424261
0.0414414
0.0403931
0.0393157
0.0382396
0.0371921
0.0361912
0.0352539
0.03439
0.0336105
0.032917
0.0323192
0.0318151
0.0314231
0.0311429
0.0310277
0.0310725
0.0314441
0.0320454
0.199998
0.188303
0.177744
0.167783
0.158996
0.151143
0.144167
0.137793
0.131824
0.126063
0.120475
0.115059
0.109893
0.105033
0.100544
0.0964385
0.0927271
0.0893326
0.0861987
0.0831923
0.0802493
0.0772563
0.0742293
0.0710978
0.0679573
0.0647566
0.0616303
0.0585018
0.0555337
0.0525887
0.0498714
0.0471741
0.0447641
0.0423388
0.0402651
0.0381194
0.0364212
0.0345731
0.0333393
0.0318871
0.0313908
0.0306066
0.0314576
0.0317903
0.0346269
0.0359325
0.0403524
0.0418764
0.0471018
0.0483692
0.0522156
0.0547316
0.0644607
0.0592752
0.0511081
0.041533
0.036626
0.0317002
0.0297685
0.0283494
0.0285462
0.0289657
0.0302488
0.0316724
0.0336615
0.0356591
0.037854
0.0397831
0.0415669
0.042945
0.044077
0.044863
0.0454434
0.0457713
0.0459255
0.0458662
0.045625
0.0451798
0.044554
0.0437603
0.0428348
0.0418102
0.040726
0.0396172
0.0385143
0.0374441
0.0364246
0.0354721
0.0345965
0.0338075
0.0331075
0.0325044
0.0319976
0.031603
0.0313233
0.0312083
0.0312593
0.0316368
0.0322587
0.20657
0.194692
0.184024
0.174054
0.165207
0.157247
0.150106
0.143502
0.137248
0.131168
0.125253
0.119522
0.114071
0.108963
0.104265
0.0999836
0.0961216
0.092592
0.0893278
0.0861889
0.0831062
0.0799683
0.0767922
0.0735143
0.0702305
0.0668965
0.0636438
0.0604023
0.0573274
0.0542899
0.051484
0.048713
0.0462305
0.043749
0.0416181
0.0394353
0.0376986
0.0358395
0.0345987
0.0331801
0.0327411
0.0320743
0.0330994
0.0336622
0.0367602
0.0383144
0.0429037
0.04458
0.0497283
0.0509584
0.0545013
0.0568508
0.0664021
0.0613705
0.0531848
0.0437094
0.0386832
0.033563
0.0313593
0.0296643
0.0296545
0.0299238
0.0311164
0.0324886
0.0344476
0.0364307
0.038609
0.0405262
0.0422915
0.0436548
0.0447675
0.0455364
0.046095
0.0464
0.046525
0.0464326
0.046152
0.0456645
0.0449939
0.0441561
0.0431884
0.0421252
0.0410066
0.0398679
0.0387397
0.0376484
0.0366119
0.0356456
0.0347596
0.0339625
0.033257
0.0326496
0.0321408
0.0317446
0.0314656
0.0313512
0.031408
0.0317914
0.0324332
0.213061
0.200985
0.190201
0.180221
0.17132
0.163263
0.15597
0.149142
0.142606
0.136209
0.129964
0.123917
0.118179
0.112822
0.107913
0.103454
0.0994397
0.0957721
0.0923738
0.0890986
0.0858728
0.0825875
0.0792608
0.0758362
0.07241
0.0689445
0.0655679
0.062216
0.0590377
0.055911
0.05302
0.0501786
0.0476271
0.0450929
0.0429085
0.0406923
0.0389218
0.0370565
0.0358159
0.0344388
0.0340689
0.0335324
0.0347472
0.0355513
0.0389126
0.040707
0.0454418
0.047242
0.0522772
0.0534429
0.0566779
0.0588622
0.0682644
0.0633828
0.0551808
0.0458065
0.0406802
0.035403
0.0329543
0.0310022
0.0307884
0.0309035
0.0319983
0.0333104
0.0352307
0.0371901
0.0393437
0.0412415
0.0429824
0.044326
0.0454154
0.0461643
0.0466986
0.0469787
0.0470728
0.0469462
0.0466256
0.0460954
0.0453804
0.0444992
0.0434903
0.0423898
0.0412382
0.0400712
0.0389195
0.0378086
0.0367566
0.0357779
0.0348829
0.0340788
0.0333689
0.0327582
0.0322483
0.031851
0.0315732
0.0314597
0.0315223
0.0319112
0.0325724
0.219469
0.207189
0.196284
0.18629
0.177341
0.169197
0.161758
0.154712
0.147898
0.141182
0.134608
0.128243
0.122217
0.116609
0.111489
0.106851
0.102681
0.0988727
0.095337
0.091922
0.08855
0.0851149
0.0816365
0.0780652
0.0744977
0.0709027
0.0674048
0.0639455
0.060667
0.0574542
0.0544817
0.0515732
0.0489563
0.0463727
0.0441386
0.0418928
0.0400932
0.0382268
0.0369936
0.0356663
0.0353781
0.0349851
0.0364051
0.0374602
0.0410846
0.0431082
0.0479632
0.0498578
0.0547466
0.0558235
0.0587491
0.0607712
0.0700536
0.0653169
0.0571001
0.0478251
0.0426135
0.0372112
0.0345433
0.0323552
0.0319427
0.0319025
0.0328938
0.0341381
0.0360113
0.0379385
0.0400595
0.0419306
0.0436413
0.0449603
0.0460228
0.0467485
0.0472563
0.0475096
0.0475714
0.0474095
0.0470483
0.0464754
0.0457163
0.0447925
0.0437436
0.0426072
0.0414243
0.0402306
0.0390568
0.037928
0.036862
0.0358724
0.0349696
0.0341597
0.0334465
0.0328335
0.0323231
0.0319255
0.0316494
0.0315371
0.0316052
0.0319996
0.0326794
0.225791
0.213312
0.202283
0.192271
0.183275
0.175051
0.167474
0.160214
0.153123
0.146088
0.139182
0.132499
0.126183
0.120325
0.114991