/*--------------------------------*- C++ -*----------------------------------*\
| =========                 |                                                 |
| \\      /  F ield         | OpenFOAM: The Open Source CFD Toolbox           |
|  \\    /   O peration     | Version:  2412                                  |
|   \\  /    A nd           | Website:  www.openfoam.com                      |
|    \\/     M anipulation  |                                                 |
\*---------------------------------------------------------------------------*/
FoamFile
{
    version     2.0;
    format      ascii;
    arch        "LSB;label=32;scalar=64";
    class       volScalarField;
    location    "0.9";
    object      p;
}
// * * * * * * * * * * * * * * * * * * * * * * * * * * * * * * * * * * * * * //

dimensions      [0 2 -2 0 0 0 0];

internalField   nonuniform List<scalar> 
78408
(
117831
109788
108805
108126
107315
106724
106242
105777
105360
104950
104569
104191
103842
103498
103184
102868
102581
102268
101984
101650
101341
100952
100599
100115
99710.8
99112.8
98649.8
97904
97387.5
96433.5
95881
94637.1
94067.7
92398.8
91869.9
89569.7
89189.6
85910.4
85901.5
81076.7
81817.7
74508.7
76701.3
65308.9
70231.9
52044.1
62206.4
32617.5
52572.3
2784.46
40129.7
-51115.9
10140.2
-269040
-39814.3
-68083.8
1774.3
-31211
15705.7
-4629.15
24884.1
13307.7
32095.9
26286.9
38536.2
36206.9
44422.3
44036.8
49723
50339.1
54385.5
55466.4
58406.9
59639.3
61831.2
63056
64740
65892.3
67224.8
68279.6
69370.4
70320.2
71226.4
72079.5
72839.8
73608.9
74250.5
74948.4
75485.2
76138.3
76570.2
77196.8
77518.8
78148.6
78336.9
79017.2
79018.8
79828.2
79565
115878
109217
108679
108098
107302
106712
106233
105768
105351
104942
104561
104184
103836
103492
103178
102863
102575
102263
101979
101645
101336
100946
100593
100109
99704.3
99105.9
98642.6
97896.2
97379.4
96424.7
95871.8
94627
94057.2
92387.3
91857.8
89556.3
89175.5
85894.8
85884.8
81058.3
81797.6
74486.8
76676.4
65282.3
70200.5
52012.1
62166.4
32579.5
52520.2
2738.07
40052.1
-51196.7
10077.6
-267957
-39687.2
-68210.8
1739.84
-31225.2
15685.5
-4640.76
24869.6
13298.4
32084.7
26278.6
38526.9
36199.3
44414.3
44029.9
49715.9
50332.8
54379.3
55460.8
58401.5
59634.3
61826.4
63051.5
64735.7
65888.1
67220.8
68275.7
69366.7
70316.6
71222.9
72076.1
72836.5
73605.7
74247.3
74945.5
75482.3
76135.5
76567.5
77194.3
77516.2
78146.3
78334.3
79015.2
79016.3
79826.4
79562.6
115526
109351
108723
108098
107292
106703
106225
105761
105345
104936
104556
104179
103831
103487
103173
102858
102571
102259
101975
101640
101332
100941
100588
100104
99698.6
99099.5
98636.1
97888.9
97372.1
96416.3
95863.5
94617.4
94047.7
92376
91846.9
89543.1
89162.6
85879.1
85869.3
81039.5
81778.6
74464
76652.5
65254.1
70169.9
51977.7
62126.6
32538.5
52466.7
2687.37
39968.6
-51289.1
10049.6
-266660
-39578.4
-68366.4
1703.12
-31245.9
15658.2
-4656.26
24849.9
13285.9
32069.5
26267.5
38514.4
36189.2
44403.5
44020.6
49706.4
50324.4
54370.9
55453.3
58394.2
59627.6
61820
63045.5
64729.9
65882.7
67215.6
68270.7
69361.7
70311.9
71218.2
72071.7
72832.2
73601.6
74243.3
74941.9
75478.6
76132.3
76564.1
77191.4
77513
78143.9
78331.2
79013.3
79013.1
79825
79559.5
115466
109441
108719
108078
107279
106694
106218
105754
105339
104930
104550
104173
103826
103482
103169
102854
102567
102255
101971
101636
101328
100936
100583
100099
99693.4
99093.6
98630.3
97882.1
97365.6
96408.6
95856.1
94608.4
94039.3
92365.6
91837.3
89530.8
89151.5
85864.6
85856.1
81022.1
81762.6
74442.9
76632.6
65228.2
70144.4
51946.4
62093.5
32501.3
52422
2641.98
39897.7
-51371.4
10053.4
-265408
-39451.6
-68510.7
1675.71
-31264.9
15635.4
-4670.09
24833.3
13274.8
32056.5
26257.6
38503.7
36180.2
44394.2
44012.4
49698.2
50317.1
54363.7
55446.7
58387.9
59621.7
61814.4
63040.3
64724.9
65877.9
67210.9
68266.1
69357.3
70307.6
71214
72067.6
72828.2
73597.9
74239.7
74938.6
75475.2
76129.3
76560.9
77188.9
77510
78141.8
78328.2
79011.7
79009.9
79824.2
79556.1
115136
109408
108697
108059
107268
106685
106210
105747
105333
104924
104544
104167
103820
103477
103164
102849
102562
102250
101967
101632
101323
100932
100579
100093
99688.1
99087.5
98624.4
97875.1
97359
96400.7
95848.8
94599.2
94031.1
92355
91828
89518.3
89140.9
85849.9
85843.6
81004.4
81747.8
74421.4
76614.3
65201.7
70121.3
51914.2
62063.5
32463
52381.6
2595.49
39833
-51453.2
10055.2
-264137
-39280.1
-68657.3
1653.3
-31282.7
15616.4
-4682.95
24819.4
13264.4
32045.5
26248.5
38494.6
36172.1
44386.4
44005.1
49691.3
50310.5
54357.5
55440.8
58382.4
59616.5
61809.5
63035.6
64720.5
65873.5
67206.8
68262.1
69353.3
70303.7
71210.2
72064
72824.6
73594.5
74236.3
74935.5
75472.1
76126.6
76558
77186.5
77507.2
78139.8
78325.3
79010.4
79006.8
79823.6
79552.7
114820
109382
108692
108038
107255
106675
106201
105739
105325
104917
104538
104161
103814
103471
103159
102844
102558
102246
101962
101627
101319
100927
100574
100088
99682.5
99081.1
98618.3
97867.8
97352.2
96392.4
95841.3
94589.7
94022.7
92343.9
91818.7
89505.2
89130.3
85834.5
85831.4
80985.9
81733.4
74398.8
76596.8
65173.9
70099.2
51880.1
62035.1
32422.3
52343.4
2546.12
39771.1
-51538.2
10041.4
-262834
-39077.5
-68812.1
1632.6
-31300.8
15598.9
-4696.01
24806.3
13253.9
32035.1
26239.4
38486
36164
44378.9
43997.9
49684.6
50304.1
54351.6
55435.1
58377.1
59611.4
61804.8
63031
64716.1
65869.3
67202.7
68258.1
69349.3
70299.9
71206.4
72060.4
72821
73591.2
74232.9
74932.5
75468.9
76123.9
76555.1
77184.2
77504.3
78138
78322.4
79009.1
79003.7
79823.2
79549.2
114555
109354
108688
108014
107242
106664
106192
105731
105318
104910
104531
104155
103808
103466
103154
102839
102553
102241
101958
101622
101314
100921
100568
100082
99676.8
99074.4
98612
97860.2
97345.3
96383.9
95833.6
94579.8
94014.2
92332.4
91809.2
89491.8
89119.7
85818.5
85819.2
80966.7
81719.2
74375.4
76579.8
65144.9
70078.1
51844.6
62008
32379.7
52306.9
2494.5
39710.8
-51626.4
10012.6
-261520
-38858
-68971.6
1613.11
-31319.7
15582
-4709.45
24793.6
13243.1
32024.9
26230
38477.4
36155.7
44371.5
43990.5
49678
50297.6
54345.6
55429.3
58371.8
59606.3
61800
63026.4
64711.8
65865
67198.6
68254
69345.4
70296
71202.6
72056.7
72817.4
73587.8
74229.5
74929.5
75465.8
76121.3
76552.1
77181.9
77501.5
78136.1
78319.5
79007.9
79000.6
79823
79545.5
114301
109318
108682
107989
107228
106653
106183
105723
105311
104903
104524
104149
103802
103460
103148
102834
102548
102236
101953
101618
101309
100916
100563
100076
99671
99067.7
98605.6
97852.5
97338.2
96375.1
95825.7
94569.6
94005.5
92320.6
91799.6
89477.8
89108.9
85802.1
85807
80946.9
81705.1
74351.3
76563
65115
70057.4
51807.9
61981.7
32335.6
52271.4
2440.95
39651
-51718.6
9973.65
-260210
-38628.7
-69131.4
1594.73
-31339.2
15566
-4723.2
24781.3
13232.1
32015
26220.4
38469
36147.4
44364.2
43983.1
49671.4
50291.1
54339.7
55423.5
58366.5
59601.1
61795.3
63021.8
64707.4
65860.7
67194.5
68249.9
69341.4
70292.1
71198.8
72053.1
72813.8
73584.5
74226.1
74926.5
75462.6
76118.6
76549.1
77179.6
77498.6
78134.3
78316.6
79006.7
78997.4
79822.9
79541.7
114053
109280
108674
107964
107215
106643
106174
105714
105303
104896
104518
104142
103796
103454
103143
102829
102543
102232
101949
101613
101305
100911
100558
100070
99665.2
99060.8
98599.2
97844.6
97331
96366.2
95817.7
94559.2
93996.6
92308.6
91789.8
89463.6
89098
85785.2
85794.6
80926.5
81690.9
74326.4
76546.2
65084.1
70036.8
51770
61955.6
32289.9
52236.2
2385.35
39590.2
-51815.9
9929.48
-258906
-38393.3
-69289
1577.3
-31359.5
15550.8
-4737.26
24769.4
13220.9
32005.2
26210.7
38460.7
36138.9
44356.9
43975.6
49664.9
50284.5
54333.8
55417.6
58361.2
59595.9
61790.5
63017.1
64703
65856.4
67190.4
68245.8
69337.4
70288.2
71194.9
72049.4
72810.2
73581.1
74222.7
74923.5
75459.5
76115.9
76546.2
77177.3
77495.8
78132.4
78313.7
79005.6
78994.1
79822.9
79537.8
113815
109243
108665
107939
107201
106632
106165
105706
105296
104889
104511
104136
103790
103449
103138
102824
102539
102227
101944
101608
101300
100906
100553
100064
99659.3
99054
98592.7
97836.7
97323.8
96357.1
95809.7
94548.7
93987.7
92296.4
91780
89449.1
89087
85767.9
85782.1
80905.6
81676.7
74300.9
76529.4
65052.4
70016.3
51730.8
61929.5
32242.7
52200.5
2327.51
39527.6
-51918.1
9883.75
-257609
-38154.1
-69443
1560.83
-31380.6
15536.2
-4751.64
24757.9
13209.4
31995.6
26200.8
38452.5
36130.3
44349.7
43968.1
49658.3
50277.8
54327.9
55411.7
58355.9
59590.7
61785.8
63012.4
64698.6
65852
67186.2
68241.7
69333.3
70284.3
71191.1
72045.7
72806.5
73577.7
74219.3
74920.5
75456.3
76113.2
76543.2
77175.1
77492.9
78130.6
78310.7
79004.5
78990.9
79823
79533.7
113589
109206
108654
107913
107187
106621
106155
105697
105288
104881
104504
104129
103784
103443
103132
102818
102534
102222
101940
101603
101295
100900
100548
100058
99653.5
99047.1
98586.2
97828.8
97316.6
96348.1
95801.7
94538.2
93978.9
92284
91770.1
89434.5
89076.1
85750.5
85769.7
80884.4
81662.4
74274.8
76512.5
65019.9
69995.6
51690.6
61903.1
32193.9
52164.1
2267.32
39463.2
-52024
9838.63
-256320
-37912
-69593.3
1545.45
-31402.3
15522.4
-4766.33
24746.7
13197.7
31986.2
26190.7
38444.4
36121.5
44342.6
43960.4
49651.8
50271.1
54322
55405.7
58350.6
59585.4
61781
63007.6
64694.2
65847.6
67182
68237.5
69329.3
70280.3
71187.2
72042
72802.9
73574.3
74215.9
74917.5
75453.1
76110.6
76540.2
77172.8
77490
78128.9
78307.8
79003.4
78987.6
79823.2
79529.5
113372
109169
108642
107888
107174
106609
106146
105688
105280
104874
104497
104122
103778
103437
103127
102813
102529
102217
101935
101599
101291
100895
100542
100052
99647.7
99040.2
98579.8
97820.9
97309.4
96339
95793.8
94527.6
93970
92271.7
91760.3
89419.8
89065.1
85732.8
85757.2
80863
81648.1
74248.4
76495.7
64986.7
69974.9
51649.4
61876.4
32143.7
52127
2204.91
39397.6
-52131.9
9795.33
-255040
-37667.8
-69739.7
1531.3
-31424.6
15509.2
-4781.34
24735.9
13185.8
31977
26180.4
38436.4
36112.7
44335.5
43952.7
49645.3
50264.3
54316
55399.7
58345.3
59580
61776.1
63002.8
64689.7
65843.1
67177.8
68233.3
69325.2
70276.3
71183.3
72038.3
72799.2
73570.9
74212.4
74914.5
75449.9
76107.9
76537.2
77170.5
77487.1
78127.1
78304.8
79002.4
78984.3
79823.6
79525.2
113164
109133
108629
107862
107160
106598
106136
105680
105273
104866
104490
104116
103772
103431
103122
102808
102524
102213
101931
101594
101286
100890
100537
100046
99642
99033.4
98573.4
97813
97302.3
96330
95785.9
94517
93961.2
92259.3
91750.5
89405
89054.2
85715.1
85744.9
80841.3
81634
74221.6
76478.9
64953.1
69954.1
51607.4
61849.6
32092.3
52089.5
2140.61
39331.3
-52240.3
9754.49
-253768
-37422.3
-69882.6
1518.4
-31447.4
15496.5
-4796.66
24725.5
13173.7
31967.9
26170
38428.5
36103.7
44328.4
43944.9
49638.8
50257.4
54310.1
55393.6
58339.9
59574.7
61771.3
62998
64685.2
65838.6
67173.5
68229.1
69321.1
70272.3
71179.4
72034.6
72795.5
73567.5
74209
74911.4
75446.7
76105.2
76534.1
77168.3
77484.1
78125.3
78301.8
79001.4
78980.9
79824
79520.8
112964
109097
108614
107837
107146
106587
106126
105671
105265
104859
104483
104109
103766
103425
103116
102803
102519
102208
101926
101589
101282
100885
100532
100040
99636.3
99026.6
98567
97805.2
97295.3
96321
95778
94506.5
93952.5
92246.9
91740.9
89390.2
89043.4
85697.3
85732.6
80819.6
81619.9
74194.6
76462.2
64919.1
69933.4
51564.7
61822.6
32039.8
52051.6
2074.84
39264.9
-52348.1
9716.42
-252505
-37176.4
-70022
1506.74
-31470.6
15484.4
-4812.29
24715.3
13161.4
31959
26159.5
38420.6
36094.7
44321.4
43937
49632.4
50250.5
54304.2
55387.5
58334.6
59569.3
61766.4
62993.1
64680.7
65834.1
67169.2
68224.8
69316.9
70268.3
71175.4
72030.9
72791.8
73564.1
74205.5
74908.4
75443.4
76102.5
76531.1
77166
77481.2
78123.6
78298.7
79000.4
78977.6
79824.6
79516.3
112772
109061
108599
107812
107133
106575
106117
105662
105257
104852
104476
104103
103760
103420
103111
102798
102515
102203
101922
101584
101277
100880
100527
100034
99630.7
99019.9
98560.8
97797.4
97288.3
96312
95770.2
94496
93943.8
92234.5
91731.3
89375.4
89032.6
85679.6
85720.4
80797.8
81605.9
74167.5
76445.6
64884.7
69912.8
51521.4
61795.6
31986.4
52013.6
2008
39198.5
-52454.6
9681.23
-251250
-36930.6
-70158.3
1496.22
-31494
15472.8
-4828.19
24705.4
13148.8
31950.2
26148.7
38412.8
36085.5
44314.4
43929.1
49625.9
50243.5
54298.2
55381.3
58329.2
59563.8
61761.5
62988.2
64676.1
65829.6
67164.9
68220.5
69312.8
70264.3
71171.5
72027.1
72788.1
73560.6
74202
74905.4
75440.2
76099.8
76528
77163.8
77478.2
78121.9
78295.7
78999.5
78974.1
79825.2
79511.7
112588
109025
108582
107786
107119
106563
106107
105653
105249
104844
104469
104096
103754
103414
103106
102793
102510
102199
101918
101580
101273
100874
100522
100029
99625.1
99013.2
98554.5
97789.6
97281.3
96303.1
95762.5
94485.5
93935.3
92222.2
91721.7
89360.7
89022
85661.8
85708.4
80775.9
81592.1
74140.3
76429.2
64850.2
69892.2
51477.8
61768.6
31932.4
51975.5
1940.45
39132.5
-52559.3
9648.92
-250005
-36685.4
-70291.9
1486.7
-31517.5
15461.7
-4844.36
24695.9
13136.1
31941.6
26137.9
38405.2
36076.2
44307.4
43921
49619.4
50236.5
54292.3
55375.1
58323.8
59558.3
61756.6
62983.3
64671.5
65825
67160.6
68216.2
69308.6
70260.2
71167.5
72023.3
72784.3
73557.2
74198.5
74902.3
75436.9
76097.1
76524.9
77161.5
77475.2
78120.1
78292.6
78998.6
78970.7
79826
79506.9
112409
108990
108564
107761
107105
106552
106097
105644
105241
104836
104462
104089
103747
103408
103101
102788
102505
102194
101913
101575
101268
100869
100517
100023
99619.5
99006.5
98548.4
97781.9
97274.5
96294.2
95754.9
94475.1
93926.8
92209.9
91712.3
89346
89011.5
85644
85696.4
80754.1
81578.5
74113.1
76412.9
64815.5
69871.8
51433.7
61741.5
31877.8
51937.5
1872.47
39067.1
-52661.7
9619.43
-248769
-36441.1
-70423.1
1478.04
-31541.1
15451.1
-4860.78
24686.6
13123.2
31933.2
26126.9
38397.5
36066.9
44300.5
43912.9
49613
50229.4
54286.3
55368.8
58318.4
59552.8
61751.7
62978.3
64667
65820.4
67156.2
68211.8
69304.4
70256.1
71163.5
72019.5
72780.6
73553.7
74195
74899.2
75433.6
76094.4
76521.9
77159.2
77472.2
78118.4
78289.5
78997.7
78967.3
79826.8
79502.1
112238
108955
108545
107736
107091
106540
106088
105636
105233
104829
104455
104082
103741
103402
103095
102783
102501
102189
101909
101571
101264
100864
100512
100017
99614.1
98999.9
98542.3
97774.3
97267.7
96285.4
95747.3
94464.8
93918.4
92197.7
91703
89331.3
89001.1
85626.3
85684.6
80732.2
81564.9
74085.7
76396.8
64780.6
69851.4
51389.4
61714.6
31822.8
51899.7
1804.32
39002.3
-52761.6
9592.65
-247541
-36198.1
-70551.9
1470.1
-31564.7
15441
-4877.4
24677.5
13110.1
31924.8
26115.7
38390
36057.4
44293.6
43904.7
49606.5
50222.2
54280.3
55362.5
58313
59547.2
61746.8
62973.3
64662.3
65815.7
67151.9
68207.5
69300.2
70252
71159.5
72015.7
72776.8
73550.2
74191.4
74896.2
75430.3
76091.7
76518.8
77157
77469.2
78116.7
78286.4
78996.9
78963.8
79827.7
79497.1
112072
108920
108525
107711
107077
106528
106078
105627
105225
104821
104448
104076
103735
103396
103090
102777
102496
102185
101905
101566
101260
100859
100508
100012
99608.6
98993.4
98536.2
97766.7
97260.9
96276.7
95739.8
94454.5
93910
92185.6
91693.8
89316.7
88990.8
85608.6
85672.9
80710.4
81551.5
74058.4
76380.7
64745.7
69831.1
51344.8
61687.7
31767.4
51862
1736.19
38938.2
-52859
9568.47
-246323
-35956.3
-70678.7
1462.75
-31588.3
15431.2
-4894.21
24668.8
13096.8
31916.6
26104.4
38382.5
36047.8
44286.7
43896.4
49600
50215
54274.3
55356.2
58307.5
59541.6
61741.8
62968.3
64657.7
65811
67147.5
68203.1
69295.9
70247.9
71155.5
72011.9
72773
73546.8
74187.9
74893.1
75427
76089
76515.6
77154.8
77466.2
78115.1
78283.3
78996.1
78960.3
79828.7
79492.1
111912
108885
108504
107686
107063
106516
106068
105618
105217
104814
104441
104069
103729
103390
103085
102772
102491
102180
101901
101562
101256
100855
100503
100006
99603.3
98986.9
98530.2
97759.1
97254.3
96268
95732.4
94444.3
93901.8
92173.5
91684.6
89302.2
88980.6
85591
85661.4
80688.6
81538.2
74031.1
76364.9
64710.6
69811
51300
61660.8
31711.9
51824.7
1668.23
38875
-52953.6
9546.75
-245114
-35715.9
-70803.6
1455.85
-31612
15421.9
-4911.19
24660.2
13083.3
31908.6
26093
38375.1
36038.1
44279.9
43888.1
49593.6
50207.8
54268.3
55349.8
58302
59536
61736.8
62963.2
64653.1
65806.4
67143.1
68198.7
69291.7
70243.8
71151.4
72008.1
72769.3
73543.3
74184.3
74890
75423.7
76086.3
76512.5
77152.5
77463.2
78113.4
78280.2
78995.3
78956.7
79829.8
79486.9
111757
108850
108483
107661
107049
106504
106058
105609
105209
104806
104434
104062
103723
103384
103079
102767
102487
102176
101896
101557
101251
100850
100498
100001
99598
98980.5
98524.3
97751.7
97247.7
96259.4
95725
94434.1
93893.6
92161.5
91675.6
89287.7
88970.5
85573.4
85649.9
80666.9
81525.1
74003.8
76349.1
64675.5
69790.9
51255
61634.1
31656.1
51787.6
1600.56
38812.6
-53045.5
9527.37
-243914
-35477
-70926.8
1449.32
-31635.7
15412.9
-4928.31
24651.9
13069.6
31900.6
26081.4
38367.7
36028.4
44273
43879.7
49587.1
50200.4
54262.3
55343.3
58296.6
59530.3
61731.8
62958.1
64648.4
65801.6
67138.6
68194.3
69287.4
70239.7
71147.4
72004.3
72765.5
73539.8
74180.8
74886.9
75420.4
76083.6
76509.4
77150.3
77460.1
78111.8
78277.1
78994.6
78953.1
79831
79481.7
111608
108815
108460
107636
107035
106492
106048
105600
105201
104798
104427
104055
103716
103379
103074
102762
102482
102171
101892
101553
101247
100845
100493
99995
99592.7
98974.1
98518.5
97744.3
97241.2
96250.8
95717.8
94424
93885.6
92149.5
91666.6
89273.4
88960.5
85555.9
85638.6
80645.2
81512.1
73976.4
76333.5
64640.3
69770.8
51209.9
61607.5
31600.3
51751
1533.28
38751.1
-53134.6
9510.21
-242723
-35239.5
-71048.3
1443.07
-31659.5
15404.2
-4945.56
24643.8
13055.9
31892.8
26069.7
38360.4
36018.5
44266.2
43871.2
49580.6
50193
54256.3
55336.8
58291.1
59524.6
61726.8
62953
64643.7
65796.9
67134.2
68189.9
69283.2
70235.5
71143.4
72000.5
72761.6
73536.3
74177.2
74883.8
75417
76080.9
76506.2
77148.1
77457.1
78110.1
78273.9
78993.9
78949.6
79832.3
79476.3
111463
108781
108437
107612
107021
106479
106038
105590
105193
104790
104420
104049
103710
103373
103069
102757
102478
102167
101888
101549
101243
100840
100489
99989.6
99587.5
98967.8
98512.7
97736.9
97234.7
96242.4
95710.6
94414
93877.6
92137.7
91657.8
89259
88950.6
85538.4
85627.4
80623.6
81499.2
73949.1
76317.9
64605.1
69750.9
51164.6
61581
31544.5
51714.7
1466.46
38690.5
-53221.1
9495.15
-241541
-35003.6
-71168.2
1437.04
-31683.4
15395.9
-4962.92
24635.9
13041.9
31885.1
26057.9
38353.1
36008.5
44259.4
43862.6
49574.2
50185.6
54250.2
55330.3
58285.6
59518.8
61721.8
62947.9
64639
65792.1
67129.7
68185.4
69278.9
70231.4
71139.3
71996.6
72757.8
73532.8
74173.6
74880.7
75413.7
76078.2
76503.1
77145.9
77454
78108.5
78270.8
78993.2
78945.9
79833.7
79470.9
111323
108746
108414
107587
107007
106467
106028
105581
105185
104783
104413
104042
103704
103367
103064
102752
102473
102163
101884
101544
101239
100835
100484
99984.2
99582.4
98961.5
98507
97729.7
97228.3
96233.9
95703.5
94404
93869.7
92125.8
91649
89244.8
88940.8
85521.1
85616.3
80602
81486.5
73921.9
76302.5
64569.8
69731
51119.3
61554.6
31488.7
51678.7
1400.15
38630.8
-53304.8
9482.07
-240368
-34769.2
-71286.5
1431.17
-31707.4
15387.7
-4980.39
24628.2
13027.8
31877.4
26045.9
38345.9
35998.4
44252.6
43853.9
49567.7
50178.1
54244.2
55323.7
58280.1
59513.1
61716.7
62942.7
64634.3
65787.4
67125.3
68181
69274.6
70227.2
71135.2
71992.8
72754
73529.3
74170
74877.6
75410.3
76075.5
76499.9
77143.6
77450.9
78106.9
78267.6
78992.5
78942.3
79835.1
79465.3
111188
108712
108389
107563
106993
106455
106018
105572
105177
104775
104406
104035
103698
103361
103058
102747
102469
102158
101880
101540
101235
100831
100480
99978.9
99577.3
98955.3
98501.3
97722.4
97222
96225.6
95696.4
94394.2
93861.9
92114.1
91640.3
89230.6
88931.1
85503.7
85605.3
80580.4
81473.8
73894.6
76287.1
64534.4
69711.2
51073.8
61528.4
31432.9
51643.2
1334.39
38571.9
-53385.9
9470.88
-239203
-34536.3
-71403.3
1425.42
-31731.6
15379.7
-4997.96
24620.6
13013.6
31869.9
26033.9
38338.7
35988.2
44245.9
43845.2
49561.2
50170.5
54238.1
55317.1
58274.5
59507.3
61711.7
62937.5
64629.6
65782.6
67120.8
68176.5
69270.3
70223.1
71131.2
71988.9
72750.2
73525.8
74166.4
74874.5
75406.9
76072.8
76496.7
77141.4
77447.9
78105.3
78264.4
78991.9
78938.7
79836.7
79459.7
111058
108677
108364
107538
106979
106442
106008
105563
105169
104767
104398
104028
103692
103355
103053
102743
102464
102154
101876
101536
101231
100826
100475
99973.6
99572.3
98949.2
98495.7
97715.3
97215.8
96217.3
95689.5
94384.3
93854.1
92102.4
91631.7
89216.4
88921.5
85486.5
85594.4
80558.9
81461.2
73867.3
76271.9
64499
69691.4
51028.3
61502.3
31377.2
51608.2
1269.21
38513.9
-53464.5
9461.46
-238048
-34304.8
-71518.6
1419.77
-31756
15371.9
-5015.64
24613.3
12999.3
31862.5
26021.6
38331.6
35977.9
44239.1
43836.4
49554.7
50162.9
54232
55310.4
58269
59501.4
61706.6
62932.3
64624.8
65777.8
67116.3
68172
69266
70218.9
71127.1
71985.1
72746.3
73522.3
74162.8
74871.4
75403.5
76070.1
76493.5
77139.2
77444.8
78103.7
78261.2
78991.3
78935
79838.3
79453.9
110931
108643
108339
107514
106964
106430
105998
105554
105161
104759
104391
104021
103686
103349
103048
102738
102460
102150
101872
101532
101227
100822
100471
99968.4
99567.3
98943.1
98490.1
97708.2
97209.6
96209
95682.6
94374.6
93846.4
92090.8
91623.2
89202.4
88912
85469.3
85583.6
80537.5
81448.8
73840.1
76256.7
64463.5
69671.7
50982.6
61476.4
31321.7
51573.5
1204.62
38456.8
-53540.6
9453.72
-236901
-34074.8
-71632.4
1414.18
-31780.5
15364.3
-5033.42
24606
12984.8
31855.1
26009.3
38324.5
35967.5
44232.3
43827.5
49548.2
50155.2
54225.9
55303.7
58263.4
59495.6
61701.5
62927.1
64620.1
65773
67111.9
68167.6
69261.8
70214.7
71123
71981.2
72742.5
73518.7
74159.1
74868.3
75400.1
76067.4
76490.3
77137.1
77441.7
78102.2
78258
78990.8
78931.3
79840
79448.1
110808
108608
108313
107490
106950
106417
105988
105545
105153
104752
104384
104015
103679
103344
103043
102733
102456
102146
101868
101528
101223
100817
100467
99963.3
99562.4
98937.1
98484.6
97701.1
97203.4
96200.8
95675.7
94364.9
93838.8
92079.3
91614.7
89188.4
88902.6
85452.2
85572.9
80516.1
81436.4
73812.8
76241.5
64428
69652.1
50937
61450.6
31266.2
51539.3
1140.64
38400.5
-53614.2
9447.58
-235763
-33846.3
-71744.7
1408.66
-31805.3
15356.7
-5051.31
24598.9
12970.2
31847.8
25996.8
38317.4
35957
44225.5
43818.5
49541.6
50147.4
54219.8
55297
58257.8
59489.7
61696.4
62921.8
64615.3
65768.1
67107.4
68163.1
69257.5
70210.5
71118.9
71977.4
72738.6
73515.2
74155.5
74865.2
75396.7
76064.7
76487.1
77134.9
77438.5
78100.7
78254.7
78990.3
78927.5
79841.8
79442.2
110690
108574
108286
107466
106935
106404
105977
105535
105144
104744
104377
104008
103673
103338
103038
102728
102451
102141
101865
101524
101219
100813
100462
99958.1
99557.6
98931.1
98479.2
97694.2
97197.4
96192.7
95669
94355.3
93831.3
92067.8
91606.4
89174.5
88893.3
85435.1
85562.3
80494.8
81424.1
73785.6
76226.4
64392.4
69632.4
50891.2
61425
31211
51505.4
1077.26
38345
-53685.4
9442.95
-234634
-33619.1
-71855.6
1403.18
-31830.3
15349.2
-5069.32
24591.9
12955.5
31840.6
25984.3
38310.4
35946.4
44218.8
43809.4
49535.1
50139.6
54213.7
55290.2
58252.2
59483.8
61691.3
62916.6
64610.6
65763.3
67102.9
68158.6
69253.2
70206.4
71114.9
71973.5
72734.8
73511.7
74151.8
74862.1
75393.3
76062
76483.9
77132.7
77435.4
78099.1
78251.5
78989.8
78923.8
79843.6
79436.2
110575
108540
108260
107442
106921
106391
105967
105526
105136
104736
104370
104001
103667
103332
103033
102723
102447
102137
101861
101520
101216
100808
100458
99953.1
99552.8
98925.1
98473.8
97687.2
97191.4
96184.7
95662.3
94345.7
93823.9
92056.4
91598.1
89160.6
88884
85418.1
85551.8
80473.5
81411.9
73758.4
76211.4
64356.7
69612.8
50845.5
61399.5
31155.9
51472.1
1014.5
38290.2
-53754.3
9439.75
-233514
-33393.3
-71964.9
1397.75
-31855.4
15341.7
-5087.45
24585
12940.6
31833.4
25971.6
38303.3
35935.7
44212
43800.3
49528.5
50131.7
54207.5
55283.3
58246.6
59477.8
61686.2
62911.3
64605.8
65758.5
67098.4
68154.1
69248.9
70202.2
71110.8
71969.6
72730.9
73508.2
74148.2
74859
75389.9
76059.4
76480.7
77130.5
77432.3
78097.6
78248.3
78989.4
78920
79845.6
79430.1
110463
108505
108232
107418
106906
106379
105957
105517
105128
104728
104363
103994
103661
103327
103028
102719
102443
102133
101857
101516
101212
100804
100454
99948.1
99548
98919.3
98468.5
97680.4
97185.4
96176.7
95655.6
94336.2
93816.5
92045
91589.9
89146.8
88874.8
85401.2
85541.3
80452.2
81399.8
73731.1
76196.4
64321
69593.3
50799.7
61374.2
31101
51439.1
952.334
38236.3
-53820.9
9437.91
-232402
-33168.9
-72072.8
1392.36
-31880.8
15334.3
-5105.7
24578.1
12925.7
31826.3
25958.7
38296.3
35924.9
44205.2
43791
49522
50123.8
54201.4
55276.4
58241
59471.8
61681.1
62906
64601
65753.6
67093.9
68149.6
69244.6
70198
71106.7
71965.8
72727
73504.6
74144.5
74855.9
75386.5
76056.7
76477.5
77128.4
77429.1
78096.2
78245
78988.9
78916.2
79847.6
79424
110355
108471
108205
107394
106892
106366
105947
105508
105120
104720
104356
103988
103655
103321
103023
102714
102439
102129
101854
101512
101208
100800
100450
99943.1
99543.3
98913.5
98463.2
97673.6
97179.5
96168.7
95649.1
94326.8
93809.1
92033.8
91581.7
89133.1
88865.7
85384.3
85531
80431
81387.7
73703.8
76181.4
64285.2
69573.7
50753.9
61349
31046.3
51406.5
890.77
38183
-53885.4
9437.34
-231298
-32945.8
-72179.1
1387.02
-31906.5
15326.9
-5124.08
24571.3
12910.6
31819.2
25945.8
38289.3
35914
44198.4
43781.7
49515.3
50115.8
54195.2
55269.5
58235.4
59465.8
61676
62900.7
64596.3
65748.7
67089.5
68145.1
69240.3
70193.9
71102.6
71961.9
72723.2
73501.1
74140.9
74852.8
75383
76054
76474.2
77126.2
77426
78094.7
78241.7
78988.6
78912.4
79849.7
79417.8
110251
108437
108177
107371
106877
106353
105936
105498
105112
104713
104348
103981
103649
103315
103018
102709
102435
102125
101850
101508
101205
100795
100446
99938.2
99538.7
98907.7
98458
97666.8
97173.7
96160.8
95642.5
94317.4
93801.9
92022.5
91573.7
89119.4
88856.7
85367.4
85520.7
80409.8
81375.6
73676.6
76166.4
64249.4
69554.2
50708.1
61324.1
30991.9
51374.3
829.795
38130.5
-53947.7
9437.99
-230204
-32724.1
-72284
1381.73
-31932.3
15319.4
-5142.59
24564.6
12895.4
31812.2
25932.7
38282.3
35903
44191.6
43772.3
49508.7
50107.7
54188.9
55262.5
58229.7
59459.8
61670.8
62895.3
64591.5
65743.9
67085
68140.7
69236
70189.7
71098.6
71958.1
72719.3
73497.6
74137.2
74849.7
75379.6
76051.3
76471
77124.1
77422.8
78093.2
78238.4
78988.2
78908.5
79851.8
79411.5
110149
108403
108149
107347
106862
106340
105926
105489
105103
104705
104341
103974
103643
103310
103013
102705
102431
102121
101846
101504
101201
100791
100442
99933.3
99534.1
98902
98452.9
97660.1
97167.9
96153
95636.1
94308.1
93794.7
92011.4
91565.7
89105.8
88847.7
85350.6
85510.4
80388.6
81363.6
73649.2
76151.4
64213.4
69534.7
50662.3
61299.2
30937.7
51342.6
769.402
38078.7
-54007.9
9439.77
-229117
-32503.6
-72387.3
1376.49
-31958.3
15312
-5161.24
24557.8
12880.1
31805.1
25919.6
38275.3
35891.8
44184.8
43762.8
49502.1
50099.6
54182.7
55255.5
58224.1
59453.7
61665.7
62890
64586.7
65739
67080.5
68136.2
69231.8
70185.5
71094.5
71954.2
72715.4
73494
74133.5
74846.5
75376.2
76048.6
76467.7
77122
77419.7
78091.8
78235.1
78987.9
78904.7
79854.1
79405.1
110051
108370
108121
107324
106847
106327
105916
105479
105095
104697
104334
103968
103637
103304
103008
102700
102427
102117
101843
101500
101197
100787
100438
99928.5
99529.6
98896.3
98447.8
97653.4
97162.2
96145.2
95629.7
94298.8
93787.6
92000.3
91557.7
89092.3
88838.8
85333.9
85500.2
80367.4
81351.6
73621.9
76136.4
64177.4
69515.2
50616.5
61274.6
30883.7
51311.2
709.579
38027.6
-54066
9442.63
-228039
-32284.5
-72489.1
1371.31
-31984.5
15304.6
-5180.01
24551.2
12864.7
31798.1
25906.3
38268.3
35880.6
44177.9
43753.2
49495.4
50091.4
54176.5
55248.5
58218.4
59447.6
61660.5
62884.6
64582
65734.2
67076.1
68131.7
69227.5
70181.4
71090.4
71950.4
72711.5
73490.5
74129.8
74843.4
75372.7
76046
76464.5
77119.9
77416.5
78090.4
78231.8
78987.6
78900.8
79856.4
79398.7
109956
108336
108092
107300
106832
106314
105905
105470
105087
104689
104327
103961
103631
103299
103003
102695
102423
102113
101839
101497
101194
100783
100434
99923.7
99525.1
98890.7
98442.7
97646.8
97156.5
96137.5
95623.3
94289.6
93780.5
91989.2
91549.8
89078.8
88830
85317.1
85490.1
80346.3
81339.7
73594.5
76121.4
64141.4
69495.7
50570.7
61250.1
30829.9
51280.1
650.317
37977.1
-54122.2
9446.5
-226969
-32066.5
-72589.4
1366.2
-32010.9
15297.2
-5198.92
24544.5
12849.1
31791.1
25892.8
38261.2
35869.3
44171
43743.5
49488.7
50083.1
54170.2
55241.4
58212.7
59441.5
61655.4
62879.3
64577.2
65729.3
67071.6
68127.3
69223.3
70177.3
71086.4
71946.5
72707.7
73487
74126.1
74840.3
75369.2
76043.3
76461.2
77117.8
77413.3
78089
78228.5
78987.4
78896.9
79858.8
79392.2
109863
108302
108064
107277
106817
106301
105895
105461
105079
104681
104320
103954
103625
103293
102998
102691
102419
102110
101836
101493
101190
100779
100430
99919
99520.6
98885.1
98437.7
97640.3
97150.9
96129.8
95617
94280.5
93773.5
91978.2
91542
89065.3
88821.2
85300.5
85480
80325.1
81327.7
73567
76106.4
64105.2
69476.3
50524.9
61225.8
30776.4
51249.5
591.603
37927.3
-54176.5
9451.33
-225908
-31849.9
-72688.1
1361.17
-32037.5
15289.7
-5217.95
24537.8
12833.5
31784.1
25879.3
38254.2
35857.8
44164.1
43733.8
49482
50074.8
54163.9
55234.2
58207
59435.4
61650.2
62873.9
64572.5
65724.5
67067.2
68122.8
69219
70173.1
71082.3
71942.7
72703.8
73483.5
74122.5
74837.2
75365.8
76040.6
76457.9
77115.7
77410.2
78087.7
78225.2
78987.2
78893
79861.2
79385.6
109773
108269
108035
107254
106802
106288
105884
105451
105070
104674
104313
103948
103619
103288
102994
102686
102415
102106
101833
101489
101187
100775
100426
99914.4
99516.2
98879.6
98432.7
97633.8
97145.4
96122.2
95610.8
94271.4
93766.5
91967.3
91534.3
89051.9
88812.5
85283.8
85470
80304
81315.8
73539.5
76091.3
64069
69456.9
50479.2
61201.7
30723.1
51219.1
533.428
37878.1
-54228.9
9457.04
-224854
-31634.4
-72785.3
1356.22
-32064.2
15282.2
-5237.12
24531.2
12817.7
31777.1
25865.7
38247.2
35846.3
44157.2
43724
49475.2
50066.4
54157.6
55227
58201.3
59429.2
61645.1
62868.5
64567.7
65719.6
67062.8
68118.4
69214.8
70169
71078.3
71938.9
72699.9
73480
74118.8
74834.1
75362.3
76038
76454.6
77113.6
77407
78086.3
78221.9
78987
78889
79863.7
79379
109686
108235
108006
107231
106787
106274
105874
105442
105062
104666
104306
103941
103613
103282
102989
102682
102411
102102
101829
101486
101184
100771
100422
99909.7
99511.9
98874.1
98427.8
97627.4
97139.8
96114.6