/*--------------------------------*- C++ -*----------------------------------*\
| =========                 |                                                 |
| \\      /  F ield         | OpenFOAM: The Open Source CFD Toolbox           |
|  \\    /   O peration     | Version:  2412                                  |
|   \\  /    A nd           | Website:  www.openfoam.com                      |
|    \\/     M anipulation  |                                                 |
\*---------------------------------------------------------------------------*/
FoamFile
{
    version     2.0;
    format      ascii;
    arch        "LSB;label=32;scalar=64";
    class       surfaceScalarField;
    location    "0.9";
    object      phi;
}
// * * * * * * * * * * * * * * * * * * * * * * * * * * * * * * * * * * * * * //

dimensions      [0 3 -1 0 0 0 0];

oriented        oriented;

internalField   nonuniform List<scalar> 
155925
(
0.00839075
-0.000814996
0.00770079
0.000689966
0.00844731
-0.000746519
0.00867475
-0.000227445
0.00866695
7.80627e-06
0.0085669
0.000100045
0.00842534
0.000141557
0.00826477
0.000160578
0.00812066
0.000144106
0.00797635
0.000144308
0.00783911
0.000137245
0.00769304
0.000146069
0.00754765
0.000145386
0.00739211
0.000155548
0.00723914
0.000152966
0.00707923
0.000159906
0.00693072
0.00014851
0.00677562
0.000155103
0.0066398
0.000135826
0.00649729
0.000142504
0.00638019
0.000117105
0.00625183
0.000128359
0.00615742
9.4406e-05
0.00603797
0.000119457
0.00596379
7.41774e-05
0.00584885
0.000114935
0.00579376
5.50898e-05
0.00567787
0.000115895
0.00564588
3.19878e-05
0.00552114
0.000124744
0.00551783
3.30774e-06
0.00537459
0.000143244
0.00540708
-3.24921e-05
0.0052368
0.00017028
0.00531758
-8.07813e-05
0.00510755
0.000210029
0.00525355
-0.000145997
0.00498366
0.000269894
0.00521707
-0.000233413
0.00486478
0.000352295
0.00521174
-0.000346966
0.00474896
0.000462778
0.00524048
-0.000491515
0.00463439
0.000606088
0.00529971
-0.000665318
0.00450623
0.000793479
0.00536859
-0.000862367
0.00435431
0.00101428
0.00544903
-0.00109472
0.00424238
0.00120664
0.00565312
-0.00141073
0.00468477
0.000968347
0.007466
-0.00278123
0.00408838
0.00337763
0.00440375
-0.000315368
0.00316878
0.00123497
0.00390746
-0.000738685
0.00315705
0.000750411
0.00380754
-0.000650483
0.00320375
0.000603787
0.00372421
-0.000520466
0.00325587
0.000468347
0.00364152
-0.000385655
0.00328629
0.00035523
0.00355784
-0.000271554
0.00330316
0.000254686
0.00349086
-0.000187703
0.00331729
0.00017357
0.00344453
-0.000127245
0.00332727
0.000117265
0.00340942
-8.21444e-05
0.00333088
7.85339e-05
0.00338252
-5.16378e-05
0.00333247
5.0047e-05
0.00336607
-3.35946e-05
0.00333876
2.7314e-05
0.00336398
-2.52212e-05
0.00335732
6.65776e-06
0.00338126
-2.39395e-05
0.00339258
-1.13202e-05
0.0034211
-2.85178e-05
0.00344911
-2.80096e-05
0.00348271
-3.35973e-05
0.00352312
-4.0412e-05
0.00355772
-3.45968e-05
0.00360508
-4.73668e-05
0.00363628
-3.11933e-05
0.00368724
-5.09666e-05
0.00370888
-2.1642e-05
0.0037653
-5.64206e-05
0.00377415
-8.84508e-06
0.00384037
-6.62194e-05
0.003831
9.36823e-06
0.00391733
-8.63353e-05
0.00387948
3.78479e-05
0.00400807
-0.000128583
0.00391741
9.06569e-05
0.00413829
-0.000220883
0.000149865
0.0110388
-0.00427802
0.00999127
0.00173748
0.00993866
-0.000693911
0.00989002
-0.000178801
0.00983528
6.25505e-05
0.00977487
0.000160451
0.00968679
0.000229644
0.00956119
0.000286174
0.00942137
0.000283927
0.00926699
0.000298683
0.00911132
0.000292916
0.00894856
0.000308831
0.00878563
0.000308315
0.0086151
0.000326075
0.00844438
0.000323686
0.00826668
0.000337612
0.00809506
0.000320132
0.0079186
0.000331558
0.0077553
0.000299122
0.00758962
0.000308187
0.00744344
0.000263284
0.00729351
0.000278297
0.00717032
0.000217595
0.00703516
0.000254612
0.0069333
0.000176039
0.00680898
0.000239254
0.00672634
0.000137737
0.00660755
0.000234681
0.0065455
9.40355e-05
0.0064264
0.000243844
0.0063872
4.25103e-05
0.00626527
0.000265177
0.00625464
-2.18614e-05
0.00612218
0.000302737
0.00614604
-0.000104642
0.00599501
0.00036106
0.00606362
-0.000214605
0.00588238
0.000451138
0.00600826
-0.0003593
0.00578422
0.000576335
0.00598225
-0.000544992
0.00569986
0.000745169
0.00598674
-0.0007784
0.0056276
0.00096523
0.00601639
-0.00105411
0.00555272
0.00125715
0.00604526
-0.00135491
0.00545919
0.00160035
0.00606812
-0.00170364
0.00540799
0.00186677
0.00618672
-0.00218947
0.00593235
0.00122273
0.00809093
-0.00493981
0.00584763
0.00562093
0.0050551
0.000477164
0.0041096
0.00218046
0.00430341
-0.000932488
0.00396107
0.00109274
0.00417484
-0.000864246
0.00392751
0.000851116
0.00410177
-0.00069473
0.00391406
0.00065606
0.00403511
-0.00050671
0.00388672
0.00050362
0.00396157
-0.000346402
0.003851
0.000365261
0.00389733
-0.000234038
0.00382081
0.000250094
0.00384982
-0.000156254
0.00379686
0.000170221
0.00381259
-9.78756e-05
0.00377559
0.000115532
0.00378361
-5.9651e-05
0.00375965
7.40089e-05
0.00376571
-3.96606e-05
0.00375445
3.85798e-05
0.00376381
-3.45881e-05
0.00376715
3.32449e-06
0.00378513
-4.19227e-05
0.00380399
-3.01816e-05
0.00383384
-5.83662e-05
0.00386833
-6.25e-05
0.00390857
-7.38306e-05
0.00395423
-8.608e-05
0.0039994
-7.97603e-05
0.00405013
-9.81011e-05
0.00409495
-7.60092e-05
0.00414624
-0.000102257
0.00418536
-6.0764e-05
0.00423664
-0.000107699
0.00426864
-4.08437e-05
0.00432238
-0.000119969
0.0043459
-1.41457e-05
0.00440822
-0.000148662
0.00442104
2.50304e-05
0.00450458
-0.000212124
0.00449711
9.81243e-05
0.00463453
-0.0003583
0.000170409
0.00899295
-0.00569522
0.00972948
0.00100095
0.0103028
-0.00126728
0.0103414
-0.000217373
0.0102555
0.000148438
0.0101544
0.000261607
0.0100442
0.000339823
0.00991928
0.000411092
0.00979097
0.000412233
0.0096541
0.00043555
0.00951508
0.000431946
0.00936895
0.000454958
0.00922012
0.000457147
0.00906337
0.000482823
0.0089037
0.000483358
0.0087365
0.000504813
0.00857125
0.000485381
0.00840073
0.000502079
0.0082385
0.000461348
0.00807419
0.0004725
0.00792439
0.00041308
0.00777294
0.000429749
0.00764258
0.000347958
0.00750527
0.00039192
0.00739438
0.000286932
0.00726894
0.000364693
0.00717617
0.000230503
0.0070586
0.000352248
0.00698488
0.000167758
0.00687045
0.000358276
0.00681718
9.57808e-05
0.00670295
0.000379405
0.00667496
6.13477e-06
0.00655551
0.000422181
0.0065574
-0.000106526
0.00642595
0.000492507
0.00646587
-0.000254522
0.00631276
0.000604247
0.00640102
-0.000447561
0.00621588
0.000761471
0.00636508
-0.000694188
0.00613495
0.000975304
0.00635933
-0.00100279
0.0060684
0.00125616
0.00637867
-0.00136438
0.00600169
0.00163413
0.00639678
-0.00175
0.00591778
0.00207935
0.0064055
-0.00219136
0.00587797
0.0023943
0.00650545
-0.00281694
0.00643622
0.00129195
0.00840408
-0.00690767
0.00649797
0.00752704
0.00554023
0.0014349
0.00458545
0.00313524
0.00459263
-0.000939663
0.00432437
0.001361
0.00441266
-0.000952534
0.00424598
0.0010178
0.00432457
-0.000773322
0.00420411
0.000776521
0.00425301
-0.000555614
0.00415485
0.000601774
0.00417619
-0.000367738
0.00409978
0.000441675
0.00410733
-0.000241597
0.0040528
0.000304625
0.00405447
-0.00015792
0.00401549
0.000209199
0.00401252
-9.48996e-05
0.00398425
0.000143797
0.00397988
-5.52844e-05
0.00396132
9.25711e-05
0.00395967
-3.80109e-05
0.00395193
4.6326e-05
0.00395731
-3.99671e-05
0.00396345
-2.81914e-06
0.00398067
-5.91396e-05
0.00400264
-5.215e-05
0.0040343
-9.00282e-05
0.00407226
-0.000100465
0.00411618
-0.000117753
0.00416529
-0.00013518
0.00421535
-0.000129825
0.00426902
-0.00015177
0.00431954
-0.000126534
0.00437282
-0.000155529
0.00441868
-0.000106624
0.00447019
-0.000159215
0.00451049
-8.11384e-05
0.00456177
-0.000171252
0.00459638
-4.87546e-05
0.00465186
-0.00020414
0.00468104
-4.15692e-06
0.00475016
-0.000281242
0.00476912
7.91646e-05
0.00487881
-0.000467991
0.000154329
0.00890882
-0.00702829
0.00947528
0.000434499
0.0101008
-0.00189278
0.0102321
-0.000348729
0.0102204
0.00016015
0.0101575
0.000324559
0.01007
0.00042731
0.00996675
0.000514327
0.009859
0.000519976
0.00974409
0.000550463
0.00962573
0.000550303
0.00950032
0.000580368
0.00937039
0.000587078
0.00923246
0.000620752
0.00908981
0.000626013
0.00893955
0.000655069
0.00878856
0.000636378
0.00863212
0.000658512
0.00848023
0.000613242
0.00832602
0.000626713
0.00818195
0.000557145
0.00803677
0.000574929
0.00790773
0.000476994
0.00777425
0.000525407
0.00766163
0.000399545
0.00753917
0.000487163
0.00744286
0.000326808
0.00732886
0.000466249
0.00725011
0.000246511
0.00714094
0.000467441
0.007081
0.000155723
0.00697391
0.00048649
0.00693696
4.30945e-05
0.00682753
0.000531603
0.00681781
-9.67992e-05
0.00669985
0.000610466
0.00672445
-0.000279128
0.00658909
0.000739614
0.00665735
-0.000515821
0.00649496
0.00092386
0.00661864
-0.000817872
0.00641713
0.00117682
0.00660979
-0.00119545
0.00635417
0.00151178
0.0066261
-0.00163631
0.00629193
0.00196831
0.00664171
-0.00209979
0.00621313
0.00250793
0.00664561
-0.00262384
0.00617893
0.00286098
0.00673279
-0.0033708
0.0067577
0.00126704
0.00853902
-0.00868899
0.0069278
0.00913826
0.00596102
0.00240168
0.0049587
0.00413756
0.00485038
-0.000831337
0.00458616
0.00162522
0.00461044
-0.000976807
0.00446625
0.00116199
0.00450039
-0.000807464
0.00440189
0.000875016
0.0044187
-0.00057242
0.00433759
0.000682883
0.00433548
-0.000365622
0.00427025
0.000506899
0.00426068
-0.000232031
0.00421274
0.000352575
0.00420211
-0.000147292
0.00416687
0.000244436
0.00415534
-8.33672e-05
0.00412916
0.000169979
0.00411905
-4.51801e-05
0.00410169
0.000109929
0.00409651
-3.28265e-05
0.00408974
5.3097e-05
0.00409355
-4.37766e-05
0.00410102
-1.02883e-05
0.00411854
-7.66612e-05
0.00414259
-7.61966e-05
0.00417607
-0.000123509
0.00421665
-0.000141046
0.00426335
-0.000164457
0.00431517
-0.000186997
0.00436849
-0.000183149
0.00442462
-0.000207894
0.0044786
-0.000180517
0.00453383
-0.000210762
0.00458344
-0.000156231
0.00463608
-0.000211859
0.00468063
-0.000125683
0.00473183
-0.000222455
0.00477173
-8.86553e-05
0.00482526
-0.00025767
0.00486185
-4.07491e-05
0.00492588
-0.000345272
0.00495656
4.84868e-05
0.00505509
-0.000566519
0.000121697
0.00893963
-0.00839216
0.00949802
-0.000123889
0.00992339
-0.00231815
0.0100574
-0.000482724
0.0100928
0.000124781
0.0100689
0.000348391
0.010011
0.000485202
0.00993181
0.000593552
0.00984299
0.000608798
0.00974525
0.000648198
0.00964205
0.000653507
0.00953124
0.000691176
0.00941455
0.000703762
0.00928978
0.000745529
0.00915921
0.000756582
0.00902129
0.000792983
0.00888122
0.000776456
0.00873619
0.000803541
0.00859356
0.000755865
0.00844909
0.000771188
0.0083119
0.000694331
0.00817442
0.00071241
0.00804936
0.000602052
0.00792193
0.000652843
0.00781081
0.000510664
0.00769357
0.000604398
0.00759702
0.000423362
0.00748851
0.000574764
0.00740801
0.000327012
0.00730555
0.000569895
0.00724232
0.000218956
0.00714354
0.000585265
0.00710115
8.54882e-05
0.00700226
0.000630489
0.00698464
-7.91795e-05
0.00687999
0.000715122
0.00689349
-0.000292625
0.00677473
0.000858369
0.00682793
-0.000569021
0.00668583
0.00106596
0.00679
-0.000922042
0.00661285
0.00135397
0.00678119
-0.00136378
0.00655444
0.00173853
0.00679719
-0.00187907
0.0064971
0.0022684
0.00681291
-0.0024156
0.00642402
0.00289682
0.00681515
-0.00301496
0.00639643
0.0032797
0.00689064
-0.00386501
0.00698143
0.00117625
0.00854356
-0.0102511
0.00727056
0.0104113
0.00631125
0.003361
0.0052814
0.0051674
0.00508763
-0.000637562
0.00480683
0.00190601
0.0047864
-0.000956379
0.004646
0.00130239
0.00465215
-0.000813607
0.00456107
0.000966088
0.00455883
-0.000570179
0.00448428
0.000757439
0.00446864
-0.000349983
0.00440759
0.000567949
0.00438812
-0.000212567
0.00434222
0.000398475
0.00432434
-0.000129407
0.00428991
0.000278869
0.00427321
-6.66748e-05
0.00424723
0.00019596
0.00423361
-3.15603e-05
0.00421629
0.000127248
0.00420899
-2.55212e-05
0.0042025
5.9586e-05
0.00420558
-4.68512e-05
0.00421396
-1.86722e-05
0.00423214
-9.48433e-05
0.00425792
-0.000101978
0.00429316
-0.000158749
0.00433598
-0.000183867
0.00438505
-0.00021352
0.00443918
-0.000241127
0.00449504
-0.000239016
0.00455326
-0.000266107
0.00460976
-0.000237016
0.0046667
-0.000267709
0.00471886
-0.000208384
0.00477268
-0.000265689
0.00481992
-0.000172923
0.00487161
-0.000274144
0.00491467
-0.000131711
0.00496767
-0.000310677
0.00500847
-8.15429e-05
0.00507036
-0.000407164
0.00510756
1.1291e-05
0.00520054
-0.000659504
7.98615e-05
0.00873557
-0.00955197
0.00946077
-0.000849088
0.00979525
-0.00265263
0.00992254
-0.000610011
0.00997729
7.00278e-05
0.00997534
0.000350341
0.00993827
0.000522267
0.00987768
0.000654148
0.00980408
0.000682399
0.00971972
0.000732554
0.00962802
0.000745211
0.00952783
0.000791363
0.00942055
0.000811048
0.00930477
0.0008613
0.00918233
0.00087903
0.00905253
0.000922778
0.00891963
0.000909361
0.00878212
0.000941048
0.00864576
0.000892229
0.00850807
0.000908874
0.00837596
0.000826445
0.00824441
0.000843958
0.00812286
0.0007236
0.00800069
0.000775013
0.00789161
0.00061975
0.00777937
0.000716638
0.00768364
0.000519085
0.0075805
0.000677905
0.00749965
0.000407863
0.00740369
0.000665862
0.00733876
0.000283886
0.00724804
0.000675983
0.00720204
0.000131489
0.00711333
0.000719192
0.00708968
-5.55247e-05
0.00699798
0.000806824
0.00700228
-0.00029693
0.0068999
0.000960754
0.00693996
-0.00060908
0.00681803
0.00118789
0.00690455
-0.00100857
0.0067516
0.00150692
0.00689748
-0.00150966
0.00669913
0.00193688
0.00691463
-0.00209456
0.00664778
0.00253525
0.00693162
-0.00269944
0.00658165
0.00324678
0.00693326
-0.00336657
0.0065628
0.00365016
0.006994
-0.00429622
0.0071404
0.00102985
0.00848225
-0.011593
0.00753447
0.011359
0.00658862
0.00430685
0.00556628
0.00618975
0.00530913
-0.000380421
0.00500543
0.00220972
0.00494897
-0.00089992
0.00480452
0.00144684
0.00478971
-0.000798798
0.00469993
0.00105587
0.00468423
-0.000554479
0.00461188
0.000829784
0.00458701
-0.000325108
0.00452734
0.000627616
0.00450114
-0.000186363
0.00445557
0.000444045
0.00443264
-0.000106483
0.00439794
0.000313577
0.00437758
-4.63164e-05
0.00435113
0.000222407
0.00433498
-1.54117e-05
0.0043173
0.000144933
0.00430851
-1.67301e-05
0.00430207
6.60192e-05
0.00430479
-4.95725e-05
0.00431396
-2.78391e-05
0.00433296
-0.000113844
0.00436033
-0.000129347
0.00439727
-0.000195687
0.00444212
-0.000228715
0.00449328
-0.000264682
0.00454946
-0.000297308
0.00460747
-0.000297024
0.0046675
-0.00032614
0.00472601
-0.000295522
0.00478445
-0.000326147
0.00483852
-0.000262461
0.00489344
-0.000320605
0.00494261
-0.000222092
0.00499491
-0.000326441
0.00504011
-0.00017691
0.0050931
-0.00036367
0.00513663
-0.000125078
0.00519755
-0.000468081
0.00523894
-3.01026e-05
0.00532877
-0.000749328
3.21607e-05
0.00862124
-0.0105975
0.00939632
-0.00162417
0.00969069
-0.002947
0.00981529
-0.000734611
0.00987943
5.88241e-06
0.00988985
0.000339926
0.00986668
0.000545435
0.00981992
0.000700902
0.00975846
0.000743867
0.00968497
0.000806045
0.00960263
0.000827543
0.00951088
0.000883113
0.00941093
0.000910997
0.00930193
0.000970308
0.00918542
0.000995535
0.00906134
0.00104686
0.00893337
0.00103733
0.00880091
0.00107351
0.00866872
0.00102442
0.00853555
0.00104204
0.00840688
0.000955115
0.00827945
0.000971393
0.00816048
0.000842567
0.00804222
0.000893273
0.0079349
0.000727076
0.00782661
0.000824927
0.00773192
0.000613775
0.00763315
0.000776666
0.00755247
0.000488543
0.00746183
0.000756504
0.00739599
0.000349725
0.00731198
0.000759994
0.00726346
0.000180011
0.00718342
0.000799237
0.007155
-2.71042e-05
0.00707468
0.000887142
0.00707115
-0.000293402
0.00698379
0.00104812
0.00701195
-0.000637239
0.00690944
0.0012904
0.00697909
-0.00107822
0.00685054
0.00163546
0.00697388
-0.001633
0.00680539
0.00210537
0.00699222
-0.0022814
0.00676158
0.0027659
0.00701016
-0.00294802
0.00670424
0.0035527
0.00701026
-0.00367259
0.00669585
0.00396457
0.00705219
-0.00465255
0.00725506
0.000826982
0.00841586
-0.0127538
0.00771648
0.0120584
0.00679317
0.00523016
0.00581643
0.0071665
0.00551584
-7.98334e-05
0.00518931
0.00253625
0.00510206
-0.000812668
0.00494994
0.00159895
0.00491786
-0.000766711
0.00482638
0.00114734
0.00480009
-0.000528186
0.00472785
0.000902027
0.00469595
-0.000293215
0.00463636
0.00068721
0.00460507
-0.000155078
0.00455907
0.000490051
0.00453228
-7.96981e-05
0.00449685
0.000349013
0.00447363
-2.30981e-05
0.00444644
0.000249599
0.00442829
2.73239e-06
0.00441009
0.00016314
0.00440016
-6.80445e-06
0.00439371
7.2472e-05
0.00439629
-5.21573e-05
0.0044062
-3.77504e-05
0.00442611
-0.000133747
0.00445498
-0.000158221
0.00449357
-0.000234271
0.0045403
-0.000275445
0.00459338
-0.00031777
0.00465142
-0.000355349
0.0047113
-0.000356903
0.00477295
-0.000387786
0.00483313
-0.000355707
0.00489288
-0.000385889
0.00494849
-0.000318073
0.00500437
-0.000376483
0.00505501
-0.000272736
0.00510791
-0.000379344
0.00515469
-0.00022369
0.00520787
-0.000416845
0.00525336
-0.000170572
0.00531383
-0.000528552
0.0053582
-7.44684e-05
0.00544604
-0.00083717
-1.96613e-05
0.00854709
-0.0115688
0.00932455
-0.00240163
0.00959992
-0.00322237
0.00972492
-0.00085961
0.00979459
-6.37872e-05
0.00981273
0.00032179
0.00979922
0.000558944
0.00976293
0.000737195
0.00971127
0.000795526
0.00964684
0.000870475
0.00957246
0.000901922
0.00948782
0.000967748
0.009394
0.00100482
0.00929048
0.00107383
0.00917869
0.00110732
0.00905897
0.00116658
0.00893468
0.00116161
0.00880583
0.00120236
0.0086766
0.00115365
0.00854658
0.00117207
0.00842033
0.00108136
0.0082958
0.00109592
0.00817875
0.000959618
0.00806337
0.00100865
0.00795752
0.000832924
0.00785226
0.000930188
0.00775861
0.000707425
0.00766325
0.000872026
0.00758301
0.000568786
0.00749648
0.000843033
0.00743023
0.000415973
0.00735142
0.000838809
0.00730119
0.000230234
0.00722793
0.000872498
0.00719589
4.93776e-06
0.00712472
0.000958316
0.00711482
-0.0002835
0.00704002
0.00112291
0.0070579
-0.000655119
0.00697253
0.00137577
0.00702674
-0.00113243
0.00692109
0.00174112
0.00702249
-0.0017344
0.00688384
0.00224403
0.00704097
-0.00243853
0.00684882
0.00295805
0.00705832
-0.00315752
0.00680179
0.00380923
0.00705468
-0.00392548
0.00680358
0.00421567
0.00707867
-0.00492764
0.0073367
0.000568943
0.00836769
-0.0137848
0.00783238
0.0125937
0.00693597
0.00612657
0.00603285
0.00806961
0.00570703
0.00024599
0.00536139
0.00288189
0.0052475
-0.000698779
0.00508621
0.00176025
0.00503914
-0.000719638
0.00494441
0.00124206
0.00490923
-0.000492999
0.00483596
0.00097529
0.00479836
-0.000255612
0.00473816
0.000747407
0.00470279
-0.000119704
0.00465598
0.00053686
0.00462605
-4.97715e-05
0.00458968
0.000385385
0.00456409
2.48943e-06
0.00453605
0.000277646
0.00451624
2.25395e-05
0.00449746
0.000181923
0.00448662
4.03087e-06
0.00448013
7.896e-05
0.00448273
-5.47519e-05
0.00449337
-4.83918e-05
0.00451423
-0.000154607
0.00454455
-0.000188544
0.00458473
-0.000274448
0.00463323
-0.000323945
0.0046881
-0.000372641
0.00474785
-0.000415094
0.0048094
-0.000418454
0.00487249
-0.000450877
0.00493412
-0.000417334
0.004995
-0.000446775
0.00505189
-0.000374959
0.00510861
-0.000433206
0.00516043
-0.000324554
0.00521389
-0.000432805
0.00526188
-0.000271686
0.00531531
-0.00047027
0.00536228
-0.000217545
0.00542257
-0.000588844
0.00546918
-0.000121072
0.00555568
-0.000923676
-7.45598e-05
0.00848939
-0.0124824
0.00925333
-0.00316557
0.00951834
-0.00348738
0.00964537
-0.000986639
0.00971895
-0.00013737
0.00974251
0.000298228
0.00973612
0.000565331
0.009708
0.000765323
0.00966441
0.000839112
0.00960769
0.000927198
0.00954022
0.000969389
0.00946177
0.0010462
0.00937326
0.00109333
0.00927442
0.00117268
0.00916658
0.00121516
0.0090504
0.00128277
0.00892904
0.00128297
0.00880295
0.00132845
0.00867596
0.00128063
0.00854826
0.00129977
0.00842384
0.00120577
0.00830147
0.00121829
0.00818595
0.00107514
0.00807279
0.00112181
0.00796824
0.000937474
0.00786538
0.00103305
0.00777277
0.000800038
0.00768011
0.000964688
0.00760047
0.000648425
0.00751714
0.000926357
0.00745085
0.000482262
0.00737601
0.000913649
0.00732474
0.000281505
0.00725665
0.000940592
0.00722201
3.95761e-05
0.00715786
0.00102246
0.00714307
-0.000268704
0.00707816
0.00118781
0.00708774
-0.000664696
0.00701637
0.00144714
0.00705746
-0.00117352
0.0069715
0.00182707
0.00705319
-0.0018161
0.0069418
0.00235542
0.00707057
-0.0025673
0.00691579
0.00311283
0.00708565
-0.00332738
0.00687929
0.00401558
0.00707652
-0.00412271
0.00688871
0.00440349
0.00708892
-0.00512785
0.00739289
0.000264969
0.00833568
-0.0147275
0.0079036
0.0130258
0.00703538
0.0069948
0.00621698
0.00888801
0.00588153
0.000581444
0.00552268
0.00324073
0.00538609
-0.000562193
0.00521533
0.00193102
0.00515496
-0.00065927
0.00505621
0.00134081
0.00501327
-0.00045006
0.00493837
0.00105019
0.00489592
-0.000213162
0.00483477
0.000808564
0.00479596
-8.09022e-05
0.00474817
0.000584651
0.00471559
-1.7188e-05
0.0046782
0.000422776
0.00465058
3.01071e-05
0.00462164
0.000306588
0.0046004
4.37791e-05
0.00458103
0.000201291
0.00456945
1.56157e-05
0.00456293
8.54722e-05
0.00456564
-5.74592e-05
0.00457702
-5.97718e-05
0.00459887
-0.000176454
0.0046306
-0.000220276
0.00467232
-0.000316168
0.00472249
-0.000374112
0.00477902
-0.000429174
0.00484034
-0.00047641
0.00490339
-0.000481511
0.00496779
-0.00051527
0.00503067
-0.000480217
0.00509256
-0.000508668
0.00515052
-0.000432914
0.00520798
-0.000490663
0.00526075
-0.000377326
0.0053147
-0.00048676
0.00536366
-0.000320647
0.00541736
-0.000523965
0.00546549
-0.000265674
0.00552574
-0.000649095
0.0055741
-0.000169432
0.00565965
-0.00100923
-0.000131869
0.00844041
-0.0133471
0.00918466
-0.00390982
0.00944326
-0.00374598
0.00957315
-0.00111653
0.00964997
-0.000214187
0.00967779
0.000270414
0.00967699
0.000566128
0.00965545
0.000786858
0.00961865
0.000875917
0.00956858
0.000977266
0.0095072
0.00103077
0.00943424
0.00111916
0.00935045
0.00117712
0.0092557
0.00126743
0.00915129
0.00131956
0.00903808
0.00139597
0.00891916
0.0014019
0.00879529
0.00145231
0.0086701
0.00140583
0.00854421
0.00142566
0.00842125
0.00132873
0.00830061
0.00133894
0.00818638
0.00118937
0.00807505
0.00123314
0.0079717
0.00104083
0.00787084
0.00113391
0.00777927
0.000891602
0.00768884
0.00105512
0.00760993
0.000727333
0.00752918
0.00100711
0.00746313
0.000548319
0.0073914
0.000985377
0.00733958
0.000333325
0.00727545
0.00100472
0.00723905
7.59737e-05
0.00718025
0.00108126
0.00716187
-0.000250324
0.00710453
0.00124515
0.00710774
-0.000667903
0.00704733
0.00150755
0.00707791
-0.00120411
0.00700788
0.00189711
0.00707314
-0.00188136
0.00698476
0.0024438
0.00708877
-0.00267131
0.00696695
0.00323464
0.00710071
-0.00346113
0.00693971
0.00417659
0.00708593
-0.00426894
0.00695327
0.00453615
0.00709344
-0.00526802
0.00743076
-7.23432e-05
0.00831376
-0.0156105
0.00794715
0.0133924
0.0071068
0.00783516
0.00637122
0.00962359
0.00603844
0.000914227
0.00567332
0.00360585
0.00551806
-0.000406931
0.00533834
0.00211073
0.00526612
-0.000587046
0.00516303
0.0014439
0.00511321
-0.000400237
0.00503636
0.00112703
0.00498969
-0.000166493
0.00492739
0.000870863
0.00488564
-3.91504e-05
0.0048368
0.000633496
0.00480191
1.76972e-05
0.00476348
0.000461207
0.00473408
5.95044e-05
0.00470425
0.000336425
0.00468175
6.6277e-05
0.00466181
0.000221229
0.0046496
2.78264e-05
0.00464309
9.19846e-05
0.00464599
-6.03584e-05
0.00465812
-7.19001e-05
0.00468097
-0.000199309
0.00471407
-0.000253376
0.00475728
-0.000359379
0.00480903
-0.000425862
0.00486712
-0.000487261
0.00492989
-0.000539177
0.00499431
-0.000545934
0.00505987
-0.000580834
0.00512386
-0.000544202
0.00518664
-0.000571447
0.00524549
-0.000491773
0.00530359
-0.000548754
0.00535714
-0.000430879
0.00541153
-0.000541147
0.00546126
-0.000370382
0.00551521
-0.000577915
0.00556426
-0.000314726
0.00562454
-0.000709372
0.00567432
-0.00021921
0.00575915
-0.00109405
-0.000191111
0.00839681
-0.0141681
0.00911878
-0.00463179
0.00937306
-0.00400025
0.00950626
-0.00124974
0.00958602
-0.000293945
0.00961747
0.000238968
0.0096213
0.000562291
0.00960527
0.000802889
0.00957428
0.000906914
0.00953003
0.00102151
0.00947407
0.00108673
0.00940602
0.00118722
0.00932647
0.00125667
0.00923537
0.00135853
0.00913399
0.00142094
0.00902337
0.00150659
0.00890652
0.00151875
0.00878451
0.00157433
0.0086608
0.00152953
0.0085364
0.00155007
0.00841468
0.00145044
0.00829548
0.00145814
0.00818241
0.00130244
0.00807267
0.00134289
0.00797046
0.00114303
0.00787135
0.00123302
0.00778085
0.000982101
0.00769234
0.00114364
0.00761425
0.000805421
0.00753567
0.00108569
0.00747004
0.000613944
0.00740084
0.00105458
0.00734884
0.000385327
0.00728784
0.00106572
0.00725032
0.000113493
0.00719565
0.00113593
0.00717472
-0.00022939
0.00712319
0.00129668
0.00712164
-0.000666359
0.00706967
0.00155953
0.00709218
-0.00122662
0.00703462
0.00195467
0.00708687
-0.00193361
0.00701695
0.00251372
0.00710077
-0.00275513
0.00700602
0.0033294
0.0071097
-0.00356481
0.00698597
0.00430031
0.00709026
-0.00437323
0.00700065
0.00462576
0.00709674
-0.00536411
0.00745645
-0.000432045
0.00829775
-0.0164519
0.00797434
0.0137158
0.00715969
0.0086498
0.00649876
0.0102845
0.00617738
0.0012356
0.00581312
0.00397011
0.00564332
-0.000237129
0.00545579
0.00229826
0.00537306
-0.000504316
0.00526564
0.00155132
0.00520966
-0.000344253
0.00513074
0.00120594
0.00508035
-0.000116102
0.00501684
0.000934375
0.00497251
5.17735e-06
0.0049226
0.000683405
0.00488569
5.46055e-05
0.00484624
0.000500663
0.00481526
9.04823e-05
0.00478456
0.000367129
0.00476094
8.98931e-05
0.00474046
0.000241708
0.00472773
4.05613e-05
0.00472124
9.8467e-05
0.0047244
-6.35174e-05
0.00473729
-8.47829e-05
0.00476116
-0.000223184
0.00479559
-0.000287807
0.00484024
-0.000404026
0.00489349
-0.000479108
0.00495302
-0.000546798
0.00501713
-0.000603281
0.00508279
-0.000611594
0.0051494
-0.00064745
0.00521435
-0.000609153
0.00527791
-0.000634999
0.00533753
-0.000551399
0.00539617
-0.000607388
0.00545036
-0.000485074
0.00550512
-0.000595901
0.00555548
-0.000420743
0.00560965
-0.000632093
0.00565945
-0.000364523
0.00571978
-0.000769705
0.00577072
-0.000270149
0.00585497
-0.0011783
-0.00025194
0.00835691
-0.0149493
0.00905558
-0.00533046
0.0093067
-0.00425138
0.00944343
-0.00138647
0.00952599
-0.000376509
0.00956074
0.000204224
0.00956859
0.000554434
0.00955731
0.000814179
0.00953138
0.00093284
0.00949229
0.0010606
0.00944119
0.00113783
0.00937757
0.00125084
0.00930185
0.00133238
0.00921404
0.00144634
0.00911537
0.00151961
0.00900704
0.00161492
0.008892
0.00163379
0.00877157
0.00169476
0.00864913
0.00165197
0.00852599
0.00167321
0.00840536
0.00157108
0.00828743
0.00157607
0.00817544
0.00141442
0.00806712
0.00145121
0.00796604
0.0012441
0.00786852
0.00133054
0.0077791
0.00107152
0.00769232
0.00123043
0.00761512
0.000882614
0.00753842
0.00116239
0.00747337
0.000678992
0.0074063
0.00112165
0.00735438
0.000437248
0.00729594
0.00112416
0.00725777
0.000151665
0.00720638
0.00118732
0.00718367
-0.000206684
0.00713667
0.00134368
0.00713164
-0.000661326
0.00708619
0.00160498
0.00710261
-0.00124304
0.00705473
0.00200256
0.00709696
-0.00197584
0.00704152
0.00256916
0.00710956
-0.00282317
0.00703613
0.00340282
0.00711613
-0.00364481
0.00702123
0.00439521
0.00709327
-0.00444526
0.00703501
0.00468402
0.00710014
-0.00542924
0.00747429
-0.000806201
0.00828525
-0.0172628
0.00799193
0.0140091
0.00719981
0.00944193
0.00660327
0.0108811
0.00629872
0.00154015
0.00594187
0.00432695
0.00576168
-5.69361e-05
0.00556788
0.00249207
0.00547599
-0.000412428
0.00536449
0.00166282
0.005303
-0.000282768
0.00522203
0.00128691
0.00516834
-6.24133e-05
0.00510363
0.000999094
0.00505703
5.17706e-05
0.00500609
0.000734347
0.00496739
9.33041e-05
0.00492695
0.000541101
0.00489456
0.000122872
0.00486303
0.000398664
0.00483841
0.00011451
0.00481743
0.000262691
0.00480426
5.37331e-05
0.00479784
0.000104886
0.00480131
-6.69892e-05
0.00481496
-9.8434e-05
0.00483986
-0.000248078
0.00487558
-0.000323532
0.00492161
-0.000450054
0.00497626
-0.000533765
0.00503715
-0.000607686
0.00510249
-0.000668617
0.00516927
-0.000678373
0.00523683
-0.000715009
0.00530262
-0.000674948
0.00536685
-0.000699224
0.00542712
-0.000611673
0.00548621
-0.000666474
0.00554092
-0.000539791
0.00559598
-0.000650956
0.00564684
-0.000471607
0.00570121
-0.000686467
0.00575161
-0.000414921
0.005812
-0.000830096
0.0058639
-0.000322048
0.00594765
-0.00126205
-0.000314077
0.00831979
-0.0156933
0.00899487
-0.00600554
0.00924352
-0.00450003
0.00938384
-0.00152679
0.00946913
-0.000461807
0.00950698
0.000166377
0.00951846
0.000542956
0.00951136
0.000821276
0.00948994
0.00095426
0.00945548
0.00109507
0.00940877
0.00118454
0.00934917
0.00131044
0.00927694
0.00140462
0.0091921
0.00153118
0.00909587
0.00161584
0.00898956
0.00172122
0.00887612
0.00174724
0.00875706
0.00181381
0.00863574
0.0017733
0.0085137
0.00179524
0.00839405
0.00169073
0.00827727
0.00169284
0.00816632
0.00152537
0.00805933
0.00155821
0.00795937
0.00134406
0.00786334
0.00142658
0.00777502
0.00115983
0.00768983
0.00131562
0.00761358
0.000958864
0.00753857
0.0012374
0.0074742
0.00074336
0.00740899
0.00118686
0.00735735
0.000488892
0.00730106
0.00118045
0.00726258
0.000190149
0.00721388
0.00123602
0.00718998
-0.000182777
0.0071466
0.00138706
0.00713902
-0.000653755
0.00709872
0.00164528
0.00711056
-0.00125489
0.00707025
0.00204287
0.00710486
-0.00201045
0.00706073
0.00261329
0.00711668
-0.00287912
0.00705978
0.00345972
0.00712167
-0.0037067
0.00704835
0.00446853
0.00709629
-0.0044932
0.00706015
0.00472015
0.00710377
-0.00547286
0.00748707
-0.0011895
0.00827489
-0.0180506
0.00800379
0.0142802
0.007231
0.0102147
0.00668855
0.0114235
0.00640351
0.0018252
0.0060595
0.00467096
0.00587291
0.000129657
0.00567468
0.00269029
0.005575
-0.000312749
0.00545984
0.00177799
0.00539348
-0.000216412
0.00531057
0.00136982
0.00525397
-5.81327e-06
0.0051881
0.00106496
0.00513952
0.000100355
0.00508761
0.000786261
0.00504732
0.00013359
0.00500595
0.000582466
0.0049723
0.00015653
0.00493998
0.000430981
0.00491447
0.000140019
0.00489303
0.000284134
0.0048795
6.72642e-05
0.00487318
0.000111206
0.00487701
-7.08181e-05
0.00489143
-0.000112859
0.00491734
-0.00027399
0.00495432
-0.000360511
0.00500167
-0.000497403
0.00505766
-0.000589752
0.0051198
-0.00066983
0.00518627
-0.000735081
0.00525405
-0.00074616
0.00532245
-0.000783404
0.00538898
-0.000741476
0.00545377
-0.000764022
0.00551458
-0.000672484