/*--------------------------------*- C++ -*----------------------------------*\
| =========                 |                                                 |
| \\      /  F ield         | OpenFOAM: The Open Source CFD Toolbox           |
|  \\    /   O peration     | Version:  2412                                  |
|   \\  /    A nd           | Website:  www.openfoam.com                      |
|    \\/     M anipulation  |                                                 |
\*---------------------------------------------------------------------------*/
FoamFile
{
    version     2.0;
    format      ascii;
    arch        "LSB;label=32;scalar=64";
    class       volScalarField;
    location    "0.9";
    object      epsilon;
}
// * * * * * * * * * * * * * * * * * * * * * * * * * * * * * * * * * * * * * //

dimensions      [0 2 -3 0 0 0 0];

internalField   nonuniform List<scalar> 
13079
(
417.841
470.173
538.923
634.739
771.543
949.826
1151.82
1350.71
1522.63
1658.23
1759.26
1835.5
1898.07
1957.91
2022.81
2097.48
2179.23
2256.28
2306.17
2315.86
2294.97
2272.86
2269.4
2293.85
2340.2
2407.29
2487.46
2586.35
2698.55
2837.48
2996.18
3196.8
3426.17
3720.11
4052.62
4484.49
4965.16
5604.91
6307.51
7284.35
8359.51
9981.82
11864.9
14983.2
18775.6
25199.2
32821.2
45487.7
58627.3
79211.1
99158.1
133808
273272
351133
386029
413226
423312
425542
403748
377677
345497
323681
307637
300524
295131
291755
286376
280472
272319
263431
252797
241403
228629
215167
200762
185966
170744
417.058
468.348
535.687
629.689
764.3
940.309
1140.49
1338.36
1510.03
1645.72
1746.68
1822.22
1883.26
1940.66
2002.37
2073.36
2151.16
2223.72
2268.5
2273.43
2249.95
2227.96
2226.55
2253.74
2302.93
2372.66
2455.36
2556.62
2671.2
2812.35
2973.2
3175.64
3406.63
3701.59
4034.72
4466.3
4946.05
5583.49
6282.83
7254.16
8322.97
9936.39
11811.5
14918.8
18699.1
25094.7
32657.8
45173.7
58034.2
78133.2
97633.6
131556
268391
343275
375253
400168
408959
410137
388500
363102
332378
311887
297011
290579
285565
282358
277080
271300
263312
254660
244300
233228
220788
207679
193625
179185
164315
416.295
466.568
532.536
624.777
757.257
931.066
1129.52
1326.45
1497.95
1633.83
1734.81
1809.8
1869.48
1924.67
1983.45
2051.07
2125.17
2193.44
2233.24
2233.6
2207.74
2186.02
2186.66
2216.51
2268.4
2340.59
2425.66
2529.15
2645.95
2789.15
2952.01
3156.15
3388.62
3684.53
4018.2
4449.46
4928.3
5563.5
6259.72
7225.79
8288.57
9893.62
11761.4
14858.4
18627.3
24995.4
32500.3
44866.4
57453.4
77083.9
96159.7
129375
263625
335719
364943
387654
395187
395356
373891
349158
319824
300562
286733
280873
276146
273043
267820
262132
254288
245855
235760
225000
212889
200130
186426
172344
157829
415.55
464.832
529.468
619.998
750.409
922.088
1118.88
1314.95
1486.36
1622.51
1723.63
1798.2
1856.68
1909.86
1965.99
2030.5
2101.15
2165.29
2200.23
2196.21
2168.18
2146.86
2149.55
2181.95
2236.39
2310.9
2398.19
2503.75
2622.62
2767.76
2932.49
3138.2
3372.05
3668.81
4002.96
4433.88
4911.83
5544.86
6238.08
7199.13
8256.21
9853.38
11714.4
14801.7
18559.8
24901.2
32348.4
44565.8
56884.9
76063
94734.8
127261
258969
328451
355076
375662
381978
381180
359904
335824
307810
289681
276780
271390
266866
263806
258597
252972
245254
237027
227186
216730
204944
192531
179178
165454
151298
414.823
463.14
526.48
615.348
743.748
913.365
1108.58
1303.85
1475.25
1611.75
1713.1
1787.37
1844.82
1896.2
1949.9
2011.57
2079
2139.15
2169.33
2161.1
2131.11
2110.3
2115.04
2149.9
2206.74
2283.43
2372.79
2480.3
2601.1
2748.04
2914.51
3121.69
3356.81
3654.35
3988.92
4419.48
4896.55
5527.49
6217.86
7174.12
8225.83
9815.6
11670.4
14748.7
18496.6
24811.9
32201.9
44271.6
56328.6
75070.1
93357.8
125213
254418
321453
345631
364173
369315
367594
346521
323076
296313
279219
267134
262116
257718
254647
249415
243829
236219
228185
218590
208431
196963
184894
171890
158527
144732
130923
117364
104357
92053
80649.7
70309
61064.3
53041.4
46102.2
40315.9
35402.4
31419
27977.8
25206.7
22669.4
20616.2
18573
16924.5
15168.9
13772.8
12277.5
11155.7
414.113
461.489
523.568
610.821
737.268
904.889
1098.58
1293.13
1464.58
1601.52
1703.19
1777.28
1833.84
1883.62
1935.13
1994.22
2058.62
2114.89
2140.43
2128.16
2096.39
2076.2
2082.95
2120.17
2179.29
2258.03
2349.32
2458.65
2581.27
2729.89
2897.99
3106.53
3342.83
3641.08
3976.01
4406.21
4882.41
5511.36
6198.99
7150.69
8197.35
9780.19
11629.3
14699.3
18437.5
24727.2
32060.6
43983.8
55784.6
74105.2
92027.5
123227
249969
314712
336588
353169
357181
354583
333721
310895
285309
269156
257777
253040
248696
245564
240278
234709
227194
219342
209983
200113
188960
177231
164576
151574
138144
124717
111523
98883.2
86947.7
75914.3
65944.7
57072
49415.1
42830.3
37372.8
32759.8
29035.2
25821.5
23235.7
20864.6
18943.7
17033
15489.6
13856.8
12557
11186.6
10162.5
413.42
459.877
520.731
606.414
730.963
896.65
1088.89
1282.78
1454.35
1591.79
1693.87
1767.89
1823.71
1872.07
1921.62
1978.34
2039.9
2092.42
2113.4
2097.25
2063.9
2044.41
2053.16
2092.63
2153.9
2234.56
2327.66
2438.69
2563
2713.2
2882.82
3092.63
3330.02
3628.92
3964.17
4394.01
4869.37
5496.4
6181.42
7128.81
8170.73
9747.09
11590.9
14653.3
18382.3
24647
31924.3
43702.3
55253.1
73168.3
90743.1
121303
245617
308215
327929
342630
345560
342129
321488
299259
274775
259470
248693
244151
239796
236562
231192
225623
218189
210509
201378
191792
180949
169557
157250
144610
131547
118506
105687
93423.6
81867.6
71218.2
61635.8
53152.1
45876.1
39657.5
34535.6
30225.9
26759.2
23770.7
21367
19160
17369.7
15590.8
14152.7
12642.3
11439.1
10191.6
9262.86
412.743
458.305
517.966
602.122
724.827
888.64
1079.48
1272.78
1444.53
1582.53
1685.1
1759.16
1814.39
1861.51
1909.31
1963.89
2022.77
2071.61
2088.14
2068.28
2033.5
2014.8
2025.5
2067.14
2130.44
2212.89
2307.69
2420.31
2546.21
2697.88
2868.92
3079.92
3318.32
3617.81
3953.35
4382.81
4857.36
5482.56
6165.12
7108.42
8145.89
9716.23
11555.3
14610.5
18331
24571.1
31792.9
43427.2
54734.1
72259.2
89503.4
119438
241361
301947
319635
332539
334433
330214
309802
288146
264689
250141
239868
235442
231018
227641
222166
216580
209218
201699
192791
183481
172943
161885
149926
137650
124958
112306
99870
87994.1
76830.7
66581
57403.2
49325.4
42444.3
36601.6
31819.3
27812.8
24600.6
21833.1
19606.9
17560.5
15898.1
14249.2
12915.2
11525.5
10417.7
9289.02
8452.12
412.082
456.77
515.27
597.942
718.853
880.85
1070.36
1263.11
1435.1
1573.73
1676.87
1751.07
1805.84
1851.89
1898.14
1950.77
2007.12
2052.39
2064.55
2041.14
2005.09
1987.24
1999.86
2043.57
2108.77
2192.91
2289.3
2403.41
2530.79
2683.84
2856.21
3068.31
3307.65
3607.69
3943.48
4372.58
4846.35
5469.81
6150.02
7089.46
8122.8
9687.54
11522.4
14571
18283.3
24499.3
31666.2
43158.4
54227.7
71377.8
88307.4
117631
237196
295898
311687
322878
323783
318822
298642
277533
255029
241149
231286
226906
222360
218808
213207
207591
200292
192928
184235
175195
164959
154233
142621
130709
118392
106134
94090.2
82613.3
71857.3
62024.5
53269.4
45614
39139.6
33679.2
29237.2
25530.7
22567.2
20014.4
17959.7
16068.9
14530.9
13009.1
11777
10504.7
9489.89
8474.66
7724.74
411.436
455.271
512.642
593.87
713.037
873.271
1061.5
1253.76
1426.03
1565.36
1669.14
1743.58
1798.02
1843.16
1888.05
1938.93
1992.88
2034.64
2042.53
2015.73
1978.56
1961.61
1976.11
2021.78
2088.79
2174.51
2272.38
2387.89
2516.66
2671.01
2844.62
3057.75
3297.97
3598.5
3934.52
4363.27
4836.29
5458.09
6136.1
7071.9
8101.4
9660.97
11492
14534.6
18239.2
24431.5
31544.1
42895.8
53734.1
70523.8
87154.1
115879
233119
290054
304070
313628
313593
307933
287988
267399
245774
232476
222938
218535
213822
210067
204326
198669
191427
184211
175728
166952
157013
146615
135350
123804
111867
100007
88366.5
77301.9
66969.8
57572.3
49257.6
42039.2
35980.5
30905.1
26800.3
23387.4
20664.3
18318
16427.6
14686.7
13268.4
11869.5
10736.2
9576.93
8651.49
7743.15
7074.54
410.805
453.807
510.078
589.902
707.371
865.897
1052.89
1244.71
1417.33
1557.4
1661.89
1736.66
1790.89
1835.28
1878.99
1928.29
1979.97
2018.28
2021.99
1991.95
1953.8
1937.8
1954.12
2001.68
2070.38
2157.58
2256.85
2373.66
2503.74
2659.3
2834.07
3048.17
3289.2
3590.2
3926.41
4354.82
4827.13
5447.37
6123.3
7055.69
8081.63
9636.44
11464
14501.1
18198.5
24367.6
31426.5
42639.4
53253.1
69696.9
86042.4
114181
229128
284404
296766
304773
303846
297530
277819
257723
236902
224106
214811
210327
205407
201425
195532
189826
182638
175562
167284
158767
149122
139050
128133
116954
105402
93946.3
82720.4
72082.9
62192.2
53248.6
45390.9
38621.4
32983
28291.1
24516.7
21387.8
18894.7
16745.3
15011.1
13413.1
12109.3
10828.1
9789.57
8737.78
7897.32
7088.55
6495.05
410.188
452.378
507.577
586.034
701.851
858.718
1044.53
1235.96
1408.96
1549.82
1655.1
1730.28
1784.41
1828.21
1870.92
1918.79
1968.31
2003.23
2002.85
1969.72
1930.72
1915.71
1933.8
1983.15
2053.44
2142.03
2242.6
2360.64
2491.94
2648.64
2824.5
3039.51
3281.29
3582.73
3919.12
4347.2
4818.84
5437.6
6111.59
7040.79
8063.44
9613.89
11438.5
14470.6
18161
24307.4
31313.2
42389.3
52785
68897
84971.1
112534
225220
278938
289758
296294
294524
287593
268115
248481
228395
216022
206896
202277
197117
192890
186837
181077
173938
166999
158923
150658
141305
131556
120987
110179
99016.5
87973.3
77174.7
66980.2
57549.4
49077.5
41691
35378.1
30160.5
25845.9
22391.2
19534.1
17258.9
15295.5
13708.5
12245.8
11050.7
9881.36
8932.8
7982.11
7221.52
6504.54
5979.72
409.585
450.981
505.136
582.262
696.472
851.729
1036.41
1227.48
1400.91
1542.61
1648.73
1724.41
1778.56
1821.91
1863.77
1910.38
1957.82
1989.41
1985.02
1948.95
1909.22
1895.23
1915.04
1966.08
2037.88
2127.77
2229.56
2348.75
2481.2
2638.97
2815.85
3031.7
3274.2
3576.03
3912.6
4340.36
4811.37
5428.75
6100.93
7027.14
8046.79
9593.25
11415.3
14442.8
18126.8
24250.8
31204.1
42145.4
52329.7
68123.6
83939.3
110939
221392
273646
283033
288176
285609
278103
258856
239653
220231
208210
199185
194383
188957
184470
178253
172436
165346
158539
150661
142645
133580
124153
113933
103499
92733.3
82111.1
71753.6
62019.1
53066.3
45082.1
38177.3
32324
27522.2
23574.3
20425.7
17825.8
15755.1
13965.9
12516.7
11181.3
10088.4
9024.42
8160.58
7304.11
6617.85
5984.73
5522.13
408.995
449.616
502.755
578.585
691.23
844.922
1028.51
1219.28
1393.16
1535.76
1642.76
1719.02
1773.31
1816.34
1857.51
1902.98
1948.43
1976.73
1968.43
1929.57
1889.22
1876.26
1897.74
1950.4
2023.61
2114.71
2217.65
2337.92
2471.45
2630.22
2808.06
3024.71
3267.87
3570.08
3906.8
4334.27
4804.69
5420.78
6091.27
7014.7
8031.61
9574.47
11394.3
14417.7
18095.5
24197.6
31099.1
41907.6
51887.2
67376.5
82945.9
109392
217642
268516
276574
280402
277084
269041
250021
231218
212395
200655
191669
186645
180930
176174
169792
163919
156878
150200
142517
134746
125968
116862
106993
96935.3
86574.8
76383.9
66482.4
57224.8
48766.8
41283.3
34865.9
29469.7
25073.9
21478.1
18619
16260
14379.5
12752.4
11431.3
10214.6
9217.49
8251.8
7467.06
6697.64
6079.93
5522.83
5116.18
408.418
448.282
500.43
574.998
686.118
838.29
1020.83
1211.32
1385.71
1529.23
1637.18
1714.1
1768.61
1811.46
1852.08
1896.55
1940.08
1965.14
1953.01
1911.49
1870.64
1858.73
1881.81
1936
2010.54
2102.78
2206.79
2328.08
2462.62
2622.34
2801.08
3018.47
3262.26
3564.82
3901.69
4328.88
4798.76
5413.64
6082.57
7003.44
8017.87
9557.48
11375.5
14395.1
18067.1
24147.7
30998
41676
51457.4
66655.1
81989.7
107892
213967
263539
270367
272956
268932
260390
241590
223157
204867
193346
184344
179063
173043
168013
161469
155540
148551
142000
134511
126981
118488
109702
100187
90511.6
80564.9
70816.7
61386.3
52621.9
44673.1
37698.8
31769
26821.8
22817.2
19555.3
16967.2
14831.9
13127.1
11649.5
10446.9
9340.24
8432.06
7557.52
6846.05
6156.43
5601.49
5112.84
4756.17
407.854
446.977
498.16
571.499
681.133
831.827
1013.35
1203.61
1378.53
1523.01
1631.97
1709.61
1764.45
1807.23
1847.45
1891.02
1932.7
1954.56
1938.69
1894.66
1853.39
1842.54
1867.17
1922.81
1998.59
2091.91
2196.91
2319.16
2454.65
2615.26
2794.85
3012.95
3257.32
3560.22
3897.22
4324.17
4793.55
5407.32
6074.81
6993.31
8005.5
9542.21
11358.7
14375
18041.6
24100.9
30900.9
41450.6
51040.5
65959.1
81069.6
106438
210365
258708
264399
265822
261136
252129
233542
215449
197631
186270
177204
171637
165302
159997
153297
147316
140382
133959
126663
119371
111163
102696
93538.9
84251.1
74728
65434.6
56490.1
48233.4
40804.4
34342.4
28894.4
24382.4
20750.3
17801.6
15464.6
13535.1
11991.2
10650.9
9557.09
8552
7725.95
6935.34
6291.27
5674.32
5176.46
4749.1
4436.87
407.302
445.702
495.943
568.085
676.27
825.526
1006.08
1196.13
1371.61
1517.1
1627.09
1705.52
1760.78
1803.62
1843.56
1886.34
1926.24
1944.94
1925.42
1879
1837.4
1827.61
1853.74
1910.75
1987.7
2082.01
2187.96
2311.1
2447.49
2608.94
2789.32
3008.09
3253.02
3556.23
3893.37
4320.1
4789.03
5401.76
6067.94
6984.27
7994.47
9528.61
11343.9
14357.3
18018.7
24057.2
30807.4
41231.3
50636.2
65287.9
80184.6
105028
206834
254012
258657
258985
253680
244242
225860
208075
190673
179418
170245
164368
157713
152136
145290
139263
132390
126094
118991
111936
104012
95866.9
87071.3
78177.6
69088.5
60261.9
51817.1
44079.6
37176
31223.3
26245.3
22149.7
18868
16209.9
14103.4
12361.9
10964.6
9749.54
8755.36
7843.39
7092.79
6379
5796.56
5245.4
4799.17
4426.43
4153.53
406.762
444.455
493.778
564.752
671.525
819.382
998.995
1188.87
1364.94
1511.46
1622.54
1701.82
1757.59
1800.59
1840.37
1882.47
1920.62
1936.2
1913.13
1864.46
1822.6
1813.87
1841.43
1899.74
1977.78
2073.04
2179.87
2303.85
2441.08
2603.32
2784.46
3003.86
3249.31
3552.83
3890.11
4316.63
4785.15
5396.95
6061.93
6976.28
7984.72
9516.62
11331
14341.9
17998.3
24016.4
30717.7
41018
50244.6
64641.2
79333.5
103660
203372
249444
253127
252430
246547
236709
218524
201018
183977
172779
163463
157260
150285
144443
137463
131398
124593
118425
111517
104697
97059.5
89236.2
80807.5
72314.9
63670.2
55322
47388.3
40177
33798.7
28346.1
23820.5
20118.5
17162.5
14771.4
12874.9
11303.9
10039.5
8938.24
8034.79
7207.82
6526.2
5882.36
5355.96
4864.09
4464.32
4140.09
3901.89
406.233
443.235
491.663
561.498
666.894
813.389
992.096
1181.82
1358.51
1506.08
1618.29
1698.49
1754.85
1798.12
1837.85
1879.36
1915.8
1928.29
1901.76
1850.96
1808.93
1801.25
1830.19
1889.72
1968.79
2064.93
2172.59
2297.36
2435.39
2598.37
2780.22
3000.21
3246.16
3549.97
3887.39
4313.74
4781.89
5392.84
6056.74
6969.29
7976.21
9506.17
11320
14328.6
17980.4
23978.3
30631.5
40810.8
49865.6
64018.4
78515.3
102333
199977
244996
247798
246144
239722
229514
211517
194261
177530
166345
156855
150316
143026
136929
129829
123736
117008
110971
104260
97674.9
90325
82826.3
74770
66685.8
58495.6
50635.6
43220.8
36537.9
30678.5
25710.3
21614.6
18280.2
15624.1
13476.2
11769.6
10352.5
9207.84
8209.59
7388.48
6638.81
6019.97
5439.52
4963.87
4525.19
4167.1
3885.83
3678.15
405.715
442.042
489.596
558.321
662.373
807.54
985.372
1174.97
1352.29
1500.95
1614.33
1695.5
1752.53
1796.18
1835.96
1876.95
1911.73
1921.17
1891.27
1838.46
1796.32
1789.68
1819.93
1880.63
1960.66
2057.62
2166.06
2291.58
2430.35
2594.04
2776.56
2997.12
3243.54
3547.63
3885.19
4311.4
4779.23
5389.41
6052.33
6963.28
7968.88
9497.21
11310.8
14317.4
17964.8
23943
30548.8
40609.7
49499
63419
77729
101047
196647
240662
242658
240112
233190
222640
204820
187786
171319
160109
150421
143538
135943
129606
122404
116295
109653
103751
97239.1
90889.5
83830.1
76658.6
68980.5
61311.7
53584.8
46220.3
39328.1
33169.5
27816.1
23311.2
19619.2
16624.2
14241.6
12313.5
10777.6
9498.62
8461.69
7556.32
6809.72
6130.08
5568.16
5044.94
4615.08
4223.97
3903.16
3659.83
3478.96
405.209
440.875
487.576
555.218
657.958
801.832
978.818
1168.32
1346.3
1496.06
1610.64
1692.83
1750.6
1794.72
1834.66
1875.2
1908.35
1914.78
1881.6
1826.9
1784.71
1779.1
1810.61
1872.4
1953.33
2051.06
2160.23
2286.45
2425.92
2590.28
2773.44
2994.53
3241.4
3545.78
3883.48
4309.58
4777.13
5386.62
6048.69
6958.2
7962.7
9489.68
11303.2
14308.2
17951.4
23910.2
30469.4
40414.5
49144.7
62842.4
76973.5
99798.4
193380
236434
237697
234321
226936
216070
198417
181579
165333
154063
144159
136931
129045
122485
115201
109090
102545
96781.3
90473.3
84360.3
77594.4
70753.2
63459.2
56212
48955
42089.7
35718.2
30074
25207.6
21140.3
17822.7
15138.3
13003
11272.2
9889.08
8733.66
7793.24
6971.41
6292.05
5675.66
5165.21
4693.49
4304.8
3956.14
3668.58
3458.73
3301.35
404.712
439.732
485.602
552.186
653.646
796.258
972.425
1161.85
1340.5
1491.39
1607.2
1690.46
1749.05
1793.72
1833.91
1874.07
1905.62
1909.08
1872.71
1816.22
1774.05
1769.45
1802.16
1864.98
1946.75
2045.21
2155.05
2281.94
2422.08
2587.07
2770.82
2992.43
3239.73
3544.38
3882.24
4308.24
4775.57
5384.45
6045.77
6954.01
7957.62
9483.52
11297.3
14301
17940.2
23879.9
30393.3
40225.3
48802.7
62288.2
76247.7
98587.2
190176
232305
232903
228758
220945
209788
192292
175625
159560
148201
138067
130499
122340
115578
108234
102135
95698.7
90079.6
83979.9
78105.3
71636.3
65128.6
58223.6
51402.7
44619.5
38252.7
32394.3
27248.2
22844.8
19185.7
16212.1
13809.2
11896
10341.5
9094.39
8049.17
7195.03
6448.19
5829.39
5269.99
4805.94
4380.46
4028.7
3717.83
3459.91
3279.54
3142.74
404.226
438.614
483.671
549.224
649.433
790.815
966.188
1155.55
1334.89
1486.93
1604
1688.38
1747.85
1793.17
1833.68
1873.52
1903.49
1904.01
1864.56
1806.39
1764.27
1760.66
1794.52
1858.31
1940.88
2040.01
2150.49
2278
2418.77
2584.36
2768.68
2990.78
3238.5
3543.42
3881.43
4307.38
4774.51
5382.87
6043.54
6950.68
7953.59
9478.67
11292.9
14295.5
17931
23851.9
30320.5
40042
48472.7
61755.7
75550.6
97411.8
187032
228270
228267
223411
215203
203778
186429
169910
153991
142518
132147
124247
115836
108895
101515
95444
89129.7
83661
77774.5
72140.6
65972.1
59800.5
53288.4
46896.4
40587
34713.1
29354.4
24684.7
20715.9
17433.8
14773
12623.3
10908.5
9510.71
8384.35
7437.18
6660.06
5980.42
5416.07
4907.92
4485.63
4101.56
3782.87
3505.62
3274.05
3119.64
3000.85
403.75
437.52
481.784
546.329
645.316
785.496
960.1
1149.42
1329.46
1482.67
1601.02
1686.56
1746.98
1793.02
1833.94
1873.51
1901.92
1899.54
1857.1
1797.36
1755.34
1752.7
1787.65
1852.35
1935.66
2035.42
2146.51
2274.6
2415.96
2582.12
2766.99
2989.56
3237.67
3542.86
3881.03
4306.95
4773.95
5381.85
6041.98
6948.17
7950.57
9475.08
11290
14291.7
17923.7
23826.1
30250.7
39864.6
48154.6
61244.4
74881.2
96271
183946
224324
223780
218269
209698
198027
180814
164421
148616
137010
126399
118179
109541
102447
95055.4
89030.2
82850.7
77539
71871
66480.3
60615.3
54781.9
48664.7
42701.3
36861.5
31469.6
26591.6
22372.2
18806.9
15869.1
13490.6
11567.3
10028.6
8769.67
7750.32
6890.25
6181.82
5562.34
5046.87
4584.75
4199.96
3852.94
3563.82
3316.43
3108.3
2976.73
2873.7
403.284
436.448
479.937
543.499
641.292
780.298
954.155
1143.45
1324.2
1478.59
1598.25
1684.99
1746.42
1793.25
1834.66
1874
1900.88
1895.64
1850.29
1789.08
1747.2
1745.51
1781.5
1847.05
1931.05
2031.4
2143.05
2271.7
2413.62
2580.32
2765.7
2988.72
3237.22
3542.68
3881.02
4306.94
4773.84
5381.36
6041.05
6946.45
7948.51
9472.7
11288.5
14289.6
17918.2
23802.6
30184
39692.9
47848.3
60753.7
74238.6
95163.6
180919
220461
219432
213320
204417
192519
175433
159145
143426
131672
120822
112300
103464
96243.9
88866.4
82904.3
76872.9
71725
66280.7
61135.5
55576.4
50081.8
44359.2
38820.9
33441.9
28516
24095.1
20296.2
17101.6
14475.7
12350.1
10628
9245.21
8109.02
7184.31
6401.54
5754.32
5188.66
4717.06
4296.21
3945.07
3631.14
3368.45
3147.57
2960.28
2848.8
2759.54
402.827
435.398
478.131
540.732
637.357
775.216
948.346
1137.63
1319.11
1474.68
1595.67
1683.66
1746.15
1793.85
1835.8
1874.96
1900.31
1892.25
1844.09
1781.5
1739.8
1739.03
1776.01
1842.37
1927.01
2027.92
2140.1
2269.27
2411.72
2578.93
2764.81
2988.26
3237.13
3542.86
3881.38
4307.33
4774.17
5381.39
6040.72
6945.48
7947.39
9471.47
11288.3
14289.1
17914.5
23781.1
30120.3
39527.1
47553.5
60283.1
73621.7
94088.4
177947
216675
215215
208553
199346
187241
170273
154071
138415
126501
115418
106614
97609.4
90292.9
82956.5
77075.3
71205.1
66227.7
61012.1
56114.3
50862.4
45705.6
40374.6
35254
30322.3
25842
21850.7
18440.2
15583
13237.6
11337.2
9793.27
8548.01
7520.07
6678.98
5964.8
5372.11
4854.57
4422.31
4038.44
3717.47
3433.11
3194.01
2996.67
2827.89
2734.08
2656.86
402.379
434.371
476.364
538.026
633.509
770.246
942.67
1131.95
1314.16
1470.93
1593.28
1682.54
1746.15
1794.78
1837.34
1876.35
1900.19
1889.36
1838.48
1774.6
1733.1
1733.24
1771.16
1838.27
1923.5
2024.93
2137.61
2267.27
2410.22
2577.93
2764.27
2988.14
3237.38
3543.37
3882.09
4308.09
4774.91
5381.9
6040.98
6945.24
7947.15
9471.35
11289.5
14290.1
17912.4
23761.5
30059.4
39366.9
47270.1
59831.8
73029.6
93044.4
175031
212963
211122
203959
194476
182181
165320
149189
133573
121493
110187
101124
91984.6
84601.7
77332.9
71550.2
65853.8
61053.4
56070.6
51421.4
46476.4
41654.4
36708.7
31994.8
27492.7
23433.5
19841.6
16786.7
14234.1
12139.1
10438.4
9051.65
7927.49
6994.91
6227.7
5574.35
5030.26
4555.76
4158.75
3808.02
3514.08
3256.1
3038.07
2861.63
2709.31
2631.04
2564.34
401.939
433.364
474.635
535.38
629.744
765.383
937.119
1126.41
1309.36
1467.34
1591.06
1681.63
1746.41
1796.02
1839.25
1878.14
1900.48
1886.91
1833.42
1768.33
1727.07
1728.07
1766.89
1834.7
1920.5
2022.41
2135.55
2265.68
2409.11
2577.28
2764.07
2988.35
3237.94
3544.2
3883.12
4309.2
4776.05
5382.87
6041.78
6945.68
7947.75
9472.27
11291.8
14292.4
17911.9
23743.9
30001.3
39212.3
46997.8
59399.5
72461.4
92030.5
172169
209321
207143
199526
189793
177325
160564
144487
128896
116645
105131
95835.8
86594.5
79176
72000.7
66333.8
60822.6
56205.1
51458.3
47057.8
42417.4
37924.9
33355.1
29033.2
24939.4
21274
18049.7
15317.4
13038
11165.6
9641.09
8392.71
7375.01
6526.4
5824.45
5225.09
4724.33
4288.32
3922.92
3601.86
3332.14
3097.72
2898.5
2740.62
2602.93
2538.33
2480.81
401.509
432.377
472.943
532.79
626.061
760.625
931.69
1121
1304.69
1463.89
1588.99
1680.9
1746.89
1797.56
1841.5
1880.3
1901.16
1884.9
1828.87
1762.67
1721.66
1723.51
1763.16
1831.64
1917.96
2020.32
2133.9
2264.47
2408.35
2576.97
2764.19
2988.86
3238.79
3545.33
3884.46
4310.65
4777.56
5384.28
6043.11
6946.78
7949.16
9474.2
11295.4
14296.2
17912.8
23728.1
29946
39063.3
46736.5
58985.4
71916.2
91045.6
169360
205744
203274
195247
185288
172663
155993
139958
124377
111956
100250
90751.2
81443.3
74019.9
66963.2
61428.2
56112.5
51682.8
47173.8
43020.7
38680.9
34510
30303.5
26355.7
22645.8
19345.2
16456.2
14014.6
11978.5
10303
8933.81
7806.97
6882.81
6108.15
5463.86
4912.45
4450.35
4048.78
3711.73
3417.25
3169.23
2955.84
2773.41
2632.02
2507.35
2454.77
2405.27
401.087
431.411
471.286
530.256
622.456
755.968
926.376
1115.72
1300.15
1460.57
1587.08
1680.35
1747.6
1799.37
1844.07
1882.8
1902.18
1883.27
1824.8
1757.56
1716.84
1719.5
1759.95
1829.05
1915.85
2018.63
2132.62
2263.62
2407.92
2576.96
2764.6
2989.65
3239.92
3546.73
3886.09
4312.41
4779.42
5386.11
6044.94
6948.5
7951.35
9477.08
11300
14301.1
17915.2
23714
29893.4
38919.7
46485.9
58589.1
71393.1
90088.7
166603
202229
199505
191111
180951
168182
151596
135591
120009
107423
95544.4
85873.1
76533.8
69136
62221.3
56833
51721.5
47483.3
43212.4
39304
35258.2
31398.8
27540.3
23946
20593.6
17627.6
15042.3
12860.7
11040.7
9538.92
8306.1
7285.94
6443.94
5734.42
5141.15
4632.37
4204.78
3834.04
3522.42
3251.76
3023.18
2828.58
2661.16
2534.43
2421.33
2379.34
2336.82
400.673
430.464
469.664
527.776
618.927
751.407
921.174
1110.55
1295.74
1457.38
1585.29
1679.97
1748.51
1801.43
1846.93
1885.61
1903.52
1882.02
1821.19
1752.99
1712.56
1716.02
1757.22
1826.9
1914.14
2017.32
2131.7
2263.09
2407.8
2577.25
2765.28
2990.7
3241.3
3548.4
3887.99
4314.48
4781.62
5388.34
6047.24
6950.83
7954.26
9480.88
11305.7
14307.3
17918.9
23701.5
29843.3
38781.6
46245.8
58209.8
70891.1
89158.9
163896
198772
195833
187111
176771
163873
147364
131380
115790
103044
91015.6
81203.5
71867.7
64524.9
57773.8
52545.4
47644.8
43600.4
39566.2
35898
32137.8
28577.5
25049.2
21785.8
18763.3
16102
13789.8
11839.8
10210.7
8861.71
7748.61
6822.05
6052.24
5400.14
4852.06
4381.21
3984.48
3641.37
3352.57
3103.26
2892.12
2714.31
2560.29
2446.61
2343.81
2311.11
2274.69
400.267
429.536
468.076
525.348
615.471
746.939
916.079
1105.5
1291.43
1454.3
1583.64
1679.73
1749.61
1803.72
1850.07
1888.7
1905.16
1881.11
1818.02
1748.92
1708.8
1713.02
1754.94
1825.15
1912.81
2016.36
2131.1
2262.86
2407.96
2577.8
2766.21
2991.99
3242.93
3550.3
3890.14
4316.82
4784.13
5390.94
6049.99
6953.72
7957.88
9485.53
11312.4
14314.6
17923.9
23690.7
29795.8
38648.7
46015.9
57847.2
70409.6
88255.2
161240
195371
192249
183239
172739
159725
143288
127316
111712
98817.1
86663.5
76743.4
67445.5
60185.5
53617.2
48559.9
43874.9
40025
36224.3
32790.3
29305.2
26029.7
22811.8
19855.6
17135.2
14749.3
12681.2
10936.6
9475.9
8261.12
7253.01
6408.57
5702.23
5100.83
4592.81
4155.77
3786.65
3468.31
3200.02
2969.86
2774.35
2611.56
2469.54
2367.46
2273.84
2249.31
2218.19
399.869
428.626
466.52
522.97
612.086
742.562
911.086
1100.55
1287.23
1451.33
1582.1
1679.63
1750.88
1806.23
1853.45
1892.06
1907.06
1880.51
1815.24
1745.32
1705.54
1710.49
1753.08
1823.79
1911.84
2015.72
2130.8
2262.92
2408.39
2578.61
2767.39
2993.52
3244.77
3552.44
3892.53
4319.42
4786.95
5393.89
6053.17
6957.15
7962.16
9491.01
11320
14323
17930
23681.3
29750.7
38521.1
45796.1
57500.5
69947.6
87376.7
158633
192023
188750
179486
168847
155729
139358
123393
107773
94740.6
82487.9
72493.3
63266.1
56115
49746
44868.8
40401.8
36745.7
33173.5
29966
26743.7
23737.2
20808.9
18135.4
15689.6
13551.3
11700.6
10137.6
8824.96
7727.96
6811.93
6039.58
5389.1
4832.5
4360.06
3953.2
3608.82
3312.73
3062.86
2849.9
2668.42
2519.06
2387.78
2296.03
2210.59
2193.23
2166.72
399.478
427.734
464.997
520.642
608.77
738.271
906.192
1095.7
1283.14
1448.46
1580.67
1679.66
1752.31
1808.94
1857.06
1895.65
1909.21
1880.21
1812.85
1742.17
1702.72
1708.38
1751.6
1822.78
1911.18
2015.39
2130.79
2263.24
2409.06
2579.64
2768.78
2995.26
3246.83
3554.79
3895.15
4322.28
4790.04
5397.18
6056.76
6961.09
7967.06
9497.26
11328.5
14332.4
17937.2
23673.4
29708
38398.6
45586
57169.2
69504.4
86522.6
156075
188725
185329
175847
165087
151876
135566
119604
103968
90812.7
78488.2
68452.4
59327.3
52308.7
46152.6
41462.2
37213.6
33748.8
30398.4
27408.4
24435.3
21680.9
19020.5
16605.7
14407.9
12491
10833.1
9430.27
8247.8
7254.13
6418.86
5709.85
5108.6
4591.66
4150.88
3770.98
3448.81
3172.7
2939.41
2741.89
2573.03
2435.7
2314.03
2231.49
2153.34
2142.27
2119.74
399.095
426.86
463.504
518.361
605.52
734.064
901.392
1090.96
1279.13
1445.69
1579.34
1679.8
1753.89
1811.83
1860.88
1899.45
1911.59
1880.17
1810.81
1739.44
1700.34
1706.68
1750.49
1822.1
1910.84
2015.34
2131.04
2263.81
2409.96
2580.9
2770.37
2997.19
3249.08
3557.34
3897.98
4325.37
4793.4
5400.79
6060.73
6965.52
7972.57
9504.25
11337.8
14342.7
17945.5
23666.8
29667.7
38281.2
45385.5
56852.8
69079.2
85692
153564
185475
181982
172313
161450
148157
131906
115943
100294
87031.9
74663.7
64619.3
55625.3
48760.1
42827.7
38328.4
34296.4
31019
27882.3
25099.7
22361.1
19841.1
17427.2
15247.3
13272.5
11552.7
10065.5
8803.68
7735.5
6832.48
6068.09
5414.81
4857
4375.23
3962.66
3606.91
3304.68
3046.55
2828.19
2644.56
2487.02
2360.48
2247.42
2173.1
2101.43
2095.87
2076.79
398.719
426.002
462.041
516.127
602.336
729.939
896.683
1086.3
1275.22
1443
1578.1
1680.06
1755.6
1814.89
1864.89
1903.45
1914.16
1880.39
1809.11
1737.1
1698.36
1705.35
1749.73
1821.73
1910.77
2015.55
2131.53
2264.61
2411.08
2582.35
2772.16
2999.31
3251.51
3560.08
3901
4328.68
4797.01
5404.7
6065.06
6970.41
7978.64
9511.94
11347.9
14354
17954.8
23661.6
29629.6
38168.7
45194.3
56550.8
68671.2
84884.1
151101
182272
178704
168879
157930
144566
128369
112404
96747.1
83396.3
71012.8
60991.6
52155.1
45461.5
39760.3
35454.3
31635.2
28539.7
25607.5
23021.2
20501.7
18198.6
16009.7
14042.2
12266.9
10722.4
9385.81
8248.02
7280.2
6456.74
5754.63
5150.42
4631.03
4180.5
3793.11
3459.01
3174.72
2932.79
2727.88
2556.74
2409.4
2292.54
2187.2
2120.2
2054.31
2053.57
2037.46
398.35
425.161
460.608
513.938
599.213
725.891
892.06
1081.73
1271.39
1440.39
1576.94
1680.41
1757.44
1818.1
1869.06
1907.62
1916.91
1880.85
1807.72
1735.13
1696.75
1704.38
1749.27
1821.65
1910.97
2016.01
2132.25
2265.62
2412.4
2583.99
2774.12
3001.6
3254.12
3562.99
3904.21
4332.19
4800.85
5408.9
6069.74
6975.74
7985.25
9520.28
11358.8
14366
17965
23657.6
29593.7
38061.1
45012.1
56262.5
68279.7
84098.1
148683
179112
175492
165539
154519
141093
124950
108983
93324.1
79904
67533.8
57566.1
48910.7
42403.8
36938.3
32825.5
29213.8
26293.9
23555.8
21154.2
18838.1
16734.3
14749.9
12973.6
11376.4
9987.05
8783.35
7754.66
6874.97
6121.41
5474.09
4913.18
4427.8
4005.07
3640.2
3325.55
3057.43
2830.1
2637.33
2477.44
2339.28
2231.1
2132.69
2072.21
2011.48
2014.94
2001.37
397.988
424.336
459.203
511.792
596.151
721.919
887.521
1077.25
1267.63
1437.85
1575.86
1680.85
1759.39
1821.45
1873.4
1911.94
1919.82
1881.51
1806.62
1733.51
1695.5
1703.73
1749.12
1821.84
1911.42
2016.69
2133.18
2266.82
2413.89
2585.8
2776.25
3004.05
3256.87
3566.07
3907.59
4335.9
4804.92
5413.36
6074.74
6981.48
7992.36
9529.25
11370.4
14378.9
17976.1
23654.8
29560
37958.2
44838.6
55987.5
67904.1
83333.3
146312
175995
172341
162286
151211
137733
121642
105675
90022.1
76553.2
64224.1
54338.7
45884.9
39576.6
34348.8
30427.1
27015.8
24263.9
21709.1
19480.1
17352
15430.4
13631.1
12026.2
10587.3
9335.37
8248.76
7316.03
6513.79
5821.69
5222.64
4699.99
4244.78
3846.85
3502.17
3205.01
2951.47
2737.32
2555.51
2405.77
2275.86
2175.49
2083.29
2028.64
1972.49
1979.6
1968.2
397.633
423.527
457.826
509.689
593.148
718.02
883.063
1072.84
1263.95
1435.38
1574.85
1681.37
1761.45
1824.93
1877.87
1916.4
1922.88
1882.37
1805.8
1732.22
1694.58
1703.39
1749.24
1822.28
1912.09
2017.59
2134.31
2268.21
2415.56
2587.77
2778.52
3006.65
3259.78
3569.29
3911.14
4339.79
4809.19
5418.07
6080.05
6987.61
7999.96
9538.8
11382.6
14392.5
17988
23653.1
29528.3
37859.9
44673.7
55725.3
67543.5
82588.9
143985
172920
169247
159117
147999
134478
118439
102474
86838.2
73341.6
61081
51304.3
43069.4
36968.9
31977.8
28243.5
25024.5
22432.3
20049.5
17981
16025.6
14270
12637.5
11185.9
9887.78
8757.22
7773.79
6925.48
6191.37
5553.4
4996.93
4508.15
4079.77
3703.99
3377.42
3096.02
2855.65
2653.42
2481.5
2340.92
2218.46
2125.1
2038.48
1989.02
1936.96
1947.23
1937.66
397.284
422.734
456.476
507.627
590.202
714.192
878.681
1068.51
1260.34
1432.97
1573.9
1681.97
1763.59