/*--------------------------------*- C++ -*----------------------------------*\
| =========                 |                                                 |
| \\      /  F ield         | OpenFOAM: The Open Source CFD Toolbox           |
|  \\    /   O peration     | Version:  2412                                  |
|   \\  /    A nd           | Website:  www.openfoam.com                      |
|    \\/     M anipulation  |                                                 |
\*---------------------------------------------------------------------------*/
FoamFile
{
    version     2.0;
    format      ascii;
    arch        "LSB;label=32;scalar=64";
    class       volScalarField;
    location    "0.9";
    object      k;
}
// * * * * * * * * * * * * * * * * * * * * * * * * * * * * * * * * * * * * * //

dimensions      [0 2 -2 0 0 0 0];

internalField   nonuniform List<scalar> 
13079
(
40.1655
43.6346
47.9816
53.5443
60.5063
68.1815
75.2739
80.6261
83.6613
84.5369
83.7772
82.0514
79.9389
77.9178
76.3496
75.532
75.6222
76.5483
77.9126
79.3192
80.6652
82.1655
83.955
86.0921
88.4777
91.132
93.968
97.116
100.478
104.285
108.361
113.074
118.084
123.981
130.155
137.584
145.203
154.674
164.227
176.763
189.476
207.502
226.352
254.17
282.641
322.784
360.286
412.874
459.143
533.264
608.591
735.682
1118.63
1178.88
1060.69
956.164
870.133
792.902
716.187
649.639
592.449
550.891
519.715
496.873
476.668
458.16
439.15
420.66
401.865
383.734
365.578
347.921
330.188
312.712
295.164
277.821
260.552
40.1169
43.5257
47.8035
53.2961
60.1967
67.8325
74.9192
80.2958
83.3733
84.2918
83.5635
81.8524
79.7403
77.7124
76.141
75.335
75.4556
76.4191
77.8091
79.229
80.5922
82.122
83.9465
86.1156
88.5263
91.2009
94.0529
97.216
100.591
104.412
108.501
113.227
118.249
124.161
130.346
137.791
145.424
154.914
164.485
177.05
189.798
207.896
226.845
254.841
283.503
323.923
361.571
414.27
460.274
534.106
609.11
734.783
1113.68
1172.24
1053.22
947.839
861.309
783.723
707.292
641.347
585.156
544.441
513.846
491.179
470.876
452.166
432.939
414.314
395.449
377.338
359.248
341.707
324.107
306.79
289.413
272.261
255.202
40.0693
43.4192
47.6292
53.0531
59.8933
67.4906
74.5725
79.9746
83.0957
84.0585
83.3632
81.6688
79.5594
77.5274
75.9558
75.1639
75.3154
76.3138
77.7253
79.1548
80.533
82.0906
83.9478
86.1469
88.5807
91.2739
94.1408
97.318
100.705
104.54
108.641
113.381
118.414
124.339
130.537
137.998
145.644
155.154
164.742
177.338
190.121
208.292
227.339
255.512
284.363
325.052
362.837
415.634
461.367
534.91
609.595
733.829
1108.64
1165.63
1045.86
939.656
852.649
774.739
698.623
633.291
578.069
538.136
508.037
485.469
465.011
446.064
426.601
407.836
388.902
370.816
352.796
335.377
317.918
300.77
283.573
266.626
249.791
40.0228
43.315
47.4587
52.815
59.5959
67.1558
74.2337
79.6623
82.828
83.8364
83.1756
81.4998
79.3954
77.362
75.793
75.0173
75.2
76.2308
77.6595
79.0951
80.4862
82.0699
83.958
86.1848
88.64
91.3503
94.2309
97.4214
100.821
104.668
108.781
113.533
118.578
124.517
130.727
138.202
145.862
155.392
164.998
177.625
190.443
208.688
227.834
256.182
285.217
326.17
364.085
416.964
462.422
535.675
610.045
732.821
1103.51
1159.04
1038.62
931.61
844.151
765.948
690.175
625.462
571.176
531.96
502.275
479.733
459.066
439.851
420.139
401.23
382.23
364.173
346.23
328.94
311.63
294.658
277.653
260.924
244.327
39.9774
43.213
47.2917
52.5818
59.3045
66.8278
73.9025
79.3585
82.5699
83.625
83.0002
81.3449
79.2476
77.2154
75.6517
74.8942
75.1081
76.1685
77.6101
79.0486
80.4508
82.0591
83.9762
86.2288
88.7036
91.4297
94.323
97.5259
100.936
104.796
108.92
113.685
118.741
124.693
130.915
138.405
146.079
155.629
165.254
177.911
190.766
209.084
228.328
256.849
286.067
327.275
365.311
418.26
463.438
536.403
610.46
731.758
1098.29
1152.47
1031.47
923.697
835.813
757.352
681.947
617.855
564.468
525.903
496.548
473.964
453.039
433.529
413.556
394.502
375.44
357.418
339.558
322.404
305.251
288.466
271.664
255.165
238.823
222.881
207.616
193.231
179.864
167.68
156.822
147.29
139.157
132.229
126.495
121.605
117.559
113.911
110.807
107.754
105.124
102.379
100.097
97.8069
96.0433
94.9303
94.0305
39.9329
43.1132
47.1283
52.3535
59.019
66.5066
73.5789
79.063
82.321
83.424
82.8366
81.2033
79.1155
77.087
75.5311
74.7936
75.0384
76.1254
77.5757
79.0141
80.4257
82.0572
84.0016
86.2782
88.771
91.5116
94.4168
97.6314
101.053
104.924
109.058
113.836
118.903
124.868
131.101
138.607
146.295
155.864
165.508
178.196
191.088
209.48
228.822
257.514
286.911
328.367
366.516
419.52
464.416
537.093
610.84
730.642
1092.99
1145.9
1024.42
915.913
827.636
748.949
673.935
610.463
557.934
519.952
490.849
468.156
446.928
427.099
406.859
387.659
368.54
350.559
332.791
315.78
298.793
282.205
265.618
249.362
233.291
217.668
202.73
188.706
175.726
163.943
153.489
144.346
136.565
129.936
124.435
119.71
115.764
112.169
109.079
106.033
103.396
100.678
98.4182
96.2215
94.5337
93.6074
92.8512
39.8895
43.0156
46.9684
52.1298
58.7391
66.1919
73.2625
78.7756
82.081
83.2329
82.6841
81.0747
78.9983
76.976
75.4304
74.7144
74.9896
76.1
77.555
78.9905
80.4101
82.0636
84.0336
86.3324
88.8419
91.5958
94.512
97.7376
101.169
105.052
109.196
113.985
119.063
125.041
131.286
138.807
146.509
156.098
165.761
178.481
191.409
209.875
229.315
258.176
287.748
329.445
367.699
420.745
465.356
537.747
611.187
729.474
1087.6
1139.34
1017.45
908.255
819.618
740.738
666.138
603.281
551.565
514.097
485.167
462.304
440.733
420.566
400.052
380.71
361.54
343.609
325.94
309.079
292.268
275.886
259.526
243.529
227.746
212.459
197.872
184.229
171.653
160.287
150.245
141.492
134.057
127.716
122.431
117.857
114
110.452
107.377
104.344
101.711
99.0344
96.8113
94.7232
93.1232
92.3912
91.7824
39.847
42.92
46.8117
51.9107
58.4648
65.8836
72.9533
78.4959
81.8495
83.0513
82.5425
80.9585
78.8956
76.8818
75.3487
74.6557
74.9605
76.0911
77.5468
78.9768
80.4033
82.0774
84.0715
86.3911
88.9158
91.6821
94.6084
97.8444
101.285
105.179
109.334
114.134
119.223
125.213
131.469
139.005
146.722
156.331
166.013
178.764
191.731
210.27
229.808
258.835
288.579
330.508
368.86
421.935
466.26
538.366
611.502
728.256
1082.13
1132.78
1010.57
900.721
811.757
732.719
658.551
596.3
545.35
508.329
479.497
456.406
434.456
413.935
393.145
373.664
354.453
336.578
319.016
302.315
285.688
269.524
253.405
237.682
222.204
207.271
193.057
179.815
167.661
156.725
147.103
138.738
131.64
125.572
120.489
116.051
112.272
108.769
105.71
102.699
100.081
97.4598
95.2861
93.3193
91.8164
91.2822
90.8211
39.8054
42.8264
46.6584
51.6961
58.196
65.5816
72.6509
78.2238
81.6263
82.8789
82.4112
80.8541
78.8067
76.8037
75.2855
74.6166
74.9498
76.0973
77.55
78.9723
80.4045
82.0982
84.1149
86.4536
88.9923
91.77
94.7058
97.9516
101.402
105.306
109.47
114.282
119.381
125.383
131.651
139.201
146.933
156.562
166.264
179.047
192.052
210.664
230.299
259.49
289.402
331.557
369.997
423.09
467.129
538.953
611.784
726.989
1076.58
1126.21
1003.76
893.307
804.052
724.89
651.17
589.513
539.282
502.637
473.831
450.46
428.099
407.212
386.148
366.534
347.29
329.479
312.034
295.501
279.068
263.133
247.269
231.835
216.682
202.121
188.302
175.481
163.767
153.272
144.072
136.092
129.32
123.51
118.611
114.298
110.589
107.129
104.089
101.108
98.5154
95.9636
93.8504
92.0145
90.6153
90.2788
89.9625
39.7647
42.7348
46.5083
51.4858
57.9325
65.2856
72.3552
77.959
81.4111
82.7152
82.2897
80.7612
78.7312
76.7412
75.2397
74.596
74.9566
76.1175
77.5636
78.9762
80.413
82.1253
84.1633
86.5198
89.0713
91.8595
94.8042
98.0592
101.518
105.432
109.606
114.428
119.537
125.552
131.832
139.396
147.142
156.791
166.514
179.328
192.372
211.058
230.79
260.141
290.218
332.59
371.112
424.21
467.962
539.508
612.036
725.674
1070.96
1119.64
997.022
886.008
796.499
717.246
643.988
582.913
533.349
497.013
468.165
444.465
421.668
400.405
379.07
359.332
340.064
322.327
305.008
288.651
272.424
256.729
241.135
226.007
211.197
197.028
183.626
171.245
159.986
149.941
141.165
133.563
127.102
121.534
116.804
112.602
108.957
105.539
102.522
99.5817
97.0242
94.5531
92.5095
90.8113
89.5196
89.3772
89.2001
39.7249
42.6451
46.3613
51.2798
57.6742
64.9956
72.066
77.7011
81.2034
82.56
82.1777
80.6792
78.6684
76.6936
75.2109
74.593
74.9796
76.1505
77.5866
78.9876
80.4284
82.1583
84.2162
86.5891
89.1524
91.9503
94.9032
98.167
101.635
105.558
109.741
114.574
119.693
125.719
132.01
139.59
147.35
157.019
166.763
179.608
192.692
211.45
231.279
260.788
291.026
333.606
372.202
425.296
468.763
540.032
612.257
724.314
1065.27
1113.04
990.346
878.82
789.096
709.785
637.001
576.49
527.542
491.449
462.496
438.421
415.166
393.522
371.923
352.07
332.791
315.137
297.954
281.782
265.772
250.33
235.021
220.217
205.771
192.011
179.048
167.127
156.336
146.747
138.393
131.157
124.991
119.647
115.07
110.97
107.382
104.008
101.019
98.1273
95.6141
93.2332
91.2664
89.7095
88.5268
88.5722
88.5268
39.6859
42.5573
46.2173
51.078
57.421
64.7114
71.7831
77.4501
81.0031
82.4128
82.0748
80.6076
78.6179
76.6603
75.1981
74.6068
75.0177
76.1952
77.6181
79.006
80.4501
82.1966
84.2732
86.6613
89.2354
92.0423
95.0029
98.275
101.751
105.683
109.875
114.718
119.847
125.885
132.188
139.782
147.557
157.246
167.01
179.888
193.011
211.842
231.766
261.43
291.824
334.607
373.269
426.347
469.531
540.526
612.45
722.909
1059.5
1106.43
983.727
871.74
781.839
702.503
630.202
570.237
521.853
485.939
456.82
432.331
408.602
386.575
364.721
344.763
325.485
307.925
290.888
274.911
259.129
243.954
228.946
214.484
200.423
187.094
174.589
163.145
152.832
143.703
135.762
128.879
122.991
117.852
113.413
109.405
105.87
102.542
99.5859
96.7509
94.29
92.0068
90.1218
88.7071
87.6324
87.8574
87.9344
39.6477
42.4713
46.0762
50.8801
57.1727
64.4328
71.5064
77.2057
80.8099
82.2733
81.9806
80.546
78.5791
76.6406
75.2006
74.6364
75.07
76.2508
77.6574
79.0308
80.4775
82.2399
84.3339
86.7361
89.32
92.1352
95.103
98.3831
101.866
105.808
110.009
114.862
120
126.05
132.364
139.972
147.762
157.471
167.256
180.166
193.329
212.233
232.252
262.068
292.615
335.59
374.312
427.365
470.268
540.993
612.614
721.462
1053.67
1099.79
977.158
864.764
774.724
695.394
623.584
564.145
516.274
480.476
451.136
426.198
401.982
379.574
357.477
337.427
318.164
300.708
283.828
268.057
252.515
237.62
222.931
208.831
195.176
182.296
170.27
159.317
149.491
140.818
133.282
126.734
121.103
116.152
111.836
107.911
104.426
101.146
98.2276
95.4569
93.0549
90.8745
89.0743
87.8003
86.8311
87.2255
87.415
39.6103
42.387
45.9381
50.6863
56.9292
64.1597
71.2356
76.9675
80.6234
82.1411
81.8946
80.494
78.5515
76.634
75.2178
74.681
75.1355
76.3161
77.7037
79.0615
80.5103
82.2877
84.3981
86.8131
89.4062
92.2289
95.2035
98.4911
101.982
105.932
110.141
115.004
120.152
126.213
132.538
140.161
147.966
157.695
167.501
180.443
193.647
212.622
232.735
262.7
293.395
336.557
375.331
428.349
470.974
541.433
612.751
719.974
1047.78
1093.13
970.635
857.885
767.746
688.454
617.14
558.206
510.795
475.054
445.442
420.027
395.316
372.532
350.206
330.078
310.845
293.503
276.792
261.237
245.95
231.35
216.998
203.278
190.051
177.64
166.111
155.661
146.324
138.102
130.955
124.723
119.328
114.546
110.34
106.491
103.054
99.8237
96.948
94.2477
91.9098
89.8354
88.121
86.9843
86.1163
86.6691
86.9605
39.5738
42.3044
45.8027
50.4963
56.6905
63.892
70.9706
76.7355
80.4433
82.016
81.8164
80.4511
78.5347
76.64
75.249
74.7396
75.2131
76.3904
77.7564
79.0975
80.548
82.3396
84.4653
86.8923
89.4936
92.3234
95.3043
98.5991
102.097
106.056
110.273
115.145
120.303
126.375
132.711
140.348
148.168
157.917
167.745
180.719
193.964
213.01
233.217
263.327
294.167
337.506
376.326
429.3
471.652
541.847
612.861
718.447
1041.82
1086.43
964.15
851.1
760.902
681.676
610.862
552.41
505.41
469.67
439.741
413.822
388.614
365.463
342.925
322.735
303.547
286.332
269.802
254.473
239.455
225.165
211.169
197.85
185.071
173.148
162.131
152.192
143.344
135.561
128.784
122.845
117.665
113.035
108.927
105.148
101.756
98.5783
95.7492
93.124
90.854
88.8868
87.2577
86.2531
85.481
86.1807
86.5632
39.5379
42.2236
45.6701
50.3101
56.4563
63.6294
70.7112
76.5094
80.2695
81.8976
81.7458
80.4168
78.528
76.6578
75.2934
74.8115
75.302
76.4728
77.8149
79.1385
80.5903
82.3954
84.5354
86.9733
89.5821
92.4184
95.4053
98.707
102.212
106.179
110.404
115.286
120.452
126.535
132.883
140.534
148.369
158.138
167.987
180.994
194.279
213.397
233.695
263.948
294.928
338.438
377.297
430.22
472.301
542.236
612.946
716.882
1035.81
1079.7
957.699
844.404
754.186
675.056
604.744
546.751
500.112
464.319
434.033
407.59
381.887
358.38
335.651
315.415
296.289
279.213
262.877
247.787
233.051
219.088
205.468
192.569
180.26
168.841
158.347
148.923
140.557
133.198
126.769
121.101
116.113
111.618
107.595
103.88
100.534
97.4106
94.6318
92.0851
89.8853
88.0247
86.479
85.6003
84.9181
85.7529
86.216
39.5028
42.1443
45.5402
50.1275
56.2266
63.372
70.4571
76.2889
80.1016
81.7856
81.6822
80.3908
78.5311
76.6871
75.3503
74.8959
75.4013
76.5625
77.8786
79.184
80.6369
82.4548
84.608
87.056
89.6716
92.514
95.5064
98.8146
102.326
106.301
110.534
115.425
120.6
126.694
133.053
140.719
148.568
158.358
168.228
181.268
194.594
213.782
234.172
264.564
295.679
339.351
378.244
431.108
472.924
542.602
613.006
715.281
1029.75
1072.93
951.275
837.792
747.592
668.587
598.777
541.218
494.895
459
428.321
401.339
375.147
351.3
328.401
308.138
289.092
272.167
256.038
241.199
226.763
213.142
199.917
187.459
175.638
164.738
154.775
145.864
137.968
131.013
124.908
119.484
114.669
110.292
106.345
102.69
99.3876
96.3208
93.595
91.1291
89.0006
87.2446
85.7793
85.0192
84.4206
85.3787
85.9124
39.4684
42.0667
45.4128
49.9485
56.0013
63.1194
70.2084
76.0739
79.9395
81.6796
81.6255
80.3726
78.5434
76.7271
75.4192
74.9919
75.5102
76.6589
77.947
79.2337
80.6874
82.5174
84.6829
87.1401
89.7619
92.6099
95.6076
98.9221
102.44
106.422
110.663
115.563
120.747
126.852
133.222
140.902
148.766
158.576
168.468
181.54
194.908
214.166
234.645
265.173
296.42
340.247
379.166
431.965
473.521
542.946
613.041
713.646
1023.64
1066.12
944.874
831.259
741.117
662.262
592.954
535.806
489.752
453.71
422.608
395.078
368.409
344.239
321.195
300.924
281.976
265.216
249.31
234.734
220.613
207.352
194.542
182.543
171.227
160.857
151.428
143.022
135.579
129.004
123.196
117.992
113.328
109.055
105.175
101.575
98.3164
95.3077
92.6371
90.253
88.1956
86.5412
85.1524
84.5034
83.9815
85.0517
85.6463
39.4347
41.9905
45.288
49.7729
55.7802
62.8717
69.9647
75.8641
79.7827
81.5795
81.5752
80.3619
78.5646
76.7774
75.4994
75.0989
75.6279
76.7613
78.0197
79.2873
80.7416
82.583
84.76
87.2255
89.853
92.7061
95.7088
99.0293
102.553
106.543
110.791
115.7
120.893
127.008
133.389
141.083
148.962
158.792
168.707
181.811
195.22
214.548
235.116
265.776
297.15
341.124
380.065
432.792
474.094
543.268
613.053
711.978
1017.48
1059.26
938.49
824.799
734.753
656.075
587.268
530.506
484.679
448.448
416.899
388.816
361.685
337.215
314.052
293.793
274.964
258.383
242.713
228.414
214.624
201.741
189.364
177.842
167.045
157.21
148.313
140.4
133.388
127.166
121.627
116.619
112.085
107.903
104.082
100.534
97.3189
94.3695
91.7555
89.4531
87.4656
85.9086
84.5921
84.0463
83.5945
84.7659
85.4124
39.4017
41.9159
45.1657
49.6008
55.5633
62.6286
69.7259
75.6594
79.6311
81.4848
81.5309
80.3582
78.5941
76.8375
75.5902
75.2161
75.7537
76.8691
78.0962
79.3445
80.7992
82.6513
84.839
87.3121
89.9447
92.8026
95.8099
99.1361
102.666
106.663
110.918
115.836
121.037
127.164
133.555
141.263
149.157
159.007
168.944
182.081
195.532
214.928
235.583
266.372
297.87
341.983
380.941
433.589
474.643
543.569
613.043
710.28
1011.27
1052.36
932.118
818.408
728.496
650.019
581.71
525.311
479.671
443.214
411.2
382.562
354.99
330.244
306.992
286.768
268.078
251.689
236.27
222.263
208.821
196.331
184.406
173.374
163.108
153.81
145.435
137.996
131.39
125.491
120.193
115.356
110.937
106.833
103.064
99.5654
96.393
93.5035
90.9466
88.725
86.8056
85.3414
84.0922
83.6418
83.2536
84.5159
85.2059
39.3693
41.8428
45.0458
49.432
55.3504
62.39
69.4919
75.4595
79.4845
81.3953
81.4925
80.3612
78.6316
76.9069
75.691
75.3428
75.8869
76.9817
78.1763
79.405
80.8599
82.7223
84.9197
87.3998
90.0369
92.8992
95.911
99.2426
102.778
106.783
111.045
115.971
121.181
127.317
133.72
141.441
149.351
159.221
169.179
182.349
195.842
215.306
236.048
266.962
298.578
342.824
381.792
434.358
475.17
543.851
613.011
708.551
1005.03
1045.41
925.754
812.081
722.339
644.088
576.274
520.216
474.726
438.009
405.515
376.329
348.34
323.345
300.035
279.869
261.339
245.157
230.006
216.302
203.226
191.145
179.688
169.158
159.427
150.661
142.796
135.807
129.576
123.97
118.886
114.198
109.876
105.84
102.118
98.6656
95.5358
92.7065
90.2068
88.0642
86.2102
84.8336
83.6469
83.2842
82.9532
84.2967
85.0228
39.3375
41.771
44.9282
49.2664
55.1414
62.1558
69.2625
75.2643
79.3426
81.3108
81.4595
80.3706
78.6766
76.985
75.8013
75.4783
76.0268
77.0987
78.2596
79.4687
80.9236
82.7955
85.0019
87.4883
90.1295
92.9959
96.0118
99.3488
102.89
106.901
111.17
116.104
121.323
127.47
133.883
141.618
149.543
159.433
169.414
182.616
196.15
215.681
236.508
267.545
299.275
343.646
382.621
435.099
475.675
544.114
612.957
706.795
998.755
1038.4
919.392
805.813
716.278
638.274
570.953
515.213
469.839
432.834
399.853
370.128
341.751
316.537
293.202
273.118
254.769
238.809
223.94
210.555
197.86
186.202
175.226
165.206
156.01
147.767
140.391
133.824
127.938
122.594
117.696
113.137
108.897
104.92
101.239
97.8318
94.7443
91.975
89.5319
87.4658
85.6742
84.3799
83.2507
82.9681
82.6885
84.1041
84.8592
39.3064
41.7007
44.8129
49.1039
54.9363
61.9259
69.0375
75.0736
79.2051
81.2309
81.4316
80.386
78.7287
77.0714
75.9205
75.6219
76.1727
77.2196
78.3458
79.5352
80.9901
82.8709
85.0856
87.5776
90.2225
93.0926
96.1125
99.4545
103.001
107.019
111.295
116.237
121.464
127.621
134.045
141.794
149.733
159.643
169.647
182.882
196.457
216.055
236.966
268.12
299.961
344.451
383.427
435.813
476.16
544.359
612.883
705.013
992.445
1031.35
913.028
799.598
710.306
632.572
565.739
510.296
465.008
427.692
394.22
363.971
335.238
309.839
286.513
266.535
248.389
232.666
218.095
205.042
192.742
181.52
171.034
161.527
152.861
145.126
138.213
132.039
126.464
121.351
116.615
112.165
107.994
104.069
100.425
97.0606
94.0151
91.305
88.9174
86.925
85.1925
83.975
82.8983
82.6888
82.4548
83.9342
84.7121
39.2759
41.6318
44.6998
48.9445
54.7349
61.7002
68.8168
74.8871
79.072
81.1555
81.4086
80.407
78.7876
77.1656
76.048
75.7732
76.3242
77.3439
78.4345
79.6043
81.0591
82.9484
85.1706
87.6676
90.3158
93.1893
96.2129
99.5599
103.112
107.136
111.419
116.369
121.604
127.771
134.205
141.968
149.923
159.852
169.878
183.146
196.763
216.426
237.419
268.689
300.636
345.236
384.21
436.5
476.626
544.587
612.79
703.206
986.106
1024.24
906.658
793.432
704.418
626.975
560.627
505.462
460.231
422.584
388.625
357.87
328.819
303.27
279.988
260.141
242.22
226.747
212.49
199.78
187.889
177.112
167.122
158.126
149.98
142.731
136.253
130.437
125.141
120.231
115.633
111.275
107.163
103.281
99.6711
96.3486
93.3445
90.6927
88.3591
86.4372
84.7602
83.614
82.585
82.4419
82.2482
83.7837
84.5786
39.246
41.5641
44.589
48.7881
54.5371
61.4784
68.6002
74.7048
78.9429
81.0843
81.3902
80.4334
78.8528
77.2672
76.1833
75.9314
76.4806
77.4712
78.5257
79.676
81.1305
83.0276
85.2567
87.7582
90.4093
93.286
96.3131
99.6648
103.222
107.252
111.541
116.499
121.742
127.919
134.364
142.141
150.11
160.06
170.108
183.408
197.067
216.795
237.869
269.25
301.298
346.004
384.97
437.163
477.073
544.799
612.677
701.376
979.742
1017.07
900.279
787.311
698.608
621.476
555.609
500.704
455.508
417.514
383.075
351.839
322.509
296.847
273.647
253.955
236.279
221.071
207.142
194.786
183.315
172.989
163.497
155.004
147.36
140.572
134.497
129.005
123.956
119.222
114.741
110.46
106.396
102.553
98.9744
95.6922
92.7289
90.134
87.8527
85.9977
84.3725
83.2923
82.3065
82.2234
82.0652
83.6495
84.4562
39.2166
41.4978
44.4802
48.6346
54.3428
61.2606
68.3877
74.5264
78.8177
81.017
81.3761
80.4647
78.924
77.3757
76.3259
76.0961
76.6415
77.6012
78.619
79.75
81.2042
83.1085
85.3438
87.8493
90.5029
93.3826
96.413
99.7692
103.331
107.368
111.663
116.629
121.88
128.067
134.522
142.312
150.296
160.266
170.337
183.669
197.37
217.162
238.314
269.804
301.95
346.753
385.709
437.8
477.503
544.995
612.545
699.524
973.356
1009.85
893.886
781.229
692.87
616.069
550.68
496.019
450.837
412.486
377.58
345.891
316.325
290.589
267.507
247.995
230.584
215.654
202.064
190.072
179.029
169.157
160.158
152.157
144.994
138.637
132.931
127.73
122.897
118.313
113.93
109.714
105.691
101.881
98.331
95.0879
92.1646
89.6251
87.3939
85.6022
84.0252
83.0058
82.0589
82.0298
81.9026
83.529
84.343
39.1878
41.4327
44.3735
48.4839
54.152
61.0466
68.179
74.3517
78.6961
80.9534
81.3661
80.5008
79.0009
77.4908
76.4753
76.2666
76.8063
77.7336
78.7143
79.8262
81.28
83.191
85.4319
87.9408
90.5967
93.4791
96.5126
99.8731
103.44
107.483
111.784
116.757
122.016
128.213
134.679
142.482
150.481
160.47
170.564
183.928
197.67
217.526
238.756
270.35
302.589
347.484
386.426
438.414
477.916
545.176
612.396
697.653
966.952
1002.57
887.476
775.182
687.2
610.749
545.835
491.402
446.218
407.504
372.149
340.038
310.282
284.512
261.585
242.276
225.15
210.509
197.27
185.649
175.037
165.617
157.104
149.576
142.869
136.911
131.54
126.596
121.951
117.495
113.194
109.031
105.04
101.261
97.7372
94.5322
91.6481
89.162
86.9787
85.2467
83.7142
82.7507
81.8385
81.8581
81.7576
83.42
84.2371
39.1596
41.3688
44.2688
48.336
53.9646
60.8363
67.9741
74.1807
78.578
80.8933
81.3598
80.5413
79.0831
77.612
76.631
76.4424
76.9747
77.868
78.8114
79.9045
81.3577
83.275
85.5208
88.0327
90.6905
93.5753
96.6119
99.9766
103.548
107.597
111.904
116.885
122.151
128.357
134.834
142.65
150.664
160.673
170.789
184.186
197.969
217.887
239.193
270.888
303.217
348.198
387.123
439.005
478.313
545.343
612.23
695.762
960.533
995.241
881.046
769.166
681.592
605.508
541.068
486.851
441.651
402.573
366.791
334.293
304.396
278.633
255.896
236.812
219.988
205.646
192.767
181.52
171.341
162.367
154.326
147.25
140.97
135.378
130.307
125.589
121.105
116.757
112.524
108.404
104.441
100.688
97.1898
94.0217
91.1758
88.7413
86.6035
84.9274
83.4359
82.5235
81.6423
81.7053
81.6278
83.3205
84.1369
39.1318
41.3061
44.1661
48.1908
53.7804
60.6295
67.7727
74.0131
78.4633
80.8364
81.3571
80.586
79.1702
77.7388
76.7925
76.6231
77.1461
78.0042
78.9101
79.9847
81.4372
83.3602
85.6105
88.1249
90.7843
93.6714
96.7108
100.08
103.656
107.71
112.023
117.011
122.285
128.501
134.987
142.817
150.846
160.874
171.013
184.442
198.266
218.246
239.626
271.419
303.833
348.893
387.798
439.573
478.696
545.496
612.047
693.855
954.103
987.852
874.593
763.176
676.041
600.343
536.374
482.362
437.137
397.698
361.515
328.67
298.681
272.965
250.453
231.614
215.107
201.072
188.559
177.688
167.939
159.401
151.813
145.165
139.28
134.021
129.217
124.696
120.35
116.091
111.913
107.828
103.888
100.159
96.6854
93.5533
90.7444
88.3594
86.2647
84.6408
83.1869
82.3212
81.4675
81.5691
81.511
83.2287
84.0411
39.1046
41.2446
44.0652
48.0482
53.5993
60.4262
67.5749
73.8489
78.3516
80.7827
81.3577
80.6345
79.262
77.8711
76.9595
76.8083
77.3203
78.142
79.0103
80.0667
81.5185
83.4466
85.7008
88.2174
90.8781
93.7673
96.8093
100.182
103.762
107.822
112.142
117.137
122.418
128.643
135.14
142.983
151.026
161.074
171.235
184.696
198.562
218.601
240.055
271.942
304.438
349.571
388.453
440.12
479.065
545.635
611.847
691.932
947.666
980.409
868.115
757.209
670.543
595.248
531.748
477.933
432.677
392.883
356.331
323.18
293.149
267.521
245.266
226.692
210.514
196.791
184.646
174.149
164.823
156.707
149.553
143.305
137.783
132.822
128.254
123.904
119.674
115.49
111.356
107.3
103.379
99.6717
96.221
93.1238
90.3508
88.0131
85.9589
84.3838
82.9641
82.141
81.3114
81.4473
81.4053
83.1432
83.9485
39.078
41.1843
43.9663
47.9081
53.4214
60.2263
67.3803
73.6878
78.2428
80.7318
81.3614
80.6866
79.3581
78.0083
77.1314
76.9974
77.4968
78.2811
79.1118
80.1503
81.6013
83.5342
85.7917
88.31
90.9719
93.8629
96.9075
100.284
103.869
107.934
112.259
117.261
122.55
128.784
135.291
143.147
151.205
161.272
171.456
184.949
198.855
218.954
240.479
272.457
305.031
350.232
389.088
440.647
479.42
545.762
611.633
689.995
941.224
972.91
861.609
751.26
665.092
590.216
527.187
473.562
428.273
388.135
351.247
317.835
287.813
262.312
240.343
222.049
206.21
192.803
181.027
170.899
161.985
154.274
147.529
141.651
136.46
131.767
127.405
123.201
119.069
114.946
110.848
106.815
102.909
99.2221
95.7937
92.7304
89.992
87.6994
85.6832
84.1534
82.7649
81.9804
81.1718
81.338
81.3091
83.0626
83.8581
39.0517
41.125
43.8692
47.7705
53.2465
60.0296
67.189
73.5297
78.1368
80.6836
81.368
80.7421
79.4583
78.1501
77.3079
77.19
77.6753
78.4213
79.2146
80.2356
81.6856
83.6228
85.8831
88.4028
91.0655
93.9583
97.0052
100.385
103.974
108.045
112.375
117.384
122.681
128.924
135.441
143.31
151.383
161.469
171.675
185.199
199.146
219.304
240.899
272.964
305.612
350.876
389.704
441.154
479.763
545.877
611.403
688.045
934.781
965.359
855.073
745.326
659.684
585.245
522.686
469.247
423.926
383.459
346.272
312.645
282.683
257.346
235.691
217.688
202.195
189.104
177.694
167.927
159.412
152.085
145.723
140.186
135.295
130.838
126.656
122.577
118.526
114.453
110.382
106.368
102.476
98.8076
95.4007
92.3702
89.6652
87.4154
85.4348
83.947
82.5867
81.8372
81.0468
81.2395
81.2209
82.9858
83.7692
39.026
41.0669
43.7738
47.6354
53.0744
59.8361
67.0008
73.3744
78.0335
80.638
81.3772
80.8008
79.5623
78.2963
77.4886
77.3858
77.8555
78.5624
79.3186
80.3224
81.7714
83.7123
85.975
88.4957
91.159
94.0534
97.1026
100.486
104.079
108.155
112.491
117.507
122.81
129.063
135.59
143.471
151.559
161.664
171.893
185.448
199.436
219.651
241.314
273.463
306.181
351.502
390.301
441.641
480.094
545.981
611.159
686.083
928.34
957.755
848.505
739.405
654.315
580.329
518.243
464.986
419.638
378.859
341.415
307.619
277.767
252.63
231.31
213.61
198.465
185.689
174.638
165.222
157.088
150.124
144.118
138.892
134.27
130.021
125.996
122.022
118.039
114.005
109.957
105.957
102.076
98.4256
95.0395
92.0409
89.3678
87.1586
85.2112
83.7621
82.4273
81.7094
80.9346
81.1503
81.1394
82.9118
83.6808
39.0008
41.0098
43.6802
47.5026
52.9053
59.6457
66.8156
73.222
77.9326
80.5946
81.3889
80.8624
79.6698
78.4464
77.6732
77.5844
78.0371
78.7043
79.4236
80.4106
81.8584
83.8026
86.0672
88.5887
91.2524
94.1482
97.1995
100.586
104.183
108.264
112.606
117.628
122.939
129.2
135.737
143.631
151.733
161.857
172.109
185.696
199.723
219.995
241.724
273.954
306.739
352.112
390.88
442.111
480.414
546.073
610.9
684.112
921.906
950.102
841.904
733.491
648.981
575.464
513.854
460.779
415.411
374.343
336.684
302.767
273.072
248.166
227.202
209.811
195.014
182.547
171.848
162.768
154.997
148.372
142.695
137.752
133.369
129.303
125.413
121.528
117.6
113.598
109.566
105.578
101.707
98.0736
94.7079
91.7401
89.0975
86.9266
85.01
83.5967
82.2847
81.5952
80.8337
81.069
81.0636
82.8398
83.5925
38.976
40.9537
43.5883
47.3722
52.7388
59.4582
66.6333
73.0721
77.834
80.5535
81.403
80.9267
79.7806
78.6003
77.8612
77.7855
78.2199
78.8467
79.5295
80.5002
81.9467
83.8937
86.1598
88.6817
91.3457
94.2427
97.296
100.686
104.287
108.373
112.719
117.749
123.066
129.337
135.883
143.79
151.906
162.049
172.323
185.941
200.008
220.336
242.13
274.438
307.286
352.706
391.441
442.563
480.723
546.155
610.629
682.131
915.48
942.4
835.268
727.583
643.678
570.647
509.516
456.626
411.247
369.915
332.084
298.096
268.603
243.957
223.363
206.284
191.833
179.668
169.309
160.551
153.122
146.812
141.437
136.748
132.578
128.673
124.897
121.087
117.205
113.228
109.208
105.229
101.367
97.7496
94.4035
91.4654
88.852
86.7172
84.8292
83.4487
82.1571
81.4931
80.7426
80.9946
80.9924
82.7691
83.5037
38.9516
40.8986
43.498
47.244
52.5751
59.2736
66.4538
72.9247
77.7376
80.5144
81.4191
80.9934
79.8944
78.7575
78.0523
77.9886
78.4035
78.9897
79.6363
80.591
82.0361
83.9856
86.2527
88.7747
91.4387
94.3368
97.3921
100.785
104.39
108.48
112.832
117.868
123.193
129.472
136.028
143.947
152.077
162.24
172.536
186.185
200.291
220.674
242.531
274.913
307.821
353.284
391.984
442.998
481.022
546.226
610.344
680.143
909.066
934.652
828.597
721.678
638.404
565.873
505.227
452.525
407.15
365.579
327.624
293.611
264.363
240.002
219.789
203.021
188.91
177.039
167.006
158.553
151.445
145.426
140.325
135.865
131.885
128.118
124.441
120.693
116.847
112.889
108.878
104.907
101.053
97.4514
94.1245
91.215
88.6292
86.5285
84.6667
83.3164
82.043
81.4017
80.6602
80.9261
80.925
82.699
83.4139
38.9277
40.8446
43.4093
47.1179
52.414
59.0918
66.2769
72.7797
77.6433
80.4771
81.4372
81.0625
80.0109
78.9178
78.2463
78.1935
78.5878
79.133
79.744
80.683
82.1265
84.078
86.3459
88.8677
91.5316
94.4307
97.4877
100.884
104.492
108.587
112.945
117.987
123.318
129.606
136.171
144.103
152.248
162.428
172.747
186.426
200.572
221.009
242.927
275.381
308.345
353.846
392.51
443.417
481.312
546.288
610.047
678.149
902.668
926.861
821.89
715.773
633.154
561.14
500.984
448.476
403.121
361.343
323.309
289.318
260.353
236.298
216.472
200.013
186.233
174.643
164.922
156.756
149.949
144.197
139.346
135.089
131.276
127.63
124.037
120.341
116.524
112.58
108.575
104.61
100.763
97.1771
93.8688
90.9868
88.4274
86.3585
84.521
83.1983
81.9409
81.3197
80.5853
80.8624
80.8607
82.629
83.3228
38.9042
40.7915
43.3222
46.9941
52.2555
58.9128
66.1026
72.6369
77.5508
80.4415
81.4571
81.1337
80.1301
79.0809
78.4428
78.4
78.7726
79.2765
79.8523
80.7761
82.2179
84.1711
86.4392
88.9606
91.6242
94.5242
97.5829
100.982
104.594
108.694
113.056
118.104
123.442
129.739
136.313
144.258
152.416
162.616
172.956
186.666
200.851
221.34
243.319
275.841
308.858
354.392
393.02
443.82
481.593
546.34
609.738
676.149
896.288
919.028
815.147
709.867
627.925
556.445
496.787
444.48
399.163
357.208
319.144
285.22
256.572
232.839
213.403
197.247
183.788
172.468
163.042
155.145
148.615
143.108
138.483
134.409
130.742
127.2
123.679
120.025
116.23
112.297
108.296
104.336
100.496
96.9251
93.6349
90.7793
88.2447
86.2056
84.3903
83.0928
81.8494
81.246
80.5169
80.8029
80.7988
82.5586
83.2301
38.8812
40.7393
43.2367
46.8723
52.0994
58.7363
65.9308
72.4963
77.4602
80.4076
81.4785
81.2068
80.2516
79.2467
78.6415
78.6077
78.9576
79.4201
79.9613
80.8702