/*--------------------------------*- C++ -*----------------------------------*\
| =========                 |                                                 |
| \\      /  F ield         | OpenFOAM: The Open Source CFD Toolbox           |
|  \\    /   O peration     | Version:  2412                                  |
|   \\  /    A nd           | Website:  www.openfoam.com                      |
|    \\/     M anipulation  |                                                 |
\*---------------------------------------------------------------------------*/
FoamFile
{
    version     2.0;
    format      ascii;
    arch        "LSB;label=32;scalar=64";
    class       volScalarField;
    location    "0.9";
    object      nut;
}
// * * * * * * * * * * * * * * * * * * * * * * * * * * * * * * * * * * * * * //

dimensions      [0 2 -1 0 0 0 0];

internalField   nonuniform List<scalar> 
13079
(
0.347486
0.364457
0.384473
0.406513
0.427055
0.440485
0.44274
0.433145
0.413712
0.387873
0.359057
0.330112
0.303002
0.279076
0.259358
0.244798
0.236177
0.233734
0.236901
0.244505
0.255175
0.267331
0.279527
0.290807
0.301062
0.310496
0.319482
0.328199
0.336706
0.344948
0.352714
0.359957
0.36628
0.371874
0.376206
0.379897
0.382173
0.384155
0.384833
0.38604
0.38652
0.388218
0.388642
0.388048
0.382929
0.372118
0.355944
0.337274
0.323622
0.323103
0.336175
0.364033
0.412117
0.356214
0.262301
0.199122
0.160973
0.132965
0.114337
0.100569
0.0914324
0.0843833
0.0790195
0.0739358
0.0692883
0.0647528
0.0606084
0.0567825
0.0533734
0.0503077
0.0475809
0.0451297
0.0429175
0.0409031
0.039056
0.0373541
0.0357836
0.347296
0.364054
0.38393
0.405983
0.426702
0.4404
0.442931
0.433566
0.414297
0.388558
0.359802
0.330906
0.30387
0.280074
0.260576
0.246355
0.238206
0.236355
0.240195
0.248501
0.25981
0.27243
0.28485
0.296144
0.306271
0.315505
0.324244
0.332699
0.340921
0.348882
0.356359
0.363341
0.369416
0.374819
0.37899
0.382595
0.384818
0.386829
0.387558
0.388909
0.389537
0.391478
0.392099
0.391785
0.386846
0.37631
0.360281
0.34192
0.328543
0.328596
0.342006
0.369359
0.415907
0.360276
0.266045
0.202055
0.16326
0.134784
0.115891
0.101953
0.0927157
0.0855357
0.0800084
0.0747236
0.0698797
0.0651686
0.0608822
0.0569445
0.0534507
0.0503205
0.0475453
0.0450578
0.0428198
0.0407881
0.0389329
0.0372318
0.0356726
0.347108
0.363656
0.38339
0.405451
0.426339
0.4403
0.443105
0.433967
0.414861
0.389224
0.360528
0.331684
0.304722
0.281059
0.261784
0.247903
0.240224
0.238959
0.243463
0.252459
0.264388
0.277444
0.290055
0.301337
0.311316
0.320339
0.328827
0.337019
0.344959
0.352645
0.359843
0.366575
0.372416
0.37764
0.381663
0.385193
0.387373
0.38942
0.390208
0.391706
0.392484
0.394669
0.395486
0.395453
0.390696
0.380442
0.364568
0.346532
0.333442
0.334072
0.347802
0.374613
0.419603
0.364241
0.269754
0.204992
0.165569
0.136636
0.117485
0.103378
0.0940352
0.0867146
0.0810132
0.0755188
0.070474
0.0655851
0.0611566
0.0571076
0.0535302
0.0503362
0.0475138
0.0449911
0.0427287
0.0406817
0.0388208
0.0371237
0.0355801
0.346924
0.363264
0.382855
0.404917
0.425969
0.440187
0.443261
0.434349
0.415406
0.38987
0.361236
0.332444
0.30556
0.28203
0.262979
0.249438
0.242226
0.241539
0.246697
0.256371
0.268899
0.282363
0.295134
0.306379
0.316195
0.324998
0.333232
0.341161
0.348824
0.356242
0.363171
0.369664
0.375284
0.380342
0.38423
0.387694
0.38984
0.391931
0.392781
0.39443
0.39536
0.397789
0.398802
0.39905
0.394477
0.384511
0.368802
0.351107
0.338316
0.339526
0.353554
0.379789
0.423204
0.368104
0.273421
0.207928
0.167897
0.13852
0.119117
0.104841
0.0953892
0.0879188
0.0820332
0.0763217
0.071072
0.0660037
0.0614335
0.0572738
0.0536139
0.0503571
0.0474887
0.0449319
0.0426467
0.0405863
0.0387226
0.0370332
0.0355102
0.346744
0.362877
0.382324
0.404383
0.425591
0.440061
0.4434
0.434712
0.415931
0.390496
0.361925
0.333187
0.306381
0.282988
0.264161
0.250959
0.244209
0.244092
0.249893
0.260229
0.273336
0.287179
0.30008
0.311265
0.320903
0.32948
0.337457
0.345127
0.352518
0.359676
0.366346
0.372613
0.378024
0.382928
0.386692
0.390101
0.392221
0.394361
0.39528
0.397082
0.398165
0.400837
0.402045
0.402573
0.398187
0.388515
0.372981
0.355639
0.34316
0.344951
0.359258
0.384884
0.426709
0.371863
0.27704
0.21086
0.170241
0.140433
0.120785
0.106343
0.0967765
0.0891472
0.0830684
0.0771329
0.0716752
0.0664263
0.0617149
0.0574453
0.0537042
0.0503857
0.0474725
0.0448829
0.0425767
0.0405052
0.0386418
0.0369642
0.0354675
0.0341487
0.0330543
0.0322014
0.0316297
0.0313763
0.0314807
0.0319744
0.0328578
0.0341331
0.03572
0.0375935
0.0395878
0.0417407
0.043839
0.046097
0.0482432
0.0507905
0.0532804
0.0567579
0.0602772
0.0660606
0.0713316
0.346566
0.362495
0.381798
0.403849
0.425207
0.439923
0.443524
0.435057
0.416437
0.391104
0.362597
0.333914
0.307187
0.283931
0.265328
0.252464
0.246169
0.246611
0.253043
0.264027
0.27769
0.291882
0.304886
0.31599
0.325439
0.333784
0.341506
0.348919
0.356045
0.362952
0.369373
0.375425
0.38064
0.385401
0.389053
0.392415
0.394518
0.396713
0.397705
0.399661
0.400898
0.403812
0.405215
0.406021
0.401823
0.392452
0.377101
0.360127
0.34797
0.350342
0.364905
0.389893
0.430119
0.375513
0.280606
0.213781
0.172597
0.142373
0.122488
0.107882
0.0981957
0.0903992
0.0841187
0.0779534
0.0722851
0.0668551
0.0620035
0.057625
0.053804
0.0504248
0.0474682
0.0448471
0.0425219
0.0404419
0.0385824
0.0369214
0.0354574
0.0341906
0.0331676
0.0324109
0.0319636
0.0318645
0.0321527
0.0328569
0.0339672
0.0354774
0.037288
0.0393697
0.0415399
0.0438537
0.0460865
0.0484968
0.0507911
0.0535576
0.0562798
0.0601347
0.0640517
0.0704958
0.0763514
0.346392
0.362119
0.381276
0.403316
0.424817
0.439773
0.443633
0.435385
0.416925
0.391695
0.363252
0.334625
0.307979
0.28486
0.266482
0.253951
0.248105
0.249094
0.256142
0.267757
0.281953
0.296466
0.309547
0.320551
0.329801
0.337911
0.345379
0.352541
0.359408
0.366073
0.372257
0.378105
0.383136
0.387766
0.391316
0.394641
0.396734
0.398988
0.400056
0.402169
0.40356
0.406714
0.40831
0.409393
0.405385
0.396319
0.381159
0.364566
0.352742
0.355693
0.370491
0.394812
0.433433
0.379051
0.284113
0.216687
0.174962
0.144339
0.124224
0.109455
0.0996456
0.0916739
0.0851845
0.0787842
0.0729039
0.0672925
0.062302
0.0578158
0.0539166
0.0504778
0.0474793
0.0448282
0.0424862
0.0404005
0.0385492
0.0369102
0.0354864
0.034281
0.033342
0.0326964
0.0323917
0.0324676
0.0329619
0.0338989
0.0352561
0.0370174
0.0390625
0.0413595
0.0437095
0.0461899
0.0485648
0.0511422
0.0536029
0.0566169
0.0596012
0.0638747
0.0682287
0.0753812
0.0818496
0.346221
0.361749
0.38076
0.402783
0.424422
0.439614
0.443727
0.435696
0.417396
0.392268
0.363891
0.335321
0.308757
0.285775
0.26762
0.255419
0.250012
0.251537
0.259185
0.271414
0.286119
0.300925
0.314056
0.324945
0.333988
0.341863
0.349079
0.355994
0.362612
0.369044
0.375001
0.380657
0.385516
0.390025
0.393484
0.39678
0.398869
0.401187
0.402335
0.404604
0.406151
0.409542
0.411329
0.412688
0.408871
0.400114
0.385155
0.368954
0.357471
0.360998
0.376009
0.399638
0.436652
0.382475
0.287555
0.219574
0.177332
0.146326
0.12599
0.11106
0.101125
0.092971
0.0862664
0.0796271
0.073534
0.0677416
0.062614
0.0580214
0.0540457
0.0505485
0.0475095
0.0448302
0.042474
0.0403858
0.0385474
0.0369368
0.0355615
0.0344284
0.0335876
0.0330704
0.0329286
0.0332025
0.0339271
0.0351206
0.0367449
0.0387731
0.0410624
0.0435811
0.0461148
0.0487682
0.0512939
0.054055
0.0567021
0.0599933
0.0632703
0.0680025
0.0728302
0.0807318
0.0878315
0.346053
0.361384
0.380248
0.402252
0.424022
0.439445
0.443809
0.435993
0.417852
0.392826
0.364514
0.336003
0.309521
0.286677
0.268743
0.256866
0.25189
0.253935
0.262169
0.274991
0.290181
0.305253
0.318412
0.32917
0.338001
0.34564
0.352609
0.359284
0.36566
0.371869
0.377611
0.383086
0.387785
0.392184
0.395561
0.398834
0.400926
0.403312
0.404542
0.406969
0.40867
0.412297
0.414273
0.415905
0.41228
0.403836
0.389084
0.373288
0.362155
0.366253
0.381454
0.404368
0.439775
0.385783
0.290927
0.222436
0.179704
0.148333
0.127785
0.112698
0.102632
0.0942901
0.0873654
0.080484
0.0741781
0.0682056
0.062943
0.0582457
0.0541953
0.050641
0.0475634
0.0448576
0.04249
0.0404033
0.0385833
0.0370081
0.0356913
0.0346427
0.0339163
0.0335469
0.0335909
0.0340882
0.0350691
0.0365436
0.0384552
0.0407649
0.0433072
0.0460529
0.0487738
0.0516073
0.054294
0.0572567
0.0601118
0.0637104
0.0673103
0.0725387
0.0778726
0.0865549
0.0942934
0.345888
0.361024
0.379743
0.401723
0.423619
0.439267
0.443878
0.436275
0.418292
0.393369
0.365123
0.336671
0.310272
0.287566
0.269851
0.258293
0.253735
0.256286
0.265088
0.278485
0.294135
0.309446
0.32261
0.333226
0.34184
0.349245
0.355972
0.362414
0.368558
0.374553
0.380091
0.385396
0.389946
0.394245
0.397548
0.400806
0.402907
0.405364
0.406679
0.409263
0.411118
0.414977
0.417139
0.419042
0.41561
0.407482
0.392946
0.377564
0.366788
0.371452
0.38682
0.408999
0.442804
0.388971
0.294224
0.22527
0.182073
0.150356
0.129606
0.114364
0.104167
0.0956312
0.0884825
0.0813571
0.0748395
0.0686883
0.0632933
0.0584931
0.05437
0.0507601
0.0476458
0.0449157
0.04254
0.040459
0.0386637
0.0371323
0.0358853
0.0349355
0.0343417
0.0341421
0.0343974
0.0351456
0.0364104
0.0381908
0.0404092
0.0430138
0.045816
0.0487929
0.0517045
0.0547256
0.0575845
0.0607683
0.0638534
0.0677895
0.0717408
0.077499
0.0833658
0.0928492
0.101222
0.345726
0.36067
0.379242
0.401195
0.423213
0.439081
0.443936
0.436544
0.418718
0.393897
0.365719
0.337327
0.311011
0.288442
0.270943
0.259697
0.255546
0.258587
0.267939
0.281891
0.297976
0.313499
0.326649
0.337112
0.345508
0.352681
0.359172
0.365389
0.371309
0.377101
0.382446
0.387592
0.392003
0.396211
0.399451
0.402699
0.404814
0.407345
0.408746
0.411487
0.413495
0.417583
0.419929
0.4221
0.418861
0.411053
0.396739
0.38178
0.371367
0.376589
0.392101
0.413527
0.445737
0.392039
0.297442
0.228069
0.184437
0.152393
0.13145
0.116058
0.105727
0.0969944
0.0896194
0.082249
0.0755216
0.0691939
0.0636695
0.0587684
0.0545751
0.050911
0.0477623
0.0450101
0.0426303
0.0405599
0.0387967
0.0373188
0.0361546
0.0353197
0.0348793
0.0348742
0.0353689
0.0363978
0.0379751
0.0400863
0.0426296
0.0455403
0.0486077
0.0518188
0.0549241
0.058141
0.0611842
0.0646091
0.0679465
0.0722486
0.0765775
0.082893
0.0893124
0.0996048
0.108595
0.345566
0.360321
0.378747
0.40067
0.422803
0.438887
0.443983
0.4368
0.41913
0.394412
0.366302
0.33797
0.311738
0.289305
0.27202
0.261079
0.257322
0.260836
0.270721
0.285206
0.301701
0.31741
0.330529
0.34083
0.349007
0.355952
0.362213
0.368213
0.373919
0.379518
0.384681
0.389677
0.393961
0.398087
0.40127
0.404515
0.406648
0.409255
0.410745
0.413642
0.415801
0.420115
0.422642
0.425078
0.422032
0.414546
0.400461
0.385934
0.37589
0.381659
0.397294
0.41795
0.448578
0.394986
0.300577
0.230831
0.186791
0.15444
0.133315
0.117777
0.107313
0.0983802
0.090778
0.0831629
0.0762286
0.069727
0.0640769
0.0590772
0.0548162
0.0510997
0.047919
0.0451476
0.0427679
0.0407142
0.0389915
0.0375782
0.0365116
0.0358104
0.0355469
0.0357638
0.0365285
0.0378695
0.0397886
0.0422545
0.0451388
0.0483647
0.0517001
0.0551473
0.0584489
0.0618701
0.0651102
0.0687963
0.0724077
0.0771019
0.0818304
0.088724
0.095707
0.106803
0.11638
0.34541
0.359977
0.378258
0.400148
0.422392
0.438687
0.44402
0.437044
0.419529
0.394914
0.366873
0.338603
0.312455
0.290157
0.273081
0.262437
0.259062
0.263031
0.273429
0.288426
0.305306
0.321178
0.334248
0.344382
0.352339
0.359062
0.3651
0.370891
0.376393
0.381809
0.3868
0.391658
0.395824
0.399875
0.40301
0.406257
0.408413
0.411098
0.412677
0.415729
0.418037
0.422572
0.425278
0.427975
0.425123
0.417961
0.40411
0.390023
0.380351
0.386659
0.402393
0.422266
0.451325
0.397811
0.303624
0.233549
0.189132
0.156494
0.135199
0.11952
0.108924
0.0997894
0.0919605
0.0841021
0.076965
0.0702928
0.0645212
0.0594256
0.0550998
0.0513328
0.0481229
0.0453355
0.0429612
0.0409308
0.0392585
0.0379225
0.0369707
0.0364245
0.0363643
0.0368335
0.0379012
0.0395873
0.0418772
0.04472
0.0479588
0.0515057
0.0551096
0.0587933
0.0622935
0.0659277
0.0693777
0.0733444
0.0772497
0.0823584
0.0875037
0.0949877
0.102536
0.114415
0.12454
0.345256
0.359639
0.377774
0.399628
0.421979
0.438481
0.444047
0.437276
0.419916
0.395404
0.367432
0.339225
0.313161
0.290997
0.274127
0.263772
0.260764
0.265171
0.276062
0.291549
0.308789
0.324801
0.337808
0.347768
0.355509
0.362014
0.367838
0.373428
0.378736
0.383979
0.388809
0.393537
0.397595
0.40158
0.404673
0.407926
0.410109
0.412873
0.414543
0.417748
0.420204
0.424957
0.427838
0.430792
0.428133
0.421296
0.407685
0.394044
0.384749
0.391583
0.407395
0.426473
0.45398
0.400512
0.306579
0.236221
0.191455
0.158552
0.137099
0.121286
0.110559
0.101223
0.0931693
0.0850705
0.0777357
0.0708971
0.0650088
0.0598203
0.055433
0.0516177
0.048382
0.0455822
0.0432193
0.0412201
0.0396096
0.0383657
0.0375483
0.0371811
0.0373535
0.0381082
0.0395141
0.0415786
0.0442674
0.0475069
0.0511099
0.0549805
0.0588509
0.06277
0.0664707
0.0703263
0.0739987
0.0782641
0.0824809
0.0880216
0.0935949
0.101672
0.109778
0.122408
0.133027
0.345105
0.359305
0.377296
0.399112
0.421564
0.438269
0.444066
0.437498
0.420292
0.395883
0.367981
0.339837
0.313858
0.291827
0.275159
0.265082
0.262428
0.267255
0.278619
0.294574
0.31215
0.32828
0.341211
0.350994
0.358521
0.364814
0.370431
0.37583
0.380953
0.386032
0.390711
0.39532
0.399277
0.403205
0.406262
0.409526
0.411738
0.414584
0.416344
0.419701
0.422303
0.427268
0.430321
0.433529
0.431062
0.424551
0.411185
0.397996
0.389079
0.396426
0.412295
0.430569
0.456545
0.403091
0.309441
0.238842
0.193757
0.160611
0.139011
0.123071
0.112217
0.102682
0.0944076
0.0860723
0.0785462
0.0715462
0.0655468
0.0602688
0.0558238
0.0519628
0.048705
0.0458973
0.0435527
0.0415938
0.0400583
0.0389234
0.0382626
0.0381016
0.038539
0.0396149
0.0413956
0.0438719
0.0469854
0.0506376
0.0546107
0.0588038
0.062936
0.0670879
0.0709903
0.0750753
0.0789819
0.0835617
0.0881042
0.0940887
0.100094
0.108758
0.117403
0.130738
0.141792
0.344957
0.358977
0.376824
0.398599
0.421149
0.438052
0.444077
0.43771
0.420657
0.396352
0.368521
0.340439
0.314545
0.292646
0.276175
0.266369
0.264053
0.269281
0.281099
0.297499
0.315386
0.331614
0.344457
0.354061
0.361378
0.367466
0.372885
0.378101
0.383049
0.387975
0.392512
0.39701
0.400876
0.404752
0.407779
0.411059
0.413304
0.416231
0.418082
0.421588
0.424333
0.429507
0.432728
0.436185
0.43391
0.427726
0.414609
0.401877
0.393338
0.401186
0.417089
0.434553
0.459019
0.405547
0.312205
0.241408
0.196034
0.162667
0.140935
0.124876
0.113899
0.104167
0.0956784
0.0871124
0.0794026
0.0722471
0.066143
0.0607795
0.0562809
0.0523772
0.0491019
0.0462913
0.0439731
0.0420653
0.0406198
0.0396133
0.0391342
0.0392096
0.0399475
0.0413826
0.0435751
0.0464952
0.050056
0.0541326
0.0584768
0.0629871
0.0673738
0.0717545
0.0758591
0.0801807
0.0843317
0.0892388
0.094117
0.10055
0.106986
0.116219
0.125375
0.139357
0.150779
0.344811
0.358654
0.376357
0.39809
0.420733
0.43783
0.44408
0.437913
0.421013
0.39681
0.369051
0.341034
0.315224
0.293455
0.277177
0.267632
0.265638
0.27125
0.2835
0.300324
0.318498
0.334804
0.34755
0.356974
0.364085
0.369976
0.375204
0.380247
0.38503
0.38981
0.394216
0.398612
0.402395
0.406225
0.409229
0.412527
0.414807
0.417816
0.419758
0.423411
0.426297
0.431674
0.43506
0.438762
0.436678
0.43082
0.417956
0.405684
0.397525
0.405857
0.421775
0.438423
0.461406
0.40788
0.31487
0.243916
0.198283
0.164717
0.142867
0.126697
0.115606
0.105682
0.0969856
0.0881958
0.0803116
0.0730075
0.0668061
0.0613616
0.0568143
0.0528712
0.0495836
0.0467761
0.044494
0.0426494
0.0413113
0.0404552
0.0401861
0.0405311
0.0416075
0.0434412
0.0460826
0.0494759
0.0535022
0.0580092
0.0627204
0.0675387
0.0721699
0.076774
0.0810804
0.0856442
0.090048
0.0952913
0.10051
0.107391
0.114245
0.124022
0.133651
0.148214
0.159932
0.344668
0.358336
0.375896
0.397584
0.420317
0.437605
0.444076
0.438106
0.421358
0.39726
0.369572
0.34162
0.315896
0.294255
0.278164
0.26887
0.267185
0.27316
0.285823
0.303047
0.321486
0.337852
0.350492
0.359736
0.366647
0.372348
0.377395
0.382273
0.3869
0.391544
0.395827
0.400129
0.403836
0.407628
0.410612
0.413932
0.416249
0.419341
0.421373
0.425171
0.428194
0.433771
0.437317
0.44126
0.439366
0.433833
0.421225
0.409416
0.401636
0.410437
0.426349
0.442178
0.463706
0.410092
0.317433
0.246362
0.2005
0.166758
0.144805
0.128535
0.117336
0.107228
0.0983331
0.0893283
0.0812804
0.0738358
0.0675453
0.0620251
0.0574347
0.0534564
0.0501625
0.0473653
0.04513
0.0433629
0.042152
0.0414711
0.0414432
0.0420942
0.0435494
0.0458216
0.0489471
0.0528392
0.0573436
0.0622811
0.0673495
0.0724625
0.0773259
0.0821463
0.0866531
0.0914632
0.0961254
0.10171
0.107269
0.114587
0.121843
0.132126
0.142185
0.157253
0.169194
0.344528
0.358023
0.375441
0.397083
0.4199
0.437375
0.444065
0.438292
0.421695
0.3977
0.370085
0.3422
0.31656
0.295046
0.279138
0.270085
0.268693
0.275013
0.288068
0.30567
0.324351
0.34076
0.353288
0.362353
0.369069
0.374588
0.379462
0.384185
0.388664
0.393182
0.39735
0.401566
0.405205
0.408962
0.411932
0.415276
0.417633
0.420807
0.422929
0.426869
0.430027
0.435797
0.4395
0.44368
0.441973
0.436765
0.424415
0.413071
0.405668
0.414921
0.430809
0.445819
0.46592
0.412184
0.319893
0.248742
0.202683
0.168787
0.146747
0.130388
0.119091
0.108807
0.0997253
0.0905161
0.0823167
0.074741
0.0683711
0.0627811
0.058154
0.0541452
0.0508522
0.0480735
0.0458978
0.0442243
0.043163
0.0426851
0.0429327
0.0439287
0.0458042
0.0485546
0.0521965
0.0566075
0.061596
0.0669572
0.0723678
0.0777583
0.0828392
0.0878674
0.0925719
0.0976303
0.102554
0.108478
0.114373
0.122111
0.129742
0.140489
0.150926
0.166419
0.178507
0.34439
0.357715
0.374992
0.396585
0.419485
0.437143
0.444049
0.43847
0.422024
0.398133
0.370591
0.342772
0.317218
0.295829
0.280098
0.271276
0.270162
0.276809
0.290235
0.308193
0.327094
0.343531
0.355941
0.364829
0.371357
0.376701
0.381411
0.385987
0.390328
0.394727
0.398789
0.402926
0.406503
0.410232
0.413192
0.416563
0.418961
0.422217
0.424427
0.428506
0.431796
0.437755
0.441611
0.446021
0.444501
0.439616
0.427527
0.416648
0.40962
0.419308
0.435152
0.449344
0.468051
0.414156
0.322248
0.251055
0.204826
0.170801
0.148691
0.132255
0.120872
0.110422
0.101167
0.0917657
0.0834292
0.0757332
0.0692947
0.0636418
0.0589853
0.0549516
0.0516678
0.0489172
0.0468158
0.0452543
0.0443678
0.0441233
0.0446838
0.0460656
0.0484037
0.0516697
0.0558558
0.0607994
0.0662702
0.0720415
0.0777736
0.0834209
0.0887027
0.0939288
0.098827
0.104133
0.109317
0.115576
0.121794
0.129929
0.137903
0.149063
0.159821
0.175654
0.187816
0.344254
0.357411
0.374549
0.396091
0.419069
0.436907
0.444026
0.438641
0.422344
0.398558
0.371091
0.343339
0.31787
0.296604
0.281045
0.272445
0.271593
0.278547
0.292325
0.310617
0.329717
0.346168
0.358455
0.367168
0.373515
0.378693
0.383248
0.387684
0.391895
0.396184
0.400149
0.404212
0.407734
0.411439
0.414393
0.417793
0.420233
0.42357
0.425869
0.430084
0.433503
0.439644
0.44365
0.448286
0.44695
0.442387
0.430559
0.420146
0.413488
0.423594
0.439377
0.452753
0.4701
0.416011
0.324497
0.253297
0.206929
0.172798
0.150634
0.134135
0.122679
0.112076
0.102664
0.0930843
0.084627
0.076823
0.0703282
0.0646203
0.0599429
0.0558909
0.0526258
0.0499145
0.0479039
0.0464753
0.0457915
0.045814
0.0467269
0.0485366
0.0513786
0.0551944
0.0599464
0.0654284
0.0713718
0.0775323
0.0835603
0.0894405
0.0949049
0.100318
0.105404
0.110954
0.116394
0.122977
0.129501
0.138001
0.146282
0.157796
0.168815
0.184905
0.19707
0.34412
0.357112
0.374111
0.395602
0.418655
0.436669
0.443999
0.438805
0.422658
0.398976
0.371583
0.3439
0.318516
0.297371
0.28198
0.27359
0.272985
0.280229
0.294338
0.312943
0.332222
0.348673
0.360834
0.369376
0.375548
0.380568
0.384976
0.389282
0.393372
0.397558
0.401432
0.40543
0.408902
0.412588
0.415539
0.418969
0.421452
0.424871
0.427256
0.431604
0.435148
0.441467
0.445618
0.450475
0.449321
0.445076
0.433512
0.423564
0.417272
0.427776
0.443482
0.456047
0.472069
0.41775
0.326639
0.255467
0.208988
0.174774
0.152575
0.136028
0.124513
0.113772
0.10422
0.0944796
0.0859199
0.078022
0.0714847
0.0657309
0.0610421
0.0569794
0.0537442
0.0510851
0.0491841
0.0479117
0.0474612
0.0477866
0.0490933
0.0513733
0.0547583
0.0591529
0.0644849
0.0705022
0.0769001
0.0834222
0.0897159
0.0958024
0.10143
0.107017
0.112284
0.118071
0.123759
0.13065
0.137456
0.146285
0.154829
0.166638
0.177856
0.194117
0.206221
0.343989
0.356818
0.373679
0.395116
0.418241
0.436428
0.443967
0.438963
0.422965
0.399387
0.372071
0.344456
0.319157
0.298132
0.282902
0.274713
0.274341
0.281856
0.296277
0.315173
0.334611
0.351051
0.363083
0.371459
0.377463
0.382332
0.386602
0.390785
0.394762
0.398853
0.402643
0.406581
0.410009
0.413679
0.416631
0.420093
0.422621
0.426119
0.42859
0.433067
0.436733
0.443225
0.447516
0.452589
0.451615
0.447686
0.436386
0.4269
0.42097
0.431854
0.447466
0.459225
0.473959
0.419375
0.328675
0.257561
0.211001
0.176728
0.154512
0.137933
0.126377
0.115513
0.105843
0.0959597
0.0873184
0.0793426
0.0727784
0.0669889
0.0622996
0.0582351
0.0550425
0.0524501
0.0506798
0.0495892
0.0494054
0.0500716
0.0518143
0.0546059
0.058569
0.0635647
0.0694821
0.0760223
0.0828479
0.0896978
0.0962232
0.102487
0.108257
0.114004
0.119443
0.125458
0.131381
0.138559
0.14562
0.154737
0.163498
0.175538
0.186891
0.203244
0.215223
0.34386
0.356529
0.373252
0.394635
0.417829
0.436186
0.44393
0.439115
0.423265
0.399793
0.372552
0.345007
0.319793
0.298886
0.283813
0.275815
0.27566
0.283429
0.298142
0.317308
0.336888
0.353305
0.365206
0.37342
0.379264
0.383991
0.38813
0.392199
0.396069
0.400072
0.403786
0.40767
0.411058
0.414717
0.417671
0.421167
0.423739
0.427316
0.429872
0.434475
0.43826
0.444918
0.449347
0.454629
0.453833
0.450217
0.43918
0.430155
0.42458
0.435824
0.451328
0.462288
0.475772
0.420889
0.330605
0.259579
0.212965
0.178657
0.156444
0.13985
0.128271
0.117305
0.107538
0.0975331
0.0888335
0.0807978
0.0742242
0.0684106
0.063733
0.0596769
0.0565413
0.0540322
0.052416
0.0515352
0.0516533
0.0526997
0.0549205
0.0582621
0.062833
0.0684439
0.0749421
0.081983
0.0892019
0.0963401
0.10306
0.109472
0.115362
0.121255
0.126854
0.133085
0.139227
0.146665
0.153951
0.163308
0.172238
0.184445
0.195872
0.212238
0.224038
0.343734
0.356244
0.372831
0.394159
0.417418
0.435941
0.44389
0.439261
0.423559
0.400193
0.373029
0.345554
0.320426
0.299634
0.284713
0.276895
0.276944
0.284949
0.299935
0.319352
0.339055
0.35544
0.367209
0.375265
0.380957
0.385549
0.389566
0.393527
0.397299
0.40122
0.404864
0.408699
0.412053
0.415703
0.418663
0.422193
0.424811
0.428465
0.431103
0.435829
0.439729
0.446548
0.45111
0.456597
0.455975
0.452669
0.441896
0.433326
0.4281
0.439686
0.455067
0.465236
0.47751
0.422294
0.332427
0.261519
0.214878
0.180558
0.158369
0.141779
0.130198
0.119149
0.109311
0.099209
0.0904769
0.0824014
0.0758379
0.0700132
0.0653612
0.061325
0.0582626
0.0558552
0.0544186
0.0537776
0.0542346
0.055701
0.0584404
0.0623664
0.0675674
0.073798
0.0808621
0.0883721
0.0959421
0.103325
0.1102
0.116728
0.122717
0.128739
0.134487
0.140917
0.147259
0.154928
0.162402
0.171952
0.181001
0.193311
0.204752
0.221059
0.232632
0.343609
0.355963
0.372416
0.393686
0.417008
0.435695
0.443845
0.439402
0.423848
0.400587
0.373502
0.346098
0.321055
0.300377
0.285602
0.277955
0.278193
0.286418
0.301658
0.321305
0.341115
0.357459
0.369097
0.377
0.382546
0.387012
0.390913
0.394775
0.398456
0.402302
0.40588
0.409672
0.412995
0.41664
0.419608
0.423173
0.425836
0.429566
0.432285
0.43713
0.441142
0.448118
0.452807
0.458493
0.458044
0.455042
0.444532
0.436415
0.431531
0.443437
0.458684
0.468071
0.479175
0.423592
0.334144
0.26338
0.216739
0.182432
0.160287
0.14372
0.13216
0.121051
0.11117
0.100997
0.0922608
0.084168
0.0776358
0.0718146
0.0672034
0.0632003
0.0602291
0.0579438
0.0567142
0.0563447
0.0571785
0.0591039
0.0623995
0.0669383
0.0727831
0.0796274
0.0872318
0.0951699
0.103043
0.110622
0.117612
0.124225
0.130291
0.136426
0.142307
0.148919
0.155437
0.163305
0.170928
0.180622
0.189739
0.202091
0.213489
0.229671
0.240975
0.343487
0.355687
0.372006
0.393219
0.4166
0.435448
0.443797
0.439539
0.424132
0.400977
0.37397
0.346638
0.32168
0.301115
0.286481
0.278995
0.279408
0.287837
0.303312
0.323171
0.343072
0.359367
0.370874
0.37863
0.384038
0.388384
0.392178
0.395946
0.399542
0.403319
0.406839
0.410591
0.413888
0.41753
0.420508
0.424109
0.426817
0.430622
0.43342
0.438381
0.442501
0.449627
0.454441
0.46032
0.46004
0.457339
0.447091
0.43942
0.43487
0.447078
0.462177
0.470794
0.48077
0.424786
0.335756
0.26516
0.218546
0.184274
0.162196
0.145674
0.134158
0.123014
0.113122
0.102906
0.0941978
0.0861124
0.0796349
0.0738332
0.0692797
0.0653243
0.062464
0.0603228
0.0593295
0.0592643
0.0605126
0.0629342
0.066819
0.0719916
0.0784837
0.0859248
0.0940333
0.102351
0.110473
0.118198
0.125262
0.131929
0.13805
0.144281
0.150279
0.157051
0.163722
0.171751
0.179486
0.189272
0.198408
0.210742
0.222044
0.238043
0.249043
0.343366
0.355415
0.371602
0.392755
0.416194
0.4352
0.443746
0.439671
0.424411
0.401362
0.374435
0.347176
0.322303
0.301848
0.28735
0.280016
0.280591
0.289207
0.304901
0.324953
0.344929
0.361168
0.372544
0.380159
0.385436
0.38967
0.393363
0.397045
0.400563
0.404276
0.407742
0.41146
0.414734
0.418375
0.421365
0.425002
0.427755
0.431633
0.434509
0.439582
0.443807
0.451077
0.456012
0.462079
0.461965
0.45956
0.449571
0.442342
0.438117
0.450608
0.465548
0.473405
0.482295
0.425879
0.337263
0.266859
0.220298
0.186086
0.164096
0.14764
0.136195
0.125044
0.115173
0.104947
0.0963008
0.0882499
0.0818525
0.0760878
0.0716103
0.0677186
0.0649907
0.0630172
0.0622905
0.0625626
0.0642622
0.067214
0.0717147
0.0775333
0.0846655
0.092675
0.101242
0.109882
0.118196
0.126017
0.133113
0.139805
0.145959
0.152267
0.158366
0.165275
0.17207
0.180223
0.188029
0.197859
0.206967
0.219227
0.230386
0.246149
0.256816
0.343248
0.355147
0.371203
0.392296
0.415789
0.434951
0.443692
0.439799
0.424685
0.401743
0.374896
0.347711
0.322923
0.302577
0.28821
0.281019
0.281743
0.29053
0.306426
0.326653
0.34669
0.362866
0.374114
0.381592
0.386746
0.390874
0.394474
0.398076
0.401521
0.405176
0.408594
0.412281
0.415535
0.419178
0.422181
0.425855
0.428652
0.432602
0.435553
0.440735
0.445061
0.452471
0.457522
0.463771
0.463819
0.461706
0.451975
0.445181
0.441272
0.454026
0.468797
0.475906
0.483752
0.426874
0.338668
0.268478
0.221994
0.187864
0.165986
0.149621
0.138274
0.127145
0.117331
0.10713
0.0985829
0.0905959
0.0843058
0.0785971
0.0742152
0.0704047
0.0678319
0.0660509
0.0656217
0.066264
0.0684492
0.0719604
0.0770963
0.0835629
0.0913167
0.0998552
0.108825
0.117727
0.126173
0.134038
0.141127
0.147814
0.15398
0.160347
0.166528
0.17355
0.18044
0.18868
0.196517
0.206341
0.215376
0.227512
0.238484
0.253967
0.264279
0.343132
0.354884
0.370809
0.391841
0.415387
0.434701
0.443635
0.439923
0.424955
0.40212
0.375355
0.348244
0.323542
0.303302
0.289061
0.282004
0.282864
0.291809
0.307889
0.328273
0.348358
0.364467
0.375588
0.382935
0.387972
0.392002
0.395515
0.399042
0.402421
0.406023
0.409396
0.413056
0.416294
0.419941
0.422958
0.426668
0.42951
0.43353
0.436554
0.441841
0.446265
0.453809
0.458972
0.465397
0.465605
0.463778
0.454302
0.447936
0.444335
0.457331
0.471925
0.478299
0.485144
0.427773
0.339971
0.270015
0.223633
0.189609
0.167867
0.151616
0.140396
0.129322
0.119603
0.109465
0.101057
0.0931657
0.0870116
0.081379
0.0771137
0.073403
0.0710092
0.0694463
0.0693456
0.0703892
0.0730909
0.0771847
0.0829662
0.0900722
0.0984174
0.107436
0.116747
0.125844
0.134361
0.142219
0.149264
0.155918
0.162077
0.168485
0.174728
0.181836
0.188792
0.19708
0.204908
0.214681
0.223601
0.235568
0.246316
0.261481
0.271421
0.343017
0.354624
0.37042
0.391391
0.414986
0.43445
0.443575
0.440043
0.425221
0.402494
0.375811
0.348775
0.324158
0.304024
0.289904
0.282972
0.283957
0.293044
0.309292
0.329818
0.349938
0.365973
0.37697
0.384192
0.389119
0.393058
0.39649
0.399948
0.403266
0.406819
0.410152
0.413788
0.417013
0.420665
0.423698
0.427444
0.43033
0.434418
0.437514
0.442902
0.447421
0.455094
0.460364
0.46696
0.467324
0.465777
0.456554
0.450608
0.447304
0.460525
0.474932
0.480584
0.486473
0.428581
0.341175
0.271471
0.225214
0.191319
0.169738
0.153627
0.142566
0.131579
0.121998
0.111962
0.103736
0.0959739
0.0899862
0.084451
0.0803239
0.0767327
0.0745426
0.0732236
0.0734812
0.0749551
0.0781992
0.0828915
0.0893193
0.097045
0.10594
0.11538
0.124964
0.134187
0.142715
0.150518
0.157483
0.164079
0.170212
0.176641
0.182927
0.190095
0.197086
0.205384
0.213166
0.222846
0.231613
0.243369
0.253862
0.268678
0.278235
0.342905
0.354369
0.370037
0.390945
0.414588
0.434199
0.443513
0.44016
0.425484
0.402864
0.376264
0.349304
0.324774
0.304742
0.290739
0.283924
0.285021
0.294237
0.310639
0.331289
0.351432
0.367391
0.378265
0.385368
0.390191
0.394045
0.397402
0.400797
0.404058
0.407567
0.410865
0.414479
0.417693
0.421353
0.424402
0.428184
0.431113
0.435268
0.438433
0.44392
0.448529
0.456325
0.461699
0.46846
0.468976
0.467705
0.458731
0.453197
0.450182
0.463608
0.477821
0.482765
0.48774
0.429299
0.342282
0.272846
0.226738
0.192995
0.171599
0.155654
0.144784
0.133921
0.124521
0.114631
0.106632
0.0990345
0.0932444
0.0878286
0.0838622
0.0804107
0.0784492
0.0773996
0.0780438
0.0799734
0.0837799
0.0890783
0.0961427
0.104457
0.113851
0.123645
0.13343
0.142711
0.15119
0.158892
0.165744
0.172259
0.178348
0.18478
0.191089
0.19829
0.205286
0.213558
0.221259
0.230805
0.239386
0.250897
0.261106
0.27555
0.284716
0.342794
0.354117
0.369658
0.390504
0.414191
0.433947
0.443449
0.440274
0.425743
0.403232
0.376716
0.349833
0.325388
0.305458
0.291566
0.28486
0.286059
0.295391
0.31193
0.332691
0.352845
0.368723
0.379477
0.386468
0.391193
0.394967
0.398255
0.401592
0.404802
0.408271
0.411536
0.415133
0.418338
0.422006
0.425072
0.42889
0.431862
0.436081
0.439314
0.444895
0.449592
0.457507
0.46298
0.4699
0.470565
0.469563
0.460835
0.455704
0.452967
0.46658
0.480593
0.484842
0.488948
0.429931
0.343293
0.274142
0.228203
0.194636
0.173452
0.1577
0.147055
0.136352
0.12718
0.117482
0.109757
0.10236
0.0967996
0.0915256
0.0877424
0.0844515
0.082743
0.0819874
0.0830436
0.0854498
0.0898319
0.095735
0.103415
0.112277
0.122109
0.132186
0.142095
0.151366
0.15974
0.167299
0.174009
0.180421
0.186448
0.192866
0.199177
0.206385
0.213358
0.221569
0.229155
0.238532
0.246898
0.258133
0.268039
0.282092