/*--------------------------------*- C++ -*----------------------------------*\
| =========                 |                                                 |
| \\      /  F ield         | OpenFOAM: The Open Source CFD Toolbox           |
|  \\    /   O peration     | Version:  2412                                  |
|   \\  /    A nd           | Website:  www.openfoam.com                      |
|    \\/     M anipulation  |                                                 |
\*---------------------------------------------------------------------------*/
FoamFile
{
    version     2.0;
    format      ascii;
    arch        "LSB;label=32;scalar=64";
    class       volScalarField;
    location    "0.9";
    object      p;
}
// * * * * * * * * * * * * * * * * * * * * * * * * * * * * * * * * * * * * * //

dimensions      [0 2 -2 0 0 0 0];

internalField   nonuniform List<scalar> 
13079
(
106130
105958
105848
105586
105420
105130
104913
104604
104346
104032
103766
103467
103218
102937
102705
102424
102192
101880
101622
101235
100925
100437
100082
99475.4
99087.9
98330.9
97920.9
96960.9
96545.3
95302.8
94913.5
93270.2
92963.7
90741.9
90617.1
87545.8
87770.8
83429.5
84287.1
78014.3
79971.5
70710.5
74546.5
60600.5
67678.8
46371.7
59135.5
26102.4
48572.9
-4360.55
33782.5
-56331.6
9590.36
-154082
-15260.3
-75784.9
1871.59
-34284.7
14951.7
-6983.71
24161.7
11245.9
31245.1
24399.9
37645.4
34578.5
43547.5
42653.4
48875.8
49181.7
53614.8
54522
57748.6
58889.1
61282.2
62457.6
64270.8
106110
105942
105833
105573
105408
105120
104904
104597
104340
104027
103762
103464
103216
102935
102703
102422
102190
101877
101618
101231
100921
100431
100076
99468.6
99081.4
98323.2
97913.9
96952.2
96537.7
95293
94905.4
93258.9
92955.1
90728.9
90607.8
87530.5
87760.7
83411.1
84275.8
77991.8
79958.7
70682.9
74531.8
60567.3
67662.4
46332.5
59115.1
26055.1
48541.4
-4417.2
33733.4
-56343.8
9590.96
-153572
-15118.2
-75764.6
1890.54
-34299.4
14955
-6997.58
24163.1
11232.1
31243.2
24385.9
37641.6
34566
43542.9
42642.6
48870.9
49172.8
53610.4
54515.1
57745.1
58884.1
61279.7
62454.2
64268.9
106092
105925
105817
105560
105396
105110
104895
104590
104333
104022
103758
103461
103213
102933
102702
102420
102188
101875
101615
101226
100916
100425
100070
99461.8
99075
98315.6
97906.9
96943.7
96530.3
95283.3
94897.4
93247.9
92946.6
90716.1
90598.7
87515.4
87750.7
83392.9
84264.7
77969.5
79946
70655.5
74517.4
60534.3
67646
46293.5
59094.8
26008
48510
-4473.57
33684.7
-56355
9592.32
-153067
-14976.8
-75743.7
1909.72
-34313.7
14958.6
-7011.19
24164.8
11218.4
31241.4
24371.9
37637.8
34553.5
43538.4
42631.9
48866
49163.9
53605.9
54508.2
57741.7
58879.2
61277.2
62450.8
64267.1
106073
105909
105801
105547
105384
105101
104886
104583
104327
104017
103754
103458
103211
102931
102700
102419
102186
101872
101612
101222
100911
100419
100065
99455.2
99068.6
98308.1
97900
96935.2
96522.9
95273.7
94889.6
93237
92938.2
90703.4
90589.7
87500.4
87740.8
83374.8
84253.7
77947.4
79933.5
70628.4
74503.1
60501.4
67629.9
46254.6
59074.7
25961
48478.7
-4529.65
33636.5
-56365.2
9594.4
-152564
-14836.2
-75722.2
1929.1
-34327.8
14962.4
-7024.56
24166.7
11204.9
31239.8
24358
37634.2
34541.1
43533.8
42621.2
48861.2
49155
53601.5
54501.4
57738.2
58874.4
61274.7
62447.4
64265.3
106054
105892
105785
105534
105372
105091
104877
104575
104321
104012
103750
103455
103208
102929
102698
102417
102184
101869
101608
101217
100906
100414
100059
99448.6
99062.4
98300.7
97893.3
96926.8
96515.7
95264.2
94881.9
93226.1
92929.9
90690.8
90580.8
87485.5
87731.1
83356.9
84242.8
77925.5
79921
70601.3
74488.9
60468.8
67613.9
46215.9
59054.7
25914.3
48447.6
-4585.49
33588.7
-56374.6
9597.06
-152066
-14696.4
-75700.1
1948.7
-34341.7
14966.4
-7037.8
24168.6
11191.4
31238.2
24344.2
37630.5
34528.7
43529.4
42610.5
48856.4
49146.2
53597.2
54494.6
57734.9
58869.5
61272.3
62444.1
64263.5
65381
66791.1
67822
68939.4
69882.7
70781.8
71653.3
72381.3
73205.8
73787.4
74594.9
75031.8
75857.1
76126
77017.6
77063.9
78104.2
77822.5
79167.6
78350.3
80318.4
78533.8
106036
105876
105770
105522
105360
105081
104869
104568
104315
104007
103746
103451
103206
102927
102697
102415
102182
101866
101605
101213
100901
100408
100053
99442.1
99056.2
98293.3
97886.6
96918.6
96508.6
95254.9
94874.2
93215.4
92921.8
90678.4
90572
87470.7
87721.4
83339
84232
77903.6
79908.7
70574.5
74474.9
60436.4
67598.1
46177.6
59035
25867.8
48416.8
-4641.07
33541.3
-56383.2
9600.28
-151571
-14557.5
-75677.4
1968.51
-34355.4
14970.5
-7050.92
24170.7
11178.1
31236.7
24330.5
37627
34516.4
43525
42599.9
48851.6
49137.4
53592.9
54487.8
57731.5
58864.7
61269.9
62440.8
64261.8
65378.6
66789.7
67820.2
68937.8
69881
70780
71651.7
72379.2
73204.4
73785.1
74594
75029.4
75857.1
76123.4
77018.7
77060.8
78106.8
77818.4
79172.2
78344.3
80325.3
78525.4
106017
105860
105755
105509
105349
105071
104860
104561
104309
104002
103742
103448
103204
102925
102695
102413
102180
101864
101601
101209
100896
100402
100048
99435.6
99050.1
98286.1
97880.1
96910.4
96501.5
95245.7
94866.7
93204.8
92913.7
90666
90563.2
87456.1
87711.8
83321.3
84221.2
77881.9
79896.6
70547.9
74461.1
60404.2
67582.6
46139.5
59015.5
25821.6
48386.1
-4696.36
33494.3
-56390.9
9604.07
-151079
-14419.5
-75654.2
1988.51
-34368.8
14974.8
-7063.92
24172.9
11164.9
31235.3
24316.9
37623.5
34504.1
43520.6
42589.3
48846.9
49128.6
53588.6
54481.1
57728.2
58859.9
61267.6
62437.5
64260.2
65376.3
66788.3
67818.4
68936.3
69879.4
70778.3
71650.1
72377.2
73203.2
73783
74593.3
75027.1
75857.2
76120.9
77019.9
77057.8
78109.5
77814.4
79177
78338.5
80332.4
78517.2
105999
105844
105739
105496
105337
105061
104852
104554
104303
103997
103738
103445
103201
102923
102693
102411
102178
101861
101598
101204
100892
100397
100042
99429.3
99044.1
98278.9
97873.6
96902.4
96494.6
95236.5
94859.3
93194.3
92905.7
90653.8
90554.6
87441.5
87702.4
83303.7
84210.6
77860.4
79884.5
70521.4
74447.4
60372.3
67567.2
46101.8
58996.2
25775.6
48355.6
-4751.33
33447.9
-56397.7
9608.43
-150592
-14282.4
-75630.5
2008.69
-34382.1
14979.1
-7076.8
24175.3
11151.8
31234
24303.4
37620.1
34491.9
43516.3
42578.8
48842.3
49119.9
53584.4
54474.4
57724.9
58855.2
61265.3
62434.3
64258.6
65374.1
66786.9
67816.6
68935
69877.8
70776.6
71648.7
72375.3
73202
73780.9
74592.7
75025
75857.4
76118.6
77021.2
77054.9
78112.4
77810.5
79182
78332.8
80339.7
78509.2
105981
105828
105724
105484
105325
105052
104843
104547
104297
103992
103734
103442
103199
102921
102692
102410
102176
101858
101595
101200
100887
100391
100037
99422.9
99038.2
98271.8
97867.2
96894.4
96487.7
95227.5
94852
93184
92897.8
90641.7
90546.1
87427.1
87693
83286.3
84200.1
77839
79872.5
70495.1
74433.9
60340.6
67552.1
46064.3
58977.1
25730
48325.4
-4805.97
33402
-56403.6
9613.36
-150107
-14146.3
-75606.3
2029.05
-34395.1
14983.6
-7089.58
24177.7
11138.8
31232.8
24290
37616.8
34479.8
43512.1
42568.3
48837.7
49111.2
53580.2
54467.7
57721.7
58850.5
61263.1
62431.2
64257
65371.9
66785.7
67815
68933.7
69876.4
70775.1
71647.5
72373.6
73201.1
73779
74592.2
75022.9
75857.7
76116.3
77022.7
77052.2
78115.4
77806.8
79187.1
78327.3
80347.2
78501.4
105964
105812
105709
105471
105314
105042
104834
104539
104291
103987
103730
103439
103197
102919
102690
102408
102174
101855
101591
101195
100882
100386
100031
99416.7
99032.3
98264.8
97860.9
96886.6
96481
95218.6
94844.7
93173.7
92890.1
90629.6
90537.6
87412.8
87683.7
83268.9
84189.7
77817.7
79860.7
70469
74420.6
60309.2
67537.1
46027.1
58958.3
25684.6
48295.4
-4860.23
33356.6
-56408.7
9618.85
-149627
-14011.1
-75581.6
2049.55
-34408
14988.2
-7102.25
24180.2
11125.9
31231.7
24276.7
37613.5
34467.8
43508
42557.9
48833.2
49102.6
53576.1
54461.1
57718.6
58845.8
61260.9
62428.1
64255.6
65369.8
66784.5
67813.4
68932.5
69875
70773.7
71646.3
72372
73200.2
73777.3
74591.9
75021.1
75858.2
76114.2
77024.3
77049.6
78118.6
77803.2
79192.4
78321.9
80354.9
78493.8
105946
105797
105694
105459
105302
105033
104826
104532
104285
103983
103727
103436
103194
102917
102689
102406
102172
101852
101588
101191
100877
100380
100026
99410.5
99026.6
98257.9
97854.7
96878.8
96474.3
95209.7
94837.6
93163.5
92882.4
90617.7
90529.3
87398.5
87674.5
83251.7
84179.4
77796.6
79849
70443
74407.4
60278
67522.4
45990.2
58939.8
25639.6
48265.7
-4914.1
33311.8
-56412.8
9624.91
-149150
-13876.8
-75556.5
2070.2
-34420.7
14992.9
-7114.81
24182.8
11113.1
31230.7
24263.5
37610.4
34455.9
43503.9
42547.6
48828.8
49094
53572.1
54454.6
57715.5
58841.3
61258.8
62425
64254.2
65367.8
66783.4
67811.9
68931.4
69873.8
70772.5
71645.3
72370.6
73199.6
73775.7
74591.8
75019.4
75858.9
76112.3
77026.2
77047.2
78122
77799.8
79198
78316.7
80362.9
78486.3
105928
105781
105680
105446
105291
105023
104818
104525
104279
103978
103723
103433
103192
102915
102687
102404
102170
101849
101584
101186
100873
100375
100021
99404.4
99020.9
98251.1
97848.6
96871.1
96467.8
95201
94830.5
93153.4
92874.8
90605.9
90521
87384.4
87665.4
83234.6
84169.2
77775.6
79837.4
70417.3
74394.3
60247.1
67507.9
45953.7
58921.5
25594.9
48236.2
-4967.56
33267.6
-56416.1
9631.53
-148676
-13743.6
-75531
2090.98
-34433.2
14997.7
-7127.29
24185.4
11100.4
31229.9
24250.4
37607.4
34444
43500
42537.4
48824.4
49085.5
53568.1
54448.1
57712.5
58836.7
61256.8
62422
64252.9
65365.8
66782.5
67810.6
68930.4
69872.8
70771.4
71644.5
72369.3
73199.1
73774.3
74591.9
75017.8
75859.8
76110.5
77028.2
77044.9
78125.6
77796.5
79203.7
78311.7
80371
78479.1
105911
105766
105665
105434
105280
105014
104809
104518
104273
103973
103719
103430
103190
102914
102685
102403
102168
101847
101581
101182
100868
100369
100016
99398.4
99015.2
98244.4
97842.6
96863.5
96461.3
95192.3
94823.6
93143.4
92867.2
90594.1
90512.8
87370.4
87656.3
83217.5
84159
77754.7
79825.9
70391.7
74381.5
60216.4
67493.6
45917.4
58903.5
25550.5
48207.1
-5020.58
33224
-56418.4
9638.71
-148206
-13611.3
-75505.1
2111.86
-34445.6
15002.6
-7139.66
24188.2
11087.9
31229.1
24237.4
37604.5
34432.3
43496.1
42527.3
48820.1
49077.1
53564.2
54441.7
57709.6
58832.3
61254.9
62419.1
64251.7
65364
66781.6
67809.3
68929.6
69871.9
70770.5
71643.9
72368.2
73198.8
73773.1
74592.2
75016.5
75860.9
76108.9
77030.3
77042.7
78129.3
77793.3
79209.7
78306.7
80379.3
78472
105894
105751
105650
105422
105268
105004
104801
104512
104268
103968
103715
103427
103188
102912
102684
102401
102166
101844
101577
101178
100864
100364
100011
99392.5
99009.7
98237.7
97836.6
96856
96454.9
95183.8
94816.7
93133.5
92859.8
90582.5
90504.7
87356.5
87647.4
83200.7
84149
77734
79814.6
70366.3
74368.7
60185.9
67479.5
45881.5
58885.7
25506.4
48178.2
-5073.14
33181
-56419.8
9646.43
-147739
-13480
-75478.8
2132.85
-34457.8
15007.5
-7151.95
24191.1
11075.4
31228.5
24224.6
37601.7
34420.8
43492.4
42517.2
48816
49068.8
53560.5
54435.4
57706.8
58827.9
61253.1
62416.3
64250.5
65362.2
66780.9
67808.2
68928.9
69871.2
70769.7
71643.5
72367.4
73198.8
73772.1
74592.6
75015.3
75862.1
76107.4
77032.7
77040.7
78133.3
77790.3
79215.8
78302
80387.8
78465
105877
105735
105636
105410
105257
104995
104793
104505
104262
103964
103712
103424
103185
102910
102682
102399
102164
101841
101574
101173
100859
100359
100005
99386.6
99004.2
98231.2
97830.8
96848.6
96448.6
95175.3
94809.9
93123.7
92852.4
90570.9
90496.6
87342.6
87638.5
83183.9
84139.1
77713.4
79803.4
70341.1
74356.2
60155.7
67465.7
45845.8
58868.2
25462.6
48149.7
-5125.21
33138.7
-56420.2
9654.7
-147275
-13349.7
-75452.1
2153.91
-34469.9
15012.5
-7164.16
24194
11063.1
31228
24212
37599
34409.3
43488.8
42507.3
48811.9
49060.6
53556.8
54429.2
57704.1
58823.7
61251.4
62413.6
64249.6
65360.6
66780.3
67807.3
68928.5
69870.6
70769.2
71643.3
72366.8
73199
73771.3
74593.3
75014.3
75863.6
76106.1
77035.3
77038.9
78137.4
77787.4
79222.1
78297.3
80396.5
78458.2
105860
105720
105621
105398
105246
104985
104784
104498
104256
103959
103708
103421
103183
102908
102681
102397
102162
101838
101570
101169
100854
100354
100000
99380.8
98998.9
98224.7
97825
96841.3
96442.4
95166.9
94803.1
93114
92845.1
90559.5
90488.7
87328.9
87629.7
83167.2
84129.2
77693
79792.2
70316.1
74343.8
60125.8
67452
45810.5
58850.9
25419.3
48121.5
-5176.78
33097.1
-56419.8
9663.51
-146815
-13220.4
-75425.1
2175.05
-34481.9
15017.6
-7176.28
24197.1
11051
31227.6
24199.5
37596.5
34398
43485.3
42497.5
48808
49052.4
53553.2
54423
57701.4
58819.5
61249.7
62411.1
64248.7
65359.2
66779.9
67806.5
68928.2
69870.3
70768.9
71643.3
72366.3
73199.4
73770.8
74594.2
75013.5
75865.2
76105
77038.1
77037.2
78141.8
77784.7
79228.7
78292.8
80405.3
78451.5
105843
105705
105607
105386
105235
104976
104776
104491
104250
103954
103704
103419
103181
102906
102679
102396
102160
101835
101567
101165
100850
100349
99995.6
99375.1
98993.6
98218.3
97819.3
96834
96436.2
95158.6
94796.5
93104.3
92837.9
90548.1
90480.8
87315.3
87621
83150.7
84119.5
77672.7
79781.2
70291.3
74331.6
60096.1
67438.6
45775.4
58833.9
25376.2
48093.6
-5227.83
33056.2
-56418.4
9672.85
-146359
-13092.2
-75397.8
2196.24
-34493.7
15022.7
-7188.33
24200.2
11038.9
31227.4
24187.1
37594.1
34386.9
43482
42487.9
48804.2
49044.5
53549.8
54417
57699
58815.5
61248.3
62408.6
64248
65357.8
66779.6
67805.9
68928.1
69870.2
70768.9
71643.6
72366.2
73200
73770.4
74595.3
75012.9
75867.1
76104.1
77041
77035.7
78146.3
77782.1
79235.3
78288.4
80414.2
78444.9
105826
105690
105593
105374
105224
104967
104768
104484
104245
103950
103701
103416
103179
102905
102678
102394
102158
101832
101564
101160
100846
100343
99990.7
99369.4
98988.3
98212
97813.6
96826.9
96430.2
95150.4
94789.9
93094.8
92830.8
90536.8
90472.9
87301.7
87612.3
83134.2
84109.8
77652.5
79770.4
70266.6
74319.5
60066.6
67425.3
45740.7
58817.2
25333.5
48066.1
-5278.35
33015.9
-56416
9682.71
-145905
-12965
-75370.2
2217.47
-34505.4
15027.9
-7200.3
24203.4
11027
31227.3
24175
37592
34376
43478.8
42478.4
48800.6
49036.6
53546.5
54411.1
57696.6
58811.5
61247
62406.3
64247.5
65356.7
66779.6
67805.6
68928.3
69870.4
70769.1
71644.1
72366.3
73200.9
73770.3
74596.7
75012.5
75869.2
76103.3
77044.2
77034.3
78151
77779.6
79242.2
78284.1
80423.3
78438.4
105810
105676
105579
105362
105213
104958
104760
104477
104239
103945
103697
103413
103177
102903
102676
102392
102156
101829
101560
101156
100841
100338
99985.9
99363.8
98983.2
98205.7
97808.1
96819.8
96424.2
95142.3
94783.4
93085.3
92823.7
90525.6
90465.2
87288.3
87603.8
83117.9
84100.2
77632.5
79759.6
70242.2
74307.6
60037.4
67412.3
45706.3
58800.7
25291.2
48038.9
-5328.3
32976.4
-56412.8
9693.08
-145455
-12838.8
-75342.4
2238.73
-34517
15033.1
-7212.21
24206.7
11015.3
31227.4
24163.1
37590
34365.2
43475.8
42469.1
48797.2
49028.9
53543.4
54405.4
57694.4
58807.8
61245.8
62404.2
64247.1
65355.7
66779.7
67805.4
68928.7
69870.8
70769.5
71644.9
72366.6
73202
73770.4
74598.3
75012.3
75871.4
76102.8
77047.5
77033.1
78155.9
77777.2
79249.1
78279.8
80432.4
78432
105793
105661
105565
105350
105202
104949
104752
104471
104233
103941
103694
103410
103175
102901
102675
102391
102154
101827
101557
101152
100837
100334
99981.1
99358.3
98978.1
98199.5
97802.6
96812.8
96418.2
95134.2
94777
93075.9
92816.7
90514.5
90457.5
87274.9
87595.3
83101.7
84090.7
77612.6
79748.9
70217.9
74295.8
60008.4
67399.5
45672.2
58784.5
25249.3
48012.1
-5377.69
32937.6
-56408.6
9703.96
-145008
-12713.6
-75314.3
2259.99
-34528.5
15038.3
-7224.04
24210.1
11003.7
31227.7
24151.3
37588.2
34354.6
43473
42460
48793.9
49021.4
53540.4
54399.8
57692.4
58804.2
61244.8
62402.2
64247
65355
66780.2
67805.6
68929.4
69871.5
70770.3
71645.9
72367.1
73203.3
73770.7
74600
75012.3
75873.9
76102.3
77051
77031.9
78160.9
77774.9
79256.2
78275.6
80441.6
78425.6
105777
105646
105551
105338
105191
104940
104744
104464
104228
103936
103690
103407
103173
102899
102673
102389
102152
101824
101554
101148
100833
100329
99976.5
99352.9
98973
98193.4
97797.2
96805.9
96412.4
95126.3
94770.6
93066.6
92809.7
90503.4
90449.9
87261.7
87586.9
83085.6
84081.3
77592.9
79738.4
70193.8
74284.2
59979.7
67386.9
45638.4
58768.6
25207.7
47985.7
-5426.5
32899.5
-56403.5
9715.33
-144565
-12589.5
-75285.9
2281.26
-34539.9
15043.5
-7235.8
24213.5
10992.3
31228.1
24139.8
37586.6
34344.3
43470.5
42451.1
48790.8
49014
53537.7
54394.4
57690.6
58800.8
61244.1
62400.5
64247.1
65354.5
66780.8
67806
68930.4
69872.5
70771.3
71647.3
72368
73204.9
73771.2
74602
75012.5
75876.5
76102
77054.7
77030.9
78166
77772.7
79263.4
78271.5
80450.8
78419.3
105761
105632
105537
105327
105180
104931
104736
104457
104222
103932
103687
103405
103171
102898
102672
102387
102150
101821
101550
101144
100828
100324
99971.9
99347.5
98968.1
98187.4
97791.8
96799
96406.6
95118.3
94764.3
93057.3
92802.9
90492.5
90442.4
87248.5
87578.5
83069.5
84072
77573.3
79727.9
70169.9
74272.7
59951.2
67374.5
45604.9
58752.9
25166.6
47959.6
-5474.7
32862.2
-56397.5
9727.19
-144124
-12466.4
-75257.3
2302.52
-34551.3
15048.8
-7247.5
24217.1
10981
31228.8
24128.5
37585.3
34334.3
43468.2
42442.4
48788
49006.9
53535.2
54389.2
57689
58797.5
61243.5
62398.9
64247.4
65354.3
66781.8
67806.7
68931.7
69873.7
70772.6
71648.8
72369
73206.7
73771.9
74604.2
75012.8
75879.4
76101.9
77058.5
77030
78171.3
77770.5
79270.7
78267.4
80460.1
78413
105745
105618
105524
105315
105169
104922
104728
104451
104217
103927
103683
103402
103169
102896
102670
102386
102148
101818
101547
101140
100824
100319
99967.3
99342.2
98963.2
98181.4
97786.5
96792.2
96400.9
95110.5
94758.1
93048.1
92796
90481.6
90434.9
87235.4
87570.3
83053.6
84062.8
77553.8
79717.6
70146.1
74261.4
59922.9
67362.3
45571.7
58737.5
25125.8
47934
-5522.3
32825.6
-56390.6
9739.52
-143687
-12344.4
-75228.6
2323.75
-34562.5
15054
-7259.13
24220.7
10969.9
31229.7
24117.5
37584.2
34324.4
43466.1
42434
48785.4
49000
53532.9
54384.2
57687.7
58794.6
61243.2
62397.7
64248
65354.4
66783
67807.7
68933.2
69875.3
70774.1
71650.7
72370.3
73208.8
73772.8
74606.6
75013.3
75882.3
76101.9
77062.4
77029.2
78176.6
77768.4
79278
78263.3
80469.3
78406.7
105729
105603
105510
105304
105159
104913
104720
104444
104211
103923
103680
103399
103167
102894
102669
102384
102146
101815
101544
101135
100820
100314
99962.8
99336.9
98958.3
98175.5
97781.3
96785.5
96395.2
95102.7
94751.9
93039
92789.3
90470.8
90427.4
87222.4
87562
83037.8
84053.6
77534.4
79707.4
70122.5
74250.2
59894.9
67350.3
45538.9
58722.3
25085.3
47908.7
-5569.29
32789.8
-56382.8
9752.32
-143253
-12223.3
-75199.6
2344.95
-34573.7
15059.3
-7270.7
24224.5
10959
31230.8
24106.8
37583.5
34314.9
43464.4
42425.8
48783.1
48993.4
53530.8
54379.5
57686.5
58791.8
61243.2
62396.7
64248.9
65354.7
66784.6
67809
68935.1
69877.1
70775.9
71652.8
72371.8
73211
73773.9
74609.1
75014
75885.5
76102
77066.5
77028.4
78182
77766.3
79285.3
78259.2
80478.6
78400.4
105713
105589
105497
105292
105148
104904
104712
104438
104206
103919
103676
103397
103165
102893
102668
102382
102144
101813
101540
101131
100816
100310
99958.4
99331.7
98953.6
98169.7
97776.2
96778.8
96389.6
95095
94745.8
93030
92782.6
90460
90420.1
87209.5
87553.9
83022.1
84044.6
77515.2
79697.3
70099.1
74239.2
59867.1
67338.5
45506.3
58707.4
25045.3
47883.8
-5615.64
32754.8
-56374.1
9765.57
-142822
-12103.3
-75170.5
2366.1
-34584.9
15064.6
-7282.2
24228.3
10948.3
31232.1
24096.4
37583
34305.8
43463
42418
48781.2
48987.1
53529.1
54375
57685.7
58789.4
61243.5
62396
64250.2
65355.4
66786.5
67810.6
68937.3
69879.3
70778
71655.1
72373.5
73213.5
73775.2
74611.8
75014.8
75888.7
76102.2
77070.6
77027.7
78187.5
77764.2
79292.7
78255
80487.8
78394.1
105698
105575
105483
105281
105138
104895
104704
104431
104200
103914
103673
103394
103163
102891
102666
102380
102142
101810
101537
101127
100812
100305
99954
99326.6
98948.9
98163.9
97771.1
96772.2
96384
95087.4
94739.7
93021
92775.9
90449.4
90412.8
87196.7
87545.8
83006.5
84035.6
77496.1
79687.2
70075.9
74228.3
59839.6
67326.8
45474.1
58692.8
25005.7
47859.3
-5661.37
32720.4
-56364.5
9779.26
-142394
-11984.3
-75141.1
2387.19
-34596
15069.8
-7293.65
24232.3
10937.8
31233.7
24086.2
37582.9
34296.9
43461.9
42410.5
48779.5
48981
53527.7
54370.9
57685.2
58787.2
61244
62395.6
64251.7
65356.4
66788.7
67812.5
68939.8
69881.7
70780.3
71657.6
72375.4
73216.1
73776.6
74614.7
75015.7
75892.1
76102.4
77074.8
77027
78193
77762
79300
78250.9
80496.9
78387.7
105682
105561
105470
105270
105127
104886
104696
104425
104195
103910
103669
103391
103161
102889
102665
102379
102140
101807
101534
101124
100808
100300
99949.7
99321.5
98944.2
98158.2
97766
96765.7
96378.5
95079.8
94733.7
93012.1
92769.3
90438.8
90405.5
87183.9
87537.8
82991
84026.6
77477.2
79677.3
70052.9
74217.6
59812.2
67315.4
45442.1
58678.5
24966.5
47835.3
-5706.46
32686.9
-56354.1
9793.38
-141970
-11866.3
-75111.7
2408.22
-34607
15075.1
-7305.02
24236.4
10927.6
31235.6
24076.5
37583.1
34288.4
43461.1
42403.3
48778.2
48975.3
53526.6
54367
57685
58785.4
61245
62395.5
64253.6
65357.7
66791.3
67814.8
68942.5
69884.3
70782.8
71660.3
72377.5
73218.8
73778.1
74617.7
75016.7
75895.6
76102.7
77079.1
77026.4
78198.6
77759.9
79307.3
78246.7
80506
78381.4
105667
105548
105457
105258
105117
104877
104688
104418
104190
103906
103666
103389
103159
102888
102663
102377
102138
101804
101531
101120
100804
100296
99945.4
99316.5
98939.6
98152.6
97761
96759.2
96373.1
95072.3
94727.7
93003.3
92762.8
90428.3
90398.3
87171.3
87529.9
82975.6
84017.8
77458.3
79667.5
70030
74206.9
59785.1
67304.2
45410.4
58664.4
24927.6
47811.6
-5750.9
32654.1
-56342.8
9807.92
-141548
-11749.4
-75082.1
2429.18
-34618
15080.3
-7316.33
24240.5
10917.5
31237.8
24067
37583.7
34280.3
43460.8
42396.6
48777.3
48970
53525.9
54363.5
57685.2
58783.9
61246.2
62395.8
64255.8
65359.4
66794.2
67817.3
68945.5
69887.1
70785.5
71663.2
72379.7
73221.7
73779.8
74620.7
75017.7
75899.1
76103.1
77083.4
77025.7
78204.1
77757.6
79314.6
78242.4
80514.9
78375.1
105652
105534
105444
105247
105106
104869
104681
104412
104184
103901
103663
103386
103157
102886
102662
102376
102136
101802
101527
101116
100800
100292
99941.2
99311.5
98935.1
98147
97756.1
96752.8
96367.7
95064.8
94721.8
92994.5
92756.3
90417.8
90391.2
87158.7
87522
82960.3
84009
77439.6
79657.8
70007.3
74196.5
59758.3
67293.1
45379.1
58650.5
24889.2
47788.3
-5794.7
32622.1
-56330.7
9822.87
-141129
-11633.4
-75052.4
2450.06
-34629
15085.5
-7327.58
24244.8
10907.7
31240.2
24058
37584.7
34272.7
43460.9
42390.2
48776.8
48965.1
53525.6
54360.4
57685.8
58782.8
61247.9
62396.4
64258.5
65361.4
66797.4
67820.1
68948.8
69890.2
70788.4
71666.2
72382
73224.7
73781.5
74623.9
75018.9
75902.7
76103.4
77087.8
77024.9
78209.6
77755.4
79321.8
78238
80523.8
78368.7
105637
105520
105430
105236
105096
104860
104673
104406
104179
103897
103659
103384
103155
102885
102661
102374
102134
101799
101524
101112
100796
100287
99937
99306.6
98930.6
98141.4
97751.2
96746.4
96362.3
95057.4
94716
92985.8
92749.9
90407.4
90384.1
87146.2
87514.2
82945.1
84000.3
77421
79648.2
69984.7
74186.1
59731.6
67282.2
45348
58636.9
24851.1
47765.5
-5837.85
32590.8
-56317.8
9838.21
-140714
-11518.4
-75022.5
2470.85
-34639.9
15090.7
-7338.75
24249.2
10898.1
31243
24049.3
37586.1
34265.5
43461.5
42384.3
48776.8
48960.5
53525.7
54357.7
57686.7
58782
61249.9
62397.4
64261.4
65363.7
66800.8
67823.2
68952.2
69893.4
70791.4
71669.3
72384.4
73227.8
73783.3
74627.1
75020
75906.3
76103.8
77092.1
77024.2
78215.1
77753
79328.9
78233.6
80532.6
78362.3
105622
105507
105418
105225
105086
104851
104665
104399
104174
103893
103656
103381
103153
102883
102659
102372
102132
101796
101521
101108
100793
100283
99932.9
99301.8
98926.1
98135.9
97746.3
96740.1
96357
95050.1
94710.2
92977.1
92743.5
90397.1
90377.1
87133.7
87506.4
82930
83991.7
77402.6
79638.7
69962.3
74175.9
59705.2
67271.5
45317.2
58623.6
24813.5
47743
-5880.36
32560.2
-56304
9853.94
-140301
-11404.4
-74992.6
2491.55
-34650.8
15095.9
-7349.86
24253.8
10888.8
31246.1
24041.1
37588
34258.7
43462.5
42378.9
48777.2
48956.4
53526.2
54355.4
57688.1
58781.6
61252.3
62398.8
64264.7
65366.4
66804.6
67826.5
68955.9
69896.8
70794.5
71672.6
72386.9
73230.9
73785.1
74630.4
75021.2
75910
76104.2
77096.4
77023.3
78220.5
77750.6
79336
78229.2
80541.2
78355.8
105607
105493
105405
105214
105075
104843
104658
104393
104168
103889
103653
103379
103151
102881
102658
102371
102130
101793
101518
101104
100789
100279
99928.9
99297
98921.7
98130.5
97741.5
96733.8
96351.8
95042.8
94704.4
92968.5
92737.2
90386.8
90370.1
87121.4
87498.7
82915
83983.2
77384.2
79629.2
69940.1
74165.8
59679
67260.9
45286.7
58610.5
24776.2
47721
-5922.22
32530.4
-56289.5
9870.04
-139891
-11291.3
-74962.5
2512.15
-34661.7
15101.1
-7360.89
24258.5
10879.7
31249.6
24033.3
37590.4
34252.5
43464.1
42373.9
48778.1
48952.8
53527.2
54353.5
57689.8
58781.7
61255.1
62400.6
64268.4
65369.3
66808.6
67829.9
68959.6
69900.3
70797.7
71675.9
72389.4
73234.1
73787
74633.7
75022.4
75913.6
76104.5
77100.7
77022.4
78225.9
77748
79343
78224.6
80549.8
78349.4
105592
105480
105392
105203
105065
104834
104650
104387
104163
103885
103650
103376
103149
102880
102657
102369
102128
101791
101515
101101
100785
100274
99924.8
99292.2
98917.3
98125.1
97736.8
96727.6
96346.6
95035.5
94698.7
92960
92730.9
90376.6
90363.1
87109.1
87491
82900
83974.7
77366
79619.9
69918
74155.9
59653
67250.6
45256.5
58597.6
24739.3
47699.3
-5963.43
32501.3
-56274.2
9886.5
-139485
-11179.3
-74932.3
2532.65
-34672.5
15106.3
-7371.85
24263.3
10871
31253.5
24026
37593.3
34246.8
43466.2
42369.5
48779.5
48949.7
53528.7
54352.1
57692.1
58782.1
61258.3
62402.6
64272.3
65372.5
66812.8
67833.6
68963.5
69903.8
70801
71679.2
72391.9
73237.3
73788.9
74637
75023.6
75917.2
76104.7
77104.9
77021.5
78231.1
77745.4
79349.8
78219.9
80558.2
78342.9
105577
105467
105379
105192
105055
104826
104642
104381
104158
103880
103646
103374
103147
102878
102655
102367
102127
101788
101512
101097
100782
100270
99920.8
99287.5
98913
98119.7
97732.1
96721.5
96341.4
95028.3
94693
92951.5
92724.6
90366.5
90356.3
87096.9
87483.4
82885.2
83966.3
77347.9
79610.6
69896.1
74146
59627.2
67240.4
45226.5
58585
24702.8
47678.1
-6004
32473
-56258.2
9903.32
-139081
-11068.2
-74902.1
2553.04
-34683.4
15111.4
-7382.73
24268.2
10862.5
31257.7
24019.1
37596.7
34241.6
43468.8
42365.6
48781.4
48947
53530.6
54351.1
57694.7
58782.9
61261.9
62405
64276.6
65375.9
66817.2
67837.3
68967.5
69907.4
70804.2
71682.5
72394.5
73240.5
73790.8
74640.3
75024.7
75920.8
76104.9
77109.1
77020.4
78236.3
77742.7
79356.6
78215.2
80566.5
78336.4
105563
105453
105367
105182
105045
104817
104635
104375
104153
103876
103643
103371
103146
102877
102654
102366
102125
101785
101509
101093
100778
100266
99916.9
99282.8
98908.8
98114.4
97727.4
96715.3
96336.3
95021.2
94687.4
92943.1
92718.4
90356.4
90349.4
87084.7
87475.9
82870.4
83957.9
77329.9
79601.5
69874.4
74136.3
59601.6
67230.3
45196.8
58572.6
24666.7
47657.3
-6043.92
32445.3
-56241.4
9920.47
-138680
-10958
-74871.7
2573.33
-34694.1
15116.6
-7393.52
24273.3
10854.3
31262.3
24012.8
37600.6
34237
43472
42362.2
48783.9
48944.9
53533.1
54350.5
57697.8
58784.2
61265.8
62407.8
64281
65379.5
66821.7
67841.2
68971.5
69911
70807.5
71685.8
72397
73243.7
73792.6
74643.5
75025.8
75924.3
76105
77113.2
77019.2
78241.4
77739.8
79363.2
78210.4
80574.6
78329.8
105548
105440
105354
105171
105035
104809
104627
104368
104148
103872
103640
103369
103144
102875
102653
102364
102123
101783
101506
101090
100774
100262
99913
99278.2
98904.5
98109.2
97722.8
96709.3
96331.2
95014.1
94681.8
92934.7
92712.2
90346.4
90342.6
87072.7
87468.4
82855.8
83949.6
77312
79592.4
69852.8
74126.7
59576.3
67220.4
45167.4
58560.4
24631
47636.9
-6083.22
32418.4
-56223.9
9937.95
-138282
-10848.7
-74841.3
2593.51
-34704.9
15121.7
-7404.24
24278.6
10846.4
31267.3
24006.9
37605.1
34232.9
43475.7
42359.4
48786.9
48943.3
53536
54350.4
57701.3
58785.8
61270.1
62410.7
64285.8
65383.3
66826.3
67845
68975.5
69914.6
70810.7
71689.1
72399.5
73246.8
73794.4
74646.7
75026.8
75927.8
76105.1
77117.2
77018
78246.4
77736.9
79369.7
78205.5
80582.6
78323.3
105534
105427
105342
105160
105025
104801
104620
104362
104143
103868
103637
103366
103142
102874
102651
102363
102121
101780
101503
101086
100771
100258
99909.2
99273.6
98900.3
98103.9
97718.2
96703.2
96326.2
95007.1
94676.2
92926.3
92706.1
90336.5
90335.9
87060.7
87460.9
82841.2
83941.4
77294.2
79583.4
69831.3
74117.2
59551.1
67210.7
45138.3
58548.5
24595.7
47616.8
-6121.88
32392.2
-56205.6
9955.75
-137887
-10740.4
-74810.8
2613.58
-34715.6
15126.8
-7414.87
24284
10838.8
31272.8
24001.6
37610.1
34229.5
43480.1
42357.2
48790.5
48942.1
53539.4
54350.8
57705.2
58787.7
61274.6
62414
64290.7
65387.2
66831
67848.9
68979.5
69918.2
70813.8
71692.3
72401.9
73249.9
73796.1
74649.9
75027.8
75931.2
76105
77121.1
77016.6
78251.3
77733.8
79376.1
78200.5
80590.5
78316.7
105520
105415
105330
105150
105016
104793
104613
104356
104137
103864
103634
103364
103140
102872
102650
102361
102119
101778
101500
101083
100767
100254
99905.3
99269.1
98896.2
98098.8
97713.6
96697.3
96321.2
95000.1
94670.7
92918
92700
90326.6
90329.2
87048.7
87453.5
82826.7
83933.3
77276.6
79574.5
69810
74107.8
59526.1
67201.1
45109.4
58536.8
24560.7
47597.2
-6159.92
32366.6
-56186.7
9973.85
-137495
-10633
-74780.2
2633.53
-34726.3
15131.9
-7425.4
24289.5
10831.5
31278.7
23996.8
37615.8
34226.6
43485
42355.5
48794.6
48941.5
53543.3
54351.6
57709.5
58790
61279.5
62417.4
64295.7
65391.2
66835.7
67852.8
68983.4
69921.6
70816.9
71695.4
72404.2
73252.9
73797.7
74652.9
75028.6
75934.5
76104.9
77125
77015.1
78256.1
77730.6
79382.4
78195.4
80598.3
78310.2
105506
105402
105317
105139
105006
104784
104605
104350
104132
103860
103631
103361
103138
102871
102649
102359
102117
101775
101497
101079
100764
100250
99901.6
99264.6
98892.1
98093.6
97709.1
96691.3
96316.2
94993.1
94665.2
92909.8
92694
90316.7
90322.5
87036.9
87446.2
82812.3
83925.2
77259.1
79565.6
69788.9
74098.5
59501.3
67191.7
45080.8
58525.3
24526.1
47577.9
-6197.34
32341.7
-56167.2
9992.26
-137105
-10526.5
-74749.5
2653.38
-34737
15137
-7435.85
24295.2
10824.5
31285
23992.5
37622
34224.3
43490.5
42354.3
48799.2
48941.4
53547.6
54352.7
57714.2
58792.5
61284.5
62421
64300.8
65395.1
66840.3
67856.6
68987.2
69925
70819.8
71698.4
72406.4
73255.8
73799.3
74655.9
75029.4
75937.7
76104.6
77128.7
77013.5
78260.8
77727.4
79388.5
78190.3
80605.9
78303.6
105492
105389
105305
105129
104996
104776
104598
104344
104127
103856
103628
103359
103137
102869
102647