/*--------------------------------*- C++ -*----------------------------------*\
| =========                 |                                                 |
| \\      /  F ield         | OpenFOAM: The Open Source CFD Toolbox           |
|  \\    /   O peration     | Version:  2412                                  |
|   \\  /    A nd           | Website:  www.openfoam.com                      |
|    \\/     M anipulation  |                                                 |
\*---------------------------------------------------------------------------*/
FoamFile
{
    version     2.0;
    format      ascii;
    arch        "LSB;label=32;scalar=64";
    class       surfaceScalarField;
    location    "0.9";
    object      phi;
}
// * * * * * * * * * * * * * * * * * * * * * * * * * * * * * * * * * * * * * //

dimensions      [0 3 -1 0 0 0 0];

oriented        oriented;

internalField   nonuniform List<scalar> 
25926
(
0.00749498
-0.0252104
0.00745146
-0.0203557
0.00744001
-0.0160255
0.00744819
-0.0127395
0.00747018
-0.0101044
0.0074979
-0.00817576
0.00752276
-0.00636625
0.00753662
-0.00438985
0.00753279
-0.0020209
0.00750889
0.000685935
0.00746547
0.00351284
0.00740639
0.00625194
0.00733681
0.00865298
0.00726362
0.0106105
0.00719508
0.0119515
0.00714156
0.0126248
0.00711289
0.0124611
0.00711345
0.0116279
0.0071367
0.0102433
0.00716938
0.00886072
0.0071998
0.00758932
0.00722423
0.00672439
0.00724321
0.00591943
0.00725969
0.00545956
0.0072741
0.00482434
0.00728801
0.00453191
0.00730013
0.00392335
0.00731202
0.0037525
0.00732155
0.00309664
0.00733126
0.00308471
0.00733804
0.00233138
0.00734573
0.00248997
0.00734979
0.00157746
0.00735596
0.00198231
0.00735753
0.000844043
0.00736277
0.0015641
0.00736186
8.19182e-05
0.00736667
0.00125287
0.00736308
-0.000743317
0.00736764
0.000990317
0.0073598
-0.00167066
0.00736187
0.000896209
0.0073452
-0.0023669
0.00734187
0.00160592
0.00731609
-0.00194445
0.00731502
0.00383141
0.00729673
-0.000383579
0.00732539
0.00556265
0.00734797
-0.00133089
0.00742437
-0.000462421
0.00748384
-0.010973
0.00756826
-0.0317746
0.00760042
-0.0606992
0.00765458
0.0190457
0.00766585
0.0476595
0.00771165
0.0289447
0.0077363
0.0107619
0.00778376
0.00985219
0.00783269
0.00152507
0.00789401
0.00137475
0.00794474
-0.00456903
0.00798138
-0.00308452
0.00799617
-0.00555197
0.00799501
-0.00270904
0.0079841
-0.0035001
0.00796808
-0.00098467
0.00795236
-0.00140638
0.00793499
0.000395698
0.00791983
7.38176e-05
0.00790286
0.00126184
0.0078885
0.000893351
0.00787306
0.00143787
0.00786094
0.000860809
0.00784877
0.000842837
0.0078399
7.23638e-05
0.00783116
-0.000316034
-0.0011465
0.00749462
-0.0251292
0.00745042
-0.0203115
0.00743807
-0.0160132
0.00744531
-0.0127468
0.00746638
-0.0101255
0.00749319
-0.00820258
0.00751722
-0.00639027
0.00753038
-0.00440301
0.00752604
-0.00201657
0.00750187
0.000710103
0.00745847
0.00355625
0.00739968
0.00631072
0.00733071
0.00872195
0.00725848
0.0106827
0.00719133
0.0120187
0.00713968
0.0126764
0.00711323
0.0124876
0.00711591
0.0116253
0.00714062
0.0102186
0.0071739
0.00882744
0.00720431
0.00755891
0.00722853
0.00670017
0.00724736
0.00590061
0.00726374
0.00544317
0.0072781
0.00480998
0.00729197
0.00451804
0.00730403
0.00391128
0.00731587
0.00374067
0.00732534
0.00308717
0.00733501
0.00307504
0.00734173
0.00232466
0.00734939
0.00248231
0.00735341
0.00157344
0.00735955
0.00197618
0.00736108
0.00084251
0.00736626
0.00155891
0.0073653
8.28857e-05
0.00737003
0.00124813
0.00736635
-0.000739637
0.00737079
0.000985882
0.0073628
-0.00166267
0.0073647
0.000894311
0.00734791
-0.00235011
0.00734457
0.00160925
0.00731902
-0.0019189
0.00731841
0.00383202
0.00730089
-0.000366059
0.00733029
0.00553325
0.00735322
-0.00135383
0.00742895
-0.000538151
0.00748709
-0.0110311
0.00756892
-0.0318565
0.00759808
-0.0607284
0.00765392
0.0189899
0.00766904
0.0476444
0.00771675
0.0288969
0.00774185
0.0107368
0.00778893
0.00980511
0.00783645
0.00147756
0.00789559
0.00131561
0.0079433
-0.00461674
0.00797683
-0.00311805
0.00798863
-0.00556377
0.00798518
-0.00270559
0.00797253
-0.00348745
0.00795539
-0.000967534
0.00793891
-0.0013899
0.00792107
0.00041354
0.00790557
8.93201e-05
0.00788837
0.00127903
0.00787386
0.000907867
0.00785834
0.00145339
0.00784623
0.00087292
0.00783415
0.000854916
0.00782547
8.10394e-05
0.007817
-0.000307563
-0.0011405
0.00749426
-0.0250477
0.0074494
-0.0202666
0.00743616
-0.016
0.00744248
-0.0127531
0.00746263
-0.0101457
0.00748854
-0.00822849
0.00751175
-0.00641348
0.00752421
-0.00441547
0.00751938
-0.00201174
0.00749497
0.000734521
0.00745159
0.00359963
0.00739313
0.00636918
0.00732479
0.00879029
0.00725355
0.0107539
0.00718782
0.0120844
0.00713806
0.0127262
0.00711381
0.0125118
0.00711855
0.0116205
0.00714463
0.0101926
0.00717843
0.00879364
0.0072088
0.00752854
0.00723281
0.00667616
0.00725147
0.00588195
0.00726778
0.00542687
0.00728208
0.00479568
0.00729591
0.00450421
0.00730792
0.00389927
0.00731971
0.00372888
0.00732913
0.00307775
0.00733876
0.00306542
0.00734544
0.00231798
0.00735306
0.00247468
0.00735705
0.00156945
0.00736315
0.00197007
0.00736465
0.000841013
0.00736979
0.00155377
0.00736876
8.39074e-05
0.00737343
0.00124346
0.00736966
-0.00073587
0.00737398
0.000981569
0.00736584
-0.00165454
0.00736757
0.000892581
0.00735067
-0.00233321
0.00734734
0.00161259
0.00732203
-0.00189359
0.00732188
0.00383217
0.00730512
-0.0003493
0.00733521
0.00550316
0.00735846
-0.00137709
0.00743349
-0.00061318
0.0074903
-0.0110879
0.00756957
-0.0319357
0.00759577
-0.0607546
0.00765324
0.0189324
0.00767214
0.0476255
0.00772168
0.0288474
0.00774719
0.0107113
0.00779383
0.00975847
0.00783988
0.00143151
0.00789681
0.00125868
0.0079415
-0.00466144
0.00797196
-0.00314851
0.00798084
-0.00557265
0.00797519
-0.00269993
0.00796087
-0.00347313
0.00794269
-0.000949352
0.0079255
-0.00137271
0.00790723
0.000431811
0.00789144
0.000105117
0.00787405
0.00129642
0.00785942
0.000922498
0.00784384
0.00146896
0.00783177
0.000884987
0.00781982
0.000866875
0.00781137
8.94847e-05
0.00780321
-0.000299401
-0.00113483
0.00749391
-0.0249659
0.00744841
-0.0202211
0.00743429
-0.0159858
0.00743969
-0.0127585
0.00745893
-0.0101649
0.00748396
-0.00825352
0.00750635
-0.00643588
0.00751813
-0.00442725
0.00751281
-0.00200642
0.00748816
0.000759176
0.00744483
0.00364296
0.00738671
0.00642729
0.00731903
0.00885797
0.0072488
0.0108242
0.00718452
0.0121487
0.00713667
0.012774
0.00711462
0.0125339
0.00712136
0.0116138
0.00714873
0.0101652
0.00718298
0.00875939
0.00721327
0.00749825
0.00723706
0.00665236
0.00725556
0.00586345
0.00727179
0.00541064
0.00728605
0.00478142
0.00729984
0.00449042
0.00731181
0.0038873
0.00732355
0.00371713
0.00733293
0.00306837
0.00734251
0.00305584
0.00734915
0.00231134
0.00735675
0.00246709
0.0073607
0.0015655
0.00736678
0.001964
0.00736824
0.000839551
0.00737333
0.00154868
0.00737226
8.49813e-05
0.00737686
0.00123887
0.007373
-0.00073202
0.0073772
0.000977376
0.00736892
-0.00164626
0.00737049
0.000891011
0.00735349
-0.00231621
0.00735016
0.00161592
0.00732509
-0.00186853
0.0073254
0.00383186
0.00730939
-0.000333287
0.00734015
0.0054724
0.00736368
-0.00140062
0.00743799
-0.000687486
0.00749349
-0.0111434
0.00757021
-0.0320125
0.00759349
-0.0607779
0.00765255
0.0188734
0.00767514
0.0476029
0.00772646
0.0287961
0.0077523
0.0106855
0.00779846
0.00971232
0.00784299
0.00138697
0.00789768
0.00120399
0.00793936
-0.00470312
0.00796679
-0.00317594
0.00797282
-0.00557868
0.00796503
-0.00269214
0.00794914
-0.00345724
0.00792997
-0.000930191
0.00791214
-0.00135487
0.00789348
0.000450468
0.00787743
0.00012117
0.00785987
0.00131397
0.00784516
0.000937215
0.00782956
0.00148456
0.00781757
0.000896978
0.00780577
0.000878679
0.00779759
9.76655e-05
0.00778977
-0.000291579
-0.00112954
0.00749357
-0.0248837
0.00744743
-0.020175
0.00743246
-0.0159709
0.00743695
-0.012763
0.00745529
-0.0101832
0.00747943
-0.00827765
0.00750102
-0.00645747
0.00751212
-0.00443834
0.00750633
-0.00200063
0.00748145
0.000784053
0.00743818
0.00368623
0.00738042
0.00648505
0.00731342
0.00892497
0.00724424
0.0108933
0.00718143
0.0122115
0.00713551
0.0128199
0.00711564
0.0125538
0.00712432
0.0116051
0.00715291
0.0101366
0.00718755
0.00872475
0.00721771
0.00746809
0.00724128
0.00662879
0.00725963
0.0058451
0.00727579
0.00539449
0.00729
0.0047672
0.00730376
0.00447666
0.00731569
0.00387538
0.00732739
0.00370543
0.00733672
0.00305904
0.00734627
0.00304629
0.00735288
0.00230473
0.00736044
0.00245952
0.00736437
0.00156157
0.00737042
0.00195795
0.00737185
0.00083812
0.0073769
0.00154363
0.00737578
8.61052e-05
0.00738031
0.00123434
0.00737637
-0.000728087
0.00738045
0.000973299
0.00737204
-0.00163785
0.00737345
0.000889598
0.00735636
-0.00229911
0.00735304
0.00161923
0.00732823
-0.00184371
0.00732899
0.0038311
0.00731371
-0.000318009
0.00734511
0.00544101
0.00736888
-0.0014244
0.00744245
-0.000761048
0.00749665
-0.0111976
0.00757086
-0.0320867
0.00759123
-0.0607983
0.00765185
0.0188128
0.00767806
0.0475767
0.00773107
0.0287431
0.00775721
0.0106593
0.00780282
0.00966671
0.0078458
0.00134399
0.00789824
0.00115155
0.00793691
-0.00474179
0.00796135
-0.00320038
0.00796458
-0.00558192
0.00795474
-0.0026823
0.00793733
-0.00343983
0.00791726
-0.000910118
0.00789883
-0.00133644
0.00787983
0.000469464
0.00786355
0.000137445
0.00784587
0.00133165
0.0078311
0.000951985
0.00781552
0.00150014
0.00780365
0.000908857
0.00779204
0.00089029
0.00778415
0.000105547
0.0077767
-0.000284129
0.00777184
-0.00112468
0.00776694
-0.00167589
0.00776357
-0.00239554
0.00775987
-0.00288299
0.00775616
-0.00337396
0.0077514
-0.00370264
0.00774473
-0.00388983
0.00773607
-0.0040325
0.00772364
-0.00392291
0.00770894
-0.00394357
0.00768968
-0.0036152
0.00766947
-0.00362917
0.00764534
-0.00313361
0.00762238
-0.00332593
0.00759635
-0.00271712
0.00757324
-0.00321034
0.0075473
-0.00243994
0.00752425
-0.00333978
0.00749847
-0.00227767
0.00747169
-0.00363502
0.00744525
-0.00204874
0.00740392
-0.00381781
-0.000993412
0.00749325
-0.0248012
0.00744648
-0.0201282
0.00743066
-0.0159551
0.00743425
-0.0127666
0.0074517
-0.0102007
0.00747496
-0.00830091
0.00749575
-0.00647826
0.00750618
-0.00444877
0.00749993
-0.00199439
0.00747484
0.000809142
0.00743164
0.00372943
0.00737426
0.00654243
0.00730796
0.00899127
0.00723985
0.0109614
0.00717855
0.0122728
0.00713457
0.0128639
0.00711686
0.0125715
0.00712743
0.0115945
0.00715715
0.0101069
0.00719211
0.00868979
0.00722213
0.00743807
0.00724548
0.00660544
0.00726368
0.0058269
0.00727976
0.0053784
0.00729394
0.00475302
0.00730767
0.00446294
0.00731956
0.00386349
0.00733123
0.00369376
0.00734052
0.00304975
0.00735004
0.00303678
0.00735662
0.00229815
0.00736416
0.00245198
0.00736806
0.00155767
0.00737408
0.00195192
0.00737548
0.00083672
0.00738049
0.00153861
0.00737932
8.72766e-05
0.00738379
0.00122988
0.00737977
-0.000724075
0.00738374
0.000969335
0.00737519
-0.00162931
0.00737646
0.000888335
0.00735928
-0.00228193
0.00735598
0.00162253
0.00733142
-0.00181915
0.00733264
0.00382988
0.00731808
-0.000303449
0.00735008
0.005409
0.00737406
-0.00144838
0.00744686
-0.000833849
0.00749978
-0.0112505
0.00757151
-0.0321584
0.00758898
-0.0608157
0.00765112
0.0187506
0.00768088
0.0475469
0.00773552
0.0286884
0.00776189
0.0106329
0.00780692
0.00962168
0.00784831
0.00130259
0.00789847
0.00110139
0.00793414
-0.00477746
0.00795564
-0.00322187
0.00795615
-0.00558244
0.00794433
-0.00267048
0.00792549
-0.00342099
0.00790457
-0.000889197
0.00788559
-0.00131746
0.0078663
0.000488757
0.00784984
0.000153905
0.00783207
0.00134942
0.00781728
0.000966775
0.00780175
0.00151567
0.00779001
0.000920588
0.00777864
0.000901669
0.00777109
0.000113094
0.00776404
-0.000277084
0.00775963
-0.00112027
0.00775518
-0.00167143
0.00775218
-0.00239254
0.0077487
-0.00287952
0.00774499
-0.00337026
0.00773997
-0.00369762
0.00773276
-0.00388262
0.00772331
-0.00402305
0.00770997
-0.00390958
0.0076943
-0.0039279
0.00767423
-0.00359513
0.0076533
-0.00360824
0.00762881
-0.00310911
0.00760555
-0.00330267
0.00757965
-0.00269122
0.00755659
-0.00318727
0.00753117
-0.00241453
0.00750832
-0.00331693
0.00748334
-0.00225268
0.00745671
-0.0036084
0.00743127
-0.0020233
0.00739023
-0.00377678
-0.000949026
0.00749292
-0.0247184
0.00744555
-0.0200809
0.00742889
-0.0159384
0.0074316
-0.0127693
0.00744817
-0.0102173
0.00747055
-0.0083233
0.00749055
-0.00649826
0.00750032
-0.00445853
0.00749361
-0.00198768
0.00746833
0.000834428
0.00742522
0.00377254
0.00736823
0.00659942
0.00730265
0.00905685
0.00723563
0.0110285
0.00717586
0.0123326
0.00713383
0.0129059
0.00711827
0.012587
0.00713068
0.0115821
0.00716145
0.0100761
0.00719667
0.00865457
0.00722652
0.00740822
0.00724964
0.00658232
0.0072677
0.00580885
0.00728373
0.00536237
0.00729787
0.00473888
0.00731157
0.00444923
0.00732343
0.00385163
0.00733507
0.00368212
0.00734432
0.00304049
0.00735381
0.00302729
0.00736036
0.0022916
0.00736788
0.00244446
0.00737176
0.00155379
0.00737776
0.00194593
0.00737914
0.000835347
0.00738411
0.00153364
0.00738289
8.8494e-05
0.00738729
0.00122548
0.0073832
-0.000719987
0.00738705
0.000965483
0.00737838
-0.00162063
0.0073795
0.000887216
0.00736225
-0.00226468
0.00735898
0.0016258
0.00733467
-0.00179484
0.00733634
0.00382821
0.00732248
-0.000289595
0.00735507
0.00537641
0.00737921
-0.00147252
0.00745123
-0.000905872
0.00750288
-0.0113022
0.00757216
-0.0322277
0.00758676
-0.0608303
0.00765037
0.018687
0.0076836
0.0475137
0.0077398
0.0286322
0.00776636
0.0106064
0.00781076
0.00957728
0.00785054
0.00126281
0.00789841
0.00105352
0.0079311
-0.00481015
0.00794969
-0.00324046
0.00794756
-0.00558031
0.00793383
-0.00265675
0.00791363
-0.00340079
0.00789193
-0.000867493
0.00787246
-0.001298
0.00785291
0.000508302
0.00783631
0.000170512
0.00781847
0.00136726
0.00780369
0.000981553
0.00778825
0.00153111
0.0077767
0.000932134
0.0077656
0.000912778
0.00775842
0.000120269
0.00775181
-0.000270474
0.00774789
-0.00111635
0.0077439
-0.00166744
0.00774126
-0.0023899
0.00773798
-0.00287624
0.00773422
-0.0033665
0.00772888
-0.00369227
0.00772109
-0.00387483
0.00771083
-0.00401279
0.00769662
-0.00389537
0.00768004
-0.00391132
0.00765927
-0.00357436
0.00763773
-0.0035867
0.007613
-0.00308437
0.00758955
-0.00327923
0.00756389
-0.00266556
0.00754097
-0.00316435
0.00751617
-0.00238973
0.00749358
-0.00329434
0.00746943
-0.00222854
0.007443
-0.00358196
0.00741855
-0.00199885
0.00737784
-0.00373607
-0.000906382
0.00749261
-0.0246352
0.00744463
-0.0200329
0.00742716
-0.0159209
0.007429
-0.0127711
0.00744468
-0.0102329
0.00746621
-0.00834482
0.00748542
-0.00651747
0.00749453
-0.00446764
0.00748738
-0.00198054
0.00746191
0.000859902
0.00741891
0.00381554
0.00736233
0.00665599
0.00729749
0.00912169
0.00723158
0.0110944
0.00717336
0.0123908
0.0071333
0.012946
0.00711985
0.0126005
0.00713403
0.0115679
0.0071658
0.0100443
0.00720123
0.00861914
0.00723088
0.00737856
0.00725378
0.00655943
0.0072717
0.00579093
0.00728767
0.0053464
0.00730178
0.00472477
0.00731546
0.00443555
0.00732729
0.00383981
0.0073389
0.00367051
0.00734813
0.00303126
0.00735759
0.00301783
0.00736412
0.00228507
0.00737162
0.00243696
0.00737548
0.00154993
0.00738146
0.00193995
0.00738281
0.000834
0.00738774
0.00152871
0.00738648
8.97549e-05
0.00739082
0.00122114
0.00738666
-0.000715826
0.0073904
0.000961739
0.00738161
-0.00161184
0.00738259
0.000886235
0.00736526
-0.00224736
0.00736202
0.00162904
0.00733798
-0.0017708
0.00734009
0.0038261
0.00732693
-0.000276432
0.00736006
0.00534328
0.00738434
-0.00149679
0.00745557
-0.000977103
0.00750597
-0.0113526
0.0075728
-0.0322945
0.00758455
-0.0608421
0.00764959
0.018622
0.00768622
0.0474771
0.00774391
0.0285745
0.00777062
0.0105797
0.00781435
0.00953355
0.00785248
0.00122468
0.00789806
0.00100795
0.00792778
-0.00483988
0.00794352
-0.0032562
0.00793881
-0.0055756
0.00792326
-0.0026412
0.00790178
-0.00337931
0.00787935
-0.00084507
0.00785945
-0.00127809
0.00783969
0.000528057
0.00782297
0.000187233
0.00780511
0.00138512
0.00779038
0.000996284
0.00777506
0.00154643
0.00776374
0.000943457
0.00775295
0.000923574
0.00774618
0.000127037
0.00774004
-0.000264333
0.00773663
-0.00111294
0.00773311
-0.00166392
0.0077308
-0.00238759
0.00772768
-0.00287311
0.00772383
-0.00336265
0.00771811
-0.00368656
0.0077097
-0.00386642
0.00769864
-0.00400173
0.0076836
-0.00388032
0.00766619
-0.00389391
0.00764482
-0.00355299
0.0076228
-0.00356468
0.00759793
-0.00305951
0.00757441
-0.00325572
0.00754909
-0.00264023
0.00752639
-0.00314165
0.00750226
-0.0023656
0.00747998
-0.00327206
0.0074567
-0.00220526
0.00743048
-0.00355575
0.00740703
-0.0019754
0.00736667
-0.00369571
-0.00086548
0.00749231
-0.0245518
0.00744374
-0.0199843
0.00742546
-0.0159026
0.00742643
-0.0127721
0.00744125
-0.0102478
0.00746191
-0.00836549
0.00748035
-0.0065359
0.00748881
-0.00447611
0.00748124
-0.00197296
0.00745559
0.000885549
0.0074127
0.00385842
0.00735655
0.00671214
0.00729247
0.00918578
0.0072277
0.0111591
0.00717105
0.0124475
0.00713296
0.0129841
0.00712161
0.0126118
0.0071375
0.011552
0.00717018
0.0100117
0.00720577
0.00858355
0.00723521
0.00734912
0.00725788
0.00653676
0.00727568
0.00577314
0.0072916
0.00533048
0.00730569
0.00471068
0.00731935
0.00442189
0.00733115
0.00382801
0.00734274
0.00365892
0.00735194
0.00302206
0.00736138
0.00300838
0.00736789
0.00227856
0.00737537
0.00242948
0.00737922
0.00154608
0.00738518
0.00193399
0.0073865
0.000832677
0.0073914
0.00152381
0.0073901
9.10577e-05
0.00739437
0.00121687
0.00739014
-0.000711593
0.00739378
0.000958099
0.00738486
-0.00160293
0.00738571
0.000885388
0.00736833
-0.00222997
0.00736513
0.00163224
0.00734135
-0.00174702
0.0073439
0.00382355
0.00733141
-0.000263944
0.00736507
0.00530962
0.00738944
-0.00152117
0.00745987
-0.00104753
0.00750903
-0.0114017
0.00757345
-0.0323589
0.00758236
-0.060851
0.00764878
0.0185555
0.00768873
0.0474371
0.00774786
0.0285154
0.00777466
0.0105529
0.00781769
0.00949052
0.00785416
0.00118821
0.00789743
0.000964676
0.00792422
-0.00486667
0.00793716
-0.00326914
0.00792994
-0.00556838
0.00791264
-0.0026239
0.00788994
-0.00335661
0.00786687
-0.000821991
0.00784657
-0.0012578
0.00782665
0.000547976
0.00780986
0.00020403
0.00779201
0.00140297
0.00777736
0.00101093
0.00776221
0.00156158
0.00775115
0.000954515
0.00774071
0.000934014
0.00773439
0.000133361
0.00772874
-0.00025869
0.00772585
-0.00111005
0.0077228
-0.00166087
0.00772082
-0.0023856
0.00771781
-0.0028701
0.00771381
-0.00335865
0.00770768
-0.00368043
0.00769863
-0.00385737
0.00768678
-0.00398988
0.00767095
-0.00386449
0.0076528
-0.00387577
0.00763094
-0.00353112
0.00760853
-0.00354227
0.00758365
-0.00303462
0.00756016
-0.00323223
0.00753526
-0.00261533
0.00751285
-0.00311925
0.00748945
-0.00234219
0.00746751
-0.00325012
0.00744512
-0.00218287
0.00741913
-0.00352976
0.00739664
-0.0019529
0.00735664
-0.00365571
-0.000826294
0.00749201
-0.024468
0.00744286
-0.0199352
0.00742378
-0.0158836
0.0074239
-0.0127722
0.00743786
-0.0102617
0.00745767
-0.0083853
0.00747534
-0.00655357
0.00748317
-0.00448394
0.00747517
-0.00196496
0.00744936
0.000911359
0.00740661
0.00390118
0.0073509
0.00676785
0.00728759
0.00924908
0.00722398
0.0112228
0.00716892
0.0125025
0.0071328
0.0130202
0.00712352
0.0126211
0.00714107
0.0115345
0.00717459
0.00997814
0.00721029
0.00854785
0.00723951
0.00731989
0.00726196
0.00651431
0.00727964
0.00575546
0.00729551
0.0053146
0.00730958
0.00469661
0.00732323
0.00440824
0.00733501
0.00381623
0.00734657
0.00364736
0.00735575
0.00301288
0.00736518
0.00299896
0.00737167
0.00227207
0.00737914
0.00242201
0.00738297
0.00154225
0.00738891
0.00192805
0.00739021
0.000831377
0.00739507
0.00151894
0.00739373
9.24003e-05
0.00739795
0.00121265
0.00739365
-0.000707292
0.00739718
0.000954562
0.00738816
-0.0015939
0.00738888
0.000884668
0.00737144
-0.00221253
0.00736828
0.0016354
0.00734477
-0.00172351
0.00734775
0.00382057
0.00733592
-0.000252116
0.00737007
0.00527547
0.00739451
-0.00154561
0.00746412
-0.00111714
0.00751206
-0.0114497
0.0075741
-0.032421
0.00758018
-0.0608571
0.00764794
0.0184878
0.00769114
0.047394
0.00775165
0.0284549
0.0077785
0.010526
0.00782079
0.00944823
0.00785557
0.00115343
0.00789655
0.000923701
0.00792043
-0.00489056
0.00793062
-0.00327933
0.00792097
-0.00555873
0.007902
-0.00260493
0.00787816
-0.00333277
0.00785449
-0.000798321
0.00783386
-0.00123717
0.00781382
0.000568017
0.00779698
0.000220868
0.00777919
0.00142076
0.00776466
0.00102546
0.00774971
0.00157653
0.00773896
0.000965269
0.00772892
0.000944054
0.00772308
0.000139204
0.00771796
-0.000253576
0.0077156
-0.00110769
0.00771302
-0.00165828
0.00771132
-0.00238391
0.00770838
-0.00286716
0.00770418
-0.00335445
0.0076976
-0.00367385
0.0076879
-0.00384767
0.00767528
-0.00397725
0.00765873
-0.00384794
0.00763992
-0.00385696
0.00761767
-0.00350887
0.00759498
-0.00351959
0.00757018
-0.00300982
0.0075468
-0.00320885
0.0075224
-0.00259093
0.00750035
-0.00309719
0.0074777
-0.00231955
0.00745615
-0.00322856
0.00743463
-0.00216135
0.00740889
-0.00350402
0.00738731
-0.00193133
0.00734768
-0.00361608
-0.000788783
0.00749172
-0.024384
0.007442
-0.0198855
0.00742214
-0.0158637
0.00742142
-0.0127715
0.00743452
-0.0102748
0.00745349
-0.00840427
0.00747039
-0.00657047
0.00747759
-0.00449114
0.00746918
-0.00195655
0.00744322
0.00093732
0.00740061
0.00394378
0.00734536
0.0068231
0.00728286
0.00931159
0.00722042
0.0112852
0.00716696
0.012556
0.00713283
0.0130544
0.00712559
0.0126283
0.00714472
0.0115154
0.00717902
0.00994384
0.00721479
0.00851208
0.00724378
0.00729091
0.00726601
0.00649208
0.00728357
0.0057379
0.00729942
0.00529875
0.00731347
0.00468256
0.0073271
0.00439461
0.00733886
0.00380447
0.00735041
0.00363581
0.00735957
0.00300373
0.00736898
0.00298955
0.00737546
0.00226559
0.00738292
0.00241455
0.00738673
0.00153844
0.00739265
0.00192213
0.00739393
0.000830097
0.00739877
0.00151411
0.00739739
9.37806e-05
0.00740155
0.00120849
0.00739718
-0.000702924
0.00740062
0.000951125
0.00739148
-0.00158476
0.00739208
0.000884071
0.00737459
-0.00219505
0.00737148
0.00163851
0.00734824
-0.00170026
0.00735166
0.00381715
0.00734047
-0.00024093
0.00737508
0.00524086
0.00739956
-0.00157008
0.00746835
-0.00118593
0.00751508
-0.0114964
0.00757475
-0.0324806
0.00757801
-0.0608603
0.00764707
0.0184187
0.00769344
0.0473476
0.00775526
0.0283931
0.00778213
0.0104992
0.00782365
0.00940671
0.00785674
0.00112035
0.00789541
0.000885023
0.00791642
-0.00491156
0.00792392
-0.00328683
0.00791191
-0.00554672
0.00789135
-0.00258437
0.00786645
-0.00330787
0.00784225
-0.00077412
0.00782133
-0.00121626
0.00780121
0.000588135
0.00778437
0.000237711
0.00776666
0.00143847
0.00775229
0.00103984
0.0077376
0.00159122
0.00772719
0.000975676
0.0077176
0.000953647
0.00771227
0.000144529
0.00770772
-0.000249021
0.00770589
-0.00110586
0.00770376
-0.00165615
0.00770232
-0.00238246
0.00769941
-0.00286426
0.00769496
-0.00335
0.00768788
-0.00366678
0.00767753
-0.00383732
0.00766417
-0.0039639
0.00764697
-0.00383074
0.0076276
-0.00383759
0.00760505
-0.00348631
0.00758219
-0.00349672
0.00755755
-0.00298518
0.00753436
-0.00318567
0.00751051
-0.00256708
0.00748886
-0.00307554
0.00746701
-0.0022977
0.00744584
-0.0032074
0.00742519
-0.0021407
0.00739969
-0.00347853
0.00737899
-0.00191062
0.00733971
-0.00357681
-0.00075289
0.00749144
-0.0242997
0.00744116
-0.0198352
0.00742052
-0.0158431
0.00741897
-0.0127699
0.00743123
-0.0102871
0.00744936
-0.0084224
0.00746551
-0.00658661
0.00747209
-0.00449772
0.00746327
-0.00194774
0.00743717
0.00096342
0.00739473
0.00398623
0.00733995
0.00687788
0.00727825
0.00937329
0.00721702
0.0113464
0.00716518
0.0126078
0.00713302
0.0130865
0.00712779
0.0126336
0.00714845
0.0114947
0.00718346
0.00990882
0.00721926
0.00847628
0.00724801
0.00726216
0.00727003
0.00647006
0.00728749
0.00572043
0.00730331
0.00528294
0.00731734
0.00466852
0.00733097
0.00438098
0.00734271
0.00379272
0.00735425
0.00362428
0.00736339
0.00299458
0.00737279
0.00298015
0.00737925
0.00225913
0.0073867
0.0024071
0.00739051
0.00153463
0.00739642
0.00191623
0.00739768
0.000828835
0.00740248
0.00150931
0.00740106
9.51972e-05
0.00740517
0.00120438
0.00740074
-0.000698493
0.00740408
0.000947784
0.00739484
-0.00157552
0.00739532
0.000883589
0.00737779
-0.00217752
0.00737474
0.00164157
0.00735176
-0.00167729
0.0073556
0.00381332
0.00734504
-0.000230372
0.00738009
0.00520581
0.00740458
-0.00159457
0.00747253
-0.00125388
0.00751808
-0.011542
0.0075754
-0.032538
0.00757586
-0.0608608
0.00764615
0.0183484
0.00769563
0.0472981
0.00775872
0.02833
0.00778556
0.0104723
0.00782629
0.00936597
0.00785766
0.00108898
0.00789405
0.000848632
0.00791222
-0.00492973
0.00791709
-0.0032917
0.0079028
-0.00553243
0.00788072
-0.0025623
0.00785482
-0.00328197
0.00783016
-0.000749455
0.007809
-0.0011951
0.00778885
0.000608284
0.00777204
0.000254522
0.00775446
0.00145605
0.00774028
0.00105402
0.00772589
0.00160561
0.00771588
0.00098569
0.00770678
0.000962747
0.007702
0.000149303
0.00769803
-0.000245052
0.00769674
-0.00110457
0.00769505
-0.00165445
0.00769382
-0.00238124
0.00769089
-0.00286133
0.00768614
-0.00334525
0.00767856
-0.00365919
0.00766756
-0.00382631
0.00765351
-0.00394984
0.00763573
-0.00381296
0.00761587
-0.00381774
0.00759312
-0.00346356
0.00757016
-0.00347376
0.00754576
-0.00296079
0.00752283
-0.00316274
0.00749959
-0.00254383
0.00747838
-0.00305434
0.00745732
-0.00227664
0.00743656
-0.00318664
0.00741674
-0.00212088
0.00739148
-0.00345327
0.00737158
-0.00189071
0.00733266
-0.00353788
-0.000718551
0.00749116
-0.0242151
0.00744034
-0.0197844
0.00741894
-0.0158217
0.00741657
-0.0127675
0.00742799
-0.0102985
0.00744529
-0.00843971
0.00746068
-0.006602
0.00746665
-0.00450369
0.00745745
-0.00193853
0.00743122
0.000989647
0.00738894
0.00402851
0.00733465
0.00693217
0.00727378
0.00943415
0.00721377
0.0114064
0.00716357
0.012658
0.00713338
0.0131167
0.00713012
0.0126368
0.00715225
0.0114726
0.00718791
0.00987316
0.00722371
0.00844048
0.0072522
0.00723367
0.00727403
0.00644823
0.0072914
0.00570306
0.00730718
0.00526715
0.00732121
0.00465449
0.00733483
0.00436737
0.00734656
0.00378099
0.00735809
0.00361275
0.00736721
0.00298545
0.00737661
0.00297076
0.00738306
0.00225267
0.0073905
0.00239966
0.0073943
0.00153083
0.00740019
0.00191033
0.00740144
0.000827592
0.00740621
0.00150453
0.00740476
9.66474e-05
0.00740881
0.00120033
0.00740432
-0.000694001
0.00740757
0.000944537
0.00739822
-0.00156618
0.00739859
0.000883219
0.00738104
-0.00215996
0.00737804
0.00164456
0.00735534
-0.00165459
0.00735959
0.00380906
0.00734964
-0.000220423
0.0073851
0.00517035
0.00740957
-0.00161903
0.00747668
-0.001321
0.00752106
-0.0115863
0.00757605
-0.0325929
0.00757371
-0.0608585
0.0076452
0.0182769
0.00769771
0.0472456
0.007762
0.0282657
0.00778879
0.0104455
0.0078287
0.00932606
0.00785835
0.00105933
0.00789247
0.000814516
0.00790784
-0.0049451
0.00791014
-0.00329401
0.00789364
-0.00551593
0.00787013
-0.00253879
0.00784331
-0.00325514
0.00781824
-0.000724388
0.0077969
-0.00117376
0.00777676
0.00062842
0.00776002
0.000271266
0.00774261
0.00147346
0.00772866
0.00106797
0.00771462
0.00161966
0.00770504
0.000995269
0.00769648
0.000971305
0.00769229
0.00015349
0.00768893
-0.000241692
0.00768818
-0.00110381
0.00768689
-0.00165317
0.00768584
-0.00238018
0.00768285
-0.00285833
0.00767776
-0.00334017
0.00766964
-0.00365107
0.00765801
-0.00381468
0.00764331
-0.00393514
0.00762502
-0.00379468
0.00760476
-0.00379748
0.00758189
-0.00344068
0.00755891
-0.00345078
0.00753482
-0.0029367
0.0075122
-0.00314012
0.0074896
-0.00252122
0.00746886
-0.0030336
0.0074486
-0.00225638
0.00742824
-0.00316629
0.00740922
-0.00210186
0.00738419
-0.00342824
0.00736503
-0.00187155
0.00732644
-0.0034993
-0.000685694
0.00749089
-0.0241302
0.00743953
-0.019733
0.00741738
-0.0157995
0.0074142
-0.0127644
0.00742478
-0.0103091
0.00744126
-0.00845619
0.00745592
-0.00661665
0.00746129
-0.00450906
0.0074517
-0.00192894
0.00742535
0.00101599
0.00738326
0.00407061
0.00732947
0.00698596
0.00726945
0.00949417
0.00721066
0.0114652
0.00716211
0.0127066
0.00713389
0.0131449
0.00713257
0.0126382
0.0071561
0.011449
0.00719236
0.0098369
0.00722813
0.00840472
0.00725636
0.00720543
0.00727799
0.0064266
0.00729528
0.00568578
0.00731105
0.00525139
0.00732507
0.00464047
0.00733869
0.00435375
0.00735041
0.00376926
0.00736192
0.00360124
0.00737105
0.00297633
0.00738043
0.00296138
0.00738688
0.00224622
0.00739431
0.00239222
0.0073981
0.00152704
0.00740398
0.00190446
0.00740521
0.000826363
0.00740995
0.00149979
0.00740847
9.81299e-05
0.00741247
0.00119633
0.00740792
-0.000689451
0.00741108
0.000941381
0.00740164
-0.00155674
0.00740191
0.000882954
0.00738432
-0.00214238
0.00738139
0.0016475
0.00735896
-0.00163216
0.00736362
0.0038044
0.00735427
-0.000211069
0.00739011
0.00513451
0.00741453
-0.00164345
0.0074808
-0.00138727
0.00752402
-0.0116296
0.00757671
-0.0326456
0.00757157
-0.0608533
0.00764421
0.0182043
0.00769968
0.0471901
0.00776513
0.0282002
0.00779183
0.0104188
0.0078309
0.00928699
0.00785883
0.0010314
0.00789069
0.00078266
0.0079033
-0.00495771
0.00790309
-0.00329381
0.00788446
-0.00549729
0.0078596
-0.00251393
0.00783192
-0.00322746
0.00780651
-0.000698981
0.00778503
-0.00115228
0.00776496
0.000648497
0.00774832
0.000287905
0.00773113
0.00149065
0.00771745
0.00108164
0.00770381
0.0016333
0.00769471
0.00100437
0.00768674
0.000979273
0.00768317
0.000157059
0.00768044
-0.000238962
0.00768021
-0.00110358
0.00767931
-0.00165227
0.00767838
-0.00237925
0.00767527
-0.00285522
0.0076698
-0.0033347
0.00766114
-0.00364241
0.0076489
-0.00380244
0.00763361
-0.00391985
0.00761488
-0.00377595
0.0075943
-0.0037769
0.00757137
-0.00341776
0.00754844
-0.00342785
0.00752471
-0.00291297
0.00750246
-0.00311787
0.00748051
-0.00249928
0.00746026
-0.00301335
0.00744079
-0.0022369
0.00742083
-0.00314633
0.00740257
-0.0020836
0.00737775
-0.00340342
0.00735926
-0.00185306
0.00732099
-0.00346103
-0.000654241
0.00749063
-0.0240451
0.00743874
-0.0196811
0.00741585
-0.0157766
0.00741186
-0.0127604
0.00742163
-0.0103189
0.00743729
-0.00847185
0.00745121
-0.00663057
0.00745598
-0.00451384
0.00744603
-0.00191898
0.00741957
0.00104244
0.00737767
0.00411251
0.0073244
0.00703923
0.00726524
0.00955333
0.0072077
0.0115227
0.00716081
0.0127535
0.00713455
0.0131712