/*--------------------------------*- C++ -*----------------------------------*\
| =========                 |                                                 |
| \\      /  F ield         | OpenFOAM: The Open Source CFD Toolbox           |
|  \\    /   O peration     | Version:  2412                                  |
|   \\  /    A nd           | Website:  www.openfoam.com                      |
|    \\/     M anipulation  |                                                 |
\*---------------------------------------------------------------------------*/
FoamFile
{
    version     2.0;
    format      ascii;
    arch        "LSB;label=32;scalar=64";
    class       volVectorField;
    location    "0.9";
    object      U;
}
// * * * * * * * * * * * * * * * * * * * * * * * * * * * * * * * * * * * * * //

dimensions      [0 1 -1 0 0 0 0];

internalField   nonuniform List<vector> 
13079
(
(100.032 1.91725 0)
(100.655 5.33918 -8.14681e-17)
(101.78 8.50562 -1.15247e-20)
(103.336 11.0659 0)
(105.12 13.2345 0)
(107.171 14.9942 0)
(109.266 16.6791 0)
(111.371 18.4777 0)
(113.296 20.509 -6.44099e-17)
(115.01 22.7225 6.74136e-17)
(116.46 24.9732 0)
(117.684 27.1219 0)
(118.75 29.0227 0)
(119.728 30.6154 8.57728e-17)
(120.771 31.8143 0)
(121.994 32.6147 0)
(123.667 32.9602 -9.47496e-17)
(125.889 32.966 -9.36126e-17)
(128.795 32.7455 -2.98846e-21)
(132.073 32.5986 -8.55526e-17)
(135.629 32.5789 0)
(139.131 32.8305 -7.45314e-17)
(142.81 33.1667 6.95272e-17)
(146.438 33.7179 0)
(150.404 34.2375 0)
(154.326 34.9782 0)
(158.719 35.61 5.42141e-17)
(162.997 36.5263 -5.09453e-17)
(167.905 37.2499 -3.82954e-21)
(172.582 38.3613 0)
(178.116 39.1699 0)
(183.245 40.5163 0)
(189.562 41.4056 0)
(195.213 43.0429 0)
(202.532 44.0091 3.38941e-17)
(208.784 46.0128 -3.13463e-17)
(217.401 47.0503 -3.01826e-17)
(224.34 49.5142 -2.75123e-17)
(234.657 50.6171 2.67148e-17)
(242.384 53.6556 -2.36907e-17)
(254.943 54.8338 0)
(263.507 58.6423 -1.96145e-17)
(278.958 60.0845 -1.97224e-17)
(288.314 65.0701 -3.0618e-17)
(307.643 67.2114 3.29381e-17)
(318.071 73.6787 0)
(343.338 76.7803 -1.38689e-17)
(356.355 84.0055 0)
(391.747 87.6631 0)
(410.75 92.9122 0)
(461.038 97.6219 -6.38441e-18)
(489.239 90.4325 0)
(557.197 94.8283 0)
(605.278 3.47237 0)
(557.701 -45.162 5.97866e-18)
(539.75 -58.3973 0)
(502.492 -64.6399 6.75793e-21)
(487.032 -63.0162 -1.5721e-17)
(458.955 -64.4447 1.77011e-21)
(446.639 -62.7779 -4.67522e-18)
(424.877 -63.5384 -1.85843e-17)
(413.19 -60.9207 0)
(393.991 -59.8008 0)
(381.563 -56.1801 -1.51178e-20)
(364.347 -54.2487 4.49227e-17)
(352.326 -50.8935 4.59196e-17)
(337.609 -49.0737 -6.39339e-17)
(326.715 -46.3442 -6.92135e-17)
(314.255 -44.7659 8.72166e-17)
(304.459 -42.6063 -9.58916e-17)
(293.776 -41.3228 1.13964e-16)
(284.968 -39.7133 1.58919e-20)
(275.747 -38.7756 0)
(267.876 -37.6635 0)
(259.882 -37.0261 1.77691e-16)
(252.858 -36.2765 1.94149e-16)
(245.855 -35.8195 -2.13316e-16)
(100.031 1.89995 0)
(100.646 5.29516 8.15436e-17)
(101.76 8.4373 -1.52875e-16)
(103.303 10.9804 0)
(105.073 13.1358 0)
(107.11 14.8871 0)
(109.191 16.5694 0)
(111.284 18.3708 0)
(113.198 20.4099 -6.43215e-17)
(114.904 22.6335 0)
(116.35 24.8947 0)
(117.575 27.0525 0)
(118.645 28.9599 0)
(119.634 30.5558 0)
(120.695 31.7537 0)
(121.944 32.5478 0)
(123.652 32.882 1.78438e-21)
(125.916 32.8744 9.26003e-17)
(128.857 32.6435 -8.91653e-17)
(132.155 32.4918 0)
(135.716 32.4718 -7.86948e-17)
(139.217 32.7241 7.31518e-17)
(142.893 33.0602 0)
(146.521 33.6097 -6.38057e-17)
(150.487 34.1273 0)
(154.411 34.8651 0)
(158.804 35.4945 -3.83634e-21)
(163.084 36.4073 5.02693e-17)
(167.993 37.1283 -4.75904e-17)
(172.671 38.2357 0)
(178.206 39.0417 4.236e-17)
(183.337 40.3831 0)
(189.656 41.2696 0)
(195.309 42.9009 0)
(202.63 43.8641 -3.42424e-21)
(208.884 45.8603 3.11314e-17)
(217.503 46.8945 0)
(224.445 49.3489 0)
(234.762 50.4483 2.65249e-17)
(242.491 53.475 -2.35069e-17)
(255.048 54.6497 2.30806e-17)
(263.614 58.4442 1.94396e-17)
(279.059 59.884 3.81602e-21)
(288.422 64.8535 8.29559e-21)
(307.753 66.993 -1.63035e-17)
(318.213 73.441 1.08676e-17)
(343.502 76.5367 0)
(356.592 83.7346 5.97447e-18)
(392.008 87.3707 0)
(411.066 92.5787 -9.32979e-19)
(461.259 97.234 6.27689e-18)
(489.435 89.9969 8.92823e-18)
(557.093 94.2675 -1.22236e-18)
(605.026 3.47401 0)
(557.848 -44.9014 -2.73413e-20)
(540.066 -58.1795 -2.04536e-17)
(502.861 -64.4364 6.74841e-21)
(487.379 -62.8326 0)
(459.231 -64.2669 -1.65756e-17)
(446.801 -62.5983 0)
(424.883 -63.3413 0)
(413.035 -60.6978 -9.65103e-18)
(393.682 -59.5521 0)
(381.143 -55.9124 -2.60206e-17)
(363.847 -53.9727 -4.45525e-17)
(351.787 -50.6155 0)
(337.048 -48.8008 6.64858e-21)
(326.152 -46.0759 6.90258e-17)
(313.692 -44.506 8.70835e-17)
(303.906 -42.3519 -9.58425e-17)
(293.232 -41.0771 -2.28109e-16)
(284.438 -39.4737 1.25873e-16)
(275.23 -38.5449 1.4446e-16)
(267.375 -37.4396 -1.58926e-16)
(259.4 -36.8112 -7.36452e-21)
(252.397 -36.0686 -1.94799e-16)
(245.415 -35.62 2.13988e-16)
(100.03 1.88291 0)
(100.637 5.25162 -8.16437e-17)
(101.741 8.36966 7.65479e-17)
(103.269 10.8958 0)
(105.027 13.0379 0)
(107.05 14.7808 0)
(109.117 16.4605 0)
(111.197 18.2648 0)
(113.101 20.3115 6.42435e-17)
(114.799 22.545 6.71889e-17)
(116.242 24.8167 0)
(117.467 26.9834 0)
(118.543 28.8973 -8.03815e-17)
(119.543 30.4963 0)
(120.622 31.693 -8.94308e-17)
(121.898 32.4805 9.23086e-17)
(123.642 32.8033 9.3195e-17)
(125.946 32.7823 0)
(128.921 32.541 -8.79906e-17)
(132.237 32.3847 0)
(135.803 32.3646 7.73584e-17)
(139.301 32.6175 -1.43704e-16)
(142.976 32.9535 0)
(146.603 33.5014 6.27264e-17)
(150.57 34.017 -5.91075e-17)
(154.495 34.7518 5.56605e-17)
(158.889 35.3788 -5.26983e-17)
(163.17 36.2882 0)
(168.08 37.0067 0)
(172.76 38.11 0)
(178.296 38.9133 -4.19595e-17)
(183.429 40.2499 0)
(189.75 41.1336 -3.74329e-17)
(195.405 42.7589 0)
(202.728 43.7191 -3.34192e-17)
(208.985 45.7077 -3.09168e-17)
(217.606 46.7388 2.97785e-17)
(224.551 49.1837 2.71329e-17)
(234.868 50.2797 -2.63497e-17)
(242.6 53.2945 2.33434e-17)
(255.154 54.4658 -2.29117e-17)
(263.722 58.2463 -1.92861e-17)
(279.162 59.6838 3.74366e-21)
(288.533 64.6373 3.00232e-17)
(307.866 66.7749 1.61382e-17)
(318.358 73.2034 -1.07517e-17)
(343.669 76.2929 0)
(356.831 83.4632 -1.17817e-17)
(392.269 87.0776 1.07088e-17)
(411.38 92.2447 1.84724e-18)
(461.476 96.8461 0)
(489.63 89.5624 -8.8052e-18)
(556.99 93.7092 1.21193e-18)
(604.777 3.47454 1.30771e-18)
(557.99 -44.6425 -2.86733e-18)
(540.373 -57.9613 4.03233e-17)
(503.217 -64.231 6.73086e-21)
(487.71 -62.6462 -1.53231e-17)
(459.49 -64.0852 8.17731e-18)
(446.943 -62.4143 -4.57649e-18)
(424.87 -63.1394 1.80783e-17)
(412.862 -60.4706 9.52129e-18)
(393.358 -59.2998 -2.94831e-17)
(380.713 -55.6422 0)
(363.342 -53.6954 0)
(351.247 -50.3371 4.53054e-17)
(336.488 -48.528 6.33776e-17)
(325.592 -45.8084 0)
(313.135 -44.2472 -8.69627e-17)
(303.36 -42.0988 1.73174e-20)
(292.694 -40.8329 2.28256e-16)
(283.915 -39.2356 0)
(274.721 -38.316 -1.44773e-16)
(266.885 -37.2176 1.59344e-16)
(258.927 -36.5984 -1.78768e-16)
(251.946 -35.8628 0)
(244.987 -35.4228 0)
(100.029 1.86611 0)
(100.629 5.20857 0)
(101.723 8.30271 0)
(103.237 10.8118 0)
(104.982 12.9409 0)
(106.99 14.6754 0)
(109.044 16.3524 0)
(111.111 18.1595 0)
(113.005 20.2138 0)
(114.696 22.4571 -6.70866e-17)
(116.135 24.7392 -7.08823e-17)
(117.362 26.9146 0)
(118.444 28.8349 8.01714e-17)
(119.455 30.4368 8.49028e-17)
(120.553 31.6321 1.45874e-21)
(121.856 32.4128 -1.60098e-21)
(123.636 32.7239 0)
(125.98 32.6894 9.06566e-17)
(128.987 32.438 1.73725e-16)
(132.321 32.2773 8.1659e-17)
(135.89 32.2572 0)
(139.385 32.5109 1.4124e-16)
(143.057 32.8467 6.59e-17)
(146.684 33.3929 0)
(150.653 33.9064 5.8213e-17)
(154.579 34.6384 -5.48783e-17)
(158.974 35.2629 5.20085e-17)
(163.257 36.169 0)
(168.168 36.8849 0)
(172.849 37.9842 -4.37584e-17)
(178.387 38.7849 0)
(183.522 40.1167 0)
(189.844 40.9976 3.71545e-17)
(195.502 42.6169 0)
(202.827 43.574 -3.31959e-17)
(209.087 45.5552 3.07233e-17)
(217.709 46.5831 -2.95956e-17)
(224.657 49.0186 -5.39226e-17)
(234.975 50.1111 -2.61751e-17)
(242.71 53.1141 0)
(255.262 54.2822 2.27422e-17)
(263.832 58.0487 1.91237e-17)
(279.267 59.4839 1.92237e-17)
(288.646 64.4214 -2.97421e-17)
(307.981 66.5571 -3.80422e-21)
(318.505 72.9659 0)
(343.839 76.0491 0)
(357.071 83.1914 5.81002e-18)
(392.531 86.7839 -2.11061e-17)
(411.69 91.9099 -9.14623e-19)
(461.692 96.4581 0)
(489.823 89.1288 0)
(556.889 93.1533 -1.20247e-18)
(604.529 3.47395 -1.29405e-18)
(558.128 -44.3854 0)
(540.671 -57.7427 -1.9878e-17)
(503.56 -64.0237 -6.56226e-19)
(488.026 -62.457 -6.17469e-21)
(459.73 -63.8999 0)
(447.066 -62.2262 4.51325e-18)
(424.837 -62.9329 -1.78242e-17)
(412.672 -60.2391 -9.36973e-18)
(393.021 -59.0441 1.50441e-21)
(380.274 -55.3698 2.54424e-17)
(362.831 -53.4168 0)
(350.705 -50.0583 -4.50263e-17)
(335.928 -48.2556 0)
(325.035 -45.5415 0)
(312.581 -43.9893 0)
(302.818 -41.8469 1.91523e-16)
(292.163 -40.5901 -1.1419e-16)
(283.4 -38.9991 0)
(274.22 -38.0889 -1.45038e-16)
(266.403 -36.9975 1.59694e-16)
(258.465 -36.3877 1.79208e-16)
(251.507 -35.6593 1.95825e-16)
(244.571 -35.228 -2.14951e-16)
(100.028 1.84954 0)
(100.621 5.166 0)
(101.704 8.23642 0)
(103.205 10.7287 0)
(104.937 12.8446 0)
(106.931 14.5708 6.37543e-17)
(108.973 16.2452 0)
(111.027 18.0549 0)
(112.91 20.1168 0)
(114.594 22.3698 -6.69814e-17)
(116.031 24.6621 1.4151e-16)
(117.258 26.8462 7.51742e-17)
(118.347 28.7727 -7.99626e-17)
(119.37 30.3773 -8.46268e-17)
(120.487 31.5709 8.86515e-17)
(121.818 32.3446 -9.12166e-17)
(123.635 32.6439 0)
(126.017 32.5958 -2.40625e-21)
(129.056 32.3344 -8.57769e-17)
(132.405 32.1696 -3.50502e-21)
(135.976 32.1497 0)
(139.469 32.4041 -6.94564e-17)
(143.139 32.7398 -3.65572e-21)
(146.766 33.2842 0)
(150.735 33.7957 0)
(154.662 34.5248 5.41387e-17)
(159.059 35.147 -5.13708e-17)
(163.343 36.0496 0)
(168.255 36.763 0)
(172.938 37.8583 4.33506e-17)
(178.477 38.6564 -4.12228e-17)
(183.614 39.9834 -3.86772e-17)
(189.939 40.8615 -3.68862e-17)
(195.6 42.4748 -3.44384e-17)
(202.927 43.429 3.2306e-21)
(209.19 45.4027 3.05292e-17)
(217.813 46.4274 0)
(224.764 48.8535 2.67973e-17)
(235.083 49.9426 2.60145e-17)
(242.821 52.9338 0)
(255.37 54.0987 -3.49479e-21)
(263.943 57.8513 -1.89818e-17)
(279.374 59.2843 1.9065e-17)
(288.762 64.2057 1.47397e-17)
(308.099 66.3394 -3.72235e-21)
(318.656 72.7285 -1.05059e-17)
(344.012 75.805 0)
(357.314 82.9192 5.7165e-18)
(392.793 86.4897 1.04027e-17)
(411.999 91.5746 0)
(461.905 96.0702 0)
(490.014 88.6963 0)
(556.79 92.6 1.19292e-18)
(604.284 3.4723 -1.27267e-18)
(558.263 -44.1299 0)
(540.96 -57.5236 0)
(503.891 -63.8144 0)
(488.326 -62.265 2.98452e-17)
(459.954 -63.7109 7.96198e-18)
(447.172 -62.0338 0)
(424.787 -62.7221 0)
(412.466 -60.0037 1.84732e-17)
(392.671 -58.7852 2.87643e-17)
(379.827 -55.0954 -2.51799e-17)
(362.316 -53.1372 0)
(350.161 -49.7794 0)
(335.37 -47.9835 0)
(324.481 -45.2755 0)
(312.033 -43.7326 0)
(302.283 -41.5963 -1.71902e-20)
(291.639 -40.3487 1.14217e-16)
(282.892 -38.7643 0)
(273.728 -37.8636 8.52408e-21)
(265.931 -36.7795 -1.31625e-20)
(258.013 -36.1792 -7.06955e-21)
(251.079 -35.4582 -1.96195e-16)
(244.167 -35.0356 2.15212e-16)
(237.951 -34.5107 0)
(231.822 -34.1267 2.50591e-16)
(226.205 -33.6574 -7.47394e-21)
(220.685 -33.2024 -6.45762e-21)
(215.545 -32.6946 5.87471e-16)
(210.473 -32.1049 6.05441e-16)
(205.689 -31.526 3.08049e-16)
(200.918 -30.7858 3.09456e-16)
(196.393 -30.1638 6.15533e-16)
(191.83 -29.3003 3.03177e-16)
(187.545 -28.7167 -2.97468e-16)
(183.174 -27.7814 -9.5475e-21)
(179.187 -27.3452 2.84377e-16)
(175.016 -26.364 -5.5567e-16)
(171.416 -26.1775 -2.72313e-16)
(167.394 -25.1123 1.08673e-20)
(164.284 -25.2591 -2.60436e-16)
(160.223 -23.9907 -5.05544e-16)
(157.778 -24.5375 2.45029e-16)
(153.231 -22.8685 2.33445e-16)
(151.886 -23.8317 -2.21457e-16)
(145.867 -21.1525 -2.05515e-16)
(100.027 1.8332 8.65157e-17)
(100.613 5.12389 0)
(101.686 8.1708 7.68481e-17)
(103.173 10.6463 0)
(104.893 12.7491 -6.70681e-17)
(106.873 14.467 -6.37816e-17)
(108.902 16.1388 0)
(110.944 17.9512 0)
(112.817 20.0205 0)
(114.494 22.2831 6.6886e-17)
(115.927 24.5855 -1.4126e-16)
(117.157 26.778 -7.50198e-17)
(118.252 28.7106 1.86331e-21)
(119.288 30.3177 -8.43535e-17)
(120.424 31.5095 0)
(121.783 32.2759 0)
(123.637 32.5631 0)
(126.058 32.5016 -2.40049e-21)
(129.126 32.2304 0)
(132.489 32.0617 -7.93384e-17)
(136.062 32.0421 7.37107e-17)
(139.551 32.2972 6.83512e-17)
(143.22 32.6327 -3.56819e-21)
(146.846 33.1754 5.9857e-17)
(150.817 33.6849 0)
(154.745 34.4111 -1.06906e-16)
(159.144 35.0308 -5.07679e-17)
(163.429 35.93 0)
(168.343 36.641 0)
(173.027 37.7324 -4.29607e-17)
(178.568 38.5279 3.2698e-21)
(183.708 39.85 3.83956e-17)
(190.035 40.7254 3.66401e-17)
(195.698 42.3327 6.84436e-17)
(203.027 43.284 3.27938e-17)
(209.293 45.2501 -3.03549e-17)
(217.918 46.2717 0)
(224.872 48.6884 -2.66319e-17)
(235.191 49.7741 -2.5854e-17)
(242.932 52.7536 0)
(255.48 53.9153 -2.24329e-17)
(264.056 57.6541 0)
(279.482 59.085 -1.89195e-17)
(288.879 63.9903 0)
(308.22 66.1219 -3.13824e-17)
(318.809 72.4911 2.07963e-17)
(344.187 75.5607 0)
(357.558 82.6464 -5.64641e-18)
(393.055 86.1948 1.02477e-17)
(412.305 91.2387 0)
(462.116 95.6822 0)
(490.204 88.2648 0)
(556.691 92.0492 1.18458e-18)
(604.04 3.46961 1.26035e-18)
(558.392 -43.8761 0)
(541.239 -57.3039 0)
(504.209 -63.6031 0)
(488.612 -62.0701 -1.47245e-17)
(460.161 -63.5182 -7.85226e-18)
(447.259 -61.8374 4.41211e-18)
(424.72 -62.5069 0)
(412.245 -59.7644 -1.81986e-17)
(392.31 -58.5233 0)
(379.372 -54.819 0)
(361.798 -52.8566 -4.30849e-17)
(349.617 -49.5004 0)
(334.815 -47.712 -6.25183e-17)
(323.931 -45.0105 0)
(311.489 -43.4771 8.65092e-17)
(301.754 -41.3472 -1.71053e-20)
(291.123 -40.109 -1.14234e-16)
(282.393 -38.5313 0)
(273.246 -37.6403 1.45462e-16)
(265.47 -36.5636 -1.60253e-16)
(257.574 -35.973 -6.95039e-21)
(250.664 -35.2595 0)
(243.776 -34.8457 -2.15263e-16)
(237.585 -34.3277 0)
(231.477 -33.9508 2.49739e-16)
(225.878 -33.4868 -2.65009e-16)
(220.368 -33.0362 -2.78765e-16)
(215.234 -32.5309 -5.78678e-16)
(210.156 -31.942 -2.96563e-16)
(205.362 -31.3628 -3.00007e-16)
(200.575 -30.6202 0)
(196.033 -29.9969 -2.96474e-16)
(191.454 -29.1306 0)
(187.159 -28.5473 2.84478e-16)
(182.78 -27.6109 -2.77416e-16)
(178.795 -27.1781 2.711e-16)
(174.627 -26.1975 2.64674e-16)
(171.041 -26.0169 2.59233e-16)
(167.027 -24.9533 2.53075e-16)
(163.938 -25.1066 2.47347e-16)
(159.886 -23.8402 2.39609e-16)
(157.465 -24.3907 -2.31617e-16)
(152.93 -22.7262 -2.19967e-16)
(151.601 -23.6827 2.07849e-16)
(145.62 -21.009 1.92229e-16)
(100.026 1.81708 -8.65736e-17)
(100.606 5.08223 -8.19713e-17)
(101.668 8.10582 -7.6962e-17)
(103.142 10.5646 0)
(104.85 12.6544 6.71369e-17)
(106.816 14.364 0)
(108.832 16.0332 -6.22231e-17)
(110.861 17.8482 0)
(112.724 19.9248 0)
(114.395 22.1969 0)
(115.826 24.5092 7.05103e-17)
(117.057 26.7101 -7.4865e-17)
(118.159 28.6486 1.83879e-21)
(119.208 30.2581 8.40895e-17)
(120.364 31.4478 0)
(121.752 32.2067 0)
(123.642 32.4817 0)
(126.102 32.4066 -1.75947e-16)
(129.199 32.1259 8.37262e-17)
(132.574 31.9535 0)
(136.147 31.9344 -1.45234e-16)
(139.634 32.1902 -6.73153e-17)
(143.3 32.5255 -6.28832e-17)
(146.927 33.0664 -5.90226e-17)
(150.898 33.5739 0)
(154.828 34.2972 5.28123e-17)
(159.228 34.9146 3.35042e-21)
(163.515 35.8104 0)
(168.43 36.5189 4.51761e-17)
(173.117 37.6063 8.52037e-17)
(178.66 38.3992 4.05824e-17)
(183.801 39.7165 0)
(190.13 40.5892 -3.64023e-17)
(195.796 42.1905 -6.80303e-17)
(203.128 43.1389 0)
(209.396 45.0975 0)
(218.024 46.116 2.90846e-17)
(224.981 48.5233 5.29644e-17)
(235.301 49.6058 2.57068e-17)
(243.045 52.5735 2.2721e-17)
(255.591 53.7321 2.22823e-17)
(264.17 57.4571 -1.86931e-17)
(279.592 58.8858 0)
(288.999 63.7751 0)
(308.343 65.9046 1.55545e-17)
(318.965 72.2537 -1.02944e-17)
(344.365 75.3163 0)
(357.804 82.3732 5.55886e-18)
(393.317 85.8994 -1.01109e-17)
(412.608 90.9022 0)
(462.325 95.2943 0)
(490.393 87.8343 8.36942e-18)
(556.594 91.5008 -1.17584e-18)
(603.798 3.46592 -1.24056e-18)
(558.517 -43.6237 0)
(541.509 -57.0837 1.90625e-17)
(504.514 -63.3899 6.56175e-19)
(488.883 -61.8725 0)
(460.352 -63.3221 0)
(447.33 -61.6371 -8.70665e-18)
(424.637 -62.2876 -1.70762e-17)
(412.01 -59.5216 1.05506e-20)
(391.939 -58.2586 0)
(378.911 -54.5411 2.46204e-17)
(361.277 -52.5754 3.90328e-21)
(349.074 -49.2215 0)
(334.262 -47.4412 6.22288e-17)
(323.387 -44.7466 0)
(310.953 -43.223 -8.25335e-21)
(301.233 -41.0996 -9.55088e-17)
(290.615 -39.8711 -1.14195e-16)
(281.904 -38.3002 1.26446e-16)
(272.774 -37.4191 -1.45571e-16)
(265.021 -36.35 1.60392e-16)
(257.147 -35.7693 -1.8e-16)
(250.263 -35.0634 -1.9646e-16)
(243.399 -34.6585 2.1509e-16)
(237.234 -34.1474 0)
(231.146 -33.7776 -4.96891e-16)
(225.565 -33.3185 -2.62718e-16)
(220.064 -32.872 0)
(214.932 -32.3688 6.47771e-21)
(209.848 -31.7802 2.89463e-16)
(205.042 -31.2004 2.91053e-16)
(200.238 -30.4555 2.89013e-16)
(195.682 -29.831 -2.84517e-16)
(191.088 -28.9623 2.78009e-16)
(186.785 -28.3798 0)
(182.402 -27.4428 0)
(178.422 -27.0138 -2.57805e-16)
(174.258 -26.0345 2.51534e-16)
(170.688 -25.8599 -2.46215e-16)
(166.684 -24.7985 0)
(163.617 -24.9581 -2.34352e-16)
(159.576 -23.6942 -2.26537e-16)
(157.178 -24.2481 0)
(152.656 -22.5885 0)
(151.341 -23.5378 0)
(145.399 -20.8707 0)
(100.026 1.80118 0)
(100.598 5.04102 1.6412e-16)
(101.651 8.04147 0)
(103.112 10.4837 -7.18184e-17)
(104.807 12.5604 0)
(106.76 14.2618 -6.38231e-17)
(108.762 15.9283 6.22173e-17)
(110.78 17.7459 6.22603e-17)
(112.633 19.8298 6.38774e-17)
(114.297 22.1113 0)
(115.725 24.4333 0)
(116.959 26.6424 7.47188e-17)
(118.069 28.5867 7.93731e-17)
(119.131 30.1983 0)
(120.307 31.3858 0)
(121.725 32.1368 0)
(123.651 32.3995 0)
(126.148 32.3109 1.74281e-16)
(129.272 32.0208 -8.27674e-17)
(132.659 31.845 0)
(136.232 31.8265 1.43157e-16)
(139.715 32.0832 0)
(143.38 32.4182 6.19918e-17)
(147.007 32.9573 -5.82337e-17)
(150.979 33.4627 0)
(154.911 34.1831 -5.22078e-17)
(159.313 34.7982 4.96879e-17)
(163.601 35.6906 0)
(168.518 36.3967 -4.47871e-17)
(173.206 37.4801 -4.22661e-17)
(178.751 38.2705 0)
(183.895 39.5829 0)
(190.226 40.4529 3.61846e-17)
(195.895 42.0483 3.38223e-17)
(203.229 42.9937 0)
(209.5 44.9449 0)
(218.13 45.9603 -2.89342e-17)
(225.09 48.3583 -5.26726e-17)
(235.411 49.4374 0)
(243.159 52.3935 -4.51705e-17)
(255.703 53.5491 -2.21443e-17)
(264.285 57.2603 1.85674e-17)
(279.704 58.687 0)
(289.12 63.5601 0)
(308.468 65.6875 -1.54178e-17)
(319.123 72.0163 -1.0182e-17)
(344.545 75.0715 1.27995e-17)
(358.051 82.0994 -5.49385e-18)
(393.578 85.6033 -9.9664e-18)
(412.908 90.5651 -9.13512e-19)
(462.533 94.9064 -5.6602e-18)
(490.581 87.4049 -8.2703e-18)
(556.499 90.9548 1.16855e-18)
(603.557 3.46124 3.96132e-21)
(558.636 -43.3728 -2.54345e-18)
(541.769 -56.8628 -1.88153e-17)
(504.807 -63.1747 -6.47494e-19)
(489.139 -61.6722 -1.43479e-17)
(460.527 -63.1224 0)
(447.384 -61.4328 8.59766e-18)
(424.538 -62.0643 1.6829e-17)
(411.762 -59.2753 8.83488e-18)
(391.559 -57.9914 -2.77107e-17)
(378.444 -54.2617 -2.43645e-17)
(360.755 -52.2937 4.23663e-17)
(348.533 -48.943 0)
(333.714 -47.1713 0)
(322.848 -44.4839 6.76674e-17)
(310.424 -42.9704 -8.61277e-17)
(300.721 -40.8538 0)
(290.117 -39.635 8.94824e-21)
(281.425 -38.0711 -2.52872e-16)
(272.314 -37.2002 1.45615e-16)
(264.584 -36.1387 -1.6045e-16)
(256.733 -35.5681 0)
(249.875 -34.87 1.96323e-16)
(243.037 -34.474 0)
(236.897 -33.9698 0)
(230.83 -33.6069 2.46648e-16)
(225.264 -33.1525 2.59795e-16)
(219.771 -32.7095 0)
(214.64 -32.2082 2.77943e-16)
(209.548 -31.6194 -6.29715e-21)
(204.73 -31.0388 0)
(199.91 -30.2916 -2.77648e-16)
(195.34 -29.6661 2.72027e-16)
(190.733 -28.7956 -2.64876e-16)
(186.426 -28.2142 0)
(182.04 -27.2773 0)
(178.068 -26.8524 0)
(173.911 -25.875 -2.38511e-16)
(170.358 -25.7065 -4.17122e-21)
(166.365 -24.6477 2.27307e-16)
(163.321 -24.8135 2.21494e-16)
(159.292 -23.5525 2.13685e-16)
(156.916 -24.1093 0)
(152.406 -22.4553 1.93916e-16)
(151.105 -23.3966 -1.8212e-16)
(145.202 -20.7371 0)
(100.025 1.78548 0)
(100.591 5.00024 -1.22728e-20)
(101.634 7.97775 -7.71544e-17)
(103.082 10.4034 7.1921e-17)
(104.765 12.4672 -6.72548e-17)
(106.704 14.1605 5.86071e-21)
(108.694 15.8243 -6.22033e-17)
(110.699 17.6444 -6.22261e-17)
(112.543 19.7354 -6.38169e-17)
(114.201 22.0261 0)
(115.627 24.3578 0)
(116.863 26.5749 -7.45717e-17)
(117.98 28.5248 0)
(119.056 30.1383 8.35735e-17)
(120.254 31.3233 0)
(121.7 32.0664 0)
(123.664 32.3165 0)
(126.197 32.2145 -1.72676e-16)
(129.347 31.9153 0)
(132.744 31.7363 0)
(136.317 31.7186 -7.05958e-17)
(139.796 31.976 6.54062e-17)
(143.459 32.3107 -3.31696e-21)
(147.087 32.848 3.63479e-21)
(151.06 33.3514 -5.45131e-17)
(154.994 34.0689 5.16503e-17)
(159.397 34.6816 0)
(163.687 35.5707 0)
(168.606 36.2744 0)
(173.296 37.3538 4.1946e-17)
(178.843 38.1417 0)
(183.989 39.4493 -3.76339e-17)
(190.323 40.3166 0)
(195.994 41.906 0)
(203.33 42.8486 -3.226e-17)
(209.605 44.7923 2.98633e-17)
(218.237 45.8046 -2.87847e-17)
(225.201 48.1932 5.23937e-17)
(235.523 49.2691 2.54214e-17)
(243.273 52.2136 2.2455e-17)
(255.817 53.3661 2.20052e-17)
(264.402 57.0637 0)
(279.818 58.4883 1.85028e-17)
(289.244 63.3453 0)
(308.596 65.4704 3.40942e-21)
(319.283 71.7788 8.1759e-21)
(344.728 74.8265 -1.26726e-17)
(358.299 81.8251 0)
(393.839 85.3066 9.8393e-18)
(413.206 90.2275 1.81134e-18)
(462.738 94.5186 5.58057e-18)
(490.767 86.9765 -8.17718e-18)
(556.404 90.4112 -1.16055e-18)
(603.316 3.45563 1.21509e-18)
(558.751 -43.1232 2.5144e-18)
(542.02 -56.6412 0)
(505.086 -62.9575 -6.52141e-19)
(489.381 -61.4691 2.83173e-17)
(460.686 -62.9193 0)
(447.422 -61.2249 -4.24083e-18)
(424.425 -61.8373 0)
(411.502 -59.0258 0)
(391.171 -57.7218 2.73679e-17)
(377.974 -53.981 0)
(360.232 -52.0118 0)
(347.994 -48.665 0)
(333.171 -46.9024 0)
(322.316 -44.2227 -1.34809e-16)
(309.903 -42.7195 8.58801e-17)
(300.217 -40.6097 0)
(289.629 -39.4009 1.13994e-16)
(280.958 -37.8442 1.26354e-16)
(271.867 -36.9836 0)
(264.161 -35.9301 0)
(256.334 -35.3697 0)
(249.503 -34.6794 -1.95929e-16)
(242.69 -34.2924 -2.13846e-16)
(236.575 -33.795 0)
(230.528 -33.4387 2.44277e-16)
(224.977 -32.9887 0)
(219.49 -32.5489 -2.65506e-16)
(214.358 -32.0489 0)
(209.257 -31.4597 -2.72511e-16)
(204.426 -30.8781 -2.70556e-16)
(199.59 -30.1288 0)
(195.008 -29.5025 -2.5912e-16)
(190.391 -28.6306 0)
(186.082 -28.0509 -2.44375e-16)
(181.696 -27.1146 -2.37375e-16)
(177.734 -26.6941 0)
(173.585 -25.7191 -2.25656e-16)
(170.05 -25.5568 2.206e-16)
(166.07 -24.501 -2.14711e-16)
(163.049 -24.6728 -2.08896e-16)
(159.031 -23.4152 0)
(156.678 -23.9742 0)
(152.181 -22.3264 -1.81593e-16)
(150.891 -23.2591 1.7013e-16)
(145.028 -20.608 1.56156e-16)
(100.024 1.77 0)
(100.584 4.9599 -1.21985e-20)
(101.618 7.91465 7.72661e-17)
(103.053 10.3239 0)
(104.724 12.3748 6.7326e-17)
(106.649 14.0599 6.3882e-17)
(108.627 15.721 6.22011e-17)
(110.62 17.5436 0)
(112.455 19.6417 0)
(114.106 21.9415 -6.65197e-17)
(115.53 24.2827 -7.01645e-17)
(116.769 26.5077 7.44327e-17)
(117.894 28.4629 0)
(118.984 30.0782 -1.55258e-21)
(120.203 31.2605 0)
(121.679 31.9953 8.86991e-17)
(123.679 32.2327 0)
(126.249 32.1174 1.71133e-16)
(129.423 31.8093 0)
(132.83 31.6274 -7.52937e-17)
(136.4 31.6105 6.96607e-17)
(139.877 31.8687 -6.45389e-17)
(143.538 32.2031 -6.03794e-17)
(147.166 32.7385 5.68142e-17)
(151.141 33.2399 5.39147e-17)
(155.076 33.9545 5.11225e-17)
(159.481 34.5649 0)
(163.773 35.4506 4.62027e-17)
(168.693 36.1519 0)
(173.385 37.2274 -4.16542e-17)
(178.934 38.0128 -3.97581e-17)
(184.083 39.3156 3.74157e-17)
(190.419 40.1802 0)
(196.093 41.7636 -3.34597e-17)
(203.433 42.7033 3.21046e-17)
(209.71 44.6396 -2.97218e-17)
(218.344 45.6489 2.86483e-17)
(225.311 48.0282 -2.60662e-17)
(235.635 49.1009 -2.52924e-17)
(243.389 52.0337 2.2321e-17)
(255.931 53.1833 -3.22509e-21)
(264.519 56.8672 0)
(279.933 58.2898 -3.28154e-21)
(289.369 63.1307 0)
(308.726 65.2534 3.33521e-21)
(319.446 71.5413 8.03961e-21)
(344.913 74.5812 0)
(358.548 81.5503 0)
(394.1 85.0094 0)
(413.502 89.8893 -8.98187e-19)
(462.941 94.1309 0)
(490.952 86.5492 8.08649e-18)
(556.311 89.87 -1.15424e-18)
(603.077 3.4491 0)
(558.86 -42.875 0)
(542.26 -56.4189 0)
(505.354 -62.7383 6.43741e-19)
(489.609 -61.2633 5.20516e-21)
(460.83 -62.7129 0)
(447.445 -61.0134 4.1946e-18)
(424.298 -61.6066 0)
(411.232 -58.7733 8.56212e-18)
(390.776 -57.4501 0)
(377.501 -53.6994 2.38163e-17)
(359.711 -51.7297 0)
(347.459 -48.3877 -4.32042e-17)
(332.634 -46.6347 0)
(321.791 -43.9629 6.71167e-17)
(309.39 -42.4703 -7.84965e-21)
(299.723 -40.3676 0)
(289.152 -39.169 1.13785e-16)
(280.502 -37.6196 -1.26164e-16)
(271.432 -36.7695 0)
(263.752 -35.7241 0)
(255.95 -35.1741 0)
(249.147 -34.4918 3.90546e-16)
(242.359 -34.1138 2.12697e-16)
(236.27 -33.623 2.27295e-16)
(230.242 -33.2731 -2.41289e-16)
(224.703 -32.8272 0)
(219.221 -32.3901 2.59405e-16)
(214.086 -31.8909 0)
(208.975 -31.3011 0)
(204.131 -30.7185 2.59204e-16)
(199.281 -29.9672 0)
(194.688 -29.3404 4.91915e-16)
(190.063 -28.4676 0)
(185.754 -27.8899 7.14236e-22)
(181.37 -26.9548 5.43097e-21)
(177.419 -26.539 0)
(173.281 -25.5668 2.13075e-16)
(169.766 -25.4108 0)
(165.799 -24.3584 0)
(162.8 -24.536 1.96613e-16)
(158.795 -23.282 0)
(156.463 -23.8428 0)
(151.979 -22.2016 0)
(150.699 -23.125 0)
(144.875 -20.4831 -1.45638e-16)
(100.024 1.75471 -8.6725e-17)
(100.577 4.91997 -8.23084e-17)
(101.601 7.85215 0)
(103.024 10.2451 0)
(104.683 12.2831 0)
(106.595 13.96 0)
(108.56 15.6185 0)
(110.541 17.4435 0)
(112.367 19.5485 6.36923e-17)
(114.012 21.8573 1.32875e-16)
(115.435 24.2078 1.40115e-16)
(116.676 26.4406 0)
(117.81 28.401 0)
(118.914 30.0179 -1.5315e-21)
(120.155 31.1971 0)
(121.661 31.9235 -8.82356e-17)
(123.698 32.1481 0)
(126.302 32.0195 -8.48258e-17)
(129.5 31.7028 0)
(132.914 31.5183 7.44053e-17)
(136.483 31.5024 -3.19115e-21)
(139.956 31.7613 0)
(143.616 32.0954 -5.96428e-17)
(147.245 32.6288 5.61671e-17)
(151.222 33.1282 0)
(155.159 33.8399 -5.06366e-17)
(159.565 34.4481 -4.83133e-17)
(163.859 35.3305 -4.58368e-17)
(168.781 36.0294 0)
(173.475 37.1009 4.13736e-17)
(179.027 37.8838 2.96137e-21)
(184.177 39.1818 -3.72029e-17)
(190.517 40.0437 3.55943e-17)
(196.193 41.6212 6.65954e-17)
(203.535 42.558 3.19516e-17)
(209.816 44.4869 0)
(218.452 45.4932 0)
(225.423 47.8631 0)
(235.747 48.9326 0)
(243.505 51.8539 -6.01089e-21)
(256.046 53.0006 -2.17532e-17)
(264.638 56.6709 1.81928e-17)
(280.049 58.0915 -1.82571e-17)
(289.496 62.9163 0)
(308.859 65.0366 3.26259e-21)
(319.612 71.3037 9.90065e-18)
(345.099 74.3355 0)
(358.798 81.2749 0)
(394.36 84.7115 0)
(413.795 89.5507 0)
(463.143 93.7432 5.40932e-18)
(491.136 86.1229 0)
(556.219 89.3312 -7.57793e-22)
(602.837 3.44169 0)
(558.963 -42.6279 0)
(542.491 -56.1959 0)
(505.609 -62.5172 0)
(489.822 -61.0549 5.06661e-21)
(460.959 -62.5032 7.33438e-18)
(447.454 -60.7983 -4.13396e-18)
(424.159 -61.3723 -1.61105e-17)
(410.951 -58.518 -8.4432e-18)
(390.375 -57.1764 -2.66881e-17)
(377.025 -53.4169 -4.71121e-17)
(359.191 -51.4477 0)
(346.928 -48.1112 1.47632e-20)
(332.103 -46.3683 -6.09005e-17)
(321.275 -43.7048 0)
(308.888 -42.2229 -8.52859e-17)
(299.24 -40.1276 0)
(288.687 -38.9392 -2.27015e-16)
(280.06 -37.3974 1.50799e-20)
(271.012 -36.558 1.45058e-16)
(263.358 -35.5209 0)
(255.583 -34.9815 0)
(248.808 -34.3072 -1.94297e-16)
(242.046 -33.9381 -2.11113e-16)
(235.981 -33.4539 -2.24844e-16)
(229.97 -33.1101 0)
(224.444 -32.6678 -2.46549e-16)
(218.963 -32.2331 0)
(213.824 -31.7344 0)
(208.702 -31.1437 -2.52159e-16)
(203.847 -30.5601 0)
(198.982 -29.8069 0)
(194.381 -29.1801 -2.32686e-16)
(189.75 -28.3069 0)
(185.443 -27.7316 2.17906e-16)
(181.064 -26.7981 4.22913e-16)
(177.126 -26.3872 0)
(172.998 -25.4182 2.00819e-16)
(169.503 -25.2684 -1.96091e-16)
(165.55 -24.2198 0)
(162.574 -24.4027 0)
(158.582 -23.1528 0)
(156.269 -23.7147 0)
(151.799 -22.0805 -1.587e-16)
(150.527 -22.994 -1.48322e-16)
(144.741 -20.3621 0)
(100.023 1.73962 8.67794e-17)
(100.57 4.88045 8.23751e-17)
(101.585 7.79024 0)
(102.995 10.1669 0)
(104.643 12.1922 -6.74483e-17)
(106.542 13.861 6.39341e-17)
(108.494 15.5167 -6.21863e-17)
(110.464 17.3442 0)
(112.28 19.456 -6.36387e-17)
(113.92 21.7737 -6.63575e-17)
(115.341 24.1334 -6.99533e-17)
(116.585 26.3736 7.41578e-17)
(117.728 28.3391 0)
(118.846 29.9574 -8.28434e-17)
(120.109 31.1334 0)
(121.646 31.8509 0)
(123.72 32.0626 -8.71641e-17)
(126.358 31.9209 0)
(129.578 31.5958 0)
(132.999 31.4089 0)
(136.566 31.3941 -1.35896e-16)
(140.035 31.6538 0)
(143.694 31.9875 5.89587e-17)
(147.324 32.519 -5.55688e-17)
(151.302 33.0164 0)
(155.241 33.7252 0)
(159.649 34.3311 4.79184e-17)
(163.945 35.2101 0)
(168.869 35.9067 0)
(173.565 36.9743 -3.75744e-21)
(179.119 37.7547 7.85898e-17)
(184.272 39.0479 3.99214e-21)
(190.614 39.9071 -3.54241e-17)
(196.294 41.4787 -3.31448e-17)
(203.638 42.4127 -2.89695e-21)
(209.923 44.3341 -2.94456e-17)
(218.561 45.3374 0)
(225.535 47.698 0)
(235.861 48.7644 0)
(243.622 51.6742 -2.20866e-17)
(256.163 52.818 2.16302e-17)
(264.759 56.4747 -1.80864e-17)
(280.168 57.8933 1.81369e-17)
(289.626 62.702 0)
(308.993 64.8197 3.19159e-21)
(319.779 71.0659 0)
(345.288 74.0896 0)
(359.048 80.9989 -5.21025e-18)
(394.62 84.413 -9.46162e-18)
(414.085 89.2115 0)
(463.343 93.3557 -7.0354e-21)
(491.32 85.6977 0)
(556.129 88.7947 1.14072e-18)
(602.598 3.43344 1.17186e-18)
(559.06 -42.3821 0)
(542.712 -55.9721 0)
(505.851 -62.2941 0)
(490.022 -60.8439 -1.36176e-17)
(461.074 -62.2904 -7.23263e-18)
(447.449 -60.5799 -4.08849e-18)
(424.007 -61.1348 1.58749e-17)
(410.662 -58.26 8.30672e-18)
(389.969 -56.901 2.63529e-17)
(376.549 -53.1338 1.24791e-20)
(358.673 -51.1659 4.08827e-17)
(346.403 -47.8357 4.25593e-17)
(331.581 -46.1034 6.0522e-17)
(320.768 -43.4485 0)
(308.396 -41.9776 0)
(298.769 -39.8897 0)
(288.235 -38.7118 2.26265e-16)
(279.631 -37.1777 1.25508e-16)
(270.607 -36.3493 -1.44594e-16)
(262.981 -35.3206 0)
(255.233 -34.7919 0)
(248.487 -34.1258 0)
(241.751 -33.7656 4.18117e-16)
(235.709 -33.2876 0)
(229.715 -32.9497 -2.33199e-16)
(224.198 -32.5106 2.40517e-16)
(218.718 -32.0778 0)
(213.574 -31.5793 -2.44416e-16)
(208.44 -30.9876 3.51335e-21)
(203.572 -30.403 0)
(198.696 -29.6483 2.27303e-16)
(194.088 -29.0217 -2.19456e-16)
(189.453 -28.1485 0)
(185.15 -27.5759 0)
(180.777 -26.6445 -1.99012e-16)
(176.853 -26.2386 1.94009e-16)