/*--------------------------------*- C++ -*----------------------------------*\
| =========                 |                                                 |
| \\      /  F ield         | OpenFOAM: The Open Source CFD Toolbox           |
|  \\    /   O peration     | Version:  2412                                  |
|   \\  /    A nd           | Website:  www.openfoam.com                      |
|    \\/     M anipulation  |                                                 |
\*---------------------------------------------------------------------------*/
FoamFile
{
    version     2.0;
    format      ascii;
    arch        "LSB;label=32;scalar=64";
    class       volScalarField;
    location    "0.5";
    object      epsilon;
}
// * * * * * * * * * * * * * * * * * * * * * * * * * * * * * * * * * * * * * //

dimensions      [0 2 -3 0 0 0 0];

internalField   nonuniform List<scalar> 
13068
(
382.422
401.015
451.099
553.694
709.697
885.17
1035.62
1136.99
1186.67
1187.96
1150.16
1094.08
1042.11
1006.93
989.204
985.534
991.408
1004.76
1023.21
1046.94
1074.46
1107.31
1143.89
1186.97
1234.18
1289.99
1350.55
1423.01
1500.97
1595.97
1697.27
1823.89
1957.62
2130.29
2310.84
2554.06
2807.53
3167.35
3547.2
4118.47
4734.34
5684.76
6685.55
8177.73
9577.91
11483.9
12935.8
15012.1
16851
19316.8
21483.3
18961
19375.5
12339.9
8451.35
7552.76
8420.16
8536.81
8365.73
7350.94
6542.24
5605.9
4991.81
4347.25
3905.18
3462.61
3167.27
2891.6
2712.56
2545.53
2433.36
2321.2
2233.31
2137.51
2049.31
1951.23
1853.44
1749.5
1647.99
1549.08
1457.78
1375.55
1303.08
1241.5
1187.65
1142.72
1101.21
1065.95
1030.15
999.124
964.86
935.234
900.91
871.626
837.661
808.344
776.76
750.398
711.919
382.324
400.627
450.03
551.454
706.099
880.685
1031.15
1133.31
1184.11
1186.52
1149.76
1094.6
1043.31
1008.5
990.878
987.178
992.962
1006.21
1024.57
1048.24
1075.71
1108.54
1145.1
1188.2
1235.43
1291.28
1351.91
1424.45
1502.49
1597.61
1699.03
1825.82
1959.74
2132.65
2313.51
2557.13
2811.09
3171.55
3552.14
4124.23
4740.86
5691.86
6692.98
8185.09
9585.49
11492
12946.5
15022.9
16860.1
19305.4
21447.7
18893.5
19232.4
12222
8375.44
7502.88
8381.77
8509.75
8348.59
7342.36
6539.27
5606
4993.14
4349.09
3907.38
3465.08
3169.91
2894.16
2714.89
2547.55
2435.02
2322.52
2234.34
2138.31
2049.97
1951.82
1854.04
1750.17
1648.75
1549.94
1458.72
1376.52
1304.03
1242.39
1188.44
1143.38
1101.74
1066.32
1030.37
999.173
964.747
934.921
900.407
870.864
836.654
807.006
775.087
748.317
709.642
382.226
400.242
448.97
549.229
702.525
876.231
1026.72
1129.68
1181.6
1185.11
1149.4
1095.16
1044.53
1010.07
992.559
988.827
994.522
1007.67
1025.94
1049.54
1076.96
1109.77
1146.32
1189.43
1236.69
1292.59
1353.26
1425.88
1504.02
1599.25
1700.8
1827.76
1961.86
2135.02
2316.17
2560.2
2814.66
3175.76
3557.08
4129.99
4747.38
5698.98
6700.43
8192.49
9593.13
11500.1
12957.3
15033.8
16869.1
19293.9
21412.2
18826.2
19089.6
12104.9
8300.53
7453.27
8342.93
8481.98
8330.77
7333.27
6535.97
5605.88
4994.33
4350.8
3909.48
3467.49
3172.49
2896.69
2717.21
2549.54
2436.67
2323.83
2235.37
2139.12
2050.63
1952.42
1854.65
1750.84
1649.52
1550.8
1459.65
1377.48
1304.98
1243.28
1189.24
1144.06
1102.27
1066.69
1030.59
999.229
964.64
934.616
899.913
870.114
835.659
805.685
773.437
746.265
707.397
382.13
399.862
447.921
547.024
698.981
871.813
1022.33
1126.09
1179.12
1183.75
1149.07
1095.73
1045.76
1011.64
994.239
990.475
996.079
1009.13
1027.31
1050.84
1078.21
1110.99
1147.54
1190.66
1237.94
1293.89
1354.62
1427.32
1505.54
1600.88
1702.56
1829.68
1963.97
2137.38
2318.83
2563.26
2818.21
3179.94
3561.99
4135.72
4753.85
5706.04
6707.83
8199.83
9600.71
11508.2
12967.9
15044.4
16877.8
19282.3
21376.4
18758.9
18946.9
11988.6
8226.36
7403.72
8303.49
8453.38
8312.18
7323.6
6532.26
5605.47
4995.3
4352.36
3911.46
3469.79
3174.98
2899.15
2719.47
2551.5
2438.29
2325.12
2236.38
2139.9
2051.27
1953
1855.24
1751.51
1650.28
1551.66
1460.57
1378.44
1305.92
1244.16
1190.02
1144.72
1102.8
1067.07
1030.82
999.284
964.534
934.314
899.422
869.369
834.673
804.377
771.802
744.236
705.18
382.035
399.487
446.884
544.84
695.467
867.432
1017.97
1122.54
1176.68
1182.41
1148.75
1096.32
1046.99
1013.22
995.915
992.117
997.631
1010.58
1028.67
1052.13
1079.46
1112.21
1148.75
1191.88
1239.19
1295.18
1355.97
1428.74
1507.05
1602.51
1704.32
1831.6
1966.07
2139.72
2321.47
2566.29
2821.73
3184.1
3566.86
4141.4
4760.27
5713.04
6715.15
8207.1
9608.2
11516.1
12978.3
15054.8
16886.1
19270.3
21340.3
18691.4
18804.3
11872.6
8152.73
7354.08
8263.36
8423.88
8292.78
7313.31
6528.11
5604.75
4996.03
4353.72
3913.28
3471.96
3177.38
2901.53
2721.68
2553.41
2439.87
2326.37
2237.35
2140.66
2051.89
1953.56
1855.82
1752.15
1651.02
1552.49
1461.48
1379.38
1306.85
1245.03
1190.8
1145.37
1103.31
1067.44
1031.03
999.335
964.426
934.01
898.932
868.627
833.691
803.077
770.182
742.227
702.988
381.941
399.116
445.857
542.678
691.984
863.089
1013.66
1119.02
1174.28
1181.1
1148.46
1096.91
1048.23
1014.79
997.585
993.753
999.177
1012.03
1030.03
1053.42
1080.7
1113.43
1149.96
1193.1
1240.43
1296.46
1357.31
1430.16
1508.55
1604.12
1706.05
1833.49
1968.15
2142.05
2324.08
2569.3
2825.22
3188.21
3571.68
4147.02
4766.62
5719.96
6722.39
8214.27
9615.57
11523.9
12988.6
15064.9
16894
19257.9
21303.8
18623.7
18661.6
11757
8079.51
7304.24
8222.47
8393.46
8272.54
7302.38
6523.5
5603.71
4996.52
4354.89
3914.93
3474
3179.67
2903.83
2723.81
2555.27
2441.4
2327.57
2238.28
2141.38
2052.48
1954.09
1856.37
1752.77
1651.74
1553.3
1462.36
1380.3
1307.75
1245.88
1191.56
1146.02
1103.82
1067.8
1031.24
999.382
964.314
933.704
898.441
867.886
832.713
801.785
768.574
740.238
700.82
381.849
398.75
444.843
540.538
688.533
858.784
1009.39
1115.55
1171.91
1179.82
1148.18
1097.51
1049.46
1016.36
999.249
995.382
1000.72
1013.47
1031.38
1054.71
1081.94
1114.64
1151.16
1194.31
1241.66
1297.74
1358.64
1431.56
1510.04
1605.72
1707.78
1835.38
1970.21
2144.35
2326.67
2572.28
2828.67
3192.28
3576.45
4152.57
4772.89
5726.79
6729.52
8221.32
9622.82
11531.5
12998.6
15074.7
16901.5
19245.1
21266.9
18555.8
18518.9
11641.7
8006.55
7254.08
8180.75
8362.1
8251.47
7290.82
6518.44
5602.35
4996.76
4355.86
3916.43
3475.91
3181.86
2906.04
2725.89
2557.07
2442.88
2328.74
2239.17
2142.06
2053.03
1954.59
1856.9
1753.37
1652.44
1554.09
1463.23
1381.2
1308.64
1246.72
1192.31
1146.65
1104.32
1068.15
1031.45
999.423
964.198
933.396
897.949
867.146
831.738
800.5
766.977
738.266
698.673
381.758
398.388
443.84
538.419
685.113
854.517
1005.16
1112.12
1169.57
1178.56
1147.92
1098.13
1050.69
1017.92
1000.91
997.004
1002.25
1014.9
1032.72
1055.98
1083.16
1115.84
1152.35
1195.51
1242.89
1299
1359.95
1432.95
1511.52
1607.31
1709.48
1837.24
1972.25
2146.62
2329.23
2575.22
2832.09
3196.31
3581.17
4158.06
4779.08
5733.53
6736.56
8228.27
9629.93
11539
13008.4
15084.1
16908.6
19232
21229.7
18487.7
18376
11526.6
7933.75
7203.5
8138.17
8329.78
8229.58
7278.64
6512.93
5600.66
4996.75
4356.64
3917.76
3477.69
3183.93
2908.17
2727.89
2558.81
2444.32
2329.86
2240.03
2142.71
2053.56
1955.07
1857.4
1753.95
1653.11
1554.86
1464.07
1382.08
1309.52
1247.54
1193.04
1147.27
1104.8
1068.49
1031.64
999.457
964.077
933.084
897.454
866.406
830.766
799.222
765.391
736.313
696.549
381.668
398.031
442.848
536.322
681.725
850.288
1000.98
1108.73
1167.28
1177.33
1147.69
1098.75
1051.93
1019.47
1002.56
998.619
1003.77
1016.32
1034.06
1057.25
1084.38
1117.03
1153.53
1196.7
1244.1
1300.26
1361.26
1434.33
1512.98
1608.88
1711.17
1839.08
1974.26
2148.88
2331.76
2578.14
2835.46
3200.29
3585.83
4163.48
4785.2
5740.18
6743.49
8235.1
9636.91
11546.3
13017.9
15093.3
16915.3
19218.5
21192.1
18419.6
18233.1
11411.5
7860.99
7152.43
8094.69
8296.51
8206.87
7265.85
6506.98
5598.66
4996.5
4357.22
3918.94
3479.34
3185.9
2910.22
2729.82
2560.49
2445.7
2330.93
2240.84
2143.33
2054.05
1955.52
1857.88
1754.5
1653.76
1555.6
1464.89
1382.93
1310.37
1248.35
1193.76
1147.87
1105.28
1068.82
1031.83
999.486
963.952
932.768
896.958
865.667
829.797
797.949
763.816
734.375
694.446
381.579
397.679
441.868
534.246
678.368
846.097
996.829
1105.38
1165.01
1176.13
1147.46
1099.37
1053.16
1021.03
1004.2
1000.23
1005.29
1017.74
1035.39
1058.51
1085.59
1118.21
1154.71
1197.88
1245.31
1301.5
1362.56
1435.7
1514.43
1610.44
1712.84
1840.91
1976.26
2151.1
2334.27
2581.02
2838.8
3204.22
3590.44
4168.84
4791.23
5746.74
6750.31
8241.81
9643.75
11553.5
13027.2
15102.2
16921.6
19204.7
21154.2
18351.2
18090.2
11296.5
7788.17
7100.79
8050.28
8262.28
8183.35
7252.46
6500.61
5596.35
4996.02
4357.62
3919.95
3480.85
3187.76
2912.18
2731.68
2562.12
2447.03
2331.96
2241.61
2143.91
2054.52
1955.94
1858.33
1755.03
1654.39
1556.33
1465.69
1383.77
1311.2
1249.13
1194.46
1148.47
1105.75
1069.14
1032.01
999.509
963.821
932.449
896.46
864.927
828.829
796.683
762.251
732.454
692.362
381.492
397.331
440.899
532.191
675.041
841.943
992.724
1102.07
1162.78
1174.96
1147.26
1100.01
1054.4
1022.57
1005.84
1001.82
1006.8
1019.15
1036.71
1059.76
1086.8
1119.39
1155.87
1199.06
1246.5
1302.74
1363.84
1437.05
1515.86
1611.98
1714.5
1842.71
1978.23
2153.31
2336.74
2583.87
2842.1
3208.11
3594.99
4174.13
4797.19
5753.2
6757.03
8248.4
9650.45
11560.5
13036.3
15110.7
16927.4
19190.5
21116
18282.9
17947.2
11181.6
7715.21
7048.5
8004.9
8227.09
8159.05
7238.48
6493.81
5593.73
4995.3
4357.83
3920.81
3482.24
3189.52
2914.05
2733.48
2563.69
2448.32
2332.94
2242.34
2144.45
2054.95
1956.33
1858.75
1755.53
1654.99
1557.02
1466.46
1384.59
1312.02
1249.9
1195.15
1149.05
1106.2
1069.46
1032.18
999.525
963.685
932.127
895.959
864.188
827.863
795.422
760.695
730.549
690.299
381.405
396.987
439.941
530.157
671.746
837.828
988.659
1098.8
1160.59
1173.81
1147.07
1100.65
1055.63
1024.12
1007.47
1003.42
1008.3
1020.55
1038.03
1061.01
1088
1120.56
1157.03
1200.22
1247.68
1303.96
1365.11
1438.39
1517.28
1613.5
1716.14
1844.5
1980.19
2155.48
2339.19
2586.68
2845.36
3211.94
3599.48
4179.34
4803.06
5759.56
6763.64
8254.88
9657.01
11567.3
13045.1
15118.9
16932.8
19175.9
21077.5
18214.4
17804.2
11066.6
7642.02
6995.5
7958.54
8190.96
8133.97
7223.94
6486.61
5590.82
4994.35
4357.85
3921.51
3483.5
3191.18
2915.84
2735.2
2565.21
2449.55
2333.88
2243.03
2144.95
2055.35
1956.69
1859.15
1756
1655.57
1557.7
1467.21
1385.38
1312.81
1250.66
1195.83
1149.61
1106.64
1069.76
1032.35
999.534
963.544
931.8
895.455
863.447
826.899
794.167
759.149
728.658
688.254
381.32
396.648
438.995
528.144
668.481
833.749
984.634
1095.57
1158.43
1172.69
1146.9
1101.3
1056.87
1025.65
1009.09
1005
1009.79
1021.95
1039.33
1062.25
1089.18
1121.72
1158.18
1201.38
1248.86
1305.17
1366.37
1439.72
1518.69
1615.01
1717.76
1846.26
1982.11
2157.63
2341.61
2589.46
2848.58
3215.73
3603.91
4184.49
4808.84
5765.83
6770.13
8261.22
9663.43
11573.9
13053.7
15126.9
16937.9
19161.1
21038.7
18145.9
17661.2
10951.5
7568.55
6941.74
7911.18
8153.9
8108.15
7208.84
6479.02
5587.63
4993.18
4357.7
3922.07
3484.64
3192.73
2917.55
2736.86
2566.66
2450.74
2334.78
2243.69
2145.42
2055.71
1957.03
1859.52
1756.46
1656.12
1558.35
1467.94
1386.15
1313.59
1251.39
1196.48
1150.16
1107.07
1070.06
1032.5
999.537
963.398
931.47
894.949
862.706
825.936
792.916
757.611
726.782
686.227
381.236
396.313
438.059
526.153
665.247
829.709
980.651
1092.38
1156.3
1171.59
1146.75
1101.96
1058.1
1027.18
1010.7
1006.57
1011.28
1023.34
1040.63
1063.48
1090.36
1122.87
1159.32
1202.52
1250.02
1306.38
1367.62
1441.04
1520.08
1616.5
1719.36
1848.01
1984.02
2159.76
2343.99
2592.21
2851.76
3219.47
3608.28
4189.56
4814.54
5772
6776.52
8267.45
9669.7
11580.4
13062.1
15134.5
16942.6
19146
20999.7
18077.4
17518.3
10836.4
7494.71
6887.17
7862.82
8115.92
8081.6
7193.22
6471.05
5584.16
4991.8
4357.37
3922.49
3485.66
3194.18
2919.17
2738.45
2568.06
2451.87
2335.63
2244.3
2145.86
2056.05
1957.34
1859.87
1756.88
1656.65
1558.97
1468.65
1386.9
1314.34
1252.11
1197.12
1150.7
1107.49
1070.34
1032.65
999.533
963.246
931.135
894.441
861.965
824.974
791.67
756.082
724.92
684.218
381.154
395.983
437.135
524.181
662.044
825.705
976.708
1089.23
1154.21
1170.53
1146.62
1102.63
1059.33
1028.71
1012.31
1008.14
1012.75
1024.71
1041.92
1064.7
1091.54
1124.02
1160.45
1203.66
1251.18
1307.57
1368.86
1442.34
1521.46
1617.98
1720.94
1849.73
1985.9
2161.86
2346.35
2594.92
2854.9
3223.16
3612.59
4194.56
4820.16
5778.07
6782.79
8273.54
9675.83
11586.7
13070.2
15141.8
16946.9
19130.5
20960.5
18009
17375.5
10721.3
7420.46
6831.74
7813.45
8077.04
8054.36
7177.09
6462.72
5580.41
4990.21
4356.88
3922.76
3486.56
3195.53
2920.71
2739.97
2569.41
2452.96
2336.44
2244.87
2146.26
2056.35
1957.61
1860.19
1757.28
1657.15
1559.58
1469.33
1387.63
1315.08
1252.81
1197.75
1151.23
1107.9
1070.62
1032.79
999.523
963.089
930.797
893.929
861.222
824.013
790.428
754.561
723.071
682.226
381.072
395.657
436.221
522.231
658.871
821.739
972.806
1086.11
1152.15
1169.48
1146.5
1103.3
1060.56
1030.23
1013.91
1009.7
1014.22
1026.08
1043.2
1065.91
1092.7
1125.15
1161.57
1204.79
1252.32
1308.75
1370.08
1443.63
1522.82
1619.44
1722.51
1851.44
1987.76
2163.93
2348.67
2597.59
2857.99
3226.8
3616.85
4199.49
4825.69
5784.03
6788.95
8279.51
9681.81
11592.8
13078.1
15148.9
16950.8
19114.9
20921.1
17940.6
17232.9
10606
7345.75
6775.42
7763.08
8037.3
8026.45
7160.48
6454.04
5576.42
4988.42
4356.22
3922.89
3487.34
3196.78
2922.18
2741.43
2570.7
2454
2337.2
2245.41
2146.63
2056.63
1957.86
1860.48
1757.66
1657.63
1560.16
1469.99
1388.34
1315.79
1253.49
1198.36
1151.74
1108.3
1070.89
1032.93
999.506
962.926
930.454
893.414
860.479
823.054
789.191
753.047
721.236
680.25
380.992
395.335
435.318
520.301
655.728
817.81
968.944
1083.04
1150.12
1168.47
1146.4
1103.98
1061.79
1031.74
1015.5
1011.25
1015.68
1027.45
1044.48
1067.12
1093.85
1126.28
1162.68
1205.9
1253.45
1309.91
1371.29
1444.9
1524.16
1620.88
1724.05
1853.12
1989.6
2165.97
2350.96
2600.23
2861.05
3230.39
3621.03
4204.34
4831.13
5789.9
6794.99
8285.36
9687.65
11598.8
13085.8
15155.6
16954.4
19098.9
20881.5
17872.3
17090.5
10490.7
7270.54
6718.18
7711.71
7996.71
7997.9
7143.41
6445.03
5572.17
4986.44
4355.41
3922.89
3488.02
3197.94
2923.56
2742.82
2571.93
2454.99
2337.93
2245.91
2146.96
2056.87
1958.09
1860.75
1758.01
1658.09
1560.71
1470.63
1389.03
1316.49
1254.15
1198.96
1152.24
1108.68
1071.14
1033.05
999.482
962.758
930.107
892.897
859.734
822.095
787.957
751.541
719.413
678.291
380.912
395.017
434.426
518.391
652.615
813.918
965.122
1080
1148.13
1167.48
1146.31
1104.67
1063.02
1033.25
1017.08
1012.79
1017.13
1028.8
1045.74
1068.31
1095
1127.39
1163.78
1207.01
1254.58
1311.07
1372.49
1446.16
1525.5
1622.3
1725.58
1854.78
1991.41
2167.98
2353.23
2602.83
2864.05
3233.93
3625.16
4209.12
4836.48
5795.67
6800.92
8291.08
9693.34
11604.6
13093.2
15162.1
16957.6
19082.7
20841.8
17804.2
16948.4
10375.3
7194.8
6660.01
7659.36
7955.3
7968.74
7125.9
6435.7
5567.7
4984.27
4354.45
3922.77
3488.58
3199.01
2924.87
2744.15
2573.11
2455.93
2338.61
2246.37
2147.26
2057.08
1958.28
1860.99
1758.34
1658.52
1561.24
1471.24
1389.69
1317.17
1254.8
1199.54
1152.73
1109.06
1071.39
1033.17
999.451
962.584
929.755
892.376
858.989
821.136
786.728
750.042
717.602
676.347
380.834
394.703
433.544
516.502
649.532
810.063
961.34
1077.01
1146.18
1166.51
1146.25
1105.36
1064.25
1034.75
1018.65
1014.32
1018.58
1030.15
1047
1069.5
1096.14
1128.5
1164.88
1208.11
1255.69
1312.21
1373.67
1447.41
1526.81
1623.71
1727.08
1856.42
1993.19
2169.97
2355.46
2605.39
2867.02
3237.42
3629.23
4213.83
4841.75
5801.33
6806.73
8296.67
9698.89
11610.2
13100.4
15168.3
16960.5
19066.3
20801.9
17736.2
16806.7
10259.9
7118.51
6600.89
7606.04
7913.13
7939.01
7107.98
6426.08
5562.99
4981.92
4353.34
3922.52
3489.04
3199.99
2926.1
2745.42
2574.24
2456.83
2339.25
2246.8
2147.53
2057.27
1958.45
1861.21
1758.65
1658.93
1561.75
1471.83
1390.34
1317.82
1255.43
1200.1
1153.2
1109.42
1071.63
1033.28
999.414
962.404
929.4
891.852
858.242
820.179
785.502
748.551
715.803
674.418
380.757
394.393
432.673
514.632
646.48
806.245
957.598
1074.05
1144.25
1165.57
1146.19
1106.06
1065.48
1036.25
1020.22
1015.85
1020.01
1031.48
1048.25
1070.68
1097.27
1129.6
1165.96
1209.19
1256.79
1313.34
1374.85
1448.64
1528.11
1625.1
1728.57
1858.04
1994.95
2171.93
2357.65
2607.92
2869.94
3240.85
3633.23
4218.45
4846.92
5806.89
6812.43
8302.13
9704.3
11615.6
13107.4
15174.3
16963.1
19049.7
20762
17668.5
16665.4
10144.5
7041.64
6540.81
7551.79
7870.21
7908.75
7089.68
6416.18
5558.08
4979.41
4352.1
3922.16
3489.4
3200.89
2927.26
2746.63
2575.32
2457.69
2339.86
2247.19
2147.77
2057.42
1958.6
1861.41
1758.93
1659.32
1562.24
1472.4
1390.96
1318.46
1256.04
1200.65
1153.66
1109.77
1071.85
1033.38
999.37
962.22
929.04
891.326
857.494
819.221
784.28
747.066
714.016
672.503
380.681
394.088
431.812
512.783
643.457
802.463
953.897
1071.13
1142.36
1164.66
1146.16
1106.77
1066.7
1037.74
1021.77
1017.36
1021.43
1032.81
1049.49
1071.85
1098.39
1130.69
1167.03
1210.27
1257.88
1314.46
1376.01
1449.86
1529.39
1626.47
1730.04
1859.63
1996.69
2173.86
2359.82
2610.41
2872.82
3244.23
3637.17
4223.01
4852.01
5812.35
6818.02
8307.47
9709.56
11620.9
13114.2
15179.9
16965.3
19033
20722.1
17601
16524.6
10029.1
6964.21
6479.79
7496.63
7826.59
7877.98
7071.02
6406.02
5552.97
4976.74
4350.72
3921.68
3489.66
3201.7
2928.36
2747.77
2576.34
2458.5
2340.42
2247.54
2147.97
2057.55
1958.71
1861.57
1759.18
1659.68
1562.7
1472.95
1391.56
1319.08
1256.63
1201.19
1154.11
1110.11
1072.07
1033.47
999.319
962.029
928.677
890.796
856.745
818.265
783.061
745.588
712.24
670.603
380.606
393.786
430.962
510.954
640.463
798.719
950.235
1068.25
1140.5
1163.77
1146.14
1107.48
1067.92
1039.22
1023.32
1018.86
1022.85
1034.13
1050.72
1073.01
1099.5
1131.77
1168.1
1211.33
1258.96
1315.57
1377.15
1451.06
1530.66
1627.83
1731.49
1861.2
1998.4
2175.77
2361.95
2612.86
2875.66
3247.56
3641.05
4227.49
4857.02
5817.71
6823.49
8312.69
9714.69
11626.1
13120.8
15185.4
16967.3
19016
20682.1
17533.8
16384.3
9913.79
6886.19
6417.81
7440.59
7782.31
7846.76
7052.04
6395.63
5547.67
4973.92
4349.23
3921.1
3489.84
3202.43
2929.38
2748.86
2577.32
2459.27
2340.95
2247.87
2148.15
2057.66
1958.81
1861.72
1759.42
1660.02
1563.14
1473.47
1392.14
1319.68
1257.21
1201.71
1154.54
1110.44
1072.28
1033.55
999.262
961.834
928.309
890.264
855.995
817.308
781.846
744.116
710.475
668.717
380.532
393.489
430.122
509.144
637.5
795.011
946.612
1065.41
1138.67
1162.9
1146.13
1108.2
1069.15
1040.7
1024.86
1020.36
1024.25
1035.44
1051.94
1074.17
1100.6
1132.84
1169.15
1212.39
1260.02
1316.67
1378.28
1452.25
1531.91
1629.16
1732.92
1862.75
2000.08
2177.64
2364.05
2615.28
2878.45
3250.84
3644.87
4231.89
4861.93
5822.96
6828.85
8317.78
9719.67
11631.1
13127.2
15190.6
16968.9
18998.9
20642.1
17467
16244.7
9798.59
6807.61
6354.92
7383.72
7737.43
7815.12
7032.76
6385.01
5542.2
4970.96
4347.61
3920.41
3489.92
3203.09
2930.34
2749.89
2578.25
2460
2341.44
2248.16
2148.3
2057.73
1958.88
1861.84
1759.63
1660.34
1563.56
1473.98
1392.71
1320.26
1257.77
1202.22
1154.97
1110.76
1072.48
1033.63
999.199
961.633
927.937
889.728
855.243
816.353
780.635
742.651
708.721
666.844
380.459
393.195
429.292
507.355
634.566
791.339
943.029
1062.6
1136.87
1162.06
1146.14
1108.92
1070.36
1042.17
1026.39
1021.85
1025.65
1036.74
1053.15
1075.31
1101.69
1133.9
1170.19
1213.43
1261.08
1317.75
1379.4
1453.42
1533.15
1630.48
1734.33
1864.28
2001.75
2179.49
2366.12
2617.65
2881.2
3254.06
3648.62
4236.23
4866.76
5828.12
6834.09
8322.75
9724.52
11635.9
13133.4
15195.5
16970.3
18981.7
20602.2
17400.5
16105.8
9683.56
6728.47
6291.11
7326.06
7691.99
7783.1
7013.22
6374.19
5536.57
4967.87
4345.89
3919.64
3489.92
3203.67
2931.23
2750.87
2579.13
2460.68
2341.9
2248.42
2148.42
2057.79
1958.92
1861.94
1759.82
1660.64
1563.96
1474.46
1393.25
1320.83
1258.32
1202.71
1155.37
1111.07
1072.67
1033.7
999.129
961.427
927.561
889.19
854.491
815.398
779.426
741.192
706.977
664.984
380.387
392.905
428.473
505.585
631.662
787.705
939.486
1059.83
1135.11
1161.24
1146.16
1109.65
1071.58
1043.63
1027.91
1023.32
1027.04
1038.03
1054.35
1076.44
1102.78
1134.95
1171.23
1214.47
1262.12
1318.82
1380.51
1454.58
1534.37
1631.78
1735.72
1865.79
2003.38
2181.3
2368.16
2619.99
2883.9
3257.24
3652.31
4240.48
4871.5
5833.18
6839.23
8327.6
9729.24
11640.5
13139.4
15200.2
16971.5
18964.4
20562.3
17334.4
15967.7
9568.76
6648.79
6226.42
7267.66
7646.03
7750.75
6993.44
6363.2
5530.8
4964.67
4344.07
3918.77
3489.84
3204.18
2932.06
2751.8
2579.97
2461.33
2342.32
2248.65
2148.51
2057.81
1958.95
1862.02
1759.99
1660.91
1564.33
1474.92
1393.77
1321.37
1258.85
1203.18
1155.77
1111.37
1072.86
1033.76
999.054
961.216
927.182
888.649
853.738
814.443
778.221
739.739
705.244
663.138
380.316
392.62
427.663
503.835
628.787
784.106
935.982
1057.1
1133.38
1160.44
1146.2
1110.39
1072.79
1045.08
1029.43
1024.79
1028.41
1039.31
1055.55
1077.57
1103.85
1135.99
1172.25
1215.49
1263.15
1319.88
1381.6
1455.73
1535.57
1633.06
1737.08
1867.27
2004.99
2183.09
2370.17
2622.3
2886.56
3260.36
3655.94
4244.67
4876.15
5838.13
6844.25
8332.32
9733.82
11645.1
13145.2
15204.7
16972.4
18947
20522.5
17268.8
15830.6
9454.23
6568.61
6160.89
7208.57
7599.62
7718.1
6973.45
6352.04
5524.89
4961.35
4342.15
3917.82
3489.69
3204.63
2932.84
2752.68
2580.77
2461.95
2342.71
2248.85
2148.58
2057.82
1958.95
1862.08
1760.14
1661.17
1564.69
1475.37
1394.27
1321.9
1259.36
1203.65
1156.16
1111.66
1073.03
1033.82
998.972
961.001
926.799
888.106
852.984
813.49
777.02
738.292
703.521
661.304
380.246
392.338
426.864
502.104
625.942
780.544
932.517
1054.41
1131.67
1159.67
1146.25
1111.12
1074
1046.53
1030.93
1026.24
1029.78
1040.58
1056.73
1078.68
1104.91
1137.02
1173.26
1216.5
1264.18
1320.92
1382.68
1456.86
1536.76
1634.33
1738.43
1868.73
2006.58
2184.86
2372.14
2624.56
2889.18
3263.43
3659.51
4248.78
4880.72
5842.99
6849.17
8336.94
9738.28
11649.4
13150.8
15209
16973
18929.5
20482.9
17203.6
15694.3
9340.06
6487.94
6094.55
7148.84
7552.8
7685.2
6953.29
6340.75
5518.86
4957.93
4340.15
3916.79
3489.47
3205.01
2933.56
2753.51
2581.52
2462.52
2343.07
2249.03
2148.63
2057.8
1958.93
1862.12
1760.26
1661.4
1565.02
1475.79
1394.76
1322.41
1259.86
1204.1
1156.53
1111.93
1073.19
1033.87
998.885
960.78
926.412
887.56
852.229
812.537
775.822
736.852
701.808
659.483
380.178
392.059
426.074
500.393
623.126
777.019
929.09
1051.75
1130
1158.92
1146.32
1111.87
1075.21
1047.96
1032.42
1027.69
1031.14
1041.84
1057.91
1079.79
1105.97
1138.05
1174.27
1217.5
1265.18
1321.96
1383.75
1457.97
1537.93
1635.58
1739.76
1870.17
2008.14
2186.59
2374.08
2626.79
2891.75
3266.45
3663.02
4252.81
4885.2
5847.76
6853.98
8341.43
9742.61
11653.7
13156.2
15213
16973.4
18912
20443.3
17139
15559.2
9226.3
6406.83
6027.46
7088.54
7505.64
7652.1
6932.98
6329.34
5512.74
4954.42
4338.07
3915.7
3489.18
3205.34
2934.22
2754.29
2582.23
2463.07
2343.41
2249.18
2148.65
2057.76
1958.89
1862.14
1760.37
1661.62
1565.34
1476.19
1395.22
1322.9
1260.34
1204.53
1156.89
1112.2
1073.35
1033.91
998.792
960.555
926.023
887.012
851.474
811.585
774.627
735.418
700.105
657.675
380.11
391.785
425.295
498.701
620.34
773.53
925.703
1049.13
1128.36
1158.2
1146.4
1112.61
1076.41
1049.4
1033.9
1029.13
1032.49
1043.09
1059.07
1080.89
1107.01
1139.06
1175.26
1218.49
1266.18
1322.98
1384.8
1459.07
1539.08
1636.81
1741.07
1871.59
2009.68
2188.29
2375.99
2628.99
2894.29
3269.42
3666.47
4256.78
4889.61
5852.42
6858.68
8345.82
9746.82
11657.8
13161.5
15216.9
16973.6
18894.5
20404
17075
15425.2
9113.02
6325.33
5959.65
7027.72
7458.19
7618.83
6912.55
6317.83
5506.52
4950.84
4335.92
3914.54
3488.83
3205.61
2934.84
2755.03
2582.91
2463.58
2343.71
2249.31
2148.65
2057.71
1958.84
1862.14
1760.46
1661.81
1565.64
1476.58
1395.67
1323.38
1260.81
1204.96
1157.24
1112.46
1073.5
1033.94
998.694
960.326
925.63
886.462
850.718
810.634
773.436
733.991
698.412
655.878
380.043
391.514
424.525
497.028
617.582
770.077
922.355
1046.55
1126.75
1157.49
1146.49
1113.36
1077.61
1050.82
1035.38
1030.55
1033.82
1044.33
1060.23
1081.97
1108.05
1140.06
1176.24
1219.47
1267.17
1323.99
1385.84
1460.16
1540.22
1638.02
1742.36
1872.99
2011.19
2189.97
2377.87
2631.14
2896.78
3272.34
3669.86
4260.67
4893.92
5857
6863.28
8350.09
9750.9
11661.7
13166.6
15220.6
16973.7
18876.9
20364.9
17011.5
15292.4
9000.3
6243.48
5891.19
6966.46
7410.51
7585.45
6892.05
6306.24
5500.22
4947.18
4333.71
3913.32
3488.43
3205.82
2935.41
2755.73
2583.55
2464.06
2343.98
2249.41
2148.63
2057.63
1958.76
1862.12
1760.54
1661.99
1565.91
1476.95
1396.1
1323.84
1261.26
1205.37
1157.58
1112.71
1073.64
1033.97
998.591
960.093
925.234
885.91
849.962
809.684
772.249
732.569
696.729
654.094
379.977
391.247
423.765
495.375
614.854
766.66
919.044
1044
1125.17
1156.81
1146.59
1114.12
1078.81
1052.23
1036.84
1031.97
1035.15
1045.56
1061.37
1083.05
1109.07
1141.05
1177.21
1220.44
1268.14
1324.98
1386.86
1461.23
1541.34
1639.21
1743.63
1874.36
2012.68
2191.62
2379.71
2633.27
2899.23
3275.21
3673.19
4264.5
4898.16
5861.48
6867.78
8354.25
9754.88
11665.6
13171.5
15224.1
16973.5
18859.4
20325.9
16948.7
15160.9
8888.21
6161.33
5822.15
6904.82
7362.65
7552
6871.49
6294.6
5493.86
4943.47
4331.45
3912.05
3487.98
3205.99
2935.94
2756.39
2584.16
2464.51
2344.24
2249.49
2148.59
2057.54
1958.67
1862.09
1760.59
1662.15
1566.18
1477.3
1396.51
1324.29
1261.7
1205.77
1157.91
1112.95
1073.78
1034
998.483
959.856
924.836
885.356
849.206
808.736
771.066
731.155
695.057
652.322
379.912
390.984
423.015
493.741
612.155
763.279
915.773
1041.48
1123.62
1156.15
1146.71
1114.87
1080
1053.64
1038.29
1033.37
1036.46
1046.79
1062.51
1084.12
1110.09
1142.03
1178.17
1221.39
1269.1
1325.97
1387.87
1462.28
1542.45
1640.39
1744.88
1875.71
2014.14
2193.24
2381.53
2635.35
2901.63
3278.03
3676.46
4268.26
4902.32
5865.87
6872.18
8358.32
9758.74
11669.3
13176.3
15227.4
16973.2
18841.8
20287.3
16886.5
15030.8
8776.83
6078.95
5752.57
6842.88
7314.68
7518.52
6850.91
6282.92
5487.46
4939.7
4329.14
3910.74
3487.49
3206.12
2936.43
2757.01
2584.73
2464.93
2344.46
2249.55
2148.53
2057.43
1958.56
1862.04
1760.63
1662.3
1566.42
1477.63
1396.91
1324.72
1262.13
1206.15
1158.23
1113.18
1073.9
1034.01
998.37
959.615
924.435
884.801
848.451
807.789
769.887
729.746
693.394
650.563
379.848
390.724
422.274
492.126
609.486
759.934
912.539
1039.01
1122.09
1155.5
1146.84
1115.63
1081.18
1055.03
1039.73
1034.76
1037.77
1048
1063.64
1085.18
1111.09
1143
1179.12
1222.34
1270.06
1326.94
1388.87
1463.32
1543.54
1641.55
1746.11
1877.04
2015.58
2194.84
2383.31
2637.4
2904
3280.8
3679.68
4271.94
4906.4
5870.17
6876.48
8362.27
9762.49
11672.9
13181
15230.6
16972.7
18824.4
20248.9
16825
14902.1
8666.24
5996.39
5682.54
6780.69
7266.66
7485.06
6830.34
6271.23
5481.01
4935.9
4326.79
3909.39
3486.96
3206.21
2936.87
2757.6
2585.28
2465.33
2344.67
2249.6
2148.46
2057.3
1958.44
1861.98
1760.66
1662.42
1566.65
1477.95
1397.29
1325.14
1262.54
1206.53
1158.54
1113.41
1074.02
1034.02
998.253
959.371
924.032
884.245
847.695
806.845
768.712
728.345
691.742
648.815
379.784
390.468
421.543
490.53
606.845
756.626
909.344
1036.56
1120.6
1154.88
1146.98
1116.39
1082.37
1056.42
1041.16
1036.15
1039.06
1049.2
1064.75
1086.22
1112.09
1143.96
1180.06
1223.27
1270.99
1327.9
1389.86
1464.35
1544.61
1642.69
1747.33
1878.35
2016.99
2196.41
2385.07
2639.42
2906.33
3283.53
3682.84
4275.57
4910.4
5874.39
6880.69
8366.13
9766.13
11676.4
13185.5
15233.6
16972.1
18806.9
20210.8
16764.2
14775
8556.5
5913.72
5612.12
6718.35
7218.65
7451.65
6809.8
6259.54
5474.55
4932.07
4324.4
3908
3486.39
3206.26
2937.29
2758.16
2585.8
2465.7
2344.86
2249.62
2148.37
2057.17
1958.31
1861.9
1760.67
1662.54
1566.86
1478.25
1397.66
1325.54
1262.94
1206.89
1158.84
1113.62
1074.14
1034.03
998.131
959.124
923.626
883.688
846.94
805.902
767.542
726.95
690.099
647.079
379.722
390.215
420.822
488.953
604.233
753.353
906.187
1034.16
1119.13
1154.28
1147.13
1117.16
1083.54
1057.8
1042.58
1037.52
1040.35
1050.39
1065.86
1087.26
1113.07
1144.91
1180.99
1224.2
1271.92
1328.84
1390.83
1465.36
1545.67
1643.81
1748.52
1879.64
2018.38
2197.95
2386.79
2641.4
2908.61
3286.21
3685.94
4279.12
4914.33
5878.52
6884.81
8369.9
9769.68
11679.8
13189.9
15236.5
16971.3
18789.6
20173.1
16704.2
14649.5
8447.71
5831.01
5541.39
6655.92
7170.7
7418.35
6789.33
6247.87
5468.08
4928.22
4322
3906.59
3485.79
3206.28
2937.67
2758.68
2586.29
2466.05
2345.02
2249.63
2148.27
2057.02
1958.16
1861.81
1760.66
1662.64
1567.06
1478.54
1398.01
1325.93
1263.33
1207.25
1159.13
1113.83
1074.25
1034.03
998.006
958.873
923.22
883.129
846.186
804.961
766.376
725.563
688.467
645.356
379.661
389.966
420.11
487.395
601.651
750.116
903.067
1031.78
1117.69
1153.7
1147.29
1117.92
1084.72
1059.17
1043.99
1038.88
1041.62
1051.57
1066.95
1088.29
1114.05
1145.85
1181.91
1225.11
1272.84
1329.77
1391.78
1466.36
1546.71
1644.92
1749.69
1880.9
2019.75
2199.47
2388.49
2643.35
2910.86
3288.84
3688.99
4282.61
4918.18
5882.56
6888.84
8373.57
9773.13
11683.1
13194.1
15239.2
16970.4
18772.4
20135.7
16645
14525.7
8339.94
5748.33
5470.44
6593.47
7122.87
7385.19
6768.96
6236.24
5461.61
4924.36
4319.58
3905.16
3485.16
3206.27
2938.02
2759.18
2586.75
2466.38
2345.18
2249.63
2148.16
2056.85
1958
1861.71
1760.65
1662.72
1567.24
1478.81
1398.35
1326.3
1263.7
1207.59
1159.41
1114.03
1074.35
1034.03
997.878
958.621
922.811
882.571
845.433
804.023
765.215
724.182
686.846
643.645
379.6
389.721
419.407
485.856
599.097
746.915
899.985
1029.45
1116.28
1153.14
1147.47
1118.69
1085.88
1060.53
1045.39
1040.23
1042.88
1052.74
1068.04
1089.3
1115.01
1146.78
1182.82
1226.01
1273.74
1330.7
1392.73
1467.34
1547.74
1646
1750.85
1882.15
2021.1
2200.96
2390.15
2645.26
2913.07
3291.42
3691.98
4286.04
4921.96
5886.53
6892.78
8377.15
9776.49
11686.3
13198.3
15241.8
16969.5
18755.2
20098.7
16586.6
14403.6
8233.26
5665.75
5399.34
6531.09
7075.23
7352.22
6748.7
6224.67
5455.17
4920.5
4317.15
3903.71
3484.52
3206.24
2938.35
2759.66
2587.19
2466.7
2345.31
2249.61
2148.04
2056.68
1957.83
1861.59
1760.62
1662.8
1567.42
1479.07
1398.68
1326.66
1264.07
1207.92
1159.68
1114.23
1074.44
1034.02
997.746
958.365
922.402
882.012
844.682
803.088
764.059
722.809
685.235
641.946
379.541
389.479
418.714
484.336
596.573
743.75
896.941
1027.14
1114.9
1152.6
1147.65
1119.46
1087.05
1061.88
1046.78
1041.57
1044.13
1053.9
1069.11
1090.31
1115.96
1147.7
1183.72
1226.9
1274.63
1331.6
1393.66
1468.31
1548.75