/*--------------------------------*- C++ -*----------------------------------*\
| =========                 |                                                 |
| \\      /  F ield         | OpenFOAM: The Open Source CFD Toolbox           |
|  \\    /   O peration     | Version:  2412                                  |
|   \\  /    A nd           | Website:  www.openfoam.com                      |
|    \\/     M anipulation  |                                                 |
\*---------------------------------------------------------------------------*/
FoamFile
{
    version     2.0;
    format      ascii;
    arch        "LSB;label=32;scalar=64";
    class       volScalarField;
    location    "0.5";
    object      k;
}
// * * * * * * * * * * * * * * * * * * * * * * * * * * * * * * * * * * * * * //

dimensions      [0 2 -2 0 0 0 0];

internalField   nonuniform List<scalar> 
13068
(
37.9772
39.5719
43.1193
48.9927
56.1143
62.3635
66.3171
67.996
68.1101
67.2159
65.7435
64.2455
63.1739
62.6754
62.6185
62.8701
63.3127
63.9289
64.6649
65.5529
66.541
67.6939
68.9423
70.3899
71.9325
73.7295
75.6188
77.846
80.1548
82.9266
85.7559
89.2402
92.7346
97.178
101.551
107.346
112.971
120.8
128.408
139.506
150.319
166.211
180.99
201.779
218.595
240.663
255.026
276.832
294.15
316.716
333.725
302.708
303.906
216.97
169.379
168.196
188.442
192.284
191.619
177.853
167.783
154.05
145.412
134.793
127.783
119.837
114.802
109.499
106.229
102.798
100.583
98.0795
96.1192
93.7881
91.6176
89.0847
86.5448
83.7926
81.1052
78.456
75.9946
73.7495
71.7403
70.0073
68.4446
67.1148
65.8274
64.7142
63.5235
62.4855
61.2824
60.2502
59.0002
57.9504
56.685
55.6109
54.4332
53.46
51.8478
37.9698
39.5442
43.0534
48.8784
55.9653
62.2155
66.2058
67.9382
68.1011
67.2411
65.7902
64.3052
63.239
62.7398
62.6788
62.9254
63.3635
63.9759
64.7089
65.5946
66.5812
67.7332
68.9812
70.4289
71.9718
73.7698
75.6601
77.8889
80.1995
82.9735
85.8052
89.2925
92.7903
97.2381
101.616
107.418
113.051
120.889
128.507
139.614
150.431
166.323
181.098
201.876
218.691
240.76
255.151
276.942
294.23
316.582
333.383
302.013
302.483
215.612
168.451
167.565
187.959
191.961
191.43
177.767
167.764
154.066
145.44
134.829
127.826
119.887
114.855
109.551
106.277
102.839
100.616
98.1063
96.1404
93.8051
91.6323
89.099
86.5606
83.811
81.1269
78.4806
76.0214
73.7773
71.7676
70.0327
68.4669
67.1332
65.8413
64.7231
63.5273
62.4834
61.2745
60.2346
58.9771
57.9167
56.6409
55.5526
54.3601
53.3692
51.7492
37.9624
39.5166
42.9879
48.7645
55.8167
62.068
66.0952
67.8812
68.0928
67.2668
65.8374
64.3652
63.3043
62.8043
62.7392
62.9809
63.4144
64.0229
64.7529
65.6365
66.6215
67.7726
69.0202
70.468
72.0114
73.8102
75.7016
77.932
80.2443
83.0205
85.8546
89.3449
92.8461
97.2983
101.682
107.491
113.132
120.979
128.606
139.721
150.544
166.435
181.206
201.974
218.787
240.857
255.277
277.051
294.308
316.447
333.041
301.319
301.06
214.256
167.525
166.93
187.47
191.632
191.236
177.678
167.742
154.079
145.466
134.863
127.867
119.935
114.907
109.602
106.324
102.88
100.65
98.133
96.1616
93.8222
91.6472
89.1135
86.5766
83.8296
81.1486
78.5053
76.0483
73.8051
71.795
70.0581
68.4893
67.1517
65.8553
64.7322
63.5313
62.4816
61.2668
60.2194
58.9543
57.8834
56.5972
55.4949
54.2878
53.2796
51.6518
37.9551
39.4893
42.9228
48.6512
55.6688
61.9212
65.9853
67.8249
68.0851
67.2929
65.8847
64.4251
63.3694
62.8685
62.7994
63.0362
63.4651
64.0699
64.7969
65.6783
66.6618
67.812
69.0592
70.507
72.0508
73.8505
75.743
77.975
80.289
83.0674
85.9038
89.3972
92.9017
97.3583
101.747
107.562
113.211
121.068
128.705
139.827
150.656
166.546
181.313
202.071
218.882
240.953
255.4
277.159
294.384
316.311
332.697
300.623
299.636
212.902
166.6
166.291
186.973
191.295
191.035
177.583
167.716
154.089
145.49
134.894
127.907
119.982
114.958
109.653
106.37
102.92
100.683
98.1591
96.1822
93.8388
91.6616
89.1277
86.5923
83.8479
81.1701
78.5296
76.0749
73.8327
71.822
70.0833
68.5115
67.17
65.8692
64.7412
63.5353
62.4797
61.2591
60.2042
58.9317
57.8503
56.5539
55.4376
54.2161
53.1908
51.5555
37.9479
39.4622
42.8581
48.5385
55.5216
61.7751
65.876
67.7691
68.0777
67.319
65.9319
64.4848
63.4343
62.9326
62.8593
63.0913
63.5157
64.1167
64.8407
65.7199
66.7018
67.8512
69.0979
70.5459
72.09
73.8906
75.7842
78.0176
80.3333
83.1139
85.9527
89.449
92.9568
97.4178
101.811
107.634
113.291
121.156
128.802
139.933
150.766
166.656
181.419
202.166
218.976
241.048
255.521
277.264
294.455
316.172
332.35
299.925
298.209
211.547
165.675
165.645
186.468
190.95
190.827
177.482
167.685
154.095
145.511
134.924
127.944
120.027
115.008
109.702
106.415
102.959
100.715
98.1844
96.2021
93.8548
91.6755
89.1413
86.6076
83.8658
81.1911
78.5536
76.101
73.8597
71.8486
70.1081
68.5334
67.1881
65.8829
64.75
63.5391
62.4778
61.2515
60.189
58.9092
57.8173
56.5108
55.3807
54.145
53.1028
51.4601
37.9407
39.4353
42.7939
48.4265
55.3751
61.6297
65.7675
67.714
68.0708
67.3453
65.979
64.5443
63.4988
62.9962
62.919
63.1461
63.566
64.1632
64.8842
65.7613
66.7417
67.8901
69.1364
70.5844
72.1289
73.9303
75.825
78.06
80.3773
83.1601
86.0011
89.5004
93.0115
97.4768
101.876
107.704
113.369
121.243
128.899
140.037
150.876
166.764
181.524
202.261
219.069
241.141
255.64
277.365
294.523
316.029
332
299.225
296.78
210.191
164.746
164.993
185.954
190.597
190.612
177.376
167.65
154.098
145.528
134.95
127.979
120.07
115.055
109.749
106.459
102.997
100.746
98.2088
96.2212
93.87
91.6888
89.1545
86.6223
83.8832
81.2116
78.5769
76.1265
73.8863
71.8748
70.1325
68.5549
67.2058
65.8964
64.7586
63.5427
62.4757
61.2437
60.1738
58.8866
57.7844
56.4678
55.3241
54.0744
53.0155
51.3655
37.9337
39.4087
42.7303
48.3152
55.2294
61.485
65.6596
67.6594
68.0641
67.3717
66.0259
64.6035
63.563
63.0596
62.9783
63.2006
63.616
64.2095
64.9275
65.8024
66.7812
67.9288
69.1746
70.6227
72.1676
73.9698
75.8655
78.102
80.4209
83.2058
86.0491
89.5513
93.0656
97.5351
101.939
107.774
113.447
121.33
128.995
140.14
150.983
166.871
181.627
202.354
219.16
241.233
255.756
277.464
294.587
315.883
331.646
298.522
295.347
208.832
163.814
164.333
185.431
190.234
190.39
177.264
167.611
154.098
145.543
134.973
128.011
120.111
115.101
109.795
106.502
103.034
100.776
98.2323
96.2395
93.8845
91.7014
89.167
86.6365
83.9
81.2315
78.5997
76.1515
73.9123
71.9004
70.1564
68.576
67.2232
65.9095
64.7669
63.5462
62.4734
61.2358
60.1585
58.864
57.7516
56.425
55.2679
54.0042
52.929
51.2718
37.9267
39.3824
42.6671
48.2046
55.0844
61.3411
65.5524
67.6054
68.0578
67.3981
66.0728
64.6624
63.6269
63.1226
63.0373
63.2548
63.6657
64.2555
64.9706
65.8433
66.8205
67.9672
69.2125
70.6607
72.2059
74.0089
75.9056
78.1435
80.4641
83.2511
86.0966
89.6016
93.1191
97.5928
102.002
107.843
113.523
121.415
129.089
140.241
151.09
166.977
181.728
202.445
219.249
241.322
255.869
277.559
294.647
315.734
331.289
297.817
293.911
207.469
162.878
163.664
184.898
189.864
190.161
177.146
167.568
154.093
145.555
134.994
128.041
120.149
115.145
109.84
106.543
103.069
100.805
98.2549
96.2569
93.8983
91.7133
89.1788
86.65
83.9162
81.2508
78.6218
76.1759
73.9377
71.9255
70.1799
68.5967
67.2403
65.9224
64.775
63.5494
62.471
61.2277
60.1431
58.8414
57.7188
56.3823
55.2118
53.9345
52.8431
51.179
37.9197
39.3563
42.6044
48.0947
54.9402
61.1978
65.4459
67.552
68.0518
67.4246
66.1195
64.7211
63.6904
63.1852
63.096
63.3087
63.7151
64.3012
65.0133
65.8838
66.8596
68.0053
69.2502
70.6983
72.2439
74.0477
75.9453
78.1847
80.5069
83.296
86.1436
89.6514
93.172
97.6498
102.064
107.912
113.599
121.499
129.182
140.342
151.195
167.081
181.828
202.534
219.337
241.409
255.98
277.65
294.702
315.582
330.93
297.111
292.472
206.104
161.935
162.986
184.356
189.485
189.925
177.023
167.52
154.086
145.563
135.012
128.069
120.185
115.187
109.883
106.583
103.104
100.833
98.2766
96.2734
93.9112
91.7246
89.1901
86.663
83.9318
81.2695
78.6434
76.1997
73.9625
71.9501
70.2029
68.617
67.2569
65.9349
64.7829
63.5524
62.4685
61.2196
60.1276
58.8187
57.6861
56.3397
55.1561
53.8651
52.7578
51.0869
37.9129
39.3304
42.5422
47.9855
54.7967
61.0553
65.34
67.4991
68.0461
67.4511
66.166
64.7795
63.7535
63.2474
63.1543
63.3623
63.7642
64.3466
65.0558
65.9241
66.8983
68.0432
69.2875
70.7357
72.2815
74.0861
75.9847
78.2255
80.5492
83.3404
86.1902
89.7007
93.2243
97.7062
102.125
107.979
113.674
121.582
129.274
140.441
151.299
167.183
181.927
202.622
219.422
241.494
256.088
277.739
294.753
315.426
330.567
296.402
291.03
204.733
160.986
162.298
183.805
189.098
189.682
176.894
167.467
154.074
145.569
135.028
128.094
120.22
115.227
109.925
106.622
103.137
100.86
98.2973
96.2891
93.9234
91.7351
89.2006
86.6753
83.9467
81.2876
78.6643
76.2228
73.9868
71.9742
70.2254
68.6368
67.2732
65.9471
64.7904
63.5552
62.4657
61.2113
60.112
58.796
57.6533
56.2973
55.1006
53.7962
52.6732
50.9956
37.9061
39.3048
42.4804
47.8769
54.654
60.9135
65.2349
67.4468
68.0407
67.4777
66.2124
64.8376
63.8163
63.3093
63.2122
63.4155
63.8131
64.3917
65.098
65.9642
66.9368
68.0807
69.3246
70.7727
72.3188
74.1241
76.0237
78.2659
80.5911
83.3843
86.2362
89.7494
93.2761
97.7619
102.185
108.046
113.748
121.665
129.365
140.538
151.401
167.284
182.023
202.709
219.506
241.577
256.193
277.824
294.801
315.268
330.202
295.692
289.585
203.358
160.03
161.6
183.244
188.702
189.433
176.761
167.411
154.06
145.571
135.041
128.116
120.252
115.266
109.965
106.66
103.17
100.886
98.317
96.3039
93.9348
91.7449
89.2106
86.687
83.9611
81.3051
78.6846
76.2453
74.0105
71.9977
70.2474
68.6562
67.2891
65.959
64.7977
63.5578
62.4627
61.2028
60.0964
58.7733
57.6206
56.2549
55.0453
53.7277
52.5892
50.905
37.8994
39.2794
42.4192
47.7691
54.512
60.7725
65.1305
67.3951
68.0357
67.5044
66.2587
64.8954
63.8788
63.3708
63.2698
63.4684
63.8616
64.4366
65.1399
66.0039
66.975
68.1179
69.3613
70.8094
72.3558
74.1619
76.0623
78.3059
80.6326
83.4277
86.2816
89.7975
93.3271
97.817
102.245
108.112
113.821
121.746
129.455
140.635
151.502
167.384
182.118
202.793
219.588
241.658
256.295
277.906
294.844
315.106
329.834
294.981
288.138
201.978
159.066
160.891
182.673
188.298
189.177
176.622
167.351
154.042
145.571
135.051
128.137
120.282
115.302
110.003
106.696
103.201
100.911
98.3358
96.3179
93.9454
91.7539
89.2199
86.6981
83.9749
81.3219
78.7043
76.2673
74.0336
72.0206
70.2689
68.6752
67.3047
65.9705
64.8047
63.5601
62.4596
61.1942
60.0806
58.7504
57.5879
56.2126
54.9902
53.6595
52.5057
50.8152
37.8928
39.2542
42.3585
47.662
54.3708
60.6322
65.0267
67.3439
68.031
67.5311
66.3048
64.9529
63.9409
63.432
63.327
63.521
63.9098
64.4811
65.1815
66.0434
67.0129
68.1549
69.3977
70.8458
72.3925
74.1992
76.1005
78.3454
80.6736
83.4706
86.3266
89.8451
93.3776
97.8713
102.304
108.177
113.893
121.826
129.543
140.73
151.601
167.481
182.211
202.876
219.668
241.736
256.394
277.985
294.884
314.942
329.463
294.269
286.689
200.593
158.093
160.171
182.093
187.887
188.916
176.478
167.287
154.021
145.568
135.058
128.155
120.309
115.337
110.04
106.731
103.231
100.935
98.3537
96.331
93.9552
91.7623
89.2285
86.7085
83.988
81.3381
78.7233
76.2885
74.0561
72.043
70.2899
68.6937
67.3198
65.9817
64.8114
63.5622
62.4563
61.1854
60.0647
58.7275
57.5552
56.1703
54.9354
53.5916
52.4228
50.726
37.8863
39.2294
42.2982
47.5555
54.2303
60.4926
64.9237
67.2933
68.0266
67.5579
66.3509
65.0102
64.0026
63.4927
63.3839
63.5732
63.9577
64.5254
65.2229
66.0825
67.0505
68.1915
69.4338
70.8819
72.4288
74.2362
76.1384
78.3846
80.7141
83.5131
86.371
89.8921
93.4274
97.9249
102.362
108.241
113.964
121.905
129.63
140.823
151.698
167.577
182.303
202.957
219.746
241.813
256.491
278.06
294.92
314.775
329.091
293.557
285.237
199.202
157.111
159.44
181.503
187.468
188.648
176.33
167.219
153.997
145.563
135.064
128.17
120.335
115.37
110.075
106.764
103.26
100.957
98.3707
96.3432
93.9643
91.77
89.2364
86.7183
84.0005
81.3537
78.7417
76.3092
74.078
72.0649
70.3104
68.7118
67.3346
65.9926
64.8179
63.5641
62.4527
61.1765
60.0487
58.7045
57.5225
56.1282
54.8807
53.5241
52.3405
50.6375
37.8798
39.2047
42.2385
47.4498
54.0906
60.3538
64.8214
67.2432
68.0225
67.5847
66.3967
65.0672
64.064
63.5531
63.4404
63.6251
64.0053
64.5693
65.2639
66.1214
67.0878
68.2279
69.4696
70.9176
72.4647
74.2727
76.1758
78.4233
80.7542
83.555
86.4148
89.9384
93.4766
97.9778
102.42
108.304
114.034
121.983
129.716
140.915
151.794
167.672
182.393
203.037
219.822
241.888
256.585
278.133
294.952
314.606
328.717
292.844
283.785
197.805
156.118
158.697
180.903
187.042
188.375
176.177
167.148
153.969
145.554
135.066
128.184
120.359
115.402
110.109
106.797
103.288
100.979
98.3867
96.3547
93.9726
91.777
89.2437
86.7275
84.0124
81.3686
78.7594
76.3292
74.0993
72.0862
70.3305
68.7294
67.349
66.0032
64.824
63.5658
62.449
61.1674
60.0326
58.6815
57.4898
56.086
54.8262
53.457
52.2587
50.5496
37.8734
39.1803
42.1792
47.3448
53.9517
60.2158
64.7197
67.1937
68.0187
67.6116
66.4424
65.1239
64.125
63.6131
63.4966
63.6767
64.0525
64.613
65.3046
66.16
67.1248
68.2639
69.5051
70.953
72.5003
74.3089
76.2128
78.4615
80.7938
83.5964
86.4582
89.9842
93.5251
98.03
102.477
108.366
114.104
122.059
129.8
141.006
151.889
167.764
182.481
203.114
219.896
241.96
256.676
278.202
294.981
314.435
328.341
292.132
282.331
196.403
155.116
157.942
180.294
186.608
188.097
176.02
167.073
153.939
145.543
135.067
128.195
120.381
115.431
110.142
106.828
103.315
101
98.4019
96.3653
93.9801
91.7833
89.2504
86.7361
84.0236
81.3829
78.7765
76.3486
74.12
72.107
70.35
68.7466
67.363
66.0134
64.8299
63.5671
62.4451
61.1582
60.0163
58.6583
57.4571
56.044
54.7719
53.3901
52.1774
50.4624
37.8671
39.1561
42.1205
47.2404
53.8136
60.0785
64.6188
67.1448
68.0152
67.6386
66.488
65.1803
64.1856
63.6727
63.5523
63.7279
64.0994
64.6563
65.3451
66.1983
67.1615
68.2996
69.5402
70.988
72.5355
74.3448
76.2494
78.4993
80.8329
83.6373
86.5009
90.0294
93.5729
98.0815
102.532
108.428
114.172
122.135
129.884
141.095
151.981
167.855
182.567
203.19
219.969
242.031
256.764
278.269
295.006
314.261
327.963
291.42
280.877
194.995
154.103
157.176
179.676
186.168
187.813
175.859
166.995
153.906
145.53
135.065
128.205
120.402
115.459
110.173
106.858
103.341
101.02
98.4162
96.375
93.9869
91.7889
89.2564
86.744
84.0342
81.3966
78.793
76.3674
74.1401
72.1272
70.369
68.7634
67.3766
66.0234
64.8355
63.5683
62.4409
61.1488
59.9999
58.6351
57.4244
56.002
54.7178
53.3235
52.0966
50.3758
37.8608
39.1322
42.0622
47.1368
53.6763
59.9419
64.5186
67.0964
68.012
67.6656
66.5335
65.2364
64.2458
63.7319
63.6077
63.7787
64.146
64.6993
65.3852
66.2362
67.1979
68.335
69.575
71.0227
72.5703
74.3802
76.2856
78.5367
80.8716
83.6777
86.5431
90.074
93.6201
98.1322
102.587
108.488
114.239
122.209
129.965
141.183
152.073
167.945
182.652
203.265
220.039
242.099
256.85
278.332
295.028
314.085
327.585
290.709
279.424
193.583
153.08
156.398
179.049
185.722
187.525
175.694
166.914
153.871
145.515
135.061
128.212
120.42
115.486
110.203
106.887
103.365
101.039
98.4296
96.384
93.993
91.7939
89.2618
86.7514
84.0442
81.4096
78.8088
76.3856
74.1596
72.1468
70.3875
68.7797
67.3898
66.0329
64.8409
63.5692
62.4366
61.1392
59.9834
58.6118
57.3916
55.96
54.6638
53.2573
52.0162
50.2897
37.8546
39.1085
42.0044
47.0339
53.5397
59.8062
64.4191
67.0485
68.0091
67.6926
66.5788
65.2923
64.3057
63.7907
63.6627
63.8293
64.1923
64.742
65.425
66.2739
67.2339
68.3701
69.6095
71.0571
72.6048
74.4152
76.3214
78.5736
80.9098
83.7176
86.5848
90.1179
93.6666
98.1822
102.642
108.548
114.305
122.283
130.046
141.269
152.162
168.032
182.735
203.337
220.108
242.166
256.934
278.393
295.046
313.908
327.205
289.999
277.971
192.165
152.045
155.608
178.414
185.269
187.233
175.526
166.831
153.833
145.497
135.055
128.218
120.436
115.511
110.231
106.914
103.389
101.058
98.4421
96.3923
93.9984
91.7982
89.2666
86.7581
84.0536
81.422
78.824
76.4031
74.1785
72.1659
70.4056
68.7956
67.4027
66.0422
64.8459
63.5699
62.4321
61.1294
59.9668
58.5884
57.3589
55.9181
54.61
53.1913
51.9363
50.2043
37.8485
39.085
41.9471
46.9317
53.404
59.6712
64.3203
67.0013
68.0065
67.7197
66.6239
65.3478
64.3652
63.8491
63.7174
63.8794
64.2382
64.7844
65.4645
66.3112
67.2697
68.4048
69.6436
71.0911
72.6389
74.4499
76.3567
78.6101
80.9475
83.757
86.6258
90.1612
93.7124
98.2315
102.695
108.607
114.37
122.355
130.125
141.354
152.25
168.118
182.816
203.408
220.175
242.23
257.015
278.451
295.062
313.729
326.825
289.291
276.52
190.742
151
154.806
177.77
184.811
186.937
175.354
166.744
153.792
145.477
135.047
128.221
120.451
115.534
110.258
106.941
103.411
101.075
98.4539
96.3997
94.003
91.8018
89.2708
86.7642
84.0624
81.4339
78.8386
76.4201
74.1968
72.1845
70.4231
68.8111
67.4152
66.0511
64.8507
63.5703
62.4273
61.1195
59.9501
58.5649
57.3261
55.8762
54.5564
53.1255
51.8569
50.1194
37.8425
39.0618
41.8903
46.8303
53.269
59.537
64.2222
66.9545
68.0042
67.7469
66.6689
65.4031
64.4244
63.9071
63.7716
63.9292
64.2838
64.8264
65.5037
66.3482
67.3051
68.4392
69.6774
71.1247
72.6727
74.4841
76.3916
78.6461
80.9847
83.7958
86.6663
90.204
93.7576
98.28
102.748
108.665
114.434
122.426
130.204
141.437
152.337
168.203
182.895
203.477
220.24
242.293
257.093
278.506
295.074
313.548
326.444
288.585
275.071
189.315
149.944
153.992
177.119
184.348
186.636
175.18
166.655
153.75
145.455
135.038
128.223
120.465
115.556
110.283
106.966
103.433
101.091
98.4648
96.4065
94.007
91.8048
89.2743
86.7698
84.0706
81.4451
78.8526
76.4364
74.2146
72.2026
70.4402
68.8261
67.4273
66.0597
64.8552
63.5706
62.4224
61.1094
59.9332
58.5413
57.2933
55.8344
54.5029
53.0601
51.7779
50.035
37.8365
39.0388
41.834
46.7295
53.1349
59.4035
64.1248
66.9083
68.0022
67.774
66.7137
65.458
64.4831
63.9647
63.8255
63.9786
64.3291
64.8681
65.5425
66.3849
67.3402
68.4733
69.7108
71.158
72.706
74.518
76.4261
78.6817
81.0214
83.8341
86.7062
90.246
93.802
98.3278
102.799
108.722
114.497
122.496
130.28
141.519
152.422
168.286
182.973
203.544
220.303
242.353
257.169
278.559
295.083
313.366
326.063
287.881
273.624
187.884
148.877
153.168
176.46
183.88
186.333
175.002
166.564
153.705
145.431
135.026
128.223
120.476
115.576
110.308
106.99
103.454
101.107
98.4749
96.4125
94.0103
91.8072
89.2773
86.7747
84.0783
81.4557
78.866
76.4521
74.2318
72.2201
70.4568
68.8407
67.439
66.068
64.8594
63.5705
62.4173
61.0992
59.9162
58.5177
57.2605
55.7926
54.4496
52.9949
51.6993
49.9512
37.8306
39.016
41.7782
46.6295
53.0015
59.2709
64.0282
66.8627
68.0005
67.8012
66.7584
65.5127
64.5415
64.0219
63.8789
64.0277
64.3739
64.9095
65.5811
66.4213
67.375
68.5071
69.7439
71.1909
72.739
74.5514
76.4602
78.7168
81.0576
83.8719
86.7456
90.2875
93.8458
98.3749
102.85
108.778
114.559
122.564
130.356
141.6
152.505
168.367
183.049
203.61
220.364
242.412
257.243
278.609
295.09
313.183
325.683
287.18
272.182
186.449
147.799
152.332
175.795
183.408
186.027
174.823
166.47
153.658
145.405
135.013
128.222
120.487
115.595
110.331
107.013
103.473
101.121
98.4842
96.4178
94.013
91.8091
89.2797
86.7791
84.0853
81.4657
78.8788
76.4672
74.2484
72.2371
70.4729
68.8549
67.4503
66.076
64.8633
63.5703
62.412
61.0888
59.8991
58.4939
57.2276
55.7508
54.3964
52.93
51.6212
49.8679
37.8248
38.9935
41.7228
46.5302
52.869
59.1391
63.9323
66.8176
67.999
67.8284
66.8029
65.567
64.5994
64.0787
63.932
64.0763
64.4185
64.9505
65.6193
66.4574
67.4095
68.5405
69.7767
71.2234
72.7716
74.5845
76.4938
78.7514
81.0933
83.9091
86.7844
90.3284
93.8889
98.4212
102.901
108.833
114.62
122.632
130.43
141.679
152.587
168.446
183.124
203.674
220.424
242.469
257.314
278.656
295.094
312.999
325.302
286.482
270.744
185.012
146.711
151.486
175.122
182.932
185.718
174.641
166.374
153.609
145.378
134.998
128.219
120.495
115.613
110.353
107.035
103.492
101.135
98.4929
96.4224
94.0151
91.8103
89.2815
86.7829
84.0918
81.4751
78.891
76.4818
74.2645
72.2536
70.4886
68.8687
67.4614
66.0837
64.867
63.5698
62.4065
61.0783
59.8819
58.4701
57.1948
55.7091
54.3433
52.8653
51.5435
49.7851
37.819
38.9712
41.668
46.4316
52.7373
59.0081
63.8371
66.773
67.9978
67.8557
66.8472
65.621
64.657
64.1351
63.9847
64.1246
64.4627
64.9913
65.6571
66.4931
67.4436
68.5736
69.8091
71.2556
72.8038
74.6171
76.527
78.7856
81.1285
83.9458
86.8226
90.3686
93.9314
98.4668
102.95
108.887
114.68
122.698
130.503
141.757
152.667
168.524
183.196
203.736
220.482
242.524
257.383
278.701
295.096
312.814
324.922
285.788
269.311
183.572
145.613
150.63
174.445
182.452
185.407
174.457
166.277
153.559
145.349
134.982
128.215
120.503
115.63
110.374
107.056
103.51
101.148
98.5008
96.4264
94.0166
91.811
89.2828
86.7862
84.0977
81.484
78.9026
76.4958
74.28
72.2695
70.5038
68.8821
67.472
66.091
64.8704
63.5691
62.4009
61.0676
59.8646
58.4462
57.1619
55.6674
54.2904
52.8009
51.4662
49.7028
37.8133
38.9491
41.6136
46.3338
52.6065
58.8779
63.7426
66.729
67.9969
67.883
66.8914
65.6747
64.7142
64.191
64.0369
64.1726
64.5065
65.0316
65.6947
66.5285
67.4774
68.6063
69.8412
71.2875
72.8356
74.6493
76.5598
78.8193
81.1633
83.982
86.8602
90.4082
93.9732
98.5116
102.999
108.941
114.739
122.764
130.574
141.833
152.746
168.6
183.267
203.797
220.538
242.578
257.45
278.744
295.095
312.629
324.543
285.098
267.884
182.132
144.506
149.764
173.761
181.97
185.094
174.272
166.178
153.507
145.319
134.964
128.209
120.509
115.645
110.393
107.076
103.527
101.16
98.508
96.4298
94.0175
91.8111
89.2836
86.789
84.1031
81.4924
78.9137
76.5092
74.295
72.285
70.5185
68.8951
67.4823
66.0981
64.8736
63.5682
62.395
61.0567
59.8472
58.4223
57.1291
55.6258
54.2377
52.7367
51.3892
49.621
37.8077
38.9272
41.5598
46.2367
52.4765
58.7486
63.6489
66.6855
67.9962
67.9102
66.9354
65.7281
64.7709
64.2466
64.0888
64.2201
64.55
65.0716
65.7319
66.5636
67.5109
68.6387
69.8729
71.3189
72.8671
74.6812
76.5922
78.8525
81.1975
84.0176
86.8972
90.4472
94.0142
98.5557
103.046
108.993
114.798
122.828
130.645
141.908
152.823
168.675
183.337
203.856
220.593
242.629
257.515
278.785
295.092
312.443
324.165
284.412
266.465
180.69
143.389
148.889
173.074
181.486
184.78
174.085
166.078
153.453
145.287
134.945
128.202
120.514
115.659
110.412
107.095
103.543
101.172
98.5146
96.4326
94.0179
91.8108
89.2839
86.7913
84.108
81.5002
78.9242
76.5221
74.3095
72.3
70.5328
68.9077
67.4923
66.1049
64.8766
63.5671
62.389
61.0458
59.8297
58.3983
57.0962
55.5842
54.1851
52.6728
51.3127
49.5396
37.8021
38.9056
41.5064
46.1404
52.3474
58.6201
63.5559
66.6425
67.9958
67.9375
66.9792
65.7812
64.8273
64.3016
64.1402
64.2672
64.5931
65.1113
65.7688
66.5983
67.544
68.6708
69.9043
71.35
72.8981
74.7126
76.6241
78.8853
81.2312
84.0527
86.9337
90.4855
94.0547
98.5991
103.093
109.045
114.855
122.891
130.714
141.982
152.899
168.748
183.405
203.914
220.646
242.679
257.578
278.823
295.086
312.257
323.788
283.731
265.053
179.249
142.264
148.006
172.382
180.999
184.465
173.898
165.977
153.399
145.254
134.925
128.194
120.517
115.672
110.43
107.113
103.558
101.183
98.5205
96.4349
94.0178
91.8099
89.2837
86.7931
84.1124
81.5075
78.9342
76.5345
74.3234
72.3145
70.5467
68.9199
67.5019
66.1114
64.8793
63.5658
62.3828
61.0347
59.812
58.3742
57.0633
55.5427
54.1326
52.6092
51.2366
49.4588
37.7966
38.8843
41.4535
46.0448
52.2191
58.4924
63.4637
66.6001
67.9956
67.9648
67.0228
65.8339
64.8832
64.3563
64.1912
64.314
64.6358
65.1506
65.8053
66.6327
67.5768
68.7025
69.9353
71.3807
72.9288
74.7436
76.6556
78.9177
81.2645
84.0873
86.9696
90.5233
94.0944
98.6417
103.139
109.096
114.911
122.953
130.782
142.054
152.973
168.82
183.471
203.97
220.698
242.728
257.638
278.86
295.079
312.071
323.413
283.056
263.649
177.808
141.131
147.115
171.687
180.512
184.149
173.709
165.875
153.343
145.22
134.904
128.185
120.52
115.684
110.446
107.13
103.573
101.193
98.5259
96.4366
94.0171
91.8086
89.2831
86.7944
84.1163
81.5142
78.9436
76.5464
74.3369
72.3286
70.5602
68.9317
67.5112
66.1176
64.8817
63.5643
62.3765
61.0234
59.7943
58.35
57.0304
55.5012
54.0803
52.5458
51.1609
49.3784
37.7912
38.8631
41.4012
45.9499
52.0917
58.3656
63.3722
66.5582
67.9957
67.9921
67.0662
65.8863
64.9388
64.4105
64.2418
64.3604
64.6782
65.1896
65.8415
66.6668
67.6092
68.7339
69.9659
71.4111
72.9591
74.7742
76.6866
78.9496
81.2973
84.1213
87.005
90.5604
94.1335
98.6837
103.185
109.146
114.966
123.014
130.849
142.125
153.046
168.89
183.536
204.025
220.748
242.775
257.697
278.894
295.07
311.885
323.04
282.385
262.255
176.37
139.99
146.218
170.989
180.023
183.833
173.52
165.772
153.286
145.185
134.881
128.175
120.522
115.695
110.462
107.147
103.587
101.202
98.5307
96.4378
94.0161
91.8069
89.282
86.7952
84.1197
81.5205
78.9526
76.5577
74.3499
72.3422
70.5732
68.9432
67.5202
66.1236
64.884
63.5627
62.37
61.0121
59.7766
58.3259
56.9976
55.4598
54.0282
52.4826
51.0856
49.2985
37.7858
38.8422
41.3493
45.8559
51.9652
58.2396
63.2814
66.5168
67.996
68.0193
67.1095
65.9384
64.9939
64.4643
64.292
64.4063
64.7202
65.2282
65.8773
66.7005
67.6413
68.7649
69.9962
71.4411
72.989
74.8044
76.7172
78.981
81.3295
84.1549
87.0398
90.5969
94.172
98.7249
103.23
109.195
115.02
123.074
130.914
142.194
153.118
168.958
183.599
204.078
220.796
242.82
257.754
278.927
295.059
311.7
322.668
281.721
260.871
174.934
138.843
145.314
170.289
179.535
183.517
173.331
165.668
153.229
145.15
134.859
128.164
120.523
115.705
110.477
107.163
103.6
101.211
98.5349
96.4385
94.0145
91.8047
89.2805
86.7957
84.1227
81.5264
78.9611
76.5686
74.3624
72.3554
70.5859
68.9543
67.5289
66.1293
64.886
63.5608
62.3634
61.0006
59.7587
58.3016
56.9647
55.4184
53.9762
52.4197
51.0106
49.2191
37.7805
38.8215
41.2979
45.7625
51.8396
58.1145
63.1914
66.4759
67.9965
68.0465
67.1525
65.9901
65.0486
64.5177
64.3417
64.4519
64.7619
65.2665
65.9128
66.7339
67.6731
68.7956
70.0261
71.4707
73.0186
74.8342
76.7474
79.0119
81.3613
84.1879
87.074
90.6329
94.2097
98.7654
103.273
109.243
115.073
123.133
130.978
142.262
153.188
169.026
183.661
204.13
220.844
242.864
257.81
278.958
295.047
311.514
322.299
281.063
259.499
173.502
137.691
144.404
169.588
179.047
183.201
173.142
165.564
153.17
145.113
134.835
128.153
120.523
115.714
110.491
107.177
103.613
101.22
98.5387
96.4388
94.0126
91.8022
89.2786
86.7957
84.1252
81.5318
78.9691
76.579
74.3744
72.3681
70.5981
68.9651
67.5373
66.1347
64.8878
63.5588
62.3566
60.989
59.7408
58.2774
56.9319
55.3772
53.9244
52.3571
50.9361
49.1401
37.7752
38.801
41.247
45.67
51.7148
57.9903
63.1021
66.4355
67.9973
68.0738
67.1953
66.0415
65.1029
64.5706
64.3911
64.4971
64.8031
65.3044
65.948
66.7669
67.7045
68.8259
70.0557
71.5
73.0477
74.8636
76.7772
79.0424
81.3926
84.2204
87.1077
90.6682
94.2469
98.8053
103.316
109.29
115.126
123.19
131.042
142.329
153.256
169.091
183.722
204.18
220.89
242.907
257.863
278.987
295.033
311.33
321.933
280.411
258.138
172.074
136.533
143.491
168.886
178.559
182.887
172.953
165.46
153.112
145.076
134.81
128.14
120.522
115.723
110.504
107.192
103.624
101.227
98.542
96.4387
94.0103
91.7993
89.2763
86.7954
84.1274
81.5367
78.9767
76.5889
74.386
72.3804
70.61
68.9755
67.5454
66.1399
64.8894
63.5566
62.3497
60.9773
59.7228
58.2531
56.8991
55.336
53.8728
52.2948
50.862
49.0616
37.7701
38.7808
41.1966
45.5782
51.591
57.8669
63.0136
66.3957
67.9983
68.1009
67.2379
66.0925
65.1567
64.623
64.4399
64.5418
64.844
65.3419
65.9828
66.7996
67.7356
68.8559
70.085
71.5288
73.0764
74.8926
76.8065
79.0725
81.4235
84.2524
87.1408
90.7029
94.2834
98.8444
103.359
109.337
115.177
123.247
131.104
142.395
153.324
169.156
183.781
204.23
220.934
242.948
257.916
279.015
295.017
311.146
321.569
279.767
256.79
170.653
135.372
142.573
168.185
178.074
182.573
172.765
165.355
153.053
145.039
134.786
128.127
120.52
115.73
110.517
107.205
103.636
101.235
98.5449
96.4383
94.0077
91.796
89.2737
86.7947
84.1291
81.5412
78.9838
76.5984
74.3972
72.3923
70.6215
68.9857
67.5533
66.1449
64.8909
63.5542
62.3427
60.9656
59.7047
58.2288
56.8664
55.2949
53.8214
52.2327
50.7883
48.9836
37.765
38.7607
41.1468
45.4872
51.4681
57.7445
62.9258
66.3563
67.9994
68.1281
67.2802
66.1432
65.2101
64.675
64.4884
64.5862
64.8845
65.3791
66.0173
66.832
67.7664
68.8855
70.1138
71.5574
73.1048
74.9212
76.8355
79.1021
81.4538
84.2838
87.1734
90.7371
94.3193
98.8828
103.4
109.383
115.228
123.303
131.164
142.459
153.39
169.219
183.839
204.278
220.977
242.988
257.966
279.041
295.001
310.963
321.208
279.13
255.455
169.238
134.207
141.653
167.484
177.59
182.261
172.578
165.251
152.993
145.001
134.76
128.114
120.518
115.738
110.529
107.218
103.646
101.241
98.5474
96.4374
94.0048
91.7925
89.2708
86.7936
84.1305
81.5454
78.9906
76.6075
74.408
72.4039
70.6327
68.9955
67.5609
66.1497
64.8921
63.5517
62.3356
60.9537
59.6866
58.2045
56.8337
55.2539
53.7701
52.1709
50.715
48.9061
37.7599
38.7409
41.0974
45.397
51.3461
57.6229
62.8388
66.3175
68.0008
68.1552
67.3224
66.1935
65.2631
64.7266
64.5364
64.6301
64.9246
65.4159
66.0513
66.864
67.7967
68.9148
70.1423
71.5855
73.1328
74.9494
76.864
79.1313
81.4837
84.3148
87.2054
90.7706
94.3545
98.9206
103.441
109.428
115.277
123.358
131.224
142.523
153.454
169.28
183.895
204.324
221.02
243.027
258.015
279.066
294.984
310.781
320.85
278.5
254.135
167.83
133.041
140.732
166.786
177.108
181.952
172.391
165.148
152.934
144.963
134.735
128.1
120.516
115.744
110.54
107.231
103.657
101.248
98.5495
96.4363
94.0015
91.7887
89.2676
86.7923
84.1316
81.5492
78.9969
76.6162
74.4183
72.415
70.6435
69.005
67.5682
66.1542
64.8932
63.5491
62.3283
60.9418
59.6685
58.1801
56.801
55.213
53.7191
52.1095
50.6421
48.8291
37.7549
38.7214
41.0485
45.3076
51.225
57.5023
62.7526
66.2791
68.0024
68.1822
67.3643
66.2434
65.3156
64.7777
64.584
64.6737
64.9643
65.4524
66.0851
66.8956
67.8268
68.9437
70.1705
71.6133
73.1604
74.9771
76.8921
79.16
81.5131
84.3452
87.2369
90.8036
94.3892
98.9578
103.481
109.472
115.326
123.411
131.283
142.585
153.518
169.341
183.951
204.37
221.061
243.065
258.063
279.089
294.965
310.601
320.496
277.879
252.829
166.432
131.874
139.81
166.089
176.63
181.644
172.206
165.045
152.875
144.925
134.709
128.086
120.512
115.75
110.551
107.243
103.666
101.254
98.5513
96.4349
93.9981
91.7846
89.2641
86.7906
84.1323
81.5526
79.0029
76.6245
74.4283
72.4259
70.654
69.0143
67.5753
66.1586
64.8941
63.5464
62.321
60.9298
59.6504
58.1558
56.7685
55.1723
53.6682
52.0483
50.5696
48.7525
37.75
38.702
41.0001
45.219
51.1049
57.3826
62.6671
66.2413
68.0042
68.2092
67.4059
66.293
65.3676
64.8283
64.6311
64.7168
65.0036
65.4884
66.1185
66.9269
67.8565
68.9723
70.1983
71.6407
73.1877
75.0045
76.9197
79.1883
81.542