/*--------------------------------*- C++ -*----------------------------------*\
| =========                 |                                                 |
| \\      /  F ield         | OpenFOAM: The Open Source CFD Toolbox           |
|  \\    /   O peration     | Version:  2412                                  |
|   \\  /    A nd           | Website:  www.openfoam.com                      |
|    \\/     M anipulation  |                                                 |
\*---------------------------------------------------------------------------*/
FoamFile
{
    version     2.0;
    format      ascii;
    arch        "LSB;label=32;scalar=64";
    class       volScalarField;
    location    "0.5";
    object      nut;
}
// * * * * * * * * * * * * * * * * * * * * * * * * * * * * * * * * * * * * * //

dimensions      [0 2 -1 0 0 0 0];

internalField   nonuniform List<scalar> 
13068
(
0.339427
0.351444
0.370949
0.390153
0.399316
0.395436
0.382202
0.365976
0.351832
0.342283
0.338213
0.339532
0.344671
0.351104
0.356748
0.36096
0.363892
0.366081
0.367804
0.369406
0.370878
0.372452
0.373966
0.375685
0.377324
0.379262
0.381057
0.383271
0.385238
0.387797
0.38996
0.392974
0.395363
0.39897
0.401639
0.406054
0.40912
0.414647
0.418348
0.425299
0.429544
0.437373
0.440976
0.448086
0.449005
0.453912
0.452502
0.459446
0.462121
0.467355
0.466572
0.434941
0.42901
0.343347
0.305519
0.337109
0.379559
0.389791
0.395017
0.387277
0.387269
0.380998
0.381226
0.376153
0.37631
0.373269
0.374502
0.373183
0.374416
0.373625
0.374183
0.372981
0.372318
0.370366
0.368632
0.366049
0.363703
0.361192
0.359241
0.357618
0.356545
0.355864
0.355467
0.35529
0.355003
0.354764
0.354147
0.353596
0.352541
0.351708
0.350307
0.349333
0.34775
0.346757
0.345231
0.344323
0.343308
0.342774
0.339839
0.339381
0.351292
0.370695
0.389912
0.399222
0.395566
0.382571
0.36654
0.3525
0.342956
0.338811
0.339999
0.344984
0.351281
0.356832
0.360994
0.363905
0.366088
0.367814
0.369419
0.370895
0.372474
0.37399
0.375713
0.377355
0.379295
0.381092
0.383308
0.385277
0.387839
0.390003
0.393019
0.395411
0.399021
0.401694
0.406113
0.409183
0.414711
0.418413
0.425358
0.429597
0.437415
0.441011
0.448114
0.449043
0.453958
0.45257
0.459478
0.462121
0.467235
0.466388
0.434492
0.428164
0.342331
0.304917
0.336807
0.379344
0.38972
0.395048
0.387357
0.387355
0.381066
0.381271
0.376192
0.376351
0.373312
0.374538
0.373207
0.374427
0.373627
0.374177
0.372973
0.37231
0.37036
0.368632
0.366056
0.363718
0.361214
0.359266
0.357644
0.356569
0.355883
0.355479
0.355293
0.354998
0.354752
0.354127
0.35357
0.352509
0.351667
0.350258
0.349269
0.347672
0.346656
0.345109
0.344171
0.343125
0.342562
0.339634
0.339336
0.351139
0.370439
0.38967
0.399125
0.395694
0.38294
0.367102
0.353164
0.343625
0.339404
0.34046
0.345292
0.351455
0.356914
0.361027
0.363918
0.366096
0.367823
0.369432
0.370912
0.372495
0.374015
0.375741
0.377385
0.379328
0.381128
0.383346
0.385316
0.38788
0.390046
0.393065
0.39546
0.399072
0.401749
0.406171
0.409246
0.414775
0.418477
0.425417
0.429649
0.437457
0.441046
0.448143
0.449081
0.454004
0.452638
0.459511
0.462121
0.467116
0.466205
0.434042
0.427318
0.341308
0.304297
0.336485
0.379128
0.389656
0.39509
0.387445
0.387448
0.381139
0.381319
0.376233
0.376393
0.373356
0.374575
0.373233
0.37444
0.373629
0.374172
0.372964
0.372302
0.370356
0.368632
0.366063
0.363733
0.361235
0.359292
0.35767
0.356593
0.355901
0.35549
0.355297
0.354993
0.354739
0.354108
0.353544
0.352477
0.351626
0.350209
0.349206
0.347595
0.346556
0.344988
0.344019
0.342943
0.342351
0.33943
0.339291
0.350987
0.370183
0.389424
0.399026
0.395821
0.383307
0.367662
0.353825
0.344288
0.33999
0.340916
0.345597
0.351626
0.356995
0.36106
0.363931
0.366104
0.367832
0.369445
0.370929
0.372516
0.374039
0.375769
0.377416
0.379361
0.381163
0.383383
0.385355
0.387921
0.390089
0.39311
0.395507
0.399123
0.401804
0.40623
0.409308
0.414839
0.418541
0.425475
0.429701
0.437498
0.441081
0.448171
0.449118
0.454049
0.452705
0.459542
0.46212
0.466996
0.466021
0.433591
0.426472
0.340279
0.30366
0.336147
0.378912
0.389601
0.395143
0.387543
0.387548
0.381216
0.381369
0.376276
0.376437
0.3734
0.374613
0.37326
0.374454
0.373632
0.374167
0.372956
0.372295
0.370351
0.368633
0.366071
0.363748
0.361256
0.359317
0.357696
0.356617
0.35592
0.355501
0.3553
0.354988
0.354727
0.354089
0.353518
0.352445
0.351586
0.35016
0.349143
0.347518
0.346457
0.344867
0.343868
0.342763
0.342141
0.339228
0.339246
0.350835
0.369926
0.389176
0.398924
0.395945
0.383673
0.368219
0.354482
0.344946
0.34057
0.341366
0.345897
0.351795
0.357075
0.361093
0.363944
0.366112
0.367841
0.369458
0.370946
0.372537
0.374064
0.375796
0.377446
0.379394
0.381197
0.38342
0.385394
0.387962
0.390132
0.393155
0.395555
0.399173
0.401858
0.406287
0.40937
0.414902
0.418605
0.425532
0.429753
0.437539
0.441116
0.448199
0.449154
0.454093
0.45277
0.459572
0.462117
0.466875
0.465836
0.433139
0.425625
0.339242
0.303006
0.335794
0.378697
0.389556
0.395206
0.387649
0.387655
0.381298
0.381423
0.37632
0.376481
0.373446
0.374652
0.373287
0.374468
0.373636
0.374163
0.372949
0.372287
0.370347
0.368634
0.366079
0.363764
0.361278
0.359342
0.357722
0.356641
0.355939
0.355513
0.355303
0.354984
0.354715
0.354071
0.353493
0.352413
0.351546
0.350112
0.34908
0.347441
0.346358
0.344747
0.343718
0.342583
0.341932
0.339028
0.339201
0.350683
0.369667
0.388926
0.398819
0.396066
0.384035
0.368773
0.355135
0.345598
0.341144
0.341811
0.346194
0.351962
0.357154
0.361125
0.363957
0.366119
0.36785
0.369471
0.370963
0.372558
0.374088
0.375823
0.377475
0.379426
0.381232
0.383456
0.385433
0.388002
0.390174
0.393199
0.395602
0.399223
0.401912
0.406344
0.409431
0.414964
0.418667
0.425589
0.429803
0.437579
0.441149
0.448226
0.449189
0.454137
0.452834
0.459601
0.462113
0.466754
0.465651
0.432685
0.424777
0.338198
0.302335
0.335427
0.378486
0.389521
0.395281
0.387764
0.387768
0.381383
0.381479
0.376366
0.376527
0.373492
0.374691
0.373315
0.374483
0.37364
0.374158
0.372941
0.37228
0.370342
0.368635
0.366087
0.363779
0.361299
0.359366
0.357747
0.356664
0.355957
0.355524
0.355307
0.354979
0.354703
0.354052
0.353467
0.352382
0.351506
0.350063
0.349018
0.347365
0.346259
0.344627
0.343569
0.342405
0.341726
0.338828
0.339157
0.350531
0.369409
0.388673
0.398711
0.396185
0.384396
0.369325
0.355783
0.346245
0.341712
0.34225
0.346486
0.352127
0.357232
0.361156
0.363969
0.366127
0.367859
0.369483
0.370979
0.372578
0.374112
0.37585
0.377505
0.379458
0.381266
0.383492
0.385471
0.388042
0.390216
0.393243
0.395648
0.399273
0.401965
0.406401
0.409491
0.415025
0.418729
0.425645
0.429853
0.437618
0.441182
0.448252
0.449224
0.454179
0.452896
0.459628
0.462108
0.466632
0.465466
0.432231
0.423929
0.337146
0.301648
0.335048
0.378279
0.389498
0.395367
0.387888
0.387887
0.381473
0.381537
0.376413
0.376573
0.37354
0.374732
0.373344
0.374498
0.373644
0.374154
0.372933
0.372273
0.370338
0.368637
0.366095
0.363794
0.36132
0.359391
0.357773
0.356688
0.355976
0.355536
0.35531
0.354975
0.354691
0.354034
0.353442
0.352351
0.351467
0.350015
0.348956
0.347289
0.346161
0.344508
0.343421
0.342228
0.34152
0.338631
0.339112
0.35038
0.369149
0.388418
0.3986
0.396301
0.384754
0.369873
0.356427
0.346885
0.342274
0.342684
0.346775
0.352289
0.357309
0.361188
0.363981
0.366134
0.367867
0.369495
0.370995
0.372598
0.374135
0.375877
0.377534
0.379489
0.381299
0.383528
0.385508
0.388082
0.390257
0.393286
0.395694
0.399321
0.402017
0.406456
0.40955
0.415086
0.418789
0.4257
0.429902
0.437657
0.441215
0.448278
0.449257
0.454219
0.452957
0.459654
0.462101
0.46651
0.465279
0.431776
0.42308
0.336086
0.300945
0.334659
0.378078
0.389488
0.395465
0.388021
0.388013
0.381567
0.381599
0.376462
0.376621
0.373588
0.374773
0.373373
0.374514
0.373648
0.37415
0.372926
0.372266
0.370334
0.368638
0.366103
0.36381
0.361341
0.359415
0.357798
0.356711
0.355994
0.355548
0.355314
0.354971
0.35468
0.354016
0.353417
0.35232
0.351427
0.349967
0.348894
0.347213
0.346063
0.344389
0.343273
0.342052
0.341316
0.338434
0.339069
0.35023
0.368889
0.388161
0.398486
0.396414
0.385109
0.370418
0.357066
0.34752
0.34283
0.343113
0.34706
0.352449
0.357385
0.361218
0.363993
0.366141
0.367876
0.369507
0.371011
0.372618
0.374158
0.375903
0.377562
0.37952
0.381332
0.383563
0.385545
0.388121
0.390297
0.393329
0.395739
0.399369
0.402069
0.406511
0.409609
0.415146
0.418849
0.425754
0.42995
0.437695
0.441246
0.448303
0.44929
0.454259
0.453016
0.459679
0.462093
0.466387
0.465093
0.43132
0.422231
0.335019
0.300226
0.334262
0.377884
0.38949
0.395576
0.388164
0.388145
0.381666
0.381662
0.376513
0.376669
0.373636
0.374815
0.373404
0.374531
0.373653
0.374146
0.372918
0.372259
0.37033
0.368639
0.366112
0.363825
0.361362
0.359439
0.357822
0.356734
0.356012
0.355559
0.355318
0.354967
0.354669
0.353998
0.353393
0.352289
0.351388
0.349919
0.348832
0.347138
0.345966
0.344271
0.343126
0.341876
0.341113
0.338239
0.339025
0.350079
0.368629
0.387901
0.39837
0.396524
0.385461
0.370959
0.3577
0.348149
0.343379
0.343536
0.347341
0.352607
0.35746
0.361248
0.364004
0.366147
0.367884
0.369519
0.371027
0.372637
0.374181
0.375928
0.377591
0.379551
0.381365
0.383598
0.385582
0.388159
0.390337
0.393371
0.395783
0.399416
0.40212
0.406565
0.409667
0.415204
0.418908
0.425808
0.429998
0.437732
0.441277
0.448327
0.449322
0.454298
0.453074
0.459703
0.462083
0.466263
0.464905
0.430863
0.421382
0.333944
0.299492
0.333857
0.3777
0.389506
0.395699
0.388316
0.388284
0.381768
0.381729
0.376565
0.376719
0.373686
0.374858
0.373434
0.374548
0.373658
0.374143
0.37291
0.372252
0.370326
0.368641
0.36612
0.36384
0.361382
0.359463
0.357847
0.356756
0.35603
0.355571
0.355322
0.354963
0.354657
0.35398
0.353368
0.352258
0.351349
0.349872
0.348771
0.347063
0.345869
0.344153
0.34298
0.341702
0.340911
0.338045
0.338982
0.34993
0.368368
0.387639
0.39825
0.396632
0.385811
0.371497
0.358329
0.348772
0.343922
0.343953
0.347618
0.352763
0.357534
0.361278
0.364015
0.366154
0.367891
0.36953
0.371042
0.372656
0.374203
0.375954
0.377618
0.379581
0.381397
0.383632
0.385617
0.388197
0.390377
0.393412
0.395827
0.399463
0.40217
0.406619
0.409724
0.415262
0.418966
0.42586
0.430044
0.437768
0.441306
0.44835
0.449352
0.454336
0.45313
0.459725
0.462072
0.466139
0.464718
0.430406
0.420532
0.332861
0.298744
0.333447
0.377525
0.389537
0.395836
0.388478
0.388429
0.381874
0.381798
0.376618
0.37677
0.373736
0.374901
0.373466
0.374565
0.373664
0.374139
0.372903
0.372245
0.370322
0.368642
0.366128
0.363855
0.361403
0.359487
0.357871
0.356779
0.356048
0.355582
0.355325
0.354959
0.354646
0.353962
0.353344
0.352228
0.35131
0.349824
0.34871
0.346988
0.345772
0.344036
0.342835
0.341529
0.340711
0.337852
0.338939
0.34978
0.368106
0.387375
0.398127
0.396736
0.386158
0.372031
0.358954
0.349389
0.344459
0.344366
0.347891
0.352916
0.357606
0.361307
0.364026
0.36616
0.367899
0.369542
0.371057
0.372675
0.374225
0.375979
0.377646
0.379611
0.381429
0.383666
0.385653
0.388234
0.390416
0.393453
0.39587
0.399509
0.40222
0.406671
0.40978
0.415319
0.419023
0.425911
0.43009
0.437803
0.441335
0.448373
0.449382
0.454372
0.453184
0.459745
0.46206
0.466015
0.46453
0.429948
0.419684
0.33177
0.297981
0.333032
0.377363
0.389584
0.395985
0.388648
0.388581
0.381984
0.381869
0.376672
0.376821
0.373787
0.374945
0.373498
0.374583
0.37367
0.374136
0.372896
0.372238
0.370319
0.368644
0.366136
0.36387
0.361423
0.35951
0.357895
0.356801
0.356066
0.355593
0.355329
0.354956
0.354635
0.353945
0.35332
0.352197
0.351272
0.349777
0.348649
0.346913
0.345676
0.34392
0.34269
0.341357
0.340512
0.337661
0.338896
0.349631
0.367844
0.387109
0.398001
0.396838
0.386502
0.372562
0.359573
0.35
0.34499
0.344773
0.348161
0.353068
0.357678
0.361336
0.364037
0.366166
0.367906
0.369552
0.371072
0.372694
0.374247
0.376003
0.377673
0.37964
0.38146
0.383699
0.385688
0.388271
0.390454
0.393493
0.395912
0.399554
0.402268
0.406723
0.409835
0.415376
0.419079
0.425962
0.430134
0.437838
0.441364
0.448395
0.449411
0.454408
0.453237
0.459765
0.462046
0.46589
0.464341
0.429491
0.418835
0.330672
0.297204
0.332615
0.377213
0.389646
0.396148
0.388828
0.388738
0.382098
0.381943
0.376728
0.376873
0.373838
0.37499
0.37353
0.374601
0.373676
0.374133
0.372888
0.372231
0.370315
0.368646
0.366144
0.363885
0.361443
0.359533
0.357919
0.356823
0.356084
0.355605
0.355333
0.354952
0.354624
0.353927
0.353296
0.352167
0.351233
0.34973
0.348588
0.346838
0.34558
0.343803
0.342546
0.341185
0.340314
0.33747
0.338853
0.349483
0.367582
0.386841
0.397872
0.396937
0.386843
0.373089
0.360188
0.350605
0.345514
0.345174
0.348427
0.353217
0.357749
0.361364
0.364047
0.366172
0.367914
0.369563
0.371087
0.372712
0.374268
0.376027
0.377699
0.379669
0.381491
0.383732
0.385722
0.388307
0.390492
0.393533
0.395954
0.399598
0.402316
0.406774
0.40989
0.415431
0.419134
0.426011
0.430178
0.437871
0.441391
0.448416
0.449438
0.454442
0.453288
0.459783
0.462031
0.465764
0.464153
0.429033
0.417987
0.329566
0.296414
0.332197
0.377077
0.389726
0.396324
0.389018
0.388902
0.382215
0.382019
0.376785
0.376926
0.37389
0.375035
0.373563
0.37462
0.373682
0.374129
0.372881
0.372224
0.370311
0.368647
0.366152
0.3639
0.361463
0.359556
0.357942
0.356845
0.356102
0.355616
0.355337
0.354949
0.354614
0.35391
0.353272
0.352137
0.351195
0.349683
0.348527
0.346764
0.345485
0.343687
0.342403
0.341015
0.340117
0.337281
0.338811
0.349335
0.36732
0.386571
0.397741
0.397033
0.387181
0.373612
0.360797
0.351203
0.346033
0.345571
0.348689
0.353364
0.357818
0.361392
0.364057
0.366178
0.36792
0.369573
0.371101
0.372729
0.374289
0.376051
0.377725
0.379697
0.381521
0.383764
0.385756
0.388343
0.390529
0.393572
0.395995
0.399642
0.402364
0.406824
0.409943
0.415485
0.419188
0.42606
0.43022
0.437904
0.441417
0.448436
0.449465
0.454475
0.453338
0.4598
0.462015
0.465639
0.463964
0.428575
0.417141
0.328452
0.29561
0.331779
0.376957
0.389822
0.396514
0.389217
0.389071
0.382336
0.382097
0.376844
0.37698
0.373943
0.37508
0.373596
0.374639
0.373688
0.374126
0.372873
0.372217
0.370307
0.368649
0.36616
0.363915
0.361482
0.359578
0.357965
0.356866
0.356119
0.355628
0.355341
0.354945
0.354603
0.353893
0.353248
0.352107
0.351156
0.349636
0.348467
0.34669
0.34539
0.343572
0.34226
0.340845
0.339921
0.337093
0.338769
0.349188
0.367057
0.386299
0.397606
0.397127
0.387516
0.374132
0.361402
0.351796
0.346545
0.345962
0.348948
0.353509
0.357887
0.361419
0.364067
0.366183
0.367927
0.369583
0.371114
0.372747
0.374309
0.376075
0.377751
0.379725
0.381551
0.383796
0.385789
0.388378
0.390566
0.39361
0.396036
0.399685
0.40241
0.406874
0.409996
0.415538
0.419241
0.426108
0.430262
0.437936
0.441443
0.448455
0.449491
0.454508
0.453386
0.459816
0.461998
0.465513
0.463776
0.428118
0.416295
0.327331
0.294795
0.331363
0.376853
0.389937
0.396718
0.389424
0.389247
0.38246
0.382177
0.376903
0.377034
0.373995
0.375126
0.373629
0.374658
0.373695
0.374123
0.372866
0.37221
0.370303
0.36865
0.366168
0.363929
0.361501
0.3596
0.357988
0.356887
0.356136
0.355639
0.355345
0.354942
0.354592
0.353876
0.353224
0.352078
0.351118
0.34959
0.348406
0.346616
0.345295
0.343457
0.342118
0.340676
0.339727
0.336907
0.338727
0.349041
0.366794
0.386025
0.397469
0.397217
0.387848
0.374647
0.362001
0.352383
0.347051
0.346348
0.349203
0.353652
0.357954
0.361446
0.364077
0.366188
0.367934
0.369593
0.371128
0.372764
0.37433
0.376097
0.377776
0.379753
0.38158
0.383827
0.385822
0.388412
0.390601
0.393648
0.396075
0.399728
0.402456
0.406922
0.410048
0.415591
0.419293
0.426155
0.430303
0.437967
0.441468
0.448474
0.449516
0.454539
0.453433
0.45983
0.461979
0.465387
0.463588
0.427662
0.415452
0.326203
0.293968
0.330951
0.376767
0.39007
0.396935
0.389641
0.389428
0.382588
0.38226
0.376964
0.377089
0.374049
0.375172
0.373663
0.374678
0.373702
0.37412
0.372859
0.372203
0.370299
0.368652
0.366176
0.363943
0.36152
0.359622
0.35801
0.356908
0.356154
0.35565
0.355349
0.354939
0.354582
0.353859
0.353201
0.352048
0.35108
0.349543
0.348346
0.346542
0.3452
0.343343
0.341977
0.340508
0.339533
0.336721
0.338686
0.348895
0.366531
0.38575
0.397329
0.397304
0.388177
0.375159
0.362595
0.352964
0.347551
0.346729
0.349454
0.353793
0.35802
0.361472
0.364086
0.366193
0.36794
0.369603
0.371141
0.372781
0.374349
0.37612
0.377801
0.37978
0.381609
0.383858
0.385855
0.388446
0.390637
0.393685
0.396115
0.39977
0.402501
0.40697
0.410099
0.415642
0.419344
0.4262
0.430343
0.437998
0.441492
0.448492
0.44954
0.45457
0.453479
0.459844
0.461959
0.465261
0.463399
0.427206
0.41461
0.325068
0.293129
0.330544
0.3767
0.390221
0.397166
0.389867
0.389614
0.382719
0.382344
0.377026
0.377145
0.374102
0.375218
0.373697
0.374698
0.373708
0.374118
0.372851
0.372196
0.370296
0.368653
0.366183
0.363957
0.361539
0.359644
0.358032
0.356929
0.35617
0.355661
0.355353
0.354935
0.354572
0.353842
0.353177
0.352018
0.351042
0.349497
0.348286
0.346469
0.345106
0.343228
0.341836
0.340341
0.339341
0.336536
0.338645
0.348749
0.366268
0.385472
0.397186
0.397389
0.388503
0.375666
0.363183
0.353538
0.348045
0.347105
0.349702
0.353932
0.358086
0.361498
0.364095
0.366198
0.367946
0.369612
0.371154
0.372797
0.374369
0.376142
0.377826
0.379806
0.381637
0.383888
0.385886
0.388479
0.390672
0.393721
0.396153
0.399811
0.402545
0.407017
0.410149
0.415693
0.419395
0.426245
0.430382
0.438027
0.441516
0.44851
0.449564
0.454599
0.453523
0.459856
0.461939
0.465136
0.463211
0.426751
0.41377
0.323926
0.292281
0.330143
0.376653
0.390392
0.397412
0.390102
0.389805
0.382853
0.38243
0.377088
0.377201
0.374156
0.375265
0.373731
0.374718
0.373716
0.374115
0.372844
0.372189
0.370292
0.368655
0.366191
0.363971
0.361557
0.359665
0.358053
0.356949
0.356187
0.355672
0.355357
0.354932
0.354561
0.353826
0.353154
0.351989
0.351004
0.34945
0.348227
0.346396
0.345012
0.343115
0.341696
0.340175
0.33915
0.336353
0.338604
0.348604
0.366005
0.385193
0.39704
0.39747
0.388826
0.376169
0.363767
0.354106
0.348533
0.347476
0.349946
0.354069
0.35815
0.361523
0.364104
0.366203
0.367951
0.369621
0.371167
0.372813
0.374388
0.376164
0.37785
0.379833
0.381665
0.383918
0.385917
0.388512
0.390706
0.393757
0.396191
0.399851
0.402589
0.407064
0.410198
0.415743
0.419444
0.426289
0.430421
0.438056
0.441539
0.448526
0.449586
0.454628
0.453566
0.459867
0.461917
0.46501
0.463023
0.426297
0.412933
0.322778
0.291422
0.32975
0.376627
0.390583
0.39767
0.390345
0.390002
0.38299
0.382518
0.377152
0.377258
0.37421
0.375311
0.373766
0.374738
0.373723
0.374112
0.372836
0.372182
0.370287
0.368656
0.366198
0.363985
0.361575
0.359685
0.358075
0.35697
0.356204
0.355683
0.355361
0.354929
0.354551
0.353809
0.353131
0.35196
0.350967
0.349404
0.348167
0.346323
0.344918
0.343001
0.341557
0.340009
0.338959
0.33617
0.338564
0.34846
0.365742
0.384912
0.396892
0.397549
0.389145
0.376669
0.364345
0.354669
0.349015
0.347841
0.350187
0.354204
0.358214
0.361548
0.364113
0.366207
0.367957
0.36963
0.371179
0.372829
0.374407
0.376185
0.377873
0.379858
0.381693
0.383947
0.385948
0.388544
0.390739
0.393792
0.396228
0.39989
0.402631
0.407109
0.410247
0.415792
0.419492
0.426332
0.430458
0.438084
0.44156
0.448542
0.449608
0.454655
0.453608
0.459877
0.461894
0.464884
0.462836
0.425845
0.412098
0.321624
0.290555
0.329367
0.376623
0.390793
0.397943
0.390596
0.390203
0.383129
0.382608
0.377216
0.377315
0.374264
0.375358
0.3738
0.374758
0.37373
0.37411
0.372829
0.372174
0.370283
0.368657
0.366205
0.363998
0.361593
0.359706
0.358096
0.356989
0.35622
0.355694
0.355365
0.354926
0.354541
0.353793
0.353108
0.35193
0.350929
0.349358
0.348107
0.34625
0.344825
0.342888
0.341418
0.339844
0.33877
0.335989
0.338524
0.348316
0.365479
0.38463
0.396741
0.397625
0.389461
0.377164
0.364917
0.355225
0.349491
0.348202
0.350424
0.354336
0.358276
0.361573
0.364121
0.366211
0.367962
0.369638
0.371191
0.372844
0.374425
0.376206
0.377896
0.379883
0.381719
0.383976
0.385978
0.388576
0.390772
0.393827
0.396264
0.399929
0.402673
0.407154
0.410294
0.415839
0.41954
0.426375
0.430494
0.438111
0.441582
0.448558
0.449629
0.454682
0.453648
0.459886
0.461871
0.464758
0.462649
0.425394
0.411267
0.320465
0.289679
0.328996
0.376642
0.391024
0.398228
0.390855
0.390408
0.383271
0.382699
0.377281
0.377372
0.374318
0.375405
0.373835
0.374779
0.373737
0.374107
0.372822
0.372167
0.370279
0.368658
0.366212
0.364011
0.36161
0.359726
0.358116
0.357009
0.356236
0.355705
0.355369
0.354923
0.354531
0.353776
0.353085
0.351901
0.350892
0.349312
0.348048
0.346177
0.344732
0.342775
0.341279
0.33968
0.338582
0.335809
0.338484
0.348173
0.365216
0.384346
0.396588
0.397698
0.389774
0.377654
0.365484
0.355775
0.349961
0.348558
0.350658
0.354467
0.358338
0.361597
0.364129
0.366215
0.367967
0.369646
0.371203
0.372859
0.374443
0.376227
0.377919
0.379908
0.381746
0.384004
0.386008
0.388607
0.390804
0.393861
0.3963
0.399968
0.402715
0.407198
0.410341
0.415886
0.419586
0.426416
0.43053
0.438138
0.441602
0.448573
0.449649
0.454708
0.453687
0.459895
0.461846
0.464633
0.462463
0.424946
0.41044
0.3193
0.288796
0.328637
0.376684
0.391274
0.398527
0.391122
0.390619
0.383415
0.382791
0.377347
0.37743
0.374373
0.375452
0.37387
0.374799
0.373745
0.374104
0.372814
0.37216
0.370275
0.368659
0.366219
0.364024
0.361628
0.359745
0.358136
0.357028
0.356252
0.355715
0.355373
0.35492
0.354521
0.35376
0.353062
0.351872
0.350854
0.349266
0.347989
0.346104
0.344639
0.342663
0.341142
0.339517
0.338395
0.335629
0.338444
0.348031
0.364953
0.384061
0.396431
0.397768
0.390084
0.378141
0.366046
0.356318
0.350425
0.348908
0.350888
0.354596
0.358398
0.36162
0.364137
0.366218
0.367972
0.369654
0.371214
0.372874
0.37446
0.376247
0.377941
0.379932
0.381772
0.384031
0.386037
0.388638
0.390836
0.393894
0.396335
0.400005
0.402755
0.407241
0.410386
0.415933
0.419632
0.426456
0.430565
0.438163
0.441622
0.448587
0.449668
0.454733
0.453725
0.459902
0.461821
0.464508
0.462277
0.424499
0.409616
0.318131
0.287907
0.328293
0.376752
0.391545
0.398839
0.391397
0.390833
0.383562
0.382885
0.377414
0.377488
0.374427
0.375499
0.373904
0.37482
0.373752
0.374102
0.372807
0.372153
0.37027
0.368659
0.366225
0.364036
0.361644
0.359765
0.358156
0.357047
0.356268
0.355726
0.355377
0.354917
0.354511
0.353744
0.353039
0.351843
0.350817
0.34922
0.34793
0.346032
0.344547
0.342551
0.341004
0.339355
0.338209
0.335451
0.338405
0.347889
0.36469
0.383775
0.396273
0.397835
0.39039
0.378623
0.366602
0.356856
0.350883
0.349254
0.351115
0.354723
0.358457
0.361643
0.364144
0.366222
0.367976
0.369662
0.371225
0.372888
0.374478
0.376267
0.377963
0.379956
0.381797
0.384059
0.386065
0.388668
0.390867
0.393926
0.396369
0.400042
0.402795
0.407283
0.410431
0.415978
0.419676
0.426496
0.430598
0.438188
0.441641
0.4486
0.449687
0.454758
0.453762
0.459908
0.461795
0.464384
0.462093
0.424055
0.408797
0.316958
0.287013
0.327964
0.376845
0.391837
0.399164
0.391679
0.39105
0.38371
0.38298
0.377481
0.377546
0.374481
0.375546
0.373939
0.37484
0.373759
0.374099
0.372799
0.372145
0.370266
0.36866
0.366232
0.364048
0.361661
0.359783
0.358176
0.357066
0.356283
0.355736
0.355381
0.354914
0.354501
0.353728
0.353017
0.351814
0.35078
0.349175
0.347871
0.34596
0.344454
0.34244
0.340868
0.339193
0.338024
0.335274
0.338366
0.347748
0.364428
0.383487
0.396112
0.397899
0.390693
0.379101
0.367153
0.357388
0.351335
0.349595
0.351339
0.354847
0.358516
0.361666
0.364151
0.366225
0.367981
0.369669
0.371236
0.372903
0.374494
0.376286
0.377984
0.37998
0.381822
0.384085
0.386093
0.388697
0.390898
0.393958
0.396403
0.400078
0.402834
0.407325
0.410475
0.416022
0.41972
0.426534
0.430632
0.438212
0.441659
0.448613
0.449705
0.454781
0.453797
0.459914
0.461768
0.464259
0.461908
0.423613
0.407982
0.315781
0.286114
0.327653
0.376964
0.392149
0.399501
0.391968
0.391272
0.38386
0.383076
0.377548
0.377604
0.374536
0.375593
0.373974
0.374861
0.373767
0.374097
0.372792
0.372138
0.370261
0.36866
0.366238
0.36406
0.361677
0.359802
0.358195
0.357084
0.356299
0.355747
0.355385
0.354911
0.354492
0.353712
0.352994
0.351786
0.350743
0.349129
0.347812
0.345888
0.344362
0.342329
0.340732
0.339032
0.337839
0.335098
0.338327
0.347608
0.364166
0.383198
0.395948
0.39796
0.390992
0.379574
0.367698
0.357913
0.351782
0.349931
0.351559
0.35497
0.358573
0.361688
0.364158
0.366228
0.367985
0.369676
0.371246
0.372916
0.374511
0.376305
0.378005
0.380002
0.381847
0.384111
0.386121
0.388726
0.390928
0.39399
0.396436
0.400114
0.402873
0.407366
0.410519
0.416066
0.419763
0.426572
0.430664
0.438236
0.441677
0.448626
0.449722
0.454804
0.453832
0.459919
0.46174
0.464136
0.461725
0.423174
0.407173
0.314602
0.285212
0.327362
0.37711
0.392481
0.39985
0.392263
0.391496
0.384012
0.383173
0.377616
0.377663
0.37459
0.375639
0.374008
0.374881
0.373774
0.374094
0.372784
0.37213
0.370257
0.36866
0.366243
0.364072
0.361692
0.35982
0.358214
0.357102
0.356314
0.355757
0.355388
0.354908
0.354482
0.353696
0.352972
0.351757
0.350706
0.349084
0.347753
0.345816
0.344271
0.342218
0.340596
0.338872
0.337656
0.334922
0.338289
0.347469
0.363905
0.382907
0.395782
0.398019
0.391288
0.380043
0.368237
0.358432
0.352222
0.350263
0.351776
0.355091
0.35863
0.361709
0.364165
0.366231
0.367988
0.369683
0.371256
0.37293
0.374527
0.376324
0.378026
0.380025
0.381871
0.384137
0.386148
0.388754
0.390957
0.394021
0.396469
0.400148
0.40291
0.407406
0.410561
0.416108
0.419805
0.426609
0.430695
0.438259
0.441694
0.448638
0.449739
0.454826
0.453865
0.459923
0.461712
0.464013
0.461543
0.422738
0.406368
0.31342
0.284307
0.32709
0.377284
0.392833
0.400211
0.392564
0.391724
0.384165
0.383271
0.377685
0.377721
0.374644
0.375686
0.374042
0.374902
0.373781
0.374092
0.372776
0.372123
0.370252
0.36866
0.366249
0.364083
0.361708
0.359838
0.358232
0.357119
0.356329
0.355767
0.355392
0.354905
0.354472
0.35368
0.352949
0.351729
0.350669
0.349038
0.347695
0.345744
0.344179
0.342107
0.340461
0.338712
0.337474
0.334748
0.338251
0.34733
0.363644
0.382616
0.395614
0.398074
0.391581
0.380507
0.368771
0.358945
0.352657
0.350589
0.351989
0.35521
0.358686
0.36173
0.364171
0.366233
0.367992
0.36969
0.371266
0.372943
0.374543
0.376342
0.378046
0.380047
0.381894
0.384162
0.386174
0.388782
0.390986
0.394051
0.396501
0.400183
0.402947
0.407445
0.410603
0.41615
0.419846
0.426645
0.430726
0.438281
0.441711
0.448649
0.449755
0.454848
0.453898
0.459926
0.461683
0.46389
0.461362
0.422305
0.405569
0.312237
0.283401
0.326842
0.377486
0.393206
0.400583
0.392871
0.391954
0.38432
0.38337
0.377753
0.37778
0.374698
0.375732
0.374076
0.374922
0.373789
0.374089
0.372769
0.372115
0.370247
0.36866
0.366254
0.364094
0.361723
0.359855
0.35825
0.357137
0.356343
0.355777
0.355396
0.354902
0.354463
0.353665
0.352927
0.3517
0.350632
0.348993
0.347636
0.345673
0.344088
0.341997
0.340327
0.338554
0.337293
0.334575
0.338213
0.347192
0.363383
0.382324
0.395444
0.398127
0.39187
0.380966
0.369299
0.359452
0.353086
0.350911
0.3522
0.355328
0.35874
0.361751
0.364177
0.366235
0.367995
0.369696
0.371276
0.372955
0.374558
0.37636
0.378066
0.380069
0.381917
0.384187
0.3862
0.388809
0.391014
0.39408
0.396532
0.400216
0.402984
0.407484
0.410644
0.416191
0.419886
0.42668
0.430756
0.438302
0.441727
0.44866
0.44977
0.454869
0.453929
0.459928
0.461654
0.463769
0.461182
0.421875
0.404776
0.311052
0.282495
0.326616
0.377716
0.393598
0.400965
0.393183
0.392186
0.384475
0.383469
0.377822
0.377838
0.374751
0.375778
0.37411
0.374942
0.373796
0.374087
0.372761
0.372107
0.370242
0.36866
0.366259
0.364104
0.361737
0.359872
0.358268
0.357154
0.356358
0.355787
0.355399
0.354899
0.354453
0.353649
0.352905
0.351672
0.350596
0.348948
0.347578
0.345601
0.343998
0.341887
0.340193
0.338396
0.337112
0.334403
0.338176
0.347055
0.363123
0.382031
0.395271
0.398177
0.392155
0.381422
0.369821
0.359953
0.353509
0.351228
0.352407
0.355443
0.358794
0.361771
0.364183
0.366238
0.367999
0.369702
0.371285
0.372968
0.374573
0.376377
0.378085
0.38009
0.38194
0.384211
0.386225
0.388836
0.391042
0.394109
0.396563
0.400249
0.403019
0.407522
0.410684
0.416231
0.419925
0.426715
0.430785
0.438323
0.441742
0.44867
0.449785
0.454889
0.45396
0.45993
0.461625
0.463648
0.461003
0.42145
0.40399
0.309867
0.28159
0.326416
0.377974
0.394009
0.401358
0.3935
0.39242
0.384631
0.383569
0.377891
0.377896
0.374804
0.375823
0.374144
0.374963
0.373803
0.374084
0.372753
0.3721
0.370236
0.368659
0.366264
0.364115
0.361751
0.359889
0.358285
0.357171
0.356372
0.355796
0.355403
0.354897
0.354444
0.353633
0.352883
0.351644
0.350559
0.348903
0.34752
0.34553
0.343907
0.341778
0.34006
0.338239
0.336933
0.334231
0.338139
0.346919
0.362863
0.381737
0.395097
0.398225
0.392437
0.381872
0.370338
0.360448
0.353926
0.351541
0.352611
0.355557
0.358847
0.361791
0.364189
0.366239
0.368002
0.369708
0.371294
0.37298
0.374588
0.376394
0.378104
0.380111
0.381962
0.384235
0.38625
0.388862
0.391069
0.394138
0.396593
0.400281
0.403054
0.407559
0.410723
0.416271
0.419964
0.426749
0.430813
0.438344
0.441757
0.44868
0.4498
0.454909
0.45399
0.459932
0.461595
0.463527
0.460826
0.421028
0.40321
0.308683
0.280687
0.326243
0.378262
0.394439
0.40176
0.393821
0.392656
0.384788
0.383669
0.37796
0.377954
0.374857
0.375869
0.374177
0.374982
0.37381
0.374081
0.372746
0.372092
0.370231
0.368658
0.366268
0.364125
0.361765
0.359905
0.358302
0.357187
0.356386
0.355806
0.355407
0.354894
0.354434
0.353618
0.352861
0.351615
0.350522
0.348858
0.347462
0.345459
0.343817
0.341669
0.339927
0.338082
0.336755
0.334061
0.338102
0.346783
0.362605
0.381442
0.39492
0.398269
0.392716
0.382318
0.370849
0.360936
0.354338
0.351849
0.352812
0.355668
0.358899
0.36181
0.364194
0.366241
0.368004
0.369713
0.371303
0.372992
0.374602
0.376411
0.378123
0.380131
0.381984
0.384258
0.386274
0.388887
0.391096
0.394166
0.396622
0.400313
0.403089
0.407596
0.410762
0.416309
0.420002
0.426782
0.430841
0.438363
0.441772
0.44869
0.449814
0.454928
0.454019
0.459932
0.461564
0.463408
0.46065
0.42061
0.402437
0.3075
0.279788
0.326097
0.378579
0.394887
0.402171
0.394147
0.392893
0.384945
0.383769
0.378028
0.378012
0.37491
0.375913
0.37421
0.375002
0.373817
0.374079
0.372738
0.372084
0.370225
0.368657
0.366272
0.364134
0.361779
0.359921
0.358318
0.357203
0.356399
0.355815
0.35541
0.354891
0.354425
0.353603
0.352839
0.351587
0.350486
0.348813
0.347405
0.345388
0.343727
0.341561
0.339795
0.337926
0.336578
0.333892
0.338066
0.346649