/*--------------------------------*- C++ -*----------------------------------*\
| =========                 |                                                 |
| \\      /  F ield         | OpenFOAM: The Open Source CFD Toolbox           |
|  \\    /   O peration     | Version:  2412                                  |
|   \\  /    A nd           | Website:  www.openfoam.com                      |
|    \\/     M anipulation  |                                                 |
\*---------------------------------------------------------------------------*/
FoamFile
{
    version     2.0;
    format      ascii;
    arch        "LSB;label=32;scalar=64";
    class       volScalarField;
    location    "0.5";
    object      p;
}
// * * * * * * * * * * * * * * * * * * * * * * * * * * * * * * * * * * * * * //

dimensions      [0 2 -2 0 0 0 0];

internalField   nonuniform List<scalar> 
13068
(
107724
107698
107657
107589
107520
107415
107324
107195
107084
106920
106771
106556
106373
106114
105907
105595
105361
104980
104722
104250
103971
103382
103090
102344
102053
101093
100826
99574.4
99371.6
97713.2
97640.1
95409.2
95571
92525.5
93089.6
88871.8
90104.7
84180.9
86508.2
78076.5
82180.6
70024.6
77009.2
59256.4
70874.6
44529.9
63399.1
23513.1
53290.8
-8020.43
38158.1
-54813.8
18125.2
-113579
3137.68
-71991.3
9942.69
-35589.6
17515.1
-10745
24422.7
8041.61
31657.9
22683.3
38607
34149.4
45024.5
43203.2
50680.7
50244.2
55395.1
55642.5
59231.7
59804.3
62356
63071.8
64933.9
65711.4
67114.5
67928.8
69019.8
69871
70729.2
71623.8
72274.2
73223.4
73653.1
74683.9
74855.2
76022.2
75874.8
77268.2
76711.3
78463.4
77363.5
79654.8
77826.6
80883.1
78095.6
107719
107693
107653
107585
107517
107413
107322
107193
107083
106918
106769
106554
106371
106112
105905
105593
105359
104977
104719
104248
103969
103379
103088
102341
102050
101090
100823
99570.3
99368.2
97708.4
97636.4
95403.8
95567.1
92519.3
93085.7
88864.7
90101
84172.9
86504.8
78067.5
82178.1
70014.7
77007.6
59245.2
70872.3
44515.3
63392.6
23494.3
53279.4
-8033.24
38152.2
-54781.5
18147.8
-113392
3190.1
-71965.6
9948.37
-35600.9
17517.2
-10751.1
24427.8
8036.72
31661
22677.9
38608.2
34143.6
45023.3
43196.2
50677.2
50236.9
55390.8
55636
59227.8
59799.1
62352.9
63068.2
64931.8
65709.2
67113.4
67927.9
69019.4
69870.7
70728.8
71623.6
72273.4
73223
73651.8
74683.4
74853.4
76021.7
75872.8
77267.9
76709.3
78463.3
77361.9
79654.8
77826
80882.6
78096.8
107714
107688
107648
107581
107513
107410
107320
107191
107081
106916
106767
106552
106369
106110
105903
105591
105357
104975
104717
104245
103967
103377
103085
102338
102047
101086
100820
99566.2
99364.8
97703.8
97632.8
95398.5
95563.3
92513.2
93081.9
88857.6
90097.2
84164.8
86501.4
78058.5
82175.5
70004.8
77005.8
59233.9
70870
44500.9
63386.2
23475.7
53268.3
-8045.77
38146.5
-54749.2
18170.5
-113206
3241.85
-71940.1
9954.22
-35612
17519.4
-10757.2
24432.7
8031.78
31663.9
22672.6
38609.4
34137.8
45022.2
43189.3
50673.9
50229.6
55386.7
55629.6
59223.9
59794.1
62349.9
63064.6
64929.8
65707.1
67112.3
67926.9
69018.9
69870.3
70728.4
71623.3
72272.6
73222.6
73650.5
74682.8
74851.6
76021.2
75870.7
77267.6
76707.3
78463.3
77360.3
79654.8
77825.4
80882
78097.9
107709
107683
107644
107577
107510
107407
107317
107189
107079
106914
106765
106550
106368
106109
105901
105589
105355
104973
104715
104243
103964
103374
103082
102335
102044
101082
100817
99562.2
99361.4
97699.1
97629.2
95393.2
95559.6
92507.1
93078.1
88850.6
90093.5
84156.9
86498.1
78049.6
82173
69994.9
77004.1
59222.7
70867.7
44486.5
63379.9
23457.3
53257.3
-8058.02
38141.1
-54716.9
18193.2
-113022
3292.96
-71914.9
9960.22
-35622.7
17521.8
-10763.3
24437.5
8026.81
31666.8
22667.2
38610.5
34132
45021
43182.5
50670.6
50222.5
55382.6
55623.3
59220.2
59789.1
62346.9
63061.1
64927.8
65705
67111.3
67925.9
69018.4
69870
70727.9
71623.1
72271.8
73222.2
73649.1
74682.2
74849.9
76020.7
75868.7
77267.2
76705.3
78463.2
77358.7
79654.7
77824.7
80881.4
78098.9
107704
107679
107639
107573
107506
107404
107314
107187
107077
106912
106763
106549
106366
106107
105900
105587
105353
104971
104713
104240
103962
103371
103080
102331
102041
101079
100814
99558.2
99358.1
97694.6
97625.6
95387.9
95555.9
92501.1
93074.3
88843.7
90089.8
84149
86494.8
78040.7
82170.4
69985.2
77002.3
59211.5
70865.3
44472.3
63373.7
23439.2
53246.5
-8070.12
38135.8
-54684.7
18215.8
-112840
3343.55
-71889.8
9966.23
-35633.3
17524.1
-10769.4
24442.3
8021.87
31669.7
22661.8
38611.6
34126.3
45019.9
43175.8
50667.3
50215.5
55378.6
55617
59216.5
59784.1
62344
63057.6
64925.8
65702.9
67110.2
67924.9
69017.9
69869.6
70727.5
71622.8
72271
73221.8
73647.8
74681.7
74848.1
76020.1
75866.7
77266.9
76703.3
78463.1
77357.1
79654.5
77824.1
80880.7
78099.9
107699
107674
107635
107569
107503
107401
107312
107185
107075
106910
106762
106547
106364
106105
105898
105585
105351
104969
104711
104238
103960
103368
103077
102328
102038
101075
100810
99554.2
99354.7
97690
97622.1
95382.7
95552.2
92495.1
93070.5
88836.8
90086.2
84141.1
86491.5
78031.9
82167.8
69975.5
77000.6
59200.5
70863
44458.2
63367.5
23421.2
53235.8
-8082.06
38130.5
-54652.7
18238.3
-112660
3393.64
-71864.9
9972.24
-35643.7
17526.5
-10775.3
24447
8016.98
31672.5
22656.5
38612.7
34120.6
45018.7
43169.1
50664
50208.5
55374.6
55610.8
59212.8
59779.2
62341.1
63054.1
64923.9
65700.8
67109.1
67924
69017.4
69869.3
70727
71622.6
72270.2
73221.4
73646.5
74681.1
74846.3
76019.6
75864.7
77266.6
76701.3
78462.9
77355.5
79654.4
77823.4
80880
78101
107694
107669
107631
107565
107499
107398
107309
107182
107073
106908
106760
106545
106363
106103
105896
105583
105349
104966
104709
104236
103957
103366
103075
102325
102035
101072
100807
99550.2
99351.5
97685.5
97618.6
95377.5
95548.5
92489.1
93066.8
88830
90082.5
84133.3
86488.3
78023.2
82165.3
69965.8
76998.8
59189.5
70860.7
44444.1
63361.4
23403.3
53225.2
-8093.87
38125.4
-54620.8
18260.7
-112482
3443.23
-71840.1
9978.25
-35654
17528.9
-10781.2
24451.8
8012.13
31675.4
22651.3
38613.8
34114.9
45017.6
43162.4
50660.8
50201.5
55370.7
55604.7
59209.1
59774.4
62338.2
63050.7
64921.9
65698.7
67108.1
67923
69016.9
69868.9
70726.6
71622.3
72269.4
73221
73645.2
74680.6
74844.6
76019.1
75862.8
77266.3
76699.4
78462.8
77354
79654.2
77822.8
80879.3
78102
107689
107665
107626
107562
107496
107395
107306
107180
107071
106907
106758
106543
106361
106102
105894
105581
105348
104964
104707
104233
103955
103363
103072
102322
102033
101069
100804
99546.3
99348.2
97681
97615.1
95372.4
95544.9
92483.2
93063.1
88823.2
90078.9
84125.6
86485
78014.6
82162.8
69956.3
76997.1
59178.5
70858.4
44430.2
63355.3
23385.6
53214.7
-8105.52
38120.4
-54589.1
18283
-112305
3492.32
-71815.4
9984.28
-35664.1
17531.3
-10787
24456.5
8007.32
31678.2
22646.1
38614.8
34109.3
45016.5
43155.8
50657.6
50194.6
55366.7
55598.6
59205.5
59769.5
62335.3
63047.2
64920
65696.7
67107
67922
69016.4
69868.5
70726.2
71622.1
72268.6
73220.6
73643.9
74680
74842.9
76018.6
75860.8
77265.9
76697.5
78462.7
77352.5
79654.1
77822.2
80878.7
78103
107684
107660
107622
107558
107492
107392
107304
107178
107069
106905
106756
106542
106359
106100
105892
105579
105346
104962
104704
104231
103953
103361
103070
102319
102030
101065
100801
99542.4
99345
97676.6
97611.7
95367.3
95541.3
92477.4
93059.4
88816.5
90075.4
84118
86481.8
78006
82160.3
69946.8
76995.4
59167.7
70856.1
44416.4
63349.2
23368.1
53204.4
-8117.03
38115.5
-54557.5
18305.1
-112129
3540.91
-71790.8
9990.32
-35674
17533.7
-10792.8
24461.1
8002.57
31681
22640.9
38615.9
34103.7
45015.4
43149.3
50654.4
50187.8
55362.9
55592.5
59201.9
59764.8
62332.4
63043.9
64918
65694.7
67106
67921.1
69015.9
69868.2
70725.7
71621.8
72267.8
73220.2
73642.6
74679.5
74841.2
76018
75858.9
77265.6
76695.5
78462.6
77350.9
79653.9
77821.6
80877.9
78104
107679
107656
107618
107554
107489
107389
107301
107176
107067
106903
106755
106540
106358
106098
105891
105577
105344
104960
104702
104228
103950
103358
103067
102316
102027
101062
100798
99538.6
99341.7
97672.2
97608.3
95362.3
95537.7
92471.6
93055.8
88809.8
90071.8
84110.4
86478.6
77997.5
82157.8
69937.4
76993.7
59156.9
70853.8
44402.7
63343.2
23350.7
53194.1
-8128.39
38110.7
-54526.1
18327.1
-111956
3589
-71766.4
9996.38
-35683.8
17536.2
-10798.5
24465.8
7997.85
31683.8
22635.7
38616.9
34098.2
45014.3
43142.8
50651.3
50181
55359
55586.5
59198.3
59760
62329.6
63040.5
64916.1
65692.6
67105
67920.1
69015.4
69867.8
70725.3
71621.6
72267.1
73219.8
73641.3
74679
74839.5
76017.5
75856.9
77265.3
76693.6
78462.4
77349.4
79653.7
77821
80877.2
78105
107674
107651
107613
107550
107485
107386
107299
107174
107065
106901
106753
106538
106356
106096
105889
105575
105342
104958
104700
104226
103948
103355
103065
102313
102024
101058
100795
99534.8
99338.6
97667.8
97604.9
95357.3
95534.1
92465.8
93052.2
88803.2
90068.3
84102.8
86475.5
77989
82155.4
69928.1
76991.9
59146.3
70851.5
44389.1
63337.3
23333.5
53184
-8139.61
38106
-54494.8
18349
-111784
3636.6
-71742.2
10002.5
-35693.5
17538.7
-10804.1
24470.4
7993.18
31686.5
22630.7
38618
34092.7
45013.2
43136.3
50648.2
50174.3
55355.2
55580.6
59194.8
59755.3
62326.8
63037.2
64914.2
65690.6
67103.9
67919.2
69014.9
69867.5
70724.9
71621.3
72266.3
73219.4
73640.1
74678.4
74837.8
76017
75855
77264.9
76691.8
78462.3
77347.9
79653.5
77820.4
80876.5
78106
107670
107647
107609
107547
107482
107384
107296
107172
107063
106900
106751
106537
106354
106095
105887
105573
105340
104956
104698
104224
103946
103353
103062
102311
102022
101055
100793
99531
99335.4
97663.5
97601.5
95352.3
95530.6
92460.1
93048.6
88796.7
90064.8
84095.4
86472.4
77980.6
82152.9
69918.8
76990.2
59135.7
70849.2
44375.6
63331.4
23316.5
53174
-8150.69
38101.4
-54463.8
18370.7
-111614
3683.71
-71718
10008.6
-35703
17541.2
-10809.7
24475
7988.55
31689.3
22625.6
38619
34087.3
45012.1
43129.9
50645.1
50167.6
55351.4
55574.6
59191.2
59750.6
62324
63033.9
64912.4
65688.7
67102.9
67918.2
69014.4
69867.1
70724.4
71621.1
72265.5
73219
73638.8
74677.9
74836.1
76016.5
75853.1
77264.6
76689.9
78462.1
77346.5
79653.3
77819.9
80875.8
78107.1
107665
107643
107605
107543
107479
107381
107294
107170
107061
106898
106749
106535
106353
106093
105886
105571
105338
104954
104696
104222
103944
103350
103060
102308
102019
101052
100790
99527.2
99332.3
97659.2
97598.2
95347.4
95527.1
92454.4
93045
88790.2
90061.4
84088
86469.2
77972.3
82150.5
69909.6
76988.5
59125.2
70846.9
44362.2
63325.6
23299.6
53164.1
-8161.62
38096.9
-54432.8
18392.3
-111446
3730.32
-71694
10014.7
-35712.3
17543.8
-10815.1
24479.6
7983.97
31692
22620.6
38620
34081.9
45011
43123.6
50642
50161
55347.6
55568.8
59187.8
59746
62321.2
63030.6
64910.5
65686.7
67101.9
67917.3
69013.9
69866.7
70724
71620.8
72264.8
73218.6
73637.6
74677.4
74834.5
76016
75851.3
77264.2
76688.1
78462
77345
79653.1
77819.3
80875
78108.1
107660
107638
107601
107539
107475
107378
107292
107168
107059
106896
106748
106533
106351
106091
105884
105570
105336
104952
104694
104219
103941
103348
103057
102305
102016
101049
100787
99523.5
99329.1
97654.9
97594.8
95342.5
95523.7
92448.8
93041.5
88783.7
90057.9
84080.6
86466.2
77964.1
82148.1
69900.5
76986.8
59114.7
70844.7
44348.9
63319.8
23282.8
53154.3
-8172.42
38092.5
-54402.1
18413.8
-111279
3776.45
-71670.1
10020.8
-35721.5
17546.4
-10820.6
24484.2
7979.43
31694.7
22615.6
38621
34076.5
45009.9
43117.3
50639
50154.5
55343.9
55563
59184.3
59741.4
62318.5
63027.3
64908.6
65684.7
67100.9
67916.4
69013.4
69866.4
70723.6
71620.6
72264
73218.2
73636.3
74676.8
74832.8
76015.5
75849.4
77263.9
76686.2
78461.8
77343.5
79652.9
77818.8
80874.3
78109.1
107656
107634
107597
107536
107472
107375
107289
107166
107057
106894
106746
106532
106349
106090
105882
105568
105335
104950
104692
104217
103939
103345
103055
102302
102014
101045
100784
99519.8
99326.1
97650.7
97591.6
95337.6
95520.2
92443.2
93038
88777.3
90054.5
84073.3
86463.1
77955.9
82145.7
69891.5
76985.2
59104.4
70842.5
44335.7
63314.1
23266.2
53144.6
-8183.08
38088.2
-54371.5
18435.2
-111114
3822.09
-71646.4
10027
-35730.5
17549
-10825.9
24488.7
7974.93
31697.4
22610.7
38622
34071.2
45008.8
43111.1
50635.9
50148
55340.2
55557.2
59180.9
59736.8
62315.7
63024.1
64906.8
65682.8
67099.9
67915.4
69012.9
69866
70723.1
71620.3
72263.2
73217.8
73635.1
74676.3
74831.2
76015
75847.5
77263.5
76684.4
78461.6
77342.1
79652.6
77818.3
80873.6
78110.1
107651
107630
107593
107532
107469
107372
107287
107164
107055
106893
106744
106530
106348
106088
105881
105566
105333
104948
104690
104215
103937
103343
103053
102299
102011
101042
100781
99516.2
99323
97646.5
97588.3
95332.8
95516.8
92437.7
93034.5
88771
90051.2
84066.1
86460.1
77947.8
82143.4
69882.5
76983.5
59094.1
70840.2
44322.7
63308.4
23249.8
53135.1
-8193.6
38084
-54341.1
18456.4
-110950
3867.25
-71622.8
10033.2
-35739.3
17551.7
-10831.2
24493.2
7970.48
31700.1
22605.8
38623
34065.9
45007.8
43104.9
50632.9
50141.5
55336.5
55551.5
59177.5
59732.3
62313
63020.9
64905
65680.9
67098.9
67914.5
69012.5
69865.7
70722.7
71620.1
72262.5
73217.4
73633.9
74675.8
74829.6
76014.5
75845.7
77263.2
76682.6
78461.4
77340.7
79652.4
77817.7
80872.8
78111.1
107647
107626
107589
107529
107466
107370
107284
107162
107054
106891
106743
106528
106346
106086
105879
105564
105331
104946
104688
104213
103935
103340
103050
102296
102009
101039
100778
99512.5
99320
97642.4
97585.1
95328.1
95513.4
92432.3
93031.1
88764.7
90047.8
84059
86457.1
77939.8
82141
69873.6
76981.8
59083.9
70838
44309.7
63302.7
23233.5
53125.6
-8203.99
38079.9
-54310.8
18477.5
-110789
3911.92
-71599.3
10039.5
-35748
17554.3
-10836.4
24497.7
7966.07
31702.7
22601
38624
34060.7
45006.7
43098.8
50630
50135.2
55332.8
55545.8
59174.1
59727.8
62310.3
63017.7
64903.2
65678.9
67097.9
67913.6
69012
69865.3
70722.3
71619.9
72261.7
73217
73632.7
74675.3
74828
76014
75843.9
77262.9
76680.8
78461.2
77339.3
79652.1
77817.2
80872
78112.2
107642
107622
107585
107525
107462
107367
107282
107160
107052
106889
106741
106527
106345
106085
105877
105563
105329
104944
104687
104211
103933
103338
103048
102294
102006
101036
100775
99508.9
99317
97638.3
97581.9
95323.3
95510.1
92426.8
93027.7
88758.5
90044.5
84051.9
86454.1
77931.8
82138.7
69864.8
76980.2
59073.8
70835.8
44296.9
63297.2
23217.4
53116.2
-8214.24
38075.9
-54280.8
18498.4
-110629
3956.11
-71575.9
10045.7
-35756.5
17557
-10841.5
24502.2
7961.71
31705.3
22596.2
38625
34055.5
45005.7
43092.7
50627
50128.8
55329.2
55540.2
59170.7
59723.4
62307.7
63014.6
64901.4
65677.1
67096.9
67912.7
69011.5
69865
70721.8
71619.6
72261
73216.7
73631.5
74674.8
74826.4
76013.5
75842.1
77262.5
76679
78461
77337.9
79651.8
77816.7
80871.3
78113.2
107638
107618
107581
107522
107459
107364
107280
107158
107050
106888
106739
106525
106343
106083
105876
105561
105327
104942
104685
104208
103931
103335
103046
102291
102003
101033
100773
99505.4
99314
97634.2
97578.7
95318.7
95506.8
92421.4
93024.3
88752.3
90041.2
84044.8
86451.1
77923.9
82136.4
69856.1
76978.5
59063.8
70833.6
44284.1
63291.7
23201.4
53107
-8224.36
38071.9
-54250.9
18519.2
-110470
3999.82
-71552.6
10052
-35764.9
17559.8
-10846.6
24506.6
7957.39
31708
22591.4
38626
34050.4
45004.6
43086.7
50624.1
50122.5
55325.6
55534.7
59167.4
59719
62305.1
63011.5
64899.6
65675.2
67095.9
67911.8
69011
69864.6
70721.4
71619.4
72260.3
73216.3
73630.3
74674.3
74824.8
76013
75840.3
77262.2
76677.3
78460.8
77336.5
79651.6
77816.3
80870.5
78114.2
107634
107614
107577
107518
107456
107362
107277
107156
107048
106886
106738
106524
106342
106082
105874
105559
105326
104940
104683
104206
103929
103333
103043
102288
102001
101030
100770
99501.8
99311
97630.1
97575.5
95314
95503.5
92416.1
93021
88746.2
90037.9
84037.9
86448.2
77916.1
82134.1
69847.4
76976.9
59053.9
70831.4
44271.5
63286.2
23185.6
53097.9
-8234.34
38068.1
-54221.2
18539.8
-110313
4043.06
-71529.5
10058.4
-35773.1
17562.6
-10851.6
24511
7953.11
31710.6
22586.7
38626.9
34045.3
45003.6
43080.7
50621.2
50116.3
55322.1
55529.1
59164.1
59714.6
62302.4
63008.4
64897.8
65673.3
67094.9
67910.9
69010.5
69864.2
70721
71619.1
72259.5
73215.9
73629.1
74673.8
74823.2
76012.5
75838.5
77261.8
76675.5
78460.6
77335.2
79651.3
77815.8
80869.7
78115.2
107629
107610
107574
107515
107453
107359
107275
107154
107047
106884
106736
106522
106340
106080
105872
105557
105324
104938
104681
104204
103927
103331
103041
102285
101998
101027
100767
99498.3
99308.1
97626.1
97572.4
95309.4
95500.2
92410.8
93017.6
88740.1
90034.7
84031
86445.3
77908.4
82131.8
69838.9
76975.3
59044
70829.2
44259
63280.8
23169.9
53088.8
-8244.2
38064.3
-54191.7
18560.4
-110158
4085.82
-71506.5
10064.8
-35781.1
17565.4
-10856.5
24515.4
7948.87
31713.1
22582.1
38627.8
34040.2
45002.6
43074.8
50618.4
50110.2
55318.6
55523.7
59160.9
59710.3
62299.8
63005.3
64896.1
65671.4
67094
67910
69010
69863.9
70720.6
71618.9
72258.8
73215.5
73627.9
74673.3
74821.7
76012
75836.7
77261.4
76673.8
78460.4
77333.8
79651
77815.3
80868.9
78116.2
107625
107606
107570
107512
107450
107357
107273
107152
107045
106883
106735
106521
106339
106078
105871
105556
105322
104937
104679
104202
103925
103328
103039
102283
101996
101023
100765
99494.8
99305.2
97622.1
97569.3
95304.9
95497
92405.6
93014.4
88734.1
90031.5
84024.1
86442.4
77900.7
82129.5
69830.3
76973.6
59034.3
70827.1
44246.6
63275.4
23154.4
53079.9
-8253.92
38060.6
-54162.4
18580.7
-110004
4128.11
-71483.6
10071.2
-35789
17568.2
-10861.4
24519.8
7944.68
31715.7
22577.4
38628.8
34035.2
45001.6
43068.9
50615.5
50104.1
55315.1
55518.3
59157.6
59706
62297.3
63002.3
64894.3
65669.6
67093
67909.1
69009.6
69863.5
70720.1
71618.6
72258.1
73215.2
73626.8
74672.8
74820.1
76011.5
75835
77261.1
76672.1
78460.2
77332.5
79650.7
77814.9
80868.1
78117.2
107621
107602
107566
107508
107447
107354
107271
107150
107043
106881
106733
106519
106337
106077
105869
105554
105321
104935
104677
104200
103923
103326
103037
102280
101994
101020
100762
99491.4
99302.3
97618.2
97566.3
95300.3
95493.8
92400.4
93011.1
88728.2
90028.3
84017.3
86439.6
77893.1
82127.3
69821.9
76972
59024.6
70824.9
44234.2
63270.1
23139
53071.1
-8263.51
38057
-54133.3
18600.9
-109852
4169.93
-71460.8
10077.7
-35796.7
17571
-10866.2
24524.1
7940.53
31718.2
22572.8
38629.7
34030.3
45000.5
43063.1
50612.7
50098
55311.6
55512.9
59154.4
59701.8
62294.7
62999.3
64892.6
65667.8
67092.1
67908.3
69009.1
69863.2
70719.7
71618.4
72257.4
73214.8
73625.6
74672.3
74818.6
76011
75833.3
77260.7
76670.4
78459.9
77331.2
79650.4
77814.4
80867.3
78118.3
107617
107598
107562
107505
107444
107351
107268
107148
107041
106879
106732
106518
106336
106075
105868
105552
105319
104933
104675
104198
103921
103323
103034
102277
101991
101017
100759
99488
99299.5
97614.3
97563.2
95295.9
95490.6
92395.3
93007.9
88722.3
90025.2
84010.6
86436.7
77885.5
82125.1
69813.5
76970.4
59015
70822.8
44222.1
63264.8
23123.8
53062.4
-8272.98
38053.5
-54104.4
18621
-109702
4211.29
-71438.1
10084.2
-35804.2
17573.9
-10871
24528.4
7936.42
31720.7
22568.3
38630.6
34025.3
44999.5
43057.4
50609.9
50092
55308.2
55507.6
59151.2
59697.5
62292.2
62996.3
64890.9
65666
67091.1
67907.4
69008.6
69862.8
70719.3
71618.1
72256.6
73214.4
73624.5
74671.8
74817.1
76010.5
75831.5
77260.4
76668.7
78459.7
77329.9
79650
77814
80866.5
78119.3
107613
107594
107559
107502
107441
107349
107266
107147
107040
106878
106730
106516
106334
106074
105866
105551
105317
104931
104674
104196
103919
103321
103032
102275
101989
101015
100757
99484.6
99296.6
97610.4
97560.2
95291.4
95487.4
92390.2
93004.7
88716.4
90022.1
84004
86433.9
77878.1
82122.9
69805.3
76968.8
59005.4
70820.7
44210
63259.6
23108.8
53053.8
-8282.32
38050.1
-54075.6
18640.9
-109553
4252.19
-71415.5
10090.8
-35811.6
17576.8
-10875.6
24532.7
7932.35
31723.2
22563.8
38631.5
34020.4
44998.5
43051.7
50607.1
50086
55304.8
55502.3
59148.1
59693.4
62289.7
62993.3
64889.2
65664.2
67090.2
67906.5
69008.1
69862.5
70718.9
71617.9
72255.9
73214.1
73623.3
74671.3
74815.6
76010
75829.8
77260
76667.1
78459.5
77328.6
79649.7
77813.6
80865.7
78120.3
107609
107590
107555
107498
107438
107346
107264
107145
107038
106876
106729
106515
106333
106072
105865
105549
105316
104929
104672
104194
103917
103319
103030
102272
101986
101012
100754
99481.3
99293.8
97606.6
97557.2
95287
95484.3
92385.1
93001.5
88710.6
90019
83997.4
86431.2
77870.7
82120.7
69797.1
76967.2
58996
70818.6
44198
63254.4
23093.9
53045.3
-8291.53
38046.7
-54047.1
18660.7
-109406
4292.62
-71393.1
10097.4
-35818.9
17579.8
-10880.2
24537
7928.32
31725.7
22559.3
38632.4
34015.6
44997.5
43046
50604.4
50080.2
55301.4
55497
59144.9
59689.2
62287.2
62990.4
64887.5
65662.4
67089.2
67905.7
69007.7
69862.1
70718.5
71617.7
72255.2
73213.7
73622.2
74670.8
74814.1
76009.6
75828.2
77259.6
76665.4
78459.2
77327.3
79649.4
77813.1
80864.9
78121.3
107605
107586
107552
107495
107435
107344
107262
107143
107036
106875
106727
106513
106331
106071
105863
105547
105314
104927
104670
104192
103915
103317
103028
102270
101984
101009
100751
99477.9
99291.1
97602.8
97554.3
95282.7
95481.2
92380.1
92998.3
88704.9
90015.9
83990.8
86428.4
77863.3
82118.5
69788.9
76965.7
58986.6
70816.5
44186.1
63249.3
23079.1
53036.9
-8300.62
38043.5
-54018.8
18680.3
-109260
4332.6
-71370.7
10104.1
-35826
17582.7
-10884.8
24541.2
7924.33
31728.2
22554.9
38633.3
34010.8
44996.5
43040.4
50601.7
50074.3
55298.1
55491.9
59141.8
59685.1
62284.8
62987.5
64885.9
65660.7
67088.3
67904.8
69007.2
69861.8
70718.1
71617.4
72254.5
73213.3
73621.1
74670.3
74812.6
76009.1
75826.5
77259.3
76663.8
78459
77326.1
79649
77812.7
80864.1
78122.3
107601
107583
107548
107492
107432
107342
107260
107141
107035
106873
106726
106512
106330
106069
105862
105546
105312
104926
104668
104190
103913
103314
103026
102267
101982
101006
100749
99474.7
99288.3
97599.1
97551.3
95278.4
95478.2
92375.2
92995.2
88699.2
90012.9
83984.4
86425.7
77856.1
82116.4
69780.9
76964.1
58977.4
70814.4
44174.3
63244.3
23064.6
53028.7
-8309.59
38040.3
-53990.7
18699.7
-109116
4372.12
-71348.5
10110.8
-35832.9
17585.7
-10889.3
24545.4
7920.39
31730.6
22550.5
38634.1
34006
44995.6
43034.8
50599
50068.5
55294.8
55486.7
59138.8
59681
62282.3
62984.6
64884.2
65658.9
67087.4
67904
69006.7
69861.5
70717.6
71617.2
72253.8
73213
73620
74669.8
74811.2
76008.6
75824.8
77258.9
76662.2
78458.7
77324.8
79648.7
77812.3
80863.3
78123.3
107597
107579
107544
107489
107429
107339
107257
107139
107033
106872
106724
106510
106328
106068
105860
105544
105311
104924
104666
104188
103911
103312
103024
102265
101979
101003
100746
99471.4
99285.6
97595.3
97548.4
95274.1
95475.1
92370.3
92992.1
88693.6
90009.9
83978
86423
77848.9
82114.2
69772.9
76962.5
58968.2
70812.3
44162.7
63239.3
23050.1
53020.5
-8318.43
38037.1
-53962.8
18719
-108974
4411.2
-71326.3
10117.6
-35839.7
17588.7
-10893.7
24549.5
7916.48
31733
22546.2
38635
34001.3
44994.6
43029.3
50596.3
50062.8
55291.5
55481.6
59135.7
59677
62279.9
62981.7
64882.6
65657.2
67086.5
67903.1
69006.3
69861.1
70717.2
71616.9
72253.2
73212.6
73618.9
74669.4
74809.7
76008.1
75823.2
77258.5
76660.6
78458.4
77323.6
79648.3
77812
80862.5
78124.3
107593
107575
107541
107486
107426
107337
107255
107138
107031
106870
106723
106509
106327
106066
105859
105543
105309
104922
104665
104186
103909
103310
103021
102262
101977
101000
100744
99468.2
99282.9
97591.6
97545.6
95269.9
95472.1
92365.4
92989.1
88688
90006.9
83971.6
86420.3
77841.8
82112.1
69765
76961
58959.1
70810.3
44151.1
63234.3
23035.8
53012.4
-8327.16
38034.1
-53935.1
18738.1
-108833
4449.82
-71304.3
10124.4
-35846.3
17591.7
-10898
24553.7
7912.61
31735.4
22541.8
38635.9
33996.6
44993.6
43023.8
50593.6
50057.1
55288.2
55476.6
59132.7
59673
62277.5
62978.9
64880.9
65655.5
67085.6
67902.3
69005.8
69860.8
70716.8
71616.7
72252.5
73212.3
73617.8
74668.9
74808.3
76007.6
75821.5
77258.2
76659
78458.2
77322.4
79647.9
77811.6
80861.6
78125.3
107589
107572
107538
107483
107424
107334
107253
107136
107030
106869
106721
106507
106326
106065
105857
105541
105308
104920
104663
104184
103907
103308
103019
102260
101975
100997
100741
99465
99280.2
97588
97542.7
95265.7
95469.2
92360.6
92986
88682.5
90004
83965.3
86417.7
77834.7
82110
69757.1
76959.5
58950
70808.2
44139.7
63229.4
23021.7
53004.4
-8335.76
38031.1
-53907.7
18757
-108694
4488.01
-71282.3
10131.2
-35852.8
17594.8
-10902.3
24557.8
7908.79
31737.8
22537.6
38636.7
33992
44992.6
43018.4
50591
50051.5
55285
55471.6
59129.7
59669.1
62275.1
62976.1
64879.3
65653.8
67084.7
67901.4
69005.4
69860.4
70716.4
71616.5
72251.8
73211.9
73616.7
74668.4
74806.8
76007.2
75819.9
77257.8
76657.4
78457.9
77321.2
79647.5
77811.2
80860.8
78126.3
107585
107568
107534
107480
107421
107332
107251
107134
107028
106867
106720
106506
106324
106064
105856
105540
105306
104919
104661
104182
103905
103306
103017
102257
101972
100995
100739
99461.8
99277.6
97584.4
97539.9
95261.6
95466.2
92355.9
92983.1
88677.1
90001.1
83959.1
86415
77827.7
82108
69749.4
76957.9
58941.1
70806.2
44128.4
63224.6
23007.7
52996.6
-8344.24
38028.2
-53880.4
18775.8
-108556
4525.75
-71260.4
10138.1
-35859.1
17597.8
-10906.5
24561.8
7905
31740.2
22533.4
38637.5
33987.4
44991.7
43013.1
50588.4
50045.9
55281.8
55466.7
59126.8
59665.2
62272.8
62973.3
64877.7
65652.1
67083.8
67900.6
69004.9
69860.1
70716
71616.2
72251.1
73211.6
73615.6
74668
74805.4
76006.7
75818.3
77257.4
76655.8
78457.6
77320
79647.2
77810.8
80860
78127.3
107581
107565
107531
107477
107418
107330
107249
107132
107027
106866
106718
106505
106323
106062
105855
105538
105305
104917
104660
104180
103903
103304
103015
102255
101970
100992
100737
99458.7
99274.9
97580.8
97537.1
95257.5
95463.3
92351.1
92980.1
88671.6
89998.2
83953
86412.4
77820.8
82105.9
69741.7
76956.4
58932.2
70804.2
44117.2
63219.8
22993.9
52988.8
-8352.61
38025.4
-53853.4
18794.5
-108420
4563.06
-71238.7
10145.1
-35865.3
17600.9
-10910.7
24565.9
7901.25
31742.5
22529.2
38638.3
33982.8
44990.7
43007.8
50585.8
50040.4
55278.7
55461.8
59123.8
59661.3
62270.4
62970.6
64876.2
65650.4
67082.9
67899.8
69004.4
69859.8
70715.6
71616
72250.4
73211.2
73614.6
74667.5
74804
76006.2
75816.7
77257
76654.3
78457.3
77318.8
79646.8
77810.5
80859.1
78128.3
107578
107561
107527
107474
107415
107327
107247
107131
107025
106864
106717
106503
106322
106061
105853
105537
105303
104915
104658
104178
103901
103301
103013
102252
101968
100989
100734
99455.6
99272.4
97577.3
97534.3
95253.4
95460.4
92346.5
92977.1
88666.3
89995.3
83946.9
86409.9
77814
82103.9
69734.1
76954.9
58923.5
70802.2
44106
63215
22980.2
52981.1
-8360.86
38022.6
-53826.6
18812.9
-108285
4599.94
-71217
10152.1
-35871.3
17604
-10914.8
24569.9
7897.53
31744.8
22525
38639.1
33978.3
44989.8
43002.5
50583.3
50034.9
55275.5
55456.9
59120.9
59657.4
62268.1
62967.9
64874.6
65648.8
67082
67899
69004
69859.4
70715.2
71615.8
72249.8
73210.9
73613.5
74667
74802.6
76005.8
75815.1
77256.7
76652.8
78457
77317.7
79646.4
77810.2
80858.3
78129.3
107574
107558
107524
107471
107413
107325
107245
107129
107024
106863
106715
106502
106320
106060
105852
105535
105302
104914
104656
104177
103900
103299
103011
102250
101966
100986
100732
99452.5
99269.8
97573.8
97531.6
95249.4
95457.5
92341.9
92974.2
88661
89992.5
83940.8
86407.3
77807.2
82101.8
69726.5
76953.4
58914.8
70800.2
44095.1
63210.3
22966.6
52973.5
-8368.99
38019.9
-53800
18831.2
-108152
4636.38
-71195.4
10159.1
-35877.2
17607.1
-10918.9
24573.9
7893.86
31747.1
22520.9
38639.9
33973.9
44988.8
42997.3
50580.7
50029.5
55272.4
55452.1
59118
59653.6
62265.9
62965.2
64873
65647.1
67081.1
67898.2
69003.5
69859.1
70714.8
71615.5
72249.1
73210.5
73612.5
74666.6
74801.2
76005.3
75813.6
77256.3
76651.2
78456.7
77316.5
79646
77809.8
80857.5
78130.3
107570
107554
107521
107468
107410
107323
107243
107127
107022
106862
106714
106501
106319
106058
105850
105534
105300
104912
104655
104175
103898
103297
103009
102248
101964
100984
100729
99449.5
99267.2
97570.3
97528.9
95245.4
95454.7
92337.3
92971.4
88655.8
89989.7
83934.9
86404.8
77800.5
82099.8
69719.1
76951.9
58906.2
70798.2
44084.2
63205.7
22953.2
52966.1
-8377.01
38017.3
-53773.6
18849.3
-108020
4672.4
-71173.9
10166.2
-35883
17610.2
-10922.9
24577.8
7890.22
31749.3
22516.8
38640.7
33969.4
44987.9
42992.1
50578.2
50024.2
55269.3
55447.4
59115.2
59649.9
62263.6
62962.5
64871.5
65645.5
67080.3
67897.4
69003.1
69858.7
70714.4
71615.3
72248.5
73210.2
73611.5
74666.1
74799.9
76004.8
75812
77255.9
76649.7
78456.4
77315.4
79645.5
77809.5
80856.6
78131.3
107567
107551
107518
107465
107407
107321
107241
107126
107020
106860
106713
106499
106318
106057
105849
105532
105299
104911
104653
104173
103896
103295
103007
102245
101962
100981
100727
99446.5
99264.7
97566.8
97526.2
95241.5
95451.9
92332.8
92968.5
88650.6
89986.9
83928.9
86402.3
77793.8
82097.9
69711.7
76950.5
58897.7
70796.3
44073.4
63201.1
22940
52958.7
-8384.92
38014.7
-53747.5
18867.2
-107890
4708
-71152.5
10173.4
-35888.6
17613.3
-10926.8
24581.7
7886.62
31751.6
22512.8
38641.5
33965
44987
42987
50575.7
50018.9
55266.3
55442.7
59112.4
59646.1
62261.3
62959.8
64870
65643.9
67079.4
67896.6
69002.6
69858.4
70714
71615.1
72247.8
73209.9
73610.4
74665.7
74798.5
76004.3
75810.5
77255.5
76648.3
78456.1
77314.3
79645.1
77809.2
80855.8
78132.3
107563
107548
107515
107462
107405
107318
107239
107124
107019
106859
106711
106498
106316
106055
105848
105531
105297
104909
104652
104171
103894
103293
103005
102243
101959
100979
100725
99443.5
99262.2
97563.4
97523.6
95237.6
95449.1
92328.3
92965.7
88645.4
89984.2
83923.1
86399.8
77787.3
82095.9
69704.4
76949
58889.2
70794.3
44062.7
63196.5
22926.9
52951.4
-8392.71
38012.2
-53721.6
18885
-107762
4743.18
-71131.2
10180.5
-35894.1
17616.4
-10930.7
24585.6
7883.06
31753.8
22508.8
38642.2
33960.7
44986
42982
50573.3
50013.6
55263.3
55438
59109.6
59642.5
62259.1
62957.2
64868.5
65642.3
67078.6
67895.8
69002.2
69858.1
70713.6
71614.8
72247.2
73209.5
73609.4
74665.2
74797.1
76003.9
75809
77255.1
76646.8
78455.8
77313.1
79644.7
77808.9
80854.9
78133.2
107560
107544
107511
107459
107402
107316
107237
107122
107017
106857
106710
106497
106315
106054
105846
105529
105296
104907
104650
104169
103893
103291
103004
102241
101957
100976
100722
99440.6
99259.8
97560.1
97521
95233.7
95446.4
92323.9
92962.9
88640.4
89981.5
83917.3
86397.4
77780.8
82094
69697.2
76947.6
58880.9
70792.4
44052.2
63192
22914
52944.2