/*--------------------------------*- C++ -*----------------------------------*\
| =========                 |                                                 |
| \\      /  F ield         | OpenFOAM: The Open Source CFD Toolbox           |
|  \\    /   O peration     | Version:  2412                                  |
|   \\  /    A nd           | Website:  www.openfoam.com                      |
|    \\/     M anipulation  |                                                 |
\*---------------------------------------------------------------------------*/
FoamFile
{
    version     2.0;
    format      ascii;
    arch        "LSB;label=32;scalar=64";
    class       surfaceScalarField;
    location    "0.5";
    object      phi;
}
// * * * * * * * * * * * * * * * * * * * * * * * * * * * * * * * * * * * * * //

dimensions      [0 3 -1 0 0 0 0];

oriented        oriented;

internalField   nonuniform List<scalar> 
25905
(
0.00747639
-0.0131242
0.00738928
-0.0118142
0.00731456
-0.0103654
0.00725563
-0.00819755
0.00721835
-0.0047577
0.00720628
-0.000332891
0.00722109
0.0042014
0.00726105
0.00774246
0.00732
0.00963721
0.00738689
0.00985496
0.00745013
0.00893104
0.00750341
0.00761938
0.00754669
0.00643079
0.0075831
0.00554748
0.00761488
0.00486368
0.00764333
0.00432006
0.00766864
0.00381369
0.0076915
0.00340962
0.0077118
0.00300987
0.00773024
0.00271184
0.00774648
0.00238515
0.0077613
0.00216507
0.007774
0.00186612
0.00778574
0.00171933
0.00779536
0.00143337
0.00780442
0.00134694
0.00781126
0.00105684
0.00781801
0.00103563
0.00782221
0.000713067
0.00782705
0.000785964
0.00782881
0.000405136
0.00783204
0.000583834
0.00783142
0.000114797
0.00783347
0.000449327
0.00783061
-0.000134169
0.00783197
0.000403871
0.00782698
-0.000337108
0.0078285
0.000494671
0.00782202
-0.000430782
0.00782539
0.000808985
0.00781987
-0.000249775
0.00782927
0.00153121
0.00782983
0.000343245
0.00785023
0.00255162
0.00785981
0.000922371
0.00788851
0.00290343
0.0078961
2.46582e-05
0.0079113
0.000584866
0.00789442
-0.00371066
0.00786861
-0.00630186
0.00780494
-0.0123279
0.0076396
-0.0280866
0.00735292
-0.0450479
0.00740307
0.00505119
0.00761066
0.0300287
0.0077384
0.019766
0.0077709
0.00805751
0.00778277
0.00476421
0.00775911
-0.000591048
0.00775055
0.000520356
0.00773233
-0.00143124
0.00773293
0.000577809
0.0077252
-0.000602979
0.00773091
0.00108494
0.00773016
0.000224543
0.00774001
0.00146711
0.00774461
0.0006891
0.00775542
0.00137722
0.00776003
0.000540687
0.00776657
0.000770045
0.00776632
-6.65083e-05
0.00776538
-0.000124644
0.00775837
-0.000862809
0.00774994
-0.00102052
0.00773695
-0.00157804
0.00772291
-0.00169659
0.00770635
-0.00201331
0.0076899
-0.00201513
0.00767316
-0.00208187
0.00765775
-0.00195565
0.0076435
-0.00185714
0.007631
-0.00169204
0.00762013
-0.00152745
0.00761045
-0.00141178
0.00760207
-0.00126012
0.00759383
-0.00124219
0.00758645
-0.00112826
0.00757836
-0.00118843
0.00757125
-0.00106338
0.00756284
-0.00115958
0.00755611
-0.000977056
0.00754796
-0.00100625
0.00754275
-0.00071139
0.00753676
-0.000519896
0.00753538
-7.70078e-05
0.00753568
0.000581053
0.00754258
0.00121384
0.00755708
0.002578
0.00411145
0.00747634
-0.0130248
0.00738911
-0.0117269
0.00731425
-0.0102905
0.00725523
-0.00813852
0.00721799
-0.00472046
0.00720616
-0.00032106
0.00722138
0.00418618
0.0072618
0.00770203
0.00732113
0.00957789
0.00738823
0.00978786
0.00745157
0.00886769
0.00750495
0.00756601
0.00754836
0.00638738
0.0075849
0.00551093
0.00761681
0.00483178
0.00764536
0.00429151
0.00767076
0.00378829
0.00769369
0.00338669
0.00771405
0.00298951
0.00773254
0.00269335
0.00774882
0.00236886
0.00776368
0.00215021
0.00777642
0.00185339
0.00778819
0.00170755
0.00779784
0.00142372
0.00780693
0.00133785
0.00781379
0.00104998
0.00782057
0.00102885
0.0078248
0.000708836
0.00782966
0.000781103
0.00783146
0.000403342
0.00783471
0.000580584
0.00783412
0.000115385
0.00783619
0.000447258
0.00783336
-0.00013134
0.00783475
0.000402483
0.0078298
-0.000332166
0.00783137
0.000493108
0.00782495
-0.000424365
0.00782838
0.000805554
0.00782295
-0.000244347
0.00783242
0.00152174
0.00783305
0.000342612
0.00785347
0.0025312
0.00786304
0.0009128
0.00789163
0.00287483
0.00789911
1.71838e-05
0.00791411
0.000569869
0.007897
-0.00369355
0.00787069
-0.00627555
0.00780631
-0.0122636
0.00763976
-0.02792
0.00735164
-0.0447598
0.00740165
0.00500118
0.00761
0.0298203
0.00773836
0.0196376
0.00777147
0.00802441
0.00778377
0.0047519
0.00776043
-0.0005677
0.00775205
0.000528736
0.0077339
-0.0014131
0.00773451
0.000577201
0.00772677
-0.000595244
0.00773248
0.00107923
0.00773172
0.000225303
0.00774155
0.00145728
0.00774611
0.000684543
0.00775688
0.00136644
0.00776145
0.000536111
0.00776797
0.000763532
0.00776772
-6.62578e-05
0.00776678
-0.000123706
0.00775979
-0.000855818
0.00775139
-0.00101212
0.00773844
-0.0015651
0.00772445
-0.00168259
0.00770793
-0.00199679
0.00769152
-0.00199872
0.0076748
-0.00206515
0.00765941
-0.00194026
0.00764516
-0.0018429
0.00763265
-0.00167952
0.00762176
-0.00151656
0.00761205
-0.00140207
0.00760364
-0.00125171
0.00759538
-0.00123393
0.00758798
-0.00112086
0.00757988
-0.00118034
0.00757278
-0.00105628
0.00756441
-0.00115121
0.00755772
-0.000970363
0.00754965
-0.000998185
0.00754453
-0.00070627
0.0075387
-0.000514059
0.00753746
-7.5772e-05
0.007538
0.00058051
0.00754513
0.00120671
0.00755995
0.00256319
0.00408274
0.00747629
-0.0129254
0.00738895
-0.0116396
0.00731395
-0.0102155
0.00725483
-0.0080794
0.00721763
-0.00468327
0.00720603
-0.000309461
0.00722165
0.00417056
0.00726253
0.00766115
0.00732222
0.0095182
0.00738953
0.00972055
0.00745299
0.00880424
0.00750646
0.00751254
0.00754999
0.00634384
0.00758668
0.00547425
0.00761871
0.00479975
0.00764736
0.00426286
0.00767285
0.0037628
0.00769585
0.00336368
0.00771627
0.00296909
0.00773482
0.00267481
0.00775115
0.00235253
0.00776605
0.00213531
0.00777882
0.00184062
0.00779062
0.00169575
0.0078003
0.00141404
0.00780942
0.00132873
0.00781631
0.00104309
0.00782311
0.00102204
0.00782737
0.000704578
0.00783226
0.000776217
0.00783408
0.00040152
0.00783736
0.000577309
0.0078368
0.000115945
0.00783889
0.000445164
0.00783609
-0.000128545
0.00783751
0.000401065
0.00783261
-0.000327268
0.00783422
0.000491503
0.00782787
-0.000418013
0.00783136
0.00080206
0.00782602
-0.000239005
0.00783555
0.00151221
0.00783625
0.000341909
0.00785668
0.00251077
0.00786624
0.000903241
0.00789474
0.00284633
0.0079021
9.82833e-06
0.00791689
0.000555073
0.00789956
-0.00367622
0.00787275
-0.00624873
0.00780767
-0.0121985
0.00763991
-0.0277522
0.00735037
-0.0444703
0.00740023
0.00495132
0.00760933
0.0296113
0.00773831
0.0195087
0.00777202
0.0079907
0.00778477
0.00473914
0.00776174
-0.000544668
0.00775353
0.00053694
0.00773546
-0.00139502
0.00773607
0.000576584
0.00772834
-0.000587508
0.00773404
0.00107353
0.00773327
0.00022607
0.00774308
0.00144748
0.0077476
0.000680019
0.00775833
0.00135571
0.00776288
0.000531566
0.00776937
0.000757042
0.00776911
-6.60008e-05
0.00776818
-0.000122775
0.00776121
-0.000848849
0.00775284
-0.00100375
0.00773993
-0.00155219
0.00772598
-0.00166865
0.00770951
-0.00198032
0.00769314
-0.00198234
0.00767644
-0.00204846
0.00766107
-0.00192489
0.00764682
-0.00182865
0.00763429
-0.00166699
0.00762338
-0.00150565
0.00761365
-0.00139233
0.00760521
-0.00124327
0.00759692
-0.00122564
0.0075895
-0.00111344
0.0075814
-0.00117224
0.00757432
-0.00104919
0.00756597
-0.00114287
0.00755932
-0.000963714
0.00755134
-0.000990201
0.00754631
-0.000701238
0.00754062
-0.000508372
0.00753954
-7.46873e-05
0.00754032
0.000579729
0.00754767
0.00119936
0.00756279
0.00254808
0.00405375
0.00747625
-0.0128259
0.0073888
-0.0115521
0.00731365
-0.0101404
0.00725444
-0.00802019
0.00721728
-0.00464611
0.00720591
-0.000298091
0.00722192
0.00415454
0.00726326
0.00761982
0.00732331
0.00945815
0.00739082
0.00965304
0.00745438
0.00874067
0.00750795
0.00745897
0.00755162
0.00630018
0.00758844
0.00543743
0.00762059
0.0047676
0.00764935
0.0042341
0.00767493
0.00373723
0.007698
0.00334061
0.00771849
0.00294861
0.00773708
0.00265621
0.00775346
0.00233616
0.0077684
0.00212037
0.0077812
0.00182782
0.00779304
0.00168391
0.00780275
0.00140433
0.0078119
0.00131958
0.00781881
0.00103617
0.00782564
0.00101521
0.00782993
0.000700292
0.00783484
0.000771305
0.00783669
0.000399671
0.00783999
0.000574009
0.00783946
0.000116477
0.00784158
0.000443046
0.00783882
-0.000125782
0.00784026
0.000399618
0.00783541
-0.000322413
0.00783705
0.000489857
0.00783077
-0.000411725
0.00783432
0.000798507
0.00782906
-0.000233748
0.00783866
0.00150261
0.00783943
0.000341136
0.00785988
0.00249033
0.00786942
0.000893694
0.00789782
0.00281793
0.00790506
2.59107e-06
0.00791966
0.000540477
0.0079021
-0.00365867
0.00787479
-0.00622143
0.00780901
-0.0121327
0.00764005
-0.0275833
0.00734911
-0.0441793
0.00739881
0.00490162
0.00760865
0.0294014
0.00773823
0.0193791
0.00777254
0.00795639
0.00778574
0.00472594
0.00776303
-0.000521952
0.007755
0.000544967
0.007737
-0.00137703
0.00773763
0.000575959
0.00772989
-0.00057977
0.00773558
0.00106784
0.00773481
0.000226841
0.0077446
0.00143769
0.00774909
0.000675527
0.00775978
0.00134502
0.00776429
0.000527054
0.00777076
0.000750576
0.0077705
-6.57379e-05
0.00776957
-0.000121851
0.00776263
-0.000841902
0.00775429
-0.000995415
0.00774142
-0.00153932
0.00772751
-0.00165474
0.00771109
-0.00196389
0.00769475
-0.00196601
0.00767808
-0.00203179
0.00766272
-0.00190953
0.00764848
-0.00181441
0.00763594
-0.00165445
0.007625
-0.00149472
0.00761524
-0.00138257
0.00760677
-0.0012348
0.00759846
-0.00121733
0.00759102
-0.00110601
0.00758292
-0.00116414
0.00757584
-0.00104212
0.00756753
-0.00113455
0.00756092
-0.000957106
0.00755302
-0.000982297
0.00754807
-0.000696295
0.00754254
-0.000502833
0.0075416
-7.37518e-05
0.00754262
0.000578713
0.0075502
0.00119178
0.00756561
0.00253267
0.00402448
0.0074762
-0.0127263
0.00738864
-0.0114646
0.00731336
-0.0100651
0.00725405
-0.00796088
0.00721693
-0.00460898
0.00720578
-0.000286946
0.00722219
0.00413813
0.00726397
0.00757804
0.00732438
0.00939775
0.0073921
0.00958532
0.00745577
0.008677
0.00750944
0.0074053
0.00755323
0.00625639
0.00759019
0.00540047
0.00762247
0.00473532
0.00765133
0.00420523
0.00767699
0.00371157
0.00770014
0.00331746
0.00772069
0.00292806
0.00773933
0.00263757
0.00775575
0.00231974
0.00777073
0.00210539
0.00778357
0.00181498
0.00779544
0.00167204
0.00780518
0.00139459
0.00781436
0.0013104
0.0078213
0.00102923
0.00782816
0.00100835
0.00783247
0.000695978
0.00783741
0.000766368
0.00783929
0.000397793
0.00784261
0.000570685
0.00784211
0.000116979
0.00784425
0.000440904
0.00784152
-0.000123052
0.007843
0.000398142
0.00783819
-0.000317601
0.00783987
0.00048817
0.00783365
-0.000405501
0.00783726
0.000794893
0.00783209
-0.000228576
0.00784175
0.00149295
0.0078426
0.000340293
0.00786305
0.00246987
0.00787259
0.000884161
0.00790089
0.00278963
0.00790801
-4.52839e-06
0.0079224
0.000526082
0.00790463
-0.00364089
0.00787682
-0.00619362
0.00781034
-0.0120662
0.00764019
-0.0274131
0.00734785
-0.043887
0.00739739
0.00485207
0.00760795
0.0291909
0.00773814
0.0192489
0.00777304
0.00792148
0.00778669
0.00471229
0.0077643
-0.000499555
0.00775645
0.000552813
0.00773853
-0.00135911
0.00773917
0.000575323
0.00773143
-0.000572034
0.00773712
0.00106215
0.00773635
0.000227616
0.00774611
0.00142793
0.00775057
0.000671065
0.00776122
0.00133437
0.00776571
0.000522574
0.00777215
0.000744132
0.00777188
-6.54685e-05
0.00777096
-0.000120934
0.00776404
-0.000834976
0.00775573
-0.00098711
0.0077429
-0.00152649
0.00772904
-0.00164088
0.00771266
-0.00194751
0.00769635
-0.0019497
0.00767972
-0.00201515
0.00766437
-0.00189418
0.00765013
-0.00180017
0.00763757
-0.00164189
0.00762662
-0.00148376
0.00761682
-0.00137278
0.00760833
-0.00122631
0.00759999
-0.00120899
0.00759254
-0.00109856
0.00758443
-0.00115603
0.00757736
-0.00103504
0.00756908
-0.00112627
0.00756251
-0.000950541
0.00755469
-0.000974472
0.00754983
-0.000691437
0.00754444
-0.000497442
0.00754365
-7.29644e-05
0.0075449
0.000577464
0.00755271
0.00118397
0.00756841
0.00251697
0.00399493
0.00747616
-0.0126267
0.00738849
-0.0113769
0.00731307
-0.00998969
0.00725367
-0.00790148
0.00721658
-0.00457189
0.00720566
-0.000276026
0.00722246
0.00412133
0.00726469
0.00753582
0.00732545
0.00933698
0.00739337
0.00951739
0.00745715
0.00861323
0.00751092
0.00735153
0.00755484
0.00621247
0.00759193
0.00536338
0.00762433
0.00470292
0.0076533
0.00417626
0.00767904
0.00368582
0.00770227
0.00329424
0.00772287
0.00290746
0.00774157
0.00261887
0.00775803
0.00230327
0.00777305
0.00209037
0.00778593
0.0018021
0.00779783
0.00166014
0.0078076
0.00138482
0.0078168
0.00130119
0.00782378
0.00102225
0.00783066
0.00100147
0.007835
0.000691637
0.00783996
0.000761406
0.00784187
0.000395888
0.00784522
0.000567336
0.00784474
0.000117453
0.00784691
0.000438736
0.00784421
-0.000120354
0.00784572
0.000396638
0.00784095
-0.000312833
0.00784268
0.000486442
0.00783652
-0.000399342
0.00784019
0.000791219
0.0078351
-0.000223487
0.00784483
0.00148322
0.00784574
0.000339382
0.00786621
0.0024494
0.00787573
0.00087464
0.00790394
0.00276142
0.00791094
-1.15307e-05
0.00792513
0.000511888
0.00790713
-0.00362288
0.00787883
-0.00616532
0.00781166
-0.011999
0.00764032
-0.0272418
0.00734659
-0.0435932
0.00739597
0.00480269
0.00760725
0.0289796
0.00773802
0.0191181
0.00777353
0.00788598
0.00778763
0.00469819
0.00776555
-0.000477479
0.00775789
0.000560475
0.00774005
-0.00134127
0.0077407
0.000574676
0.00773296
-0.0005643
0.00773865
0.00105646
0.00773788
0.000228392
0.00774762
0.00141819
0.00775205
0.000666633
0.00776266
0.00132376
0.00776711
0.000518125
0.00777353
0.000737711
0.00777326
-6.51932e-05
0.00777235
-0.000120024
0.00776544
-0.000828072
0.00775717
-0.000978836
0.00774438
-0.0015137
0.00773056
-0.00162706
0.00771422
-0.00193116
0.00769795
-0.00193344
0.00768134
-0.00199855
0.00766601
-0.00187885
0.00765177
-0.00178592
0.0076392
-0.00162933
0.00762822
-0.00147279
0.0076184
-0.00136295
0.00760988
-0.00121778
0.00760152
-0.00120063
0.00759405
-0.00109109
0.00758594
-0.00114792
0.00757888
-0.00102798
0.00757062
-0.00111802
0.0075641
-0.000944018
0.00755635
-0.000966725
0.00755158
-0.000686666
0.00754634
-0.000492197
0.0075457
-7.23237e-05
0.00754718
0.000575984
0.0075552
0.00117595
0.00757119
0.00250098
0.00396511
0.00747611
-0.012527
0.00738834
-0.0112891
0.00731279
-0.00991414
0.0072533
-0.00784199
0.00721625
-0.00453484
0.00720555
-0.000265329
0.00722274
0.00410415
0.0072654
0.00749315
0.00732651
0.00927587
0.00739463
0.00944927
0.00745852
0.00854935
0.00751238
0.00729767
0.00755643
0.00616842
0.00759366
0.00532615
0.00762618
0.0046704
0.00765525
0.00414719
0.00768108
0.00365998
0.00770438
0.00327094
0.00772504
0.00288679
0.00774379
0.00260012
0.0077603
0.00228676
0.00777536
0.00207531
0.00778827
0.00178919
0.0078002
0.00164821
0.00781
0.00137502
0.00781923
0.00129196
0.00782624
0.00101525
0.00783315
0.000994557
0.00783751
0.000687268
0.0078425
0.000756418
0.00784443
0.000393955
0.00784781
0.000563963
0.00784736
0.000117899
0.00784955
0.000436545
0.00784689
-0.000117688
0.00784842
0.000395105
0.00784369
-0.000308108
0.00784546
0.000484674
0.00783937
-0.000393245
0.0078431
0.000787486
0.00783809
-0.000218482
0.00784788
0.00147343
0.00784886
0.000338404
0.00786934
0.00242891
0.00787885
0.000865133
0.00790696
0.00273331
0.00791385
-1.84155e-05
0.00792784
0.000497892
0.00790961
-0.00360465
0.00788082
-0.00613653
0.00781295
-0.0119312
0.00764044
-0.0270693
0.00734533
-0.0432981
0.00739455
0.00475347
0.00760653
0.0287676
0.00773789
0.0189868
0.00777398
0.00784988
0.00778854
0.00468364
0.00776679
-0.000455728
0.00775931
0.000567952
0.00774156
-0.00132352
0.00774222
0.000574015
0.00773449
-0.00055657
0.00774017
0.00105077
0.0077394
0.000229168
0.00774912
0.00140847
0.00775353
0.000662229
0.0077641
0.00131319
0.00776852
0.000513707
0.00777492
0.000731314
0.00777463
-6.49115e-05
0.00777373
-0.000119121
0.00776685
-0.00082119
0.0077586
-0.000970592
0.00774586
-0.00150096
0.00773208
-0.00161328
0.00771578
-0.00191486
0.00769955
-0.00191721
0.00768296
-0.00198196
0.00766764
-0.00186353
0.0076534
-0.00177168
0.00764082
-0.00161675
0.00762983
-0.00146179
0.00761998
-0.0013531
0.00761142
-0.00120923
0.00760304
-0.00119225
0.00759555
-0.0010836
0.00758744
-0.00113981
0.00758038
-0.00102093
0.00757216
-0.0011098
0.00756568
-0.000937536
0.00755801
-0.000959055
0.00755333
-0.00068198
0.00754823
-0.000487098
0.00754773
-7.18285e-05
0.00754944
0.000574276
0.00755768
0.0011677
0.00757396
0.0024847
0.00393503
0.00747607
-0.0124274
0.00738819
-0.0112013
0.00731251
-0.00983846
0.00725294
-0.00778242
0.00721592
-0.00449782
0.00720544
-0.000254851
0.00722301
0.00408658
0.00726611
0.00745006
0.00732757
0.00921441
0.00739589
0.00938095
0.00745987
0.00848536
0.00751384
0.0072437
0.00755801
0.00612425
0.00759537
0.00528879
0.00762801
0.00463776
0.00765719
0.00411802
0.00768311
0.00363406
0.00770647
0.00324758
0.0077272
0.00286607
0.007746
0.00258132
0.00776255
0.00227021
0.00777765
0.00206022
0.0077906
0.00177624
0.00780256
0.00163625
0.00781239
0.0013652
0.00782165
0.0012827
0.00782868
0.00100822
0.00783562
0.000987621
0.00784001
0.000682872
0.00784502
0.000751405
0.00784699
0.000391995
0.00785038
0.000560566
0.00784996
0.000118317
0.00785218
0.000434329
0.00784955
-0.000115054
0.00785111
0.000393544
0.00784643
-0.000303425
0.00784823
0.000482865
0.0078422
-0.000387211
0.00784599
0.000783694
0.00784107
-0.000213559
0.00785092
0.00146358
0.00785197
0.000337359
0.00787246
0.00240842
0.00788195
0.000855641
0.00790997
0.0027053
0.00791674
-2.51837e-05
0.00793053
0.000484094
0.00791208
-0.0035862
0.0078828
-0.00610725
0.00781424
-0.0118626
0.00764055
-0.0268956
0.00734408
-0.0430017
0.00739314
0.00470441
0.0076058
0.0285549
0.00773773
0.0188548
0.00777442
0.00781319
0.00778943
0.00466863
0.007768
-0.000434301
0.00776071
0.00057524
0.00774305
-0.00130585
0.00774372
0.000573339
0.007736
-0.000548845
0.00774168
0.00104508
0.00774091
0.000229944
0.00775062
0.00139876
0.00775499
0.000657852
0.00776553
0.00130265
0.00776992
0.00050932
0.00777629
0.000724939
0.007776
-6.46235e-05
0.00777511
-0.000118225
0.00776825
-0.00081433
0.00776003
-0.00096238
0.00774732
-0.00148825
0.00773359
-0.00159955
0.00771733
-0.0018986
0.00770113
-0.00190101
0.00768458
-0.00196541
0.00766927
-0.00184822
0.00765503
-0.00175745
0.00764244
-0.00160415
0.00763142
-0.00145077
0.00762154
-0.00134323
0.00761296
-0.00120065
0.00760455
-0.00118384
0.00759705
-0.0010761
0.00758893
-0.00113169
0.00758189
-0.00101388
0.0075737
-0.00110161
0.00756725
-0.000931094
0.00755966
-0.000951462
0.00755506
-0.000677379
0.0075501
-0.000482142
0.00754975
-7.14774e-05
0.00755169
0.000572341
0.00756015
0.00115924
0.0075767
0.00246815
0.00390467
0.00747603
-0.0123276
0.00738805
-0.0111133
0.00731224
-0.00976265
0.00725258
-0.00772275
0.00721559
-0.00446083
0.00720533
-0.000244592
0.00722328
0.00406863
0.00726681
0.00740653
0.00732861
0.00915261
0.00739713
0.00931244
0.00746122
0.00842127
0.00751528
0.00718963
0.00755958
0.00607995
0.00759708
0.00525129
0.00762984
0.004605
0.00765911
0.00408874
0.00768512
0.00360806
0.00770856
0.00322414
0.00772934
0.00284528
0.00774819
0.00256247
0.00776479
0.00225361
0.00777993
0.00204508
0.00779291
0.00176326
0.0078049
0.00162425
0.00781476
0.00135533
0.00782405
0.00127341
0.00783111
0.00100116
0.00783807
0.000980659
0.0078425
0.000678449
0.00784753
0.000746367
0.00784952
0.000390008
0.00785294
0.000557145
0.00785255
0.000118707
0.00785479
0.000432089
0.00785219
-0.000112452
0.00785378
0.000391954
0.00784914
-0.000298785
0.00785099
0.000481016
0.00784502
-0.000381239
0.00784887
0.000779843
0.00784403
-0.000208717
0.00785394
0.00145367
0.00785505
0.000336249
0.00787556
0.00238791
0.00788504
0.000846162
0.00791295
0.00267738
0.00791961
-3.18352e-05
0.00793321
0.000470494
0.00791453
-0.00356752
0.00788475
-0.00607748
0.00781551
-0.0117934
0.00764066
-0.0267207
0.00734284
-0.0427038
0.00739172
0.00465552
0.00760506
0.0283416
0.00773756
0.0187223
0.00777484
0.00777591
0.0077903
0.00465317
0.0077692
-0.000413204
0.0077621
0.000582338
0.00774452
-0.00128827
0.00774521
0.000572648
0.0077375
-0.000541127
0.00774319
0.00103939
0.00774241
0.000230716
0.00775211
0.00138907
0.00775646
0.000653502
0.00776695
0.00129215
0.00777131
0.000504964
0.00777766
0.000718587
0.00777737
-6.43288e-05
0.00777648
-0.000117336
0.00776964
-0.000807491
0.00776146
-0.000954198
0.00774879
-0.00147558
0.00773509
-0.00158585
0.00771888
-0.00188238
0.00770271
-0.00188485
0.00768618
-0.00194888
0.00767089
-0.00183293
0.00765666
-0.00174321
0.00764405
-0.00159155
0.00763301
-0.00143972
0.0076231
-0.00133332
0.0076145
-0.00119204
0.00760606
-0.0011754
0.00759854
-0.00106859
0.00759042
-0.00112357
0.00758338
-0.00100684
0.00757522
-0.00109344
0.00756882
-0.000924693
0.0075613
-0.000943945
0.00755679
-0.000672861
0.00755197
-0.000477328
0.00755176
-7.12691e-05
0.00755392
0.000570183
0.0075626
0.00115057
0.00757943
0.00245131
0.00387406
0.00747599
-0.0122279
0.00738791
-0.0110252
0.00731197
-0.00968672
0.00725222
-0.007663
0.00721527
-0.00442388
0.00720523
-0.000234549
0.00722355
0.0040503
0.00726751
0.00736257
0.00732965
0.00909047
0.00739836
0.00924373
0.00746255
0.00835708
0.00751672
0.00713547
0.00756114
0.00603553
0.00759877
0.00521367
0.00763165
0.00457212
0.00766103
0.00405937
0.00768712
0.00358197
0.00771063
0.00320064
0.00773147
0.00282444
0.00775037
0.00254357
0.00776702
0.00223697
0.00778219
0.00202991
0.00779521
0.00175024
0.00780723
0.00161222
0.00781712
0.00134544
0.00782644
0.00126409
0.00783352
0.00099408
0.00784051
0.00097367
0.00784496
0.000673998
0.00785003
0.000741305
0.00785204
0.000387993
0.00785549
0.0005537
0.00785512
0.000119069
0.00785739
0.000429825
0.00785482
-0.000109882
0.00785644
0.000390336
0.00785184
-0.000294187
0.00785373
0.000479127
0.00784782
-0.00037533
0.00785173
0.000775935
0.00784697
-0.000203956
0.00785694
0.0014437
0.00785812
0.000335074
0.00787863
0.00236739
0.0078881
0.000836697
0.00791592
0.00264956
0.00792246
-3.83706e-05
0.00793586
0.000457091
0.00791695
-0.00354861
0.00788669
-0.00604722
0.00781676
-0.0117234
0.00764076
-0.0265447
0.0073416
-0.0424047
0.00739031
0.00460681
0.0076043
0.0281276
0.00773736
0.0185893
0.00777523
0.00773804
0.00779115
0.00463725
0.00777038
-0.000392438
0.00776348
0.000589243
0.00774599
-0.00127078
0.00774669
0.000571938
0.00773898
-0.000533416
0.00774468
0.0010337
0.00774391
0.000231484
0.00775359
0.00137939
0.00775791
0.000649178
0.00776838
0.00128169
0.0077727
0.000500639
0.00777903
0.000712257
0.00777873
-6.40275e-05
0.00777785
-0.000116454
0.00777103
-0.000800674
0.00776288
-0.000946048
0.00775025
-0.00146294
0.00773659
-0.0015722
0.00772041
-0.0018662
0.00770429
-0.00186873
0.00768778
-0.00193237
0.00767251
-0.00181766
0.00765827
-0.00172897
0.00764565
-0.00157893
0.00763459
-0.00142866
0.00762466
-0.00132339
0.00761602
-0.0011834
0.00760757
-0.00116695
0.00760003
-0.00106105
0.00759191
-0.00111545
0.00758488
-0.000999809
0.00757674
-0.00108531
0.00757038
-0.000918331
0.00756294
-0.000936503
0.0075585
-0.000668426
0.00755383
-0.000472656
0.00755376
-7.12027e-05
0.00755614
0.000567802
0.00756503
0.00114168
0.00758214
0.0024342
0.00384318
0.00747594
-0.012128
0.00738777
-0.010937
0.00731171
-0.00961066
0.00725187
-0.00760317
0.00721496
-0.00438696
0.00720513
-0.00022472
0.00722383
0.0040316
0.00726821
0.00731819
0.00733068
0.009028
0.00739958
0.00917483
0.00746388
0.00829278
0.00751814
0.0070812
0.00756269
0.00599098
0.00760045
0.00517591
0.00763345
0.00453911
0.00766293
0.00402989
0.0076891
0.00355579
0.00771268
0.00317706
0.00773359
0.00280353
0.00775254
0.00252461
0.00776923
0.00222028
0.00778444
0.0020147
0.00779749
0.00173719
0.00780955
0.00160017
0.00781947
0.00133552
0.00782881
0.00125475
0.00783592
0.000986967
0.00784294
0.000966657
0.00784742
0.000669521
0.0078525
0.000736217
0.00785455
0.00038595
0.00785802
0.000550231
0.00785768
0.000119403
0.00785997
0.000427537
0.00785743
-0.000107343
0.00785908
0.000388689
0.00785452
-0.000289632
0.00785645
0.000477198
0.0078506
-0.000369482
0.00785457
0.000771968
0.00784989
-0.000199275
0.00785992
0.00143366
0.00786116
0.000333835
0.00788169
0.00234686
0.00789114
0.000827248
0.00791887
0.00262183
0.00792529
-4.47907e-05
0.00793849
0.000443885
0.00791936
-0.00352948
0.00788862
-0.00601648
0.00781801
-0.0116528
0.00764085
-0.0263676
0.00734036
-0.0421042
0.0073889
0.00455826
0.00760354
0.027913
0.00773715
0.0184557
0.00777561
0.00769959
0.00779198
0.00462088
0.00777155
-0.000372005
0.00776484
0.000595951
0.00774743
-0.00125337
0.00774816
0.000571209
0.00774046
-0.000525715
0.00774616
0.001028
0.0077454
0.000232247
0.00775506
0.00136973
0.00775936
0.000644877
0.00776979
0.00127126
0.00777409
0.000496344
0.00778039
0.00070595
0.00778009
-6.37201e-05
0.00777921
-0.000115579
0.00777241
-0.000793877
0.00776429
-0.000937928
0.0077517
-0.00145035
0.00773809
-0.00155859
0.00772195
-0.00185006
0.00770586
-0.00185263
0.00768938
-0.00191589
0.00767411
-0.00180239
0.00765988
-0.00171474
0.00764725
-0.0015663
0.00763617
-0.00141758
0.00762621
-0.00131343
0.00761754
-0.00117474
0.00760906
-0.00115846
0.00760151
-0.0010535
0.00759338
-0.00110732
0.00758636
-0.000992785
0.00757825
-0.0010772
0.00757193
-0.000912009
0.00756456
-0.000929136
0.00756021
-0.000664073
0.00755568
-0.000468123
0.00755575
-7.12766e-05
0.00755835
0.000565202
0.00756745
0.00113258
0.00758483
0.00241683
0.00381204
0.0074759
-0.0120282
0.00738763
-0.0108488
0.00731145
-0.00953448
0.00725153
-0.00754325
0.00721465
-0.00435008
0.00720503
-0.000215103
0.0072241
0.00401253
0.0072689
0.00727339
0.0073317
0.00896519
0.00740079
0.00910574
0.00746519
0.00822838
0.00751956
0.00702683
0.00756423
0.00594631
0.00760212
0.00513802
0.00763524
0.00450599
0.00766482
0.00400031
0.00769108
0.00352953
0.00771472
0.00315341
0.00773569
0.00278257
0.00775469
0.00250561
0.00777142
0.00220355
0.00778667
0.00199945
0.00779976
0.00172411
0.00781185
0.00158808
0.0078218
0.00132557
0.00783117
0.00124538
0.00783831
0.000979827
0.00784535
0.000959617
0.00784985
0.000665016
0.00785497
0.000731104
0.00785703
0.000383882
0.00786053
0.000546737
0.00786022
0.000119709
0.00786253
0.000425225
0.00786003
-0.000104836
0.0078617
0.000387015
0.00785719
-0.000285119
0.00785916
0.000475229
0.00785337
-0.000363695
0.00785739
0.000767945
0.00785279
-0.000194674
0.00786288
0.00142357
0.00786419
0.000332532
0.00788473
0.00232632
0.00789416
0.000817813
0.00792179
0.0025942
0.0079281
-5.1095e-05
0.00794111
0.000430874
0.00792175
-0.00351012
0.00789052
-0.00598525
0.00781923
-0.0115815
0.00764094
-0.0261893
0.00733913
-0.0418024
0.00738749
0.0045099
0.00760276
0.0276977
0.00773692
0.0183215
0.00777596
0.00766055
0.00779279
0.00460404
0.0077727
-0.000351907
0.00776618
0.000602463
0.00774887
-0.00123606
0.00774962
0.00057046
0.00774193
-0.000518025
0.00774764
0.00102229
0.00774688
0.000233003
0.00775653
0.00136008
0.00776081
0.000640601
0.0077712
0.00126087
0.00777547
0.000492078
0.00778175
0.000699666
0.00778144
-6.34062e-05
0.00778057
-0.000114711
0.00777379
-0.000787103
0.0077657
-0.000929838
0.00775315
-0.00143779
0.00773958
-0.00154502
0.00772348
-0.00183396
0.00770742
-0.00183657
0.00769096
-0.00189944
0.00767571
-0.00178714
0.00766148
-0.0017005
0.00764884
-0.00155367
0.00763773
-0.00140647
0.00762775
-0.00130345
0.00761906
-0.00116605
0.00761055
-0.00114996
0.00760299
-0.00104594
0.00759485
-0.00109919
0.00758784
-0.000985767
0.00757976
-0.00106913
0.00757348
-0.000905725
0.00756618
-0.000921843
0.00756191
-0.000659801
0.00755752
-0.00046373
0.00755773
-7.14895e-05
0.00756055
0.000562384
0.00756986
0.00112327
0.0075875
0.00239918
0.00378066
0.00747587
-0.0119283
0.0073875
-0.0107604
0.0073112
-0.00945818
0.0072512
-0.00748325
0.00721434
-0.00431322
0.00720493
-0.000205697
0.00722437
0.00399309
0.00726959
0.00722818
0.00733272
0.00890206
0.00740199
0.00903647
0.0074665
0.00816387
0.00752096
0.00697237
0.00756576
0.00590152
0.00760378
0.00510001
0.00763701
0.00447276
0.00766669
0.00397063
0.00769303
0.00350319
0.00771675
0.0031297
0.00773777
0.00276155
0.00775683
0.00248656
0.0077736
0.00218677
0.00778889
0.00198416
0.00780201
0.00171099
0.00781413
0.00157596
0.00782411
0.00131559
0.00783351
0.00123598
0.00784068
0.000972659
0.00784774
0.000952552
0.00785228
0.000660485
0.00785741
0.000725967
0.00785951
0.000381786
0.00786303
0.00054322
0.00786275
0.000119988
0.00786508
0.000422889
0.00786261
-0.00010236
0.00786431
0.000385312
0.00785984
-0.000280647
0.00786185
0.000473221
0.00785612
-0.000357969
0.0078602
0.000763864
0.00785568
-0.00019015
0.00786583
0.00141342
0.00786719
0.000331168
0.00788774
0.00230577
0.00789716
0.000808394
0.0079247
0.00256666
0.00793089
-5.72844e-05
0.00794371
0.000418057
0.00792412
-0.00349054
0.00789241
-0.00595353
0.00782045
-0.0115096
0.00764102
-0.0260098
0.0073379
-0.0414993
0.00738608
0.00446172
0.00760197
0.0274818
0.00773667
0.0181868
0.00777629
0.00762093
0.00779359
0.00458675
0.00777383
-0.000332146
0.00776751
0.000608774
0.00775029
-0.00121884
0.00775106
0.000569688
0.00774338
-0.000510345
0.0077491
0.00101658
0.00774835
0.000233751
0.00775799
0.00135044
0.00776225
0.000636347
0.0077726
0.00125052
0.00777684
0.000487843
0.0077831
0.000693404
0.00778278
-6.30858e-05
0.00778192
-0.00011385
0.00777517
-0.000780349
0.00776711
-0.000921778
0.00775459
-0.00142528
0.00774106
-0.00153148
0.007725
-0.0018179
0.00770897
-0.00182055
0.00769254
-0.00188301
0.0076773
-0.0017719
0.00766307
-0.00168627
0.00765042
-0.00154101
0.0076393
-0.00139535
0.00762928
-0.00129344
0.00762057
-0.00115733
0.00761204
-0.00114143
0.00760445
-0.00103835
0.00759632
-0.00109105
0.00758931
-0.000978756
0.00758126
-0.00106108
0.00757501
-0.00089948
0.00756779
-0.000914624
0.0075636
-0.00065561
0.00755935
-0.000459474
0.0075597
-7.18405e-05
0.00756273
0.000559351
0.00757225
0.00111375
0.00759016
0.00238127
0.00374901
0.00747583
-0.0118284
0.00738737
-0.0106719
0.00731095
-0.00938176
0.00725087
-0.00742316
0.00721404
-0.0042764
0.00720484
-0.000196499
0.00722465
0.00397328
0.00727027
0.00718255
0.00733373
0.00883861
0.00740319
0.00896701