/*--------------------------------*- C++ -*----------------------------------*\
| =========                 |                                                 |
| \\      /  F ield         | OpenFOAM: The Open Source CFD Toolbox           |
|  \\    /   O peration     | Version:  2412                                  |
|   \\  /    A nd           | Website:  www.openfoam.com                      |
|    \\/     M anipulation  |                                                 |
\*---------------------------------------------------------------------------*/
FoamFile
{
    version     2.0;
    format      ascii;
    arch        "LSB;label=32;scalar=64";
    class       volVectorField;
    location    "0.5";
    object      U;
}
// * * * * * * * * * * * * * * * * * * * * * * * * * * * * * * * * * * * * * //

dimensions      [0 1 -1 0 0 0 0];

internalField   nonuniform List<vector> 
13068
(
(100.008 0.505238 0)
(100.189 1.43278 -4.36894e-17)
(100.558 2.46824 -4.08674e-17)
(101.108 4.00113 0)
(101.961 6.4057 0)
(103.18 9.50437 0)
(104.84 12.7183 0)
(106.95 15.3187 7.67348e-17)
(109.501 16.8727 0)
(112.353 17.3397 -3.95313e-17)
(115.352 17.0638 0)
(118.306 16.5238 0)
(121.22 16.0648 0)
(124.074 15.8053 0)
(126.998 15.6867 0)
(129.926 15.6664 3.34212e-17)
(132.991 15.6902 -3.24672e-17)
(136.061 15.7804 3.15419e-17)
(139.32 15.896 3.07034e-17)
(142.571 16.0797 2.98191e-17)
(146.077 16.2702 2.90088e-17)
(149.547 16.535 -7.73614e-22)
(153.358 16.7857 2.73089e-17)
(157.086 17.1268 -2.63805e-17)
(161.27 17.4293 -7.43119e-22)
(165.296 17.8499 0)
(169.935 18.1994 0)
(174.304 18.7094 2.28152e-17)
(179.503 19.1034 -2.2064e-17)
(184.264 19.7198 0)
(190.158 20.1569 2.02649e-17)
(195.366 20.9042 0)
(202.132 21.3847 0)
(207.851 22.2981 1.7148e-17)
(215.725 22.8263 -3.3185e-17)
(222.029 23.9521 0)
(231.329 24.5384 1.47223e-17)
(238.312 25.9389 -1.30865e-17)
(249.476 26.6235 5.03033e-22)
(257.288 28.4012 -1.09514e-17)
(270.952 29.2841 2.19017e-17)
(279.895 31.5635 8.77417e-18)
(297.021 32.7561 -1.9568e-22)
(307.66 35.5405 6.60146e-18)
(329.563 36.9798 7.48891e-18)
(342.631 39.8952 4.41383e-18)
(370.626 41.2092 -5.95372e-18)
(386.538 43.5117 2.0499e-18)
(421.411 44.6748 -4.32102e-18)
(440.823 45.2854 5.99657e-19)
(483.221 46.1776 2.65082e-18)
(507.935 38.5138 3.7605e-18)
(548.775 35.748 1.43024e-21)
(575.564 -0.877334 -5.16194e-19)
(549.169 -17.5452 0)
(540.536 -25.4028 -5.89663e-18)
(505.197 -30.4173 0)
(488.954 -31.4219 0)
(456.636 -32.6419 0)
(440.673 -30.7849 0)
(414.719 -30.2186 0)
(401.165 -27.9536 0)
(380.655 -27.2768 3.22694e-18)
(368.821 -25.3379 0)
(352.261 -24.7318 1.38772e-22)
(341.792 -23.1788 3.99091e-18)
(328.244 -22.731 -5.43649e-18)
(318.869 -21.6185 8.70281e-22)
(307.473 -21.3543 6.55301e-18)
(298.871 -20.6027 -9.84621e-22)
(288.952 -20.4488 -7.64074e-18)
(280.913 -19.9202 -7.93737e-18)
(272.064 -19.7784 5.82621e-22)
(264.525 -19.3491 9.1042e-18)
(256.536 -19.1498 0)
(249.51 -18.7311 1.02615e-17)
(242.276 -18.4276 3.51979e-22)
(235.805 -17.9666 -1.14121e-17)
(229.287 -17.5537 -1.20151e-17)
(223.419 -17.0578 0)
(217.579 -16.5808 8.92753e-23)
(212.318 -16.1011 1.35636e-17)
(207.082 -15.6236 0)
(202.38 -15.2157 -4.08694e-23)
(197.633 -14.7812 1.50354e-17)
(193.413 -14.4715 -1.5571e-17)
(189.03 -14.0825 0)
(185.233 -13.8586 -1.66045e-17)
(181.107 -13.4856 0)
(177.713 -13.3089 -1.20797e-22)
(173.76 -12.9103 4.88857e-22)
(170.793 -12.7201 0)
(166.941 -12.2552 -5.04102e-22)
(164.47 -11.9559 0)
(160.663 -11.3931 -2.01104e-17)
(158.795 -10.8355 0)
(155.022 -10.1551 0)
(153.902 -9.18395 0)
(150.248 -7.92266 0)
(100.008 0.500336 -4.57669e-17)
(100.188 1.41924 4.37135e-17)
(100.555 2.44577 -4.08961e-17)
(101.103 3.96729 0)
(101.955 6.3565 0)
(103.175 9.43735 0)
(104.841 12.6324 0)
(106.958 15.2149 -3.83124e-17)
(109.516 16.7547 0)
(112.373 17.2145 3.94592e-17)
(115.374 16.9387 0)
(118.33 16.4029 -3.83865e-17)
(121.246 15.9483 3.71428e-17)
(124.102 15.691 3.57711e-17)
(127.029 15.5732 0)
(129.96 15.5528 -3.34211e-17)
(133.027 15.5761 0)
(136.099 15.6655 -6.30872e-17)
(139.36 15.78 -3.07052e-17)
(142.613 15.9623 -2.98206e-17)
(146.121 16.1513 -2.90085e-17)
(149.593 16.4141 -5.62226e-17)
(153.406 16.663 -5.46182e-17)
(157.135 17.0015 2.63792e-17)
(161.321 17.3018 -2.55862e-17)
(165.349 17.7193 0)
(169.99 18.0664 2.38364e-17)
(174.361 18.5727 0)
(179.562 18.9639 2.20621e-17)
(184.325 19.5758 0)
(190.222 20.0099 -2.02629e-17)
(195.432 20.7517 0)
(202.201 21.229 0)
(207.923 22.1357 0)
(215.8 22.6605 1.65914e-17)
(222.107 23.7781 0)
(231.411 24.3607 -1.47201e-17)
(238.399 25.751 1.30856e-17)
(249.567 26.4314 1.28324e-17)
(257.387 28.196 1.26418e-21)
(271.055 29.0732 -1.09504e-17)
(280.008 31.3354 -1.75471e-17)
(297.14 32.5193 -9.14492e-18)
(307.79 35.2818 0)
(329.696 36.7094 -1.49778e-17)
(342.774 39.601 4.41095e-18)
(370.766 40.904 5.9522e-18)
(386.686 43.1875 2.04668e-18)
(421.549 44.3401 4.32145e-18)
(440.966 44.9393 -5.99871e-19)
(483.322 45.8144 0)
(508.009 38.1932 -3.76483e-18)
(548.726 35.4286 -1.14921e-18)
(575.417 -0.876753 5.17728e-19)
(549.101 -17.3912 0)
(540.51 -25.1907 0)
(505.219 -30.1668 0)
(489.004 -31.1687 0)
(456.709 -32.3845 0)
(440.753 -30.5466 0)
(414.804 -29.9883 0)
(401.246 -27.7426 0)
(380.733 -27.0713 -3.22669e-18)
(368.896 -25.1472 -2.43875e-18)
(352.333 -24.5456 -4.31281e-18)
(341.86 -23.005 -3.99062e-18)
(328.308 -22.5609 -5.43591e-18)
(318.93 -21.4572 5.41868e-18)
(307.53 -21.1949 0)
(298.925 -20.449 -9.72304e-22)
(289.004 -20.2959 -7.63998e-18)
(280.963 -19.7711 7.93786e-18)
(272.113 -19.6301 8.71687e-18)
(264.574 -19.2039 -9.1047e-18)
(256.585 -19.0059 0)
(249.559 -18.5904 -1.02618e-17)
(242.325 -18.2891 1.09153e-17)
(235.854 -17.8317 0)
(229.336 -17.4221 1.20144e-17)
(223.467 -16.9302 0)
(217.627 -16.4571 1.30644e-17)
(212.364 -15.9813 -2.71269e-17)
(207.126 -15.5075 0)
(202.423 -15.1028 -2.91358e-17)
(197.674 -14.6717 -1.50362e-17)
(193.453 -14.3643 0)
(189.068 -13.9781 0)
(185.27 -13.7557 0)
(181.144 -13.3855 0)
(177.75 -13.2098 -1.76811e-17)
(173.796 -12.8145 1.80619e-17)
(170.83 -12.625 0)
(166.98 -12.1642 -3.81953e-17)
(164.51 -11.8658 0)
(160.706 -11.3083 2.01183e-17)
(158.84 -10.753 0)
(155.074 -10.0794 0)
(153.955 -9.11392 0)
(150.311 -7.86434 0)
(100.008 0.495467 4.5779e-17)
(100.187 1.40579 0)
(100.552 2.4234 8.18554e-17)
(101.098 3.93351 -3.84075e-17)
(101.949 6.30724 0)
(103.171 9.3701 -3.6854e-17)
(104.842 12.5461 0)
(106.965 15.1106 -3.82561e-17)
(109.53 16.6364 0)
(112.392 17.0891 0)
(115.396 16.8134 0)
(118.353 16.2819 7.66775e-17)
(121.271 15.8315 -3.71136e-17)
(124.13 15.5766 -3.5757e-17)
(127.06 15.4596 0)
(129.993 15.439 0)
(133.063 15.4619 0)
(136.137 15.5504 6.30898e-17)
(139.4 15.6639 0)
(142.654 15.8447 0)
(146.164 16.0323 6.67786e-22)
(149.638 16.293 2.81116e-17)
(153.453 16.5401 6.96888e-22)
(157.184 16.8761 -2.63794e-17)
(161.372 17.1743 -2.55847e-17)
(165.401 17.5886 -2.46135e-17)
(170.045 17.9333 -2.38361e-17)
(174.417 18.4358 0)
(179.621 18.8243 -2.20616e-17)
(184.386 19.4317 0)
(190.285 19.8628 2.02623e-17)
(195.498 20.5991 0)
(202.27 21.0732 0)
(207.994 21.9732 0)
(215.875 22.4946 0)
(222.186 23.6038 0)
(231.493 24.1828 1.47192e-17)
(238.486 25.5628 0)
(249.658 26.239 1.28306e-17)
(257.484 27.9905 1.25806e-21)
(271.158 28.8621 0)
(280.121 31.1071 8.77289e-18)
(297.258 32.2823 0)
(307.919 35.0227 0)
(329.828 36.4386 2.43958e-22)
(342.916 39.3065 -4.41093e-18)
(370.906 40.5985 -5.95186e-18)
(386.833 42.8632 -2.04673e-18)
(421.686 44.0052 -4.32006e-18)
(441.109 44.5933 6.01964e-19)
(483.423 45.4515 0)
(508.081 37.8733 0)
(548.677 35.1101 1.15451e-18)
(575.27 -0.876084 -5.17583e-19)
(549.033 -17.2379 0)
(540.482 -24.979 0)
(505.24 -29.9166 0)
(489.054 -30.9157 2.82042e-18)
(456.78 -32.1272 0)
(440.833 -30.3082 -9.4386e-19)
(414.888 -29.758 0)
(401.326 -27.5315 0)
(380.811 -26.8656 0)
(368.97 -24.9564 2.43858e-18)
(352.404 -24.3594 0)
(341.928 -22.8312 0)
(328.373 -22.3907 1.33172e-22)
(318.991 -21.2958 5.41681e-18)
(307.587 -21.0355 0)
(298.979 -20.2953 -6.72406e-18)
(289.056 -20.1429 7.64037e-18)
(281.014 -19.6219 0)
(272.162 -19.4817 0)
(264.623 -19.0587 0)
(256.634 -18.862 0)
(249.608 -18.4496 0)
(242.373 -18.1506 0)
(235.903 -17.6969 0)
(229.384 -17.2905 -1.20141e-17)
(223.516 -16.8026 0)
(217.674 -16.3334 0)
(212.41 -15.8614 1.35633e-17)
(207.171 -15.3914 0)
(202.466 -14.99 1.45684e-17)
(197.715 -14.5621 0)
(193.493 -14.2569 -1.55731e-17)
(189.106 -13.8736 0)
(185.308 -13.6527 0)
(181.18 -13.2853 0)
(177.786 -13.1107 0)
(173.832 -12.7186 0)
(170.868 -12.5299 0)
(167.018 -12.0732 1.91024e-17)
(164.55 -11.7758 0)
(160.75 -11.2237 0)
(158.885 -10.6706 2.11434e-17)
(155.125 -10.0038 0)
(154.008 -9.04403 -2.23006e-17)
(150.372 -7.80612 0)
(100.008 0.490626 0)
(100.186 1.39241 0)
(100.548 2.40114 -4.09594e-17)
(101.093 3.89984 3.84353e-17)
(101.943 6.25803 0)
(103.167 9.30281 3.68447e-17)
(104.842 12.4596 3.73508e-17)
(106.973 15.0061 3.82017e-17)
(109.544 16.5179 0)
(112.41 16.9635 0)
(115.417 16.6881 -3.9109e-17)
(118.375 16.1608 -3.82918e-17)
(121.296 15.7147 0)
(124.158 15.462 0)
(127.091 15.3458 0)
(130.026 15.3251 -3.34189e-17)
(133.098 15.3476 0)
(136.174 15.4351 -6.50692e-22)
(139.439 15.5477 0)
(142.696 15.727 -2.98213e-17)
(146.207 15.9131 6.58914e-22)
(149.683 16.1718 0)
(153.499 16.417 2.73089e-17)
(157.233 16.7505 0)
(161.422 17.0465 2.55847e-17)
(165.454 17.4578 2.46134e-17)
(170.099 17.8 0)
(174.473 18.2988 2.28104e-17)
(179.679 18.6846 0)
(184.446 19.2874 0)
(190.348 19.7156 -2.02602e-17)
(195.563 20.4464 0)
(202.338 20.9172 -1.84363e-17)
(208.065 21.8104 0)
(215.949 22.3284 0)
(222.263 23.4294 -1.51442e-17)
(231.574 24.0046 -1.4717e-17)
(238.572 25.3744 0)
(249.749 26.0464 -1.28297e-17)
(257.582 27.7849 2.18934e-17)
(271.261 28.6507 1.09486e-17)
(280.233 30.8784 -8.77038e-18)
(297.376 32.0449 9.14447e-18)
(308.047 34.7634 0)
(329.96 36.1675 2.46051e-22)
(343.057 39.0117 -4.40807e-18)
(371.044 40.2927 0)
(386.979 42.5386 0)
(421.823 43.6701 4.32048e-18)
(441.25 44.2471 -6.02177e-19)
(483.523 45.0887 0)
(508.152 37.5539 3.76682e-18)
(548.628 34.7927 -1.15695e-18)
(575.123 -0.875354 5.1915e-19)
(548.964 -17.085 0)
(540.453 -24.7676 0)
(505.259 -29.6667 -7.66825e-19)
(489.102 -30.6628 -2.82093e-18)
(456.85 -31.8699 0)
(440.912 -30.0698 1.88785e-18)
(414.971 -29.5275 0)
(401.406 -27.3202 7.86154e-19)
(380.888 -26.6598 0)
(369.043 -24.7656 2.43725e-18)
(352.475 -24.1731 0)
(341.996 -22.6572 3.98797e-18)
(328.437 -22.2203 5.43511e-18)
(319.051 -21.1344 -5.41664e-18)
(307.643 -20.8759 6.55137e-18)
(299.033 -20.1414 0)
(289.107 -19.9899 7.63963e-18)
(281.064 -19.4727 -7.93607e-18)
(272.211 -19.3332 0)
(264.672 -18.9134 0)
(256.682 -18.7181 0)
(249.657 -18.3088 -1.02604e-17)
(242.422 -18.0121 0)
(235.952 -17.562 0)
(229.433 -17.1589 0)
(223.564 -16.675 0)
(217.721 -16.2095 0)
(212.456 -15.7414 0)
(207.215 -15.2752 0)
(202.509 -14.877 0)
(197.755 -14.4524 0)
(193.532 -14.1496 8.41762e-23)
(189.144 -13.7691 1.60233e-17)
(185.345 -13.5497 0)
(181.216 -13.1852 0)
(177.822 -13.0115 0)
(173.869 -12.6227 0)
(170.904 -12.4348 0)
(167.056 -11.9822 0)
(164.589 -11.6858 0)
(160.793 -11.139 0)
(158.929 -10.5883 -2.11534e-17)
(155.176 -9.92821 -2.10861e-17)
(154.06 -8.97423 1.78168e-22)
(150.434 -7.74794 0)
(100.008 0.485817 0)
(100.185 1.37911 4.37782e-17)
(100.545 2.37898 0)
(101.088 3.86624 0)
(101.937 6.2088 0)
(103.163 9.23536 3.68336e-17)
(104.843 12.3728 -3.73181e-17)
(106.98 14.9013 0)
(109.558 16.399 0)
(112.429 16.8377 -3.92443e-17)
(115.438 16.5626 3.90474e-17)
(118.398 16.0395 -3.82446e-17)
(121.321 15.5976 0)
(124.185 15.3472 0)
(127.121 15.2318 0)
(130.059 15.211 3.34188e-17)
(133.134 15.2331 0)
(136.212 15.3198 -3.15478e-17)
(139.479 15.4313 0)
(142.737 15.6091 2.98227e-17)
(146.25 15.7938 5.80199e-17)
(149.728 16.0505 0)
(153.546 16.2939 0)
(157.281 16.6248 0)
(161.472 16.9187 0)
(165.505 17.3268 0)
(170.153 17.6666 2.38334e-17)
(174.529 18.1616 -2.28101e-17)
(179.737 18.5447 -2.20585e-17)
(184.507 19.143 -2.09659e-17)
(190.411 19.5682 2.02596e-17)
(195.628 20.2934 -1.90783e-17)
(202.406 20.761 1.84356e-17)
(208.136 21.6475 1.71394e-17)
(216.023 22.162 1.6586e-17)
(222.341 23.2548 1.17799e-21)
(231.655 23.8263 1.4716e-17)
(238.658 25.1858 1.3078e-17)
(249.839 25.8535 1.28279e-17)
(257.679 27.5789 -1.09456e-17)
(271.363 28.439 -3.43413e-22)
(280.344 30.6495 8.77035e-18)
(297.492 31.8072 -1.82889e-17)
(308.175 34.5038 6.59603e-18)
(330.09 35.8961 7.4885e-18)
(343.196 38.7166 4.40806e-18)
(371.181 39.9867 -5.94946e-18)
(387.125 42.2138 0)
(421.958 43.3349 -4.31917e-18)
(441.39 43.901 -6.04207e-19)
(483.622 44.7262 2.65414e-18)
(508.222 37.2351 -3.77116e-18)
(548.579 34.4763 0)
(574.978 -0.874541 5.19061e-19)
(548.894 -16.9326 0)
(540.424 -24.5565 0)
(505.277 -29.417 7.67293e-19)
(489.149 -30.4101 0)
(456.919 -31.6127 0)
(440.99 -29.8313 -1.88848e-18)
(415.053 -29.2969 0)
(401.486 -27.1088 -7.86016e-19)
(380.965 -26.4539 0)
(369.116 -24.5745 -4.87353e-18)
(352.546 -23.9867 0)
(342.063 -22.4831 -3.98764e-18)
(328.5 -22.0499 0)
(319.111 -20.9728 0)
(307.7 -20.7163 -6.55137e-18)
(299.087 -19.9875 0)
(289.159 -19.8368 -1.52795e-17)
(281.114 -19.3234 7.93653e-18)
(272.26 -19.1847 0)
(264.721 -18.7681 0)
(256.731 -18.5741 0)
(249.705 -18.168 1.02606e-17)
(242.471 -17.8736 1.09139e-17)
(236.001 -17.427 0)
(229.481 -17.0272 0)
(223.612 -16.5473 0)
(217.768 -16.0856 0)
(212.502 -15.6214 1.35627e-17)
(207.259 -15.159 -1.4062e-17)
(202.551 -14.7639 0)
(197.796 -14.3426 1.50379e-17)
(193.572 -14.0421 3.11505e-17)
(189.181 -13.6645 -1.60248e-17)
(185.382 -13.4467 0)
(181.252 -13.085 0)
(177.858 -12.9124 0)
(173.904 -12.5268 0)
(170.941 -12.3397 0)
(167.094 -11.8912 0)
(164.628 -11.5959 -1.99716e-17)
(160.836 -11.0544 2.01399e-17)
(158.974 -10.506 0)
(155.227 -9.85273 4.21956e-17)
(154.112 -8.90454 2.23294e-17)
(150.495 -7.68986 0)
(100.008 0.481037 0)
(100.184 1.36588 -8.76026e-17)
(100.542 2.35692 0)
(101.083 3.83271 -3.84873e-17)
(101.931 6.15956 0)
(103.159 9.16777 -3.68248e-17)
(104.844 12.2858 0)
(106.987 14.7961 0)
(109.572 16.2799 3.88299e-17)
(112.447 16.7117 7.835e-17)
(115.458 16.437 3.89853e-17)
(118.42 15.9181 3.81993e-17)
(121.345 15.4805 -3.70266e-17)
(124.213 15.2324 3.57136e-17)
(127.151 15.1177 0)
(130.092 15.0968 0)
(133.169 15.1185 0)
(136.249 15.2043 0)
(139.518 15.3149 3.07091e-17)
(142.778 15.4912 0)
(146.293 15.6744 -2.90106e-17)
(149.772 15.9291 0)
(153.592 16.1706 2.73076e-17)
(157.329 16.499 -2.63768e-17)
(161.522 16.7907 0)
(165.557 17.1958 0)
(170.206 17.533 -7.22842e-22)
(174.585 18.0243 2.28079e-17)
(179.795 18.4046 2.2058e-17)
(184.566 18.9984 2.09655e-17)
(190.473 19.4206 2.02576e-17)
(195.693 20.1403 1.90777e-17)
(202.473 20.6047 1.84334e-17)
(208.206 21.4845 -1.71387e-17)
(216.096 21.9955 -1.65852e-17)
(222.418 23.0799 1.16864e-21)
(231.736 23.6477 0)
(238.743 24.9969 -2.61531e-17)
(249.928 25.6604 -4.87553e-22)
(257.775 27.3727 0)
(271.464 28.227 -1.09476e-17)
(280.454 30.4202 -8.76788e-18)
(297.608 31.5692 9.14445e-18)
(308.301 34.2438 -6.59624e-18)
(330.22 35.6244 0)
(343.336 38.4212 -4.40525e-18)
(371.318 39.6804 5.94915e-18)
(387.269 41.8888 0)
(422.093 42.9994 8.63835e-18)
(441.529 43.5548 1.20974e-18)
(483.72 44.3638 -2.65545e-18)
(508.291 36.9169 0)
(548.529 34.1609 0)
(574.833 -0.873645 -1.0405e-18)
(548.824 -16.7808 -2.89059e-19)
(540.392 -24.3458 0)
(505.293 -29.1676 0)
(489.194 -30.1575 -2.82424e-18)
(456.987 -31.3556 -1.44108e-18)
(441.067 -29.5929 9.4426e-19)
(415.135 -29.0662 0)
(401.564 -26.8973 0)
(381.041 -26.2479 -3.22691e-18)
(369.189 -24.3834 2.43628e-18)
(352.616 -23.8002 0)
(342.13 -22.3088 3.98598e-18)
(328.564 -21.8793 -5.43398e-18)
(319.171 -20.8111 0)
(307.756 -20.5566 0)
(299.14 -19.8335 0)
(289.21 -19.6836 1.52791e-17)
(281.164 -19.1741 0)
(272.309 -19.0362 0)
(264.77 -18.6227 -9.10275e-18)
(256.779 -18.4301 -9.80453e-18)
(249.754 -18.0271 -1.02597e-17)
(242.519 -17.735 -1.09139e-17)
(236.049 -17.292 0)
(229.529 -16.8954 -1.20123e-17)
(223.66 -16.4195 0)
(217.814 -15.9617 0)
(212.548 -15.5014 -2.71251e-17)
(207.303 -15.0426 8.66361e-23)
(202.594 -14.6508 -1.45695e-17)
(197.837 -14.2328 -1.50387e-17)
(193.611 -13.9346 -1.55764e-17)
(189.219 -13.5598 0)
(185.419 -13.3436 1.66131e-17)
(181.288 -12.9847 0)
(177.894 -12.8132 -1.76913e-17)
(173.94 -12.4308 -1.80723e-17)
(170.978 -12.2446 -1.88126e-17)
(167.132 -11.8002 0)
(164.668 -11.506 2.67106e-23)
(160.878 -10.9698 -4.09604e-22)
(159.018 -10.4239 0)
(155.278 -9.77732 -4.22188e-17)
(154.163 -8.83498 -2.23435e-17)
(150.555 -7.63187 0)
(100.008 0.476286 0)
(100.182 1.35272 8.7647e-17)
(100.54 2.33496 0)
(101.078 3.79925 3.85158e-17)
(101.926 6.1103 3.70664e-17)
(103.155 9.10004 -3.68142e-17)
(104.844 12.1985 0)
(106.995 14.6907 0)
(109.586 16.1606 -7.09393e-22)
(112.466 16.5856 -3.91066e-17)
(115.479 16.3113 -6.47033e-22)
(118.443 15.7967 -3.81536e-17)
(121.37 15.3632 7.3998e-17)
(124.24 15.1173 -3.57004e-17)
(127.181 15.0035 0)
(130.124 14.9825 -3.34168e-17)
(133.203 15.0037 0)
(136.285 15.0887 0)
(139.557 15.1983 -6.14211e-17)
(142.818 15.3731 -2.98234e-17)
(146.336 15.5548 0)
(149.816 15.8075 0)
(153.638 16.0472 -2.73081e-17)
(157.376 16.373 2.6377e-17)
(161.571 16.6626 0)
(165.608 17.0645 0)
(170.259 17.3993 -2.38321e-17)
(174.64 17.8869 -8.98547e-22)
(179.852 18.2644 0)
(184.626 18.8537 2.0963e-17)
(190.535 19.2728 -2.0257e-17)
(195.757 19.9871 0)
(202.54 20.4482 -3.68648e-17)
(208.276 21.3212 -1.71358e-17)
(216.169 21.8288 -1.65831e-17)
(222.494 22.9049 1.15928e-21)
(231.816 23.469 -1.47123e-17)
(238.828 24.8079 1.30751e-17)
(250.017 25.4671 -1.28258e-17)
(257.87 27.1662 1.09409e-17)
(271.565 28.0147 0)
(280.564 30.1907 8.76786e-18)
(297.724 31.3309 9.14414e-18)
(308.427 33.9836 0)
(330.348 35.3524 0)
(343.474 38.1256 8.80913e-18)
(371.453 39.3739 0)
(387.412 41.5636 0)
(422.227 42.6638 -4.3192e-18)
(441.666 43.2086 -6.05529e-19)
(483.816 44.0017 0)
(508.36 36.5992 0)
(548.48 33.8466 0)
(574.689 -0.872667 5.21459e-19)
(548.754 -16.6294 4.36723e-19)
(540.36 -24.1354 0)
(505.308 -28.9185 -7.69617e-19)
(489.238 -29.9051 2.82452e-18)
(457.054 -31.0985 1.44083e-18)
(441.143 -29.3544 0)
(415.215 -28.8355 0)
(401.642 -26.6857 0)
(381.116 -26.0417 -2.87465e-22)
(369.261 -24.1922 0)
(352.686 -23.6135 4.31182e-18)
(342.197 -22.1345 -7.9706e-18)
(328.627 -21.7086 5.4336e-18)
(319.231 -20.6493 -5.41271e-18)
(307.812 -20.3967 -6.55009e-18)
(299.194 -19.6794 -6.72012e-18)
(289.261 -19.5304 -1.52787e-17)
(281.214 -19.0247 0)
(272.358 -18.8876 0)
(264.818 -18.4773 1.82057e-17)
(256.827 -18.2861 9.80488e-18)
(249.802 -17.8862 2.05192e-17)
(242.567 -17.5963 1.09132e-17)
(236.098 -17.157 0)
(229.577 -16.7637 1.2012e-17)
(223.707 -16.2917 -1.25147e-17)
(217.861 -15.8376 1.30622e-17)
(212.593 -15.3812 1.35624e-17)
(207.347 -14.9262 1.40622e-17)
(202.636 -14.5376 2.91398e-17)
(197.877 -14.1229 1.50391e-17)
(193.65 -13.827 0)
(189.256 -13.4551 -1.60269e-17)
(185.456 -13.2405 -1.66149e-17)
(181.323 -12.8844 -1.70402e-17)
(177.93 -12.714 3.53878e-17)
(173.976 -12.3349 3.61506e-17)
(171.014 -12.1495 1.88166e-17)
(167.17 -11.7092 1.91196e-17)
(164.706 -11.4161 3.99686e-17)
(160.921 -10.8853 -2.01548e-17)
(159.062 -10.3418 -2.1183e-17)
(155.328 -9.70198 2.1121e-17)
(154.215 -8.76552 2.23578e-17)
(150.615 -7.57396 2.21322e-17)
(100.008 0.471564 0)
(100.181 1.33964 -8.76913e-17)
(100.537 2.31309 0)
(101.073 3.76587 0)
(101.92 6.06105 -3.70796e-17)
(103.151 9.03217 3.68059e-17)
(104.845 12.111 0)
(107.002 14.5849 0)
(109.6 16.0409 -3.86977e-17)
(112.484 16.4593 0)
(115.499 16.1854 -7.77311e-17)
(118.465 15.6751 3.81097e-17)
(121.394 15.2458 -3.69719e-17)
(124.267 15.0021 3.56862e-17)
(127.211 14.8891 0)
(130.156 14.868 6.68331e-17)
(133.238 14.8888 0)
(136.322 14.9729 -3.15511e-17)
(139.595 15.0815 6.10457e-22)
(142.859 15.2549 2.98248e-17)
(146.378 15.4352 0)
(149.86 15.6858 2.81107e-17)
(153.684 15.9237 2.73072e-17)
(157.423 16.247 0)
(161.62 16.5343 0)
(165.659 16.9332 2.46087e-17)
(170.312 17.2655 0)
(174.695 17.7493 -2.28063e-17)
(179.91 18.1241 0)
(184.685 18.7088 -2.09626e-17)
(190.597 19.125 0)
(195.821 19.8337 0)
(202.607 20.2915 1.84314e-17)
(208.346 21.1578 1.71351e-17)
(216.242 21.6619 3.31638e-17)
(222.57 22.7297 1.51372e-17)
(231.895 23.29 1.47114e-17)
(238.912 24.6186 0)
(250.105 25.2735 0)
(257.965 26.9595 -1.2105e-21)
(271.665 27.8021 0)
(280.674 29.9608 8.76546e-18)
(297.838 31.0923 -1.82883e-17)
(308.552 33.723 0)
(330.476 35.0801 0)
(343.611 37.8297 -1.37375e-21)
(371.588 39.0671 0)
(387.555 41.2382 0)
(422.359 42.328 4.31797e-18)
(441.803 42.8623 -6.07498e-19)
(483.912 43.6397 2.65704e-18)
(508.427 36.2821 0)
(548.43 33.5332 -1.17401e-18)
(574.546 -0.871603 0)
(548.682 -16.4786 -1.47342e-19)
(540.327 -23.9254 -5.9254e-18)
(505.321 -28.6696 1.54059e-18)
(489.281 -29.6528 0)
(457.12 -30.8415 0)
(441.218 -29.1159 -9.45263e-19)
(415.295 -28.6047 2.24943e-18)
(401.719 -26.474 0)
(381.191 -25.8355 3.22643e-18)
(369.332 -24.0009 0)
(352.755 -23.4268 -8.62298e-18)
(342.263 -21.9601 6.48261e-22)
(328.691 -21.5379 5.43294e-18)
(319.29 -20.4874 8.18305e-22)
(307.868 -20.2368 6.55005e-18)
(299.247 -19.5252 1.34397e-17)
(289.312 -19.377 7.63944e-18)
(281.263 -18.8752 0)
(272.406 -18.739 8.71604e-18)
(264.866 -18.3319 -9.1029e-18)
(256.875 -18.142 -9.80431e-18)
(249.85 -17.7453 -1.02595e-17)
(242.615 -17.4577 -1.09132e-17)
(236.146 -17.0219 0)
(229.625 -16.6318 -1.20112e-17)
(223.755 -16.1638 2.50285e-17)
(217.907 -15.7136 -1.30619e-17)
(212.639 -15.261 -1.35621e-17)
(207.39 -14.8098 -1.40621e-17)
(202.678 -14.4244 -1.45703e-17)
(197.917 -14.0129 -3.00796e-17)
(193.689 -13.7193 0)
(189.294 -13.3504 1.60283e-17)
(185.492 -13.1373 -1.66164e-17)
(181.359 -12.7841 3.87969e-22)
(177.966 -12.6147 -3.53929e-17)
(174.011 -12.2389 -1.80782e-17)
(171.051 -12.0545 -1.88205e-17)
(167.207 -11.6182 -3.82484e-17)
(164.745 -11.3263 -3.06424e-23)
(160.963 -10.8008 0)
(159.105 -10.2598 2.11928e-17)
(155.378 -9.62671 0)
(154.266 -8.69616 -2.23716e-17)
(150.675 -7.51613 -2.2146e-17)
(100.008 0.466871 0)
(100.18 1.32663 4.38687e-17)
(100.534 2.29132 0)
(101.069 3.73256 0)
(101.915 6.01178 0)
(103.147 8.96417 3.67958e-17)
(104.846 12.0232 -3.71857e-17)
(107.009 14.4789 3.79318e-17)
(109.614 15.9211 3.86316e-17)
(112.502 16.3329 0)
(115.52 16.0595 3.88071e-17)
(118.487 15.5534 0)
(121.419 15.1282 0)
(124.294 14.8868 -3.56734e-17)
(127.24 14.7746 0)
(130.188 14.7534 -3.34162e-17)
(133.272 14.7738 0)
(136.358 14.8571 6.25043e-22)
(139.633 14.9647 3.07131e-17)
(142.899 15.1366 0)
(146.42 15.3154 2.90111e-17)
(149.903 15.564 -2.81114e-17)
(153.729 15.8 -6.61838e-22)
(157.47 16.1208 0)
(161.669 16.406 0)
(165.71 16.8017 -8.23464e-22)
(170.365 17.1315 -2.38296e-17)
(174.749 17.6116 0)
(179.966 17.9836 2.20539e-17)
(184.744 18.5638 0)
(190.658 18.9769 0)
(195.885 19.6801 0)
(202.673 20.1347 1.84293e-17)
(208.415 20.9942 0)
(216.314 21.4948 -1.65808e-17)
(222.646 22.5543 0)
(231.974 23.1109 0)
(238.996 24.4291 -1.30699e-17)
(250.193 25.0797 -1.28229e-17)
(258.06 26.7525 -1.09387e-17)
(271.765 27.5893 1.09453e-17)
(280.782 29.7307 -8.76546e-18)
(297.952 30.8533 2.06614e-22)
(308.677 33.4622 0)
(330.604 34.8076 0)
(343.747 37.5336 -1.3632e-21)
(371.722 38.7601 0)
(387.696 40.9125 0)
(422.491 41.992 -4.31844e-18)
(441.938 42.5161 6.07714e-19)
(484.007 43.2779 -3.38539e-22)
(508.494 35.9656 0)
(548.38 33.2208 -1.41923e-21)
(574.403 -0.870454 5.22309e-19)
(548.611 -16.3282 -1.51908e-19)
(540.292 -23.7157 5.93276e-18)
(505.333 -28.421 4.72707e-22)
(489.323 -29.4007 0)
(457.184 -30.5845 0)
(441.293 -28.8773 9.44949e-19)
(415.374 -28.3737 4.2628e-22)
(401.796 -26.2621 0)
(381.265 -25.6291 0)
(369.404 -23.8094 0)
(352.824 -23.24 8.62241e-18)
(342.329 -21.7856 6.43209e-22)
(328.753 -21.367 -5.43253e-18)
(319.35 -20.3254 5.41144e-18)
(307.924 -20.0768 0)
(299.3 -19.3709 -6.71953e-18)
(289.363 -19.2237 7.63871e-18)
(281.313 -18.7257 7.93394e-18)
(272.454 -18.5903 -5.30388e-22)
(264.914 -18.1864 0)
(256.922 -17.9979 9.80465e-18)
(249.898 -17.6043 0)
(242.663 -17.319 0)
(236.194 -16.8868 0)
(229.673 -16.4999 2.40217e-17)
(223.802 -16.0359 -1.25138e-17)
(217.953 -15.5894 0)
(212.684 -15.1407 2.71237e-17)
(207.434 -14.6932 8.62214e-23)
(202.72 -14.311 0)
(197.957 -13.9028 1.50405e-17)
(193.728 -13.6116 0)
(189.331 -13.2455 -1.60292e-17)
(185.529 -13.034 1.16395e-22)
(181.394 -12.6837 3.8507e-22)
(178.001 -12.5154 3.5398e-17)
(174.047 -12.1429 0)
(171.087 -11.9594 7.85678e-23)
(167.245 -11.5272 3.82571e-17)
(164.784 -11.2365 -3.99939e-17)
(161.005 -10.7163 -2.01688e-17)
(159.148 -10.178 0)
(155.428 -9.5515 0)
(154.316 -8.62692 1.91447e-22)
(150.734 -7.45838 0)
(100.008 0.462205 0)
(100.179 1.31369 -4.38889e-17)
(100.531 2.26964 0)
(101.064 3.69932 0)
(101.91 5.96251 0)
(103.143 8.89604 -9.84003e-22)
(104.846 11.9351 3.71544e-17)
(107.016 14.3725 -3.78801e-17)
(109.627 15.8009 -6.90039e-22)
(112.52 16.2062 3.89049e-17)
(115.54 15.9334 0)
(118.508 15.4315 0)
(121.443 15.0105 0)
(124.321 14.7713 0)
(127.27 14.6599 0)
(130.22 14.6387 -3.34151e-17)
(133.306 14.6587 -3.24757e-17)
(136.394 14.7411 6.19956e-22)
(139.671 14.8477 -3.07137e-17)
(142.938 15.0181 2.98256e-17)
(146.461 15.1955 -2.90122e-17)
(149.947 15.4421 -2.81107e-17)
(153.774 15.6763 -6.56565e-22)
(157.517 15.9945 0)
(161.718 16.2775 2.558e-17)
(165.76 16.6701 -2.46077e-17)
(170.417 16.9975 4.7658e-17)
(174.803 17.4737 -2.28031e-17)
(180.023 17.843 -4.41063e-17)
(184.802 18.4186 0)
(190.719 18.8287 2.02526e-17)
(195.948 19.5264 0)
(202.739 19.9777 -3.68567e-17)
(208.484 20.8305 1.71305e-17)
(216.386 21.3275 -1.65787e-17)
(222.721 22.3787 -1.51322e-17)
(232.053 22.9315 0)
(239.079 24.2394 2.61371e-17)
(250.281 24.8856 1.28221e-17)
(258.154 26.5452 1.09358e-17)
(271.864 27.3762 -1.0945e-17)
(280.89 29.5003 0)
(298.065 30.6141 9.14412e-18)
(308.8 33.201 0)
(330.73 34.5347 -7.48757e-18)
(343.883 37.2372 -4.40119e-18)
(371.855 38.4529 0)
(387.836 40.5867 0)
(422.622 41.6558 0)
(442.073 42.1698 0)
(484.102 42.9164 -3.31546e-22)
(508.559 35.6497 0)
(548.33 32.9094 1.18045e-18)
(574.261 -0.869215 -8.07268e-22)
(548.538 -16.1783 -2.07591e-21)
(540.256 -23.5063 0)
(505.343 -28.1727 -7.71837e-19)
(489.363 -29.1488 0)
(457.248 -30.3276 1.44056e-18)
(441.366 -28.6388 9.45624e-19)
(415.453 -28.1427 -2.24847e-18)
(401.872 -26.0501 -7.82378e-19)
(381.339 -25.4226 0)
(369.474 -23.6179 -2.43257e-18)
(352.893 -23.053 -4.31085e-18)
(342.395 -21.611 3.98257e-18)
(328.816 -21.196 0)
(319.409 -20.1633 0)
(307.98 -19.9167 0)
(299.353 -19.2165 0)
(289.413 -19.0702 -1.52776e-17)
(281.362 -18.5762 -7.93438e-18)
(272.502 -18.4416 -1.74324e-17)
(264.962 -18.0409 -9.10158e-18)
(256.97 -17.8537 0)
(249.946 -17.4633 0)
(242.711 -17.1802 1.09122e-17)
(236.242 -16.7516 1.14067e-17)
(229.72 -16.368 -1.20104e-17)
(223.849 -15.9079 0)
(217.999 -15.4652 0)
(212.729 -15.0203 -1.35617e-17)
(207.477 -14.5766 1.40622e-17)
(202.762 -14.1976 0)
(197.997 -13.7927 0)
(193.767 -13.5038 1.55803e-17)
(189.368 -13.1406 3.20608e-17)
(185.565 -12.9307 1.15626e-22)
(181.43 -12.5832 1.70458e-17)
(178.037 -12.4161 -1.77016e-17)
(174.082 -12.0468 0)
(171.123 -11.8643 1.88285e-17)
(167.282 -11.4363 -1.91331e-17)
(164.822 -11.1468 3.44471e-23)
(161.047 -10.6318 2.01763e-17)
(159.191 -10.0961 0)
(155.478 -9.47636 -2.11551e-17)
(154.366 -8.55777 2.23997e-17)
(150.793 -7.40071 0)
(100.008 0.457566 -4.58558e-17)
(100.178 1.30082 4.39128e-17)
(100.528 2.24805 0)
(101.06 3.66615 3.86256e-17)
(101.904 5.91323 0)
(103.139 8.82778 -9.75416e-22)
(104.847 11.8469 3.71218e-17)
(107.024 14.2659 0)
(109.641 15.6805 -3.85037e-17)
(112.537 16.0794 -6.39983e-22)
(115.56 15.8072 0)
(118.53 15.3096 0)
(121.466 14.8927 0)
(124.347 14.6557 0)
(127.299 14.5451 0)
(130.252 14.5238 6.68297e-17)
(133.34 14.5434 3.24774e-17)
(136.43 14.625 6.31109e-17)
(139.709 14.7306 3.07154e-17)
(142.978 14.8996 -2.9827e-17)
(146.502 15.0755 2.9012e-17)
(149.99 15.3201 2.81114e-17)
(153.819 15.5524 -2.73072e-17)
(157.564 15.868 2.63741e-17)
(161.766 16.1489 -2.55801e-17)
(165.81 16.5384 -2.4606e-17)
(170.469 16.8632 -2.38285e-17)
(174.857 17.3358 2.28028e-17)
(180.079 17.7023 2.20524e-17)
(184.86 18.2733 0)
(190.779 18.6804 -7.0154e-22)
(196.011 19.3725 0)
(202.805 19.8206 1.84274e-17)
(208.552 20.6666 -3.42586e-17)
(216.457 21.1601 1.6578e-17)
(222.796 22.203 3.02617e-17)
(232.131 22.7519 1.47065e-17)
(239.162 24.0495 -1.30672e-17)
(250.368 24.6913 1.28205e-17)
(258.247 26.3378 -1.18097e-21)
(271.963 27.1628 0)
(280.997 29.2696 0)
(298.178 30.3745 9.14386e-18)
(308.923 32.9395 0)
(330.856 34.2615 7.48771e-18)
(344.017 36.9405 0)
(371.987 38.1454 0)
(387.976 40.2606 0)
(422.752 41.3195 0)
(442.206 41.8234 0)
(484.195 42.555 -2.66035e-18)
(508.624 35.3344 0)
(548.28 32.599 0)
(574.12 -0.867886 -5.24887e-19)
(548.466 -16.0288 1.54759e-19)
(540.219 -23.2972 0)
(505.352 -27.9247 0)
(489.402 -28.897 2.82861e-18)
(457.31 -30.0708 -1.44012e-18)
(441.439 -28.4002 -9.45264e-19)
(415.531 -27.9117 2.24856e-18)
(401.947 -25.838 4.54064e-22)
(381.412 -25.216 3.22624e-18)
(369.544 -23.4262 2.43231e-18)
(352.961 -22.866 0)
(342.46 -21.4362 -3.98092e-18)
(328.878 -21.025 0)
(319.468 -20.001 0)
(308.035 -19.7565 0)
(299.406 -19.0621 -6.71713e-18)
(289.464 -18.9167 1.52772e-17)
(281.411 -18.4265 -7.93312e-18)
(272.55 -18.2928 5.22071e-22)
(265.01 -17.8953 9.10201e-18)
(257.017 -17.7095 -9.80398e-18)
(249.994 -17.3223 0)
(242.759 -17.0414 -2.1824e-17)
(236.29 -16.6164 -1.14065e-17)
(229.767 -16.236 1.20097e-17)
(223.896 -15.7799 1.25126e-17)
(218.045 -15.3409 0)
(212.773 -14.8999 0)
(207.52 -14.4599 -1.40621e-17)
(202.804 -14.0841 0)
(198.037 -13.6825 1.50414e-17)
(193.805 -13.3959 -1.55814e-17)
(189.405 -13.0357 -1.60317e-17)
(185.602 -12.8273 3.3243e-17)
(181.465 -12.4828 -1.70472e-17)
(178.072 -12.3168 0)
(174.117 -11.9508 -1.80857e-17)
(171.158 -11.7692 -1.88323e-17)
(167.319 -11.3453 0)
(164.86 -11.0571 2.00095e-17)
(161.088 -10.5474 0)
(159.234 -10.0144 2.12218e-17)
(155.527 -9.40129 2.11665e-17)
(154.416 -8.48873 -2.24133e-17)
(150.851 -7.34311 2.21882e-17)
(100.008 0.452954 4.58675e-17)
(100.177 1.28801 0)
(100.526 2.22655 0)
(101.055 3.63305 -7.73092e-17)
(101.899 5.86395 0)
(103.136 8.75938 -7.35409e-17)
(104.848 11.7583 -3.70912e-17)
(107.031 14.159 0)
(109.654 15.5599 0)