/*--------------------------------*- C++ -*----------------------------------*\
| =========                 |                                                 |
| \\      /  F ield         | OpenFOAM: The Open Source CFD Toolbox           |
|  \\    /   O peration     | Version:  2412                                  |
|   \\  /    A nd           | Website:  www.openfoam.com                      |
|    \\/     M anipulation  |                                                 |
\*---------------------------------------------------------------------------*/
FoamFile
{
    version     2.0;
    format      ascii;
    arch        "LSB;label=32;scalar=64";
    class       volScalarField;
    location    "0.4";
    object      epsilon;
}
// * * * * * * * * * * * * * * * * * * * * * * * * * * * * * * * * * * * * * //

dimensions      [0 2 -3 0 0 0 0];

internalField   nonuniform List<scalar> 
13068
(
386.907
425.041
516.266
664.676
827.45
948.296
1007.21
1014.03
983.232
932.238
881.619
845.202
824.865
817.194
817.704
824.108
834.328
848.257
864.736
884.705
906.994
933.373
962.182
996.251
1032.97
1076.79
1123.49
1180.14
1239.79
1313.81
1390.77
1489.29
1590.24
1724.45
1860.28
2049.66
2240.74
2521.87
2810.11
3256.16
3719.53
4442
5159
6227.6
7139.11
8396.41
9248.74
10683.5
11976.1
13769.1
15295
13271
14247.8
8938.8
6025.37
5688.63
6437.74
6308.69
5994.76
5171.36
4622.96
3985.6
3594.23
3149.91
2864.49
2563.92
2381.21
2197.17
2086.85
1972.84
1900.04
1817.58
1752.82
1676.3
1605.65
1524.9
1446.22
1364.15
1287.8
1215.91
1152.53
1097.08
1049.68
1009.8
974.655
944.656
915.715
890.161
863.059
838.842
811.626
787.616
760.163
736.21
709.732
686.017
663.038
643.567
612.034
386.741
424.297
514.312
661.145
822.834
943.729
1003.63
1011.76
982.198
932.234
882.351
846.337
826.144
818.47
818.915
825.238
835.383
849.252
865.686
885.627
907.9
934.279
963.098
997.189
1033.94
1077.81
1124.56
1181.28
1241
1315.13
1392.19
1490.85
1591.96
1726.37
1862.46
2052.18
2243.67
2525.31
2814.09
3260.72
3724.55
4447.35
5164.48
6233.03
7144.97
8403.15
9258.08
10692.4
11982.8
13758.9
15267.4
13220.5
14143.1
8864.42
5987.4
5665.17
6416.88
6293.51
5985.59
5167.36
4622.12
3986.31
3595.43
3151.39
2866.26
2565.89
2383.25
2199.09
2088.56
1974.27
1901.2
1818.5
1753.55
1676.91
1606.2
1525.46
1446.83
1364.84
1288.56
1216.72
1153.35
1097.88
1050.42
1010.45
975.207
945.093
916.034
890.358
863.139
838.791
811.452
787.281
759.678
735.513
708.835
684.86
661.603
641.815
610.19
386.576
423.559
512.375
657.641
818.256
939.206
1000.09
1009.53
981.201
932.258
883.101
847.484
827.43
819.752
820.129
826.372
836.441
850.251
866.64
886.553
908.812
935.191
964.019
998.133
1034.91
1078.83
1125.63
1182.42
1242.22
1316.44
1393.61
1492.41
1593.69
1728.31
1864.65
2054.71
2246.61
2528.75
2818.08
3265.28
3729.57
4452.7
5169.97
6238.49
7150.86
8409.91
9267.4
10701.3
11989.3
13748.4
15239.6
13169.6
14037.3
8789.44
5949.02
5640.85
6394.88
6277.29
5975.66
5162.85
4620.96
3986.79
3596.46
3152.75
2867.93
2567.79
2385.23
2200.97
2090.23
1975.69
1902.34
1819.4
1754.26
1677.5
1606.74
1526.01
1447.44
1365.53
1289.32
1217.53
1154.18
1098.68
1051.16
1011.11
975.761
945.532
916.355
890.557
863.223
838.745
811.283
786.953
759.199
734.827
707.949
683.718
660.187
640.088
608.372
386.412
422.829
510.456
654.17
813.72
934.728
996.599
1007.34
980.232
932.299
883.859
848.633
828.716
821.032
821.343
827.505
837.499
851.249
867.594
887.479
909.722
936.101
964.938
999.075
1035.89
1079.85
1126.7
1183.56
1243.43
1317.75
1395.03
1493.97
1595.4
1730.24
1866.83
2057.22
2249.52
2532.17
2822.04
3269.81
3734.56
4458.01
5175.42
6243.89
7156.68
8416.58
9276.56
10709.9
11995.5
13737.7
15211.3
13118.2
13930.3
8713.64
5910.02
5615.52
6371.64
6259.96
5964.88
5157.77
4619.41
3987
3597.28
3153.94
2869.47
2569.58
2387.13
2202.79
2091.86
1977.06
1903.45
1820.26
1754.95
1678.07
1607.26
1526.54
1448.03
1366.2
1290.07
1218.33
1154.99
1099.48
1051.9
1011.76
976.307
945.964
916.672
890.753
863.305
838.698
811.114
786.625
758.723
734.144
707.069
682.586
658.784
638.38
606.576
386.251
422.108
508.559
650.733
809.227
930.296
993.148
1005.18
979.287
932.353
884.621
849.78
829.998
822.307
822.552
828.633
838.553
852.243
868.543
888.4
910.629
937.006
965.852
1000.01
1036.85
1080.86
1127.77
1184.69
1244.64
1319.06
1396.44
1495.51
1597.1
1732.14
1868.99
2059.71
2252.41
2535.56
2825.96
3274.28
3739.48
4463.25
5180.78
6249.2
7162.39
8423.1
9285.5
10718.2
12001.3
13726.5
15182.5
13066.2
13821.9
8636.88
5870.25
5589.05
6347.08
6241.47
5953.23
5152.07
4617.44
3986.92
3597.88
3154.95
2870.86
2571.24
2388.93
2204.53
2093.42
1978.38
1904.5
1821.09
1755.6
1678.6
1607.76
1527.05
1448.61
1366.85
1290.79
1219.1
1155.79
1100.25
1052.62
1012.4
976.843
946.388
916.981
890.943
863.381
838.646
810.942
786.296
758.246
733.462
706.193
681.46
657.393
636.689
604.801
386.092
421.395
506.682
647.331
804.778
925.91
989.738
1003.06
978.364
932.418
885.386
850.926
831.276
823.578
823.756
829.757
839.602
853.232
869.488
889.317
911.53
937.906
966.76
1000.94
1037.81
1081.86
1128.82
1185.81
1245.83
1320.35
1397.83
1497.04
1598.78
1734.03
1871.12
2062.18
2255.27
2538.9
2829.83
3278.7
3744.33
4468.4
5186.05
6254.41
7167.96
8429.46
9294.2
10726.2
12006.7
13715
15153.2
13013.6
13712.2
8559.04
5829.58
5561.36
6321.17
6221.81
5940.69
5145.77
4615.06
3986.53
3598.24
3155.77
2872.09
2572.79
2390.64
2206.19
2094.92
1979.64
1905.51
1821.87
1756.21
1679.1
1608.22
1527.53
1449.15
1367.48
1291.49
1219.85
1156.56
1101.01
1053.32
1013.02
977.365
946.8
917.281
891.125
863.451
838.589
810.765
785.963
757.766
732.78
705.319
680.341
656.012
635.014
603.045
385.935
420.691
504.826
643.963
800.372
921.568
986.37
1000.97
977.462
932.494
886.152
852.068
832.549
824.843
824.954
830.875
840.646
854.216
870.427
890.228
912.425
938.799
967.662
1001.86
1038.76
1082.85
1129.86
1186.92
1247.02
1321.62
1399.21
1498.55
1600.44
1735.9
1873.23
2064.61
2258.09
2542.21
2833.65
3283.05
3749.11
4473.48
5191.23
6259.51
7173.4
8435.64
9302.64
10733.9
12011.6
13702.9
15123.3
12960.5
13601
8480.05
5787.91
5532.37
6293.87
6200.98
5927.28
5138.87
4612.26
3985.84
3598.36
3156.4
2873.16
2574.2
2392.24
2207.77
2096.35
1980.85
1906.47
1822.6
1756.77
1679.56
1608.64
1527.98
1449.67
1368.07
1292.17
1220.58
1157.31
1101.74
1054.01
1013.62
977.875
947.202
917.571
891.298
863.514
838.526
810.583
785.627
757.285
732.098
704.446
679.226
654.64
633.353
601.306
385.78
419.995
502.991
640.63
796.009
917.272
983.043
998.91
976.581
932.58
886.921
853.206
833.816
826.102
826.146
831.988
841.684
855.195
871.36
891.132
913.313
939.686
968.556
1002.78
1039.71
1083.84
1130.9
1188.02
1248.19
1322.89
1400.58
1500.04
1602.09
1737.74
1875.31
2067.01
2260.87
2545.46
2837.41
3287.33
3753.81
4478.46
5196.3
6264.48
7178.69
8441.64
9310.82
10741.3
12016.1
13690.5
15092.9
12906.8
13488.5
8399.85
5745.14
5502.03
6265.16
6178.98
5913.01
5131.37
4609.04
3984.85
3598.25
3156.84
2874.08
2575.5
2393.74
2209.27
2097.71
1982
1907.37
1823.28
1757.3
1679.98
1609.03
1528.4
1450.16
1368.65
1292.82
1221.29
1158.04
1102.46
1054.67
1014.22
978.371
947.591
917.851
891.463
863.569
838.456
810.396
785.286
756.8
731.414
703.574
678.115
653.276
631.706
599.584
385.627
419.308
501.176
637.331
791.689
913.021
979.756
996.883
975.721
932.676
887.69
854.342
835.078
827.354
827.333
833.094
842.716
856.167
872.288
892.031
914.195
940.566
969.442
1003.69
1040.64
1084.81
1131.92
1189.11
1249.34
1324.13
1401.92
1501.52
1603.71
1739.55
1877.37
2069.38
2263.61
2548.67
2841.11
3291.55
3758.43
4483.35
5201.26
6269.34
7183.84
8447.46
9318.74
10748.3
12020.2
13677.6
15062
12852.6
13374.6
8318.38
5701.19
5470.27
6235.03
6155.82
5897.89
5123.3
4605.43
3983.58
3597.91
3157.09
2874.84
2576.66
2395.13
2210.69
2099.01
1983.09
1908.22
1823.92
1757.77
1680.37
1609.39
1528.78
1450.62
1369.19
1293.44
1221.96
1158.75
1103.15
1055.32
1014.79
978.853
947.968
918.12
891.618
863.616
838.38
810.203
784.941
756.311
730.729
702.703
677.008
651.92
630.072
597.877
385.476
418.629
499.382
634.065
787.412
908.814
976.51
994.888
974.882
932.782
888.461
855.473
836.333
828.601
828.513
834.195
843.743
857.134
873.209
892.924
915.071
941.439
970.322
1004.58
1041.56
1085.78
1132.93
1190.18
1250.49
1325.37
1403.25
1502.97
1605.31
1741.34
1879.39
2071.71
2266.31
2551.83
2844.76
3295.7
3762.97
4488.15
5206.12
6274.07
7188.83
8453.09
9326.4
10755
12023.8
13664.4
15030.7
12798
13259.5
8235.62
5655.97
5437.04
6203.47
6131.52
5881.95
5114.66
4601.42
3982.01
3597.35
3157.17
2875.46
2577.7
2396.43
2212.02
2100.24
1984.12
1909.02
1824.5
1758.21
1680.71
1609.71
1529.14
1451.05
1369.71
1294.04
1222.62
1159.43
1103.83
1055.95
1015.35
979.321
948.333
918.379
891.765
863.656
838.297
810.004
784.591
755.819
730.042
701.831
675.904
650.57
628.45
596.186
385.327
417.959
497.607
630.833
783.176
904.652
973.304
992.925
974.063
932.897
889.234
856.601
837.583
829.841
829.687
835.289
844.763
858.095
874.125
893.81
915.94
942.304
971.193
1005.47
1042.48
1086.73
1133.93
1191.24
1251.62
1326.58
1404.56
1504.41
1606.88
1743.11
1881.39
2074.01
2268.97
2554.94
2848.35
3299.78
3767.43
4492.85
5210.87
6278.68
7193.67
8458.53
9333.79
10761.3
12027
13650.8
14998.9
12742.9
13143.1
8151.53
5609.43
5402.31
6170.48
6106.1
5865.21
5105.47
4597.04
3980.17
3596.57
3157.06
2875.92
2578.62
2397.62
2213.28
2101.4
1985.09
1909.77
1825.04
1758.6
1681.02
1610
1529.46
1451.45
1370.2
1294.61
1223.25
1160.09
1104.48
1056.56
1015.89
979.775
948.686
918.628
891.902
863.687
838.207
809.798
784.236
755.323
729.353
700.959
674.803
649.227
626.839
594.508
385.18
417.296
495.852
627.633
778.983
900.533
970.138
990.993
973.265
933.023
890.007
857.725
838.827
831.074
830.854
836.377
845.777
859.049
875.034
894.689
916.802
943.162
972.056
1006.36
1043.39
1087.68
1134.92
1192.29
1252.73
1327.79
1405.86
1505.82
1608.43
1744.85
1883.35
2076.28
2271.59
2558.01
2851.87
3303.79
3771.81
4497.45
5215.5
6283.16
7198.36
8463.78
9340.93
10767.4
12029.8
13636.8
14966.7
12687.4
13025.5
8066.11
5561.51
5366.04
6136.08
6079.59
5847.7
5095.76
4592.28
3978.06
3595.57
3156.79
2876.24
2579.43
2398.72
2214.45
2102.49
1986.01
1910.46
1825.54
1758.95
1681.29
1610.25
1529.75
1451.82
1370.66
1295.15
1223.85
1160.72
1105.11
1057.16
1016.42
980.214
949.026
918.865
892.03
863.71
838.109
809.587
783.875
754.823
728.662
700.087
673.704
647.89
625.238
592.844
385.035
416.642
494.117
624.467
774.831
896.459
967.012
989.091
972.487
933.158
890.782
858.845
840.065
832.301
832.015
837.459
846.785
859.997
875.936
895.562
917.657
944.013
972.912
1007.23
1044.28
1088.61
1135.9
1193.33
1253.83
1328.97
1407.13
1507.22
1609.96
1746.56
1885.28
2078.5
2274.17
2561.02
2855.34
3307.72
3776.09
4501.95
5220.02
6287.52
7202.89
8468.85
9347.82
10773.1
12032.2
13622.4
14934.1
12631.6
12906.8
7979.36
5512.15
5328.21
6100.27
6052.02
5829.44
5085.54
4587.18
3975.68
3594.38
3156.35
2876.42
2580.11
2399.72
2215.54
2103.52
1986.87
1911.11
1825.98
1759.26
1681.52
1610.47
1530.01
1452.16
1371.09
1295.67
1224.43
1161.34
1105.72
1057.73
1016.92
980.639
949.354
919.092
892.148
863.725
838.004
809.369
783.51
754.319
727.968
699.213
672.607
646.559
623.648
591.192
384.892
415.996
492.402
621.332
770.72
892.428
963.926
987.221
971.729
933.303
891.558
859.962
841.297
833.521
833.169
838.534
847.787
860.939
876.832
896.428
918.504
944.856
973.759
1008.09
1045.17
1089.54
1136.86
1194.35
1254.92
1330.14
1408.39
1508.59
1611.47
1748.25
1887.19
2080.7
2276.7
2563.98
2858.75
3311.58
3780.3
4506.36
5224.43
6291.74
7207.27
8473.73
9354.45
10778.5
12034.2
13607.8
14901.2
12575.5
12787
7891.29
5461.34
5288.8
6063.07
6023.42
5810.48
5074.84
4581.74
3973.06
3592.98
3155.74
2876.47
2580.68
2400.63
2216.56
2104.48
1987.67
1911.7
1826.39
1759.53
1681.71
1610.65
1530.24
1452.48
1371.49
1296.16
1224.98
1161.92
1106.31
1058.29
1017.42
981.05
949.669
919.308
892.257
863.731
837.892
809.145
783.139
753.81
727.271
698.338
671.512
645.232
622.066
589.552
384.75
415.357
490.705
618.231
766.65
888.44
960.879
985.381
970.992
933.457
892.335
861.074
842.523
834.735
834.316
839.602
848.782
861.874
877.722
897.287
919.345
945.691
974.597
1008.95
1046.05
1090.45
1137.82
1195.36
1255.99
1331.3
1409.63
1509.95
1612.95
1749.91
1889.06
2082.85
2279.2
2566.88
2862.09
3315.37
3784.41
4510.66
5228.72
6295.84
7211.49
8478.42
9360.83
10783.7
12035.8
13592.8
14868
12519.1
12666.4
7801.92
5409.03
5247.8
6024.51
5993.82
5790.83
5063.68
4575.97
3970.2
3591.39
3154.98
2876.38
2581.15
2401.45
2217.5
2105.38
1988.42
1912.24
1826.74
1759.75
1681.87
1610.81
1530.44
1452.76
1371.87
1296.62
1225.51
1162.49
1106.88
1058.82
1017.89
981.446
949.972
919.513
892.356
863.729
837.773
808.914
782.763
753.296
726.572
697.462
670.418
643.909
620.494
587.924
384.611
414.727
489.028
615.16
762.621
884.496
957.871
983.572
970.274
933.621
893.113
862.182
843.742
835.941
835.456
840.664
849.77
862.803
878.604
898.139
920.178
946.518
975.427
1009.79
1046.91
1091.35
1138.76
1196.36
1257.05
1332.43
1410.85
1511.28
1614.41
1751.54
1890.9
2084.97
2281.64
2569.74
2865.37
3319.08
3788.44
4514.87
5232.9
6299.8
7215.56
8482.94
9366.97
10788.5
12037.1
13577.6
14834.4
12462.6
12544.9
7711.28
5355.21
5205.23
5984.62
5963.28
5770.54
5052.09
4569.9
3967.1
3589.63
3154.07
2876.17
2581.5
2402.17
2218.36
2106.21
1989.11
1912.74
1827.06
1759.94
1681.99
1610.92
1530.61
1453.02
1372.22
1297.06
1226.01
1163.03
1107.42
1059.34
1018.35
981.829
950.262
919.707
892.446
863.719
837.646
808.677
782.381
752.778
725.869
696.585
669.326
642.591
618.93
586.306
384.473
414.104
487.369
612.122
758.633
880.594
954.902
981.793
969.576
933.793
893.892
863.286
844.955
837.141
836.59
841.719
850.752
863.725
879.48
898.983
921.003
947.338
976.249
1010.63
1047.77
1092.24
1139.69
1197.34
1258.09
1333.55
1412.05
1512.59
1615.84
1753.14
1892.7
2087.05
2284.05
2572.54
2868.59
3322.72
3792.38
4518.97
5236.96
6303.64
7219.48
8487.27
9372.86
10793.1
12038
13562.1
14800.7
12405.9
12422.6
7619.43
5299.88
5161.08
5943.43
5931.82
5749.64
5040.08
4563.54
3963.79
3587.69
3153.02
2875.84
2581.76
2402.81
2219.16
2106.99
1989.75
1913.19
1827.33
1760.09
1682.07
1611.01
1530.75
1453.24
1372.54
1297.47
1226.49
1163.55
1107.95
1059.84
1018.8
982.197
950.54
919.89
892.526
863.7
837.512
808.433
781.993
752.256
725.164
695.705
668.234
641.276
617.373
584.698
384.337
413.489
485.73
609.115
754.685
876.735
951.971
980.044
968.897
933.975
894.671
864.385
846.162
838.333
837.716
842.768
851.727
864.64
880.349
899.821
921.821
948.149
977.062
1011.45
1048.62
1093.12
1140.6
1198.31
1259.12
1334.65
1413.24
1513.88
1617.25
1754.72
1894.48
2089.1
2286.4
2575.29
2871.74
3326.28
3796.23
4522.97
5240.91
6307.35
7223.24
8491.43
9378.52
10797.3
12038.6
13546.3
14766.7
12349.2
12299.8
7526.41
5243.04
5115.37
5901
5899.52
5728.17
5027.7
4556.91
3960.27
3585.59
3151.84
2875.39
2581.91
2403.37
2219.88
2107.7
1990.34
1913.6
1827.56
1760.2
1682.12
1611.07
1530.86
1453.44
1372.84
1297.86
1226.94
1164.05
1108.46
1060.32
1019.22
982.551
950.806
920.063
892.597
863.673
837.371
808.182
781.6
751.728
724.455
694.824
667.143
639.965
615.824
583.099
384.203
412.881
484.108
606.14
750.777
872.919
949.079
978.324
968.237
934.165
895.451
865.48
847.361
839.519
838.836
843.809
852.694
865.548
881.21
900.651
922.631
948.952
977.866
1012.27
1049.45
1093.99
1141.51
1199.27
1260.13
1335.74
1414.4
1515.14
1618.64
1756.26
1896.22
2091.1
2288.72
2577.99
2874.83
3329.77
3799.99
4526.87
5244.74
6310.93
7226.86
8495.41
9383.96
10801.3
12038.8
13530.4
14732.6
12292.4
12176.5
7432.28
5184.69
5068.13
5857.37
5866.4
5706.18
5014.96
4550.02
3956.56
3583.33
3150.52
2874.83
2581.98
2403.84
2220.53
2108.36
1990.88
1913.96
1827.75
1760.27
1682.14
1611.09
1530.94
1453.62
1373.11
1298.22
1227.37
1164.52
1108.94
1060.78
1019.63
982.891
951.06
920.225
892.659
863.638
837.222
807.926
781.202
751.196
723.743
693.941
666.052
638.657
614.282
581.51
384.071
412.281
482.506
603.195
746.909
869.144
946.225
976.634
967.596
934.365
896.232
866.571
848.555
840.697
839.948
844.843
853.655
866.449
882.065
901.474
923.433
949.747
978.661
1013.08
1050.28
1094.84
1142.4
1200.21
1261.12
1336.81
1415.54
1516.39
1619.99
1757.78
1897.93
2093.07
2290.99
2580.63
2877.86
3333.18
3803.67
4530.66
5248.46
6314.38
7230.33
8499.22
9389.16
10805.1
12038.8
13514.2
14698.3
12235.6
12052.8
7337.13
5124.87
5019.39
5812.59
5832.53
5683.7
5001.89
4542.9
3952.66
3580.93
3149.09
2874.16
2581.95
2404.24
2221.12
2108.96
1991.37
1914.27
1827.9
1760.31
1682.13
1611.09
1530.99
1453.76
1373.35
1298.55
1227.77
1164.97
1109.41
1061.23
1020.03
983.217
951.302
920.377
892.712
863.595
837.066
807.663
780.798
750.659
723.028
693.056
664.962
637.353
612.746
579.929
383.94
411.689
480.921
600.282
743.081
865.412
943.408
974.972
966.973
934.572
897.012
867.656
849.741
841.867
841.052
845.87
854.609
867.343
882.912
902.289
924.227
950.533
979.447
1013.88
1051.09
1095.69
1143.28
1201.14
1262.1
1337.86
1416.67
1517.61
1621.33
1759.27
1899.61
2095
2293.21
2583.22
2880.82
3336.51
3807.26
4534.36
5252.07
6317.71
7233.66
8502.86
9394.15
10808.6
12038.5
13497.9
14663.9
12178.9
11928.8
7241.03
5063.59
4969.2
5766.73
5797.97
5660.78
4988.53
4535.57
3948.6
3578.39
3147.54
2873.4
2581.83
2404.57
2221.65
2109.51
1991.82
1914.55
1828.01
1760.32
1682.08
1611.06
1531.02
1453.88
1373.57
1298.86
1228.15
1165.4
1109.85
1061.66
1020.41
983.531
951.532
920.519
892.756
863.544
836.904
807.393
780.389
750.118
722.31
692.169
663.873
636.051
611.217
578.357
383.811
411.104
479.355
597.399
739.292
861.721
940.629
973.339
966.369
934.788
897.793
868.737
850.92
843.03
842.149
846.889
855.556
868.23
883.752
903.097
925.014
951.311
980.225
1014.67
1051.9
1096.52
1144.14
1202.05
1263.07
1338.89
1417.77
1518.81
1622.64
1760.73
1901.25
2096.89
2295.4
2585.76
2883.73
3339.78
3810.77
4537.96
5255.57
6320.92
7236.85
8506.34
9398.93
10811.8
12037.9
13481.5
14629.5
12122.4
11804.8
7144.07
5000.91
4917.6
5719.84
5762.76
5637.46
4974.9
4528.04
3944.38
3575.73
3145.89
2872.55
2581.64
2404.82
2222.11
2110
1992.22
1914.79
1828.09
1760.3
1682.01
1611
1531.02
1453.98
1373.77
1299.15
1228.51
1165.81
1110.28
1062.07
1020.78
983.831
951.751
920.651
892.791
863.486
836.734
807.118
779.975
749.573
721.588
691.281
662.783
634.752
609.694
576.793
383.684
410.526
477.807
594.547
735.543
858.072
937.887
971.735
965.783
935.012
898.574
869.814
852.092
844.186
843.239
847.901
856.495
869.109
884.585
903.897
925.792
952.08
980.993
1015.44
1052.69
1097.34
1145
1202.95
1264.02
1339.91
1418.86
1519.99
1623.92
1762.17
1902.87
2098.75
2297.53
2588.25
2886.57
3342.97
3814.19
4541.47
5258.96
6324.01
7239.9
8509.67
9403.51
10814.8
12037
13464.9
14595
12066
11680.7
7046.35
4936.87
4864.65
5672.01
5726.98
5613.79
4961.04
4520.33
3940.02
3572.96
3144.14
2871.61
2581.37
2405.01
2222.52
2110.45
1992.57
1914.99
1828.14
1760.24
1681.91
1610.91
1530.99
1454.05
1373.94
1299.41
1228.85
1166.2
1110.69
1062.46
1021.13
984.118
951.959
920.774
892.818
863.42
836.558
806.836
779.556
749.023
720.864
690.39
661.694
633.456
608.177
575.236
383.558
409.955
476.276
591.726
731.833
854.464
935.181
970.158
965.215
935.243
899.354
870.885
853.258
845.333
844.321
848.906
857.427
869.981
885.41
904.689
926.563
952.841
981.752
1016.21
1053.48
1098.15
1145.84
1203.84
1264.95
1340.91
1419.93
1521.15
1625.18
1763.57
1904.45
2100.57
2299.63
2590.68
2889.35
3346.08
3817.52
4544.87
5262.24
6326.99
7242.82
8512.84
9407.89
10817.6
12035.9
13448.2
14560.6
12009.9
11556.9
6947.97
4871.52
4810.41
5623.29
5690.68
5589.81
4946.96
4512.47
3935.54
3570.08
3142.3
2870.59
2581.03
2405.14
2222.87
2110.85
1992.89
1915.15
1828.15
1760.16
1681.78
1610.8
1530.94
1454.1
1374.09
1299.65
1229.16
1166.57
1111.07
1062.84
1021.46
984.393
952.155
920.886
892.837
863.346
836.376
806.549
779.132
748.469
720.137
689.498
660.606
632.162
606.665
573.687
383.434
409.392
474.764
588.934
728.162
850.897
932.513
968.61
964.664
935.482
900.134
871.95
854.415
846.473
845.395
849.903
858.352
870.846
886.227
905.474
927.325
953.594
982.502
1016.97
1054.25
1098.95
1146.67
1204.71
1265.87
1341.89
1420.97
1522.29
1626.42
1764.95
1906
2102.35
2301.68
2593.07
2892.06
3349.13
3820.77
4548.18
5265.42
6329.84
7245.61
8515.86
9412.08
10820.2
12034.6
13431.4
14526.1
11954.1
11433.3
6849.04
4804.93
4754.96
5573.77
5653.93
5565.57
4932.71
4504.47
3930.94
3567.11
3140.38
2869.5
2580.63
2405.2
2223.17
2111.2
1993.16
1915.28
1828.13
1760.04
1681.63
1610.67
1530.87
1454.12
1374.21
1299.87
1229.46
1166.91
1111.45
1063.2
1021.79
984.655
952.342
920.99
892.847
863.266
836.187
806.257
778.703
747.911
719.408
688.604
659.518
630.871
605.16
572.145
383.312
408.835
473.269
586.173
724.529
847.37
929.88
967.088
964.13
935.729
900.913
873.011
855.566
847.605
846.461
850.892
859.269
871.703
887.037
906.251
928.079
954.337
983.243
1017.72
1055.01
1099.74
1147.48
1205.57
1266.77
1342.85
1422
1523.4
1627.63
1766.3
1907.52
2104.1
2303.69
2595.4
2894.72
3352.1
3823.95
4551.4
5268.49
6332.59
7248.27
8518.74
9416.09
10822.6
12033
13414.6
14491.8
11898.6
11310.2
6749.66
4737.17
4698.37
5523.53
5616.8
5541.1
4918.31
4496.35
3926.24
3564.05
3138.39
2868.35
2580.16
2405.21
2223.42
2111.51
1993.4
1915.37
1828.09
1759.91
1681.46
1610.51
1530.78
1454.12
1374.32
1300.07
1229.73
1167.24
1111.8
1063.55
1022.1
984.906
952.518
921.085
892.85
863.179
835.993
805.959
778.27
747.349
718.675
687.709
658.43
629.583
603.66
570.61
383.191
408.286
471.792
583.442
720.936
843.884
927.283
965.594
963.614
935.982
901.692
874.066
856.709
848.729
847.519
851.874
860.178
872.553
887.839
907.02
928.825
955.073
983.975
1018.46
1055.76
1100.52
1148.29
1206.41
1267.66
1343.8
1423.01
1524.5
1628.82
1767.62
1909.01
2105.81
2305.66
2597.68
2897.32
3355.01
3827.04
4554.53
5271.47
6335.23
7250.81
8521.49
9419.93
10824.8
12031.3
13397.8
14457.6
11843.5
11187.6
6649.97
4668.33
4640.72
5472.66
5579.34
5516.47
4903.79
4488.14
3921.45
3560.93
3136.34
2867.13
2579.64
2405.17
2223.63
2111.78
1993.6
1915.44
1828.02
1759.74
1681.26
1610.33
1530.66
1454.11
1374.4
1300.25
1229.98
1167.55
1112.14
1063.88
1022.39
985.146
952.684
921.172
892.846
863.085
835.792
805.656
777.833
746.784
717.941
686.813
657.344
628.298
602.166
569.082
383.072
407.744
470.332
580.741
717.381
840.439
924.722
964.126
963.113
936.242
902.47
875.116
857.844
849.845
848.569
852.848
861.08
873.395
888.634
907.781
929.563
955.799
984.697
1019.19
1056.51
1101.28
1149.08
1207.24
1268.53
1344.73
1424
1525.57
1629.99
1768.92
1910.46
2107.48
2307.58
2599.92
2899.87
3357.85
3830.05
4557.58
5274.35
6337.77
7253.24
8524.11
9423.61
10826.8
12029.4
13381
14423.5
11788.9
11065.8
6550.08
4598.48
4582.11
5421.23
5541.63
5491.71
4889.19
4479.84
3916.59
3557.74
3134.23
2865.87
2579.07
2405.09
2223.79
2112.02
1993.77
1915.48
1827.92
1759.56
1681.04
1610.14
1530.53
1454.07
1374.47
1300.41
1230.22
1167.85
1112.46
1064.2
1022.68
985.374
952.841
921.25
892.835
862.986
835.587
805.348
777.392
746.215
717.205
685.915
656.258
627.016
600.677
567.562
382.955
407.209
468.89
578.07
713.864
837.034
922.196
962.685
962.629
936.509
903.247
876.16
858.972
850.952
849.611
853.813
861.974
874.229
889.421
908.534
930.293
956.517
985.411
1019.91
1057.24
1102.03
1149.86
1208.06
1269.39
1345.64
1424.98
1526.62
1631.13
1770.19
1911.89
2109.12
2309.47
2602.11
2902.35
3360.62
3832.99
4560.53
5277.13
6340.2
7255.56
8526.6
9427.13
10828.7
12027.3
13364.1
14389.6
11734.7
10944.8
6450.12
4527.72
4522.62
5369.33
5503.72
5466.86
4874.52
4471.49
3911.66
3554.5
3132.07
2864.56
2578.46
2404.96
2223.91
2112.22
1993.91
1915.49
1827.8
1759.36
1680.8
1609.92
1530.38
1454.02
1374.51
1300.56
1230.44
1168.12
1112.76
1064.5
1022.95
985.593
952.989
921.321
892.817
862.88
835.376
805.036
776.947
745.644
716.467
685.017
655.174
625.737
599.195
566.049
382.839
406.68
467.465
575.429
710.386
833.668
919.705
961.27
962.161
936.782
904.022
877.198
860.092
852.051
850.645
854.771
862.86
875.056
890.2
909.279
931.015
957.227
986.115
1020.62
1057.96
1102.78
1150.62
1208.86
1270.24
1346.54
1425.93
1527.65
1632.24
1771.44
1913.29
2110.73
2311.32
2604.25
2904.79
3363.33
3835.86
4563.4
5279.83
6342.54
7257.77
8528.98
9430.5
10830.4
12025.1
13347.4
14355.9
11681.1
10824.8
6350.21
4456.14
4462.36
5317.06
5465.69
5441.98
4859.83
4463.09
3906.7
3551.22
3129.87
2863.2
2577.8
2404.79
2224
2112.38
1994.02
1915.48
1827.66
1759.14
1680.55
1609.69
1530.21
1453.95
1374.54
1300.68
1230.64
1168.38
1113.05
1064.79
1023.21
985.801
953.129
921.385
892.792
862.769
835.161
804.72
776.499
745.07
715.727
684.119
654.091
624.461
597.718
564.543
382.725
406.159
466.057
572.817
706.946
830.342
917.249
959.88
961.708
937.061
904.796
878.23
861.204
853.142
851.67
855.721
863.738
875.874
890.971
910.017
931.728
957.927
986.811
1021.32
1058.67
1103.51
1151.38
1209.65
1271.06
1347.42
1426.87
1528.67
1633.34
1772.66
1914.66
2112.31
2313.13
2606.34
2907.16
3365.97
3838.65
4566.19
5282.43
6344.79
7259.88
8531.25
9433.74
10831.9
12022.7
13330.6
14322.5
11628.1
10705.9
6250.48
4383.86
4401.43
5264.5
5427.61
5417.11
4845.13
4454.68
3901.7
3547.9
3127.64
2861.82
2577.12
2404.59
2224.06
2112.52
1994.11
1915.45
1827.5
1758.9
1680.28
1609.45
1530.03
1453.86
1374.56
1300.79
1230.83
1168.63
1113.33
1065.07
1023.45
986
953.26
921.441
892.762
862.653
834.941
804.4
776.048
744.493
714.987
683.22
653.009
623.189
596.248
563.044
382.612
405.644
464.666
570.235
703.544
827.056
914.827
958.516
961.271
937.346
905.568
879.255
862.308
854.224
852.687
856.662
864.609
876.685
891.735
910.746
932.433
958.62
987.497
1022.01
1059.37
1104.23
1152.12
1210.43
1271.88
1348.29
1427.78
1529.66
1634.41
1773.85
1916
2113.85
2314.9
2608.39
2909.49
3368.55
3841.37
4568.91
5284.96
6346.95
7261.9
8533.41
9436.85
10833.3
12020.2
13314
14289.3
11575.7
10588.3
6151.06
4310.98
4339.94
5211.75
5389.53
5392.28
4830.46
4446.26
3896.67
3544.57
3125.39
2860.41
2576.4
2404.36
2224.08
2112.63
1994.17
1915.39
1827.32
1758.64
1679.99
1609.18
1529.83
1453.76
1374.56
1300.89
1231
1168.86
1113.6
1065.34
1023.69
986.189
953.383
921.491
892.726
862.532
834.718
804.076
775.594
743.915
714.245
682.322
651.93
621.921
594.784
561.552
382.501
405.136
463.292
567.682
700.18
823.809
912.439
957.176
960.849
937.636
906.339
880.275
863.403
855.298
853.696
857.596
865.471
877.489
892.49
911.467
933.13
959.304
988.175
1022.69
1060.06
1104.93
1152.85
1211.19
1272.68
1349.14
1428.69
1530.63
1635.47
1775.02
1917.31
2115.36
2316.63
2610.39
2911.76
3371.08
3844.03
4571.55
5287.4
6349.03
7263.83
8535.48
9439.83
10834.6
12017.7
13297.4
14256.4
11524
10472
6052.09
4237.61
4277.98
5158.89
5351.52
5367.54
4815.84
4437.85
3891.64
3541.22
3123.12
2858.97
2575.66
2404.1
2224.08
2112.72
1994.21
1915.32
1827.13
1758.38
1679.7
1608.91
1529.62
1453.65
1374.54
1300.96
1231.15
1169.08
1113.85
1065.59
1023.92
986.37
953.499
921.535
892.685
862.407
834.49
803.75
775.138
743.334
713.503
681.424
650.852
620.657
593.326
560.068
382.391
404.635
461.936
565.158
696.854
820.601
910.084
955.861
960.441
937.932
907.107
881.288
864.491
856.362
854.696
858.521
866.325
878.284
893.238
912.181
933.818
959.979
988.843
1023.36
1060.74
1105.63
1153.57
1211.94
1273.46
1349.97
1429.57
1531.58
1636.5
1776.17
1918.6
2116.83
2318.33
2612.36
2913.99
3373.54
3846.62
4574.11
5289.77
6351.03
7265.67
8537.46
9442.71
10835.8
12015
13281
14223.8
11473
10357.1
5953.68
4163.86
4215.68
5106.03
5313.64
5342.93
4801.3
4429.47
3886.62
3537.87
3120.84
2857.53
2574.89
2403.82
2224.06
2112.78
1994.24
1915.23
1826.93
1758.1
1679.39
1608.63
1529.4
1453.52
1374.52
1301.03
1231.3
1169.28
1114.09
1065.84
1024.14
986.543
953.609
921.573
892.64
862.278
834.259
803.421
774.681
742.753
712.761
680.527
649.778
619.398
591.875
558.592
382.283
404.141
460.596
562.664
693.566
817.432
907.764
954.571
960.047
938.233
907.873
882.295
865.57
857.418
855.687
859.437
867.172
879.071
893.978
912.886
934.499
960.646
989.503
1024.03
1061.41
1106.32
1154.27
1212.68
1274.23
1350.79
1430.44
1532.52
1637.51
1777.29
1919.86
2118.28
2319.99
2614.28
2916.16
3375.95
3849.15
4576.61
5292.06
6352.95
7267.44
8539.35
9445.48
10836.9
12012.3
13264.7
14191.6
11422.7
10243.9
5855.96
4089.85
4153.15
5053.24
5275.95
5318.49
4786.86
4421.15
3881.61
3534.52
3118.56
2856.07
2574.12
2403.52
2224.01
2112.83
1994.24
1915.13
1826.71
1757.81
1679.08
1608.34
1529.17
1453.38
1374.48
1301.09
1231.43
1169.47
1114.31
1066.07
1024.35
986.709
953.712
921.606
892.59
862.145
834.026
803.089
774.221
742.17
712.019
679.631
648.706
618.143
590.432
557.124
382.177
403.653
459.273
560.199
690.315
814.302
905.476
953.304
959.668
938.538
908.637
883.295
866.64
858.465
856.669
860.345
868.01
879.85
894.71
913.583
935.171
961.304
990.154
1024.68
1062.07
1106.99
1154.97
1213.41
1274.99
1351.6
1431.29
1533.43
1638.5
1778.39
1921.1
2119.7
2321.62
2616.16
2918.29
3378.3
3851.61
4579.04
5294.29
6354.8
7269.13
8541.16
9448.15
10837.9
12009.6
13248.5
14159.8
11373.2
10132.3
5759.06
4015.71
4090.5
5000.61
5238.52
5294.25
4772.54
4412.88
3876.62
3531.2
3116.29
2854.61
2573.33
2403.2
2223.95
2112.85
1994.23
1915.02
1826.49
1757.52
1678.75
1608.04
1528.93
1453.23
1374.43
1301.13
1231.55
1169.66
1114.53
1066.3
1024.55
986.867
953.809
921.634
892.535
862.009
833.789
802.755
773.76
741.587
711.278
678.736
647.637
616.893
588.995
555.664
382.071
403.172
457.967
557.763
687.101
811.21
903.221
952.062
959.302
938.848
909.398
884.288
867.702
859.503
857.643
861.245
868.84
880.622
895.434
914.273
935.836
961.954
990.796
1025.32
1062.72
1107.66
1155.65
1214.12
1275.74
1352.39
1432.12
1534.33
1639.47
1779.47
1922.31
2121.09
2323.21
2618
2920.38
3380.61
3854.02
4581.4
5296.45
6356.59
7270.76
8542.91
9450.74
10838.8
12006.8
13232.6
14128.4
11324.5
10022.5
5663.11
3941.55
4027.84
4948.24
5201.39
5270.26
4758.38
4404.69
3871.68
3527.89
3114.03
2853.16
2572.54
2402.88
2223.88
2112.87
1994.21
1914.9
1826.26
1757.22
1678.43
1607.73
1528.68
1453.08
1374.37
1301.16
1231.66
1169.83
1114.74
1066.51
1024.75
987.019
953.901
921.657
892.478
861.87
833.551
802.42
773.299
741.004
710.537
677.844
646.572
615.649
587.567
554.213
381.968
402.697
456.677
555.356
683.926
808.157
900.999
950.842
958.95
939.162
910.157
885.275
868.755
860.532
858.608
862.136
869.661
881.385
896.15
914.954
936.492
962.596
991.429
1025.96