/*--------------------------------*- C++ -*----------------------------------*\
| =========                 |                                                 |
| \\      /  F ield         | OpenFOAM: The Open Source CFD Toolbox           |
|  \\    /   O peration     | Version:  2412                                  |
|   \\  /    A nd           | Website:  www.openfoam.com                      |
|    \\/     M anipulation  |                                                 |
\*---------------------------------------------------------------------------*/
FoamFile
{
    version     2.0;
    format      ascii;
    arch        "LSB;label=32;scalar=64";
    class       volScalarField;
    location    "0.4";
    object      k;
}
// * * * * * * * * * * * * * * * * * * * * * * * * * * * * * * * * * * * * * //

dimensions      [0 2 -2 0 0 0 0];

internalField   nonuniform List<scalar> 
13068
(
38.3172
41.1188
46.5388
53.5383
59.443
62.4521
62.9242
62.0217
60.5202
58.9205
57.6596
56.9449
56.6802
56.7178
56.9317
57.2911
57.7484
58.3233
58.9739
59.7456
60.5851
61.5668
62.6127
63.8372
65.1206
66.638
68.2029
70.0838
71.9886
74.3331
76.6606
79.6175
82.4854
86.2703
89.8617
94.8289
99.4757
106.231
112.576
122.166
131.124
144.558
156.291
173.074
185.337
202.182
211.845
229.787
243.985
263.173
277.173
249.643
257.283
182.896
143.655
147.469
164.259
163.625
160.577
147.946
140.228
129.241
122.864
114.259
109.069
102.77
99.2327
95.0853
92.8048
90.0747
88.4399
86.3096
84.6736
82.571
80.637
78.3219
76.0729
73.6754
71.4472
69.3101
67.4114
65.7222
64.2548
62.9966
61.8513
60.8547
59.8508
58.9545
57.9617
57.0758
56.04
55.1353
54.0621
53.1368
52.0865
51.1515
50.2528
49.4876
48.049
38.3055
41.0722
46.4366
53.3875
59.2838
62.3299
62.8598
62.0091
60.5425
58.9632
57.7118
56.9989
56.7318
56.7654
56.9753
57.3314
57.7858
58.3586
59.0077
59.7783
60.6172
61.5987
62.6447
63.8697
65.1538
66.6722
68.2383
70.1208
72.0273
74.374
76.7037
79.6635
82.5347
86.3239
89.9203
94.8938
99.548
106.311
112.664
122.259
131.219
144.651
156.38
173.155
185.422
202.274
211.969
229.889
244.054
263.04
276.872
249.041
256.092
181.877
143.058
147.061
163.916
163.4
160.453
147.899
140.226
129.26
122.889
114.291
109.108
102.815
99.2792
95.1294
92.844
90.1078
88.4665
86.331
84.6911
82.5861
80.6516
78.3376
76.091
73.6962
71.4707
69.3354
67.4374
65.7475
64.2782
63.0172
61.8684
60.8679
59.86
58.9594
57.9624
57.0715
56.0308
55.1196
54.0399
53.1054
52.0461
51.0994
50.1878
49.4084
47.9666
38.2938
41.0258
46.335
53.2372
59.1254
62.2086
62.7963
61.9974
60.5654
59.0062
57.7643
57.0531
56.7834
56.8131
57.0191
57.3717
57.8234
58.394
59.0415
59.8112
60.6495
61.6308
62.6769
63.9024
65.1872
66.7066
68.2739
70.158
72.0662
74.415
76.747
79.7097
82.5842
86.3776
89.9792
94.9589
99.6204
106.391
112.752
122.352
131.315
144.745
156.469
173.236
185.507
202.366
212.092
229.991
244.12
262.907
276.569
248.435
254.89
180.848
142.452
146.639
163.561
163.163
160.321
147.845
140.22
129.276
122.912
114.321
109.145
102.858
99.3247
95.1728
92.8826
90.1404
88.4928
86.3521
84.7083
82.6011
80.6662
78.3532
76.1091
73.7171
71.4941
69.3606
67.4633
65.7727
64.3016
63.0377
61.8856
60.8812
59.8693
58.9643
57.9632
57.0674
56.0219
55.104
54.0181
53.0744
52.0062
51.0478
50.1235
49.3302
47.8852
38.2822
40.9798
46.2339
53.0878
58.9678
62.0881
62.7336
61.9861
60.5886
59.0492
57.8167
57.1072
56.835
56.8607
57.0627
57.412
57.8609
58.4294
59.0754
59.844
60.6817
61.6628
62.7091
63.935
65.2204
66.7409
68.3094
70.1951
72.105
74.4559
76.7901
79.7557
82.6335
86.431
90.0376
95.0235
99.6923
106.471
112.839
122.445
131.41
144.837
156.557
173.317
185.59
202.457
212.213
230.09
244.182
262.77
276.262
247.823
253.673
179.806
141.834
146.202
163.192
162.916
160.181
147.786
140.21
129.288
122.931
114.348
109.18
102.9
99.3685
95.2149
92.9201
90.1721
88.5182
86.3723
84.7249
82.6155
80.6802
78.3684
76.1268
73.7375
71.5171
69.3853
67.4888
65.7976
64.3246
63.058
61.9025
60.8942
59.8784
58.9692
57.964
57.0632
56.013
55.0885
53.9963
53.0435
51.9665
50.9966
50.0598
49.2528
47.8047
38.2707
40.9341
46.1335
52.9392
58.8111
61.9684
62.6716
61.9753
60.6119
59.0922
57.8688
57.161
56.8863
56.9081
57.1062
57.4521
57.8982
58.4647
59.109
59.8767
60.7137
61.6947
62.741
63.9674
65.2535
66.775
68.3446
70.2319
72.1434
74.4964
76.8329
79.8012
82.6822
86.4838
90.0955
95.0875
99.7634
106.55
112.925
122.536
131.504
144.929
156.644
173.396
185.672
202.546
212.332
230.185
244.24
262.629
275.949
247.203
252.442
178.749
141.202
145.75
162.808
162.656
160.032
147.719
140.195
129.297
122.947
114.372
109.212
102.939
99.4105
95.2555
92.9563
90.2026
88.5425
86.3916
84.7405
82.629
80.6934
78.383
76.1439
73.7573
71.5394
69.4095
67.5137
65.822
64.3472
63.0779
61.919
60.907
59.8873
58.9738
57.9646
57.0589
56.004
55.073
53.9745
53.0127
51.927
50.9457
49.9966
49.1761
47.725
38.2593
40.8889
46.0338
52.7914
58.6553
61.8495
62.6102
61.9648
60.6352
59.135
57.9208
57.2146
56.9373
56.9553
57.1495
57.4919
57.9354
58.4997
59.1425
59.9091
60.7455
61.7263
62.7727
63.9995
65.2862
66.8088
68.3795
70.2683
72.1815
74.5365
76.8751
79.8463
82.7304
86.5361
90.1527
95.1507
99.8336
106.627
113.01
122.626
131.596
145.018
156.729
173.473
185.753
202.633
212.447
230.277
244.293
262.483
275.631
246.577
251.195
177.677
140.554
145.28
162.409
162.385
159.873
147.646
140.174
129.301
122.96
114.393
109.242
102.975
99.4505
95.2944
92.9911
90.2319
88.5657
86.4097
84.7551
82.6416
80.7059
78.3968
76.1602
73.7764
71.5611
69.4329
67.538
65.8458
64.3693
63.0973
61.9352
60.9194
59.8959
58.9782
57.965
57.0545
55.9949
55.0573
53.9526
52.9819
51.8876
50.8951
49.9337
49.0999
47.646
38.2481
40.8439
45.9348
52.6446
58.5003
61.7314
62.5494
61.9546
60.6586
59.1776
57.9724
57.2678
56.9881
57.0021
57.1925
57.5316
57.9723
58.5345
59.1757
59.9413
60.7771
61.7577
62.8041
64.0313
65.3187
66.8422
68.414
70.3043
72.2191
74.5762
76.9169
79.8908
82.7781
86.5877
90.2092
95.213
99.903
106.704
113.094
122.714
131.687
145.106
156.813
173.549
185.831
202.717
212.558
230.364
244.34
262.333
275.307
245.943
249.933
176.588
139.889
144.793
161.995
162.101
159.706
147.566
140.148
129.3
122.969
114.41
109.268
103.01
99.4884
95.3315
93.0244
90.2598
88.5876
86.4268
84.7687
82.6533
80.7175
78.4099
76.1758
73.7947
71.5821
69.4557
67.5616
65.8689
64.3909
63.1163
61.951
60.9315
59.9041
58.9824
57.9651
57.0498
55.9855
55.0416
53.9306
52.9511
51.8482
50.8446
49.8713
49.0243
47.5677
38.2369
40.7994
45.8365
52.4986
58.3462
61.6141
62.4892
61.9448
60.682
59.2201
58.0237
57.3207
57.0385
57.0487
57.2352
57.571
58.0089
58.5691
59.2087
59.9733
60.8084
61.7888
62.8352
64.0629
65.3508
66.8753
68.4482
70.34
72.2563
74.6154
76.9582
79.9347
82.825
86.6386
90.2648
95.2745
99.9713
106.78
113.177
122.802
131.776
145.193
156.895
173.622
185.906
202.798
212.666
230.448
244.383
262.178
274.978
245.303
248.655
175.481
139.206
144.287
161.565
161.805
159.529
147.479
140.117
129.296
122.974
114.425
109.292
103.042
99.5242
95.367
93.0563
90.2864
88.6084
86.4426
84.7812
82.6641
80.7283
78.4221
76.1906
73.8123
71.6022
69.4777
67.5846
65.8915
64.4119
63.1348
61.9663
60.9432
59.9121
58.9862
57.965
57.0449
55.976
55.0257
53.9086
52.9203
51.8089
50.7943
49.8091
48.9493
47.4901
38.2259
40.7553
45.7389
52.3535
58.193
61.4976
62.4296
61.9353
60.7055
59.2624
58.0748
57.3733
57.0886
57.095
57.2777
57.6101
58.0454
58.6034
59.2415
60.005
60.8395
61.8196
62.8661
64.0941
65.3827
66.9081
68.482
70.3752
72.2931
74.6541
76.999
79.9781
82.8714
86.6888
90.3197
95.3351
100.039
106.854
113.258
122.887
131.864
145.278
156.975
173.694
185.98
202.877
212.771
230.528
244.421
262.02
274.644
244.657
247.361
174.355
138.504
143.763
161.12
161.498
159.344
147.386
140.082
129.288
122.975
114.436
109.313
103.071
99.5581
95.4008
93.0866
90.3117
88.6278
86.4573
84.7927
82.6739
80.7382
78.4335
76.2047
73.8291
71.6217
69.499
67.6068
65.9134
64.4323
63.1527
61.9812
60.9545
59.9197
58.9898
57.9647
57.0398
55.9663
55.0096
53.8864
52.8894
51.7696
50.7442
49.7473
48.8748
47.413
38.2149
40.7115
45.642
52.2093
58.0406
61.3819
62.3706
61.9261
60.729
59.3045
58.1256
57.4256
57.1385
57.1411
57.3199
57.6491
58.0815
58.6375
59.274
60.0365
60.8703
61.8502
62.8967
64.1251
65.4141
66.9404
68.5154
70.4101
72.3294
74.6923
77.0392
80.0208
82.917
86.7383
90.3738
95.3949
100.105
106.927
113.338
122.972
131.95
145.361
157.053
173.764
186.051
202.954
212.872
230.603
244.454
261.857
274.306
244.005
246.053
173.211
137.782
143.218
160.659
161.179
159.151
147.286
140.041
129.275
122.974
114.444
109.331
103.098
99.5898
95.4328
93.1155
90.3357
88.6461
86.4709
84.8031
82.6827
80.7472
78.4441
76.2179
73.8452
71.6403
69.5196
67.6284
65.9347
64.4522
63.1702
61.9956
60.9654
59.9269
58.993
57.9641
57.0345
55.9564
54.9934
53.8641
52.8585
51.7303
50.6942
49.6857
48.8007
47.3365
38.2041
40.6681
45.5459
52.0659
57.8891
61.2669
62.3122
61.9172
60.7525
59.3464
58.1761
57.4776
57.188
57.1868
57.3618
57.6877
58.1175
58.6713
59.3063
60.0677
60.9008
61.8805
62.9269
64.1557
65.4453
66.9725
68.5484
70.4445
72.3652
74.73
77.0788
80.063
82.962
86.787
90.4271
95.4536
100.17
106.999
113.416
123.054
132.034
145.442
157.129
173.832
186.12
203.028
212.969
230.675
244.482
261.69
273.963
243.348
244.73
172.046
137.038
142.654
160.183
160.849
158.949
147.18
139.995
129.259
122.968
114.449
109.347
103.123
99.6196
95.4631
93.1429
90.3583
88.6631
86.4833
84.8125
82.6905
80.7553
78.4538
76.2304
73.8604
71.6582
69.5393
67.6492
65.9554
64.4714
63.1871
62.0096
60.9759
59.9338
58.996
57.9632
57.0289
55.9463
54.977
53.8417
52.8275
51.691
50.6443
49.6244
48.7271
47.2605
38.1934
40.6251
45.4504
51.9234
57.7385
61.1527
62.2544
61.9086
60.776
59.3882
58.2263
57.5292
57.2372
57.2322
57.4035
57.7261
58.1532
58.7049
59.3383
60.0987
60.9311
61.9104
62.9569
64.186
65.4761
67.0041
68.581
70.4784
72.4006
74.7672
77.1179
80.1045
83.0063
86.835
90.4795
95.5115
100.234
107.07
113.493
123.136
132.117
145.522
157.203
173.898
186.187
203.099
213.063
230.743
244.506
261.52
273.616
242.686
243.393
170.862
136.273
142.07
159.692
160.508
158.74
147.069
139.946
129.238
122.96
114.451
109.36
103.145
99.6474
95.4917
93.1689
90.3797
88.679
86.4946
84.8208
82.6974
80.7625
78.4627
76.242
73.8749
71.6753
69.5584
67.6694
65.9754
64.4901
63.2035
62.0231
60.986
59.9404
58.9986
57.962
57.0231
55.9359
54.9604
53.8191
52.7964
51.6517
50.5945
49.5633
48.6539
47.1851
38.1827
40.5824
45.3556
51.7818
57.5887
61.0394
62.1972
61.9003
60.7996
59.4298
58.2762
57.5806
57.2861
57.2774
57.4449
57.7642
58.1886
58.7383
59.3701
60.1294
60.9611
61.9402
62.9865
64.216
65.5065
67.0354
68.6132
70.5119
72.4355
74.8039
77.1564
80.1454
83.0499
86.8822
90.531
95.5684
100.297
107.14
113.569
123.215
132.198
145.599
157.275
173.962
186.252
203.168
213.154
230.808
244.525
261.346
273.265
242.019
242.042
169.658
135.486
141.466
159.187
160.157
158.523
146.952
139.891
129.215
122.948
114.45
109.37
103.165
99.6732
95.5186
93.1934
90.3997
88.6936
86.5048
84.8281
82.7034
80.7688
78.4708
76.2528
73.8886
71.6916
69.5767
67.6888
65.9947
64.5082
63.2194
62.0361
60.9957
59.9466
59.0009
57.9606
57.017
55.9254
54.9436
53.7964
52.7653
51.6123
50.5448
49.5025
48.5811
47.1101
38.1722
40.5402
45.2615
51.641
57.4398
60.9268
62.1407
61.8923
60.8232
59.4713
58.3258
57.6316
57.3346
57.3222
57.486
57.8021
58.2238
58.7713
59.4016
60.1598
60.9908
61.9696
63.0159
64.2456
65.5366
67.0663
68.645
70.545
72.4699
74.84
77.1944
80.1856
83.0928
86.9286
90.5817
95.6243
100.359
107.208
113.643
123.293
132.277
145.675
157.346
174.024
186.314
203.234
213.241
230.868
244.54
261.169
272.91
241.349
240.679
168.434
134.676
140.841
158.666
159.795
158.299
146.829
139.833
129.187
122.934
114.447
109.378
103.183
99.6971
95.5439
93.2165
90.4184
88.707
86.5138
84.8344
82.7084
80.7743
78.4781
76.2629
73.9014
71.7071
69.5942
67.7075
66.0134
64.5257
63.2348
62.0487
61.005
59.9525
59.0029
57.9589
57.0107
55.9146
54.9267
53.7735
52.734
51.5729
50.4952
49.4418
48.5086
47.0356
38.1618
40.4983
45.1681
51.5011
57.2918
60.8149
62.0847
61.8846
60.8468
59.5125
58.3752
57.6822
57.3829
57.3668
57.5269
57.8397
58.2587
58.8042
59.4328
60.1899
61.0202
61.9987
63.0449
64.2749
65.5663
67.0968
68.6764
70.5776
72.5038
74.8756
77.2317
80.2253
83.135
86.9742
90.6315
95.6792
100.42
107.275
113.716
123.37
132.354
145.749
157.414
174.084
186.374
203.297
213.325
230.925
244.55
260.989
272.552
240.675
239.304
167.19
133.843
140.196
158.132
159.424
158.068
146.701
139.77
129.156
122.916
114.441
109.383
103.199
99.7191
95.5676
93.2382
90.4359
88.7193
86.5218
84.8396
82.7125
80.779
78.4845
76.2721
73.9135
71.7219
69.6109
67.7255
66.0314
64.5427
63.2496
62.0609
61.0139
59.958
59.0046
57.9569
57.0041
55.9036
54.9095
53.7504
52.7027
51.5335
50.4456
49.3813
48.4365
46.9615
38.1515
40.4567
45.0753
51.3621
57.1446
60.7039
62.0292
61.8773
60.8704
59.5536
58.4243
57.7326
57.4308
57.411
57.5674
57.877
58.2933
58.8367
59.4638
60.2198
61.0494
62.0275
63.0736
64.3039
65.5957
67.1269
68.7073
70.6097
72.5372
74.9107
77.2684
80.2642
83.1765
87.0191
90.6804
95.7332
100.48
107.341
113.788
123.445
132.43
145.822
157.481
174.142
186.431
203.359
213.406
230.979
244.557
260.806
272.192
239.998
237.919
165.927
132.987
139.53
157.583
159.044
157.831
146.569
139.704
129.122
122.896
114.432
109.386
103.212
99.7393
95.5896
93.2584
90.4521
88.7305
86.5287
84.844
82.7157
80.7827
78.4901
76.2805
73.9248
71.7358
69.6269
67.7428
66.0488
64.5591
63.264
62.0726
61.0224
59.9631
59.006
57.9546
56.9973
55.8924
54.8922
53.7272
52.6712
51.494
50.3961
49.321
48.3647
46.8878
38.1413
40.4155
44.9833
51.2239
56.9983
60.5937
61.9744
61.8702
60.8941
59.5945
58.473
57.7826
57.4784
57.455
57.6077
57.914
58.3277
58.869
59.4944
60.2494
61.0782
62.056
63.102
64.3325
65.6247
67.1566
68.7378
70.6414
72.5701
74.9452
77.3046
80.3025
83.2172
87.0631
90.7285
95.7861
100.538
107.405
113.858
123.518
132.504
145.892
157.546
174.197
186.487
203.417
213.483
231.029
244.559
260.62
271.828
239.32
236.523
164.644
132.108
138.845
157.022
158.656
157.589
146.432
139.634
129.085
122.873
114.421
109.387
103.224
99.7578
95.6101
93.2774
90.4671
88.7406
86.5346
84.8473
82.718
80.7857
78.495
76.2882
73.9354
71.7491
69.6422
67.7594
66.0656
64.5748
63.2778
62.0838
61.0305
59.9679
59.0071
57.952
56.9902
55.8809
54.8746
53.7038
52.6396
51.4544
50.3466
49.2608
48.2932
46.8145
38.1312
40.3747
44.8919
51.0866
56.8529
60.4842
61.9202
61.8634
60.9178
59.6353
58.5215
57.8322
57.5257
57.4986
57.6476
57.9508
58.3618
58.901
59.5249
60.2787
61.1067
62.0841
63.13
64.3607
65.6533
67.1859
68.7679
70.6726
72.6025
74.9792
77.3401
80.3401
83.2572
87.1063
90.7756
95.8381
100.596
107.469
113.926
123.59
132.577
145.961
157.608
174.251
186.54
203.473
213.558
231.075
244.558
260.432
271.463
238.64
235.12
163.343
131.206
138.14
156.447
158.259
157.34
146.291
139.561
129.045
122.847
114.407
109.386
103.234
99.7745
95.6291
93.295
90.481
88.7495
86.5395
84.8497
82.7195
80.7878
78.499
76.2951
73.9451
71.7615
69.6567
67.7753
66.0817
64.5901
63.2911
62.0946
61.0382
59.9724
59.0078
57.9492
56.9829
55.8692
54.8569
53.6803
52.6079
51.4148
50.2971
49.2008
48.2219
46.7415
38.1212
40.3343
44.8013
50.9501
56.7084
60.3756
61.8665
61.8569
60.9415
59.6758
58.5697
57.8816
57.5726
57.5419
57.6873
57.9873
58.3956
58.9328
59.555
60.3077
61.135
62.112
63.1578
64.3886
65.6815
67.2148
68.7975
70.7034
72.6343
75.0126
77.3751
80.3771
83.2965
87.1488
90.8219
95.8891
100.652
107.53
113.993
123.66
132.647
146.027
157.669
174.303
186.591
203.527
213.629
231.119
244.553
260.242
271.096
237.959
233.708
162.024
130.28
137.416
155.861
157.855
157.087
146.146
139.484
129.002
122.819
114.391
109.383
103.241
99.7895
95.6467
93.3113
90.4937
88.7575
86.5435
84.8513
82.7201
80.7892
78.5023
76.3012
73.9542
71.7732
69.6705
67.7905
66.0972
64.6047
63.3039
62.105
61.0455
59.9765
59.0083
57.946
56.9753
55.8573
54.839
53.6565
52.5761
51.3751
50.2477
49.1408
48.151
46.6689
38.1113
40.2942
44.7113
50.8146
56.5647
60.2677
61.8135
61.8507
60.9652
59.7162
58.6176
57.9306
57.6192
57.5849
57.7267
58.0235
58.4291
58.9642
59.5849
60.3365
61.163
62.1396
63.1851
64.4162
65.7094
67.2432
68.8267
70.7336
72.6657
75.0454
77.4094
80.4134
83.335
87.1904
90.8673
95.9391
100.708
107.591
114.059
123.729
132.716
146.092
157.728
174.354
186.64
203.579
213.698
231.16
244.545
260.05
270.727
237.278
232.291
160.688
129.332
136.674
155.263
157.444
156.829
145.998
139.405
128.957
122.789
114.373
109.377
103.247
99.8029
95.6628
93.3264
90.5052
88.7644
86.5465
84.852
82.7199
80.7898
78.5048
76.3066
73.9625
71.7842
69.6836
67.805
66.1121
64.6188
63.3163
62.1149
61.0524
59.9802
59.0084
57.9426
56.9675
55.8451
54.8209
53.6326
52.5442
51.3353
50.1982
49.081
48.0803
46.5966
38.1015
40.2545
44.622
50.6799
56.422
60.1606
61.761
61.8447
60.989
59.7564
58.6652
57.9792
57.6654
57.6276
57.7657
58.0594
58.4624
58.9954
59.6144
60.3649
61.1906
62.1668
63.2122
64.4434
65.7368
67.2713
68.8555
70.7634
72.6965
75.0777
77.4431
80.449
83.3728
87.2312
90.9117
95.9881
100.762
107.651
114.123
123.796
132.783
146.155
157.785
174.402
186.687
203.628
213.763
231.197
244.533
259.857
270.358
236.597
230.868
159.335
128.361
135.913
154.655
157.027
156.567
145.846
139.323
128.909
122.757
114.353
109.37
103.252
99.8148
95.6775
93.3403
90.5157
88.7704
86.5486
84.8518
82.7189
80.7896
78.5066
76.3113
73.97
71.7945
69.696
67.8189
66.1263
64.6324
63.3281
62.1243
61.059
59.9837
59.0082
57.939
56.9594
55.8328
54.8026
53.6086
52.5121
51.2954
50.1488
49.0213
48.0098
46.5246
38.0918
40.2151
44.5334
50.5461
56.2801
60.0544
61.7091
61.8391
61.0127
59.7965
58.7125
58.0276
57.7113
57.6699
57.8045
58.095
58.4954
59.0263
59.6437
60.3931
61.2179
62.1938
63.2389
64.4702
65.7639
67.299
68.8838
70.7927
72.7269
75.1094
77.4762
80.484
83.4099
87.2712
90.9553
96.0361
100.815
107.709
114.186
123.861
132.848
146.217
157.84
174.448
186.731
203.676
213.826
231.232
244.518
259.662
269.987
235.917
229.442
157.967
127.369
135.136
154.037
156.604
156.302
145.692
139.239
128.859
122.722
114.332
109.361
103.254
99.8253
95.691
93.3531
90.5252
88.7754
86.5498
84.8509
82.7172
80.7887
78.5077
76.3153
73.9769
71.8041
69.7077
67.8321
66.14
64.6454
63.3395
62.1334
61.0652
59.9868
59.0078
57.9351
56.9511
55.8202
54.7841
53.5844
52.48
51.2555
50.0994
48.9617
47.9395
46.4529
38.0822
40.1761
44.4455
50.4132
56.1392
59.9489
61.6577
61.8337
61.0365
59.8363
58.7595
58.0755
57.7569
57.7119
57.843
58.1303
58.5281
59.0569
59.6727
60.4209
61.245
62.2204
63.2653
64.4967
65.7906
67.3263
68.9117
70.8216
72.7567
75.1406
77.5087
80.5183
83.4463
87.3105
90.9981
96.0832
100.867
107.766
114.247
123.925
132.912
146.276
157.893
174.493
186.774
203.721
213.886
231.264
244.501
259.466
269.616
235.239
228.014
156.585
126.356
134.342
153.41
156.176
156.033
145.535
139.152
128.807
122.686
114.308
109.351
103.256
99.8343
95.7031
93.3647
90.5336
88.7796
86.5502
84.8491
82.7147
80.7871
78.5082
76.3186
73.9831
71.813
69.7188
67.8447
66.1531
64.6579
63.3504
62.1421
61.071
59.9895
59.0071
57.9309
56.9426
55.8074
54.7654
53.56
52.4477
51.2155
50.05
48.9023
47.8695
46.3814
38.0727
40.1374
44.3582
50.2811
55.9991
59.8442
61.6069
61.8286
61.0602
59.8759
58.8062
58.1231
57.8021
57.7536
57.8811
58.1654
58.5605
59.0873
59.7014
60.4485
61.2717
62.2466
63.2913
64.5229
65.817
67.3531
68.9391
70.85
72.786
75.1712
77.5406
80.552
83.4819
87.3489
91.0399
96.1292
100.917
107.822
114.308
123.988
132.974
146.334
157.945
174.536
186.815
203.764
213.944
231.293
244.48
259.269
269.246
234.562
226.586
155.19
125.323
133.532
152.774
155.744
155.762
145.376
139.063
128.753
122.649
114.283
109.339
103.255
99.842
95.7141
93.3753
90.5411
88.7829
86.5499
84.8467
82.7116
80.7849
78.5079
76.3213
73.9886
71.8212
69.7292
67.8567
66.1656
64.6699
63.3608
62.1503
61.0764
59.992
59.0061
57.9265
56.9338
55.7944
54.7466
53.5354
52.4154
51.1755
50.0007
48.8429
47.7997
46.3103
38.0633
40.0991
44.2717
50.15
55.86
59.7403
61.5567
61.8237
61.084
59.9154
58.8526
58.1704
57.847
57.795
57.919
58.2001
58.5926
59.1173
59.7299
60.4757
61.2982
62.2726
63.3171
64.5486
65.8429
67.3796
68.9661
70.8779
72.8148
75.2013
77.5719
80.585
83.5168
87.3866
91.0809
96.1744
100.967
107.876
114.366
124.049
133.035
146.391
157.995
174.577
186.854
203.805
213.999
231.32
244.458
259.071
268.875
233.889
225.158
153.783
124.271
132.708
152.132
155.309
155.489
145.215
138.973
128.698
122.61
114.257
109.326
103.254
99.8485
95.7239
93.3848
90.5478
88.7854
86.5487
84.8436
82.7078
80.782
78.5071
76.3233
73.9935
71.8288
69.7389
67.8681
66.1776
64.6814
63.3708
62.1582
61.0816
59.9942
59.0048
57.9218
56.9249
55.7812
54.7276
53.5107
52.3829
51.1353
49.9513
48.7836
47.7301
46.2394
38.054
40.0612
44.1859
50.0198
55.7217
59.6372
61.5071
61.8191
61.1077
59.9547
58.8986
58.2173
57.8915
57.836
57.9565
58.2345
58.6244
59.1471
59.758
60.5027
61.3243
62.2983
63.3424
64.5741
65.8685
67.4056
68.9927
70.9053
72.8431
75.2308
77.6026
80.6173
83.551
87.4235
91.121
96.2185
101.016
107.929
114.424
124.108
133.094
146.445
158.043
174.616
186.891
203.844
214.052
231.344
244.432
258.873
268.506
233.22
223.732
152.367
123.2
131.87
151.483
154.871
155.214
145.052
138.881
128.641
122.569
114.229
109.311
103.251
99.8538
95.7326
93.3934
90.5535
88.7871
86.5469
84.8399
82.7034
80.7786
78.5056
76.3247
73.9978
71.8358
69.7481
67.8789
66.1891
64.6924
63.3804
62.1657
61.0864
59.9961
59.0033
57.9169
56.9157
55.7679
54.7084
53.4859
52.3504
51.0952
49.902
48.7244
47.6607
46.1688
38.0448
40.0236
44.1007
49.8904
55.5844
59.5349
61.458
61.8147
61.1314
59.9937
58.9444
58.2639
57.9357
57.8767
57.9937
58.2686
58.6559
59.1765
59.7858
60.5294
61.3501
62.3236
63.3675
64.5991
65.8937
67.4313
69.0188
70.9323
72.8709
75.2598
77.6327
80.649
83.5845
87.4596
91.1603
96.2618
101.063
107.982
114.48
124.166
133.151
146.498
158.089
174.654
186.927
203.881
214.102
231.366
244.405
258.675
268.137
232.554
222.31
150.941
122.112
131.02
150.829
154.43
154.938
144.889
138.788
128.582
122.528
114.2
109.296
103.247
99.858
95.7404
93.4011
90.5584
88.7882
86.5445
84.8355
82.6985
80.7746
78.5036
76.3256
74.0015
71.8422
69.7567
67.8892
66.2
64.7029
63.3895
62.1728
61.0908
59.9977
59.0015
57.9118
56.9064
55.7543
54.6891
53.461
52.3177
51.0549
49.8527
48.6653
47.5916
46.0984
38.0357
39.9864
44.0163
49.762
55.4481
59.4335
61.4095
61.8106
61.1551
60.0326
58.9898
58.3101
57.9795
57.9171
58.0306
58.3025
58.6872
59.2057
59.8134
60.5557
61.3756
62.3486
63.3922
64.6238
65.9186
67.4565
69.0446
70.9588
72.8982
75.2882
77.6623
80.6801
83.6174
87.495
91.1988
96.3041
101.11
108.033
114.534
124.223
133.207
146.55
158.134
174.69
186.961
203.917
214.151
231.387
244.376
258.477
267.77
231.893
220.894
149.508
121.009
130.159
150.17
153.988
154.661
144.724
138.694
128.523
122.485
114.17
109.279
103.242
99.8611
95.7472
93.408
90.5626
88.7885
86.5415
84.8306
82.693
80.77
78.501
76.3259
74.0046
71.848
69.7647
67.8989
66.2104
64.7131
63.3983
62.1796
61.095
59.9991
58.9995
57.9065
56.8968
55.7406
54.6697
53.4359
52.285
51.0147
49.8034
48.6064
47.5226
46.0284
38.0267
39.9495
43.9326
49.6345
55.3126
59.3328
61.3615
61.8067
61.1788
60.0712
59.0349
58.3559
58.023
57.9571
58.0671
58.336
58.7181
59.2346
59.8406
60.5818
61.4008
62.3733
63.4165
64.6482
65.943
67.4814
69.0699
70.9848
72.925
75.3161
77.6912
80.7106
83.6495
87.5296
91.2365
96.3455
101.156
108.082
114.588
124.278
133.262
146.6
158.178
174.725
186.993
203.951
214.197
231.405
244.345
258.28
267.405
231.237
219.484
148.07
119.891
129.288
149.508
153.546
154.383
144.559
138.599
128.463
122.442
114.14
109.261
103.236
99.8634
95.753
93.414
90.5661
88.7883
86.5379
84.8252
82.687
80.765
78.4979
76.3256
74.0072
71.8533
69.7722
67.9081
66.2204
64.7227
63.4067
62.186
61.0989
60.0001
58.9973
57.9009
56.8871
55.7267
54.6501
53.4107
52.2522
50.9744
49.7542
48.5475
47.4539
45.9585
38.0178
39.913
43.8495
49.508
55.1781
59.2329
61.314
61.8031
61.2024
60.1096
59.0797
58.4014
58.066
57.9968
58.1034
58.3692
58.7487
59.2632
59.8676
60.6076
61.4257
62.3977
63.4406
64.6722
65.9671
67.5058
69.0947
71.0104
72.9514
75.3435
77.7197
80.7404
83.681
87.5635
91.2734
96.3861
101.2
108.131
114.64
124.332
133.315
146.648
158.22
174.758
187.024
203.983
214.241
231.421
244.312
258.083
267.042
230.587
218.082
146.627
118.759
128.408
148.844
153.103
154.106
144.394
138.504
128.402
122.398
114.108
109.243
103.229
99.8648
95.7581
93.4193
90.5689
88.7875
86.5337
84.8193
82.6806
80.7595
78.4944
76.3249
74.0093
71.8581
69.7791
67.9168
66.2298
64.732
63.4147
62.1921
61.1025
60.001
58.9949
57.8952
56.8772
55.7127
54.6304
53.3855
52.2194
50.9341
49.705
48.4888
47.3854
45.889
38.009
39.8769
43.7672
49.3824
55.0446
59.1339
61.2671
61.7997
61.226
60.1478
59.1242
58.4465
58.1088
58.0361
58.1393
58.4021
58.7791
59.2914
59.8942
60.6331
61.4503
62.4217
63.4643
64.6959
65.9908
67.5299
69.1192
71.0356
72.9772
75.3704
77.7475
80.7697
83.7118
87.5968
91.3094
96.4258
101.244
108.179
114.691
124.385
133.366
146.695
158.26
174.79
187.053
204.015
214.284
231.436
244.278
257.886
266.681
229.943
216.689
145.183
117.616
127.521
148.178
152.66
153.83
144.229
138.408
128.34
122.353
114.076
109.224
103.222
99.8654
95.7624
93.424
90.5711
88.7862
86.5292
84.813
82.6737
80.7536
78.4904
76.3237
74.0109
71.8624
69.7856
67.9251
66.2389
64.7408
63.4223
62.1979
61.1058
60.0016
58.9923
57.8893
56.8672
55.6985
54.6106
53.3601
52.1866
50.8937
49.6559
48.4303
47.3172
45.8197
38.0003
39.8411
43.6856
49.2577
54.912
59.0357
61.2208
61.7965
61.2496
60.1858
59.1683
58.4912
58.1511
58.0751
58.1749
58.4346
58.8091
59.3194
59.9206
60.6582
61.4746
62.4454
63.4877
64.7192
66.0142
67.5536
69.1432
71.0603
73.0026
75.3968
77.7748
80.7983
83.742
87.6293
91.3448
96.4647
101.287
108.226
114.741
124.436
133.416
146.741
158.299
174.821
187.081
204.044
214.325
231.449
244.243
257.691
266.323
229.306
215.308
143.737
116.463
126.628
147.512
152.22
153.554
144.065
138.312
128.278
122.308
114.043
109.204
103.213
99.8653
95.7661
93.428
90.5728
88.7844
86.5242
84.8063
82.6665
80.7473
78.486
76.3221
74.0121
71.8662
69.7916
67.9328
66.2475
64.7493
63.4297
62.2035
61.1089
60.002
58.9895
57.8833
56.857
55.6843
54.5907
53.3347
52.1537
50.8534
49.6069
48.3718
47.2492
45.7507
37.9916
39.8057
43.6047
49.134
54.7804
58.9383
61.175
61.7935
61.2731
60.2235
59.2121
58.5355
58.1931
58.1137
58.2101
58.4669
58.8388
59.3471
59.9467
60.6831
61.4985
62.4689
63.5107
64.7422
66.0372
67.5769
69.1669
71.0846
73.0275
75.4226
77.8016
80.8264
83.7716
87.6611
91.3794
96.5027
101.328
108.271
114.79
124.486
133.465
146.785
158.337
174.85
187.108
204.073
214.364
231.461
244.207
257.497
265.967
228.677
213.938
142.293
115.301
125.73
146.846
151.78
153.281
143.901
138.216
128.216
122.263
114.01
109.184
103.204
99.8646
95.7691
93.4314
90.574
88.7822
86.5188
84.7993
82.6589
80.7406
78.4813
76.3202
74.0129
71.8696
69.7972
67.9402
66.2558
64.7575
63.4367
62.2087
61.1118
60.0022
58.9865
57.8771
56.8467
55.6699
54.5707
53.3092
52.1208
50.8131
49.558
48.3136
47.1814
45.682
37.9831
39.7706
43.5245
49.0112
54.6498
58.8417
61.1297
61.7907
61.2966
60.261
59.2556
58.5795
58.2347
58.1519
58.2451
58.4988
58.8683
59.3745
59.9724
60.7077
61.5222
62.492
63.5335
64.7648
66.0598
67.5998
69.1901
71.1085
73.052
75.448
77.8278
80.8539
83.8006
87.6923
91.4133
96.5399
101.369
108.316
114.838
124.535
133.513
146.828
158.374
174.879
187.133
204.1
214.402
231.471
244.17
257.305
265.616
228.055
212.583
140.851
114.133
124.83
146.182
151.344
153.009
143.738
138.121
128.154
122.218
113.977
109.163
103.195
99.8633
95.7715
93.4344
90.5747
88.7796
86.5132
84.792
82.6511
80.7337
78.4762
76.3178
74.0133
71.8726
69.8024
67.9472
66.2636
64.7652
63.4434
62.2137
61.1144
60.0023
58.9833
57.8708
56.8363
55.6554
54.5507
53.2836
52.0879
50.7729
49.5091
48.2555
47.1139
45.6136
37.9747
39.7359
43.4451
48.8894
54.5202
58.746
61.085
61.7881
61.32
60.2983
59.2987
58.6231
58.2759
58.1899
58.2796
58.5305
58.8974
59.4016
59.9979
60.732
61.5456
62.5148
63.5559
64.7871
66.0822
67.6224
69.213
71.1319
73.076
75.4729
77.8535
80.8809
83.8289
87.7228
91.4464
96.5764
101.409
108.359
114.884
124.583
133.56
146.87
158.409
174.906
187.158
204.126
214.439
231.481
244.132
257.114
265.267
227.441
211.242
139.414
112.959
123.928
145.521
150.911
152.739
143.577
138.026
128.092
122.172
113.944
109.143
103.186
99.8616
95.7735
93.4368
90.575
88.7767
86.5072
84.7844
82.643
80.7265
78.4708
76.3151
74.0133
71.8752
69.8072
67.9538
66.2711
64.7727
63.4498
62.2185
61.1168
60.0021
58.9801
57.8643
56.8258
55.6408
54.5306
53.2581
52.055
50.7327
49.4604
48.1977
47.0468
45.5455
37.9663
39.7015
43.3663
48.7686
54.3916
58.651
61.0408
61.7858
61.3433
60.3354
59.3414
58.6663
58.3167
58.2274
58.3139
58.5618
58.9262
59.4284
60.0231
60.756
61.5687
62.5373
63.578
64.8091
66.1041
67.6446
69.2355
71.155
73.0996
75.4974
77.8788
80.9073
83.8567
87.7527
91.4789
96.6121
101.449
108.402
114.93
124.629
133.605
146.911
158.443
174.932
187.181
204.151
214.474
231.489
244.094
256.924
264.923
226.836
209.917
137.983
111.781
123.025
144.863
150.481
152.472
143.417
137.931
128.03
122.127
113.911
109.122
103.176
99.8595
95.7751
93.4389
90.575
88.7735
86.5011
84.7767
82.6347
80.719
78.4651
76.3121
74.013
71.8775
69.8116
67.96
66.2783
64.7799
63.456
62.223
61.1191
60.0018
58.9767
57.8578
56.8152
55.6262
54.5105
53.2325
52.0221
50.6926
49.4118
48.14
46.9799
45.4778
37.9581
39.6675
43.2883
48.6487
54.2639
58.5569
60.9971
61.7836
61.3666
60.3721
59.3838
58.7091
58.3572
58.2646
58.3478
58.5928
58.9547
59.4549
60.048
60.7797
61.5915
62.5595
63.5998
64.8308
66.1257
67.6664
69.2576
71.1776
73.1228
75.5213
77.9035
80.9332
83.8839
87.782
91.5108
96.6471
101.487
108.444
114.975
124.675
133.649
146.95
158.477
174.957
187.204
204.175
214.508
231.496
244.055
256.737
264.582
226.24
208.61
136.559
110.602
122.124
144.21
150.056
152.208
143.259
137.838
127.968
122.082
113.878
109.101
103.165
99.8571
95.7762
93.4407
90.5747
88.7701
86.4947
84.7688
82.6262
80.7114
78.4592
76.3089
74.0124
71.8795
69.8157
67.9659
66.2852
64.7868
63.4619
62.2273
61.1212
60.0014
58.9731
57.8511
56.8045
55.6115
54.4903
53.2069
51.9893
50.6525
49.3634
48.0825
46.9133
45.4104
37.9499
39.6339
43.2111
48.5299
54.1373
58.4637
60.9539
61.7816
61.3898
60.4087
59.4259
58.7515
58.3973
58.3014
58.3814
58.6235
58.9829
59.4811
60.0726
60.8031
61.614
62.5814
63.6213