/*--------------------------------*- C++ -*----------------------------------*\
| =========                 |                                                 |
| \\      /  F ield         | OpenFOAM: The Open Source CFD Toolbox           |
|  \\    /   O peration     | Version:  2412                                  |
|   \\  /    A nd           | Website:  www.openfoam.com                      |
|    \\/     M anipulation  |                                                 |
\*---------------------------------------------------------------------------*/
FoamFile
{
    version     2.0;
    format      ascii;
    arch        "LSB;label=32;scalar=64";
    class       volScalarField;
    location    "0.4";
    object      nut;
}
// * * * * * * * * * * * * * * * * * * * * * * * * * * * * * * * * * * * * * //

dimensions      [0 2 -1 0 0 0 0];

internalField   nonuniform List<scalar> 
13068
(
0.341526
0.358007
0.377571
0.388116
0.384328
0.370163
0.353798
0.341412
0.335264
0.335157
0.339394
0.345296
0.350528
0.354288
0.356742
0.358454
0.359738
0.36091
0.361975
0.363125
0.364225
0.365494
0.366699
0.368147
0.369481
0.371154
0.372629
0.374579
0.376204
0.378506
0.380304
0.383072
0.385064
0.388432
0.390673
0.39486
0.397452
0.402738
0.405893
0.412509
0.416022
0.423396
0.426132
0.432897
0.433035
0.438159
0.436712
0.444812
0.447358
0.452707
0.452057
0.422646
0.418133
0.3368
0.308248
0.344063
0.377197
0.381948
0.387113
0.380931
0.382817
0.37718
0.377995
0.373013
0.373763
0.370741
0.372181
0.370344
0.371442
0.370132
0.370489
0.368864
0.368131
0.366054
0.364468
0.362048
0.360138
0.358116
0.356751
0.355578
0.354861
0.354348
0.353996
0.353707
0.353256
0.352824
0.352065
0.351405
0.350336
0.349516
0.348243
0.347367
0.346036
0.34517
0.344032
0.343261
0.342787
0.342485
0.339497
0.341464
0.357823
0.377344
0.387994
0.384417
0.3705
0.354336
0.34204
0.335865
0.335644
0.339728
0.345488
0.350622
0.354329
0.356761
0.358466
0.359749
0.360924
0.361992
0.363144
0.364247
0.365518
0.366726
0.368175
0.369511
0.371185
0.372662
0.374614
0.376241
0.378545
0.380344
0.383115
0.385109
0.38848
0.390725
0.394915
0.39751
0.402796
0.405952
0.412562
0.416069
0.423434
0.426165
0.432925
0.433075
0.438207
0.436782
0.444839
0.447357
0.45259
0.451892
0.422219
0.41734
0.335852
0.307632
0.343575
0.376846
0.381814
0.387107
0.380979
0.382876
0.377224
0.378023
0.373047
0.373799
0.370779
0.372211
0.370364
0.371453
0.370135
0.370486
0.368862
0.36813
0.366057
0.364476
0.362061
0.360158
0.358138
0.356775
0.3556
0.35488
0.354361
0.354003
0.353707
0.353251
0.352813
0.35205
0.351385
0.350311
0.349484
0.348204
0.347315
0.345974
0.345088
0.343934
0.34314
0.342642
0.342322
0.339356
0.341401
0.357638
0.377114
0.387868
0.384505
0.370837
0.354871
0.342665
0.336461
0.336126
0.340057
0.345677
0.350715
0.354371
0.35678
0.358478
0.359761
0.360938
0.362009
0.363164
0.364269
0.365543
0.366752
0.368204
0.369541
0.371217
0.372696
0.374649
0.376278
0.378584
0.380385
0.383157
0.385154
0.388528
0.390777
0.394969
0.397568
0.402855
0.40601
0.412614
0.416115
0.423472
0.426197
0.432953
0.433115
0.438254
0.436852
0.444865
0.447356
0.452473
0.451727
0.42179
0.416545
0.334894
0.306999
0.34308
0.376504
0.381694
0.387115
0.381038
0.382942
0.377272
0.378054
0.373082
0.373838
0.370818
0.372243
0.370385
0.371464
0.370138
0.370484
0.368859
0.368129
0.36606
0.364484
0.362075
0.360177
0.35816
0.356798
0.355621
0.354898
0.354374
0.354009
0.353708
0.353247
0.352803
0.352036
0.351366
0.350287
0.349453
0.348166
0.347265
0.345911
0.345007
0.343836
0.34302
0.342498
0.34216
0.339216
0.341338
0.357452
0.376881
0.38774
0.38459
0.371171
0.355404
0.343286
0.337051
0.336601
0.340381
0.345864
0.350807
0.354411
0.356799
0.35849
0.359773
0.360952
0.362025
0.363183
0.364291
0.365567
0.366778
0.368232
0.369571
0.371249
0.372729
0.374684
0.376314
0.378622
0.380425
0.383199
0.385199
0.388576
0.390828
0.395024
0.397626
0.402913
0.406067
0.412666
0.416161
0.423509
0.426229
0.43298
0.433154
0.438301
0.436919
0.444889
0.447353
0.452355
0.451561
0.421357
0.415749
0.333926
0.306348
0.34258
0.376173
0.38159
0.387136
0.381106
0.383014
0.377324
0.378088
0.373118
0.373877
0.370859
0.372275
0.370407
0.371475
0.370141
0.370482
0.368857
0.368129
0.366063
0.364493
0.362089
0.360196
0.358183
0.356821
0.355643
0.354916
0.354387
0.354016
0.353708
0.353242
0.352793
0.352021
0.351346
0.350263
0.349422
0.348128
0.347214
0.345849
0.344926
0.343738
0.342901
0.342356
0.341999
0.339077
0.341276
0.357265
0.376646
0.387609
0.384672
0.371503
0.355934
0.343902
0.337636
0.337072
0.340702
0.346048
0.350898
0.354451
0.356817
0.358502
0.359785
0.360966
0.362042
0.363203
0.364313
0.365591
0.366804
0.36826
0.369601
0.371281
0.372762
0.374719
0.376351
0.37866
0.380465
0.383241
0.385243
0.388623
0.390879
0.395077
0.397683
0.402971
0.406124
0.412717
0.416207
0.423545
0.42626
0.433006
0.433191
0.438346
0.436985
0.444913
0.447348
0.452236
0.451394
0.420922
0.414951
0.332947
0.305679
0.342075
0.375854
0.381502
0.38717
0.381184
0.383093
0.37738
0.378124
0.373156
0.373917
0.3709
0.372308
0.37043
0.371487
0.370145
0.37048
0.368854
0.368128
0.366066
0.364501
0.362104
0.360215
0.358204
0.356843
0.355664
0.354934
0.354399
0.354023
0.353709
0.353237
0.352783
0.352007
0.351327
0.35024
0.349391
0.34809
0.347163
0.345787
0.344846
0.343642
0.342782
0.342214
0.34184
0.33894
0.341214
0.357078
0.376409
0.387474
0.384752
0.371832
0.356461
0.344513
0.338215
0.337537
0.341019
0.34623
0.350987
0.354491
0.356836
0.358514
0.359796
0.360979
0.362058
0.363222
0.364335
0.365615
0.36683
0.368287
0.36963
0.371312
0.372795
0.374754
0.376387
0.378698
0.380504
0.383282
0.385287
0.38867
0.390929
0.39513
0.397739
0.403027
0.40618
0.412767
0.416251
0.42358
0.426291
0.433032
0.433228
0.43839
0.437049
0.444934
0.447341
0.452117
0.451226
0.420482
0.414151
0.331956
0.304994
0.341567
0.375547
0.38143
0.387219
0.381272
0.383178
0.377441
0.378163
0.373195
0.373958
0.370942
0.372342
0.370453
0.371499
0.370148
0.370478
0.368851
0.368128
0.366069
0.36451
0.362118
0.360234
0.358226
0.356866
0.355685
0.354952
0.354412
0.35403
0.35371
0.353233
0.352773
0.351993
0.351308
0.350216
0.34936
0.348052
0.347113
0.345726
0.344766
0.343545
0.342663
0.342073
0.341681
0.338802
0.341151
0.356891
0.37617
0.387337
0.384828
0.372158
0.356984
0.34512
0.338788
0.337996
0.341332
0.346409
0.351075
0.35453
0.356854
0.358525
0.359807
0.360993
0.362074
0.36324
0.364356
0.365638
0.366855
0.368315
0.369659
0.371342
0.372827
0.374787
0.376422
0.378735
0.380542
0.383323
0.385329
0.388715
0.390978
0.395182
0.397794
0.403083
0.406235
0.412816
0.416294
0.423615
0.42632
0.433057
0.433263
0.438433
0.437111
0.444954
0.447333
0.451996
0.451056
0.42004
0.413349
0.330953
0.30429
0.341057
0.375255
0.381375
0.387282
0.38137
0.38327
0.377505
0.378204
0.373235
0.374
0.370984
0.372377
0.370477
0.371512
0.370152
0.370475
0.368849
0.368127
0.366072
0.364518
0.362132
0.360253
0.358248
0.356888
0.355706
0.35497
0.354425
0.354037
0.353711
0.353228
0.352764
0.351979
0.351289
0.350193
0.349329
0.348014
0.347063
0.345664
0.344686
0.343449
0.342545
0.341933
0.341523
0.338666
0.341089
0.356703
0.375929
0.387196
0.384901
0.372482
0.357503
0.345721
0.339355
0.33845
0.34164
0.346587
0.351163
0.354569
0.356872
0.358536
0.359818
0.361006
0.36209
0.363259
0.364376
0.365661
0.36688
0.368341
0.369687
0.371372
0.372859
0.374821
0.376457
0.378771
0.38058
0.383363
0.385372
0.38876
0.391026
0.395233
0.397849
0.403137
0.406288
0.412864
0.416337
0.423648
0.426348
0.43308
0.433297
0.438474
0.437171
0.444973
0.447323
0.451874
0.450885
0.419595
0.412546
0.329937
0.303569
0.340546
0.374977
0.381339
0.38736
0.381478
0.383368
0.377573
0.378248
0.373276
0.374044
0.371028
0.372412
0.370501
0.371524
0.370156
0.370473
0.368846
0.368127
0.366076
0.364527
0.362146
0.360272
0.358269
0.35691
0.355727
0.354988
0.354438
0.354044
0.353712
0.353224
0.352754
0.351965
0.351269
0.350169
0.349298
0.347976
0.347012
0.345603
0.344607
0.343353
0.342428
0.341793
0.341366
0.338531
0.341027
0.356514
0.375685
0.387052
0.384972
0.372802
0.358018
0.346317
0.339917
0.338899
0.341945
0.346762
0.351249
0.354607
0.356889
0.358547
0.359829
0.361018
0.362105
0.363277
0.364397
0.365684
0.366905
0.368368
0.369715
0.371402
0.37289
0.374854
0.376491
0.378807
0.380618
0.383402
0.385413
0.388804
0.391074
0.395284
0.397902
0.403191
0.406341
0.412911
0.416378
0.42368
0.426375
0.433103
0.43333
0.438514
0.437228
0.44499
0.44731
0.451751
0.450714
0.419147
0.411741
0.328908
0.302832
0.340037
0.374716
0.38132
0.387452
0.381596
0.383473
0.377644
0.378294
0.373319
0.374088
0.371072
0.372448
0.370526
0.371538
0.37016
0.370471
0.368843
0.368126
0.366079
0.364535
0.362159
0.36029
0.35829
0.356931
0.355747
0.355005
0.35445
0.35405
0.353713
0.353219
0.352744
0.351951
0.35125
0.350146
0.349267
0.347938
0.346962
0.345542
0.344528
0.343257
0.342311
0.341654
0.34121
0.338396
0.340966
0.356326
0.37544
0.386905
0.385039
0.373119
0.35853
0.346909
0.340473
0.339342
0.342246
0.346935
0.351334
0.354645
0.356906
0.358558
0.359839
0.361031
0.36212
0.363295
0.364417
0.365706
0.366929
0.368394
0.369743
0.371431
0.37292
0.374886
0.376524
0.378842
0.380654
0.38344
0.385454
0.388848
0.39112
0.395333
0.397954
0.403243
0.406393
0.412957
0.416418
0.423712
0.426402
0.433124
0.433361
0.438552
0.437284
0.445005
0.447296
0.451628
0.450541
0.418697
0.410935
0.327865
0.302077
0.339529
0.374472
0.381322
0.387559
0.381724
0.383584
0.37772
0.378342
0.373363
0.374132
0.371116
0.372484
0.370551
0.371551
0.370163
0.370468
0.36884
0.368125
0.366082
0.364543
0.362173
0.360309
0.35831
0.356952
0.355767
0.355023
0.354463
0.354057
0.353713
0.353215
0.352735
0.351937
0.351231
0.350122
0.349236
0.347901
0.346912
0.345481
0.344449
0.343162
0.342195
0.341516
0.341055
0.338262
0.340904
0.356137
0.375192
0.386754
0.385103
0.373433
0.359038
0.347495
0.341023
0.33978
0.342543
0.347105
0.351418
0.354682
0.356923
0.358569
0.35985
0.361043
0.362135
0.363312
0.364437
0.365728
0.366953
0.368419
0.36977
0.37146
0.37295
0.374918
0.376558
0.378877
0.38069
0.383478
0.385494
0.38889
0.391166
0.395382
0.398006
0.403295
0.406443
0.413002
0.416457
0.423742
0.426427
0.433144
0.433391
0.438589
0.437338
0.445019
0.447281
0.451503
0.450367
0.418245
0.410128
0.32681
0.301306
0.339026
0.374247
0.381342
0.387681
0.381862
0.383701
0.377799
0.378392
0.373408
0.374178
0.371161
0.372521
0.370577
0.371565
0.370167
0.370466
0.368836
0.368124
0.366085
0.364551
0.362187
0.360327
0.35833
0.356973
0.355787
0.35504
0.354475
0.354064
0.353714
0.35321
0.352725
0.351923
0.351212
0.350099
0.349206
0.347863
0.346862
0.34542
0.34437
0.343067
0.342079
0.341379
0.340901
0.338129
0.340843
0.355948
0.374943
0.386601
0.385164
0.373744
0.359542
0.348076
0.341567
0.340213
0.342836
0.347274
0.351501
0.354719
0.35694
0.358579
0.35986
0.361055
0.36215
0.363329
0.364456
0.36575
0.366976
0.368444
0.369796
0.371488
0.37298
0.374949
0.37659
0.378911
0.380726
0.383515
0.385533
0.388932
0.391211
0.395429
0.398056
0.403345
0.406493
0.413046
0.416495
0.423771
0.426451
0.433164
0.433419
0.438625
0.43739
0.445031
0.447263
0.451378
0.450193
0.41779
0.409321
0.32574
0.300519
0.338527
0.374042
0.381384
0.387818
0.38201
0.383824
0.377881
0.378445
0.373454
0.374224
0.371207
0.372558
0.370602
0.371578
0.370171
0.370463
0.368833
0.368123
0.366088
0.364559
0.3622
0.360344
0.35835
0.356994
0.355806
0.355057
0.354487
0.354071
0.353715
0.353206
0.352716
0.351909
0.351194
0.350076
0.349175
0.347825
0.346813
0.345359
0.344291
0.342972
0.341964
0.341242
0.340747
0.337996
0.340782
0.355759
0.374691
0.386445
0.385221
0.374052
0.360042
0.348651
0.342105
0.34064
0.343126
0.34744
0.351583
0.354755
0.356956
0.358589
0.359869
0.361067
0.362164
0.363346
0.364475
0.365771
0.366999
0.368469
0.369823
0.371516
0.373009
0.374979
0.376622
0.378944
0.38076
0.383551
0.385572
0.388973
0.391256
0.395476
0.398105
0.403395
0.406541
0.413089
0.416532
0.4238
0.426474
0.433182
0.433447
0.438659
0.43744
0.445042
0.447244
0.451253
0.450018
0.417334
0.408514
0.324657
0.299717
0.338036
0.373858
0.381446
0.38797
0.382167
0.383953
0.377967
0.378499
0.373502
0.374271
0.371252
0.372596
0.370628
0.371592
0.370175
0.370461
0.368829
0.368122
0.36609
0.364567
0.362213
0.360362
0.35837
0.357014
0.355825
0.355073
0.354499
0.354077
0.353716
0.353202
0.352706
0.351895
0.351175
0.350052
0.349144
0.347787
0.346763
0.345298
0.344212
0.342878
0.341849
0.341106
0.340594
0.337864
0.340721
0.35557
0.374438
0.386285
0.385276
0.374357
0.360538
0.349222
0.342638
0.341063
0.343411
0.347604
0.351663
0.35479
0.356972
0.358599
0.359879
0.361078
0.362178
0.363362
0.364494
0.365792
0.367021
0.368493
0.369848
0.371543
0.373038
0.375009
0.376653
0.378977
0.380794
0.383587
0.385609
0.389014
0.391299
0.395522
0.398153
0.403443
0.406588
0.41313
0.416568
0.423827
0.426496
0.4332
0.433473
0.438692
0.437488
0.445051
0.447224
0.451127
0.449842
0.416877
0.407708
0.323561
0.2989
0.337553
0.373696
0.38153
0.388138
0.382335
0.384087
0.378056
0.378556
0.37355
0.374319
0.371299
0.372634
0.370654
0.371606
0.370179
0.370458
0.368825
0.368121
0.366093
0.364575
0.362225
0.360379
0.358389
0.357033
0.355844
0.35509
0.354511
0.354084
0.353717
0.353197
0.352696
0.351881
0.351156
0.350029
0.349113
0.34775
0.346713
0.345237
0.344134
0.342783
0.341734
0.34097
0.340442
0.337733
0.34066
0.35538
0.374183
0.386123
0.385327
0.374658
0.361029
0.349787
0.343164
0.34148
0.343693
0.347765
0.351743
0.354826
0.356988
0.358608
0.359888
0.361089
0.362191
0.363378
0.364512
0.365812
0.367043
0.368517
0.369873
0.37157
0.373066
0.375039
0.376684
0.379009
0.380827
0.383622
0.385646
0.389053
0.391342
0.395566
0.398201
0.40349
0.406634
0.413171
0.416602
0.423853
0.426516
0.433216
0.433497
0.438723
0.437534
0.445059
0.447201
0.451
0.449667
0.416418
0.406903
0.322451
0.29807
0.337081
0.373558
0.381635
0.388321
0.382511
0.384227
0.378149
0.378615
0.373599
0.374367
0.371345
0.372672
0.370681
0.37162
0.370183
0.370455
0.368821
0.368119
0.366095
0.364582
0.362238
0.360396
0.358407
0.357053
0.355862
0.355106
0.354523
0.35409
0.353717
0.353193
0.352687
0.351867
0.351137
0.350005
0.349083
0.347712
0.346663
0.345176
0.344056
0.342689
0.34162
0.340834
0.340291
0.337603
0.3406
0.355191
0.373927
0.385957
0.385376
0.374956
0.361517
0.350347
0.343685
0.341891
0.343971
0.347925
0.351822
0.35486
0.357003
0.358618
0.359897
0.3611
0.362205
0.363394
0.36453
0.365832
0.367065
0.36854
0.369898
0.371596
0.373093
0.375068
0.376714
0.37904
0.38086
0.383656
0.385683
0.389092
0.391383
0.39561
0.398247
0.403536
0.406679
0.41321
0.416636
0.423879
0.426536
0.433232
0.433521
0.438754
0.437579
0.445066
0.447178
0.450874
0.44949
0.415959
0.406101
0.321329
0.297226
0.33662
0.373444
0.381763
0.388519
0.382698
0.384373
0.378244
0.378675
0.373649
0.374416
0.371392
0.37271
0.370707
0.371635
0.370186
0.370452
0.368817
0.368118
0.366097
0.36459
0.36225
0.360412
0.358426
0.357071
0.35588
0.355121
0.354535
0.354096
0.353718
0.353188
0.352677
0.351853
0.351118
0.349982
0.349052
0.347674
0.346613
0.345115
0.343978
0.342595
0.341506
0.3407
0.34014
0.337472
0.34054
0.355001
0.373669
0.385789
0.385421
0.375251
0.362
0.350902
0.3442
0.342298
0.344246
0.348082
0.351899
0.354894
0.357018
0.358627
0.359906
0.361111
0.362218
0.363409
0.364547
0.365851
0.367086
0.368563
0.369922
0.371622
0.37312
0.375096
0.376743
0.379071
0.380892
0.38369
0.385718
0.38913
0.391424
0.395653
0.398292
0.403581
0.406723
0.413249
0.416668
0.423903
0.426555
0.433246
0.433543
0.438783
0.437622
0.445072
0.447153
0.450747
0.449314
0.4155
0.4053
0.320195
0.296371
0.336174
0.373357
0.381914
0.388733
0.382893
0.384524
0.378343
0.378738
0.3737
0.374465
0.371439
0.372749
0.370734
0.371649
0.37019
0.370449
0.368813
0.368116
0.366099
0.364597
0.362262
0.360428
0.358444
0.35709
0.355898
0.355137
0.354546
0.354103
0.353719
0.353184
0.352668
0.351839
0.351099
0.349959
0.349021
0.347636
0.346564
0.345054
0.3439
0.342501
0.341392
0.340565
0.33999
0.337343
0.34048
0.354812
0.373409
0.385617
0.385463
0.375542
0.362479
0.351451
0.34471
0.3427
0.344516
0.348237
0.351975
0.354928
0.357033
0.358636
0.359914
0.361121
0.36223
0.363425
0.364565
0.365871
0.367107
0.368585
0.369946
0.371647
0.373146
0.375124
0.376772
0.379101
0.380923
0.383722
0.385753
0.389167
0.391464
0.395695
0.398337
0.403625
0.406765
0.413286
0.4167
0.423926
0.426573
0.43326
0.433565
0.438811
0.437663
0.445076
0.447126
0.45062
0.449138
0.415041
0.404503
0.319048
0.295504
0.335743
0.373296
0.382088
0.388961
0.383097
0.384679
0.378444
0.378802
0.373752
0.374515
0.371486
0.372787
0.370761
0.371663
0.370194
0.370446
0.368808
0.368113
0.366101
0.364603
0.362274
0.360444
0.358461
0.357108
0.355915
0.355152
0.354557
0.354109
0.353719
0.353179
0.352658
0.351825
0.35108
0.349935
0.34899
0.347599
0.346514
0.344994
0.343822
0.342408
0.341279
0.340432
0.339841
0.337214
0.34042
0.354622
0.373147
0.385443
0.385502
0.37583
0.362954
0.351995
0.345213
0.343096
0.344784
0.34839
0.352051
0.354961
0.357048
0.358644
0.359923
0.361131
0.362243
0.363439
0.364581
0.365889
0.367127
0.368607
0.369969
0.371671
0.373172
0.375151
0.376801
0.379131
0.380954
0.383754
0.385786
0.389203
0.391503
0.395736
0.39838
0.403668
0.406807
0.413322
0.41673
0.423948
0.42659
0.433273
0.433585
0.438838
0.437702
0.445079
0.447099
0.450493
0.448962
0.414582
0.403709
0.317891
0.294629
0.33533
0.373263
0.382285
0.389205
0.38331
0.384839
0.378548
0.378868
0.373804
0.374565
0.371534
0.372826
0.370787
0.371678
0.370197
0.370442
0.368803
0.368111
0.366102
0.36461
0.362285
0.360459
0.358478
0.357125
0.355932
0.355167
0.354568
0.354115
0.35372
0.353175
0.352648
0.351811
0.351061
0.349911
0.348959
0.347561
0.346464
0.344933
0.343744
0.342314
0.341166
0.340298
0.339692
0.337086
0.340361
0.354432
0.372884
0.385266
0.385537
0.376114
0.363425
0.352533
0.345711
0.343487
0.345047
0.348541
0.352125
0.354993
0.357062
0.358653
0.359931
0.361141
0.362255
0.363454
0.364598
0.365908
0.367147
0.368629
0.369992
0.371696
0.373197
0.375178
0.376828
0.37916
0.380984
0.383786
0.38582
0.389238
0.391541
0.395777
0.398422
0.40371
0.406847
0.413357
0.416759
0.42397
0.426606
0.433285
0.433604
0.438864
0.43774
0.44508
0.44707
0.450366
0.448786
0.414124
0.40292
0.316724
0.293745
0.334937
0.37326
0.382505
0.389462
0.383531
0.385004
0.378654
0.378936
0.373857
0.374615
0.371581
0.372864
0.370814
0.371692
0.370201
0.370439
0.368798
0.368109
0.366103
0.364616
0.362296
0.360474
0.358495
0.357143
0.355948
0.355182
0.354579
0.35412
0.35372
0.35317
0.352639
0.351798
0.351042
0.349888
0.348929
0.347523
0.346414
0.344872
0.343666
0.342221
0.341053
0.340165
0.339544
0.336958
0.340302
0.354243
0.37262
0.385087
0.38557
0.376395
0.363891
0.353066
0.346203
0.343874
0.345307
0.34869
0.352198
0.355025
0.357076
0.358661
0.359938
0.36115
0.362266
0.363468
0.364614
0.365926
0.367167
0.36865
0.370014
0.371719
0.373222
0.375204
0.376855
0.379188
0.381013
0.383816
0.385852
0.389273
0.391578
0.395816
0.398463
0.403751
0.406887
0.413392
0.416787
0.42399
0.426621
0.433296
0.433622
0.438889
0.437776
0.445081
0.44704
0.450239
0.44861
0.413667
0.402136
0.315547
0.292855
0.334566
0.373286
0.382749
0.389735
0.38376
0.385173
0.378763
0.379005
0.373911
0.374666
0.371628
0.372903
0.370841
0.371706
0.370204
0.370435
0.368793
0.368106
0.366104
0.364622
0.362306
0.360488
0.358511
0.357159
0.355964
0.355196
0.35459
0.354126
0.35372
0.353166
0.352629
0.351784
0.351023
0.349864
0.348898
0.347485
0.346364
0.344811
0.343588
0.342127
0.340941
0.340033
0.339396
0.336831
0.340243
0.354054
0.372354
0.384904
0.3856
0.376673
0.364353
0.353594
0.346689
0.344255
0.345563
0.348837
0.35227
0.355057
0.357089
0.358669
0.359946
0.36116
0.362278
0.363481
0.364629
0.365943
0.367186
0.368671
0.370036
0.371742
0.373246
0.375229
0.376882
0.379216
0.381041
0.383846
0.385883
0.389306
0.391615
0.395854
0.398503
0.403791
0.406925
0.413425
0.416815
0.42401
0.426635
0.433306
0.433639
0.438912
0.43781
0.445081
0.447008
0.450113
0.448435
0.413211
0.401358
0.314361
0.29196
0.334218
0.373343
0.383016
0.390021
0.383997
0.385346
0.378874
0.379075
0.373965
0.374717
0.371675
0.372941
0.370867
0.37172
0.370207
0.370431
0.368788
0.368103
0.366104
0.364627
0.362316
0.360503
0.358527
0.357176
0.35598
0.355211
0.354601
0.354132
0.353721
0.353161
0.352619
0.35177
0.351004
0.349841
0.348867
0.347447
0.346314
0.34475
0.343511
0.342034
0.340829
0.339901
0.339249
0.336704
0.340184
0.353865
0.372088
0.384719
0.385626
0.376947
0.36481
0.354116
0.347169
0.344631
0.345816
0.348982
0.352342
0.355088
0.357103
0.358676
0.359953
0.361169
0.362289
0.363495
0.364645
0.36596
0.367204
0.368691
0.370057
0.371765
0.37327
0.375254
0.376908
0.379243
0.381069
0.383875
0.385914
0.38934
0.39165
0.395892
0.398543
0.40383
0.406962
0.413457
0.416841
0.424028
0.426648
0.433316
0.433655
0.438935
0.437844
0.44508
0.446976
0.449987
0.44826
0.412757
0.400587
0.313169
0.291062
0.333897
0.373432
0.383307
0.390321
0.384241
0.385523
0.378987
0.379147
0.37402
0.374768
0.371723
0.37298
0.370894
0.371734
0.37021
0.370428
0.368782
0.3681
0.366105
0.364632
0.362326
0.360516
0.358542
0.357192
0.355995
0.355224
0.354611
0.354137
0.353721
0.353156
0.35261
0.351755
0.350984
0.349817
0.348836
0.347409
0.346265
0.34469
0.343433
0.341941
0.340717
0.339769
0.339102
0.336578
0.340126
0.353676
0.371819
0.384532
0.38565
0.377218
0.365263
0.354632
0.347644
0.345003
0.346065
0.349124
0.352412
0.355118
0.357116
0.358684
0.35996
0.361177
0.3623
0.363508
0.36466
0.365977
0.367223
0.36871
0.370078
0.371787
0.373293
0.375279
0.376933
0.379269
0.381097
0.383904
0.385944
0.389372
0.391685
0.395928
0.398581
0.403868
0.406999
0.413488
0.416866
0.424046
0.426661
0.433325
0.43367
0.438957
0.437876
0.445077
0.446943
0.449861
0.448086
0.412306
0.399823
0.31197
0.290162
0.333604
0.373554
0.383621
0.390634
0.384492
0.385703
0.379101
0.379219
0.374075
0.374819
0.37177
0.373018
0.37092
0.371748
0.370213
0.370424
0.368776
0.368096
0.366105
0.364637
0.362335
0.360529
0.358557
0.357207
0.35601
0.355238
0.354621
0.354143
0.353721
0.353151
0.3526
0.351741
0.350965
0.349793
0.348804
0.347371
0.346215
0.344629
0.343356
0.341848
0.340605
0.339638
0.338956
0.336452
0.340068
0.353487
0.37155
0.384342
0.38567
0.377486
0.365712
0.355143
0.348113
0.345369
0.346311
0.349265
0.352481
0.355148
0.357129
0.358691
0.359967
0.361186
0.36231
0.36352
0.364674
0.365994
0.367241
0.36873
0.370099
0.371809
0.373316
0.375302
0.376958
0.379295
0.381123
0.383931
0.385974
0.389403
0.391719
0.395964
0.398618
0.403905
0.407034
0.413518
0.416891
0.424063
0.426672
0.433333
0.433684
0.438978
0.437906
0.445074
0.44691
0.449736
0.447913
0.411857
0.399066
0.310765
0.289263
0.333341
0.373709
0.383959
0.39096
0.38475
0.385886
0.379218
0.379293
0.374131
0.37487
0.371816
0.373056
0.370946
0.371762
0.370216
0.37042
0.36877
0.368093
0.366105
0.364642
0.362344
0.360542
0.358572
0.357222
0.356025
0.355251
0.354631
0.354148
0.353721
0.353146
0.35259
0.351727
0.350946
0.349769
0.348773
0.347332
0.346165
0.344568
0.343279
0.341755
0.340494
0.339507
0.338811
0.336327
0.34001
0.353299
0.37128
0.384149
0.385688
0.37775
0.366156
0.355649
0.348577
0.345731
0.346553
0.349404
0.352549
0.355178
0.357141
0.358698
0.359973
0.361194
0.36232
0.363533
0.364689
0.36601
0.367258
0.368749
0.370119
0.37183
0.373338
0.375326
0.376982
0.37932
0.381149
0.383958
0.386002
0.389434
0.391752
0.395999
0.398655
0.403941
0.407068
0.413547
0.416914
0.424079
0.426683
0.43334
0.433697
0.438998
0.437935
0.44507
0.446875
0.449612
0.447741
0.411411
0.398318
0.309557
0.288367
0.33311
0.373898
0.384319
0.391298
0.385014
0.386072
0.379335
0.379368
0.374187
0.374921
0.371863
0.373094
0.370972
0.371776
0.370219
0.370415
0.368764
0.368089
0.366104
0.364646
0.362353
0.360555
0.358586
0.357237
0.356039
0.355264
0.354641
0.354153
0.353721
0.353141
0.35258
0.351713
0.350927
0.349746
0.348742
0.347294
0.346115
0.344507
0.343201
0.341662
0.340383
0.339377
0.338666
0.336202
0.339952
0.35311
0.371008
0.383954
0.385702
0.37801
0.366595
0.356149
0.349035
0.346088
0.346792
0.34954
0.352616
0.355207
0.357153
0.358705
0.35998
0.361202
0.36233
0.363545
0.364703
0.366025
0.367275
0.368767
0.370138
0.371851
0.37336
0.375348
0.377005
0.379344
0.381174
0.383985
0.38603
0.389464
0.391784
0.396033
0.39869
0.403976
0.407101
0.413576
0.416937
0.424095
0.426693
0.433347
0.43371
0.439017
0.437963
0.445066
0.44684
0.449488
0.44757
0.410968
0.397579
0.308346
0.287476
0.332914
0.374121
0.384702
0.391647
0.385283
0.386261
0.379454
0.379444
0.374243
0.374972
0.371909
0.373131
0.370997
0.37179
0.370222
0.370411
0.368758
0.368085
0.366103
0.36465
0.362361
0.360567
0.3586
0.357251
0.356053
0.355277
0.35465
0.354158
0.35372
0.353137
0.35257
0.351699
0.350908
0.349722
0.348711
0.347256
0.346065
0.344446
0.343124
0.34157
0.340272
0.339247
0.338522
0.336078
0.339895
0.352923
0.370736
0.383757
0.385714
0.378267
0.36703
0.356644
0.349487
0.34644
0.347028
0.349675
0.352682
0.355236
0.357165
0.358711
0.359986
0.361209
0.36234
0.363557
0.364716
0.366041
0.367292
0.368785
0.370157
0.371871
0.373381
0.375371
0.377028
0.379368
0.381199
0.384011
0.386057
0.389493
0.391816
0.396066
0.398725
0.40401
0.407134
0.413603
0.416958
0.424109
0.426703
0.433354
0.433722
0.439036
0.43799
0.44506
0.446804
0.449365
0.4474
0.410529
0.39685
0.307133
0.286591
0.332754
0.374379
0.385106
0.392008
0.385557
0.386451
0.379575
0.37952
0.374299
0.375023
0.371955
0.373168
0.371023
0.371803
0.370224
0.370407
0.368751
0.368081
0.366102
0.364653
0.362369
0.360578
0.358613
0.357265
0.356066
0.355289
0.354659
0.354163
0.35372
0.353132
0.35256
0.351685
0.350888
0.349698
0.34868
0.347218
0.346015
0.344386
0.343047
0.341477
0.340162
0.339118
0.338378
0.335954
0.339838
0.352735
0.370463
0.383557
0.385723
0.37852
0.367461
0.357133
0.349933
0.346787
0.34726
0.349807
0.352747
0.355264
0.357177
0.358717
0.359992
0.361217
0.362349
0.363568
0.364729
0.366055
0.367308
0.368803
0.370176
0.371891
0.373401
0.375392
0.377051
0.379392
0.381223
0.384036
0.386084
0.389522
0.391847
0.396099
0.398759
0.404043
0.407165
0.41363
0.416979
0.424123
0.426712
0.43336
0.433733
0.439054
0.438016
0.445054
0.446768
0.449244
0.447231
0.410094
0.39613
0.30592
0.285715
0.332633
0.374672
0.385532
0.392379
0.385837
0.386644
0.379695
0.379597
0.374355
0.375074
0.372001
0.373205
0.371048
0.371816
0.370227
0.370403
0.368745
0.368076
0.366101
0.364656
0.362376
0.36059
0.358626
0.357278
0.356079
0.355301
0.354668
0.354168
0.35372
0.353126
0.35255
0.351671
0.350869
0.349674
0.348649
0.347179
0.345965
0.344325
0.34297
0.341385
0.340052
0.338989
0.338235
0.335831
0.339782
0.352548
0.370189
0.383355
0.385729
0.37877
0.367886
0.357616
0.350374
0.34713
0.347489
0.349938
0.352811
0.355291
0.357188
0.358723
0.359997
0.361224
0.362358
0.363579
0.364742
0.36607
0.367324
0.36882
0.370194
0.37191
0.373422
0.375414
0.377073
0.379415
0.381247
0.38406
0.38611
0.38955
0.391877
0.396131
0.398792
0.404076
0.407196
0.413656
0.416999
0.424137
0.42672
0.433365
0.433743
0.439072
0.438041
0.445047
0.446731
0.449123
0.447064
0.409663
0.395421
0.304709
0.284851
0.332552
0.375
0.385978
0.392759
0.38612
0.386838
0.379817
0.379674
0.374411
0.375125
0.372046
0.373241
0.371072
0.371829
0.370229
0.370398
0.368738
0.368072
0.366099
0.364659
0.362383
0.3606
0.358638
0.357291
0.356092
0.355313
0.354677
0.354172
0.353719
0.353121
0.35254
0.351656
0.35085
0.34965
0.348617
0.347141
0.345916
0.344264
0.342893
0.341293
0.339942
0.33886
0.338093
0.335709
0.339726
0.352362
0.369914
0.383152
0.385732
0.379017
0.368308
0.358095
0.35081
0.347468
0.347714
0.350067
0.352874
0.355318
0.357199
0.358729
0.360003
0.361231
0.362367
0.36359
0.364755
0.366084
0.367339
0.368837
0.370212
0.371929
0.373441
0.375434
0.377094
0.379437
0.38127
0.384084
0.386135
0.389577
0.391907
0.396162
0.398824
0.404107
0.407225
0.413681
0.417019
0.424149
0.426728
0.43337
0.433753
0.439088
0.438065
0.44504
0.446694
0.449003
0.446898
0.409236
0.394723
0.303499
0.284001
0.332514
0.375363
0.386445
0.393148
0.386407
0.387033
0.379939
0.379752
0.374467
0.375175
0.372091
0.373277
0.371096
0.371842
0.370231
0.370394
0.368731
0.368067
0.366097
0.364661
0.36239
0.360611
0.35865
0.357304
0.356104
0.355325
0.354686
0.354177
0.353719
0.353116
0.35253
0.351642
0.35083
0.349626
0.348586
0.347103
0.345866
0.344203
0.342817
0.341201
0.339833
0.338732
0.337951
0.335587
0.33967
0.352176
0.369639
0.382946
0.385733
0.37926
0.368724
0.358567
0.351239
0.347801
0.347936
0.350194
0.352936
0.355345
0.35721
0.358735
0.360008
0.361237
0.362376
0.363601
0.364767
0.366098
0.367355
0.368853
0.370229
0.371947
0.37346
0.375455
0.377115
0.379459
0.381292
0.384108
0.38616
0.389604
0.391935
0.396192
0.398855
0.404138
0.407254
0.413705
0.417037
0.424162
0.426735
0.433375
0.433763
0.439105
0.438088
0.445033
0.446657
0.448884
0.446733
0.408814
0.394037
0.302294
0.283167
0.332519
0.37576
0.38693
0.393546
0.386697
0.387228
0.380062
0.37983
0.374523
0.375225
0.372135
0.373312
0.37112
0.371854
0.370233
0.370389
0.368724
0.368062
0.366095
0.364663
0.362396
0.360621
0.358662
0.357316
0.356117
0.355336
0.354694
0.354181
0.353718
0.353111
0.35252
0.351628
0.350811
0.349602
0.348555
0.347064
0.345816
0.344143
0.34274
0.341109
0.339724
0.338604
0.33781
0.335466
0.339614
0.351991
0.369363
0.382738
0.38573
0.379499
0.369136
0.359034
0.351664
0.348129
0.348155
0.350319
0.352997
0.355371
0.357221
0.35874
0.360013
0.361244
0.362384
0.363611
0.364779
0.366112
0.36737
0.368869
0.370246
0.371966
0.373479
0.375474
0.377136
0.37948
0.381314
0.384131
0.386184
0.38963
0.391964
0.396221
0.398886
0.404168
0.407282
0.413728
0.417055
0.424173
0.426742
0.433379
0.433772
0.43912
0.43811
0.445024
0.44662
0.448766
0.44657
0.408397
0.393362
0.301094
0.282351
0.33257
0.376192
0.387434
0.393951
0.386989
0.387425
0.380184
0.379908
0.374579
0.375274
0.372179
0.373347
0.371144
0.371867
0.370235
0.370384
0.368717
0.368057
0.366092
0.364665
0.362402
0.36063
0.358673
0.357328
0.356128
0.355347
0.354703
0.354185
0.353718
0.353106
0.35251
0.351614
0.350792
0.349578
0.348523
0.347026
0.345767
0.344082
0.342664
0.341018
0.339615
0.338477
0.337669
0.335345
0.339559
0.351806
0.369087
0.382528
0.385725
0.379735
0.369543
0.359496
0.352082
0.348453
0.348371