/*--------------------------------*- C++ -*----------------------------------*\
| =========                 |                                                 |
| \\      /  F ield         | OpenFOAM: The Open Source CFD Toolbox           |
|  \\    /   O peration     | Version:  2412                                  |
|   \\  /    A nd           | Website:  www.openfoam.com                      |
|    \\/     M anipulation  |                                                 |
\*---------------------------------------------------------------------------*/
FoamFile
{
    version     2.0;
    format      ascii;
    arch        "LSB;label=32;scalar=64";
    class       volScalarField;
    location    "0.4";
    object      p;
}
// * * * * * * * * * * * * * * * * * * * * * * * * * * * * * * * * * * * * * //

dimensions      [0 2 -2 0 0 0 0];

internalField   nonuniform List<scalar> 
13068
(
108709
108685
108649
108587
108525
108429
108348
108223
108112
107940
107792
107579
107405
107146
106947
106630
106405
106013
105766
105276
105012
104393
104121
103330
103068
102044
101820
100475
100340
98548.8
98579.7
96161.9
96484.7
93176
93989.3
89401
91018.2
84572.3
87490.1
78320.9
83326.3
70129.7
78462.7
59243.7
72762.9
44368
65643.4
23057.2
55464.4
-8917.84
39970.2
-55810.5
19763.3
-114012
5678.5
-71972.2
11171.7
-37192.7
17191.2
-12306.8
24355.3
7310.14
32026.5
22601.7
39311
34402.5
45702
43369.5
51057.4
50181.8
55475
55397.9
59099.3
59440.1
62083.8
62641.9
64589.9
65275.9
66771.1
67548.8
68736
69581.5
70525.5
71418.6
72134.1
73071.2
73548.3
74553.1
74766.1
75894.1
75797.4
77136.9
76654.9
78330.4
77347
79521.4
77875.9
80741.5
78242.9
108705
108681
108645
108583
108522
108426
108345
108221
108109
107938
107789
107576
107403
107144
106945
106627
106403
106010
105763
105273
105009
104390
104118
103327
103065
102040
101817
100471
100336
98543.9
98576
96156.3
96481
93169.8
93985.8
89394
91015.1
84564.5
87487.6
78312.5
83324.6
70120.6
78461.3
59232.8
72759.4
44353.2
65634.3
23038
55451.6
-8929.56
39964.8
-55776.7
19788.7
-113825
5726.91
-71952.6
11176.4
-37199.7
17198.3
-12310.1
24361.4
7304.83
32028.9
22594.7
39310
34394.2
45698.9
43361.3
51053.6
50174.5
55471.1
55391.8
59095.9
59435.5
62081.4
62638.9
64588.5
65274.4
66770.6
67548
68735.6
69580.8
70524.6
71417.7
72132.6
73069.9
73546.3
74551.7
74763.9
75892.9
75795.2
77136.1
76653
78330
77345.9
79520.9
77876.1
80740.3
78244.9
108700
108676
108641
108580
108518
108423
108343
108219
108107
107936
107787
107574
107401
107142
106943
106625
106401
106008
105761
105270
105006
104387
104115
103323
103061
102036
101814
100467
100333
98539
98572.4
96150.9
96477.4
93163.7
93982.3
89387.1
91011.9
84556.9
87485
78304.1
83322.9
70111.4
78459.9
59221.9
72755.9
44338.5
65625.4
23019.2
55439.1
-8941.05
39959.6
-55743
19814.1
-113639
5774.7
-71932.9
11181.3
-37206.6
17205.4
-12313.5
24367.2
7299.48
32031.2
22587.6
39309.1
34386
45695.9
43353.3
51049.8
50167.4
55467.4
55385.8
59092.7
59430.9
62079
62636
64587.2
65272.8
66770
67547.3
68735.2
69580.2
70523.7
71416.7
72131.1
73068.6
73544.2
74550.4
74761.6
75891.8
75793
77135.4
76651.2
78329.5
77344.7
79520.3
77876.2
80739
78246.9
108695
108672
108637
108576
108515
108421
108340
108216
108105
107933
107785
107572
107399
107140
106941
106623
106399
106005
105758
105268
105003
104384
104112
103320
103058
102032
101810
100462
100329
98534.2
98568.9
96145.5
96473.9
93157.6
93978.9
89380.3
91008.8
84549.2
87482.5
78295.7
83321.2
70102.2
78458.3
59211.1
72752.3
44324
65616.6
23000.6
55426.9
-8952.29
39954.7
-55709.3
19839.5
-113454
5821.9
-71913.3
11186.5
-37213.2
17212.4
-12317
24373
7294.11
32033.5
22580.6
39308.1
34377.9
45692.9
43345.4
51046.2
50160.3
55463.7
55380
59089.5
59426.5
62076.7
62633.1
64585.9
65271.3
66769.5
67546.6
68734.7
69579.5
70522.8
71415.7
72129.5
73067.4
73542.2
74549.1
74759.4
75890.6
75790.9
77134.6
76649.4
78329
77343.6
79519.7
77876.2
80737.6
78248.7
108691
108668
108633
108573
108512
108418
108338
108214
108102
107931
107783
107570
107397
107138
106939
106620
106396
106003
105756
105265
105001
104381
104109
103317
103055
102028
101807
100458
100326
98529.5
98565.3
96140.1
96470.3
93151.6
93975.5
89373.5
91005.7
84541.7
87480
78287.4
83319.4
70093.1
78456.8
59200.3
72748.8
44309.6
65607.9
22982.2
55414.7
-8963.37
39949.8
-55675.7
19864.8
-113272
5868.61
-71893.7
11191.7
-37219.7
17219.4
-12320.5
24378.7
7288.77
32035.8
22573.6
39307.2
34369.8
45690
43337.5
51042.6
50153.3
55460.1
55374.1
59086.3
59422
62074.3
62630.2
64584.6
65269.8
66768.9
67545.8
68734.2
69578.8
70521.9
71414.8
72128
73066.1
73540.2
74547.7
74757.2
75889.5
75788.7
77133.8
76647.6
78328.4
77342.5
79519
77876.3
80736.2
78250.5
108686
108664
108629
108569
108509
108415
108335
108212
108100
107929
107781
107568
107395
107136
106937
106618
106394
106000
105754
105262
104998
104378
104106
103313
103052
102025
101804
100454
100322
98524.8
98561.8
96134.8
96466.8
93145.6
93972.1
89366.8
91002.6
84534.1
87477.5
78279.1
83317.7
70084.1
78455.3
59189.7
72745.3
44295.2
65599.3
22963.9
55402.7
-8974.32
39945.1
-55642.3
19889.9
-113091
5914.86
-71874.2
11197
-37226.1
17226.4
-12323.9
24384.4
7283.48
32038
22566.7
39306.3
34361.8
45687.1
43329.7
51039
50146.4
55456.5
55368.3
59083.2
59417.7
62072
62627.3
64583.3
65268.3
66768.3
67545.1
68733.8
69578.2
70521
71413.8
72126.5
73064.8
73538.3
74546.4
74755
75888.4
75786.6
77133
76645.7
78327.9
77341.3
79518.4
77876.3
80734.8
78252.3
108682
108659
108625
108565
108505
108412
108333
108209
108098
107927
107779
107566
107393
107134
106935
106616
106392
105998
105751
105259
104996
104375
104104
103310
103049
102021
101801
100450
100319
98520.1
98558.3
96129.5
96463.3
93139.6
93968.7
89360.1
90999.6
84526.7
87475
78271
83316
70075.2
78453.8
59179.1
72741.8
44281
65590.7
22945.8
55390.9
-8985.13
39940.4
-55609
19914.9
-112912
5960.65
-71854.8
11202.3
-37232.3
17233.4
-12327.3
24390
7278.25
32040.3
22559.8
39305.3
34353.9
45684.2
43322
51035.4
50139.5
55452.9
55362.6
59080.1
59413.3
62069.8
62624.5
64582
65266.8
66767.7
67544.3
68733.3
69577.5
70520.1
71412.8
72125
73063.6
73536.3
74545.1
74752.8
75887.3
75784.5
77132.2
76643.9
78327.3
77340.2
79517.7
77876.4
80733.4
78254.1
108677
108655
108621
108562
108502
108409
108330
108207
108096
107925
107777
107564
107391
107132
106933
106614
106390
105995
105749
105257
104993
104372
104101
103307
103046
102017
101797
100446
100316
98515.4
98554.9
96124.3
96459.8
93133.8
93965.4
89353.4
90996.6
84519.3
87472.6
78262.9
83314.2
70066.3
78452.3
59168.5
72738.3
44266.9
65582.2
22927.9
55379.1
-8995.79
39935.9
-55575.9
19939.8
-112735
6005.98
-71835.3
11207.6
-37238.5
17240.3
-12330.6
24395.6
7273.06
32042.5
22553
39304.4
34346
45681.4
43314.3
51031.9
50132.7
55449.4
55356.9
59077
59409
62067.5
62621.7
64580.8
65265.3
66767.2
67543.6
68732.8
69576.8
70519.2
71411.9
72123.5
73062.4
73534.4
74543.8
74750.7
75886.2
75782.4
77131.4
76642.2
78326.8
77339.1
79517
77876.4
80732
78255.9
108673
108651
108617
108558
108499
108407
108328
108205
108094
107923
107775
107562
107389
107130
106931
106612
106388
105993
105747
105254
104991
104369
104098
103303
103043
102014
101794
100442
100312
98510.8
98551.5
96119.1
96456.4
93127.9
93962
89346.9
90993.6
84512
87470.1
78254.8
83312.5
70057.5
78450.8
59158.1
72734.8
44252.9
65573.8
22910.1
55367.5
-9006.32
39931.4
-55542.9
19964.5
-112559
6050.84
-71816
11213
-37244.5
17247.2
-12333.9
24401.2
7267.91
32044.7
22546.3
39303.5
34338.2
45678.5
43306.7
51028.4
50125.9
55445.8
55351.3
59073.9
59404.7
62065.2
62618.9
64579.5
65263.8
66766.6
67542.8
68732.3
69576.2
70518.3
71410.9
72122
73061.1
73532.4
74542.5
74748.5
75885.1
75780.3
77130.6
76640.4
78326.2
77338
79516.3
77876.5
80730.6
78257.7
108668
108647
108613
108555
108496
108404
108325
108203
108092
107921
107773
107560
107387
107128
106929
106609
106385
105991
105744
105252
104988
104366
104095
103300
103040
102010
101791
100438
100309
98506.3
98548.1
96114
96453
93122.1
93958.8
89340.3
90990.6
84504.7
87467.7
78246.8
83310.8
70048.7
78449.3
59147.7
72731.4
44239.1
65565.5
22892.6
55356
-9016.71
39927.1
-55510.1
19989
-112385
6095.24
-71796.7
11218.5
-37250.3
17254.2
-12337.1
24406.8
7262.82
32046.9
22539.6
39302.6
34330.5
45675.7
43299.1
51024.9
50119.2
55442.3
55345.7
59070.8
59400.4
62063
62616.1
64578.2
65262.3
66766
67542.1
68731.9
69575.5
70517.4
71410
72120.6
73059.9
73530.5
74541.2
74746.4
75883.9
75778.2
77129.8
76638.6
78325.6
77336.9
79515.6
77876.6
80729.2
78259.5
108664
108643
108610
108552
108493
108401
108323
108201
108089
107919
107771
107558
107385
107126
106927
106607
106383
105988
105742
105249
104986
104363
104093
103297
103037
102006
101788
100433
100306
98501.7
98544.7
96108.9
96449.6
93116.4
93955.5
89333.9
90987.6
84497.5
87465.3
78238.9
83309.1
70040
78447.8
59137.4
72728
44225.3
65557.3
22875.1
55344.7
-9026.97
39922.8
-55477.5
20013.4
-112213
6139.18
-71777.4
11224
-37256.1
17261.1
-12340.3
24412.3
7257.77
32049.1
22532.9
39301.7
34322.8
45672.9
43291.6
51021.4
50112.5
55438.9
55340.1
59067.8
59396.2
62060.8
62613.3
64577
65260.8
66765.4
67541.3
68731.4
69574.9
70516.5
71409
72119.1
73058.7
73528.6
74540
74744.3
75882.8
75776.1
77129
76636.9
78325
77335.8
79514.9
77876.6
80727.8
78261.3
108660
108639
108606
108548
108489
108399
108320
108198
108087
107917
107769
107557
107383
107124
106925
106605
106381
105986
105740
105246
104983
104360
104090
103294
103035
102003
101785
100429
100303
98497.2
98541.4
96103.8
96446.3
93110.6
93952.3
89327.5
90984.7
84490.3
87462.9
78231.1
83307.5
70031.4
78446.3
59127.2
72724.6
44211.6
65549.1
22857.9
55333.4
-9037.09
39918.6
-55445
20037.6
-112042
6182.66
-71758.2
11229.5
-37261.7
17268
-12343.4
24417.8
7252.76
32051.3
22526.3
39300.8
34315.2
45670.2
43284.2
51018
50105.9
55435.4
55334.6
59064.8
59392
62058.6
62610.6
64575.7
65259.3
66764.9
67540.6
68730.9
69574.2
70515.6
71408.1
72117.7
73057.5
73526.7
74538.7
74742.2
75881.7
75774
77128.1
76635.1
78324.4
77334.8
79514.1
77876.7
80726.4
78263
108655
108635
108602
108545
108486
108396
108318
108196
108085
107915
107768
107555
107382
107122
106923
106603
106379
105984
105737
105244
104981
104357
104087
103291
103032
101999
101782
100425
100299
98492.8
98538.1
96098.8
96442.9
93105
93949
89321.1
90981.8
84483.2
87460.5
78223.3
83305.8
70022.8
78444.8
59117
72721.2
44198.1
65541
22840.7
55322.3
-9047.08
39914.6
-55412.8
20061.6
-111873
6225.68
-71739.1
11235.2
-37267.2
17274.8
-12346.5
24423.3
7247.81
32053.4
22519.8
39300
34307.6
45667.4
43276.8
51014.6
50099.3
55432
55329.1
59061.8
59387.9
62056.4
62607.8
64574.5
65257.9
66764.3
67539.8
68730.4
69573.5
70514.7
71407.1
72116.2
73056.3
73524.8
74537.4
74740.1
75880.6
75772
77127.3
76633.4
78323.8
77333.7
79513.4
77876.8
80724.9
78264.8
108651
108631
108598
108542
108483
108393
108315
108194
108083
107913
107766
107553
107380
107120
106921
106601
106377
105981
105735
105241
104978
104355
104085
103287
103029
101996
101779
100422
100296
98488.3
98534.8
96093.8
96439.6
93099.4
93945.9
89314.8
90978.9
84476.2
87458.2
78215.5
83304.1
70014.3
78443.3
59106.9
72717.9
44184.6
65533
22823.8
55311.3
-9056.94
39910.6
-55380.6
20085.5
-111706
6268.25
-71720
11240.8
-37272.5
17281.7
-12349.6
24428.7
7242.9
32055.5
22513.3
39299.1
34300.2
45664.7
43269.5
51011.2
50092.8
55428.6
55323.7
59058.9
59383.7
62054.2
62605.1
64573.2
65256.4
66763.7
67539.1
68729.9
69572.9
70513.8
71406.2
72114.8
73055.1
73522.9
74536.1
74738
75879.5
75770
77126.5
76631.7
78323.2
77332.7
79512.6
77876.9
80723.5
78266.6
108647
108627
108594
108538
108480
108391
108313
108192
108081
107911
107764
107551
107378
107118
106919
106599
106375
105979
105733
105239
104976
104352
104082
103284
103026
101992
101776
100418
100293
98484
98531.5
96088.9
96436.4
93093.8
93942.7
89308.5
90976.1
84469.2
87455.8
78207.9
83302.5
70005.9
78441.9
59096.9
72714.6
44171.3
65525.1
22807
55300.5
-9066.67
39906.7
-55348.7
20109.3
-111541
6310.36
-71700.9
11246.5
-37277.8
17288.6
-12352.6
24434.1
7238.04
32057.7
22506.9
39298.2
34292.7
45662
43262.3
51007.9
50086.4
55425.2
55318.3
59055.9
59379.6
62052.1
62602.5
64572
65255
66763.1
67538.4
68729.4
69572.2
70513
71405.3
72113.3
73053.9
73521
74534.9
74735.9
75878.4
75767.9
77125.7
76630
78322.6
77331.6
79511.9
77877
80722.1
78268.3
108643
108623
108591
108535
108477
108388
108311
108190
108079
107909
107762
107549
107376
107116
106917
106597
106373
105977
105731
105236
104973
104349
104079
103281
103023
101989
101773
100414
100290
98479.6
98528.3
96084
96433.1
93088.3
93939.6
89302.3
90973.2
84462.3
87453.5
78200.3
83300.9
69997.6
78440.4
59087
72711.3
44158.1
65517.2
22790.4
55289.8
-9076.26
39902.9
-55316.9
20132.8
-111377
6352.02
-71681.9
11252.3
-37282.8
17295.4
-12355.6
24439.4
7233.22
32059.8
22500.5
39297.4
34285.4
45659.4
43255.1
51004.5
50079.9
55421.9
55312.9
59053
59375.6
62050
62599.8
64570.8
65253.5
66762.6
67537.6
68729
69571.6
70512.1
71404.4
72111.9
73052.7
73519.2
74533.6
74733.8
75877.3
75765.9
77124.9
76628.3
78322
77330.6
79511.1
77877.1
80720.6
78270
108639
108620
108587
108532
108474
108386
108308
108188
108077
107908
107760
107547
107374
107114
106915
106595
106371
105975
105729
105234
104971
104346
104077
103278
103020
101985
101770
100410
100287
98475.3
98525.1
96079.1
96429.9
93082.8
93936.5
89296.2
90970.4
84455.4
87451.2
78192.8
83299.2
69989.3
78438.9
59077.2
72708
44145
65509.4
22773.9
55279.1
-9085.73
39899.2
-55285.4
20156.2
-111215
6393.23
-71663
11258.2
-37287.8
17302.3
-12358.5
24444.8
7228.45
32061.8
22494.2
39296.5
34278.1
45656.7
43248
51001.2
50073.6
55418.6
55307.6
59050.1
59371.5
62047.8
62597.2
64569.5
65252.1
66762
67536.9
68728.5
69570.9
70511.2
71403.5
72110.5
73051.5
73517.3
74532.4
74731.8
75876.2
75763.9
77124
76626.6
78321.3
77329.6
79510.3
77877.2
80719.2
78271.8
108635
108616
108584
108529
108471
108383
108306
108186
108075
107906
107758
107545
107372
107112
106913
106593
106369
105973
105726
105232
104969
104344
104074
103275
103018
101982
101767
100406
100284
98471
98521.9
96074.3
96426.7
93077.4
93933.4
89290.1
90967.6
84448.6
87449
78185.3
83297.6
69981.1
78437.5
59067.4
72704.7
44132
65501.7
22757.7
55268.7
-9095.08
39895.6
-55254
20179.4
-111054
6434
-71644.1
11264.1
-37292.6
17309.1
-12361.4
24450.1
7223.73
32063.9
22487.9
39295.7
34270.9
45654.1
43240.9
50998
50067.3
55415.3
55302.4
59047.2
59367.6
62045.7
62594.5
64568.3
65250.7
66761.4
67536.1
68728
69570.3
70510.4
71402.5
72109.1
73050.3
73515.5
74531.2
74729.8
75875.1
75761.9
77123.2
76625
78320.7
77328.6
79509.5
77877.3
80717.8
78273.5
108631
108612
108580
108525
108468
108381
108304
108184
108073
107904
107757
107544
107371
107110
106911
106591
106367
105970
105724
105229
104966
104341
104072
103272
103015
101979
101764
100402
100281
98466.8
98518.7
96069.6
96423.5
93072.1
93930.3
89284.1
90964.9
84441.9
87446.7
78177.9
83296
69972.9
78436
59057.7
72701.5
44119.1
65494.1
22741.5
55258.3
-9104.3
39892
-55222.8
20202.4
-110896
6474.32
-71625.2
11270.1
-37297.3
17315.9
-12364.2
24455.3
7219.05
32066
22481.7
39294.8
34263.7
45651.5
43233.9
50994.7
50061.1
55412
55297.2
59044.4
59363.6
62043.6
62591.9
64567.1
65249.3
66760.8
67535.4
68727.5
69569.6
70509.5
71401.6
72107.7
73049.2
73513.7
74529.9
74727.7
75874.1
75760
77122.4
76623.3
78320
77327.5
79508.7
77877.4
80716.3
78275.2
108627
108608
108576
108522
108465
108378
108301
108182
108071
107902
107755
107542
107369
107108
106909
106589
106365
105968
105722
105227
104964
104338
104069
103269
103012
101975
101761
100399
100278
98462.6
98515.6
96064.8
96420.4
93066.7
93927.3
89278.1
90962.1
84435.2
87444.5
78170.6
83294.4
69964.9
78434.6
59048.1
72698.3
44106.3
65486.5
22725.5
55248.1
-9113.39
39888.6
-55191.8
20225.3
-110738
6514.2
-71606.4
11276.1
-37301.9
17322.7
-12367
24460.6
7214.41
32068
22475.6
39294
34256.6
45648.9
43227
50991.5
50054.9
55408.8
55292
59041.6
59359.7
62041.6
62589.3
64565.9
65247.9
66760.3
67534.7
68727
69568.9
70508.6
71400.7
72106.3
73048
73511.9
74528.7
74725.7
75873
75758
77121.5
76621.7
78319.3
77326.6
79507.9
77877.5
80714.9
78276.9
108623
108605
108573
108519
108463
108376
108299
108180
108069
107900
107753
107540
107367
107107
106908
106587
106363
105966
105720
105224
104962
104336
104067
103266
103010
101972
101758
100395
100275
98458.4
98512.5
96060.2
96417.3
93061.5
93924.3
89272.1
90959.4
84428.6
87442.2
78163.3
83292.8
69956.8
78433.1
59038.6
72695.1
44093.7
65479.1
22709.7
55237.9
-9122.37
39885.2
-55161
20248
-110583
6553.64
-71587.6
11282.2
-37306.3
17329.5
-12369.7
24465.8
7209.83
32070
22469.5
39293.2
34249.5
45646.3
43220.1
50988.3
50048.7
55405.6
55286.9
59038.8
59355.8
62039.5
62586.8
64564.7
65246.5
66759.7
67533.9
68726.5
69568.3
70507.8
71399.8
72104.9
73046.8
73510.1
74527.5
74723.7
75871.9
75756.1
77120.7
76620
78318.7
77325.6
79507.1
77877.6
80713.4
78278.6
108619
108601
108569
108516
108460
108373
108297
108178
108067
107898
107751
107538
107365
107105
106906
106585
106361
105964
105718
105222
104959
104333
104064
103263
103007
101969
101755
100391
100272
98454.3
98509.5
96055.5
96414.2
93056.2
93921.3
89266.3
90956.7
84422.1
87440
78156.1
83291.2
69948.9
78431.7
59029.2
72691.9
44081.1
65471.7
22694.1
55227.9
-9131.22
39881.9
-55130.4
20270.4
-110429
6592.66
-71568.8
11288.4
-37310.6
17336.3
-12372.4
24470.9
7205.28
32072
22463.4
39292.3
34242.6
45643.8
43213.3
50985.2
50042.6
55402.4
55281.8
59036
59351.9
62037.5
62584.2
64563.5
65245.1
66759.1
67533.2
68726
69567.7
70506.9
71398.9
72103.6
73045.7
73508.3
74526.2
74721.8
75870.8
75754.1
77119.9
76618.4
78318
77324.6
79506.3
77877.7
80712
78280.3
108615
108597
108566
108513
108457
108371
108295
108176
108066
107897
107749
107537
107364
107103
106904
106583
106359
105962
105716
105220
104957
104330
104062
103260
103004
101965
101753
100388
100269
98450.2
98506.4
96050.9
96411.2
93051
93918.4
89260.4
90954
84415.6
87437.8
78148.9
83289.7
69941
78430.2
59019.8
72688.8
44068.7
65464.4
22678.6
55218
-9139.95
39878.7
-55100.1
20292.7
-110277
6631.24
-71550.1
11294.7
-37314.8
17343
-12375.1
24476
7200.78
32074
22457.4
39291.5
34235.6
45641.2
43206.5
50982
50036.6
55399.3
55276.8
59033.3
59348.1
62035.4
62581.7
64562.4
65243.7
66758.5
67532.5
68725.6
69567
70506.1
71398
72102.2
73044.6
73506.5
74525
74719.8
75869.7
75752.2
77119
76616.8
78317.3
77323.6
79505.4
77877.8
80710.5
78282
108611
108594
108563
108510
108454
108368
108293
108174
108064
107895
107748
107535
107362
107101
106902
106581
106357
105960
105714
105217
104955
104328
104059
103258
103002
101962
101750
100384
100266
98446.2
98503.4
96046.4
96408.1
93045.9
93915.5
89254.7
90951.4
84409.1
87435.7
78141.9
83288.1
69933.2
78428.8
59010.5
72685.7
44056.3
65457.1
22663.2
55208.3
-9148.57
39875.5
-55069.9
20314.8
-110126
6669.4
-71531.4
11301
-37318.8
17349.8
-12377.7
24481.1
7196.32
32076
22451.5
39290.7
34228.8
45638.7
43199.8
50978.9
50030.6
55396.1
55271.8
59030.5
59344.3
62033.4
62579.2
64561.2
65242.3
66758
67531.8
68725.1
69566.4
70505.2
71397.2
72100.9
73043.4
73504.7
74523.8
74717.8
75868.6
75750.3
77118.2
76615.2
78316.6
77322.7
79504.6
77878
80709.1
78283.7
108608
108590
108559
108507
108451
108366
108290
108172
108062
107893
107746
107533
107360
107099
106900
106579
106355
105958
105712
105215
104953
104325
104057
103255
102999
101959
101747
100380
100263
98442.2
98500.4
96041.8
96405.2
93040.8
93912.6
89249
90948.8
84402.8
87433.5
78134.9
83286.6
69925.5
78427.4
59001.3
72682.6
44044.1
65449.9
22648.1
55198.6
-9157.06
39872.4
-55039.9
20336.7
-109977
6707.14
-71512.7
11307.4
-37322.8
17356.5
-12380.2
24486.2
7191.91
32077.9
22445.6
39289.9
34222
45636.3
43193.2
50975.8
50024.7
55393
55266.8
59027.8
59340.5
62031.4
62576.7
64560
65241
66757.4
67531
68724.6
69565.7
70504.4
71396.3
72099.5
73042.3
73503
74522.6
74715.9
75867.6
75748.4
77117.3
76613.6
78315.9
77321.7
79503.7
77878.1
80707.6
78285.4
108604
108587
108556
108504
108449
108364
108288
108170
108060
107891
107744
107532
107359
107098
106899
106577
106353
105956
105710
105213
104950
104323
104055
103252
102997
101956
101744
100377
100260
98438.2
98497.5
96037.4
96402.2
93035.8
93909.7
89243.3
90946.2
84396.5
87431.4
78127.9
83285.1
69917.8
78426
58992.2
72679.5
44032
65442.8
22633
55189.1
-9165.44
39869.4
-55010.2
20358.4
-109829
6744.46
-71494
11313.9
-37326.5
17363.2
-12382.8
24491.2
7187.54
32079.8
22439.7
39289.1
34215.2
45633.8
43186.6
50972.8
50018.8
55389.9
55261.9
59025.1
59336.8
62029.5
62574.3
64558.9
65239.6
66756.8
67530.3
68724.1
69565.1
70503.6
71395.4
72098.2
73041.2
73501.3
74521.4
74714
75866.5
75746.5
77116.5
76612
78315.2
77320.8
79502.9
77878.2
80706.2
78287
108600
108583
108553
108501
108446
108361
108286
108168
108058
107890
107743
107530
107357
107096
106897
106576
106352
105954
105708
105211
104948
104320
104052
103249
102994
101953
101742
100373
100257
98434.3
98494.5
96032.9
96399.2
93030.8
93906.9
89237.7
90943.6
84390.2
87429.3
78121
83283.5
69910.2
78424.6
58983.1
72676.4
44020
65435.8
22618.2
55179.7
-9173.71
39866.5
-54980.7
20379.9
-109683
6781.37
-71475.4
11320.4
-37330.2
17369.9
-12385.3
24496.2
7183.21
32081.8
22434
39288.3
34208.6
45631.4
43180.1
50969.7
50013
55386.9
55257.1
59022.5
59333.1
62027.5
62571.8
64557.7
65238.3
66756.2
67529.6
68723.6
69564.4
70502.7
71394.5
72096.9
73040.1
73499.5
74520.2
74712
75865.4
75744.6
77115.6
76610.4
78314.5
77319.8
79502
77878.3
80704.7
78288.7
108596
108580
108549
108498
108443
108359
108284
108166
108056
107888
107741
107528
107355
107094
106895
106574
106350
105952
105706
105208
104946
104318
104050
103246
102991
101950
101739
100370
100254
98430.4
98491.6
96028.6
96396.3
93025.9
93904.1
89232.1
90941
84384
87427.2
78114.2
83282
69902.7
78423.2
58974.1
72673.4
44008.1
65428.9
22603.5
55170.4
-9181.86
39863.6
-54951.4
20401.2
-109539
6817.88
-71456.8
11327
-37333.7
17376.6
-12387.7
24501.1
7178.92
32083.7
22428.2
39287.5
34202
45628.9
43173.6
50966.7
50007.2
55383.9
55252.3
59019.8
59329.4
62025.6
62569.4
64556.6
65236.9
66755.7
67528.9
68723.1
69563.8
70501.9
71393.7
72095.5
73038.9
73497.8
74519.1
74710.1
75864.4
75742.8
77114.7
76608.9
78313.8
77318.9
79501.1
77878.5
80703.3
78290.3
108593
108577
108546
108495
108441
108357
108282
108164
108055
107886
107739
107527
107354
107093
106893
106572
106348
105950
105704
105206
104944
104315
104048
103244
102989
101947
101736
100367
100251
98426.5
98488.8
96024.2
96393.4
93021
93901.3
89226.6
90938.5
84377.9
87425.1
78107.5
83280.5
69895.2
78421.8
58965.3
72670.4
43996.4
65422
22588.9
55161.2
-9189.9
39860.8
-54922.3
20422.3
-109396
6853.99
-71438.2
11333.7
-37337.2
17383.3
-12390.1
24506
7174.68
32085.5
22422.5
39286.7
34195.4
45626.5
43167.2
50963.7
50001.5
55380.9
55247.5
59017.2
59325.8
62023.6
62567
64555.5
65235.6
66755.1
67528.2
68722.6
69563.2
70501.1
71392.8
72094.2
73037.8
73496.1
74517.9
74708.2
75863.3
75740.9
77113.9
76607.3
78313.1
77318
79500.2
77878.6
80701.8
78292
108589
108573
108543
108492
108438
108355
108280
108163
108053
107885
107738
107525
107352
107091
106892
106570
106346
105948
105702
105204
104942
104313
104045
103241
102987
101944
101734
100363
100249
98422.7
98485.9
96019.9
96390.6
93016.1
93898.5
89221.2
90936
84371.8
87423.1
78100.8
83279
69887.8
78420.4
58956.4
72667.4
43984.7
65415.2
22574.5
55152.1
-9197.83
39858.1
-54893.5
20443.2
-109255
6889.71
-71419.6
11340.5
-37340.5
17389.9
-12392.5
24510.9
7170.47
32087.4
22416.9
39286
34188.9
45624.1
43160.9
50960.8
49995.9
55377.9
55242.8
59014.6
59322.2
62021.7
62564.6
64554.3
65234.3
66754.5
67527.5
68722.1
69562.5
70500.2
71391.9
72092.9
73036.7
73494.4
74516.7
74706.4
75862.2
75739.1
77113
76605.8
78312.3
77317.1
79499.4
77878.7
80700.3
78293.6
108586
108570
108540
108489
108435
108352
108278
108161
108051
107883
107736
107524
107350
107089
106890
106568
106344
105946
105700
105202
104940
104311
104043
103238
102984
101941
101731
100360
100246
98418.9
98483.1
96015.7
96387.8
93011.3
93895.8
89215.8
90933.5
84365.8
87421.1
78094.1
83277.6
69880.5
78419
58947.7
72664.5
43973.1
65408.5
22560.3
55143.2
-9205.64
39855.4
-54864.9
20463.9
-109116
6925.04
-71401
11347.3
-37343.7
17396.5
-12394.9
24515.7
7166.31
32089.2
22411.3
39285.2
34182.5
45621.8
43154.6
50957.8
49990.3
55374.9
55238.1
59012
59318.6
62019.8
62562.3
64553.2
65233
66754
67526.7
68721.6
69561.9
70499.4
71391.1
72091.6
73035.6
73492.7
74515.5
74704.5
75861.2
75737.3
77112.2
76604.3
78311.6
77316.1
79498.5
77878.9
80698.9
78295.2
108582
108567
108537
108487
108433
108350
108276
108159
108049
107881
107735
107522
107349
107088
106888
106567
106343
105944
105698
105200
104938
104308
104041
103236
102982
101938
101728
100356
100243
98415.1
98480.3
96011.4
96384.9
93006.6
93893.1
89210.4
90931.1
84359.8
87419
78087.6
83276.1
69873.2
78417.7
58939.1
72661.6
43961.7
65401.8
22546.2
55134.4
-9213.35
39852.8
-54836.5
20484.3
-108978
6959.98
-71382.5
11354.2
-37346.7
17403.1
-12397.2
24520.4
7162.19
32091
22405.8
39284.4
34176.1
45619.4
43148.3
50954.9
49984.7
55372
55233.4
59009.5
59315.1
62017.9
62559.9
64552.1
65231.7
66753.4
67526
68721.1
69561.3
70498.6
71390.2
72090.3
73034.6
73491.1
74514.4
74702.6
75860.1
75735.5
77111.3
76602.7
78310.9
77315.3
79497.6
77879
80697.4
78296.9
108579
108564
108534
108484
108430
108348
108274
108157
108048
107880
107733
107520
107347
107086
106887
106565
106341
105942
105696
105198
104936
104306
104039
103233
102979
101935
101726
100353
100241
98411.4
98477.5
96007.3
96382.2
93001.9
93890.4
89205.2
90928.6
84353.9
87417
78081.1
83274.6
69866.1
78416.3
58930.5
72658.7
43950.4
65395.3
22532.3
55125.6
-9220.95
39850.3
-54808.4
20504.5
-108841
6994.55
-71363.9
11361.2
-37349.7
17409.6
-12399.5
24525.2
7158.11
32092.8
22400.3
39283.6
34169.8
45617.1
43142.2
50952
49979.2
55369.1
55228.8
59006.9
59311.6
62016.1
62557.6
64551
65230.4
66752.8
67525.3
68720.6
69560.6
70497.8
71389.4
72089
73033.5
73489.4
74513.2
74700.8
75859
75733.7
77110.4
76601.2
78310.1
77314.4
79496.7
77879.2
80696
78298.5
108575
108560
108531
108481
108428
108346
108272
108155
108046
107878
107732
107519
107346
107084
106885
106563
106339
105940
105694
105195
104934
104304
104036
103230
102977
101932
101723
100350
100238
98407.8
98474.8
96003.1
96379.4
92997.2
93887.7
89199.9
90926.2
84348.1
87415.1
78074.7
83273.2
69858.9
78415
58922
72655.8
43939.2
65388.8
22518.5
55117
-9228.45
39847.8
-54780.5
20524.6
-108706
7028.75
-71345.3
11368.2
-37352.6
17416.2
-12401.7
24529.9
7154.06
32094.6
22394.9
39282.9
34163.6
45614.8
43136.1
50949.2
49973.7
55366.2
55224.3
59004.4
59308.1
62014.2
62555.3
64549.9
65229.1
66752.2
67524.6
68720.2
69560
70497
71388.5
72087.8
73032.4
73487.7
74512.1
74699
75858
75731.9
77109.6
76599.7
78309.3
77313.5
79495.7
77879.3
80694.5
78300.1
108572
108557
108527
108478
108425
108344
108270
108154
108044
107876
107730
107517
107344
107083
106884
106561
106337
105938
105692
105193
104932
104301
104034
103228
102975
101929
101721
100347
100235
98404.1
98472.1
95999
96376.7
92992.6
93885.1
89194.7
90923.9
84342.3
87413.1
78068.3
83271.8
69851.9
78413.6
58913.6
72652.9
43928.1
65382.3
22504.9
55108.5
-9235.84
39845.4
-54752.8
20544.4
-108573
7062.59
-71326.8
11375.3
-37355.3
17422.7
-12403.9
24534.5
7150.06
32096.4
22389.5
39282.1
34157.4
45612.5
43130
50946.3
49968.3
55363.4
55219.8
59002
59304.7
62012.4
62553
64548.8
65227.8
66751.7
67523.9
68719.7
69559.4
70496.2
71387.7
72086.5
73031.3
73486.1
74510.9
74697.1
75856.9
75730.1
77108.7
76598.3
78308.6
77312.6
79494.8
77879.4
80693.1
78301.7
108569
108554
108524
108476
108423
108342
108268
108152
108042
107875
107728
107516
107343
107081
106882
106560
106336
105936
105690
105191
104930
104299
104032
103225
102972
101926
101718
100343
100233
98400.5
98469.4
95995
96374
92988
93882.5
89189.6
90921.5
84336.6
87411.2
78062
83270.4
69844.9
78412.3
58905.2
72650.1
43917.1
65376
22491.4
55100.1
-9243.12
39843.1
-54725.4
20564
-108441
7096.07
-71308.3
11382.5
-37358
17429.1
-12406.1
24539.1
7146.09
32098.1
22384.2
39281.4
34151.3
45610.3
43124
50943.5
49963
55360.6
55215.3
58999.5
59301.3
62010.5
62550.8
64547.7
65226.6
66751.1
67523.2
68719.2
69558.7
70495.4
71386.8
72085.3
73030.3
73484.5
74509.8
74695.3
75855.9
75728.3
77107.8
76596.8
78307.8
77311.7
79493.9
77879.6
80691.6
78303.2
108565
108551
108522
108473
108420
108339
108266
108150
108041
107873
107727
107514
107341
107080
106880
106558
106334
105934
105689
105189
104928
104297
104030
103223
102970
101923
101716
100340
100230
98397
98466.8
95991
96371.3
92983.5
93879.9
89184.5
90919.2
84330.9
87409.2
78055.8
83268.9
69838
78410.9
58897
72647.3
43906.2
65369.7
22478.1
55091.8
-9250.3
39840.8
-54698.3
20583.3
-108311
7129.19
-71289.7
11389.7
-37360.6
17435.5
-12408.3
24543.6
7142.16
32099.8
22378.9
39280.6
34145.2
45608
43118.1
50940.7
49957.7
55357.8
55210.9
58997
59297.9
62008.7
62548.5
64546.6
65225.3
66750.6
67522.5
68718.7
69558.1
70494.6
71386
72084
73029.2
73482.9
74508.6
74693.5
75854.8
75726.6
77106.9
76595.3
78307
77310.9
79493
77879.7
80690.2
78304.8
108562
108548
108519
108470
108418
108337
108264
108148
108039
107872
107725
107513
107340
107078
106879
106556
106332
105933
105687
105187
104926
104294
104028
103220
102968
101920
101714
100337
100228
98393.4
98464.1
95987
96368.7
92979.1
93877.4
89179.5
90916.8
84325.3
87407.3
78049.6
83267.5
69831.1
78409.6
58888.8
72644.5
43895.4
65363.5
22464.9
55083.7
-9257.38
39838.5
-54671.4
20602.5
-108182
7161.97
-71271.2
11396.9
-37363.1
17441.9
-12410.4
24548.1
7138.27
32101.5
22373.7
39279.9
34139.2
45605.8
43112.2
50938
49952.4
55355
55206.5
58994.6
59294.6
62007
62546.3
64545.6
65224.1
66750
67521.8
68718.2
69557.5
70493.8
71385.2
72082.8
73028.1
73481.3
74507.5
74691.8
75853.8
75724.8
77106.1
76593.9
78306.3
77310
79492
77879.9
80688.7
78306.4
108559
108545
108516
108468
108415
108335
108262
108147
108038
107870
107724
107511
107338
107077
106877
106555
106331
105931
105685
105185
104924
104292
104026
103218
102965
101918
101711
100334
100225
98390
98461.5
95983.1
96366.1
92974.6
93874.9
89174.6
90914.6
84319.8
87405.5
78043.5
83266.2
69824.4
78408.3
58880.7
72641.8
43884.8
65357.4
22451.9
55075.6
-9264.35
39836.3
-54644.7
20621.4
-108055
7194.4
-71252.7
11404.2
-37365.5