/*--------------------------------*- C++ -*----------------------------------*\
| =========                 |                                                 |
| \\      /  F ield         | OpenFOAM: The Open Source CFD Toolbox           |
|  \\    /   O peration     | Version:  2412                                  |
|   \\  /    A nd           | Website:  www.openfoam.com                      |
|    \\/     M anipulation  |                                                 |
\*---------------------------------------------------------------------------*/
FoamFile
{
    version     2.0;
    format      ascii;
    arch        "LSB;label=32;scalar=64";
    class       surfaceScalarField;
    location    "0.4";
    object      phi;
}
// * * * * * * * * * * * * * * * * * * * * * * * * * * * * * * * * * * * * * //

dimensions      [0 3 -1 0 0 0 0];

oriented        oriented;

internalField   nonuniform List<scalar> 
25905
(
0.00747553
-0.0131946
0.00738738
-0.011844
0.00731605
-0.00971758
0.00726927
-0.00608738
0.0072531
-0.00109613
0.00726832
0.00399611
0.00731132
0.00781873
0.00737194
0.00956617
0.00743633
0.00943822
0.00749353
0.0082871
0.00754033
0.00697756
0.00757905
0.00594286
0.00761236
0.00516529
0.0076419
0.00456175
0.00766813
0.00402405
0.00769163
0.00357372
0.00771239
0.00313981
0.00773107
0.00280417
0.00774745
0.00245504
0.00776224
0.00220601
0.00777497
0.00190984
0.0077865
0.00172724
0.00779599
0.00144622
0.00780475
0.00133326
0.00781141
0.00105683
0.00781777
0.00100612
0.00782189
0.000719212
0.00782625
0.000740267
0.007828
0.000415254
0.0078308
0.00054081
0.00783043
0.0001519
0.00783206
0.000397687
0.00782968
-8.31447e-05
0.00783064
0.000336296
0.00782649
-0.000259118
0.00782741
0.000381796
0.00782187
-0.000361294
0.00782386
0.000591317
0.00781809
-0.000302984
0.00782343
0.00106728
0.00782078
8.22857e-05
0.0078341
0.00194444
0.00783954
0.000810494
0.00786428
0.00292576
0.00787754
0.00119957
0.0079067
0.00285466
0.00791177
-0.000273902
0.00792166
1.21142e-05
0.00789977
-0.00426424
0.00787021
-0.0068515
0.007804
-0.0127822
0.00763571
-0.0287209
0.00734771
-0.0457538
0.00739686
0.00447432
0.00760824
0.0308989
0.00773012
0.0197515
0.00775217
0.00719594
0.00775734
0.00406461
0.00773449
-0.000591658
0.00773174
0.00100912
0.00771928
-0.000883072
0.00772473
0.00111024
0.00772022
-0.000192283
0.00772899
0.00145228
0.00773017
0.000427322
0.00774113
0.00154488
0.00774497
0.000547096
0.00775403
0.0011185
0.00775554
0.000126703
0.00775863
0.000317035
0.00775429
-0.000592095
0.00774945
-0.000622204
0.00773854
-0.0013632
0.00772683
-0.00144169
0.00771105
-0.00194071
0.00769531
-0.00193361
0.00767805
-0.00214633
0.00766221
-0.00200778
0.00764704
-0.00197861
0.0076341
-0.00175567
0.00762265
-0.00162454
0.00761305
-0.00143903
0.00760466
-0.00131618
0.00759695
-0.00123844
0.00758977
-0.00116877
0.00758223
-0.0011975
0.00757496
-0.001161
0.00756684
-0.00123261
0.0075595
-0.00115526
0.00755118
-0.00120093
0.00754465
-0.00102818
0.00753756
-0.000924034
0.00753376
-0.000598922
0.00753069
-0.000168803
0.00753271
0.000347257
0.00753894
0.00136933
0.00755242
0.00212793
0.00757734
0.00397574
0.00578908
0.00747548
-0.0130944
0.00738724
-0.0117558
0.00731583
-0.00964617
0.00726908
-0.00604063
0.00725311
-0.00108017
0.00726871
0.00398052
0.0073121
0.00777534
0.00737303
0.00950525
0.00743758
0.00937366
0.0074949
0.00822979
0.00754184
0.00693062
0.00758072
0.00590399
0.00761417
0.00513184
0.00764383
0.00453209
0.00767016
0.00399772
0.00769375
0.00355013
0.00771458
0.00311898
0.00773332
0.00278543
0.00774975
0.00243861
0.00776458
0.00219117
0.00777736
0.00189707
0.00778893
0.00171567
0.00779846
0.0014367
0.00780724
0.00132447
0.00781393
0.00105014
0.00782032
0.000999724
0.00782447
0.000715063
0.00782886
0.000735877
0.00783065
0.00041347
0.00783348
0.000537979
0.00783313
0.000152245
0.00783479
0.000396031
0.00783244
-8.07979e-05
0.00783343
0.000335308
0.00782932
-0.00025501
0.00783028
0.000380841
0.00782479
-0.000355805
0.00782683
0.000589271
0.00782114
-0.00029729
0.00782655
0.00106187
0.00782399
8.48472e-05
0.00783737
0.00193106
0.00784285
0.000805006
0.00786758
0.00290104
0.0078808
0.00118634
0.00790983
0.00282563
0.00791479
-0.000278857
0.00792449
2.41784e-06
0.00790239
-0.00424215
0.00787231
-0.00682142
0.00780537
-0.0127152
0.00763583
-0.0285513
0.00734633
-0.0454642
0.00739531
0.00442533
0.00760751
0.0306867
0.0077301
0.0196289
0.0077528
0.00717324
0.00775842
0.00405899
0.00773584
-0.000569081
0.00773323
0.00101173
0.00772081
-0.000870654
0.00772624
0.0011048
0.00772173
-0.000187769
0.0077305
0.00144351
0.00773167
0.000426151
0.0077426
0.00153395
0.00774642
0.000543281
0.00775545
0.00110947
0.00775694
0.000125211
0.00776001
0.000313962
0.00775568
-0.000587758
0.00775086
-0.00061739
0.00773998
-0.00135232
0.00772831
-0.00143003
0.00771258
-0.00192498
0.00769688
-0.00191791
0.00767966
-0.00212911
0.00766385
-0.00199197
0.00764868
-0.00196344
0.00763573
-0.00174273
0.00762427
-0.00161307
0.00761464
-0.0014294
0.00760621
-0.00130775
0.00759847
-0.0012307
0.00759127
-0.00116157
0.00758371
-0.00118994
0.00757644
-0.00115373
0.00756834
-0.0012245
0.00756102
-0.00114794
0.00755276
-0.00119266
0.00754629
-0.00102171
0.00753931
-0.000917054
0.00753562
-0.000595232
0.00753274
-0.00016592
0.00753494
0.000345059
0.00754143
0.00136284
0.00755518
0.00211419
0.00758042
0.0039505
0.0057485
0.00747544
-0.012994
0.0073871
-0.0116674
0.00731561
-0.00957468
0.00726888
-0.00599391
0.00725312
-0.0010644
0.00726907
0.00396456
0.00731286
0.00773155
0.00737408
0.00944403
0.0074388
0.00930893
0.00749624
0.00817234
0.00754332
0.00688354
0.00758235
0.00586496
0.00761595
0.00509825
0.00764573
0.0045023
0.00767217
0.00397128
0.00769584
0.00352646
0.00771675
0.00309807
0.00773555
0.00276662
0.00775203
0.00242213
0.00776691
0.00217629
0.00777973
0.00188425
0.00779134
0.00170406
0.0078009
0.00142714
0.00780972
0.00131566
0.00781644
0.00104342
0.00782286
0.000993302
0.00782704
0.000710883
0.00783146
0.000731459
0.00783328
0.000411655
0.00783613
0.000535121
0.00783582
0.000152558
0.00783751
0.000394348
0.00783519
-7.84847e-05
0.00783621
0.000334292
0.00783214
-0.000250942
0.00783313
0.000379851
0.0078277
-0.000350371
0.00782979
0.000587175
0.00782417
-0.000291672
0.00782965
0.00105639
0.00782718
8.7323e-05
0.00784061
0.00191763
0.00784615
0.000799471
0.00787086
0.00287633
0.00788404
0.00117317
0.00791295
0.00279672
0.00791779
-0.000283695
0.0079273
-7.09268e-06
0.00790499
-0.00421984
0.00787439
-0.00679082
0.00780672
-0.0126476
0.00763594
-0.0283805
0.00734494
-0.0451733
0.00739375
0.00437652
0.00760677
0.0304737
0.00773005
0.0195056
0.00775341
0.00714988
0.00775948
0.00405291
0.00773718
-0.000546782
0.0077347
0.00101422
0.00772232
-0.000858277
0.00772775
0.00109937
0.00772323
-0.000183255
0.007732
0.00143474
0.00773317
0.000424987
0.00774408
0.00152304
0.00774787
0.000539493
0.00775686
0.00110047
0.00775834
0.000123738
0.0077614
0.0003109
0.00775707
-0.000583427
0.00775227
-0.000612594
0.00774142
-0.00134146
0.00772979
-0.0014184
0.0077141
-0.00190929
0.00769845
-0.00190226
0.00768127
-0.00211192
0.00766548
-0.00197619
0.00765033
-0.00194829
0.00763737
-0.00172977
0.00762589
-0.00160158
0.00761623
-0.00141975
0.00760777
-0.00129929
0.00759999
-0.00122293
0.00759277
-0.00115434
0.00758519
-0.00118237
0.00757792
-0.00114646
0.00756983
-0.00121641
0.00756254
-0.00114065
0.00755433
-0.00118445
0.00754793
-0.00101531
0.00754105
-0.000910179
0.00753748
-0.000591656
0.00753477
-0.000163215
0.00753715
0.000342678
0.00754392
0.00135607
0.00755792
0.00210018
0.00758348
0.00392494
0.00570762
0.00747539
-0.0128937
0.00738696
-0.011579
0.00731539
-0.00950311
0.00726869
-0.00594721
0.00725312
-0.00104884
0.00726943
0.00394825
0.00731361
0.00768738
0.00737511
0.00938253
0.00744001
0.00924404
0.00749758
0.00811478
0.0075448
0.00683632
0.00758398
0.00582578
0.00761772
0.00506451
0.00764762
0.0044724
0.00767416
0.00394474
0.00769792
0.0035027
0.0077189
0.0030771
0.00773777
0.00274776
0.0077543
0.00240559
0.00776923
0.00216136
0.00778209
0.0018714
0.00779374
0.00169241
0.00780333
0.00141754
0.00781218
0.00130681
0.00781894
0.00103666
0.00782539
0.000986849
0.0078296
0.000706672
0.00783405
0.000727012
0.00783589
0.000409809
0.00783878
0.000532234
0.0078385
0.000152839
0.00784021
0.000392637
0.00783793
-7.62049e-05
0.00783898
0.000333246
0.00783495
-0.000246914
0.00783597
0.000378825
0.00783059
-0.00034499
0.00783274
0.000585028
0.0078272
-0.000286129
0.00783274
0.00105084
0.00783035
8.97134e-05
0.00784384
0.00190414
0.00784942
0.000793889
0.00787412
0.00285163
0.00788725
0.00116004
0.00791605
0.00276792
0.00792077
-0.000288416
0.00793009
-1.64174e-05
0.00790757
-0.00419732
0.00787646
-0.00675972
0.00780806
-0.0125792
0.00763604
-0.0282085
0.00734356
-0.0448808
0.00739219
0.0043279
0.00760601
0.0302599
0.00772998
0.0193816
0.00775399
0.00712587
0.00776052
0.00404638
0.0077385
-0.000524765
0.00773615
0.00101658
0.00772382
-0.000845943
0.00772924
0.00109394
0.00772473
-0.000178743
0.0077335
0.00142598
0.00773466
0.000423827
0.00774555
0.00151215
0.00774931
0.000535729
0.00775828
0.0010915
0.00775973
0.000122284
0.00776278
0.000307849
0.00775846
-0.000579102
0.00775368
-0.000607817
0.00774286
-0.00133064
0.00773127
-0.00140681
0.00771563
-0.00189365
0.00770002
-0.00188665
0.00768288
-0.00209478
0.00766712
-0.00196043
0.00765197
-0.00193314
0.00763901
-0.00171681
0.0076275
-0.00159008
0.00761782
-0.00141006
0.00760932
-0.00129079
0.00760151
-0.00121512
0.00759426
-0.00114709
0.00758667
-0.00117478
0.0075794
-0.00113919
0.00757132
-0.00120833
0.00756406
-0.00113339
0.0075559
-0.0011763
0.00754956
-0.00100898
0.00754279
-0.000903408
0.00753933
-0.000588193
0.0075368
-0.000160688
0.00753936
0.000340118
0.00754639
0.00134905
0.00756065
0.00208593
0.00758651
0.00389908
0.00566644
0.00747535
-0.0127933
0.00738683
-0.0114905
0.00731517
-0.00943145
0.0072685
-0.00590054
0.00725313
-0.00103347
0.00726979
0.00393159
0.00731435
0.00764282
0.00737614
0.00932073
0.00744121
0.00917897
0.0074989
0.00805709
0.00754626
0.00678896
0.00758559
0.00578644
0.00761947
0.00503063
0.0076495
0.00444237
0.00767615
0.0039181
0.00769999
0.00347885
0.00772104
0.00305605
0.00773997
0.00272883
0.00775656
0.002389
0.00777154
0.00214639
0.00778444
0.0018585
0.00779612
0.00168072
0.00780575
0.00140791
0.00781463
0.00129792
0.00782142
0.00102988
0.0078279
0.000980367
0.00783214
0.000702431
0.00783662
0.000722536
0.0078385
0.000407932
0.00784141
0.00052932
0.00784116
0.000153089
0.0078429
0.000390899
0.00784065
-7.39585e-05
0.00784173
0.000332172
0.00783774
-0.000242925
0.0078388
0.000377764
0.00783347
-0.000339662
0.00783567
0.000582831
0.0078302
-0.00028066
0.00783581
0.00104523
0.00783351
9.20198e-05
0.00784705
0.0018906
0.00785268
0.000788261
0.00787736
0.00282695
0.00789045
0.00114695
0.00791912
0.00273925
0.00792373
-0.00029302
0.00793287
-2.5556e-05
0.00791013
-0.00417458
0.0078785
-0.00672809
0.00780938
-0.01251
0.00763612
-0.0280353
0.00734218
-0.0445868
0.00739062
0.00427946
0.00760523
0.0300453
0.00772988
0.019257
0.00775455
0.0071012
0.00776154
0.00403939
0.00773981
-0.000503035
0.00773759
0.00101879
0.0077253
-0.000833654
0.00773073
0.00108852
0.00772622
-0.000174235
0.00773498
0.00141721
0.00773614
0.000422669
0.00774701
0.00150128
0.00775075
0.00053199
0.00775969
0.00108256
0.00776113
0.000120849
0.00776417
0.000304808
0.00775985
-0.000574783
0.00775509
-0.000603057
0.0077443
-0.00131985
0.00773275
-0.00139527
0.00771715
-0.00187806
0.00770159
-0.00187109
0.00768448
-0.00207767
0.00766874
-0.00194469
0.00765361
-0.00191801
0.00764064
-0.00170384
0.00762911
-0.00157855
0.0076194
-0.00140034
0.00761087
-0.00128226
0.00760303
-0.00120728
0.00759575
-0.00113981
0.00758815
-0.00116718
0.00758087
-0.00113191
0.00757281
-0.00120027
0.00756557
-0.00112615
0.00755747
-0.00116819
0.00755119
-0.0010027
0.00754453
-0.00089674
0.00754117
-0.000584841
0.00753882
-0.000158336
0.00754156
0.000337379
0.00754885
0.00134176
0.00756336
0.00207141
0.00758953
0.00387291
0.00562497
0.00747531
-0.0126928
0.0073867
-0.0114019
0.00731496
-0.00935972
0.00726831
-0.00585389
0.00725314
-0.00101829
0.00727015
0.00391458
0.00731509
0.00759787
0.00737717
0.00925866
0.0074424
0.00911374
0.00750021
0.00799927
0.00754771
0.00674146
0.0075872
0.00574696
0.00762122
0.00499661
0.00765137
0.00441222
0.00767812
0.00389135
0.00770205
0.00345492
0.00772317
0.00303493
0.00774216
0.00270984
0.00775881
0.00237236
0.00777383
0.00213137
0.00778677
0.00184555
0.00779849
0.001669
0.00780816
0.00139825
0.00781707
0.00128901
0.00782389
0.00102306
0.0078304
0.000973854
0.00783467
0.000698158
0.00783918
0.000718031
0.00784109
0.000406024
0.00784403
0.000526377
0.00784381
0.000153307
0.00784558
0.000389133
0.00784336
-7.17454e-05
0.00784447
0.00033107
0.00784052
-0.000238976
0.00784161
0.000376667
0.00783634
-0.000334388
0.00783859
0.000580585
0.00783319
-0.000275266
0.00783887
0.00103955
0.00783665
9.42429e-05
0.00785025
0.001877
0.00785592
0.000782587
0.00788059
0.00280228
0.00789363
0.00113391
0.00792219
0.00271069
0.00792667
-0.000297507
0.00793562
-3.45085e-05
0.00791267
-0.00415162
0.00788053
-0.00669596
0.00781068
-0.0124402
0.0076362
-0.0278608
0.0073408
-0.0442914
0.00738905
0.00423121
0.00760443
0.0298299
0.00772975
0.0191317
0.00775508
0.00707588
0.00776253
0.00403193
0.00774109
-0.000481595
0.00773902
0.00102087
0.00772677
-0.000821413
0.0077322
0.0010831
0.0077277
-0.000169733
0.00773646
0.00140845
0.00773762
0.000421512
0.00774847
0.00149042
0.00775219
0.000528275
0.0077611
0.00107365
0.00776252
0.000119432
0.00776555
0.000301779
0.00776123
-0.000570471
0.00775649
-0.000598316
0.00774573
-0.00130909
0.00773423
-0.00138376
0.00771868
-0.00186251
0.00770315
-0.00185557
0.00768608
-0.0020606
0.00767037
-0.00192898
0.00765524
-0.00190288
0.00764227
-0.00169087
0.00763072
-0.001567
0.00762098
-0.0013906
0.00761241
-0.0012737
0.00760454
-0.00119941
0.00759724
-0.00113251
0.00758962
-0.00115957
0.00758234
-0.00112463
0.00757429
-0.00119222
0.00756708
-0.00111894
0.00755903
-0.00116014
0.00755282
-0.000996491
0.00754625
-0.000890175
0.00754301
-0.000581599
0.00754083
-0.000156158
0.00754375
0.000334463
0.00755129
0.00133422
0.00756606
0.00205665
0.00759253
0.00384643
0.0055832
0.00747527
-0.0125923
0.00738657
-0.0113132
0.00731476
-0.0092879
0.00726813
-0.00580726
0.00725314
-0.00100331
0.0072705
0.00389723
0.00731582
0.00755255
0.00737818
0.0091963
0.00744358
0.00904835
0.00750152
0.00794133
0.00754916
0.00669382
0.00758879
0.00570732
0.00762296
0.00496245
0.00765323
0.00438195
0.00768007
0.00386451
0.00770409
0.0034309
0.00772529
0.00301373
0.00774434
0.00269079
0.00776104
0.00235566
0.0077761
0.0021163
0.00778909
0.00183257
0.00780085
0.00165724
0.00781055
0.00138855
0.00781949
0.00128006
0.00782635
0.00101621
0.00783289
0.000967312
0.00783719
0.000693855
0.00784172
0.000713498
0.00784366
0.000404085
0.00784663
0.000523405
0.00784645
0.000153494
0.00784824
0.00038734
0.00784606
-6.95652e-05
0.00784719
0.000329938
0.00784328
-0.000235066
0.00784441
0.000375536
0.00783919
-0.000329168
0.00784149
0.000578289
0.00783617
-0.000269945
0.00784191
0.00103381
0.00783977
9.63833e-05
0.00785342
0.00186335
0.00785914
0.000776868
0.00788379
0.00277763
0.00789679
0.00112092
0.00792523
0.00268224
0.0079296
-0.000301876
0.00793836
-4.3276e-05
0.00791519
-0.00412845
0.00788254
-0.00666331
0.00781197
-0.0123696
0.00763626
-0.0276851
0.00733941
-0.0439946
0.00738747
0.00418316
0.00760361
0.0296138
0.00772961
0.0190057
0.00775558
0.0070499
0.00776351
0.00402401
0.00774236
-0.00046045
0.00774043
0.00102281
0.00772823
-0.000809222
0.00773366
0.00107767
0.00772916
-0.000165239
0.00773794
0.00139968
0.00773909
0.000420354
0.00774993
0.00147959
0.00775362
0.000524582
0.00776251
0.00106477
0.0077639
0.000118035
0.00776692
0.000298762
0.00776262
-0.000566164
0.00775789
-0.000593594
0.00774717
-0.00129837
0.0077357
-0.00137229
0.00772019
-0.001847
0.00770472
-0.00184009
0.00768768
-0.00204356
0.00767199
-0.00191329
0.00765687
-0.00188777
0.00764389
-0.00167789
0.00763233
-0.00155543
0.00762255
-0.00138082
0.00761395
-0.0012651
0.00760605
-0.00119151
0.00759872
-0.00112518
0.00759109
-0.00115193
0.00758381
-0.00111734
0.00757577
-0.00118419
0.00756859
-0.00111176
0.00756059
-0.00115213
0.00755444
-0.000990342
0.00754797
-0.000883711
0.00754484
-0.000578467
0.00754284
-0.000154153
0.00754593
0.000331373
0.00755373
0.00132642
0.00756874
0.00204163
0.00759551
0.00381966
0.00554114
0.00747523
-0.0124918
0.00738645
-0.0112244
0.00731456
-0.00921601
0.00726795
-0.00576065
0.00725315
-0.000988508
0.00727085
0.00387953
0.00731655
0.00750686
0.00737919
0.00913366
0.00744475
0.00898279
0.00750281
0.00788326
0.00755059
0.00664604
0.00759038
0.00566754
0.00762468
0.00492814
0.00765507
0.00435156
0.00768202
0.00383756
0.00770612
0.0034068
0.00772739
0.00299246
0.0077465
0.00267167
0.00776325
0.00233891
0.00777837
0.00210119
0.00779139
0.00181955
0.00780319
0.00164544
0.00781293
0.00137881
0.00782191
0.00127108
0.00782879
0.00100933
0.00783536
0.00096074
0.00783969
0.000689521
0.00784426
0.000708936
0.00784623
0.000402115
0.00784923
0.000520406
0.00784907
0.000153649
0.00785089
0.00038552
0.00784874
-6.7418e-05
0.0078499
0.000328779
0.00784603
-0.000231195
0.0078472
0.000374369
0.00784203
-0.000323999
0.00784438
0.000575944
0.00783913
-0.000264698
0.00784494
0.001028
0.00784288
9.84422e-05
0.00785658
0.00184964
0.00786234
0.000771105
0.00788698
0.00275299
0.00789993
0.00110797
0.00792825
0.00265392
0.00793251
-0.000306128
0.00794109
-5.18583e-05
0.00791769
-0.00410505
0.00788453
-0.00663015
0.00781324
-0.0122983
0.00763632
-0.0275081
0.00733803
-0.0436963
0.00738589
0.0041353
0.00760278
0.0293969
0.00772943
0.018879
0.00775606
0.00702327
0.00776446
0.00401561
0.00774361
-0.000439602
0.00774182
0.0010246
0.00772968
-0.000797081
0.00773511
0.00107224
0.00773062
-0.000160755
0.0077394
0.0013909
0.00774056
0.000419192
0.00775139
0.00146877
0.00775506
0.000520911
0.00776391
0.00105591
0.00776529
0.000116656
0.0077683
0.000295755
0.007764
-0.000561864
0.00775929
-0.00058889
0.0077486
-0.00128767
0.00773717
-0.00136086
0.00772171
-0.00183154
0.00770627
-0.00182465
0.00768927
-0.00202656
0.00767361
-0.00189763
0.0076585
-0.00187266
0.00764551
-0.0016649
0.00763392
-0.00154385
0.00762412
-0.00137102
0.00761549
-0.00125647
0.00760756
-0.00118358
0.0076002
-0.00111783
0.00759256
-0.00114429
0.00758527
-0.00111006
0.00757725
-0.00117617
0.00757009
-0.0011046
0.00756214
-0.00114418
0.00755605
-0.000984253
0.00754969
-0.000877348
0.00754666
-0.000575444
0.00754483
-0.00015232
0.00754809
0.000328108
0.00755615
0.00131837
0.00757141
0.00202636
0.00759848
0.0037926
0.00549879
0.00747519
-0.0123913
0.00738633
-0.0111355
0.00731436
-0.00914404
0.00726778
-0.00571406
0.00725317
-0.000973897
0.0072712
0.00386149
0.00731727
0.00746079
0.00738019
0.00907074
0.00744591
0.00891706
0.0075041
0.00782507
0.00755202
0.00659812
0.00759196
0.0056276
0.0076264
0.0048937
0.00765691
0.00432104
0.00768396
0.00381051
0.00770814
0.00338261
0.00772948
0.00297112
0.00774866
0.0026525
0.00776546
0.0023221
0.00778062
0.00208603
0.00779369
0.00180648
0.00780552
0.00163361
0.00781529
0.00136905
0.0078243
0.00126207
0.00783122
0.00100241
0.00783782
0.000954139
0.00784218
0.000685157
0.00784677
0.000704345
0.00784877
0.000400115
0.0078518
0.000517379
0.00785168
0.000153774
0.00785353
0.000383672
0.00785141
-6.53036e-05
0.0078526
0.000327591
0.00784877
-0.000227363
0.00784997
0.000373167
0.00784485
-0.000318883
0.00784725
0.000573549
0.00784207
-0.000259523
0.00784794
0.00102213
0.00784597
0.00010042
0.00785972
0.00183589
0.00786553
0.000765298
0.00789015
0.00272837
0.00790305
0.00109507
0.00793126
0.00262571
0.00793539
-0.000310262
0.00794379
-6.02558e-05
0.00792018
-0.00408144
0.00788651
-0.00659648
0.0078145
-0.0122263
0.00763636
-0.02733
0.00733665
-0.0433966
0.0073843
0.00408765
0.00760192
0.0291792
0.00772924
0.0187517
0.00775652
0.00699599
0.00776539
0.00400675
0.00774484
-0.000419057
0.0077432
0.00102624
0.00773111
-0.000784994
0.00773655
0.00106681
0.00773207
-0.000156283
0.00774086
0.00138211
0.00774203
0.000418026
0.00775284
0.00145796
0.00775649
0.00051726
0.00776531
0.00104708
0.00776667
0.000115296
0.00776967
0.000292759
0.00776537
-0.000557569
0.00776069
-0.000584205
0.00775003
-0.00127701
0.00773864
-0.00134947
0.00772322
-0.00181613
0.00770783
-0.00180926
0.00769086
-0.00200959
0.00767522
-0.00188198
0.00766012
-0.00185756
0.00764713
-0.00165191
0.00763552
-0.00153224
0.00762569
-0.00136119
0.00761702
-0.00124781
0.00760906
-0.00117561
0.00760168
-0.00111045
0.00759402
-0.00113663
0.00758673
-0.00110276
0.00757872
-0.00116816
0.00757159
-0.00109747
0.00756369
-0.00113628
0.00755766
-0.000978224
0.00755139
-0.000871085
0.00754848
-0.000572528
0.00754682
-0.000150656
0.00755025
0.000324671
0.00755855
0.00131007
0.00757407
0.00201085
0.00760142
0.00376524
0.00545616
0.00747516
-0.0122907
0.00738621
-0.0110466
0.00731417
-0.009072
0.0072676
-0.0056675
0.00725318
-0.000959471
0.00727155
0.00384312
0.00731799
0.00741436
0.00738118
0.00900755
0.00744707
0.00885117
0.00750538
0.00776676
0.00755344
0.00655007
0.00759352
0.00558752
0.0076281
0.00485913
0.00765873
0.00429042
0.00768588
0.00378336
0.00771015
0.00335834
0.00773156
0.00294971
0.0077508
0.00263326
0.00776765
0.00230524
0.00778286
0.00207082
0.00779597
0.00179337
0.00780784
0.00162173
0.00781764
0.00135924
0.00782669
0.00125303
0.00783363
0.000995467
0.00784026
0.000947508
0.00784466
0.000680762
0.00784928
0.000699726
0.00785131
0.000398084
0.00785436
0.000514324
0.00785427
0.000153867
0.00785615
0.000381797
0.00785406
-6.32218e-05
0.00785528
0.000326374
0.00785149
-0.00022357
0.00785272
0.00037193
0.00784766
-0.000313819
0.0078501
0.000571106
0.007845
-0.00025442
0.00785094
0.00101619
0.00784904
0.000102318
0.00786285
0.00182208
0.0078687
0.000759449
0.0078933
0.00270377
0.00790615
0.00108221
0.00793425
0.00259762
0.00793827
-0.000314279
0.00794648
-6.84679e-05
0.00792264
-0.00405761
0.00788846
-0.0065623
0.00781574
-0.0121536
0.0076364
-0.0271507
0.00733527
-0.0430955
0.00738271
0.00404021
0.00760105
0.0289609
0.00772901
0.0186238
0.00775695
0.00696806
0.00776629
0.0039974
0.00774605
-0.000398817
0.00774457
0.00102772
0.00773253
-0.000772963
0.00773797
0.00106137
0.00773352
-0.000151824
0.00774231
0.00137332
0.00774348
0.000416854
0.00775428
0.00144716
0.00775791
0.00051363
0.00776671
0.00103828
0.00776805
0.000113955
0.00777104
0.000289774
0.00776675
-0.00055328
0.00776208
-0.000579539
0.00775145
-0.00126638
0.0077401
-0.00133812
0.00772473
-0.00180075
0.00770938
-0.0017939
0.00769244
-0.00199266
0.00767682
-0.00186637
0.00766174
-0.00184247
0.00764874
-0.00163891
0.00763711
-0.00152061
0.00762725
-0.00135132
0.00761855
-0.00123911
0.00761056
-0.00116762
0.00760315
-0.00110305
0.00759548
-0.00112895
0.00758818
-0.00109547
0.00758019
-0.00116016
0.00757308
-0.00109036
0.00756523
-0.00112842
0.00755926
-0.000972256
0.0075531
-0.000864921
0.00755029
-0.000569719
0.00754879
-0.000149161
0.0075524
0.000321063
0.00756095
0.00130152
0.0075767
0.0019951
0.00760435
0.0037376
0.00541325
0.00747512
-0.01219
0.0073861
-0.0109576
0.00731398
-0.00899989
0.00726744
-0.00562095
0.00725319
-0.000945226
0.0072719
0.00382441
0.0073187
0.00736756
0.00738216
0.00894408
0.00744821
0.00878512
0.00750665
0.00770832
0.00755485
0.00650187
0.00759508
0.0055473
0.00762979
0.00482441
0.00766054
0.00425967
0.00768779
0.00375611
0.00771214
0.00333399
0.00773363
0.00292823
0.00775292
0.00261397
0.00776983
0.00228833
0.00778508
0.00205557
0.00779823
0.00178022
0.00781014
0.00160982
0.00781998
0.0013494
0.00782906
0.00124395
0.00783603
0.00098849
0.0078427
0.000940847
0.00784712
0.000676336
0.00785177
0.000695078
0.00785383
0.000396022
0.00785691
0.000511241
0.00785685
0.000153929
0.00785875
0.000379895
0.0078567
-6.11725e-05
0.00785795
0.000325129
0.00785419
-0.000219816
0.00785547
0.000370658
0.00785045
-0.000308807
0.00785295
0.000568614
0.00784791
-0.000249388
0.00785391
0.00101019
0.00785209
0.000104137
0.00786595
0.00180822
0.00787184
0.000753558
0.00789643
0.00267918
0.00790924
0.0010694
0.00793722
0.00256964
0.00794112
-0.000318179
0.00794915
-7.64957e-05
0.00792509
-0.00403355
0.0078904
-0.00652761
0.00781697
-0.0120802
0.00763642
-0.0269701
0.00733389
-0.0427929
0.00738112
0.00399298
0.00760016
0.0287419
0.00772877
0.0184951
0.00775735
0.00693948
0.00776718
0.00398757
0.00774725
-0.000378887
0.00774592
0.00102905
0.00773394
-0.000760989
0.00773939
0.00105592
0.00773495
-0.00014738
0.00774376
0.00136451
0.00774494
0.000415673
0.00775572
0.00143638
0.00775933
0.000510019
0.00776811
0.00102951
0.00776943
0.000112633
0.0077724
0.0002868
0.00776812
-0.000548997
0.00776347
-0.000574891
0.00775287
-0.00125578
0.00774156
-0.00132681
0.00772623
-0.00178542
0.00771092
-0.00177859
0.00769402
-0.00197576
0.00767843
-0.00185077
0.00766335
-0.00182739
0.00765034
-0.0016259
0.0076387
-0.00150897
0.00762881
-0.00134143
0.00762008
-0.00123038
0.00761205
-0.00115959
0.00760462
-0.00109562
0.00759693
-0.00112126
0.00758964
-0.00108817
0.00758165
-0.00115218
0.00757457
-0.00108328
0.00756677
-0.00112062
0.00756086
-0.000966346
0.00755479
-0.000858855
0.00755209
-0.000567016
0.00755076
-0.000147832
0.00755454
0.000317285
0.00756333
0.00129272
0.00757933
0.0019791
0.00760725
0.00370967
0.00537006
0.00747509
-0.0120894
0.00738599
-0.0108685
0.0073138
-0.0089277
0.00726727
-0.00557442
0.00725321
-0.000931162
0.00727224
0.00380537
0.0073194
0.0073204
0.00738314
0.00888034
0.00744935
0.00871891
0.00750792
0.00764976
0.00755625
0.00645354
0.00759662
0.00550692
0.00763147
0.00478956
0.00766234
0.00422881
0.00768969
0.00372876
0.00771413
0.00330955
0.00773568
0.00290668
0.00775503
0.00259461
0.007772
0.00227137
0.00778729
0.00204027
0.00780048
0.00176703
0.00781243
0.00159788
0.0078223
0.00133953
0.00783141
0.00123484
0.00783842
0.000981481
0.00784511
0.000934156
0.00784957
0.000671881
0.00785424
0.000690402
0.00785634
0.000393931
0.00785945
0.00050813
0.00785942
0.00015396
0.00786134
0.000377966
0.00785933
-5.91558e-05
0.0078606
0.000323857
0.00785688
-0.000216099
0.00785819
0.000369352
0.00785323
-0.000303847
0.00785577
0.000566074
0.00785081
-0.000244427
0.00785687
0.00100413
0.00785513
0.000105877
0.00786904
0.00179432
0.00787497
0.000747625
0.00789954
0.00265461
0.0079123
0.00105664
0.00794017
0.00254177
0.00794395
-0.000321961
0.0079518
-8.43393e-05
0.00792751
-0.00400927
0.00789232
-0.00649241
0.00781818
-0.012006
0.00763644
-0.0267884
0.00733251
-0.042489
0.00737952
0.00394597
0.00759925
0.0285221
0.0077285
0.0183659
0.00775773
0.00691024
0.00776804
0.00397726
0.00774842
-0.000359269
0.00774725
0.00103022
0.00773534
-0.000749074
0.0077408
0.00105047
0.00773637
-0.000142953
0.00774519
0.00135569
0.00774638
0.000414484
0.00775716
0.0014256
0.00776075
0.000506427
0.0077695
0.00102076
0.0077708
0.000111329
0.00777376
0.000283837
0.00776949
-0.000544721
0.00776486
-0.000570261
0.00775429
-0.00124521
0.00774302
-0.00131554
0.00772773
-0.00177014
0.00771246
-0.00176332
0.0076956
-0.0019589
0.00768002
-0.00183519
0.00766495
-0.00181232
0.00765194
-0.00161289
0.00764028
-0.00149731
0.00763036
-0.00133151
0.0076216
-0.00122163
0.00761354
-0.00115153
0.00760609
-0.00108817
0.00759838
-0.00111355
0.00759108
-0.00108087
0.00758311
-0.00114421
0.00757605
-0.00107622
0.0075683
-0.00111286
0.00756245
-0.000960495
0.00755648
-0.000852886
0.00755388
-0.000564418
0.00755272
-0.000146669
0.00755666
0.000313339
0.0075657
0.00128368
0.00758194
0.00196287
0.00761014
0.00368146
0.0053266
0.00747505
-0.0119886
0.00738588
-0.0107793
0.00731362
-0.00885543
0.00726711
-0.00552792
0.00725322
-0.000917275
0.00727259
0.00378601
0.0073201
0.00727289
0.00738411
0.00881634
0.00745048
0.00865253
0.00750917
0.00759107
0.00755764
0.00640507
0.00759816
0.0054664
0.00763314
0.00475458
0.00766412
0.00419783
0.00769157
0.00370131
0.00771609
0.00328502
0.00773772
0.00288505
0.00775713
0.0025752
0.00777415
0.00225436
0.00778949
0.00202493
0.00780272
0.0017538
0.00781471
0.00158589
0.00782461
0.00132962
0.00783375
0.0012257
0.0078408
0.000974441
0.00784751
0.000927437
0.007852
0.000667395
0.0078567
0.000685698
0.00785883
0.000391809
0.00786197
0.000504991
0.00786196
0.000153961
0.00786392
0.00037601
0.00786194
-5.7171e-05
0.00786324
0.000322556
0.00785956
-0.000212422
0.0078609
0.000368011
0.00785599
-0.000298939
0.00785858
0.000563486
0.00785369
-0.000239537
0.00785981
0.000998004
0.00785815
0.00010754
0.00787211
0.00178036
0.00787808
0.000741652
0.00790264
0.00263005
0.00791535
0.00104393
0.0079431
0.00251402
0.00794677
-0.000325626
0.00795443
-9.19992e-05
0.00792992
-0.00398476
0.00789422
-0.00645671
0.00781938
-0.0119312
0.00763645
-0.0266054
0.00733114
-0.0421837
0.00737792
0.00389919
0.00759832
0.0283017
0.0077282
0.018236
0.00775809
0.00688036
0.00776889
0.00396646
0.00774958
-0.000339967
0.00774857
0.00103123
0.00773672
-0.00073722
0.00774219
0.001045
0.00773778
-0.000138545
0.00774662
0.00134685
0.00774782
0.000413283
0.00775859
0.00141483
0.00776216
0.000502853
0.00777089
0.00101204
0.00777217
0.000110043
0.00777512
0.000280885
0.00777085
-0.00054045
0.00776624
-0.000565651
0.00775571
-0.00123468
0.00774447
-0.0013043
0.00772923
-0.0017549
0.007714
-0.00174809
0.00769717
-0.00194207
0.00768161
-0.00181964
0.00766655
-0.00179726
0.00765353
-0.00159988
0.00764185
-0.00148563
0.00763191
-0.00132157
0.00762311
-0.00121283
0.00761503
-0.00114345
0.00760755
-0.00108069
0.00759983
-0.00110583
0.00759252
-0.00107357
0.00758457
-0.00113626
0.00757753
-0.00106918
0.00756982
-0.00110515
0.00756403
-0.000954701
0.00755816
-0.000847014
0.00755566
-0.000561923
0.00755466
-0.000145671
0.00755878
0.000309226
0.00756806
0.0012744
0.00758453
0.0019464
0.00761301
0.00365298
0.00528287
0.00747502
-0.0118879
0.00738577
-0.01069
0.00731344
-0.0087831
0.00726695
-0.00548142
0.00725324
-0.000903564
0.00727293
0.00376632
0.0073208
0.00722501
0.00738507
0.00875207
0.0074516
0.008586
0.00751041
0.00753226
0.00755902
0.00635646
0.00759969
0.00542574
0.0076348
0.00471946
0.0076659