/*--------------------------------*- C++ -*----------------------------------*\
| =========                 |                                                 |
| \\      /  F ield         | OpenFOAM: The Open Source CFD Toolbox           |
|  \\    /   O peration     | Version:  2412                                  |
|   \\  /    A nd           | Website:  www.openfoam.com                      |
|    \\/     M anipulation  |                                                 |
\*---------------------------------------------------------------------------*/
FoamFile
{
    version     2.0;
    format      ascii;
    arch        "LSB;label=32;scalar=64";
    class       volVectorField;
    location    "0.4";
    object      U;
}
// * * * * * * * * * * * * * * * * * * * * * * * * * * * * * * * * * * * * * //

dimensions      [0 1 -1 0 0 0 0];

internalField   nonuniform List<vector> 
13068
(
(100.008 0.458366 0)
(100.167 1.41058 -4.32904e-17)
(100.529 2.89564 -4.05502e-17)
(101.178 5.40931 0)
(102.272 8.86788 0)
(103.854 12.4462 0)
(105.955 15.2315 0)
(108.48 16.6805 8.28709e-17)
(111.276 16.912 0)
(114.104 16.4639 -4.07675e-17)
(116.89 15.9096 0)
(119.598 15.5307 0)
(122.343 15.33 0)
(125.085 15.2467 0)
(127.934 15.2184 0)
(130.787 15.2532 3.39996e-17)
(133.793 15.3196 -3.31786e-17)
(136.794 15.4489 3.23168e-17)
(140.004 15.5935 3.15153e-17)
(143.189 15.8036 3.06385e-17)
(146.654 16.0104 2.98385e-17)
(150.057 16.2936 -8.72911e-22)
(153.833 16.5529 2.81317e-17)
(157.488 16.9093 -2.7183e-17)
(161.646 17.2155 -8.172e-22)
(165.591 17.6517 0)
(170.216 18.0019 0)
(174.491 18.5307 2.35575e-17)
(179.692 18.9232 -2.28154e-17)
(184.342 19.5634 0)
(190.262 19.9977 2.09805e-17)
(195.338 20.7762 0)
(202.164 21.255 0)
(207.723 22.2085 1.77377e-17)
(215.704 22.74 -3.4444e-17)
(221.814 23.9143 0)
(231.285 24.5172 1.53075e-17)
(238.043 25.9749 -1.35362e-17)
(249.462 26.7079 3.8851e-22)
(257.039 28.5481 -1.13262e-17)
(271.077 29.5213 2.29283e-17)
(279.824 31.8344 9.07728e-18)
(297.457 33.1191 -1.67344e-22)
(307.962 35.8264 6.83175e-18)
(330.413 37.2609 7.97076e-18)
(343.284 39.9349 4.55667e-18)
(371.631 41.1192 -6.38695e-18)
(387.025 43.1788 2.07726e-18)
(421.996 44.366 -4.64552e-18)
(440.814 44.913 6.87799e-19)
(483.429 45.8942 2.86579e-18)
(507.602 38.0476 3.93937e-18)
(548.58 35.2483 1.65102e-21)
(574.945 -1.24425 -5.28273e-19)
(548.853 -16.9568 0)
(540.506 -25.4119 -5.77586e-18)
(504.102 -30.9048 0)
(487.641 -31.7872 0)
(454.863 -32.5168 0)
(439.597 -30.3885 0)
(413.726 -29.7895 0)
(400.781 -27.578 0)
(380.214 -26.977 3.2916e-18)
(368.778 -25.0944 0)
(352.129 -24.5896 -1.00515e-22)
(341.924 -23.1371 4.04873e-18)
(328.21 -22.8215 -5.55395e-18)
(318.931 -21.792 1.03352e-21)
(307.3 -21.6129 6.65692e-18)
(298.69 -20.8863 -9.87707e-22)
(288.533 -20.763 -7.7286e-18)
(280.446 -20.2127 -7.99162e-18)
(271.397 -20.0586 5.01707e-22)
(263.818 -19.5747 9.15586e-18)
(255.691 -19.3273 0)
(248.66 -18.8261 1.03048e-17)
(241.369 -18.4505 2.29049e-22)
(234.955 -17.9016 -1.14347e-17)
(228.463 -17.4277 -1.20379e-17)
(222.701 -16.876 0)
(216.936 -16.3829 7.92373e-23)
(211.788 -15.8978 1.3567e-17)
(206.627 -15.4529 0)
(202.003 -15.0755 -1.94181e-22)
(197.3 -14.6978 1.50815e-17)
(193.113 -14.421 -1.56252e-17)
(188.747 -14.0838 0)
(184.949 -13.8673 -1.66792e-17)
(180.835 -13.5263 0)
(177.427 -13.3156 -2.64959e-22)
(173.505 -12.9256 5.27937e-22)
(170.525 -12.6472 0)
(166.747 -12.1677 -4.62479e-22)
(164.267 -11.7119 0)
(160.607 -11.1115 -2.01741e-17)
(158.735 -10.3157 0)
(155.224 -9.57151 0)
(154.097 -8.2835 0)
(150.879 -6.87011 0)
(100.008 0.454031 -4.59048e-17)
(100.166 1.39775 4.33176e-17)
(100.527 2.87097 -4.05756e-17)
(101.175 5.36751 0)
(102.27 8.80479 0)
(103.857 12.3611 0)
(105.964 15.1268 0)
(108.495 16.5625 -4.13645e-17)
(111.294 16.7895 0)
(114.124 16.3439 4.07135e-17)
(116.912 15.7943 0)
(119.624 15.4186 -3.81762e-17)
(122.371 15.2195 3.69333e-17)
(125.116 15.1364 3.58348e-17)
(127.967 15.1081 0)
(130.822 15.1424 -3.40014e-17)
(133.83 15.2081 0)
(136.834 15.3363 -6.46359e-17)
(140.045 15.4797 -3.15165e-17)
(143.232 15.6882 -3.06395e-17)
(146.699 15.8935 -2.98376e-17)
(150.103 16.1745 -5.78597e-17)
(153.882 16.4319 -5.62633e-17)
(157.538 16.7857 2.71814e-17)
(161.698 17.0899 -2.63917e-17)
(165.645 17.5228 0)
(170.272 17.8706 2.46178e-17)
(174.549 18.3955 0)
(179.752 18.7853 2.28135e-17)
(184.405 19.4209 0)
(190.328 19.8523 -2.09785e-17)
(195.406 20.625 0)
(202.235 21.1007 0)
(207.797 22.0472 0)
(215.781 22.5753 1.72209e-17)
(221.895 23.741 0)
(231.37 24.3402 -1.53056e-17)
(238.133 25.7872 1.35354e-17)
(249.557 26.5157 1.33764e-17)
(257.142 28.3422 1.21868e-21)
(271.185 29.3089 -1.14638e-17)
(279.942 31.6043 -1.81535e-17)
(297.58 32.8792 -9.64037e-18)
(308.095 35.5649 0)
(330.548 36.9875 -1.59412e-17)
(343.428 39.6399 4.55361e-18)
(371.772 40.8148 6.38479e-18)
(387.174 42.858 2.0739e-18)
(422.136 44.0344 4.646e-18)
(440.96 44.5698 -6.88047e-19)
(483.531 45.5326 0)
(507.674 37.7293 -3.94381e-18)
(548.526 34.9293 -1.28528e-18)
(574.786 -1.24296 5.29766e-19)
(548.777 -16.8049 0)
(540.478 -25.196 0)
(504.127 -30.6483 0)
(487.697 -31.5308 0)
(454.939 -32.2612 0)
(439.678 -30.1546 0)
(413.808 -29.5633 0)
(400.859 -27.3701 0)
(380.289 -26.7736 -3.29148e-18)
(368.849 -24.9056 -2.44987e-18)
(352.198 -24.4047 -4.42043e-18)
(341.99 -22.9638 -4.04848e-18)
(328.273 -22.6507 -5.55298e-18)
(318.99 -21.6294 5.48384e-18)
(307.356 -21.4515 0)
(298.743 -20.7304 -9.75288e-22)
(288.585 -20.6076 -7.7279e-18)
(280.497 -20.0613 7.992e-18)
(271.447 -19.9082 8.79629e-18)
(263.868 -19.4278 -9.15618e-18)
(255.74 -19.1822 0)
(248.71 -18.6848 -1.03048e-17)
(241.419 -18.3121 1.09652e-17)
(235.005 -17.7676 0)
(228.512 -17.2976 1.20375e-17)
(222.749 -16.7504 0)
(216.982 -16.2613 1.30742e-17)
(211.833 -15.7801 -2.7134e-17)
(206.669 -15.3386 0)
(202.044 -14.964 -2.91856e-17)
(197.339 -14.5891 -1.50823e-17)
(193.151 -14.3142 0)
(188.783 -13.9795 0)
(184.985 -13.7645 0)
(180.871 -13.4262 0)
(177.463 -13.2167 -1.77618e-17)
(173.542 -12.83 1.815e-17)
(170.562 -12.553 0)
(166.787 -12.0779 -3.83573e-17)
(164.309 -11.624 0)
(160.653 -11.0293 2.01806e-17)
(158.783 -10.2373 0)
(155.28 -9.5003 0)
(154.154 -8.22045 0)
(150.946 -6.8195 0)
(100.008 0.449727 4.59193e-17)
(100.164 1.38498 0)
(100.524 2.84635 8.12074e-17)
(101.171 5.32563 -3.90025e-17)
(102.268 8.74148 0)
(103.859 12.2758 -3.96007e-17)
(105.973 15.0217 0)
(108.509 16.4442 -4.12925e-17)
(111.312 16.6668 0)
(114.144 16.2238 0)
(116.934 15.6789 0)
(119.648 15.3064 7.63177e-17)
(122.399 15.1087 -3.6927e-17)
(125.146 15.026 -3.58338e-17)
(128 14.9977 0)
(130.857 15.0314 0)
(133.867 15.0964 0)
(136.873 15.2236 6.46371e-17)
(140.086 15.3658 0)
(143.275 15.5726 0)
(146.743 15.7764 7.56503e-22)
(150.149 16.0553 2.89298e-17)
(153.93 16.3109 7.7915e-22)
(157.588 16.662 -2.71815e-17)
(161.75 16.964 -2.63901e-17)
(165.698 17.3938 -2.53898e-17)
(170.327 17.7392 -2.46176e-17)
(174.606 18.2602 0)
(179.812 18.6473 -2.28131e-17)
(184.467 19.2782 0)
(190.392 19.7067 2.0978e-17)
(195.473 20.4737 0)
(202.306 20.9462 0)
(207.87 21.8857 0)
(215.858 22.4104 0)
(221.976 23.5675 0)
(231.454 24.1629 1.53047e-17)
(238.223 25.5993 0)
(249.652 26.3232 1.33749e-17)
(257.244 28.1361 1.21503e-21)
(271.292 29.0962 0)
(280.059 31.3739 9.07619e-18)
(297.702 32.6389 0)
(308.227 35.3031 0)
(330.682 36.7138 3.84892e-22)
(343.57 39.3446 -4.55355e-18)
(371.911 40.5102 -6.38436e-18)
(387.322 42.5369 -2.07398e-18)
(422.275 43.7025 -4.64437e-18)
(441.104 44.2265 6.90072e-19)
(483.632 45.1713 0)
(507.746 37.4115 0)
(548.472 34.6115 1.2912e-18)
(574.627 -1.24158 -5.29547e-19)
(548.699 -16.6537 0)
(540.449 -24.9804 0)
(504.151 -30.3921 0)
(487.751 -31.2744 3.00597e-18)
(455.013 -32.0055 0)
(439.758 -29.9206 -1.09785e-18)
(413.89 -29.3371 0)
(400.936 -27.1621 0)
(380.364 -26.5701 0)
(368.921 -24.7166 2.44974e-18)
(352.267 -24.2196 0)
(342.055 -22.7904 0)
(328.335 -22.4799 3.60693e-22)
(319.049 -21.4668 5.48171e-18)
(307.412 -21.2901 0)
(298.797 -20.5744 -6.78208e-18)
(288.636 -20.4522 7.72824e-18)
(280.547 -19.9099 0)
(271.496 -19.7576 0)
(263.918 -19.2809 0)
(255.79 -19.037 0)
(248.76 -18.5435 0)
(241.469 -18.1737 0)
(235.055 -17.6337 0)
(228.561 -17.1675 -1.20372e-17)
(222.797 -16.6247 0)
(217.028 -16.1396 0)
(211.878 -15.6623 1.3567e-17)
(206.712 -15.2242 0)
(202.085 -14.8525 1.45933e-17)
(197.378 -14.4803 0)
(193.189 -14.2074 -1.56266e-17)
(188.82 -13.8752 0)
(185.022 -13.6616 0)
(180.907 -13.3261 0)
(177.5 -13.1178 0)
(173.579 -12.7345 0)
(170.6 -12.4589 0)
(166.827 -11.988 1.91826e-17)
(164.351 -11.5361 0)
(160.7 -10.9471 0)
(158.83 -10.159 2.11621e-17)
(155.335 -9.42919 0)
(154.21 -8.15754 -2.22594e-17)
(151.013 -6.769 0)
(100.008 0.44545 0)
(100.163 1.37228 0)
(100.521 2.82182 -4.06321e-17)
(101.168 5.28383 3.90188e-17)
(102.266 8.67816 0)
(103.861 12.1903 3.95681e-17)
(105.981 14.9164 4.05547e-17)
(108.522 16.3257 4.1223e-17)
(111.329 16.5439 0)
(114.163 16.1036 0)
(116.956 15.5633 -3.94683e-17)
(119.673 15.1941 -3.81418e-17)
(122.426 14.9978 0)
(125.176 14.9155 0)
(128.032 14.8871 0)
(130.892 14.9203 -3.40026e-17)
(133.904 14.9847 0)
(136.911 15.1107 -7.47653e-22)
(140.127 15.2518 0)
(143.317 15.457 -3.06387e-17)
(146.787 15.6592 7.46623e-22)
(150.195 15.936 0)
(153.977 16.1897 2.81309e-17)
(157.638 16.5382 0)
(161.801 16.8381 2.639e-17)
(165.751 17.2647 2.53896e-17)
(170.383 17.6076 0)
(174.663 18.1247 2.35526e-17)
(179.872 18.5092 0)
(184.529 19.1353 0)
(190.457 19.5609 -2.09759e-17)
(195.54 20.3221 0)
(202.376 20.7915 -1.91105e-17)
(207.944 21.724 0)
(215.935 22.2453 0)
(222.057 23.3937 -1.56669e-17)
(231.538 23.9855 -1.53027e-17)
(238.313 25.4111 0)
(249.746 26.1305 -1.33742e-17)
(257.345 27.9297 2.26439e-17)
(271.399 28.8832 1.14626e-17)
(280.175 31.1431 -9.07385e-18)
(297.823 32.3984 9.6401e-18)
(308.358 35.041 0)
(330.815 36.4398 3.84452e-22)
(343.712 39.0491 -4.55052e-18)
(372.049 40.2053 0)
(387.469 42.2155 0)
(422.414 43.3705 4.64485e-18)
(441.248 43.8831 -6.90318e-19)
(483.732 44.8101 0)
(507.816 37.0944 3.94559e-18)
(548.418 34.2946 -1.29384e-18)
(574.468 -1.24011 5.31083e-19)
(548.621 -16.5029 0)
(540.418 -24.7652 0)
(504.173 -30.1362 -8.68953e-19)
(487.804 -31.0183 -3.0069e-18)
(455.087 -31.7499 0)
(439.837 -29.6865 2.19571e-18)
(413.972 -29.1107 0)
(401.013 -26.954 7.21942e-19)
(380.438 -26.3664 0)
(368.992 -24.5276 2.44809e-18)
(352.335 -24.0345 0)
(342.12 -22.6169 4.04506e-18)
(328.397 -22.3089 5.55209e-18)
(319.107 -21.304 -5.4816e-18)
(307.467 -21.1286 6.65515e-18)
(298.85 -20.4184 0)
(288.688 -20.2967 7.72755e-18)
(280.598 -19.7585 -7.99015e-18)
(271.546 -19.6071 0)
(263.968 -19.1339 0)
(255.84 -18.8918 0)
(248.81 -18.4021 -1.03034e-17)
(241.518 -18.0353 0)
(235.105 -17.4997 0)
(228.61 -17.0373 0)
(222.845 -16.499 0)
(217.075 -16.0179 0)
(211.922 -15.5444 0)
(206.754 -15.1098 0)
(202.126 -14.7409 0)
(197.417 -14.3715 0)
(193.227 -14.1005 2.65729e-22)
(188.857 -13.7709 1.60945e-17)
(185.058 -13.5587 0)
(180.943 -13.2259 0)
(177.536 -13.0189 0)
(173.616 -12.639 0)
(170.638 -12.3647 0)
(166.867 -11.8982 0)
(164.392 -11.4483 0)
(160.746 -10.8649 0)
(158.878 -10.0808 -2.11702e-17)
(155.391 -9.35815 -2.11166e-17)
(154.267 -8.09472 3.78134e-22)
(151.079 -6.71856 0)
(100.008 0.441201 0)
(100.162 1.35965 4.33935e-17)
(100.519 2.79734 0)
(101.164 5.24199 0)
(102.264 8.61469 0)
(103.863 12.1045 3.95337e-17)
(105.989 14.8109 -4.04985e-17)
(108.536 16.207 0)
(111.346 16.4209 0)
(114.182 15.9832 -4.05532e-17)
(116.977 15.4476 3.94356e-17)
(119.697 15.0816 -3.81239e-17)
(122.453 14.8868 0)
(125.206 14.8048 0)
(128.065 14.7763 0)
(130.927 14.8091 3.40043e-17)
(133.941 14.8728 0)
(136.95 14.9977 -3.23202e-17)
(140.167 15.1377 0)
(143.359 15.3412 3.06395e-17)
(146.831 15.5419 5.96751e-17)
(150.241 15.8166 0)
(154.025 16.0684 0)
(157.687 16.4143 0)
(161.852 16.712 0)
(165.804 17.1354 0)
(170.438 17.4759 2.46147e-17)
(174.721 17.9891 -2.35523e-17)
(179.931 18.3709 -2.281e-17)
(184.591 18.9923 -2.16658e-17)
(190.521 19.415 2.09754e-17)
(195.607 20.1705 -1.97271e-17)
(202.445 20.6367 1.91098e-17)
(208.016 21.5621 1.77291e-17)
(216.011 22.08 1.7216e-17)
(222.137 23.2198 1.18701e-21)
(231.622 23.8078 1.53019e-17)
(238.402 25.2227 1.35282e-17)
(249.839 25.9375 1.33727e-17)
(257.446 27.7231 -1.13209e-17)
(271.505 28.6699 -2.41505e-22)
(280.291 30.9121 9.07389e-18)
(297.944 32.1575 -1.92803e-17)
(308.489 34.7786 6.82638e-18)
(330.948 36.1655 7.96973e-18)
(343.853 38.7532 4.55048e-18)
(372.187 39.9001 -6.38103e-18)
(387.615 41.894 0)
(422.551 43.0383 -4.64331e-18)
(441.39 43.5398 -6.92286e-19)
(483.831 44.4491 2.86933e-18)
(507.885 36.7778 -3.95011e-18)
(548.363 33.9788 0)
(574.31 -1.23854 5.30932e-19)
(548.542 -16.3527 0)
(540.386 -24.5504 0)
(504.193 -29.8806 8.69725e-19)
(487.856 -30.7622 0)
(455.159 -31.4944 0)
(439.916 -29.4523 -2.19597e-18)
(414.052 -28.8842 0)
(401.089 -26.7457 -7.21862e-19)
(380.512 -26.1627 0)
(369.062 -24.3385 -4.89513e-18)
(352.404 -23.8492 0)
(342.185 -22.4433 -4.04477e-18)
(328.459 -22.1379 0)
(319.166 -21.1412 0)
(307.523 -20.967 -6.65518e-18)
(298.903 -20.2623 0)
(288.739 -20.1412 -1.54553e-17)
(280.648 -19.607 7.99051e-18)
(271.596 -19.4565 0)
(264.018 -18.987 0)
(255.889 -18.7465 0)
(248.86 -18.2607 1.03035e-17)
(241.568 -17.8968 1.09639e-17)
(235.154 -17.3656 0)
(228.659 -16.9071 0)
(222.893 -16.3733 0)
(217.121 -15.8961 0)
(211.967 -15.4265 1.35667e-17)
(206.797 -14.9952 -1.40817e-17)
(202.167 -14.6292 0)
(197.456 -14.2626 1.50834e-17)
(193.264 -13.9936 3.12565e-17)
(188.893 -13.6664 -1.60958e-17)
(185.094 -13.4558 0)
(180.979 -13.1257 0)
(177.572 -12.92 0)
(173.652 -12.5434 0)
(170.676 -12.2706 0)
(166.907 -11.8084 0)
(164.433 -11.3606 -2.00281e-17)
(160.792 -10.7828 2.01987e-17)
(158.925 -10.0027 0)
(155.446 -9.28719 4.22524e-17)
(154.323 -8.03203 2.22818e-17)
(151.144 -6.66822 0)
(100.007 0.43698 0)
(100.161 1.34708 -8.68407e-17)
(100.516 2.77292 0)
(101.161 5.20015 -3.90484e-17)
(102.262 8.55108 0)
(103.865 12.0185 -3.95016e-17)
(105.997 14.705 0)
(108.549 16.0881 0)
(111.363 16.2977 4.11306e-17)
(114.201 15.8627 8.10039e-17)
(116.999 15.3317 3.9402e-17)
(119.721 14.9689 3.81077e-17)
(122.48 14.7756 -3.69059e-17)
(125.236 14.694 3.58283e-17)
(128.097 14.6655 0)
(130.961 14.6977 0)
(133.977 14.7608 0)
(136.988 14.8846 0)
(140.207 15.0234 3.15173e-17)
(143.401 15.2253 0)
(146.875 15.4245 -2.98378e-17)
(150.286 15.6971 0)
(154.072 15.947 2.81291e-17)
(157.736 16.2903 -2.71782e-17)
(161.903 16.5858 0)
(165.857 17.006 0)
(170.492 17.344 -7.78762e-22)
(174.777 17.8534 2.355e-17)
(179.99 18.2325 2.28096e-17)
(184.652 18.8492 2.16653e-17)
(190.585 19.2689 2.09734e-17)
(195.674 20.0186 1.97265e-17)
(202.515 20.4817 1.91078e-17)
(208.089 21.4001 -1.77284e-17)
(216.086 21.9146 -1.72152e-17)
(222.216 23.0457 1.1775e-21)
(231.705 23.6299 0)
(238.491 25.0341 -2.70537e-17)
(249.932 25.7442 -3.83194e-22)
(257.547 27.5162 0)
(271.611 28.4564 -1.14618e-17)
(280.407 30.6808 -9.07161e-18)
(298.064 31.9163 9.64023e-18)
(308.619 34.5159 -6.82661e-18)
(331.08 35.8909 0)
(343.993 38.4572 -4.54751e-18)
(372.324 39.5947 6.38066e-18)
(387.761 41.5722 0)
(422.688 42.7058 9.28663e-18)
(441.531 43.1964 1.38592e-18)
(483.929 44.0884 -2.87069e-18)
(507.953 36.4619 0)
(548.307 33.664 0)
(574.152 -1.23687 -1.06419e-18)
(548.461 -16.203 -4.99363e-19)
(540.352 -24.3359 0)
(504.211 -29.6253 0)
(487.906 -30.5063 -3.00999e-18)
(455.231 -31.2388 -1.44667e-18)
(439.993 -29.2181 1.09793e-18)
(414.132 -28.6576 0)
(401.165 -26.5374 0)
(380.585 -25.9588 -3.29197e-18)
(369.132 -24.1492 2.44703e-18)
(352.472 -23.6639 0)
(342.25 -22.2696 4.0426e-18)
(328.52 -21.9668 -5.55044e-18)
(319.224 -20.9782 0)
(307.578 -20.8053 0)
(298.956 -20.1061 0)
(288.79 -19.9857 1.54549e-17)
(280.699 -19.4554 0)
(271.646 -19.3059 0)
(264.067 -18.84 -9.15387e-18)
(255.939 -18.6013 -9.8728e-18)
(248.91 -18.1193 -1.03025e-17)
(241.618 -17.7584 -1.09638e-17)
(235.204 -17.2315 0)
(228.708 -16.7768 -1.2036e-17)
(222.941 -16.2474 0)
(217.167 -15.7742 0)
(212.011 -15.3084 -2.71334e-17)
(206.839 -14.8806 1.7672e-22)
(202.208 -14.5174 -1.45941e-17)
(197.495 -14.1536 -1.50842e-17)
(193.302 -13.8866 -1.56292e-17)
(188.929 -13.562 0)
(185.13 -13.3528 1.66854e-17)
(181.014 -13.0254 0)
(177.608 -12.8211 -1.77696e-17)
(173.689 -12.4478 -1.81582e-17)
(170.713 -12.1764 -1.88842e-17)
(166.946 -11.7186 0)
(164.474 -11.2729 1.38379e-22)
(160.837 -10.7008 -2.96427e-22)
(158.972 -9.92476 0)
(155.501 -9.21633 -4.22715e-17)
(154.378 -7.96945 -2.22924e-17)
(151.21 -6.61797 0)
(100.007 0.432787 0)
(100.16 1.33457 8.6893e-17)
(100.514 2.74857 0)
(101.158 5.1583 3.90655e-17)
(102.26 8.48735 3.88486e-17)
(103.868 11.9323 -3.94679e-17)
(106.005 14.5989 0)
(108.563 15.969 0)
(111.38 16.1744 -8.21747e-22)
(114.22 15.7421 -4.04515e-17)
(117.02 15.2157 -7.221e-22)
(119.745 14.8561 -3.80904e-17)
(122.507 14.6642 7.37994e-17)
(125.265 14.583 -3.58275e-17)
(128.129 14.5545 0)
(130.995 14.5863 -3.40055e-17)
(134.013 14.6486 0)
(137.026 14.7713 0)
(140.247 14.909 -6.3036e-17)
(143.443 15.1093 -3.06389e-17)
(146.918 15.3069 0)
(150.331 15.5774 0)
(154.119 15.8255 -2.81293e-17)
(157.784 16.1661 2.71783e-17)
(161.954 16.4595 0)
(165.909 16.8764 0)
(170.547 17.212 -2.46135e-17)
(174.834 17.7175 -9.72398e-22)
(180.049 18.0939 0)
(184.713 18.7059 2.16629e-17)
(190.649 19.1227 -2.0973e-17)
(195.74 19.8666 0)
(202.584 20.3265 -3.82138e-17)
(208.161 21.2378 -1.77255e-17)
(216.162 21.7489 -1.72132e-17)
(222.295 22.8714 1.16801e-21)
(231.788 23.4518 -1.52986e-17)
(238.579 24.8452 1.35255e-17)
(250.025 25.5508 -1.33709e-17)
(257.647 27.309 1.13166e-17)
(271.716 28.2425 0)
(280.521 30.4492 9.07167e-18)
(298.184 31.6749 9.64005e-18)
(308.748 34.2529 0)
(331.211 35.6161 0)
(344.132 38.1609 9.09353e-18)
(372.46 39.2891 0)
(387.905 41.2502 0)
(422.824 42.3733 -4.64334e-18)
(441.671 42.853 -6.93631e-19)
(484.026 43.7279 0)
(508.02 36.1465 0)
(548.251 33.3502 0)
(573.994 -1.2351 5.33283e-19)
(548.38 -16.0538 7.52763e-19)
(540.316 -24.1218 0)
(504.227 -29.3702 -8.72411e-19)
(487.954 -30.2506 3.01053e-18)
(455.301 -30.9833 1.44649e-18)
(440.07 -28.9839 0)
(414.211 -28.431 0)
(401.24 -26.3289 0)
(380.658 -25.7548 -2.33739e-22)
(369.202 -23.9599 0)
(352.539 -23.4785 4.41828e-18)
(342.315 -22.0958 -8.08365e-18)
(328.582 -21.7955 5.55013e-18)
(319.282 -20.8152 -5.47725e-18)
(307.634 -20.6435 -6.65382e-18)
(299.01 -19.9499 -6.77811e-18)
(288.841 -19.83 -1.54546e-17)
(280.749 -19.3038 0)
(271.695 -19.1552 0)
(264.117 -18.6929 1.83076e-17)
(255.989 -18.456 9.87297e-18)
(248.96 -17.9779 2.06046e-17)
(241.668 -17.6198 1.09632e-17)
(235.253 -17.0974 0)
(228.756 -16.6465 1.20357e-17)
(222.989 -16.1215 -1.25187e-17)
(217.213 -15.6522 1.3073e-17)
(212.055 -15.1903 1.35667e-17)
(206.881 -14.7659 1.4082e-17)
(202.248 -14.4056 2.91891e-17)
(197.533 -14.0446 1.50844e-17)
(193.34 -13.7796 0)
(188.966 -13.4575 -1.6097e-17)
(185.166 -13.2498 -1.6687e-17)
(181.05 -12.9252 -1.71241e-17)
(177.644 -12.7222 3.55434e-17)
(173.725 -12.3523 3.63212e-17)
(170.751 -12.0823 1.88877e-17)
(166.986 -11.6289 1.91968e-17)
(164.515 -11.1853 4.00771e-17)
(160.883 -10.6188 -2.02111e-17)
(159.019 -9.84689 -2.11938e-17)
(155.555 -9.14555 2.11452e-17)
(154.434 -7.90699 2.23036e-17)
(151.274 -6.56782 2.21556e-17)
(100.007 0.428619 0)
(100.159 1.32212 -8.69454e-17)
(100.512 2.72427 0)
(101.155 5.11645 0)
(102.259 8.4235 -3.88438e-17)
(103.87 11.8458 3.94366e-17)
(106.013 14.4925 0)
(108.576 15.8496 0)
(111.396 16.051 -4.10021e-17)
(114.239 15.6213 0)
(117.041 15.0996 -7.86759e-17)
(119.769 14.7431 3.80747e-17)
(122.534 14.5527 -3.68936e-17)
(125.295 14.4719 3.58253e-17)
(128.161 14.4433 0)
(131.029 14.4746 6.80138e-17)
(134.049 14.5364 0)
(137.064 14.658 -3.23214e-17)
(140.287 14.7945 6.98812e-22)
(143.484 14.9932 3.06397e-17)
(146.962 15.1893 0)
(150.376 15.4576 2.89269e-17)
(154.166 15.7038 2.81281e-17)
(157.832 16.0418 0)
(162.004 16.333 0)
(165.961 16.7467 2.53845e-17)
(170.601 17.0799 0)
(174.89 17.5815 -2.35485e-17)
(180.108 17.9552 0)
(184.774 18.5625 -2.16625e-17)
(190.712 18.9763 0)
(195.806 19.7145 0)
(202.652 20.1712 1.9106e-17)
(208.233 21.0755 1.77249e-17)
(216.236 21.5831 3.44244e-17)
(222.374 22.6969 1.56603e-17)
(231.871 23.2735 1.52978e-17)
(238.667 24.6562 0)
(250.117 25.357 0)
(257.747 27.1016 -1.17066e-21)
(271.821 28.0283 0)
(280.635 30.2173 9.06945e-18)
(298.302 31.4331 -1.92803e-17)
(308.877 33.9896 0)
(331.341 35.341 0)
(344.27 37.8644 -1.44166e-21)
(372.596 38.9832 0)
(388.048 40.9279 0)
(422.958 42.0405 4.64191e-18)
(441.809 42.5096 -6.9554e-19)
(484.122 43.3675 2.87243e-18)
(508.086 35.8318 0)
(548.195 33.0375 -1.31278e-18)
(573.837 -1.23322 0)
(548.297 -15.9052 -2.52832e-19)
(540.279 -23.9081 -5.82482e-18)
(504.241 -29.1155 1.7466e-18)
(488.001 -29.995 0)
(455.369 -30.7278 0)
(440.146 -28.7496 -1.09832e-18)
(414.289 -28.2042 2.27075e-18)
(401.314 -26.1202 0)
(380.73 -25.5507 3.29171e-18)
(369.271 -23.7704 0)
(352.607 -23.2929 -8.83577e-18)
(342.379 -21.9219 9.17484e-22)
(328.643 -21.6242 5.54912e-18)
(319.341 -20.6521 9.66488e-22)
(307.689 -20.4817 6.65383e-18)
(299.063 -19.7936 1.35557e-17)
(288.893 -19.6743 7.72737e-18)
(280.799 -19.1522 0)
(271.745 -19.0045 8.79511e-18)
(264.166 -18.5458 -9.15375e-18)
(256.038 -18.3107 -9.87241e-18)
(249.01 -17.8364 -1.03021e-17)
(241.717 -17.4813 -1.09631e-17)
(235.303 -16.9632 0)
(228.805 -16.5161 -1.20353e-17)
(223.036 -15.9956 2.50368e-17)
(217.259 -15.5302 -1.30728e-17)
(212.1 -15.0721 -1.35665e-17)
(206.923 -14.6512 -1.4082e-17)
(202.289 -14.2937 -1.4595e-17)
(197.572 -13.9355 -3.01699e-17)
(193.377 -13.6725 0)
(189.002 -13.3529 1.60982e-17)
(185.202 -13.1468 -1.66879e-17)
(181.085 -12.8249 4.9203e-22)
(177.68 -12.6232 -3.55474e-17)
(173.762 -12.2567 -1.8163e-17)
(170.788 -11.9882 -1.88907e-17)
(167.025 -11.5391 -3.84014e-17)
(164.556 -11.0977 -1.43137e-22)
(160.928 -10.5369 0)
(159.066 -9.76912 2.12018e-17)
(155.609 -9.07486 0)
(154.489 -7.84464 -2.23141e-17)
(151.339 -6.51775 -2.21656e-17)
(100.007 0.424476 0)
(100.158 1.30973 4.34998e-17)
(100.509 2.70004 0)
(101.152 5.07459 0)
(102.257 8.35953 0)
(103.872 11.7591 3.94036e-17)
(106.021 14.3859 -4.02746e-17)
(108.589 15.73 4.08823e-17)
(111.413 15.9274 4.09379e-17)
(114.258 15.5005 0)
(117.062 14.9833 3.93069e-17)
(119.793 14.63 0)
(122.561 14.4411 0)
(125.324 14.3607 -3.58245e-17)
(128.192 14.3321 0)
(131.063 14.3629 -3.40082e-17)
(134.085 14.424 0)
(137.102 14.5445 7.18379e-22)
(140.326 14.6799 3.15192e-17)
(143.525 14.8769 0)
(147.005 15.0715 2.98367e-17)
(150.42 15.3377 -2.89273e-17)
(154.212 15.5821 -7.39817e-22)
(157.881 15.9174 0)
(162.054 16.2064 0)
(166.013 16.6169 -9.04994e-22)
(170.655 16.9477 -2.46109e-17)
(174.946 17.4453 0)
(180.166 17.8163 2.28055e-17)
(184.834 18.4189 0)
(190.775 18.8297 0)
(195.871 19.5622 0)
(202.721 20.0156 1.91041e-17)
(208.304 20.9129 0)
(216.311 21.4171 -1.72112e-17)
(222.453 22.5222 0)
(231.953 23.095 0)
(238.754 24.4669 -1.35206e-17)
(250.209 25.163 -1.33686e-17)
(257.846 26.8939 -1.13148e-17)
(271.925 27.8139 1.14603e-17)
(280.749 29.9851 -9.06955e-18)
(298.421 31.1911 1.84074e-22)
(309.005 33.7261 0)
(331.47 35.0656 0)
(344.408 37.5676 -1.4304e-21)
(372.73 38.6772 0)
(388.191 40.6055 0)
(423.092 41.7075 -4.64246e-18)
(441.947 42.1661 6.95794e-19)
(484.217 43.0074 -3.18472e-22)
(508.151 35.5176 0)
(548.138 32.7258 -1.62129e-21)
(573.681 -1.23123 5.34085e-19)
(548.214 -15.757 -2.57317e-19)
(540.24 -23.6947 5.83383e-18)
(504.254 -28.861 4.21052e-22)
(488.047 -29.7395 0)
(455.437 -30.4723 0)
(440.221 -28.5152 1.09802e-18)
(414.367 -27.9773 5.17696e-22)
(401.388 -25.9115 0)
(380.801 -25.3465 0)
(369.34 -23.5809 0)
(352.674 -23.1073 8.83486e-18)
(342.443 -21.7479 9.09865e-22)
(328.705 -21.4528 -5.54879e-18)
(319.399 -20.4889 5.47598e-18)
(307.744 -20.3198 0)
(299.115 -19.6372 -6.77754e-18)
(288.944 -19.5186 7.72672e-18)
(280.849 -19.0005 7.9878e-18)
(271.794 -18.8537 -4.57215e-22)
(264.216 -18.3987 0)
(256.087 -18.1653 9.87257e-18)
(249.059 -17.6949 0)
(241.766 -17.3427 0)
(235.352 -16.829 0)
(228.853 -16.3856 2.407e-17)
(223.083 -15.8695 -1.25181e-17)
(217.304 -15.4081 0)
(212.144 -14.9539 2.71329e-17)
(206.965 -14.5364 1.74843e-22)
(202.329 -14.1817 0)
(197.611 -13.8263 1.50856e-17)
(193.415 -13.5653 0)
(189.038 -13.2483 -1.60986e-17)
(185.238 -13.0437 2.84943e-22)
(181.12 -12.7246 4.89021e-22)
(177.715 -12.5243 3.55513e-17)
(173.798 -12.1611 0)
(170.825 -11.8941 1.95089e-22)
(167.065 -11.4494 3.84086e-17)
(164.596 -11.0102 -4.00978e-17)
(160.973 -10.455 -2.02229e-17)
(159.112 -9.69144 0)
(155.663 -9.00425 0)
(154.543 -7.7824 3.86439e-22)
(151.402 -6.46777 0)
(100.007 0.420359 0)
(100.157 1.2974 -4.35245e-17)
(100.507 2.67586 0)
(101.149 5.03273 0)
(102.255 8.29545 0)
(103.874 11.6722 -9.81591e-22)
(106.029 14.279 4.02211e-17)
(108.602 15.6102 -4.08175e-17)
(111.429 15.8036 -7.98646e-22)
(114.276 15.3795 4.03027e-17)
(117.083 14.8669 0)
(119.816 14.5168 0)
(122.587 14.3293 0)
(125.353 14.2493 0)
(128.223 14.2207 0)
(131.096 14.251 -3.40086e-17)
(134.121 14.3115 -3.31865e-17)
(137.139 14.4309 7.12563e-22)
(140.366 14.5652 -3.15189e-17)
(143.566 14.7606 3.06392e-17)
(147.047 14.9536 -2.98373e-17)
(150.465 15.2177 -2.89262e-17)
(154.258 15.4602 -7.33887e-22)
(157.928 15.7929 0)
(162.104 16.0797 2.63846e-17)
(166.065 16.487 -2.53835e-17)
(170.708 16.8153 4.92207e-17)
(175.001 17.309 -2.35452e-17)
(180.224 17.6773 -4.56098e-17)
(184.894 18.2751 0)
(190.838 18.683 2.09687e-17)
(195.936 19.4097 0)
(202.789 19.86 -3.82065e-17)
(208.375 20.7502 1.77204e-17)
(216.385 21.2509 -1.72093e-17)
(222.531 22.3473 -1.56554e-17)
(232.034 22.9162 0)
(238.841 24.2773 2.70387e-17)
(250.3 24.9688 1.3368e-17)
(257.944 26.6859 1.13121e-17)
(272.029 27.5992 -1.14601e-17)
(280.861 29.7527 0)
(298.538 30.9487 9.64033e-18)
(309.132 33.4623 0)
(331.599 34.79 -7.96791e-18)
(344.544 37.2705 -4.54319e-18)
(372.864 38.3708 0)
(388.332 40.2828 0)
(423.225 41.3744 0)
(442.083 41.8226 0)
(484.311 42.6476 -3.11592e-22)
(508.215 35.204 0)
(548.081 32.4152 1.31988e-18)
(573.524 -1.22913 -8.24549e-22)
(548.129 -15.6093 -1.9032e-21)
(540.2 -23.4817 0)
(504.265 -28.6068 -8.75172e-19)
(488.091 -29.4842 0)
(455.503 -30.2169 1.44792e-18)
(440.295 -28.2808 1.09828e-18)
(414.444 -27.7503 -2.27016e-18)
(401.461 -25.7026 -7.18291e-19)
(380.873 -25.1422 0)
(369.409 -23.3912 -2.44265e-18)
(352.741 -22.9216 -4.41701e-18)
(342.507 -21.5738 4.03856e-18)
(328.766 -21.2813 0)
(319.456 -20.3256 0)
(307.799 -20.1578 0)
(299.168 -19.4807 0)
(288.994 -19.3628 -1.54536e-17)
(280.899 -18.8487 -7.98816e-18)
(271.843 -18.703 -1.75902e-17)
(264.265 -18.2516 -9.15231e-18)
(256.136 -18.0199 0)
(249.109 -17.5533 0)
(241.816 -17.204 1.09622e-17)
(235.401 -16.6947 1.14301e-17)
(228.901 -16.2551 -1.20347e-17)
(223.131 -15.7435 0)
(217.35 -15.2859 0)
(212.188 -14.8355 -1.35664e-17)
(207.007 -14.4214 1.40823e-17)
(202.37 -14.0697 0)
(197.649 -13.7171 0)
(193.452 -13.4581 1.5632e-17)
(189.074 -13.1437 3.21994e-17)
(185.274 -12.9406 2.83604e-22)
(181.156 -12.6243 1.71285e-17)
(177.751 -12.4253 -1.77778e-17)
(173.834 -12.0655 0)
(170.862 -11.8001 1.88974e-17)
(167.104 -11.3597 -1.92082e-17)
(164.637 -10.9228 1.47722e-22)
(161.018 -10.3731 2.02292e-17)
(159.158 -9.61386 0)
(155.717 -8.93372 -2.11735e-17)
(154.598 -7.72026 2.2336e-17)
(151.466 -6.41788 0)
(100.007 0.416265 -4.60168e-17)
(100.156 1.28512 4.35525e-17)
(100.505 2.65174 0)
(101.146 4.99087 3.91311e-17)
(102.253 8.23125 0)
(103.876 11.585 -9.72412e-22)
(106.037 14.1719 4.01665e-17)
(108.615 15.4902 0)
(111.446 15.6797 -4.08148e-17)
(114.295 15.2584 -7.37443e-22)
(117.104 14.7503 0)
(119.84 14.4034 0)
(122.613 14.2174 0)
(125.382 14.1377 0)
(128.255 14.1092 0)
(131.129 14.139 6.80199e-17)
(134.156 14.1989 3.31882e-17)
(137.176 14.3172 6.46477e-17)
(140.405 14.4503 3.15201e-17)
(143.607 14.6441 -3.064e-17)
(147.09 14.8356 2.98366e-17)
(150.509 15.0975 2.89266e-17)
(154.304 15.3381 -2.81275e-17)
(157.976 15.6682 2.71746e-17)
(162.153 15.9528 -2.63847e-17)
(166.116 16.3569 -2.53816e-17)
(170.762 16.6827 -2.46098e-17)
(175.056 17.1726 2.3545e-17)
(180.281 17.5381 2.28042e-17)
(184.954 18.1312 0)
(190.9 18.5361 -7.14593e-22)
(196.001 19.2571 0)
(202.856 19.7041 1.91024e-17)
(208.446 20.5872 -3.54386e-17)
(216.459 21.0845 1.72087e-17)
(222.608 22.1723 3.13083e-17)
(232.115 22.7373 1.52935e-17)
(238.927 24.0876 -1.35181e-17)
(250.391 24.7743 1.33667e-17)
(258.042 26.4777 -1.14239e-21)
(272.132 27.3842 0)
(280.974 29.5199 0)
(298.655 30.7061 9.64021e-18)
(309.258 33.1982 0)
(331.727 34.5141 7.96805e-18)
(344.68 36.9733 0)
(372.997 38.0643 0)
(388.473 39.9599 0)
(423.357 41.0411 0)
(442.218 41.4792 0)
(484.404 42.2879 -2.87594e-18)
(508.278 34.891 0)
(548.024 32.1055 0)
(573.369 -1.22691 -5.36689e-19)
(548.043 -15.4621 2.60555e-19)
(540.158 -23.2691 0)
(504.274 -28.3529 0)
(488.134 -29.2291 3.01368e-18)
(455.568 -29.9616 -1.44752e-18)
(440.368 -28.0464 -1.09792e-18)
(414.52 -27.5232 2.27058e-18)
(401.534 -25.4937 4.93392e-22)
(380.943 -24.9378 3.29174e-18)
(369.477 -23.2015 2.44245e-18)
(352.807 -22.7358 0)
(342.571 -21.3997 -4.03643e-18)
(328.827 -21.1097 0)
(319.514 -20.1622 0)
(307.854 -19.9957 0)
(299.221 -19.3242 -6.77517e-18)
(289.045 -19.2069 1.54533e-17)
(280.949 -18.6969 -7.98691e-18)
(271.892 -18.5521 4.50367e-22)
(264.314 -18.1044 9.15258e-18)
(256.185 -17.8745 -9.87182e-18)
(249.158 -17.4117 0)
(241.865 -17.0653 -2.19239e-17)
(235.45 -16.5603 -1.14299e-17)
(228.949 -16.1246 1.20343e-17)
(223.178 -15.6173 1.25173e-17)
(217.395 -15.1636 0)
(212.232 -14.7171 0)
(207.049 -14.3065 -1.40822e-17)
(202.41 -13.9576 0)
(197.687 -13.6078 1.50862e-17)
(193.489 -13.3508 -1.5633e-17)
(189.11 -13.039 -1.61007e-17)
(185.309 -12.8375 3.33836e-17)
(181.191 -12.5239 -1.71293e-17)
(177.786 -12.3263 0)
(173.87 -11.9699 -1.81689e-17)
(170.899 -11.706 -1.89004e-17)
(167.143 -11.27 0)
(164.677 -10.8354 2.00592e-17)
(161.063 -10.2914 0)
(159.204 -9.53638 2.1225e-17)
(155.77 -8.86327 2.11829e-17)
(154.652 -7.65824 -2.23463e-17)
(151.529 -6.36807 2.21973e-17)
(100.007 0.412196 4.6031e-17)
(100.156 1.2729 0)
(100.503 2.62768 0)
(101.143 4.949 -7.82984e-17)
(102.252 8.16694 0)
(103.878 11.4976 -7.8621e-17)
(106.045 14.0644 -4.01142e-17)
(108.628 15.37 0)
(111.462 15.5557 0)