/*--------------------------------*- C++ -*----------------------------------*\
| =========                 |                                                 |
| \\      /  F ield         | OpenFOAM: The Open Source CFD Toolbox           |
|  \\    /   O peration     | Version:  2412                                  |
|   \\  /    A nd           | Website:  www.openfoam.com                      |
|    \\/     M anipulation  |                                                 |
\*---------------------------------------------------------------------------*/
FoamFile
{
    version     2.0;
    format      ascii;
    arch        "LSB;label=32;scalar=64";
    class       volScalarField;
    location    "0.6";
    object      epsilon;
}
// * * * * * * * * * * * * * * * * * * * * * * * * * * * * * * * * * * * * * //

dimensions      [0 2 -3 0 0 0 0];

internalField   nonuniform List<scalar> 
13156
(
4.35938e+06
4.76354e+06
3.58397e+06
2.89076e+06
2.59403e+06
2.46919e+06
2.42632e+06
2.42874e+06
2.46065e+06
2.50961e+06
2.56777e+06
2.62743e+06
2.68674e+06
2.74389e+06
2.80224e+06
2.86223e+06
2.93037e+06
3.00499e+06
3.09295e+06
3.18988e+06
3.30495e+06
3.43002e+06
3.58124e+06
3.74297e+06
3.94158e+06
4.15158e+06
4.41623e+06
4.69108e+06
5.05136e+06
5.41454e+06
5.91018e+06
6.39708e+06
7.0879e+06
7.7544e+06
8.74436e+06
9.66665e+06
1.11295e+07
1.24192e+07
1.46522e+07
1.64863e+07
2.00378e+07
2.26768e+07
2.85662e+07
3.2309e+07
4.2428e+07
4.75188e+07
6.58823e+07
7.43529e+07
1.11891e+08
1.29805e+08
2.15975e+08
2.54693e+08
6.64823e+08
7.62418e+08
4.5537e+08
2.85404e+08
2.06775e+08
1.60414e+08
1.303e+08
1.08127e+08
9.16285e+07
7.79631e+07
6.73657e+07
5.81259e+07
5.08659e+07
4.44324e+07
3.94016e+07
3.49997e+07
3.16167e+07
2.86197e+07
2.61826e+07
2.38325e+07
2.16941e+07
1.95913e+07
1.76618e+07
1.5874e+07
1.42928e+07
1.28979e+07
1.16866e+07
1.06336e+07
9.71822e+06
8.93148e+06
8.25796e+06
7.71915e+06
7.31597e+06
7.08188e+06
6.95886e+06
6.90759e+06
6.8009e+06
6.65614e+06
6.40072e+06
6.14249e+06
5.80186e+06
5.52259e+06
5.16579e+06
4.92418e+06
4.57192e+06
4.39296e+06
4.05888e+06
1.69725e+07
9.53969e+06
3.54199e+06
1.62444e+06
968270
728899
649764
644151
673307
721986
778245
838156
895831
951063
999865
1.04485e+06
1.0825e+06
1.11991e+06
1.15272e+06
1.19091e+06
1.22672e+06
1.27347e+06
1.31675e+06
1.3782e+06
1.43312e+06
1.51554e+06
1.58586e+06
1.69834e+06
1.78765e+06
1.94476e+06
2.06301e+06
2.2854e+06
2.45223e+06
2.77322e+06
3.00348e+06
3.47741e+06
3.7948e+06
4.5197e+06
4.96106e+06
6.10747e+06
6.72931e+06
8.61767e+06
9.51356e+06
1.27657e+07
1.40897e+07
1.98998e+07
2.21753e+07
3.30202e+07
3.76872e+07
5.75597e+07
6.77131e+07
1.00351e+08
1.33291e+08
3.53685e+08
3.19454e+08
1.92722e+08
1.13666e+08
8.26761e+07
6.1838e+07
5.13357e+07
4.14174e+07
3.57559e+07
2.98242e+07
2.60392e+07
2.21636e+07
1.94999e+07
1.6933e+07
1.50989e+07
1.34608e+07
1.22167e+07
1.11271e+07
1.01337e+07
9.21498e+06
8.31827e+06
7.47916e+06
6.70766e+06
6.02437e+06
5.4282e+06
4.91513e+06
4.47449e+06
4.09603e+06
3.77195e+06
3.499e+06
3.27984e+06
3.12148e+06
3.02525e+06
2.97292e+06
2.9305e+06
2.86667e+06
2.77038e+06
2.64616e+06
2.50648e+06
2.36235e+06
2.21959e+06
2.09518e+06
1.96236e+06
1.87526e+06
1.75058e+06
1.69525e+06
2.1437e+06
2.49947e+06
1.21981e+06
659134
411084
299005
251544
238108
243047
259233
281513
307668
335238
363627
391143
418040
442699
466648
488420
510793
531881
555652
578623
606804
634367
670224
705087
752580
797629
862086
921252
1.01096e+06
1.09058e+06
1.21878e+06
1.32665e+06
1.51493e+06
1.66147e+06
1.94686e+06
2.148e+06
2.59623e+06
2.87507e+06
3.61096e+06
4.00782e+06
5.28717e+06
5.8901e+06
8.28488e+06
9.4897e+06
1.44272e+07
1.67298e+07
2.55646e+07
2.86044e+07
4.33647e+07
4.16678e+07
1.17986e+08
1.85265e+08
1.36259e+08
8.5647e+07
5.88423e+07
4.38775e+07
3.48851e+07
2.8403e+07
2.39665e+07
2.02663e+07
1.7485e+07
1.50589e+07
1.31644e+07
1.1538e+07
1.02695e+07
9.22724e+06
8.39043e+06
7.67284e+06
6.99472e+06
6.3402e+06
5.6946e+06
5.08193e+06
4.52107e+06
4.0253e+06
3.59763e+06
3.23338e+06
2.92543e+06
2.66512e+06
2.44582e+06
2.26504e+06
2.12307e+06
2.02547e+06
1.9695e+06
1.94205e+06
1.91472e+06
1.87057e+06
1.79922e+06
1.71147e+06
1.61001e+06
1.51086e+06
1.40883e+06
1.32112e+06
1.22976e+06
1.16259e+06
1.08169e+06
1.02997e+06
272063
522714
374415
274958
210489
170832
148862
139381
138174
142727
150849
161455
173399
186376
199626
213249
226416
239742
252262
265225
277422
290883
303607
318911
333436
352339
370155
394955
417649
451466
480850
528230
566792
634429
685792
785122
853318
1.00369e+06
1.09423e+06
1.32972e+06
1.44985e+06
1.83506e+06
1.99854e+06
2.67055e+06
2.92315e+06
4.23305e+06
4.86275e+06
7.79348e+06
8.94521e+06
1.39324e+07
1.48871e+07
2.29138e+07
1.9596e+07
4.85405e+07
1.11136e+08
1.04925e+08
7.18108e+07
4.90791e+07
3.6367e+07
2.8296e+07
2.29959e+07
1.91943e+07
1.62974e+07
1.40072e+07
1.21292e+07
1.05959e+07
9.33699e+06
8.32513e+06
7.51989e+06
6.85751e+06
6.28561e+06
5.73108e+06
5.18012e+06
4.63158e+06
4.10782e+06
3.62957e+06
3.20801e+06
2.84679e+06
2.54129e+06
2.28548e+06
2.07155e+06
1.89349e+06
1.74881e+06
1.63722e+06
1.56283e+06
1.522e+06
1.50299e+06
1.48179e+06
1.44608e+06
1.38777e+06
1.31693e+06
1.23487e+06
1.15534e+06
1.07328e+06
1.00209e+06
929073
872338
808674
763543
60998.1
139814
145740
142685
132240
119950
110007
104007
101721
102561
105591
110225
115819
122157
128829
135876
142883
150160
157165
164515
171478
179117
186244
194731
202569
212820
222151
235522
247225
265669
280731
307028
326600
364702
390672
447236
481150
567632
611181
747531
802255
1.02626e+06
1.0959e+06
1.49026e+06
1.60034e+06
2.40439e+06
2.75762e+06
4.65573e+06
5.30034e+06
8.39699e+06
8.91531e+06
1.37006e+07
1.21257e+07
2.48215e+07
6.69256e+07
8.15705e+07
6.18015e+07
4.33102e+07
3.21207e+07
2.47668e+07
2.00599e+07
1.6655e+07
1.41577e+07
1.21581e+07
1.05615e+07
9.23745e+06
8.17129e+06
7.30525e+06
6.62465e+06
6.05625e+06
5.55771e+06
5.06423e+06
4.56466e+06
4.06461e+06
3.58645e+06
3.15112e+06
2.76871e+06
2.44261e+06
2.16823e+06
1.93994e+06
1.75037e+06
1.59392e+06
1.46797e+06
1.37203e+06
1.30907e+06
1.27513e+06
1.25916e+06
1.24054e+06
1.20931e+06
1.15919e+06
1.09865e+06
1.02884e+06
960939
891120
829759
767547
717450
663441
623186
25153.8
62553.8
80573.2
91024.8
94272.6
92474.7
88797.6
85555.2
83686.4
83449.9
84566.4
86767.8
89679.7
93146.5
96910.1
100970
105081
109407
113623
118052
122248
126786
130957
135830
140216
145911
150936
158260
164436
174595
182511
197225
207451
229199
242902
275664
293440
344307
366604
447871
474527
609561
641066
882520
934976
1.45107e+06
1.66801e+06
2.92388e+06
3.39152e+06
5.44337e+06
5.97132e+06
9.12008e+06
8.82616e+06
1.55186e+07
4.11551e+07
6.28723e+07
5.31115e+07
3.89043e+07
2.91398e+07
2.24643e+07
1.8165e+07
1.50543e+07
1.28067e+07
1.10057e+07
9.58457e+06
8.40009e+06
7.45499e+06
6.6843e+06
6.08061e+06
5.56964e+06
5.11276e+06
4.65273e+06
4.18146e+06
3.70894e+06
3.25778e+06
2.84859e+06
2.49054e+06
2.18649e+06
1.93176e+06
1.72078e+06
1.54649e+06
1.40351e+06
1.28913e+06
1.20272e+06
1.14638e+06
1.11598e+06
1.10102e+06
1.08362e+06
1.05534e+06
1.0111e+06
957892
896806
836989
775672
721079
666199
620804
573192
536506
15790.5
39704.3
55111.8
66291.5
72911.7
75251.6
74899.3
73618.5
72494.3
72097.4
72493.9
73626.7
75296.6
77406
79781.1
82401.9
85101.5
87959.8
90759.4
93673.2
96409.7
99297.4
101894
104839
107405
110687
113478
117597
120938
126654
130922
139304
144821
157424
164930
184175
193933
224216
236313
285335
299301
381884
397488
548138
577234
914208
1.06924e+06
1.91925e+06
2.34564e+06
3.80339e+06
4.38795e+06
6.66922e+06
7.08962e+06
1.12862e+07
2.66906e+07
4.81202e+07
4.51867e+07
3.50132e+07
2.67028e+07
2.07253e+07
1.67779e+07
1.39174e+07
1.18551e+07
1.02063e+07
8.91056e+06
7.82923e+06
6.96986e+06
6.26773e+06
5.71642e+06
5.24323e+06
4.81121e+06
4.37013e+06
3.91512e+06
3.45951e+06
3.026e+06
2.63465e+06
2.29366e+06
2.00526e+06
1.76454e+06
1.56592e+06
1.40247e+06
1.26899e+06
1.16268e+06
1.08282e+06
1.0308e+06
1.00241e+06
987745
971114
945150
905570
858074
803699
750010
695065
645542
596063
554280
511276
477317
11921
29830.9
42342.7
52336.1
59529.6
63496.3
64924.7
64972.5
64564.8
64332.7
64510.3
65172.7
66239.6
67664.1
69328.6
71206.7
73170.9
75253.3
77290
79373.3
81297
83260
84969.7
86835.4
88387.3
90333
91903
94266.1
96083.6
99369
101700
106597
109657
117152
121415
133019
138635
157072
164047
194146
202116
253358
262238
357593
377823
601216
733804
1.33817e+06
1.75369e+06
2.86237e+06
3.4705e+06
5.25902e+06
6.06447e+06
9.05665e+06
1.86531e+07
3.68672e+07
3.80346e+07
3.13725e+07
2.45201e+07
1.92674e+07
1.56621e+07
1.30342e+07
1.1128e+07
9.60606e+06
8.40941e+06
7.41045e+06
6.61718e+06
5.96779e+06
5.4545e+06
5.00719e+06
4.59e+06
4.15944e+06
3.7138e+06
3.26924e+06
2.84831e+06
2.47035e+06
2.1425e+06
1.86632e+06
1.6366e+06
1.44767e+06
1.29268e+06
1.16654e+06
1.06642e+06
991478
942594
915537
900991
885075
861183
825530
782730
733757
684966
635034
589513
544225
505343
465853
434059
9898.36
24457
34788.5
43490.1
50439.7
54988.7
57369.5
58297.9
58485.9
58520.5
58703.1
59185.5
59967.1
61042.3
62333.1
63812.9
65376.7
67026.9
68629
70228.7
71670.5
73081.1
74257.7
75478.2
76426
77584.8
78441.3
79787.2
80733.3
82626.9
83867.5
86780.6
88481
93066.2
95546.5
102781
106154
117757
122031
141065
146044
178639
184598
246342
263754
417326
543004
1.00194e+06
1.40468e+06
2.29841e+06
2.9032e+06
4.39225e+06
5.41034e+06
7.73786e+06
1.40679e+07
2.85362e+07
3.17718e+07
2.79379e+07
2.24793e+07
1.79614e+07
1.47024e+07
1.23004e+07
1.05365e+07
9.12705e+06
8.01454e+06
7.08519e+06
6.34609e+06
5.7393e+06
5.25478e+06
4.8255e+06
4.41671e+06
3.99144e+06
3.55108e+06
3.11424e+06
2.70304e+06
2.336e+06
2.01912e+06
1.75326e+06
1.53284e+06
1.35206e+06
1.20416e+06
1.08413e+06
989092
918138
871748
845748
831415
816334
794421
762197
723380
678885
634130
588271
546016
504098
467605
430910
400891
8650.98
21047.5
29788.4
37396.8
43881.3
48555.3
51431.6
52935.4
53590.5
53904.3
54191.6
54643.7
55311.6
56220.6
57321.7
58590
59934
61337.2
62682
63986.3
65126.6
66187.9
67024
67834.7
68398.8
69064.8
69476.4
70196.9
70611
71662.7
72249.9
73977.2
74876.6
77735.9
79179.9
83835
85921.9
93498.4
96255.4
108751
112126
133606
138203
179674
196522
308772
431329
802812
1.18938e+06
1.94402e+06
2.53289e+06
3.82689e+06
4.96951e+06
6.88999e+06
1.13197e+07
2.24898e+07
2.64754e+07
2.47431e+07
2.05476e+07
1.67486e+07
1.38396e+07
1.16604e+07
1.00319e+07
8.72619e+06
7.68869e+06
6.82068e+06
6.12793e+06
5.55676e+06
5.09461e+06
4.67785e+06
4.27311e+06
3.84982e+06
3.4123e+06
2.98128e+06
2.57828e+06
2.22081e+06
1.9137e+06
1.65706e+06
1.44494e+06
1.27144e+06
1.12979e+06
1.0151e+06
924478
856954
812717
787721
773807
759732
739754
710581
675202
634486
593125
550647
511118
471976
437490
403083
374552
7780.66
18641.3
26202.7
32932.7
38924
43519.4
46633.4
48507
49517.1
50087.9
50520.1
51020.4
51671.8
52521.3
53540.5
54706.1
55935.3
57198.3
58388.5
59506.5
60450.3
61280
61887.6
62424.3
62731
63070.8
63188.7
63502.8
63572.8
64087.1
64259
65240.7
65638.9
67425.9
68230.9
71297.6
72601.9
77720.2
79569.5
88095.9
90537.3
105285
109175
138407
155398
243513
363523
680562
1.05093e+06
1.71147e+06
2.28046e+06
3.44035e+06
4.66046e+06
6.31169e+06
9.57862e+06
1.81412e+07
2.21306e+07
2.18347e+07
1.87267e+07
1.56051e+07
1.30432e+07
1.10832e+07
9.58602e+06
8.37819e+06
7.40974e+06
6.59728e+06
5.94543e+06
5.40477e+06
4.96029e+06
4.55204e+06
4.14835e+06
3.72492e+06
3.28885e+06
2.86268e+06
2.4671e+06
2.11851e+06
1.82051e+06
1.57249e+06
1.3681e+06
1.20131e+06
1.0654e+06
955565
868920
804477
762226
738296
725041
712139
694056
667619
635234
597743
559271
519645
482426
445614
412837
380344
353080
7116.05
16808.4
23473.2
29503.3
35035.9
39465.2
42669.2
44774.2
46049
46842.5
47430.2
48019.2
48710.6
49565.2
50568.5
51698.5
52877.1
54065.2
55163.6
56162
56974.1
57644.8
58092.8
58438.2
58564.4
58678.3
58592.6
58630
58465.6
58620.3
58514.1
59004.6
59071.9
60161.5
60550.5
62595.5
63395.8
66951
68222.1
74252.6
76107.9
86664.5
90147.8
111898
129225
203103
320915
602817
958899
1.55329e+06
2.10248e+06
3.16611e+06
4.43731e+06
5.90016e+06
8.41765e+06
1.50121e+07
1.86437e+07
1.92455e+07
1.70307e+07
1.45241e+07
1.22982e+07
1.05516e+07
9.18218e+06
8.06759e+06
7.16387e+06
6.40268e+06
5.78764e+06
5.27357e+06
4.84316e+06
4.44039e+06
4.03566e+06
3.61081e+06
3.1755e+06
2.75379e+06
2.36533e+06
2.02533e+06
1.73613e+06
1.49638e+06
1.29937e+06
1.13894e+06
1.00843e+06
903112
820155
758572
718236
695486
683123
671526
655281
631302
601535
566818
530827
493632
458394
423563
392261
361393
335221
6574.38
15331.9
21298.4
26768.2
31893.7
36124.4
39333.6
41576.4
43045.2
44026
44765
45461.7
46225.5
47124.8
48154.2
49291
50459.9
51614.9
52661.6
53583.3
54305.6
54864
55197.2
55404.4
55399.2
55350.8
55118.3
54959.5
54628.8
54532.7
54232
54385.1
54223.7
54840.6
54945.7
56305.8
56764.5
59285
60166.7
64566.8
66030.1
73891.2
77127.7
94218.1
111943
177288
293467
552014
896268
1.44267e+06
1.97367e+06
2.9658e+06
4.27246e+06
5.59804e+06
7.60907e+06
1.27424e+07
1.58861e+07
1.69861e+07
1.54736e+07
1.35068e+07
1.15979e+07
1.00557e+07
8.8101e+06
7.78464e+06
6.94219e+06
6.22883e+06
5.64736e+06
5.15672e+06
4.73751e+06
4.33792e+06
3.93073e+06
3.50377e+06
3.06901e+06
2.65175e+06
2.27042e+06
1.93895e+06
1.65844e+06
1.42677e+06
1.23691e+06
1.0826e+06
957238
856207
776727
717855
679417
657979
646705
636502
622017
600242
572769
540449
506602
471497
437973
404845
374828
345357
320145
6112.03
14092.5
19502.8
24519.7
29290.4
33317.8
36482.9
38800.3
40408.7
41543.6
42422.8
43234.1
44088
45056.6
46138.7
47310
48495.8
49644.7
50666.3
51539.8
52200.3
52678
52926.5
53031.4
52927.9
52759.1
52417.4
52114.9
51662
51385
50943.2
50856.1
50530.5
50815.2
50718.4
51602
51819.1
53628.3
54235.2
57530.4
58718.5
64789.2
67876.9
82011.1
100180
160376
275582
518287
853052
1.36374e+06
1.8786e+06
2.81605e+06
4.1484e+06
5.37099e+06
7.02548e+06
1.1075e+07
1.37224e+07
1.50464e+07
1.40648e+07
1.2557e+07
1.09397e+07
9.59026e+06
8.46349e+06
7.52304e+06
6.73882e+06
6.07033e+06
5.51972e+06
5.04983e+06
4.63953e+06
4.24135e+06
3.83079e+06
3.40144e+06
2.96739e+06
2.5548e+06
2.18081e+06
1.85796e+06
1.5861e+06
1.36243e+06
1.17956e+06
1.03119e+06
910771
813829
737662
681394
644862
624859
614827
606061
593239
573435
547973
517732
485746
452450
420420
388770
359880
331623
307261
5704.54
13020.2
17978.4
22625
27088.4
30919.9
34013.8
36362.9
38069.4
39329.3
40335
41260.3
42213.3
43265.6
44417.1
45640.6
46860.9
48021.8
49036.2
49880.9
50499.2
50918.1
51103.1
51130.4
50951.8
50691.6
50266.6
49856.1
49310.9
48899.6
48352.2
48089.2
47641.6
47685.4
47440.1
47981.3
48020.9
49324.6
49729.4
52250.5
53238.1
58084.7
61092.1
73328.1
91991.6
149132
263992
495839
823111
1.30662e+06
1.80737e+06
2.70196e+06
4.05348e+06
5.19724e+06
6.59194e+06
9.83106e+06
1.20283e+07
1.34021e+07
1.28067e+07
1.16781e+07
1.03232e+07
9.15229e+06
8.13842e+06
7.27869e+06
6.54978e+06
5.92348e+06
5.40133e+06
4.9499e+06
4.54659e+06
4.14851e+06
3.73406e+06
3.30236e+06
2.8694e+06
2.46189e+06
2.09555e+06
1.78147e+06
1.5183e+06
1.30254e+06
1.12654e+06
983937
868300
775280
702286
648538
613927
595458
586772
579445
568174
550126
526427
497993
467630
435911
405191
374833
346941
319748
296143
5337.52
12072
16655.6
20995.7
25192.7
28841.2
31849.9
34201.9
35974.9
37335.2
38452.8
39487.6
40542.8
41686.6
42917.6
44204.8
45470.7
46655.7
47674.9
48504.4
49094.1
49470
49606.7
49574.5
49337.6
49006.7
48516.9
48023.5
47406.9
46893.7
46265.5
45870.2
45329.7
45194.1
44836.2
45124.4
45029.3
45962.9
46214
48176.8
49014.5
53003.9
55982.5
66999.5
86210.3
141648
256698
481102
802506
1.26497e+06
1.75342e+06
2.61362e+06
3.9797e+06
5.06234e+06
6.26221e+06
8.88792e+06
1.06989e+07
1.20203e+07
1.16958e+07
1.08721e+07
9.74824e+06
8.74028e+06
7.83243e+06
7.04885e+06
6.37233e+06
5.78568e+06
5.28982e+06
4.85481e+06
4.45693e+06
4.05794e+06
3.63941e+06
3.20568e+06
2.77435e+06
2.37242e+06
2.01408e+06
1.70894e+06
1.4545e+06
1.24659e+06
1.07733e+06
940341
829317
740061
670113
618809
586128
569262
561981
556059
546218
529728
507575
480718
451777
421437
391873
362653
335650
309398
286472
5002.21
11220.3
15487.9
19571
23536.2
27016.3
29933.8
32269.3
34085.1
35524.8
36740.3
37878.1
39034.8
40273.5
41589.7
42947.1
44265.7
45482.6
46514.7
47338.5
47909.6
48253.9
48353.8
48275.3
47992.5
47606.2
47065.3
46507.3
45834.7
45242.6
44551.3
44054.6
43441.7
43169.5
42724.1
42820.8
42620.5
43276.2
43406.9
44956.6
45680.6
49059
52050
62298.8
82107.5
136748
252422
471786
788603
1.23451e+06
1.71221e+06
2.54424e+06
3.92134e+06
4.95631e+06
6.00654e+06
8.16145e+06
9.65024e+06
1.08655e+07
1.07233e+07
1.01391e+07
9.21491e+06
8.35333e+06
7.54391e+06
6.83164e+06
6.20455e+06
5.65509e+06
5.18347e+06
4.76307e+06
4.36931e+06
3.96873e+06
3.54617e+06
3.11089e+06
2.68186e+06
2.28605e+06
1.93609e+06
1.64007e+06
1.39438e+06
1.19423e+06
1.03157e+06
900028
793449
707804
640775
591840
561086
545860
540000
535423
526887
511776
490978
465500
437810
408685
380149
351937
325732
300317
278003
4693.05
10446.8
14443.1
18307.7
22070.3
25396.4
28221.5
30527.7
32368.2
33870.3
35170.7
36403.8
37658.9
38993
40396.6
41827.7
43202.9
44456.3
45506.8
46331.6
46891.3
47212.6
47284.2
47169.7
46850.4
46420.4
45838.8
45229.8
44512.8
43858.9
43117.4
42541.7
41871.4
41493.2
40978.4
40926.8
40642.5
41084.6
41118.7
42356.1
42993.4
45931.6
48968.9
58758.6
79210.4
133679
250313
466356
779584
1.21228e+06
1.68054e+06
2.48901e+06
3.87426e+06
4.87204e+06
5.80506e+06
7.59346e+06
8.81702e+06
9.90306e+06
9.87789e+06
9.47709e+06
8.72264e+06
7.99077e+06
7.27174e+06
6.62577e+06
6.04507e+06
5.53036e+06
5.08107e+06
4.67364e+06
4.28292e+06
3.88032e+06
3.454e+06
3.01778e+06
2.59178e+06
2.20264e+06
1.86141e+06
1.57465e+06
1.3377e+06
1.14521e+06
988996
862718
760412
678218
613983
567340
538491
524910
520451
517141
509784
495890
476282
452016
425430
397382
369763
342451
316967
292303
270544
4406.37
9738.77
13498.6
17174.6
20758.8
23944.7
26678.8
28947.4
30799.1
32349.2
33722.7
35043.2
36392.2
37820
39310.9
40816.7
42250.3
43543
44615.2
45445.5
45999.1
46303.9
46353.8
46211
45862.9
45398.2
44784.1
44134.6
43381.9
42679.1
41897.5
41259.4
40542.9
40081.1
39510.1
39341.9
38988.8
39263.6
39218.3
40215.5
40787.1
43407.6
46519.8
56068.4
77200.9
131939
249780
463751
774151
1.19616e+06
1.65606e+06
2.44443e+06
3.83534e+06
4.80429e+06
5.64406e+06
7.14328e+06
8.14953e+06
9.10124e+06
9.14621e+06
8.88279e+06
8.27038e+06
7.65199e+06
7.01509e+06
6.4303e+06
5.89287e+06
5.41052e+06
4.98172e+06
4.58576e+06
4.19724e+06
3.79237e+06
3.36273e+06
2.9263e+06
2.50407e+06
2.12217e+06
1.79e+06
1.51259e+06
1.28433e+06
1.09934e+06
949392
828190
729972
651069
589500
545062
518081
506120
503013
500877
494579
481757
463197
439998
414393
387303
360510
334007
309179
285192
263941
4139.63
9087.21
12637.9
16148.8
19574.5
22632.6
25278.7
27504.7
29357.2
30943.6
32379.7
33779.6
35217.3
36735.5
38312
39891.9
41383.9
42716.8
43812.8
44651.7
45202.9
45496.1
45529.6
45364.8
44993.7
44501.5
43861.3
43179.7
42398.3
41656.6
40842.7
40154.8
39400.6
38872.1
38254.9
37993.3
37582.8
37724.2
37612.6
38422.4
38945.4
41338.5
44550.3
54015.5
75858
131180
250399
463208
771353
1.18462e+06
1.63703e+06
2.40789e+06
3.80222e+06
4.74914e+06
5.51379e+06
6.78197e+06
7.61018e+06
8.4324e+06
8.5148e+06
8.3517e+06
7.85653e+06
7.33623e+06
6.77325e+06
6.2445e+06
5.74721e+06
5.29485e+06
4.88477e+06
4.49894e+06
4.11193e+06
3.70476e+06
3.27236e+06
2.8365e+06
2.41882e+06
2.04467e+06
1.72182e+06
1.45381e+06
1.23414e+06
1.05649e+06
912590
796255
701934
626156
567119
524793
499624
489232
487409
486349
480994
469115
451479
429224
404497
378267
352221
326449
302223
278851
258067
3890.99
8485.47
11848.5
15212.9
18496.6
21437.9
23999.7
26180
28025.6
29638.9
31128.3
32599.8
34120.3
35724.8
37384
39036
40585.2
41958.3
43078.6
43928.1
44479.7
44765.1
44786.3
44604.4
44215.3
43701.4
43040.4
42333.2
41529
40756.2
39916
39188.3
38403.1
37820.7
37164.9
36827.6
36368.3
36401.7
36233.8
36896
37384.6
39619.1
42951.8
52449.7
75023.3
131152
251859
464165
770475
1.17649e+06
1.62212e+06
2.37742e+06
3.7731e+06
4.7036e+06
5.40716e+06
6.48868e+06
7.17057e+06
7.87303e+06
7.97064e+06
7.8787e+06
7.47907e+06
7.04264e+06
6.54559e+06
6.06778e+06
5.60749e+06
5.18279e+06
4.78976e+06
4.41283e+06
4.02682e+06
3.61747e+06
3.18299e+06
2.74852e+06
2.33612e+06
1.97019e+06
1.65687e+06
1.39826e+06
1.18703e+06
1.01651e+06
878432
766744
676123
603299
546660
506346
482916
474021
473396
473309
468790
457742
440923
419510
395571
370118
344754
319648
295978
273168
252817
3659.03
7928.45
11121.3
14353.4
17508.8
20343
22824.5
24957.6
26790.6
28422.6
29957.2
31493
33090.3
34776.3
36514.4
38235.5
39839.8
41252
42396.7
43257.8
43811.8
44092.3
44104.5
43909.6
43506.4
42975.6
42298.2
41570.9
40748.3
39950.8
39089.4
38329.5
37518.8
36892.4
36203.9
35804.3
35302.9
35247.6
35031.4
35576.7
36043.6
38173.1
41645
51262.9
74579.9
131673
253920
466197
770969
1.17088e+06
1.61031e+06
2.35151e+06
3.74652e+06
4.66532e+06
5.31888e+06
6.2481e+06
6.8092e+06
7.40359e+06
7.50169e+06
7.45839e+06
7.13566e+06
6.7702e+06
6.33143e+06
5.89963e+06
5.47326e+06
5.07391e+06
4.69633e+06
4.32721e+06
3.94185e+06
3.53056e+06
3.09475e+06
2.6625e+06
2.25609e+06
1.89879e+06
1.59515e+06
1.34587e+06
1.14291e+06
979276
846771
739500
652375
582336
527956
489547
467770
460284
460762
461545
457764
447448
431356
410697
387473
362725
337989
313494
290340
268049
248103
3442.57
7412.08
10448.7
13560.1
16598.3
19334
21739.2
23824.4
25640.3
27284.7
28857.1
30450.5
32118.4
33880.8
35693.2
37479.9
39136.5
40586
41754.4
42627.6
43185.2
43463.1
43468.8
43264.2
42850.4
42306.5
41616.5
40873.6
40036.6
39219.6
38341
37555.2
36723.2
36060.7
35344.2
34892.8
34354.3
34225.4
33967.3
34420
34876.5
36943.8
40571.1
50374.5
74439.7
132603
256400
468977
772408
1.16711e+06
1.60079e+06
2.32896e+06
3.72138e+06
4.63245e+06
5.24494e+06
6.04882e+06
6.50968e+06
7.00796e+06
7.09715e+06
7.08537e+06
6.82379e+06
6.51779e+06
6.13013e+06
5.73959e+06
5.34412e+06
4.96789e+06
4.60424e+06
4.24196e+06
3.85701e+06
3.44415e+06
3.00782e+06
2.57863e+06
2.17886e+06
1.83055e+06
1.53667e+06
1.29659e+06
1.10167e+06
944656
817464
714372
630540
563115
510856
474239
454016
447838
449318
450873
447740
438069
422627
402648
380078
355976
331821
307891
285222
263411
243847
3240.6
6932.98
9825.13
12824.7
15755
18399.3
20732.2
22769.4
24564.9
26216.3
27820.3
29464.7
31197.4
33030.5
34912.5
36760.6
38466.2
39950.8
41141.7
42026.9
42588.9
42865.7
42867.1
42655.6
42233.9
41680.5
40980.9
40226.2
39378
38545.8
37653.5
36846.9
35997
35304.7
34563.9
34068.8
33497.3
33306.5
33012
33391.9
33848.4
35888.7
39685.2
49723.9
74534.2
133831
259149
472243
774451
1.16462e+06
1.59292e+06
2.30884e+06
3.69678e+06
4.6035e+06
5.18225e+06
5.88221e+06
6.25944e+06
6.67301e+06
6.74751e+06
6.75446e+06
6.54087e+06
6.28418e+06
5.941e+06
5.58721e+06
5.21971e+06
4.86446e+06
4.51331e+06
4.15702e+06
3.77239e+06
3.3584e+06
2.92238e+06
2.49705e+06
2.10454e+06
1.76548e+06
1.48137e+06
1.25033e+06
1.0632e+06
912518
790366
691215
610473
545492
495215
460275
441500
436521
438897
441129
438564
429464
414608
395248
373278
349775
326163
302759
280548
259186
239983
3052.24
6488.31
9245.7
12140.6
14970.7
17529.8
19793.9
21783.4
23556.1
25210
26840
28529.6
30321
32219.4
34165.9
36070.8
37821.8
39338.8
40550.5
41447.2
42014.1
42291.1
42290
42073.8
41646.6
41086.4
40380
39616.7
38760.2
37916.4
37013.2
36189.9
35325.1
34608
33845.7
33313.4
32712.1
32468.8
32142.7
32466.2
32932.8
34975.3
38952.6
49263.8
74809.2
135272
262050
475789
776825
1.16298e+06
1.58617e+06
2.29038e+06
3.67201e+06
4.57728e+06
5.12838e+06
5.74165e+06
6.04873e+06
6.38801e+06
6.44461e+06
6.46078e+06
6.28433e+06
6.06811e+06
5.76333e+06
5.44206e+06
5.09972e+06
4.76339e+06
4.42341e+06
4.07237e+06
3.68806e+06
3.27348e+06
2.83861e+06
2.41793e+06
2.0332e+06
1.70361e+06
1.42923e+06
1.20701e+06
1.02737e+06
882723
765336
669887
592035
529333
480901
447518
430079
426185
429353
432173
430102
421511
407186
388393
366983
344036
320935
298026
276250
255310
236452
2876.63
6075.53
8706.5
11502.5
14238.6
16717.8
18916.4
20858.8
22606.8
24259.5
25910.5
27639.7
29484.2
31442.3
33447.8
35405
37197.2
38743.8
39974.5
40882
41453.8
41731.9
41729.5
41510.6
41080
40515.4
39804.6
39035.4
38173
37320.6
36409
35572.4
34695
33957.1
33175.8
32611.5
31982.9
31694.8
31341.4
31622.5
32109
34178.3
38346.3
48957.3
75221
136856
265005
479446
779308
1.16185e+06
1.58013e+06
2.27297e+06
3.64649e+06
4.55282e+06
5.08139e+06
5.62199e+06
5.86993e+06
6.14425e+06
6.18139e+06
6.19987e+06
6.05165e+06
5.8683e+06
5.59641e+06
5.30372e+06
4.98387e+06
4.6645e+06
4.33446e+06
3.98804e+06
3.60414e+06
3.18956e+06
2.7567e+06
2.34138e+06
1.9649e+06
1.64492e+06
1.38015e+06
1.16651e+06
994049
855129
742230
650247
575091
514508
467789
435844
419623
416698
420555
423879
422239
414101
400263
381995
361108
338684
316070
293628
272270
251729
233205
2713.02
5692.39
8204.17
10905.9
13553.2
15956.9
18092.8
19988.9
21710.8
23359.2
25026.8
26790.5
28682.5
30694.8
32754
34758.4
36588
38160.9
39408.6
40325.7
40902.3
41182.1
41179.6
40959.5
40527.3
39960.5
39247.2
38474.5
37608.3
36749.9
35831.9
34984.9
34096.9
33341.4
32542.8
31950.6
31296.7
30970.3
30593.7
30844.9
31360.5
33478
37844.4
48774.6
75733.8
138523
267933
483075
781719
1.16092e+06
1.57444e+06
2.25613e+06
3.61977e+06
4.5293e+06
5.03976e+06
5.51918e+06
5.71703e+06
5.9346e+06
5.95182e+06
5.96766e+06
5.84045e+06
5.68346e+06
5.43951e+06
5.17176e+06
4.87188e+06
4.56763e+06
4.24638e+06
3.90407e+06
3.52077e+06
3.1068e+06
2.67678e+06
2.26752e+06
1.89967e+06
1.58937e+06
1.33406e+06
1.1287e+06
963095
829591
720907
632162
559514
500897
455759
425133
410013
407940
412386
416137
414872
407142
393753
375975
355583
333655
311506
289509
268554
248395
230194
2560.64
5336.81
7735.79
10347
12909.8
15241.8
17317.6
19168.1
20863
22504.3
24184.7
25978.1
27912.4
29973.2
32080.7
34127.5
35990
37586.2
38848.5
39774.1
40355.1
40637
40635.2
40415.3
39982.9
39415.7
38701.7
37927.5
37059.4
36197.1
35274.6
34419.5
33522.4
32752
31937.7
31320.8
30643.3
30283.9
29888.1
30120.6
30674.6
32858.5
37429.3
48691.3
76317.6
140225
270767
486562
783909
1.15996e+06
1.56882e+06
2.23944e+06
3.59151e+06
4.50608e+06
5.00221e+06
5.42999e+06
5.58524e+06
5.75325e+06
5.75076e+06
5.76054e+06
5.64849e+06
5.51234e+06
5.29193e+06
5.04579e+06
4.7635e+06
4.47265e+06
4.15916e+06
3.82051e+06
3.43806e+06
3.02537e+06
2.59899e+06
2.19639e+06
1.8375e+06
1.53689e+06
1.29084e+06
1.09345e+06
934362
805963
701226
615501
545182
488383
444703
415280
401142
399805
404746
408852
407912
400550
387580
370264
350345
328890
307189
285620
265057
245264
227378
2418.81
5006.91
7298.8
9822.64
12304.7
14568.1
16585.9
18391.6
20058.6
21690.7
23380.3
25199
27170.4
29274.5
31424.9
33509
35400.3
37016.2
38290.9
39223.7
39808.6
40092.8
40092.4
39873.6
39442.5
38876.3
38163.3
37389.4
36520.8
35656.6
34731
33869.7
32964.9
32181.7
31352.6
30713.8
30014.2
29626.4
29215.5
29439.8
30041.2
32307.1
37086.6
48687.3
76947.2
141921
273449
489812
785752
1.15878e+06
1.56303e+06
2.22258e+06
3.56141e+06
4.48261e+06
4.96772e+06
5.35183e+06
5.47073e+06
5.59543e+06
5.57387e+06
5.57528e+06
5.47372e+06
5.35373e+06
5.15295e+06
4.92538e+06
4.65849e+06
4.37943e+06
4.07276e+06
3.73744e+06
3.35615e+06
2.9454e+06
2.52342e+06
2.12805e+06
1.77836e+06
1.48739e+06
1.25035e+06
1.06061e+06
907699
784100
683051
600136
531977
476860
434517
406183
392911
392198
397542
401939
401280
394255
381677
364801
345337
324337
303071
281916
261736
242297
224721
2286.83
4700.88
6890.91
9330.14
11734.4
13931.9
15893.6
17655.3
19293.9
20914.8
22610.4
24450.2
26453.9
28595.9
30784
32900.4
34816.1
36448.6
37733.2
38671.7
39259.8
39546.3
39547.8
39331.2
38902.3
38338.6
37627.8
36855.7
35988.1
35123.5
34196
33330.3
32418.6
31624.4
30781.4
30122.7
29402.1
28990.4
28568.5
28794.4
29452
31813.6
36804.3
48745.7
77601.3
143577
275933
492746
787148
1.15722e+06
1.55688e+06
2.20527e+06
3.52926e+06
4.45845e+06
4.93544e+06
5.28258e+06
5.37036e+06
5.45721e+06
5.41748e+06
5.40902e+06
5.31422e+06
5.20649e+06
5.02189e+06
4.81014e+06
4.55661e+06
4.28786e+06
3.98718e+06
3.65493e+06
3.27514e+06
2.86701e+06
2.45016e+06
2.0625e+06
1.72219e+06
1.44077e+06
1.21247e+06
1.03002e+06
882956
763859
666251
585947
519791
466226
425108
397752
385233
385036
390697
395324
394908
388191
375987
359532
340509
319951
299110
278357
258554
239458
222188
2164.07
4417.08
6510.07
8867.07
11196.1
13329.9
15237.2
16955.6
18565.2
20173.2
21872
23729
25760.4
27935.2
30155.7
32299.6
34235.5
35881
37173.3
38116
38706.5
38995.2
38998.9
38785.2
38359.5
37799.4
37091.9
36323
35457.5
34593.9
33665.5
32796.6
31879
31075
30218.6
29541.9
28801.5
28369.7
27941.4
28178.2
28900.6
31369.5
36572.1
48852.2
78261.3
145162
278179
495299
788013
1.15514e+06
1.5502e+06
2.1873e+06
3.49492e+06
4.43324e+06
4.90469e+06
5.22053e+06
5.2816e+06
5.33532e+06
5.27846e+06
5.25928e+06
5.16827e+06
5.06953e+06
4.89809e+06
4.69969e+06
4.45766e+06
4.19785e+06
3.90241e+06
3.57304e+06
3.19516e+06
2.79029e+06
2.37924e+06
1.99972e+06
1.66891e+06
1.39689e+06
1.17703e+06
1.00154e+06
859980
745098
650699
572821
508520
456385
416386
389903
378027
378242
384140
388943
388736
382304
370458
354410
335816
315690
295267
274908
255477
236717
219751
2049.9
4153.93
6154.38
8431.32
10687.4
12759.4
14613.7
16289.5
17869.7
19463.2
21162.5
23033.1
25087.8
27290.4
29538.2
31704.8
33656.7
35312
36609.3
37554.7
38146.9
38437.5
38443.7
38233.5
37811.8
37256.2
36553.1
35788.4
34926
34064.5
33136.2
32265.1
31342.1
30529.2
29660
28966.5
28207.6
27759.5
27329.6
27586.5
28381.7
30967.8
36381.5
48994.3
78911.5
146652
280153
497417
788277
1.15244e+06
1.54286e+06
2.16848e+06
3.45826e+06
4.40667e+06
4.87487e+06
5.16425e+06
5.20236e+06
5.22706e+06
5.15417e+06
5.12384e+06
5.03431e+06
4.94186e+06
4.78094e+06
4.59365e+06
4.3614e+06
4.10931e+06
3.81845e+06
3.49186e+06
3.11628e+06
2.71533e+06
2.3107e+06
1.93968e+06
1.61843e+06
1.35563e+06
1.14389e+06
975002
838624
727685
636273
560649
498066
447250
408270
382562
371223
371751
377809
382739
382712
376546
365044
349393
331221
311517
291508
271535
252474
234045
217382
1943.76
3909.97
5822.11
8021
10206.1
12218
14020.4
15654.1
17204.7
18782.4
20479.7
22360.5
24434.1
26659.8
28930
31114.6
33078.4
34740.1
36040.2
36986.5
37579.5
37871.8
37880.6
37674.4
37257.2