/*--------------------------------*- C++ -*----------------------------------*\
| =========                 |                                                 |
| \\      /  F ield         | OpenFOAM: The Open Source CFD Toolbox           |
|  \\    /   O peration     | Version:  2412                                  |
|   \\  /    A nd           | Website:  www.openfoam.com                      |
|    \\/     M anipulation  |                                                 |
\*---------------------------------------------------------------------------*/
FoamFile
{
    version     2.0;
    format      ascii;
    arch        "LSB;label=32;scalar=64";
    class       volVectorField;
    location    "0.6";
    object      U;
}
// * * * * * * * * * * * * * * * * * * * * * * * * * * * * * * * * * * * * * //

dimensions      [0 1 -1 0 0 0 0];

internalField   nonuniform List<vector> 
13156
(
(79.1803 -82.4455 -1.57473e-14)
(101.185 -24.8574 -4.62344e-17)
(113.063 14.7424 0)
(119.247 28.7652 0)
(122.97 33.0189 -2.0957e-14)
(124.292 34.2769 -1.15691e-18)
(124.5 34.6493 0)
(124.248 34.8001 4.27957e-14)
(123.887 34.9379 4.29539e-14)
(123.377 35.0505 0)
(122.777 35.1392 0)
(122.008 35.1685 2.17669e-14)
(121.2 35.162 -2.19486e-14)
(120.333 35.117 4.8586e-19)
(119.59 35.0705 0)
(118.909 35.0285 2.25967e-14)
(118.52 35.0437 0)
(118.218 35.078 -2.30233e-14)
(118.243 35.1848 5.10494e-19)
(118.28 35.31 0)
(118.676 35.5109 0)
(118.969 35.7192 -2.36918e-14)
(119.753 36.0335 0)
(120.289 36.3168 -2.39038e-14)
(121.475 36.74 0)
(122.247 37.1088 0)
(123.937 37.661 0)
(124.935 38.1234 0)
(127.291 38.8518 -2.39958e-14)
(128.492 39.4037 0)
(131.625 40.3344 0)
(133.016 41.0011 -1.24267e-18)
(137.062 42.1624 -2.31222e-14)
(138.646 42.9613 -2.25336e-14)
(143.931 44.4248 2.22932e-14)
(145.584 45.3598 2.15055e-14)
(152.561 47.2321 0)
(154.055 48.2734 0)
(163.314 50.6979 -1.98076e-14)
(164.349 51.8305 -1.83592e-14)
(176.799 55.0072 1.81422e-14)
(176.796 56.1634 -1.61247e-14)
(193.631 60.3711 0)
(191.342 61.3751 0)
(214.036 66.9572 0)
(207.464 67.4136 9.95866e-15)
(238.277 74.9191 0)
(228.113 75.1039 0)
(272.151 85.9182 9.44903e-15)
(261.868 86.7209 0)
(327.223 103.001 0)
(317.023 103.675 -1.45522e-14)
(480.295 154.585 3.17866e-18)
(486.458 11.1614 1.80651e-15)
(312.447 -69.5373 1.90568e-15)
(256.656 -59.3339 0)
(237.871 -54.0277 0)
(233.293 -50.5916 1.90593e-15)
(218.645 -49.0696 5.79036e-19)
(215.176 -46.5958 0)
(203.186 -45.3557 4.6561e-19)
(198.408 -43.1023 0)
(187.91 -41.8385 2.13627e-15)
(182.794 -39.8436 3.26268e-19)
(173.992 -38.6316 -2.69822e-15)
(169.007 -36.932 2.60614e-15)
(161.665 -35.8021 6.46317e-15)
(157.106 -34.3965 3.27576e-15)
(151.354 -33.4278 3.70889e-15)
(148.08 -32.4451 -3.82689e-15)
(144.426 -31.8183 -4.15335e-15)
(142.98 -31.3107 -2.58402e-19)
(141.147 -30.9938 -9.27892e-15)
(140.401 -30.6957 2.36595e-19)
(139.069 -30.4458 -5.1864e-15)
(137.988 -30.1241 5.45955e-15)
(136.339 -29.7879 5.74392e-15)
(134.746 -29.3821 -1.9572e-19)
(132.803 -28.9768 0)
(130.883 -28.5383 -6.48563e-15)
(128.783 -28.0913 0)
(126.78 -27.6458 0)
(124.708 -27.2028 -7.04294e-15)
(122.879 -26.8032 0)
(121.176 -26.4376 -7.19828e-15)
(120.062 -26.1945 -7.16193e-15)
(119.333 -26.0186 7.07717e-15)
(119.324 -26.0113 0)
(119.286 -25.9846 -6.93576e-15)
(119.647 -26.048 0)
(119.452 -25.9764 -6.97871e-15)
(119.608 -26.003 -7.04012e-15)
(118.889 -25.8138 -7.15389e-15)
(118.893 -25.8188 0)
(117.463 -25.4618 7.37203e-15)
(117.694 -25.5362 -7.45534e-15)
(115.256 -24.9581 0)
(116.085 -25.1897 -7.65874e-15)
(113.101 -24.3739 0)
(129.35 45.2832 1.06865e-14)
(138.398 49.9411 -2.20078e-14)
(136.538 43.6068 0)
(137.121 40.0555 0)
(139.155 39.3518 1.51243e-14)
(140.904 39.8524 -3.00601e-14)
(142.242 40.4893 0)
(143.147 41.0232 -1.4357e-14)
(143.541 41.3821 -1.41118e-14)
(143.541 41.6096 0)
(143.21 41.7267 -1.39194e-14)
(142.637 41.7652 -6.78891e-19)
(141.882 41.7331 0)
(141.03 41.6679 1.40816e-14)
(140.171 41.5722 0)
(139.372 41.5029 1.42738e-14)
(138.744 41.467 0)
(138.313 41.4959 0)
(138.112 41.5693 5.94812e-19)
(138.11 41.7302 -1.46011e-14)
(138.346 41.9206 0)
(138.728 42.2115 1.47321e-14)
(139.373 42.5291 0)
(140.147 42.9438 0)
(141.197 43.3699 1.49191e-14)
(142.358 43.9278 0)
(143.876 44.471 0)
(145.451 45.1947 0)
(147.533 45.8853 0)
(149.594 46.7962 0)
(152.366 47.6634 0)
(154.939 48.8117 -1.4421e-14)
(158.663 49.9211 2.87254e-14)
(161.746 51.3202 1.39407e-14)
(166.64 52.7074 0)
(170.213 54.401 -1.32584e-14)
(176.648 56.1526 1.30419e-14)
(180.674 58.1655 -1.23485e-14)
(189.119 60.3978 2.33604e-18)
(193.505 62.7847 1.11916e-14)
(204.721 65.6614 0)
(209.195 68.4375 9.74783e-15)
(224.169 72.1927 9.74687e-15)
(227.888 75.2744 -7.97035e-15)
(247.764 80.1632 8.35871e-15)
(249.068 83.1679 0)
(275.736 89.6876 0)
(275.063 92.8039 0)
(313.954 102.659 0)
(315.014 106.946 2.63797e-16)
(375.692 123.237 0)
(375.572 126.993 7.83156e-15)
(540.603 184.592 1.03934e-15)
(601.803 -5.69507 -1.03093e-15)
(391.345 -84.2088 0)
(315.869 -67.8804 0)
(279.677 -61.217 -1.26922e-16)
(273.869 -58.2497 -7.66669e-16)
(252.762 -55.2626 8.02425e-16)
(250.289 -53.2426 0)
(233.63 -50.9014 6.09942e-16)
(229.521 -48.9174 3.10517e-16)
(215.286 -46.7912 0)
(210.27 -44.9096 6.89809e-16)
(198.565 -43.0545 1.02509e-15)
(193.327 -41.3675 0)
(183.783 -39.7664 -2.42995e-15)
(178.758 -38.3147 -2.49157e-19)
(171.478 -37.0404 0)
(167.726 -36.0132 2.85726e-15)
(163.347 -35.2726 1.5523e-15)
(161.571 -34.7487 -1.63997e-15)
(159.616 -34.4469 1.77599e-15)
(158.819 -34.1722 1.9056e-15)
(157.471 -33.943 2.06153e-15)
(156.37 -33.632 -2.21544e-15)
(154.695 -33.3027 0)
(153.052 -32.8929 -1.79768e-19)
(151.041 -32.4828 0)
(149.024 -32.0276 2.82141e-15)
(146.802 -31.5572 0)
(144.646 -31.0842 3.06476e-15)
(142.396 -30.6041 3.15781e-15)
(140.356 -30.1703 0)
(138.421 -29.7589 6.45174e-15)
(137.044 -29.4847 3.17979e-15)
(136.045 -29.2606 -3.10564e-15)
(135.75 -29.2317 0)
(135.455 -29.1473 1.47263e-19)
(135.564 -29.1926 0)
(135.184 -29.0596 3.04429e-15)
(135.164 -29.0937 3.0968e-15)
(134.356 -28.8402 6.36527e-15)
(134.229 -28.8879 0)
(132.997 -28.4897 -6.73286e-15)
(132.964 -28.6313 3.43338e-15)
(131.258 -28.0578 3.55745e-15)
(131.458 -28.3696 3.61034e-15)
(129.746 -27.6027 3.7498e-15)
(96.4175 37.6884 0)
(131.74 40.8261 -1.2001e-17)
(140.985 38.5488 -1.24266e-14)
(143.651 39.3064 0)
(145.438 40.5439 0)
(146.586 41.4532 1.14083e-14)
(147.526 42.0491 0)
(148.348 42.5539 -9.91946e-15)
(148.96 42.97 9.58909e-15)
(149.333 43.3186 0)
(149.455 43.5812 9.5258e-15)
(149.337 43.7706 -9.6577e-15)
(149.026 43.8813 0)
(148.564 43.9466 0)
(148.051 43.9621 0)
(147.526 43.9871 -2.07266e-14)
(147.124 44.0251 0)
(146.846 44.1117 -1.06124e-14)
(146.784 44.2299 1.07168e-14)
(146.869 44.4309 1.07978e-14)
(147.217 44.6569 -1.08909e-14)
(147.673 44.9884 1.09646e-14)
(148.451 45.3474 0)
(149.306 45.8094 0)
(150.535 46.2878 -1.12408e-14)
(151.794 46.9054 0)
(153.547 47.5127 0)
(155.23 48.309 0)
(157.615 49.0771 0)
(159.774 50.0698 0)
(162.92 51.0251 0)
(165.584 52.2723 0)
(169.734 53.4703 -1.06954e-18)
(172.935 55.0029 -1.10465e-14)
(178.333 56.4812 -1.09652e-14)
(182.047 58.3496 1.06112e-14)
(189.082 60.1926 -2.08983e-14)
(193.269 62.4303 9.97414e-15)
(202.439 64.756 9.76927e-15)
(207.012 67.4339 0)
(219.112 70.4044 0)
(223.816 73.5559 8.00035e-15)
(239.87 77.4091 -2.31602e-18)
(243.894 80.9706 6.58894e-15)
(265.073 85.9689 -6.81801e-15)
(266.832 89.5623 0)
(294.992 96.2367 0)
(295.129 100.057 2.5658e-15)
(335.228 110.074 0)
(337.458 115.14 -1.987e-16)
(399.157 131.793 0)
(401.064 136.472 -5.64491e-15)
(563.411 195.002 0)
(641.473 -10.1858 8.75037e-16)
(437.121 -91.7859 0)
(348.931 -73.3625 0)
(304.249 -65.9742 1.60337e-16)
(294.143 -62.0795 4.71013e-16)
(270.885 -58.7775 -2.40037e-16)
(266.845 -56.3917 -9.5198e-17)
(249.145 -53.8903 0)
(244.009 -51.645 -1.79676e-16)
(228.984 -49.3983 0)
(223.093 -47.3058 3.92233e-16)
(210.711 -45.3469 -5.79018e-16)
(204.726 -43.4883 -5.56802e-16)
(194.613 -41.798 6.78074e-16)
(188.991 -40.2193 -6.83422e-16)
(181.311 -38.8936 0)
(177.218 -37.8111 -1.58054e-15)
(172.679 -37.0727 -1.41535e-19)
(170.801 -36.548 0)
(168.791 -36.2601 0)
(167.964 -35.9863 0)
(166.583 -35.7594 0)
(165.454 -35.4404 1.18103e-19)
(163.747 -35.1067 0)
(162.075 -34.6878 -1.48461e-15)
(160.034 -34.272 1.585e-15)
(157.984 -33.808 0)
(155.722 -33.3288 0)
(153.514 -32.8458 -1.84713e-15)
(151.204 -32.3527 0)
(149.084 -31.9085 0)
(147.062 -31.4824 -1.94433e-15)
(145.564 -31.1997 0)
(144.425 -30.9534 0)
(143.937 -30.9039 0)
(143.45 -30.7745 1.75589e-15)
(143.336 -30.7895 -1.75263e-15)
(142.794 -30.6047 0)
(142.598 -30.6235 0)
(141.712 -30.323 -1.86763e-15)
(141.459 -30.383 0)
(140.21 -29.928 3.99443e-15)
(140.095 -30.1241 0)
(138.4 -29.4553 -2.14515e-15)
(138.57 -29.8994 0)
(136.793 -28.9582 -2.30207e-15)
(99.0059 17.5205 0)
(127.181 30.0767 2.49283e-14)
(137.026 36.011 2.10125e-14)
(141.496 39.2349 0)
(144.58 40.6582 0)
(146.422 41.4911 7.64108e-15)
(147.759 42.1364 -6.85138e-15)
(148.899 42.7368 6.35901e-15)
(149.838 43.2496 -1.22485e-14)
(150.565 43.7061 6.08219e-15)
(151.066 44.0814 0)
(151.34 44.391 0)
(151.424 44.6209 0)
(151.35 44.8055 0)
(151.204 44.9311 0)
(151.014 45.0597 7.24427e-15)
(150.909 45.1851 7.43186e-15)
(150.882 45.3507 7.59354e-15)
(151.034 45.5304 -7.73838e-15)
(151.3 45.7908 0)
(151.81 46.0623 3.19314e-19)
(152.418 46.4465 -3.69964e-19)
(153.344 46.8463 0)
(154.351 47.3642 -8.39385e-15)
(155.741 47.8843 8.54712e-15)
(157.166 48.5674 -8.67578e-15)
(159.101 49.2193 0)
(160.971 50.0932 0)
(163.561 50.9074 0)
(165.925 51.9914 9.14493e-15)
(169.294 52.9892 -9.28207e-15)
(172.183 54.3463 9.24573e-15)
(176.563 55.5742 -8.17223e-19)
(180.022 57.2455 0)
(185.667 58.7384 9.22532e-15)
(189.683 60.7849 9.0125e-15)
(196.98 62.6192 1.09779e-18)
(201.526 65.0874 0)
(210.981 67.3726 0)
(215.989 70.3529 0)
(228.396 73.2386 -7.82556e-15)
(233.649 76.7912 -7.09816e-15)
(250.038 80.5055 -1.40528e-14)
(254.788 84.6065 5.9022e-15)
(276.341 89.4088 6.03864e-15)
(279.135 93.7296 4.28703e-15)
(307.69 100.186 0)
(309.34 104.907 -2.1754e-15)
(348.947 114.464 0)
(352.738 120.362 0)
(412.899 136.359 0)
(417.256 141.853 -3.53512e-18)
(572.173 198.832 0)
(663.001 -9.21035 -7.20057e-16)
(471.247 -97.1569 0)
(376.128 -78.2497 8.87645e-16)
(324.114 -69.9148 -6.17513e-17)
(309.819 -65.0632 -3.50125e-16)
(284.404 -61.4794 -1.75139e-16)
(278.894 -58.7018 6.81234e-17)
(260.247 -56.084 -2.52277e-16)
(254.281 -53.5957 -1.25663e-16)
(238.619 -51.2725 -3.27999e-16)
(232.085 -49.0023 -2.71524e-16)
(219.188 -46.9774 0)
(212.673 -44.9824 3.82336e-16)
(202.143 -43.236 0)
(196.119 -41.5648 -4.66768e-16)
(188.178 -40.2159 0)
(183.889 -39.1024 8.64141e-20)
(179.268 -38.3804 -1.1833e-15)
(177.34 -37.8582 0)
(175.291 -37.5818 6.90635e-16)
(174.418 -37.2984 7.49194e-16)
(172.98 -37.0631 0)
(171.79 -36.7241 8.93721e-16)
(170.024 -36.3762 0)
(168.299 -35.9398 0)
(166.213 -35.5121 -2.23967e-15)
(164.123 -35.0356 0)
(161.825 -34.5468 0)
(159.579 -34.0544 0)
(157.233 -33.553 -1.36033e-15)
(155.068 -33.1035 0)
(153.004 -32.6734 0)
(151.44 -32.3906 -1.34044e-15)
(150.212 -32.1339 1.288e-15)
(149.572 -32.0663 0)
(148.917 -31.9001 0)
(148.603 -31.8807 1.2133e-15)
(147.903 -31.6514 0)
(147.543 -31.6453 -1.25327e-15)
(146.568 -31.3076 0)
(146.198 -31.3624 0)
(144.92 -30.871 -2.76981e-15)
(144.719 -31.0865 1.42781e-15)
(143.04 -30.3662 0)
(143.142 -30.8751 -1.53444e-15)
(141.362 -29.8341 0)
(103.847 22.5953 0)
(126.973 34.1272 -1.61363e-14)
(134.712 36.1496 -6.58278e-15)
(138.923 38.4519 -6.12999e-15)
(142.485 39.9723 0)
(144.917 41.028 -4.93336e-15)
(146.742 41.8381 4.49825e-15)
(148.256 42.5515 -4.22071e-15)
(149.497 43.1509 4.0875e-15)
(150.486 43.6881 -2.4365e-19)
(151.231 44.1386 0)
(151.741 44.5229 0)
(152.057 44.8246 0)
(152.212 45.0811 0)
(152.291 45.2745 0)
(152.319 45.4698 4.99671e-15)
(152.419 45.6548 -1.73676e-19)
(152.583 45.8787 -5.31577e-15)
(152.908 46.1069 5.45751e-15)
(153.336 46.4174 0)
(153.994 46.7294 5.73032e-15)
(154.75 47.1609 -2.77891e-19)
(155.816 47.5976 6.02021e-15)
(156.972 48.166 1.23502e-14)
(158.508 48.7227 -6.34418e-15)
(160.097 49.4646 6.51037e-15)
(162.191 50.1541 0)
(164.246 51.0985 0)
(167.008 51.9498 -7.0472e-15)
(169.582 53.1191 -1.43695e-14)
(173.134 54.1493 7.37088e-15)
(176.26 55.6106 -7.44938e-15)
(180.821 56.8577 -7.62376e-15)
(184.549 58.6594 0)
(190.375 60.1519 0)
(194.703 62.3654 -1.52593e-14)
(202.175 64.17 7.63561e-15)
(207.087 66.8549 7.45492e-15)
(216.706 69.0682 -7.38597e-15)
(222.155 72.3344 0)
(234.706 75.0898 6.94844e-15)
(240.51 79.025 0)
(257.018 82.5361 1.49187e-18)
(262.5 87.1599 -5.35861e-15)
(284.155 91.6863 -1.68276e-18)
(288.049 96.7323 -7.69906e-15)
(316.622 102.881 3.8651e-15)
(319.79 108.447 0)
(358.148 117.322 0)
(363.125 123.847 0)
(421.194 138.998 0)
(427.313 144.981 -2.59922e-18)
(576.226 200.212 0)
(673.13 -8.32337 -5.02738e-16)
(496.219 -100.981 4.96259e-16)
(399.255 -82.2963 -7.65116e-16)
(341.516 -73.3054 0)
(323.304 -67.5947 0)
(295.795 -63.7448 1.414e-16)
(288.831 -60.5857 -5.40795e-17)
(269.307 -57.8649 1.9866e-16)
(262.581 -55.1535 1.95141e-16)
(246.38 -52.771 2.54667e-16)
(239.303 -50.3473 2.08855e-16)
(225.993 -48.274 3.08229e-16)
(219.046 -46.1657 -2.92787e-16)
(208.191 -44.3799 -3.56745e-16)
(201.859 -42.6378 6.49876e-20)
(193.734 -41.2809 0)
(189.316 -40.152 4.15021e-16)
(184.655 -39.4532 6.19494e-20)
(182.694 -38.9368 0)
(180.609 -38.6701 -1.07139e-15)
(179.674 -38.3727 -5.82198e-16)
(178.16 -38.123 0)
(176.886 -37.7583 0)
(175.041 -37.3906 0)
(173.243 -36.9322 0)
(171.096 -36.4886 5.06538e-20)
(168.955 -35.9968 0)
(166.614 -35.4966 0)
(164.328 -34.9938 0)
(161.949 -34.4849 2.12785e-15)
(159.751 -34.0317 0)
(157.661 -33.6012 0)
(156.054 -33.321 3.95945e-20)
(154.754 -33.058 -9.9033e-16)
(153.985 -32.9735 0)
(153.176 -32.7747 -9.30145e-16)
(152.68 -32.7217 0)
(151.831 -32.4532 0)
(151.32 -32.4209 2.57477e-20)
(150.256 -32.0519 0)
(149.78 -32.0962 0)
(148.463 -31.577 4.58244e-20)
(148.183 -31.7993 -1.09175e-15)
(146.503 -31.0433 0)
(146.539 -31.5905 -1.47303e-20)
(144.75 -30.4796 0)
(103.63 22.5864 0)
(125.854 33.92 8.66528e-15)
(133.08 35.2735 0)
(137.054 37.7897 3.82736e-15)
(140.716 39.4089 0)
(143.433 40.5515 3.37516e-15)
(145.574 41.4585 0)
(147.367 42.2602 3.02779e-15)
(148.842 42.9332 -2.95661e-15)
(150.027 43.5361 -2.9514e-15)
(150.943 44.0435 -2.99953e-15)
(151.606 44.4804 0)
(152.064 44.829 0)
(152.354 45.1299 0)
(152.563 45.3634 0)
(152.718 45.5976 -3.59136e-15)
(152.939 45.8171 -3.71349e-15)
(153.222 46.076 3.82981e-15)
(153.661 46.3346 3.94155e-15)
(154.202 46.6781 0)
(154.969 47.0179 0)
(155.836 47.483 -8.58854e-15)
(157.01 47.9464 -8.85208e-15)
(158.283 48.5519 -4.56793e-15)
(159.932 49.1356 0)
(161.649 49.921 4.87882e-15)
(163.865 50.6384 0)
(166.066 51.6358 0)
(168.962 52.515 5.40176e-15)
(171.705 53.7507 5.56606e-15)
(175.4 54.8056 -5.75483e-15)
(178.725 56.3515 0)
(183.431 57.6139 0)
(187.391 59.5237 0)
(193.362 61.0152 0)
(197.965 63.3706 6.33124e-15)
(205.574 65.1472 0)
(210.817 68.0204 -6.34774e-15)
(220.554 70.1645 8.98073e-19)
(226.404 73.6826 6.15043e-15)
(239.043 76.3106 -6.08919e-15)
(245.346 80.5857 0)
(261.903 83.8964 5.62616e-15)
(268.045 88.9884 0)
(289.713 93.25 -1.40942e-18)
(294.653 98.9528 3.3936e-15)
(322.998 104.779 -3.10435e-15)
(327.383 110.999 0)
(364.242 119.16 1.64294e-15)
(369.962 126.073 0)
(426.299 140.518 9.34215e-16)
(433.599 146.719 1.02e-15)
(578.498 200.463 -1.72132e-16)
(677.076 -7.8919 3.34939e-16)
(513.579 -103.255 -2.50729e-18)
(418.754 -85.5329 0)
(357.086 -76.2533 0)
(335.419 -69.8182 0)
(305.927 -65.7213 0)
(297.543 -62.2074 4.53783e-17)
(277.19 -59.3864 1.65909e-16)
(269.748 -56.4734 -1.61169e-16)
(253.071 -54.0373 0)
(245.511 -51.481 -3.42777e-16)
(231.849 -49.3669 -2.53224e-16)
(224.532 -47.1636 4.79078e-16)
(213.411 -45.347 2.92331e-16)
(206.826 -43.5501 5.34374e-20)
(198.568 -42.1939 0)
(194.058 -41.0604 -3.40942e-16)
(189.377 -40.388 3.76176e-16)
(187.39 -39.8796 0)
(185.265 -39.62 4.96105e-20)
(184.256 -39.3063 0)
(182.653 -39.0382 0)
(181.28 -38.645 -5.78901e-16)
(179.341 -38.2541 0)
(177.458 -37.7711 0)
(175.238 -37.3093 7.27054e-16)
(173.037 -36.8004 0)
(170.646 -36.2875 0)
(168.317 -35.7738 0)
(165.904 -35.2573 -8.81808e-16)
(163.676 -34.8007 0)
(161.564 -34.3711 0)
(159.922 -34.0941 8.48227e-16)
(158.558 -33.8251 8.06482e-16)
(157.667 -33.7236 0)
(156.713 -33.4941 7.53699e-16)
(156.05 -33.4093 0)
(155.062 -33.1059 0)
(154.415 -33.049 7.73673e-16)
(153.263 -32.6527 0)
(152.692 -32.6855 0)
(151.332 -32.1432 8.55469e-16)
(150.98 -32.3674 0)
(149.29 -31.5829 0)
(149.265 -32.1569 9.56616e-16)
(147.459 -30.99 0)
(103.56 21.6602 0)
(124.698 33.2361 -2.57349e-15)
(131.655 34.5963 0)
(135.582 37.2481 0)
(139.274 38.8999 0)
(142.129 40.0948 -2.56939e-19)
(144.462 41.0693 2.38672e-15)
(146.452 41.9396 2.3183e-15)
(148.104 42.6739 2.28412e-15)
(149.443 43.3322 0)
(150.489 43.8867 2.32146e-15)
(151.263 44.3653 0)
(151.818 44.7489 0)
(152.196 45.0807 2.54779e-15)
(152.485 45.3402 2.63825e-15)
(152.719 45.5983 0)
(153.016 45.838 0)
(153.374 46.1178 0)
(153.889 46.3946 -2.98041e-15)
(154.507 46.759 0)
(155.351 47.1168 0)
(156.3 47.6042 6.51622e-15)
(157.555 48.0855 6.73055e-15)
(158.913 48.7164 0)
(160.647 49.3182 0)
(162.458 50.1336 -2.44669e-19)
(164.765 50.8697 0)
(167.072 51.9039 0)
(170.065 52.8014 0)
(172.932 54.0842 0)
(176.733 55.1555 4.50308e-15)
(180.205 56.7629 0)
(185.02 58.0355 0)
(189.157 60.0267 4.92878e-15)
(195.238 61.516 0)
(200.058 63.982 0)
(207.772 65.7349 0)
(213.286 68.7598 5.2856e-15)
(223.112 70.8455 1.06171e-14)
(229.301 74.5724 -5.24505e-15)
(242.001 77.0902 5.20781e-15)
(248.735 81.6531 0)
(265.31 84.7882 0)
(272.037 90.2817 0)
(293.671 94.3178 -1.15401e-18)
(299.557 100.579 0)
(327.46 106.069 2.35283e-15)
(332.662 112.721 -1.06652e-15)
(368.199 120.272 -2.3847e-15)
(374.38 127.41 0)
(429.556 141.357 -6.83408e-16)
(437.704 147.61 0)
(579.943 200.152 1.2695e-16)
(678.479 -7.51924 2.27624e-16)
(525.051 -104.296 -3.3291e-16)
(434.867 -88.0629 0)
(371.001 -78.8113 -4.04596e-17)
(346.482 -71.7982 0)
(315.167 -67.4857 0)
(305.427 -63.647 0)
(284.286 -60.7298 -7.12878e-20)
(276.169 -57.6333 1.3852e-16)
(259.059 -55.1476 -1.8076e-16)
(251.061 -52.4744 2.93115e-16)
(237.092 -50.3249 2.16713e-16)
(229.448 -48.0399 -4.0891e-16)
(218.099 -46.1986 -2.49865e-16)
(211.303 -44.3587 4.99092e-16)
(202.943 -43.0091 0)
(198.367 -41.8783 4.52057e-20)
(193.678 -41.2336 0)
(191.663 -40.7337 -3.46888e-16)
(189.492 -40.4785 3.84141e-16)
(188.4 -40.1464 -4.18259e-16)
(186.697 -39.8568 -4.60806e-16)
(185.213 -39.4329 4.06002e-20)
(183.17 -39.0165 0)
(181.192 -38.5076 5.87034e-16)
(178.893 -38.026 0)
(176.624 -37.499 0)
(174.179 -36.9725 0)
(171.803 -36.4473 0)
(169.354 -35.9231 0)
(167.096 -35.4633 0)
(164.964 -35.0347 0)
(163.287 -34.7599 0)
(161.857 -34.484 -6.82143e-16)
(160.849 -34.3646 0)
(159.756 -34.1058 0)
(158.938 -33.9912 0)
(157.821 -33.6562 0)
(157.052 -33.5769 0)
(155.817 -33.1565 0)
(155.16 -33.1783 0)
(153.757 -32.6159 0)
(153.34 -32.84 0)
(151.635 -32.0314 0)
(151.554 -32.6258 0)
(149.724 -31.4114 0)
(103.467 20.928 0)
(123.633 32.4913 -1.7515e-15)
(130.392 33.9923 0)
(134.341 36.7472 0)
(138.049 38.4279 1.94041e-15)
(140.981 39.6653 -3.8471e-15)
(143.438 40.6904 -1.89026e-15)
(145.569 41.6149 -1.55328e-19)
(147.357 42.4006 0)
(148.816 43.1064 0)
(149.965 43.7018 -1.8857e-15)
(150.825 44.2155 -1.93047e-15)
(151.452 44.6277 1.98648e-15)
(151.891 44.9832 -2.04861e-15)
(152.236 45.2612 -2.11239e-15)
(152.522 45.5352 0)
(152.87 45.7874 0)
(153.281 46.0803 0)
(153.85 46.3684 0)
(154.525 46.7463 0)
(155.428 47.116 0)
(156.438 47.6188 -1.28952e-19)
(157.756 48.112 -2.66376e-15)
(159.18 48.7605 0)
(160.98 49.3745 -2.85896e-15)
(162.862 50.2105 -5.93416e-15)
(165.238 50.9589 -3.08209e-15)
(167.624 52.0183 -3.20138e-15)
(170.69 52.9273 -3.32775e-15)
(173.646 54.2427 3.45347e-15)
(177.526 55.3238 -3.58901e-15)
(181.102 56.9744 -3.71306e-15)
(186 58.2521 -3.85495e-15)
(190.263 60.3019 -7.92747e-15)
(196.428 61.787 0)
(201.405 64.3349 4.1869e-15)
(209.199 66.0671 0)
(214.913 69.2081 -4.34576e-15)
(224.81 71.2455 -4.38041e-15)
(231.26 75.137 0)
(244.007 77.5642 4.3548e-15)
(251.085 82.3603 0)
(267.67 85.3513 0)
(274.887 91.1759 0)
(296.468 95.0305 -3.28811e-15)
(303.127 101.726 0)
(330.504 106.889 -3.44238e-15)
(336.177 113.795 1.01851e-18)
(370.775 120.903 1.75464e-15)
(377.269 128.172 -4.20443e-17)
(431.737 141.789 0)
(440.552 148.003 -5.59077e-16)
(580.931 199.552 9.86285e-17)
(678.931 -7.17554 -1.65866e-16)
(532.461 -104.563 -2.56443e-16)
(447.918 -89.9792 0)
(383.309 -81.002 3.67634e-17)
(356.612 -73.5629 0)
(323.684 -69.0763 0)
(312.681 -64.9448 3.54557e-17)
(290.799 -61.9384 -2.56182e-16)
(282.046 -58.6748 -6.12248e-20)
(264.538 -56.1437 5.11989e-20)
(256.14 -53.3662 -1.28955e-16)
(241.897 -51.1855 -1.90894e-16)
(233.96 -48.8293 1.79709e-16)
(222.416 -46.9683 4.39948e-16)
(215.439 -45.0943 -4.14728e-20)
(207.001 -43.7558 0)
(202.375 -42.633 2.58787e-16)
(197.682 -42.016 2.87388e-16)
(195.637 -41.5241 6.16664e-16)
(193.413 -41.2706 -3.42029e-16)
(192.228 -40.9179 3.72705e-16)
(190.415 -40.6041 3.53997e-20)
(188.811 -40.148 4.46778e-16)
(186.657 -39.7045 0)
(184.579 -39.1687 -1.04461e-15)
(182.194 -38.6663 0)
(179.853 -38.1206 5.931e-16)
(177.349 -37.5798 0)
(174.924 -37.0428 0)
(172.437 -36.5107 -6.71561e-16)
(170.149 -36.0476 0)
(167.994 -35.6196 0)
(166.279 -35.3457 6.28631e-16)
(164.78 -35.0612 -5.92343e-16)
(163.656 -34.9229 0)
(162.43 -34.6359 -5.49718e-16)
(161.469 -34.4935 0)
(160.233 -34.1301 0)
(159.352 -34.0305 0)
(158.041 -33.589 0)
(157.307 -33.6005 0)
(155.861 -33.0206 6.26724e-16)
(155.385 -33.2434 6.51245e-16)
(153.661 -32.4139 0)
(153.53 -33.0247 -7.04702e-16)
(151.672 -31.7688 0)
(103.35 20.2386 0)
(122.655 31.7041 2.63263e-15)
(129.245 33.4197 0)
(133.244 36.2732 0)
(136.966 37.9848 -1.54358e-15)
(139.949 39.2602 1.55793e-15)
(142.494 40.3258 -1.55373e-15)
(144.729 41.2946 -1.30868e-19)
(146.623 42.1241 0)
(148.179 42.8716 0)
(149.411 43.5031 1.58631e-15)
(150.339 44.0476 1.62161e-15)
(151.023 44.4841 -1.66404e-15)
(151.508 44.859 0)
(151.893 45.1512 -1.7568e-15)
(152.215 45.4365 0)
(152.601 45.6969 0)
(153.051 45.9983 0)
(153.662 46.2937 0)
(154.382 46.681 -1.99524e-15)
(155.333 47.0589 0)
(156.394 47.5726 -4.23471e-15)
(157.763 48.0742 -2.18759e-15)
(159.242 48.7354 2.26404e-15)
(161.095 49.3579 2.34681e-15)
(163.034 50.2087 2.43428e-15)
(165.466 50.9651 5.05523e-15)
(167.912 52.0423 2.62377e-15)
(171.037 52.9584 5.45138e-15)
(174.06 54.2967 -2.8269e-15)
(178.001 55.383 5.87176e-15)
(181.654 57.0644 3.03668e-15)
(186.616 58.3434 2.86904e-19)
(190.969 60.4353 3.24158e-15)
(197.2 61.9145 -3.34626e-15)
(202.288 64.5222 -6.85942e-15)
(210.146 66.2355 0)
(216.003 69.4632 0)
(225.956 71.4603 3.60818e-15)
(232.594 75.4776 3.62741e-15)
(245.382 77.8315 -3.60451e-15)
(252.719 82.81 -3.502e-15)
(269.314 85.6871 0)
(276.919 91.7738 0)
(298.449 95.4856 0)
(305.661 102.487 0)
(332.576 107.372 1.257e-15)
(338.497 114.425 5.6667e-16)
(372.499 121.231 -6.66323e-16)
(379.228 128.581 6.34662e-17)
(433.276 141.975 0)
(442.655 148.097 8.78708e-16)
(581.637 198.794 -1.61332e-16)
(679.007 -6.87308 1.26786e-16)
(537.332 -104.41 1.34646e-18)
(458.327 -91.3759 0)
(394.047 -82.8429 0)
(365.855 -75.1251 0)
(331.562 -70.5122 -8.71196e-17)
(319.412 -66.123 -3.21479e-17)
(296.841 -63.0369 1.15975e-16)
(287.496 -59.6216 -1.10056e-16)
(269.624 -57.0498 4.50493e-20)
(260.859 -54.1788 0)
(246.37 -51.971 -1.7155e-16)
(238.169 -49.5521 -1.61271e-16)
(226.455 -47.6757 -1.9781e-16)
(219.322 -45.7751 -1.97621e-16)
(210.824 -44.4513 2.24603e-16)
(206.159 -43.3399 0)
(201.462 -42.7502 -5.20978e-16)
(199.382 -42.2652 -5.59831e-16)
(197.097 -42.0104 3.11028e-16)
(195.809 -41.6349 0)
(193.878 -41.2947 3.73713e-16)
(192.148 -40.8051 0)
(189.877 -40.3332 0)
(187.692 -39.7699 3.09403e-20)
(185.218 -39.2461 0)
(182.802 -38.6814 -2.95433e-20)
(180.237 -38.126 0)
(177.761 -37.5771 -5.89487e-16)
(175.234 -37.0369 6.05511e-16)
(172.914 -36.5704 -6.07525e-16)
(170.734 -36.1423 0)
(168.977 -35.8675 -5.58786e-16)
(167.403 -35.5726 1.90853e-20)
(166.164 -35.4146 0)
(164.811 -35.1005 9.71313e-16)
(163.718 -34.9323 -4.83465e-16)
(162.373 -34.5436 0)
(161.391 -34.4259 -5.00896e-16)
(160.01 -33.9657 -5.16356e-16)
(159.205 -33.9678 0)
(157.719 -33.3725 -5.56057e-16)
(157.19 -33.5935 -6.78276e-22)
(155.445 -32.7455 0)
(155.268 -33.3699 6.26715e-16)
(153.38 -32.077 -6.55391e-16)
(103.228 19.5662 0)
(121.741 30.9102 -3.54749e-19)
(128.183 32.8697 0)
(132.243 35.8199 0)
(135.982 37.5638 0)
(139.008 38.875 0)
(141.62 39.9751 1.24203e-19)
(143.936 40.9816 -1.32087e-15)
(145.913 41.8491 -1.33018e-15)
(147.547 42.6336 0)
(148.846 43.2974 0)
(149.829 43.8696 0)
(150.557 44.3275 -1.43249e-15)
(151.077 44.7188 1.46815e-15)
(151.492 45.0224 1.50406e-15)
(151.842 45.3163 0)
(152.257 45.5822 0)
(152.738 45.8893 0)
(153.383 46.1896 0)
(154.142 46.5836 7.21715e-20)
(155.134 46.9675 1.7407e-15)
(156.239 47.4894 3.58821e-15)
(157.653 47.9972 9.07688e-20)
(159.178 48.668 -3.83296e-15)
(161.078 49.2965 1.9853e-15)
(163.064 50.1583 0)
(165.544 50.9202 -4.26915e-15)
(168.04 52.0105 2.21269e-15)
(171.213 52.9308 -1.61002e-19)
(174.289 54.2859 0)
(178.281 55.3747 -2.46603e-15)
(181.994 57.0783 0)
(187.008 58.3563 2.63746e-15)
(191.429 60.479 -2.70889e-15)
(197.713 61.9511 2.79462e-15)
(202.883 64.6029 2.85851e-15)
(210.792 66.2989 0)
(216.752 69.5914 0)
(226.753 71.554 -6.0029e-15)
(233.526 75.6668 -3.01432e-15)
(246.351 77.9609 2.98835e-15)
(253.875 83.0796 1.05459e-18)
(270.49 85.8677 2.76247e-15)
(278.386 92.1559 0)
(299.882 95.755 1.97165e-15)
(307.452 102.959 1.26554e-15)
(334.02 107.63 -9.39885e-16)
(340.07 114.772 0)
(373.699 121.373 0)
(380.619 128.772 -4.91226e-17)
(434.416 142.009 0)
(444.293 148.005 -7.18175e-16)
(582.157 197.94 6.83191e-17)
(678.917 -6.60416 -1.02578e-16)
(540.691 -104.042 1.58371e-16)
(466.555 -92.3513 0)
(403.288 -84.3576 0)
(374.231 -76.4935 0)
(338.84 -71.8044 8.02377e-17)
(325.68 -67.1945 0)
(302.482 -64.0402 1.06248e-16)
(292.594 -60.4889 1.00421e-16)
(274.389 -57.8814 1.31389e-16)
(265.288 -54.9268 0)
(250.579 -52.6956 1.56622e-16)
(242.139 -50.2215 1.47119e-16)
(230.275 -48.3335 0)
(223.007 -46.4126 1.80658e-16)
(214.463 -45.1062 -3.16165e-20)
(209.766 -44.0088 0)
(205.064 -43.4453 3.23774e-20)
(202.942 -42.9655 5.16369e-16)
(200.586 -42.7066 2.87222e-16)
(199.187 -42.3062 -3.13138e-16)
(197.13 -41.9374 0)
(195.268 -41.4133 0)
(192.875 -40.9121 0)
(190.582 -40.321 4.36725e-16)
(188.015 -39.7754 0)
(185.522 -39.1917 -4.93852e-16)
(182.894 -38.6217 -5.19294e-16)
(180.366 -38.0608 5.40474e-16)
(177.798 -37.5125 0)
(175.444 -37.0423 5.53659e-16)
(173.234 -36.6132 0)
(171.429 -36.3356 5.03818e-16)
(169.778 -36.0286 4.71125e-16)
(168.425 -35.8504 -4.4776e-16)
(166.951 -35.5105 -4.35786e-16)
(165.736 -35.3188 4.34254e-16)
(164.291 -34.9073 -4.39633e-16)
(163.218 -34.7736 4.50887e-16)
(161.772 -34.2969 4.65124e-16)
(160.904 -34.2906 0)
(159.378 -33.6817 0)
(158.801 -33.9006 -5.22483e-16)
(157.034 -33.0361 0)
(156.816 -33.6721 0)
(154.895 -32.3458 5.92074e-16)
(103.107 18.9155 0)
(120.878 30.1291 -1.77488e-15)
(127.186 32.3389 0)
(131.312 35.3822 0)
(135.072 37.1593 0)
(138.136 38.5055 0)
(140.803 39.6366 2.27219e-15)
(143.183 40.6763 0)
(145.229 41.5776 8.64002e-20)
(146.926 42.3954 0)
(148.28 43.0885 0)
(149.307 43.6857 0)
(150.069 44.1628 1.25922e-15)
(150.616 44.5684 -1.28804e-15)
(151.054 44.8815 1.31658e-15)
(151.426 45.1819 1.34464e-15)
(151.863 45.4515 0)
(152.371 45.7626 0)
(153.047 46.0664 0)
(153.839 46.4653 1.4718e-15)
(154.869 46.8538 -1.51302e-15)
(156.013 47.3821 -3.11726e-15)
(157.468 47.8945 3.21829e-15)
(159.033 48.573 1.66328e-15)
(160.975 49.2061 -3.44394e-15)
(163.003 50.0763 0)
(165.525 50.8422 3.69558e-15)
(168.064 51.9424 -1.91275e-15)
(171.28 52.8653 -1.9824e-15)
(174.401 54.233 0)
(178.436 55.3226 -2.12133e-15)
(182.198 57.0428 0)
(187.257 58.3184 2.25938e-15)
(191.732 60.4643 2.31501e-15)
(198.061 61.9289 0)
(203.293 64.614 0)
(211.247 66.2938 2.48073e-15)
(217.283 69.6355 0)
(227.327 71.5683 2.53603e-15)
(234.198 75.7539 -2.5325e-15)
(247.061 77.9985 -5.00877e-15)
(254.721 83.225 2.40814e-15)
(271.365 85.9434 -2.26506e-15)
(279.479 92.3844 1.93034e-15)
(300.958 95.8943 -1.52647e-15)
(308.747 103.229 -9.49701e-16)
(335.066 107.745 7.28917e-16)
(341.183 114.942 0)
(374.571 121.397 0)
(381.653 128.824 3.93127e-17)
(435.298 141.945 0)
(445.626 147.792 3.02655e-16)
(582.544 197.024 5.91509e-17)
(678.744 -6.35909 0)
(543.147 -103.563 0)
(473.051 -92.9986 3.64047e-16)
(411.15 -85.5781 2.7233e-17)
(381.76 -77.677 0)
(345.544 -72.9606 7.42271e-17)
(331.523 -68.1679 -2.74305e-17)
(307.766 -64.9587 -1.966e-16)
(297.385 -61.2868 -4.6321e-17)
(278.88 -58.649 1.21315e-16)
(269.475 -55.6199 0)
(254.568 -53.369 0)
(245.913 -50.8464 -1.35802e-16)
(233.918 -48.9505 1.67155e-16)
(226.532 -47.0144 -1.67325e-16)
(217.952 -45.7277 -1.91216e-16)
(213.227 -44.6459 -1.99811e-16)
(208.517 -44.1071 2.23737e-16)
(206.344 -43.6306 -4.8216e-16)
(203.908 -43.3646 -2.68505e-16)
(202.39 -42.9373 2.92743e-16)
(200.201 -42.5382 0)
(198.202 -41.9786 0)
(195.683 -41.4475 0)
(193.277 -40.8286 4.06881e-16)
(190.617 -40.2611 0)
(188.045 -39.6584 0)
(185.354 -39.0738 4.82213e-16)
(182.772 -38.5011 5.01067e-16)
(180.162 -37.9448 0)
(177.773 -37.4706 0)
(175.53 -37.0394 0)
(173.672 -36.7574 -9.18749e-16)
(171.939 -36.4368 -4.28163e-16)
(170.475 -36.2381 8.13225e-16)
(168.886 -35.8739 0)
(167.559 -35.6607 3.95003e-16)
(166.022 -35.229 4.00364e-16)
(164.867 -35.0812 0)
(163.361 -34.59 0)
(162.436 -34.5762 0)
(160.873 -33.9551 0)
(160.251 -34.1719 0)
(158.462 -33.2924 0)
(158.207 -33.9385 0)
(156.252 -32.5817 5.41898e-16)
(102.99 18.2898 0)
(120.057 29.3676 1.53883e-15)
(126.242 31.8244 0)
(130.435 34.9564 8.95169e-16)
(134.219 36.7677 -9.42603e-16)
(137.319 38.1487 0)
(140.034 39.3087 -9.59852e-20)
(142.469 40.3784 0)
(144.57 41.3104 7.74135e-20)
(146.319 42.1585 -1.05547e-15)
(147.716 42.8785 -1.07713e-15)
(148.779 43.4985 0)
(149.568 43.9931 1.12496e-15)
(150.135 44.4113 0)
(150.59 44.7324 -1.17283e-15)
(150.979 45.0378 -1.19602e-15)
(151.437 45.31 -1.21972e-15)
(151.967 45.6238 0)
(152.671 45.9299 0)