/*--------------------------------*- C++ -*----------------------------------*\
| =========                 |                                                 |
| \\      /  F ield         | OpenFOAM: The Open Source CFD Toolbox           |
|  \\    /   O peration     | Version:  2412                                  |
|   \\  /    A nd           | Website:  www.openfoam.com                      |
|    \\/     M anipulation  |                                                 |
\*---------------------------------------------------------------------------*/
FoamFile
{
    version     2.0;
    format      ascii;
    arch        "LSB;label=32;scalar=64";
    class       volScalarField;
    location    "0.5";
    object      epsilon;
}
// * * * * * * * * * * * * * * * * * * * * * * * * * * * * * * * * * * * * * //

dimensions      [0 2 -3 0 0 0 0];

internalField   nonuniform List<scalar> 
12960
(
382.716
402.149
454.177
560.077
719.838
897.666
1047.87
1146.78
1193.13
1191.2
1150.47
1091.85
1038.06
1001.94
983.97
980.457
986.672
1000.41
1019.25
1043.33
1071.15
1104.22
1140.96
1184.12
1231.37
1287.16
1347.68
1420.07
1497.96
1592.83
1693.93
1820.17
1953.25
2124.97
2304.08
2545.15
2795.64
3151.98
3528.72
4098.56
4716.16
5674.47
6696.07
8230.86
9686.85
11640
13068.5
14999.8
16628
18926.7
21032.1
18515.2
18367.1
11575.9
7860.27
6828.24
7538.09
7735.69
7782.34
6985.3
6315.05
5452.34
4876.77
4263.2
3850.19
3431.03
3150.5
2883.91
2710.02
2543.41
2427.41
2311.14
2221.39
2126.62
2041.34
1947.11
1852.9
1751.52
1651.46
1553.61
1463.83
1384.08
1315.06
1257.5
1207.78
1166.43
1127.58
1093.66
1057.99
1025.49
988.623
954.216
914.081
875.49
831.675
787.559
741.541
696.729
643.294
382.816
402.532
455.221
562.259
723.361
902.122
1052.42
1150.67
1196.02
1193.07
1151.33
1091.76
1037.24
1000.69
982.553
979.042
985.333
999.171
1018.1
1042.25
1070.12
1103.23
1139.99
1183.15
1230.39
1286.15
1346.64
1418.98
1496.8
1591.59
1692.58
1818.68
1951.61
2123.11
2301.96
2542.69
2792.75
3148.54
3524.64
4093.8
4710.83
5668.88
6690.74
8226.73
9683.94
11638.2
13064.9
14995.7
16623.9
18942.4
21073.1
18588.6
18529.4
11729.6
7978.38
6912.83
7596.2
7771.27
7802.95
6996.03
6320.1
5454.17
4876.92
4262.53
3849.11
3429.71
3149.01
2882.4
2708.58
2542.14
2426.32
2310.26
2220.72
2126.18
2041.1
1947.02
1852.87
1751.46
1651.31
1553.33
1463.44
1383.62
1314.6
1257.1
1207.48
1166.26
1127.56
1093.79
1058.26
1025.92
989.203
954.982
915.015
876.638
833.015
789.104
743.291
698.631
645.13
382.917
402.919
456.272
564.454
726.905
906.604
1057.01
1154.59
1198.95
1194.97
1152.23
1091.7
1036.43
999.441
981.142
977.631
983.997
997.932
1016.95
1041.18
1069.1
1102.25
1139.02
1182.19
1229.41
1285.15
1345.6
1417.88
1495.64
1590.35
1691.25
1817.21
1949.98
2121.27
2299.86
2540.24
2789.87
3145.1
3520.57
4089.05
4705.5
5663.3
6685.44
8222.64
9681.09
11636.5
13061.3
14991.5
16619.7
18958.2
21114.3
18662.6
18694
11886.3
8099.69
6999.83
7655.51
7807.2
7823.52
7006.6
6325.01
5455.89
4876.98
4261.78
3847.97
3428.36
3147.5
2880.86
2707.13
2540.86
2425.22
2309.37
2220.06
2125.75
2040.87
1946.94
1852.85
1751.42
1651.17
1553.06
1463.05
1383.16
1314.14
1256.7
1207.18
1166.09
1127.54
1093.92
1058.54
1026.36
989.796
955.761
915.965
877.805
834.376
790.674
745.07
700.565
646.996
383.019
403.31
457.332
566.667
730.473
911.116
1061.62
1158.55
1201.91
1196.91
1153.15
1091.66
1035.62
998.194
979.728
976.217
982.659
996.689
1015.8
1040.1
1068.08
1101.26
1138.05
1181.22
1228.44
1284.14
1344.56
1416.79
1494.49
1589.1
1689.9
1815.73
1948.34
2119.41
2297.75
2537.77
2786.98
3141.65
3516.47
4084.27
4700.15
5657.68
6680.1
8218.52
9678.22
11634.7
13057.7
14987.2
16615.3
18973.9
21155.3
18736.8
18860.7
12046.1
8224.3
7089.32
7716.04
7843.44
7843.97
7016.96
6329.71
5457.43
4876.9
4260.93
3846.75
3426.94
3145.93
2879.27
2705.64
2539.54
2424.09
2308.46
2219.37
2125.3
2040.63
1946.85
1852.83
1751.38
1651.03
1552.78
1462.65
1382.7
1313.67
1256.29
1206.88
1165.93
1127.52
1094.05
1058.82
1026.8
990.393
956.547
916.924
878.985
835.754
792.264
746.874
702.526
648.889
383.123
403.705
458.403
568.899
734.068
915.659
1066.27
1162.54
1204.9
1198.87
1154.09
1091.62
1034.82
996.945
978.311
974.797
981.315
995.441
1014.65
1039.02
1067.06
1100.27
1137.08
1180.25
1227.45
1283.13
1343.51
1415.69
1493.32
1587.85
1688.55
1814.25
1946.7
2117.55
2295.62
2535.3
2784.08
3138.18
3512.35
4079.45
4694.74
5652.02
6674.7
8214.34
9675.27
11632.8
13053.9
14982.7
16610.5
18989.2
21196
18811.3
19029.5
12208.9
8352.37
7181.48
7777.88
7880.02
7864.29
7027.05
6334.17
5458.77
4876.65
4259.94
3845.43
3425.42
3144.28
2877.62
2704.09
2538.18
2422.92
2307.51
2218.66
2124.84
2040.38
1946.75
1852.79
1751.32
1650.87
1552.49
1462.25
1382.22
1313.19
1255.87
1206.57
1165.75
1127.5
1094.18
1059.1
1027.25
990.994
957.339
917.892
880.177
837.146
793.874
748.7
704.514
650.806
383.227
404.105
459.484
571.149
737.689
920.232
1070.95
1166.56
1207.92
1200.85
1155.05
1091.59
1034.02
995.692
976.887
973.371
979.965
994.187
1013.48
1037.93
1066.02
1099.27
1136.1
1179.27
1226.46
1282.11
1342.46
1414.58
1492.15
1586.59
1687.19
1812.75
1945.04
2115.67
2293.48
2532.8
2781.15
3134.68
3508.2
4074.59
4689.29
5646.29
6669.24
8210.1
9672.25
11630.9
13049.9
14977.9
16605.3
19004.3
21236.5
18886
19200.5
12374.9
8484.1
7276.48
7841.14
7917
7884.49
7036.9
6338.37
5459.89
4876.23
4258.82
3843.99
3423.82
3142.55
2875.9
2702.48
2536.76
2421.72
2306.53
2217.92
2124.35
2040.1
1946.63
1852.75
1751.26
1650.71
1552.2
1461.83
1381.73
1312.7
1255.44
1206.25
1165.58
1127.47
1094.31
1059.38
1027.69
991.596
958.136
918.866
881.379
838.552
795.501
750.549
706.528
652.75
383.334
404.509
460.576
573.418
741.336
924.837
1075.66
1170.61
1210.97
1202.86
1156.02
1091.57
1033.22
994.435
975.456
971.938
978.607
992.926
1012.31
1036.84
1064.98
1098.27
1135.11
1178.28
1225.46
1281.09
1341.4
1413.46
1490.97
1585.32
1685.82
1811.24
1943.37
2113.78
2291.32
2530.29
2778.2
3131.16
3504.01
4069.69
4683.79
5640.5
6663.71
8205.78
9669.14
11628.8
13045.8
14972.9
16599.7
19019
21276.6
18960.9
19373.7
12544.3
8619.71
7374.54
7905.96
7954.43
7904.6
7046.49
6342.32
5460.81
4875.64
4257.55
3842.44
3422.13
3140.75
2874.12
2700.81
2535.3
2420.47
2305.52
2217.15
2123.83
2039.81
1946.5
1852.69
1751.18
1650.53
1551.89
1461.4
1381.23
1312.2
1255
1205.92
1165.39
1127.43
1094.44
1059.66
1028.14
992.201
958.937
919.848
882.591
839.972
797.148
752.421
708.568
654.719
383.441
404.918
461.678
575.706
745.01
929.472
1080.41
1174.7
1214.04
1204.89
1157.01
1091.56
1032.42
993.173
974.019
970.498
977.243
991.658
1011.14
1035.73
1063.94
1097.25
1134.12
1177.29
1224.46
1280.05
1340.33
1412.33
1489.78
1584.04
1684.44
1809.71
1941.68
2111.87
2289.15
2527.75
2775.22
3127.6
3499.78
4064.75
4678.23
5634.65
6658.11
8201.39
9665.95
11626.6
13041.5
14967.6
16593.8
19033.3
21316.5
19036
19549.2
12717.3
8759.44
7475.88
7972.49
7992.39
7924.65
7055.85
6346.02
5461.51
4874.88
4256.15
3840.78
3420.34
3138.87
2872.26
2699.09
2533.8
2419.18
2304.47
2216.35
2123.29
2039.49
1946.35
1852.62
1751.09
1650.35
1551.57
1460.95
1380.72
1311.69
1254.55
1205.59
1165.19
1127.39
1094.56
1059.93
1028.58
992.808
959.743
920.836
883.815
841.407
798.813
754.317
710.636
656.716
383.55
405.331
462.791
578.012
748.71
934.138
1085.19
1178.82
1217.15
1206.94
1158.01
1091.56
1031.62
991.907
972.576
969.051
975.871
990.383
1009.96
1034.63
1062.88
1096.24
1133.12
1176.29
1223.45
1279.01
1339.25
1411.19
1488.58
1582.75
1683.05
1808.18
1939.99
2109.95
2286.96
2525.2
2772.23
3124.03
3495.53
4059.77
4672.63
5628.75
6652.45
8196.94
9662.68
11624.3
13037.1
14962.1
16587.4
19047.4
21355.9
19111.2
19727
12894
8903.56
7580.75
8040.87
8030.96
7944.68
7064.99
6349.48
5462
4873.94
4254.62
3839.01
3418.47
3136.92
2870.35
2697.32
2532.24
2417.85
2303.39
2215.53
2122.73
2039.16
1946.19
1852.53
1751
1650.15
1551.24
1460.5
1380.2
1311.16
1254.09
1205.24
1164.99
1127.35
1094.68
1060.21
1029.03
993.418
960.553
921.833
885.05
842.856
800.498
756.237
712.732
658.742
383.661
405.748
463.914
580.337
752.435
938.834
1090
1182.97
1220.28
1209.01
1159.03
1091.56
1030.82
990.637
971.126
967.597
974.493
989.102
1008.77
1033.51
1061.83
1095.21
1132.11
1175.28
1222.43
1277.96
1338.16
1410.05
1487.37
1581.45
1681.65
1806.64
1938.28
2108.01
2284.76
2522.63
2769.22
3120.43
3491.24
4054.75
4666.98
5622.8
6646.74
8192.43
9659.34
11621.9
13032.5
14956.3
16580.7
19061.1
21395.1
19186.8
19907.4
13074.6
9052.34
7689.4
8111.28
8070.25
7964.72
7073.92
6352.71
5462.29
4872.84
4252.95
3837.14
3416.51
3134.9
2868.37
2695.49
2530.64
2416.49
2302.28
2214.67
2122.14
2038.81
1946.01
1852.44
1750.89
1649.94
1550.89
1460.03
1379.66
1310.63
1253.62
1204.89
1164.79
1127.3
1094.79
1060.48
1029.48
994.03
961.37
922.837
886.296
844.321
802.203
758.183
714.857
660.797
383.772
406.17
465.047
582.679
756.185
943.559
1094.84
1187.15
1223.44
1211.11
1160.07
1091.58
1030.02
989.363
969.67
966.137
973.109
987.815
1007.57
1032.39
1060.76
1094.18
1131.1
1174.27
1221.4
1276.91
1337.07
1408.9
1486.15
1580.14
1680.23
1805.08
1936.56
2106.07
2282.54
2520.05
2766.19
3116.8
3486.93
4049.7
4661.29
5616.79
6640.97
8187.86
9655.93
11619.4
13027.7
14950.2
16573.6
19074.5
21434
19262.5
20090.4
13259.3
9206.06
7802.11
8183.89
8110.33
7984.83
7082.67
6355.72
5462.38
4871.58
4251.16
3835.17
3414.48
3132.81
2866.34
2693.61
2529
2415.09
2301.14
2213.8
2121.54
2038.44
1945.82
1852.34
1750.77
1649.73
1550.54
1459.56
1379.11
1310.08
1253.14
1204.53
1164.57
1127.25
1094.9
1060.76
1029.93
994.646
962.192
923.85
887.555
845.801
803.929
760.155
717.013
662.882
383.886
406.597
466.191
585.04
759.96
948.313
1099.72
1191.36
1226.63
1213.23
1161.12
1091.6
1029.22
988.085
968.209
964.67
971.717
986.521
1006.37
1031.26
1059.69
1093.14
1130.08
1173.25
1220.37
1275.84
1335.96
1407.74
1484.92
1578.82
1678.81
1803.52
1934.83
2104.11
2280.31
2517.45
2763.14
3113.16
3482.59
4044.61
4655.55
5610.74
6635.14
8183.24
9652.46
11616.8
13022.8
14944
16566.1
19087.5
21472.5
19338.6
20276.1
13448.4
9365.03
7919.16
8258.89
8151.31
8005.05
7091.26
6358.51
5462.29
4870.17
4249.24
3833.1
3412.36
3130.65
2864.25
2691.69
2527.32
2413.65
2299.97
2212.9
2120.92
2038.06
1945.62
1852.22
1750.65
1649.5
1550.18
1459.07
1378.56
1309.52
1252.66
1204.16
1164.36
1127.19
1095.02
1061.03
1030.38
995.265
963.02
924.871
888.827
847.298
805.677
762.154
719.2
665
384
407.028
467.345
587.418
763.759
953.096
1104.62
1195.61
1229.85
1215.37
1162.19
1091.63
1028.43
986.803
966.741
963.196
970.319
985.221
1005.16
1030.13
1058.61
1092.1
1129.06
1172.22
1219.33
1274.77
1334.85
1406.57
1483.69
1577.49
1677.38
1801.95
1933.09
2102.14
2278.06
2514.84
2760.07
3109.49
3478.23
4039.49
4649.78
5604.65
6629.27
8178.57
9648.94
11614.2
13017.8
14937.5
16558.2
19100.3
21510.7
19414.9
20464.6
13642
9529.55
8040.86
8336.49
8193.3
8025.44
7099.72
6361.1
5462.01
4868.6
4247.21
3830.94
3410.17
3128.42
2862.1
2689.71
2525.59
2412.18
2298.77
2211.97
2120.27
2037.66
1945.41
1852.1
1750.52
1649.27
1549.81
1458.57
1377.99
1308.96
1252.16
1203.78
1164.13
1127.13
1095.13
1061.3
1030.83
995.889
963.855
925.902
890.112
848.812
807.447
764.18
721.42
667.15
384.116
407.464
468.509
589.813
767.581
957.907
1109.56
1199.89
1233.09
1217.54
1163.27
1091.67
1027.63
985.518
965.267
961.716
968.915
983.914
1003.95
1028.99
1057.53
1091.05
1128.02
1171.19
1218.28
1273.7
1333.74
1405.39
1482.45
1576.16
1675.95
1800.37
1931.35
2100.16
2275.81
2512.21
2756.99
3105.81
3473.84
4034.34
4643.97
5598.51
6623.36
8173.85
9645.36
11611.5
13012.6
14930.8
16550
19112.8
21548.7
19491.5
20656.1
13840.5
9699.96
8167.51
8416.9
8236.42
8046.04
7108.06
6363.5
5461.56
4866.89
4245.06
3828.69
3407.9
3126.14
2859.9
2687.69
2523.83
2410.69
2297.55
2211.03
2119.61
2037.25
1945.19
1851.97
1750.38
1649.04
1549.44
1458.07
1377.41
1308.38
1251.65
1203.4
1163.9
1127.07
1095.23
1061.58
1031.28
996.516
964.697
926.942
891.411
850.344
809.241
766.236
723.672
669.335
384.234
407.904
469.683
592.226
771.427
962.746
1114.53
1204.2
1236.37
1219.72
1164.38
1091.71
1026.84
984.23
963.788
960.23
967.505
982.602
1002.73
1027.85
1056.44
1089.99
1126.99
1170.15
1217.23
1272.61
1332.62
1404.21
1481.2
1574.82
1674.5
1798.78
1929.59
2098.17
2273.54
2509.58
2753.89
3102.1
3469.42
4029.16
4638.13
5592.33
6617.4
8169.1
9641.74
11608.7
13007.3
14923.9
16541.5
19124.9
21586.3
19568.5
20850.7
14044
9876.61
8299.47
8500.33
8280.8
8066.92
7116.32
6365.73
5460.94
4865.04
4242.81
3826.35
3405.57
3123.8
2857.66
2685.63
2522.04
2409.16
2296.3
2210.06
2118.94
2036.83
1944.96
1851.84
1750.24
1648.79
1549.05
1457.55
1376.83
1307.8
1251.14
1203.01
1163.67
1127
1095.34
1061.85
1031.74
997.149
965.545
927.993
892.723
851.894
811.057
768.32
725.959
671.554
384.353
408.349
470.867
594.655
775.296
967.612
1119.53
1208.54
1239.67
1221.93
1165.49
1091.77
1026.05
982.938
962.304
958.737
966.089
981.284
1001.51
1026.7
1055.34
1088.93
1125.94
1169.1
1216.17
1271.52
1331.49
1403.02
1479.95
1573.47
1673.05
1797.18
1927.82
2096.17
2271.27
2506.93
2750.78
3098.39
3464.99
4023.95
4632.25
5586.12
6611.41
8164.31
9638.07
11605.9
13001.9
14916.7
16532.6
19136.8
21623.7
19645.9
21048.5
14252.9
10059.9
8437.08
8587.04
8326.56
8088.14
7124.52
6367.8
5460.16
4863.06
4240.45
3823.94
3403.17
3121.4
2855.36
2683.53
2520.21
2407.6
2295.04
2209.08
2118.25
2036.39
1944.72
1851.7
1750.09
1648.55
1548.66
1457.03
1376.23
1307.21
1250.62
1202.62
1163.44
1126.94
1095.45
1062.13
1032.2
997.786
966.402
929.054
894.051
853.462
812.898
770.435
728.28
673.81
384.474
408.798
472.061
597.101
779.187
972.505
1124.56
1212.91
1243
1224.17
1166.63
1091.84
1025.26
981.643
960.814
957.239
964.666
979.959
1000.28
1025.54
1054.24
1087.87
1124.89
1168.05
1215.11
1270.43
1330.35
1401.83
1478.68
1572.11
1671.59
1795.57
1926.05
2094.17
2268.98
2504.27
2747.66
3094.65
3460.54
4018.72
4626.35
5579.87
6605.38
8159.49
9634.38
11603
12996.4
14909.4
16523.3
19148.4
21660.8
19723.7
21249.7
14467.3
10250.1
8580.71
8677.27
8373.84
8109.77
7132.7
6369.72
5459.23
4860.95
4237.99
3821.44
3400.71
3118.95
2853.03
2681.39
2518.35
2406.02
2293.75
2208.08
2117.54
2035.95
1944.48
1851.55
1749.94
1648.3
1548.27
1456.51
1375.63
1306.61
1250.1
1202.22
1163.2
1126.87
1095.56
1062.4
1032.67
998.429
967.266
930.125
895.393
855.049
814.764
772.581
730.638
676.103
384.596
409.252
473.265
599.563
783.1
977.424
1129.62
1217.32
1246.36
1226.42
1167.78
1091.91
1024.47
980.346
959.319
955.735
963.238
978.63
999.04
1024.38
1053.14
1086.79
1123.84
1167
1214.04
1269.33
1329.21
1400.63
1477.42
1570.75
1670.12
1793.96
1924.27
2092.15
2266.69
2501.6
2744.52
3090.9
3456.07
4013.47
4620.41
5573.59
6599.32
8154.64
9630.65
11600
12990.7
14901.9
16513.8
19159.7
21697.6
19802
21454.4
14687.7
10447.7
8730.76
8771.29
8422.8
8131.87
7140.89
6371.51
5458.17
4858.73
4235.44
3818.88
3398.2
3116.46
2850.65
2679.22
2516.46
2404.41
2292.44
2207.06
2116.83
2035.5
1944.23
1851.4
1749.79
1648.04
1547.87
1455.98
1375.02
1306
1249.56
1201.82
1162.95
1126.8
1095.66
1062.68
1033.13
999.077
968.139
931.208
896.75
856.656
816.655
774.758
733.033
678.435
384.719
409.711
474.479
602.041
787.035
982.369
1134.71
1221.75
1249.74
1228.7
1168.95
1092
1023.69
979.045
957.819
954.225
961.804
977.294
997.798
1023.21
1052.03
1085.72
1122.78
1165.93
1212.96
1268.22
1328.06
1399.42
1476.14
1569.38
1668.65
1792.34
1922.48
2090.13
2264.39
2498.92
2741.38
3087.14
3451.58
4008.19
4614.45
5567.28
6593.24
8149.76
9626.89
11597.1
12985
14894.2
16504
19170.8
21734.2
19880.7
21662.8
14914.3
10653.1
8887.64
8869.39
8473.58
8154.54
7149.12
6373.18
5456.97
4856.39
4232.81
3816.25
3395.63
3113.92
2848.23
2677.01
2514.55
2402.79
2291.11
2206.03
2116.1
2035.04
1943.98
1851.25
1749.63
1647.78
1547.47
1455.44
1374.41
1305.39
1249.03
1201.41
1162.71
1126.72
1095.77
1062.96
1033.6
999.731
969.02
932.302
898.123
858.282
818.572
776.968
735.465
680.807
384.844
410.174
475.702
604.536
790.991
987.339
1139.83
1226.21
1253.16
1231
1170.14
1092.1
1022.9
977.742
956.314
952.71
960.365
975.954
996.552
1022.04
1050.91
1084.63
1121.71
1164.86
1211.88
1267.1
1326.91
1398.21
1474.86
1568.01
1667.17
1790.71
1920.68
2088.1
2262.08
2496.23
2738.22
3083.36
3447.07
4002.9
4608.47
5560.95
6587.12
8144.87
9623.12
11594.1
12979.3
14886.3
16493.8
19181.6
21770.6
19960
21875
15147.4
10866.7
9051.78
8971.85
8526.37
8177.83
7157.43
6374.75
5455.65
4853.95
4230.1
3813.55
3393.01
3111.33
2845.78
2674.78
2512.6
2401.14
2289.76
2204.99
2115.36
2034.57
1943.72
1851.1
1749.48
1647.53
1547.06
1454.9
1373.79
1304.77
1248.48
1201
1162.46
1126.65
1095.88
1063.25
1034.08
1000.39
969.91
933.407
899.512
859.929
820.516
779.211
737.937
683.219
384.971
410.642
476.936
607.046
794.968
992.334
1144.97
1230.71
1256.6
1233.32
1171.34
1092.2
1022.12
976.437
954.804
951.189
958.92
974.607
995.299
1020.86
1049.79
1083.54
1120.64
1163.79
1210.79
1265.99
1325.75
1396.99
1473.57
1566.63
1665.68
1789.08
1918.88
2086.06
2259.76
2493.53
2735.06
3079.58
3442.55
3997.58
4602.46
5554.59
6580.99
8139.96
9619.33
11591
12973.4
14878.3
16483.4
19192.2
21806.8
20039.9
22091.1
15387.4
11089
9223.63
9079.01
8581.33
8201.85
7165.85
6376.25
5454.22
4851.41
4227.31
3810.8
3390.35
3108.71
2843.29
2672.51
2510.64
2399.47
2288.41
2203.94
2114.62
2034.1
1943.46
1850.95
1749.32
1647.27
1546.65
1454.35
1373.17
1304.15
1247.94
1200.59
1162.21
1126.58
1095.99
1063.53
1034.56
1001.06
970.809
934.525
900.918
861.597
822.486
781.488
740.448
685.674
385.099
411.114
478.178
609.571
798.965
997.353
1150.15
1235.23
1260.06
1235.67
1172.56
1092.32
1021.35
975.13
953.29
949.662
957.469
973.256
994.042
1019.68
1048.66
1082.45
1119.57
1162.71
1209.7
1264.86
1324.59
1395.76
1472.28
1565.24
1664.19
1787.44
1917.07
2084.02
2257.43
2490.82
2731.89
3075.78
3438.02
3992.25
4596.44
5548.22
6574.83
8135.04
9615.52
11588
12967.5
14870.2
16472.7
19202.6
21842.8
20120.3
22311.4
15634.6
11320.5
9403.66
9191.18
8638.65
8226.68
7174.44
6377.69
5452.7
4848.79
4224.45
3807.99
3387.65
3106.06
2840.78
2670.22
2508.66
2397.79
2287.03
2202.87
2113.86
2033.62
1943.2
1850.8
1749.17
1647.01
1546.24
1453.8
1372.54
1303.52
1247.39
1200.17
1161.96
1126.51
1096.1
1063.82
1035.04
1001.73
971.718
935.654
902.34
863.286
824.484
783.799
743
688.171
385.229
411.591
479.431
612.112
802.982
1002.4
1155.35
1239.78
1263.56
1238.04
1173.8
1092.45
1020.58
973.82
951.771
948.131
956.014
971.899
992.78
1018.49
1047.53
1081.35
1118.49
1161.63
1208.6
1263.73
1323.42
1394.53
1470.98
1563.85
1662.69
1785.8
1915.26
2081.97
2255.1
2488.11
2728.71
3071.98
3433.47
3986.9
4590.39
5541.82
6568.66
8130.11
9611.72
11584.9
12961.5
14861.8
16461.7
19212.8
21878.6
20201.5
22536.1
15889.4
11561.6
9592.37
9308.72
8698.53
8252.4
7183.22
6379.08
5451.08
4846.08
4221.53
3805.14
3384.91
3103.37
2838.23
2667.91
2506.65
2396.09
2285.65
2201.8
2113.11
2033.15
1942.94
1850.65
1749.02
1646.75
1545.83
1453.25
1371.91
1302.89
1246.83
1199.75
1161.71
1126.43
1096.21
1064.12
1035.53
1002.41
972.635
936.797
903.78
864.996
826.511
786.146
745.593
690.713
385.361
412.072
480.693
614.668
807.018
1007.46
1160.58
1244.37
1267.08
1240.43
1175.05
1092.59
1019.81
972.509
950.248
946.594
954.553
970.538
991.513
1017.3
1046.39
1080.25
1117.4
1160.54
1207.5
1262.6
1322.24
1393.3
1469.68
1562.45
1661.19
1784.15
1913.44
2079.91
2252.77
2485.4
2725.52
3068.16
3428.91
3981.54
4584.33
5535.4
6562.48
8125.17
9607.91
11581.8
12955.4
14853.4
16450.5
19222.8
21914.3
20283.3
22765.2
16152.3
11812.9
9790.29
9432
8761.17
8279.14
7192.24
6380.46
5449.39
4843.3
4218.55
3802.24
3382.13
3100.65
2835.67
2665.57
2504.63
2394.38
2284.26
2200.71
2112.34
2032.66
1942.68
1850.5
1748.87
1646.49
1545.42
1452.69
1371.27
1302.25
1246.27
1199.32
1161.45
1126.36
1096.33
1064.41
1036.03
1003.1
973.563
937.952
905.236
866.728
828.566
788.528
748.229
693.3
385.494
412.559
481.964
617.238
811.074
1012.55
1165.83
1248.98
1270.63
1242.84
1176.32
1092.74
1019.04
971.196
948.721
945.052
953.087
969.171
990.241
1016.1
1045.25
1079.14
1116.31
1159.45
1206.4
1261.46
1321.06
1392.06
1468.37
1561.05
1659.68
1782.49
1911.61
2077.85
2250.42
2482.67
2722.32
3064.34
3424.34
3976.16
4578.25
5528.97
6556.28
8120.23
9604.1
11578.8
12949.3
14844.8
16439
19232.5
21949.8
20365.9
22999.1
16423.5
12074.9
9997.94
9561.41
8826.81
8306.98
7201.56
6381.83
5447.64
4840.45
4215.52
3799.31
3379.33
3097.91
2833.08
2663.22
2502.59
2392.65
2282.86
2199.63
2111.58
2032.18
1942.42
1850.36
1748.72
1646.23
1545.01
1452.13
1370.63
1301.61
1245.71
1198.9
1161.2
1126.29
1096.44
1064.71
1036.53
1003.79
974.501
939.119
906.711
868.483
830.649
790.947
750.908
695.934
385.629
413.049
483.245
619.823
815.148
1017.66
1171.11
1253.61
1274.2
1245.27
1177.61
1092.9
1018.28
969.882
947.189
943.506
951.616
967.8
988.964
1014.9
1044.11
1078.03
1115.21
1158.35
1205.28
1260.31
1319.88
1390.81
1467.06
1559.64
1658.17
1780.83
1909.78
2075.78
2248.08
2479.94
2719.12
3060.5
3419.77
3970.77
4572.15
5522.53
6550.08
8115.29
9600.3
11575.7
12943.2
14836.1
16427.3
19242.2
21985.2
20449.3
23237.8
16703.6
12348.2
10215.9
9697.35
8895.66
8336.04
7211.22
6383.23
5445.83
4837.55
4212.45
3796.34
3376.5
3095.15
2830.47
2660.85
2500.55
2390.92
2281.45
2198.53
2110.81
2031.7
1942.16
1850.22
1748.58
1645.98
1544.59
1451.57
1369.99
1300.97
1245.15
1198.47
1160.94
1126.22
1096.56
1065.01
1037.03
1004.49
975.449
940.3
908.203
870.26
832.763
793.403
753.631
698.615
385.765
413.545
484.535
622.423
819.24
1022.79
1176.42
1258.28
1277.8
1247.73
1178.92
1093.07
1017.52
968.566
945.654
941.954
950.14
966.423
987.682
1013.7
1042.96
1076.91
1114.11
1157.25
1204.17
1259.16
1318.69
1389.56
1465.74
1558.23
1656.65
1779.17
1907.95
2073.71
2245.73
2477.21
2715.92
3056.67
3415.18
3965.37
4566.04
5516.07
6543.86
8110.36
9596.51
11572.7
12937
14827.3
16415.3
19251.6
22020.4
20533.5
23481.6
16993.1
12633.4
10444.8
9840.25
8967.97
8366.43
7221.26
6384.67
5443.98
4834.6
4209.35
3793.35
3373.65
3092.36
2827.85
2658.46
2498.49
2389.18
2280.03
2197.44
2110.04
2031.22
1941.91
1850.08
1748.44
1645.73
1544.18
1451.01
1369.34
1300.32
1244.58
1198.04
1160.69
1126.15
1096.68
1065.32
1037.54
1005.2
976.407
941.494
909.713
872.059
834.906
795.896
756.4
701.346
385.903
414.045
485.834
625.036
823.35
1027.94
1181.74
1262.97
1281.43
1250.21
1180.25
1093.25
1016.77
967.249
944.115
940.398
948.66
965.042
986.396
1012.49
1041.8
1075.79
1113.01
1156.14
1203.04
1258.01
1317.49
1388.3
1464.42
1556.81
1655.13
1777.5
1906.11
2071.64
2243.37
2474.47
2712.71
3052.82
3410.58
3959.96
4559.92
5509.6
6537.64
8105.43
9592.74
11569.6
12930.8
14818.3
16403.2
19260.9
22055.6
20618.7
23730.6
17292.3
12931
10685.1
9990.57
9044.01
8398.28
7231.74
6386.17
5442.1
4831.61
4206.21
3790.33
3370.78
3089.57
2825.21
2656.07
2496.42
2387.43
2278.62
2196.34
2109.27
2030.74
1941.66
1849.95
1748.3
1645.48
1543.78
1450.46
1368.7
1299.67
1244.01
1197.61
1160.43
1126.08
1096.81
1065.63
1038.06
1005.92
977.375
942.702
911.241
873.882
837.08
798.428
759.214
704.126
386.043
414.55
487.143
627.663
827.477
1033.11
1187.1
1267.69
1285.08
1252.7
1181.59
1093.45
1016.02
965.931
942.572
938.838
947.174
963.657
985.105
1011.27
1040.64
1074.66
1111.9
1155.03
1201.92
1256.85
1316.29
1387.04
1463.09
1555.39
1653.61
1775.83
1904.27
2069.56
2241.01
2471.73
2709.49
3048.97
3405.98
3954.53
4553.79
5503.13
6531.42
8100.51
9588.98
11566.6
12924.6
14809.3
16390.9
19270.1
22090.8
20704.9
23985.2
17601.8
13241.7
10937.6
10148.8
9124.04
8431.71
7242.72
6387.77
5440.21
4828.59
4203.04
3787.29
3367.9
3086.76
2822.57
2653.66
2494.35
2385.68
2277.2
2195.24
2108.5
2030.27
1941.42
1849.83
1748.18
1645.24
1543.37
1449.9
1368.05
1299.03
1243.44
1197.18
1160.18
1126.01
1096.93
1065.95
1038.58
1006.65
978.354
943.923
912.788
875.727
839.284
800.999
762.075
706.958
386.185
415.06
488.461
630.304
831.62
1038.3
1192.47
1272.43
1288.75
1255.22
1182.95
1093.66
1015.27
964.612
941.026
937.273
945.685
962.266
983.81
1010.05
1039.48
1073.53
1110.78
1153.91
1200.79
1255.68
1315.09
1385.78
1461.76
1553.96
1652.08
1774.15
1902.42
2067.47
2238.65
2468.98
2706.27
3045.12
3401.37
3949.1
4547.65
5496.64
6525.2
8095.6
9585.24
11563.6
12918.4
14800.2
16378.3
19279.2
22125.9
20792
24245.4
17922.1
13566.2
11202.9
10315.4
9208.34
8466.86
7254.26
6389.48
5438.31
4825.54
4199.86
3784.24
3365
3083.94
2819.91
2651.25
2492.27
2383.92
2275.78
2194.14
2107.73
2029.8
1941.18
1849.71
1748.06
1645
1542.97
1449.34
1367.4
1298.37
1242.87
1196.75
1159.92
1125.95
1097.07
1066.27
1039.11
1007.38
979.344
945.158
914.353
877.597
841.519
803.609
764.983
709.843
386.328
415.574
489.787
632.959
835.78
1043.51
1197.87
1277.2
1292.45
1257.77
1184.32
1093.87
1014.53
963.292
939.476
935.704
944.19
960.872
982.51
1008.83
1038.31
1072.4
1109.67
1152.79
1199.65
1254.51
1313.88
1384.51
1460.43
1552.53
1650.54
1772.47
1900.57
2065.39
2236.28
2466.23
2703.05
3041.26
3396.75
3943.66
4541.5
5490.15
6518.98
8090.7
9581.54
11560.7
12912.2
14791
16365.6
19288.1
22161
20880.3
24511.6
18253.9
13905.1
11481.7
10490.9
9297.22
8503.87
7266.4
6391.33
5436.42
4822.48
4196.67
3781.18
3362.11
3081.11
2817.25
2648.83
2490.18
2382.17
2274.36
2193.05
2106.97
2029.34
1940.96
1849.6
1747.94
1644.77
1542.57
1448.78
1366.75
1297.72
1242.3
1196.32
1159.67
1125.89
1097.2
1066.6
1039.65
1008.12
980.344
946.406
915.937
879.49
843.786
806.259
767.94
712.782
386.473
416.093
491.123
635.627
839.956
1048.73
1203.28
1281.99
1296.17
1260.33
1185.72
1094.1
1013.8
961.972
937.923
934.131
942.692
959.473
981.206
1007.6
1037.14
1071.26
1108.54
1151.66
1198.51
1253.34
1312.66
1383.24
1459.08
1551.1
1649
1770.78
1898.72
2063.3
2233.91
2463.48
2699.82
3037.39
3392.12
3938.21
4535.34
5483.65
6512.76
8085.82
9577.85
11557.8
12906
14781.8
16352.7
19297
22196.1
20969.7
24784
18597.6
14259.1
11774.6
10675.8
9390.99
8542.89
7279.22
6393.35
5434.55
4819.41
4193.46
3778.11
3359.21
3078.29
2814.59
2646.42
2488.1
2380.41
2272.94
2191.95
2106.21
2028.88
1940.74
1849.5
1747.84
1644.54
1542.17
1448.22
1366.1
1297.07
1241.72
1195.89
1159.42
1125.83
1097.34
1066.93
1040.19
1008.87
981.356
947.669
917.539
881.406
846.085
808.949
770.946
715.776
386.62
416.617
492.469
638.307
844.147
1053.98
1208.72
1286.8
1299.91
1262.91
1187.13
1094.35
1013.07
960.651
936.367
932.553
941.189
958.07
979.898
1006.36
1035.96
1070.11
1107.42
1150.53
1197.36
1252.16
1311.45
1381.96
1457.74
1549.66
1647.46
1769.09
1896.86
2061.2
2231.53
2460.72
2696.59
3033.52
3387.49
3932.76
4529.17
5477.15
6506.54
8080.95
9574.2
11554.9
12899.8
14772.5
16339.7
19305.8
22231.2
21060.3
25062.8
18953.9
14629
12082.4
10870.7
9489.99
8584.07
7292.78
6395.55
5432.72
4816.34
4190.26
3775.05
3356.31
3075.46
2811.92
2644
2486.02
2378.66
2271.52
2190.86
2105.46
2028.43
1940.52
1849.41
1747.74
1644.33
1541.78
1447.67
1365.45
1296.41
1241.15
1195.46
1159.17
1125.77
1097.48
1067.26
1040.74
1009.63
982.378
948.945
919.161
883.347
848.415
811.681
774.003
718.828
386.769
417.146
493.823
641.001
848.353
1059.24
1214.18
1291.64
1303.68
1265.51
1188.56
1094.6
1012.34
959.33
934.808
930.972
939.682
956.663
978.586
1005.13
1034.78
1068.96
1106.28
1149.4
1196.22
1250.98
1310.22
1380.67
1456.39
1548.21
1645.91
1767.4
1895
2059.1
2229.15
2457.96
2693.36
3029.65
3382.86
3927.29
4523
5470.65
6500.32
8076.1
9570.59
11552.1
12893.6
14763.1
16326.5
19314.5
22266.4
21152.2
25348.2
19323.5
15015.5
12405.9
11076.2
9594.55
8627.57
7307.15
6397.98
5430.93
4813.28
4187.07
3771.99
3353.41
3072.63
2809.26
2641.58
2483.94
2376.91
2270.11
2189.78
2104.71
2027.98
1940.32
1849.33
1747.65
1644.11
1541.39
1447.11
1364.81
1295.76
1240.57
1195.03
1158.92
1125.71
1097.62
1067.6
1041.29
1010.39
983.411
950.235
920.802
885.312
850.779
814.453
777.11
721.937
386.919
417.68
495.185
643.707
852.573
1064.51
1219.65
1296.5
1307.47
1268.13
1190
1094.87
1011.62
958.009
933.246
929.387
938.171
955.251
977.27
1003.89
1033.59
1067.81
1105.15
1148.26
1195.06
1249.79
1309
1379.39
1455.04
1546.77
1644.36
1765.7
1893.13
2057
2226.77
2455.2
2690.12
3025.77
3378.22
3921.82
4516.82
5464.14
6494.11
8071.27
9567.01
11549.3
12887.4
14753.6
16313.2
19323.1
22301.6
21245.4
25640.5
19706.9
15419.4
12745.7
11292.9
9705.04
8673.57
7322.38
6400.64
5429.21
4810.24
4183.88
3768.94
3350.52
3069.81
2806.6
2639.16
2481.86
2375.16
2268.7
2188.7
2103.97
2027.55
1940.13
1849.26
1747.58
1643.91
1541
1446.56
1364.16
1295.1
1240
1194.6
1158.67
1125.66
1097.77
1067.94
1041.85
1011.17
984.455
951.54
922.462
887.301
853.174
817.268
780.269
725.107
387.072
418.218
496.557
646.425
856.807
1069.8
1225.15
1301.38
1311.28
1270.77
1191.46
1095.14
1010.91
956.688
931.681
927.798
936.656
953.836
975.949
1002.64
1032.4
1066.65
1104.01
1147.11
1193.9
1248.6
1307.76
1378.09
1453.68
1545.31
1642.81
1764
1891.26
2054.9
2224.39
2452.43
2686.88
3021.89
3373.57
3916.35
4510.63
5457.63
6487.91
8066.46
9563.46
11546.6
12881.3
14744.1
16299.7
19331.8
22336.9
21340.1
25940
20105
15841.3
13102.7
11521.4
9821.84
8722.24
7338.57
6403.58
5427.55
4807.23
4180.71
3765.9
3347.65
3067
2803.95
2636.75
2479.79
2373.42
2267.3
2187.62
2103.24
2027.12
1939.95
1849.2
1747.51
1643.71
1540.62
1446.01
1363.51
1294.45
1239.42
1194.17
1158.42
1125.61
1097.92
1068.29
1042.42
1011.95
985.51
952.858
924.141
889.315
855.603
820.125
783.481
728.339
387.226
418.761
497.938
649.155
861.054
1075.1
1230.66
1306.28
1315.1
1273.43
1192.94
1095.43
1010.2
955.367
930.114
926.206
935.138
952.417
974.625
1001.39
1031.21
1065.49
1102.86
1145.96
1192.74
1247.41
1306.53
1376.8
1452.31
1543.86
1641.25
1762.29
1889.39
2052.79
2222
2449.66
2683.64
3018.01
3368.92
3910.86
4504.44
5451.12
6481.71
8061.68
9559.96
11543.9
12875.1
14734.6
16286.2
19340.4
22372.3
21436.2
26246.9
20518.4
16282.2
13477.5
11762.3
9945.35
8773.76
7355.77
6406.82
5425.98
4804.25
4177.57
3762.88
3344.78
3064.2
2801.31
2634.35
2477.73
2371.69
2265.91
2186.56
2102.51
2026.71
1939.78
1849.15
1747.45
1643.52
1540.25
1445.47
1362.86
1293.79
1238.85
1193.74
1158.18
1125.56
1098.08
1068.65
1043
1012.74
986.575
954.19
925.839
891.353
858.065
823.025
786.746
731.633
387.382
419.309
499.328
651.897
865.314
1080.42
1236.18
1311.19
1318.95
1276.1
1194.43
1095.74
1009.5
954.047
928.544
924.61
933.615
950.993
973.297
1000.14
1030.01
1064.33
1101.71
1144.81
1191.57
1246.21
1305.29
1375.49
1450.95
1542.39
1639.68
1760.58
1887.51
2050.68
2219.61
2446.89