/*--------------------------------*- C++ -*----------------------------------*\
| =========                 |                                                 |
| \\      /  F ield         | OpenFOAM: The Open Source CFD Toolbox           |
|  \\    /   O peration     | Version:  2412                                  |
|   \\  /    A nd           | Website:  www.openfoam.com                      |
|    \\/     M anipulation  |                                                 |
\*---------------------------------------------------------------------------*/
FoamFile
{
    version     2.0;
    format      ascii;
    arch        "LSB;label=32;scalar=64";
    class       volScalarField;
    location    "0.5";
    object      k;
}
// * * * * * * * * * * * * * * * * * * * * * * * * * * * * * * * * * * * * * //

dimensions      [0 2 -2 0 0 0 0];

internalField   nonuniform List<scalar> 
12960
(
37.9992
39.6522
43.3079
49.3169
56.5331
62.7747
66.6196
68.1419
68.1137
67.1214
65.5889
64.0562
62.9712
62.4766
62.4331
62.7013
63.1606
63.792
64.5415
65.441
66.4385
67.5983
68.8516
70.3019
71.8457
73.6428
75.5317
77.7581
80.066
82.8355
85.66
89.135
92.6138
97.0362
101.376
107.126
112.693
120.467
128.041
139.155
150.04
166.104
181.236
202.605
220.036
242.391
256.145
276.23
291.651
313.265
330.285
299.877
298.297
212.405
164.783
162.203
182.075
186.717
187.571
175.072
165.822
152.459
144.07
133.755
127.117
119.459
114.608
109.44
106.237
102.758
100.423
97.8309
95.8534
93.5686
91.4789
89.0372
86.5717
83.8659
81.2077
78.5939
76.196
74.0474
72.1625
70.5646
69.134
67.9114
66.6992
65.6145
64.4145
63.3075
61.9974
60.7651
59.2746
57.8262
56.1352
54.4043
52.5787
50.781
48.5254
38.0066
39.6793
43.3715
49.4271
56.678
62.9216
66.7346
68.2075
68.133
67.1078
65.5538
64.0071
62.9151
62.4201
62.3801
62.653
63.1168
63.7521
64.5049
65.4067
66.406
67.567
68.821
70.2714
71.8152
73.6118
75.5001
77.7254
80.0321
82.7999
85.6225
89.0948
92.5706
96.989
101.324
107.068
112.628
120.394
127.96
139.068
149.949
166.018
181.162
202.554
220.001
242.367
256.094
276.182
291.615
313.44
330.68
300.633
299.919
214.154
166.122
163.111
182.684
187.085
187.78
175.18
165.871
152.472
144.064
133.738
127.094
119.432
114.577
109.408
106.207
102.732
100.4
97.8129
95.8404
93.5608
91.4752
89.0362
86.5709
83.8633
81.2018
78.5843
76.1836
74.0338
72.1496
70.5541
69.1271
67.9088
66.7012
65.6215
64.4264
63.3251
62.0205
60.7954
59.3117
57.8722
56.1894
54.4674
52.651
50.8599
48.6012
38.0141
39.7065
43.4353
49.5376
56.8232
63.0689
66.8501
68.2736
68.1528
67.0946
65.5191
63.9583
62.8592
62.3636
62.3271
62.6047
63.0732
63.7124
64.4684
65.3726
66.3736
67.5357
68.7905
70.2411
71.7849
73.581
75.4687
77.6929
79.9984
82.7645
85.5852
89.0548
92.5276
96.9419
101.272
107.011
112.563
120.321
127.878
138.98
149.858
165.932
181.088
202.504
219.968
242.343
256.044
276.134
291.578
313.615
331.075
301.394
301.556
215.922
167.48
164.03
183.297
187.452
187.988
175.286
165.919
152.484
144.056
133.719
127.071
119.404
114.546
109.376
106.177
102.706
100.378
97.7949
95.8275
93.5532
91.4718
89.0353
86.5704
83.8611
81.1961
78.575
76.1713
74.0203
72.1368
70.5438
69.1203
67.9065
66.7035
65.6288
64.4386
63.3431
62.0441
60.8262
59.3494
57.9189
56.2444
54.5314
52.7244
50.94
48.6781
38.0217
39.7339
43.4995
49.6486
56.9688
63.2165
66.966
68.3402
68.173
67.0817
65.4845
63.9094
62.8031
62.307
62.2739
62.5563
63.0294
63.6726
64.4317
65.3383
66.3411
67.5044
68.7599
70.2107
71.7544
73.5501
75.4371
77.6603
79.9647
82.729
85.5478
89.0147
92.4844
96.8947
101.22
106.953
112.498
120.247
127.796
138.891
149.766
165.846
181.013
202.453
219.934
242.319
255.993
276.085
291.538
313.788
331.468
302.157
303.207
217.709
168.858
164.961
183.913
187.818
188.193
175.39
165.964
152.494
144.046
133.7
127.046
119.375
114.514
109.344
106.147
102.679
100.354
97.7763
95.8142
93.5453
91.4682
89.0344
86.5698
83.8588
81.1904
78.5655
76.1589
74.0066
72.1238
70.5332
69.1135
67.904
66.7058
65.6361
64.4509
63.3612
62.0679
60.8574
59.3875
57.966
56.3001
54.5963
52.7988
51.0211
48.756
38.0293
39.7615
43.564
49.76
57.1149
63.3646
67.0823
68.4071
68.1933
67.0688
65.4497
63.8603
62.7468
62.2501
62.2205
62.5076
62.9853
63.6325
64.3948
65.3039
66.3085
67.4729
68.7291
70.1801
71.7238
73.5189
75.4054
77.6274
79.9306
82.6932
85.5101
88.9743
92.441
96.8471
101.168
106.894
112.432
120.173
127.713
138.802
149.674
165.758
180.938
202.402
219.898
242.293
255.94
276.033
291.495
313.959
331.859
302.921
304.87
219.515
170.256
165.903
184.532
188.182
188.394
175.49
166.006
152.501
144.034
133.678
127.019
119.344
114.48
109.31
106.115
102.651
100.33
97.7572
95.8003
93.5369
91.4642
89.0332
86.569
83.8562
81.1844
78.5557
76.1461
73.9927
72.1106
70.5224
69.1064
67.9014
66.708
65.6434
64.4633
63.3794
62.0918
60.8887
59.4259
58.0137
56.3563
54.6618
52.874
51.1032
48.8348
38.037
39.7893
43.629
49.872
57.2615
63.513
67.1989
68.4743
68.2139
67.0558
65.4148
63.8109
62.6901
62.1928
62.1667
62.4586
62.9411
63.5922
64.3578
65.2692
66.2756
67.4411
68.698
70.1493
71.6929
73.4875
75.3733
77.5943
79.8963
82.6571
85.4721
88.9336
92.3972
96.7992
101.115
106.835
112.366
120.099
127.63
138.712
149.58
165.67
180.861
202.349
219.862
242.267
255.885
275.978
291.448
314.127
332.248
303.686
306.547
221.34
171.675
166.859
185.154
188.545
188.592
175.586
166.045
152.505
144.02
133.655
126.991
119.312
114.445
109.274
106.082
102.622
100.306
97.7373
95.7859
93.528
91.4598
89.0316
86.5679
83.8534
81.1781
78.5457
76.1331
73.9783
72.0969
70.5113
69.0991
67.8986
66.71
65.6506
64.4756
63.3976
62.1159
60.9203
59.4645
58.0617
56.413
54.7281
52.9502
51.1864
48.9145
38.0448
39.8173
43.6943
49.9844
57.4085
63.6619
67.3159
68.5419
68.2345
67.0428
65.3797
63.7612
62.6331
62.1353
62.1126
62.4094
62.8965
63.5516
64.3204
65.2343
66.2425
67.4091
68.6667
70.1182
71.6618
73.4559
75.341
77.5609
79.8617
82.6207
85.4337
88.8925
92.353
96.7508
101.062
106.776
112.299
120.024
127.545
138.621
149.486
165.58
180.784
202.296
219.825
242.238
255.827
275.921
291.396
314.292
332.633
304.451
308.236
223.186
173.117
167.829
185.78
188.905
188.786
175.679
166.081
152.507
144.003
133.629
126.961
119.278
114.409
109.238
106.048
102.592
100.28
97.7168
95.7708
93.5186
91.455
89.0297
86.5665
83.8503
81.1716
78.5353
76.1196
73.9636
72.083
70.4999
69.0915
67.8957
66.7119
65.6577
64.4878
63.4159
62.14
60.952
59.5035
58.1102
56.4704
54.7952
53.0272
51.2705
48.9953
38.0527
39.8455
43.76
50.0973
57.556
63.8111
67.4332
68.6097
68.2553
67.0298
65.3444
63.7113
62.5758
62.0773
62.0582
62.3598
62.8517
63.5108
64.2828
65.1991
66.2091
67.3769
68.6352
70.0868
71.6303
73.4239
75.3084
77.5272
79.8268
82.584
85.3951
88.851
92.3084
96.702
101.008
106.716
112.232
119.948
127.46
138.53
149.391
165.49
180.705
202.241
219.786
242.209
255.768
275.86
291.341
314.454
333.015
305.218
309.94
225.053
174.582
168.815
186.411
189.265
188.978
175.769
166.114
152.506
143.984
133.601
126.929
119.243
114.371
109.2
106.013
102.561
100.254
97.6955
95.7552
93.5087
91.4498
89.0275
86.5649
83.847
81.1647
78.5245
76.1058
73.9486
72.0687
70.4882
69.0837
67.8925
66.7137
65.6647
64.5001
63.4342
62.1643
60.984
59.5428
58.1591
56.5283
54.8629
53.1052
51.3557
49.077
38.0606
39.874
43.8261
50.2106
57.7039
63.9607
67.5509
68.6778
68.2763
67.0167
65.3089
63.661
62.5181
62.0191
62.0035
62.31
62.8066
63.4697
64.245
65.1637
66.1755
67.3444
68.6034
70.0552
71.5987
73.3917
75.2756
77.4932
79.7916
82.547
85.3561
88.8093
92.2635
96.6529
100.954
106.656
112.164
119.871
127.375
138.437
149.294
165.398
180.626
202.186
219.747
242.178
255.707
275.797
291.282
314.613
333.394
305.985
311.659
226.943
176.073
169.816
187.047
189.624
189.165
175.855
166.144
152.502
143.963
133.572
126.896
119.207
114.332
109.161
105.977
102.529
100.226
97.6736
95.739
93.4984
91.4442
89.025
86.563
83.8434
81.1576
78.5135
76.0917
73.9332
72.0541
70.4762
69.0757
67.8892
66.7154
65.6717
64.5124
63.4525
62.1887
61.0162
59.5824
58.2085
56.5868
54.9315
53.1841
51.4419
49.1598
38.0687
39.9027
43.8926
50.3244
57.8522
64.1106
67.6689
68.7462
68.2974
67.0035
65.2732
63.6105
62.4601
61.9605
61.9485
62.2599
62.7612
63.4284
64.2069
65.1281
66.1416
67.3117
68.5714
70.0234
71.5667
73.3593
75.2425
77.459
79.7561
82.5097
85.3168
88.7672
92.2182
96.6034
100.899
106.595
112.096
119.794
127.288
138.343
149.197
165.306
180.545
202.13
219.706
242.145
255.644
275.731
291.219
314.769
333.77
306.753
313.392
228.855
177.592
170.836
187.689
189.982
189.35
175.938
166.171
152.496
143.939
133.541
126.861
119.169
114.291
109.121
105.94
102.496
100.198
97.6511
95.7222
93.4876
91.4382
89.0222
86.5608
83.8396
81.1503
78.5022
76.0773
73.9174
72.0392
70.464
69.0674
67.8857
66.717
65.6787
64.5246
63.471
62.2132
61.0486
59.6223
58.2584
56.6459
55.0008
53.264
51.5293
49.2436
38.0768
39.9316
43.9594
50.4386
58.0008
64.2608
67.7873
68.815
68.3186
66.9903
65.2373
63.5597
62.4017
61.9015
61.8931
62.2094
62.7156
63.3868
64.1686
65.0922
66.1075
67.2787
68.5391
69.9913
71.5346
73.3266
75.2091
77.4244
79.7203
82.4721
85.2772
88.7248
92.1726
96.5535
100.844
106.534
112.027
119.716
127.201
138.249
149.099
165.212
180.464
202.072
219.665
242.112
255.579
275.663
291.152
314.922
334.143
307.522
315.141
230.793
179.139
171.875
188.338
190.34
189.532
176.018
166.196
152.488
143.914
133.507
126.824
119.129
114.25
109.08
105.902
102.463
100.17
97.628
95.705
93.4764
91.4319
89.0191
86.5585
83.8356
81.1427
78.4907
76.0625
73.9014
72.024
70.4515
69.0589
67.8821
66.7185
65.6856
64.5369
63.4895
62.2379
61.0813
59.6626
58.3087
56.7056
55.071
53.3449
51.6178
49.3286
38.085
39.9607
44.0266
50.5533
58.1498
64.4113
67.906
68.884
68.34
66.977
65.2012
63.5086
62.3431
61.8422
61.8375
62.1587
62.6697
63.3449
64.13
65.056
66.0732
67.2455
68.5067
69.959
71.5022
73.2936
75.1755
77.3897
79.6843
82.4342
85.2373
88.6821
92.1267
96.5033
100.789
106.472
111.958
119.638
127.113
138.154
149
165.118
180.381
202.015
219.622
242.077
255.512
275.591
291.081
315.072
334.513
308.293
316.906
232.755
180.716
172.934
188.993
190.698
189.712
176.095
166.217
152.476
143.886
133.472
126.786
119.089
114.207
109.038
105.863
102.429
100.14
97.6042
95.6872
93.4647
91.4253
89.0158
86.5559
83.8314
81.1349
78.4788
76.0475
73.8851
72.0085
70.4387
69.0503
67.8783
66.7199
65.6925
64.5493
63.5081
62.2628
61.1142
59.7032
58.3596
56.766
55.142
53.4269
51.7074
49.4148
38.0932
39.99
44.0941
50.6683
58.2992
64.5622
68.025
68.9534
68.3616
66.9637
65.1649
63.4572
62.284
61.7826
61.7815
62.1078
62.6235
63.3029
64.0912
65.0197
66.0386
67.2121
68.4739
69.9265
71.4695
73.2605
75.1416
77.3546
79.648
82.3961
85.1972
88.6391
92.0805
96.4527
100.734
106.41
111.888
119.559
127.025
138.059
148.9
165.023
180.298
201.956
219.579
242.041
255.443
275.518
291.006
315.22
334.88
309.066
318.687
234.745
182.325
174.016
189.658
191.057
189.889
176.169
166.236
152.463
143.856
133.436
126.747
119.047
114.163
108.995
105.823
102.394
100.111
97.58
95.669
93.4527
91.4184
89.0123
86.5532
83.827
81.1269
78.4668
76.0323
73.8685
71.9928
70.4258
69.0415
67.8744
66.7212
65.6993
64.5616
63.5269
62.2878
61.1474
59.7442
58.411
56.827
55.2139
53.5099
51.7983
49.5022
38.1016
40.0195
44.162
50.7836
58.4488
64.7132
68.1443
69.0231
68.3833
66.9503
65.1284
63.4055
62.2247
61.7227
61.7252
62.0565
62.5771
63.2605
64.0522
64.9831
66.0039
67.1785
68.441
69.8937
71.4367
73.227
75.1075
77.3194
79.6115
82.3577
85.1568
88.5958
92.034
96.4019
100.678
106.348
111.818
119.48
126.936
137.963
148.8
164.927
180.215
201.897
219.535
242.005
255.372
275.442
290.928
315.364
335.245
309.84
320.487
236.763
183.967
175.121
190.331
191.418
190.064
176.24
166.252
152.447
143.824
133.397
126.706
119.004
114.118
108.951
105.783
102.358
100.08
97.5552
95.6504
93.4404
91.4113
89.0086
86.5503
83.8225
81.1187
78.4545
76.0167
73.8517
71.9768
70.4126
69.0325
67.8704
66.7224
65.7062
64.574
63.5457
62.313
61.1808
59.7855
58.4629
56.8887
55.2867
53.594
51.8904
49.5908
38.11
40.0492
44.2301
50.8994
58.5988
64.8646
68.2639
69.0931
68.4051
66.9369
65.0917
63.3536
62.1651
61.6625
61.6687
62.005
62.5304
63.218
64.0129
64.9463
65.9689
67.1446
68.4079
69.8607
71.4036
73.1934
75.0732
77.2839
79.5747
82.3191
85.1161
88.5523
91.9872
96.3507
100.621
106.285
111.747
119.401
126.846
137.866
148.699
164.83
180.13
201.837
219.49
241.967
255.301
275.363
290.847
315.506
335.606
310.616
322.304
238.809
185.645
176.252
191.015
191.78
190.238
176.309
166.265
152.429
143.791
133.357
126.664
118.96
114.072
108.906
105.741
102.321
100.049
97.5299
95.6313
93.4277
91.4039
89.0048
86.5473
83.8179
81.1104
78.4421
76.001
73.8346
71.9606
70.3992
69.0233
67.8663
66.7237
65.713
64.5865
63.5647
62.3385
61.2146
59.8273
58.5154
56.9512
55.3603
53.6793
51.9838
49.6807
38.1185
40.0791
44.2987
51.0154
58.749
65.0162
68.3838
69.1633
68.4272
66.9234
65.0548
63.3013
62.1051
61.6019
61.6118
61.9532
62.4835
63.1752
63.9735
64.9093
65.9337
67.1106
68.3745
69.8275
71.3703
73.1595
75.0386
77.2482
79.5377
82.2802
85.0752
88.5085
91.9402
96.2993
100.565
106.222
111.676
119.32
126.756
137.768
148.597
164.733
180.045
201.776
219.445
241.928
255.227
275.282
290.761
315.645
335.965
311.395
324.14
240.887
187.361
177.41
191.709
192.144
190.41
176.375
166.276
152.408
143.755
133.316
126.621
118.914
114.025
108.86
105.699
102.284
100.017
97.5042
95.6119
93.4148
91.3963
89.0008
86.5442
83.8132
81.102
78.4295
75.9851
73.8173
71.9441
70.3856
69.014
67.8621
66.7249
65.7199
64.5991
63.5838
62.3641
61.2487
59.8695
58.5684
57.0143
55.435
53.7657
52.0785
49.7719
38.1271
40.1093
44.3675
51.1318
58.8994
65.1679
68.504
69.2339
68.4493
66.9099
65.0177
63.2488
62.0448
61.541
61.5547
61.9011
62.4364
63.1322
63.9338
64.8721
65.8983
67.0763
68.3409
69.7941
71.3368
73.1255
75.0039
77.2122
79.5005
82.2411
85.0341
88.4645
91.8929
96.2476
100.508
106.159
111.605
119.24
126.666
137.67
148.495
164.635
179.959
201.715
219.399
241.889
255.152
275.199
290.673
315.782
336.321
312.176
325.996
242.996
189.115
178.596
192.416
192.512
190.58
176.439
166.285
152.386
143.718
133.273
126.576
118.868
113.977
108.813
105.656
102.246
99.9848
97.4781
95.5922
93.4016
91.3885
88.9967
86.5411
83.8084
81.0935
78.4167
75.9689
73.7997
71.9275
70.3719
69.0046
67.8578
66.726
65.7268
64.6117
63.6031
62.3899
61.2831
59.9121
58.622
57.0782
55.5105
53.8533
52.1746
49.8645
38.1358
40.1396
44.4366
51.2485
59.0501
65.3199
68.6245
69.3048
68.4717
66.8963
64.9804
63.1961
61.9842
61.4798
61.4972
61.8488
62.389
63.0889
63.8939
64.8347
65.8627
67.0418
68.3072
69.7605
71.3031
73.0912
74.9689
77.1761
79.4631
82.2018
84.9927
88.4203
91.8454
96.1957
100.451
106.095
111.533
119.159
126.575
137.571
148.392
164.537
179.873
201.654
219.353
241.849
255.076
275.114
290.581
315.916
336.675
312.96
327.872
245.139
190.91
179.813
193.135
192.883
190.75
176.501
166.292
152.362
143.679
133.229
126.531
118.821
113.928
108.766
105.612
102.208
99.9521
97.4516
95.5721
93.3881
91.3805
88.9924
86.5378
83.8035
81.0849
78.4038
75.9526
73.782
71.9106
70.358
68.9951
67.8535
66.7272
65.7338
64.6244
63.6225
62.416
61.3178
59.9551
58.6763
57.1428
55.5871
53.942
52.272
49.9585
38.1446
40.1701
44.506
51.3655
59.201
65.4721
68.7452
69.376
68.4942
66.8826
64.943
63.1431
61.9233
61.4183
61.4395
61.7962
62.3413
63.0455
63.8538
64.7971
65.8269
67.0072
68.2732
69.7267
71.2692
73.0567
74.9337
77.1397
79.4255
82.1623
84.9512
88.3758
91.7977
96.1435
100.393
106.031
111.462
119.078
126.483
137.472
148.288
164.438
179.786
201.592
219.306
241.809
254.999
275.027
290.486
316.048
337.026
313.747
329.769
247.317
192.749
181.062
193.869
193.258
190.919
176.562
166.296
152.336
143.639
133.184
126.484
118.773
113.879
108.717
105.568
102.169
99.919
97.4247
95.5518
93.3745
91.3725
88.9882
86.5346
83.7986
81.0762
78.3908
75.9361
73.7641
71.8936
70.344
68.9855
67.8491
66.7283
65.7408
64.6373
63.6421
62.4423
61.3529
59.9986
58.7311
57.2082
55.6646
54.0321
52.3708
50.0539
38.1535
40.2009
44.5758
51.4828
59.352
65.6244
68.8662
69.4474
68.5169
66.869
64.9053
63.0898
61.8621
61.3565
61.3815
61.7434
62.2935
63.0018
63.8134
64.7592
65.7909
66.9723
68.239
69.6927
71.2351
73.022
74.8983
77.1031
79.3877
82.1226
84.9094
88.3312
91.7497
96.0911
100.336
105.967
111.389
118.996
126.391
137.373
148.184
164.338
179.699
201.53
219.259
241.768
254.92
274.938
290.388
316.177
337.375
314.537
331.688
249.53
194.633
182.345
194.619
193.639
191.089
176.62
166.299
152.308
143.597
133.137
126.437
118.724
113.829
108.668
105.523
102.13
99.8854
97.3976
95.5312
93.3607
91.3643
88.9839
86.5313
83.7938
81.0674
78.3777
75.9195
73.7461
71.8765
70.3298
68.9757
67.8447
66.7295
65.7479
64.6502
63.6618
62.4689
61.3883
60.0426
58.7865
57.2744
55.7432
54.1234
52.4711
50.1508
38.1624
40.2318
44.6458
51.6004
59.5033
65.7768
68.9874
69.5192
68.5397
66.8552
64.8675
63.0362
61.8006
61.2944
61.3232
61.6903
62.2454
62.9579
63.7729
64.7212
65.7547
66.9372
68.2047
69.6585
71.2008
72.9872
74.8628
77.0664
79.3496
82.0827
84.8675
88.2863
91.7016
96.0385
100.278
105.903
111.317
118.914
126.299
137.273
148.079
164.238
179.611
201.467
219.211
241.726
254.84
274.847
290.287
316.305
337.722
315.331
333.63
251.782
196.564
183.665
195.385
194.024
191.258
176.677
166.3
152.279
143.554
133.09
126.388
118.674
113.778
108.619
105.478
102.09
99.8516
97.3701
95.5104
93.3467
91.356
88.9796
86.5281
83.7889
81.0586
78.3645
75.9028
73.7279
71.8592
70.3155
68.9659
67.8402
66.7307
65.755
64.6633
63.6818
62.4957
61.424
60.087
58.8426
57.3414
55.8228
54.2159
52.5728
50.2492
38.1714
40.263
44.7161
51.7181
59.6546
65.9294
69.1088
69.5912
68.5627
66.8415
64.8295
62.9824
61.7389
61.232
61.2647
61.6369
62.1971
62.9138
63.7322
64.683
65.7183
66.902
68.1701
69.6241
71.1663
72.9521
74.827
77.0295
79.3114
82.0426
84.8254
88.2413
91.6533
95.9858
100.22
105.838
111.244
118.832
126.206
137.172
147.974
164.138
179.524
201.404
219.164
241.684
254.759
274.754
290.183
316.43
338.067
316.129
335.595
254.073
198.544
185.024
196.17
194.417
191.428
176.733
166.3
152.248
143.51
133.041
126.339
118.624
113.726
108.569
105.432
102.05
99.8174
97.3424
95.4894
93.3326
91.3477
88.9753
86.5249
83.784
81.0499
78.3513
75.8859
73.7095
71.8417
70.3011
68.9561
67.8358
66.7319
65.7622
64.6765
63.7019
62.5228
61.4601
60.1318
58.8993
57.4092
55.9035
54.3098
52.676
50.3492
38.1806
40.2943
44.7867
51.8362
59.8061
66.082
69.2304
69.6635
68.5858
66.8277
64.7913
62.9284
61.6768
61.1693
61.2059
61.5833
62.1485
62.8695
63.6912
64.6446
65.6817
66.8666
68.1354
69.5895
71.1316
72.9169
74.7911
76.9923
79.2731
82.0024
84.7831
88.1961
91.6047
95.9328
100.162
105.773
111.171
118.75
126.114
137.071
147.869
164.037
179.435
201.342
219.116
241.642
254.678
274.66
290.077
316.554
338.41
316.932
337.584
256.405
200.577
186.423
196.973
194.816
191.6
176.788
166.297
152.216
143.464
132.992
126.289
118.573
113.674
108.518
105.385
102.01
99.7829
97.3145
95.4682
93.3184
91.3394
88.971
86.5217
83.7792
81.0411
78.338
75.869
73.6911
71.8241
70.2866
68.9462
67.8313
66.7331
65.7695
64.6898
63.7222
62.5502
61.4966
60.1772
58.9567
57.4779
55.9852
54.405
52.7807
50.4507
38.1898
40.3258
44.8575
51.9544
59.9577
66.2348
69.3522
69.7361
68.6091
66.8138
64.7529
62.8741
61.6144
61.1063
61.1468
61.5295
62.0997
62.8249
63.6501
64.6059
65.6449
66.8309
68.1005
69.5547
71.0968
72.8815
74.755
76.955
79.2345
81.9619
84.7406
88.1507
91.5561
95.8796
100.103
105.708
111.098
118.667
126.02
136.97
147.763
163.936
179.347
201.279
219.068
241.6
254.595
274.564
289.968
316.675
338.752
317.739
339.598
258.78
202.663
187.865
197.798
195.223
191.772
176.843
166.294
152.182
143.418
132.942
126.239
118.521
113.622
108.467
105.339
101.969
99.7481
97.2864
95.4469
93.3041
91.3311
88.9667
86.5187
83.7744
81.0323
78.3247
75.852
73.6725
71.8065
70.272
68.9362
67.8268
66.7344
65.7769
64.7033
63.7428
62.5778
61.5335
60.223
59.0148
57.5473
56.068
54.5015
52.887
50.5539
38.1991
40.3576
44.9286
52.0729
60.1094
66.3876
69.4741
69.8089
68.6326
66.8
64.7143
62.8195
61.5518
61.0431
61.0874
61.4755
62.0508
62.7802
63.6088
64.5671
65.608
66.7951
68.0654
69.5198
71.0617
72.8459
74.7187
76.9176
79.1958
81.9213
84.698
88.1052
91.5072
95.8263
100.045
105.643
111.025
118.584
125.927
136.868
147.657
163.834
179.258
201.215
219.02
241.557
254.512
274.466
289.856
316.795
339.092
318.552
341.638
261.199
204.805
189.353
198.645
195.639
191.947
176.897
166.289
152.147
143.37
132.891
126.188
118.47
113.569
108.416
105.292
101.928
99.7132
97.2581
95.4255
93.2898
91.3227
88.9626
86.5157
83.7698
81.0236
78.3113
75.8349
73.6538
71.7887
70.2573
68.9262
67.8223
66.7357
65.7843
64.7169
63.7635
62.6057
61.5708
60.2694
59.0735
57.6176
56.1519
54.5994
52.9949
50.6587
38.2084
40.3895
45
52.1915
60.2612
66.5404
69.5962
69.882
68.6562
66.786
64.6756
62.7647
61.4889
60.9795
61.0278
61.4212
62.0016
62.7353
63.5673
64.5281
65.5708
66.7592
68.0301
69.4847
71.0265
72.8101
74.6822
76.8799
79.1569
81.8805
84.6552
88.0594
91.4582
95.7728
99.9862
105.578
110.951
118.501
125.833
136.766
147.55
163.732
179.169
201.152
218.972
241.514
254.428
274.367
289.742
316.913
339.43
319.37
343.705
263.664
207.006
190.888
199.516
196.065
192.124
176.951
166.284
152.112
143.322
132.839
126.136
118.417
113.515
108.364
105.244
101.886
99.6781
97.2297
95.404
93.2755
91.3145
88.9586
86.5128
83.7652
81.0149
78.298
75.8178
73.6351
71.7709
70.2426
68.9161
67.8178
66.7371
65.7919
64.7307
63.7845
62.6339
61.6084
60.3162
59.1329
57.6888
56.2369
54.6988
53.1043
50.7653
38.2179
40.4216
45.0716
52.3103
60.413
66.6933
69.7185
69.9553
68.68
66.7721
64.6367
62.7097
61.4257
60.9157
60.968
61.3666
61.9521
62.6901
63.5255
64.489
65.5335
66.723
67.9947
69.4494
70.9912
72.7741
74.6456
76.8421
79.1178
81.8396
84.6122
88.0136
91.409
95.7191
99.9273
105.512
110.877
118.417
125.739
136.664
147.443
163.63
179.08
201.089
218.924
241.472
254.344
274.267
289.625
317.03
339.768
320.194
345.799
266.178
209.268
192.473
200.412
196.502
192.304
177.005
166.277
152.075
143.273
132.787
126.084
118.364
113.461
108.312
105.197
101.845
99.6428
97.2013
95.3825
93.2612
91.3063
88.9546
86.5101
83.7608
81.0063
78.2846
75.8006
73.6163
71.7529
70.2278
68.9061
67.8134
66.7386
65.7996
64.7446
63.8057
62.6624
61.6464
60.3636
59.193
57.7608
56.3231
54.7995
53.2154
50.8736
38.2275
40.4539
45.1434
52.4293
60.5648
66.8461
69.8409
70.0288
68.7039
66.7581
64.5977
62.6545
61.3622
60.8516
60.9078
61.3119
61.9025
62.6448
63.4837
64.4496
65.496
66.6867
67.959
69.4139
70.9556
72.738
74.6088
76.8041
79.0786
81.7985
84.5691
87.9676
91.3597
95.6653
99.8682
105.446
110.804
118.334
125.644
136.562
147.336
163.528
178.99
201.026
218.876
241.429
254.259
274.165
289.507
317.146
340.104
321.024
347.921
268.742
211.594
194.11
201.336
196.95
192.488
177.059
166.27
152.038
143.223
132.735
126.032
118.311
113.407
108.26
105.149
101.803
99.6074
97.1727
95.361
93.2469
91.2981
88.9508
86.5075
83.7564
80.9978
78.2713
75.7834
73.5974
71.7349
70.213
68.896
67.809
66.7401
65.8074
64.7587
63.8271
62.6912
61.6849
60.4114
59.2537
57.8337
56.4104
54.9016
53.3282
50.9836
38.2371
40.4864
45.2155
52.5484
60.7166
66.9989
69.9633
70.1025
68.728
66.7441
64.5584
62.599
61.2985
60.7873
60.8475
61.2569
61.8527
62.5993
63.4416
64.4101
65.4584
66.6501
67.9232
69.3783
70.9199
72.7017
74.5718
76.766
79.0392
81.7572
84.5258
87.9214
91.3103
95.6114
99.8091
105.38
110.729
118.25
125.549
136.459
147.228
163.425
178.901
200.963
218.828
241.387
254.174
274.062
289.386
317.26
340.44
321.861
350.073
271.358
213.985
195.803
202.288
197.411
192.675
177.114
166.262
151.999
143.173
132.682
125.979
118.258
113.353
108.207
105.101
101.761
99.572
97.1442
95.3394
93.2327
91.2901
88.9472
86.5051
83.7523
80.9894
78.2581
75.7662
73.5785
71.7169
70.1982
68.8859
67.8046
66.7417
65.8154
64.773
63.8487
62.7203
61.7237
60.4598
59.3152
57.9075
56.4989
55.0052
53.4426
51.0955
38.2469
40.5191
45.2879
52.6677
60.8684
67.1517
70.0859
70.1765
68.7522
66.73
64.519
62.5432
61.2345
60.7226
60.7869
61.2017
61.8027
62.5536
63.3993
64.3704
65.4205
66.6135
67.8873
69.3425
70.884
72.6653
74.5347
76.7277
78.9997
81.7158
84.4825
87.8751
91.2607
95.5573
99.7498
105.314
110.655
118.166
125.455
136.356
147.121
163.323
178.812
200.9
218.781
241.344
254.088
273.958
289.263
317.373
340.774
322.705
352.255
274.029
216.446
197.554
203.272
197.885
192.867
177.17
166.254
151.961
143.123
132.628
125.926
118.205
113.298
108.155
105.052
101.719
99.5365
97.1156
95.3179
93.2186
91.2823
88.9438
86.5029
83.7483
80.9811
78.2449
75.749
73.5596
71.6988
70.1833
68.8759
67.8002
66.7434
65.8235
64.7875
63.8706
62.7496
61.7629
60.5087
59.3774
57.9821
56.5885
55.1102
53.5588
51.2092
38.2567
40.552
45.3604
52.7871
61.0202
67.3044
70.2085
70.2506
68.7765
66.7159
64.4795
62.4873
61.1702
60.6578
60.726
61.1463
61.7524
62.5077
63.3569
64.3305
65.3825
66.5766
67.8512
69.3065
70.848
72.6287
74.4974
76.6892
78.96
81.6743
84.4389
87.8287
91.211
95.5031
99.6903
105.248
110.581
118.081
125.36
136.252
147.013
163.22
178.722
200.837
218.734
241.302
254.002
273.853
289.139
317.484
341.108
323.556
354.468
276.755
218.978
199.365
204.288
198.375
193.064
177.227
166.245
151.922
143.072
132.575
125.873
118.151
113.244
108.102
105.004
101.678
99.501
97.0871
95.2964
93.2045
91.2746
88.9405
86.5009
83.7445
80.9729
78.2317
75.7318
73.5406
71.6807
70.1684
68.8658
67.7959
66.7452
65.8317
64.8021
63.8927
62.7793
61.8026
60.5581
59.4403
58.0577
56.6793
55.2168
53.6767
51.3248
38.2667
40.5851
45.4332
52.9066
61.172
67.4571
70.3312
70.3249
68.801
66.7018
64.4397
62.4311
61.1057
60.5926
60.665
61.0907
61.702
62.4616
63.3142
64.2904
65.3443
66.5396
67.8149
69.2704
70.8117
72.5919
74.4599
76.6506
78.9202
81.6326
84.3953
87.7821
91.1612
95.4488
99.6308
105.182
110.506
117.997
125.264
136.149
146.904
163.117
178.632
200.774
218.687
241.261
253.916
273.747
289.012
317.595
341.442
324.416
356.713
279.541
221.583
201.24
205.339
198.88
193.267
177.286
166.237
151.882
143.02
132.521
125.82
118.098
113.189
108.049
104.956
101.636
99.4655
97.0586
95.2751
93.1906
91.267
88.9375
86.4992
83.7409
80.9649
78.2186
75.7146
73.5216
71.6625
70.1534
68.8558
67.7917
66.7471
65.84
64.8169
63.9151
62.8093
61.8426
60.608
59.5038
58.1341
56.7713
55.3248
53.7963
51.4423
38.2767
40.6184
45.5062
53.0263
61.3236
67.6096
70.4539
70.3994
68.8256
66.6876
64.3998
62.3747
61.0409
60.5272
60.6037
61.0348
61.6514
62.4153
63.2714
64.2502
65.306
66.5024
67.7784
69.2341
70.7754
72.5549
74.4223
76.6118
78.8802
81.5908
84.3514
87.7354
91.1112
95.3944
99.5711
105.116
110.432
117.912
125.169
136.045
146.796
163.013
178.543
200.712
218.64
241.219
253.829
273.64
288.884
317.706
341.776
325.283
358.991
282.388
224.266
203.18
206.427
199.402
193.476
177.346
166.228
151.842
142.969
132.468
125.767
118.044
113.135
107.996
104.907
101.594
99.43
97.0302
95.2538
93.1768
91.2597
88.9347
86.4976
83.7374
80.957
78.2056
75.6974
73.5026
71.6444
70.1385
68.8458
67.7875
66.7491
65.8485
64.8319
63.9376
62.8397
61.8831
60.6585
59.5681
58.2115
56.8645
55.4343
53.9177
51.5618
38.2868
40.6519
45.5794
53.146
61.4752
67.762
70.5766
70.474
68.8503
66.6734
64.3598
62.3181
60.9759
60.4616
60.5421
60.9788
61.6006
62.3689
63.2285
64.2098
65.2674
66.465
67.7418
69.1976
70.7388
72.5178
74.3846
76.5729
78.8401
81.5488
84.3075
87.6886
91.0612
95.3398
99.5114
105.049
110.357
117.828
125.073
135.941
146.687
162.91
178.453
200.649
218.594
241.178
253.743
273.532
288.755
317.815
342.11
326.16
361.303
285.298
227.028
205.19
207.554
199.943
193.691
177.409
166.22
151.803
142.917
132.414
125.714
117.991
113.08
107.943
104.859
101.552
99.3947
97.0019
95.2326
93.1632
91.2526
88.9322
86.4963
83.7342
80.9492
78.1927
75.6803
73.4836
71.6262
70.1236
68.8358
67.7834
66.7512
65.8571
64.8471
63.9605
62.8703
61.924
60.7095
59.6332
58.2897
56.9589
55.5453
54.041
51.6833
38.2971
40.6855
45.6528
53.2657
61.6267
67.9142
70.6993
70.5487
68.8752
66.6591
64.3196
62.2613
60.9107
60.3957
60.4804
60.9226
61.5496
62.3222
63.1853
64.1692
65.2288
66.4275
67.705
69.161
70.7021
72.4806
74.3467
76.5338
78.7998
81.5067
84.2634
87.6416
91.011
95.2851
99.4515
104.983
110.282
117.743
124.977
135.837
146.578
162.807
178.364
200.587
218.548
241.138
253.656
273.423
288.623
317.924
342.443
327.045
363.649
288.274
229.873
207.271
208.721
200.504
193.914
177.474
166.212
151.763
142.866
132.361
125.661
117.937
113.025
107.89
104.811
101.51
99.3594
96.9737
95.2116
93.1498
91.2456
88.9299
86.4953
83.7313
80.9417
78.1799
75.6632
73.4646
71.608
70.1086
68.8258
67.7794
66.7534
65.8658
64.8625
63.9835
62.9012
61.9652
60.761
59.6989
58.3689
57.0545
55.6579
54.166
51.8068
38.3074
40.7194
45.7265
53.3856
61.7781
68.0662
70.8219
70.6236
68.9001
66.6448
64.2792
62.2043
60.8452
60.3296
60.4184
60.8661
61.4984
62.2754
63.142
64.1285
65.1899
66.3898
67.668
69.1242
70.6653
72.4432
74.3086
76.4946
78.7594
81.4644
84.2192
87.5945
90.9607
95.2303
99.3915
104.916
110.207
117.658
124.881
135.732
146.469
162.703
178.274
200.526
218.503
241.098
253.57
273.314
288.491
318.032
342.777
327.94
366.03
291.318
232.803
209.426
209.933
201.085
194.146
177.542
166.205
151.723
142.815
132.308
125.609
117.884
112.971
107.838
104.763
101.468
99.3243
96.9457
95.1908
93.1366
91.239
88.9279
86.4945
83.7286
80.9343
78.1673
75.6461
73.4456
71.5897
70.0937
68.8159
67.7754
66.7557
65.8747
64.878
64.0068
62.9324
62.0069
60.813
59.7653
58.4489
57.1513
55.772
54.2929
51.9325
38.3178
40.7535
45.8003
53.5055
61.9293
68.2181
70.9445
70.6986
68.9251
66.6305
64.2387
62.147
60.7795
60.2633
60.3562
60.8095
61.4471
62.2284
63.0985
64.0876
65.1509
66.352
67.6309
69.0873
70.6283
72.4056
74.2704
76.4552
78.7188
81.422
84.1749
87.5473
90.9102
95.1754
99.3314
104.849
110.132
117.573
124.785
135.628
146.36
162.599
178.185
200.464
218.458
241.059
253.484
273.204
288.357
318.14
343.112
328.846
368.449
294.434
235.82
211.659
211.19
201.689
194.386
177.613
166.199
151.684
142.764
132.255
125.556
117.831
112.917
107.785
104.715
101.427
99.2894
96.9179
95.1701
93.1236
91.2326
88.9262
86.4941
83.7261
80.9271
78.1547
75.6291
73.4266
71.5715
70.0788
68.806
67.7715
66.7581
65.8838
64.8938
64.0304
62.964
62.049
60.8656
59.8325
58.5299
57.2494
55.8877
54.4217
52.0603
38.3283
40.7877
45.8743
53.6254
62.0804
68.3697
71.067
70.7737
68.9503
66.6161
64.198
62.0896
60.7136
60.1967
60.2938
60.7526
61.3955
62.1813
63.0549
64.0465
65.1117
66.314
67.5936
69.0502