/*--------------------------------*- C++ -*----------------------------------*\
| =========                 |                                                 |
| \\      /  F ield         | OpenFOAM: The Open Source CFD Toolbox           |
|  \\    /   O peration     | Version:  2412                                  |
|   \\  /    A nd           | Website:  www.openfoam.com                      |
|    \\/     M anipulation  |                                                 |
\*---------------------------------------------------------------------------*/
FoamFile
{
    version     2.0;
    format      ascii;
    arch        "LSB;label=32;scalar=64";
    class       volScalarField;
    location    "0.5";
    object      nut;
}
// * * * * * * * * * * * * * * * * * * * * * * * * * * * * * * * * * * * * * //

dimensions      [0 2 -1 0 0 0 0];

internalField   nonuniform List<scalar> 
12960
(
0.339559
0.351877
0.371664
0.390828
0.399589
0.395091
0.381187
0.36441
0.349964
0.340393
0.336533
0.338222
0.343797
0.350617
0.356526
0.360884
0.363883
0.366095
0.367823
0.369419
0.37088
0.372441
0.373941
0.375647
0.377274
0.379202
0.38099
0.383198
0.385158
0.387709
0.389855
0.392851
0.395217
0.398802
0.401434
0.405807
0.40884
0.414377
0.418144
0.425217
0.429602
0.437602
0.44148
0.448845
0.449828
0.45428
0.451843
0.457822
0.460395
0.466652
0.466808
0.437118
0.436014
0.350767
0.310908
0.34678
0.395803
0.405612
0.406876
0.394902
0.391879
0.383678
0.383054
0.377681
0.377721
0.374333
0.375228
0.373775
0.374816
0.373647
0.373909
0.372707
0.372249
0.370522
0.368952
0.366434
0.364035
0.361409
0.359391
0.357831
0.356956
0.356534
0.356385
0.356375
0.356155
0.355853
0.355087
0.354291
0.352963
0.351741
0.349912
0.34826
0.345936
0.343749
0.341004
0.338241
0.335527
0.333105
0.329436
0.339603
0.352022
0.371902
0.391054
0.399684
0.394982
0.38085
0.363879
0.349316
0.339722
0.335922
0.337731
0.343459
0.350423
0.356434
0.360849
0.363873
0.366093
0.367821
0.369414
0.370871
0.372429
0.373926
0.375629
0.377254
0.37918
0.380966
0.383172
0.385131
0.387679
0.389824
0.392816
0.39518
0.398762
0.401391
0.405761
0.408791
0.414326
0.418095
0.425174
0.429567
0.437579
0.44147
0.448846
0.449823
0.454259
0.45179
0.457791
0.460395
0.466783
0.467012
0.437593
0.436907
0.351894
0.311303
0.34638
0.395409
0.405348
0.406709
0.394784
0.391797
0.383614
0.383006
0.377644
0.37769
0.374305
0.375203
0.373756
0.374806
0.373643
0.373909
0.372713
0.37226
0.370536
0.368965
0.366442
0.364034
0.361398
0.359372
0.357809
0.356937
0.356522
0.356383
0.356384
0.356172
0.355878
0.355116
0.354326
0.353003
0.351789
0.349967
0.348328
0.346015
0.343844
0.341113
0.338362
0.335658
0.333231
0.329525
0.339647
0.352166
0.372139
0.391277
0.399776
0.394871
0.380512
0.363346
0.348666
0.339048
0.335305
0.337234
0.343117
0.350226
0.35634
0.360813
0.363863
0.366092
0.367819
0.369409
0.370863
0.372417
0.373911
0.375611
0.377234
0.379158
0.380943
0.383146
0.385104
0.38765
0.389792
0.392782
0.395144
0.398722
0.401348
0.405715
0.408742
0.414276
0.418045
0.425131
0.429532
0.437557
0.44146
0.448847
0.449817
0.454238
0.451736
0.457759
0.460393
0.466915
0.467216
0.438068
0.437801
0.353012
0.311675
0.345941
0.394983
0.40507
0.406538
0.394666
0.391717
0.383553
0.382959
0.377607
0.377661
0.374277
0.375178
0.373738
0.374796
0.373639
0.373909
0.372719
0.372271
0.370551
0.368978
0.366451
0.364033
0.361387
0.359353
0.357786
0.356917
0.35651
0.356382
0.356393
0.35619
0.355903
0.355146
0.354361
0.353044
0.351837
0.350024
0.348398
0.346096
0.343941
0.341224
0.338485
0.335791
0.333358
0.329615
0.339691
0.35231
0.372374
0.391497
0.399865
0.394757
0.380173
0.362812
0.348013
0.338369
0.334683
0.336733
0.342771
0.350027
0.356245
0.360776
0.363853
0.36609
0.367818
0.369405
0.370855
0.372405
0.373896
0.375593
0.377214
0.379136
0.380919
0.383121
0.385076
0.38762
0.389761
0.392748
0.395107
0.398682
0.401304
0.405669
0.408692
0.414224
0.417994
0.425088
0.429496
0.437535
0.441449
0.448847
0.449811
0.454216
0.451681
0.457726
0.460391
0.467046
0.46742
0.438543
0.438694
0.35412
0.312023
0.345461
0.394523
0.404773
0.406362
0.39455
0.391639
0.383493
0.382913
0.377572
0.377633
0.37425
0.375153
0.37372
0.374787
0.373635
0.37391
0.372725
0.372282
0.370565
0.368992
0.366459
0.364033
0.361376
0.359333
0.357763
0.356897
0.356498
0.35638
0.356402
0.356208
0.355928
0.355177
0.354397
0.353085
0.351886
0.350081
0.348467
0.346177
0.344039
0.341336
0.338609
0.335926
0.333487
0.329707
0.339736
0.352454
0.372608
0.391714
0.39995
0.394641
0.379831
0.362275
0.347357
0.337685
0.334055
0.336227
0.342422
0.349825
0.356149
0.36074
0.363842
0.366087
0.367816
0.3694
0.370846
0.372393
0.37388
0.375575
0.377194
0.379113
0.380894
0.383094
0.385048
0.38759
0.389729
0.392713
0.395069
0.398642
0.40126
0.405622
0.408641
0.414173
0.417943
0.425044
0.42946
0.437512
0.441438
0.448847
0.449804
0.454194
0.451625
0.457692
0.460387
0.467177
0.467623
0.439018
0.439586
0.355218
0.312346
0.344937
0.394025
0.404457
0.40618
0.394432
0.391563
0.383435
0.382869
0.377537
0.377605
0.374223
0.375129
0.373702
0.374778
0.373632
0.373911
0.372731
0.372294
0.370581
0.369006
0.366468
0.364033
0.361366
0.359314
0.35774
0.356876
0.356486
0.356379
0.356412
0.356227
0.355953
0.355208
0.354433
0.353126
0.351935
0.350139
0.348538
0.34626
0.344138
0.341449
0.338735
0.336062
0.333618
0.329799
0.339781
0.352599
0.37284
0.391928
0.400032
0.394522
0.379487
0.361736
0.346697
0.336997
0.333423
0.335715
0.342068
0.349621
0.356052
0.360702
0.363831
0.366085
0.367813
0.369395
0.370837
0.372381
0.373865
0.375557
0.377173
0.37909
0.38087
0.383068
0.38502
0.38756
0.389696
0.392678
0.395031
0.398601
0.401216
0.405575
0.40859
0.41412
0.417891
0.424999
0.429423
0.437488
0.441426
0.448846
0.449797
0.45417
0.451567
0.457657
0.460381
0.467307
0.467825
0.439492
0.440476
0.356305
0.312644
0.344367
0.393486
0.40412
0.40599
0.394315
0.391488
0.383379
0.382826
0.377504
0.377578
0.374197
0.375105
0.373685
0.374769
0.373629
0.373913
0.372738
0.372306
0.370596
0.369021
0.366477
0.364032
0.361355
0.359294
0.357717
0.356856
0.356473
0.356377
0.356421
0.356245
0.355979
0.355239
0.354469
0.353168
0.351985
0.350197
0.348609
0.346343
0.344239
0.341563
0.338862
0.336201
0.33375
0.329892
0.339826
0.352743
0.373071
0.392139
0.400111
0.394399
0.379141
0.361194
0.346034
0.336305
0.332785
0.335199
0.341711
0.349416
0.355955
0.360665
0.363821
0.366082
0.367811
0.369389
0.370828
0.372368
0.373849
0.375538
0.377152
0.379067
0.380845
0.383041
0.384992
0.387529
0.389663
0.392642
0.394993
0.398559
0.401171
0.405527
0.408539
0.414067
0.417838
0.424953
0.429385
0.437464
0.441414
0.448845
0.449788
0.454145
0.451508
0.45762
0.460373
0.467437
0.468026
0.439966
0.441366
0.357379
0.312915
0.34375
0.392905
0.403759
0.405793
0.394196
0.391414
0.383323
0.382784
0.377472
0.377552
0.374171
0.375081
0.373667
0.37476
0.373626
0.373914
0.372745
0.372318
0.370612
0.369035
0.366487
0.364032
0.361344
0.359274
0.357694
0.356835
0.35646
0.356375
0.35643
0.356264
0.356005
0.35527
0.354506
0.35321
0.352036
0.350256
0.348681
0.346427
0.34434
0.341679
0.338991
0.336341
0.333884
0.329986
0.339871
0.352887
0.373301
0.392347
0.400186
0.394274
0.378793
0.360651
0.345368
0.335608
0.332142
0.334678
0.34135
0.349207
0.355856
0.360627
0.363809
0.36608
0.367808
0.369383
0.370819
0.372355
0.373832
0.375519
0.377131
0.379044
0.38082
0.383014
0.384963
0.387498
0.38963
0.392606
0.394954
0.398517
0.401125
0.405478
0.408486
0.414013
0.417784
0.424906
0.429346
0.437438
0.441401
0.448844
0.449779
0.454119
0.451447
0.457581
0.460364
0.467565
0.468226
0.44044
0.442253
0.358442
0.31316
0.343084
0.392277
0.403373
0.405586
0.394075
0.391341
0.38327
0.382743
0.37744
0.377526
0.374146
0.375058
0.37365
0.374752
0.373624
0.373916
0.372752
0.37233
0.370627
0.36905
0.366496
0.364033
0.361334
0.359254
0.35767
0.356814
0.356448
0.356374
0.35644
0.356283
0.356031
0.355301
0.354542
0.353252
0.352086
0.350315
0.348754
0.346512
0.344443
0.341797
0.339122
0.336483
0.33402
0.330081
0.339916
0.353031
0.373529
0.392552
0.400257
0.394146
0.378442
0.360105
0.344698
0.334906
0.331493
0.334151
0.340985
0.348997
0.355755
0.360588
0.363798
0.366077
0.367806
0.369378
0.370809
0.372341
0.373816
0.375499
0.377109
0.37902
0.380794
0.382986
0.384933
0.387466
0.389596
0.39257
0.394914
0.398474
0.401079
0.405429
0.408433
0.413959
0.41773
0.424859
0.429307
0.437412
0.441387
0.448841
0.449769
0.454093
0.451385
0.457541
0.460353
0.467693
0.468424
0.440913
0.443138
0.359491
0.313377
0.342365
0.391599
0.402958
0.405368
0.393952
0.391269
0.383217
0.382703
0.377409
0.377501
0.374121
0.375035
0.373633
0.374744
0.373621
0.373919
0.37276
0.372343
0.370643
0.369065
0.366506
0.364033
0.361323
0.359234
0.357646
0.356793
0.356435
0.356372
0.356449
0.356302
0.356058
0.355333
0.35458
0.353295
0.352137
0.350375
0.348828
0.346598
0.344547
0.341915
0.339254
0.336626
0.334157
0.330177
0.339962
0.353175
0.373756
0.392754
0.400325
0.394015
0.37809
0.359557
0.344026
0.334201
0.330839
0.333619
0.340617
0.348784
0.355654
0.360549
0.363786
0.366073
0.367803
0.369371
0.370799
0.372328
0.373799
0.37548
0.377087
0.378996
0.380768
0.382958
0.384904
0.387434
0.389562
0.392533
0.394874
0.398431
0.401033
0.405379
0.408379
0.413903
0.417675
0.424811
0.429267
0.437386
0.441373
0.448838
0.449758
0.454065
0.451322
0.4575
0.46034
0.46782
0.468622
0.441386
0.444021
0.360527
0.313565
0.341593
0.390869
0.402513
0.405139
0.393826
0.391198
0.383165
0.382665
0.37738
0.377477
0.374097
0.375012
0.373617
0.374736
0.373619
0.373921
0.372768
0.372356
0.37066
0.369081
0.366516
0.364033
0.361312
0.359214
0.357622
0.356771
0.356422
0.35637
0.356459
0.356321
0.356084
0.355365
0.354617
0.353338
0.352189
0.350436
0.348902
0.346685
0.344652
0.342036
0.339388
0.336772
0.334296
0.330275
0.340008
0.353319
0.373981
0.392952
0.40039
0.393882
0.377735
0.359007
0.343351
0.33349
0.33018
0.333082
0.340244
0.348569
0.355552
0.360509
0.363774
0.36607
0.367799
0.369365
0.370789
0.372314
0.373782
0.37546
0.377065
0.378971
0.380742
0.38293
0.384874
0.387402
0.389528
0.392496
0.394834
0.398388
0.400986
0.405329
0.408325
0.413847
0.417619
0.424762
0.429226
0.437359
0.441358
0.448835
0.449747
0.454036
0.451256
0.457457
0.460326
0.467947
0.468819
0.441858
0.444901
0.361548
0.313723
0.340765
0.390083
0.402035
0.404896
0.393696
0.391126
0.383115
0.382627
0.377351
0.377454
0.374073
0.374989
0.3736
0.374728
0.373618
0.373924
0.372776
0.372369
0.370676
0.369097
0.366527
0.364034
0.361302
0.359194
0.357598
0.35675
0.356409
0.356368
0.356469
0.356341
0.356111
0.355398
0.354655
0.353381
0.352241
0.350497
0.348977
0.346773
0.344758
0.342157
0.339524
0.33692
0.334437
0.330373
0.340054
0.353463
0.374204
0.393147
0.400451
0.393745
0.377379
0.358456
0.342673
0.332776
0.329516
0.332541
0.339868
0.348352
0.355449
0.360469
0.363762
0.366067
0.367796
0.369359
0.370779
0.3723
0.373765
0.375439
0.377042
0.378946
0.380715
0.382901
0.384843
0.387369
0.389493
0.392458
0.394793
0.398344
0.400938
0.405278
0.40827
0.413791
0.417562
0.424713
0.429185
0.437331
0.441343
0.448831
0.449735
0.454006
0.45119
0.457412
0.46031
0.468072
0.469015
0.44233
0.445777
0.362554
0.313852
0.339881
0.389237
0.401521
0.404639
0.393563
0.391055
0.383065
0.382591
0.377323
0.377431
0.37405
0.374967
0.373584
0.37472
0.373616
0.373927
0.372784
0.372383
0.370693
0.369113
0.366538
0.364035
0.361291
0.359173
0.357573
0.356728
0.356396
0.356367
0.356479
0.35636
0.356138
0.35543
0.354693
0.353425
0.352294
0.350559
0.349053
0.346861
0.344866
0.34228
0.339662
0.337069
0.334579
0.330472
0.3401
0.353606
0.374426
0.393339
0.400508
0.393606
0.37702
0.357902
0.341992
0.332057
0.328846
0.331993
0.339487
0.348133
0.355344
0.360429
0.36375
0.366063
0.367792
0.369352
0.370768
0.372285
0.373747
0.375419
0.377019
0.378921
0.380688
0.382872
0.384813
0.387336
0.389457
0.39242
0.394752
0.398299
0.40089
0.405227
0.408215
0.413734
0.417505
0.424663
0.429143
0.437303
0.441327
0.448826
0.449722
0.453975
0.451122
0.457366
0.460292
0.468197
0.469209
0.442802
0.446651
0.363544
0.31395
0.338937
0.388329
0.400969
0.404366
0.393424
0.390984
0.383016
0.382555
0.377296
0.37741
0.374027
0.374945
0.373568
0.374713
0.373615
0.373931
0.372793
0.372396
0.370711
0.369129
0.366548
0.364036
0.36128
0.359153
0.357549
0.356706
0.356382
0.356365
0.356489
0.35638
0.356166
0.355464
0.354732
0.35347
0.352347
0.350621
0.349129
0.346951
0.344974
0.342405
0.339801
0.337221
0.334723
0.330573
0.340146
0.35375
0.374646
0.393528
0.400562
0.393464
0.37666
0.357347
0.341308
0.331334
0.328172
0.331441
0.339103
0.347911
0.355239
0.360388
0.363737
0.366059
0.367788
0.369345
0.370757
0.372271
0.373729
0.375398
0.376996
0.378896
0.380661
0.382843
0.384782
0.387303
0.389422
0.392381
0.394711
0.398254
0.400841
0.405175
0.408159
0.413676
0.417447
0.424612
0.4291
0.437274
0.44131
0.448821
0.449708
0.453944
0.451053
0.457319
0.460273
0.468321
0.469403
0.443273
0.447521
0.364517
0.314017
0.337933
0.387356
0.400376
0.404075
0.39328
0.390911
0.382968
0.382521
0.37727
0.377388
0.374004
0.374923
0.373552
0.374706
0.373614
0.373935
0.372802
0.37241
0.370728
0.369145
0.36656
0.364037
0.36127
0.359132
0.357524
0.356684
0.356369
0.356363
0.356499
0.356401
0.356194
0.355497
0.354771
0.353515
0.352401
0.350684
0.349207
0.347042
0.345084
0.342531
0.339943
0.337375
0.334869
0.330675
0.340193
0.353893
0.374864
0.393713
0.400613
0.39332
0.376299
0.35679
0.340622
0.330607
0.327492
0.330884
0.338714
0.347686
0.355132
0.360347
0.363724
0.366055
0.367785
0.369338
0.370746
0.372256
0.373711
0.375377
0.376973
0.37887
0.380634
0.382814
0.38475
0.38727
0.389386
0.392342
0.394669
0.398209
0.400792
0.405123
0.408102
0.413617
0.417389
0.424561
0.429057
0.437244
0.441294
0.448816
0.449694
0.453911
0.450982
0.457271
0.460253
0.468444
0.469595
0.443744
0.448387
0.365472
0.314052
0.336868
0.386313
0.399739
0.403764
0.39313
0.390838
0.382921
0.382487
0.377245
0.377368
0.373983
0.374902
0.373537
0.3747
0.373614
0.373939
0.372811
0.372424
0.370746
0.369162
0.366571
0.364038
0.361259
0.359112
0.357499
0.356662
0.356355
0.356362
0.35651
0.356421
0.356222
0.355531
0.35481
0.35356
0.352455
0.350748
0.349285
0.347134
0.345196
0.342659
0.340086
0.337531
0.335017
0.330778
0.34024
0.354036
0.375081
0.393895
0.40066
0.393173
0.375935
0.356232
0.339934
0.329876
0.326807
0.330321
0.338322
0.34746
0.355024
0.360305
0.363711
0.366051
0.36778
0.36933
0.370735
0.372241
0.373693
0.375355
0.376949
0.378844
0.380606
0.382784
0.384719
0.387236
0.38935
0.392303
0.394627
0.398164
0.400743
0.40507
0.408046
0.413559
0.417329
0.424509
0.429013
0.437214
0.441276
0.44881
0.449679
0.453878
0.45091
0.457221
0.460231
0.468567
0.469786
0.444214
0.449248
0.36641
0.314056
0.335741
0.385198
0.399055
0.403433
0.392973
0.390764
0.382874
0.382455
0.377221
0.377349
0.373961
0.374881
0.373522
0.374693
0.373614
0.373943
0.372821
0.372439
0.370764
0.36918
0.366583
0.36404
0.361249
0.359091
0.357474
0.356639
0.356342
0.35636
0.35652
0.356442
0.35625
0.355565
0.35485
0.353605
0.35251
0.350812
0.349364
0.347226
0.345309
0.342788
0.340231
0.337689
0.335167
0.330882
0.340286
0.354179
0.375296
0.394074
0.400703
0.393023
0.375571
0.355673
0.339243
0.329142
0.326117
0.329753
0.337925
0.347231
0.354916
0.360262
0.363698
0.366046
0.367776
0.369323
0.370724
0.372225
0.373674
0.375334
0.376925
0.378818
0.380578
0.382754
0.384687
0.387201
0.389313
0.392264
0.394584
0.398118
0.400693
0.405017
0.407988
0.413499
0.41727
0.424456
0.428969
0.437184
0.441259
0.448804
0.449664
0.453843
0.450837
0.45717
0.460207
0.468688
0.469977
0.444684
0.450105
0.367328
0.314027
0.33455
0.384008
0.398321
0.403079
0.392807
0.390687
0.382827
0.382423
0.377197
0.37733
0.37394
0.374861
0.373507
0.374687
0.373614
0.373948
0.37283
0.372454
0.370782
0.369197
0.366595
0.364042
0.361238
0.35907
0.357449
0.356616
0.356328
0.356359
0.356531
0.356463
0.356279
0.355599
0.35489
0.353651
0.352565
0.350877
0.349444
0.34732
0.345423
0.342919
0.340378
0.337849
0.335319
0.330988
0.340333
0.354322
0.375509
0.394249
0.400743
0.392871
0.375205
0.355113
0.33855
0.328403
0.325422
0.32918
0.337525
0.346999
0.354806
0.36022
0.363684
0.366042
0.367772
0.369315
0.370712
0.37221
0.373655
0.375312
0.376901
0.378791
0.38055
0.382723
0.384655
0.387167
0.389276
0.392224
0.394541
0.398071
0.400643
0.404964
0.40793
0.413439
0.417209
0.424403
0.428924
0.437153
0.44124
0.448797
0.449648
0.453808
0.450762
0.457117
0.460182
0.46881
0.470166
0.445154
0.450956
0.368225
0.313966
0.333296
0.382739
0.397534
0.4027
0.392632
0.390609
0.38278
0.382391
0.377174
0.377311
0.37392
0.37484
0.373492
0.374681
0.373614
0.373953
0.372841
0.372469
0.370801
0.369215
0.366608
0.364044
0.361228
0.359049
0.357423
0.356594
0.356314
0.356357
0.356542
0.356484
0.356307
0.355633
0.354931
0.353698
0.352621
0.350942
0.349525
0.347415
0.345538
0.343052
0.340527
0.338011
0.335473
0.331095
0.340381
0.354464
0.375719
0.394421
0.40078
0.392717
0.374837
0.354551
0.337854
0.32766
0.324722
0.328602
0.33712
0.346765
0.354695
0.360176
0.36367
0.366037
0.367767
0.369307
0.3707
0.372194
0.373636
0.37529
0.376876
0.378764
0.380521
0.382693
0.384622
0.387132
0.389239
0.392184
0.394498
0.398025
0.400593
0.40491
0.407872
0.413379
0.417149
0.424349
0.428878
0.437122
0.441222
0.44879
0.449632
0.453773
0.450686
0.457063
0.460156
0.46893
0.470354
0.445623
0.451802
0.369102
0.313872
0.331978
0.381389
0.396691
0.402294
0.392448
0.390528
0.382733
0.382361
0.377153
0.377294
0.3739
0.37482
0.373478
0.374676
0.373615
0.373958
0.372851
0.372484
0.37082
0.369233
0.36662
0.364046
0.361218
0.359028
0.357397
0.356571
0.3563
0.356356
0.356553
0.356505
0.356337
0.355668
0.354971
0.353745
0.352677
0.351009
0.349606
0.347511
0.345655
0.343186
0.340678
0.338176
0.335628
0.331203
0.340428
0.354606
0.375928
0.394589
0.400813
0.39256
0.374468
0.353988
0.337157
0.326914
0.324016
0.328019
0.336711
0.346529
0.354582
0.360133
0.363657
0.366032
0.367762
0.369299
0.370688
0.372178
0.373617
0.375268
0.376852
0.378737
0.380492
0.382662
0.38459
0.387097
0.389202
0.392144
0.394455
0.397978
0.400542
0.404856
0.407813
0.413318
0.417087
0.424295
0.428833
0.43709
0.441203
0.448783
0.449615
0.453736
0.45061
0.457008
0.460129
0.469049
0.470541
0.446093
0.452642
0.369957
0.313745
0.330597
0.379954
0.395788
0.40186
0.392253
0.390445
0.382686
0.382331
0.377131
0.377277
0.37388
0.3748
0.373464
0.374671
0.373616
0.373964
0.372862
0.3725
0.370839
0.369252
0.366633
0.364048
0.361208
0.359007
0.357372
0.356548
0.356286
0.356354
0.356564
0.356527
0.356366
0.355704
0.355012
0.353792
0.352734
0.351075
0.349689
0.347608
0.345773
0.343322
0.340831
0.338343
0.335786
0.331312
0.340476
0.354747
0.376135
0.394754
0.400843
0.392401
0.374098
0.353425
0.336458
0.326165
0.323306
0.32743
0.336298
0.34629
0.354469
0.360088
0.363642
0.366027
0.367757
0.369291
0.370676
0.372162
0.373597
0.375245
0.376827
0.37871
0.380463
0.382631
0.384557
0.387062
0.389164
0.392103
0.394411
0.39793
0.400491
0.404801
0.407754
0.413257
0.417025
0.424241
0.428786
0.437058
0.441184
0.448775
0.449597
0.453699
0.450531
0.456952
0.4601
0.469168
0.470728
0.446562
0.453475
0.370789
0.313587
0.329152
0.378432
0.394821
0.401394
0.392045
0.390358
0.382639
0.382301
0.377111
0.377261
0.373861
0.374781
0.37345
0.374666
0.373618
0.37397
0.372873
0.372516
0.370859
0.369271
0.366647
0.364051
0.361198
0.358986
0.357346
0.356524
0.356272
0.356353
0.356575
0.356549
0.356396
0.355739
0.355054
0.35384
0.352791
0.351143
0.349772
0.347706
0.345892
0.343459
0.340986
0.338512
0.335946
0.331423
0.340523
0.354888
0.37634
0.394915
0.40087
0.39224
0.373727
0.352861
0.335757
0.325412
0.322591
0.326837
0.335881
0.346049
0.354354
0.360044
0.363628
0.366022
0.367752
0.369282
0.370663
0.372145
0.373577
0.375222
0.376802
0.378683
0.380434
0.3826
0.384524
0.387026
0.389127
0.392062
0.394367
0.397883
0.400439
0.404746
0.407695
0.413195
0.416963
0.424186
0.42874
0.437025
0.441164
0.448767
0.449579
0.453661
0.450452
0.456895
0.46007
0.469287
0.470913
0.44703
0.454302
0.371597
0.313396
0.327644
0.376821
0.393789
0.400895
0.391825
0.390267
0.382591
0.382272
0.377091
0.377245
0.373842
0.374761
0.373436
0.374661
0.373619
0.373976
0.372884
0.372532
0.370879
0.36929
0.36666
0.364054
0.361188
0.358965
0.35732
0.356501
0.356258
0.356351
0.356587
0.356571
0.356426
0.355775
0.355096
0.353888
0.352849
0.351211
0.349856
0.347805
0.346013
0.343599
0.341144
0.338683
0.336108
0.331536
0.340571
0.355029
0.376543
0.395073
0.400893
0.392076
0.373355
0.352296
0.335055
0.324655
0.321872
0.326238
0.33546
0.345805
0.354239
0.359999
0.363613
0.366016
0.367747
0.369273
0.370651
0.372129
0.373558
0.375199
0.376776
0.378655
0.380405
0.382568
0.384491
0.386991
0.389089
0.392021
0.394323
0.397835
0.400388
0.404691
0.407635
0.413133
0.4169
0.42413
0.428692
0.436993
0.441145
0.448759
0.449561
0.453622
0.450372
0.456836
0.460039
0.469404
0.471097
0.447499
0.455121
0.37238
0.313174
0.326074
0.375118
0.392686
0.40036
0.39159
0.390171
0.382542
0.382244
0.377071
0.37723
0.373824
0.374742
0.373423
0.374656
0.373621
0.373983
0.372896
0.372549
0.370899
0.369309
0.366674
0.364057
0.361178
0.358943
0.357294
0.356478
0.356244
0.35635
0.356599
0.356593
0.356456
0.355812
0.355138
0.353937
0.352907
0.35128
0.349941
0.347905
0.346136
0.34374
0.341303
0.338857
0.336272
0.33165
0.340619
0.35517
0.376743
0.395227
0.400912
0.39191
0.372982
0.35173
0.334351
0.323895
0.321147
0.325634
0.335034
0.345558
0.354122
0.359953
0.363599
0.366011
0.367741
0.369265
0.370638
0.372112
0.373537
0.375176
0.376751
0.378627
0.380375
0.382536
0.384457
0.386955
0.38905
0.39198
0.394278
0.397787
0.400336
0.404635
0.407575
0.41307
0.416837
0.424074
0.428645
0.436959
0.441125
0.44875
0.449543
0.453583
0.45029
0.456776
0.460006
0.469521
0.47128
0.447967
0.455932
0.373138
0.31292
0.324445
0.373321
0.39151
0.399788
0.391339
0.390071
0.382492
0.382215
0.377052
0.377215
0.373806
0.374724
0.373409
0.374652
0.373623
0.37399
0.372908
0.372565
0.37092
0.369329
0.366689
0.36406
0.361168
0.358922
0.357267
0.356454
0.35623
0.356349
0.35661
0.356616
0.356487
0.355848
0.355181
0.353986
0.352966
0.35135
0.350027
0.348007
0.34626
0.343882
0.341465
0.339034
0.336439
0.331765
0.340667
0.35531
0.376942
0.395378
0.400929
0.391742
0.372609
0.351164
0.333645
0.323132
0.320418
0.325024
0.334605
0.345309
0.354004
0.359907
0.363584
0.366005
0.367736
0.369256
0.370625
0.372095
0.373517
0.375153
0.376725
0.378599
0.380345
0.382504
0.384423
0.386919
0.389012
0.391938
0.394233
0.397739
0.400284
0.404579
0.407514
0.413007
0.416773
0.424018
0.428597
0.436926
0.441105
0.448742
0.449524
0.453544
0.450208
0.456715
0.459973
0.469638
0.471463
0.448435
0.456735
0.373868
0.312636
0.322757
0.371429
0.390257
0.399174
0.391071
0.389965
0.382441
0.382187
0.377034
0.377201
0.373788
0.374705
0.373396
0.374648
0.373626
0.373997
0.37292
0.372582
0.37094
0.369349
0.366703
0.364063
0.361158
0.358901
0.357241
0.35643
0.356216
0.356347
0.356622
0.356639
0.356518
0.355885
0.355224
0.354035
0.353026
0.35142
0.350114
0.348109
0.346385
0.344027
0.341628
0.339212
0.336607
0.331882
0.340715
0.355449
0.377138
0.395525
0.400942
0.391572
0.372234
0.350598
0.332939
0.322366
0.319684
0.32441
0.334171
0.345058
0.353884
0.35986
0.363568
0.366
0.36773
0.369247
0.370612
0.372078
0.373497
0.375129
0.376699
0.378571
0.380315
0.382472
0.384389
0.386882
0.388973
0.391896
0.394188
0.39769
0.400231
0.404523
0.407453
0.412944
0.416709
0.423961
0.428549
0.436892
0.441084
0.448733
0.449505
0.453503
0.450124
0.456654
0.459938
0.469754
0.471644
0.448903
0.457529
0.374571
0.312323
0.321012
0.36944
0.388925
0.398517
0.390786
0.389853
0.382388
0.382158
0.377016
0.377187
0.373771
0.374687
0.373383
0.374644
0.373629
0.374004
0.372932
0.3726
0.370962
0.36937
0.366718
0.364067
0.361148
0.358879
0.357214
0.356406
0.356201
0.356346
0.356635
0.356662
0.356549
0.355922
0.355267
0.354085
0.353086
0.351491
0.350202
0.348212
0.346512
0.344173
0.341794
0.339394
0.336778
0.332
0.340764
0.355588
0.377332
0.395669
0.400951
0.3914
0.371859
0.350031
0.332231
0.321597
0.318946
0.32379
0.333732
0.344804
0.353764
0.359813
0.363553
0.365994
0.367724
0.369237
0.370598
0.37206
0.373476
0.375106
0.376673
0.378543
0.380285
0.38244
0.384355
0.386846
0.388935
0.391855
0.394143
0.397641
0.400179
0.404467
0.407392
0.41288
0.416645
0.423904
0.428501
0.436858
0.441064
0.448724
0.449485
0.453463
0.45004
0.456591
0.459903
0.469869
0.471825
0.449371
0.458314
0.375246
0.311982
0.319215
0.367353
0.387508
0.397814
0.39048
0.389734
0.382333
0.38213
0.376998
0.377174
0.373754
0.374669
0.373371
0.374641
0.373632
0.374012
0.372945
0.372617
0.370983
0.369391
0.366733
0.364071
0.361138
0.358858
0.357188
0.356382
0.356187
0.356345
0.356647
0.356685
0.356581
0.35596
0.355311
0.354135
0.353146
0.351562
0.35029
0.348317
0.34664
0.344321
0.341962
0.339577
0.336951
0.33212
0.340812
0.355727
0.377523
0.395809
0.400958
0.391226
0.371483
0.349464
0.331522
0.320826
0.318203
0.323166
0.33329
0.344547
0.353642
0.359766
0.363537
0.365988
0.367718
0.369228
0.370585
0.372043
0.373455
0.375082
0.376647
0.378514
0.380255
0.382408
0.384321
0.386809
0.388896
0.391812
0.394098
0.397592
0.400126
0.404411
0.407331
0.412816
0.41658
0.423847
0.428452
0.436824
0.441043
0.448715
0.449466
0.453422
0.449955
0.456527
0.459866
0.469984
0.472005
0.449838
0.459088
0.375891
0.311613
0.317366
0.365169
0.386005
0.397063
0.390153
0.389608
0.382277
0.382101
0.376981
0.37716
0.373737
0.37465
0.373358
0.374638
0.373635
0.37402
0.372958
0.372635
0.371005
0.369412
0.366749
0.364075
0.361129
0.358836
0.357161
0.356358
0.356172
0.356344
0.356659
0.356709
0.356613
0.355998
0.355355
0.354186
0.353207
0.351634
0.350379
0.348423
0.346769
0.34447
0.342132
0.339764
0.337126
0.332241
0.340861
0.355864
0.377713
0.395945
0.400961
0.39105
0.371106
0.348897
0.330812
0.320051
0.317455
0.322536
0.332843
0.344288
0.353519
0.359718
0.363521
0.365981
0.367712
0.369218
0.370571
0.372025
0.373434
0.375058
0.376621
0.378485
0.380224
0.382375
0.384287
0.386773
0.388856
0.39177
0.394052
0.397543
0.400073
0.404354
0.407269
0.412752
0.416515
0.423789
0.428403
0.43679
0.441022
0.448706
0.449446
0.45338
0.449868
0.456462
0.459829
0.470098
0.472184
0.450305
0.459852
0.376506
0.311219
0.315471
0.362886
0.384412
0.396259
0.389804
0.389474
0.382218
0.382073
0.376964
0.377148
0.37372
0.374633
0.373346
0.374634
0.373639
0.374028
0.372971
0.372653
0.371027
0.369434
0.366765
0.364079
0.361119
0.358814
0.357134
0.356333
0.356158
0.356343
0.356672
0.356732
0.356645
0.356036
0.355399
0.354237
0.353269
0.351707
0.35047
0.348529
0.3469
0.344622
0.342305
0.339952
0.337303
0.332364
0.34091
0.356002
0.3779
0.396078
0.400961
0.390872
0.370729
0.34833
0.330101
0.319274
0.316703
0.321901
0.332392
0.344026
0.353395
0.35967
0.363505
0.365975
0.367706
0.369209
0.370557
0.372007
0.373413
0.375033
0.376594
0.378457
0.380194
0.382342
0.384252
0.386736
0.388817
0.391728
0.394007
0.397494
0.400019
0.404297
0.407207
0.412687
0.41645
0.423731
0.428353
0.436755
0.441001
0.448697
0.449426
0.453338
0.449781
0.456396
0.45979
0.470212
0.472362
0.450772
0.460604
0.37709
0.310801
0.313533
0.360506
0.382726
0.3954
0.38943
0.389331
0.382157
0.382043
0.376947
0.377135
0.373703
0.374615
0.373333
0.374631
0.373643
0.374037
0.372985
0.372672
0.371049
0.369455
0.366781
0.364083
0.361109
0.358792
0.357107
0.356309
0.356143
0.356342
0.356685
0.356757
0.356677
0.356075
0.355444
0.354289
0.353331
0.351781
0.350561
0.348637
0.347033
0.344775
0.342479
0.340144
0.337483
0.332488
0.340959
0.356139
0.378085
0.396208
0.400957
0.390692
0.370351
0.347764
0.32939
0.318494
0.315948
0.321262
0.331937
0.343762
0.35327
0.359621
0.363489
0.365968
0.367699
0.369199
0.370543
0.371989
0.373392
0.375009
0.376567
0.378428
0.380163
0.38231
0.384218
0.386699
0.388778
0.391685
0.393961
0.397444
0.399966
0.40424
0.407145
0.412622
0.416384
0.423673
0.428304
0.436721
0.44098
0.448687
0.449406
0.453296
0.449693
0.456329
0.459751
0.470325
0.47254
0.451238
0.461344
0.377641
0.310361
0.311556
0.358028
0.380944
0.394484
0.38903
0.389179
0.382092
0.382013
0.37693
0.377123
0.373687
0.374597
0.373321
0.374629
0.373647
0.374046
0.372999
0.37269
0.371072
0.369478
0.366797
0.364088
0.3611
0.358771
0.357079
0.356284
0.356129
0.356341
0.356698
0.356781
0.35671
0.356113
0.355489
0.354341
0.353394
0.351855
0.350653
0.348746
0.347167
0.34493
0.342656
0.340338
0.337665
0.332614
0.341008
0.356275
0.378267
0.396333
0.400951
0.39051
0.369974
0.347197
0.328678
0.317712
0.315187
0.320617
0.331478
0.343494
0.353144
0.359571
0.363473
0.365962
0.367693
0.369189
0.370529
0.371971
0.37337
0.374984
0.37654
0.378398
0.380132
0.382276
0.384183
0.386661
0.388738
0.391643
0.393915
0.397395
0.399912
0.404182
0.407083
0.412557
0.416318
0.423614
0.428254
0.436686
0.440959
0.448678
0.449386
0.453254
0.449605
0.456261
0.459711
0.470437
0.472717
0.451704
0.462072
0.378161
0.309902
0.309545
0.355456
0.379064
0.393507
0.388602
0.389017
0.382025
0.381983
0.376913
0.37711
0.373671
0.374579
0.373309
0.374626
0.373651
0.374055
0.373012
0.372709
0.371095
0.3695
0.366814
0.364093
0.36109
0.358749
0.357052
0.356259
0.356114
0.35634
0.356711
0.356805
0.356743
0.356153
0.355535
0.354393
0.353457
0.351929
0.350745
0.348856
0.347302
0.345087
0.342836
0.340534
0.33785
0.332741
0.341057
0.356411
0.378447
0.396456
0.400941
0.390326
0.369595
0.346631
0.327966
0.316928
0.314423
0.319967
0.331014
0.343225
0.353016
0.359521
0.363456
0.365955
0.367686
0.369178
0.370515
0.371953
0.373348
0.37496
0.376513
0.378369
0.380101
0.382243
0.384148
0.386624
0.388699
0.3916
0.393869
0.397345
0.399859
0.404125
0.40702
0.412491
0.416251
0.423555
0.428204
0.436651
0.440938
0.448669
0.449366
0.453211
0.449515
0.456193
0.45967
0.47055
0.472893
0.452169
0.462787
0.378647
0.309424
0.307504
0.352791
0.377083
0.392466
0.388144
0.388843
0.381954
0.381951
0.376896
0.377098
0.373655
0.374562
0.373297
0.374623
0.373655
0.374064
0.373027
0.372728
0.371118
0.369523
0.366831
0.364098
0.361081
0.358726
0.357024
0.356234
0.356099
0.356339
0.356724
0.35683
0.356776
0.356192
0.35558
0.354446
0.35352
0.352005
0.350839
0.348967
0.347439
0.345246
0.343017
0.340733
0.338036
0.332869
0.341107
0.356546
0.378625
0.396574