/*--------------------------------*- C++ -*----------------------------------*\
| =========                 |                                                 |
| \\      /  F ield         | OpenFOAM: The Open Source CFD Toolbox           |
|  \\    /   O peration     | Version:  2412                                  |
|   \\  /    A nd           | Website:  www.openfoam.com                      |
|    \\/     M anipulation  |                                                 |
\*---------------------------------------------------------------------------*/
FoamFile
{
    version     2.0;
    format      ascii;
    arch        "LSB;label=32;scalar=64";
    class       volScalarField;
    location    "0.5";
    object      p;
}
// * * * * * * * * * * * * * * * * * * * * * * * * * * * * * * * * * * * * * //

dimensions      [0 2 -2 0 0 0 0];

internalField   nonuniform List<scalar> 
12960
(
107740
107712
107671
107601
107531
107424
107332
107202
107090
106925
106777
106562
106379
106120
105913
105601
105367
104986
104728
104257
103979
103390
103098
102353
102061
101104
100836
99586.3
99381.9
97726.7
97651
95424.2
95581.7
92540.9
93098.3
88885.2
90107.6
84187.8
86499.3
78069.7
82153.2
69997.9
76964
59218.9
70843.1
44529.9
63460
23628.6
53511.4
-7858.71
38328.2
-54995.7
18050.5
-114379
3078.92
-72013.6
10133.1
-35364.1
17799.8
-10590.8
24461.6
7982.9
31599.1
22599.2
38520.1
34042.4
44888.3
43066.9
50535.9
50132.1
55290.3
55570.9
59168.3
59767
62326.6
63061
64928.2
65715.9
67119.7
67936.5
69024.3
69872.4
70724.3
71610.9
72251.6
73188
73604.9
74619.7
74778.2
75928.5
75773.6
77151
76600.6
78334.2
77270.9
79526.7
77797.4
80761
78196.7
107745
107717
107676
107605
107534
107427
107334
107204
107092
106927
106779
106564
106381
106122
105915
105603
105369
104988
104730
104260
103981
103393
103101
102356
102064
101107
100839
99590.6
99385.5
97731.5
97654.7
95429.7
95585.6
92547.3
93102.3
88892.5
90111.4
84196
86502.6
78078.8
82155.5
70007.6
76965.1
59229.7
70844.8
44544.2
63466.8
23648.6
53525.1
-7843.87
38336
-55029.4
18026.9
-114575
3024.94
-72041
10127
-35351.5
17799.8
-10583.4
24456.6
7987.05
31595.5
22603.9
38518.3
34047.4
44888.3
43072.6
50538.1
50138.5
55293.7
55576.9
59171.8
59772
62329.6
63064.7
64930.3
65718.2
67120.8
67937.6
69024.9
69872.8
70724.8
71611
72252.2
73188.1
73605.9
74619.7
74779.3
75928.2
75774.7
77150.2
76601.4
78333
77271.2
79525.6
77797
80760.8
78195.5
107751
107723
107681
107609
107538
107430
107337
107206
107094
106929
106781
106566
106383
106124
105917
105605
105372
104991
104733
104263
103984
103396
103104
102360
102067
101111
100842
99594.8
99389
97736.4
97658.5
95435.3
95589.6
92553.7
93106.3
88899.8
90115.3
84204.3
86506
78087.9
82157.9
70017.4
76966.3
59240.7
70846.5
44558.6
63473.6
23668.5
53538.6
-7829.08
38343.8
-55063.3
18003
-114773
2970.59
-72068.5
10120.5
-35339
17799.6
-10576
24451.5
7991.34
31591.9
22608.7
38516.5
34052.5
44888.3
43078.5
50540.3
50145
55297.1
55583
59175.2
59776.9
62332.5
63068.3
64932.4
65720.5
67122
67938.7
69025.5
69873.2
70725.2
71611.2
72252.9
73188.3
73606.9
74619.8
74780.4
75927.9
75775.8
77149.4
76602.3
78331.9
77271.5
79524.6
77796.6
80760.7
78194.5
107756
107728
107686
107613
107542
107433
107340
107208
107097
106931
106783
106567
106384
106126
105919
105607
105374
104993
104735
104265
103986
103399
103106
102363
102070
101115
100845
99599.1
99392.6
97741.3
97662.3
95440.9
95593.5
92560.2
93110.3
88907.2
90119.2
84212.6
86509.4
78097.1
82160.3
70027.4
76967.6
59251.8
70848.4
44573.1
63480.3
23688.5
53552.2
-7814.27
38351.5
-55097.5
17978.7
-114973
2915.84
-72096.2
10113.8
-35326.7
17799.4
-10568.4
24446.5
7995.77
31588.3
22613.7
38514.7
34057.7
44888.4
43084.4
50542.5
50151.5
55300.5
55589
59178.7
59781.8
62335.4
63071.9
64934.5
65722.7
67123.2
67939.8
69026
69873.6
70725.6
71611.4
72253.6
73188.5
73607.9
74619.8
74781.6
75927.6
75776.9
77148.7
76603.2
78330.8
77271.9
79523.6
77796.4
80760.7
78193.5
107762
107733
107691
107618
107546
107436
107343
107210
107099
106933
106785
106569
106386
106128
105920
105609
105376
104995
104737
104268
103989
103402
103109
102366
102073
101119
100849
99603.4
99396.2
97746.2
97666.1
95446.6
95597.5
92566.6
93114.4
88914.7
90123.1
84221
86512.8
78106.4
82162.7
70037.4
76968.9
59263
70850.2
44587.8
63487.1
23708.6
53565.9
-7799.31
38359.4
-55131.8
17954.4
-115175
2860.56
-72124
10106.9
-35314.2
17799.1
-10560.8
24441.5
8000.23
31584.7
22618.7
38512.9
34062.9
44888.5
43090.3
50544.8
50158
55303.9
55595
59182.1
59786.8
62338.3
63075.6
64936.6
65725
67124.5
67940.9
69026.6
69874
70726.1
71611.6
72254.3
73188.7
73608.9
74619.9
74782.8
75927.4
75778.1
77148
76604.1
78329.7
77272.4
79522.6
77796.1
80760.7
78192.4
107767
107738
107695
107622
107550
107440
107345
107213
107101
106935
106786
106571
106388
106130
105922
105611
105378
104998
104740
104270
103991
103405
103112
102370
102076
101122
100852
99607.7
99399.8
97751.1
97670
95452.2
95601.5
92573.2
93118.5
88922.1
90127
84229.5
86516.2
78115.8
82165.2
70047.5
76970.2
59274.3
70852
44602.5
63494
23728.9
53579.7
-7784.18
38367.5
-55166.2
17929.9
-115379
2804.75
-72152.1
10099.9
-35301.8
17798.8
-10553.2
24436.4
8004.72
31581.1
22623.7
38511.2
34068.2
44888.5
43096.4
50547
50164.6
55307.4
55601.1
59185.6
59791.8
62341.3
63079.3
64938.8
65727.4
67125.7
67942.1
69027.2
69874.4
70726.6
71611.8
72255
73188.9
73610
74620
74784
75927.1
75779.3
77147.3
76605
78328.6
77272.8
79521.6
77795.8
80760.7
78191.4
107773
107743
107700
107626
107554
107443
107348
107215
107103
106937
106788
106573
106390
106132
105924
105613
105380
105000
104742
104273
103994
103408
103115
102373
102079
101126
100855
99612.1
99403.4
97756.1
97673.8
95458
95605.6
92579.8
93122.6
88929.7
90131
84238
86519.7
78125.2
82167.7
70057.6
76971.5
59285.6
70853.9
44617.3
63500.9
23749.4
53593.6
-7768.86
38375.6
-55200.8
17905.3
-115585
2748.38
-72180.3
10092.8
-35289.2
17798.5
-10545.5
24431.3
8009.24
31577.5
22628.8
38509.4
34073.5
44888.6
43102.4
50549.3
50171.3
55310.9
55607.3
59189.1
59796.8
62344.3
63083
64940.9
65729.7
67126.9
67943.2
69027.8
69874.9
70727
71612.1
72255.7
73189.1
73611
74620.1
74785.2
75926.9
75780.4
77146.5
76605.9
78327.5
77273.3
79520.6
77795.5
80760.7
78190.3
107779
107749
107705
107631
107558
107446
107351
107218
107105
106939
106790
106575
106392
106134
105926
105615
105382
105002
104744
104276
103996
103411
103118
102376
102083
101130
100859
99616.5
99407.1
97761.2
97677.7
95463.7
95609.7
92586.4
93126.7
88937.3
90135
84246.6
86523.2
78134.8
82170.1
70067.9
76972.8
59297
70855.7
44632.2
63507.8
23770
53607.7
-7753.38
38383.9
-55235.5
17880.6
-115792
2691.48
-72208.8
10085.5
-35276.6
17798.2
-10537.8
24426.2
8013.8
31573.8
22633.9
38507.6
34078.9
44888.7
43108.5
50551.6
50178
55314.4
55613.5
59192.7
59801.9
62347.3
63086.8
64943.1
65732.1
67128.1
67944.4
69028.4
69875.3
70727.5
71612.3
72256.5
73189.3
73612.1
74620.2
74786.4
75926.6
75781.6
77145.8
76606.9
78326.3
77273.7
79519.6
77795.2
80760.7
78189.3
107785
107754
107711
107635
107562
107450
107354
107220
107107
106941
106792
106577
106394
106136
105928
105618
105384
105005
104747
104278
103999
103414
103120
102380
102086
101134
100862
99620.9
99410.7
97766.2
97681.7
95469.6
95613.8
92593.1
93130.9
88944.9
90139
84255.3
86526.7
78144.3
82172.6
70078.2
76974.1
59308.5
70857.5
44647.3
63514.8
23790.8
53621.9
-7737.72
38392.4
-55270.3
17855.8
-116001
2634.02
-72237.4
10078
-35264
17797.8
-10530.1
24421
8018.38
31570.2
22639
38505.8
34084.3
44888.8
43114.7
50553.9
50184.7
55318
55619.8
59196.3
59807
62350.3
63090.6
64945.2
65734.4
67129.4
67945.5
69029
69875.7
70727.9
71612.5
72257.2
73189.5
73613.1
74620.3
74787.7
75926.3
75782.8
77145
76607.8
78325.2
77274.2
79518.6
77794.9
80760.6
78188.2
107790
107759
107716
107640
107566
107453
107357
107222
107109
106943
106794
106579
106396
106138
105930
105620
105387
105007
104749
104281
104002
103417
103123
102383
102089
101138
100866
99625.4
99414.5
97771.3
97685.6
95475.4
95617.9
92599.8
93135.1
88952.6
90143.1
84264
86530.3
78154
82175.2
70088.6
76975.4
59320.1
70859.3
44662.4
63521.9
23811.7
53636.2
-7721.88
38401
-55305.2
17830.8
-116212
2576.01
-72266.3
10070.3
-35251.3
17797.4
-10522.3
24415.7
8022.99
31566.5
22644.2
38504
34089.8
44888.9
43120.9
50556.3
50191.6
55321.6
55626.1
59199.9
59812.2
62353.4
63094.4
64947.4
65736.8
67130.6
67946.7
69029.6
69876.1
70728.4
71612.7
72257.9
73189.7
73614.2
74620.3
74788.9
75926.1
75784
77144.3
76608.8
78324
77274.6
79517.5
77794.6
80760.6
78187.1
107796
107765
107721
107644
107570
107456
107360
107225
107112
106945
106796
106581
106398
106140
105933
105622
105389
105010
104752
104284
104004
103420
103126
102387
102092
101142
100869
99629.9
99418.2
97776.5
97689.6
95481.3
95622.1
92606.6
93139.3
88960.4
90147.1
84272.8
86533.8
78163.7
82177.7
70099
76976.7
59331.7
70861.2
44677.6
63528.9
23832.8
53650.7
-7705.86
38409.7
-55340.3
17805.7
-116425
2517.44
-72295.4
10062.5
-35238.6
17797
-10514.4
24410.4
8027.63
31562.7
22649.5
38502.2
34095.2
44889
43127.1
50558.7
50198.5
55325.2
55632.4
59203.5
59817.4
62356.4
63098.2
64949.6
65739.2
67131.9
67947.8
69030.2
69876.5
70728.9
71612.9
72258.7
73189.9
73615.3
74620.4
74790.2
75925.8
75785.2
77143.5
76609.7
78322.9
77275.1
79516.4
77794.3
80760.6
78185.9
107802
107770
107726
107649
107574
107460
107363
107227
107114
106947
106798
106583
106400
106142
105935
105624
105391
105012
104754
104286
104007
103423
103129
102390
102095
101146
100873
99634.4
99421.9
97781.6
97693.6
95487.2
95626.3
92613.4
93143.6
88968.2
90151.3
84281.7
86537.4
78173.5
82180.3
70109.6
76978
59343.4
70863
44692.9
63536.1
23854.1
53665.3
-7689.66
38418.6
-55375.4
17780.6
-116640
2458.32
-72324.7
10054.4
-35225.9
17796.5
-10506.6
24405
8032.3
31559
22654.8
38500.3
34100.8
44889
43133.4
50561.1
50205.4
55328.8
55638.9
59207.2
59822.7
62359.5
63102.1
64951.8
65741.6
67133.1
67949
69030.8
69877
70729.3
71613.1
72259.4
73190.1
73616.4
74620.5
74791.5
75925.6
75786.5
77142.8
76610.7
78321.7
77275.6
79515.3
77794
80760.5
78184.8
107808
107776
107731
107653
107578
107463
107366
107230
107116
106949
106800
106585
106402
106144
105937
105626
105393
105015
104756
104289
104010
103426
103132
102394
102098
101150
100876
99638.9
99425.7
97786.8
97697.6
95493.2
95630.5
92620.2
93147.8
88976.1
90155.4
84290.6
86541.1
78183.4
82182.8
70120.2
76979.3
59355.2
70864.8
44708.3
63543.2
23875.5
53680
-7673.28
38427.6
-55410.6
17755.3
-116857
2398.63
-72354.3
10046.1
-35213.2
17796
-10498.7
24399.6
8037
31555.2
22660.1
38498.5
34106.4
44889.1
43139.8
50563.5
50212.4
55332.5
55645.3
59210.9
59827.9
62362.7
63106
64954.1
65744.1
67134.4
67950.2
69031.4
69877.4
70729.8
71613.3
72260.2
73190.3
73617.5
74620.6
74792.7
75925.3
75787.7
77142
76611.7
78320.5
77276.1
79514.2
77793.7
80760.5
78183.6
107814
107781
107737
107658
107582
107467
107369
107232
107118
106952
106803
106587
106404
106146
105939
105629
105396
105017
104759
104292
104012
103429
103135
102397
102102
101154
100880
99643.5
99429.5
97792.1
97701.7
95499.2
95634.7
92627.2
93152.2
88984
90159.6
84299.6
86544.7
78193.3
82185.4
70130.9
76980.6
59367
70866.6
44723.8
63550.4
23897.1
53694.9
-7656.72
38436.8
-55446
17729.9
-117076
2338.38
-72384
10037.6
-35200.5
17795.5
-10490.8
24394.1
8041.72
31551.4
22665.5
38496.6
34112
44889.3
43146.2
50565.9
50219.5
55336.2
55651.8
59214.6
59833.3
62365.8
63109.9
64956.3
65746.5
67135.7
67951.3
69031.9
69877.8
70730.3
71613.5
72260.9
73190.6
73618.6
74620.8
74794
75925.1
75789
77141.2
76612.7
78319.3
77276.5
79513
77793.4
80760.4
78182.4
107821
107787
107742
107663
107586
107470
107372
107235
107121
106954
106805
106589
106406
106148
105941
105631
105398
105020
104761
104295
104015
103432
103138
102401
102105
101158
100883
99648.1
99433.4
97797.4
97705.8
95505.3
95639
92634.1
93156.5
88992
90163.8
84308.6
86548.4
78203.3
82188
70141.6
76981.9
59379
70868.4
44739.4
63557.7
23918.9
53709.9
-7639.97
38446.1
-55481.4
17704.4
-117297
2277.57
-72414
10028.8
-35187.8
17794.8
-10482.8
24388.6
8046.48
31547.6
22670.9
38494.8
34117.6
44889.4
43152.6
50568.4
50226.6
55340
55658.4
59218.3
59838.6
62369
63113.8
64958.6
65749
67136.9
67952.5
69032.5
69878.2
70730.7
71613.7
72261.7
73190.8
73619.7
74620.9
74795.3
75924.8
75790.2
77140.4
76613.7
78318
77277
79511.9
77793.1
80760.3
78181.2
107827
107793
107747
107667
107591
107474
107375
107237
107123
106956
106807
106591
106408
106150
105943
105633
105400
105022
104764
104298
104018
103436
103141
102404
102108
101162
100887
99652.7
99437.2
97802.7
97709.9
95511.4
95643.3
92641.1
93160.9
89000
90168
84317.7
86552.1
78213.4
82190.6
70152.4
76983.2
59391
70870.2
44755
63565
23940.8
53725
-7623.04
38455.5
-55517
17678.7
-117519
2216.18
-72444.2
10019.8
-35175.1
17794.2
-10474.8
24383
8051.25
31543.8
22676.3
38492.9
34123.3
44889.5
43159.1
50570.9
50233.7
55343.8
55665
59222.1
59844
62372.2
63117.8
64960.9
65751.4
67138.2
67953.7
69033.1
69878.7
70731.2
71614
72262.4
73191
73620.8
74621
74796.7
75924.5
75791.5
77139.6
76614.7
78316.8
77277.5
79510.7
77792.8
80760.2
78179.9
107833
107799
107753
107672
107595
107477
107378
107240
107125
106958
106809
106593
106410
106152
105945
105636
105402
105025
104766
104300
104020
103439
103144
102408
102111
101166
100890
99657.4
99441.1
97808
97714
95517.5
95647.6
92648.2
93165.3
89008.1
90172.2
84326.9
86555.8
78223.6
82193.3
70163.3
76984.5
59403
70872
44770.8
63572.3
23962.8
53740.3
-7605.93
38465.1
-55552.6
17653
-117744
2154.23
-72474.6
10010.5
-35162.5
17793.4
-10466.9
24377.4
8056.06
31539.9
22681.8
38491
34129.1
44889.6
43165.7
50573.4
50241
55347.6
55671.7
59225.9
59849.5
62375.4
63121.8
64963.2
65753.9
67139.5
67954.9
69033.7
69879.1
70731.7
71614.2
72263.2
73191.3
73622
74621.1
74798
75924.3
75792.8
77138.8
76615.7
78315.5
77278
79509.5
77792.4
80760.1
78178.7
107839
107804
107758
107677
107599
107481
107381
107242
107128
106960
106811
106595
106412
106154
105947
105638
105405
105027
104769
104303
104023
103442
103147
102412
102115
101170
100894
99662.1
99445
97813.4
97718.2
95523.7
95652
92655.3
93169.7
89016.3
90176.5
84336.2
86559.5
78233.8
82195.9
70174.3
76985.8
59415.2
70873.8
44786.7
63579.7
23985.1
53755.7
-7588.62
38474.9
-55588.4
17627.2
-117970
2091.7
-72505.3
10000.9
-35149.9
17792.6
-10458.8
24371.7
8060.89
31536.1
22687.3
38489.2
34134.9
44889.7
43172.3
50576
50248.2
55351.4
55678.4
59229.8
59854.9
62378.6
63125.9
64965.5
65756.4
67140.8
67956.1
69034.3
69879.5
70732.1
71614.4
72264
73191.5
73623.1
74621.2
74799.3
75924
75794.1
77138
76616.7
78314.2
77278.5
79508.2
77792.1
80760
78177.4
107846
107810
107764
107682
107604
107484
107384
107245
107130
106962
106813
106597
106414
106156
105949
105640
105407
105030
104771
104306
104026
103445
103150
102415
102118
101174
100898
99666.8
99449
97818.8
97722.4
95529.9
95656.3
92662.4
93174.2
89024.5
90180.8
84345.5
86563.3
78244.1
82198.6
70185.3
76987.1
59427.4
70875.6
44802.6
63587.1
24007.5
53771.2
-7571.13
38484.8
-55624.2
17601.2
-118199
2028.6
-72536.1
9991.03
-35137.4
17791.7
-10450.8
24366
8065.75
31532.2
22692.9
38487.3
34140.7
44889.8
43179
50578.5
50255.6
55355.3
55685.2
59233.6
59860.5
62381.9
63129.9
64967.8
65759
67142.1
67957.3
69034.9
69879.9
70732.6
71614.6
72264.8
73191.7
73624.3
74621.3
74800.7
75923.8
75795.4
77137.2
76617.8
78312.9
77279
79507
77791.7
80759.9
78176.1
107852
107816
107769
107687
107608
107488
107388
107247
107132
106964
106815
106600
106416
106159
105952
105643
105409
105032
104774
104309
104029
103448
103153
102419
102122
101178
100901
99671.6
99452.9
97824.3
97726.6
95536.2
95660.8
92669.6
93178.6
89032.7
90185.1
84354.8
86567.1
78254.5
82201.3
70196.4
76988.4
59439.7
70877.4
44818.7
63594.6
24030
53786.9
-7553.44
38494.9
-55660.1
17575.2
-118429
1964.92
-72567.2
9980.85
-35124.9
17790.7
-10442.8
24360.2
8070.63
31528.2
22698.5
38485.4
34146.6
44890
43185.7
50581.1
50263
55359.2
55692
59237.5
59866
62385.2
63134
64970.2
65761.5
67143.4
67958.5
69035.5
69880.4
70733.1
71614.8
72265.5
73192
73625.4
74621.5
74802.1
75923.5
75796.7
77136.4
76618.8
78311.6
77279.5
79505.7
77791.4
80759.8
78174.8
107858
107822
107775
107692
107612
107492
107391
107250
107135
106966
106817
106602
106418
106161
105954
105645
105412
105035
104776
104312
104032
103452
103156
102423
102125
101183
100905
99676.4
99456.9
97829.7
97730.8
95542.5
95665.2
92676.9
93183.1
89041
90189.5
84364.2
86570.9
78264.9
82204
70207.6
76989.7
59452
70879.2
44834.8
63602.1
24052.7
53802.7
-7535.57
38505.1
-55696.1
17549.1
-118661
1900.67
-72598.5
9970.35
-35112.5
17789.6
-10434.7
24354.3
8075.53
31524.3
22704.2
38483.5
34152.5
44890.1
43192.4
50583.7
50270.4
55363.2
55698.8
59241.5
59871.6
62388.5
63138.1
64972.5
65764.1
67144.7
67959.7
69036.1
69880.8
70733.5
71615
72266.3
73192.2
73626.6
74621.6
74803.4
75923.3
75798.1
77135.6
76619.9
78310.3
77280
79504.4
77791
80759.6
78173.4
107865
107828
107781
107696
107617
107495
107394
107253
107137
106969
106819
106604
106420
106163
105956
105647
105414
105037
104779
104315
104034
103455
103159
102426
102128
101187
100909
99681.2
99460.9
97835.3
97735.1
95548.8
95669.7
92684.2
93187.7
89049.4
90193.9
84373.7
86574.8
78275.4
82206.7
70218.9
76991.1
59464.4
70881
44851.1
63609.7
24075.6
53818.7
-7517.5
38515.5
-55732.2
17522.8
-118896
1835.84
-72630.1
9959.51
-35100.3
17788.4
-10426.7
24348.4
8080.46
31520.3
22709.9
38481.5
34158.5
44890.3
43199.2
50586.4
50278
55367.2
55705.8
59245.4
59877.3
62391.8
63142.3
64974.9
65766.6
67146
67960.9
69036.7
69881.2
70734
71615.3
72267.1
73192.5
73627.8
74621.8
74804.8
75923
75799.4
77134.7
76621
78308.9
77280.6
79503.1
77790.7
80759.5
78172
107872
107834
107787
107701
107621
107499
107397
107255
107139
106971
106821
106606
106422
106165
105958
105650
105417
105040
104782
104318
104037
103458
103163
102430
102132
101191
100913
99686.1
99464.9
97840.8
97739.4
95555.2
95674.2
92691.5
93192.3
89057.8
90198.3
84383.3
86578.7
78286
82209.4
70230.2
76992.4
59476.9
70882.7
44867.4
63617.3
24098.6
53834.8
-7499.24
38526
-55768.3
17496.5
-119132
1770.44
-72661.8
9948.33
-35088.1
17787.1
-10418.6
24342.4
8085.41
31516.3
22715.6
38479.6
34164.4
44890.4
43206.1
50589.1
50285.5
55371.2
55712.7
59249.4
59882.9
62395.2
63146.5
64977.3
65769.2
67147.4
67962.1
69037.3
69881.6
70734.5
71615.5
72267.9
73192.7
73629
74621.9
74806.2
75922.8
75800.8
77133.9
76622.1
78307.6
77281.1
79501.7
77790.3
80759.3
78170.7
107878
107840
107792
107706
107626
107503
107400
107258
107142
106973
106824
106608
106424
106167
105960
105652
105419
105043
104784
104321
104040
103462
103166
102434
102135
101195
100916
99691
99469
97846.4
97743.7
95561.6
95678.7
92698.9
93196.9
89066.3
90202.8
84392.9
86582.6
78296.6
82212.2
70241.6
76993.7
59489.5
70884.5
44883.8
63624.9
24121.8
53851
-7480.79
38536.7
-55804.6
17470.1
-119370
1704.45
-72693.7
9936.8
-35076
17785.7
-10410.6
24336.3
8090.39
31512.3
22721.4
38477.7
34170.5
44890.5
43213
50591.8
50293.2
55375.2
55719.8
59253.4
59888.7
62398.6
63150.7
64979.7
65771.8
67148.7
67963.3
69037.9
69882
70734.9
71615.7
72268.7
73193
73630.2
74622
74807.7
75922.5
75802.2
77133
76623.2
78306.2
77281.6
79500.4
77790
80759.1
78169.2
107885
107847
107798
107712
107630
107506
107404
107261
107144
106975
106826
106610
106426
106170
105963
105655
105421
105045
104787
104324
104043
103465
103169
102438
102139
101200
100920
99695.9
99473.1
97852
97748.1
95568.1
95683.2
92706.3
93201.5
89074.8
90207.2
84402.6
86586.5
78307.4
82215
70253.1
76995
59502.1
70886.2
44900.3
63632.6
24145.2
53867.4
-7462.14
38547.6
-55840.9
17443.6
-119611
1637.89
-72725.8
9924.9
-35064.1
17784.2
-10402.5
24330.2
8095.38
31508.2
22727.2
38475.7
34176.6
44890.7
43220
50594.5
50300.9
55379.3
55726.8
59257.5
59894.4
62402
63154.9
64982.1
65774.4
67150
67964.5
69038.5
69882.4
70735.4
71615.9
72269.5
73193.3
73631.4
74622.2
74809.1
75922.3
75803.6
77132.2
76624.3
78304.8
77282.2
79499
77789.6
80758.9
78167.8
107892
107853
107804
107717
107635
107510
107407
107263
107146
106977
106828
106612
106429
106172
105965
105657
105424
105048
104790
104327
104046
103468
103172
102441
102142
101204
100924
99700.8
99477.2
97857.7
97752.4
95574.6
95687.8
92713.8
93206.1
89083.4
90211.7
84412.4
86590.4
78318.1
82217.7
70264.7
76996.3
59514.8
70888
44916.9
63640.3
24168.7
53883.9
-7443.29
38558.6
-55877.3
17417
-119853
1570.76
-72758.1
9912.63
-35052.4
17782.5
-10394.5
24324
8100.4
31504.1
22733.1
38473.8
34182.7
44890.9
43227
50597.2
50308.6
55383.4
55734
59261.6
59900.2
62405.4
63159.2
64984.6
65777.1
67151.4
67965.8
69039
69882.9
70735.9
71616.2
72270.4
73193.5
73632.7
74622.4
74810.5
75922
75804.9
77131.3
76625.4
78303.4
77282.7
79497.5
77789.2
80758.7
78166.4
107899
107859
107810
107722
107640
107514
107410
107266
107149
106980
106830
106615
106431
106174
105967
105659
105426
105051
104792
104330
104049
103472
103175
102445
102146
101208
100928
99705.8
99481.3
97863.4
97756.8
95581.1
95692.4
92721.4
93210.8
89092.1
90216.3
84422.2
86594.4
78329
82220.5
70276.3
76997.6
59527.6
70889.7
44933.6
63648
24192.4
53900.5
-7424.24
38569.8
-55913.7
17390.3
-120097
1503.05
-72790.6
9899.98
-35040.8
17780.7
-10386.4
24317.7
8105.43
31500
22739
38471.8
34188.9
44891
43234
50600
50316.4
55387.6
55741.1
59265.7
59906.1
62408.9
63163.5
64987
65779.7
67152.7
67967
69039.6
69883.3
70736.3
71616.4
72271.2
73193.8
73633.9
74622.5
74812
75921.8
75806.4
77130.5
76626.5
78301.9
77283.3
79496.1
77788.8
80758.5
78164.9
107905
107866
107816
107727
107644
107518
107413
107269
107151
106982
106832
106617
106433
106176
105969
105662
105429
105054
104795
104333
104052
103475
103179
102449
102149
101213
100932
99710.8
99485.5
97869.1
97761.3
95587.7
95697
92728.9
93215.5
89100.8
90220.8
84432
86598.4
78339.9
82223.4
70288
76998.9
59540.4
70891.4
44950.3
63655.8
24216.3
53917.3
-7405
38581.2
-55950.2
17363.6
-120344
1434.76
-72823.2
9886.95
-35029.4
17778.7
-10378.4
24311.4
8110.49
31495.9
22745
38469.8
34195.1
44891.2
43241.2
50602.8
50324.3
55391.8
55748.4
59269.8
59911.9
62412.4
63167.8
64989.5
65782.4
67154.1
67968.2
69040.2
69883.7
70736.8
71616.6
72272
73194.1
73635.1
74622.7
74813.4
75921.5
75807.8
77129.6
76627.6
78300.5
77283.8
79494.6
77788.5
80758.2
78163.4
107912
107872
107822
107732
107649
107522
107417
107271
107154
106984
106835
106619
106435
106179
105972
105664
105431
105056
104798
104336
104055
103478
103182
102453
102153
101217
100935
99715.8
99489.6
97874.9
97765.7
95594.3
95701.7
92736.6
93220.3
89109.5
90225.4
84442
86602.5
78351
82226.2
70299.7
77000.2
59553.3
70893.1
44967.2
63663.6
24240.3
53934.3
-7385.55
38592.7
-55986.8
17336.7
-120592
1365.91
-72856
9873.52
-35018.2
17776.6
-10370.4
24304.9
8115.57
31491.8
22750.9
38467.8
34201.3
44891.3
43248.3
50605.6
50332.2
55396
55755.6
59274
59917.9
62415.9
63172.1
64992
65785.1
67155.4
67969.5
69040.8
69884.1
70737.3
71616.8
72272.8
73194.4
73636.4
74622.8
74814.9
75921.3
75809.2
77128.7
76628.8
78299
77284.4
79493.1
77788.1
80758
78161.8
107919
107878
107828
107737
107654
107525
107420
107274
107156
106986
106837
106621
106437
106181
105974
105667
105434
105059
104800
104339
104058
103482
103185
102457
102156
101222
100939
99720.9
99493.8
97880.7
97770.2
95601
95706.4
92744.2
93225
89118.3
90230
84452
86606.5
78362
82229
70311.6
77001.4
59566.3
70894.8
44984.1
63671.5
24264.5
53951.3
-7365.9
38604.4
-56023.4
17309.8
-120843
1296.49
-72889
9859.7
-35007.2
17774.3
-10362.5
24298.4
8120.66
31487.6
22757
38465.8
34207.6
44891.5
43255.5
50608.5
50340.2
55400.2
55763
59278.2
59923.8
62419.4
63176.5
64994.5
65787.8
67156.8
67970.7
69041.4
69884.5
70737.7
71617.1
72273.7
73194.6
73637.7
74623
74816.4
75921
75810.7
77127.8
76629.9
78297.5
77284.9
79491.6
77787.7
80757.7
78160.3
107927
107885
107834
107743
107658
107529
107423
107277
107159
106988
106839
106624
106440
106183
105976
105669
105436
105062
104803
104342
104061
103485
103188
102461
102160
101226
100943
99726
99498.1
97886.5
97774.7
95607.7
95711.1
92751.9
93229.8
89127.2
90234.7
84462.1
86610.6
78373.2
82231.9
70323.5
77002.7
59579.4
70896.5
45001.2
63679.4
24288.8
53968.5
-7346.05
38616.3
-56060.1
17282.8
-121096
1226.5
-72922
9845.48
-34996.5
17771.8
-10354.5
24291.9
8125.77
31483.4
22763
38463.8
34213.9
44891.7
43262.8
50611.4
50348.2
55404.5
55770.4
59282.4
59929.8
62422.9
63180.9
64997
65790.5
67158.1
67972
69042
69884.9
70738.2
71617.3
72274.5
73194.9
73639
74623.2
74817.9
75920.8
75812.1
77126.9
76631.1
78296
77285.5
79490
77787.3
80757.4
78158.7
107934
107892
107841
107748
107663
107533
107427
107280
107161
106991
106841
106626
106442
106186
105979
105672
105439
105065
104806
104345
104064
103489
103192
102465
102164
101231
100947
99731.1
99502.3
97892.4
97779.2
95614.4
95715.8
92759.7
93234.7
89136.1
90239.4
84472.2
86614.7
78384.4
82234.8
70335.5
77004
59592.5
70898.2
45018.3
63687.4
24313.3
53985.9
-7326
38628.3
-56096.8
17255.8
-121350
1155.95
-72955.2
9830.86
-34985.9
17769.1
-10346.6
24285.2
8130.89
31479.1
22769.1
38461.8
34220.3
44891.9
43270.1
50614.3
50356.3
55408.9
55777.8
59286.7
59935.9
62426.5
63185.3
64999.5
65793.2
67159.5
67973.2
69042.5
69885.3
70738.7
71617.5
72275.4
73195.2
73640.2
74623.4
74819.4
75920.5
75813.6
77126
76632.2
78294.5
77286.1
79488.4
77786.9
80757.1
78157.1
107941
107898
107847
107754
107668
107537
107430
107282
107163
106993
106844
106628
106444
106188
105981
105674
105441
105067
104809
104348
104067
103492
103195
102469
102167
101235
100951
99736.3
99506.6
97898.3
97783.8
95621.2
95720.6
92767.5
93239.5
89145.1
90244.1
84482.4
86618.8
78395.7
82237.7
70347.5
77005.3
59605.6
70899.8
45035.5
63695.4
24338
54003.4
-7305.74
38640.5
-56133.6
17228.6
-121607
1084.84
-72988.4
9815.85
-34975.7
17766.2
-10338.8
24278.5
8136.04
31474.9
22775.3
38459.8
34226.7
44892
43277.5
50617.2
50364.5
55413.2
55785.3
59291
59941.9
62430.1
63189.8
65002
65795.9
67160.9
67974.5
69043.1
69885.7
70739.1
71617.7
72276.2
73195.5
73641.6
74623.6
74820.9
75920.3
75815.1
77125.1
76633.4
78292.9
77286.7
79486.8
77786.5
80756.8
78155.5
107948
107905
107853
107759
107673
107541
107434
107285
107166
106995
106846
106630
106446
106190
105984
105677
105444
105070
104811
104351
104070
103496
103198
102473
102171
101240
100955
99741.5
99510.9
97904.3
97788.4
95628.1
95725.4
92775.4
93244.4
89154.1
90248.8
84492.7
86623
78407.1
82240.6
70359.7
77006.6
59618.9
70901.5
45052.8
63703.4
24362.8
54021
-7285.27
38652.9
-56170.5
17201.4
-121866
1013.18
-73021.7
9800.44
-34965.7
17763.1
-10331
24271.6
8141.19
31470.6
22781.5
38457.8
34233.2
44892.2
43284.9
50620.1
50372.7
55417.6
55792.8
59295.3
59948.1
62433.7
63194.3
65004.6
65798.7
67162.2
67975.7
69043.7
69886.1
70739.6
71618
72277.1
73195.8
73642.9
74623.8
74822.5
75920
75816.6
77124.2
76634.6
78291.4
77287.2
79485.2
77786.1
80756.4
78153.9
107956
107912
107860
107764
107678
107545
107437
107288
107168
106998
106848
106633
106448
106193
105986
105680
105446
105073
104814
104354
104073
103499
103202
102477
102175
101244
100959
99746.7
99515.2
97910.2
97793
95634.9
95730.2
92783.3
93249.3
89163.2
90253.6
84503
86627.2
78418.5
82243.5
70371.9
77007.8
59632.2
70903.1
45070.1
63711.4
24387.8
54038.8
-7264.59
38665.5
-56207.3
17174.2
-122127
940.971
-73055.1
9784.65
-34955.9
17759.8
-10323.3
24264.7
8146.36
31466.3
22787.7
38455.7
34239.7
44892.4
43292.4
50623.1
50381
55422
55800.4
59299.6
59954.2
62437.4
63198.8
65007.2
65801.5
67163.6
67977
69044.3
69886.5
70740.1
71618.2
72277.9
73196.1
73644.2
74624
74824
75919.8
75818.1
77123.2
76635.8
78289.8
77287.8
79483.5
77785.6
80756
78152.2
107963
107919
107866
107770
107683
107549
107441
107291
107171
107000
106850
106635
106451
106195
105988
105682
105449
105076
104817
104357
104076
103503
103205
102481
102178
101249
100963
99752
99519.6
97916.3
97797.6
95641.8
95735.1
92791.2
93254.2
89172.3
90258.3
84513.4
86631.4
78430
82246.4
70384.1
77009.1
59645.6
70904.7
45087.6
63719.5
24412.9
54056.8
-7243.71
38678.2
-56244.3
17146.9
-122391
868.22
-73088.5
9768.49
-34946.5
17756.2
-10315.6
24257.7
8151.55
31461.9
22794
38453.7
34246.2
44892.6
43299.9
50626.1
50389.3
55426.5
55808
59304
59960.4
62441.1
63203.3
65009.8
65804.2
67165
67978.2
69044.8
69886.9
70740.5
71618.4
72278.8
73196.4
73645.5
74624.2
74825.6
75919.5
75819.6
77122.3
76637
78288.2
77288.4
79481.8
77785.2
80755.6
78150.5
107970
107925
107872
107776
107688
107553
107444
107293
107173
107002
106853
106637
106453
106197
105991
105685
105452
105079
104820
104361
104079
103507
103208
102485
102182
101253
100967
99757.2
99524
97922.3
97802.3
95648.8
95739.9
92799.2
93259.2
89181.5
90263.1
84523.8
86635.6
78441.6
82249.4
70396.5
77010.4
59659
70906.3
45105.1
63727.7
24438.2
54074.8
-7222.61
38691.1
-56281.2
17119.5
-122656
794.932
-73121.9
9751.96
-34937.4
17752.4
-10308
24250.6
8156.75
31457.6
22800.3
38451.6
34252.8
44892.8
43307.5
50629.1
50397.7
55431
55815.7
59308.4
59966.7
62444.8
63207.9
65012.4
65807
67166.4
67979.5
69045.4
69887.3
70741
71618.6
72279.7
73196.8
73646.9
74624.4
74827.2
75919.3
75821.1
77121.3
76638.2
78286.6
77289
79480
77784.8
80755.2
78148.8
107978
107932
107879
107781
107693
107557
107448
107296
107176
107004
106855
106640
106455
106200
105993
105687
105454
105082
104823
104364
104082
103510
103212
102489
102186
101258
100971
99762.5
99528.4
97928.4
97807
95655.8
95744.8
92807.3
93264.2
89190.8
90268
84534.3
86639.8
78453.2
82252.4
70408.9
77011.6
59672.5
70907.9
45122.7
63735.8
24463.7
54093
-7201.3
38704.3
-56318.2
17092
-122924
721.113
-73155.3
9735.08
-34928.5
17748.3
-10300.4
24243.4
8161.95
31453.2
22806.6
38449.5
34259.4
44893
43315.1
50632.2
50406.2
55435.5
55823.5
59312.9
59972.9
62448.5
63212.5
65015
65809.9
67167.8
67980.8
69046
69887.7
70741.4
71618.9
72280.6
73197.1
73648.2
74624.6
74828.8
75919.1
75822.6
77120.4
76639.5
78284.9
77289.6
79478.3
77784.4
80754.8
78147
107986
107939
107886
107787
107698
107561
107451
107299
107179
107007
106857
106642
106458
106202
105996
105690
105457
105085
104826
104367
104085
103514
103215
102493
102190
101263
100975
99767.9
99532.8
97934.5
97811.7
95662.8
95749.8
92815.4
93269.2
89200.1
90272.9
84544.9
86644.1
78465
82255.4
70421.4
77012.9
59686.1
70909.5
45140.4
63744
24489.3
54111.4
-7179.78
38717.5
-56355.2
17064.5
-123193