/*--------------------------------*- C++ -*----------------------------------*\
| =========                 |                                                 |
| \\      /  F ield         | OpenFOAM: The Open Source CFD Toolbox           |
|  \\    /   O peration     | Version:  2412                                  |
|   \\  /    A nd           | Website:  www.openfoam.com                      |
|    \\/     M anipulation  |                                                 |
\*---------------------------------------------------------------------------*/
FoamFile
{
    version     2.0;
    format      ascii;
    arch        "LSB;label=32;scalar=64";
    class       surfaceScalarField;
    location    "0.5";
    object      phi;
}
// * * * * * * * * * * * * * * * * * * * * * * * * * * * * * * * * * * * * * //

dimensions      [0 3 -1 0 0 0 0];

oriented        oriented;

internalField   nonuniform List<scalar> 
25689
(
0.00747653
0.0135218
0.00738976
0.0121619
0.00731547
0.0106613
0.0072568
0.00842697
0.00721941
0.00489829
0.00720666
0.000373003
0.00722028
-0.00426623
0.00725883
-0.00790447
0.0073166
-0.00987245
0.00738276
-0.0101207
0.00744558
-0.00918217
0.00749849
-0.00783122
0.00754134
-0.00660324
0.0075773
-0.00569267
0.00760867
-0.00499032
0.00763676
-0.00443326
0.00766178
-0.00391439
0.0076844
-0.00350072
0.0077045
-0.00309128
0.00772278
-0.00278653
0.0077389
-0.00245197
0.00775362
-0.00222699
0.00776625
-0.00192032
0.00777793
-0.00176994
0.0077875
-0.00147558
0.00779653
-0.0013861
0.00780334
-0.00108597
0.0078101
-0.0010618
0.00781433
-0.000726091
0.00781923
-0.000796143
0.00782108
-0.000397534
0.00782442
-0.000572849
0.00782391
-7.9508e-05
0.00782606
-0.00041054
0.00782325
0.000204321
0.0078246
-0.000332733
0.00781942
0.000441916
0.00782061
-0.000406045
0.00781354
0.000536888
0.00781622
-0.000757931
0.0078098
0.000278138
0.00781829
-0.00162246
0.00781804
-0.000524111
0.0078383
-0.002931
0.00784875
-0.00145362
0.00787958
-0.00361629
0.00789018
-0.000700558
0.0079081
-0.00103429
0.00789225
0.00375639
0.00786568
0.00683939
0.00780055
0.0132399
0.00763418
0.0293606
0.00734837
0.046139
0.00739657
-0.00517299
0.00759826
-0.0307221
0.00772117
-0.0201335
0.00775286
-0.00811761
0.0077682
-0.00470561
0.0077479
0.000983268
0.00774072
4.21634e-05
0.00772239
0.00211041
0.00772312
-5.66763e-06
0.00771613
0.00115513
0.0077229
-0.000614034
0.00772286
0.000282007
0.00773298
-0.0010174
0.0077374
-0.000240443
0.00774785
-0.00103379
0.00775198
-0.000266799
0.00775818
-0.000633923
0.00775794
0.000113128
0.00775736
6.27598e-05
0.00775095
0.00074454
0.00774321
0.000846639
0.00773089
0.00139482
0.0077174
0.0015141
0.00770122
0.00186086
0.00768496
0.00189371
0.00766824
0.00200291
0.00765273
0.00191717
0.00763823
0.00186188
0.00762524
0.0017361
0.00761356
0.00160696
0.00760265
0.0015206
0.0075925
0.00138443
0.00758196
0.0013655
0.00757171
0.00122143
0.00756037
0.00122336
0.00754961
0.000999018
0.00753754
0.000961255
0.00752696
0.000596315
0.00751562
0.000404916
0.0075073
-0.000162583
0.00750012
-0.000665277
0.00749799
-0.00147722
0.00750188
-0.00252174
0.00751318
-0.00362482
0.00753971
-0.00535146
-0.00752396
0.00747658
0.0136209
0.00738994
0.0122486
0.00731579
0.0107354
0.00725722
0.00848554
0.00721977
0.00493573
0.00720676
0.000386012
0.00721995
-0.00427942
0.00725802
-0.00794253
0.00731539
-0.00992982
0.00738132
-0.0101866
0.00744405
-0.00924489
0.00749686
-0.00788404
0.0075396
-0.00664597
0.00757542
-0.00572849
0.00760667
-0.00502156
0.00763465
-0.00446124
0.00765959
-0.00393932
0.00768213
-0.00352327
0.00770217
-0.00311133
0.0077204
-0.00280476
0.00773647
-0.00246804
0.00775116
-0.00224168
0.00776375
-0.00193291
0.0077754
-0.00178159
0.00778494
-0.00148512
0.00779395
-0.00139511
0.00780074
-0.00109276
0.00780747
-0.00106853
0.00781167
-0.000730293
0.00781655
-0.000801018
0.00781837
-0.000399357
0.00782169
-0.000576169
0.00782115
-7.89697e-05
0.00782328
-0.000412672
0.00782044
0.000207167
0.00782176
-0.00033405
0.00781653
0.00044714
0.00781767
-0.000407186
0.00781054
0.000544019
0.00781315
-0.000760539
0.00780663
0.000284654
0.00781504
-0.00163086
0.00781471
-0.000523777
0.00783493
-0.00295122
0.0078454
-0.00146408
0.00787634
-0.00364723
0.00788709
-0.000711306
0.00790525
-0.00105245
0.00788964
0.003772
0.00786357
0.00686546
0.00779913
0.0133043
0.00763396
0.0295258
0.00734965
0.0464234
0.00739809
-0.00522143
0.00759902
-0.0309231
0.00772123
-0.0202557
0.00775224
-0.00814862
0.00776714
-0.00472051
0.00774656
0.00100385
0.00773921
4.95125e-05
0.00772078
0.00212884
0.00772148
-6.37083e-06
0.00771449
0.00116212
0.00772128
-0.000620823
0.00772124
0.00028204
0.00773139
-0.00102754
0.00773583
-0.000244883
0.00774632
-0.00104428
0.00775048
-0.000270958
0.00775671
-0.000640154
0.00775648
0.000113358
0.00775591
6.33272e-05
0.00774949
0.000750956
0.00774174
0.000854393
0.0077294
0.00140716
0.00771588
0.00152762
0.00769966
0.00187708
0.00768336
0.00191001
0.00766661
0.00201966
0.00765107
0.00193271
0.00763656
0.00187639
0.00762358
0.00174908
0.00761191
0.00161863
0.00760101
0.0015315
0.00759087
0.00139456
0.00758034
0.00137603
0.00757008
0.00123169
0.00755871
0.00123473
0.00754791
0.00100982
0.00753576
0.000973396
0.0075251
0.000606976
0.00751364
0.000416378
0.0075052
-0.00015414
0.00749783
-0.000657913
0.00749553
-0.00147491
0.00749918
-0.00252539
0.00751026
-0.00363589
0.00753658
-0.00537779
-0.00756611
0.00747663
0.0137201
0.00739011
0.0123351
0.00731612
0.0108094
0.00725764
0.00854402
0.00722013
0.00497324
0.00720686
0.000399282
0.00721962
-0.00429217
0.00725719
-0.0079801
0.00731415
-0.00998679
0.00737986
-0.0102523
0.00744248
-0.00930751
0.00749521
-0.00793677
0.00753783
-0.00668858
0.00757352
-0.00576418
0.00760464
-0.00505268
0.00763252
-0.00448913
0.00765737
-0.00396416
0.00767984
-0.00354574
0.00769982
-0.00313131
0.007718
-0.00282295
0.00773403
-0.00248407
0.00774868
-0.00225633
0.00776124
-0.00194546
0.00777286
-0.00179321
0.00778237
-0.00149463
0.00779135
-0.00140409
0.00779811
-0.00109952
0.00780482
-0.00107524
0.007809
-0.00073447
0.00781385
-0.00080587
0.00781565
-0.000401155
0.00781895
-0.000579466
0.00781838
-7.84042e-05
0.00782049
-0.000414779
0.00781761
0.000210046
0.0078189
-0.000335338
0.00781363
0.000452409
0.00781473
-0.000408284
0.00780753
0.000551221
0.00781006
-0.000763079
0.00780345
0.000291271
0.00781177
-0.00163919
0.00781135
-0.000523352
0.00783155
-0.00297143
0.00784202
-0.00147456
0.00787308
-0.0036783
0.00788398
-0.000722204
0.00790238
-0.00107086
0.00788701
0.00378738
0.00786143
0.00689104
0.0077977
0.013368
0.00763374
0.0296897
0.00735093
0.0467062
0.00739962
-0.00527012
0.00759979
-0.0311232
0.00772127
-0.0203771
0.00775161
-0.00817896
0.00776607
-0.00473497
0.0077452
0.00102472
0.00773768
5.70304e-05
0.00771916
0.00214735
0.00771984
-7.04861e-06
0.00771284
0.00116912
0.00771965
-0.000627628
0.00771963
0.000282061
0.0077298
-0.00103771
0.00773426
-0.000249349
0.00774478
-0.00105479
0.00774897
-0.000275148
0.00775523
-0.000646411
0.00775501
0.000113571
0.00775446
6.38862e-05
0.00774804
0.000757373
0.00774027
0.000862159
0.0077279
0.00141953
0.00771436
0.00154117
0.0076981
0.00189334
0.00768176
0.00192635
0.00766497
0.00203645
0.00764942
0.00194826
0.00763489
0.00189092
0.00762192
0.00176205
0.00761026
0.00163028
0.00759938
0.00154239
0.00758925
0.00140469
0.00757871
0.00138657
0.00756844
0.00124197
0.00755704
0.00124612
0.0075462
0.00102067
0.00753399
0.000985606
0.00752324
0.000617719
0.00751166
0.00042796
0.00750309
-0.000145568
0.00749554
-0.000650363
0.00749305
-0.00147243
0.00749647
-0.0025288
0.00750731
-0.00364674
0.00753343
-0.0054039
-0.00760808
0.00747669
0.0138191
0.00739029
0.0124215
0.00731645
0.0108832
0.00725806
0.00860241
0.0072205
0.0050108
0.00720697
0.000412813
0.00721928
-0.00430449
0.00725635
-0.00801717
0.00731291
-0.0100433
0.00737838
-0.0103178
0.0074409
-0.00937003
0.00749355
-0.00798942
0.00753604
-0.00673108
0.0075716
-0.00579974
0.0076026
-0.00508368
0.00763037
-0.00451691
0.00765513
-0.00398892
0.00767754
-0.00356814
0.00769746
-0.00315123
0.00771559
-0.00284108
0.00773157
-0.00250005
0.00774619
-0.00227095
0.00775871
-0.00195798
0.0077703
-0.0018048
0.00777978
-0.00150412
0.00778874
-0.00141304
0.00779547
-0.00110625
0.00780216
-0.00108193
0.00780631
-0.000738622
0.00781114
-0.000810699
0.00781291
-0.000402928
0.00781619
-0.000582741
0.0078156
-7.78114e-05
0.00781768
-0.000416863
0.00781477
0.000212957
0.00781603
-0.000336596
0.00781071
0.000457723
0.00781177
-0.000409337
0.00780449
0.000558493
0.00780696
-0.000765547
0.00780024
0.000297988
0.00780848
-0.00164743
0.00780797
-0.000522837
0.00782814
-0.0029916
0.00783863
-0.00148504
0.00786981
-0.00370947
0.00788086
-0.000733253
0.0078995
-0.0010895
0.00788436
0.00380252
0.00785928
0.00691612
0.00779625
0.0134311
0.00763351
0.0298525
0.00735223
0.0469874
0.00740116
-0.00531905
0.00760055
-0.0313226
0.00772131
-0.0204979
0.00775097
-0.00820862
0.00776498
-0.00474898
0.00774383
0.00104588
0.00773614
6.47172e-05
0.00771753
0.00216596
0.00771819
-7.70251e-06
0.00771119
0.00117612
0.00771801
-0.000634449
0.007718
0.000282069
0.00772819
-0.0010479
0.00773269
-0.000253842
0.00774324
-0.00106535
0.00774746
-0.000279368
0.00775375
-0.000652693
0.00775355
0.000113768
0.007753
6.44364e-05
0.00774658
0.000763793
0.0077388
0.000869937
0.00772641
0.00143192
0.00771283
0.00155475
0.00769653
0.00190964
0.00768015
0.00194273
0.00766333
0.00205327
0.00764775
0.00196384
0.00763322
0.00190545
0.00762025
0.00177503
0.0076086
0.00164192
0.00759773
0.00155326
0.00758762
0.00141481
0.00757708
0.0013971
0.0075668
0.00125225
0.00755537
0.00125755
0.00754448
0.00103157
0.0075322
0.000997885
0.00752138
0.000628545
0.00750967
0.000439665
0.00750097
-0.000136868
0.00749323
-0.000642626
0.00749057
-0.00146976
0.00749373
-0.00253197
0.00750435
-0.00365736
0.00753025
-0.00542979
-0.00764985
0.00747674
0.0139182
0.00739047
0.0125078
0.00731679
0.0109569
0.00725849
0.00866071
0.00722087
0.00504842
0.00720708
0.000426603
0.00721896
-0.00431636
0.00725552
-0.00805373
0.00731166
-0.0100995
0.0073769
-0.010383
0.00743931
-0.00943244
0.00749187
-0.00804198
0.00753425
-0.00677346
0.00756967
-0.00583516
0.00760054
-0.00511455
0.00762821
-0.00454458
0.00765289
-0.00401359
0.00767522
-0.00359047
0.00769508
-0.00317109
0.00771316
-0.00285916
0.0077291
-0.00251599
0.00774368
-0.00228553
0.00775617
-0.00197047
0.00776773
-0.00181637
0.00777718
-0.00151357
0.00778611
-0.00142197
0.00779282
-0.00111296
0.00779948
-0.00108859
0.00780361
-0.000742749
0.00780842
-0.000815505
0.00781016
-0.000404675
0.00781342
-0.000585993
0.0078128
-7.71912e-05
0.00781486
-0.000418922
0.00781191
0.000215902
0.00781314
-0.000337824
0.00780778
0.000463083
0.00780879
-0.000410346
0.00780145
0.000565836
0.00780384
-0.000767945
0.00779703
0.000304807
0.00780518
-0.00165558
0.00780457
-0.000522228
0.00782472
-0.00301174
0.00783522
-0.00149554
0.00786651
-0.00374077
0.00787771
-0.000744453
0.00789659
-0.00110838
0.00788169
0.00381742
0.00785711
0.00694071
0.00779479
0.0134934
0.00763327
0.030014
0.00735353
0.0472672
0.00740271
-0.00536824
0.00760132
-0.0315212
0.00772134
-0.0206179
0.00775032
-0.0082376
0.00776389
-0.00476255
0.00774244
0.00106732
0.00773459
7.25711e-05
0.00771589
0.00218466
0.00771652
-8.33269e-06
0.00770953
0.00118311
0.00771636
-0.000641287
0.00771637
0.000282064
0.00772659
-0.00105812
0.00773111
-0.000258361
0.0077417
-0.00107594
0.00774595
-0.00028362
0.00775226
-0.000659003
0.00775208
0.000113949
0.00775154
6.49775e-05
0.00774511
0.000770215
0.00773732
0.000877728
0.00772491
0.00144434
0.0077113
0.00156836
0.00769496
0.00192598
0.00767854
0.00195915
0.00766168
0.00207013
0.00764608
0.00197944
0.00763154
0.00191999
0.00761857
0.00178799
0.00760694
0.00165356
0.00759609
0.00156411
0.00758598
0.00142492
0.00757545
0.00140763
0.00756515
0.00126254
0.0075537
0.00126901
0.00754276
0.0010425
0.00753041
0.00101023
0.0075195
0.000639454
0.00750768
0.000451492
0.00749885
-0.000128037
0.00749092
-0.000634699
0.00748806
-0.00146691
0.00749098
-0.00253488
0.00750137
-0.00366775
0.00752704
-0.00545547
-0.00769142
0.00747679
0.0140171
0.00739066
0.0125939
0.00731713
0.0110305
0.00725892
0.00871892
0.00722125
0.0050861
0.0072072
0.000440654
0.00721864
-0.0043278
0.00725469
-0.00808979
0.00731042
-0.0101552
0.00737541
-0.010448
0.00743771
-0.00949474
0.00749019
-0.00809446
0.00753244
-0.00681571
0.00756773
-0.00587045
0.00759847
-0.00514529
0.00762604
-0.00457215
0.00765063
-0.00403818
0.00767289
-0.00361273
0.00769269
-0.00319089
0.00771072
-0.00287719
0.00772662
-0.00253189
0.00774116
-0.00230007
0.00775361
-0.00198292
0.00776514
-0.0018279
0.00777457
-0.001523
0.00778347
-0.00143088
0.00779016
-0.00111964
0.00779679
-0.00109523
0.0078009
-0.00074685
0.00780568
-0.000820289
0.0078074
-0.000406398
0.00781063
-0.000589222
0.00780998
-7.65435e-05
0.00781202
-0.000420956
0.00780904
0.00021888
0.00781024
-0.000339022
0.00780483
0.000468488
0.0078058
-0.000411311
0.00779838
0.000573252
0.00780071
-0.000770272
0.00779379
0.000311727
0.00780186
-0.00166365
0.00780116
-0.000521526
0.00782127
-0.00303186
0.00783178
-0.00150605
0.00786319
-0.00377217
0.00787454
-0.000755806
0.00789367
-0.00112751
0.00787901
0.00383208
0.00785492
0.00696479
0.00779331
0.013555
0.00763302
0.0301743
0.00735483
0.0475454
0.00740427
-0.00541767
0.00760209
-0.0317191
0.00772137
-0.0207372
0.00774966
-0.00826589
0.00776278
-0.00477566
0.00774104
0.00108906
0.00773302
8.0593e-05
0.00771424
0.00220345
0.00771484
-8.94158e-06
0.00770785
0.0011901
0.00771471
-0.000648145
0.00771473
0.000282045
0.00772497
-0.00106836
0.00772952
-0.000262909
0.00774015
-0.00108657
0.00774443
-0.000287904
0.00775077
-0.000665341
0.0077506
0.000114113
0.00775007
6.551e-05
0.00774365
0.00077664
0.00773584
0.000885531
0.0077234
0.00145678
0.00770976
0.001582
0.00769338
0.00194236
0.00767692
0.0019756
0.00766003
0.00208702
0.0076444
0.00199506
0.00762985
0.00193454
0.00761689
0.00180096
0.00760527
0.00166517
0.00759443
0.00157495
0.00758433
0.00143502
0.00757381
0.00141816
0.0075635
0.00127285
0.00755202
0.00128049
0.00754103
0.00105348
0.00752862
0.00102265
0.00751762
0.000650446
0.00750567
0.000463443
0.00749671
-0.000119075
0.00748859
-0.000626579
0.00748555
-0.00146386
0.00748821
-0.00253755
0.00749836
-0.0036779
0.00752382
-0.00548092
-0.0077328
0.00747685
0.014116
0.00739084
0.0126799
0.00731747
0.0111038
0.00725936
0.00877703
0.00722163
0.00512382
0.00720732
0.000454963
0.00721832
-0.0043388
0.00725387
-0.00812533
0.00730917
-0.0102105
0.00737392
-0.0105128
0.00743611
-0.00955693
0.00748849
-0.00814684
0.00753063
-0.00685785
0.00756578
-0.0059056
0.0075964
-0.00517591
0.00762386
-0.00459961
0.00764835
-0.00406267
0.00767054
-0.00363492
0.00769028
-0.00321063
0.00770826
-0.00289517
0.00772412
-0.00254775
0.00773862
-0.00231457
0.00775104
-0.00199534
0.00776254
-0.0018394
0.00777194
-0.0015324
0.00778082
-0.00143975
0.00778747
-0.0011263
0.00779409
-0.00110184
0.00779817
-0.000750927
0.00780293
-0.000825049
0.00780462
-0.000408093
0.00780783
-0.000592428
0.00780715
-7.58682e-05
0.00780916
-0.000422967
0.00780615
0.000221891
0.00780732
-0.000340191
0.00780187
0.000473938
0.00780279
-0.000412231
0.0077953
0.000580739
0.00779756
-0.000772527
0.00779053
0.000318751
0.00779852
-0.00167164
0.00779772
-0.00052073
0.00781781
-0.00305195
0.00782833
-0.00151657
0.00785985
-0.0038037
0.00787136
-0.000767311
0.00789073
-0.00114688
0.0078763
0.00384651
0.00785272
0.00698838
0.00779181
0.0136159
0.00763277
0.0303333
0.00735615
0.047822
0.00740584
-0.00546737
0.00760286
-0.0319161
0.00772139
-0.0208558
0.00774899
-0.00829348
0.00776165
-0.00478833
0.00773963
0.00111108
0.00773145
8.87801e-05
0.00771257
0.00222232
0.00771316
-9.53022e-06
0.00770617
0.00119709
0.00771305
-0.000655022
0.00771308
0.00028201
0.00772335
-0.00107863
0.00772793
-0.000267485
0.00773859
-0.00109723
0.00774291
-0.00029222
0.00774927
-0.000671705
0.00774913
0.000114261
0.0077486
6.60336e-05
0.00774218
0.000783066
0.00773436
0.000893347
0.0077219
0.00146924
0.00770822
0.00159568
0.0076918
0.00195877
0.0076753
0.00199211
0.00765837
0.00210395
0.00764272
0.00201071
0.00762816
0.00194911
0.0076152
0.00181392
0.00760359
0.00167678
0.00759277
0.00158577
0.00758269
0.0014451
0.00757216
0.00142868
0.00756184
0.00128317
0.00755033
0.001292
0.0075393
0.00106451
0.00752681
0.00103514
0.00751573
0.000661524
0.00750366
0.000475519
0.00749456
-0.00010998
0.00748625
-0.000618266
0.00748302
-0.00146064
0.00748543
-0.00253995
0.00749534
-0.00368781
0.00752057
-0.00550615
-0.00777397
0.0074769
0.0142149
0.00739103
0.0127658
0.00731782
0.011177
0.0072598
0.00883504
0.00722202
0.00516161
0.00720746
0.00046953
0.00721802
-0.00434936
0.00725305
-0.00816036
0.00730792
-0.0102654
0.00737242
-0.0105773
0.00743449
-0.009619
0.00748678
-0.00819913
0.0075288
-0.00689986
0.00756382
-0.00594062
0.00759431
-0.0052064
0.00762166
-0.00462697
0.00764607
-0.00408708
0.00766818
-0.00365703
0.00768786
-0.00323031
0.00770579
-0.0029131
0.0077216
-0.00256356
0.00773607
-0.00232903
0.00774846
-0.00200772
0.00775993
-0.00185087
0.0077693
-0.00154176
0.00777815
-0.00144861
0.00778478
-0.00113293
0.00779137
-0.00110843
0.00779542
-0.000754978
0.00780016
-0.000829786
0.00780183
-0.000409764
0.00780501
-0.000595612
0.00780431
-7.51652e-05
0.00780629
-0.000424953
0.00780325
0.000224935
0.00780439
-0.000341329
0.00779889
0.000479435
0.00779977
-0.000413107
0.00779221
0.000588298
0.00779439
-0.00077471
0.00778726
0.000325878
0.00779516
-0.00167953
0.00779427
-0.000519838
0.00781432
-0.00307201
0.00782486
-0.0015271
0.0078565
-0.00383534
0.00786815
-0.00077897
0.00788777
-0.0011665
0.00787357
0.0038607
0.00785049
0.00701146
0.0077903
0.0136761
0.0076325
0.0304911
0.00735747
0.048097
0.00740742
-0.00551732
0.00760363
-0.0321123
0.00772141
-0.0209735
0.00774831
-0.00832038
0.00776052
-0.00480054
0.00773821
0.00113338
0.00772985
9.7133e-05
0.00771089
0.00224128
0.00771146
-1.01003e-05
0.00770448
0.00120407
0.00771138
-0.00066192
0.00771143
0.00028196
0.00772172
-0.00108892
0.00772633
-0.00027209
0.00773703
-0.00110793
0.00774138
-0.00029657
0.00774777
-0.000678098
0.00774764
0.000114392
0.00774713
6.65479e-05
0.0077407
0.000789495
0.00773287
0.000901176
0.00772038
0.00148173
0.00770667
0.0016094
0.00769021
0.00197523
0.00767367
0.00200865
0.0076567
0.00212091
0.00764103
0.00202638
0.00762646
0.00196368
0.0076135
0.00182687
0.00760191
0.00168837
0.00759111
0.00159658
0.00758103
0.00145518
0.00757051
0.00143921
0.00756018
0.0012935
0.00754864
0.00130355
0.00753756
0.00107558
0.007525
0.0010477
0.00751384
0.000672687
0.00750164
0.000487721
0.00749241
-0.000100751
0.0074839
-0.000609758
0.00748048
-0.00145722
0.00748263
-0.0025421
0.0074923
-0.00369749
0.0075173
-0.00553115
-0.00781493
0.00747696
0.0143137
0.00739122
0.0128515
0.00731817
0.0112501
0.00726025
0.00889296
0.00722242
0.00519944
0.0072076
0.000484354
0.00721772
-0.00435947
0.00725223
-0.00819487
0.00730666
-0.0103198
0.00737091
-0.0106415
0.00743286
-0.00968095
0.00748507
-0.00825134
0.00752696
-0.00694176
0.00756184
-0.0059755
0.0075922
-0.00523676
0.00761945
-0.00465421
0.00764377
-0.0041114
0.00766581
-0.00367907
0.00768543
-0.00324993
0.00770331
-0.00293098
0.00771908
-0.00257933
0.00773351
-0.00234346
0.00774586
-0.00202008
0.0077573
-0.00186232
0.00776664
-0.00155111
0.00777547
-0.00145743
0.00778207
-0.00113953
0.00778864
-0.001115
0.00779266
-0.000759003
0.00779738
-0.0008345
0.00779902
-0.000411408
0.00780218
-0.000598773
0.00780145
-7.44344e-05
0.00780341
-0.000426914
0.00780033
0.000228013
0.00780144
-0.000342438
0.0077959
0.000484978
0.00779673
-0.000413937
0.0077891
0.00059593
0.00779121
-0.00077682
0.00778398
0.000333111
0.00779178
-0.00168734
0.00779079
-0.00051885
0.00781082
-0.00309203
0.00782136
-0.00153764
0.00785312
-0.0038671
0.00786493
-0.000790783
0.00788479
-0.00118636
0.00787083
0.00387466
0.00784825
0.00703404
0.00778878
0.0137356
0.00763223
0.0306476
0.00735879
0.0483705
0.00740901
-0.00556753
0.0076044
-0.0323077
0.00772142
-0.0210905
0.00774762
-0.00834658
0.00775937
-0.00481229
0.00773677
0.00115598
0.00772825
0.000105651
0.0077092
0.00226033
0.00770975
-1.06523e-05
0.00770278
0.00121104
0.0077097
-0.000668839
0.00770977
0.000281893
0.00772009
-0.00109924
0.00772472
-0.000276727
0.00773547
-0.00111868
0.00773985
-0.000300954
0.00774627
-0.000684519
0.00774616
0.000114505
0.00774565
6.70534e-05
0.00773922
0.000795927
0.00773138
0.000909017
0.00771886
0.00149424
0.00770512
0.00162314
0.00768862
0.00199173
0.00767203
0.00202523
0.00765503
0.00213791
0.00763933
0.00204208
0.00762475
0.00197826
0.0076118
0.00183982
0.00760022
0.00169995
0.00758943
0.00160736
0.00757937
0.00146524
0.00756885
0.00144973
0.00755851
0.00130384
0.00754694
0.00131512
0.00753582
0.0010867
0.00752319
0.00106033
0.00751194
0.000683937
0.00749961
0.00050005
0.00749024
-9.13865e-05
0.00748154
-0.000601052
0.00747792
-0.0014536
0.00747981
-0.00254399
0.00748924
-0.00370691
0.00751401
-0.00555592
-0.00785569
0.00747701
0.0144124
0.00739141
0.0129371
0.00731853
0.011323
0.00726071
0.00895077
0.00722283
0.00523732
0.00720775
0.000499435
0.00721742
-0.00436915
0.00725141
-0.00822887
0.00730541
-0.0103738
0.0073694
-0.0107055
0.00743123
-0.00974279
0.00748334
-0.00830345
0.00752511
-0.00698353
0.00755985
-0.00601024
0.00759009
-0.005267
0.00761723
-0.00468135
0.00764146
-0.00413563
0.00766343
-0.00370104
0.00768298
-0.00326949
0.00770081
-0.00294881
0.00771654
-0.00259505
0.00773093
-0.00235785
0.00774325
-0.00203239
0.00775466
-0.00187373
0.00776397
-0.00156042
0.00777277
-0.00146623
0.00777935
-0.00114611
0.00778589
-0.00112154
0.00778989
-0.000763003
0.00779458
-0.00083919
0.0077962
-0.000413027
0.00779934
-0.00060191
0.00779858
-7.36758e-05
0.00780051
-0.000428851
0.0077974
0.000231124
0.00779848
-0.000343516
0.00779289
0.000490567
0.00779368
-0.000414722
0.00778597
0.000603636
0.00778801
-0.000778857
0.00778067
0.000340449
0.00778839
-0.00169506
0.0077873
-0.000517763
0.0078073
-0.00311203
0.00781785
-0.00154819
0.00784972
-0.00389897
0.00786169
-0.000802749
0.00788179
-0.00120646
0.00786807
0.00388839
0.00784599
0.00705612
0.00778723
0.0137943
0.00763196
0.0308029
0.00736013
0.0486423
0.0074106
-0.00561801
0.00760518
-0.0325023
0.00772142
-0.0212068
0.00774692
-0.00837207
0.0077582
-0.00482358
0.00773532
0.00117887
0.00772663
0.000114334
0.0077075
0.00227946
0.00770804
-1.11879e-05
0.00770107
0.00121801
0.00770801
-0.000675783
0.0077081
0.000281809
0.00771844
-0.00110958
0.00772311
-0.000281393
0.00773389
-0.00112946
0.00773831
-0.000305372
0.00774476
-0.00069097
0.00774467
0.000114602
0.00774417
6.755e-05
0.00773774
0.000802362
0.00772988
0.000916872
0.00771734
0.00150678
0.00770356
0.00163692
0.00768702
0.00200828
0.00767039
0.00204186
0.00765335
0.00215495
0.00763763
0.0020578
0.00762304
0.00199285
0.00761009
0.00185276
0.00759853
0.00171152
0.00758776
0.00161814
0.00757771
0.00147529
0.00756719
0.00146025
0.00755683
0.00131419
0.00754523
0.00132672
0.00753407
0.00109787
0.00752136
0.00107304
0.00751002
0.000695273
0.00749757
0.000512507
0.00748807
-8.18857e-05
0.00747916
-0.000592147
0.00747536
-0.0014498
0.00747698
-0.00254561
0.00748616
-0.0037161
0.00751069
-0.00558046
-0.00789623
0.00747707
0.0145111
0.00739161
0.0130226
0.00731889
0.0113957
0.00726117
0.00900849
0.00722324
0.00527525
0.0072079
0.000514772
0.00721714
-0.00437839
0.00725061
-0.00826234
0.00730415
-0.0104274
0.00736787
-0.0107692
0.00742958
-0.0098045
0.0074816
-0.00835547
0.00752325
-0.00702518
0.00755785
-0.00604484
0.00758796
-0.00529711
0.00761499
-0.00470838
0.00763914
-0.00415977
0.00766103
-0.00372293
0.00768053
-0.00328898
0.0076983
-0.00296659
0.00771398
-0.00261073
0.00772834
-0.00237221
0.00774062
-0.00204468
0.007752
-0.00188511
0.00776128
-0.0015697
0.00777006
-0.001475
0.00777661
-0.00115266
0.00778313
-0.00112806
0.0077871
-0.000766977
0.00779177
-0.000843857
0.00779336
-0.00041462
0.00779647
-0.000605025
0.00779569
-7.28891e-05
0.0077976
-0.000430763
0.00779446
0.000234269
0.0077955
-0.000344564
0.00778987
0.000496202
0.00779061
-0.000415463
0.00778283
0.000611415
0.00778479
-0.00078082
0.00777735
0.000347893
0.00778498
-0.00170269
0.00778379
-0.000516579
0.00780376
-0.00313199
0.00781431
-0.00155875
0.00784631
-0.00393096
0.00785843
-0.000814871
0.00787878
-0.00122681
0.00786529
0.00390188
0.00784372
0.00707769
0.00778568
0.0138524
0.00763167
0.0309569
0.00736147
0.0489125
0.00741221
-0.00566875
0.00760596
-0.032696
0.00772143
-0.0213223
0.00774621
-0.00839685
0.00775703
-0.0048344
0.00773385
0.00120204
0.00772501
0.000123181
0.00770579
0.00229868
0.00770631
-1.17086e-05
0.00769935
0.00122497
0.00770632
-0.000682749
0.00770642
0.000281706
0.00771679
-0.00111996
0.00772149
-0.000286092
0.00773232
-0.00114028
0.00773677
-0.000309825
0.00774325
-0.00069745
0.00774317
0.000114681
0.00774268
6.80375e-05
0.00773625
0.000808799
0.00772838
0.000924739
0.00771581
0.00151935
0.007702
0.00165074
0.00768541
0.00202486
0.00766874
0.00205853
0.00765166
0.00217203
0.00763592
0.00207354
0.00762132
0.00200745
0.00760838
0.0018657
0.00759683
0.00172307
0.00758607
0.00162889
0.00757604
0.00148533
0.00756552
0.00147076
0.00755515
0.00132456
0.00754352
0.00133836
0.00753231
0.00110908
0.00751953
0.00108582
0.00750811
0.000706697
0.00749552
0.000525093
0.00748588
-7.22477e-05
0.00747678
-0.00058304
0.00747277
-0.00144579
0.00747413
-0.00254697
0.00748306
-0.00372503
0.00750736
-0.00560475
-0.00793656
0.00747713
0.0146097
0.0073918
0.0131079
0.00731925
0.0114682
0.00726164
0.00906611
0.00722366
0.00531323
0.00720807
0.000530364
0.00721686
-0.00438718
0.0072498
-0.00829528
0.0073029
-0.0104805
0.00736635
-0.0108327
0.00742793
-0.00986608
0.00747986
-0.00840739
0.00752138
-0.00706671
0.00755584
-0.0060793
0.00758582
-0.00532708
0.00761275
-0.00473531
0.0076368
-0.00418382
0.00765862
-0.00374475
0.00767805
-0.00330842
0.00769578
-0.00298431
0.00771141
-0.00262637
0.00772573
-0.00238652
0.00773798
-0.00205693
0.00774933
-0.00189646
0.00775859
-0.00157896
0.00776733
-0.00148375
0.00777386
-0.00115918
0.00778035
-0.00113455
0.0077843
-0.000770925
0.00778894
-0.000848501
0.00779051
-0.000416186
0.0077936
-0.000608117
0.00779278
-7.20744e-05
0.00779467
-0.000432651
0.00779149
0.000237448
0.00779251
-0.000345582
0.00778683
0.000501884
0.00778752
-0.000416158
0.00777967
0.000619269
0.00778156
-0.00078271
0.00777401
0.000355445
0.00778155
-0.00171022
0.00778026
-0.000515295
0.00780019
-0.00315193
0.00781076
-0.00156932
0.00784287
-0.00396307
0.00785515
-0.000827149
0.00787575
-0.00124742
0.00786249
0.00391514
0.00784142
0.00709875
0.0077841
0.0139097
0.00763137
0.0311097
0.00736281
0.0491811
0.00741383
-0.00571977
0.00760674
-0.0328889
0.00772143
-0.021437
0.00774549
-0.00842091
0.00775584
-0.00484476
0.00773237
0.00122551
0.00772336
0.000132192
0.00770406
0.00231798
0.00770457
-1.22158e-05
0.00769762
0.00123192
0.00770461
-0.000689741
0.00770473
0.000281585
0.00771514
-0.00113036
0.00771987
-0.000290822
0.00773074
-0.00115115
0.00773522
-0.000314313
0.00774173
-0.000703959
0.00774167
0.000114742
0.00774119
6.85159e-05
0.00773475
0.000815239
0.00772687
0.000932621
0.00771428
0.00153194
0.00770043
0.00166459
0.0076838
0.00204149
0.00766709
0.00207525
0.00764997
0.00218915
0.0076342
0.00208931
0.00761959
0.00202206
0.00760666
0.00187864
0.00759512
0.00173461
0.00758438
0.00163963
0.00757436
0.00149535
0.00756384
0.00148128
0.00755347
0.00133493
0.0075418
0.00135002
0.00753054
0.00112034
0.00751769
0.00109867
0.00750618
0.00071821
0.00749346
0.000537809
0.00748369
-6.24706e-05
0.00747438
-0.00057373
0.00747018
-0.00144159
0.00747126
-0.00254805
0.00747994
-0.00373371
0.00750399
-0.00562881
-0.00797668
0.00747719
0.0147083
0.007392
0.0131931
0.00731962
0.0115406
0.00726211
0.00912362
0.00722408
0.00535126
0.00720824
0.00054621
0.00721659
-0.00439553
0.007249
-0.00832769
0.00730164
-0.0105331
0.00736481
-0.0108959
0.00742627
-0.00992753
0.0074781
-0.00845922
0.0075195
-0.00710811
0.00755382
-0.00611362
0.00758367
-0.00535693
0.00761049
-0.00476212
0.00763445
-0.00420778
0.00765619
-0.0037665
0.00767557
-0.00332779
0.00769324
-0.00300199
0.00770883
-0.00264196
0.00772311
-0.0024008
0.00773532
-0.00206914
0.00774665
-0.00190778
0.00775587
-0.00158818
0.00776459
-0.00149247
0.00777109
-0.00116568
0.00777756
-0.00114102
0.00778148
-0.000774848
0.0077861
-0.000853121
0.00778764
-0.000417727
0.00779071
-0.000611185
0.00778987
-7.12314e-05
0.00779173
-0.000434514
0.00778852
0.000240661
0.0077895
-0.00034657
0.00778377
0.000507613
0.00778442
-0.000416807
0.0077765
0.000627196
0.00777831
-0.000784525
0.00777065
0.000363104
0.0077781
-0.00171767
0.00777671
-0.000513909
0.00779661
-0.00317182
0.00780719
-0.00157989
0.00783941
-0.00399529
0.00785185
-0.000839582
0.0078727
-0.00126827
0.00785967
0.00392816
0.00783911
0.00711931
0.00778251
0.0139663
0.00763107
0.0312611
0.00736417
0.049448
0.00741546
-0.00577106
0.00760753
-0.033081
0.00772143
-0.0215509
0.00774476
-0.00844425
0.00775465
-0.00485464
0.00773088
0.00124928
0.00772171
0.000141367
0.00770233
0.00233737
0.00770282
-1.27102e-05
0.00769588
0.00123885
0.0077029
-0.000696758
0.00770304
0.000281444
0.00771348
-0.0011408
0.00771824
-0.000295585
0.00772915
-0.00116206
0.00773367
-0.000318838
0.00774021
-0.000710498
0.00774017
0.000114786
0.0077397
6.89853e-05
0.00773326
0.000821682
0.00772536
0.000940515
0.00771274
0.00154455
0.00769886
0.00167848
0.00768219
0.00205816
0.00766543
0.00209201
0.00764827
0.0022063
0.00763248
0.00210511
0.00761786
0.00203668
0.00760493
0.00189156
0.00759341
0.00174613
0.00758269
0.00165035
0.00757267
0.00150536
0.00756216
0.00149179
0.00755177
0.00134532
0.00754008
0.00136171
0.00752877
0.00113164
0.00751585
0.0011116
0.00750425
0.000729812
0.0074914
0.000550657
0.00748148
-5.25534e-05
0.00747197
-0.000564215
0.00746756
-0.00143719
0.00746837
-0.00254886
0.0074768
-0.00374214
0.00750061
-0.00565262
-0.00801657
0.00747725
0.0148068
0.00739221
0.0132781
0.00732
0.0116128
0.00726259
0.00918102
0.00722452
0.00538933
0.00720842
0.000562312
0.00721632
-0.00440343
0.0072482