/*--------------------------------*- C++ -*----------------------------------*\
| =========                 |                                                 |
| \\      /  F ield         | OpenFOAM: The Open Source CFD Toolbox           |
|  \\    /   O peration     | Version:  2412                                  |
|   \\  /    A nd           | Website:  www.openfoam.com                      |
|    \\/     M anipulation  |                                                 |
\*---------------------------------------------------------------------------*/
FoamFile
{
    version     2.0;
    format      ascii;
    arch        "LSB;label=32;scalar=64";
    class       volVectorField;
    location    "0.5";
    object      U;
}
// * * * * * * * * * * * * * * * * * * * * * * * * * * * * * * * * * * * * * //

dimensions      [0 1 -1 0 0 0 0];

internalField   nonuniform List<vector> 
12960
(
(100.008 -0.519925 0)
(100.193 -1.47384 -4.36259e-17)
(100.567 -2.53765 -8.15606e-17)
(101.124 -4.10683 0)
(101.978 -6.55898 -3.69701e-17)
(103.192 -9.71088 0)
(104.839 -12.98 0)
(106.928 -15.6318 0)
(109.457 -17.2263 3.93714e-17)
(112.294 -17.7138 3.97378e-17)
(115.284 -17.4374 0)
(118.232 -16.8849 0)
(121.137 -16.4134 0)
(123.982 -16.1469 0)
(126.897 -16.0259 3.45517e-17)
(129.817 -16.0058 -6.6843e-17)
(132.874 -16.0308 0)
(135.937 -16.1238 -3.15352e-17)
(139.19 -16.2426 0)
(142.434 -16.4313 2.98126e-17)
(145.935 -16.6268 2.90026e-17)
(149.4 -16.8981 -2.81069e-17)
(153.206 -17.1548 2.73067e-17)
(156.929 -17.5037 0)
(161.107 -17.8127 0)
(165.129 -18.2421 0)
(169.763 -18.5983 0)
(174.127 -19.1179 2.28165e-17)
(179.322 -19.5182 0)
(184.078 -20.1448 -4.19497e-17)
(189.969 -20.5875 7.83183e-22)
(195.173 -21.3456 -1.90904e-17)
(201.937 -21.8303 7.60752e-22)
(207.652 -22.7549 -3.43067e-17)
(215.523 -23.2862 -1.65976e-17)
(221.819 -24.4251 0)
(231.111 -25.0171 0)
(238.076 -26.4413 1.30929e-17)
(249.22 -27.1474 -4.94695e-22)
(256.995 -28.9728 2.1901e-17)
(270.626 -29.9099 0)
(279.512 -32.2778 -1.20908e-21)
(296.596 -33.5774 1.35444e-22)
(307.176 -36.5047 -6.58386e-18)
(329.078 -38.1111 -1.49385e-17)
(342.169 -41.1742 4.40847e-18)
(370.279 -42.5651 0)
(386.314 -44.7685 0)
(421.306 -45.7276 -4.35367e-18)
(440.69 -46.0647 -5.88262e-19)
(483.012 -46.8355 -2.65982e-18)
(507.589 -39.0487 0)
(548.371 -36.6777 0)
(575.279 0.923766 5.09672e-19)
(548.462 18.0321 2.54683e-19)
(539.468 26.0486 5.73299e-18)
(503.928 31.1275 -7.461e-19)
(487.921 32.1881 0)
(455.896 33.571 0)
(440.121 31.8219 -9.10715e-19)
(414.184 31.2838 2.22699e-18)
(400.652 28.9411 0)
(380.176 28.2152 0)
(368.421 26.2186 2.4212e-18)
(351.915 25.6084 0)
(341.483 24.011 -5.77799e-22)
(327.943 23.5376 0)
(318.567 22.3451 0)
(307.163 22.0123 -6.52681e-18)
(298.551 21.1577 0)
(288.637 20.9253 -4.68747e-22)
(280.613 20.3137 -7.93212e-18)
(271.793 20.1191 0)
(264.284 19.6426 -9.09484e-18)
(256.326 19.4235 9.79132e-18)
(249.324 18.9949 0)
(242.111 18.699 1.09038e-17)
(235.652 18.2484 -1.14054e-17)
(229.142 17.8531 2.40202e-17)
(223.275 17.3749 1.2511e-17)
(217.435 16.9174 0)
(212.166 16.4552 -1.35371e-17)
(206.918 15.9924 0)
(202.191 15.5948 1.4519e-17)
(197.411 15.1611 0)
(193.142 14.8402 -1.55142e-17)
(188.703 14.4206 -1.59657e-17)
(184.833 14.1468 -1.65565e-17)
(180.638 13.6979 0)
(177.157 13.4213 0)
(173.14 12.8939 1.8057e-17)
(170.084 12.548 0)
(166.204 11.8991 0)
(163.65 11.3871 -2.95143e-22)
(159.903 10.585 8.30492e-23)
(157.97 9.77048 2.14467e-17)
(154.441 8.79964 -2.15026e-17)
(153.278 7.59484 2.28478e-17)
(150.178 5.96086 -2.27254e-17)
(100.008 -0.524955 0)
(100.194 -1.48769 -4.36067e-17)
(100.571 -2.56053 4.07506e-17)
(101.129 -4.14097 0)
(101.984 -6.60813 -1.24407e-21)
(103.196 -9.77731 0)
(104.838 -13.0648 0)
(106.92 -15.7343 0)
(109.442 -17.343 -3.94399e-17)
(112.273 -17.8381 -3.98112e-17)
(115.261 -17.5619 0)
(118.207 -17.0052 3.86248e-17)
(121.11 -16.5293 3.72909e-17)
(123.953 -16.2605 0)
(126.865 -16.1387 -3.45573e-17)
(129.782 -16.1188 6.68449e-17)
(132.837 -16.1442 -3.24601e-17)
(135.898 -16.2382 6.30661e-17)
(139.148 -16.358 0)
(142.391 -16.5482 -2.9812e-17)
(145.889 -16.7451 -2.90023e-17)
(149.353 -17.0185 -2.81071e-17)
(153.157 -17.277 -2.73056e-17)
(156.878 -17.6284 0)
(161.055 -17.9396 -2.5586e-17)
(165.075 -18.3721 2.4617e-17)
(169.707 -18.7307 0)
(174.069 -19.2541 -2.28162e-17)
(179.261 -19.6571 0)
(184.016 -20.2883 2.09753e-17)
(189.904 -20.7339 7.85271e-22)
(195.106 -21.4975 3.8182e-17)
(201.866 -21.9854 7.6313e-22)
(207.578 -22.9167 1.71542e-17)
(215.446 -23.4513 0)
(221.739 -24.5985 -1.51612e-17)
(231.027 -25.1939 0)
(237.987 -26.6283 0)
(249.126 -27.3383 1.28353e-17)
(256.894 -29.1766 -1.09513e-17)
(270.519 -30.1191 1.09432e-17)
(279.395 -32.504 8.76466e-18)
(296.473 -33.8122 1.40731e-22)
(307.042 -36.7618 6.58325e-18)
(328.94 -38.3806 7.46873e-18)
(342.021 -41.4683 -4.40826e-18)
(370.135 -42.871 0)
(386.163 -45.0934 -2.06817e-18)
(421.166 -46.0623 -4.35547e-18)
(440.545 -46.4096 -5.85818e-19)
(482.907 -47.1973 2.65947e-18)
(507.513 -39.3683 0)
(548.415 -36.998 1.11801e-18)
(575.432 0.925549 8.75116e-22)
(548.539 18.1909 0)
(539.5 26.2641 -5.73917e-18)
(503.904 31.378 7.468e-19)
(487.867 32.4383 0)
(455.822 33.8256 -1.42189e-18)
(440.039 32.0589 1.82125e-18)
(414.098 31.5136 0)
(400.568 29.1513 0)
(380.094 28.4195 0)
(368.344 26.408 -2.42135e-18)
(351.841 25.7935 -4.28686e-18)
(341.413 24.184 3.96799e-18)
(327.876 23.7073 0)
(318.504 22.506 -5.39454e-18)
(307.103 22.1714 1.30537e-17)
(298.494 21.311 0)
(288.583 21.0777 7.63045e-18)
(280.56 20.4621 0)
(271.742 20.2667 0)
(264.234 19.787 9.09414e-18)
(256.277 19.5667 0)
(249.275 19.135 -1.0249e-17)
(242.063 18.8371 0)
(235.603 18.383 2.2811e-17)
(229.093 17.9844 -1.20103e-17)
(223.226 17.5023 -1.25117e-17)
(217.387 17.041 1.30498e-17)
(212.119 16.5751 1.35371e-17)
(206.873 16.1087 0)
(202.147 15.7082 -1.4518e-17)
(197.369 15.2714 1.49794e-17)
(193.101 14.9486 1.55125e-17)
(188.663 14.5265 3.19276e-17)
(184.792 14.2513 0)
(180.598 13.7998 0)
(177.116 13.5221 1.76521e-17)
(173.099 12.9915 2.62883e-22)
(170.04 12.6443 0)
(166.158 11.9912 1.91636e-17)
(163.602 11.4769 -2.00775e-17)
(159.851 10.6692 9.45315e-23)
(157.917 9.84964 2.14377e-17)
(154.382 8.87161 -2.14931e-17)
(153.217 7.65617 2.2838e-17)
(150.113 6.00982 0)
(100.008 -0.53002 0)
(100.196 -1.50164 4.35836e-17)
(100.574 -2.58353 0)
(101.135 -4.17516 0)
(101.99 -6.6572 3.69479e-17)
(103.2 -9.8435 0)
(104.837 -13.1493 0)
(106.911 -15.8364 0)
(109.425 -17.4594 0)
(112.252 -17.9622 0)
(115.237 -17.6862 3.96203e-17)
(118.181 -17.1254 -3.86768e-17)
(121.083 -16.6451 -3.73238e-17)
(123.922 -16.3739 3.58615e-17)
(126.832 -16.2513 0)
(129.747 -16.2316 -3.3423e-17)
(132.799 -16.2575 3.24582e-17)
(135.858 -16.3524 -6.30624e-17)
(139.106 -16.4733 0)
(142.347 -16.665 5.96205e-17)
(145.844 -16.8634 5.80017e-17)
(149.305 -17.1388 2.81056e-17)
(153.107 -17.3991 0)
(156.827 -17.7531 -2.63788e-17)
(161.002 -18.0664 5.11712e-17)
(165.02 -18.5019 9.08944e-22)
(169.65 -18.863 0)
(174.01 -19.3901 -2.28178e-17)
(179.2 -19.7959 0)
(183.952 -20.4316 0)
(189.838 -20.8802 -2.02683e-17)
(195.037 -21.6492 1.11884e-21)
(201.795 -22.1403 -1.84469e-17)
(207.504 -23.0783 1.71568e-17)
(215.369 -23.6163 0)
(221.658 -24.7716 1.51616e-17)
(230.943 -25.3706 0)
(237.897 -26.815 -1.30977e-17)
(249.032 -27.5289 0)
(256.793 -29.3801 0)
(270.412 -30.3279 -2.18864e-17)
(279.278 -32.7299 0)
(296.349 -34.0467 -9.12526e-18)
(306.906 -37.0185 6.58503e-18)
(328.8 -38.6497 -7.46848e-18)
(341.872 -41.7622 0)
(369.989 -43.1767 0)
(386.011 -45.4181 4.13797e-18)
(421.025 -46.3968 4.35505e-18)
(440.398 -46.7545 5.85594e-19)
(482.802 -47.5592 -2.65803e-18)
(507.435 -39.6886 0)
(548.459 -37.3194 -1.11558e-18)
(575.587 0.927192 -1.01549e-18)
(548.617 18.3502 0)
(539.531 26.4801 0)
(503.878 31.6288 0)
(487.812 32.6887 -2.6908e-18)
(455.747 34.0803 1.42242e-18)
(439.957 32.2958 -9.10533e-19)
(414.012 31.7433 0)
(400.483 29.3615 7.78398e-19)
(380.012 28.6238 0)
(368.266 26.5972 -2.42251e-18)
(351.766 25.9785 4.28702e-18)
(341.342 24.357 3.9693e-18)
(327.809 23.8769 -5.4099e-18)
(318.44 22.6669 5.39458e-18)
(307.043 22.3304 2.78427e-22)
(298.437 21.4643 0)
(288.528 21.23 7.63107e-18)
(280.507 20.6105 0)
(271.691 20.4142 0)
(264.184 19.9314 9.09491e-18)
(256.228 19.7098 9.79121e-18)
(249.226 19.2752 2.04973e-17)
(242.014 18.9751 -1.0904e-17)
(235.554 18.5175 4.00263e-22)
(229.045 18.1158 0)
(223.178 17.6297 2.5024e-17)
(217.34 17.1647 -2.61e-17)
(212.073 16.6949 8.19254e-23)
(206.828 16.2249 1.40224e-17)
(202.103 15.8214 1.45171e-17)
(197.327 15.3818 1.43511e-22)
(193.059 15.0569 0)
(188.622 14.6323 -1.59619e-17)
(184.752 14.3558 0)
(180.558 13.9017 0)
(177.075 13.6228 -6.11242e-23)
(173.057 13.0891 -1.805e-17)
(169.997 12.7407 1.88157e-17)
(166.113 12.0833 2.24021e-22)
(163.555 11.5669 0)
(159.8 10.7535 -2.0306e-17)
(157.863 9.9289 -2.65706e-22)
(154.322 8.94365 2.14838e-17)
(153.156 7.71756 -2.28283e-17)
(150.046 6.05882 0)
(100.008 -0.535118 0)
(100.197 -1.51567 0)
(100.578 -2.60663 4.06958e-17)
(101.141 -4.20945 0)
(101.997 -6.70632 3.69392e-17)
(103.205 -9.90963 0)
(104.835 -13.2336 0)
(106.902 -15.9382 3.86839e-17)
(109.409 -17.5755 0)
(112.231 -18.0861 -3.99619e-17)
(115.213 -17.8104 7.14834e-22)
(118.156 -17.2454 3.87309e-17)
(121.055 -16.7607 3.73584e-17)
(123.892 -16.4871 -3.58782e-17)
(126.799 -16.3638 0)
(129.711 -16.3443 -3.34246e-17)
(132.761 -16.3706 3.24575e-17)
(135.817 -16.4664 6.30586e-17)
(139.064 -16.5884 0)
(142.303 -16.7816 -2.98084e-17)
(145.798 -16.9815 -5.79994e-17)
(149.258 -17.2589 0)
(153.058 -17.5211 0)
(156.776 -17.8776 2.63778e-17)
(160.949 -18.1931 -5.11711e-17)
(164.965 -18.6317 -4.92341e-17)
(169.593 -18.9952 0)
(173.951 -19.526 2.28173e-17)
(179.139 -19.9345 0)
(183.889 -20.5747 0)
(189.772 -21.0263 0)
(194.969 -21.8008 -1.90927e-17)
(201.724 -22.295 0)
(207.43 -23.2398 -1.71571e-17)
(215.292 -23.781 0)
(221.577 -24.9446 -1.51645e-17)
(230.858 -25.5469 0)
(237.807 -27.0015 2.61975e-17)
(248.937 -27.7192 -1.28375e-17)
(256.691 -29.5833 -1.09553e-17)
(270.304 -30.5364 2.18868e-17)
(279.16 -32.9555 0)
(296.224 -34.2808 -9.12493e-18)
(306.77 -37.2749 1.24071e-21)
(328.66 -38.9186 7.46785e-18)
(341.722 -42.0558 -4.41208e-18)
(369.843 -43.4821 -5.96804e-18)
(385.858 -45.7426 -2.06979e-18)
(420.884 -46.7311 0)
(440.251 -47.0993 5.83143e-19)
(482.697 -47.9213 -2.65767e-18)
(507.357 -40.0094 0)
(548.504 -37.642 1.11017e-18)
(575.742 0.928716 -8.86417e-22)
(548.696 18.5101 0)
(539.562 26.6966 0)
(503.852 31.8801 -7.46909e-19)
(487.755 32.9393 2.69263e-18)
(455.671 34.335 0)
(439.874 32.5327 9.09444e-19)
(413.925 31.9729 2.22626e-18)
(400.399 29.5715 -7.78488e-19)
(379.93 28.8279 0)
(368.188 26.7863 -5.31139e-22)
(351.691 26.1634 0)
(341.271 24.5298 -3.96942e-18)
(327.741 24.0464 -2.89113e-24)
(318.376 22.8276 -5.39608e-18)
(306.982 22.4893 -1.30545e-17)
(298.379 21.6175 -6.71138e-18)
(288.473 21.3822 -7.63076e-18)
(280.454 20.7587 7.93426e-18)
(271.64 20.5616 0)
(264.134 20.0757 -1.81891e-17)
(256.179 19.8529 -9.79043e-18)
(249.178 19.4153 -1.02483e-17)
(241.966 19.1131 1.09035e-17)
(235.506 18.652 -2.2812e-17)
(228.996 18.2471 -1.20112e-17)
(223.13 17.7571 -2.50249e-17)
(217.293 17.2883 2.61005e-17)
(212.026 16.8147 -2.70739e-17)
(206.783 16.3411 9.22465e-23)
(202.059 15.9346 -2.90323e-17)
(197.285 15.492 -2.99536e-17)
(193.017 15.1652 0)
(188.582 14.738 -1.59603e-17)
(184.711 14.4602 0)
(180.518 14.0035 0)
(177.034 13.7236 -1.76456e-17)
(173.015 13.1867 1.80468e-17)
(169.954 12.837 -1.88111e-17)
(166.068 12.1755 -3.83074e-17)
(163.507 11.6568 0)
(159.748 10.8378 0)
(157.81 10.0082 -4.28402e-17)
(154.262 9.01572 2.14742e-17)
(153.095 7.77896 2.28183e-17)
(149.979 6.10779 0)
(100.008 -0.540252 4.56906e-17)
(100.199 -1.52979 -4.35436e-17)
(100.581 -2.62985 -8.13337e-17)
(101.146 -4.24381 3.81893e-17)
(102.003 -6.7554 -3.69281e-17)
(103.209 -9.97558 0)
(104.834 -13.3176 -3.76732e-17)
(106.894 -16.0397 -3.87373e-17)
(109.393 -17.6914 0)
(112.209 -18.2098 -7.36738e-22)
(115.189 -17.9345 -3.97584e-17)
(118.13 -17.3653 6.93889e-22)
(121.028 -16.8761 -3.73923e-17)
(123.862 -16.6002 0)
(126.765 -16.4761 0)
(129.675 -16.4568 3.3425e-17)
(132.723 -16.4836 -3.24555e-17)
(135.777 -16.5804 -3.15271e-17)
(139.021 -16.7034 0)
(142.259 -16.8981 2.98077e-17)
(145.751 -17.0994 2.89982e-17)
(149.21 -17.3789 0)
(153.008 -17.6429 0)
(156.724 -18.0019 0)
(160.895 -18.3196 2.55851e-17)
(164.91 -18.7613 2.46168e-17)
(169.535 -19.1272 0)
(173.892 -19.6618 0)
(179.077 -20.0729 0)
(183.825 -20.7177 2.09789e-17)
(189.705 -21.1722 0)
(194.9 -21.9522 0)
(201.652 -22.4496 0)
(207.355 -23.4011 0)
(215.214 -23.9456 1.66025e-17)
(221.495 -25.1173 -1.27252e-21)
(230.772 -25.7231 1.4733e-17)
(237.717 -27.1877 -1.30999e-17)
(248.842 -27.9093 1.28379e-17)
(256.589 -29.7862 1.09555e-17)
(270.196 -30.7447 -1.09434e-17)
(279.042 -33.1807 -8.7685e-18)
(296.099 -34.5145 1.82487e-17)
(306.633 -37.531 -6.58497e-18)
(328.519 -39.1871 -7.46762e-18)
(341.571 -42.3491 4.41185e-18)
(369.695 -43.7873 5.96819e-18)
(385.703 -46.0669 0)
(420.741 -47.0653 0)
(440.102 -47.4441 -5.82921e-19)
(482.59 -48.2835 2.65624e-18)
(507.278 -40.3307 0)
(548.548 -37.9656 -1.10778e-18)
(575.899 0.930102 5.0591e-19)
(548.774 18.6706 0)
(539.593 26.9136 0)
(503.825 32.1316 7.47809e-19)
(487.699 33.19 2.6927e-18)
(455.595 34.5898 -1.4235e-18)
(439.791 32.7696 -1.81868e-18)
(413.837 32.2025 -2.2266e-18)
(400.313 29.7814 7.79443e-19)
(379.847 29.0319 0)
(368.11 26.9752 2.42329e-18)
(351.616 26.3481 0)
(341.2 24.7025 -3.97076e-18)
(327.674 24.2157 5.41017e-18)
(318.312 22.9882 5.39611e-18)
(306.922 22.6481 6.52727e-18)
(298.321 21.7705 1.34232e-17)
(288.419 21.5344 7.63137e-18)
(280.401 20.9069 8.69026e-22)
(271.589 20.709 0)
(264.084 20.22 1.81891e-17)
(256.13 19.996 0)
(249.129 19.5553 1.02488e-17)
(241.917 19.2511 0)
(235.457 18.7865 -4.04912e-22)
(228.948 18.3784 1.20113e-17)
(223.081 17.8844 2.50258e-17)
(217.245 17.4118 -2.61011e-17)
(211.979 16.9344 1.35369e-17)
(206.738 16.4573 -1.40215e-17)
(202.015 16.0478 1.45152e-17)
(197.242 15.6022 2.99511e-17)
(192.976 15.2734 0)
(188.541 14.8437 1.59582e-17)
(184.671 14.5646 0)
(180.477 14.1053 0)
(176.992 13.8244 0)
(172.973 13.2843 -3.60864e-17)
(169.91 12.9334 0)
(166.022 12.2677 3.82975e-17)
(163.46 11.7469 0)
(159.696 10.9221 0)
(157.756 10.0876 2.14112e-17)
(154.201 9.08785 -2.14646e-17)
(153.033 7.84041 -2.28083e-17)
(149.912 6.15679 0)
(100.008 -0.545422 -4.56784e-17)
(100.2 -1.544 8.70431e-17)
(100.585 -2.65318 4.0638e-17)
(101.152 -4.27824 -7.63311e-17)
(102.009 -6.80446 0)
(103.213 -10.0414 0)
(104.833 -13.4013 -1.00927e-21)
(106.885 -16.1408 0)
(109.377 -17.8069 -3.97221e-17)
(112.188 -18.3333 -7.43123e-22)
(115.165 -18.0584 0)
(118.104 -17.4851 -3.88391e-17)
(121 -16.9915 0)
(123.831 -16.7131 0)
(126.732 -16.5883 0)
(129.639 -16.5691 0)
(132.684 -16.5965 0)
(135.736 -16.6942 0)
(138.978 -16.8182 -3.06876e-17)
(142.214 -17.0145 7.48395e-22)
(145.705 -17.2173 0)
(149.161 -17.4988 0)
(152.958 -17.7646 -2.73044e-17)
(156.672 -18.1262 0)
(160.841 -18.4459 0)
(164.854 -18.8907 0)
(169.477 -19.2591 0)
(173.832 -19.7974 2.28195e-17)
(179.015 -20.2112 2.20679e-17)
(183.761 -20.8605 -2.09787e-17)
(189.638 -21.318 -2.02712e-17)
(194.831 -22.1035 0)
(201.58 -22.604 0)
(207.28 -23.5621 0)
(215.135 -24.1099 -1.66029e-17)
(221.413 -25.2899 -1.28198e-21)
(230.686 -25.8991 -1.47335e-17)
(237.626 -27.3738 -1.31029e-17)
(248.747 -28.0991 1.28393e-17)
(256.486 -29.9889 -1.09582e-17)
(270.087 -30.9526 1.0944e-17)
(278.922 -33.4056 8.76813e-18)
(295.973 -34.7479 -9.12383e-18)
(306.495 -37.7867 0)
(328.378 -39.4552 7.46701e-18)
(341.419 -42.6421 -4.41454e-18)
(369.547 -44.0922 -5.96964e-18)
(385.548 -46.391 0)
(420.597 -47.3992 0)
(439.952 -47.7888 0)
(482.482 -48.646 0)
(507.197 -40.6526 0)
(548.592 -38.2903 0)
(576.056 0.931352 -5.06152e-19)
(548.853 18.8318 2.25857e-19)
(539.624 27.1311 5.78225e-18)
(503.798 32.3836 7.47729e-19)
(487.641 33.4409 -2.69481e-18)
(455.517 34.8446 1.4241e-18)
(439.706 33.0065 9.09239e-19)
(413.749 32.432 0)
(400.227 29.9912 -7.79527e-19)
(379.764 29.2357 0)
(368.031 27.1641 0)
(351.541 26.5327 0)
(341.128 24.8751 3.97087e-18)
(327.606 24.385 0)
(318.247 23.1488 5.39762e-18)
(306.861 22.8068 6.52773e-18)
(298.263 21.9235 8.82695e-22)
(288.364 21.6864 -7.63104e-18)
(280.348 21.055 -7.93422e-18)
(271.538 20.8563 8.70784e-18)
(264.033 20.3642 -9.09419e-18)
(256.081 20.139 0)
(249.08 19.6954 -1.02481e-17)
(241.868 19.389 0)
(235.408 18.9209 1.14063e-17)
(228.899 18.5096 0)
(223.033 18.0116 2.12644e-22)
(217.197 17.5352 1.30508e-17)
(211.932 17.0541 0)
(206.692 16.5733 0)
(201.971 16.1609 0)
(197.199 15.7123 -1.49742e-17)
(192.934 15.3815 0)
(188.501 14.9494 0)
(184.63 14.6689 0)
(180.437 14.2071 -1.69793e-17)
(176.951 13.9251 0)
(172.931 13.3819 1.80396e-17)
(169.866 13.0298 0)
(165.976 12.3599 -1.91436e-17)
(163.412 11.837 0)
(159.644 11.0065 0)
(157.701 10.1671 0)
(154.14 9.16004 0)
(152.971 7.90192 0)
(149.844 6.20581 0)
(100.008 -0.550628 0)
(100.201 -1.5583 -4.34995e-17)
(100.589 -2.67662 0)
(101.158 -4.31274 3.81421e-17)
(102.016 -6.85349 0)
(103.218 -10.107 0)
(104.833 -13.4847 3.77368e-17)
(106.877 -16.2416 3.88477e-17)
(109.36 -17.9221 3.97933e-17)
(112.166 -18.4566 8.03849e-17)
(115.14 -18.1822 3.99015e-17)
(118.078 -17.6048 0)
(120.971 -17.1067 0)
(123.8 -16.8259 3.59321e-17)
(126.698 -16.7003 0)
(129.603 -16.6814 0)
(132.645 -16.7092 0)
(135.695 -16.8079 0)
(138.935 -16.9329 3.06851e-17)
(142.169 -17.1307 -5.9609e-17)
(145.658 -17.335 0)
(149.113 -17.6186 0)
(152.907 -17.8862 5.46071e-17)
(156.62 -18.2503 0)
(160.787 -18.5722 0)
(164.798 -19.0201 -2.46183e-17)
(169.419 -19.3908 0)
(173.772 -19.9329 -2.28191e-17)
(178.953 -20.3494 -2.20676e-17)
(183.696 -21.0032 0)
(189.571 -21.4636 2.02712e-17)
(194.761 -22.2546 -1.90973e-17)
(201.507 -22.7582 0)
(207.205 -23.7231 0)
(215.056 -24.2741 -1.66047e-17)
(221.33 -25.4622 1.51682e-17)
(230.6 -26.0748 0)
(237.535 -27.5596 1.31034e-17)
(248.651 -28.2887 -1.28397e-17)
(256.383 -30.1912 2.19181e-17)
(269.978 -31.1601 3.33795e-22)
(278.803 -33.6302 -8.77032e-18)
(295.847 -34.981 0)
(306.356 -38.0421 0)
(328.235 -39.7231 0)
(341.267 -42.9348 4.41433e-18)
(369.397 -44.3969 5.96982e-18)
(385.392 -46.7148 0)
(420.453 -47.7329 0)
(439.801 -48.1334 -5.79055e-19)
(482.373 -49.0086 0)
(507.116 -40.9751 0)
(548.636 -38.6162 0)
(576.215 0.932465 5.04629e-19)
(548.932 18.9936 -2.25648e-19)
(539.654 27.3492 -5.7922e-18)
(503.77 32.6359 -1.49703e-18)
(487.583 33.692 0)
(455.439 35.0995 0)
(439.621 33.2433 0)
(413.66 32.6614 0)
(400.14 30.2008 -7.80488e-19)
(379.68 29.4394 0)
(367.951 27.3528 -2.42513e-18)
(351.465 26.7172 0)
(341.056 25.0476 0)
(327.537 24.5542 0)
(318.182 23.3092 -5.39765e-18)
(306.8 22.9655 -1.30555e-17)
(298.205 22.0764 -6.71247e-18)
(288.308 21.8384 0)
(280.295 21.203 7.93551e-18)
(271.487 21.0036 -8.70719e-18)
(263.983 20.5084 0)
(256.032 20.282 0)
(249.03 19.8353 0)
(241.819 19.5269 1.09036e-17)
(235.358 19.0553 -1.14069e-17)
(228.85 18.6408 1.20122e-17)
(222.984 18.1388 -2.50277e-17)
(217.149 17.6586 -1.30512e-17)
(211.885 17.1736 0)
(206.647 16.6893 0)
(201.926 16.2739 0)
(197.157 15.8224 0)
(192.892 15.4896 1.55039e-17)
(188.46 15.055 1.59547e-17)
(184.589 14.7732 0)
(180.396 14.3088 -2.78529e-22)
(176.909 14.0259 0)
(172.889 13.4795 0)
(169.822 13.1263 0)
(165.93 12.4521 0)
(163.363 11.9271 0)
(159.591 11.0909 0)
(157.647 10.2467 0)
(154.079 9.23229 0)
(152.909 7.96347 0)
(149.776 6.25486 0)
(100.008 -0.55587 0)
(100.203 -1.57268 4.34807e-17)
(100.592 -2.70017 -4.05848e-17)
(101.164 -4.34733 3.81213e-17)
(102.022 -6.90251 0)
(103.222 -10.1725 0)
(104.832 -13.5679 3.77706e-17)
(106.869 -16.342 8.71262e-22)
(109.344 -18.0371 0)
(112.144 -18.5797 -4.02707e-17)
(115.116 -18.306 -3.99732e-17)
(118.052 -17.7244 3.89517e-17)
(120.943 -17.2217 0)
(123.769 -16.9385 -3.59497e-17)
(126.664 -16.8121 0)
(129.566 -16.7934 0)
(132.606 -16.8218 -3.24523e-17)
(135.654 -16.9214 3.15221e-17)
(138.892 -17.0475 3.0684e-17)
(142.124 -17.2468 5.96062e-17)
(145.611 -17.4526 0)
(149.064 -17.7382 -2.81029e-17)
(152.857 -18.0077 7.53081e-22)
(156.568 -18.3743 0)
(160.733 -18.6983 0)
(164.742 -19.1492 -9.38788e-22)
(169.361 -19.5224 0)
(173.712 -20.0682 0)
(178.89 -20.4874 2.2069e-17)
(183.631 -21.1457 2.09815e-17)
(189.504 -21.609 -2.02727e-17)
(194.691 -22.4055 -1.1579e-21)
(201.434 -22.9122 -1.84523e-17)
(207.129 -23.8838 0)
(214.977 -24.4381 -7.42103e-22)
(221.248 -25.6344 1.51712e-17)
(230.513 -26.2503 1.47365e-17)
(237.443 -27.7451 0)
(248.554 -28.478 1.28412e-17)
(256.279 -30.3933 -1.09599e-17)
(269.868 -31.3674 -1.09442e-17)
(278.682 -33.8545 8.76997e-18)
(295.72 -35.2137 9.12307e-18)
(306.217 -38.2971 0)
(328.092 -39.9906 0)
(341.113 -43.2273 4.41707e-18)
(369.247 -44.7013 -5.97131e-18)
(385.235 -47.0385 -2.0785e-18)
(420.307 -48.0665 0)
(439.649 -48.478 1.15651e-18)
(482.264 -49.3714 2.65423e-18)
(507.033 -41.2982 0)
(548.68 -38.9432 -1.09463e-18)
(576.375 0.933438 -5.0494e-19)
(549.011 19.156 -2.1602e-19)
(539.685 27.5677 0)
(503.741 32.8886 7.49394e-19)
(487.523 33.9433 0)
(455.36 35.3544 1.42532e-18)
(439.535 33.4801 0)
(413.57 32.8907 2.22571e-18)
(400.053 30.4103 7.80565e-19)
(379.595 29.643 0)
(367.872 27.5414 2.42524e-18)
(351.389 26.9016 0)
(340.983 25.22 0)
(327.469 24.7232 0)
(318.118 23.4694 -5.39918e-18)
(306.739 23.124 6.52778e-18)
(298.147 22.2292 -6.71402e-18)
(288.253 21.9903 0)
(280.242 21.351 -1.5871e-17)
(271.435 21.1508 0)
(263.932 20.6525 -9.09498e-18)
(255.982 20.4249 0)
(248.981 19.9753 -1.02485e-17)
(241.77 19.6647 -1.09031e-17)
(235.309 19.1896 2.28139e-17)
(228.801 18.7719 -1.20124e-17)
(222.934 18.266 2.50287e-17)
(217.101 17.782 1.30513e-17)
(211.838 17.2931 0)
(206.601 16.8052 0)
(201.882 16.3868 0)
(197.114 15.9324 -1.49718e-17)
(192.85 15.5977 -1.55021e-17)
(188.419 15.1606 -1.59526e-17)
(184.548 14.8775 -1.65399e-17)
(180.356 14.4106 -2.81174e-22)
(176.868 14.1266 -1.76322e-17)
(172.847 13.5771 0)
(169.778 13.2227 0)
(165.884 12.5443 0)
(163.315 12.0173 0)
(159.538 11.1754 -2.02691e-17)
(157.592 10.3263 2.13833e-17)
(154.017 9.3046 0)
(152.846 8.02507 0)
(149.707 6.30392 2.26699e-17)
(100.008 -0.561149 0)
(100.204 -1.58716 -4.34577e-17)
(100.596 -2.72384 4.05556e-17)
(101.17 -4.38199 -7.61969e-17)
(102.029 -6.95151 0)
(103.227 -10.2378 3.69784e-17)
(104.831 -13.6507 1.0334e-21)
(106.861 -16.4421 -7.7917e-17)
(109.328 -18.1517 -3.99398e-17)
(112.122 -18.7026 0)
(115.091 -18.4295 -4.00473e-17)
(118.026 -17.8438 -7.80166e-17)
(120.915 -17.3366 -3.75355e-17)
(123.738 -17.051 0)
(126.63 -16.9238 0)
(129.529 -16.9054 0)
(132.567 -16.9342 3.24503e-17)
(135.613 -17.0348 -6.30398e-17)
(138.848 -17.162 -3.06815e-17)
(142.078 -17.3628 -5.96034e-17)
(145.564 -17.5701 2.89946e-17)
(149.015 -17.8577 -8.18455e-22)
(152.806 -18.129 7.58243e-22)
(156.515 -18.4981 0)
(160.678 -18.8242 2.55858e-17)
(164.685 -19.2783 2.4618e-17)
(169.302 -19.6539 -2.38409e-17)
(173.651 -20.2034 0)
(178.827 -20.6252 -2.20687e-17)
(183.566 -21.2881 -2.09814e-17)
(189.436 -21.7542 2.02727e-17)
(194.621 -22.5563 1.90986e-17)
(201.361 -23.0661 1.84525e-17)
(207.053 -24.0443 1.71656e-17)
(214.897 -24.6019 1.66062e-17)
(221.164 -25.8063 1.31031e-21)
(230.426 -26.4256 6.62414e-22)
(237.351 -27.9304 1.31084e-17)
(248.457 -28.667 -1.28416e-17)
(256.175 -30.5951 -1.09627e-17)
(269.758 -31.5744 0)
(278.561 -34.0784 -8.77222e-18)
(295.592 -35.446 -1.82451e-17)
(306.076 -38.5518 0)
(327.947 -40.2578 7.466e-18)
(340.959 -43.5194 -4.41687e-18)
(369.096 -45.0055 5.97152e-18)
(385.077 -47.3619 2.07846e-18)
(420.161 -48.3998 0)
(439.496 -48.8226 -1.17891e-21)
(482.153 -49.7344 5.8968e-22)
(506.95 -41.6218 0)
(548.724 -39.2714 1.0923e-18)
(576.537 0.934271 5.03465e-19)
(549.091 19.319 4.78398e-21)
(539.715 27.7867 5.82169e-18)
(503.712 33.1417 -7.49506e-19)
(487.463 34.1947 2.69828e-18)
(455.28 35.6093 -1.42602e-18)
(439.449 33.7168 0)
(413.479 33.1199 -4.71744e-22)
(399.965 30.6197 0)
(379.51 29.8465 0)
(367.792 27.7298 0)
(351.313 27.0859 0)
(340.911 25.3922 -3.97365e-18)
(327.4 24.8921 -5.41066e-18)
(318.052 23.6296 5.39919e-18)
(306.678 23.2824 0)
(298.089 22.3819 6.71378e-18)
(288.198 22.1421 0)
(280.188 21.4989 -8.97613e-22)
(271.383 21.2979 0)
(263.882 20.7966 9.0942e-18)
(255.932 20.5678 0)
(248.931 20.1152 2.04962e-17)
(241.721 19.8025 0)
(235.259 19.3239 4.16099e-22)
(228.752 18.903 1.20129e-17)
(222.885 18.393 -1.25147e-17)
(217.053 17.9053 1.30518e-17)
(211.79 17.4126 1.35368e-17)
(206.555 16.921 0)
(201.837 16.4996 0)
(197.071 16.0423 2.99408e-17)
(192.807 15.7056 0)
(188.378 15.2661 0)
(184.507 14.9818 -2.03118e-23)
(180.315 14.5123 -2.83811e-22)
(176.826 14.2273 3.52577e-17)
(172.804 13.6747 1.80292e-17)
(169.734 13.3192 0)
(165.837 12.6366 0)
(163.266 12.1076 0)
(159.485 11.2599 2.02614e-17)
(157.537 10.4061 -2.82799e-22)
(153.955 9.37698 0)
(152.783 8.08673 0)
(149.638 6.35301 -2.2662e-17)
(100.008 -0.566466 0)
(100.206 -1.60174 4.3439e-17)
(100.6 -2.74763 0)
(101.176 -4.41674 3.80759e-17)
(102.035 -7.0005 -3.68855e-17)
(103.232 -10.3029 -7.39768e-17)
(104.831 -13.7333 -3.78358e-17)
(106.853 -16.5419 -8.85001e-22)
(109.312 -18.266 -8.21539e-22)
(112.101 -18.8252 0)
(115.066 -18.553 4.01208e-17)
(118 -17.9632 7.81322e-17)
(120.886 -17.4514 7.5144e-17)
(123.706 -17.1633 0)
(126.596 -17.0353 3.46116e-17)
(129.492 -17.0171 0)
(132.528 -17.0465 -3.24497e-17)
(135.571 -17.1481 3.15177e-17)
(138.805 -17.2763 0)
(142.033 -17.4787 5.96006e-17)
(145.516 -17.6874 -5.79863e-17)
(148.966 -17.977 2.81008e-17)
(152.754 -18.2502 7.63411e-22)
(156.462 -18.6218 0)
(160.623 -18.9501 -2.55851e-17)
(164.628 -19.4072 2.46193e-17)
(169.243 -19.7852 2.38404e-17)
(173.59 -20.3384 0)
(178.763 -20.7629 0)
(183.501 -21.4303 0)
(189.368 -21.8993 0)
(194.55 -22.7069 1.9101e-17)
(201.287 -23.2198 1.84543e-17)
(206.976 -24.2047 -1.71659e-17)
(214.817 -24.7654 -1.66081e-17)
(221.08 -25.978 1.31976e-21)
(230.338 -26.6006 -1.47382e-17)
(237.258 -28.1155 -1.31089e-17)
(248.36 -28.8558 0)
(256.07 -30.7967 -1.3617e-21)
(269.646 -31.781 0)
(278.44 -34.3019 8.77188e-18)
(295.463 -35.678 9.12202e-18)
(305.935 -38.8061 0)
(327.802 -40.5246 -7.46542e-18)
(340.803 -43.8113 0)
(368.944 -45.3094 0)
(384.918 -47.6851 0)
(420.014 -48.7329 0)
(439.341 -49.167 -5.76055e-19)
(482.041 -50.0976 5.99113e-22)
(506.865 -41.946 0)
(548.768 -39.6006 1.08694e-18)
(576.699 0.934961 -5.03847e-19)
(549.172 19.4827 4.82672e-21)
(539.745 28.0063 -1.16711e-17)
(503.683 33.3952 1.50112e-18)
(487.403 34.4463 -2.70112e-18)
(455.199 35.8643 0)
(439.362 33.9535 0)
(413.388 33.349 -4.76263e-22)
(399.877 30.829 7.82056e-19)
(379.425 30.0498 0)
(367.711 27.9181 0)
(351.236 27.27 4.2863e-18)
(340.838 25.5644 -6.34219e-22)
(327.33 25.061 5.41076e-18)
(317.987 23.7897 0)
(306.616 23.4407 0)
(298.03 22.5345 -6.71535e-18)
(288.142 22.2939 7.63207e-18)
(280.134 21.6467 -9.04767e-22)
(271.332 21.445 8.70732e-18)
(263.831 20.9406 -9.09498e-18)
(255.883 20.7106 0)
(248.882 20.255 -2.04959e-17)
(241.672 19.9403 -1.09032e-17)
(235.21 19.4582 -1.14072e-17)
(228.702 19.0341 -1.20131e-17)
(222.836 18.5201 0)
(217.004 18.0285 -2.6104e-17)
(211.742 17.5319 -2.70735e-17)
(206.509 17.0368 0)
(201.792 16.6124 0)
(197.027 16.1522 -2.99382e-17)
(192.765 15.8136 0)
(188.336 15.3715 1.5949e-17)
(184.465 15.086 -2.11189e-23)
(180.274 14.6139 -2.86448e-22)
(176.784 14.328 -3.52508e-17)
(172.762 13.7723 -3.60508e-17)
(169.69 13.4157 0)
(165.79 12.7289 0)
(163.217 12.1979 0)
(159.431 11.3445 0)
(157.481 10.4859 -2.87749e-22)
(153.892 9.44941 0)
(152.719 8.14843 0)
(149.568 6.40211 0)
(100.008 -0.571821 0)
(100.207 -1.6164 -4.34159e-17)
(100.604 -2.77154 4.05036e-17)
(101.182 -4.45156 0)
(102.042 -7.04947 3.68762e-17)
(103.237 -10.368 -1.17344e-21)
(104.83 -13.8156 -3.78703e-17)
(106.845 -16.6412 -8.91843e-22)
(109.296 -18.38 8.01752e-17)
(112.079 -18.9477 0)
(115.041 -18.6763 0)
(117.973 -18.0824 -3.91242e-17)
(120.857 -17.5661 -7.52187e-17)
(123.675 -17.2754 0)
(126.561 -17.1467 -3.46181e-17)
(129.455 -17.1288 0)
(132.488 -17.1587 3.24478e-17)
(135.529 -17.2612 -3.15166e-17)
(138.761 -17.3905 0)
(141.987 -17.5944 -5.95978e-17)
(145.468 -17.8046 5.79842e-17)
(148.916 -18.0963 -2.8101e-17)
(152.703 -18.3712 -2.73015e-17)
(156.409 -18.7454 0)
(160.568 -19.0758 2.55859e-17)
(164.571 -19.536 -2.46187e-17)
(169.184 -19.9163 0)
(173.529 -20.4733 2.28227e-17)
(178.7 -20.9004 0)
(183.435 -21.5723 0)
(189.299 -22.0443 0)
(194.479 -22.8573 1.18241e-21)
(201.213 -23.3733 -3.69098e-17)
(206.899 -24.3648 0)
(214.737 -24.9288 3.32177e-17)
(220.996 -26.1496 1.32921e-21)
(230.25 -26.7755 -1.47401e-17)
(237.165 -28.3004 0)
(248.262 -29.0443 0)
(255.964 -30.9979 2.19303e-17)
(269.535 -31.9873 0)
(278.317 -34.5252 0)
(295.334 -35.9096 9.12175e-18)
(305.793 -39.0601 0)
(327.657 -40.7911 0)
(340.647 -44.1029 -4.42099e-18)
(368.792 -45.613 0)
(384.758 -48.0081 0)
(419.866 -49.0658 0)
(439.186 -49.5114 5.73442e-19)
(481.929 -50.4609 -2.65119e-18)
(506.779 -42.2708 -3.73348e-18)
(548.811 -39.9311 -1.52829e-21)
(576.862 0.935506 1.50912e-18)
(549.252 19.647 4.87008e-21)
(539.775 28.2264 5.85045e-18)
(503.653 33.649 -6.06648e-22)
(487.342 34.6981 0)
(455.118 36.1193 1.42745e-18)
(439.274 34.1901 0)
(413.296 33.578 -2.22568e-18)
(399.788 31.0382 4.53727e-22)
(379.339 30.253 0)
(367.63 28.1063 -2.42772e-18)
(351.158 27.454 -4.28639e-18)
(340.764 25.7364 3.97446e-18)
(327.261 25.2297 0)
(317.921 23.9496 0)
(306.555 23.5989 -6.52856e-18)
(297.972 22.687 -9.2024e-22)
(288.086 22.4455 -7.63169e-18)
(280.08 21.7944 7.93626e-18)
(271.28 21.592 5.38917e-22)
(263.78 21.0845 1.81892e-17)
(255.833 20.8534 0)
(248.832 20.3948 2.04957e-17)
(241.622 20.078 1.09027e-17)
(235.16 19.5924 0)
(228.652 19.1651 -1.20137e-17)
(222.786 18.6471 0)
(216.955 18.1516 2.61046e-17)
(211.694 17.6512 1.35367e-17)
(206.463 17.1525 0)
(201.747 16.7251 0)
(196.984 16.262 2.99355e-17)
(192.722 15.9214 -1.54968e-17)
(188.295 15.477 -1.59469e-17)
(184.424 15.1901 3.3065e-17)
(180.233 14.7156 1.69664e-17)
(176.741 14.4287 1.7622e-17)
(172.719 13.8698 1.80216e-17)
(169.645 13.5122 0)
(165.743 12.8212 -1.9118e-17)
(163.168 12.2883 0)
(159.378 11.4291 -2.0246e-17)
(157.425 10.5658 -2.1355e-17)
(153.83 9.52191 0)
(152.655 8.21019 0)