/*--------------------------------*- C++ -*----------------------------------*\
| =========                 |                                                 |
| \\      /  F ield         | OpenFOAM: The Open Source CFD Toolbox           |
|  \\    /   O peration     | Version:  2412                                  |
|   \\  /    A nd           | Website:  www.openfoam.com                      |
|    \\/     M anipulation  |                                                 |
\*---------------------------------------------------------------------------*/
FoamFile
{
    version     2.0;
    format      ascii;
    arch        "LSB;label=32;scalar=64";
    class       volScalarField;
    location    "0.8";
    object      epsilon;
}
// * * * * * * * * * * * * * * * * * * * * * * * * * * * * * * * * * * * * * //

dimensions      [0 2 -3 0 0 0 0];

internalField   nonuniform List<scalar> 
13156
(
4.35945e+06
4.76351e+06
3.58337e+06
2.8886e+06
2.5882e+06
2.45608e+06
2.40548e+06
2.40303e+06
2.4357e+06
2.4924e+06
2.56488e+06
2.64394e+06
2.72552e+06
2.80573e+06
2.88581e+06
2.96483e+06
3.04836e+06
3.1351e+06
3.23249e+06
3.33789e+06
3.46121e+06
3.59587e+06
3.75772e+06
3.93207e+06
4.14378e+06
4.36847e+06
4.64666e+06
4.93607e+06
5.30753e+06
5.68293e+06
6.1872e+06
6.67977e+06
7.37119e+06
8.03431e+06
9.01153e+06
9.91849e+06
1.13465e+07
1.26049e+07
1.47644e+07
1.65484e+07
1.9955e+07
2.25433e+07
2.81697e+07
3.20157e+07
4.1757e+07
4.7456e+07
6.49689e+07
7.3323e+07
1.0706e+08
1.20982e+08
1.99967e+08
2.31527e+08
6.28377e+08
7.33287e+08
4.37723e+08
2.72517e+08
1.97312e+08
1.51322e+08
1.21244e+08
9.84131e+07
8.18073e+07
6.82912e+07
5.82742e+07
4.98384e+07
4.36151e+07
3.81411e+07
3.39392e+07
3.00246e+07
2.68309e+07
2.38148e+07
2.12846e+07
1.89587e+07
1.70104e+07
1.52728e+07
1.38248e+07
1.25503e+07
1.1473e+07
1.0514e+07
9.66919e+06
8.89926e+06
8.19656e+06
7.55128e+06
6.95168e+06
6.40503e+06
5.89473e+06
5.43743e+06
5.01091e+06
4.63867e+06
4.28896e+06
3.99769e+06
3.72079e+06
3.51131e+06
3.30656e+06
3.19003e+06
3.06068e+06
3.0453e+06
2.95882e+06
3.00193e+06
2.90263e+06
1.69729e+07
9.54009e+06
3.54286e+06
1.62536e+06
968975
730572
651289
643759
668875
711802
761886
816949
873018
931049
987754
1.04489e+06
1.09769e+06
1.1508e+06
1.19846e+06
1.249e+06
1.2951e+06
1.34967e+06
1.39987e+06
1.46688e+06
1.52774e+06
1.6151e+06
1.69149e+06
1.8086e+06
1.90414e+06
2.06517e+06
2.18504e+06
2.4105e+06
2.57818e+06
2.8996e+06
3.12868e+06
3.59733e+06
3.91007e+06
4.6181e+06
5.04999e+06
6.15695e+06
6.76364e+06
8.56382e+06
9.44118e+06
1.24965e+07
1.38213e+07
1.92365e+07
2.13259e+07
3.1073e+07
3.47023e+07
5.2413e+07
6.19935e+07
9.17015e+07
1.26034e+08
3.45232e+08
3.11999e+08
1.86388e+08
1.10074e+08
7.94942e+07
5.88244e+07
4.75981e+07
3.75493e+07
3.16622e+07
2.60344e+07
2.25269e+07
1.91531e+07
1.68684e+07
1.46731e+07
1.3029e+07
1.14497e+07
1.01845e+07
8.99571e+06
8.02071e+06
7.13845e+06
6.41109e+06
5.7778e+06
5.24603e+06
4.79294e+06
4.39782e+06
4.05067e+06
3.73532e+06
3.44661e+06
3.17914e+06
2.93106e+06
2.7018e+06
2.49015e+06
2.29696e+06
2.12055e+06
1.96192e+06
1.81909e+06
1.69305e+06
1.58189e+06
1.4876e+06
1.41057e+06
1.35072e+06
1.3121e+06
1.28603e+06
1.27675e+06
1.26222e+06
1.24781e+06
2.14377e+06
2.49975e+06
1.22017e+06
659581
411676
299555
251896
238035
242155
257021
277562
301843
327963
355880
384541
414434
444037
474369
503471
533303
561636
591899
620764
653931
686087
725730
764280
814719
862818
929609
991511
1.08236e+06
1.16364e+06
1.29215e+06
1.40142e+06
1.5882e+06
1.73536e+06
2.01546e+06
2.21593e+06
2.65097e+06
2.92723e+06
3.63149e+06
4.02051e+06
5.21709e+06
5.78789e+06
7.93786e+06
8.83119e+06
1.28305e+07
1.43236e+07
2.18899e+07
2.51092e+07
3.94959e+07
3.72865e+07
1.14751e+08
1.83968e+08
1.3396e+08
8.44322e+07
5.77431e+07
4.28169e+07
3.32248e+07
2.64361e+07
2.17159e+07
1.80679e+07
1.54145e+07
1.32566e+07
1.15919e+07
1.01672e+07
8.99084e+06
7.9434e+06
7.04644e+06
6.24573e+06
5.55934e+06
4.95958e+06
4.45195e+06
4.01962e+06
3.65273e+06
3.34113e+06
3.06812e+06
2.82595e+06
2.60444e+06
2.3999e+06
2.20885e+06
2.03111e+06
1.86598e+06
1.71417e+06
1.57519e+06
1.44961e+06
1.33621e+06
1.23598e+06
1.1466e+06
1.07001e+06
1.00345e+06
951241
909421
884369
866264
860085
848922
833450
272081
522887
374493
274988
210612
170934
148882
139272
137860
142101
149803
159920
171446
184236
197788
212359
227307
243186
258998
275708
291972
309501
326242
345275
363343
385383
406185
433497
458660
494384
526089
574692
614566
683077
735955
835070
904654
1.05309e+06
1.14493e+06
1.37486e+06
1.496e+06
1.86639e+06
2.02751e+06
2.65376e+06
2.87657e+06
4.00399e+06
4.34538e+06
6.48532e+06
7.06458e+06
1.1251e+07
1.23666e+07
2.09388e+07
1.59932e+07
4.55197e+07
1.12216e+08
1.05006e+08
7.21146e+07
4.91111e+07
3.63161e+07
2.76243e+07
2.19519e+07
1.78028e+07
1.48499e+07
1.25944e+07
1.08801e+07
9.49529e+06
8.36247e+06
7.39047e+06
6.54899e+06
5.80798e+06
5.15883e+06
4.59205e+06
4.10325e+06
3.68522e+06
3.33202e+06
3.03099e+06
2.77485e+06
2.5493e+06
2.34756e+06
2.16178e+06
1.98908e+06
1.82695e+06
1.67574e+06
1.53499e+06
1.40581e+06
1.28766e+06
1.1814e+06
1.08564e+06
1.00158e+06
926753
863203
807984
765146
730924
710853
696272
690673
680952
665873
61005.5
139854
145701
142608
132249
119995
110052
104024
101680
102429
105338
109833
115317
121626
128452
135898
143647
152017
160512
169683
178791
188783
198434
209499
219942
232712
244511
260149
274059
294383
311497
339244
360275
399468
426820
483813
519079
604989
650025
783812
840151
1.05621e+06
1.12529e+06
1.49074e+06
1.57693e+06
2.23741e+06
2.36215e+06
3.63926e+06
3.86284e+06
6.44257e+06
6.8405e+06
1.2128e+07
8.94376e+06
2.15214e+07
6.76218e+07
8.28565e+07
6.31714e+07
4.41507e+07
3.27594e+07
2.47331e+07
1.96036e+07
1.57963e+07
1.31736e+07
1.1143e+07
9.64456e+06
8.41498e+06
7.42821e+06
6.56778e+06
5.83106e+06
5.17384e+06
4.60226e+06
4.09894e+06
3.66719e+06
3.29624e+06
2.9837e+06
2.71663e+06
2.48858e+06
2.28675e+06
2.10494e+06
1.93654e+06
1.77923e+06
1.63111e+06
1.49275e+06
1.36397e+06
1.24593e+06
1.13819e+06
1.04157e+06
954776
878826
811506
754487
705208
667033
636844
619079
606285
600600
591251
576291
25157.8
62545.8
80510.2
90924.8
94239.7
92503.9
88879.4
85666.3
83795.7
83525.4
84581
86701.8
89537.1
92953.6
96740.7
100928
105325
110113
115019
120371
125755
131719
137543
144238
150570
158271
165325
174624
182740
194682
204423
220661
232426
255382
270368
303952
322981
374014
397672
477854
506020
636514
668010
890045
923834
1.3283e+06
1.37178e+06
2.16908e+06
2.25665e+06
3.91393e+06
4.07183e+06
7.32603e+06
5.91668e+06
1.22355e+07
4.03145e+07
6.43189e+07
5.51123e+07
4.03462e+07
3.03003e+07
2.29063e+07
1.81395e+07
1.45803e+07
1.21539e+07
1.02714e+07
8.9e+06
7.76955e+06
6.86983e+06
6.07955e+06
5.40563e+06
4.80029e+06
4.27516e+06
3.81064e+06
3.41303e+06
3.07053e+06
2.7821e+06
2.53502e+06
2.32312e+06
2.13459e+06
1.9637e+06
1.80464e+06
1.65553e+06
1.5149e+06
1.3835e+06
1.26132e+06
1.1495e+06
1.04771e+06
956631
875095
803882
741028
687835
642127
606669
578902
562339
550457
544352
534867
519844
15793.1
39686.7
55045.7
66186.1
72855.7
75264
74997.7
73784.7
72689.2
72274.9
72611.4
73647.9
75200.6
77185.8
79459.1
82022.9
84750.3
87747.8
90848.7
94253.8
97714.6
101560
105347
109679
113788
118716
123211
129040
134074
141409
147289
157134
164106
177949
186644
206910
217824
248722
262032
310867
326135
406202
421951
559299
573485
826482
841511
1.35035e+06
1.38874e+06
2.46822e+06
2.57051e+06
4.62354e+06
4.39277e+06
8.24319e+06
2.4592e+07
4.90361e+07
4.73816e+07
3.68599e+07
2.82558e+07
2.15393e+07
1.7088e+07
1.37425e+07
1.14581e+07
9.68732e+06
8.40291e+06
7.34358e+06
6.50284e+06
5.76165e+06
5.12998e+06
4.56019e+06
4.06601e+06
3.62761e+06
3.25253e+06
2.92885e+06
2.65602e+06
2.42161e+06
2.2196e+06
2.03889e+06
1.87415e+06
1.72021e+06
1.57554e+06
1.43903e+06
1.31154e+06
1.19321e+06
1.08512e+06
987014
899416
821261
753101
693173
642465
599110
565402
539201
523286
511811
505110
495209
480005
11922.9
29809.9
42275.8
52227.6
59443.5
63490.2
65025.7
65167.5
64807.7
64562.3
64664.8
65196.1
66088.2
67306.7
68758.1
70439.9
72263.6
74296.3
76425.5
78780.3
81195.3
83877.7
86532.6
89541.1
92394
95753.4
98802.8
102670
105983
110726
114483
120730
125102
133795
139143
151816
158481
177758
185803
216264
225327
275381
284364
370681
378024
538697
545811
874915
900950
1.60888e+06
1.72833e+06
3.11726e+06
3.54474e+06
6.27985e+06
1.59857e+07
3.69899e+07
4.00439e+07
3.34247e+07
2.63434e+07
2.03684e+07
1.62364e+07
1.30983e+07
1.09351e+07
9.25928e+06
8.04265e+06
7.03976e+06
6.24346e+06
5.53983e+06
4.93933e+06
4.39596e+06
3.92417e+06
3.50474e+06
3.14568e+06
2.83527e+06
2.57312e+06
2.34712e+06
2.1513e+06
1.97518e+06
1.81378e+06
1.66247e+06
1.52004e+06
1.38571e+06
1.2604e+06
1.14438e+06
1.03863e+06
942934
857687
781869
715840
657975
609016
567324
534828
509690
494106
482720
475327
464855
449417
9899.8
24433.9
34720.5
43378.3
50336.1
54965.9
57465.5
58505.4
58754
58774.3
58862.5
59175.1
59723.2
60514.2
61494.9
62667.8
63970.9
65450.1
67023.7
68777.2
70590
72596.3
74586
76809.4
78911.1
81332.2
83514.4
86214.2
88505.9
91720.1
94241.3
98385.9
101265
106967
110430
118698
123013
135526
140734
160415
166301
198532
204450
260028
265220
369331
375800
592077
620325
1.09486e+06
1.24591e+06
2.2723e+06
3.03751e+06
5.18308e+06
1.13022e+07
2.79066e+07
3.33457e+07
3.00067e+07
2.44518e+07
1.92698e+07
1.54787e+07
1.25545e+07
1.05073e+07
8.91986e+06
7.76209e+06
6.80798e+06
6.04832e+06
5.37575e+06
4.80012e+06
4.27784e+06
3.82342e+06
3.41865e+06
3.07167e+06
2.77114e+06
2.51661e+06
2.29631e+06
2.10434e+06
1.93073e+06
1.77088e+06
1.62064e+06
1.47911e+06
1.34577e+06
1.22161e+06
1.10697e+06
1.00274e+06
908724
825168
751076
686641
630332
582692
542247
510644
486249
470798
459291
451161
440044
424372
8652.1
21022.8
29718.6
37280.9
43764.9
48517.4
51518.6
53145.4
53869.1
54165.2
54338.1
54582.3
54960.6
55513.6
56219.7
57090
58082.5
59231.6
60474.3
61868.1
63317.8
64910.9
66488.4
68220.3
69846.2
71673.5
73303.8
75267.9
76915.9
79179.6
80933.9
83790.1
85756.7
89646
91982
97604.1
100539
109008
112586
125834
129963
151527
155914
192949
197520
267047
274736
420840
454829
788198
961113
1.78152e+06
2.71698e+06
4.50809e+06
8.65352e+06
2.12843e+07
2.74911e+07
2.66676e+07
2.2553e+07
1.81869e+07
1.476e+07
1.20606e+07
1.01318e+07
8.6315e+06
7.52905e+06
6.62001e+06
5.89288e+06
5.24768e+06
4.69326e+06
4.18887e+06
3.74879e+06
3.35602e+06
3.01865e+06
2.72578e+06
2.47688e+06
2.26048e+06
2.07077e+06
1.89829e+06
1.73879e+06
1.58861e+06
1.44711e+06
1.31402e+06
1.19038e+06
1.07655e+06
973374
880593
798337
725607
662448
607385
560805
521349
490438
466577
451129
439364
430488
418707
402839
7781.55
18615.1
26130.7
32812
38796.8
43467.6
46709.3
48713.1
49796.9
50344.9
50643.1
50899.3
51208.8
51636.4
52185.4
52876.2
53682.4
54632.3
55674.8
56848.1
58072.1
59403.1
60714.2
62123.8
63433.1
64865.3
66125.1
67601.2
68820.1
70461.2
71712
73737.9
75114.8
77852.9
79479.1
83437.2
85510
91469.3
94047.2
103337
106414
121450
124968
150666
155030
203306
212220
315060
353891
603151
786055
1.48253e+06
2.50592e+06
4.06311e+06
7.063e+06
1.65567e+07
2.25689e+07
2.34952e+07
2.06602e+07
1.70986e+07
1.40527e+07
1.1589e+07
9.7837e+06
8.37209e+06
7.32435e+06
6.4589e+06
5.76229e+06
5.14246e+06
4.60715e+06
4.11875e+06
3.69116e+06
3.30869e+06
2.97933e+06
2.69267e+06
2.44802e+06
2.23428e+06
2.04571e+06
1.8734e+06
1.71344e+06
1.56265e+06
1.42063e+06
1.28733e+06
1.16382e+06
1.05049e+06
948073
856272
775092
703507
641434
587431
541755
503124
472778
449309
433779
421669
412063
399645
383644
7116.76
16780.9
23398.7
29377.4
34898.9
39400.6
42733.1
44972.6
46323.6
47088.6
47523.1
47834
48134.5
48506.6
48972.8
49561.9
50260.1
51092.2
52015
53053.3
54135.4
55296.1
56429.5
57619.7
58709.8
59867.5
60867.4
62004.6
62923.8
64137.7
65041.3
66506.8
67482.5
69455.8
70610.1
73476.3
74980.3
79316.4
81242.8
88005
90403.2
101314
104279
122868
127107
162110
171846
247909
289850
488277
673799
1.29094e+06
2.36275e+06
3.7552e+06
6.04759e+06
1.32107e+07
1.85637e+07
2.05687e+07
1.88048e+07
1.60041e+07
1.33451e+07
1.11245e+07
9.44864e+06
8.12826e+06
7.13612e+06
6.31405e+06
5.6472e+06
5.05173e+06
4.5344e+06
4.06086e+06
3.64463e+06
3.27141e+06
2.94902e+06
2.66757e+06
2.42621e+06
2.21423e+06
2.02602e+06
1.85321e+06
1.69224e+06
1.54039e+06
1.3975e+06
1.26372e+06
1.14012e+06
1.02712e+06
925306
834346
754117
683557
622464
569410
524543
486635
456774
433601
417933
405431
395135
382138
366082
6574.95
15303.1
21221.2
26636.7
31747.1
36047.8
39384.9
41765
43310.8
44256.4
44823.8
45210.1
45537.4
45898.6
46330.3
46869.2
47510.8
48278.3
49133.9
50091.8
51085.7
52134.6
53147
54183.5
55116.7
56076.9
56887.6
57780.2
58481.5
59390.6
60044.3
61116
61806.7
63250.7
64075.9
66196.7
67307.2
70550.8
72030.5
77114.9
79049
87257.3
89836.5
103826
107948
134446
144658
203861
247596
414343
599054
1.16293e+06
2.26367e+06
3.53466e+06
5.36386e+06
1.08373e+07
1.53844e+07
1.79417e+07
1.7023e+07
1.49126e+07
1.26347e+07
1.066e+07
9.11843e+06
7.89193e+06
6.9569e+06
6.17868e+06
5.54149e+06
4.97002e+06
4.47012e+06
4.01083e+06
3.60529e+06
3.24066e+06
2.92454e+06
2.64762e+06
2.40888e+06
2.19802e+06
2.0096e+06
1.83581e+06
1.67346e+06
1.52027e+06
1.37631e+06
1.24191e+06
1.11812e+06
1.00535e+06
904088
813907
734572
664975
604807
552641
508532
471285
441859
418919
403082
390172
379243
365747
349723
6112.49
14062.6
19422.8
24382.4
29134.6
33228.9
36521.7
38977.8
40662.9
41755.6
42445.4
42915.6
43290.4
43669.2
44099
44622.3
45242.7
45981.7
46805.3
47719.4
48660.7
49636.5
50565.7
51492.1
52310
53123.9
53792.6
54503.1
55040.6
55724.4
56192.1
56977.1
57457.7
58522.4
59108.3
60702
61529.1
64010.3
65169.8
69099.4
70699.9
77074.7
79368.4
90281.4
94286.6
115176
125644
173973
218738
365069
547770
1.07458e+06
2.19429e+06
3.37281e+06
4.88301e+06
9.13626e+06
1.29014e+07
1.56386e+07
1.53471e+07
1.38387e+07
1.19245e+07
1.01932e+07
8.78891e+06
7.65835e+06
6.78205e+06
6.04838e+06
5.44115e+06
4.89364e+06
4.41097e+06
3.96564e+06
3.57044e+06
3.214e+06
2.9037e+06
2.63083e+06
2.39422e+06
2.18402e+06
1.99498e+06
1.81989e+06
1.65592e+06
1.50124e+06
1.35612e+06
1.22104e+06
1.09705e+06
984500
883774
794360
715908
647252
587989
536683
493309
456688
427668
404922
388905
375596
364106
350209
334307
5704.92
12989.3
17895.6
22481.9
26923.6
30818.8
34040.4
36529
38311
39521.4
40320.4
40875.5
41309.3
41723.9
42173.7
42705.7
43329.2
44065
44881
45776.4
46689.6
47618.8
48490.5
49336.9
50068.4
50771.2
51330.5
51901.7
52312.7
52825.4
53150.3
53720.3
54041.2
54825.3
55231.4
56440.6
57056.4
58988.1
59909.6
63018
64368.9
69458.2
71531.9
80322.3
84217.8
101300
111908
153048
198470
331265
511816
1.01215e+06
2.14546e+06
3.25195e+06
4.53292e+06
7.89786e+06
1.09782e+07
1.3658e+07
1.38019e+07
1.27978e+07
1.12207e+07
9.72494e+06
8.45854e+06
7.42499e+06
6.60875e+06
5.92034e+06
5.34353e+06
4.82011e+06
4.35467e+06
3.92321e+06
3.53818e+06
3.18972e+06
2.88495e+06
2.6158e+06
2.38096e+06
2.17109e+06
1.98115e+06
1.80454e+06
1.63882e+06
1.48259e+06
1.3363e+06
1.20056e+06
1.07639e+06
964100
863944
775320
697766
630057
571703
521249
478603
442593
413967
391395
375201
361522
349557
335367
319675
5337.84
12040.2
16570
20846.8
25019.3
28728.2
31864.9
34356.7
36203.5
37506.7
38400.9
39038
39536.1
39998
40482.5
41039.9
41684
42434.4
43260
44154.4
45056.6
45957.8
46790.3
47577.8
48243.3
48860.2
49333.5
49795.7
50106.7
50486.1
50698.7
51103.4
51299.7
51870.8
52137.9
53058.9
53512.5
55036.9
55775.9
58282.9
59440.9
63602.2
65501.9
72785.8
76584.6
91013.1
101713
137998
183934
307575
486278
967315
2.11117e+06
3.16065e+06
4.27093e+06
6.97989e+06
9.49102e+06
1.19798e+07
1.24032e+07
1.1804e+07
1.05304e+07
9.25772e+06
8.12745e+06
7.19077e+06
6.43544e+06
5.79283e+06
5.24687e+06
4.74774e+06
4.29964e+06
3.88207e+06
3.50716e+06
3.16657e+06
2.86716e+06
2.60151e+06
2.36819e+06
2.1584e+06
1.96737e+06
1.78913e+06
1.62161e+06
1.46384e+06
1.31642e+06
1.18009e+06
1.05582e+06
943855
844328
756539
679919
613180
555750
506157
464244
428842
400607
378204
361853
347851
335502
321131
305734
5002.48
11187.8
15399.6
19416.4
23354.5
26892.3
29938.1
32413.5
34301
35676.1
36652
37365.8
37929.8
38445.5
38974.5
39569.2
40246.2
41023.9
41871.5
42777.4
43680.7
44567.2
45373.5
46117.5
46732.1
47281.3
47685.9
48061.1
48291.5
48565.1
48687.5
48962.2
49059.1
49464.8
49621.8
50321.7
50647.7
51862.6
52457.7
54513.1
55518
58991.8
60751.4
66939.7
70658.2
83196.1
93977.4
126936
173363
290754
468053
934821
2.08726e+06
3.09115e+06
4.07054e+06
6.28674e+06
8.33703e+06
1.05729e+07
1.11556e+07
1.08686e+07
9.86106e+06
8.79508e+06
7.79682e+06
6.95562e+06
6.26147e+06
5.66485e+06
5.15008e+06
4.67541e+06
4.2448e+06
3.8412e+06
3.47643e+06
3.14366e+06
2.84951e+06
2.5872e+06
2.35523e+06
2.14537e+06
1.95314e+06
1.77322e+06
1.60392e+06
1.44467e+06
1.29622e+06
1.1594e+06
1.03514e+06
923583
824761
737867
662226
596490
540010
491294
450128
415339
387503
365275
348794
334529
321895
307457
292431
4693.29
10413.6
14352.3
18147.6
21880.7
25262.5
28216.2
30662.4
32572.2
34002
35047.1
35831.2
36460.3
37033.3
37613
38253
38971.7
39785.9
40664.2
41590.6
42503.6
43384.9
44174.7
44886.5
45461.3
45956.6
46305.2
46610
46774.5
46962.5
47011.2
47181.8
47198
47472.8
47540.8
48067.4
48290.8
49265.5
49744.7
51453.1
52333.6
55286.6
56932
62307.1
65962.7
77130.2
88003
118669
165623
278757
455108
911197
2.07084e+06
3.03803e+06
3.91457e+06
5.75397e+06
7.43533e+06
9.40146e+06
1.00564e+07
9.99971e+06
9.21922e+06
8.34091e+06
7.46846e+06
6.72011e+06
6.08673e+06
5.53592e+06
5.05251e+06
4.60239e+06
4.18941e+06
3.79986e+06
3.44529e+06
3.12036e+06
2.83139e+06
2.57234e+06
2.34159e+06
2.13157e+06
1.9381e+06
1.75651e+06
1.58551e+06
1.42487e+06
1.27552e+06
1.13835e+06
1.01421e+06
903178
805149
719217
644608
579914
524415
476596
436196
402032
374607
352569
335999
321540
308721
294327
279739
4406.59
9705.07
13405.5
17009.3
20561.8
23802
26665.2
29073.8
30992.4
32462.7
33565.8
34413.4
35105
35736.5
36370.8
37061.5
37827.9
38685.1
39600.3
40553.6
41482.5
42365.5
43145.7
43833.7
44377.2
44829
45131.7
45378.7
45488.4
45606.3
45593.9
45679.9
45629.4
45798.8
45793.6
46182.1
46321.4
47106.1
47489.9
48926.4
49703.8
52254.5
53806.3
58567.6
62177.7
72339.7
83324.3
112418
159958
270246
446061
894073
2.05977e+06
2.99738e+06
3.79144e+06
5.33771e+06
6.7244e+06
8.42952e+06
9.09712e+06
9.20179e+06
8.61032e+06
7.899e+06
7.14446e+06
6.48518e+06
5.9115e+06
5.40592e+06
4.95382e+06
4.52825e+06
4.13299e+06
3.75757e+06
3.41327e+06
3.09618e+06
2.81239e+06
2.55652e+06
2.32694e+06
2.1167e+06
1.92199e+06
1.73881e+06
1.5662e+06
1.40434e+06
1.25425e+06
1.11688e+06
992992
882594
785449
700551
627030
563419
508932
462036
422421
388899
361902
340078
323464
308886
295983
281735
267644
4139.85
9053.11
12542.6
15978.6
19370.7
22482.2
25258.1
27624.1
29541.2
31040.5
32191.6
33095.9
33846.8
34536.4
35227.2
35971.9
36790.2
37694.7
38651.2
39635.7
40585
41474.7
42250.4
42921
43439.8
43856
44120.6
44319.6
44383.4
44443.1
44379.5
44395.8
44289.5
44372.8
44306.4
44583.1
44652.4
45284.2
45588.1
46807.8
47498.4
49733.1
51207.7
55499.8
59081.1
68500.5
79621.6
107659
155852
264313
439945
881782
2.0525e+06
2.96631e+06
3.69309e+06
5.00761e+06
6.1582e+06
7.62384e+06
8.26598e+06
8.47632e+06
8.03841e+06
7.47278e+06
6.82706e+06
6.25204e+06
5.73629e+06
5.27501e+06
4.85394e+06
4.45278e+06
4.07526e+06
3.714e+06
3.38003e+06
3.0708e+06
2.79218e+06
2.53946e+06
2.31102e+06
2.10057e+06
1.90467e+06
1.71999e+06
1.54594e+06
1.38302e+06
1.23236e+06
1.09495e+06
971467
861822
765656
681865
609488
547001
493559
447609
408800
375938
349389
327806
311201
296584
283692
269687
256138
3891.22
8451.1
11751.3
15038.1
18286.6
21280.9
23973.6
26294.2
28202.2
29721.1
30911.4
31865.8
32672.1
33418.6
34166.3
34967
35839.7
36794.5
37795
38813.7
39786.2
40686.2
41461.3
42119.4
42618.4
43005.5
43238.1
43397
43421.8
43432.8
43325.7
43283.9
43130.4
43142.5
43024.5
43209.4
43219.3
43726.4
43962.2
45006.2
45622.5
47605.6
49016.6
52947
56514.9
65386.1
76669.5
104029
152938
260326
436058
873115
2.04785e+06
2.94261e+06
3.61376e+06
4.74233e+06
5.70261e+06
6.9552e+06
7.54946e+06
7.82223e+06
7.50626e+06
7.06513e+06
6.51832e+06
6.02194e+06
5.5618e+06
5.14347e+06
4.75293e+06
4.3759e+06
4.01606e+06
3.66896e+06
3.34534e+06
3.044e+06
2.77055e+06
2.52096e+06
2.29366e+06
2.08303e+06
1.88604e+06
1.7e+06
1.52468e+06
1.3609e+06
1.20986e+06
1.07258e+06
949656
840883
745791
663178
591998
530675
478307
433328
395346
363161
337082
315774
299233
284657
271868
258189
245217
3659.27
7893.92
11022.4
14174.6
17293.4
20180.7
22794.5
25068.3
26961.5
28492.3
29714.2
30712.7
31570.1
32371.4
33175.7
34033.2
34961.6
35968.3
37014.5
38069.3
39066.9
39979.6
40756.9
41406.2
41889.4
42252.4
42458
42583
42574.5
42544.3
42400.2
42309.5
42115.7
42068.3
41906.1
42014.6
41973.8
42377.6
42554.4
43454.2
44006
45786.4
47145.2
50795.4
54364.3
62834.1
74304.9
101270
150949
257826
433885
867178
2.04491e+06
2.92461e+06
3.54924e+06
4.52661e+06
5.33226e+06
6.39877e+06
6.93363e+06
7.23652e+06
7.01496e+06
6.67825e+06
6.22003e+06
5.79613e+06
5.38876e+06
5.01173e+06
4.65099e+06
4.29765e+06
3.95535e+06
3.62234e+06
3.30909e+06
3.01563e+06
2.74734e+06
2.5009e+06
2.27476e+06
2.06402e+06
1.86606e+06
1.67883e+06
1.50244e+06
1.338e+06
1.18679e+06
1.04983e+06
927598
819816
725889
644522
574590
514467
463203
419215
382079
350591
325005
304006
287586
273129
260527
247245
234876
3442.83
7377.49
10348.4
13377.6
16378.2
19167.4
21706.7
23933.4
25807.6
27344
28591
29627.8
30532.3
31385.8
32245.5
33159.6
34144.2
35203.5
36296.3
37388
38411.9
39339
40120.4
40763.6
41234.2
41577.2
41759.8
41856
41819
41753.8
41577.7
41445.7
41217.1
41119.5
40919.1
40963.5
40878.5
41195.8
41320.9
42100.7
42595.9
44211.2
45527.9
48961.1
52544.3
60725.9
72407.4
99195.1
149689
256479
433033
863291
2.04299e+06
2.91096e+06
3.49636e+06
4.34931e+06
5.02826e+06
5.93397e+06
6.40512e+06
6.71485e+06
6.56444e+06
6.31368e+06
5.93367e+06
5.57577e+06
5.21796e+06
4.88026e+06
4.54836e+06
4.21816e+06
3.89315e+06
3.57411e+06
3.27119e+06
2.9856e+06
2.72249e+06
2.47918e+06
2.25425e+06
2.0435e+06
1.84472e+06
1.65649e+06
1.47925e+06
1.31438e+06
1.16321e+06
1.02673e+06
905350
798675
706000
625944
557305
498416
448278
405302
369027
338253
313184
292530
276288
262025
249684
236860
225106
3240.89
6898.46
9723.64
12639.1
15531.1
18229.8
20698.6
22878.6
24730.8
26267.8
27534
28603.9
29551.4
30454.3
31367.7
32337.7
33378.2
34490.2
35629.4
36758.4
37809
38751.4
39538.4
40177.7
40638
40964.2
41127.2
41198.8
41137.2
41042
40838.3
40671
40412.3
40272
40038.3
40028.3
39904.6
40148.5
40227.7
40906.3
41351.4
42831.4
44114.6
47380.6
50990.6
58972.8
70886.4
97662.9
149005
256027
433199
860932
2.04154e+06
2.90063e+06
3.45269e+06
4.20219e+06
4.77643e+06
5.54394e+06
5.95159e+06
6.25212e+06
6.15368e+06
5.97233e+06
5.66043e+06
5.36189e+06
5.05011e+06
4.74954e+06
4.44536e+06
4.13759e+06
3.82956e+06
3.52429e+06
3.23163e+06
2.95388e+06
2.69593e+06
2.45579e+06
2.23214e+06
2.02148e+06
1.82205e+06
1.63303e+06
1.45518e+06
1.29011e+06
1.13917e+06
1.00336e+06
882978
777520
686179
607492
540188
482561
433571
391621
356223
326179
301647
281375
265366
251365
239352
227031
215898
3052.56
6453.93
9143.31
11952.4
14743.7
17358.6
19760.9
21894.8
23722.7
25256.1
26536.7
27634.9
28621.4
29570.8
30535.9
31560.5
32655.9
33819.9
35005.2
36171.1
37248.3
38206.5
38999.9
39636.9
40088.9
40401
40547.1
40597.7
40514.7
40393.8
40166.1
39968.6
39683.6
39506.7
39243.8
39187.1
39028.9
39210
39247.8
39840.4
40240.6
41609.2
42866.8
46005.7
49653.9
57507.7
69672
96567.4
148782
256275
434144
859691
2.04013e+06
2.89277e+06
3.41637e+06
4.07903e+06
4.56602e+06
5.21503e+06
5.56203e+06
5.84286e+06
5.78095e+06
5.6545e+06
5.40113e+06
5.15536e+06
4.88589e+06
4.62006e+06
4.34231e+06
4.05617e+06
3.7647e+06
3.47295e+06
3.19045e+06
2.92046e+06
2.66767e+06
2.43072e+06
2.20841e+06
1.99799e+06
1.79809e+06
1.60851e+06
1.43029e+06
1.26525e+06
1.11477e+06
979806
860552
756417
666486
589221
523288
466947
419121
378210
343699
314397
290425
270567
254844
241167
229535
217753
207237
2876.99
6041.39
8603.46
11312.2
14009.5
16546.2
18885.4
20974.2
22776.3
24302.8
25593.4
26715.7
27737.3
28730.2
29744.7
30822.1
31971.2
33186.1
34416.4
35618.5
36721.9
37695.8
38496.1
39132
39577.3
39877.5
40009.1
40041.5
39940
39796.9
39548.3
39324.7
39016.7
38808.3
38519.4
38422.5
38233.3
38360
38360
38878.7
39238.5
40515
41754.1
44798.8
48495.9
56278.7
68710
95825.9
148926
257068
435677
859242
2.03842e+06
2.88668e+06
3.38592e+06
3.97507e+06
4.38878e+06
4.93621e+06
5.22683e+06
5.48155e+06
5.44401e+06
5.36002e+06
5.15627e+06
4.95686e+06
4.72591e+06
4.49229e+06
4.23955e+06
3.97411e+06
3.69871e+06
3.42019e+06
3.14768e+06
2.88538e+06
2.63773e+06
2.40398e+06
2.18312e+06
1.97307e+06
1.77293e+06
1.58302e+06
1.40468e+06
1.2399e+06
1.09008e+06
956133
838144
735430
646979
571185
506653
451617
404966
365102
331486
302937
279543
260133
244743
231443
220236
209014
199104
2713.42
5658.58
8100.73
10714.1
13322.8
15786.2
18065.6
20110.4
21885.5
23402.2
24699.2
25841.6
26894.9
27928.1
28989.5
30117.9
31318.9
32583.2
33857.1
35094.3
36223.1
37212.6
38019.9
38655.5
39095.3
39385.3
39504.3
39521.1
39403.4
39241.3
38974.3
38728.3
38400
38164.2
37852.2
37720.1
37502.9
37581.9
37547.2
38001.6
38324.9
39525.3
40752.7
43730.5
47486.4
55245.2
67957.2
95373.2
149363
258280
437643
859322
2.03614e+06
2.88181e+06
3.36016e+06
3.88666e+06
4.23835e+06
4.69859e+06
4.93769e+06
5.16288e+06
5.14033e+06
5.0883e+06
4.92608e+06
4.76691e+06
4.57067e+06
4.36666e+06
4.1374e+06
3.89167e+06
3.63176e+06
3.36611e+06
3.10342e+06
2.84869e+06
2.60614e+06
2.37564e+06
2.15631e+06
1.9468e+06
1.74662e+06
1.55664e+06
1.37843e+06
1.21415e+06
1.0652e+06
932423
815827
714626
627718
553434
490329
436612
391144
352330
319614
291826
269026
250091
235078
222200
211450
200801
191480
2561.09
5303.41
7632.21
10154.2
12679.1
15073.3
17295.9
19297.6
21045
22549.6
23849.7
25008.8
26090.3
27160.9
28266.7
29443.7
30694.6
32006.5
33322.5
34593.3
35746.4
36750.9
37565.3
38201.1
38636.3
38917.6
39025.7
39029
38897.3
38718.6
38435.6
38170.1
37823.8
37564.3
37231.4
37068.4
36825.4
36862.4
36795.2
37193.5
37483.5
38621.5
39843.5
42777.4
46601.2
54375
67378.9
95157.2
150033
259810
439913
859721
2.03309e+06
2.87769e+06
3.33814e+06
3.81088e+06
4.10975e+06
4.49502e+06
4.68757e+06
4.88188e+06
4.86721e+06
4.83847e+06
4.7105e+06
4.58585e+06
4.42057e+06
4.24355e+06
4.03617e+06
3.80907e+06
3.56403e+06
3.31084e+06
3.05774e+06
2.81046e+06
2.57298e+06
2.34574e+06
2.12806e+06
1.91926e+06
1.71927e+06
1.52946e+06
1.35163e+06
1.18808e+06
1.04019e+06
908755
793670
694065
608757
536019
474360
421971
377688
339926
308110
281088
258894
240460
225858
213437
203169
193094
184342
2419.3
4973.97
7195.33
9629.42
12074.4
14403.1
16571.4
18531.1
20250.1
21740.8
23041.3
24213.9
25320.3
26425.4
27572.9
28796.2
30094.9
31452.4
32808.4
34111.2
35287.4
36306.2
37127.3
37763.6
38194.9
38468.8
38567.4
38559.1
38415
38222
37925
37642.5
37280.3
36999.9
36648.1
36457.8
36190.8
36190.2
36092.6
36441.4
36701.2
37788.3
39011
41920.7
45821
53642
66946.8
95135
150884
261574
442381
860263
2.02909e+06
2.87393e+06
3.31908e+06
3.74545e+06
3.99906e+06
4.31969e+06
4.4705e+06
4.63399e+06
4.62192e+06
4.6094e+06
4.5093e+06
4.41389e+06
4.27593e+06
4.12328e+06
3.93614e+06
3.72654e+06
3.4957e+06
3.25452e+06
3.01076e+06
2.77077e+06
2.53831e+06
2.31436e+06
2.09845e+06
1.89054e+06
1.69097e+06
1.50158e+06
1.32438e+06
1.16179e+06
1.01515e+06
885202
771739
673808
590149
518985
458785
407728
364630
327916
296996
270742
249164
231251
217091
205152
195378
185873
177663
2287.38
4668.48
6787.79
9137.03
11505.5
13771.6
15888
17806.6
19496.9
20972.1
22270.6
23453.7
24582.2
25718.8
26905.4
28172.4
29516.6
30917.4
32311.4
33644.5
34842.2
35874.4
36701.8
37338.8
37766.7
38034.1
38124.4
38106
37951.1
37745.8
37436.5
37139.3
36762.9
36464.1
36095.1
35880.3
35590.8
35556.4
35429.9
35734.7
35967.1
37013.5
38242.9
41145.5
45129.9
53025.3
66637.6
95271.7
151874
263503
444958
860807
2.02403e+06
2.87023e+06
3.30234e+06
3.68854e+06
3.90314e+06
4.16789e+06
4.28147e+06
4.41508e+06
4.40182e+06
4.39984e+06
4.32204e+06
4.25106e+06
4.13698e+06
4.00614e+06
3.83758e+06
3.64431e+06
3.42695e+06
3.1973e+06
2.96259e+06
2.72972e+06
2.50223e+06
2.2816e+06
2.06756e+06
1.86072e+06
1.66181e+06
1.47309e+06
1.29678e+06
1.13536e+06
990157
861833
750094
653906
571939
502372
443641
393916
351995
316322
286293
260804
239848
222471
208775
197336
188060
179112
171416
2164.67
4385.26
6407.52
8674.59
10969.6
13175.7
15242
17120.4
18781.9
20240.2
21534.5
22725.7
23873.5
25038.9
26261.8
27570.1
28957.1
30398.8
31828.6
33189.9
34407.7
35452.2
36285.4
36923
37347.9
37609.7
37692.6
37665.5
37501.2
37285.2
36965.1
36655.1
36266
35950.9
35566
35329.1
35018.4
34953.2
34799.1
35064.6
35272.4
36287
37528.8
40439.3
44515.1
52507.5
66431.7
95537.7
152967
265537
447569
861233
2.0178e+06
2.8663e+06
3.2874e+06
3.63864e+06
3.81948e+06
4.03579e+06
4.11624e+06
4.22149e+06
4.20437e+06
4.20844e+06
4.14817e+06
4.09729e+06
4.00384e+06
3.89234e+06
3.74069e+06
3.56258e+06
3.35794e+06
3.1393e+06
2.91334e+06
2.68741e+06
2.46482e+06
2.24753e+06
2.03549e+06
1.82991e+06
1.63189e+06
1.4441e+06
1.26891e+06
1.10887e+06
965278
838712
728791
634408
554168
486216
428957
380558
339806
305163
276016
251286
230954
214123
200906
189976
181196
172786
165576
2050.56
4122.75
6052.61
8239.97
10464
12612.4
14630.4
16469.5
18101.8
19542.3
20830.5
22027.4
23191.8
24383.4
25640
26986.8
28414.2
29894.3
31357.5
32745
33981.2
35036.8
35875.1
36513.2
36935.4
37192.1
37268.6
37233.9
37061.5
36836.3
36506.6
36185.5
35784.9
35455.3
35055.6
34798.7
34467.7
34374
34193.4
34423.7
34609.5
35600.6
36860.6
39792
43965.7
52074.1
66312.5
95908
154132
267626
450150
861445
2.01033e+06
2.86194e+06
3.27381e+06
3.59453e+06
3.74601e+06
3.92022e+06
3.97126e+06
4.04998e+06
4.0272e+06
4.03385e+06
3.98703e+06
3.95241e+06
3.87657e+06
3.78204e+06
3.64568e+06
3.48155e+06
3.28885e+06
3.08068e+06
2.86314e+06
2.64395e+06
2.42618e+06
2.21226e+06
2.00234e+06
1.79821e+06
1.60132e+06
1.4147e+06
1.24085e+06
1.08241e+06
940581
815896
707878
615354
536872
470546
414757
367676
328081
294452
266174
242195
222485
206206
193477
183056
174763
166868
160113
1944.48
3879.47
5721.33
7831.27
9986.61
12079.2
14050.3
15850.9
17454
18875.7
20156.2
21356.6
22535.3
23750.5
25038.2