/*--------------------------------*- C++ -*----------------------------------*\
| =========                 |                                                 |
| \\      /  F ield         | OpenFOAM: The Open Source CFD Toolbox           |
|  \\    /   O peration     | Version:  2412                                  |
|   \\  /    A nd           | Website:  www.openfoam.com                      |
|    \\/     M anipulation  |                                                 |
\*---------------------------------------------------------------------------*/
FoamFile
{
    version     2.0;
    format      ascii;
    arch        "LSB;label=32;scalar=64";
    class       volScalarField;
    location    "0.8";
    object      nut;
}
// * * * * * * * * * * * * * * * * * * * * * * * * * * * * * * * * * * * * * //

dimensions      [0 2 -1 0 0 0 0];

internalField   nonuniform List<scalar> 
13156
(
0.00128471
0.00129761
0.0011569
0.00105508
0.000996371
0.000958691
0.000931835
0.000911345
0.000895222
0.000881802
0.000869804
0.000858061
0.00084605
0.000833391
0.000820243
0.00080652
0.000792724
0.00077877
0.000765196
0.000751724
0.000739005
0.000726396
0.000714828
0.000703212
0.000692799
0.000682019
0.00067277
0.000662668
0.000654677
0.000645156
0.000638537
0.000629411
0.000624111
0.00061543
0.000611752
0.00060327
0.000601556
0.000592895
0.000593507
0.000584194
0.00058775
0.000577131
0.000584353
0.000571454
0.00058304
0.000566006
0.000582061
0.00055858
0.000580777
0.000550932
0.000588839
0.000554192
0.000677403
0.000726645
0.000622497
0.000572991
0.000554699
0.000544994
0.000541397
0.000538382
0.000538077
0.000537053
0.000538659
0.000539448
0.000543284
0.000545988
0.000550952
0.00055398
0.000558061
0.000560055
0.000562592
0.000563745
0.000565568
0.000566854
0.000569057
0.000571236
0.00057422
0.000577199
0.000580389
0.000583307
0.000585949
0.000588229
0.00058996
0.000591458
0.000592344
0.000593299
0.000593706
0.000594617
0.000594951
0.000596533
0.000597478
0.000600817
0.000603369
0.000610428
0.000616122
0.00062921
0.000637526
0.000655382
0.000663036
0.0038686
0.00387119
0.00266167
0.00203341
0.00172025
0.00155817
0.0014948
0.00149779
0.00153653
0.00158173
0.00162042
0.00164668
0.00166313
0.00167099
0.00167383
0.0016719
0.00166679
0.00165688
0.00164439
0.001627
0.0016077
0.00158411
0.00155986
0.00153147
0.00150479
0.00147396
0.00144671
0.00141528
0.00138898
0.00135791
0.0013342
0.00130384
0.00128288
0.00125657
0.00123844
0.00121634
0.00119983
0.00118264
0.00116678
0.00115555
0.0011381
0.00113477
0.00111305
0.00112073
0.0010919
0.00111564
0.00107771
0.00111915
0.00106699
0.00112064
0.00105066
0.00110741
0.000832752
0.00129005
0.00200449
0.00212269
0.00231959
0.00223605
0.00240822
0.00230095
0.00244304
0.00236023
0.00250491
0.00247549
0.00263334
0.00264866
0.00279738
0.0028251
0.00294035
0.00296028
0.00304061
0.00305485
0.00311241
0.00312833
0.00317255
0.00318933
0.0032151
0.00321793
0.00321411
0.00319092
0.0031584
0.00311281
0.00306108
0.00300492
0.00294743
0.00289333
0.00284155
0.00279822
0.00275928
0.00273424
0.00271394
0.00271572
0.00272418
0.00277377
0.00282619
0.00293586
0.00299603
0.00313235
0.00309439
0.00159731
0.00247566
0.00214776
0.00197492
0.00202019
0.00224489
0.00254516
0.00279878
0.00295917
0.00301731
0.00300693
0.00294697
0.00286598
0.00277225
0.0026824
0.00259613
0.00252411
0.00245707
0.00240437
0.00235206
0.00231045
0.00226277
0.00222457
0.00217294
0.00213356
0.00207578
0.00203561
0.0019725
0.00193541
0.00186794
0.00183845
0.00176789
0.00174305
0.00167216
0.00165387
0.00158464
0.00157438
0.00150598
0.00150427
0.00143618
0.00144213
0.00137415
0.00138653
0.00132005
0.00133818
0.0012776
0.00130436
0.00125735
0.00129331
0.00126466
0.00129953
0.00135115
0.00117979
0.00113738
0.00242615
0.00302724
0.0036952
0.003758
0.00421115
0.0041173
0.00445968
0.00436722
0.00469703
0.00469671
0.00505334
0.00514106
0.00547921
0.00558436
0.00584808
0.00592575
0.00611069
0.00616706
0.00629921
0.00634968
0.00644471
0.00648372
0.00652563
0.00651753
0.00648674
0.00641424
0.00631918
0.00619869
0.0060655
0.00592587
0.00578469
0.00565318
0.00552798
0.00542294
0.00532786
0.00526456
0.00521253
0.00521081
0.00522604
0.00533142
0.00544797
0.00568181
0.00581104
0.00608853
0.00602377
0.00192306
0.00189201
0.00239241
0.00299113
0.00375231
0.00461986
0.00542401
0.005992
0.00627775
0.00629385
0.00613174
0.00585382
0.00553045
0.00518792
0.00486211
0.00455591
0.00429131
0.00405368
0.00385971
0.00368509
0.00354497
0.00340946
0.00330034
0.00317936
0.00308222
0.00296233
0.00286969
0.00274699
0.00266105
0.00253628
0.00246226
0.00233882
0.00227744
0.00215639
0.00210615
0.00199166
0.00195614
0.00184735
0.00182676
0.00172251
0.00171541
0.00161405
0.0016188
0.00151978
0.00153633
0.00144235
0.00147786
0.00140017
0.00146992
0.00142224
0.00153839
0.00163611
0.00198497
0.00117956
0.0026104
0.00368786
0.00476785
0.00508618
0.00579417
0.00583212
0.00634418
0.00633573
0.00681707
0.00691424
0.00743802
0.00764587
0.00814682
0.00836189
0.00875294
0.00891054
0.00918408
0.00929671
0.00949084
0.00958126
0.00971438
0.00977031
0.00981492
0.00978562
0.00971659
0.00958691
0.00942299
0.00922477
0.00900959
0.00878815
0.00856678
0.00836181
0.00816842
0.00800598
0.00786031
0.00776213
0.00768423
0.00768203
0.00771347
0.00787803
0.00807286
0.00842809
0.00865157
0.00904534
0.0090002
0.00623028
0.00433351
0.00564467
0.00672183
0.00779451
0.00887413
0.00983274
0.0105089
0.0108411
0.0108097
0.0105071
0.0100123
0.00942727
0.00879952
0.0081877
0.00760301
0.00708203
0.00660741
0.00620629
0.00584403
0.00554388
0.00526016
0.00502509
0.00477955
0.0045757
0.0043429
0.00415404
0.00392444
0.00375077
0.00352423
0.00337173
0.00315349
0.00302718
0.00281916
0.00271501
0.00252217
0.00244457
0.00226678
0.00221544
0.00205164
0.00202374
0.00187152
0.00186379
0.00172101
0.00173269
0.00159994
0.00164206
0.00153257
0.00164478
0.00158102
0.00183487
0.00199643
0.00340643
0.00160135
0.00273637
0.00416388
0.00561317
0.00620508
0.00714921
0.00736059
0.00803425
0.00814963
0.00877358
0.00899699
0.00967551
0.0100201
0.0106693
0.0110025
0.0115074
0.0117492
0.0121005
0.0122707
0.0125171
0.0126445
0.0128048
0.0128692
0.0129055
0.0128467
0.0127317
0.0125409
0.0123064
0.0120318
0.0117383
0.0114403
0.0111456
0.0108741
0.0106205
0.0104073
0.0102188
0.0100907
0.00999409
0.0099947
0.01005
0.0102753
0.0105559
0.0110268
0.0113496
0.0118449
0.0118385
0.0159578
0.0113036
0.0122814
0.012771
0.0134654
0.0143044
0.0151166
0.0157116
0.0159941
0.0158952
0.0154774
0.01481
0.0140067
0.0131302
0.012258
0.0114119
0.0106421
0.00993147
0.00931618
0.00875356
0.008274
0.00781756
0.00742739
0.00702406
0.00667858
0.00629506
0.00597358
0.00559791
0.00530168
0.00493408
0.00467136
0.00431885
0.0040992
0.00376554
0.00358463
0.00327496
0.00313748
0.00285252
0.00275866
0.00249828
0.00244439
0.00220662
0.00218806
0.00197018
0.00198572
0.00178619
0.00185329
0.00168639
0.00188673
0.00178516
0.00229654
0.00256858
0.00552511
0.00267323
0.00300094
0.00453869
0.00630365
0.00715864
0.0083166
0.00871022
0.00953813
0.00979352
0.0105558
0.010918
0.011744
0.0122305
0.0130173
0.0134688
0.014077
0.0144012
0.0148217
0.0150465
0.015337
0.0154959
0.0156737
0.0157384
0.0157572
0.0156623
0.0154962
0.0152423
0.0149374
0.0145891
0.0142217
0.0138528
0.0134918
0.0131605
0.0128541
0.0125965
0.012372
0.012219
0.0121096
0.0121162
0.0122011
0.0124882
0.0128587
0.0134401
0.0138633
0.0144488
0.0144875
0.0292686
0.0214412
0.0210035
0.0202659
0.0201697
0.0204795
0.0209447
0.0213165
0.0214561
0.021245
0.0207072
0.0198897
0.0189038
0.0178192
0.0167261
0.0156558
0.0146693
0.0137512
0.0129436
0.0121976
0.0115472
0.0109213
0.0103706
0.00980046
0.00929754
0.00874647
0.0082713
0.00772937
0.00728805
0.0067581
0.00636307
0.00585399
0.00551942
0.00503623
0.00475971
0.00430662
0.00409297
0.00367058
0.00352212
0.00313114
0.00304545
0.00268514
0.00265854
0.00232709
0.00236112
0.00205555
0.00218213
0.00191834
0.00229279
0.00212195
0.00307068
0.00354287
0.00829593
0.0045217
0.00361075
0.00490167
0.00690106
0.00799304
0.00934043
0.00990976
0.010882
0.0112814
0.0121773
0.0126828
0.0136501
0.0142783
0.0151937
0.0157597
0.0164621
0.0168646
0.0173466
0.0176215
0.0179486
0.0181327
0.0183196
0.0183771
0.0183707
0.0182346
0.0180137
0.017696
0.0173219
0.016903
0.0164665
0.0160322
0.0156112
0.0152264
0.0148738
0.0145775
0.0143229
0.0141493
0.0140321
0.0140476
0.0141661
0.0145163
0.0149788
0.0156667
0.0161899
0.0168577
0.0169445
0.0431726
0.0328719
0.0307243
0.0285729
0.027517
0.0271446
0.0271391
0.0271878
0.0271067
0.026732
0.0260504
0.0250832
0.0239315
0.0226657
0.0213828
0.0201213
0.0189499
0.017855
0.0168813
0.015975
0.0151701
0.014387
0.0136809
0.0129466
0.0122823
0.0115603
0.0109227
0.0102089
0.00961178
0.00891372
0.00837501
0.00770377
0.00724207
0.00660297
0.00621907
0.00561397
0.00531247
0.00474004
0.00452686
0.00398696
0.00386349
0.00335568
0.00332358
0.00284719
0.00291809
0.00246898
0.00270523
0.00230401
0.00298052
0.00271926
0.00430478
0.00507726
0.0115584
0.00701457
0.00472724
0.00534219
0.00746244
0.00874834
0.010259
0.0109898
0.0120942
0.0126345
0.0136585
0.0143066
0.0154091
0.0161756
0.0172112
0.0178862
0.0186744
0.0191498
0.0196863
0.020006
0.0203628
0.0205658
0.0207541
0.0207978
0.02076
0.0205785
0.0203006
0.0199191
0.0194776
0.0189914
0.0184903
0.0179958
0.0175207
0.017088
0.0166949
0.016365
0.0160853
0.0158949
0.0157737
0.0158009
0.0159562
0.0163705
0.0169263
0.0177179
0.0183403
0.0190852
0.0192227
0.0565589
0.0445795
0.0408145
0.0372932
0.0352436
0.0341307
0.033586
0.0332448
0.0328826
0.0322965
0.0314407
0.0303115
0.0289969
0.0275638
0.0261115
0.0246831
0.0233519
0.0221051
0.0209875
0.0199405
0.018996
0.0180678
0.0172127
0.0163199
0.015495
0.0146046
0.0138024
0.0129184
0.0121623
0.0112987
0.0106126
0.00978316
0.00918961
0.00839949
0.00790307
0.00715072
0.00675497
0.00603597
0.00575125
0.00506253
0.00489613
0.00423564
0.00419976
0.00356674
0.00369383
0.00308225
0.00348851
0.00293056
0.00405901
0.00372152
0.00608158
0.00721275
0.0151172
0.00993587
0.00639639
0.00594287
0.0080415
0.00945963
0.0111046
0.0119777
0.0132005
0.0138745
0.0150198
0.015807
0.0170381
0.0179376
0.0190851
0.0198625
0.0207287
0.0212711
0.0218556
0.0222144
0.0225945
0.0228102
0.0229931
0.0230169
0.0229426
0.0227125
0.022376
0.0219312
0.0214244
0.0208745
0.020313
0.0197634
0.0192392
0.0187639
0.0183353
0.0179763
0.0176756
0.0174719
0.01735
0.0173912
0.0175858
0.0180654
0.0187153
0.019609
0.0203297
0.0211489
0.0213394
0.0690472
0.0560807
0.0509292
0.0461789
0.0431777
0.0413191
0.0402042
0.0394317
0.0387439
0.0379058
0.036845
0.0355358
0.0340528
0.0324571
0.0308475
0.0292686
0.0277956
0.0264153
0.0251702
0.0239971
0.0229236
0.021859
0.0208601
0.0198138
0.0188304
0.0177751
0.0168095
0.0157597
0.0148454
0.0138222
0.0129894
0.0120096
0.0112843
0.0103527
0.00974341
0.00885471
0.00836263
0.00750959
0.00714994
0.00632531
0.00611261
0.00531169
0.00527359
0.00449509
0.00469676
0.00393325
0.00457046
0.00387802
0.00559121
0.00523408
0.00838428
0.00986699
0.0188048
0.0131057
0.00854463
0.00677221
0.00869053
0.0101591
0.0119044
0.0128973
0.0142237
0.0150214
0.0162802
0.0172006
0.0185533
0.0195794
0.0208306
0.0217033
0.0226399
0.023243
0.023869
0.0242616
0.0246589
0.0248813
0.0250526
0.0250513
0.024936
0.0246549
0.0242589
0.0237518
0.0231819
0.0225716
0.021954
0.0213538
0.0207854
0.020272
0.0198124
0.0194283
0.0191103
0.0188964
0.0187764
0.0188338
0.0190697
0.0196158
0.0203605
0.0213555
0.0221743
0.0230663
0.0233121
0.0805959
0.0671677
0.0608824
0.0550748
0.0512013
0.0486235
0.0469332
0.0457064
0.0446615
0.0435387
0.0422446
0.0407358
0.0390745
0.0373154
0.0355541
0.033835
0.0322325
0.0307316
0.0293703
0.0280805
0.0268847
0.0256891
0.0245494
0.0233528
0.0222128
0.0209966
0.0198697
0.0186593
0.0175895
0.0164136
0.0154371
0.0143157
0.0134613
0.0123989
0.0116781
0.0106664
0.0100789
0.00910744
0.00867238
0.00773035
0.00747039
0.00655135
0.00651383
0.00561803
0.00591196
0.00503501
0.00595711
0.00519584
0.00757673
0.00727788
0.0111193
0.0128921
0.0225004
0.0163962
0.0110423
0.00787634
0.00945839
0.010877
0.0126827
0.0137692
0.0151832
0.0160927
0.0174565
0.0185029
0.0199698
0.0211149
0.0224616
0.0234221
0.0244218
0.0250793
0.0257405
0.0261615
0.0265701
0.0267937
0.0269479
0.0269167
0.0267568
0.0264227
0.025967
0.0253986
0.024768
0.0241007
0.0234309
0.0227842
0.022176
0.0216289
0.0211422
0.0207367
0.0204046
0.020183
0.0200675
0.020143
0.0204219
0.0210357
0.0218759
0.0229722
0.0238893
0.0248542
0.0251576
0.0912908
0.0777652
0.0705772
0.0638845
0.059233
0.0559804
0.0537261
0.052036
0.0506128
0.0491796
0.0476276
0.0459001
0.0440488
0.0421218
0.0402105
0.038357
0.0366329
0.0350196
0.0335491
0.0321481
0.0308334
0.029509
0.0282296
0.0268848
0.0255896
0.0242157
0.0229303
0.0215643
0.020343
0.0190211
0.0179051
0.0166505
0.015671
0.014488
0.0136585
0.0125366
0.0118565
0.0107818
0.010273
0.00923304
0.00892724
0.00791588
0.00788399
0.00690784
0.00731213
0.0063782
0.00762895
0.00689135
0.00996362
0.00979338
0.0141631
0.0161468
0.0261256
0.0197198
0.0137617
0.00927252
0.0103846
0.0116415
0.0134613
0.0146113
0.0160958
0.0171039
0.0185635
0.0197275
0.0213006
0.0225566
0.0239905
0.0250309
0.0260865
0.0267922
0.0274828
0.0279269
0.0283412
0.0285607
0.0286928
0.0286275
0.02842
0.0280314
0.0275159
0.0268876
0.0261988
0.0254776
0.0247594
0.0240703
0.0234263
0.0228492
0.0223392
0.0219155
0.0215721
0.0213455
0.0212362
0.0213317
0.0216551
0.0223381
0.0232747
0.024473
0.0254892
0.026528
0.0268914
0.101251
0.0878623
0.0799678
0.0725487
0.0672163
0.063343
0.0605467
0.0583938
0.0565794
0.0548159
0.0529852
0.0510214
0.0489679
0.046867
0.0448046
0.0428194
0.0409782
0.0392572
0.0376812
0.0361713
0.0347384
0.0332854
0.0318661
0.0303737
0.0289244
0.0273956
0.0259546
0.024438
0.0230691
0.0216078
0.020357
0.0189769
0.0178771
0.0165825
0.0156482
0.0144272
0.0136583
0.0124943
0.011915
0.010795
0.0104469
0.00936872
0.00935006
0.00833295
0.00886676
0.00793934
0.00955202
0.00893576
0.0126727
0.012677
0.0173964
0.0195129
0.029633
0.0230175
0.0166006
0.0109486
0.0114949
0.0124779
0.0142598
0.0154396
0.0169762
0.0180684
0.0196139
0.0208864
0.0225573
0.0239154
0.0254283
0.0265407
0.0276448
0.0283928
0.029107
0.029569
0.0299839
0.0301942
0.0302996
0.0301965
0.029939
0.0294948
0.0289197
0.0282331
0.0274885
0.0267166
0.0259534
0.0252256
0.0245496
0.0239463
0.0234162
0.0229773
0.0226253
0.0223957
0.0222946
0.0224116
0.0227809
0.0235344
0.0245685
0.0258704
0.026987
0.0281013
0.028527
0.110595
0.0974784
0.0890379
0.081033
0.0751132
0.0706766
0.0673666
0.0647584
0.0625458
0.0604373
0.0583108
0.0560948
0.0538275
0.0515456
0.0493296
0.0472131
0.0452566
0.04343
0.0417496
0.0401307
0.0385785
0.0369955
0.0354351
0.0337951
0.0321923
0.030511
0.0289173
0.0272546
0.0257425
0.0241478
0.0227671
0.0212686
0.0200534
0.0186554
0.0176207
0.0163103
0.0154569
0.0142155
0.0135697
0.0123859
0.0120005
0.0108792
0.0108836
0.00986388
0.0105474
0.00968907
0.011687
0.0112787
0.0156181
0.015816
0.0207195
0.0229004
0.0329964
0.0262501
0.0194841
0.0128691
0.0127994
0.0134066
0.0150959
0.0162682
0.0178373
0.0189982
0.0206192
0.02199
0.02375
0.0252011
0.0267843
0.0279607
0.0291064
0.0298906
0.0306231
0.0310978
0.0315084
0.0317049
0.0317794
0.0316352
0.0313256
0.030825
0.030191
0.0294476
0.0286496
0.02783
0.0270253
0.0262625
0.0255579
0.0249317
0.0243846
0.0239333
0.0235749
0.0233444
0.0232531
0.0233932
0.0238096
0.0246352
0.0257683
0.0271756
0.0283946
0.0295865
0.0300768
0.119426
0.106647
0.0977886
0.0893192
0.0828983
0.0779559
0.0741637
0.0711118
0.0684988
0.0660347
0.0635982
0.0611166
0.0586246
0.0561546
0.0537813
0.0515323
0.0494607
0.0475285
0.0457428
0.0440132
0.042339
0.0406237
0.0389202
0.0371321
0.0353765
0.0335449
0.0318014
0.0299969
0.0283459
0.0266234
0.0251178
0.0235072
0.0221818
0.0206874
0.0195571
0.0181654
0.0172321
0.0159237
0.0152162
0.0139824
0.0135662
0.0124231
0.0124626
0.0114759
0.0123297
0.0115976
0.0139946
0.0138613
0.0187199
0.0191078
0.0240557
0.0262453
0.0362033
0.029392
0.0223599
0.0149857
0.014292
0.0144425
0.0159844
0.0171097
0.0186905
0.0199037
0.021589
0.0230477
0.0248876
0.0264219
0.0280668
0.0292993
0.0304797
0.0312942
0.0320398
0.0325221
0.0329238
0.033102
0.0331418
0.0329538
0.0325904
0.032033
0.0313408
0.0305423
0.0296935
0.0288291
0.0279861
0.0271915
0.0264618
0.0258158
0.0252546
0.0247934
0.0244308
0.0242013
0.0241213
0.0242859
0.0247507
0.02565
0.0268838
0.0283991
0.0297226
0.0309947
0.0315516
0.127836
0.115408
0.106231
0.0973997
0.0905555
0.0851629
0.0809207
0.0774398
0.0744272
0.0716
0.0688422
0.0660834
0.063357
0.0606921
0.0581574
0.0557739
0.0535857
0.0515465
0.0496532
0.0478096
0.0460101
0.0441594
0.0423106
0.0403737
0.0384658
0.036486
0.0345957
0.0326535
0.0308679
0.0290227
0.0273971
0.0256804
0.0242496
0.0226652
0.021444
0.0199782
0.0189698
0.0176033
0.0168393
0.0155678
0.015128
0.0139824
0.0140704
0.0131493
0.0141938
0.0136375
0.0164385
0.0166253
0.021909
0.0224676
0.027349
0.0295042
0.0392499
0.0324274
0.0251924
0.017246
0.0159542
0.0155938
0.0169361
0.0179751
0.0195458
0.0207939
0.0225321
0.0240674
0.0259776
0.0275853
0.0292829
0.0305637
0.0317721
0.0326109
0.0333645
0.0338497
0.034238
0.0343938
0.0343957
0.0341612
0.0337427
0.0331284
0.032379
0.0315272
0.03063
0.0297237
0.0288456
0.0280225
0.0272707
0.0266079
0.0260353
0.0255666
0.0252018
0.024975
0.0249076
0.0250981
0.0256125
0.0265873
0.0279238
0.0295499
0.0309807
0.0323354
0.0329605
0.135899
0.123801
0.114383
0.105274
0.0980754
0.0922834
0.0876241
0.0837303
0.0803215
0.0771263
0.0740382
0.0709923
0.068023
0.0651569
0.0624566
0.0599358
0.0576287
0.0554797
0.0534754
0.051514
0.0495849
0.0475955
0.0455992
0.0435127
0.0414531
0.0393271
0.0372929
0.0352169
0.033301
0.0313381
0.0295973
0.0277798
0.0262485
0.0245799
0.0232724
0.021739
0.0206602
0.0192432
0.0184281
0.0171299
0.0166747
0.0155443
0.0156953
0.0148695
0.0161242
0.0157847
0.018986
0.0195169
0.0251287
0.0258297
0.0305603
0.0326487
0.0421378
0.0353473
0.0279577
0.0196003
0.0177586
0.0168617
0.0179593
0.0188734
0.0204117
0.0216769
0.0234559
0.0250561
0.0270264
0.0286976
0.030439
0.0317601
0.0329899
0.0338472
0.0346039
0.0350873
0.0354582
0.0355878
0.0355486
0.0352656
0.0347911
0.03412
0.0333144
0.0324112
0.031468
0.0305228
0.0296125
0.028764
0.0279931
0.0273164
0.0267348
0.026261
0.0258959
0.0256734
0.0256199
0.0258375
0.0264027
0.0274549
0.0288964
0.0306365
0.0321773
0.0336171
0.0343116
0.143676
0.131865
0.122262
0.112948
0.105454
0.0993079
0.0942638
0.0899737
0.0861733
0.0826071
0.0791818
0.0758407
0.0726211
0.069548
0.0666779
0.0640165
0.0615876
0.0593254
0.0572059
0.055122
0.0530592
0.0509275
0.0487815
0.0465447
0.0443342
0.0420641
0.0398889
0.0376829
0.0356409
0.0335651
0.0317136
0.0298004
0.0281734
0.0264257
0.0250366
0.023441
0.0222965
0.0208361
0.0199757
0.0186605
0.0181988
0.0170997
0.0173292
0.0166258
0.0181085
0.0180184
0.0216087
0.022489
0.0283342
0.0291449
0.0336633
0.035662
0.0448717
0.0381472
0.030641
0.0220052
0.0196738
0.0182411
0.0190582
0.0198117
0.0212955
0.0225596
0.0243669
0.0260199
0.0280397
0.0297642
0.0315406
0.032894
0.0341387
0.0350089
0.0357639
0.0362411
0.0365906
0.0366904
0.0366075
0.0362742
0.035743
0.0350154
0.034155
0.0332024
0.0322157
0.0312343
0.0302949
0.0294238
0.0286367
0.0279487
0.0273606
0.0268838
0.0265201
0.0263035
0.0262651
0.026511
0.0271283
0.0282599
0.0298089
0.0316664
0.0333199
0.0348469
0.0356116
0.151218
0.139637
0.129891
0.120427
0.112689
0.106231
0.100832
0.096162
0.0919756
0.0880368
0.0842688
0.0806259
0.0771499
0.0738647
0.0708208
0.0680155
0.0654612
0.0630817
0.0608423
0.0586311
0.05643
0.0541526
0.0518548
0.0494674
0.0471068
0.0446947
0.0423817
0.0400494
0.0378854
0.0357011
0.0337436
0.0317393
0.0300211
0.0281992
0.026733
0.0250804
0.0238749
0.0223772
0.0214774
0.0201543
0.0196955
0.0186432
0.0189673
0.0184105
0.0201372
0.020321
0.0242819
0.0255018
0.0314914
0.0323781
0.0366419
0.0385351
0.0474583
0.0408261
0.0332328
0.024425
0.0216678
0.0197213
0.0202334
0.0207952
0.022203
0.0234476
0.0252705
0.0269639
0.0290225
0.0307899
0.0325923
0.0339702
0.0352234
0.036101
0.0368498
0.0373164
0.0376408
0.0377076
0.0375787
0.0371935
0.0366053
0.0358217
0.034908
0.033908
0.0328804
0.0318654
0.0308998
0.0300091
0.0292085
0.0285118
0.0279195
0.0274417
0.0270811
0.0268718
0.0268496
0.027125
0.0277957
0.0290085
0.0306677
0.032646
0.034415
0.0360309
0.036866
0.158566
0.14715
0.137289
0.127721
0.119783
0.11305
0.107323
0.102289
0.0977224
0.0934105
0.0892956
0.0853457
0.081608
0.0781063
0.0748849
0.0719321
0.0692486
0.0667474
0.0643831
0.0620396
0.0596957
0.0572694
0.0548181
0.0522797
0.0497702
0.0472184
0.0447706
0.0423158
0.0400339
0.0377454
0.0356862
0.0335954
0.0317903
0.0298988
0.0283597
0.0266549
0.0253931
0.023864
0.0229308
0.0216084
0.0211624
0.0201716
0.0206069
0.0202189
0.0222029
0.0226775
0.0269845
0.028522
0.0345749
0.0355051
0.039487
0.0412642
0.049905
0.0433852
0.0357284
0.0268311
0.0237107
0.021288
0.0214814
0.0218266
0.0231383
0.0243458
0.0261711
0.0278923
0.0299788
0.0317788
0.0335983
0.0349928
0.0362484
0.0371279
0.037866
0.038318
0.0386139
0.0386447
0.0384676
0.0380295
0.0373841
0.0365455
0.0355799
0.0345347
0.0334686
0.032423
0.0314338
0.0305264
0.0297149
0.029012
0.0284176
0.0279407
0.0275848
0.0273842
0.0273794
0.0276854
0.0284105
0.0297067
0.0314787
0.0335812
0.0354682
0.0371741
0.0380789
0.165752
0.154436
0.144477
0.134841
0.126739
0.119763
0.113734
0.108349
0.103409
0.0987236
0.0942589
0.0899976
0.0859941
0.0822721
0.0788696
0.0757659
0.0729492
0.0703216
0.0678274
0.0653464
0.0628556
0.0602775
0.0576712
0.0549819
0.0523248
0.0496357
0.0470563
0.0444827
0.0420868
0.0396983
0.0375417
0.0353685
0.0334809
0.0315239
0.0299163
0.0281637
0.0268501
0.0252951
0.0243349
0.0230215
0.0225988
0.0216838
0.0222471
0.0220478
0.0243
0.025075
0.0296983
0.0315227
0.0375664
0.0385105
0.0421942
0.0438495
0.0522195
0.0458273
0.0381257
0.0292019
0.0257757
0.0229241
0.022796
0.0229063
0.0241036
0.0252575
0.0270722
0.0288089
0.0309121
0.0327342
0.034562
0.0359656
0.0372174
0.0380936
0.0388167
0.0392502
0.0395144
0.0395064
0.0392795
0.0387875
0.0380852
0.0371924
0.0361768
0.0350885
0.0339866
0.0329129
0.031903
0.0309814
0.0301617
0.0294549
0.0288606
0.0283864
0.0280368
0.0278462
0.0278596
0.0281973
0.0289781
0.0303597
0.0322472
0.034477
0.0364839
0.0382802
0.0392535
0.172802
0.16152
0.151475
0.141797
0.133562
0.126371
0.12006
0.114339
0.10903
0.103972
0.0991555
0.0945796
0.0903068
0.0863613
0.0827747
0.0795166
0.0765626
0.0738038
0.0711744
0.0685512
0.0659095
0.063177
0.0604146
0.0575747
0.0547717
0.0519477
0.04924
0.0465511
0.0440454
0.0415608
0.039311
0.0370595
0.0350936
0.033075
0.0314032
0.0296069
0.0282463
0.0266706
0.0256898
0.0243937
0.0240054
0.0231803
0.0238885
0.0238957
0.0264239
0.0275026
0.0324081
0.0344823
0.0404536
0.0413849
0.0447633
0.0462936
0.0544098
0.0481562
0.0404248
0.0315211
0.0278405
0.0246118
0.0241681
0.0240329
0.0251002
0.0261852
0.0279764
0.0297163
0.0318253
0.0336592
0.0354866
0.0368916
0.0381338
0.0390015
0.0397056
0.0401168
0.0403463
0.0402973
0.0400189
0.0394726
0.0387138
0.037768
0.0367041
0.0355751
0.0344398
0.0333407
0.0323129
0.0313798
0.0305542
0.0298458
0.0292536
0.028784
0.028442
0.0282626
0.0282954
0.0286656
0.0295032
0.0309721
0.0329777
0.0353375
0.0374657
0.0393519
0.0403919
0.179734
0.168428
0.1583
0.1486
0.140255
0.132874
0.126301
0.120254
0.114582
0.109153
0.103983
0.0990896
0.0945449
0.0903732
0.0865997
0.0831838
0.0800885
0.0771937
0.0744242
0.071654
0.0688577
0.0659685
0.0630494
0.0600596
0.0571125
0.0541564
0.0513236
0.0485231
0.0459114
0.0433347
0.0409958
0.0386699
0.0366296
0.0345533
0.0328213
0.0309856
0.0295825
0.0279914
0.0269968
0.0257261
0.0253839
0.0246626
0.0255325
0.025762
0.028571
0.0299506
0.0351009
0.0373839
0.0432284
0.044124
0.0471959
0.0486006
0.0564834
0.0503764
0.0426273
0.0337772
0.0298864
0.0263334
0.0255872
0.0252027
0.0261276
0.0271303
0.0288858
0.0306168
0.0327207
0.034556
0.0363745
0.0377737
0.0390005
0.0398548
0.0405359
0.0409214
0.0411135
0.0410211
0.0406903
0.0400892
0.0392746
0.0382772
0.0371671
0.0359996
0.0348336
0.0337118
0.0326685
0.0317265
0.0308975
0.0301898
0.0296015
0.0291382
0.0288052
0.0286382
0.0286911
0.0290948
0.0299902
0.0315481
0.0336739
0.036166
0.0384162
0.0403912
0.0414952
0.186564
0.17518
0.164968
0.15526
0.146826
0.139274
0.132456
0.126093
0.120062
0.114263
0.108738
0.103526
0.0987072
0.0943073
0.0903443
0.0867674
0.0835267
0.0804912
0.0775765
0.0746551
0.071701
0.0686533
0.0655771
0.0624384
0.0593493
0.0562637
0.0533093
0.0504009
0.0476871
0.0450221
0.042598
0.0402014
0.0380907
0.0359605
0.0341724
0.032301
0.0308603
0.0292589
0.0282575
0.0270207
0.0267367
0.0261333
0.0271816
0.0276471
0.0307384
0.0324107
0.0377661
0.0402147
0.0458866
0.0467267
0.0494957
0.0507756
0.0584477
0.0524927
0.0447355
0.0359625
0.0318989
0.0280722
0.0270417
0.0264107
0.027184
0.028093
0.0298013
0.0315118
0.0335998
0.0354267
0.037228
0.0386142
0.03982
0.0406563
0.0413106
0.041667
0.0418193
0.0416817
0.0412975
0.0406417
0.0397721
0.0387246
0.0375704
0.0363667
0.0351726
0.0340307
0.0329746
0.0320262
0.0311961
0.0304911
0.0299088
0.0294533
0.0291307
0.028977
0.0290508
0.0294888
0.0304428
0.0320912
0.0343392
0.0369649
0.0393372
0.0413986
0.0425637
0.193301
0.181795
0.171496
0.161788
0.153278
0.145574
0.138525
0.131854
0.125468
0.119298
0.113418
0.107886
0.102793
0.0981626
0.0940079
0.090267
0.0868769
0.0836961
0.0806317
0.0775549
0.0744402
0.0712327
0.0679994
0.064713
0.0614842
0.0582722
0.0551996
0.0521868
0.0493748
0.0466253
0.0441199
0.0416563
0.039479
0.0372984
0.0354582
0.0335551
0.0320817
0.0304751
0.0294745
0.0282801
0.0280671
0.0275957
0.0288385
0.0295515
0.0329233
0.0348756
0.0403945
0.042965
0.0484262
0.0491944
0.0516671
0.052824
0.0603098
0.0545103
0.0467527
0.0380721
0.0338669
0.029813
0.0285197
0.0276504
0.0282666
0.0290727
0.0307233
0.0324022
0.034464
0.0362727
0.0380487
0.0394151
0.0405947
0.0414084
0.0420324
0.0423567
0.0424668
0.0422825
0.0418443
0.0411339
0.0402104
0.0391145
0.0379183
0.0366811
0.0354614
0.034302
0.0332357
0.0322832
0.0314543
0.0307541
0.0301794
0.0297333
0.0294222
0.029283
0.0293784
0.0298512
0.0308645
0.0326045
0.034976
0.037736
0.0402293
0.0423743
0.0435968
0.199951
0.188288
0.177896
0.168193
0.15962
0.151777
0.144506
0.137535
0.130797
0.124258
0.118023
0.11217
0.1068
0.101939
0.0975902
0.0936824
0.090139
0.0868085
0.08359
0.0803543
0.0770765
0.0737081
0.0703183
0.0668858
0.0635197
0.0601843
0.056997
0.0538834
0.050977
0.0481468
0.045564
0.0430369
0.0407968
0.0385693
0.0366811
0.0347502
0.0332489
0.0316426
0.0306504
0.0295074
0.0293788
0.0290534
0.0305063
0.0314761
0.0351236
0.0373388
0.0429789
0.045628
0.0508476
0.0515299
0.0537151
0.0547519
0.0620764
0.0564342
0.0486824
0.0401033
0.0357818
0.0315427
0.0300098
0.0289146
0.0293714
0.0300678
0.0316511
0.0332883
0.035314
0.0370953
0.0388383
0.0401784
0.0413266
0.0421133
0.0427037
0.0429931
0.043059
0.0428266
0.042334
0.0415696
0.0405934
0.039451
0.0382151
0.0369467
0.035704
0.0345298
0.0334557
0.0325017
0.031676
0.0309827
0.0304173
0.029982
0.0296835
0.0295596
0.0296772
0.0301853
0.0312583
0.0330905
0.0355861
0.0384802
0.0410926
0.0433175
0.0445935
0.20652
0.194673
0.184182
0.174483
0.165855
0.157884
0.150402
0.143135
0.136047
0.12914
0.122549
0.116375
0.110728
0.105635
0.101091
0.0970133
0.093313
0.0898285
0.0864519
0.083054
0.0796113
0.0760814
0.0725358
0.068959
0.0654584
0.0620027
0.0587043
0.0554936
0.0524966
0.0495891
0.0469326
0.0443456
0.0420464
0.0397756
0.0378433
0.0358885
0.0343646
0.032764
0.0317885
0.0307063
0.030676
0.0305109
0.0321886
0.0334222
0.0373372
0.0397944
0.0455132
0.0481991
0.0531523
0.0537374
0.0556451
0.0565649
0.0637538
0.0582697
0.0505283
0.0420551
0.037638
0.0332501
0.0315012
0.0301955
0.0304936
0.0310758
0.0325838
0.0341699
0.03615
0.0378951
0.0395979
0.0409054
0.0420175
0.0427732
0.0433267
0.0435785
0.0435985
0.0433169
0.0427699
0.041952
0.0409248
0.0397378
0.0384645
0.0371675
0.0359045
0.0347179
0.0336386
0.0326852
0.031865
0.0311803
0.0306258
0.0302027
0.0299179
0.02981
0.0299502
0.0304939
0.0316266
0.0335513
0.0361708
0.0391976
0.0419263
0.0442266
0.0455519
0.213006
0.200961
0.190363
0.180668
0.17199
0.163899
0.156212
0.148653
0.141217
0.133942
0.126995
0.120501
0.114577
0.10925
0.104509
0.100259
0.0963988
0.0927564
0.089218
0.085655
0.0820457
0.0783544
0.074654
0.0709351
0.0673028
0.06373
0.0603242
0.05702
0.0539361
0.0509551
0.0482285
0.045585
0.0432304
0.0409196
0.0389474
0.0369726
0.0354313
0.0338424
0.0328922
0.0318807
0.0319632
0.0319724
0.0338888
0.0353908
0.0395621
0.0422374
0.0479927
0.0506756
0.055343
0.0558216
0.0574625
0.0582688
0.0653482
0.0600219
0.0522945
0.0439279
0.0394314
0.0349261
0.0329839
0.0314853
0.0316279
0.0320938
0.0335196
0.0350462
0.0369721
0.0386728
0.0403283
0.0415975
0.0426688
0.0433898
0.0439035
0.0441154
0.0440879
0.0437563
0.0431549
0.0422846
0.0412078
0.0399784
0.0386702
0.0373472
0.0360663
0.0348699
0.0337878
0.0328372
0.0320245
0.0313502
0.0308082
0.0303985
0.0301283
0.0300371
0.0302002
0.0307794
0.0319716
0.0339882
0.0367306
0.0398877
0.0427291
0.0450997
0.04647
0.21941
0.207159
0.196451
0.186755
0.178029
0.169825
0.161936
0.154089
0.146306
0.138664
0.131361
0.124545
0.118344
0.112784
0.107845
0.103421
0.0993963
0.0955925
0.0918888
0.0881584
0.0843815
0.0805288
0.0766752
0.0728165
0.0690555
0.0653691
0.0618594
0.0584654
0.0552984
0.0522472
0.0494543
0.0467576
0.0443514
0.042004
0.0399958
0.0380052
0.0364522
0.0348808
0.0339653
0.0330348
0.0332451
0.0334429
0.0356103
0.0373829
0.0417962
0.0446632
0.0504136
0.0530562
0.0574231
0.0577875
0.0591727
0.0598693
0.0668652
0.0616956
0.0539849
0.0457229
0.0411598
0.0365633
0.0344495
0.0327764
0.0327687
0.0331182
0.0344564
0.0359161
0.0377799
0.0394286
0.0410305
0.0422557
0.0432822
0.0439647
0.044436
0.0446057
0.0445295
0.0441473
0.043492
0.0425702
0.0414458
0.040176
0.0388355
0.037489
0.0361929
0.0349892
0.0339065
0.0329611
0.0321577
0.0314956
0.0309674
0.0305722
0.0303174
0.0302434
0.0304295
0.031044
0.032295
0.0344023
0.0372656
0.0405495
0.0434989
0.0459346
0.0473456
0.225727
0.213275
0.202452
0.192751
0.183978
0.175664
0.167577
0.159443
0.151313
0.143303
0.135645