/*--------------------------------*- C++ -*----------------------------------*\
| =========                 |                                                 |
| \\      /  F ield         | OpenFOAM: The Open Source CFD Toolbox           |
|  \\    /   O peration     | Version:  2412                                  |
|   \\  /    A nd           | Website:  www.openfoam.com                      |
|    \\/     M anipulation  |                                                 |
\*---------------------------------------------------------------------------*/
FoamFile
{
    version     2.0;
    format      ascii;
    arch        "LSB;label=32;scalar=64";
    class       volVectorField;
    location    "0.8";
    object      U;
}
// * * * * * * * * * * * * * * * * * * * * * * * * * * * * * * * * * * * * * //

dimensions      [0 1 -1 0 0 0 0];

internalField   nonuniform List<vector> 
13156
(
(79.1804 -82.4456 -1.55425e-14)
(101.179 -24.8553 -4.6235e-17)
(113.037 14.7424 0)
(119.158 28.7586 0)
(122.743 32.9922 -2.07021e-14)
(123.834 34.2006 -1.11946e-18)
(123.86 34.5201 0)
(123.575 34.6393 4.23959e-14)
(123.381 34.7854 4.25222e-14)
(123.227 34.9532 0)
(123.115 35.1388 0)
(122.89 35.2938 2.1362e-14)
(122.6 35.4242 -2.14629e-14)
(122.173 35.5111 6.10103e-19)
(121.738 35.5756 0)
(121.224 35.6153 2.19151e-14)
(120.864 35.6773 0)
(120.507 35.7301 -2.22741e-14)
(120.423 35.8332 5.24022e-19)
(120.37 35.9483 0)
(120.688 36.1368 0)
(120.963 36.3427 -2.28586e-14)
(121.734 36.6583 0)
(122.311 36.955 -2.30184e-14)
(123.507 37.3887 0)
(124.332 37.7766 0)
(126.002 38.3347 0)
(127.029 38.8101 0)
(129.3 39.5285 -2.30383e-14)
(130.492 40.0797 0)
(133.509 40.9939 0)
(134.823 41.6357 -1.19095e-18)
(138.664 42.7554 -2.23045e-14)
(140.121 43.508 -2.17625e-14)
(145.102 44.9028 2.15866e-14)
(146.612 45.7765 2.08601e-14)
(153.179 47.5523 0)
(154.548 48.5249 0)
(163.271 50.8218 -1.93666e-14)
(164.263 51.8912 -1.80145e-14)
(176.005 54.9008 1.78314e-14)
(176.222 56.034 -1.59374e-14)
(192.162 60.0306 0)
(190.962 61.1805 0)
(212.642 66.5449 0)
(208.677 67.4781 9.97447e-15)
(237.875 74.6668 0)
(229.484 75.0671 0)
(269.919 84.9036 9.13273e-15)
(257.237 84.8862 0)
(319.816 100.134 0)
(306.616 100.015 -1.48871e-14)
(471.46 150.468 3.8241e-18)
(479.607 10.7552 1.80958e-15)
(306.397 -68.3316 2.10455e-15)
(250.402 -57.9988 0)
(231.328 -52.6187 0)
(224.364 -48.8353 1.90739e-15)
(207.478 -46.7669 6.1463e-19)
(202.596 -44.0052 0)
(189.779 -42.4936 4.75194e-19)
(185.006 -40.225 0)
(174.377 -38.9053 2.23046e-15)
(169.32 -36.9314 3.12311e-19)
(160.603 -35.7301 -2.7874e-15)
(155.912 -34.1 2.68647e-15)
(148.876 -33.0298 6.59906e-15)
(144.58 -31.6797 3.34159e-15)
(138.732 -30.6965 3.7921e-15)
(134.714 -29.5474 -3.92196e-15)
(129.713 -28.6493 -4.27974e-15)
(126.009 -27.6547 -2.30107e-19)
(121.8 -26.8546 -9.50206e-15)
(118.566 -26.0263 2.13521e-19)
(115.155 -25.3506 -5.18827e-15)
(112.602 -24.7152 5.38288e-15)
(110.053 -24.1949 5.59302e-15)
(108.269 -23.7478 -1.94899e-19)
(106.602 -23.4015 0)
(105.452 -23.1201 -6.19231e-15)
(104.384 -22.8879 0)
(103.603 -22.6943 0)
(102.759 -22.505 -6.82904e-15)
(102.021 -22.3298 0)
(101.109 -22.1239 -7.26511e-15)
(100.234 -21.9272 -7.47725e-15)
(99.1474 -21.6748 7.68913e-15)
(98.16 -21.4634 0)
(96.896 -21.1821 -8.08009e-15)
(95.9052 -20.9671 0)
(94.596 -20.6694 -8.40673e-15)
(93.8141 -20.5024 -8.50759e-15)
(92.5104 -20.2018 -8.61764e-15)
(92.2081 -20.1433 0)
(90.9632 -19.8435 8.64325e-15)
(91.5177 -19.9823 -8.52513e-15)
(90.3734 -19.6889 0)
(91.7499 -20.0397 -8.33023e-15)
(91.7164 -19.8609 0)
(129.35 45.2833 1.05476e-14)
(138.395 49.9397 -2.17031e-14)
(136.516 43.6048 0)
(137.034 40.0465 0)
(138.947 39.3199 1.4928e-14)
(140.556 39.7843 -2.9699e-14)
(141.725 40.3625 0)
(142.504 40.8385 -1.42176e-14)
(142.894 41.1694 -1.39577e-14)
(143.065 41.4215 0)
(143.082 41.6224 -1.36806e-14)
(143 41.796 -7.94017e-19)
(142.808 41.9318 0)
(142.52 42.0434 1.37142e-14)
(142.151 42.1112 0)
(141.717 42.1709 1.38595e-14)
(141.3 42.2202 0)
(140.944 42.2869 0)
(140.717 42.3645 6.08778e-19)
(140.642 42.5071 -1.41375e-14)
(140.797 42.677 0)
(141.119 42.9487 1.42184e-14)
(141.732 43.2606 0)
(142.503 43.6737 0)
(143.56 44.1101 1.42922e-14)
(144.739 44.6739 0)
(146.259 45.2296 0)
(147.83 45.9519 0)
(149.87 46.6446 0)
(151.874 47.5347 0)
(154.502 48.3761 0)
(156.978 49.4862 -1.37462e-14)
(160.471 50.5457 2.74472e-14)
(163.404 51.8839 1.3331e-14)
(167.968 53.1943 0)
(171.348 54.8032 -1.27398e-14)
(177.352 56.4525 1.2579e-14)
(181.167 58.3612 -1.19381e-14)
(189.072 60.466 2.2184e-18)
(193.276 62.7399 1.08987e-14)
(203.819 65.4597 0)
(208.282 68.143 9.57708e-15)
(222.482 71.7246 9.5685e-15)
(226.891 74.8648 -7.91951e-15)
(246.087 79.6517 8.23059e-15)
(249.516 83.0773 0)
(275.185 89.4821 0)
(276.133 92.859 0)
(311.887 101.834 0)
(310.285 105.182 2.96318e-16)
(368.3 120.418 0)
(364.255 122.986 8.38747e-15)
(532.31 180.443 8.6429e-16)
(594.12 -5.60048 -1.04542e-15)
(384.496 -82.7761 0)
(308.63 -66.365 0)
(272.369 -59.6182 -6.05104e-17)
(263.952 -56.1774 -7.62277e-16)
(240.287 -52.5733 7.70118e-16)
(235.928 -50.202 0)
(218.312 -47.6021 6.27253e-16)
(214.08 -45.6134 3.48667e-16)
(199.803 -43.4568 0)
(194.88 -41.6085 7.21912e-16)
(183.318 -39.7778 1.04545e-15)
(178.389 -38.1654 0)
(169.206 -36.638 -2.44092e-15)
(164.513 -35.253 -2.34564e-19)
(157.072 -33.9397 0)
(152.624 -32.7398 2.87486e-15)
(146.43 -31.6021 1.5609e-15)
(142.292 -30.5489 -1.62783e-15)
(137.196 -29.5796 1.7317e-15)
(133.548 -28.6926 1.80541e-15)
(129.525 -27.9088 1.89509e-15)
(126.604 -27.2222 -1.97261e-15)
(123.719 -26.6539 0)
(121.707 -26.1842 -1.66697e-19)
(119.9 -25.8312 0)
(118.662 -25.5528 2.33338e-15)
(117.55 -25.3267 0)
(116.745 -25.1451 2.55299e-15)
(115.895 -24.962 2.67242e-15)
(115.147 -24.7966 0)
(114.226 -24.5887 5.84688e-15)
(113.324 -24.3961 3.04989e-15)
(112.203 -24.1301 -3.17692e-15)
(111.158 -23.9225 0)
(109.835 -23.6163 1.42607e-19)
(108.756 -23.4057 0)
(107.365 -23.0739 3.61753e-15)
(106.469 -22.9217 3.68293e-15)
(105.121 -22.5813 7.49743e-15)
(104.656 -22.5525 0)
(103.453 -22.2038 -7.5242e-15)
(103.769 -22.4053 3.68923e-15)
(102.892 -22.0624 3.69141e-15)
(103.904 -22.521 3.5919e-15)
(104.385 -22.2989 3.67638e-15)
(96.4177 37.6885 0)
(131.738 40.8285 -1.19994e-17)
(140.967 38.5526 -1.22617e-14)
(143.579 39.3045 0)
(145.256 40.5219 0)
(146.254 41.3928 1.13046e-14)
(147.038 41.9346 0)
(147.749 42.3864 -9.83623e-15)
(148.348 42.7711 9.46565e-15)
(148.851 43.13 0)
(149.258 43.454 9.26896e-15)
(149.564 43.7547 -9.33572e-15)
(149.764 44.0151 0)
(149.847 44.2498 0)
(149.842 44.4342 0)
(149.734 44.6055 -1.99414e-14)
(149.623 44.7546 0)
(149.511 44.9086 -1.0276e-14)
(149.51 45.0595 1.04034e-14)
(149.596 45.2655 1.04954e-14)
(149.913 45.4873 -1.05804e-14)
(150.339 45.8083 1.06301e-14)
(151.09 46.1642 0)
(151.937 46.6219 0)
(153.151 47.1052 -1.07591e-14)
(154.407 47.7213 0)
(156.129 48.3332 0)
(157.787 49.1202 0)
(160.092 49.8829 0)
(162.185 50.8489 0)
(165.167 51.778 0)
(167.714 52.976 0)
(171.614 54.1251 -1.00961e-18)
(174.651 55.5849 -1.04156e-14)
(179.701 56.9898 -1.03785e-14)
(183.213 58.7603 1.00569e-14)
(189.792 60.5055 -1.98991e-14)
(193.762 62.6231 9.51995e-15)
(202.362 64.8266 9.36811e-15)
(206.75 67.3721 0)
(218.135 70.1914 0)
(222.829 73.2281 7.78129e-15)
(238.058 76.9132 -2.22606e-18)
(242.779 80.5138 6.49819e-15)
(263.234 85.4162 -6.69193e-15)
(267.108 89.4243 0)
(294.295 95.9773 0)
(295.868 100.055 2.80262e-15)
(333.37 109.248 0)
(332.679 113.403 -2.43825e-16)
(392.867 129.172 0)
(390.425 132.653 -6.68096e-15)
(558.237 191.527 0)
(634.827 -10.0204 9.30678e-16)
(430.347 -90.4276 0)
(341.542 -71.819 0)
(296.779 -64.3143 7.65159e-17)
(283.966 -59.8993 4.69147e-16)
(257.987 -55.9469 -2.30451e-16)
(251.826 -53.1795 -7.3538e-17)
(233.027 -50.4073 0)
(227.69 -48.1566 -2.01585e-16)
(212.627 -45.8821 0)
(206.85 -43.8296 4.10024e-16)
(194.636 -41.9018 -5.89198e-16)
(188.981 -40.1234 -5.63351e-16)
(179.237 -38.51 6.78033e-16)
(173.946 -36.9924 -6.82207e-16)
(166.041 -35.6054 0)
(161.112 -34.3027 -1.57534e-15)
(154.544 -33.1049 -1.22799e-19)
(150.024 -31.9742 0)
(144.633 -30.9587 0)
(140.696 -30.0181 0)
(136.463 -29.2053 0)
(133.358 -28.4913 1.00313e-19)
(130.352 -27.9129 0)
(128.257 -27.4381 -1.17295e-15)
(126.403 -27.0885 1.22876e-15)
(125.141 -26.8157 0)
(124.023 -26.5964 0)
(123.215 -26.4211 -1.42777e-15)
(122.368 -26.2406 0)
(121.617 -26.0783 0)
(120.695 -25.8672 -1.66639e-15)
(119.778 -25.6745 0)
(118.646 -25.4003 0)
(117.572 -25.1922 0)
(116.23 -24.8738 1.99126e-15)
(115.105 -24.6655 -2.0599e-15)
(113.693 -24.3179 0)
(112.736 -24.1742 0)
(111.366 -23.8113 -2.21146e-15)
(110.829 -23.8046 0)
(109.618 -23.4218 4.4285e-15)
(109.855 -23.6727 0)
(108.99 -23.2685 -2.16623e-15)
(109.927 -23.8304 0)
(110.34 -23.4802 -2.16339e-15)
(99.006 17.521 0)
(127.179 30.0773 2.45883e-14)
(137.01 36.0128 2.07529e-14)
(141.432 39.2363 0)
(144.414 40.6435 0)
(146.105 41.4378 7.59723e-15)
(147.278 42.0262 -6.81715e-15)
(148.299 42.5708 6.30794e-15)
(149.22 43.0485 -1.20663e-14)
(150.066 43.5092 5.93473e-15)
(150.833 43.9372 0)
(151.502 44.347 0)
(152.068 44.7161 0)
(152.516 45.0626 0)
(152.873 45.3566 0)
(153.12 45.6388 6.90529e-15)
(153.351 45.8913 7.13013e-15)
(153.557 46.1459 7.33808e-15)
(153.845 46.3831 -7.52531e-15)
(154.187 46.6714 0)
(154.725 46.958 3.19943e-19)
(155.344 47.3439 -3.67591e-19)
(156.263 47.7475 0)
(157.261 48.2608 -8.11094e-15)
(158.621 48.7826 8.19945e-15)
(160.017 49.4558 -8.2619e-15)
(161.888 50.1044 0)
(163.697 50.9573 0)
(166.172 51.7581 0)
(168.436 52.8037 8.51082e-15)
(171.617 53.7722 -8.6019e-15)
(174.36 55.0681 8.56743e-15)
(178.469 56.2475 -7.61392e-19)
(181.742 57.8335 0)
(187.024 59.2575 8.58232e-15)
(190.823 61.1932 8.39336e-15)
(197.655 62.9383 1.01989e-18)
(201.972 65.2709 0)
(210.845 67.4457 0)
(215.658 70.274 0)
(227.338 73.0234 -7.45708e-15)
(232.567 76.4341 -6.8145e-15)
(248.113 79.9958 -1.35218e-14)
(253.529 84.0952 5.76466e-15)
(274.329 88.8104 5.90736e-15)
(279.139 93.4841 4.35819e-15)
(306.705 99.7815 0)
(309.533 104.723 -2.53866e-15)
(347.373 113.575 0)
(348.377 118.78 0)
(408.628 134.158 0)
(409.013 138.8 -4.61821e-18)
(569.722 196.32 0)
(658.756 -9.02566 -8.48773e-16)
(465.493 -96.1105 0)
(369.076 -76.7774 9.15919e-16)
(316.823 -68.274 -2.96393e-17)
(299.694 -62.8602 -3.51115e-16)
(271.452 -58.6022 -1.69224e-16)
(263.619 -55.4142 5.29547e-17)
(243.765 -52.5142 -2.61112e-16)
(237.502 -50.0102 -1.41946e-16)
(221.794 -47.6594 -3.41003e-16)
(215.368 -45.4297 -2.85294e-16)
(202.657 -43.4412 0)
(196.475 -41.5286 3.87915e-16)
(186.315 -39.8594 0)
(180.593 -38.2376 -4.66218e-16)
(172.346 -36.8003 0)
(167.073 -35.4181 7.54183e-20)
(160.232 -34.1785 -1.16157e-15)
(155.44 -32.9891 0)
(149.837 -31.9421 6.40811e-16)
(145.704 -30.9634 6.66808e-16)
(141.328 -30.1337 0)
(138.108 -29.4032 7.30377e-16)
(135.031 -28.8233 0)
(132.889 -28.3487 0)
(131.013 -28.0056 -1.68205e-15)
(129.741 -27.7382 0)
(128.62 -27.5243 0)
(127.808 -27.3515 0)
(126.957 -27.1707 -1.04189e-15)
(126.195 -27.0061 0)
(125.262 -26.7892 0)
(124.325 -26.5915 -1.2222e-15)
(123.176 -26.3083 1.28344e-15)
(122.072 -26.0948 0)
(120.711 -25.7665 0)
(119.55 -25.5557 1.45176e-15)
(118.119 -25.1982 0)
(117.119 -25.0569 -1.5336e-15)
(115.739 -24.6835 0)
(115.155 -24.6887 0)
(113.952 -24.2941 -3.11568e-15)
(114.139 -24.5739 1.52508e-15)
(113.298 -24.1432 0)
(114.175 -24.7683 -1.48123e-15)
(114.535 -24.331 0)
(103.847 22.5954 0)
(126.971 34.128 -1.59243e-14)
(134.696 36.1539 -6.50686e-15)
(138.856 38.4549 -6.07743e-15)
(142.312 39.9586 0)
(144.588 40.9752 -4.91197e-15)
(146.243 41.7269 4.4767e-15)
(147.636 42.3816 -4.18258e-15)
(148.859 42.9427 4.01854e-15)
(149.971 43.4813 -2.53875e-19)
(150.986 43.9817 0)
(151.893 44.464 0)
(152.692 44.9033 0)
(153.369 45.3215 0)
(153.955 45.6857 0)
(154.433 46.0401 4.75179e-15)
(154.892 46.3616 -1.99765e-19)
(155.323 46.6868 -5.1409e-15)
(155.826 46.9871 5.31977e-15)
(156.372 47.3397 0)
(157.097 47.6797 5.62641e-15)
(157.891 48.122 -2.77628e-19)
(158.965 48.5683 5.87223e-15)
(160.115 49.133 1.19589e-14)
(161.611 49.6899 -6.08879e-15)
(163.152 50.4158 6.18969e-15)
(165.157 51.0962 0)
(167.122 52.0094 0)
(169.738 52.8406 -6.52438e-15)
(172.179 53.9595 -1.32263e-14)
(175.516 54.956 6.74205e-15)
(178.466 56.3439 -6.79878e-15)
(182.733 57.5419 -6.93204e-15)
(186.249 59.2443 0)
(191.697 60.6719 0)
(195.787 62.76 -1.39255e-14)
(202.784 64.4846 7.00324e-15)
(207.454 67.0173 6.85575e-15)
(216.483 69.1347 -6.83425e-15)
(221.727 72.2281 0)
(233.545 74.8665 6.50209e-15)
(239.311 78.6309 0)
(254.968 82.01 1.41017e-18)
(261.076 86.5855 -5.17574e-15)
(281.949 91.0302 -1.7101e-18)
(287.691 96.349 -7.92953e-15)
(315.292 102.277 4.45281e-15)
(319.399 108.073 0)
(357.153 116.442 0)
(359.901 122.691 0)
(419.482 137.449 0)
(422.563 143.146 -3.94045e-18)
(575.478 198.57 0)
(671.497 -8.01856 -6.55271e-16)
(492.375 -100.451 6.12322e-16)
(393.031 -80.996 -8.05579e-16)
(334.699 -71.749 0)
(313.461 -65.4213 0)
(283.026 -60.8749 1.37897e-16)
(273.554 -57.277 -4.24942e-17)
(252.723 -54.264 2.07742e-16)
(245.593 -51.5228 2.22633e-16)
(229.325 -49.1108 2.67281e-16)
(222.331 -46.7239 2.21215e-16)
(209.21 -44.6899 3.17142e-16)
(202.59 -42.6635 -2.98692e-16)
(192.092 -40.9522 -3.59035e-16)
(186.016 -39.2438 6.10149e-20)
(177.492 -37.7677 0)
(171.936 -36.3195 4.10304e-16)
(164.873 -35.0472 5.03076e-20)
(159.86 -33.81 0)
(154.087 -32.7392 -9.80666e-16)
(149.797 -31.7311 -5.09991e-16)
(145.312 -30.8908 0)
(142.006 -30.1505 0)
(138.88 -29.5734 0)
(136.707 -29.1021 0)
(134.819 -28.7669 4.40086e-20)
(133.539 -28.5049 0)
(132.414 -28.2957 0)
(131.593 -28.1236 0)
(130.732 -27.9406 1.61845e-15)
(129.952 -27.7713 0)
(129 -27.5468 0)
(128.036 -27.3414 4.1765e-20)
(126.863 -27.0483 -1.00196e-15)
(125.727 -26.8273 0)
(124.342 -26.4893 -1.09499e-15)
(123.146 -26.274 0)
(121.696 -25.9083 0)
(120.66 -25.7673 3.25343e-20)
(119.27 -25.3877 0)
(118.653 -25.4012 0)
(117.461 -25.0035 4.64388e-20)
(117.615 -25.3048 -1.18886e-15)
(116.796 -24.8607 0)
(117.629 -25.5327 5.82531e-21)
(117.928 -25.026 0)
(103.63 22.5865 0)
(125.852 33.9215 8.55291e-15)
(133.063 35.2784 0)
(136.983 37.7941 3.79619e-15)
(140.533 39.3967 0)
(143.086 40.4998 3.36142e-15)
(145.052 41.3461 0)
(146.722 42.0858 2.99652e-15)
(148.182 42.7168 -2.90143e-15)
(149.499 43.3182 -2.86608e-15)
(150.696 43.8743 -2.88185e-15)
(151.77 44.4096 0)
(152.724 44.898 0)
(153.549 45.3644 0)
(154.278 45.7741 0)
(154.898 46.1739 -3.41989e-15)
(155.495 46.5378 -3.56576e-15)
(156.063 46.9061 3.71019e-15)
(156.7 47.2452 3.84729e-15)
(157.377 47.6382 0)
(158.226 48.0125 0)
(159.142 48.4926 -8.40685e-15)
(160.328 48.9684 -8.61289e-15)
(161.592 49.5701 -4.40741e-15)
(163.194 50.1529 0)
(164.85 50.9185 4.61222e-15)
(166.961 51.6232 0)
(169.052 52.5828 0)
(171.781 53.4372 4.95558e-15)
(174.368 54.6137 5.06891e-15)
(177.828 55.6315 -5.20136e-15)
(180.952 57.0933 0)
(185.346 58.3057 0)
(189.068 60.1033 0)
(194.644 61.5326 0)
(198.987 63.7475 5.6633e-15)
(206.109 65.4521 0)
(211.091 68.1551 -5.71091e-15)
(220.231 70.2176 8.1549e-19)
(225.862 73.5407 5.59593e-15)
(237.763 76.0721 -5.57865e-15)
(244.013 80.1467 0)
(259.71 83.347 5.2472e-15)
(266.437 88.3438 0)
(287.295 92.5201 -1.45288e-18)
(293.865 98.4137 3.59705e-15)
(321.392 103.975 -3.99981e-15)
(326.655 110.538 0)
(364.185 118.438 2.99545e-15)
(368.541 125.616 0)
(427.126 139.741 1.72063e-15)
(432.291 146.188 1.90748e-15)
(578.702 199.427 -1.80194e-16)
(676.646 -7.54424 4.49576e-16)
(511.912 -103.282 -3.02603e-18)
(413.754 -84.4754 0)
(351.014 -74.8367 0)
(326.057 -67.7141 0)
(293.526 -62.8972 0)
(282.45 -58.915 3.6044e-17)
(260.69 -55.793 1.7553e-16)
(252.729 -52.8336 -1.85987e-16)
(235.948 -50.3642 0)
(228.432 -47.8376 -3.66372e-16)
(214.953 -45.7637 -2.62581e-16)
(207.943 -43.6391 4.91827e-16)
(197.156 -41.8921 2.95715e-16)
(190.77 -40.1097 5.01219e-20)
(182.008 -38.6004 0)
(176.203 -37.0961 -3.3627e-16)
(168.948 -35.7958 3.64832e-16)
(163.743 -34.5185 0)
(157.823 -33.428 3.70131e-20)
(153.4 -32.3967 0)
(148.826 -31.5498 0)
(145.451 -30.8039 -4.59756e-16)
(142.288 -30.2322 0)
(140.093 -29.7662 0)
(138.196 -29.4396 5.35321e-16)
(136.908 -29.1831 0)
(135.776 -28.9778 0)
(134.942 -28.8053 0)
(134.065 -28.6189 -6.72156e-16)
(133.261 -28.4433 0)
(132.284 -28.21 0)
(131.289 -27.9956 7.937e-16)
(130.086 -27.6918 8.34567e-16)
(128.915 -27.462 0)
(127.503 -27.1143 9.12676e-16)
(126.272 -26.8936 0)
(124.801 -26.5205 0)
(123.732 -26.3788 1.00083e-15)
(122.332 -25.995 0)
(121.688 -26.0158 0)
(120.507 -25.6183 1.00749e-15)
(120.639 -25.9385 0)
(119.837 -25.486 0)
(120.634 -26.1971 9.5695e-16)
(120.864 -25.6289 0)
(103.56 21.6604 0)
(124.695 33.2381 -2.54001e-15)
(131.637 34.6021 0)
(135.507 37.2549 0)
(139.081 38.8906 0)
(141.765 40.0451 -2.47293e-19)
(143.917 40.9563 2.37237e-15)
(145.781 41.7606 2.2914e-15)
(147.423 42.4488 2.23767e-15)
(148.903 43.1025 0)
(150.245 43.7048 2.22701e-15)
(151.447 44.2831 0)
(152.518 44.8102 0)
(153.449 45.3128 2.40804e-15)
(154.277 45.7553 2.50081e-15)
(154.99 46.1864 0)
(155.676 46.5777 0)
(156.33 46.9732 0)
(157.05 47.3356 -2.90706e-15)
(157.809 47.753 0)
(158.737 48.1478 0)
(159.734 48.6512 6.34049e-15)
(160.996 49.1451 6.50042e-15)
(162.339 49.7711 0)
(164.017 50.3707 0)
(165.758 51.1635 -2.34583e-19)
(167.948 51.8846 0)
(170.133 52.8766 0)
(172.946 53.7468 0)
(175.641 54.9642 0)
(179.193 55.9963 4.02562e-15)
(182.446 57.5118 0)
(186.937 58.7338 0)
(190.816 60.6023 4.34912e-15)
(196.49 62.0315 0)
(201.028 64.3432 0)
(208.244 66.0304 0)
(213.475 68.8674 4.6631e-15)
(222.697 70.8838 9.42043e-15)
(228.646 74.393 -4.67088e-15)
(240.602 76.8329 4.67478e-15)
(247.262 81.1651 0)
(262.97 84.2095 0)
(270.23 89.562 0)
(291.038 93.5007 -1.21778e-18)
(298.33 99.8851 0)
(325.733 105.121 3.48494e-15)
(332.028 112.343 -1.89447e-15)
(369.242 119.826 -5.06927e-15)
(375.023 127.777 0)
(432.428 141.294 -1.34151e-15)
(438.959 148.129 0)
(580.61 199.472 1.26285e-16)
(678.092 -7.1375 2.95957e-16)
(525.074 -104.694 -4.56554e-16)
(431.276 -87.2754 0)
(365.899 -77.5794 -1.99506e-17)
(337.776 -69.7977 0)
(303.29 -64.7396 0)
(290.668 -60.4007 0)
(268.018 -57.1738 -7.66531e-20)
(259.257 -54.0123 1.6179e-16)
(241.995 -51.4877 -1.93896e-16)
(233.989 -48.8343 3.16265e-16)
(220.184 -46.7236 2.26527e-16)
(212.818 -44.512 -4.22503e-16)
(201.772 -42.7329 -2.54057e-16)
(195.106 -40.8857 5.03098e-16)
(186.129 -39.3467 0)
(180.101 -37.7931 3.818e-20)
(172.673 -36.4678 0)
(167.294 -35.1558 -3.23427e-16)
(161.244 -34.0486 3.44608e-16)
(156.704 -32.9984 -3.58365e-16)
(152.052 -32.1473 -3.77975e-16)
(148.619 -31.399 3.12712e-20)
(145.428 -30.8342 0)
(143.213 -30.3749 4.37098e-16)
(141.308 -30.057 0)
(140.012 -29.8057 0)
(138.871 -29.6034 0)
(138.019 -29.4296 0)
(137.122 -29.2386 0)
(136.289 -29.0557 0)
(135.282 -28.8126 0)
(134.252 -28.5883 0)
(133.016 -28.2731 -7.24928e-16)
(131.808 -28.0339 0)
(130.366 -27.6762 0)
(129.101 -27.4496 0)
(127.606 -27.0694 0)
(126.506 -26.9267 0)
(125.094 -26.5396 0)
(124.427 -26.5672 0)
(123.256 -26.1719 0)
(123.372 -26.5094 0)
(122.583 -26.0507 0)
(123.346 -26.7954 0)
(123.503 -26.1702 0)
(103.467 20.9282 0)
(123.63 32.4937 -1.72859e-15)
(130.372 33.9994 0)
(134.261 36.7568 0)
(137.845 38.4221 1.93208e-15)
(140.599 39.6184 -3.8302e-15)
(142.869 40.5772 -1.87748e-15)
(144.872 41.4315 -1.4853e-19)
(146.654 42.1666 0)
(148.266 42.8648 0)
(149.728 43.5071 -1.80617e-15)
(151.036 44.1222 -1.83438e-15)
(152.201 44.682 1.87909e-15)
(153.215 45.2144 -1.93695e-15)
(154.116 45.6829 -2.00404e-15)
(154.896 46.1374 0)
(155.644 46.5482 0)
(156.356 46.9619 0)
(157.131 47.339 0)
(157.944 47.7715 0)
(158.925 48.1783 0)
(159.976 48.6962 -1.27962e-19)
(161.292 49.2008 -2.54671e-15)
(162.692 49.8425 0)
(164.427 50.4527 -2.67491e-15)
(166.229 51.2637 -5.49154e-15)
(168.48 51.9954 -2.82128e-15)
(170.733 53.0095 -2.90241e-15)
(173.611 53.8897 -2.98879e-15)
(176.385 55.1355 3.07863e-15)
(180.006 56.1763 -3.17516e-15)
(183.353 57.7293 -3.26862e-15)
(187.916 58.9564 -3.37216e-15)
(191.908 60.8755 -6.91905e-15)
(197.656 62.3024 0)
(202.335 64.6844 3.63706e-15)
(209.622 66.356 0)
(215.035 69.2931 -3.77703e-15)
(224.32 71.2712 -3.82775e-15)
(230.508 74.9235 0)
(242.506 77.2886 3.84755e-15)
(249.485 81.8245 0)
(265.197 84.7406 0)
(272.886 90.3813 0)
(293.64 94.1224 -3.45072e-15)
(301.533 100.911 0)
(328.798 105.874 -5.84466e-15)
(335.981 113.643 2.20742e-18)
(372.819 120.765 4.0686e-15)
(379.757 129.307 -1.12016e-16)
(435.995 142.271 0)
(443.354 149.214 -1.04914e-15)
(581.775 199.06 9.2815e-17)
(678.195 -6.75793 -2.04651e-16)
(533.355 -105.088 -3.53951e-16)
(445.696 -89.448 0)
(379.332 -79.9849 1.84664e-17)
(348.714 -71.6946 0)
(312.468 -66.4354 0)
(298.386 -61.7698 2.89083e-17)
(274.885 -58.4445 -2.77981e-16)
(265.356 -55.095 -6.31271e-20)
(247.636 -52.5177 5.39041e-20)
(239.166 -49.7477 -1.40458e-16)
(225.059 -47.6028 -2.01117e-16)
(217.362 -45.3124 1.86849e-16)
(206.08 -43.5042 4.49496e-16)
(199.154 -41.5986 -3.88112e-20)
(189.983 -40.0326 0)
(183.748 -38.4348 2.54121e-16)
(176.16 -37.0869 2.75997e-16)
(170.622 -35.744 5.70889e-16)
(164.454 -34.6224 -3.04332e-16)
(159.807 -33.5566 3.16627e-16)
(155.088 -32.7034 2.71721e-20)
(151.604 -31.9548 3.49645e-16)
(148.388 -31.398 0)
(146.157 -30.946 -7.76214e-16)
(144.244 -30.6367 0)
(142.937 -30.3902 4.34963e-16)
(141.782 -30.1901 0)
(140.91 -30.0139 0)
(139.987 -29.8174 -5.20291e-16)
(139.122 -29.6261 0)
(138.082 -29.3724 0)
(137.014 -29.1373 6.16129e-16)
(135.742 -28.8104 -6.48025e-16)
(134.495 -28.5613 0)
(133.021 -28.1935 -7.08666e-16)
(131.72 -27.9605 0)
(130.201 -27.5734 0)
(129.07 -27.4294 0)
(127.646 -27.0398 0)
(126.959 -27.0739 0)
(125.797 -26.6819 7.73975e-16)
(125.898 -27.0352 7.57055e-16)
(125.116 -26.5714 0)
(125.848 -27.3453 -7.33403e-16)
(125.924 -26.666 0)
(103.351 20.239 0)
(122.652 31.707 2.59805e-15)
(129.224 33.4282 0)
(133.159 36.2858 0)
(136.752 37.9832 -1.53676e-15)
(139.55 39.2166 1.55066e-15)
(141.902 40.213 -1.54201e-15)
(144.008 41.1071 -1.24865e-19)
(145.901 41.8813 0)
(147.623 42.618 0)
(149.185 43.2955 1.51691e-15)
(150.584 43.9435 1.53904e-15)
(151.827 44.5321 -1.57309e-15)
(152.909 45.0903 0)
(153.869 45.5806 -1.66692e-15)
(154.701 46.0541 0)
(155.494 46.4796 0)
(156.247 46.9063 0)
(157.061 47.2932 0)
(157.911 47.7352 -1.93049e-15)
(158.93 48.1493 0)
(160.02 48.6761 -4.04433e-15)
(161.377 49.1872 -2.06795e-15)
(162.82 49.8392 2.11645e-15)
(164.599 50.4561 2.16838e-15)
(166.449 51.2795 2.22464e-15)
(168.748 52.018 4.57088e-15)
(171.055 53.0475 2.35076e-15)
(173.983 53.9338 4.84109e-15)
(176.816 55.1995 -2.49322e-15)
(180.492 56.2451 5.14228e-15)
(183.908 57.8244 2.64737e-15)
(188.528 59.0532 2.54653e-19)
(192.601 61.0082 2.80355e-15)
(198.407 62.4309 -2.89174e-15)
(203.186 64.8634 -5.90288e-15)
(210.529 66.5205 0)
(216.071 69.5308 0)
(225.406 71.4766 3.12008e-15)
(231.766 75.2359 3.13839e-15)
(243.799 77.5401 -3.15323e-15)
(251.01 82.2319 -3.09186e-15)
(266.728 85.0446 0)
(274.742 90.9109 0)
(295.453 94.4938 0)
(303.818 101.604 0)
(330.957 106.349 2.36944e-15)
(338.857 114.547 1.33644e-15)
(375.314 121.364 -1.56784e-15)
(383.081 130.311 1.70312e-16)
(438.355 142.818 0)
(446.256 149.714 1.52791e-15)
(582.502 198.393 -1.44394e-16)
(677.872 -6.4292 1.48717e-16)
(538.445 -104.909 1.68964e-18)
(457.277 -91.0607 0)
(391.264 -82.0528 0)
(358.883 -73.4108 0)
(321.122 -67.9993 -8.9149e-17)
(305.692 -63.0404 -2.65522e-17)
(281.386 -59.6256 1.27516e-16)
(271.126 -56.1019 -1.31769e-16)
(252.97 -53.4749 4.8035e-20)
(244.06 -50.597 0)
(229.67 -48.4203 -1.82117e-16)
(221.663 -46.0578 -1.68676e-16)
(210.161 -44.2228 -2.02997e-16)
(202.993 -42.2641 -2.00254e-16)
(193.641 -40.6733 2.24791e-16)
(187.213 -39.0353 0)
(179.477 -37.6667 -4.97918e-16)
(173.79 -36.2961 -5.14849e-16)
(167.513 -35.1619 2.74694e-16)
(162.769 -34.0831 0)
(157.988 -33.2293 3.02217e-16)
(154.459 -32.4821 0)
(151.221 -31.934 0)
(148.974 -31.4898 2.58456e-20)
(147.052 -31.1887 0)
(145.731 -30.9464 -2.59712e-20)
(144.56 -30.7475 0)
(143.663 -30.5682 -4.46696e-16)
(142.712 -30.3651 4.74482e-16)
(141.811 -30.1646 -5.03312e-16)
(140.734 -29.8997 0)
(139.625 -29.6532 -5.62394e-16)
(138.315 -29.3141 2.57555e-20)
(137.028 -29.0547 0)
(135.521 -28.6766 1.29337e-15)
(134.184 -28.4371 -6.71165e-16)
(132.639 -28.0433 0)
(131.478 -27.8977 -7.0719e-16)
(130.04 -27.506 -7.14852e-16)
(129.334 -27.5464 0)
(128.178 -27.1585 -7.02273e-16)
(128.267 -27.5263 -7.11456e-21)
(127.486 -27.0576 0)
(128.185 -27.8568 6.64239e-16)
(128.176 -27.1254 -6.71059e-16)
(103.229 19.5667 0)
(121.738 30.9136 -3.54832e-19)
(128.16 32.8797 0)
(132.153 35.8358 0)
(135.758 37.5667 0)
(138.591 38.8352 0)
(141.004 39.8629 1.1742e-19)
(143.19 40.79 -1.30026e-15)
(145.174 41.5976 -1.29635e-15)
(146.987 42.368 0)
(148.636 43.0771 0)
(150.112 43.7547 0)
(151.422 44.3695 -1.35291e-15)
(152.561 44.9508 1.38721e-15)
(153.57 45.4602 1.42651e-15)
(154.443 45.9498 0)
(155.271 46.3871 0)
(156.055 46.8236 0)
(156.897 47.2171 0)
(157.776 47.6654 7.30327e-20)
(158.823 48.0838 1.66085e-15)
(159.944 48.6163 3.39117e-15)
(161.332 49.1311 8.84336e-20)
(162.811 49.7902 -3.53948e-15)
(164.627 50.4113 1.81149e-15)
(166.516 51.2436 0)
(168.855 51.9865 -3.81329e-15)
(171.205 53.027 1.95934e-15)
(174.176 53.917 -1.46892e-19)
(177.057 55.197 0)
(180.777 56.2448 -2.13845e-15)
(184.246 57.843 0)
(188.913 59.0713 2.26657e-15)
(193.048 61.0522 -2.32377e-15)
(198.9 62.4696 2.39521e-15)
(203.753 64.9387 2.44144e-15)
(211.142 66.5819 0)
(216.777 69.646 0)
(226.154 71.5639 -5.1546e-15)
(232.635 75.4027 -2.58969e-15)
(244.7 77.6564 2.60164e-15)
(252.077 82.4659 8.93752e-19)
(267.808 85.1954 2.53521e-15)
(276.057 91.2346 0)
(296.744 94.6928 2.31982e-15)
(305.46 102.052 1.87895e-15)
(332.504 106.625 -1.88481e-15)
(340.939 115.146 0)
(377.063 121.71 0)
(385.356 130.907 -1.24515e-16)
(439.936 143.068 0)
(448.247 149.843 -1.14323e-15)
(582.959 197.578 5.86269e-17)
(677.418 -6.1425 -1.15319e-16)
(541.675 -104.461 2.06193e-16)
(466.408 -92.1994 0)
(401.681 -83.7895 0)
(368.266 -74.947 0)
(329.272 -69.4375 8.32869e-17)
(312.632 -64.2219 0)
(287.576 -60.7287 1.18395e-16)
(276.626 -57.0446 1.21731e-16)
(258.055 -54.3717 1.45701e-16)
(248.728 -51.394 0)
(234.071 -49.1877 1.67469e-16)
(225.772 -46.759 1.54718e-16)
(214.065 -44.8994 0)
(206.671 -42.892 1.83418e-16)
(197.148 -41.2783 -2.78058e-20)
(190.539 -39.6033 0)
(182.665 -38.2156 2.52723e-20)
(176.838 -36.82 4.71897e-16)
(170.459 -35.6748 2.51937e-16)
(165.624 -34.5851 -2.62352e-16)
(160.787 -33.7321 0)
(157.216 -32.9877 0)
(153.958 -32.4488 0)
(151.695 -32.0124 3.24755e-16)
(149.762 -31.7191 0)
(148.425 -31.4804 -3.65751e-16)
(147.235 -31.2819 -3.88993e-16)
(146.309 -31.0984 4.13635e-16)
(145.326 -30.888 0)
(144.386 -30.6775 4.66505e-16)
(143.269 -30.4007 0)
(142.118 -30.1423 5.21391e-16)
(140.768 -29.7908 5.48367e-16)
(139.44 -29.5207 -5.74714e-16)
(137.897 -29.1324 -5.9935e-16)
(136.524 -28.8861 6.21931e-16)
(134.952 -28.4856 -6.40776e-16)
(133.762 -28.3384 6.54574e-16)
(132.308 -27.9449 6.60789e-16)
(131.584 -27.9914 0)
(130.432 -27.6078 0)
(130.506 -27.9889 -6.31898e-16)
(129.722 -27.5151 0)
(130.386 -28.3361 0)
(130.287 -27.5541 6.15851e-16)
(103.108 18.9161 0)
(120.874 30.1331 -1.7514e-15)
(127.161 32.3505 0)
(131.217 35.4015 0)
(134.837 37.167 0)
(137.701 38.4698 0)
(140.164 39.5254 2.25104e-15)
(142.415 40.4808 0)
(144.473 41.3174 8.44526e-20)
(146.364 42.1178 0)
(148.088 42.8556 0)
(149.632 43.5603 0)
(151.001 44.1992 1.18789e-15)
(152.189 44.8015 -1.21597e-15)
(153.238 45.3282 1.24752e-15)
(154.145 45.8318 1.28073e-15)
(155.001 46.279 0)
(155.808 46.7232 0)
(156.673 47.1213 0)
(157.573 47.5736 1.40316e-15)
(158.643 47.9945 -1.43028e-15)
(159.789 48.5307 -2.91515e-15)
(161.205 49.0475 2.97296e-15)
(162.713 49.7115 1.51767e-15)
(164.561 50.3354 -3.10452e-15)
(166.484 51.1741 0)
(168.858 51.9199 3.2624e-15)
(171.246 52.9685 -1.67472e-15)
(174.254 53.8607 -1.72227e-15)
(177.174 55.1512 0)
(180.933 56.1999 -1.82204e-15)
(184.446 57.812 0)
(189.152 59.0385 1.92564e-15)
(193.336 61.0385 1.97064e-15)
(199.228 62.4499 0)
(204.138 64.9461 0)
(211.566 66.5761 2.1102e-15)
(217.27 69.6804 0)
(226.684 71.5737 2.1669e-15)
(233.254 75.4722 -2.16726e-15)
(245.349 77.6834 -4.35487e-15)
(252.847 82.582 2.12422e-15)
(268.595 85.2436 -2.10722e-15)
(277.014 91.4146 1.93783e-15)
(297.696 94.7744 -1.90021e-15)
(306.669 102.323 -1.52387e-15)
(333.651 106.762 1.4973e-15)
(342.464 115.517 0)
(378.319 121.875 0)
(386.922 131.214 9.1061e-17)
(441.029 143.125 0)
(449.69 149.742 4.43496e-16)
(583.239 196.674 4.89812e-17)
(676.929 -5.88489 0)
(543.867 -103.897 0)
(473.532 -92.9578 4.34352e-16)
(410.625 -85.2122 1.41682e-17)
(376.839 -76.3038 0)
(336.917 -70.7526 7.8159e-17)
(319.224 -65.3191 -2.33308e-17)
(293.484 -61.7607 -2.22041e-16)
(281.889 -57.9304 -5.68368e-17)
(262.929 -55.216 1.35958e-16)
(253.208 -52.1463 0)
(238.299 -49.9129 0)
(229.725 -47.4233 -1.43533e-16)
(217.826 -45.541 1.72804e-16)
(210.218 -43.4888 -1.70116e-16)
(200.536 -41.8538 -1.91191e-16)
(193.754 -40.1448 -1.94622e-16)
(185.75 -38.7396 2.1175e-16)
(179.791 -37.3211 -4.37979e-16)
(173.316 -36.1664 -2.3402e-16)
(168.396 -35.0678 2.43858e-16)
(163.508 -34.2167 0)
(159.898 -33.476 0)
(156.621 -32.9466 0)
(154.341 -32.518 3.03244e-16)
(152.395 -32.2319 0)
(151.038 -31.996 0)
(149.825 -31.797 3.64413e-16)
(148.867 -31.6086 3.87715e-16)
(147.848 -31.3899 0)
(146.868 -31.1688 0)
(145.709 -30.8795 0)
(144.513 -30.6088 -9.78584e-16)
(143.12 -30.2445 -5.1453e-16)
(141.75 -29.9637 1.07847e-15)
(140.171 -29.5649 0)
(138.762 -29.3119 5.83212e-16)
(137.161 -28.9047 6.00575e-16)
(135.941 -28.7557 0)
(134.472 -28.3607 0)
(133.729 -28.4132 0)
(132.578 -28.034 0)
(132.637 -28.427 0)
(131.843 -27.9476 0)
(132.469 -28.7872 0)
(132.277 -27.9557 5.71736e-16)
(102.991 18.2905 0)
(120.053 29.3721 1.5184e-15)
(126.215 31.8377 0)
(130.335 34.9793 8.88622e-16)
(133.973 36.7805 -9.38282e-16)
(136.866 38.1174 0)
(139.372 39.1987 -9.04601e-20)
(141.678 40.1793 0)
(143.801 41.0416 7.55256e-20)
(145.759 41.8689 -1.01322e-15)
(147.548 42.633 -1.02413e-15)
(149.15 43.3629 0)
(150.571 44.0241 1.05976e-15)
(151.802 44.6458 0)
(152.885 45.1884 -1.10985e-15)
(153.819 45.7045 -1.13697e-15)
(154.698 46.1601 -1.16363e-15)
(155.524 46.6105 0)