/*--------------------------------*- C++ -*----------------------------------*\
| =========                 |                                                 |
| \\      /  F ield         | OpenFOAM: The Open Source CFD Toolbox           |
|  \\    /   O peration     | Version:  2412                                  |
|   \\  /    A nd           | Website:  www.openfoam.com                      |
|    \\/     M anipulation  |                                                 |
\*---------------------------------------------------------------------------*/
FoamFile
{
    version     2.0;
    format      ascii;
    arch        "LSB;label=32;scalar=64";
    class       volScalarField;
    location    "0.1";
    object      epsilon;
}
// * * * * * * * * * * * * * * * * * * * * * * * * * * * * * * * * * * * * * //

dimensions      [0 2 -3 0 0 0 0];

internalField   nonuniform List<scalar> 
13068
(
559.119
662.702
601.553
526.143
483.078
463.885
456.93
454.609
454.07
454.36
455.266
456.686
458.578
460.931
463.721
466.973
470.671
474.86
479.552
484.806
490.649
497.166
504.369
512.435
521.241
531.316
541.976
554.757
567.767
584.19
600.479
621.894
642.613
671.514
698.534
739.2
775.122
834.713
884.343
971.918
1036.86
1158.78
1230.79
1378.27
1431.43
1591.52
1656.08
1941.94
2117.36
2452.67
2730.35
2697.84
4726.87
3435.09
2558.89
2254.98
1965.78
1559.82
1415.33
1206.55
1137.78
1003.29
949.134
868.321
833.244
786.301
766.62
733.526
722.097
698.87
685.475
664.52
648.316
628.439
610.762
592.003
576.246
561.579
549.232
538.231
528.835
521.009
513.182
506.607
499.276
493.304
485.816
479.92
472.239
466.303
458.866
452.67
446.256
439.605
435.376
429.108
428.178
426.622
417.197
556.117
658.852
599.517
525.594
483.175
464.178
457.254
454.919
454.359
454.632
455.525
456.934
458.821
461.171
463.962
467.216
470.921
475.118
479.821
485.088
490.947
497.482
504.706
512.797
521.63
531.738
542.433
555.255
568.311
584.785
601.137
622.623
643.427
672.425
699.562
740.356
776.436
836.162
885.978
973.637
1038.8
1160.67
1232.93
1380.25
1433.99
1593.89
1659.29
1943.15
2118.3
2447.52
2722.71
2682.69
4721.72
3452.72
2572.9
2257.1
1962.14
1556.99
1412.93
1205.86
1137.21
1003.11
949.028
868.724
833.651
786.967
767.171
734.081
722.52
699.237
685.81
664.91
648.712
628.925
611.237
592.496
576.706
562.023
549.635
538.603
529.166
521.309
513.45
506.846
499.49
493.496
485.995
480.078
472.391
466.426
458.988
452.758
446.339
439.655
435.405
429.119
428.144
426.582
417.204
553.156
655.05
597.512
525.064
483.281
464.476
457.582
455.232
454.653
454.906
455.786
457.185
459.065
461.413
464.204
467.461
471.171
475.376
480.09
485.369
491.244
497.796
505.04
513.155
522.014
532.153
542.881
555.744
568.841
585.365
601.775
623.33
644.215
673.304
700.553
741.467
777.694
837.547
887.53
975.262
1040.61
1162.42
1234.9
1382.01
1436.27
1595.9
1662
1943.75
2118.33
2441.17
2713.08
2663.91
4703.63
3459.27
2579.63
2253.87
1954.96
1552.11
1409.07
1204.17
1135.83
1002.35
948.451
868.751
833.754
787.374
767.501
734.448
722.769
699.454
686.009
665.183
649.005
629.319
611.629
592.918
577.101
562.409
549.986
538.93
529.457
521.575
513.686
507.058
499.679
493.666
486.153
480.217
472.525
466.535
459.095
452.833
446.41
439.694
435.425
429.121
428.105
426.539
417.208
550.239
651.294
595.531
524.543
483.39
464.775
457.911
455.545
454.946
455.181
456.046
457.435
459.309
461.653
464.444
467.703
471.418
475.63
480.353
485.644
491.533
498.101
505.364
513.501
522.384
532.553
543.311
556.214
569.349
585.919
602.383
624.002
644.962
674.135
701.487
742.514
778.872
838.841
888.968
976.758
1042.27
1163.99
1236.62
1383.5
1438.19
1597.51
1664.16
1943.7
2117.41
2433.59
2701.47
2641.56
4672.36
3454.45
2578.86
2245.23
1944.22
1545.18
1403.77
1201.49
1133.64
1001.01
947.396
868.388
833.541
787.509
767.596
734.615
722.831
699.509
686.059
665.324
649.182
629.61
611.928
593.257
577.421
562.727
550.277
539.205
529.701
521.798
513.885
507.235
499.836
493.807
486.284
480.332
472.637
466.622
459.182
452.888
446.463
439.716
435.428
429.11
428.054
426.487
417.206
547.367
647.582
593.569
524.027
483.499
465.072
458.237
455.857
455.237
455.453
456.305
457.683
459.55
461.89
464.68
467.94
471.659
475.878
480.609
485.91
491.812
498.395
505.675
513.832
522.737
532.933
543.719
556.658
569.826
586.441
602.953
624.63
645.66
674.909
702.354
743.484
779.956
840.03
890.276
978.107
1043.73
1165.35
1238.09
1384.69
1439.74
1598.69
1665.75
1942.98
2115.51
2424.82
2687.95
2615.77
4627.88
3438.09
2570.43
2231.2
1929.97
1536.27
1397.08
1197.84
1130.66
999.098
945.872
867.638
833.015
787.369
767.455
734.577
722.704
699.397
685.957
665.33
649.237
629.79
612.127
593.506
577.66
562.974
550.504
539.423
529.893
521.975
514.041
507.374
499.959
493.916
486.386
480.419
472.722
466.684
459.245
452.921
446.493
439.717
435.41
429.078
427.984
426.417
417.19
544.537
643.911
591.625
523.514
483.606
465.366
458.562
456.167
455.527
455.724
456.561
457.927
459.787
462.122
464.911
468.171
471.894
476.117
480.856
486.166
492.079
498.675
505.971
514.145
523.071
533.291
544.101
557.074
570.271
586.927
603.48
625.211
646.302
675.62
703.147
744.368
780.938
841.103
891.441
979.298
1045
1166.49
1239.28
1385.59
1440.9
1599.44
1666.75
1941.62
2112.68
2414.94
2672.64
2586.73
4570.36
3410.18
2554.28
2211.83
1912.33
1525.46
1389.07
1193.28
1126.94
996.64
943.902
866.513
832.185
786.957
767.083
734.336
722.391
699.121
685.704
665.201
649.172
629.858
612.226
593.664
577.817
563.146
550.664
539.582
530.032
522.105
514.154
507.475
500.045
493.991
486.456
480.476
472.779
466.718
459.28
452.928
446.496
439.693
435.367
429.023
427.891
426.325
417.156
541.748
640.28
589.697
523.004
483.711
465.659
458.884
456.474
455.814
455.991
456.814
458.168
460.02
462.35
465.136
468.396
472.12
476.347
481.092
486.41
492.333
498.94
506.25
514.439
523.383
533.624
544.457
557.459
570.681
587.374
603.961
625.741
646.884
676.264
703.861
745.163
781.813
842.055
892.458
980.325
1046.07
1167.41
1240.2
1386.18
1441.67
1599.77
1667.18
1939.65
2108.97
2404.05
2655.71
2554.69
4500.16
3370.86
2530.42
2187.26
1891.42
1512.89
1379.83
1187.86
1122.52
993.668
941.513
865.03
831.066
786.284
766.489
733.899
721.899
698.686
685.304
664.939
648.987
629.815
612.224
593.73
577.891
563.244
550.756
539.681
530.118
522.186
514.223
507.535
500.094
494.032
486.493
480.502
472.805
466.724
459.287
452.907
446.471
439.641
435.295
428.939
427.769
426.205
417.099
538.997
636.687
587.784
522.498
483.815
465.949
459.204
456.78
456.098
456.256
457.063
458.405
460.249
462.572
465.355
468.613
472.339
476.568
481.318
486.642
492.573
499.19
506.511
514.714
523.672
533.932
544.784
557.812
571.054
587.779
604.394
626.219
647.404
676.839
704.495
745.865
782.578
842.883
893.323
981.185
1046.92
1168.11
1240.83
1386.48
1442.06
1599.71
1667.07
1937.11
2104.43
2392.25
2637.3
2519.92
4417.84
3320.4
2498.96
2157.69
1867.43
1498.68
1369.47
1181.64
1117.47
990.222
938.741
863.213
829.677
785.363
765.685
733.274
721.236
698.099
684.764
664.549
648.686
629.662
612.124
593.705
577.884
563.267
550.783
539.722
530.151
522.219
514.248
507.554
500.105
494.038
486.497
480.497
472.8
466.7
459.263
452.856
446.415
439.559
435.191
428.824
427.616
426.053
417.014
536.283
633.129
585.887
521.993
483.918
466.236
459.521
457.082
456.38
456.518
457.31
458.638
460.473
462.789
465.567
468.823
472.549
476.78
481.533
486.862
492.799
499.423
506.754
514.968
523.939
534.214
545.082
558.132
571.391
588.143
604.779
626.643
647.861
677.344
705.046
746.473
783.232
843.585
894.034
981.878
1047.57
1168.59
1241.18
1386.5
1442.09
1599.28
1666.44
1934.07
2099.14
2379.67
2617.63
2482.75
4324.13
3259.24
2460.1
2123.37
1840.57
1483
1358.11
1174.72
1111.85
986.349
935.622
861.089
828.04
784.209
764.685
732.472
720.414
697.367
684.092
664.037
648.276
629.404
611.929
593.592
577.797
563.219
550.744
539.705
530.132
522.205
514.229
507.535
500.08
494.009
486.468
480.46
472.765
466.646
459.209
452.775
446.327
439.445
435.054
428.676
427.427
425.866
416.9
533.604
629.607
584.004
521.492
484.019
466.522
459.837
457.383
456.659
456.776
457.552
458.867
460.692
463
465.773
469.026
472.75
476.981
481.737
487.068
493.011
499.64
506.979
515.201
524.182
534.47
545.351
558.418
571.689
588.465
605.116
627.013
648.255
677.779
705.514
746.988
783.774
844.162
894.594
982.406
1048.01
1168.85
1241.27
1386.24
1441.76
1598.5
1665.32
1930.56
2093.17
2366.43
2596.87
2443.5
4219.92
3187.93
2414.11
2084.61
1811.09
1466.01
1345.87
1167.18
1105.73
982.096
932.199
858.688
826.181
782.843
763.506
731.507
719.446
696.503
683.299
663.411
647.762
629.045
611.642
593.395
577.634
563.1
550.644
539.633
530.063
522.145
514.17
507.477
500.019
493.947
486.407
480.391
472.698
466.561
459.123
452.664
446.207
439.299
434.882
428.492
427.201
425.639
416.752
530.958
626.118
582.135
520.992
484.119
466.805
460.149
457.681
456.936
457.032
457.791
459.092
460.906
463.205
465.973
469.221
472.943
477.173
481.929
487.262
493.208
499.841
507.185
515.414
524.403
534.7
545.59
558.672
571.951
588.745
605.405
627.329
648.587
678.144
705.9
747.411
784.207
844.617
895.007
982.773
1048.25
1168.91
1241.09
1385.74
1441.11
1597.41
1663.76
1926.66
2086.61
2352.65
2575.23
2402.54
4106.3
3107.17
2361.37
2041.77
1779.27
1447.89
1332.89
1159.1
1099.19
977.517
928.515
856.042
824.125
781.286
762.166
730.393
718.346
695.518
682.395
662.679
647.153
628.592
611.271
593.118
577.399
562.917
550.484
539.509
529.947
522.043
514.07
507.382
499.924
493.852
486.314
480.293
472.601
466.447
459.007
452.522
446.055
439.121
434.675
428.272
426.936
425.372
416.57
528.345
622.662
580.28
520.496
484.218
467.086
460.46
457.976
457.209
457.285
458.027
459.313
461.115
463.405
466.166
469.408
473.127
477.355
482.11
487.443
493.391
500.026
507.373
515.606
524.6
534.904
545.801
558.892
572.176
588.984
605.648
627.592
648.858
678.442
706.206
747.746
784.534
844.955
895.276
982.988
1048.3
1168.77
1240.68
1384.99
1440.16
1596.04
1661.8
1922.41
2079.55
2338.47
2552.91
2360.23
3984.45
3017.79
2302.35
1995.28
1745.43
1428.85
1319.3
1150.58
1092.31
972.667
924.615
853.186
821.9
779.56
760.686
729.149
717.131
694.426
681.394
661.852
646.457
628.053
610.821
592.768
577.097
562.671
550.27
539.335
529.786
521.899
513.933
507.253
499.796
493.726
486.191
480.165
472.476
466.304
458.862
452.35
445.87
438.91
434.432
428.016
426.632
425.064
416.352
525.762
619.237
578.438
520.001
484.315
467.365
460.768
458.269
457.48
457.534
458.259
459.53
461.32
463.599
466.352
469.588
473.302
477.527
482.28
487.612
493.559
500.195
507.544
515.778
524.775
535.083
545.984
559.082
572.366
589.183
605.846
627.805
649.071
678.676
706.437
747.996
784.76
845.18
895.411
983.058
1048.18
1168.46
1240.05
1384.04
1438.93
1594.43
1659.49
1917.89
2072.09
2324.01
2530.11
2316.97
3855.72
2920.72
2237.59
1945.58
1709.89
1409.06
1305.25
1141.72
1085.16
967.6
920.545
850.157
819.536
777.691
759.086
727.791
715.817
693.24
680.307
660.942
645.685
627.437
610.301
592.351
576.735
562.37
550.006
539.116
529.586
521.718
513.762
507.092
499.638
493.571
486.041
480.01
472.322
466.133
458.687
452.15
445.654
438.667
434.155
427.724
426.288
424.713
416.097
523.208
615.844
576.609
519.509
484.412
467.642
461.073
458.559
457.748
457.78
458.487
459.742
461.519
463.788
466.532
469.761
473.469
477.689
482.439
487.769
493.715
500.349
507.698
515.932
524.929
535.238
546.141
559.242
572.523
589.344
606.001
627.971
649.229
678.849
706.596
748.166
784.891
845.302
895.421
982.994
1047.89
1167.98
1239.21
1382.91
1437.46
1592.6
1656.88
1913.15
2064.3
2309.39
2507.03
2273.13
3721.49
2816.99
2167.72
1893.18
1673
1388.72
1290.87
1132.61
1077.83
962.372
916.351
846.99
817.062
775.703
757.388
726.338
714.421
691.976
679.149
659.96
644.848
626.753
609.719
591.874
576.32
562.018
549.697
538.857
529.349
521.504
513.56
506.903
499.453
493.39
485.865
479.83
472.144
465.938
458.486
451.922
445.409
438.394
433.844
427.397
425.906
424.322
415.806
520.684
612.48
574.794
519.019
484.506
467.916
461.376
458.846
458.013
458.023
458.712
459.95
461.714
463.971
466.705
469.926
473.628
477.842
482.588
487.914
493.857
500.489
507.835
516.068
525.063
535.371
546.272
559.373
572.648
589.471
606.117
628.091
649.336
678.965
706.689
748.263
784.936
845.328
895.315
982.809
1047.46
1167.36
1238.19
1381.61
1435.79
1590.61
1654.02
1908.26
2056.29
2294.74
2483.87
2229.08
3583.26
2707.73
2093.43
1838.6
1635.11
1368.04
1276.3
1123.35
1070.38
957.04
912.076
843.723
814.507
773.623
755.615
724.808
712.961
690.65
677.933
658.92
643.956
626.011
609.084
591.345
575.857
561.623
549.348
538.562
529.08
521.26
513.331
506.687
499.243
493.185
485.666
479.627
471.942
465.718
458.26
451.67
445.136
438.092
433.501
427.037
425.487
423.891
415.481
518.187
609.147
572.99
518.53
484.6
468.188
461.676
459.131
458.275
458.263
458.933
460.154
461.904
464.149
466.873
470.085
473.779
477.987
482.728
488.049
493.987
500.615
507.958
516.187
525.178
535.483
546.381
559.479
572.745
589.566
606.197
628.171
649.397
679.029
706.722
748.294
784.901
845.267
895.106
982.515
1046.89
1166.6
1237.02
1380.17
1433.94
1588.48
1650.97
1903.26
2048.13
2280.16
2460.78
2185.19
3442.53
2594.11
2015.47
1782.39
1596.58
1347.19
1261.67
1114.02
1062.89
951.654
907.763
840.392
811.902
771.477
753.786
723.223
711.454
689.276
676.675
657.833
643.021
625.222
608.405
590.774
575.356
561.19
548.967
538.238
528.785
520.99
513.079
506.45
499.013
492.96
485.446
479.404
471.719
465.478
458.012
451.394
444.837
437.765
433.13
426.646
425.035
423.423
415.122
515.718
605.843
571.199
518.044
484.691
468.457
461.973
459.412
458.534
458.499
459.15
460.354
462.089
464.321
467.035
470.237
473.923
478.124
482.858
488.173
494.107
500.729
508.067
516.291
525.277
535.577
546.469
559.562
572.816
589.631
606.245
628.214
649.417
679.048
706.702
748.265
784.797
845.131
894.808
982.126
1046.21
1165.74
1235.71
1378.63
1431.95
1586.26
1647.77
1898.23
2039.92
2265.76
2437.95
2141.78
3300.78
2477.34
1934.66
1725.11
1557.78
1326.36
1247.11
1104.71
1055.42
946.267
903.454
837.03
809.272
769.289
751.925
721.599
709.918
687.87
675.389
656.713
642.054
624.396
607.692
590.168
574.823
560.728
548.56
537.889
528.467
520.7
512.807
506.195
498.765
492.718
485.21
479.164
471.479
465.22
457.745
451.098
444.517
437.413
432.731
426.227
424.55
422.92
414.732
513.276
602.567
569.421
517.56
484.781
468.724
462.267
459.691
458.79
458.732
459.363
460.55
462.27
464.489
467.191
470.383
474.061
478.254
482.981
488.289
494.216
500.832
508.164
516.381
525.36
535.653
546.538
559.624
572.864
589.671
606.264
628.225
649.401
679.026
706.636
748.185
784.634
844.929
894.432
981.658
1045.43
1164.8
1234.31
1377.01
1429.85
1583.98
1644.47
1893.21
2031.73
2251.63
2415.52
2099.18
3159.46
2358.68
1851.83
1667.3
1519.05
1305.72
1232.73
1095.49
1048.04
940.924
899.186
833.672
806.645
767.084
750.051
719.956
708.368
686.449
674.087
655.572
641.067
623.544
606.955
589.536
574.267
560.242
548.132
537.521
528.133
520.394
512.52
505.925
498.503
492.462
484.96
478.909
471.223
464.947
457.46
450.785
444.176
437.041
432.309
425.783
424.037
422.385
414.314
510.86
599.321
567.655
517.077
484.869
468.988
462.558
459.966
459.043
458.962
459.573
460.742
462.447
464.652
467.342
470.524
474.192
478.376
483.096
488.396
494.316
500.925
508.25
516.459
525.43
535.715
546.59
559.668
572.892
589.69
606.259
628.208
649.354
678.97
706.531
748.062
784.42
844.673
893.994
981.126
1044.58
1163.78
1232.82
1375.32
1427.69
1581.68
1641.13
1888.25
2023.64
2237.86
2393.63
2057.66
3019.96
2239.36
1767.83
1609.52
1480.71
1285.41
1218.64
1086.44
1040.81
935.669
894.993
830.347
804.046
764.885
748.185
718.312
706.822
685.025
672.784
654.423
640.071
622.677
606.203
588.887
573.695
559.741
547.69
537.14
527.787
520.076
512.222
505.644
498.231
492.195
484.698
478.643
470.956
464.661
457.162
450.458
443.819
436.652
431.867
425.317
423.5
421.823
413.871
508.471
596.103
565.901
516.596
484.955
469.249
462.846
460.238
459.292
459.188
459.779
460.93
462.62
464.81
467.489
470.659
474.318
478.493
483.204
488.496
494.408
501.009
508.326
516.527
525.489
535.765
546.629
559.696
572.903
589.69
606.233
628.169
649.283
678.886
706.394
747.904
784.166
844.374
893.505
980.543
1043.67
1162.71
1231.28
1373.61
1425.49
1579.37
1637.79
1883.38
2015.71
2224.52
2372.39
2017.47
2883.54
2120.57
1683.5
1552.27
1443.08
1265.59
1204.92
1077.63
1033.77
930.542
890.907
827.083
801.497
762.714
746.342
716.682
705.293
683.612
671.491
653.277
639.076
621.803
605.444
588.23
573.115
559.23
547.239
536.751
527.434
519.751
511.918
505.356
497.952
491.921
484.429
478.369
470.679
464.365
456.852
450.118
443.448
436.248
431.409
424.833
422.942
421.237
413.406
506.107
592.914
564.159
516.117
485.039
469.506
463.131
460.507
459.538
459.411
459.982
461.115
462.789
464.965
467.631
470.79
474.438
478.604
483.306
488.59
494.494
501.086
508.394
516.586
525.538
535.804
546.657
559.713
572.901
589.675
606.191
628.111
649.191
678.78
706.233
747.719
783.883
844.042
892.981
979.924
1042.72
1161.61
1229.71
1371.89
1423.28
1577.1
1634.48
1878.66
2007.99
2211.66
2351.89
1978.83
2751.32
2003.48
1599.7
1496.04
1406.41
1246.38
1191.67
1069.1
1026.97
925.576
886.955
823.906
799.017
760.589
744.541
715.082
703.795
682.223
670.22
652.145
638.091
620.933
604.688
587.571
572.534
558.716
546.787
536.359
527.078
519.422
511.61
505.066
497.669
491.642
484.155
478.09
470.396
464.062
456.535
449.77
443.067
435.833
430.937
424.334
422.367
420.632
412.923
503.769
589.754
562.43
515.639
485.121
469.761
463.412
460.773
459.781
459.631
460.182
461.296
462.954
465.116
467.769
470.916
474.554
478.71
483.403
488.678
494.573
501.157
508.455
516.638
525.579
535.835
546.676
559.719
572.889
589.649
606.137
628.04
649.084
678.658
706.055
747.516
783.578
843.689
892.433
979.284
1041.75
1160.5
1228.13
1370.18
1421.09
1574.9
1631.25
1874.11
2000.55
2199.35
2332.23
1941.89
2624.28
1889.14
1517.19
1441.27
1370.97
1227.88
1178.96
1060.91
1020.45
920.8
883.159
820.838
796.626
758.528
742.795
713.525
702.34
680.869
668.981
651.036
637.126
620.075
603.942
586.918
571.957
558.205
546.337
535.97
526.725
519.095
511.303
504.775
497.386
491.363
483.88
477.808
470.11
463.756
456.212
449.417
442.678
435.409
430.455
423.824
421.778
420.011
412.425
501.457
586.623
560.714
515.164
485.2
470.012
463.69
461.035
460.02
459.847
460.378
461.474
463.116
465.263
467.904
471.039
474.667
478.813
483.496
488.762
494.648
501.222
508.512
516.684
525.615
535.859
546.687
559.719
572.868
589.615
606.075
627.959
648.968
678.525
705.866
747.3
783.261
843.323
891.874
978.634
1040.78
1159.39
1226.56
1368.5
1418.95
1572.77
1628.13
1869.76
1993.41
2187.62
2313.46
1906.79
2503.23
1778.53
1436.74
1388.35
1336.95
1210.18
1166.83
1053.09
1014.23
916.24
879.54
817.896
794.338
756.546
741.117
712.023
700.938
679.56
667.783
649.96
636.189
619.237
603.213
586.278
571.392
557.703
545.895
535.586
526.377
518.772
511
504.487
497.105
491.085
483.605
477.526
469.823
463.448
455.887
449.06
442.285
434.981
429.966
423.306
421.181
419.379
411.916
499.17
583.52
559.011
514.69
485.278
470.26
463.965
461.294
460.256
460.06
460.572
461.649
463.275
465.408
468.035
471.159
474.776
478.912
483.586
488.842
494.719
501.284
508.564
516.726
525.646
535.879
546.695
559.713
572.843
589.576
606.007
627.873
648.847
678.388
705.672
747.079
782.941
842.954
891.315
977.987
1039.81
1158.3
1225.03
1366.87
1416.88
1570.74
1625.15
1865.63
1986.61
2176.5
2295.62
1873.64
2388.78
1672.47
1358.99
1337.61
1304.53
1193.34
1155.33
1045.68
1008.34
911.913
876.112
815.097
792.164
754.656
739.516
710.586
699.598
678.305
666.634
648.923
635.286
618.426
602.508
585.657
570.844
557.214
545.466
535.214
526.039
518.458
510.704
504.205
496.829
490.81
483.333
477.247
469.537
463.141
455.562
448.703
441.89
434.55
429.475
422.785
420.579
418.739
411.4
496.908
580.447
557.322
514.219
485.353
470.505
464.236
461.549
460.49
460.271
460.762
461.821
463.431
465.549
468.164
471.276
474.882
479.008
483.673
488.92
494.788
501.343
508.614
516.766
525.674
535.897
546.699
559.706
572.816
589.535
605.938
627.786
648.725
678.249
705.478
746.86
782.624
842.589
890.765
977.352
1038.86
1157.24
1223.54
1365.31
1414.89
1568.83
1622.32
1861.74
1980.19
2165.99
2278.76
1842.48
2281.38
1571.68
1284.52
1289.32
1273.83
1177.44
1144.5
1038.69
1002.8
907.835
872.886
812.452
790.116
752.867
738.002
709.222
698.326
677.109
665.54
647.932
634.423
617.646
601.831
585.059
570.316
556.743
545.052
534.855
525.714
518.154
510.417
503.931
496.561
490.543
483.067
476.972
469.256
462.838
455.239
448.347
441.497
434.12
428.983
422.262
419.974
418.097
410.88
494.672
577.403
555.646
513.749
485.426
470.746
464.503
461.802
460.719
460.478
460.949
461.99
463.584
465.688
468.29
471.39
474.986
479.102
483.757
488.996
494.854
501.401
508.661
516.804
525.701
535.914
546.703
559.697
572.789
589.495
605.87
627.7
648.606
678.115
705.291
746.647
782.317
842.237
890.233
976.74
1037.95
1156.22
1222.11
1363.82
1413
1567.05
1619.68
1858.09
1974.15
2156.13
2262.87
1813.34
2181.31
1476.69
1213.8
1243.69
1244.96
1162.48
1134.36
1032.15
997.621
904.017
869.87
809.97
788.199
751.186
736.581
707.938
697.129
675.979
664.505
646.992
633.604
616.904
601.187
584.49
569.814
556.293
544.657
534.512
525.403
517.862
510.142
503.668
496.301
490.283
482.808
476.704
468.98
462.539
454.921
447.996
441.106
433.693
428.494
421.742
419.372
417.454
410.359
492.461
574.389
553.983
513.282
485.497
470.984
464.767
462.051
460.946
460.682
461.134
462.156
463.735
465.825
468.414
471.503
475.088
479.194
483.84
489.07
494.919
501.457
508.709
516.842
525.728
535.93
546.708
559.69
572.763
589.457
605.806
627.618
648.493
677.988
705.113
746.446
782.026
841.903
889.727
976.158
1037.08
1155.25
1220.75
1362.42
1411.23
1565.41
1617.22
1854.71
1968.51
2146.89
2247.97
1786.21
2088.68
1387.89
1147.21
1200.86
1217.96
1148.51
1124.9
1026.05
992.798
900.462
867.069
807.657
786.419
749.621
735.257
706.738
696.01
674.919
663.534
646.107
632.834
616.202
600.58
583.951
569.339
555.867
544.284
534.189
525.109
517.586
509.88
503.416
496.053
490.033
482.558
476.444
468.711
462.247
454.609
447.65
440.721
433.271
428.009
421.225
418.773
416.816
409.841
490.275
571.405
552.335
512.818
485.566
471.218
465.028
462.296
461.17
460.883
461.316
462.32
463.883
465.959
468.536
471.613
475.188
479.285
483.922
489.143
494.984
501.514
508.756
516.88
525.757
535.949
546.715
559.686
572.742
589.425
605.747
627.544
648.389
677.872
704.949
746.261
781.755
841.592
889.253
975.612
1036.26
1154.34
1219.47
1361.11
1409.58
1563.92
1614.97
1851.59
1963.27
2138.28
2234.03
1761.08
2003.45
1305.52
1084.99
1160.92
1192.87
1135.51
1116.14
1020.4
988.337
897.174
864.483
805.515
784.778
748.173
734.033
705.625
694.971
673.931
662.629
645.279
632.114
615.543
600.011
583.446
568.894
555.467
543.935
533.886
524.835
517.327
509.634
503.178
495.817
489.794
482.318
476.193
468.45
461.963
454.304
447.312
440.344
432.856
427.532
420.716
418.182
416.183
409.327
488.114
568.451
550.702
512.356
485.632
471.449
465.285
462.538
461.39
461.082
461.495
462.482
464.03
466.092
468.656
471.723
475.287
479.375
484.004
489.216
495.049
501.57
508.804
516.92
525.787
535.97
546.724
559.685
572.725
589.398
605.696
627.478
648.296
677.768
704.801
746.095
781.508
841.309
888.815
975.108
1035.5
1153.49
1218.28
1359.9
1408.06
1562.58
1612.92
1848.72
1958.44
2130.27
2221.04
1737.87
1925.47
1229.67
1027.3
1123.9
1169.68
1123.49
1108.06
1015.2
984.232
894.15
862.11
803.545
783.276
746.843
732.91
704.601
694.014
673.017
661.791
644.511
631.446
614.93
599.483
582.977
568.481
555.094
543.61
533.605
524.58
517.085
509.403
502.955
495.594
489.567
482.089
475.952
468.199
461.689
454.009
446.983
439.974
432.449
427.063
420.216
417.601
415.56
408.82
485.979
565.527
549.083
511.897
485.696
471.677
465.538
462.778
461.608
461.278
461.672
462.642
464.174
466.223
468.775
471.831
475.386
479.465
484.085
489.289
495.114
501.628
508.854
516.961
525.819
535.994
546.738
559.69
572.715
589.379
605.654
627.423
648.216
677.68
704.672
745.949
781.289
841.056
888.418
974.65
1034.79
1152.72
1217.18
1358.79
1406.67
1561.38
1611.08
1846.11
1953.99
2122.85
2208.97
1716.53
1854.48
1160.3
974.194
1089.79
1148.37
1112.43
1100.64
1010.42
980.474
891.385
859.946
801.746
781.912
745.632
731.887
703.666
693.139
672.177
661.021
643.801
630.83
614.362
598.997
582.544
568.1
554.751
543.311
533.347
524.345
516.861
509.189
502.746
495.385
489.352
481.872
475.722
467.959
461.424
453.723
446.663
439.614
432.052
426.605
419.726
417.031
414.948
408.323
483.869
562.634
547.48
511.442
485.759
471.902
465.788
463.013
461.823
461.471
461.847
462.799
464.317
466.352
468.893
471.938
475.484
479.554
484.166
489.363
495.181
501.687
508.905
517.005
525.855
536.022
546.757
559.7
572.711
589.368
605.623
627.38
648.15
677.608
704.562
745.828
781.098
840.837
888.064
974.239
1034.15
1152.01
1216.18
1357.79
1405.43
1560.34
1609.45
1843.75
1949.93
2115.99
2197.77
1696.95
1790.17
1097.26
925.63
1058.53
1128.87
1102.28
1093.87
1006.07
977.052
888.872
857.986
800.112
780.682
744.538
730.963
702.818
692.344
671.411
660.317
643.151
630.267
613.841
598.552
582.148
567.753
554.437
543.038
533.112
524.132
516.656
508.992
502.553
495.19
489.151
481.667
475.504
467.73
461.17
453.447
446.354
439.265
431.666
426.158
419.247
416.473
414.349
407.836
481.785
559.772
545.891
510.989
485.82
472.123
466.035
463.246
462.035
461.662
462.019
462.955
464.458
466.48
469.01
472.045
475.581
479.643
484.248
489.438
495.248
501.748
508.959
517.053
525.894
536.055
546.781
559.717
572.716
589.366
605.602
627.349
648.099
677.554
704.475
745.73
780.938
840.652
887.755
973.879
1033.58
1151.38
1215.27
1356.89
1404.31
1559.44
1608.02
1841.63
1946.24
2109.67
2187.41
1679.05
1732.13
1040.29
881.496
1030.03
1111.13
1093.03
1087.71
1002.12
973.95
886.601
856.22
798.639
779.582
743.556
730.134
702.055
691.627
670.716
659.679
642.559
629.755
613.365
598.149
581.788
567.439
554.151
542.792
532.9
523.939
516.47
508.812
502.375
495.01
488.963
481.474
475.297
467.511
460.927
453.183
446.055
438.927
431.291
425.724
418.782
415.93
413.765
407.361
479.726
556.942
544.319
510.54
485.879
472.341
466.279
463.476
462.244
461.85
462.189
463.108
464.598
466.607
469.126
472.151
475.678
479.733
484.33
489.513
495.317
501.811
509.015
517.103
525.938
536.092
546.811
559.741
572.728
589.374
605.592
627.331
648.064
677.517
704.409
745.658
780.809
840.503
887.491
973.568
1033.08
1150.81
1214.46
1356.1
1403.33
1558.69
1606.79
1839.73
1942.9
2103.85
2177.83
1662.72
1679.93
989.072
841.616
1004.17
1095.05
1084.61
1082.13
998.549
971.153
884.561
854.64
797.319
778.606
742.682
729.398
701.374
690.985
670.09
659.104
642.024
629.293
612.933
597.786
581.464
567.156
553.894
542.57
532.71
523.767
516.303
508.649
502.212
494.843
488.788
481.294
475.102
467.304
460.696
452.929
445.768
438.601
430.928
425.302
418.33
415.402
413.196
406.9
477.692
554.142
542.763
510.095
485.936
472.556
466.519
463.703
462.45
462.036
462.357
463.26
464.736
466.733
469.241
472.256
475.775
479.822
484.412
489.59
495.387
501.876
509.074
517.156
525.985
536.134
546.846
559.771
572.749
589.391
605.593
627.327
648.045
677.499
704.365
745.61
780.711
840.388
887.272
973.308
1032.63
1150.32
1213.75
1355.41
1402.48
1558.07
1605.74
1838.05
1939.89
2098.49
2168.98
1647.84
1633.14
943.241
805.767
980.811
1080.55
1076.99
1077.1
995.337
968.64
882.737
853.234
796.145
777.748
741.911
728.749
700.772
690.415
669.531
658.589
641.542
628.878
612.544
597.462
581.175
566.905
553.665
542.374
532.543
523.615
516.153
508.502
502.065
494.691
488.625
481.126
474.919
467.109
460.475
452.687
445.492
438.286
430.578
424.894
417.891
414.889
412.643
406.452
475.683
551.374
541.222
509.653
485.992
472.768
466.756
463.927
462.654
462.22
462.524
463.411
464.873
466.857
469.355
472.361
475.872
479.912
484.496
489.667
495.459
501.943
509.136
517.213
526.037
536.181
546.887
559.808
572.777
589.418
605.606
627.335
648.042
677.499
704.343
745.588
780.644
840.308
887.097
973.096
1032.26
1149.9
1213.12
1354.81
1401.75
1557.58
1604.87
1836.58
1937.19
2093.57
2160.82
1634.3
1591.28
902.388
773.692
959.79
1067.51
1070.12
1072.57
992.459
966.393
881.118
851.993
795.107
777.001
741.237
728.181
700.243
689.912
669.034
658.131
641.112
628.509
612.196
597.174
580.92
566.684
553.463
542.201
532.396
523.482
516.02
508.371
501.931
494.552
488.476
480.97
474.747
466.924
460.266
452.456
445.228
437.984
430.24
424.499
417.467
414.393
412.107
406.018
473.7
548.638
539.698
509.216
486.046
472.977
466.991
464.148
462.856
462.401
462.688
463.559
465.008
466.981
469.469
472.466
475.969
480.002
484.58
489.746
495.533
502.012
509.201
517.274
526.092
536.233
546.934
559.852
572.814
589.454
605.63
627.356
648.054
677.516
704.342
745.589
780.607
840.262
886.965
972.932
1031.94
1149.55
1212.58
1354.3
1401.14
1557.21
1604.17
1835.28
1934.78
2089.05
2153.28
1621.99
1553.91
866.095
745.114
940.945
1055.84
1063.94
1068.52
989.891
964.393
879.688
850.903
794.196
776.356
740.652
727.691
699.784
689.473
668.596
657.727
640.73
628.183
611.886
596.921
580.695
566.491
553.286
542.051
532.269
523.367
515.904
508.255
501.812
494.426
488.338
480.825
474.587
466.751
460.067
452.235
444.974
437.693
429.913
424.118
417.057
413.912
411.588
405.599
471.742
545.933
538.191
508.783
486.099
473.184
467.222
464.366
463.055
462.581
462.85
463.707
465.142
467.104
469.582
472.57
476.066
480.093
484.665
489.826
495.608
502.083
509.268
517.337
526.152
536.29
546.987
559.902
572.859
589.498
605.664
627.389
648.08
677.55
704.362
745.614
780.597
840.247
886.873
972.812
1031.68
1149.25
1212.12
1353.88
1400.63
1556.95
1603.62
1834.16
1932.63
2084.9
2146.32
1610.8
1520.58
833.94
719.745
924.106
1045.42
1058.39
1064.9
987.607
962.618
878.432
849.953
793.403
775.807
740.151
727.271
699.388
689.092
668.214
657.373
640.392
627.896
611.612
596.701
580.5
566.325
553.132
541.922
532.162
523.269
515.804
508.153
501.705
494.312
488.212
480.691
474.436
466.587
459.878
452.025
444.732
437.413
429.599
423.75
416.661
413.447
411.086
405.194
469.81
543.26
536.701
508.354
486.152
473.387
467.451
464.582
463.252
462.758
463.011
463.852
465.275
467.226
469.694
472.674
476.164
480.184
484.751
489.907
495.685
502.156