/*--------------------------------*- C++ -*----------------------------------*\
| =========                 |                                                 |
| \\      /  F ield         | OpenFOAM: The Open Source CFD Toolbox           |
|  \\    /   O peration     | Version:  2412                                  |
|   \\  /    A nd           | Website:  www.openfoam.com                      |
|    \\/     M anipulation  |                                                 |
\*---------------------------------------------------------------------------*/
FoamFile
{
    version     2.0;
    format      ascii;
    arch        "LSB;label=32;scalar=64";
    class       volScalarField;
    location    "0.1";
    object      k;
}
// * * * * * * * * * * * * * * * * * * * * * * * * * * * * * * * * * * * * * //

dimensions      [0 2 -2 0 0 0 0];

internalField   nonuniform List<scalar> 
13068
(
47.0579
50.8369
47.1945
43.8927
42.3362
41.7231
41.5199
41.4524
41.4412
41.4616
41.5097
41.5822
41.6772
41.7944
41.9323
42.0922
42.273
42.4768
42.7039
42.9569
43.2367
43.5468
43.8874
44.2661
44.6762
45.1418
45.6296
46.2097
46.7927
47.5227
48.2343
49.1625
50.0397
51.255
52.3558
53.9992
55.3925
57.6838
59.4925
62.6496
64.8366
68.9075
71.1032
75.6475
77.06
81.6995
83.346
91.0434
95.2213
103.147
108.879
106.807
140.942
113.91
98.0732
93.4182
87.8059
78.2384
75.1729
69.111
67.3475
62.9035
61.2477
58.3924
57.1997
55.4685
54.76
53.4765
53.0755
52.1348
51.6123
50.7486
50.0859
49.2496
48.5006
47.6907
47.0134
46.3697
45.8275
45.3356
44.9163
44.5618
44.2019
43.8998
43.5561
43.2792
42.9195
42.6441
42.268
41.989
41.6193
41.3241
41.0041
40.6775
40.477
40.1604
40.1413
40.0811
39.5664
46.9241
50.6908
47.133
43.8867
42.349
41.7397
41.5362
41.4675
41.4552
41.4747
41.5222
41.5943
41.689
41.8061
41.944
42.104
42.2851
42.4892
42.7168
42.9704
43.2509
43.5618
43.9032
44.283
44.6943
45.1612
45.6504
46.2322
46.817
47.5489
48.2629
49.1938
50.074
51.2927
52.3975
54.0448
55.4434
57.7377
59.5519
62.709
64.9018
68.9674
71.17
75.705
77.1353
81.7645
83.4352
91.0718
95.2451
103.023
108.709
106.451
140.722
114.13
98.2541
93.3939
87.6767
78.1562
75.1004
69.0926
67.3286
62.8966
61.2442
58.408
57.215
55.4949
54.7809
53.4984
53.0918
52.1492
51.6259
50.7649
50.1025
49.2706
48.5208
47.7122
47.0333
46.3893
45.8453
45.3523
44.9312
44.5755
44.2141
43.9108
43.5659
43.2881
42.9279
42.6515
42.2751
41.9947
41.6252
41.3281
41.0081
40.6797
40.4782
40.1607
40.1392
40.0791
39.5669
46.7915
50.546
47.0722
43.8812
42.362
41.7565
41.5526
41.4827
41.4694
41.488
41.5349
41.6065
41.7009
41.8178
41.9557
42.1158
42.2972
42.5017
42.7297
42.9838
43.265
43.5766
43.9189
44.2996
44.7121
45.1802
45.6708
46.2542
46.8406
47.5744
48.2906
49.224
50.1072
51.3289
52.4376
54.0886
55.4919
57.7891
59.6081
62.7648
64.9628
69.0225
71.2308
75.7556
77.2018
81.8193
83.5106
91.0847
95.2464
102.87
108.496
106.011
140.259
114.112
98.2538
93.236
87.4583
78.0201
74.9871
69.0451
67.2843
62.8713
61.2248
58.4104
57.2194
55.5116
54.7935
53.5132
53.1013
52.1578
51.634
50.7764
50.1149
49.2877
48.5375
47.7307
47.0505
46.4064
45.8609
45.3671
44.9443
44.5876
44.2248
43.9205
43.5746
43.296
42.9352
42.658
42.2815
41.9998
41.6303
41.3315
41.0114
40.6813
40.4789
40.1605
40.1369
40.0768
39.5672
46.6603
50.4022
47.0119
43.8758
42.3751
41.7732
41.569
41.4979
41.4836
41.5013
41.5475
41.6186
41.7127
41.8294
41.9673
42.1275
42.3091
42.5139
42.7423
42.9969
43.2787
43.591
43.9341
44.3158
44.7292
45.1985
45.6903
46.2753
46.8631
47.5987
48.3169
49.2526
50.1385
51.363
52.4753
54.1296
55.5372
57.837
59.6601
62.8161
65.0181
69.0714
71.284
75.798
77.2579
81.8625
83.5706
91.0807
95.2239
102.689
108.238
105.488
139.551
113.85
98.0694
92.9441
87.1511
77.8307
74.8335
68.9683
67.2148
62.8272
61.1891
58.3991
57.2124
55.5182
54.7973
53.5202
53.1035
52.1599
51.6362
50.7826
50.1225
49.3005
48.5502
47.7455
47.0644
46.4206
45.8737
45.3794
44.9552
44.5977
44.2338
43.9286
43.5818
43.3025
42.9413
42.6633
42.2868
42.0038
41.6344
41.334
41.0139
40.6821
40.4787
40.1597
40.1339
40.074
39.5671
46.5305
50.2595
46.9518
43.8703
42.388
41.7898
41.5853
41.513
41.4976
41.5144
41.56
41.6305
41.7244
41.8409
41.9787
42.139
42.3206
42.5257
42.7546
43.0096
43.2919
43.6048
43.9487
44.3311
44.7454
45.2159
45.7088
46.2952
46.8843
47.6215
48.3415
49.2792
50.1677
51.3947
52.5103
54.1675
55.5788
57.8807
59.7072
62.862
65.067
69.1134
71.329
75.8313
77.3028
81.8936
83.6146
91.0597
95.1775
102.48
107.938
104.885
138.598
113.344
97.6997
92.5194
86.757
77.5896
74.6411
68.863
67.1208
62.7648
61.1377
58.3742
57.1942
55.5146
54.7922
53.5193
53.0982
52.1555
51.6322
50.7834
50.1251
49.3087
48.5587
47.7566
47.0747
46.4316
45.8837
45.3892
44.9638
44.6058
44.2409
43.935
43.5874
43.3076
42.946
42.6674
42.2907
42.0066
41.6373
41.3353
41.0152
40.6818
40.4775
40.1578
40.13
40.0702
39.5663
46.4021
50.1176
46.8919
43.8648
42.4007
41.8063
41.6014
41.528
41.5116
41.5274
41.5723
41.6423
41.7358
41.8521
41.9898
42.1501
42.3319
42.5372
42.7663
43.0217
43.3045
43.618
43.9624
44.3456
44.7607
45.2322
45.726
46.3137
46.9039
47.6426
48.3642
49.3038
50.1945
51.4237
52.5421
54.202
55.6163
57.9201
59.749
62.9023
65.1091
69.1482
71.3651
75.8556
77.3361
81.9127
83.6424
91.0222
95.1079
102.246
107.598
104.207
137.407
112.594
97.1451
91.9648
86.2788
77.2995
74.412
68.7306
67.0037
62.6847
61.0711
58.3361
57.1651
55.5008
54.7784
53.5106
53.0856
52.1446
51.6222
50.7786
50.1227
49.3122
48.5629
47.7637
47.0815
46.4393
45.8907
45.3964
44.97
44.6117
44.246
43.9395
43.5913
43.311
42.9492
42.67
42.2933
42.0081
41.6389
41.3354
41.0152
40.6802
40.475
40.1546
40.1248
40.0653
39.5645
46.2749
49.9765
46.8322
43.8592
42.4134
41.8226
41.6174
41.5429
41.5254
41.5403
41.5845
41.6539
41.747
41.863
42.0006
42.1608
42.3427
42.5481
42.7775
43.0332
43.3164
43.6303
43.9754
44.3592
44.775
45.2473
45.742
46.3308
46.922
47.662
48.3848
49.3262
50.2187
51.4499
52.5707
54.2328
55.6496
57.9548
59.7852
62.9367
65.1441
69.1758
71.3923
75.8708
77.358
81.92
83.6545
90.9691
95.0164
101.987
107.221
103.46
135.984
111.606
96.4084
91.2848
85.7205
76.9636
74.149
68.5729
66.865
62.5882
60.9904
58.2854
57.1257
55.4773
54.7562
53.4944
53.066
52.1274
51.6062
50.7685
50.1154
49.3111
48.5629
47.7669
47.0846
46.4437
45.8947
45.401
44.9738
44.6154
44.249
43.9422
43.5934
43.3128
42.9509
42.6711
42.2945
42.0082
41.6391
41.3341
41.0137
40.6773
40.4711
40.1501
40.1182
40.059
39.5616
46.1489
49.8363
46.7726
43.8534
42.4258
41.8388
41.6333
41.5576
41.539
41.553
41.5965
41.6653
41.758
41.8736
42.0111
42.1712
42.3531
42.5586
42.7882
43.0441
43.3277
43.642
43.9875
44.3718
44.7883
45.2612
45.7567
46.3465
46.9383
47.6795
48.4033
49.3462
50.2403
51.4732
52.5959
54.2599
55.6786
57.9847
59.8159
62.9652
65.1718
69.1961
71.4106
75.8771
77.3686
81.9163
83.6515
90.9017
94.9045
101.708
106.812
102.649
134.341
110.387
95.494
90.4852
85.0873
76.5857
73.855
68.3919
66.7067
62.4764
60.8967
58.2229
57.0766
55.4445
54.7261
53.4709
53.0397
52.1042
51.5846
50.7532
50.1034
49.3054
48.5586
47.7662
47.0842
46.4449
45.8957
45.4029
44.9752
44.6169
44.25
43.9431
43.5938
43.313
42.9509
42.6707
42.2942
42.0068
41.6378
41.3313
41.0108
40.6729
40.4656
40.1439
40.1099
40.0509
39.5572
46.0241
49.6967
46.7132
43.8476
42.4382
41.8549
41.6491
41.5722
41.5525
41.5655
41.6083
41.6764
41.7687
41.884
42.0213
42.1812
42.3631
42.5686
42.7984
43.0545
43.3382
43.6528
43.9987
44.3834
44.8004
45.2739
45.77
46.3606
46.953
47.6952
48.4197
49.364
50.2591
51.4935
52.6178
54.2831
55.7032
58.0099
59.8408
62.9878
65.1924
69.2092
71.4201
75.875
77.3683
81.9022
83.6341
90.8212
94.774
101.411
106.374
101.782
132.491
108.947
94.4083
89.5732
84.3848
76.1701
73.5335
68.1901
66.5309
62.3509
60.7914
58.1496
57.0185
55.4031
54.6886
53.4406
53.0072
52.0754
51.5577
50.7329
50.0867
49.2952
48.5504
47.7617
47.0803
46.4429
45.8939
45.4022
44.9742
44.6163
44.2491
43.9421
43.5925
43.3116
42.9495
42.6688
42.2923
42.004
41.6351
41.3271
41.0062
40.6669
40.4583
40.1361
40.0999
40.041
39.5514
45.9003
49.5579
46.6538
43.8417
42.4504
41.8708
41.6647
41.5866
41.5659
41.5779
41.6199
41.6874
41.7792
41.8941
42.0311
42.1908
42.3726
42.5782
42.8079
43.0641
43.3481
43.6629
44.009
44.3941
44.8114
45.2854
45.782
46.3732
46.966
47.7089
48.434
49.3793
50.2752
51.5109
52.6362
54.3027
55.7234
58.0304
59.8602
63.0046
65.206
69.2154
71.4212
75.8648
77.3577
81.8784
83.6033
90.7291
94.6268
101.099
105.912
100.866
130.453
107.3
93.1599
88.5574
83.6197
75.7213
73.1881
67.9699
66.34
62.2133
60.6759
58.0666
56.9525
55.3537
54.6445
53.404
52.9689
52.0413
51.5259
50.7079
50.0659
49.2808
48.5383
47.7536
47.0731
46.4379
45.8893
45.3991
44.9709
44.6136
44.2462
43.9394
43.5895
43.3086
42.9464
42.6654
42.289
41.9997
41.6308
41.3213
41.0001
40.6593
40.4494
40.1264
40.0879
40.0292
39.5438
45.7775
49.4198
46.5946
43.8356
42.4624
41.8866
41.6802
41.601
41.5791
41.5901
41.6313
41.6981
41.7894
41.9039
42.0405
42.2001
42.3817
42.5872
42.8169
43.0732
43.3572
43.6721
44.0185
44.4037
44.8213
45.2956
45.7926
46.3842
46.9773
47.7208
48.4461
49.3923
50.2887
51.5253
52.6512
54.3186
55.7394
58.0462
59.8742
63.0158
65.2129
69.2151
71.4141
75.8471
77.3375
81.846
83.5602
90.627
94.4651
100.774
105.431
99.9102
128.246
105.459
91.759
87.4476
82.7994
75.2442
72.8225
67.7341
66.1361
62.0653
60.5516
57.9749
56.8795
55.2971
54.5942
53.3616
52.9255
52.0024
51.4897
50.6787
50.041
49.2625
48.5225
47.7421
47.0628
46.4299
45.8821
45.3936
44.9655
44.6089
44.2415
43.935
43.5849
43.304
42.9419
42.6606
42.2843
41.994
41.625
41.3141
40.9923
40.65
40.4386
40.1149
40.0739
40.0152
39.5345
45.6557
49.2823
46.5356
43.8295
42.4744
41.9023
41.6956
41.6151
41.5922
41.6021
41.6425
41.7086
41.7993
41.9134
42.0497
42.2089
42.3904
42.5957
42.8254
43.0816
43.3657
43.6806
44.0271
44.4124
44.8302
45.3047
45.8018
46.3938
46.9869
47.7309
48.4562
49.4031
50.2996
51.537
52.663
54.331
55.7512
58.0577
59.8829
63.0217
65.2132
69.2085
71.3994
75.8225
77.3084
81.8058
83.5062
90.5163
94.2909
100.44
104.934
98.9226
125.891
103.444
90.2177
86.2546
81.9319
74.7439
72.4407
67.4854
65.9219
61.9086
60.4201
57.8758
56.8005
55.2343
54.5387
53.3142
52.8776
51.9592
51.4495
50.6456
50.0127
49.2406
48.5035
47.7274
47.0495
46.4193
45.8724
45.3858
44.9581
44.6023
44.235
43.9289
43.5788
43.298
42.936
42.6544
42.2781
41.9869
41.6177
41.3054
40.983
40.6391
40.4261
40.1016
40.058
39.9992
39.5234
45.5348
49.1454
46.4766
43.8233
42.4862
41.9178
41.7108
41.6292
41.6051
41.614
41.6536
41.7189
41.809
41.9226
42.0585
42.2174
42.3986
42.6037
42.8333
43.0894
43.3734
43.6883
44.0348
44.4201
44.838
45.3126
45.8098
46.4019
46.995
47.7392
48.4643
49.4117
50.308
51.546
52.6717
54.34
55.7591
58.065
59.8867
63.0225
65.2076
69.1962
71.3777
75.7917
77.2712
81.759
83.4424
90.3988
94.1067
100.1
104.427
97.9119
123.414
101.272
88.5498
84.99
81.0256
74.2254
72.0466
67.2268
65.6996
61.745
60.2829
57.7705
56.7164
55.166
54.4788
53.2624
52.8259
51.9123
51.4059
50.609
49.9811
49.2153
48.4815
47.7098
47.0337
46.4061
45.8605
45.3761
44.9489
44.5941
44.227
43.9214
43.5713
43.2906
42.9288
42.6469
42.2706
41.9784
41.6091
41.2953
40.9721
40.6267
40.4118
40.0865
40.04
39.981
39.5104
45.4148
49.0092
46.4178
43.817
42.4979
41.9332
41.7259
41.6431
41.6178
41.6257
41.6644
41.729
41.8185
41.9315
42.067
42.2255
42.4065
42.6113
42.8407
43.0966
43.3805
43.6953
44.0417
44.427
44.8448
45.3193
45.8166
46.4087
47.0016
47.7458
48.4706
49.4182
50.3142
51.5525
52.6775
54.3459
55.7634
58.0683
59.8859
63.0187
65.1964
69.1787
71.3497
75.7556
77.227
81.7066
83.3704
90.276
93.9146
99.7567
103.913
96.8869
120.838
98.9663
86.7704
83.6664
80.0892
73.694
71.6442
66.9609
65.4718
61.5763
60.1416
57.6604
56.6285
55.0933
54.4151
53.2069
52.7709
51.8624
51.3594
50.5695
49.9469
49.1872
48.4568
47.6896
47.0155
46.3908
45.8467
45.3646
44.9381
44.5843
44.2176
43.9126
43.5625
43.282
42.9203
42.6382
42.2619
41.9688
41.5991
41.2838
40.9597
40.6128
40.3958
40.0696
40.0201
39.9607
39.4957
45.2956
48.8737
46.359
43.8106
42.5095
41.9485
41.7408
41.6568
41.6304
41.6372
41.6751
41.7388
41.8277
41.9401
42.0751
42.2333
42.4139
42.6184
42.8476
43.1033
43.387
43.7016
44.0479
44.433
44.8507
45.3251
45.8222
46.4142
47.0067
47.7509
48.4751
49.4228
50.3181
51.5566
52.6806
54.3488
55.7642
58.0682
59.881
63.0107
65.1801
69.1566
71.3162
75.7147
77.1767
81.6495
83.2915
90.1494
93.7169
99.4126
103.397
95.8561
118.192
96.5485
84.8962
82.2968
79.1316
73.1546
71.2372
66.6905
65.2407
61.4043
59.9977
57.5467
56.5376
55.017
54.3486
53.1484
52.7135
51.8099
51.3106
50.5276
49.9103
49.1567
48.4299
47.6672
46.9952
46.3735
45.8311
45.3515
44.9258
44.5731
44.207
43.9026
43.5526
43.2723
42.9108
42.6284
42.2521
41.958
41.588
41.2712
40.946
40.5974
40.3782
40.0511
39.9984
39.9384
39.4792
45.1773
48.7387
46.3005
43.8041
42.521
41.9637
41.7557
41.6704
41.6429
41.6486
41.6855
41.7485
41.8367
41.9485
42.083
42.2407
42.4209
42.6252
42.854
43.1094
43.393
43.7073
44.0534
44.4382
44.8557
45.3299
45.8268
46.4186
47.0106
47.7546
48.4781
49.4257
50.3202
51.5586
52.6812
54.3492
55.7621
58.0648
59.8723
62.999
65.1595
69.1305
71.2777
75.67
77.1214
81.589
83.2073
90.0205
93.5157
99.0705
102.884
94.8278
115.5
94.0424
82.9449
80.8943
78.1617
72.6121
70.8293
66.4183
65.0086
61.2307
59.8526
57.4307
56.445
54.9383
54.28
53.0877
52.6542
51.7556
51.26
50.4838
49.872
49.1241
48.4011
47.6429
46.9733
46.3546
45.814
45.337
44.9123
44.5608
44.1952
43.8915
43.5417
43.2617
42.9003
42.6176
42.2413
41.9462
41.5757
41.2574
40.931
40.5807
40.3592
40.031
39.9748
39.9142
39.4611
45.0599
48.6045
46.242
43.7976
42.5324
41.9787
41.7703
41.6839
41.6552
41.6598
41.6958
41.7579
41.8454
41.9566
42.0906
42.2478
42.4276
42.6315
42.86
43.1151
43.3983
43.7124
44.0582
44.4428
44.8599
45.3338
45.8304
46.4219
47.0134
47.757
48.4797
49.427
50.3204
51.5587
52.6798
54.3473
55.7572
58.0587
59.8604
62.9841
65.1351
69.101
71.2353
75.6222
77.0621
81.526
83.1191
89.8909
93.3132
98.7328
102.375
93.8097
112.791
91.4724
80.9348
79.4722
77.1883
72.0713
70.4239
66.1468
64.7776
61.057
59.7077
57.3135
56.3515
54.8579
54.2103
53.0256
52.5938
51.6999
51.2084
50.4386
49.8324
49.0899
48.3709
47.6171
46.95
46.3343
45.7958
45.3214
44.8978
44.5476
44.1826
43.8796
43.53
43.2502
42.8889
42.606
42.2296
41.9335
41.5625
41.2426
40.9149
40.5629
40.3388
40.0094
39.9497
39.8883
39.4414
44.9432
48.4708
46.1837
43.7909
42.5436
41.9936
41.7849
41.6972
41.6673
41.6708
41.7059
41.7672
41.854
41.9645
42.0979
42.2546
42.434
42.6374
42.8656
43.1203
43.4032
43.717
44.0624
44.4466
44.8634
45.337
45.8332
46.4243
47.0151
47.7583
48.4801
49.4269
50.3192
51.5572
52.6764
54.3433
55.7501
58.0501
59.8457
62.9665
65.1075
69.0688
71.1897
75.5722
76.9997
81.4615
83.0282
89.7617
93.1112
98.4017
101.876
92.809
110.089
88.863
78.8849
78.0438
76.2197
71.5362
70.0243
65.8781
64.5496
60.8849
59.5643
57.1964
56.2581
54.7768
54.14
52.9626
52.5329
51.6436
51.1561
50.3925
49.7919
49.0546
48.3397
47.5902
46.9257
46.313
45.7767
45.305
44.8825
44.5336
44.1693
43.8671
43.5176
43.238
42.877
42.5938
42.2172
41.9201
41.5485
41.2269
40.8978
40.544
40.3172
39.9867
39.9232
39.8607
39.4204
44.8274
48.3378
46.1256
43.7842
42.5547
42.0083
41.7992
41.7104
41.6793
41.6817
41.7158
41.7763
41.8623
41.9721
42.105
42.2611
42.4401
42.6431
42.8708
43.1252
43.4077
43.7211
44.0662
44.45
44.8663
45.3395
45.8353
46.4259
47.0159
47.7587
48.4794
49.4257
50.3167
51.5543
52.6715
54.3377
55.7411
58.0396
59.8287
62.9467
65.0774
69.0345
71.1416
75.5206
76.9354
81.3965
82.9362
89.6342
92.9116
98.079
101.388
91.8322
107.42
86.2386
76.8145
76.6215
75.2638
71.011
69.6333
65.6145
64.3264
60.7157
59.4234
57.0805
56.1657
54.6959
54.0701
52.8995
52.4721
51.5872
51.1037
50.346
49.751
49.0186
48.3078
47.5625
46.9007
46.291
45.7569
45.288
44.8667
44.519
44.1554
43.854
43.5047
43.2254
42.8645
42.581
42.2042
41.906
41.5337
41.2105
40.8798
40.5243
40.2947
39.9628
39.8954
39.8318
39.3981
44.7124
48.2055
46.0676
43.7774
42.5656
42.0229
41.8134
41.7234
41.6911
41.6924
41.7256
41.7851
41.8704
41.9796
42.1118
42.2674
42.4459
42.6484
42.8758
43.1297
43.4118
43.7248
44.0695
44.4528
44.8687
45.3414
45.8367
46.4268
47.016
47.7582
48.4778
49.4235
50.3132
51.5503
52.6654
54.3308
55.7305
58.0275
59.81
62.9252
65.0454
68.9988
71.0919
75.4683
76.87
81.3318
82.8441
89.5095
92.7159
97.7665
100.915
90.8851
104.805
83.6232
74.7424
75.2174
74.3279
70.4991
69.2535
65.3578
64.1094
60.5507
59.2863
56.9666
56.0751
54.6159
54.001
52.837
52.412
51.5312
51.0517
50.2996
49.7101
48.9824
48.2756
47.5344
46.8754
46.2685
45.7368
45.2706
44.8506
44.5041
44.1413
43.8406
43.4916
43.2124
42.8516
42.5678
42.1908
41.8915
41.5185
41.1936
40.8612
40.5038
40.2712
39.938
39.8666
39.8017
39.3747
44.5982
48.0738
46.0098
43.7705
42.5764
42.0373
41.8275
41.7362
41.7028
41.7029
41.7352
41.7938
41.8784
41.9868
42.1185
42.2735
42.4514
42.6535
42.8804
43.1339
43.4156
43.7281
44.0724
44.4553
44.8707
45.3429
45.8376
46.4272
47.0155
47.7572
48.4756
49.4206
50.3089
51.5454
52.6583
54.3228
55.7188
58.0143
59.79
62.9026
65.0121
68.9621
71.0414
75.4158
76.8045
81.2683
82.7531
89.3886
92.5256
97.4656
100.458
89.9725
102.267
81.0396
72.687
73.8424
73.4184
70.0036
68.8871
65.1097
63.9
60.3909
59.1537
56.8557
55.9871
54.5376
53.9335
52.7755
52.3532
51.4761
51.0006
50.2537
49.6697
48.9462
48.2435
47.5063
46.85
46.2459
45.7166
45.2531
44.8344
44.4891
44.127
43.8271
43.4782
43.1992
42.8385
42.5543
42.1771
41.8767
41.5028
41.1762
40.8421
40.4828
40.2471
39.9124
39.8369
39.7705
39.3505
44.4848
47.9428
45.9522
43.7636
42.587
42.0516
41.8414
41.7489
41.7143
41.7133
41.7446
41.8024
41.8861
41.9939
42.1249
42.2794
42.4568
42.6584
42.8848
43.1379
43.4191
43.7312
44.075
44.4574
44.8723
45.344
45.8381
46.4271
47.0146
47.7556
48.4728
49.4171
50.3039
51.5398
52.6505
54.3141
55.7064
58.0004
59.7692
62.8794
64.9781
68.9252
70.9906
75.364
76.7396
81.2066
82.6642
89.2722
92.3419
97.1774
100.02
89.0985
99.8211
78.509
70.6659
72.5065
72.5411
69.5272
68.5359
64.8713
63.6994
60.2372
59.0264
56.7485
55.9022
54.4617
53.8681
52.7157
52.296
51.4224
50.9508
50.2088
49.63
48.9104
48.2119
47.4784
46.8248
46.2235
45.6965
45.2356
44.8183
44.4741
44.1128
43.8135
43.4649
43.186
42.8253
42.5407
42.1632
41.8616
41.4869
41.1586
40.8226
40.4613
40.2225
39.8863
39.8065
39.7386
39.3255
44.3722
47.8126
45.8949
43.7565
42.5975
42.0657
41.8551
41.7615
41.7256
41.7235
41.7539
41.8108
41.8938
42.0008
42.1312
42.2851
42.462
42.6631
42.889
43.1417
43.4225
43.734
44.0774
44.4593
44.8737
45.3448
45.8384
46.4268
47.0134
47.7538
48.4697
49.4132
50.2986
51.5339
52.6423
54.305
55.6935
57.986
59.748
62.8559
64.9441
68.8886
70.9404
75.3132
76.6761
81.1473
82.5783
89.1611
92.1658
96.9028
99.6008
88.2661
97.4835
76.0508
68.6953
71.2183
71.7006
69.0718
68.2015
64.644
63.5083
60.0906
58.9051
56.6457
55.821
54.3885
53.8052
52.658
52.2409
51.3705
50.9026
50.1651
49.5915
48.8755
48.181
47.451
46.8001
46.2014
45.6768
45.2185
44.8024
44.4593
44.0987
43.8001
43.4516
43.1728
42.8122
42.5272
42.1492
41.8465
41.4709
41.1408
40.8029
40.4396
40.1976
39.8599
39.7757
39.7062
39.3
44.2604
47.6831
45.8377
43.7494
42.6079
42.0796
41.8687
41.7738
41.7368
41.7336
41.763
41.819
41.9012
42.0076
42.1374
42.2907
42.467
42.6676
42.8931
43.1453
43.4256
43.7367
44.0796
44.461
44.8748
45.3455
45.8384
46.4262
47.0119
47.7517
48.4664
49.4091
50.2931
51.5278
52.634
54.2958
55.6805
57.9716
59.7269
62.8325
64.9103
68.8526
70.8911
75.2641
76.6147
81.091
82.4962
89.0557
91.9982
96.6423
99.2026
87.4777
95.2655
73.6821
66.7896
69.9852
70.9009
68.6392
67.8848
64.4285
63.3276
59.9515
58.7903
56.5479
55.7439
54.3188
53.7452
52.6027
52.1882
51.3206
50.8563
50.123
49.5543
48.8416
48.1511
47.4243
46.7761
46.1798
45.6577
45.2018
44.787
44.4449
44.085
43.7869
43.4386
43.1598
42.7992
42.5137
42.1354
41.8315
41.4548
41.123
40.783
40.4178
40.1725
39.8332
39.7446
39.6734
39.2742
44.1495
47.5543
45.7808
43.7423
42.6181
42.0934
41.8821
41.786
41.7479
41.7436
41.772
41.8271
41.9086
42.0142
42.1434
42.2961
42.4719
42.672
42.897
43.1487
43.4286
43.7393
44.0817
44.4626
44.8759
45.346
45.8384
46.4256
47.0104
47.7496
48.463
49.405
50.2876
51.5217
52.6257
54.2866
55.6677
57.9574
59.7061
62.8097
64.8774
68.8176
70.8434
75.2169
76.5558
81.0381
82.4185
88.9566
91.8396
96.3964
98.8256
86.7347
93.1756
71.4174
64.9615
68.8128
70.1448
68.2306
67.5868
64.2255
63.1576
59.8204
58.6823
56.4555
55.6712
54.2527
53.6885
52.5502
52.1382
51.2731
50.8123
50.0827
49.5188
48.8091
48.1224
47.3987
46.753
46.1591
45.6392
45.1857
44.7721
44.4309
44.0717
43.7742
43.4259
43.147
42.7865
42.5004
42.1217
41.8166
41.4389
41.1053
40.7633
40.3961
40.1474
39.8065
39.7135
39.6404
39.2481
44.0394
47.4263
45.7241
43.7351
42.6281
42.1069
41.8953
41.7981
41.7588
41.7534
41.7809
41.8351
41.9158
42.0207
42.1493
42.3014
42.4767
42.6764
42.9009
43.1521
43.4316
43.7418
44.0837
44.4642
44.8769
45.3465
45.8383
46.4249
47.0089
47.7475
48.4597
49.401
50.2822
51.5157
52.6176
54.2778
55.6553
57.9437
59.6861
62.7878
64.8456
68.7842
70.7977
75.1722
76.5
80.9889
82.3457
88.8638
91.6905
96.1652
98.47
86.0378
91.2192
69.2685
63.2216
67.7056
69.4344
67.8468
67.308
64.0353
62.9987
59.6977
58.5814
56.3687
55.6033
54.1907
53.6353
52.5008
52.0912
51.2281
50.7707
50.0445
49.4851
48.778
48.0951
47.3742
46.7311
46.1392
45.6216
45.1704
44.758
44.4175
44.0589
43.7619
43.4137
43.1347
42.7741
42.4875
42.1082
41.8019
41.4232
41.0877
40.7437
40.3744
40.1225
39.7798
39.6824
39.6074
39.2221
43.9301
47.2992
45.6677
43.7278
42.638
42.1204
41.9084
41.81
41.7696
41.763
41.7896
41.843
41.9229
42.0272
42.1551
42.3066
42.4814
42.6806
42.9047
43.1555
43.4345
43.7442
44.0857
44.4657
44.878
45.3471
45.8383
46.4243
47.0075
47.7456
48.4566
49.3972
50.2771
51.5102
52.61
54.2695
55.6435
57.9307
59.6671
62.767
64.8153
68.7525
70.7542
75.1302
76.4476
80.9437
82.2782
88.7778
91.5512
95.9486
98.1359
85.3869
89.3987
67.244
61.5778
66.6666
68.7707
67.4881
67.0483
63.8583
62.851
59.5835
58.4877
56.2879
55.5403
54.1328
53.5857
52.4546
52.0472
51.1859
50.7315
50.0085
49.4534
48.7486
48.0694
47.3511
46.7103
46.1204
45.605
45.1559
44.7446
44.4048
44.0468
43.7501
43.402
43.1228
42.7621
42.4749
42.0952
41.7876
41.4078
41.0705
40.7243
40.3531
40.0977
39.7535
39.6516
39.5747
39.1962
43.8217
47.1728
45.6116
43.7205
42.6477
42.1336
41.9213
41.8217
41.7802
41.7725
41.7982
41.8507
41.9299
42.0335
42.1608
42.3118
42.4861
42.6848
42.9084
43.1588
43.4373
43.7467
44.0877
44.4673
44.879
45.3477
45.8383
46.4239
47.0063
47.7439
48.4538
49.3938
50.2724
51.5051
52.603
54.2618
55.6326
57.9187
59.6492
62.7475
64.7868
68.7227
70.7134
75.0911
76.3989
80.9027
82.2162
88.6984
91.4218
95.7465
97.823
84.7815
87.714
65.3497
60.036
65.6972
68.1543
67.1546
66.8079
63.6942
62.7145
59.4779
58.4013
56.213
55.4823
54.0793
53.5399
52.4117
52.0063
51.1466
50.6951
49.9748
49.4237
48.721
48.0453
47.3294
46.6908
46.1027
45.5894
45.1423
44.732
44.3929
44.0354
43.739
43.3908
43.1115
42.7506
42.4628
42.0825
41.7737
41.3927
41.0536
40.7053
40.332
40.0733
39.7274
39.6211
39.5422
39.1705
43.7142
47.0473
45.5558
43.7131
42.6573
42.1467
41.9341
41.8333
41.7906
41.782
41.8067
41.8584
41.9368
42.0397
42.1664
42.3169
42.4907
42.6889
42.9121
43.1621
43.4402
43.7492
44.0898
44.469
44.8802
45.3485
45.8386
46.4237
47.0053
47.7425
48.4513
49.3907
50.2682
51.5005
52.5967
54.2549
55.6226
57.9078
59.6328
62.7295
64.7603
68.6951
70.6754
75.055
76.3541
80.8659
82.1599
88.6256
91.3022
95.5584
97.5307
84.2205
86.1629
63.5887
58.5997
64.798
67.5846
66.8458
66.5863
63.5431
62.5889
59.3808
58.322
56.1441
55.4292
54.0302
53.4979
52.3722
51.9687
51.1102
50.6613
49.9434
49.3962
48.6953
48.0229
47.3092
46.6728
46.0863
45.5749
45.1297
44.7204
44.3817
44.0246
43.7285
43.3803
43.1007
42.7396
42.4512
42.0703
41.7602
41.3781
41.0371
40.6867
40.3114
40.0494
39.7018
39.5911
39.5102
39.1452
43.6075
46.9227
45.5004
43.7057
42.6667
42.1596
41.9466
41.8448
41.801
41.7912
41.8151
41.8659
41.9436
42.0459
42.172
42.322
42.4953
42.6931
42.9159
43.1654
43.4432
43.7518
44.0919
44.4707
44.8816
45.3494
45.839
46.4237
47.0046
47.7415
48.4493
49.3881
50.2646
51.4967
52.5911
54.2489
55.6138
57.898
59.6178
62.7132
64.7359
68.6698
70.6403
75.0221
76.3132
80.8333
82.1094
88.5594
91.1922
95.3839
97.2584
83.7021
84.741
61.9612
57.2702
63.9682
67.0609
66.5614
66.383
63.4045
62.4741
59.292
58.2498
56.0811
55.3811
53.9854
53.4596
52.3361
51.9343
51.0767
50.6303
49.9145
49.3709
48.6714
48.0023
47.2905
46.6561
46.0711
45.5616
45.1181
44.7097
44.3714
44.0147
43.7188
43.3704
43.0904
42.7292
42.44
42.0586
41.7471
41.364
41.0211
40.6686
40.2913
40.026
39.6767
39.5617
39.4788
39.1203
43.5018
46.7989
45.4452
43.6983
42.676
42.1723
41.959
41.8561
41.8112
41.8004
41.8234
41.8734
41.9504
42.052
42.1776
42.327
42.4999
42.6972
42.9196
43.1688
43.4462
43.7544
44.0942
44.4726
44.8831
45.3505
45.8397
46.424
47.0043
47.7408
48.4477
49.386
50.2616
51.4935
52.5864
54.2438
55.606
57.8896
59.6045
62.6986
64.7136
68.6468
70.6083
74.9923
76.2764
80.805
82.0645
88.4995
91.0917
95.2223
97.0051
83.2246
83.4426
60.4652
56.0469
63.2061
66.5817
66.3004
66.1974
63.2781
62.3695
59.2114
58.1844
56.024
55.3377
53.945
53.4251
52.3034
51.903
51.0461
50.6019
49.888
49.3477
48.6495
47.9835
47.2734
46.6409
46.0571
45.5494
45.1075
44.7
44.362
44.0055
43.7097
43.3611
43.0808
42.7194
42.4295
42.0474
41.7346
41.3503
41.0057
40.651
40.2717
40.0031
39.6523
39.5329
39.4481
39.0961
43.3969
46.676
45.3905
43.6909
42.6851
42.1849
41.9713
41.8672
41.8212
41.8094
41.8315
41.8807
41.9571
42.058
42.1831
42.332
42.5044
42.7014
42.9234
43.1722
43.4492
43.7572
44.0966
44.4747
44.8847
45.3519
45.8406
46.4246
47.0043
47.7406
48.4466
49.3845
50.2593
51.4911
52.5826
54.2398
55.5995
57.8824
59.5928
62.6858
64.6937
68.6262
70.5793
74.9657
76.2436
80.7808
82.0252
88.4457
91.0002
95.073
96.77
82.7856
82.2609
59.0969
54.9274
62.5094
66.145
66.0618
66.0285
63.1634
62.2748
59.1386
58.1256
55.9725
55.2991
53.9086
53.3941
52.2739
51.8748
51.0183
50.5762
49.8638
49.3266
48.6295
47.9664
47.2579
46.6272
46.0445
45.5384
45.098
44.6911
44.3534
43.9972
43.7013
43.3526
43.0718
42.7101
42.4195
42.0368
41.7227
41.3372
40.9907
40.634
40.2527
39.9809
39.6284
39.5048
39.4181
39.0724
43.2929
46.5541
45.3361
43.6834
42.6941
42.1973
41.9834
41.8782
41.8312
41.8184
41.8396
41.888
41.9637
42.064
42.1885
42.337
42.509
42.7055
42.9272
43.1757
43.4524
43.76
44.0991
44.4769
44.8866
45.3534
45.8418
46.4255
47.0047
47.7407
48.4459
49.3836
50.2576
51.4894
52.5797
54.2367
55.5943
57.8766
59.5829
62.6748
64.676
68.608
70.5534
74.9422
76.2146
80.7606
81.9912
88.3977
90.9172
94.9352
96.5519
82.3828
81.1882
57.8506
53.9079
61.8751
65.7488
65.8445
65.8756
63.0596
62.1893
59.0732
58.073
55.9263
55.2649
53.8763
53.3666
52.2476
51.8495
50.9933
50.553
49.8419
49.3075
48.6113
47.9511
47.2439
46.6148
46.0331
45.5286
45.0895
44.6833
44.3456
43.9896
43.6937
43.3447
43.0635
42.7015
42.41
42.0267
41.7113
41.3247
40.9763
40.6175
40.2343
39.9593
39.6053
39.4775
39.3888
39.0493
43.1899
46.4331
45.282
43.6759
42.7029
42.2095
41.9953
41.8891
41.841
41.8272
41.8476
41.8952
41.9702
42.07
42.1939
42.3419
42.5135
42.7097
42.931
43.1792
43.4556
43.7629
44.1017
44.4793
44.8887
45.3553
45.8433
46.4267
47.0055
47.7414
48.4458
49.3833
50.2567
51.4885
52.5777
54.2347
55.5902
57.8722
59.5745
62.6655
64.6606
68.5921
70.5305
74.9217
76.1895
80.7442
81.9624
88.3551
90.8424
94.8082
96.3497
82.0136
80.2163
56.7196
52.9837
61.2996
65.3907
65.6473
65.7375
62.9662
62.1126
59.0148
58.0263
55.8853
55.2348
53.8478
53.3424
52.2243
51.8271
50.9709
50.5322
49.8221
49.2904
48.5949
47.9374
47.2314
46.6038
46.0229
45.5198
45.0819
44.6763
44.3386
43.9827
43.6868
43.3374
43.0557
42.6934
42.4011
42.0171
41.7004
41.3126
40.9625
40.6017
40.2165
39.9384
39.5828
39.451
39.3604
39.027
43.0877
46.3131
45.2284
43.6685
42.7116
42.2216
42.0071
41.8998
41.8507
41.8359
41.8555
41.9024
41.9767
42.0759
42.1993
42.3469
42.5181
42.7139
42.9349
43.1828
43.4589
43.766
44.1045
44.4818
44.8909
45.3573
45.8451
46.4283
47.0066
47.7424
48.4462
49.3835
50.2564
51.4884
52.5766
54.2337
55.5873
57.869
59.5678
62.658
64.6474
68.5784
70.5104
74.9041
76.168
80.7313
81.9385
88.3176
90.7751
94.6911
96.1623
81.6756
79.337
55.6964
52.1489
60.7793
65.068
65.4687
65.6132
62.8825
62.044
58.963
57.985
55.849
55.2088
53.8229
53.3213
52.2039
51.8073
50.951
50.5137
49.8045
49.2752
48.5802
47.9252
47.2203
46.5941
46.0139
45.5121
45.0753
44.6702
44.3325
43.9766
43.6805
43.3308
43.0485
42.6859
42.3928
42.0081
41.69
41.3012
40.9493
40.5864
40.1993
39.9182
39.5611
39.4253
39.3328
39.0054
42.9865
46.194
45.1752
43.661
42.7202
42.2335
42.0187
41.9104
41.8603
41.8445
41.8633
41.9094
41.9831
42.0817
42.2047
42.3518
42.5226
42.7182
42.9388
43.1865
43.4623
43.7692
44.1075
44.4846
44.8934
45.3596
45.8471
46.4301
47.0082
47.7439
48.4471
49.3843
50.2567
51.489
52.5764
54.2336
55.5857
57.8672
59.5627
62.6521
64.6362
68.5669
70.4931
74.8893
76.1499
80.7219
81.9191
88.2849
90.7149
94.5832
95.9885
81.3661
78.5419
54.7729
51.3976
60.3101
64.7781
65.3075
65.5018
62.8077
61.9829
58.9173
57.9489
55.8172
55.1864
53.8013
53.303
52.1861
51.7899
50.9335
50.4974
49.7888
49.2618
48.5671
47.9146
47.2106
46.5857
46.006
45.5054
45.0696
44.665
44.3271
43.9712
43.6748
43.3248
43.0419
42.6789
42.385
41.9996
41.6802
41.2902
40.9365
40.5717
40.1827
39.8986
39.54
39.4005
39.3061
38.9845
42.8862
46.0759
45.1224
43.6536
42.7286
42.2452
42.0302
41.9209
41.8697
41.853
41.871
41.9164
41.9895
42.0875
42.2101
42.3567
42.5272
42.7224
42.9428
43.1902
43.4658
43.7724
44.1105
44.4874
44.8961
45.3621
45.8494
46.4323
47.0101
47.7458
48.4485
49.3856
50.2577
51.4903
52.577
54.2345
55.5851
57.8665
59.5591
62.6479
64.6271
68.5575
70.4783
74.877
76.135
80.7156
81.9039
88.2565
90.6611
94.4837
95.8272
81.0825
77.823
53.9407
50.7232
59.8881
64.5184
65.1621
65.402
62.7412
61.9287
58.8772
57.9174
55.7895
55.1674
53.7827
53.2875
52.1708
51.7749
50.9181
50.4831
49.775
49.2499
48.5554
47.9053
47.2021
46.5784
45.9991
45.4997
45.0648
44.6605
44.3224
43.9664
43.6698
43.3194
43.0359
42.6724
42.3776
41.9916
41.6709
41.2798
40.9243
40.5575
40.1667
39.8797
39.5197
39.3764
39.2803
38.9643
42.7869
45.9589
45.07
43.6462
42.7369
42.2569
42.0416
41.9312
41.8791
41.8614
41.8786
41.9233
41.9958
42.0933
42.2154
42.3617
42.5318
42.7267
42.9468
43.194
43.4694
43.7758
44.1137
44.4905
44.8989
45.3648
45.8519
46.4348