/*--------------------------------*- C++ -*----------------------------------*\
| =========                 |                                                 |
| \\      /  F ield         | OpenFOAM: The Open Source CFD Toolbox           |
|  \\    /   O peration     | Version:  2412                                  |
|   \\  /    A nd           | Website:  www.openfoam.com                      |
|    \\/     M anipulation  |                                                 |
\*---------------------------------------------------------------------------*/
FoamFile
{
    version     2.0;
    format      ascii;
    arch        "LSB;label=32;scalar=64";
    class       volScalarField;
    location    "0.1";
    object      nut;
}
// * * * * * * * * * * * * * * * * * * * * * * * * * * * * * * * * * * * * * //

dimensions      [0 2 -1 0 0 0 0];

internalField   nonuniform List<scalar> 
13068
(
0.356454
0.35098
0.333236
0.329552
0.333925
0.337742
0.339551
0.340176
0.340396
0.340513
0.340625
0.340754
0.3409
0.34107
0.341258
0.341471
0.341704
0.341964
0.342249
0.342563
0.342907
0.343284
0.343695
0.344148
0.344633
0.345181
0.345745
0.346423
0.347079
0.347929
0.348703
0.34978
0.350689
0.352096
0.35317
0.355022
0.356266
0.358767
0.360202
0.363454
0.364889
0.368788
0.369689
0.373678
0.373362
0.377459
0.377512
0.384151
0.385404
0.390408
0.390759
0.380563
0.378225
0.339957
0.338292
0.348307
0.352984
0.35319
0.359341
0.356278
0.358778
0.354949
0.355708
0.353407
0.353393
0.352166
0.352037
0.350875
0.351103
0.350027
0.34975
0.348805
0.348246
0.347364
0.346629
0.345769
0.345205
0.344588
0.344143
0.343679
0.343345
0.343023
0.342651
0.34237
0.341979
0.341733
0.341256
0.341029
0.340489
0.340287
0.33974
0.339521
0.339089
0.338757
0.338683
0.338276
0.338689
0.338906
0.337718
0.356343
0.351005
0.333496
0.329805
0.334059
0.337798
0.339577
0.340192
0.340409
0.340526
0.340637
0.340766
0.340913
0.341082
0.341271
0.341485
0.341719
0.341979
0.342264
0.342579
0.342924
0.343302
0.343714
0.344168
0.344655
0.345204
0.345769
0.346449
0.347107
0.347958
0.348735
0.349814
0.350726
0.352135
0.353213
0.355067
0.356316
0.358816
0.360255
0.3635
0.364943
0.368826
0.369739
0.373709
0.373423
0.377498
0.377589
0.384153
0.385425
0.390285
0.390638
0.380163
0.377454
0.339535
0.337692
0.3478
0.352598
0.353088
0.359257
0.356295
0.358756
0.354936
0.355708
0.353432
0.353409
0.352202
0.352054
0.350898
0.351114
0.350037
0.349763
0.348824
0.348265
0.347391
0.346648
0.345793
0.345223
0.344608
0.344158
0.343695
0.343358
0.343036
0.342662
0.34238
0.341987
0.341741
0.341263
0.341035
0.340495
0.34029
0.339745
0.339522
0.339091
0.338755
0.338681
0.338273
0.338681
0.338903
0.337721
0.356229
0.351028
0.333753
0.330055
0.334192
0.337852
0.339601
0.340208
0.340423
0.340538
0.34065
0.340778
0.340925
0.341095
0.341284
0.341498
0.341732
0.341993
0.342279
0.342594
0.34294
0.34332
0.343732
0.344187
0.344675
0.345226
0.345792
0.346473
0.347133
0.347986
0.348765
0.349846
0.350761
0.352172
0.353254
0.355109
0.356363
0.35886
0.360305
0.363542
0.364992
0.368858
0.369783
0.373733
0.373476
0.377527
0.377654
0.384143
0.38543
0.390142
0.390486
0.379683
0.376417
0.338782
0.336809
0.347121
0.352134
0.352967
0.359155
0.356304
0.358721
0.354918
0.355698
0.35345
0.35342
0.352232
0.352064
0.350915
0.351118
0.350043
0.349772
0.348839
0.34828
0.347415
0.346664
0.345814
0.345238
0.344625
0.344172
0.343709
0.343369
0.343047
0.342671
0.342388
0.341994
0.341747
0.341269
0.34104
0.340501
0.340293
0.339749
0.339522
0.339093
0.338752
0.338677
0.338269
0.338673
0.338898
0.337722
0.356112
0.351047
0.334005
0.330302
0.334322
0.337906
0.339626
0.340223
0.340436
0.34055
0.340662
0.34079
0.340937
0.341107
0.341297
0.341511
0.341745
0.342007
0.342293
0.342609
0.342956
0.343336
0.343749
0.344205
0.344694
0.345246
0.345814
0.346497
0.347158
0.348012
0.348793
0.349876
0.350793
0.352206
0.353292
0.355147
0.356406
0.3589
0.36035
0.363578
0.365034
0.368883
0.369819
0.373748
0.373519
0.377546
0.377706
0.38412
0.385416
0.38998
0.390303
0.379128
0.37512
0.3377
0.335647
0.346278
0.351596
0.35283
0.359035
0.356305
0.358672
0.354895
0.35568
0.35346
0.353424
0.352256
0.352069
0.350928
0.351117
0.350044
0.349776
0.348851
0.348291
0.347435
0.346676
0.345832
0.34525
0.34464
0.344182
0.343721
0.343378
0.343057
0.342678
0.342395
0.341999
0.341753
0.341274
0.341044
0.340505
0.340294
0.339752
0.33952
0.339093
0.338747
0.338672
0.338263
0.338663
0.338892
0.337723
0.355992
0.351062
0.334254
0.330545
0.334451
0.337959
0.33965
0.340238
0.340449
0.340562
0.340674
0.340802
0.340949
0.341119
0.341308
0.341523
0.341758
0.342019
0.342307
0.342623
0.34297
0.343351
0.343765
0.344222
0.344712
0.345265
0.345834
0.346518
0.34718
0.348035
0.348819
0.349903
0.350823
0.352236
0.353326
0.355181
0.356443
0.358935
0.360389
0.363607
0.365069
0.368901
0.369847
0.373754
0.373551
0.377554
0.377744
0.384084
0.385385
0.389801
0.390093
0.378504
0.373574
0.336294
0.334213
0.345279
0.350994
0.352682
0.358903
0.356299
0.358612
0.354867
0.355654
0.353464
0.353423
0.352272
0.352068
0.350935
0.351108
0.350041
0.349774
0.348858
0.348297
0.347451
0.346685
0.345847
0.345259
0.344652
0.34419
0.343731
0.343385
0.343065
0.342683
0.342401
0.342003
0.341757
0.341277
0.341047
0.340508
0.340294
0.339753
0.339518
0.339092
0.338742
0.338666
0.338256
0.338651
0.338884
0.337722
0.355869
0.351072
0.334497
0.330786
0.334578
0.338011
0.339673
0.340253
0.340461
0.340574
0.340685
0.340813
0.34096
0.34113
0.34132
0.341534
0.341769
0.342031
0.342319
0.342636
0.342983
0.343365
0.34378
0.344237
0.344728
0.345282
0.345852
0.346537
0.3472
0.348056
0.348841
0.349927
0.350849
0.352263
0.353355
0.35521
0.356476
0.358964
0.360421
0.363631
0.365097
0.368912
0.369865
0.373752
0.373573
0.377552
0.377769
0.384037
0.385338
0.389605
0.389858
0.377822
0.371799
0.334576
0.332519
0.344139
0.350338
0.352529
0.358761
0.356287
0.358542
0.354836
0.35562
0.353461
0.353415
0.352282
0.352061
0.350936
0.351094
0.350033
0.349767
0.34886
0.348299
0.347463
0.346689
0.345859
0.345264
0.344662
0.344195
0.343739
0.343389
0.34307
0.342687
0.342404
0.342005
0.341759
0.341279
0.341048
0.340509
0.340293
0.339753
0.339514
0.339089
0.338735
0.338658
0.338247
0.338638
0.338874
0.33772
0.355743
0.351079
0.334737
0.331023
0.334705
0.338063
0.339696
0.340267
0.340473
0.340585
0.340696
0.340823
0.34097
0.34114
0.34133
0.341544
0.34178
0.342042
0.34233
0.342648
0.342996
0.343377
0.343793
0.344251
0.344743
0.345297
0.345868
0.346553
0.347217
0.348074
0.348861
0.349948
0.350871
0.352286
0.353381
0.355235
0.356504
0.358988
0.360448
0.363647
0.365118
0.368915
0.369875
0.373741
0.373583
0.377541
0.37778
0.383979
0.385274
0.389397
0.389604
0.377092
0.369818
0.332565
0.330582
0.342877
0.349642
0.352376
0.358614
0.356273
0.358465
0.354802
0.355581
0.353452
0.353403
0.352285
0.352049
0.350932
0.351074
0.35002
0.349754
0.348859
0.348297
0.347471
0.346689
0.345866
0.345266
0.344668
0.344197
0.343744
0.343391
0.343074
0.342688
0.342406
0.342005
0.341759
0.341279
0.341047
0.340509
0.34029
0.339752
0.339508
0.339084
0.338726
0.338648
0.338236
0.338622
0.338862
0.337716
0.355614
0.351081
0.334972
0.331257
0.334829
0.338114
0.339719
0.34028
0.340484
0.340595
0.340706
0.340833
0.34098
0.34115
0.34134
0.341554
0.34179
0.342052
0.342341
0.342658
0.343007
0.343389
0.343805
0.344263
0.344756
0.34531
0.345882
0.346568
0.347232
0.34809
0.348877
0.349965
0.35089
0.352305
0.353402
0.355255
0.356526
0.359007
0.360468
0.363658
0.365131
0.368911
0.369877
0.373723
0.373584
0.377521
0.377778
0.383911
0.385196
0.389179
0.389334
0.376325
0.36766
0.330284
0.328424
0.341513
0.348921
0.352232
0.358467
0.356258
0.358383
0.354766
0.355537
0.353437
0.353386
0.352281
0.352031
0.350923
0.351049
0.350003
0.349737
0.348853
0.34829
0.347475
0.346686
0.345871
0.345265
0.344671
0.344196
0.343747
0.343391
0.343075
0.342687
0.342406
0.342004
0.341758
0.341278
0.341045
0.340507
0.340286
0.339748
0.339501
0.339078
0.338716
0.338636
0.338223
0.338605
0.338847
0.33771
0.355483
0.35108
0.335203
0.331489
0.334953
0.338165
0.339741
0.340294
0.340495
0.340605
0.340715
0.340842
0.340989
0.341159
0.341349
0.341563
0.341799
0.342062
0.34235
0.342668
0.343016
0.343399
0.343815
0.344274
0.344767
0.345321
0.345894
0.34658
0.347245
0.348103
0.348891
0.349979
0.350905
0.35232
0.353419
0.35527
0.356544
0.359019
0.360482
0.363662
0.365136
0.368901
0.36987
0.373698
0.373575
0.377492
0.377764
0.383836
0.385106
0.388954
0.389052
0.375534
0.365358
0.327762
0.32607
0.340073
0.348192
0.352104
0.358326
0.356245
0.358299
0.35473
0.355489
0.353418
0.353365
0.352272
0.352009
0.350909
0.351018
0.349982
0.349716
0.348843
0.34828
0.347474
0.346678
0.345871
0.34526
0.344671
0.344193
0.343748
0.343388
0.343075
0.342684
0.342404
0.342
0.341755
0.341274
0.341041
0.340503
0.34028
0.339743
0.339492
0.33907
0.338703
0.338622
0.338207
0.338584
0.338829
0.337702
0.355348
0.351074
0.33543
0.331718
0.335076
0.338215
0.339763
0.340307
0.340506
0.340615
0.340725
0.340851
0.340998
0.341167
0.341357
0.341571
0.341808
0.34207
0.342359
0.342676
0.343025
0.343407
0.343824
0.344283
0.344776
0.345331
0.345904
0.34659
0.347256
0.348114
0.348902
0.349991
0.350917
0.352332
0.353432
0.355281
0.356556
0.359027
0.36049
0.363661
0.365135
0.368884
0.369855
0.373666
0.373557
0.377457
0.377738
0.383753
0.385005
0.388724
0.388764
0.374732
0.36295
0.325035
0.323552
0.338585
0.347472
0.352
0.358195
0.356236
0.358215
0.354695
0.35544
0.353394
0.353341
0.352258
0.351983
0.35089
0.350984
0.349957
0.34969
0.348829
0.348266
0.34747
0.346668
0.345869
0.345251
0.344668
0.344187
0.343746
0.343383
0.343072
0.342679
0.342401
0.341995
0.341751
0.341269
0.341035
0.340498
0.340272
0.339736
0.339481
0.339059
0.338689
0.338606
0.33819
0.338561
0.338808
0.337693
0.355211
0.351065
0.335653
0.331944
0.335197
0.338265
0.339784
0.340319
0.340516
0.340624
0.340734
0.340859
0.341006
0.341175
0.341365
0.341579
0.341815
0.342077
0.342366
0.342684
0.343033
0.343415
0.343832
0.344291
0.344784
0.345339
0.345912
0.346598
0.347264
0.348122
0.34891
0.349999
0.350926
0.35234
0.35344
0.355288
0.356563
0.35903
0.360492
0.363654
0.365127
0.368862
0.369833
0.373628
0.37353
0.377416
0.377703
0.383666
0.384896
0.388494
0.388475
0.373932
0.360477
0.322141
0.320904
0.337079
0.34678
0.351926
0.358079
0.356234
0.358135
0.354663
0.355389
0.353368
0.353314
0.352239
0.351954
0.350868
0.350945
0.349929
0.349661
0.348811
0.348248
0.347462
0.346654
0.345863
0.34524
0.344663
0.344178
0.343742
0.343376
0.343067
0.342673
0.342395
0.341988
0.341745
0.341263
0.341028
0.340491
0.340263
0.339728
0.339468
0.339047
0.338673
0.338587
0.33817
0.338535
0.338785
0.337681
0.355071
0.351052
0.335873
0.332168
0.335317
0.338314
0.339806
0.340332
0.340526
0.340633
0.340742
0.340867
0.341014
0.341182
0.341372
0.341586
0.341822
0.342084
0.342373
0.34269
0.343039
0.343421
0.343839
0.344297
0.34479
0.345345
0.345918
0.346604
0.34727
0.348127
0.348916
0.350004
0.350931
0.352345
0.353445
0.35529
0.356566
0.359028
0.360488
0.363642
0.365112
0.368834
0.369804
0.373586
0.373496
0.37737
0.377659
0.383575
0.38478
0.388264
0.388187
0.373146
0.357986
0.319125
0.318167
0.335586
0.346136
0.351891
0.357983
0.356241
0.358059
0.354634
0.35534
0.35334
0.353287
0.352217
0.351923
0.350843
0.350904
0.349898
0.349628
0.34879
0.348227
0.34745
0.346636
0.345854
0.345227
0.344655
0.344167
0.343736
0.343367
0.343061
0.342664
0.342388
0.34198
0.341737
0.341255
0.34102
0.340482
0.340252
0.339717
0.339454
0.339033
0.338654
0.338566
0.338148
0.338507
0.338759
0.337669
0.354928
0.351036
0.336089
0.33239
0.335437
0.338363
0.339827
0.340344
0.340536
0.340641
0.34075
0.340875
0.341021
0.341189
0.341379
0.341592
0.341828
0.34209
0.342378
0.342696
0.343045
0.343426
0.343844
0.344302
0.344795
0.345349
0.345923
0.346608
0.347273
0.348131
0.348919
0.350007
0.350934
0.352346
0.353447
0.35529
0.356564
0.359022
0.36048
0.363626
0.365092
0.368802
0.369769
0.373539
0.373455
0.37732
0.377608
0.383482
0.384659
0.388039
0.387906
0.372386
0.355521
0.316034
0.315382
0.334141
0.345557
0.3519
0.357911
0.356259
0.357992
0.354609
0.355292
0.35331
0.353258
0.352191
0.351889
0.350815
0.35086
0.349865
0.349593
0.348767
0.348204
0.347435
0.346617
0.345843
0.34521
0.344644
0.344155
0.343728
0.343356
0.343053
0.342654
0.34238
0.34197
0.341728
0.341245
0.34101
0.340472
0.34024
0.339705
0.339438
0.339017
0.338634
0.338543
0.338123
0.338476
0.33873
0.337654
0.354783
0.351017
0.336302
0.332609
0.335555
0.338412
0.339847
0.340356
0.340545
0.340649
0.340758
0.340882
0.341028
0.341196
0.341385
0.341598
0.341834
0.342095
0.342383
0.342701
0.343049
0.343431
0.343848
0.344305
0.344799
0.345352
0.345926
0.346611
0.347275
0.348132
0.34892
0.350007
0.350934
0.352345
0.353445
0.355285
0.356559
0.359012
0.360467
0.363606
0.365067
0.368767
0.369729
0.37349
0.373409
0.377267
0.37755
0.383387
0.384535
0.387819
0.387635
0.371662
0.35313
0.312919
0.312596
0.332777
0.345061
0.351958
0.357867
0.356289
0.357933
0.35459
0.355248
0.35328
0.353229
0.352163
0.351854
0.350784
0.350814
0.349829
0.349556
0.348741
0.348178
0.347417
0.346595
0.345829
0.345192
0.344632
0.34414
0.343719
0.343344
0.343043
0.342643
0.34237
0.341959
0.341718
0.341234
0.340999
0.340461
0.340226
0.339692
0.339421
0.338999
0.338613
0.338518
0.338097
0.338443
0.338698
0.337638
0.354635
0.350995
0.336511
0.332826
0.335673
0.33846
0.339868
0.340367
0.340554
0.340657
0.340765
0.340889
0.341034
0.341202
0.34139
0.341603
0.341839
0.3421
0.342388
0.342705
0.343053
0.343434
0.343851
0.344308
0.344801
0.345354
0.345928
0.346612
0.347276
0.348132
0.348919
0.350005
0.350931
0.352341
0.35344
0.355278
0.35655
0.358999
0.36045
0.363582
0.365038
0.368728
0.369684
0.373438
0.373358
0.377213
0.377487
0.383293
0.38441
0.387608
0.387377
0.370985
0.350862
0.309833
0.309857
0.331528
0.344664
0.352069
0.357851
0.356333
0.357885
0.354576
0.355207
0.353251
0.353202
0.352133
0.351819
0.350752
0.350768
0.349793
0.349518
0.348713
0.348151
0.347397
0.346571
0.345812
0.345172
0.344618
0.344124
0.343708
0.34333
0.343032
0.342631
0.342359
0.341946
0.341706
0.341222
0.340986
0.340448
0.340211
0.339677
0.339402
0.338979
0.338589
0.338491
0.338069
0.338407
0.338664
0.337621
0.354484
0.350969
0.336718
0.333041
0.335789
0.338508
0.339888
0.340379
0.340563
0.340665
0.340772
0.340895
0.34104
0.341207
0.341395
0.341608
0.341843
0.342104
0.342392
0.342708
0.343056
0.343437
0.343853
0.34431
0.344802
0.345355
0.345928
0.346611
0.347275
0.348129
0.348916
0.350001
0.350926
0.352335
0.353432
0.355269
0.356537
0.358984
0.360429
0.363556
0.365004
0.368687
0.369636
0.373385
0.373304
0.377158
0.377421
0.383201
0.384285
0.387406
0.387134
0.370361
0.348763
0.306833
0.307216
0.330426
0.344381
0.352234
0.357866
0.35639
0.357848
0.354569
0.35517
0.353223
0.353175
0.352103
0.351783
0.350719
0.350721
0.349755
0.349478
0.348683
0.348122
0.347374
0.346546
0.345794
0.34515
0.344602
0.344107
0.343695
0.343316
0.34302
0.342617
0.342347
0.341933
0.341694
0.341209
0.340973
0.340434
0.340195
0.33966
0.339382
0.338958
0.338564
0.338462
0.338039
0.33837
0.338628
0.337602
0.354332
0.350942
0.336921
0.333254
0.335905
0.338556
0.339908
0.34039
0.340572
0.340673
0.340779
0.340902
0.341046
0.341212
0.3414
0.341612
0.341847
0.342108
0.342395
0.342711
0.343058
0.343438
0.343855
0.34431
0.344803
0.345355
0.345927
0.34661
0.347272
0.348126
0.348911
0.349996
0.35092
0.352328
0.353422
0.355257
0.356523
0.358965
0.360406
0.363527
0.364968
0.368645
0.369586
0.373331
0.373247
0.377103
0.377353
0.383111
0.384162
0.387215
0.386907
0.369796
0.346874
0.303974
0.304725
0.329501
0.344222
0.352456
0.357913
0.356461
0.357823
0.354569
0.355138
0.353196
0.35315
0.352072
0.351748
0.350685
0.350674
0.349716
0.349438
0.348653
0.348092
0.34735
0.346519
0.345775
0.345128
0.344584
0.344088
0.343682
0.3433
0.343007
0.342603
0.342335
0.341919
0.34168
0.341196
0.340958
0.34042
0.340178
0.339643
0.339361
0.338936
0.338538
0.338431
0.338008
0.338331
0.338591
0.337583
0.354177
0.350911
0.337122
0.333465
0.33602
0.338603
0.339928
0.340401
0.34058
0.34068
0.340786
0.340908
0.341051
0.341217
0.341405
0.341616
0.341851
0.342111
0.342397
0.342713
0.34306
0.34344
0.343855
0.344311
0.344802
0.345353
0.345926
0.346607
0.347268
0.348121
0.348905
0.349989
0.350911
0.352318
0.353411
0.355243
0.356506
0.358946
0.36038
0.363497
0.364929
0.368601
0.369533
0.373276
0.373189
0.377049
0.377283
0.383024
0.384043
0.387035
0.386699
0.369294
0.345236
0.301311
0.302433
0.328779
0.344195
0.352733
0.357991
0.356547
0.35781
0.354575
0.355111
0.353171
0.353126
0.352041
0.351713
0.350651
0.350627
0.349678
0.349398
0.348621
0.348061
0.347325
0.346492
0.345754
0.345104
0.344566
0.344069
0.343668
0.343284
0.342993
0.342588
0.342321
0.341904
0.341666
0.341181
0.340943
0.340404
0.34016
0.339625
0.339339
0.338912
0.338511
0.338399
0.337975
0.33829
0.338551
0.337563
0.35402
0.350878
0.33732
0.333674
0.336134
0.33865
0.339948
0.340412
0.340589
0.340687
0.340793
0.340913
0.341057
0.341222
0.341409
0.34162
0.341854
0.342114
0.3424
0.342715
0.343061
0.34344
0.343855
0.34431
0.344801
0.345352
0.345923
0.346603
0.347264
0.348116
0.348898
0.349981
0.350902
0.352307
0.353398
0.355228
0.356487
0.358924
0.360352
0.363466
0.364889
0.368557
0.369479
0.373223
0.37313
0.376996
0.377214
0.382941
0.383927
0.386867
0.386509
0.368858
0.343881
0.298898
0.300393
0.328282
0.344306
0.353062
0.358099
0.356644
0.357808
0.354587
0.35509
0.353149
0.353105
0.352011
0.35168
0.350617
0.350582
0.34964
0.349358
0.348589
0.348031
0.347298
0.346464
0.345733
0.34508
0.344547
0.34405
0.343654
0.343267
0.342978
0.342573
0.342307
0.341889
0.341652
0.341166
0.340927
0.340388
0.340141
0.339606
0.339317
0.338887
0.338483
0.338366
0.337941
0.338248
0.33851
0.337542
0.35386
0.350843
0.337516
0.333881
0.336247
0.338697
0.339968
0.340423
0.340597
0.340694
0.340799
0.340919
0.341062
0.341227
0.341413
0.341624
0.341857
0.342116
0.342402
0.342716
0.343062
0.343441
0.343855
0.344309
0.3448
0.345349
0.34592
0.346599
0.347259
0.348109
0.34889
0.349972
0.350892
0.352296
0.353384
0.355212
0.356468
0.358902
0.360323
0.363434
0.364848
0.368514
0.369425
0.373171
0.373071
0.376946
0.377145
0.382862
0.383816
0.386712
0.386338
0.368485
0.342834
0.296786
0.29865
0.328028
0.344554
0.35344
0.358234
0.356754
0.357818
0.354605
0.355074
0.353129
0.353087
0.351981
0.351648
0.350584
0.350537
0.349602
0.349319
0.348558
0.348
0.347271
0.346437
0.34571
0.345056
0.344527
0.344031
0.343639
0.34325
0.342964
0.342557
0.342293
0.341874
0.341637
0.341151
0.340911
0.340371
0.340122
0.339586
0.339294
0.338862
0.338455
0.338332
0.337906
0.338205
0.338468
0.337521
0.353699
0.350806
0.337709
0.334086
0.336359
0.338743
0.339987
0.340434
0.340605
0.340701
0.340805
0.340925
0.341067
0.341231
0.341417
0.341627
0.34186
0.342118
0.342404
0.342717
0.343063
0.343441
0.343855
0.344308
0.344798
0.345346
0.345917
0.346595
0.347253
0.348103
0.348882
0.349962
0.350881
0.352284
0.353369
0.355196
0.356447
0.35888
0.360294
0.363402
0.364806
0.368471
0.369371
0.373121
0.373013
0.376898
0.377078
0.382788
0.383711
0.386568
0.386185
0.368175
0.342113
0.295021
0.297248
0.328027
0.344937
0.353862
0.358394
0.356873
0.357838
0.354628
0.355062
0.353112
0.353071
0.351953
0.351618
0.350552
0.350495
0.349565
0.349282
0.348526
0.34797
0.347244
0.346409
0.345688
0.345032
0.344508
0.344011
0.343624
0.343234
0.342949
0.342542
0.342278
0.341858
0.341621
0.341135
0.340895
0.340354
0.340103
0.339566
0.33927
0.338836
0.338425
0.338298
0.337871
0.338161
0.338426
0.3375
0.353536
0.350767
0.337899
0.334289
0.336471
0.33879
0.340007
0.340445
0.340613
0.340708
0.340811
0.34093
0.341072
0.341235
0.341421
0.34163
0.341862
0.34212
0.342405
0.342718
0.343064
0.343441
0.343854
0.344306
0.344795
0.345343
0.345913
0.34659
0.347247
0.348096
0.348873
0.349953
0.350869
0.352271
0.353354
0.355179
0.356426
0.358857
0.360264
0.363371
0.364764
0.368429
0.369318
0.373072
0.372957
0.376854
0.377013
0.382719
0.383611
0.386437
0.386049
0.367925
0.341725
0.293641
0.296225
0.328284
0.345448
0.354321
0.358576
0.357001
0.357867
0.354656
0.355055
0.353097
0.353057
0.351927
0.35159
0.350521
0.350454
0.34953
0.349245
0.348495
0.347941
0.347217
0.346383
0.345666
0.345009
0.344488
0.343992
0.343608
0.343217
0.342933
0.342526
0.342264
0.341842
0.341606
0.34112
0.340878
0.340337
0.340084
0.339545
0.339246
0.338809
0.338396
0.338263
0.337836
0.338117
0.338383
0.337478
0.353371
0.350726
0.338087
0.33449
0.336582
0.338835
0.340026
0.340455
0.340621
0.340715
0.340818
0.340935
0.341076
0.341239
0.341424
0.341633
0.341865
0.342123
0.342407
0.342719
0.343064
0.34344
0.343853
0.344305
0.344793
0.34534
0.345909
0.346585
0.347241
0.348089
0.348865
0.349943
0.350858
0.352259
0.353338
0.355163
0.356406
0.358835
0.360235
0.36334
0.364723
0.368389
0.369266
0.373027
0.372902
0.376813
0.376951
0.382655
0.383518
0.386316
0.385929
0.367728
0.341668
0.292677
0.295609
0.328796
0.346077
0.35481
0.358775
0.357135
0.357904
0.354688
0.355052
0.353085
0.353046
0.351902
0.351564
0.350491
0.350416
0.349495
0.34921
0.348465
0.347913
0.34719
0.346357
0.345644
0.344986
0.344468
0.343974
0.343594
0.343201
0.342919
0.342511
0.342249
0.341827
0.341591
0.341104
0.340861
0.34032
0.340064
0.339525
0.339222
0.338783
0.338366
0.338227
0.3378
0.338072
0.338339
0.337457
0.353204
0.350683
0.338273
0.334689
0.336692
0.338881
0.340045
0.340466
0.340629
0.340722
0.340824
0.340941
0.341081
0.341243
0.341428
0.341636
0.341867
0.342125
0.342408
0.34272
0.343064
0.34344
0.343852
0.344303
0.344791
0.345337
0.345905
0.34658
0.347234
0.348082
0.348856
0.349933
0.350846
0.352247
0.353323
0.355147
0.356385
0.358813
0.360206
0.363311
0.364684
0.368351
0.369216
0.372984
0.37285
0.376775
0.376892
0.382597
0.383431
0.386206
0.385823
0.36758
0.341931
0.292151
0.295423
0.329552
0.346811
0.355321
0.358989
0.357272
0.357947
0.354722
0.355053
0.353075
0.353038
0.351879
0.35154
0.350463
0.35038
0.349463
0.349177
0.348437
0.347885
0.347164
0.346332
0.345622
0.344963
0.344449
0.343956
0.343579
0.343185
0.342904
0.342496
0.342235
0.341812
0.341576
0.341089
0.340845
0.340303
0.340044
0.339504
0.339198
0.338756
0.338336
0.338192
0.337764
0.338028
0.338296
0.337436
0.353035
0.350639
0.338457
0.334887
0.3368
0.338927
0.340064
0.340476
0.340637
0.340728
0.34083
0.340946
0.341086
0.341248
0.341431
0.341639
0.34187
0.342127
0.34241
0.342721
0.343065
0.34344
0.343851
0.344301
0.344788
0.345334
0.345901
0.346575
0.347228
0.348075
0.348847
0.349924
0.350835
0.352235
0.353309
0.355131
0.356365
0.358793
0.360178
0.363283
0.364645
0.368315
0.369169
0.372944
0.372801
0.376742
0.376838
0.382543
0.38335
0.386106
0.38573
0.367474
0.342491
0.292071
0.295675
0.330537
0.347633
0.355848
0.359211
0.357412
0.357996
0.354759
0.355058
0.353067
0.353031
0.351858
0.351518
0.350437
0.350346
0.349432
0.349145
0.348409
0.34786
0.347139
0.346308
0.345601
0.344942
0.344431
0.343938
0.343565
0.34317
0.34289
0.342482
0.342221
0.341797
0.341561
0.341073
0.340829
0.340286
0.340025
0.339484
0.339174
0.338729
0.338307
0.338157
0.337728
0.337984
0.338253
0.337416
0.352864
0.350592
0.338638
0.335082
0.336908
0.338972
0.340083
0.340487
0.340645
0.340735
0.340836
0.340951
0.34109
0.341252
0.341435
0.341642
0.341872
0.342129
0.342411
0.342722
0.343065
0.34344
0.34385
0.3443
0.344786
0.345331
0.345898
0.34657
0.347223
0.348068
0.348839
0.349915
0.350825
0.352224
0.353295
0.355117
0.356346
0.358774
0.360152
0.363257
0.364609
0.368282
0.369123
0.372907
0.372755
0.376712
0.376787
0.382494
0.383275
0.386015
0.385647
0.367403
0.343318
0.292433
0.296363
0.331727
0.348528
0.356381
0.35944
0.357552
0.358048
0.354798
0.355064
0.353061
0.353027
0.351839
0.351499
0.350412
0.350314
0.349402
0.349116
0.348383
0.347835
0.347115
0.346286
0.345581
0.344922
0.344413
0.343922
0.343552
0.343155
0.342876
0.342468
0.342208
0.341783
0.341546
0.341059
0.340813
0.340269
0.340006
0.339464
0.339151
0.338703
0.338277
0.338122
0.337693
0.33794
0.33821
0.337396
0.352692
0.350545
0.338817
0.335275
0.337016
0.339016
0.340102
0.340497
0.340653
0.340742
0.340842
0.340956
0.341095
0.341256
0.341438
0.341645
0.341875
0.342131
0.342413
0.342723
0.343065
0.34344
0.34385
0.344299
0.344784
0.345329
0.345894
0.346566
0.347217
0.348062
0.348832
0.349906
0.350815
0.352214
0.353282
0.355104
0.356329
0.358756
0.360127
0.363233
0.364574
0.36825
0.369081
0.372874
0.372712
0.376686
0.37674
0.38245
0.383207
0.385931
0.385575
0.36736
0.344376
0.293221
0.297473
0.333095
0.349475
0.356913
0.35967
0.357691
0.358102
0.354837
0.355073
0.353057
0.353025
0.351822
0.351481
0.350389
0.350285
0.349375
0.349089
0.348358
0.347812
0.347092
0.346265
0.345562
0.344903
0.344396
0.343907
0.343539
0.343142
0.342863
0.342455
0.342195
0.341769
0.341532
0.341045
0.340797
0.340253
0.339988
0.339444
0.339127
0.338677
0.338249
0.338087
0.337658
0.337897
0.338168
0.337376
0.352519
0.350495
0.338993
0.335466
0.337122
0.339061
0.340121
0.340507
0.340661
0.340748
0.340847
0.340962
0.3411
0.34126
0.341442
0.341649
0.341878
0.342133
0.342414
0.342725
0.343066
0.34344
0.343849
0.344298
0.344782
0.345326
0.345891
0.346563
0.347213
0.348057
0.348825
0.349899
0.350806
0.352205
0.35327
0.355091
0.356312
0.358739
0.360103
0.36321
0.364542
0.368222
0.369041
0.372844
0.372673
0.376663
0.376698
0.382411
0.383143
0.385855
0.38551
0.367338
0.345623
0.294406
0.298978
0.334608
0.350457
0.357438
0.359899
0.357825
0.358157
0.354876
0.355084
0.353055
0.353024
0.351806
0.351465
0.350368
0.350258
0.349349
0.349063
0.348335
0.347791
0.34707
0.346246
0.345544
0.344885
0.34438
0.343893
0.343527
0.343129
0.34285
0.342442
0.342183
0.341756
0.341519
0.341031
0.340782
0.340238
0.339969
0.339425
0.339105
0.338651
0.33822
0.338053
0.337624
0.337854
0.338127
0.337357
0.352343
0.350444
0.339167
0.335656
0.337227
0.339105
0.34014
0.340518
0.340668
0.340755
0.340853
0.340967
0.341105
0.341264
0.341446
0.341652
0.341881
0.342135
0.342416
0.342726
0.343067
0.34344
0.343849
0.344297
0.344781
0.345324
0.345889
0.346559
0.347208
0.348052
0.348818
0.349892
0.350798
0.352196
0.353259
0.35508
0.356297
0.358724
0.360082
0.36319
0.364512
0.368196
0.369005
0.372817
0.372637
0.376645
0.37666
0.382375
0.383085
0.385785
0.385451
0.367333
0.347014
0.295946
0.30084
0.336232
0.351455
0.357949
0.360122
0.357955
0.358212
0.354915
0.355095
0.353053
0.353025
0.351792
0.351451
0.350349
0.350234
0.349326
0.34904
0.348313
0.347772
0.347049
0.346228
0.345527
0.344869
0.344365
0.34388
0.343516
0.343117
0.342838
0.342431
0.342171
0.341744
0.341506
0.341018
0.340768
0.340222
0.339952
0.339406
0.339083
0.338626
0.338192
0.33802
0.337591
0.337813
0.338086
0.337339
0.352166
0.350392
0.339339
0.335843
0.337331
0.339149
0.340158
0.340528
0.340676
0.340761
0.340859
0.340972
0.341109
0.341268
0.34145
0.341655
0.341883
0.342138
0.342418
0.342728
0.343068
0.343441
0.343849
0.344297
0.34478
0.345323
0.345887
0.346557
0.347205
0.348048
0.348813
0.349886
0.35079
0.352189
0.353249
0.355071
0.356283
0.358711
0.360062
0.363172
0.364484
0.368173
0.368971
0.372793
0.372605
0.376629
0.376626
0.382344
0.383032
0.38572
0.385396
0.367337
0.348503
0.29779
0.303008
0.337931
0.352452
0.35844
0.360338
0.358079
0.358266
0.354952
0.355108
0.353053
0.353027
0.35178
0.351439
0.350331
0.350212
0.349304
0.349018
0.348293
0.347754
0.34703
0.346212
0.345511
0.344854
0.344351
0.343868
0.343506
0.343106
0.342827
0.34242
0.34216
0.341732
0.341494
0.341005
0.340754
0.340208
0.339935
0.339388
0.339061
0.338602
0.338165
0.337987
0.337558
0.337772
0.338047
0.337322
0.351988
0.350338
0.339509
0.336028
0.337434
0.339192
0.340177
0.340538
0.340684
0.340768
0.340865
0.340978
0.341114
0.341273
0.341453
0.341659
0.341886
0.34214
0.34242
0.342729
0.34307
0.343442
0.34385
0.344297
0.34478
0.345322
0.345885
0.346555
0.347202
0.348045
0.348808
0.349881
0.350784
0.352183
0.35324
0.355062
0.356271
0.3587
0.360045
0.363155
0.364459
0.368152
0.36894
0.372772
0.372576
0.376617
0.376595
0.382316
0.382984
0.38566
0.385345
0.367346
0.350046
0.299879
0.305428
0.339669
0.353432
0.358907
0.360544
0.358196
0.358319
0.354988
0.355121
0.353053
0.35303
0.351769
0.351429
0.350315
0.350192
0.349284
0.348999
0.348274
0.347737
0.347012
0.346198
0.345496
0.34484
0.344338
0.343857
0.343496
0.343096
0.342817
0.34241
0.34215
0.341721
0.341482
0.340993
0.340741
0.340194
0.339918
0.33937
0.33904
0.338578
0.338139
0.337956
0.337527
0.337732
0.338008
0.337305
0.351809
0.350283
0.339677
0.336211
0.337536
0.339235
0.340195
0.340548
0.340692
0.340774
0.340871
0.340983
0.341119
0.341277
0.341457
0.341662
0.34189
0.342143
0.342423
0.342731
0.343071
0.343443
0.34385
0.344297
0.344779
0.345322
0.345884
0.346553
0.347199
0.348043
0.348804
0.349877
0.350779
0.352178
0.353233
0.355056
0.356261
0.35869
0.360029
0.363141
0.364436
0.368133
0.368912
0.372753
0.37255
0.376608
0.376569
0.382291
0.382939
0.385604
0.385296
0.367356
0.351601
0.302147
0.308035
0.341414
0.354382
0.359346
0.360739
0.358305
0.358369
0.355023
0.355134
0.353054
0.353034
0.351759
0.35142
0.350301
0.350174
0.349266
0.348981
0.348257
0.347722
0.346995
0.346185
0.345483
0.344827
0.344326
0.343847
0.343488
0.343087
0.342807
0.3424
0.34214
0.341711
0.341471
0.340982
0.340728
0.34018
0.339903
0.339353
0.33902
0.338555
0.338113
0.337925
0.337496
0.337693
0.337971
0.337289
0.351628
0.350226
0.339842
0.336392
0.337637
0.339278
0.340214
0.340558
0.340699
0.340781
0.340877
0.340988
0.341124
0.341281
0.341461
0.341666
0.341893
0.342146
0.342425
0.342734
0.343073
0.343445
0.343852
0.344298
0.34478
0.345322
0.345883
0.346552
0.347198
0.348041
0.348801
0.349873
0.350775
0.352174
0.353227
0.35505
0.356252
0.358682
0.360015
0.363129
0.364416
0.368118
0.368888
0.372738
0.372528
0.376602
0.376546
0.382269
0.382899
0.385552
0.385248
0.367364
0.353131
0.30453
0.310766
0.343135
0.355291
0.359755
0.360921
0.358406
0.358415
0.355055
0.355147
0.353056
0.353039
0.351751
0.351413
0.350288
0.350157
0.349249
0.348965
0.348241
0.347709
0.34698
0.346173
0.345471
0.344816
0.344315
0.343838
0.34348
0.343079
0.342799
0.342392
0.342131
0.341701
0.341461
0.340971
0.340716
0.340167
0.339887
0.339337
0.339
0.338532
0.338088
0.337895
0.337466
0.337656
0.337934
0.337274
0.351446
0.350168
0.340004