/*--------------------------------*- C++ -*----------------------------------*\
| =========                 |                                                 |
| \\      /  F ield         | OpenFOAM: The Open Source CFD Toolbox           |
|  \\    /   O peration     | Version:  2412                                  |
|   \\  /    A nd           | Website:  www.openfoam.com                      |
|    \\/     M anipulation  |                                                 |
\*---------------------------------------------------------------------------*/
FoamFile
{
    version     2.0;
    format      ascii;
    arch        "LSB;label=32;scalar=64";
    class       volScalarField;
    location    "0.1";
    object      p;
}
// * * * * * * * * * * * * * * * * * * * * * * * * * * * * * * * * * * * * * //

dimensions      [0 2 -2 0 0 0 0];

internalField   nonuniform List<scalar> 
13068
(
125592
125590
125547
125512
125440
125362
125261
125141
125005
124842
124664
124455
124229
123969
123688
123370
123026
122642
122228
121766
121276
120715
120169
119415
118974
117708
117790
115518
116411
113226
114246
111065
111603
107883
109616
103038
107714
97338.8
105081
90680.6
101820
82368.9
97903.2
71118.2
93216.7
54526.2
86887.6
30009.1
77716
-4919.36
64277.9
-53314.7
46583
-108382
31816.1
-80982.1
29176.2
-48283.2
33869.2
-21557.6
38963.5
-118.605
43347.7
17064.7
47265.2
29984.6
51225.1
39528.4
54599.5
46754
57270.2
52769.8
59129.7
57589.2
61488.4
60740.3
64118.2
63449.6
66071.1
66140.7
67633.5
68379.5
69191.8
70148.5
70674
71659.4
72044.6
73055.3
73284.2
74403
74473.6
75731.7
75603.5
77099.5
76713.4
78482.7
77794.5
79913.8
78806.4
125588
125586
125543
125508
125436
125358
125257
125137
125001
124838
124660
124451
124225
123965
123684
123366
123022
122638
122224
121763
121272
120711
120166
119411
118971
117704
117788
115514
116410
113221
114245
111061
111601
107880
109614
103033
107715
97331
105083
90672.2
101819
82359.2
97897.7
71104.6
93204.8
54509
86874.6
29993.2
77705.7
-4927.86
64275.3
-53274.7
46612.6
-108237
31855.6
-80945.7
29199
-48283.3
33876.8
-21561.6
38964.4
-123.059
43345.6
17058.4
47262.2
29975.7
51223.5
39518.1
54600
46744.6
57270.5
52764.8
59127.9
57586.7
61487.9
60736.4
64119.2
63445.3
66071
66137.6
67632.2
68377.4
69190.4
70147.3
70673.1
71659.1
72044.6
73055.9
73285
74404.4
74475.4
75733.5
75606.2
77101
76716.8
78482.9
77798.6
79911.9
78810.8
125584
125583
125540
125504
125432
125354
125253
125134
124997
124834
124656
124448
124221
123961
123680
123362
123019
122635
122220
121759
121269
120708
120163
119408
118968
117700
117785
115509
116409
113215
114244
111056
111598
107878
109611
103028
107715
97323.1
105085
90663.9
101818
82349.4
97892.3
71091.1
93193.3
54492
86862
29977.2
77695.9
-4936.44
64273.6
-53235
46644.6
-108093
31894.5
-80910.8
29221.8
-48284.1
33884.7
-21566.1
38965.3
-127.856
43343.7
17051.9
47259.5
29966.7
51222.1
39507.8
54600.5
46735.4
57270.7
52759.9
59126.2
57584.2
61487.3
60732.4
64120
63441
66070.9
66134.6
67630.9
68375.4
69189.1
70146.1
70672.2
71658.7
72044.5
73056.5
73285.8
74405.8
74477.1
75735.1
75608.8
77102.3
76720.2
78483
77802.5
79909.8
78815
125579
125578
125535
125500
125428
125350
125250
125130
124994
124831
124652
124444
124217
123958
123676
123359
123015
122631
122217
121756
121265
120704
120159
119405
118965
117697
117783
115504
116409
113210
114244
111052
111596
107875
109608
103024
107716
97315.4
105086
90655.6
101817
82339.7
97887.1
71077.7
93182.1
54475.1
86849.8
29961.3
77686.4
-4944.87
64272.3
-53195.3
46678.2
-107951
31932.6
-80877
29244.1
-48285.3
33892.5
-21570.8
38966.3
-132.793
43341.9
17045.3
47257
29957.8
51220.7
39497.7
54601
46726.3
57270.9
52755
59124.5
57581.7
61486.7
60728.5
64120.8
63436.8
66070.7
66131.6
67629.6
68373.3
69187.7
70144.8
70671.3
71658.4
72044.4
73057
73286.6
74407
74478.8
75736.6
75611.3
77103.5
76723.4
78483
77806.2
79907.6
78819.1
125575
125574
125531
125496
125424
125346
125246
125126
124990
124827
124649
124440
124214
123954
123673
123355
123012
122628
122213
121752
121262
120701
120156
119401
118962
117693
117781
115500
116408
113204
114243
111047
111593
107872
109606
103019
107716
97307.7
105088
90647.4
101816
82330
97882
71064.3
93171.1
54458.3
86837.7
29945.6
77676.9
-4953.07
64271.2
-53155.6
46712.8
-107810
31969.6
-80844
29266
-48286.5
33900.1
-21575.4
38967.2
-137.697
43340.2
17038.8
47254.5
29949
51219.4
39487.6
54601.5
46717.3
57271
52750.2
59122.9
57579.2
61486.2
60724.6
64121.6
63432.6
66070.6
66128.6
67628.3
68371.3
69186.3
70143.6
70670.4
71658
72044.3
73057.6
73287.3
74408.2
74480.5
75738.1
75613.8
77104.6
76726.5
78482.9
77809.9
79905.3
78823.1
125571
125570
125527
125492
125420
125343
125242
125123
124986
124824
124645
124437
124210
123951
123669
123352
123008
122624
122210
121749
121258
120698
120153
119398
118959
117689
117779
115495
116407
113199
114243
111043
111591
107869
109603
103015
107717
97300.1
105090
90639.2
101815
82320.4
97876.9
71051
93160.3
54441.7
86825.8
29930.1
77667.6
-4961.06
64270.3
-53115.8
46748.4
-107670
32005.6
-80811.7
29287.4
-48287.7
33907.6
-21580
38968
-142.57
43338.4
17032.3
47252.1
29940.1
51218.1
39477.6
54601.9
46708.4
57271.2
52745.5
59121.2
57576.6
61485.6
60720.7
64122.3
63428.5
66070.4
66125.7
67627
68369.2
69185
70142.4
70669.5
71657.7
72044.2
73058.1
73288
74409.5
74482.1
75739.6
75616.3
77105.7
76729.7
78482.8
77813.6
79903.1
78827.1
125566
125566
125523
125489
125417
125339
125239
125119
124983
124820
124642
124433
124207
123947
123666
123348
123004
122621
122206
121745
121255
120694
120149
119395
118956
117686
117776
115491
116406
113193
114242
111039
111588
107867
109600
103010
107717
97292.5
105091
90631
101814
82310.8
97871.9
71037.8
93149.5
54425.3
86814
29914.7
77658.4
-4968.89
64269.5
-53076
46784.8
-107532
32040.7
-80780.1
29308.5
-48288.9
33915.1
-21584.5
38968.8
-147.418
43336.6
17025.9
47249.8
29931.4
51216.8
39467.7
54602.3
46699.5
57271.3
52740.8
59119.6
57574.1
61485
60716.9
64123.1
63424.4
66070.2
66122.8
67625.7
68367.2
69183.6
70141.2
70668.6
71657.3
72044.1
73058.6
73288.8
74410.6
74483.7
75741.1
75618.7
77106.8
76732.9
78482.6
77817.3
79900.8
78831.1
125562
125562
125520
125485
125413
125335
125235
125116
124979
124817
124638
124430
124203
123944
123662
123345
123001
122617
122203
121742
121252
120691
120146
119392
118953
117682
117774
115486
116405
113188
114241
111034
111586
107864
109597
103006
107717
97285
105093
90623
101813
82301.4
97866.9
71024.7
93138.9
54409
86802.3
29899.5
77649.4
-4976.57
64268.9
-53036.3
46821.9
-107395
32074.9
-80749.1
29329.4
-48290.1
33922.5
-21589
38969.5
-152.247
43334.8
17019.4
47247.4
29922.7
51215.5
39457.8
54602.7
46690.8
57271.3
52736.2
59117.9
57571.6
61484.5
60713
64123.8
63420.3
66070
66119.9
67624.4
68365.2
69182.3
70140
70667.7
71657
72044
73059.1
73289.5
74411.8
74485.4
75742.5
75621.2
77107.9
76736
78482.5
77821
79898.5
78835.1
125558
125558
125516
125481
125409
125332
125232
125112
124976
124813
124635
124426
124200
123940
123659
123341
122997
122614
122199
121739
121248
120688
120143
119388
118950
117679
117772
115482
116404
113182
114241
111030
111583
107862
109595
103001
107718
97277.6
105095
90614.9
101812
82292
97862
71011.8
93128.4
54392.9
86790.7
29884.4
77640.4
-4984.11
64268.3
-52996.8
46859.5
-107259
32108.2
-80718.6
29349.9
-48291.3
33929.9
-21593.4
38970.2
-157.038
43333
17013
47245.1
29914
51214.2
39448
54603.2
46682
57271.4
52731.5
59116.3
57569.1
61483.9
60709.2
64124.6
63416.2
66069.8
66117
67623.2
68363.2
69180.9
70138.8
70666.8
71656.6
72043.9
73059.6
73290.2
74413
74487
75743.9
75623.6
77109
76739.1
78482.3
77824.7
79896.3
78839.1
125554
125553
125512
125477
125406
125328
125228
125109
124972
124810
124631
124423
124196
123937
123655
123338
122994
122610
122196
121735
121245
120684
120140
119385
118947
117675
117770
115478
116403
113177
114240
111026
111581
107859
109592
102997
107718
97270.1
105097
90606.9
101812
82282.7
97857.1
70998.9
93118.1
54377
86779.3
29869.5
77631.6
-4991.52
64267.9
-52957.4
46897.5
-107124
32140.7
-80688.6
29370.2
-48292.3
33937.2
-21597.8
38970.9
-161.798
43331.3
17006.7
47242.8
29905.5
51212.9
39438.3
54603.6
46673.4
57271.5
52727
59114.6
57566.7
61483.4
60705.4
64125.3
63412.1
66069.6
66114.1
67621.9
68361.2
69179.6
70137.7
70665.9
71656.3
72043.7
73060.1
73290.9
74414.1
74488.6
75745.3
75626
77110
76742.3
78482.1
77828.3
79894
78843
125549
125549
125508
125474
125402
125325
125225
125105
124969
124806
124628
124420
124193
123933
123652
123334
122990
122607
122192
121732
121242
120681
120136
119382
118944
117672
117768
115473
116403
113172
114240
111021
111579
107856
109589
102993
107719
97262.8
105098
90599
101811
82273.5
97852.3
70986.1
93107.8
54361.2
86768
29854.8
77622.8
-4998.81
64267.5
-52918.2
46935.6
-106990
32172.4
-80658.9
29390.4
-48293.3
33944.5
-21602.1
38971.6
-166.504
43329.5
17000.4
47240.6
29897
51211.6
39428.7
54603.9
46664.8
57271.5
52722.4
59113
57564.2
61482.8
60701.6
64126
63408.1
66069.4
66111.2
67620.6
68359.2
69178.2
70136.5
70665
71655.9
72043.6
73060.5
73291.6
74415.2
74490.1
75746.6
75628.5
77110.9
76745.3
78481.8
77832
79891.7
78847
125545
125545
125504
125470
125399
125321
125221
125102
124965
124803
124624
124416
124189
123930
123648
123331
122987
122604
122189
121729
121238
120678
120133
119379
118941
117669
117765
115469
116402
113167
114239
111017
111576
107854
109587
102988
107719
97255.5
105100
90591.2
101810
82264.3
97847.5
70973.5
93097.7
54345.5
86756.8
29840.2
77614.2
-5006.01
64267.1
-52879.3
46973.6
-106857
32203.5
-80629.4
29410.6
-48294.1
33951.8
-21606.3
38972.2
-171.166
43327.7
16994.1
47238.3
29888.5
51210.4
39419.1
54604.3
46656.2
57271.6
52717.9
59111.3
57561.8
61482.2
60697.9
64126.7
63404.1
66069.2
66108.4
67619.4
68357.3
69176.9
70135.3
70664.1
71655.5
72043.5
73061
73292.3
74416.3
74491.7
75747.9
75630.8
77111.9
76748.4
78481.6
77835.6
79889.4
78850.9
125541
125542
125500
125466
125395
125318
125218
125099
124962
124800
124621
124413
124186
123927
123645
123328
122984
122600
122186
121725
121235
120675
120130
119376
118938
117665
117763
115465
116401
113162
114239
111013
111574
107851
109584
102984
107719
97248.2
105102
90583.4
101809
82255.2
97842.8
70960.9
93087.6
54330.1
86745.7
29825.7
77605.6
-5013.1
64266.7
-52840.7
47011.3
-106726
32234
-80600
29430.6
-48294.8
33959.1
-21610.4
38972.8
-175.761
43326
16987.9
47236.1
29880.2
51209.1
39409.7
54604.7
46647.7
57271.6
52713.4
59109.7
57559.3
61481.6
60694.1
64127.4
63400.2
66069
66105.6
67618.1
68355.3
69175.6
70134.1
70663.2
71655.2
72043.3
73061.4
73293
74417.4
74493.3
75749.2
75633.2
77112.8
76751.5
78481.3
77839.2
79887.1
78854.8
125537
125538
125497
125463
125392
125315
125214
125095
124959
124796
124618
124409
124183
123923
123642
123324
122980
122597
122182
121722
121232
120672
120127
119373
118935
117662
117761
115461
116400
113156
114238
111009
111572
107849
109582
102980
107720
97241
105103
90575.6
101808
82246.3
97838.1
70948.5
93077.7
54314.7
86734.7
29811.4
77597.1
-5020.12
64266.3
-52802.5
47048.6
-106595
32264
-80570.7
29450.8
-48295.3
33966.4
-21614.4
38973.4
-180.302
43324.2
16981.7
47233.9
29871.9
51207.8
39400.3
54605.1
46639.3
57271.7
52709
59108
57556.9
61481
60690.4
64128.1
63396.2
66068.8
66102.8
67616.9
68353.3
69174.3
70132.9
70662.3
71654.8
72043.2
73061.9
73293.6
74418.4
74494.8
75750.5
75635.6
77113.7
76754.6
78481
77842.8
79884.8
78858.7
125533
125534
125493
125459
125388
125311
125211
125092
124955
124793
124614
124406
124179
123920
123638
123321
122977
122594
122179
121719
121229
120668
120124
119369
118932
117659
117759
115456
116399
113151
114238
111005
111569
107846
109579
102976
107720
97233.9
105105
90567.9
101807
82237.3
97833.5
70936.1
93067.9
54299.6
86723.9
29797.2
77588.7
-5027.05
64265.9
-52764.7
47085.2
-106466
32293.6
-80541.3
29471
-48295.6
33973.7
-21618.4
38973.9
-184.769
43322.5
16975.6
47231.8
29863.7
51206.6
39390.9
54605.4
46631
57271.7
52704.6
59106.4
57554.5
61480.5
60686.7
64128.7
63392.3
66068.5
66100
67615.6
68351.4
69173
70131.8
70661.4
71654.4
72043
73062.3
73294.3
74419.5
74496.4
75751.7
75637.9
77114.6
76757.6
78480.6
77846.4
79882.5
78862.6
125529
125530
125489
125456
125385
125308
125207
125089
124952
124790
124611
124403
124176
123917
123635
123318
122974
122590
122176
121716
121225
120665
120121
119366
118930
117655
117757
115452
116398
113146
114237
111001
111567
107844
109576
102972
107720
97226.8
105107
90560.2
101806
82228.5
97828.9
70923.9
93058.2
54284.6
86713.1
29783.2
77580.4
-5033.92
64265.5
-52727.4
47120.8
-106337
32323
-80511.7
29491.3
-48295.8
33981.1
-21622.2
38974.5
-189.179
43320.8
16969.5
47229.6
29855.6
51205.3
39381.7
54605.8
46622.7
57271.7
52700.2
59104.7
57552.1
61479.9
60683
64129.4
63388.4
66068.3
66097.2
67614.4
68349.5
69171.7
70130.6
70660.5
71654
72042.9
73062.7
73294.9
74420.5
74497.9
75752.9
75640.3
77115.4
76760.6
78480.3
77849.9
79880.1
78866.4
125525
125526
125486
125452
125381
125305
125204
125085
124949
124787
124608
124400
124173
123913
123632
123314
122971
122587
122173
121713
121222
120662
120118
119363
118927
117652
117755
115448
116398
113141
114237
110997
111565
107841
109574
102968
107721
97219.8
105108
90552.6
101805
82219.7
97824.3
70911.7
93048.5
54269.7
86702.4
29769.3
77572.1
-5040.71
64265
-52690.6
47155.4
-106209
32352.2
-80481.8
29511.9
-48295.7
33988.4
-21625.9
38975
-193.512
43319.1
16963.5
47227.5
29847.5
51204.1
39372.5
54606.2
46614.5
57271.7
52695.9
59103.1
57549.7
61479.3
60679.4
64130
63384.5
66068.1
66094.5
67613.2
68347.5
69170.4
70129.4
70659.7
71653.7
72042.7
73063.1
73295.6
74421.5
74499.4
75754.1
75642.6
77116.2
76763.6
78479.9
77853.5
79877.8
78870.3
125521
125522
125482
125449
125378
125301
125201
125082
124945
124783
124604
124397
124170
123910
123628
123311
122967
122584
122169
121710
121219
120659
120115
119360
118924
117649
117753
115444
116397
113136
114236
110993
111563
107839
109571
102964
107721
97212.8
105110
90545.1
101804
82211.1
97819.8
70899.7
93039
54255
86691.8
29755.5
77563.8
-5047.46
64264.4
-52654.3
47188.7
-106082
32381.4
-80451.7
29532.7
-48295.5
33995.8
-21629.5
38975.6
-197.785
43317.4
16957.6
47225.4
29839.5
51202.9
39363.4
54606.5
46606.4
57271.8
52691.6
59101.5
57547.4
61478.7
60675.8
64130.7
63380.6
66067.9
66091.8
67612
68345.6
69169.1
70128.3
70658.8
71653.3
72042.6
73063.5
73296.2
74422.4
74500.9
75755.3
75644.9
77117
76766.6
78479.5
77857
79875.5
78874.1
125517
125519
125478
125445
125375
125298
125198
125079
124942
124780
124601
124393
124166
123907
123625
123308
122964
122581
122166
121707
121216
120656
120112
119357
118921
117646
117751
115440
116396
113131
114236
110989
111560
107837
109569
102960
107721
97205.8
105112
90537.6
101803
82202.4
97815.3
70887.7
93029.6
54240.4
86681.3
29741.8
77555.6
-5054.14
64263.8
-52618.5
47220.6
-105956
32410.7
-80421.1
29553.7
-48295
34003.2
-21633
38976.1
-201.982
43315.7
16951.7
47223.3
29831.6
51201.7
39354.4
54606.8
46598.3
57271.8
52687.3
59099.8
57545
61478.1
60672.1
64131.3
63376.8
66067.7
66089
67610.7
68343.7
69167.8
70127.1
70657.9
71652.9
72042.4
73063.8
73296.9
74423.4
74502.4
75756.4
75647.2
77117.7
76769.6
78479.1
77860.5
79873.1
78877.9
125513
125515
125475
125442
125371
125295
125194
125076
124939
124777
124598
124390
124163
123904
123622
123305
122961
122578
122163
121703
121213
120653
120109
119354
118919
117643
117749
115436
116395
113127
114235
110985
111558
107834
109566
102956
107722
97198.9
105113
90530.2
101802
82193.9
97810.8
70875.9
93020.3
54225.9
86670.9
29728.3
77547.5
-5060.78
64263.1
-52583.2
47251
-105831
32440.1
-80390
29574.9
-48294.4
34010.6
-21636.5
38976.6
-206.12
43314
16945.9
47221.2
29823.8
51200.4
39345.4
54607.2
46590.3
57271.8
52683.1
59098.2
57542.7
61477.5
60668.6
64131.9
63373
66067.4
66086.3
67609.5
68341.8
69166.5
70126
70657
71652.5
72042.2
73064.2
73297.5
74424.3
74503.9
75757.5
75649.5
77118.5
76772.6
78478.6
77864
79870.8
78881.7
125510
125511
125471
125439
125368
125292
125191
125073
124936
124774
124595
124387
124160
123901
123619
123302
122958
122575
122160
121700
121210
120650
120106
119352
118916
117640
117747
115432
116395
113122
114235
110981
111556
107832
109564
102952
107722
97192.1
105115
90522.8
101802
82185.5
97806.4
70864.2
93011
54211.6
86660.6
29714.9
77539.4
-5067.36
64262.4
-52548.5
47279.8
-105708
32469.9
-80358.5
29596.4
-48293.6
34017.9
-21639.8
38977.1
-210.183
43312.3
16940.1
47219.1
29816
51199.2
39336.6
54607.5
46582.3
57271.7
52678.9
59096.6
57540.4
61476.9
60665
64132.5
63369.2
66067.2
66083.7
67608.3
68340
69165.3
70124.8
70656.1
71652.1
72042.1
73064.5
73298.1
74425.2
74505.4
75758.6
75651.8
77119.2
76775.5
78478.1
77867.5
79868.4
78885.5
125506
125507
125468
125435
125365
125288
125188
125070
124933
124771
124592
124384
124157
123898
123616
123299
122955
122572
122157
121697
121207
120647
120103
119349
118913
117636
117745
115428
116394
113117
114234
110977
111554
107830
109561
102948
107722
97185.3
105117
90515.4
101801
82177.1
97802
70852.5
93001.9
54197.5
86650.4
29701.6
77531.4
-5073.89
64261.6
-52514.3
47307
-105585
32500
-80326.6
29618.1
-48292.7
34025.3
-21643.1
38977.6
-214.19
43310.7
16934.4
47217.1
29808.3
51198
39327.8
54607.9
46574.4
57271.7
52674.7
59095
57538.1
61476.3
60661.4
64133.1
63365.5
66066.9
66081
67607.1
68338.1
69164
70123.6
70655.2
71651.7
72041.9
73064.9
73298.7
74426.1
74506.9
75759.7
75654
77119.8
76778.5
78477.7
77871
79866.1
78889.2
125502
125504
125465
125432
125362
125285
125185
125067
124930
124768
124589
124381
124154
123895
123613
123296
122952
122569
122154
121694
121204
120645
120100
119346
118911
117633
117743
115424
116393
113112
114234
110973
111552
107827
109559
102944
107723
97178.6
105118
90508.1
101800
82168.7
97797.7
70841
92992.8
54183.5
86640.2
29688.5
77523.4
-5080.37
64260.7
-52480.5
47332.5
-105463
32530.6
-80294.1
29640.1
-48291.7
34032.7
-21646.3
38978.1
-218.125
43309
16928.7
47215.1
29800.7
51196.8
39319.1
54608.2
46566.6
57271.7
52670.6
59093.3
57535.8
61475.7
60657.9
64133.7
63361.7
66066.7
66078.3
67605.9
68336.2
69162.7
70122.5
70654.4
71651.3
72041.7
73065.2
73299.3
74427
74508.3
75760.7
75656.3
77120.5
76781.4
78477.1
77874.4
79863.7
78893
125498
125500
125461
125429
125358
125282
125182
125064
124927
124765
124586
124378
124151
123892
123610
123293
122949
122566
122151
121692
121201
120642
120097
119343
118908
117630
117741
115420
116392
113108
114233
110969
111550
107825
109556
102940
107723
97171.9
105120
90500.9
101799
82160.5
97793.3
70829.5
92983.9
54169.6
86630.1
29675.4
77515.4
-5086.79
64259.8
-52447.3
47356.5
-105342
32561.7
-80261.3
29662.2
-48290.6
34040.1
-21649.4
38978.6
-222.007
43307.4
16923.1
47213.1
29793.2
51195.7
39310.5
54608.5
46558.9
57271.7
52666.5
59091.7
57533.6
61475.1
60654.4
64134.3
63358
66066.5
66075.7
67604.7
68334.3
69161.5
70121.4
70653.5
71650.9
72041.5
73065.5
73299.9
74427.9
74509.8
75761.7
75658.5
77121.1
76784.3
78476.6
77877.9
79861.3
78896.7
125495
125497
125458
125425
125355
125279
125179
125060
124924
124762
124583
124375
124148
123889
123607
123290
122946
122563
122148
121689
121198
120639
120095
119340
118905
117627
117739
115417
116391
113103
114233
110965
111548
107823
109554
102937
107723
97165.2
105121
90493.7
101798
82152.3
97789
70818.2
92975
54155.8
86620.1
29662.5
77507.5
-5093.15
64258.9
-52414.6
47379
-105222
32593.4
-80228
29684.4
-48289.4
34047.4
-21652.4
38979
-225.821
43305.7
16917.6
47211.1
29785.8
51194.5
39301.9
54608.9
46551.2
57271.6
52662.5
59090.1
57531.3
61474.5
60650.9
64134.9
63354.3
66066.2
66073.1
67603.6
68332.5
69160.2
70120.2
70652.6
71650.5
72041.3
73065.8
73300.5
74428.7
74511.2
75762.7
75660.7
77121.7
76787.2
78476.1
77881.3
79858.9
78900.4
125491
125493
125454
125422
125352
125276
125176
125058
124921
124759
124580
124372
124145
123886
123604
123287
122943
122560
122145
121686
121195
120636
120092
119337
118903
117624
117737
115413
116391
113098
114232
110962
111546
107821
109552
102933
107724
97158.6
105123
90486.6
101797
82144.2
97784.8
70806.9
92966.2
54142.2
86610.2
29649.7
77499.6
-5099.46
64257.9
-52382.3
47400.2
-105104
32625.6
-80194.5
29706.6
-48288.2
34054.6
-21655.4
38979.4
-229.585
43304.1
16912.1
47209.1
29778.4
51193.3
39293.4
54609.2
46543.6
57271.6
52658.5
59088.5
57529.1
61473.8
60647.5
64135.5
63350.7
66066
66070.5
67602.4
68330.7
69159
70119.1
70651.7
71650.1
72041.1
73066.1
73301.1
74429.5
74512.6
75763.7
75663
77122.3
76790.1
78475.5
77884.7
79856.6
78904.2
125487
125490
125451
125419
125349
125273
125173
125055
124918
124756
124577
124369
124142
123883
123601
123284
122940
122557
122142
121683
121192
120633
120089
119335
118900
117622
117735
115409
116390
113094
114232
110958
111544
107819
109549
102929
107724
97152.1
105125
90479.5
101796
82136.2
97780.5
70795.8
92957.5
54128.7
86600.4
29637
77491.8
-5105.69
64256.9
-52350.4
47420.1
-104987
32658.4
-80160.8
29728.9
-48286.9
34061.8
-21658.3
38979.8
-233.285
43302.5
16906.7
47207.1
29771.1
51192.2
39285.1
54609.5
46536
57271.6
52654.5
59086.9
57526.9
61473.2
60644
64136
63347
66065.7
66067.9
67601.2
68328.8
69157.7
70117.9
70650.8
71649.6
72040.9
73066.4
73301.6
74430.3
74514
75764.6
75665.2
77122.8
76793
78474.9
77888.1
79854.2
78907.8
125484
125486
125448
125416
125346
125270
125170
125052
124915
124753
124574
124366
124139
123880
123598
123281
122937
122554
122139
121680
121189
120630
120086
119332
118898
117619
117733
115405
116389
113089
114231
110954
111542
107816
109547
102926
107724
97145.6
105126
90472.4
101795
82128.3
97776.3
70784.7
92948.9
54115.4
86590.6
29624.5
77484.1
-5111.87
64255.9
-52318.9
47439
-104871
32691.7
-80126.9
29751.1
-48285.7
34068.9
-21661.2
38980.2
-236.938
43300.9
16901.3
47205.2
29763.9
51191
39276.7
54609.9
46528.6
57271.5
52650.6
59085.3
57524.7
61472.6
60640.6
64136.6
63343.4
66065.5
66065.3
67600
68327
69156.5
70116.8
70650
71649.2
72040.7
73066.7
73302.2
74431.1
74515.4
75765.5
75667.3
77123.3
76795.8
78474.3
77891.5
79851.8
78911.5
125480
125483
125445
125413
125343
125267
125167
125049
124912
124750
124571
124363
124136
123877
123595
123278
122934
122551
122136
121677
121187
120628
120084
119329
118895
117616
117732
115402
116389
113085
114231
110950
111540
107814
109544
102922
107725
97139.1
105128
90465.4
101795
82120.4
97772.2
70773.7
92940.3
54102.2
86581
29612.1
77476.3
-5117.97
64254.9
-52287.8
47457
-104756
32725.3
-80093
29773.3
-48284.4
34075.9
-21664
38980.5
-240.53
43299.3
16896
47203.3
29756.7
51189.9
39268.5
54610.2
46521.2
57271.5
52646.7
59083.7
57522.5
61472
60637.2
64137.1
63339.8
66065.2
66062.8
67598.9
68325.2
69155.3
70115.7
70649.1
71648.8
72040.5
73066.9
73302.7
74431.9
74516.8
75766.4
75669.5
77123.8
76798.7
78473.6
77894.9
79849.4
78915.2
125477
125479
125441
125410
125340
125264
125164
125046
124909
124747
124568
124360
124133
123874
123592
123275
122931
122548
122133
121674
121184
120625
120081
119327
118893
117613
117730
115398
116388
113080
114231
110947
111538
107812
109542
102919
107725
97132.7
105129
90458.5
101794
82112.6
97768
70762.9
92931.9
54089.1
86571.4
29599.7
77468.7
-5124.01
64253.8
-52257
47474.4
-104642
32759.4
-80059.3
29795.2
-48283.2
34082.9
-21666.7
38980.8
-244.078
43297.6
16890.7
47201.4
29749.6
51188.7
39260.3
54610.5
46513.8
57271.4
52642.9
59082.1
57520.3
61471.4
60633.9
64137.6
63336.3
66065
66060.3
67597.7
68323.4
69154.1
70114.5
70648.2
71648.4
72040.3
73067.2
73303.3
74432.6
74518.2
75767.3
75671.7
77124.3
76801.5
78473
77898.2
79847
78918.8
125473
125476
125438
125407
125337
125261
125161
125043
124906
124745
124565
124358
124130
123871
123589
123272
122928
122546
122130
121672
121181
120622
120078
119324
118890
117610
117728
115395
116387
113076
114230
110943
111536
107810
109540
102915
107725
97126.4
105131
90451.6
101793
82104.8
97763.9
70752.1
92923.5
54076.1
86561.9
29587.6
77461
-5129.96
64252.8
-52226.6
47491.2
-104530
32793.6
-80025.7
29816.9
-48282.1
34089.7
-21669.5
38981
-247.567
43296
16885.5
47199.5
29742.6
51187.6
39252.3
54610.9
46506.5
57271.3
52639
59080.5
57518.2
61470.8
60630.5
64138.2
63332.7
66064.7
66057.7
67596.6
68321.6
69152.8
70113.4
70647.4
71647.9
72040.1
73067.4
73303.8
74433.3
74519.6
75768.1
75673.8
77124.7
76804.3
78472.3
77901.5
79844.6
78922.5
125470
125473
125435
125404
125334
125258
125158
125040
124903
124742
124562
124355
124127
123868
123586
123269
122925
122543
122128
121669
121178
120620
120076
119321
118888
117607
117726
115391
116386
113071
114230
110940
111534
107808
109537
102912
107725
97120.1
105133
90444.8
101792
82097.2
97759.8
70741.4
92915.2
54063.3
86552.4
29575.5
77453.5
-5135.85
64251.8
-52196.4
47507.7
-104420
32828
-79992.4
29838.4
-48281
34096.5
-21672.2
38981.2
-251.013
43294.4
16880.3
47197.6
29735.7
51186.5
39244.2
54611.2
46499.3
57271.3
52635.3
59079
57516.1
61470.1
60627.2
64138.7
63329.2
66064.4
66055.2
67595.4
68319.8
69151.6
70112.3
70646.5
71647.5
72039.9
73067.6
73304.4
74434
74520.9
75768.9
75676
77125.1
76807.1
78471.6
77904.9
79842.2
78926.1
125466
125469
125432
125401
125331
125256
125155
125037
124900
124739
124560
124352
124125
123866
123584
123267
122922
122540
122125
121666
121176
120617
120073
119319
118886
117604
117724
115388
116386
113067
114229
110936
111532
107806
109535
102908
107726
97113.8
105134
90438
101791
82089.6
97755.8
70730.9
92907.1
54050.6
86543.1
29563.6
77445.9
-5141.66
64250.7
-52166.6
47524
-104311
32862.4
-79959.5
29859.6
-48279.9
34103.1
-21674.8
38981.4
-254.403
43292.8
16875.2
47195.7
29728.8
51185.3
39236.3
54611.5
46492.2
57271.2
52631.5
59077.4
57514
61469.5
60623.9
64139.2
63325.7
66064.2
66052.8
67594.3
68318
69150.4
70111.2
70645.6
71647.1
72039.6
73067.8
73304.9
74434.7
74522.3
75769.7
75678.1
77125.5
76809.9
78470.9
77908.2
79839.8
78929.7
125463
125466
125429
125398
125328
125253
125152
125035
124898
124736
124557
124349
124122
123863
123581
123264
122920
122537
122122
121664
121173
120614
120070
119316
118883
117602
117723
115384
116385
113063
114229
110933
111530
107804
109533
102905
107726
97107.6
105136
90431.3
101790
82082.1
97751.7
70720.4
92899
54038.1
86533.8
29551.8
77438.5
-5147.39
64249.7
-52137
47540.2
-104203
32896.7
-79927
29880.5
-48278.9
34109.6
-21677.4
38981.5
-257.751
43291.2
16870.2
47193.8
29722
51184.2
39228.5
54611.8
46485.1
57271.1
52627.8
59075.8
57511.9
61468.9
60620.7
64139.7
63322.3
66063.9
66050.3
67593.1
68316.3
69149.2
70110.1
70644.8
71646.6
72039.4
73068
73305.4
74435.4
74523.6
75770.5
75680.2
77125.9
76812.7
78470.2
77911.5
79837.4
78933.3
125459
125463
125426
125395
125325
125250
125150
125032
124895
124734
124554
124347
124119
123860
123578
123261
122917
122535
122119
121661
121170
120612
120068
119314
118881
117599
117721
115381
116384
113059
114228
110929
111528
107802
109530
102902
107726
97101.5
105137
90424.6
101789
82074.6
97747.8
70710
92890.9
54025.7
86524.6
29540.1
77431.1
-5153.03
64248.7
-52107.7
47556.5
-104097
32930.7
-79895
29901
-48278
34116
-21680
38981.6
-261.044
43289.6
16865.2
47192
29715.3
51183.1
39220.7
54612.1
46478.1
57271.1
52624.1
59074.2
57509.8
61468.3
60617.4
64140.1
63318.8
66063.6
66047.8
67592
68314.5
69148
70108.9
70643.9
71646.2
72039.2
73068.2
73305.9
74436.1
74525
75771.3
75682.3
77126.2
76815.4
78469.4
77914.8
79835
78936.9
125456
125460
125423
125392
125323
125247
125147
125029
124892
124731
124551
124344
124116
123857
123575
123259
122914
122532
122117
121658
121168
120609
120065
119311
118878
117596
117719
115377
116384
113054
114228
110926
111526
107800
109528
102898
107726
97095.4
105139
90418
101788
82067.3
97743.8
70699.8
92883
54013.4
86515.5
29528.6
77423.7
-5158.61
64247.8
-52078.7
47572.9
-103992
32964.4
-79863.6
29921.2
-48277.2
34122.3
-21682.6
38981.6
-264.294
43288
16860.2
47190.1
29708.7
51182
39213
54612.5
46471.2
57271
52620.5
59072.7
57507.7
61467.6
60614.2
64140.6
63315.4
66063.4
66045.4
67590.9
68312.8
69146.9
70107.8
70643
71645.7
72038.9
73068.4
73306.4
74436.7
74526.3
75772
75684.4
77126.6
76818.2
78468.7
77918.1
79832.6
78940.4
125453
125456
125420
125389
125320
125244
125144
125027
124889
124728
124549
124341
124114
123855
123573
123256
122912
122529
122114
121656
121165
120607
120063
119309
118876
117594
117717
115374
116383
113050
114228
110922
111524
107798
109526
102895
107727
97089.4
105140
90411.4
101787
82060
97739.9
70689.6
92875.2
54001.2
86506.5
29517.2
77416.4
-5164.09
64246.8
-52049.9
47589.4
-103888
32997.6
-79832.8
29940.9
-48276.5
34128.5
-21685.1
38981.6
-267.49
43286.4
16855.3
47188.3
29702.1
51180.9
39205.4
54612.8
46464.3
57270.9
52616.9
59071.1
57505.7
61467
60611
64141.1
63312
66063.1
66043
67589.8
68311
69145.7
70106.7
70642.2
71645.3
72038.7
73068.6
73306.9
74437.3
74527.6
75772.7
75686.5
77126.9
76820.9
78467.9
77921.3
79830.1
78944
125449
125453
125417
125386
125317
125242
125141
125024
124887
124726
124546
124339
124111
123852
123570
123253
122909
122527
122112
121653
121162
120604
120060
119306
118874
117591
117716
115370
116382
113046
114227
110919
111523
107796
109524
102892
107727
97083.4
105142
90404.9
101787
82052.8
97736
70679.5
92867.4
53989.2
86497.5
29505.9
77409.1
-5169.5
64245.9
-52021.4
47606.1
-103787
33030.3
-79802.6
29960.4
-48275.8
34134.6
-21687.5
38981.6
-270.644
43284.8
16850.5
47186.5
29695.6
51179.8
39197.8
54613.1
46457.5
57270.8
52613.4
59069.6
57503.7
61466.4
60607.9
64141.5
63308.6
66062.8
66040.6
67588.7
68309.3
69144.5
70105.6
70641.3
71644.8
72038.5
73068.8
73307.4
74437.9
74528.9
75773.4
75688.5
77127.2
76823.7
78467.1
77924.6
79827.7
78947.5
125446
125450
125414
125383
125314
125239
125139
125021
124884
124723
124544
124336
124109
123850
123567
123251
122906
122524
122109
121651
121160
120602
120058
119304
118872
117588
117714
115367
116382
113042
114227
110915
111521
107794
109521
102889
107727
97077.4
105143
90398.4
101786
82045.7
97732.1
70669.6
92859.7
53977.4
86488.7
29494.7
77402
-5174.82
64244.9
-51993.2
47623.1
-103686
33062.5
-79773
29979.4
-48275.2
34140.6
-21690
38981.5
-273.745
43283.2
16845.7
47184.7
29689.2
51178.7
39190.3
54613.4
46450.7
57270.7
52609.8
59068
57501.7
61465.8
60604.7
64142
63305.3
66062.5
66038.2
67587.6
68307.6
69143.3
70104.5
70640.5
71644.4
72038.2
73068.9
73307.9
74438.5
74530.2