/*--------------------------------*- C++ -*----------------------------------*\
| =========                 |                                                 |
| \\      /  F ield         | OpenFOAM: The Open Source CFD Toolbox           |
|  \\    /   O peration     | Version:  2412                                  |
|   \\  /    A nd           | Website:  www.openfoam.com                      |
|    \\/     M anipulation  |                                                 |
\*---------------------------------------------------------------------------*/
FoamFile
{
    version     2.0;
    format      ascii;
    arch        "LSB;label=32;scalar=64";
    class       surfaceScalarField;
    location    "0.1";
    object      phi;
}
// * * * * * * * * * * * * * * * * * * * * * * * * * * * * * * * * * * * * * //

dimensions      [0 3 -1 0 0 0 0];

oriented        oriented;

internalField   nonuniform List<scalar> 
25905
(
0.00749106
-0.011096
0.00747759
-0.000882457
0.00751563
0.00667629
0.00756613
0.00835809
0.00760921
0.00719171
0.00764363
0.00584568
0.00767281
0.00497204
0.00769787
0.00428113
0.00771947
0.00370066
0.00773785
0.00316844
0.00775344
0.00271452
0.00776652
0.00230768
0.0077774
0.00195851
0.00778633
0.00164682
0.00779352
0.00137958
0.00779917
0.00114047
0.0078034
0.000926654
0.00780644
0.000746901
0.00780841
0.000587983
0.00780949
0.00045595
0.00780984
0.000344801
0.00780954
0.000251135
0.00780869
0.000167324
0.00780752
0.000118529
0.00780597
5.97461e-05
0.00780441
5.66008e-05
0.00780242
-2.56222e-06
0.00780104
7.4276e-05
0.00779868
-4.37107e-05
0.0077981
0.000178014
0.00779569
-3.69526e-05
0.00779628
0.000350947
0.00779418
4.05882e-05
0.00779644
0.000620944
0.00779535
0.00021811
0.00780072
0.00104985
0.00780149
0.000495187
0.00781244
0.00174106
0.00781761
0.00094807
0.00783767
0.00268393
0.00784952
0.00146738
0.00787947
0.00352815
0.00789518
0.00151753
0.00792783
0.00345871
0.00793442
0.00016919
0.00795136
0.00160598
0.00793257
-0.0028038
0.007931
-0.00133337
0.00790041
-0.00581519
0.00787069
-0.00774884
0.00780357
-0.0139112
0.00764295
-0.0301605
0.00735967
-0.0471496
0.00737219
0.000673148
0.00756536
0.0318657
0.00765846
0.0172808
0.00768133
0.00755612
0.00769759
0.00502898
0.0076941
0.00142177
0.00770298
0.00221708
0.0076992
9.64001e-05
0.00770736
0.00166827
0.00770481
0.000140915
0.00771469
0.0015686
0.0077137
-6.25442e-07
0.00772145
0.000924961
0.0077174
-0.000667897
0.00771878
-7.52637e-05
0.00770945
-0.0014126
0.00770248
-0.00108487
0.00768777
-0.00200387
0.00767519
-0.00177914
0.00765877
-0.00228854
0.00764521
-0.00201532
0.0076309
-0.00219738
0.00761991
-0.00189558
0.00760943
-0.0018998
0.00760107
-0.00171726
0.00759332
-0.00167353
0.00758636
-0.00164975
0.00757967
-0.00163801
0.00757247
-0.0017357
0.00756536
-0.00174102
0.00755768
-0.0018615
0.00755075
-0.00181815
0.00754373
-0.00186276
0.00753855
-0.00172141
0.0075342
-0.00159198
0.00753303
-0.00129555
0.00753386
-0.00089551
0.0075392
-0.000416869
0.00754852
0.000415212
0.00756358
0.00111225
0.00758606
0.00257544
0.00761565
0.00352511
0.00765884
0.00584557
0.00771109
0.00712984
0.00778567
0.0104127
0.012653
0.00749106
-0.0110113
0.00747779
-0.000869191
0.00751612
0.00663795
0.00756689
0.00830732
0.0076102
0.0071484
0.00764484
0.00581103
0.00767421
0.00494267
0.00769945
0.00425589
0.00772119
0.00367892
0.0077397
0.00314992
0.0077554
0.00269882
0.00776859
0.0022945
0.00777955
0.00194754
0.00778855
0.00163781
0.00779582
0.00137231
0.00780153
0.00113475
0.00780582
0.000922358
0.00780892
0.000743805
0.00781094
0.000585953
0.00781207
0.000454816
0.00781246
0.000344405
0.00781221
0.000251383
0.00781141
0.00016812
0.00781028
0.000119656
0.00780877
6.12498e-05
0.00780726
5.81057e-05
0.00780531
-6.12267e-07
0.00780397
7.56078e-05
0.00780166
-4.14022e-05
0.00780111
0.000178556
0.00779875
-3.45938e-05
0.00779939
0.00035031
0.00779733
4.2637e-05
0.00779965
0.000618625
0.00779861
0.000219142
0.00780405
0.00104441
0.00780489
0.000494335
0.00781591
0.00173005
0.00782114
0.000942826
0.00784124
0.00266384
0.00785311
0.0014555
0.00788303
0.00349823
0.00789868
0.00150187
0.00793124
0.00342616
0.00793774
0.000162667
0.00795461
0.00158912
0.00793579
-0.002785
0.00793407
-0.00133164
0.00790317
-0.00578433
0.00787275
-0.0077184
0.00780471
-0.0138433
0.00764234
-0.0299981
0.00735722
-0.0468646
0.00736993
0.000660495
0.00756444
0.0316711
0.0076583
0.017187
0.00768192
0.00753244
0.00769861
0.00501234
0.00769531
0.00142504
0.00770432
0.0022081
0.00770049
0.000100201
0.0077087
0.00166008
0.0077062
0.0001434
0.00771611
0.00155873
0.00771514
3.44793e-07
0.00772288
0.000917245
0.00771882
-0.000663841
0.0077202
-7.66295e-05
0.00771087
-0.00140329
0.00770393
-0.00107792
0.00768926
-0.0019892
0.00767672
-0.00176659
0.00766034
-0.00227217
0.00764682
-0.00200178
0.00763252
-0.00218308
0.00762152
-0.00188457
0.00761103
-0.0018893
0.00760263
-0.00170886
0.00759485
-0.00166575
0.00758787
-0.00164276
0.00758115
-0.00163129
0.00757394
-0.00172848
0.00756683
-0.00173392
0.00755916
-0.00185382
0.00755226
-0.00181124
0.00754528
-0.00185577
0.00754014
-0.00171627
0.00753586
-0.00158769
0.00753476
-0.00129445
0.00753569
-0.000896433
0.00754114
-0.000422315
0.00755062
0.000405741
0.00756584
0.00109703
0.00758854
0.00255274
0.00761836
0.00349529
0.00766181
0.00580213
0.00771434
0.0070773
0.00778917
0.0103379
0.0125627
0.00749105
-0.0109266
0.00747796
-0.000856101
0.00751658
0.00659932
0.00756761
0.00825628
0.00761116
0.00710485
0.00764603
0.00577616
0.0076756
0.00491309
0.00770102
0.00423048
0.00772291
0.00365702
0.00774155
0.00313128
0.00775736
0.00268301
0.00777065
0.00228121
0.00778171
0.00193648
0.00779079
0.00162873
0.00779813
0.00136496
0.00780391
0.00112897
0.00780826
0.000918001
0.00781141
0.00074065
0.00781349
0.000583868
0.00781468
0.00045363
0.00781512
0.00034396
0.00781491
0.000251582
0.00781416
0.000168873
0.00781307
0.000120736
0.0078116
6.27137e-05
0.00781014
5.95631e-05
0.00780823
1.29746e-06
0.00780694
7.68973e-05
0.00780467
-3.91406e-05
0.00780416
0.000179063
0.00780184
-3.22839e-05
0.00780252
0.000349628
0.00780051
4.46426e-05
0.00780289
0.000616245
0.0078019
0.000220123
0.00780741
0.0010389
0.00780833
0.000493411
0.00781942
0.00171896
0.00782471
0.00093752
0.00784485
0.0026437
0.00785672
0.00144362
0.00788662
0.00346834
0.0079022
0.00148627
0.00793466
0.00339371
0.00794108
0.000156237
0.00795788
0.00157234
0.00793902
-0.00276617
0.00793713
-0.00132974
0.00790589
-0.00575312
0.00787476
-0.00768725
0.00780577
-0.0137743
0.00764159
-0.0298339
0.00735464
-0.0465777
0.00736754
0.000647645
0.00756339
0.0314752
0.00765802
0.0170924
0.00768244
0.00750798
0.00769957
0.00499524
0.00769648
0.00142811
0.00770564
0.00219897
0.00770178
0.000104042
0.00771005
0.00165184
0.00770762
0.000145817
0.00771756
0.00154882
0.00771662
1.28556e-06
0.00772437
0.000909523
0.00772029
-0.000659769
0.00772167
-7.79961e-05
0.00771235
-0.00139397
0.00770542
-0.00107099
0.0076908
-0.00197458
0.0076783
-0.00175408
0.00766198
-0.00225584
0.00764849
-0.00198827
0.0076342
-0.00216879
0.00762319
-0.00187355
0.00761268
-0.00187879
0.00760426
-0.00170043
0.00759644
-0.00165792
0.00758943
-0.00163575
0.00758268
-0.00162454
0.00757546
-0.00172126
0.00756835
-0.00172681
0.0075607
-0.00184616
0.00755382
-0.00180436
0.00754688
-0.00184883
0.00754178
-0.00171117
0.00753756
-0.00158347
0.00753653
-0.00129341
0.00753756
-0.000897455
0.00754312
-0.000427863
0.00755274
0.000396118
0.00756813
0.00108165
0.00759104
0.00252984
0.00762108
0.00346527
0.00766478
0.00575842
0.00771759
0.00702452
0.00779266
0.0102628
0.0124722
0.00749104
-0.0108419
0.00747812
-0.000843183
0.00751703
0.0065604
0.00756834
0.00820497
0.00761213
0.00706106
0.00764722
0.00574107
0.007677
0.00488332
0.00770258
0.00420489
0.00772463
0.00363498
0.0077434
0.0031125
0.00775933
0.00266707
0.00777272
0.00226781
0.00778387
0.00192533
0.00779303
0.00161956
0.00780044
0.00135755
0.00780629
0.00112311
0.00781071
0.000913581
0.00781392
0.000737436
0.00781606
0.000581727
0.00781729
0.000452391
0.00781778
0.000343465
0.00781763
0.000251732
0.00781692
0.000169579
0.00781589
0.000121767
0.00781446
6.41356e-05
0.00781305
6.09718e-05
0.00781117
3.16637e-06
0.00780993
7.81415e-05
0.00780771
-3.69249e-05
0.00780723
0.000179534
0.00780497
-3.00228e-05
0.00780569
0.000348901
0.00780373
4.66022e-05
0.00780617
0.000613803
0.00780523
0.000221052
0.00781081
0.00103331
0.0078118
0.000492417
0.00782295
0.00170781
0.00782831
0.000932156
0.00784849
0.00262352
0.00786037
0.00143173
0.00789024
0.00343847
0.00790575
0.00147075
0.00793811
0.00336135
0.00794444
0.000149906
0.00796116
0.00155562
0.00794225
-0.00274728
0.00794019
-0.00132767
0.0079086
-0.00572155
0.00787673
-0.00765537
0.00780677
-0.0137044
0.00764072
-0.0296678
0.00735194
-0.046289
0.00736503
0.00063459
0.00756222
0.031278
0.00765763
0.016997
0.00768286
0.00748271
0.00770049
0.00497764
0.00769761
0.00143096
0.00770695
0.00218966
0.00770306
0.000107916
0.0077114
0.0016435
0.00770906
0.000148159
0.00771904
0.00153886
0.00771814
2.19101e-06
0.00772589
0.000901787
0.0077218
-0.000655682
0.00772318
-7.93657e-05
0.00771386
-0.00138466
0.00770697
-0.00106409
0.00769239
-0.00196
0.00767994
-0.00174163
0.00766367
-0.00223956
0.00765021
-0.0019748
0.00763593
-0.00215451
0.00762491
-0.00186252
0.00761438
-0.00186825
0.00760593
-0.00169197
0.00759808
-0.00165007
0.00759104
-0.0016287
0.00758427
-0.00161777
0.00757703
-0.00171402
0.00756992
-0.00171969
0.00756228
-0.00183851
0.00755542
-0.0017975
0.00754852
-0.00184192
0.00754346
-0.00170612
0.00753931
-0.00157931
0.00753835
-0.00129245
0.00753947
-0.000898578
0.00754513
-0.000433517
0.00755491
0.000386347
0.00757045
0.00106612
0.00759357
0.00250672
0.00762383
0.00343501
0.00766778
0.00571447
0.00772086
0.00697144
0.00779617
0.0101875
0.0123814
0.00749103
-0.0107571
0.00747828
-0.000830433
0.00751748
0.0065212
0.00756906
0.00815339
0.0076131
0.00701701
0.00764842
0.00570575
0.00767839
0.00485334
0.00770416
0.00417912
0.00772635
0.00361278
0.00774526
0.00309358
0.00776131
0.00265103
0.0077748
0.00225432
0.00778604
0.00191408
0.00779528
0.00161032
0.00780277
0.00135006
0.00780869
0.00111719
0.00781317
0.000909096
0.00781644
0.000734163
0.00781864
0.00057953
0.00781993
0.000451098
0.00782047
0.000342918
0.00782037
0.000251831
0.0078197
0.000170238
0.00781872
0.000122749
0.00781734
6.55138e-05
0.00781597
6.2332e-05
0.00781414
4.99289e-06
0.00781294
7.93387e-05
0.00781077
-3.47544e-05
0.00781033
0.000179964
0.00780812
-2.78107e-05
0.00780889
0.000348129
0.00780697
4.85123e-05
0.00780947
0.000611302
0.00780859
0.000221926
0.00781424
0.00102766
0.0078153
0.000491355
0.00782653
0.00169658
0.00783194
0.000926735
0.00785216
0.0026033
0.00786404
0.00141984
0.00789389
0.00340863
0.00790932
0.00145531
0.00794159
0.00332908
0.00794781
0.000143682
0.00796445
0.00153898
0.00794548
-0.00272832
0.00794325
-0.00132543
0.00791127
-0.0056896
0.00787866
-0.00762276
0.00780771
-0.0136335
0.00763972
-0.0294998
0.00734914
-0.0459984
0.0073624
0.000621354
0.00756093
0.0310794
0.00765713
0.0169008
0.0076832
0.00745662
0.00770135
0.00495951
0.00769872
0.00143358
0.00770824
0.00218016
0.00770433
0.000111809
0.00771277
0.00163507
0.00771051
0.000150414
0.00772055
0.00152884
0.00771969
3.05462e-06
0.00772746
0.000894037
0.00772336
-0.000651581
0.00772474
-8.07394e-05
0.00771542
-0.00137534
0.00770856
-0.00105722
0.00769402
-0.00194547
0.00768163
-0.00172923
0.0076654
-0.00222333
0.00765198
-0.00196137
0.0076377
-0.00214023
0.00762668
-0.00185149
0.00761613
-0.0018577
0.00760765
-0.00168349
0.00759976
-0.00164217
0.00759269
-0.00162162
0.00758589
-0.00161097
0.00757865
-0.00170677
0.00757153
-0.00171257
0.0075639
-0.00183087
0.00755706
-0.00179066
0.00755019
-0.00183504
0.00754518
-0.0017011
0.00754109
-0.00157521
0.00754019
-0.00129155
0.00754142
-0.000899799
0.00754718
-0.000439271
0.0075571
0.000376426
0.0075728
0.00105043
0.00759613
0.0024834
0.0076266
0.00340454
0.00767081
0.00567027
0.00772415
0.00691811
0.0077997
0.0101119
0.0122903
0.00749102
-0.0106724
0.00747843
-0.000817847
0.00751792
0.00648171
0.00756978
0.00810152
0.00761408
0.00697272
0.00764962
0.0056702
0.0076798
0.00482316
0.00770573
0.00415318
0.00772808
0.00359043
0.00774712
0.00307454
0.00776329
0.00263486
0.00777688
0.00224072
0.00778822
0.00190275
0.00779754
0.00160099
0.00780511
0.00134249
0.0078111
0.0011112
0.00781564
0.000904547
0.00781898
0.000730828
0.00782123
0.000577275
0.00782257
0.000449748
0.00782317
0.000342318
0.00782312
0.000251878
0.0078225
0.000170848
0.00782157
0.000123682
0.00782023
6.68464e-05
0.00781892
6.36423e-05
0.00781713
6.77566e-06
0.00781598
8.04871e-05
0.00781385
-3.26295e-05
0.00781346
0.00018035
0.00781129
-2.56474e-05
0.00781211
0.000347311
0.00781025
5.03709e-05
0.0078128
0.000608743
0.00781198
0.000222743
0.0078177
0.00102194
0.00781883
0.000490226
0.00783012
0.00168528
0.0078356
0.000921258
0.00785585
0.00258305
0.00786774
0.00140795
0.00789756
0.00337881
0.00791292
0.00143994
0.00794508
0.00329692
0.00795119
0.000137567
0.00796776
0.00152242
0.00794871
-0.00270929
0.00794629
-0.00132301
0.00791392
-0.00565724
0.00788056
-0.0075894
0.00780859
-0.0135615
0.00763862
-0.0293298
0.00734625
-0.0457061
0.00735966
0.000607951
0.00755952
0.0308796
0.00765653
0.0168039
0.00768347
0.00742967
0.00770216
0.00494083
0.00769979
0.00143594
0.00770951
0.00217046
0.00770559
0.000115711
0.00771415
0.00162653
0.00771199
0.000152572
0.00772209
0.00151875
0.00772128
3.8711e-06
0.00772906
0.000886268
0.00772495
-0.000647468
0.00772633
-8.21166e-05
0.00771702
-0.00136603
0.00771018
-0.00105038
0.0076957
-0.00193099
0.00768336
-0.00171688
0.00766718
-0.00220715
0.00765379
-0.00194797
0.00763952
-0.00212596
0.00762849
-0.00184046
0.00761792
-0.00184712
0.00760942
-0.00167499
0.00760149
-0.00163425
0.00759439
-0.00161452
0.00758757
-0.00160414
0.00758031
-0.00169951
0.00757319
-0.00170544
0.00756556
-0.00182325
0.00755875
-0.00178383
0.00755191
-0.0018282
0.00754694
-0.00169613
0.00754291
-0.00157117
0.00754208
-0.00129071
0.0075434
-0.000901117
0.00754926
-0.000445129
0.00755933
0.000366359
0.00757518
0.00103458
0.00759871
0.00245987
0.00762941
0.00337384
0.00767386
0.00562582
0.00772747
0.0068645
0.00780325
0.0100362
0.012199
0.00749102
-0.0105877
0.00747859
-0.000805424
0.00751837
0.00644193
0.00757051
0.00804938
0.00761505
0.00692817
0.00765083
0.00563442
0.0076812
0.00479279
0.00770731
0.00412707
0.00772981
0.00356793
0.00774899
0.00305536
0.00776527
0.00261857
0.00777897
0.00222702
0.0077904
0.00189132
0.00779981
0.00159157
0.00780745
0.00133484
0.00781351
0.00110514
0.00781812
0.000899932
0.00782152
0.000727431
0.00782383
0.000574961
0.00782523
0.000448343
0.00782588
0.000341664
0.00782588
0.000251873
0.00782532
0.000171408
0.00782443
0.000124564
0.00782314
6.81321e-05
0.00782188
6.49033e-05
0.00782014
8.51294e-06
0.00781904
8.15864e-05
0.00781695
-3.05505e-05
0.00781661
0.000180692
0.00781449
-2.35322e-05
0.00781535
0.000346446
0.00781354
5.21768e-05
0.00781616
0.000606126
0.00781539
0.000223503
0.00782118
0.00101615
0.00782238
0.000489028
0.00783375
0.0016739
0.00783927
0.000915727
0.00785957
0.00256275
0.00787146
0.00139605
0.00790125
0.00334901
0.00791653
0.00142466
0.0079486
0.00326485
0.00795459
0.000131569
0.00797107
0.00150595
0.00795194
-0.00269017
0.00794933
-0.0013204
0.00791655
-0.00562447
0.00788243
-0.00755529
0.00780943
-0.0134885
0.00763743
-0.0291578
0.00734327
-0.0454119
0.00735682
0.000594404
0.00755801
0.0306784
0.00765585
0.016706
0.00768366
0.00740184
0.00770292
0.00492157
0.00770083
0.00143803
0.00771076
0.00216055
0.00770685
0.000119612
0.00771553
0.00161786
0.00771347
0.000154626
0.00772365
0.00150859
0.00772289
4.63614e-06
0.0077307
0.000878478
0.00772658
-0.000643345
0.00772796
-8.34993e-05
0.00771865
-0.00135671
0.00771185
-0.00104357
0.00769741
-0.00191655
0.00768512
-0.00170458
0.00766899
-0.00219102
0.00765564
-0.00193461
0.00764138
-0.0021117
0.00763034
-0.00182942
0.00761975
-0.00183651
0.00761122
-0.00166645
0.00760326
-0.00162628
0.00759613
-0.00160738
0.00758927
-0.00159728
0.00758201
-0.00169224
0.00757488
-0.00169831
0.00756726
-0.00181563
0.00756046
-0.00177703
0.00755366
-0.0018214
0.00754873
-0.00169119
0.00754476
-0.00156719
0.00754399
-0.00128994
0.00754541
-0.000902531
0.00755137
-0.000451084
0.00756158
0.000356146
0.00757759
0.00101858
0.00760132
0.00243614
0.00763224
0.00334293
0.00767694
0.00558112
0.00773081
0.00681064
0.00780682
0.00996016
0.0121074
0.00749101
-0.0105029
0.00747875
-0.000793162
0.00751881
0.00640187
0.00757123
0.00799695
0.00761603
0.00688337
0.00765203
0.00559842
0.00768261
0.00476221
0.00770889
0.00410078
0.00773154
0.00354527
0.00775085
0.00303605
0.00776725
0.00260217
0.00778106
0.00221321
0.00779258
0.00187979
0.00780208
0.00158207
0.0078098
0.00132712
0.00781593
0.001099
0.00782061
0.00089525
0.00782407
0.000723971
0.00782644
0.000572588
0.00782789
0.000446881
0.0078286
0.000340955
0.00782866
0.000251815
0.00782814
0.000171917
0.00782731
0.000125396
0.00782607
6.93695e-05
0.00782485
6.61141e-05
0.00782316
1.02032e-05
0.00782211
8.26354e-05
0.00782007
-2.8518e-05
0.00781977
0.000180986
0.0078177
-2.14657e-05
0.00781861
0.000345533
0.00781686
5.3929e-05
0.00781953
0.000603451
0.00781882
0.000224203
0.00782468
0.00101028
0.00782595
0.000487764
0.00783739
0.00166246
0.00784297
0.000910143
0.00786331
0.00254241
0.00787519
0.00138416
0.00790496
0.00331925
0.00792015
0.00140946
0.00795212
0.00323288
0.00795799
0.000125692
0.00797439
0.00148955
0.00795516
-0.00267095
0.00795237
-0.0013176
0.00791915
-0.00559126
0.00788427
-0.00752041
0.00781022
-0.0134145
0.00763616
-0.0289838
0.00734022
-0.045116
0.00735389
0.000580735
0.00755641
0.0304758
0.00765508
0.0166074
0.00768378
0.00737312
0.00770364
0.00490172
0.00770184
0.00143983
0.007712
0.0021504
0.0077081
0.0001235
0.00771692
0.00160905
0.00771498
0.000156567
0.00772524
0.00149834
0.00772454
5.34536e-06
0.00773236
0.000870664
0.00772823
-0.000639213
0.00772963
-8.48863e-05
0.00772031
-0.0013474
0.00771354
-0.0010368
0.00769916
-0.00190216
0.00768692
-0.00169234
0.00767085
-0.00217494
0.00765752
-0.00192127
0.00764327
-0.00209744
0.00763223
-0.00181837
0.00762161
-0.00182589
0.00761306
-0.0016579
0.00760506
-0.00161828
0.0075979
-0.00160022
0.00759102
-0.0015904
0.00758374
-0.00168495
0.0075766
-0.00169117
0.00756899
-0.00180802
0.00756221
-0.00177024
0.00755544
-0.00181462
0.00755055
-0.0016863
0.00754663
-0.00156327
0.00754593
-0.00128923
0.00754744
-0.00090404
0.0075535
-0.000457141
0.00756386
0.00034579
0.00758001
0.00100243
0.00760395
0.00241221
0.00763508
0.0033118
0.00768003
0.00553619
0.00773416
0.0067565
0.0078104
0.00988393
0.0120156
0.00749101
-0.0104182
0.00747891
-0.00078106
0.00751925
0.00636153
0.00757196
0.00794424
0.00761701
0.00683831
0.00765324
0.00556219
0.00768401
0.00473144
0.00771047
0.00407432
0.00773328
0.00352247
0.00775272
0.00301661
0.00776924
0.00258565
0.00778315
0.0021993
0.00779477
0.00186817
0.00780435
0.00157248
0.00781215
0.00131932
0.00781835
0.0010928
0.0078231
0.000890501
0.00782662
0.000720448
0.00782905
0.000570154
0.00783057
0.000445361
0.00783133
0.000340192
0.00783143
0.000251703
0.00783097
0.000172374
0.00783019
0.000126176
0.007829
7.05577e-05
0.00782784
6.72747e-05
0.00782619
1.18458e-05
0.00782519
8.36339e-05
0.0078232
-2.65325e-05
0.00782295
0.000181231
0.00782093
-1.94468e-05
0.00782189
0.00034457
0.00782019
5.56273e-05
0.00782292
0.000600718
0.00782227
0.000224843
0.0078282
0.00100435
0.00782953
0.000486432
0.00784105
0.00165094
0.00784668
0.000904507
0.00786706
0.00252203
0.00787894
0.00137228
0.00790868
0.00328951
0.00792379
0.00139435
0.00795565
0.00320101
0.0079614
0.000119941
0.00797771
0.00147324
0.00795838
-0.00265162
0.00795538
-0.00131461
0.00792172
-0.00555761
0.00788608
-0.00748477
0.00781098
-0.0133394
0.00763483
-0.0288076
0.00733711
-0.0448183
0.00735088
0.000566972
0.00755471
0.030272
0.00765423
0.0165079
0.00768385
0.0073435
0.00770433
0.00488125
0.00770283
0.00144132
0.00771322
0.00214002
0.00770935
0.000127365
0.00771831
0.00160009
0.00771649
0.000158391
0.00772684
0.00148799
0.0077262
5.99599e-06
0.00773405
0.000862823
0.00772992
-0.000635072
0.00773131
-8.62803e-05
0.007722
-0.00133809
0.00771527
-0.00103007
0.00770093
-0.00188783
0.00768875
-0.00168015
0.00767273
-0.00215891
0.00765944
-0.00190798
0.00764519
-0.00208319
0.00763414
-0.00180732
0.0076235
-0.00181524
0.00761492
-0.00164931
0.00760689
-0.00161024
0.0075997
-0.00159302
0.00759279
-0.00158349
0.00758549
-0.00167765
0.00757835
-0.00168402
0.00757075
-0.00180042
0.00756398
-0.00176347
0.00755724
-0.00180788
0.00755239
-0.00168144
0.00754853
-0.00155941
0.00754789
-0.00128858
0.00754949
-0.000905642
0.00755565
-0.000463294
0.00756616
0.00033529
0.00758246
0.000986131
0.0076066
0.00238807
0.00763795
0.00328047
0.00768313
0.005491
0.00773753
0.00670212
0.007814
0.00980745
0.0119235
0.00749101
-0.0103334
0.00747906
-0.000769116
0.00751969
0.0063209
0.00757268
0.00789124
0.00761799
0.006793
0.00765445
0.00552573
0.00768542
0.00470046
0.00771205
0.00404769
0.00773501
0.0034995
0.00775459
0.00299703
0.00777123
0.00256901
0.00778524
0.00218528
0.00779695
0.00185646
0.00780662
0.00156281
0.0078145
0.00131144
0.00782077
0.00108652
0.00782559
0.000885684
0.00782917
0.000716862
0.00783166
0.00056766
0.00783324
0.000443783
0.00783405
0.000339371
0.00783422
0.000251537
0.00783381
0.000172778
0.00783308
0.000126905
0.00783194
7.16957e-05
0.00783082
6.83844e-05
0.00782923
1.34392e-05
0.00782828
8.45812e-05
0.00782633
-2.45952e-05
0.00782614
0.000181428
0.00782416
-1.74766e-05
0.00782517
0.000343556
0.00782352
5.72715e-05
0.00782631
0.000597928
0.00782573
0.000225421
0.00783173
0.000998352
0.00783312
0.000485032
0.00784471
0.00163934
0.0078504
0.00089882
0.00787081
0.00250161
0.00788269
0.0013604
0.0079124
0.00325979
0.00792743
0.00137932
0.00795919
0.00316925
0.00796481
0.00011432
0.00798103
0.00145702
0.00796158
-0.00263218
0.00795839
-0.00131142
0.00792427
-0.0055235
0.00788787
-0.00744837
0.00781171
-0.0132633
0.00763345
-0.0286294
0.00733397
-0.0445188
0.00734779
0.000553145
0.00755294
0.0300669
0.00765333
0.0164075
0.00768386
0.00731295
0.00770497
0.00486014
0.00770379
0.0014425
0.00771442
0.00212939
0.00771059
0.000131195
0.00771971
0.00159098
0.00771801
0.000160091
0.00772846
0.00147755
0.00772788
6.58594e-06
0.00773576
0.000854955
0.00773162
-0.000630925
0.00773302
-8.76801e-05
0.00772371
-0.00132878
0.00771702
-0.00102337
0.00770273
-0.00187354
0.00769061
-0.00166802
0.00767463
-0.00214293
0.00766137
-0.00189471
0.00764713
-0.00206894
0.00763608
-0.00179627
0.00762542
-0.00180458
0.00761681
-0.0016407
0.00760874
-0.00160217
0.00760152
-0.00158579
0.00759458
-0.00157655
0.00758727
-0.00167034
0.00758012
-0.00167687
0.00757253
-0.00179282
0.00756578
-0.00175672
0.00755907
-0.00180117
0.00755425
-0.00167662
0.00755045
-0.0015556
0.00754987
-0.001288
0.00755156
-0.000907337
0.00755782
-0.000469548
0.00756847
0.000324648
0.00758492
0.000969676
0.00760926
0.00236374
0.00764082
0.00324891
0.00768625
0.00544558
0.0077409
0.00664747
0.0078176
0.00973077
0.0118311
0.00749101
-0.0102487
0.00747922
-0.000757329
0.00752013
0.00627999
0.00757341
0.00783796
0.00761897
0.00674743
0.00765566
0.00548905
0.00768683
0.00466929
0.00771363
0.00402088
0.00773674
0.00347639
0.00775645
0.00297732
0.00777321
0.00255225
0.00778733
0.00217116
0.00779913
0.00184465
0.00780889
0.00155306
0.00781684
0.00130348
0.00782319
0.00108017
0.00782807
0.0008808
0.00783172
0.000713211
0.00783427
0.000565106
0.00783591
0.000442146
0.00783678
0.000338495
0.007837
0.000251316
0.00783664
0.000173129
0.00783596
0.000127581
0.00783487
7.27834e-05
0.00783381
6.94434e-05
0.00783226
1.4983e-05
0.00783137
8.54776e-05
0.00782947
-2.27061e-05
0.00782932
0.000181574
0.0078274
-1.55549e-05
0.00782846
0.000342491
0.00782687
5.88617e-05
0.00782971
0.000595079
0.00782919
0.000225937
0.00783526
0.000992283
0.00783672
0.000483565
0.00784838
0.00162768
0.00785412
0.000893082
0.00787458
0.00248115
0.00788645
0.00134852
0.00791613
0.0032301
0.00793106
0.00136439
0.00796273
0.00313758
0.00796821
0.000108832
0.00798434
0.00144089
0.00796478
-0.00261262
0.00796138
-0.00130803
0.00792681
-0.00548893
0.00788963
-0.0074112
0.00781241
-0.0131861
0.00763204
-0.028449
0.00733079
-0.0442176
0.00734464
0.000539285
0.00755111
0.0298604
0.00765237
0.0163062
0.00768383
0.0072815
0.00770558
0.00483838
0.00770473
0.00144336
0.00771562
0.00211851
0.00771182
0.000134986
0.00772111
0.0015817
0.00771954
0.000161664
0.0077301
0.001467
0.00772958
7.11318e-06
0.00773749
0.000847056
0.00773334
-0.000626772
0.00773475
-8.90873e-05
0.00772544
-0.00131947
0.00771878
-0.00101671
0.00770455
-0.00185931
0.00769248
-0.00165595
0.00767655
-0.002127
0.00766333
-0.00188148
0.00764909
-0.0020547
0.00763804
-0.0017852
0.00762735
-0.00179388
0.00761872
-0.00163207
0.00761062
-0.00159407
0.00760336
-0.00157852
0.00759639
-0.00156958
0.00758907
-0.00166301
0.00758191
-0.0016697
0.00757432
-0.00178523
0.00756759
-0.00174998
0.00756091
-0.00179449
0.00755613
-0.00167183
0.00755238
-0.00155185
0.00755186
-0.00128747
0.00755365
-0.000909123
0.00756
-0.000475896
0.00757079
0.000313864
0.0075874
0.000953074
0.00761194
0.0023392
0.0076437
0.00321715
0.00768937
0.00539991
0.00774428
0.00659257
0.0078212
0.00965385
0.0117386
0.00749101
-0.0101639
0.00747938
-0.000745698
0.00752056
0.00623881
0.00757413
0.00778439
0.00761995
0.0067016
0.00765686
0.00545214
0.00768823
0.00463792
0.00771521
0.0039939
0.00773847
0.00345313
0.00775831
0.00295747
0.00777519
0.00253537
0.00778941
0.00215694
0.00780131
0.00183274
0.00781115
0.00154321
0.00781919
0.00129544
0.00782561
0.00107374
0.00783056
0.000875847
0.00783427
0.000709496
0.00783688
0.00056249
0.00783857
0.000440451
0.0078395
0.000337562
0.00783978
0.00025104
0.00783948
0.000173427
0.00783885
0.000128204
0.00783781
7.38196e-05
0.0078368
7.04513e-05
0.0078353
1.6476e-05
0.00783445
8.63228e-05
0.00783261
-2.08663e-05
0.00783251
0.00018167
0.00783063
-1.36816e-05
0.00783175
0.000341374
0.00783021
6.03977e-05
0.00783311
0.000592171
0.00783266
0.000226392
0.00783879
0.000986147
0.00784032
0.000482029
0.00785205
0.00161594
0.00785784
0.000887294
0.00787833
0.00246065
0.0078902
0.00133666
0.00791986
0.00320044
0.0079347
0.00134955
0.00796626
0.00310602
0.00797161
0.000103479
0.00798765
0.00142485
0.00796795
-0.00259292
0.00796436
-0.00130444
0.00792931
-0.0054539
0.00789138
-0.00737327
0.0078131
-0.0131078
0.00763062
-0.0282665
0.00732759
-0.0439146
0.00734144
0.000525427
0.00754921
0.0296526
0.00765138
0.0162041
0.00768376
0.00724911
0.00770617
0.00481597
0.00770565
0.00144388
0.00771679
0.00210737
0.00771305
0.000138726
0.00772251
0.00157224
0.00772107
0.000163107
0.00773174
0.00145634
0.00773128
7.5763e-06
0.00773922
0.000839127
0.00773507
-0.000622614
0.00773648
-9.05007e-05
0.00772717
-0.00131016
0.00772056
-0.00101009
0.00770638
-0.00184513
0.00769437
-0.00164393
0.00767849
-0.00211111
0.0076653
-0.00186829
0.00765107
-0.00204047
0.00764
-0.00177414
0.00762929
-0.00178317
0.00762064
-0.00162341
0.0076125
-0.00158593
0.00760521
-0.00157123
0.00759822
-0.00156258
0.00759088
-0.00165566
0.00758371
-0.00166253
0.00757613
-0.00177765
0.00756941
-0.00174326
0.00756276
-0.00178783
0.00755801
-0.00166708
0.00755432
-0.00154815
0.00755386
-0.00128701
0.00755574
-0.000911002
0.00756219
-0.000482343
0.00757312
0.00030294
0.00758987
0.000936319
0.00761461
0.00231447
0.00764659
0.00318517
0.0076925
0.005354
0.00774766
0.0065374
0.0078248
0.00957672
0.0116457
0.00749101
-0.0100792
0.00747953
-0.00073422
0.007521
0.00619734
0.00757485
0.00773054
0.00762093
0.00665551
0.00765806
0.005415
0.00768963
0.00460635
0.00771678
0.00396675
0.00774019
0.00342971
0.00776016
0.0029375
0.00777716
0.00251838
0.00779149
0.0021426
0.00780348
0.00182074
0.00781341
0.00153329
0.00782152
0.00128733
0.00782801
0.00106725
0.00783303
0.000870827
0.00783681
0.000705718
0.00783948
0.000559812
0.00784123
0.000438697
0.00784222
0.000336573
0.00784255
0.000250709
0.0078423
0.000173671
0.00784172
0.000128776
0.00784074
7.48047e-05
0.00783978
7.14086e-05
0.00783833
1.79188e-05
0.00783753
8.71168e-05
0.00783574
-1.90761e-05
0.00783569
0.000181716
0.00783386
-1.18571e-05
0.00783503
0.000340206
0.00783354
6.18801e-05
0.00783651
0.000589205
0.00783611
0.000226784
0.00784231
0.000979944
0.00784391
0.000480426
0.00785571
0.00160413
0.00786155
0.000881457
0.00788209
0.00244011
0.00789394
0.0013248
0.00792357
0.00317081
0.00793832
0.00133479
0.00796978
0.00307456
0.00797499
9.82647e-05
0.00799094
0.0014089
0.00797111
-0.0025731
0.00796731
-0.00130064
0.0079318
-0.00541839
0.00789311
-0.00733459
0.00781377
-0.0130285
0.00762919
-0.0280819
0.00732439
-0.0436098
0.00733821
0.000511607
0.00754727
0.0294436
0.00765035
0.016101
0.00768366
0.0072158
0.00770673
0.0047929
0.00770655
0.00144406
0.00771796
0.00209597
0.00771427
0.000142409
0.00772391
0.0015626
0.00772261
0.000164418
0.00773338
0.00144556
0.00773299
7.97522e-06
0.00774096
0.000831167
0.0077368
-0.000618451
0.00773823
-9.19221e-05
0.00772892
-0.00130085
0.00772234
-0.00100351
0.00770821
-0.00183101
0.00769626
-0.00163197
0.00768043
-0.00209528
0.00766727
-0.00185513
0.00765304
-0.00202623
0.00764198
-0.00176307
0.00763125
-0.00177244
0.00762256
-0.00161472
0.0076144
-0.00157776
0.00760707
-0.0015639
0.00760005
-0.00155556
0.00759269
-0.0016483
0.00758551
-0.00165535
0.00757794
-0.00177007
0.00757123
-0.00173655
0.00756461
-0.00178121
0.0075599
-0.00166236
0.00755626
-0.00154451
0.00755586
-0.0012866
0.00755783
-0.00091297
0.00756438
-0.000488884
0.00757545
0.000291876
0.00759235
0.000919419
0.00761729
0.00228954
0.00764948
0.00315299
0.00769563
0.00530786
0.00775104
0.006482
0.0078284
0.00949935
0.0115526
0.00749101
-0.00999445
0.00747969
-0.000722896
0.00752143
0.00615559
0.00757557
0.0076764
0.00762191
0.00660917
0.00765926
0.00537764
0.00769102
0.00457459
0.00771834
0.00393942
0.0077419
0.00340615
0.00776201
0.00291739
0.00777912
0.00250127
0.00779355
0.00212817
0.00780564
0.00180865
0.00781565
0.00152327
0.00782384
0.00127913
0.00783041
0.00106068