/*--------------------------------*- C++ -*----------------------------------*\
| =========                 |                                                 |
| \\      /  F ield         | OpenFOAM: The Open Source CFD Toolbox           |
|  \\    /   O peration     | Version:  2412                                  |
|   \\  /    A nd           | Website:  www.openfoam.com                      |
|    \\/     M anipulation  |                                                 |
\*---------------------------------------------------------------------------*/
FoamFile
{
    version     2.0;
    format      ascii;
    arch        "LSB;label=32;scalar=64";
    class       volVectorField;
    location    "0.1";
    object      U;
}
// * * * * * * * * * * * * * * * * * * * * * * * * * * * * * * * * * * * * * //

dimensions      [0 1 -1 0 0 0 0];

internalField   nonuniform List<vector> 
13068
(
(99.9221 1.84424 0)
(100.668 8.73706 -5.49281e-17)
(102.474 13.9672 -5.67432e-17)
(104.733 15.3413 0)
(107.021 14.8241 0)
(109.225 14.1846 0)
(111.417 13.8567 0)
(113.623 13.6527 1.02972e-16)
(115.85 13.5283 0)
(118.114 13.4387 -4.97286e-17)
(120.412 13.4085 0)
(122.763 13.4141 0)
(125.163 13.4662 0)
(127.632 13.5511 0)
(130.168 13.6729 0)
(132.787 13.8257 4.41779e-17)
(135.49 14.0094 -4.32075e-17)
(138.293 14.2232 4.22181e-17)
(141.201 14.4648 4.1219e-17)
(144.226 14.737 4.02037e-17)
(147.379 15.0363 3.91806e-17)
(150.666 15.3671 -1.06288e-21)
(154.122 15.7257 3.71003e-17)
(157.704 16.1175 -3.59899e-17)
(161.557 16.5382 -8.57785e-22)
(165.429 16.9984 0)
(169.839 17.479 0)
(173.972 18.0298 3.14183e-17)
(179.098 18.5533 -3.07567e-17)
(183.565 19.2388 0)
(189.46 19.7858 2.84114e-17)
(194.453 20.6526 0)
(201.225 21.2375 0)
(206.78 22.2998 2.43751e-17)
(214.85 22.97 -4.7917e-17)
(220.86 24.2603 0)
(230.757 25.0371 2.17728e-17)
(237.288 26.6674 -1.89847e-17)
(249.554 27.5592 -2.01653e-22)
(256.864 29.6195 -1.62624e-17)
(272.254 30.5824 3.44078e-17)
(280.62 32.9904 1.34853e-17)
(300.045 33.8799 -8.43321e-22)
(309.614 36.3691 1.05933e-17)
(333.977 36.9586 1.2843e-17)
(344.52 39.2279 7.43981e-18)
(374.507 39.7292 -1.06384e-17)
(386.087 42.1646 3.92427e-18)
(423.949 43.5373 -8.25708e-18)
(438.88 44.0911 -2.1578e-19)
(485.453 45.3611 5.84538e-18)
(505.497 36.8414 3.64737e-18)
(551.666 34.6813 2.11335e-21)
(573.566 -3.69068 -4.72784e-19)
(546.509 -16.1751 0)
(536.644 -26.7573 -6.11348e-18)
(498.327 -30.2621 0)
(484.285 -30.919 0)
(451.039 -30.9284 0)
(438.676 -29.5334 0)
(411.553 -28.9947 0)
(400.752 -27.212 0)
(378.564 -26.6426 4.81075e-18)
(368.856 -25.0237 0)
(350.78 -24.7743 -3.63642e-22)
(341.738 -23.5284 3.82096e-18)
(326.736 -23.5125 -6.59083e-18)
(318.054 -22.5096 1.27819e-21)
(305.367 -22.4837 7.5331e-18)
(296.978 -21.682 -1.34686e-21)
(286.037 -21.5096 -8.48624e-18)
(278.008 -20.7978 -8.04272e-18)
(268.589 -20.4648 1.80809e-22)
(261.076 -19.7551 9.35822e-18)
(252.956 -19.3018 0)
(246.153 -18.6219 1.05047e-17)
(239.075 -18.1262 -7.44653e-23)
(232.984 -17.5706 -1.1563e-17)
(226.754 -17.1058 -1.23627e-17)
(221.223 -16.7007 0)
(215.68 -16.3016 2.55832e-22)
(210.618 -16.0078 1.37652e-17)
(205.57 -15.6549 0)
(200.948 -15.4071 -2.78066e-22)
(196.29 -15.0497 1.52608e-17)
(192.117 -14.7843 -1.58144e-17)
(187.803 -14.3818 0)
(184.096 -14.0403 -1.68365e-17)
(180.111 -13.5648 0)
(176.894 -13.0762 3.12116e-22)
(173.239 -12.5048 -4.29301e-22)
(170.536 -11.7703 0)
(167.234 -11.0811 6.79597e-22)
(165.081 -9.97313 0)
(162.2 -9.14434 -2.02977e-17)
(160.637 -7.52157 0)
(158.344 -6.51985 0)
(157.443 -4.30956 0)
(155.965 -2.74022 0)
(99.9216 1.82965 -5.42854e-17)
(100.668 8.67451 5.49285e-17)
(102.479 13.8693 -5.6702e-17)
(104.742 15.2336 0)
(107.034 14.7197 0)
(109.241 14.0843 0)
(111.437 13.7583 0)
(113.645 13.5553 -5.14871e-17)
(115.875 13.4315 0)
(118.141 13.3422 4.97308e-17)
(120.442 13.312 0)
(122.794 13.3174 -4.79361e-17)
(125.197 13.369 4.70185e-17)
(127.668 13.4532 4.6085e-17)
(130.206 13.574 0)
(132.826 13.7257 -4.41795e-17)
(135.532 13.908 0)
(138.337 14.1203 -8.44379e-17)
(141.246 14.3601 -4.12203e-17)
(144.273 14.6303 -4.0205e-17)
(147.428 14.9275 -3.91795e-17)
(150.718 15.256 -7.62658e-17)
(154.175 15.612 -7.42014e-17)
(157.759 16.0009 3.59887e-17)
(161.615 16.4186 -3.50086e-17)
(165.488 16.8755 0)
(169.901 17.3528 3.29225e-17)
(174.037 17.8996 0)
(179.166 18.4195 3.07565e-17)
(183.635 19.0999 0)
(189.534 19.6433 -2.84107e-17)
(194.529 20.5037 0)
(201.306 21.0847 0)
(206.864 22.1394 0)
(214.939 22.8052 2.39575e-17)
(220.952 24.086 0)
(230.857 24.8579 -2.17723e-17)
(237.392 26.4758 1.8984e-17)
(249.666 27.3614 1.94916e-17)
(256.98 29.4054 1.17768e-21)
(272.378 30.3611 -1.72029e-17)
(280.748 32.7496 -2.69694e-17)
(300.18 33.6322 -1.4966e-17)
(309.749 36.1012 0)
(334.117 36.6873 -2.56828e-17)
(344.664 38.94 7.43565e-18)
(374.657 39.4394 1.06347e-17)
(386.246 41.8533 3.92116e-18)
(424.103 43.2114 8.25753e-18)
(439.027 43.7498 2.15872e-19)
(485.549 44.9977 0)
(505.546 36.5174 -3.65165e-18)
(551.536 34.3472 -3.68657e-18)
(573.319 -3.66536 4.73371e-19)
(546.412 -16.0115 0)
(536.609 -26.5241 0)
(498.341 -30.0085 0)
(484.348 -30.6721 0)
(451.1 -30.6864 0)
(438.755 -29.3073 0)
(411.622 -28.7745 0)
(400.819 -27.0051 0)
(378.632 -26.4409 -4.81097e-18)
(368.923 -24.8352 -2.05226e-18)
(350.844 -24.5883 -5.65642e-18)
(341.803 -23.353 -3.82073e-18)
(326.796 -23.3372 -6.59018e-18)
(318.113 -22.3425 5.36142e-18)
(305.423 -22.3163 0)
(297.033 -21.5206 -1.33058e-21)
(286.091 -21.349 -8.48656e-18)
(278.064 -20.643 8.04263e-18)
(268.643 -20.3125 9.35065e-18)
(261.131 -19.6089 -9.35792e-18)
(253.009 -19.1593 0)
(246.206 -18.4852 -1.05044e-17)
(239.125 -17.9934 1.13409e-17)
(233.033 -17.4425 0)
(226.799 -16.9812 1.23626e-17)
(221.268 -16.5796 0)
(215.722 -16.1834 1.33108e-17)
(210.659 -15.892 -2.753e-17)
(205.61 -15.5418 0)
(200.988 -15.2961 -2.96069e-17)
(196.328 -14.9416 -1.52611e-17)
(192.156 -14.6784 0)
(187.842 -14.2795 0)
(184.136 -13.9406 0)
(180.152 -13.4694 0)
(176.935 -12.984 -1.7879e-17)
(173.283 -12.4176 1.82829e-17)
(170.581 -11.6873 0)
(167.284 -11.0039 -3.85893e-17)
(165.13 -9.902 0)
(162.257 -9.07993 2.02988e-17)
(160.695 -7.46689 0)
(158.411 -6.47292 0)
(157.509 -4.27769 0)
(156.04 -2.71978 0)
(99.9211 1.81499 5.43091e-17)
(100.668 8.61159 0)
(102.483 13.771 1.13326e-16)
(104.75 15.1256 -5.63505e-17)
(107.046 14.6151 0)
(109.256 13.9838 -5.34909e-17)
(111.455 13.6596 0)
(113.667 13.4578 -5.14862e-17)
(115.9 13.3346 0)
(118.169 13.2457 0)
(120.471 13.2155 0)
(122.826 13.2206 9.58748e-17)
(125.231 13.2718 -4.70203e-17)
(127.704 13.3552 -4.60867e-17)
(130.244 13.4751 0)
(132.866 13.6256 0)
(135.574 13.8066 0)
(138.38 14.0172 8.44383e-17)
(141.292 14.2554 0)
(144.32 14.5236 0)
(147.478 14.8186 1.08645e-21)
(150.769 15.1447 3.81333e-17)
(154.229 15.4982 9.96093e-22)
(157.815 15.8843 -3.59894e-17)
(161.673 16.299 -3.50075e-17)
(165.549 16.7526 -3.37406e-17)
(169.965 17.2265 -3.29228e-17)
(174.102 17.7692 0)
(179.235 18.2856 -3.07566e-17)
(183.706 18.9609 0)
(189.608 19.5007 2.84106e-17)
(194.607 20.3547 0)
(201.387 20.932 0)
(206.949 21.979 0)
(215.03 22.6404 0)
(221.046 23.9116 0)
(230.958 24.6786 2.17713e-17)
(237.497 26.284 0)
(249.78 27.1635 1.9491e-17)
(257.098 29.1913 1.17457e-21)
(272.504 30.1397 0)
(280.877 32.5087 1.34841e-17)
(300.315 33.3844 0)
(309.886 35.8333 0)
(334.259 36.4159 1.47445e-21)
(344.808 38.652 -7.43578e-18)
(374.808 39.1496 -1.06339e-17)
(386.404 41.5418 -3.92164e-18)
(424.258 42.8856 -8.25639e-18)
(439.17 43.4083 -2.14394e-19)
(485.643 44.6346 0)
(505.588 36.1936 0)
(551.394 34.0131 3.70184e-18)
(573.064 -3.64001 -4.73101e-19)
(546.304 -15.8482 0)
(536.566 -26.2909 0)
(498.346 -29.755 0)
(484.408 -30.4251 3.96877e-18)
(451.157 -30.4442 0)
(438.833 -29.0812 -1.87992e-18)
(411.69 -28.554 0)
(400.887 -26.7983 0)
(378.7 -26.2392 0)
(368.993 -24.6468 2.05223e-18)
(350.91 -24.4024 0)
(341.87 -23.1777 0)
(326.857 -23.162 2.98572e-22)
(318.175 -22.1755 5.35885e-18)
(305.48 -22.149 0)
(297.091 -21.3594 -6.73568e-18)
(286.147 -21.1885 8.4867e-18)
(278.121 -20.4883 0)
(268.699 -20.1604 0)
(261.189 -19.4627 0)
(253.064 -19.0169 0)
(246.261 -18.3486 0)
(239.176 -17.8608 0)
(233.084 -17.3145 0)
(226.847 -16.8567 -1.23626e-17)
(221.314 -16.4585 0)
(215.766 -16.0653 0)
(210.701 -15.7763 1.37649e-17)
(205.651 -15.4287 0)
(201.028 -15.1851 1.48035e-17)
(196.368 -14.8337 0)
(192.196 -14.5727 -1.58147e-17)
(187.882 -14.1774 0)
(184.176 -13.841 0)
(180.194 -13.3741 0)
(176.978 -12.8918 0)
(173.328 -12.3305 0)
(170.626 -11.6044 0)
(167.333 -10.9269 1.92957e-17)
(165.181 -9.83103 0)
(162.315 -9.01567 0)
(160.753 -7.41238 2.11305e-17)
(158.477 -6.42616 0)
(157.576 -4.24596 -2.21736e-17)
(156.114 -2.69947 0)
(99.9207 1.80045 0)
(100.669 8.54886 0)
(102.487 13.6727 -5.66251e-17)
(104.758 15.0174 5.63152e-17)
(107.058 14.5102 0)
(109.272 13.8831 5.34874e-17)
(111.474 13.5608 5.24082e-17)
(113.689 13.36 5.14881e-17)
(115.925 13.2375 0)
(118.196 13.1489 0)
(120.501 13.1188 -4.88426e-17)
(122.858 13.1237 -4.79387e-17)
(125.265 13.1744 0)
(127.74 13.2571 0)
(130.282 13.376 0)
(132.906 13.5254 -4.4179e-17)
(135.616 13.705 0)
(138.424 13.9141 -1.1628e-21)
(141.338 14.1505 0)
(144.368 14.4168 -4.0204e-17)
(147.528 14.7096 1.07434e-21)
(150.821 15.0334 0)
(154.283 15.3843 3.71009e-17)
(157.871 15.7676 0)
(161.732 16.1793 3.50081e-17)
(165.609 16.6296 3.37411e-17)
(170.029 17.1001 0)
(174.167 17.6388 3.14141e-17)
(179.305 18.1517 0)
(183.777 18.8219 0)
(189.684 19.358 -2.84099e-17)
(194.685 20.2057 0)
(201.47 20.7791 -2.60896e-17)
(207.035 21.8184 0)
(215.121 22.4755 0)
(221.141 23.7371 -2.16687e-17)
(231.061 24.4991 -2.1771e-17)
(237.603 26.0921 0)
(249.895 26.9655 -1.94903e-17)
(257.216 28.977 3.25172e-17)
(272.631 29.9183 1.72009e-17)
(281.007 32.2677 -1.34818e-17)
(300.452 33.1366 1.49631e-17)
(310.023 35.5652 0)
(334.402 36.1444 1.44626e-21)
(344.951 38.3639 -7.43201e-18)
(374.961 38.8596 0)
(386.561 41.2301 0)
(424.413 42.5597 8.25749e-18)
(439.309 43.0667 2.14504e-19)
(485.736 44.2718 0)
(505.622 35.8702 3.65321e-18)
(551.241 33.6792 -3.71524e-18)
(572.802 -3.61488 4.74634e-19)
(546.186 -15.685 0)
(536.517 -26.0578 0)
(498.344 -29.5013 -2.59025e-18)
(484.465 -30.1782 -3.97047e-18)
(451.211 -30.2019 0)
(438.91 -28.855 3.76058e-18)
(411.756 -28.3334 0)
(400.956 -26.5914 1.21307e-19)
(378.769 -26.0375 0)
(369.063 -24.4584 2.05073e-18)
(350.978 -24.2166 0)
(341.939 -23.0025 3.81733e-18)
(326.921 -22.9868 6.5901e-18)
(318.238 -22.0086 -5.35886e-18)
(305.539 -21.9817 7.53362e-18)
(297.151 -21.1982 0)
(286.204 -21.0281 8.48721e-18)
(278.18 -20.3338 -8.03992e-18)
(268.757 -20.0083 0)
(261.248 -19.3166 0)
(253.12 -18.8745 0)
(246.317 -18.2121 -1.05025e-17)
(239.229 -17.7281 0)
(233.136 -17.1865 0)
(226.896 -16.7322 0)
(221.362 -16.3374 0)
(215.811 -15.9473 0)
(210.745 -15.6606 0)
(205.693 -15.3157 0)
(201.07 -15.0743 0)
(196.41 -14.7258 0)
(192.237 -14.467 1.14044e-22)
(187.924 -14.0753 1.62592e-17)
(184.218 -13.7415 0)
(180.236 -13.2789 0)
(177.021 -12.7997 0)
(173.374 -12.2435 0)
(170.672 -11.5215 0)
(167.384 -10.8499 0)
(165.232 -9.76015 0)
(162.373 -8.95149 0)
(160.811 -7.35795 -2.1132e-17)
(158.544 -6.37947 -2.12797e-17)
(157.643 -4.21428 6.49519e-22)
(156.189 -2.6792 0)
(99.9203 1.78587 0)
(100.669 8.48594 5.49238e-17)
(102.491 13.5742 0)
(104.766 14.909 0)
(107.07 14.4052 0)
(109.287 13.7822 5.34811e-17)
(111.493 13.4619 -5.2409e-17)
(113.711 13.2622 0)
(115.95 13.1402 0)
(118.223 13.0521 -4.97317e-17)
(120.531 13.022 4.88447e-17)
(122.89 13.0267 -4.79382e-17)
(125.3 13.0769 0)
(127.776 13.1589 0)
(130.32 13.2769 0)
(132.947 13.4251 4.41807e-17)
(135.658 13.6034 0)
(138.469 13.811 -4.22203e-17)
(141.384 14.0456 0)
(144.416 14.3099 4.02053e-17)
(147.578 14.6006 7.83604e-17)
(150.873 14.922 0)
(154.338 15.2703 0)
(157.928 15.6508 0)
(161.791 16.0595 0)
(165.671 16.5065 0)
(170.093 16.9737 3.29223e-17)
(174.234 17.5083 -3.14147e-17)
(179.375 18.0177 -3.07567e-17)
(183.849 18.6827 -2.91396e-17)
(189.761 19.2153 2.84102e-17)
(194.764 20.0565 -2.68879e-17)
(201.553 20.6262 2.60896e-17)
(207.122 21.6578 2.43708e-17)
(215.213 22.3104 2.39543e-17)
(221.237 23.5625 1.10171e-21)
(231.164 24.3196 2.17705e-17)
(237.709 25.9001 1.89772e-17)
(250.011 26.7675 1.94902e-17)
(257.336 28.7625 -1.62582e-17)
(272.759 29.6967 -2.94448e-22)
(281.137 32.0265 1.34824e-17)
(300.59 32.8888 -2.9926e-17)
(310.161 35.2971 1.05868e-17)
(334.546 35.873 1.28369e-17)
(345.096 38.0755 7.43255e-18)
(375.115 38.5696 -1.06295e-17)
(386.717 40.918 0)
(424.569 42.2339 -8.25717e-18)
(439.446 42.725 2.13111e-19)
(485.827 43.9095 5.85715e-18)
(505.651 35.5472 -3.65968e-18)
(551.079 33.3458 0)
(572.533 -3.58986 4.7532e-19)
(546.056 -15.5222 0)
(536.461 -25.8248 0)
(498.334 -29.2477 2.59482e-18)
(484.52 -29.9313 0)
(451.262 -29.9593 0)
(438.987 -28.6289 -3.76197e-18)
(411.821 -28.1125 0)
(401.025 -26.3847 -1.21321e-19)
(378.837 -25.8358 0)
(369.136 -24.2701 -4.10083e-18)
(351.046 -24.0307 0)
(342.01 -22.8274 -3.8173e-18)
(326.985 -22.8117 0)
(318.303 -21.8417 0)
(305.599 -21.8144 -7.5341e-18)
(297.212 -21.0372 0)
(286.263 -20.8678 -1.69753e-17)
(278.241 -20.1793 8.04009e-18)
(268.816 -19.8564 0)
(261.308 -19.1707 0)
(253.178 -18.7322 0)
(246.375 -18.0755 1.05025e-17)
(239.284 -17.5955 1.13413e-17)
(233.19 -17.0586 0)
(226.946 -16.6077 0)
(221.411 -16.2164 0)
(215.857 -15.8292 0)
(210.791 -15.5449 1.37639e-17)
(205.737 -15.2027 -1.42749e-17)
(201.113 -14.9634 0)
(196.452 -14.6179 1.52613e-17)
(192.279 -14.3614 3.16307e-17)
(187.966 -13.9732 -1.62596e-17)
(184.261 -13.642 0)
(180.28 -13.1838 0)
(177.065 -12.7076 0)
(173.42 -12.1566 0)
(170.719 -11.4388 0)
(167.436 -10.773 0)
(165.284 -9.6894 -2.00439e-17)
(162.431 -8.88745 2.03061e-17)
(160.87 -7.30368 0)
(158.611 -6.33294 4.25644e-17)
(157.71 -4.18273 2.21769e-17)
(156.264 -2.65906 0)
(99.9199 1.77129 0)
(100.669 8.42288 -1.0985e-16)
(102.496 13.4754 0)
(104.775 14.8005 -5.62415e-17)
(107.082 14.3 0)
(109.303 13.6812 -5.34779e-17)
(111.513 13.3628 0)
(113.733 13.1642 0)
(115.975 13.0429 5.06109e-17)
(118.251 12.9551 9.94665e-17)
(120.561 12.9251 4.88442e-17)
(122.922 12.9296 4.79402e-17)
(125.334 12.9793 -4.7021e-17)
(127.813 13.0606 4.60873e-17)
(130.359 13.1777 0)
(132.987 13.3247 0)
(135.7 13.5017 0)
(138.513 13.7077 0)
(141.43 13.9406 4.12201e-17)
(144.465 14.203 0)
(147.628 14.4915 -3.9181e-17)
(150.926 14.8105 0)
(154.393 15.1562 3.71002e-17)
(157.985 15.534 -3.59884e-17)
(161.851 15.9396 0)
(165.732 16.3833 0)
(170.158 16.8472 -5.37458e-22)
(174.3 17.3778 3.14129e-17)
(179.446 17.8836 3.07574e-17)
(183.922 18.5435 2.91401e-17)
(189.838 19.0724 2.841e-17)
(194.843 19.9073 2.68882e-17)
(201.637 20.4731 2.60883e-17)
(207.209 21.497 -2.43709e-17)
(215.306 22.1453 -2.39542e-17)
(221.333 23.3878 1.09062e-21)
(231.268 24.1399 0)
(237.817 25.7079 -3.79533e-17)
(250.127 26.5692 1.56336e-22)
(257.456 28.5479 0)
(272.889 29.475 -1.72007e-17)
(281.268 31.7853 -1.34807e-17)
(300.73 32.6409 1.49632e-17)
(310.299 35.0288 -1.05879e-17)
(334.692 35.6014 0)
(345.24 37.7869 -7.42927e-18)
(375.269 38.2795 1.06298e-17)
(386.872 40.6057 0)
(424.726 41.9082 1.65171e-17)
(439.579 42.3832 -4.25747e-19)
(485.918 43.5475 -5.8613e-18)
(505.673 35.2249 0)
(550.909 33.0129 0)
(572.258 -3.56494 -9.54919e-19)
(545.917 -15.3597 -2.73048e-18)
(536.398 -25.5921 0)
(498.316 -28.9941 0)
(484.571 -29.6846 -3.97496e-18)
(451.309 -29.7167 -3.18594e-18)
(439.064 -28.4028 1.88142e-18)
(411.885 -27.8915 0)
(401.095 -26.1779 0)
(378.907 -25.6341 -4.81205e-18)
(369.209 -24.0819 2.05014e-18)
(351.116 -23.845 0)
(342.082 -22.6523 3.81529e-18)
(327.051 -22.6365 -6.5899e-18)
(318.37 -21.6749 0)
(305.661 -21.6472 0)
(297.275 -20.8761 0)
(286.324 -20.7075 1.69766e-17)
(278.304 -20.0249 0)
(268.877 -19.7045 0)
(261.37 -19.0247 -9.3556e-18)
(253.238 -18.5899 -1.02699e-17)
(246.435 -17.9391 -1.05015e-17)
(239.34 -17.4629 -1.13416e-17)
(233.245 -16.9306 0)
(226.998 -16.4833 -1.23632e-17)
(221.461 -16.0954 0)
(215.905 -15.7112 0)
(210.837 -15.4293 -2.75281e-17)
(205.782 -15.0898 2.91803e-22)
(201.157 -14.8526 -1.48035e-17)
(196.495 -14.5101 -1.52618e-17)
(192.322 -14.2558 -1.58158e-17)
(188.009 -13.8712 0)
(184.304 -13.5426 1.68394e-17)
(180.324 -13.0886 0)
(177.109 -12.6157 -1.78828e-17)
(173.467 -12.0698 -1.82869e-17)
(170.767 -11.3561 -1.8957e-17)
(167.488 -10.6962 0)
(165.336 -9.61879 -2.55702e-22)
(162.491 -8.82353 8.29489e-22)
(160.93 -7.24955 0)
(158.679 -6.28655 -4.25706e-17)
(157.778 -4.1513 -2.21778e-17)
(156.339 -2.63904 0)
(99.9195 1.75672 0)
(100.669 8.35971 1.09851e-16)
(102.5 13.3765 0)
(104.783 14.6917 5.62079e-17)
(107.094 14.1947 5.47913e-17)
(109.319 13.58 -5.34718e-17)
(111.532 13.2635 0)
(113.755 13.0661 0)
(116 12.9454 -1.35382e-21)
(118.278 12.858 -4.97349e-17)
(120.591 12.8281 -1.303e-21)
(122.955 12.8324 -4.79398e-17)
(125.368 12.8816 9.40448e-17)
(127.849 12.9622 -4.60893e-17)
(130.397 13.0784 0)
(133.027 13.2242 -4.41807e-17)
(135.743 13.3999 0)
(138.557 13.6043 0)
(141.477 13.8355 -8.24422e-17)
(144.513 14.0959 -4.02051e-17)
(147.679 14.3823 0)
(150.979 14.699 0)
(154.448 15.0421 -3.71015e-17)
(158.042 15.417 3.59896e-17)
(161.911 15.8197 0)
(165.794 16.26 0)
(170.223 16.7205 -3.29235e-17)
(174.368 17.2471 -1.2056e-21)
(179.517 17.7494 0)
(183.995 18.4042 2.91384e-17)
(189.915 18.9295 -2.84106e-17)
(194.923 19.758 0)
(201.721 20.32 -5.21768e-17)
(207.297 21.3362 -2.43702e-17)
(215.399 21.98 -2.39537e-17)
(221.43 23.2129 1.0805e-21)
(231.372 23.9601 -2.17711e-17)
(237.925 25.5156 1.89764e-17)
(250.245 26.3709 -1.94905e-17)
(257.577 28.3332 1.62559e-17)
(273.019 29.2532 0)
(281.4 31.5439 1.34818e-17)
(300.87 32.3929 1.49626e-17)
(310.438 34.7604 0)
(334.838 35.3298 0)
(345.384 37.4982 1.48584e-17)
(375.425 37.9892 0)
(387.026 40.2931 0)
(424.883 41.5825 -8.2603e-18)
(439.709 42.0413 2.12642e-19)
(486.008 43.186 0)
(505.69 34.9034 0)
(550.731 32.6808 0)
(571.978 -3.54013 4.80049e-19)
(545.768 -15.1976 4.12143e-18)
(536.33 -25.3595 0)
(498.293 -28.7406 -2.61033e-18)
(484.619 -29.438 3.97685e-18)
(451.354 -29.474 3.18739e-18)
(439.14 -28.1767 0)
(411.947 -27.6703 0)
(401.166 -25.9712 0)
(378.976 -25.4323 1.72159e-22)
(369.284 -23.8938 0)
(351.187 -23.6592 5.65567e-18)
(342.157 -22.4772 -7.62981e-18)
(327.119 -22.4614 6.59039e-18)
(318.439 -21.5082 -5.35452e-18)
(305.724 -21.48 -7.53534e-18)
(297.339 -20.7152 -6.73072e-18)
(286.385 -20.5473 -1.69781e-17)
(278.367 -19.8705 0)
(268.939 -19.5526 0)
(261.434 -18.8788 1.87112e-17)
(253.299 -18.4477 1.02703e-17)
(246.495 -17.8026 2.10028e-17)
(239.397 -17.3303 1.13421e-17)
(233.301 -16.8027 0)
(227.05 -16.3588 1.23636e-17)
(221.513 -15.9743 -1.2671e-17)
(215.953 -15.5932 1.33106e-17)
(210.885 -15.3136 1.37642e-17)
(205.827 -14.9769 1.42755e-17)
(201.202 -14.7418 2.96077e-17)
(196.54 -14.4023 1.5262e-17)
(192.366 -14.1502 0)
(188.054 -13.7693 -1.62607e-17)
(184.348 -13.4432 -1.68401e-17)
(180.37 -12.9936 -1.72648e-17)
(177.155 -12.5238 3.57674e-17)
(173.515 -11.983 3.65755e-17)
(170.815 -11.2736 1.8958e-17)
(167.54 -10.6195 1.93025e-17)
(165.389 -9.54828 4.00941e-17)
(162.55 -8.75971 -2.03099e-17)
(160.99 -7.19555 -2.11369e-17)
(158.747 -6.24028 2.1288e-17)
(157.847 -4.11997 2.21802e-17)
(156.414 -2.61912 2.2312e-17)
(99.9192 1.74216 0)
(100.669 8.29644 -1.09854e-16)
(102.504 13.2773 0)
(104.791 14.5828 0)
(107.106 14.0891 -5.47768e-17)
(109.334 13.4786 5.34687e-17)
(111.551 13.1641 0)
(113.777 12.9678 0)
(116.025 12.8478 -5.06141e-17)
(118.306 12.7608 0)
(120.621 12.7309 -9.76933e-17)
(122.987 12.735 4.7942e-17)
(125.403 12.7838 -4.70239e-17)
(127.886 12.8636 4.60889e-17)
(130.436 12.9789 0)
(133.068 13.1237 8.8364e-17)
(135.786 13.2979 0)
(138.602 13.5008 -4.22208e-17)
(141.523 13.7303 1.10883e-21)
(144.562 13.9888 4.02067e-17)
(147.73 14.273 0)
(151.032 14.5873 3.81335e-17)
(154.503 14.9278 3.7101e-17)
(158.1 15.3 0)
(161.971 15.6996 0)
(165.857 16.1366 3.374e-17)
(170.289 16.5938 0)
(174.435 17.1163 -3.14136e-17)
(179.589 17.615 0)
(184.068 18.2648 -2.91393e-17)
(189.993 18.7864 0)
(195.004 19.6085 0)
(201.807 20.1667 2.60887e-17)
(207.385 21.1751 2.43708e-17)
(215.493 21.8146 4.79079e-17)
(221.528 23.0379 2.16662e-17)
(231.477 23.7801 2.17715e-17)
(238.034 25.3231 0)
(250.363 26.1723 0)
(257.698 28.1183 -1.13567e-21)
(273.149 29.0313 0)
(281.533 31.3023 1.34806e-17)
(301.011 32.1448 -2.99271e-17)
(310.577 34.4918 0)
(334.985 35.0581 0)
(345.528 37.2092 -1.96096e-21)
(375.581 37.6988 0)
(387.179 39.9803 0)
(425.039 41.2568 8.26105e-18)
(439.837 41.6995 2.11355e-19)
(486.097 42.825 5.87021e-18)
(505.702 34.5827 0)
(550.547 32.3495 -3.80616e-18)
(571.692 -3.51541 0)
(545.611 -15.0359 -1.38386e-18)
(536.257 -25.1272 -6.21623e-18)
(498.263 -28.4874 5.23343e-18)
(484.665 -29.1916 0)
(451.396 -29.2313 0)
(439.215 -27.9507 -1.88347e-18)
(412.009 -27.449 3.97064e-18)
(401.237 -25.7646 0)
(379.046 -25.2306 4.81339e-18)
(369.361 -23.7057 0)
(351.259 -23.4735 -1.1312e-17)
(342.232 -22.3022 1.00867e-21)
(327.187 -22.2862 6.59041e-18)
(318.509 -21.3414 1.19466e-21)
(305.789 -21.3128 7.53618e-18)
(297.405 -20.5542 1.34613e-17)
(286.448 -20.3872 8.48986e-18)
(278.432 -19.7163 0)
(269.002 -19.4008 9.35106e-18)
(261.499 -18.733 -9.35567e-18)
(253.361 -18.3055 -1.02703e-17)
(246.557 -17.6662 -1.05014e-17)
(239.455 -17.1977 -1.13426e-17)
(233.358 -16.6747 0)
(227.104 -16.2344 -1.23641e-17)
(221.565 -15.8533 2.53421e-17)
(216.003 -15.4751 -1.33111e-17)
(210.933 -15.198 -1.37638e-17)
(205.874 -14.8639 -1.42755e-17)
(201.248 -14.631 -1.48043e-17)
(196.585 -14.2945 -3.0525e-17)
(192.411 -14.0447 0)
(188.098 -13.6673 1.62613e-17)
(184.393 -13.3439 -1.6841e-17)
(180.415 -12.8985 -1.41233e-22)
(177.201 -12.4319 -3.57696e-17)
(173.564 -11.8962 -1.82887e-17)
(170.864 -11.1911 -1.89598e-17)
(167.594 -10.5428 -3.86079e-17)
(165.443 -9.47788 2.40329e-22)
(162.61 -8.69601 0)
(161.05 -7.14167 2.11389e-17)
(158.815 -6.19414 0)
(157.915 -4.08874 -2.21814e-17)
(156.49 -2.5993 -2.23142e-17)
(99.9189 1.72759 0)
(100.67 8.23306 5.49298e-17)
(102.508 13.178 0)
(104.799 14.4736 0)
(107.118 13.9834 0)
(109.35 13.3771 5.34628e-17)
(111.57 13.0645 -5.24058e-17)
(113.799 12.8693 5.14903e-17)
(116.05 12.75 5.06137e-17)
(118.333 12.6635 0)
(120.651 12.6337 4.88483e-17)
(123.019 12.6376 0)
(125.437 12.6859 0)
(127.922 12.765 -4.6091e-17)
(130.474 12.8794 0)
(133.109 13.023 -4.41834e-17)
(135.828 13.1959 0)
(138.647 13.3973 1.11631e-21)
(141.57 13.6249 4.12229e-17)
(144.611 13.8815 0)
(147.781 14.1635 3.91815e-17)
(151.085 14.4755 -3.81351e-17)
(154.558 14.8135 -9.49102e-22)
(158.157 15.1828 0)
(162.031 15.5795 0)
(165.919 16.0131 -9.87281e-22)
(170.354 16.4669 -3.29243e-17)
(174.503 16.9854 0)
(179.661 17.4806 3.07597e-17)
(184.142 18.1253 0)
(190.071 18.6432 0)
(195.084 19.459 0)
(201.892 20.0134 2.60882e-17)
(207.474 21.014 0)
(215.587 21.649 -2.39545e-17)
(221.626 22.8628 0)
(231.583 23.6 0)
(238.144 25.1305 -1.89739e-17)
(250.481 25.9736 -1.94924e-17)
(257.82 27.9032 -1.6257e-17)
(273.281 28.8092 1.72022e-17)
(281.665 31.0606 -1.34823e-17)
(301.152 31.8966 7.483e-22)
(310.716 34.2231 0)
(335.133 34.7863 0)
(345.672 36.92 -1.94153e-21)
(375.737 37.4082 0)
(387.331 39.6672 0)
(425.196 40.9312 -8.26379e-18)
(439.962 41.3577 -2.11498e-19)
(486.185 42.4645 -5.90171e-23)
(505.711 34.2629 0)
(550.359 32.0192 -2.74938e-21)
(571.402 -3.49076 4.85186e-19)
(545.445 -14.8748 -1.39659e-18)
(536.179 -24.8952 6.24301e-18)
(498.228 -28.2345 1.67277e-21)
(484.708 -28.9453 0)
(451.435 -28.9885 0)
(439.29 -27.7246 1.88362e-18)
(412.069 -27.2276 1.23002e-22)
(401.308 -25.5579 0)
(379.115 -25.0289 0)
(369.438 -23.5176 0)
(351.332 -23.2878 1.13125e-17)
(342.309 -22.1272 1.00115e-21)
(327.257 -22.1111 -6.59107e-18)
(318.58 -21.1747 5.35408e-18)
(305.854 -21.1456 0)
(297.471 -20.3933 -6.7307e-18)
(286.512 -20.227 8.49095e-18)
(278.499 -19.562 8.03732e-18)
(269.066 -19.249 -1.76723e-22)
(261.565 -18.5872 0)
(253.423 -18.1632 1.0271e-17)
(246.62 -17.5297 0)
(239.515 -17.0651 0)
(233.417 -16.5467 0)
(227.159 -16.1099 2.47293e-17)
(221.618 -15.7322 -1.26712e-17)
(216.053 -15.3571 0)
(210.982 -15.0823 2.75283e-17)
(205.921 -14.751 2.87027e-22)
(201.295 -14.5202 0)
(196.63 -14.1867 1.52632e-17)
(192.457 -13.9392 0)
(188.144 -13.5654 -1.6262e-17)
(184.438 -13.2446 -7.76591e-23)
(180.462 -12.8035 -1.39519e-22)
(177.247 -12.3402 3.57719e-17)
(173.612 -11.8095 0)
(170.913 -11.1087 -3.13852e-22)
(167.647 -10.4663 3.86117e-17)
(165.497 -9.40759 -4.01014e-17)
(162.671 -8.6324 -2.03159e-17)
(161.111 -7.08791 0)
(158.884 -6.1481 0)
(157.984 -4.0576 6.57174e-22)
(156.566 -2.57958 0)
(99.9186 1.71304 0)
(100.67 8.16958 -5.49307e-17)
(102.512 13.0784 0)
(104.807 14.3643 0)
(107.13 13.8775 0)
(109.366 13.2754 -1.40847e-21)
(111.589 12.9648 5.24069e-17)
(113.821 12.7708 -5.14925e-17)
(116.075 12.6521 -1.32041e-21)
(118.361 12.566 4.97367e-17)
(120.681 12.5363 0)
(123.051 12.54 0)
(125.472 12.5879 0)
(127.959 12.6663 0)
(130.513 12.7797 0)
(133.149 12.9222 -4.41831e-17)
(135.871 13.0938 -4.32109e-17)
(138.691 13.2936 1.10707e-21)
(141.617 13.5195 -4.12226e-17)
(144.66 13.7741 4.02071e-17)
(147.832 14.054 -3.91833e-17)
(151.138 14.3636 -3.81349e-17)
(154.614 14.699 -9.41615e-22)
(158.215 15.0655 0)
(162.091 15.4592 3.50096e-17)
(165.982 15.8895 -3.37419e-17)
(170.42 16.3399 6.5851e-17)
(174.571 16.8544 -3.14127e-17)
(179.733 17.346 -6.1522e-17)
(184.216 17.9856 0)
(190.15 18.4999 2.84127e-17)
(195.165 19.3092 0)
(201.978 19.8598 -5.21781e-17)
(207.563 20.8527 2.43713e-17)
(215.682 21.4833 -2.39548e-17)
(221.725 22.6874 -2.1665e-17)
(231.688 23.4196 0)
(238.253 24.9376 3.7949e-17)
(250.6 25.7746 1.94936e-17)
(257.942 27.688 1.62563e-17)
(273.412 28.5869 -1.72038e-17)
(281.798 30.8187 0)
(301.294 31.6483 1.4966e-17)
(310.856 33.9543 0)
(335.281 34.5144 -1.28341e-17)
(345.816 36.6306 -7.42802e-18)
(375.894 37.1175 0)
(387.482 39.3539 0)
(425.352 40.6055 0)
(440.085 41.0159 0)
(486.273 42.1044 -5.17436e-23)
(505.716 33.9442 0)
(550.167 31.6901 3.85966e-18)
(571.108 -3.46618 -6.50431e-22)
(545.272 -14.7142 -1.26725e-21)
(536.097 -24.6637 0)
(498.189 -27.9819 -2.63044e-18)
(484.749 -28.6993 0)
(451.473 -28.7458 3.19427e-18)
(439.364 -27.4986 1.88488e-18)
(412.128 -27.006 -3.97294e-18)
(401.379 -25.3514 -1.17748e-19)
(379.185 -24.8272 0)
(369.515 -23.3296 -2.04716e-18)
(351.405 -23.102 -5.6567e-18)
(342.386 -21.9522 3.81312e-18)
(327.327 -21.9359 0)
(318.652 -21.0079 0)
(305.92 -20.9784 0)
(297.539 -20.2324 0)
(286.577 -20.0669 -1.69839e-17)
(278.566 -19.4078 -8.03796e-18)
(269.131 -19.0973 -1.87044e-17)
(261.631 -18.4413 -9.35545e-18)
(253.487 -18.021 0)
(246.683 -17.3932 0)
(239.574 -16.9325 1.13441e-17)
(233.475 -16.4187 1.15569e-17)
(227.215 -15.9854 -1.23653e-17)
(221.672 -15.6112 0)
(216.104 -15.239 0)
(211.032 -14.9667 -1.37646e-17)
(205.969 -14.6381 1.42766e-17)
(201.342 -14.4095 0)
(196.677 -14.079 0)
(192.503 -13.8337 1.5818e-17)
(188.19 -13.4635 3.25257e-17)
(184.484 -13.1453 -7.49327e-23)
(180.509 -12.7086 1.72675e-17)
(177.294 -12.2484 -1.78871e-17)
(173.662 -11.7228 0)
(170.962 -11.0263 1.89627e-17)
(167.701 -10.3897 -1.93075e-17)
(165.551 -9.33738 -2.25282e-22)
(162.732 -8.56888 2.03178e-17)
(161.172 -7.03426 0)
(158.953 -6.10218 -2.12996e-17)
(158.053 -4.02655 2.21863e-17)
(156.642 -2.55994 0)
(99.9183 1.69848 -5.44984e-17)
(100.67 8.10599 5.49354e-17)
(102.516 12.9787 0)
(104.815 14.2547 5.60703e-17)
(107.143 13.7714 0)
(109.381 13.1735 -1.3968e-21)
(111.608 12.8649 5.24053e-17)
(113.843 12.672 0)
(116.1 12.5541 -5.06172e-17)
(118.388 12.4684 -1.27103e-21)
(120.711 12.4387 0)
(123.084 12.4423 0)
(125.506 12.4897 0)
(127.995 12.5675 0)
(130.552 12.68 0)
(133.19 12.8213 8.83694e-17)
(135.914 12.9915 4.3213e-17)
(138.736 13.1898 8.44478e-17)
(141.663 13.414 4.12246e-17)
(144.708 13.6666 -4.0209e-17)
(147.883 13.9444 3.91831e-17)
(151.191 14.2516 3.81368e-17)
(154.669 14.5844 -3.71041e-17)
(158.273 14.9481 3.59912e-17)
(162.151 15.3387 -3.50113e-17)
(166.045 15.7658 -3.37416e-17)
(170.486 16.2128 -3.29269e-17)
(174.639 16.7233 3.14143e-17)
(179.804 17.2112 3.07625e-17)
(184.29 17.8458 0)
(190.228 18.3564 -2.95064e-22)
(195.246 19.1594 0)
(202.064 19.7061 2.60901e-17)
(207.653 20.6912 -4.87447e-17)
(215.777 21.3173 2.39561e-17)
(221.823 22.5119 4.33316e-17)
(231.794 23.239 2.17755e-17)
(238.363 24.7446 -1.89753e-17)
(250.719 25.5755 1.94955e-17)
(258.064 27.4725 -1.10955e-21)
(273.544 28.3644 0)
(281.931 30.5765 0)
(301.436 31.3997 1.49667e-17)
(310.995 33.6852 0)
(335.428 34.2423 1.28361e-17)
(345.959 36.341 0)
(376.05 36.8265 0)
(387.632 39.0404 0)
(425.508 40.2799 0)
(440.205 40.6742 0)
(486.36 41.7449 -5.88494e-18)
(505.719 33.6267 0)
(549.973 31.3624 0)
(570.811 -3.44164 -4.93073e-19)
(545.093 -14.5543 1.42061e-18)
(536.012 -24.4325 0)
(498.147 -27.7297 0)
(484.788 -28.4534 3.98386e-18)
(451.509 -28.5031 -3.19544e-18)
(439.437 -27.2726 -1.88497e-18)
(412.187 -26.7844 3.97424e-18)
(401.451 -25.1448 5.94575e-22)
(379.255 -24.6255 4.81525e-18)
(369.594 -23.1415 2.0474e-18)
(351.479 -22.9163 0)
(342.465 -21.7771 -3.81149e-18)
(327.398 -21.7606 0)
(318.724 -20.8411 0)
(305.987 -20.8112 0)
(297.607 -20.0715 -6.72849e-18)
(286.643 -19.9068 1.69862e-17)
(278.633 -19.2535 -8.03696e-18)
(269.197 -18.9455 1.76932e-22)
(261.698 -18.2955 9.35604e-18)
(253.551 -17.8787 -1.02719e-17)
(246.747 -17.2567 0)
(239.635 -16.7998 -2.26898e-17)
(233.535 -16.2907 -1.15575e-17)
(227.271 -15.8608 1.23661e-17)
(221.727 -15.49 1.26707e-17)
(216.156 -15.1209 0)
(211.082 -14.851 0)
(206.018 -14.5251 -1.42769e-17)
(201.389 -14.2987 0)
(196.723 -13.9712 1.52642e-17)
(192.549 -13.7281 -1.58189e-17)
(188.236 -13.3616 -1.62637e-17)
(184.531 -13.046 3.36876e-17)
(180.556 -12.6136 -1.72687e-17)
(177.342 -12.1567 0)
(173.711 -11.6362 -1.82931e-17)
(171.012 -10.9441 -1.89648e-17)
(167.755 -10.3133 0)
(165.606 -9.26726 2.00546e-17)
(162.792 -8.50544 0)
(161.233 -6.98071 2.11453e-17)
(159.022 -6.05635 2.13024e-17)
(158.122 -3.99557 -2.2188e-17)
(156.719 -2.54039 2.23257e-17)
(99.918 1.68392 5.4526e-17)
(100.671 8.04231 0)
(102.52 12.8788 0)
(104.823 14.1449 -1.12077e-16)
(107.155 13.6651 0)
(109.397 13.0714 -1.06901e-16)
(111.627 12.7648 -5.24064e-17)
(113.865 12.5732 0)
(116.125 12.4559 0)
(118.416 12.3707 -4.97403e-17)
(120.741 12.3411 0)