/*--------------------------------*- C++ -*----------------------------------*\
| =========                 |                                                 |
| \\      /  F ield         | OpenFOAM: The Open Source CFD Toolbox           |
|  \\    /   O peration     | Version:  2412                                  |
|   \\  /    A nd           | Website:  www.openfoam.com                      |
|    \\/     M anipulation  |                                                 |
\*---------------------------------------------------------------------------*/
FoamFile
{
    version     2.0;
    format      ascii;
    arch        "LSB;label=32;scalar=64";
    class       volScalarField;
    location    "0.7";
    object      epsilon;
}
// * * * * * * * * * * * * * * * * * * * * * * * * * * * * * * * * * * * * * //

dimensions      [0 2 -3 0 0 0 0];

internalField   nonuniform List<scalar> 
13068
(
380.514
387.057
402.776
440.013
516.6
646.242
825.178
1029.17
1228.21
1400.29
1531.37
1609.36
1626.87
1592.52
1530.61
1469.91
1427.62
1408.98
1410.45
1428.66
1458.97
1500.64
1550.74
1611.28
1679.74
1760.55
1850.32
1956.5
2073.56
2213.64
2367.3
2554.53
2758.98
3014.34
3291.9
3649.98
4038.28
4561.8
5134.44
5953.37
6872.05
8257.72
9821.99
12183.8
14672.7
18170.3
21281.1
25322
28732.8
32942.3
36647.6
33493.3
32879.2
21795.7
15824.7
13426.3
13594.8
13730.2
13954.1
12885.7
11697.2
10088.5
8848.47
7632.86
6738.77
5896.24
5269.47
4708.92
4304.96
3959.91
3715.04
3503.92
3344.65
3195.3
3065.89
2933.35
2803.73
2666.18
2525.74
2381.35
2237.89
2099.52
1968.55
1850.34
1742.86
1650.95
1568.05
1499.23
1434.55
1381.24
1326.82
1282.09
1232.04
1191.34
1142.68
1103.32
1055.67
1017.72
966.255
380.441
386.869
402.365
439.15
514.971
643.64
821.726
1025.37
1224.71
1397.56
1529.51
1608.23
1626.39
1592.79
1531.72
1471.78
1429.96
1411.51
1412.97
1431.07
1461.25
1502.8
1552.81
1613.3
1681.74
1762.56
1852.37
1958.63
2075.8
2216.02
2369.84
2557.28
2761.97
3017.65
3295.58
3654.18
4043.11
4567.5
5141.2
5961.48
6881.59
8268.71
9834.11
12196.4
14685.5
18182.5
21294.9
25335.2
28745.1
32928.7
36597.2
33389.2
32655.8
21573.8
15637.6
13279.1
13485.1
13654.6
13904.5
12856.3
11682.2
10082.8
8847.88
7634.59
6741.54
5899.58
5273.22
4712.85
4308.83
3963.47
3718.16
3506.53
3346.75
3196.94
3067.15
2934.31
2804.51
2666.87
2526.45
2382.13
2238.79
2100.55
1969.69
1851.54
1744.07
1652.11
1569.09
1500.12
1435.25
1381.73
1327.09
1282.09
1231.78
1190.75
1141.77
1101.98
1053.91
1015.41
963.577
380.369
386.684
401.959
438.295
513.354
641.051
818.287
1021.59
1221.23
1394.86
1527.68
1607.13
1625.94
1593.09
1532.87
1473.67
1432.32
1414.05
1415.49
1433.49
1463.53
1504.96
1554.88
1615.32
1683.74
1764.58
1854.43
1960.77
2078.04
2218.4
2372.38
2560.04
2764.97
3020.97
3299.28
3658.39
4047.95
4573.21
5147.96
5969.58
6891.13
8279.7
9846.23
12209
14698.3
18194.8
21308.8
25348.4
28757.5
32915.3
36547.1
33286.1
32435.1
21356.1
15455.3
13136.1
13377.7
13580.1
13855.2
12826.9
11667
10076.9
8847.14
7636.22
6744.25
5902.85
5276.93
4716.74
4312.68
3967.02
3721.28
3509.13
3348.86
3198.58
3068.41
2935.28
2805.3
2667.58
2527.17
2382.93
2239.71
2101.59
1970.83
1852.74
1745.28
1653.26
1570.14
1501.02
1435.96
1382.23
1327.36
1282.1
1231.52
1190.17
1140.88
1100.66
1052.18
1013.14
960.937
380.298
386.501
401.558
437.449
511.75
638.48
814.868
1017.82
1217.78
1392.18
1525.88
1606.06
1625.51
1593.42
1534.04
1475.57
1434.68
1416.58
1418.01
1435.9
1465.81
1507.12
1556.95
1617.34
1685.73
1766.59
1856.49
1962.91
2080.27
2220.78
2374.92
2562.79
2767.96
3024.28
3302.96
3662.58
4052.77
4578.89
5154.69
5977.64
6900.62
8290.62
9858.28
12221.5
14711
18207
21322.6
25361.5
28769.6
32901.9
36497
33183.7
32216.9
21142.3
15277.6
12996.9
13272.5
13506.4
13805.9
12797.1
11651.4
10070.7
8846.17
7637.67
6746.8
5906.01
5280.54
4720.56
4316.47
3970.53
3724.36
3511.71
3350.94
3200.21
3069.66
2936.25
2806.08
2668.28
2527.89
2383.73
2240.62
2102.63
1971.97
1853.94
1746.48
1654.41
1571.18
1501.91
1436.67
1382.73
1327.63
1282.11
1231.28
1189.6
1139.99
1099.36
1050.47
1010.9
958.33
380.228
386.321
401.162
436.612
510.161
635.928
811.471
1014.08
1214.35
1389.53
1524.1
1605
1625.11
1593.76
1535.22
1477.48
1437.04
1419.11
1420.52
1438.3
1468.08
1509.28
1559.02
1619.35
1687.72
1768.59
1858.53
1965.03
2082.49
2223.14
2377.44
2565.53
2770.93
3027.57
3306.62
3666.75
4057.56
4584.54
5161.38
5985.65
6910.04
8301.47
9870.24
12234
14723.7
18219.2
21336.2
25374.4
28781.4
32888.2
36446.9
33081.9
32000.9
20932
15104.1
12861.1
13169.3
13433.4
13756.5
12767.1
11635.4
10064.2
8844.94
7638.91
6749.19
5909.02
5284.03
4724.28
4320.19
3973.98
3727.4
3514.25
3352.99
3201.81
3070.89
2937.19
2806.84
2668.97
2528.59
2384.51
2241.52
2103.65
1973.09
1855.13
1747.67
1655.55
1572.22
1502.79
1437.37
1383.22
1327.9
1282.12
1231.03
1189.03
1139.11
1098.06
1048.77
1008.67
955.752
380.159
386.143
400.771
435.785
508.587
633.395
808.096
1010.37
1210.94
1386.9
1522.33
1603.97
1624.72
1594.12
1536.42
1479.39
1439.39
1421.63
1423.02
1440.7
1470.34
1511.42
1561.07
1621.34
1689.69
1770.59
1860.56
1967.14
2084.7
2225.49
2379.95
2568.24
2773.89
3030.83
3310.25
3670.88
4062.32
4590.15
5168.02
5993.6
6919.38
8312.22
9882.1
12246.3
14736.2
18231.2
21349.7
25387.1
28792.8
32874.2
36396.7
32980.5
31787.1
20725.1
14934.4
12728.4
13067.7
13361
13707.1
12736.7
11619.1
10057.3
8843.43
7639.92
6751.39
5911.89
5287.39
4727.91
4323.83
3977.36
3730.39
3516.75
3355
3203.37
3072.09
2938.11
2807.59
2669.64
2529.28
2385.28
2242.4
2104.66
1974.2
1856.3
1748.84
1656.67
1573.23
1503.67
1438.06
1383.7
1328.16
1282.13
1230.78
1188.46
1138.23
1096.77
1047.09
1006.47
953.201
380.092
385.968
400.385
434.967
507.027
630.883
804.745
1006.68
1207.57
1384.3
1520.6
1602.95
1624.35
1594.5
1537.62
1481.31
1441.74
1424.15
1425.51
1443.08
1472.59
1513.56
1563.11
1623.33
1691.66
1772.57
1862.58
1969.23
2086.9
2227.82
2382.44
2570.94
2776.82
3034.07
3313.85
3674.99
4067.04
4595.71
5174.6
6001.48
6928.65
8322.88
9893.85
12258.6
14748.6
18243.1
21363
25399.6
28803.9
32859.9
36346.3
32879.7
31575.3
20521.5
14768.4
12598.7
12967.8
13289
13657.5
12705.9
11602.3
10050.1
8841.63
7640.71
6753.4
5914.6
5290.63
4731.43
4327.39
3980.68
3733.32
3519.2
3356.97
3204.9
3073.26
2939.01
2808.32
2670.3
2529.95
2386.03
2243.27
2105.64
1975.29
1857.45
1749.99
1657.78
1574.24
1504.53
1438.75
1384.17
1328.42
1282.13
1230.53
1187.89
1137.36
1095.49
1045.42
1004.29
950.678
380.025
385.795
400.005
434.158
505.483
628.39
801.416
1003.01
1204.21
1381.72
1518.88
1601.95
1624
1594.89
1538.84
1483.23
1444.09
1426.66
1428
1445.46
1474.84
1515.68
1565.14
1625.31
1693.61
1774.53
1864.59
1971.32
2089.08
2230.13
2384.91
2573.62
2779.72
3037.29
3317.43
3679.05
4071.71
4601.22
5181.13
6009.29
6937.82
8333.43
9905.48
12270.6
14760.9
18254.8
21376.1
25411.7
28814.6
32845.3
36295.8
32779.4
31365.6
20320.9
14605.9
12471.8
12869.2
13217.4
13607.7
12674.7
11585.1
10042.5
8839.55
7641.28
6755.23
5917.16
5293.75
4734.84
4330.86
3983.94
3736.2
3521.61
3358.91
3206.4
3074.4
2939.88
2809.02
2670.93
2530.6
2386.76
2244.11
2106.61
1976.36
1858.58
1751.13
1658.87
1575.23
1505.37
1439.42
1384.64
1328.67
1282.13
1230.28
1187.32
1136.49
1094.21
1043.76
1002.13
948.181
379.959
385.625
399.629
433.359
503.954
625.918
798.111
999.371
1200.89
1379.17
1517.19
1600.98
1623.67
1595.31
1540.06
1485.15
1446.44
1429.15
1430.47
1447.82
1477.07
1517.79
1567.17
1627.28
1695.56
1776.49
1866.58
1973.38
2091.24
2232.43
2387.36
2576.27
2782.61
3040.48
3320.97
3683.09
4076.35
4606.69
5187.6
6017.03
6946.92
8343.89
9916.99
12282.6
14773
18266.4
21389
25423.6
28824.9
32830.5
36245.2
32679.5
31157.9
20123.2
14446.7
12347.4
12771.9
13146.2
13557.7
12643.1
11567.5
10034.6
8837.19
7641.62
6756.88
5919.56
5296.73
4738.15
4334.25
3987.12
3739.03
3523.97
3360.8
3207.86
3075.51
2940.72
2809.7
2671.54
2531.23
2387.47
2244.94
2107.56
1977.41
1859.69
1752.25
1659.95
1576.2
1506.21
1440.08
1385.1
1328.91
1282.12
1230.03
1186.75
1135.62
1092.95
1042.12
999.992
945.709
379.894
385.458
399.259
432.57
502.44
623.466
794.829
995.756
1197.59
1376.64
1515.52
1600.02
1623.36
1595.73
1541.3
1487.07
1448.77
1431.64
1432.94
1450.18
1479.29
1519.89
1569.18
1629.23
1697.49
1778.43
1868.56
1975.43
2093.38
2234.71
2389.79
2578.9
2785.47
3043.64
3324.48
3687.09
4080.95
4612.11
5194.01
6024.7
6955.92
8354.24
9928.39
12294.4
14785
18277.8
21401.7
25435.2
28834.9
32815.3
36194.5
32580.2
30952.1
19928.4
14290.5
12225.3
12675.8
13075.2
13507.4
12611.1
11549.5
10026.4
8834.56
7641.74
6758.34
5921.81
5299.58
4741.36
4337.55
3990.24
3741.79
3526.28
3362.66
3209.29
3076.58
2941.53
2810.36
2672.14
2531.84
2388.17
2245.75
2108.49
1978.44
1860.78
1753.35
1661.01
1577.17
1507.03
1440.73
1385.55
1329.15
1282.11
1229.77
1186.19
1134.76
1091.69
1040.48
997.871
943.262
379.83
385.292
398.893
431.789
500.942
621.034
791.571
992.167
1194.32
1374.14
1513.87
1599.09
1623.07
1596.17
1542.54
1488.99
1451.11
1434.13
1435.39
1452.52
1481.5
1521.98
1571.17
1631.17
1699.4
1780.36
1870.53
1977.47
2095.51
2236.97
2392.21
2581.51
2788.3
3046.77
3327.96
3691.05
4085.5
4617.48
5200.36
6032.3
6964.84
8364.48
9939.66
12306.1
14796.9
18289
21414.2
25446.6
28844.5
32799.9
36143.7
32481.4
30748.2
19736.3
14137.2
12105.5
12580.8
13004.3
13456.9
12578.7
11531.1
10017.8
8831.65
7641.64
6759.62
5923.92
5302.31
4744.46
4340.77
3993.28
3744.51
3528.55
3364.47
3210.68
3077.63
2942.32
2810.99
2672.71
2532.44
2388.84
2246.54
2109.4
1979.45
1861.86
1754.44
1662.05
1578.11
1507.84
1441.37
1385.99
1329.38
1282.09
1229.51
1185.62
1133.9
1090.44
1038.86
995.768
940.84
379.767
385.129
398.533
431.018
499.458
618.622
788.337
988.603
1191.08
1371.67
1512.25
1598.17
1622.8
1596.63
1543.8
1490.91
1453.43
1436.6
1437.83
1454.85
1483.69
1524.06
1573.16
1633.11
1701.31
1782.27
1872.48
1979.49
2097.63
2239.21
2394.6
2584.1
2791.11
3049.87
3331.41
3694.98
4090.01
4622.79
5206.65
6039.82
6973.66
8374.62
9950.82
12317.7
14808.6
18300.1
21426.5
25457.7
28853.7
32784.2
36092.8
32383.1
30546.3
19546.8
13986.7
11987.6
12486.7
12933.7
13406.1
12545.9
11512.3
10008.8
8828.48
7641.33
6760.73
5925.87
5304.92
4747.46
4343.9
3996.26
3747.16
3530.77
3366.24
3212.03
3078.65
2943.09
2811.6
2673.26
2533.01
2389.49
2247.31
2110.29
1980.44
1862.91
1755.5
1663.07
1579.04
1508.64
1442
1386.42
1329.6
1282.08
1229.25
1185.05
1133.04
1089.19
1037.25
993.684
938.442
379.705
384.969
398.177
430.256
497.989
616.231
785.126
985.066
1187.86
1369.22
1510.65
1597.28
1622.54
1597.11
1545.06
1492.84
1455.76
1439.06
1440.26
1457.17
1485.88
1526.13
1575.14
1635.02
1703.2
1784.18
1874.42
1981.5
2099.72
2241.44
2396.97
2586.67
2793.89
3052.95
3334.83
3698.87
4094.48
4628.06
5212.88
6047.27
6982.4
8384.65
9961.84
12329.1
14820.1
18311.1
21438.5
25468.5
28862.5
32768.3
36041.8
32285.3
30346.3
19359.8
13838.7
11871.7
12393.4
12863.1
13355.1
12512.7
11493.1
9999.6
8825.04
7640.81
6761.66
5927.68
5307.4
4750.35
4346.95
3999.18
3749.76
3532.94
3367.97
3213.35
3079.63
2943.82
2812.19
2673.79
2533.57
2390.13
2248.05
2111.16
1981.41
1863.95
1756.55
1664.08
1579.96
1509.42
1442.62
1386.85
1329.82
1282.05
1228.99
1184.48
1132.19
1087.96
1035.65
991.619
936.067
379.644
384.811
397.826
429.504
496.534
613.859
781.939
981.555
1184.67
1366.81
1509.07
1596.4
1622.31
1597.6
1546.33
1494.76
1458.07
1441.51
1442.68
1459.48
1488.05
1528.18
1577.1
1636.93
1705.08
1786.07
1876.34
1983.49
2101.8
2243.64
2399.32
2589.21
2796.65
3055.99
3338.21
3702.72
4098.91
4633.28
5219.05
6054.64
6991.04
8394.57
9972.75
12340.4
14831.5
18321.9
21450.4
25479.1
28871
32752.1
35990.8
32188.2
30148.2
19175.3
13693.2
11757.4
12300.8
12792.5
13303.7
12479.1
11473.6
9990.05
8821.36
7640.09
6762.42
5929.34
5309.76
4753.15
4349.91
4002.02
3752.31
3535.06
3369.66
3214.63
3080.59
2944.53
2812.75
2674.29
2534.1
2390.74
2248.78
2112.01
1982.36
1864.96
1757.58
1665.07
1580.86
1510.19
1443.23
1387.26
1330.03
1282.02
1228.72
1183.92
1131.33
1086.72
1034.06
989.571
933.715
379.584
384.655
397.48
428.76
495.095
611.508
778.776
978.07
1181.51
1364.41
1507.52
1595.55
1622.09
1598.1
1547.61
1496.69
1460.38
1443.95
1445.09
1461.77
1490.22
1530.23
1579.05
1638.82
1706.95
1787.94
1878.25
1985.47
2103.87
2245.83
2401.65
2591.73
2799.39
3059.01
3341.57
3706.54
4103.29
4638.44
5225.15
6061.93
6999.6
8404.38
9983.52
12351.6
14842.8
18332.5
21462.1
25489.4
28879.1
32735.7
35939.8
32091.5
29952
18993.1
13550
11644.8
12208.9
12722
13252
12445.1
11453.7
9980.19
8817.43
7639.16
6763.01
5930.87
5312
4755.85
4352.8
4004.8
3754.8
3537.14
3371.31
3215.88
3081.51
2945.22
2813.3
2674.78
2534.61
2391.34
2249.49
2112.83
1983.29
1865.96
1758.59
1666.04
1581.75
1510.95
1443.83
1387.67
1330.24
1281.99
1228.45
1183.35
1130.48
1085.5
1032.48
987.54
931.386
379.524
384.501
397.138
428.025
493.671
609.177
775.637
974.611
1178.38
1362.05
1506
1594.72
1621.9
1598.63
1548.9
1498.61
1462.68
1446.39
1447.48
1464.06
1492.37
1532.26
1580.99
1640.71
1708.8
1789.8
1880.14
1987.42
2105.91
2248
2403.96
2594.23
2802.09
3062
3344.88
3710.31
4107.63
4643.56
5231.2
6069.15
7008.06
8414.09
9994.17
12362.6
14853.9
18342.9
21473.6
25499.5
28886.9
32719.1
35888.7
31995.5
29757.7
18813.2
13409
11533.6
12117.5
12651.5
13200.1
12410.7
11433.4
9970.04
8813.26
7638.04
6763.44
5932.26
5314.13
4758.44
4355.6
4007.51
3757.23
3539.17
3372.92
3217.1
3082.41
2945.87
2813.81
2675.25
2535.11
2391.91
2250.18
2113.64
1984.2
1866.93
1759.58
1667
1582.62
1511.69
1444.41
1388.07
1330.44
1281.95
1228.18
1182.78
1129.63
1084.28
1030.91
985.526
929.079
379.466
384.35
396.802
427.299
492.261
606.867
772.523
971.18
1175.27
1359.71
1504.49
1593.91
1621.72
1599.16
1550.2
1500.54
1464.98
1448.81
1449.87
1466.33
1494.5
1534.28
1582.91
1642.57
1710.64
1791.65
1882.02
1989.37
2107.94
2250.15
2406.25
2596.7
2804.77
3064.96
3348.17
3714.05
4111.93
4648.62
5237.18
6076.3
7016.42
8423.68
10004.7
12373.5
14864.8
18353.2
21484.8
25509.2
28894.3
32702.2
35837.7
31900.1
29565.3
18635.6
13270
11423.7
12026.7
12580.9
13147.8
12376
11412.8
9959.61
8808.86
7636.74
6763.72
5933.51
5316.14
4760.95
4358.32
4010.16
3759.61
3541.16
3374.49
3218.28
3083.27
2946.51
2814.31
2675.69
2535.58
2392.47
2250.85
2114.43
1985.08
1867.89
1760.55
1667.94
1583.47
1512.42
1444.99
1388.46
1330.63
1281.91
1227.9
1182.21
1128.79
1083.07
1029.35
983.529
926.793
379.408
384.2
396.469
426.582
490.866
604.577
769.432
967.775
1172.19
1357.4
1503.01
1593.12
1621.56
1599.72
1551.5
1502.46
1467.27
1451.22
1452.24
1468.59
1496.63
1536.28
1584.83
1644.43
1712.47
1793.48
1883.88
1991.29
2109.95
2252.28
2408.51
2599.15
2807.43
3067.89
3351.42
3717.75
4116.18
4653.62
5243.09
6083.36
7024.69
8433.15
10015.1
12384.2
14875.6
18363.4
21495.9
25518.8
28901.4
32685.1
35786.6
31805.3
29374.8
18460.1
13133
11315.1
11936.3
12510.2
13095.3
12341
11391.9
9948.91
8804.23
7635.25
6763.84
5934.63
5318.03
4763.35
4360.97
4012.73
3761.93
3543.1
3376.02
3219.42
3084.11
2947.11
2814.78
2676.12
2536.03
2393
2251.49
2115.19
1985.95
1868.82
1761.51
1668.86
1584.31
1513.14
1445.55
1388.84
1330.81
1281.86
1227.63
1181.65
1127.94
1081.86
1027.8
981.548
924.529
379.352
384.053
396.142
425.874
489.485
602.306
766.366
964.397
1169.14
1355.12
1501.56
1592.36
1621.42
1600.28
1552.81
1504.38
1469.55
1453.62
1454.6
1470.83
1498.74
1538.28
1586.73
1646.27
1714.28
1795.3
1885.73
1993.2
2111.94
2254.38
2410.76
2601.58
2810.05
3070.79
3354.63
3721.41
4120.38
4658.58
5248.94
6090.34
7032.87
8442.52
10025.4
12394.8
14886.2
18373.3
21506.7
25528
28908.1
32667.9
35735.6
31711.1
29186.1
18286.8
12997.8
11207.6
11846.2
12439.5
13042.5
12305.6
11370.7
9937.95
8799.4
7633.58
6763.81
5935.63
5319.82
4765.67
4363.53
4015.25
3764.2
3544.99
3377.51
3220.53
3084.91
2947.69
2815.23
2676.52
2536.46
2393.52
2252.12
2115.94
1986.8
1869.74
1762.44
1669.76
1585.14
1513.85
1446.1
1389.21
1330.99
1281.81
1227.35
1181.08
1127.1
1080.66
1026.26
979.584
922.286
379.296
383.909
395.819
425.175
488.119
600.057
763.324
961.046
1166.12
1352.86
1500.13
1591.61
1621.31
1600.87
1554.13
1506.31
1471.82
1456.01
1456.95
1473.07
1500.84
1540.26
1588.61
1648.1
1716.08
1797.1
1887.56
1995.09
2113.91
2256.47
2412.98
2603.98
2812.65
3073.65
3357.81
3725.03
4124.54
4663.48
5254.73
6097.25
7040.95
8451.77
10035.5
12405.2
14896.7
18383.1
21517.4
25537.1
28914.6
32650.4
35684.7
31617.6
28999.4
18115.5
12864.5
11101.1
11756.5
12368.7
12989.4
12269.9
11349.2
9926.75
8794.36
7631.74
6763.63
5936.5
5321.5
4767.89
4366.02
4017.7
3766.42
3546.84
3378.96
3221.61
3085.69
2948.24
2815.65
2676.9
2536.88
2394.01
2252.73
2116.66
1987.63
1870.63
1763.36
1670.65
1585.95
1514.54
1446.65
1389.57
1331.16
1281.75
1227.06
1180.51
1126.26
1079.46
1024.73
977.635
920.063
379.241
383.766
395.5
424.484
486.768
597.827
760.307
957.722
1163.13
1350.64
1498.72
1590.89
1621.21
1601.47
1555.46
1508.22
1474.09
1458.38
1459.28
1475.28
1502.93
1542.23
1590.49
1649.92
1717.87
1798.89
1889.38
1996.97
2115.87
2258.54
2415.18
2606.35
2815.22
3076.49
3360.96
3728.61
4128.65
4668.32
5260.45
6104.08
7048.94
8460.91
10045.5
12415.6
14907
18392.7
21527.9
25545.8
28920.7
32632.8
35633.8
31524.8
28814.6
17946.3
12732.8
10995.6
11667.1
12297.7
12936
12233.9
11327.4
9915.31
8789.12
7629.74
6763.32
5937.25
5323.08
4770.02
4368.43
4020.09
3768.58
3548.64
3380.37
3222.65
3086.43
2948.77
2816.06
2677.26
2537.27
2394.49
2253.31
2117.37
1988.43
1871.51
1764.25
1671.52
1586.74
1515.22
1447.18
1389.92
1331.32
1281.69
1226.78
1179.94
1125.42
1078.28
1023.22
975.702
917.86
379.187
383.625
395.186
423.802
485.431
595.618
757.314
954.425
1160.17
1348.44
1497.34
1590.19
1621.13
1602.08
1556.79
1510.14
1476.34
1460.75
1461.6
1477.49
1505
1544.18
1592.35
1651.72
1719.64
1800.67
1891.18
1998.83
2117.8
2260.59
2417.36
2608.7
2817.77
3079.29
3364.07
3732.15
4132.71
4673.11
5266.1
6110.82
7056.82
8469.93
10055.4
12425.7
14917.2
18402.2
21538.1
25554.4
28926.5
32615.1
35583.1
31432.7
28631.7
17779.1
12602.7
10891
11577.9
12226.7
12882.4
12197.6
11305.4
9903.66
8783.7
7627.59
6762.88
5937.89
5324.55
4772.07
4370.77
4022.41
3770.69
3550.4
3381.75
3223.66
3087.15
2949.27
2816.44
2677.6
2537.64
2394.94
2253.88
2118.05
1989.22
1872.36
1765.13
1672.38
1587.52
1515.88
1447.7
1390.27
1331.48
1281.62
1226.49
1179.37
1124.58
1077.09
1021.71
973.784
915.678
379.133
383.487
394.876
423.129
484.108
593.429
754.346
951.156
1157.24
1346.26
1495.99
1589.51
1621.07
1602.7
1558.13
1512.06
1478.59
1463.1
1463.91
1479.68
1507.06
1546.12
1594.2
1653.51
1721.39
1802.42
1892.96
2000.67
2119.72
2262.62
2419.51
2611.03
2820.29
3082.07
3367.15
3735.65
4136.73
4677.84
5271.69
6117.49
7064.62
8478.84
10065.1
12435.7
14927.2
18411.5
21548.2
25562.7
28932
32597.2
35532.4
31341.3
28450.7
17613.9
12474.1
10787.2
11489
12155.6
12828.6
12161.1
11283.1
9891.81
8778.1
7625.29
6762.3
5938.42
5325.93
4774.03
4373.03
4024.68
3772.75
3552.11
3383.09
3224.64
3087.84
2949.75
2816.8
2677.92
2538
2395.38
2254.42
2118.71
1989.98
1873.2
1765.99
1673.21
1588.29
1516.54
1448.21
1390.6
1331.63
1281.55
1226.2
1178.8
1123.75
1075.91
1020.2
971.881
913.514
379.081
383.35
394.571
422.464
482.8
591.26
751.402
947.915
1154.33
1344.12
1494.65
1588.85
1621.02
1603.34
1559.48
1513.97
1480.83
1465.44
1466.2
1481.86
1509.1
1548.05
1596.03
1655.28
1723.14
1804.17
1894.73
2002.49
2121.62
2264.62
2421.65
2613.33
2822.77
3084.81
3370.19
3739.11
4140.7
4682.52
5277.21
6124.07
7072.31
8487.64
10074.7
12445.6
14937.1
18420.7
21558
25570.7
28937.3
32579.1
35481.9
31250.6
28271.7
17450.7
12347.1
10684.2
11400.2
12084.3
12774.6
12124.4
11260.6
9879.76
8772.34
7622.84
6761.61
5938.84
5327.22
4775.91
4375.23
4026.88
3774.77
3553.79
3384.39
3225.59
3088.5
2950.21
2817.14
2678.22
2538.33
2395.79
2254.95
2119.36
1990.73
1874.01
1766.84
1674.03
1589.04
1517.18
1448.71
1390.93
1331.77
1281.47
1225.9
1178.23
1122.92
1074.74
1018.71
969.994
911.37
379.029
383.216
394.269
421.807
481.506
589.112
748.484
944.701
1151.45
1342
1493.34
1588.21
1621
1604
1560.83
1515.88
1483.06
1467.77
1468.49
1484.03
1511.14
1549.96
1597.85
1657.04
1724.86
1805.9
1896.48
2004.3
2123.5
2266.61
2423.76
2615.6
2825.23
3087.52
3373.19
3742.53
4144.63
4687.15
5282.67
6130.58
7079.91
8496.32
10084.2
12455.3
14946.8
18429.6
21567.7
25578.6
28942.2
32561
35431.6
31160.7
28094.7
17289.4
12221.4
10581.8
11311.6
12013
12720.3
12087.4
11238
9867.54
8766.43
7620.27
6760.8
5939.16
5328.41
4777.71
4377.36
4029.03
3776.73
3555.42
3385.65
3226.51
3089.14
2950.64
2817.45
2678.51
2538.65
2396.19
2255.46
2119.98
1991.45
1874.81
1767.66
1674.84
1589.78
1517.8
1449.2
1391.25
1331.91
1281.39
1225.6
1177.66
1122.08
1073.58
1017.23
968.121
909.245
378.978
383.083
393.972
421.159
480.227
586.984
745.59
941.515
1148.61
1339.91
1492.06
1587.6
1620.99
1604.67
1562.18
1517.79
1485.28
1470.09
1470.75
1486.18
1513.15
1551.86
1599.66
1658.78
1726.58
1807.61
1898.21
2006.09
2125.36
2268.58
2425.84
2617.85
2827.66
3090.2
3376.16
3745.9
4148.5
4691.71
5288.06
6137
7087.41
8504.88
10093.6
12464.9
14956.3
18438.5
21577.2
25586.2
28946.9
32542.7
35381.4
31071.6
27919.6
17130.1
12097.2
10480.1
11223.1
11941.6
12666
12050.3
11215.1
9855.16
8760.37
7617.57
6759.88
5939.38
5329.52
4779.43
4379.42
4031.12
3778.64
3557.01
3386.88
3227.39
3089.75
2951.05
2817.75
2678.77
2538.95
2396.57
2255.95
2120.58
1992.16
1875.59
1768.47
1675.62
1590.5
1518.42
1449.68
1391.56
1332.04
1281.3
1225.3
1177.09
1121.26
1072.41
1015.76
966.263
907.139
378.928
382.953
393.68
420.519
478.962
584.876
742.721
938.357
1145.79
1337.85
1490.8
1587
1621.01
1605.35
1563.54
1519.69
1487.49
1472.39
1473
1488.31
1515.16
1553.75
1601.45
1660.52
1728.28
1809.31
1899.93
2007.86
2127.2
2270.52
2427.91
2620.08
2830.07
3092.84
3379.09
3749.24
4152.33
4696.22
5293.38
6143.34
7094.82
8513.33
10102.8
12474.4
14965.7
18447.1
21586.5
25593.6
28951.3
32524.4
35331.4
30983.2
27746.6
16972.7
11974.3
10379
11134.8
11870.1
12611.5
12013
11192.1
9842.64
8754.18
7614.75
6758.85
5939.5
5330.54
4781.07
4381.41
4033.15
3780.5
3558.56
3388.08
3228.25
3090.34
2951.44
2818.03
2679.01
2539.23
2396.93
2256.42
2121.17
1992.85
1876.35
1769.25
1676.39
1591.2
1519.02
1450.14
1391.86
1332.17
1281.21
1225
1176.51
1120.43
1071.26
1014.29
964.419
905.051
378.879
382.825
393.391
419.887
477.711
582.789
739.878
935.226
1143
1335.81
1489.57
1586.43
1621.04
1606.04
1564.91
1521.59
1489.69
1474.68
1475.24
1490.44
1517.14
1555.62
1603.23
1662.23
1729.96
1810.99
1901.63
2009.61
2129.02
2272.44
2429.95
2622.27
2832.44
3095.46
3381.99
3752.53
4156.12
4700.68
5298.64
6149.6
7102.12
8521.67
10111.9
12483.7
14975
18455.6
21595.6
25600.7
28955.4
32506
35281.6
30895.7
27575.6
16817.3
11852.6
10278.5
11046.7
11798.6
12556.9
11975.6
11169
9829.99
8747.88
7611.82
6757.73
5939.54
5331.48
4782.65
4383.34
4035.13
3782.32
3560.07
3389.24
3229.08
3090.9
2951.81
2818.29
2679.24
2539.49
2397.27
2256.87
2121.73
1993.51
1877.09
1770.02
1677.15
1591.9
1519.61
1450.6
1392.16
1332.28
1281.12
1224.7
1175.94
1119.6
1070.11
1012.84
962.589
902.981
378.83
382.698
393.107
419.264
476.474
580.722
737.059
932.124
1140.24
1333.81
1488.35
1585.88
1621.09
1606.75
1566.28
1523.49
1491.88
1476.95
1477.46
1492.54
1519.12
1557.48
1604.99
1663.93
1731.63
1812.65
1903.32
2011.34
2130.82
2274.34
2431.96
2624.45
2834.79
3098.04
3384.85
3755.79
4159.85
4705.08
5303.83
6155.79
7109.34
8529.89
10120.8
12492.8
14984.1
18464
21604.5
25607.7
28959.3
32487.6
35232.1
30809
27406.7
16663.8
11732.3
10178.5
10958.6
11727.1
12502.2
11938.2
11145.8
9817.23
8741.46
7608.79
6756.52
5939.5
5332.35
4784.16
4385.21
4037.06
3784.1
3561.54
3390.37
3229.88
3091.44
2952.16
2818.53
2679.45
2539.73
2397.6
2257.3
2122.28
1994.16
1877.81
1770.78
1677.89
1592.57
1520.19
1451.05
1392.44
1332.4
1281.02
1224.39
1175.37
1118.78
1068.97
1011.39
960.774
900.929
378.782
382.573
392.826
418.648
475.251
578.676
734.266
929.05
1137.51
1331.83
1487.17
1585.34
1621.15
1607.46
1567.65
1525.38
1494.06
1479.22
1479.67
1494.63
1521.08
1559.32
1606.74
1665.62
1733.28
1814.3
1904.99
2013.06
2132.6
2276.22
2433.96
2626.59
2837.1
3100.59
3387.67
3759
4163.54
4709.42
5308.95
6161.89
7116.45
8538
10129.7
12501.9
14993
18472.2
21613.2
25614.5
28963
32469.1
35182.8
30723.2
27239.8
16512.2
11613.2
10079
10870.8
11655.6
12447.5
11900.6
11122.5
9804.37
8734.94
7605.67
6755.22
5939.38
5333.14
4785.6
4387.02
4038.94
3785.83
3562.97
3391.47
3230.65
3091.95
2952.48
2818.75
2679.64
2539.96
2397.91
2257.71
2122.81
1994.79
1878.52
1771.51
1678.61
1593.24
1520.75
1451.48
1392.72
1332.5
1280.92
1224.08
1174.8
1117.96
1067.83
1009.96
958.973
898.896
378.735
382.451
392.55
418.041
474.042
576.65
731.498
926.005
1134.8
1329.87
1486
1584.83
1621.24
1608.19
1569.03
1527.26
1496.23
1481.46
1481.86
1496.71
1523.02
1561.14
1608.47
1667.29
1734.91
1815.93
1906.64
2014.76
2134.36
2278.08
2435.92
2628.71
2839.39
3103.11
3390.46
3762.17
4167.18
4713.71
5314
6167.9
7123.47
8546
10138.4
12510.8
15001.9
18480.2
21621.8
25621
28966.5
32450.5
35133.9
30638.2
27075
16362.5
11495.3
9980.04
10783
11584.1
12392.8
11863
11099.1
9791.43
8728.34
7602.47
6753.84
5939.18
5333.87
4786.97
4388.78
4040.76
3787.51
3564.37
3392.54
3231.4
3092.45
2952.79
2818.96
2679.82
2540.17
2398.2
2258.11
2123.32
1995.4
1879.2
1772.23
1679.32
1593.89
1521.31
1451.91
1392.99
1332.6
1280.81
1223.77
1174.23
1117.14
1066.69
1008.53
957.186
896.879
378.689
382.33
392.278
417.442
472.848
574.644
728.756
922.987
1132.13
1327.95
1484.86
1584.34
1621.34
1608.93
1570.41
1529.14
1498.39
1483.7
1484.04
1498.77
1524.95
1562.96
1610.19
1668.95
1736.54
1817.55
1908.27
2016.44
2136.1
2279.92
2437.87
2630.81
2841.65
3105.59
3393.21
3765.3
4170.77
4717.94
5318.99
6173.84
7130.39
8553.88
10147
12519.5
15010.5
18488.1
21630.2
25627.4
28969.7
32432
35085.2
30554.1
26912.3
16214.8
11378.7
9881.56
10695.5
11512.7
12338.2
11825.4
11075.7
9778.43
8721.66
7599.19
6752.39
5938.92
5334.53
4788.29
4390.48
4042.54
3789.16
3565.73
3393.58
3232.13
3092.92
2953.08
2819.15
2679.98
2540.37
2398.47
2258.49
2123.81
1996
1879.87
1772.93
1680.01
1594.52
1521.85
1452.33
1393.25
1332.69
1280.7
1223.45
1173.66
1116.33
1065.57
1007.11
955.413
894.881
378.643
382.211
392.009
416.851
471.667
572.659
726.039
919.998
1129.49
1326.05
1483.74
1583.87
1621.46
1609.68
1571.79
1531.02
1500.53
1485.92
1486.2
1500.82
1526.87
1564.75
1611.89
1670.59
1738.14
1819.15
1909.89
2018.1
2137.83
2281.73
2439.79
2632.87
2843.88
3108.04
3395.92
3768.39
4174.32
4722.12
5323.91
6179.7
7137.22
8561.65
10155.4
12528.1
15019
18495.8
21638.4
25633.6
28972.7
32413.4
35036.8
30471
26751.8
16069
11263.2
9783.57
10608.1
11441.4
12283.6
11787.9
11052.3
9765.38
8714.92
7595.84
6750.88
5938.59
5335.13
4789.55
4392.12
4044.27
3790.76
3567.06
3394.58
3232.83
3093.37
2953.35
2819.32
2680.12
2540.55
2398.73
2258.85
2124.28
1996.57
1880.52
1773.62
1680.69
1595.15
1522.38
1452.74
1393.51
1332.78
1280.59
1223.14
1173.09
1115.52
1064.45
1005.7
953.654
892.9
378.598
382.093
391.745
416.267
470.5
570.694
723.347
917.038
1126.87
1324.18
1482.65
1583.42
1621.59
1610.44
1573.17
1532.88
1502.67
1488.12
1488.35
1502.85
1528.76
1566.53
1613.58
1672.22
1739.73
1820.73
1911.49
2019.74
2139.53
2283.53
2441.69
2634.91
2846.08
3110.46
3398.6
3771.43
4177.81
4726.24
5328.77
6185.48
7143.95
8569.31
10163.7
12536.6
15027.4
18503.4
21646.5
25639.5
28975.5
32394.9
34988.8
30388.7
26593.4
15925.2
11149
9686.06
10521
11370.2
12229.1
11750.3
11028.9
9752.31
8708.13
7592.44
6749.3
5938.21
5335.67
4790.76
4393.72
4045.96
3792.33
3568.36
3395.57
3233.5
3093.8
2953.61
2819.48
2680.25
2540.71
2398.97
2259.2
2124.74
1997.13
1881.15
1774.29
1681.35
1595.76
1522.9
1453.14
1393.75
1332.86
1280.47
1222.82
1172.52
1114.71
1063.33
1004.3
951.908
890.936
378.554
381.978
391.484
415.692
469.347
568.749
720.681
914.106
1124.28
1322.33
1481.58
1582.98
1621.74
1611.22
1574.56
1534.74
1504.79
1490.31
1490.48
1504.86
1530.65
1568.3
1615.25
1673.83
1741.3
1822.3
1913.07
2021.36
2141.21
2285.3
2443.56
2636.93
2848.25
3112.85
3401.24
3774.44
4181.26
4730.3
5333.56
6191.18
7150.58
8576.86
10171.9
12544.9
15035.6
18510.9
21654.4
25645.4
28978.1
32376.4
34941.1
30307.5
26437.2
15783.3
11035.9
9589.03
10434
11299.1
12174.7
11712.9
11005.5
9739.22
8701.3
7588.98
6747.68
5937.77
5336.16
4791.91
4395.27
4047.6
3793.86
3569.62
3396.52
3234.16
3094.21
2953.84
2819.62
2680.36
2540.86
2399.2
2259.53
2125.18
1997.67
1881.77
1774.94
1681.99
1596.35
1523.4
1453.53
1393.99
1332.94
1280.35
1222.5
1171.95
1113.9
1062.22
1002.91
950.177
888.99
378.51
381.864
391.228
415.124
468.208
566.825
718.041
911.203
1121.73
1320.52
1480.53
1582.57
1621.9
1612
1575.95
1536.6
1506.9
1492.48
1492.59
1506.86
1532.51
1570.05
1616.91
1675.42
1742.86
1823.85
1914.63
2022.97
2142.87
2287.05
2445.41
2638.92
2850.4
3115.21
3403.85
3777.4
4184.66
4734.31
5338.28
6196.8
7157.13
8584.3
10180
12553.1
15043.7
18518.2
21662.1
25651
28980.6
32357.9
34893.8
30227.2
26283.2
15643.4
10924
9492.5
10347.4
11228.3
12120.5
11675.6
10982.2
9726.13
8694.44
7585.49
6746.01
5937.29
5336.6
4793.02
4396.77
4049.21
3795.36
3570.86
3397.45
3234.79
3094.61
2954.07
2819.75
2680.47
2541
2399.41
2259.84
2125.61
1998.2
1882.37
1775.58
1682.63
1596.94
1523.9
1453.91
1394.22
1333.01
1280.22
1222.18
1171.38
1113.1
1061.12
1001.53
948.459
887.06
378.467
381.752
390.975
414.564
467.083
564.922
715.427
908.329
1119.2
1318.73
1479.51
1582.18
1622.08
1612.79
1577.33
1538.44
1508.99
1494.64
1494.69
1508.84
1534.36
1571.78
1618.55
1677
1744.4
1825.39
1916.18
2024.56
2144.51
2288.77
2447.24
2640.88
2852.51
3117.53
3406.42
3780.32
4188.02
4738.26
5342.94
6202.34
7163.58
8591.63
10188
12561.2
15051.7
18525.4
21669.7
25656.5
28982.9
32339.5
34846.9
30147.8
26131.5
15505.5
10813.3
9396.47
10261
11157.8
12066.5
11638.4
10959
9713.05
8687.56
7581.96
6744.3
5936.76
5337
4794.08
4398.24
4050.77
3796.82
3572.06
3398.36
3235.4
3094.99
2954.28
2819.86
2680.56
2541.12
2399.61
2260.14
2126.02
1998.7
1882.96
1776.2
1683.24
1597.51
1524.39
1454.28
1394.45
1333.08
1280.1
1221.86
1170.81
1112.29
1060.02
1000.15
946.756
885.148
378.425
381.642
390.725
414.012
465.971
563.039
712.838
905.484
1116.7
1316.96
1478.5
1581.8
1622.28
1613.59
1578.72
1540.28
1511.08
1496.78
1496.77
1510.8
1536.2
1573.5
1620.18
1678.56
1745.93
1826.9
1917.7
2026.12
2146.14
2290.48
2449.04
2642.82
2854.59
3119.82
3408.95
3783.21