/*--------------------------------*- C++ -*----------------------------------*\
| =========                 |                                                 |
| \\      /  F ield         | OpenFOAM: The Open Source CFD Toolbox           |
|  \\    /   O peration     | Version:  2412                                  |
|   \\  /    A nd           | Website:  www.openfoam.com                      |
|    \\/     M anipulation  |                                                 |
\*---------------------------------------------------------------------------*/
FoamFile
{
    version     2.0;
    format      ascii;
    arch        "LSB;label=32;scalar=64";
    class       volScalarField;
    location    "0.7";
    object      k;
}
// * * * * * * * * * * * * * * * * * * * * * * * * * * * * * * * * * * * * * //

dimensions      [0 2 -2 0 0 0 0];

internalField   nonuniform List<scalar> 
13068
(
37.7781
38.4296
39.8893
42.8379
47.8209
54.6527
62.2286
69.0949
74.3413
77.8219
79.7449
80.2931
79.6561
78.2944
76.8546
75.8998
75.5948
75.8662
76.5232
77.4892
78.6673
80.087
81.678
83.5226
85.5337
87.8486
90.3372
93.2141
96.2742
99.8509
103.616
108.093
112.754
118.426
124.258
131.577
139.018
148.749
158.626
172.221
186.137
205.957
225.852
253.674
279.08
312.203
337.455
369.955
394.794
424.734
447.469
413.16
403.958
294.229
231.929
217.098
235.034
244.809
250.788
239.023
226.665
208.213
194.461
179.361
168.291
156.744
148.251
139.997
134.13
128.699
124.875
121.27
118.488
115.625
113.037
110.208
107.358
104.249
101.053
97.7496
94.4669
91.2952
88.2715
85.5276
82.9806
80.777
78.7074
76.959
75.2154
73.7554
72.1614
70.8454
69.2767
68.0151
66.4195
65.1572
63.557
62.3151
60.469
37.7728
38.4151
39.8581
42.779
47.727
54.53
62.099
68.9871
74.2771
77.8078
79.7719
80.3456
79.7224
78.3699
76.9372
75.9855
75.6784
75.9445
76.5952
77.5554
78.7288
80.145
81.7335
83.5767
85.587
87.902
90.3911
93.2693
96.331
99.91
103.678
108.158
112.822
118.499
124.336
131.662
139.112
148.854
158.744
172.352
186.279
206.106
226.002
253.815
279.212
312.322
337.586
370.067
394.882
424.597
447.067
412.305
402.179
292.302
230.344
215.94
234.212
244.252
250.433
238.822
226.575
208.194
194.481
179.398
168.339
156.8
148.313
140.063
134.195
128.759
124.927
121.313
118.523
115.651
113.058
110.224
107.373
104.264
101.069
97.7694
94.4901
91.3216
88.3003
85.5575
83.0101
80.8045
78.7316
76.9787
75.2295
73.763
72.1619
70.8372
69.2596
67.986
66.3785
65.0995
63.4826
62.2189
60.3581
37.7676
38.4008
39.8271
42.7204
47.6333
54.4075
61.9696
68.8795
74.2132
77.794
79.7992
80.3984
79.7889
78.4456
77.02
76.0713
75.7621
76.0228
76.6671
77.6216
78.7904
80.2031
81.7891
83.6308
85.6404
87.9555
90.4451
93.3246
96.3879
99.9691
103.74
108.223
112.891
118.572
124.415
131.748
139.207
148.96
158.862
172.483
186.422
206.255
226.152
253.955
279.345
312.441
337.718
370.179
394.97
424.461
446.666
411.457
400.415
290.396
228.781
214.797
233.395
243.695
250.077
238.619
226.484
208.174
194.5
179.435
168.386
156.855
148.375
140.129
134.259
128.818
124.978
121.356
118.557
115.678
113.079
110.241
107.388
104.279
101.087
97.7895
94.5136
91.3483
88.3293
85.5876
83.0398
80.8322
78.7559
76.9985
75.2438
73.7707
72.1626
70.8293
69.2428
67.9574
66.338
65.0425
63.4092
62.1238
60.2485
37.7625
38.3866
39.7965
42.6622
47.5401
54.2854
61.8405
68.7722
74.1496
77.7805
79.8266
80.4511
79.8553
78.5211
77.1026
76.1568
75.8455
76.1008
76.7389
77.6877
78.8518
80.261
81.8446
83.6848
85.6937
88.0088
90.499
93.3797
96.4446
100.028
103.801
108.287
112.959
118.644
124.493
131.834
139.301
149.065
158.979
172.614
186.564
206.403
226.301
254.095
279.476
312.56
337.849
370.29
395.057
424.324
446.266
410.613
398.663
288.51
227.239
213.667
232.583
243.139
249.718
238.413
226.389
208.152
194.517
179.47
168.431
156.908
148.436
140.193
134.322
128.876
125.029
121.398
118.591
115.704
113.099
110.258
107.403
104.294
101.104
97.8094
94.5369
91.3747
88.358
85.6175
83.0692
80.8598
78.7801
77.0182
75.2581
73.7785
72.1634
70.8215
69.2262
67.929
66.2979
64.986
63.3364
62.0297
60.1401
37.7574
38.3726
39.7661
42.6045
47.4475
54.1637
61.7117
68.6652
74.0864
77.7672
79.8541
80.5037
79.9214
78.5964
77.185
76.2421
75.9286
76.1786
76.8104
77.7535
78.9129
80.3187
81.8998
83.7386
85.7466
88.0618
90.5526
93.4346
96.501
100.087
103.862
108.351
113.027
118.717
124.571
131.918
139.394
149.169
159.096
172.743
186.705
206.55
226.449
254.233
279.607
312.677
337.979
370.4
395.14
424.186
445.866
409.772
396.923
286.642
225.716
212.548
231.774
242.581
249.357
238.204
226.292
208.128
194.532
179.503
168.474
156.96
148.496
140.256
134.385
128.934
125.08
121.44
118.624
115.73
113.119
110.274
107.418
104.309
101.12
97.8291
94.5599
91.4009
88.3865
85.647
83.0983
80.887
78.8041
77.0376
75.2722
73.7861
72.1641
70.8137
69.2097
67.9007
66.258
64.9299
63.2641
61.9365
60.0328
37.7524
38.3588
39.736
42.5473
47.3554
54.0426
61.5834
68.5586
74.0235
77.7542
79.8816
80.5561
79.9873
78.6715
77.267
76.327
76.0113
76.2559
76.8815
77.819
78.9738
80.376
81.9547
83.792
85.7993
88.1146
90.6059
93.489
96.557
100.145
103.923
108.415
113.094
118.789
124.648
132.002
139.487
149.273
159.211
172.871
186.844
206.696
226.596
254.37
279.737
312.794
338.107
370.507
395.221
424.046
445.464
408.935
395.194
284.791
224.211
211.44
230.967
242.022
248.992
237.992
226.192
208.101
194.545
179.534
168.516
157.01
148.553
140.318
134.446
128.99
125.129
121.481
118.657
115.755
113.139
110.29
107.432
104.323
101.137
97.8485
94.5826
91.4266
88.4145
85.6761
83.127
80.9139
78.8277
77.0569
75.286
73.7936
72.1648
70.8059
69.1932
67.8726
66.2182
64.8741
63.1924
61.844
59.9265
37.7474
38.3451
39.7063
42.4905
47.2638
53.922
61.4555
68.4523
73.9609
77.7414
79.9091
80.6082
80.0528
78.7461
77.3486
76.4114
76.0936
76.3329
76.9523
77.8841
79.0342
80.4331
82.0092
83.8451
85.8516
88.1669
90.6587
93.5431
96.6125
100.203
103.983
108.478
113.16
118.86
124.724
132.086
139.579
149.375
159.326
172.998
186.983
206.84
226.741
254.506
279.865
312.908
338.232
370.612
395.299
423.904
445.062
408.101
393.475
282.957
222.721
210.342
230.163
241.461
248.625
237.776
226.088
208.07
194.554
179.562
168.555
157.059
148.61
140.378
134.507
129.046
125.178
121.521
118.689
115.78
113.158
110.306
107.446
104.338
101.153
97.8674
94.6048
91.452
88.4421
85.7049
83.1554
80.9404
78.851
77.0758
75.2997
73.8009
72.1653
70.798
69.1767
67.8445
66.1787
64.8187
63.1212
61.7524
59.8212
37.7425
38.3316
39.6769
42.4342
47.1729
53.802
61.3281
68.3464
73.8987
77.7288
79.9366
80.6602
80.1181
78.8205
77.4299
76.4955
76.1755
76.4094
77.0226
77.9488
79.0944
80.4898
82.0635
83.8978
85.9036
88.2189
90.7112
93.5967
96.6677
100.26
104.042
108.541
113.227
118.93
124.8
132.169
139.67
149.477
159.44
173.124
187.119
206.983
226.884
254.64
279.991
313.021
338.356
370.714
395.374
423.76
444.659
407.269
391.767
281.137
221.247
209.252
229.36
240.898
248.254
237.557
225.981
208.037
194.562
179.589
168.592
157.105
148.664
140.437
134.566
129.101
125.226
121.56
118.72
115.804
113.177
110.321
107.459
104.351
101.169
97.886
94.6266
91.4768
88.4693
85.7331
83.1833
80.9666
78.874
77.0945
75.3131
73.8081
72.1657
70.7901
69.1602
67.8166
66.1393
64.7636
63.0505
61.6615
59.7168
37.7377
38.3182
39.6477
42.3783
47.0825
53.6825
61.2011
68.241
73.8369
77.7165
79.9641
80.712
80.183
78.8945
77.5107
76.5791
76.2569
76.4856
77.0926
78.0132
79.1541
80.5461
82.1173
83.9502
85.9552
88.2705
90.7633
93.65
96.7224
100.317
104.102
108.603
113.292
119
124.875
132.251
139.76
149.577
159.552
173.249
187.255
207.124
227.026
254.772
280.116
313.133
338.478
370.814
395.445
423.613
444.254
406.441
390.07
279.333
219.787
208.169
228.558
240.334
247.881
237.334
225.871
208.001
194.567
179.613
168.628
157.149
148.717
140.494
134.623
129.154
125.273
121.599
118.751
115.828
113.195
110.335
107.472
104.365
101.184
97.9042
94.648
91.5013
88.496
85.7609
83.2108
80.9923
78.8966
77.1128
75.3263
73.815
72.1659
70.782
69.1436
67.7887
66.1001
64.7088
62.9803
61.5713
59.6134
37.733
38.305
39.6189
42.323
46.9926
53.5636
61.0745
68.1359
73.7754
77.7044
79.9916
80.7636
80.2477
78.9681
77.5912
76.6623
76.3379
76.5613
77.1622
78.0772
79.2136
80.6021
82.1709
84.0022
86.0065
88.3218
90.815
93.7028
96.7766
100.373
104.16
108.665
113.357
119.07
124.95
132.332
139.85
149.677
159.663
173.372
187.389
207.264
227.167
254.903
280.24
313.243
338.598
370.912
395.514
423.465
443.85
405.617
388.383
277.543
218.341
207.094
227.758
239.767
247.504
237.108
225.758
207.963
194.569
179.635
168.661
157.192
148.768
140.55
134.68
129.207
125.319
121.637
118.781
115.851
113.213
110.349
107.485
104.378
101.199
97.9219
94.669
91.5252
88.5222
85.7883
83.2378
81.0177
78.9189
77.1309
75.3392
73.8218
72.166
70.7739
69.1271
67.7608
66.061
64.6543
62.9105
61.4819
59.5109
37.7283
38.292
39.5904
42.2681
46.9034
53.4453
60.9485
68.0312
73.7142
77.6925
80.0192
80.8149
80.312
79.0414
77.6713
76.745
76.4184
76.6365
77.2313
78.1408
79.2726
80.6577
82.224
84.0539
86.0574
88.3726
90.8663
93.7552
96.8304
100.429
104.218
108.726
113.421
119.138
125.023
132.412
139.938
149.776
159.774
173.494
187.522
207.402
227.306
255.033
280.361
313.352
338.716
371.007
395.58
423.315
443.444
404.795
386.707
275.768
216.907
206.024
226.957
239.199
247.124
236.878
225.642
207.922
194.569
179.654
168.692
157.233
148.817
140.605
134.735
129.259
125.364
121.674
118.81
115.873
113.23
110.363
107.497
104.391
101.214
97.9392
94.6894
91.5487
88.5479
85.8152
83.2644
81.0426
78.9409
77.1486
75.3519
73.8284
72.166
70.7657
69.1105
67.733
66.0221
64.6001
62.8412
61.3932
59.4093
37.7237
38.2791
39.5621
42.2136
46.8148
53.3275
60.8229
67.9269
73.6534
77.6808
80.0467
80.8661
80.3761
79.1144
77.751
76.8274
76.4985
76.7114
77.3001
78.204
79.3313
80.713
82.2768
84.1052
86.1079
88.4231
90.9172
93.8071
96.8838
100.484
104.276
108.787
113.485
119.206
125.096
132.492
140.026
149.873
159.883
173.615
187.653
207.538
227.443
255.161
280.482
313.458
338.832
371.1
395.642
423.164
443.038
403.977
385.041
274.005
215.485
204.96
226.157
238.628
246.741
236.646
225.523
207.878
194.567
179.672
168.721
157.271
148.865
140.658
134.789
129.309
125.408
121.71
118.839
115.895
113.247
110.376
107.509
104.403
101.228
97.9561
94.7095
91.5717
88.5732
85.8416
83.2906
81.0672
78.9625
77.1661
75.3643
73.8347
72.1658
70.7574
69.0939
67.7053
65.9834
64.5462
62.7724
61.3052
59.3087
37.7191
38.2664
39.5342
42.1597
46.7267
53.2103
60.6978
67.8231
73.593
77.6694
80.0742
80.9171
80.4399
79.187
77.8303
76.9092
76.5781
76.7857
77.3684
78.2669
79.3896
80.7679
82.3293
84.1562
86.158
88.4731
90.9676
93.8586
96.9367
100.539
104.333
108.847
113.548
119.274
125.168
132.571
140.113
149.97
159.991
173.735
187.783
207.673
227.578
255.287
280.6
313.564
338.946
371.191
395.702
423.01
442.632
403.163
383.385
272.256
214.073
203.901
225.357
238.055
246.355
236.41
225.401
207.831
194.562
179.687
168.748
157.308
148.911
140.71
134.842
129.359
125.452
121.746
118.867
115.916
113.263
110.389
107.521
104.415
101.241
97.9725
94.7291
91.5943
88.598
85.8676
83.3164
81.0913
78.9837
77.1832
75.3765
73.8409
72.1655
70.7491
69.0773
67.6777
65.9447
64.4926
62.704
61.2179
59.2088
37.7147
38.2539
39.5066
42.1062
46.6392
53.0936
60.5732
67.7197
73.533
77.6582
80.1017
80.9679
80.5034
79.2593
77.9092
76.9907
76.6573
76.8597
77.4363
78.3293
79.4475
80.8224
82.3813
84.2067
86.2077
88.5228
91.0177
93.9097
96.9891
100.593
104.389
108.906
113.611
119.34
125.24
132.649
140.199
150.066
160.097
173.853
187.911
207.807
227.712
255.412
280.717
313.667
339.058
371.279
395.759
422.855
442.225
402.353
381.741
270.52
212.673
202.847
224.556
237.479
245.967
236.172
225.277
207.782
194.556
179.7
168.773
157.344
148.956
140.76
134.894
129.408
125.494
121.781
118.894
115.937
113.278
110.401
107.532
104.426
101.255
97.9885
94.7482
91.6163
88.6223
85.8931
83.3417
81.1151
79.0046
77.2001
75.3885
73.8469
72.1651
70.7406
69.0607
67.6501
65.9063
64.4393
62.636
61.1313
59.1099
37.7102
38.2415
39.4792
42.0532
46.5524
52.9776
60.4492
67.6167
73.4733
77.6473
80.1293
81.0185
80.5666
79.3313
77.9877
77.0716
76.736
76.9332
77.5038
78.3914
79.5051
80.8765
82.433
84.2569
86.257
88.572
91.0673
93.9603
97.041
100.647
104.445
108.965
113.673
119.406
125.311
132.726
140.284
150.161
160.203
173.97
188.038
207.939
227.845
255.535
280.832
313.769
339.168
371.365
395.813
422.698
441.819
401.546
380.107
268.796
211.281
201.796
223.755
236.902
245.575
235.93
225.15
207.731
194.547
179.712
168.797
157.377
148.999
140.809
134.945
129.455
125.536
121.815
118.921
115.957
113.293
110.413
107.542
104.437
101.267
98.0041
94.7668
91.6379
88.6461
85.9181
83.3665
81.1384
79.0251
77.2166
75.4001
73.8526
72.1645
70.7321
69.044
67.6225
65.8679
64.3863
62.5684
61.0453
59.0118
37.7059
38.2292
39.4522
42.0006
46.4661
52.8622
60.3256
67.5142
73.414
77.6366
80.1568
81.0689
80.6295
79.4029
78.0659
77.1521
76.8142
77.0062
77.5709
78.453
79.5622
80.9303
82.4843
84.3067
86.306
88.6209
91.1165
94.0105
97.0925
100.701
104.501
109.023
113.734
119.472
125.381
132.802
140.368
150.254
160.308
174.086
188.163
208.069
227.975
255.656
280.946
313.869
339.276
371.448
395.864
422.54
441.412
400.744
378.484
267.084
209.899
200.748
222.954
236.322
245.181
235.686
225.02
207.677
194.536
179.721
168.818
157.409
149.04
140.857
134.994
129.502
125.577
121.848
118.947
115.976
113.308
110.424
107.552
104.448
101.28
98.0192
94.785
91.659
88.6695
85.9427
83.3909
81.1614
79.0452
77.2328
75.4116
73.8582
72.1637
70.7235
69.0273
67.595
65.8297
64.3335
62.5013
60.96
58.9145
37.7016
38.2171
39.4254
41.9485
46.3804
52.7473
60.2026
67.4121
73.3551
77.6261
80.1843
81.1191
80.6921
79.4742
78.1436
77.2322
76.8919
77.0788
77.6375
78.5142
79.619
80.9837
82.5353
84.3561
86.3545
88.6693
91.1652
94.0602
97.1434
100.754
104.556
109.081
113.794
119.536
125.45
132.878
140.451
150.347
160.411
174.2
188.287
208.198
228.104
255.776
281.058
313.968
339.382
371.53
395.913
422.38
441.005
399.946
376.872
265.385
208.526
199.703
222.151
235.741
244.785
235.44
224.888
207.621
194.522
179.728
168.838
157.439
149.08
140.903
135.042
129.547
125.616
121.881
118.972
115.995
113.322
110.435
107.562
104.458
101.292
98.0339
94.8027
91.6796
88.6923
85.9668
83.4149
81.1839
79.065
77.2487
75.4227
73.8636
72.1629
70.7148
69.0105
67.5676
65.7916
64.2811
62.4346
60.8754
58.818
37.6973
38.2052
39.399
41.8969
46.2953
52.6331
60.0801
67.3105
73.2966
77.6158
80.2119
81.1691
80.7544
79.5452
78.2209
77.3117
76.9692
77.1509
77.7037
78.575
79.6753
81.0367
82.5858
84.4051
86.4027
88.7173
91.2136
94.1095
97.1939
100.806
104.61
109.138
113.854
119.6
125.518
132.953
140.533
150.439
160.513
174.313
188.41
208.325
228.232
255.894
281.168
314.065
339.485
371.609
395.959
422.22
440.599
399.152
375.271
263.697
207.16
198.66
221.348
235.157
244.387
235.191
224.754
207.563
194.507
179.734
168.856
157.468
149.118
140.948
135.089
129.592
125.656
121.913
118.996
116.013
113.335
110.445
107.571
104.467
101.303
98.0481
94.82
91.6997
88.7147
85.9904
83.4384
81.206
79.0844
77.2643
75.4336
73.8687
72.1618
70.7059
68.9938
67.5402
65.7536
64.2288
62.3683
60.7914
58.7223
37.6931
38.1934
39.3728
41.8458
46.2109
52.5195
59.9581
67.2094
73.2385
77.6058
80.2394
81.2189
80.8165
79.6158
78.2978
77.3908
77.0459
77.2225
77.7694
78.6354
79.7313
81.0893
82.636
84.4537
86.4504
88.7649
91.2614
94.1583
97.2439
100.858
104.664
109.194
113.914
119.663
125.586
133.027
140.614
150.53
160.614
174.425
188.531
208.451
228.357
256.011
281.277
314.16
339.587
371.686
396.002
422.057
440.193
398.362
373.681
262.021
205.802
197.62
220.545
234.572
243.986
234.94
224.617
207.503
194.49
179.738
168.872
157.495
149.155
140.991
135.135
129.635
125.694
121.944
119.02
116.031
113.348
110.455
107.58
104.477
101.315
98.0619
94.8367
91.7194
88.7366
86.0135
83.4615
81.2277
79.1035
77.2796
75.4443
73.8737
72.1606
70.697
68.977
67.5128
65.7158
64.1769
62.3024
60.708
58.6275
37.689
38.1817
39.3469
41.7951
46.127
52.4066
59.8367
67.1087
73.1808
77.596
80.2669
81.2686
80.8782
79.686
78.3742
77.4695
77.1222
77.2936
77.8347
78.6954
79.7868
81.1415
82.6857
84.5019
86.4977
88.812
91.3089
94.2066
97.2934
100.909
104.717
109.25
113.972
119.726
125.653
133.1
140.695
150.619
160.714
174.535
188.65
208.575
228.481
256.125
281.384
314.254
339.687
371.76
396.043
421.894
439.787
397.578
372.103
260.357
204.452
196.581
219.74
233.985
243.583
234.686
224.479
207.441
194.471
179.74
168.887
157.52
149.191
141.033
135.18
129.678
125.731
121.974
119.043
116.047
113.36
110.465
107.588
104.486
101.325
98.0752
94.853
91.7385
88.758
86.0362
83.4841
81.249
79.1222
77.2946
75.4547
73.8785
72.1593
70.6881
68.9601
67.4855
65.6781
64.1252
62.2369
60.6252
58.5334
37.6849
38.1702
39.3214
41.7449
46.0438
52.2942
59.7158
67.0085
73.1234
77.5864
80.2945
81.318
80.9397
79.756
78.4503
77.5476
77.1979
77.3643
77.8996
78.7549
79.842
81.1933
82.7351
84.5497
86.5447
88.8588
91.3559
94.2545
97.3424
100.96
104.77
109.305
114.03
119.788
125.719
133.172
140.774
150.708
160.813
174.644
188.768
208.697
228.604
256.239
281.49
314.346
339.785
371.833
396.081
421.73
439.382
396.798
370.536
258.705
203.108
195.544
218.935
233.396
243.179
234.431
224.338
207.377
194.451
179.74
168.899
157.544
149.225
141.074
135.223
129.719
125.768
122.003
119.066
116.064
113.372
110.473
107.596
104.494
101.336
98.0881
94.8689
91.7572
88.7789
86.0584
83.5063
81.2699
79.1406
77.3093
75.4649
73.883
72.1578
70.679
68.9432
67.4582
65.6405
64.0738
62.1718
60.543
58.44
37.6809
38.1589
39.296
41.6952
45.9612
52.1825
59.5956
66.9088
73.0665
77.5771
80.322
81.3673
81.0009
79.8255
78.5259
77.6253
77.2732
77.4344
77.9639
78.814
79.8967
81.2447
82.784
84.5971
86.5912
88.9051
91.4024
94.3018
97.3909
101.01
104.822
109.36
114.088
119.849
125.785
133.243
140.853
150.795
160.91
174.752
188.885
208.818
228.724
256.35
281.593
314.436
339.882
371.903
396.117
421.565
438.978
396.023
368.982
257.064
201.771
194.508
218.128
232.806
242.773
234.174
224.196
207.312
194.428
179.739
168.911
157.566
149.257
141.114
135.266
129.76
125.803
122.032
119.088
116.08
113.383
110.482
107.603
104.502
101.345
98.1005
94.8842
91.7754
88.7993
86.0801
83.5281
81.2904
79.1586
77.3236
75.4747
73.8874
72.1562
70.6698
68.9263
67.431
65.6031
64.0226
62.1071
60.4615
58.3475
37.6769
38.1477
39.271
41.646
45.8792
52.0715
59.4759
66.8096
73.01
77.568
80.3495
81.4163
81.0618
79.8947
78.6011
77.7024
77.3479
77.5041
78.0278
78.8727
79.951
81.2957
82.8326
84.6441
86.6372
88.951
91.4485
94.3487
97.4389
101.06
104.873
109.414
114.144
119.909
125.85
133.314
140.931
150.882
161.007
174.858
189
208.937
228.843
256.46
281.695
314.525
339.976
371.972
396.15
421.398
438.575
395.254
367.44
255.435
200.441
193.473
217.322
232.215
242.366
233.916
224.052
207.245
194.404
179.736
168.921
157.587
149.289
141.153
135.307
129.8
125.838
122.06
119.109
116.095
113.394
110.49
107.611
104.51
101.355
98.1125
94.8991
91.7931
88.8193
86.1013
83.5494
81.3105
79.1762
77.3377
75.4844
73.8915
72.1544
70.6605
68.9094
67.4038
65.5657
63.9717
62.0428
60.3805
58.2556
37.673
38.1366
39.2463
41.5972
45.7978
51.9611
59.3568
66.711
72.9539
77.5591
80.377
81.4652
81.1224
79.9636
78.6758
77.7791
77.4221
77.5733
78.0913
78.9309
80.0049
81.3462
82.8807
84.6907
86.6829
88.9964
91.4941
94.3952
97.4864
101.109
104.924
109.467
114.2
119.969
125.913
133.384
141.007
150.967
161.102
174.963
189.113
209.054
228.961
256.568
281.796
314.612
340.068
372.038
396.181
421.232
438.173
394.49
365.91
253.818
199.117
192.439
216.514
231.623
241.958
233.656
223.907
207.176
194.379
179.731
168.929
157.607
149.319
141.19
135.348
129.839
125.872
122.088
119.13
116.11
113.404
110.498
107.617
104.517
101.364
98.1241
94.9136
91.8103
88.8387
86.1221
83.5702
81.3302
79.1935
77.3514
75.4938
73.8955
72.1525
70.6512
68.8924
67.3767
65.5285
63.921
61.9788
60.3002
58.1645
37.6692
38.1257
39.2218
41.5488
45.717
51.8514
59.2383
66.6128
72.8982
77.5504
80.4044
81.5138
81.1828
80.0321
78.7502
77.8552
77.4958
77.642
78.1543
78.9887
80.0583
81.3964
82.9284
84.7369
86.7281
89.0414
91.5393
94.4411
97.5334
101.157
104.975
109.52
114.256
120.028
125.977
133.453
141.083
151.052
161.196
175.067
189.225
209.17
229.076
256.675
281.895
314.698
340.159
372.102
396.21
421.064
437.772
393.731
364.393
252.212
197.799
191.406
215.707
231.03
241.549
233.395
223.761
207.106
194.352
179.726
168.936
157.625
149.347
141.226
135.387
129.876
125.905
122.114
119.15
116.124
113.414
110.505
107.623
104.524
101.373
98.1352
94.9276
91.827
88.8577
86.1424
83.5907
81.3495
79.2104
77.3649
75.5029
73.8993
72.1504
70.6417
68.8754
67.3496
65.4914
63.8706
61.9153
60.2204
58.0742
37.6654
38.1149
39.1976
41.501
45.6369
51.7424
59.1204
66.5152
72.8429
77.5419
80.4319
81.5623
81.2428
80.1002
78.824
77.9309
77.569
77.7101
78.2168
79.046
80.1114
81.4461
82.9757
84.7826
86.7729
89.0859
91.584
94.4865
97.5798
101.205
105.024
109.572
114.31
120.086
126.039
133.521
141.158
151.135
161.288
175.169
189.336
209.285
229.19
256.78
281.992
314.782
340.247
372.165
396.237
420.896
437.373
392.979
362.888
250.619
196.487
190.374
214.899
230.436
241.139
233.133
223.613
207.034
194.324
179.718
168.942
157.642
149.375
141.261
135.425
129.913
125.938
122.14
119.169
116.137
113.424
110.511
107.629
104.53
101.381
98.1459
94.9411
91.8433
88.8762
86.1623
83.6107
81.3684
79.227
77.3781
75.5118
73.9029
72.1482
70.6322
68.8584
67.3226
65.4544
63.8204
61.8521
60.1411
57.9845
37.6617
38.1043
39.1737
41.4536
45.5574
51.634
59.0031
66.418
72.788
77.5337
80.4593
81.6106
81.3025
80.168
78.8974
78.006
77.6416
77.7778
78.2788
79.1029
80.164
81.4954
83.0226
84.8279
86.8173
89.13
91.6282
94.5315
97.6258
101.253
105.074
109.624
114.364
120.143
126.1
133.588
141.232
151.217
161.38
175.27
189.445
209.397
229.302
256.883
282.087
314.864
340.334
372.225
396.262
420.728
436.975
392.232
361.397
249.038
195.181
189.343
214.091
229.843
240.729
232.871
223.465
206.961
194.294
179.71
168.947
157.657
149.401
141.295
135.463
129.949
125.969
122.166
119.188
116.15
113.432
110.518
107.635
104.536
101.389
98.1562
94.9542
91.8592
88.8943
86.1817
83.6303
81.3869
79.2432
77.3909
75.5205
73.9062
72.1458
70.6226
68.8413
67.2956
65.4176
63.7705
61.7893
60.0625
57.8956
37.658
38.0938
39.1501
41.4067
45.4786
51.5263
58.8865
66.3215
72.7335
77.5257
80.4867
81.6586
81.3619
80.2354
78.9704
78.0806
77.7137
77.8449
78.3403
79.1593
80.2161
81.5443
83.0691
84.8728
86.8612
89.1736
91.672
94.576
97.6712
101.3
105.122
109.674
114.418
120.2
126.161
133.654
141.304
151.298
161.47
175.369
189.552
209.508
229.413
256.985
282.181
314.945
340.419
372.284
396.285
420.559
436.578
391.492
359.92
247.469
193.881
188.314
213.283
229.249
240.319
232.608
223.315
206.888
194.263
179.701
168.95
157.672
149.426
141.328
135.499
129.985
126
122.19
119.206
116.163
113.441
110.524
107.64
104.542
101.396
98.166
94.9669
91.8745
88.9119
86.2006
83.6494
81.405
79.2591
77.4035
75.5289
73.9094
72.1434
70.6129
68.8242
67.2686
65.3809
63.7208
61.7269
59.9844
57.8073
37.6543
38.0834
39.1268
41.3602
45.4004
51.4193
58.7705
66.2255
72.6795
77.5179
80.5141
81.7064
81.4211
80.3024
79.0429
78.1546
77.7852
77.9115
78.4013
79.2153
80.2678
81.5928
83.1151
84.9173
86.9047
89.2168
91.7153
94.6199
97.7161
101.346
105.17
109.725
114.47
120.256
126.221
133.719
141.376
151.378
161.559
175.468
189.658
209.618
229.522
257.085
282.274
315.024
340.503
372.341
396.305
420.391
436.184
390.757
358.456
245.912
192.586
187.285
212.476
228.656
239.909
232.344
223.165
206.813
194.232
179.69
168.952
157.685
149.45
141.359
135.534
130.019
126.03
122.214
119.224
116.175
113.449
110.529
107.645
104.547
101.403
98.1755
94.9791
91.8894
88.929
86.2191
83.6681
81.4227
79.2747
77.4158
75.5371
73.9124
72.1408
70.6032
68.8071
67.2418
65.3443
63.6714
61.6648
59.9069
57.7198
37.6508
38.0732
39.1037
41.3143
45.3228
51.313
58.6552
66.13
72.6259
77.5103
80.5414
81.7541
81.4799
80.369
79.1149
78.2282
77.8562
77.9776
78.4619
79.2708
80.3191
81.6408
83.1607
84.9613
86.9477
89.2596
91.7581
94.6634
97.7604
101.392
105.218
109.774
114.522
120.311
126.28
133.784
141.447
151.457
161.647
175.564
189.763
209.726
229.629
257.183
282.365
315.102
340.584
372.396
396.324
420.222
435.792
390.03
357.006
244.369
191.298
186.257
211.669
228.063
239.499
232.081
223.015
206.737
194.199
179.678
168.954
157.698
149.473
141.39
135.569
130.052
126.06
122.238
119.241
116.187
113.457
110.534
107.649
104.552
101.41
98.1845
94.9909
91.9039
88.9457
86.2372
83.6864
81.4401
79.2899
77.4277
75.545
73.9153
72.138
70.5933
68.79
67.2149
65.3078
63.6223
61.6031
59.83
57.633
37.6472
38.0631
39.0809
41.2687
45.2459
51.2075
58.5405
66.0351
72.5727
77.5029
80.5687
81.8015
81.5384
80.4353
79.1864
78.3012
77.9267
78.0431
78.5219
79.3258
80.3699
81.6884
83.2059
85.0049
86.9903
89.3019
91.8004
94.7064
97.8043
101.437
105.264
109.823
114.574
120.366
126.339
133.848
141.517
151.535
161.734
175.66
189.866
209.832
229.735
257.28
282.454
315.179
340.664
372.449
396.342
420.053
435.402
389.309
355.571
242.838
190.017
185.231
210.863
227.472
239.09
231.817
222.864
206.661
194.165
179.665
168.954
157.709
149.496
141.42
135.602
130.085
126.089
122.26
119.258
116.198
113.464
110.539
107.653
104.557
101.416
98.1932
95.0023
91.9179
88.962
86.2548
83.7044
81.457
79.3048
77.4395
75.5527
73.9179
72.1351
70.5834
68.7728
67.1882
65.2715
63.5734
61.5418
59.7536
57.5468
37.6437
38.0531
39.0583
41.2237
45.1696
51.1026
58.4265
65.9408
72.5199
77.4957
80.596
81.8487
81.5966
80.5011
79.2575
78.3736
77.9965
78.1081
78.5814
79.3803
80.4202
81.7355
83.2506
85.048
87.0325
89.3437
91.8423
94.7488
97.8476
101.482
105.311
109.872
114.624
120.42
126.396
133.911
141.586
151.612
161.819
175.754
189.967
209.937
229.839
257.376
282.542
315.254
340.743
372.501
396.357
419.884
435.014
388.595
354.15
241.321
188.741
184.206
210.059
226.881
238.682
231.554
222.713
206.584
194.131
179.652
168.953
157.719
149.517
141.449
135.635
130.117
126.117
122.283
119.274
116.209
113.471
110.544
107.657
104.561
101.422
98.2015
95.0132
91.9315
88.9778
86.272
83.7219
81.4737
79.3194
77.4509
75.5602
73.9204
72.1321
70.5735
68.7557
67.1615
65.2353
63.5247
61.4809
59.6777
57.4613
37.6403
38.0433
39.0361
41.1791
45.094
50.9985
58.3132
65.847
72.4676
77.4888
80.6232
81.8956
81.6545
80.5666
79.3281
78.4455
78.0659
78.1726
78.6404
79.4344
80.4701
81.7822
83.2949
85.0907
87.0742
89.385
91.8837
94.7908
97.8904
101.526
105.356
109.919
114.674
120.473
126.453
133.973
141.655
151.688
161.904
175.847
190.067
210.04
229.942
257.469
282.628
315.327
340.82
372.551
396.371
419.716
434.628
387.888
352.744
239.817
187.472
183.184
209.256
226.292
238.275
231.292
222.561
206.507
194.096
179.637
168.951
157.729
149.537
141.477
135.667
130.148
126.144
122.304
119.29
116.219
113.477
110.548
107.66
104.565
101.428
98.2093
95.0238
91.9447
88.9931
86.2888
83.739
81.4899
79.3336
77.4621
75.5675
73.9227
72.129
70.5634
68.7385
67.1349
65.1993
63.4763
61.4204
59.6025
57.3765
37.6369
38.0336
39.0141
41.135
45.0191
50.8951
58.2006
65.7539
72.4157
77.482
80.6503
81.9424
81.712
80.6316
79.3982
78.5169
78.1346
78.2365
78.6989
79.4879
80.5196
81.8284
83.3387
85.133
87.1155
89.4259
91.9246
94.8323
97.9327
101.57
105.401
109.966
114.724
120.525
126.509
134.034
141.722
151.763
161.987
175.939
190.166
210.142
230.043
257.562
282.713
315.399
340.895
372.599
396.384
419.547
434.245
387.188
351.354
238.327
186.209
182.163
208.456
225.705
237.869
231.03
222.41
206.429
194.06
179.622
168.949
157.738
149.556
141.504
135.698
130.179
126.171
122.325
119.305
116.229
113.483
110.551
107.663
104.568
101.433
98.2169
95.0339
91.9575
89.0081
86.3052
83.7557
81.5058
79.3476
77.473
75.5746
73.9249
72.1258
70.5534
68.7214
67.1083
65.1634
63.4282
61.3602
59.5277
57.2924
37.6336
38.024
38.9923
41.0913
44.9448
50.7925
58.0887
65.6613
72.3642
77.4754
80.6774
81.9889
81.7693
80.6962
79.4677
78.5876
78.2028
78.2998
78.7569
79.541
80.5685
81.8742
83.3821
85.1748
87.1563
89.4664
91.965
94.8732
97.9744
101.613
105.446
110.013
114.772
120.577
126.564
134.094
141.788
151.837
162.069
176.029
190.263
210.242
230.142
257.653
282.797
315.47
340.969
372.646
396.395
419.38
433.865
386.495
349.979
236.852
184.954
181.145
207.657
225.12
237.465
230.769
222.26
206.351
194.024
179.606
168.946
157.745
149.575
141.53
135.728
130.208
126.197
122.346
119.319
116.239
113.489
110.555
107.666
104.572
101.438
98.224
95.0437
91.9698
89.0226
86.3212
83.772
81.5213
79.3612
77.4836
75.5814
73.9269
72.1225
70.5432
68.7042
67.0818
65.1277
63.3804
61.3004
59.4536
57.2089
37.6303
38.0146
38.9709
41.0482
44.8711
50.6906
57.9775
65.5694
72.3132
77.469
80.7045
82.0351
81.8261
80.7604
79.5368
78.6578
78.2703
78.3626
78.8144
79.5936
80.6171
81.9196
83.4251
85.2162
87.1966
89.5063
92.005
94.9137
98.0156
101.655
105.49
110.059
114.82
120.628
126.619
134.153
141.854
151.91
162.15
176.118
190.359
210.341
230.24
257.742
282.879
315.54
341.041
372.692
396.404
419.213
433.488
385.81
348.62
235.39
183.705
180.129
206.862
224.538
237.064
230.509
222.109
206.273
193.987
179.59
168.942
157.752
149.592
141.555
135.758
130.237
126.223
122.366
119.334
116.248
113.495
110.558
107.668
104.575
101.442
98.2308
95.0531
91.9818
89.0368
86.3368
83.788
81.5365
79.3745
77.494
75.588
73.9287
72.119
70.533
68.687
67.0554
65.0921
63.3328
61.241
59.3799
57.1262
37.6271
38.0053
38.9497
41.0054
44.7982
50.5895
57.867
65.4781
72.2626
77.4628
80.7314
82.0812
81.8827
80.8242
79.6054
78.7275
78.3373
78.4249
78.8713
79.6457
80.6651
81.9644
83.4676
85.2571
87.2365
89.5458
92.0444
94.9536
98.0563
101.697
105.533
110.104
114.867
120.678
126.672
134.212
141.918
151.981
162.229
176.206
190.453
210.438
230.336
257.83
282.959
315.608
341.112
372.736
396.413
419.046
433.114
385.133
347.277
233.944
182.464
179.117
206.069
223.959
236.664
230.251
221.96
206.195
193.95
179.573
168.938
157.759
149.609
141.58
135.786
130.266
126.248
122.385
119.348
116.256
113.5
110.561
107.671
104.577
101.446
98.2373
95.0621
91.9934
89.0505
86.3519
83.8036
81.5514
79.3875
77.5041
75.5945
73.9304
72.1155
70.5228
68.6699
67.0291
65.0566
63.2855
61.182
59.3069
57.0441
37.6239
37.9961
38.9287
40.9632
44.7259
50.4892
57.7572
65.3873
72.2125
77.4568
80.7583
82.1269
81.9389
80.8876
79.6734
78.7965
78.4037
78.4865
78.9277
79.6973
80.7126
82.0089
83.5097
85.2976
87.276
89.5849
92.0834
94.9931