/*--------------------------------*- C++ -*----------------------------------*\
| =========                 |                                                 |
| \\      /  F ield         | OpenFOAM: The Open Source CFD Toolbox           |
|  \\    /   O peration     | Version:  2412                                  |
|   \\  /    A nd           | Website:  www.openfoam.com                      |
|    \\/     M anipulation  |                                                 |
\*---------------------------------------------------------------------------*/
FoamFile
{
    version     2.0;
    format      ascii;
    arch        "LSB;label=32;scalar=64";
    class       volScalarField;
    location    "0.7";
    object      nut;
}
// * * * * * * * * * * * * * * * * * * * * * * * * * * * * * * * * * * * * * //

dimensions      [0 2 -1 0 0 0 0];

internalField   nonuniform List<scalar> 
13068
(
0.337561
0.3434
0.355542
0.375347
0.398405
0.415978
0.422353
0.417491
0.404978
0.389251
0.37374
0.360533
0.351017
0.346432
0.347311
0.352722
0.360257
0.367649
0.373655
0.378264
0.381756
0.384673
0.387181
0.389654
0.39199
0.394515
0.396943
0.399692
0.402296
0.405358
0.408176
0.411648
0.414723
0.418737
0.422129
0.426885
0.430713
0.43653
0.44106
0.448387
0.453754
0.462313
0.467401
0.47535
0.477737
0.482787
0.481593
0.486454
0.488209
0.492859
0.491726
0.458692
0.446677
0.357472
0.305927
0.315936
0.365703
0.392843
0.405652
0.399039
0.395302
0.38675
0.384628
0.379323
0.378255
0.375016
0.375379
0.374595
0.376119
0.376452
0.377775
0.377743
0.377784
0.376557
0.375083
0.372652
0.369979
0.366855
0.363872
0.361118
0.358892
0.357289
0.356236
0.355799
0.355577
0.355699
0.35556
0.355544
0.35493
0.354455
0.353215
0.352327
0.350585
0.349475
0.347463
0.346309
0.344383
0.343401
0.340577
0.337531
0.343308
0.355349
0.375051
0.398095
0.415786
0.422363
0.417732
0.405433
0.389868
0.374446
0.361258
0.351706
0.347042
0.347805
0.35307
0.360464
0.367748
0.373692
0.378273
0.381757
0.384676
0.38719
0.389671
0.392013
0.394544
0.396977
0.39973
0.402337
0.405402
0.408223
0.411697
0.414775
0.418793
0.422189
0.426949
0.430783
0.436604
0.441136
0.44846
0.45382
0.462367
0.467446
0.475384
0.477774
0.482829
0.481656
0.486496
0.488218
0.492743
0.491518
0.45822
0.445781
0.356433
0.30537
0.316037
0.366105
0.393221
0.405946
0.399276
0.395496
0.3869
0.384733
0.379396
0.378313
0.37507
0.375429
0.374634
0.376143
0.37646
0.377769
0.377728
0.377765
0.376537
0.375066
0.372642
0.369978
0.366864
0.363892
0.361145
0.358923
0.35732
0.356262
0.355817
0.355584
0.355693
0.355542
0.355514
0.354888
0.354401
0.35315
0.352246
0.350486
0.34935
0.347311
0.346117
0.34415
0.343119
0.340272
0.337502
0.343216
0.355156
0.374754
0.397784
0.415591
0.422371
0.417972
0.405888
0.390485
0.375151
0.36198
0.35239
0.347647
0.348292
0.353414
0.360667
0.367846
0.373728
0.378281
0.381758
0.38468
0.3872
0.389688
0.392036
0.394573
0.39701
0.399767
0.402378
0.405447
0.40827
0.411747
0.414828
0.418849
0.422249
0.427014
0.430852
0.436677
0.441212
0.448532
0.453887
0.462421
0.467491
0.475419
0.477811
0.482871
0.481718
0.486537
0.488226
0.492628
0.491311
0.45775
0.444884
0.355387
0.304793
0.316104
0.366474
0.39358
0.406234
0.399513
0.395693
0.387053
0.38484
0.379471
0.378372
0.375125
0.375479
0.374674
0.376168
0.376468
0.377764
0.377714
0.377745
0.376517
0.37505
0.372632
0.369977
0.366874
0.363911
0.361172
0.358955
0.357351
0.356289
0.355835
0.355591
0.355688
0.355525
0.355484
0.354847
0.354348
0.353085
0.352165
0.350388
0.349226
0.34716
0.345926
0.343918
0.342838
0.33997
0.337473
0.343125
0.354963
0.374457
0.397471
0.415394
0.422377
0.418211
0.406343
0.3911
0.375853
0.362698
0.353069
0.348246
0.348774
0.353753
0.360868
0.367943
0.373763
0.378289
0.381758
0.384683
0.38721
0.389704
0.392059
0.394601
0.397044
0.399805
0.402419
0.405491
0.408316
0.411797
0.41488
0.418905
0.422309
0.427078
0.430922
0.43675
0.441287
0.448604
0.453953
0.462475
0.467536
0.475453
0.477848
0.482913
0.48178
0.486577
0.488234
0.492513
0.491103
0.45728
0.443988
0.354334
0.304196
0.316138
0.366812
0.393921
0.406516
0.399751
0.395892
0.38721
0.38495
0.379547
0.378433
0.375181
0.37553
0.374715
0.376193
0.376477
0.377759
0.377699
0.377726
0.376497
0.375034
0.372622
0.369977
0.366884
0.363931
0.361199
0.358986
0.357382
0.356315
0.355853
0.355598
0.355683
0.355507
0.355455
0.354806
0.354296
0.353021
0.352085
0.35029
0.349103
0.347009
0.345735
0.343688
0.34256
0.339669
0.337444
0.343034
0.354772
0.374161
0.397157
0.415195
0.422382
0.418449
0.406796
0.391714
0.376552
0.363411
0.353742
0.348839
0.34925
0.354087
0.361065
0.368037
0.373797
0.378296
0.381759
0.384686
0.387219
0.389721
0.392082
0.39463
0.397077
0.399842
0.402459
0.405535
0.408363
0.411846
0.414932
0.418961
0.422369
0.427142
0.430991
0.436822
0.441361
0.448675
0.454018
0.462529
0.46758
0.475486
0.477884
0.482954
0.481841
0.486617
0.48824
0.492397
0.490896
0.456812
0.44309
0.353274
0.303581
0.316141
0.367121
0.394248
0.406795
0.39999
0.396095
0.387369
0.385062
0.379625
0.378494
0.375238
0.375582
0.374757
0.376219
0.376487
0.377755
0.377685
0.377708
0.376478
0.375018
0.372613
0.369977
0.366894
0.36395
0.361226
0.359016
0.357413
0.356342
0.355871
0.355605
0.355678
0.35549
0.355426
0.354766
0.354244
0.352957
0.352005
0.350193
0.34898
0.346859
0.345546
0.343459
0.342283
0.339371
0.337416
0.342944
0.354581
0.373864
0.396841
0.414993
0.422383
0.418684
0.407247
0.392325
0.377247
0.364119
0.35441
0.349426
0.34972
0.354417
0.36126
0.368131
0.373831
0.378303
0.381759
0.38469
0.387229
0.389737
0.392105
0.394658
0.39711
0.399879
0.4025
0.405578
0.408409
0.411895
0.414984
0.419015
0.422427
0.427205
0.431059
0.436894
0.441435
0.448746
0.454083
0.462582
0.467623
0.47552
0.47792
0.482995
0.481901
0.486655
0.488246
0.492281
0.490689
0.456345
0.442193
0.352207
0.302947
0.316114
0.367404
0.39456
0.407071
0.400231
0.396301
0.387531
0.385177
0.379705
0.378556
0.375295
0.375635
0.374799
0.376246
0.376497
0.377751
0.377672
0.377689
0.37646
0.375003
0.372604
0.369977
0.366904
0.36397
0.361253
0.359047
0.357443
0.356368
0.355889
0.355613
0.355674
0.355473
0.355397
0.354726
0.354192
0.352893
0.351925
0.350097
0.348858
0.34671
0.345359
0.343232
0.342008
0.339075
0.337387
0.342855
0.354391
0.373568
0.396524
0.414788
0.422383
0.418918
0.407696
0.392933
0.377939
0.364822
0.355071
0.350007
0.350185
0.354743
0.361452
0.368223
0.373864
0.37831
0.381759
0.384692
0.387238
0.389753
0.392127
0.394686
0.397142
0.399916
0.40254
0.405621
0.408454
0.411943
0.415035
0.41907
0.422486
0.427268
0.431126
0.436965
0.441508
0.448815
0.454147
0.462634
0.467667
0.475552
0.477955
0.483035
0.48196
0.486692
0.48825
0.492165
0.490481
0.455878
0.441296
0.351134
0.302295
0.316058
0.367662
0.394861
0.407345
0.400473
0.39651
0.387697
0.385294
0.379787
0.37862
0.375353
0.375689
0.374843
0.376273
0.376508
0.377748
0.377659
0.377671
0.376441
0.374988
0.372596
0.369977
0.366914
0.363989
0.361279
0.359077
0.357473
0.356394
0.355908
0.35562
0.355669
0.355457
0.355369
0.354686
0.354141
0.35283
0.351846
0.350001
0.348736
0.346562
0.345172
0.343006
0.341735
0.338781
0.33736
0.342767
0.354203
0.373272
0.396205
0.414582
0.42238
0.419149
0.408143
0.393538
0.378626
0.36552
0.355727
0.350581
0.350644
0.355064
0.361641
0.368313
0.373897
0.378317
0.381759
0.384695
0.387247
0.389769
0.392149
0.394713
0.397174
0.399952
0.402579
0.405663
0.408499
0.411991
0.415085
0.419123
0.422543
0.42733
0.431193
0.437035
0.441581
0.448884
0.454211
0.462686
0.467709
0.475584
0.477989
0.483074
0.482018
0.486728
0.488253
0.492048
0.490274
0.455413
0.440398
0.350056
0.301626
0.315974
0.367897
0.395151
0.407617
0.400719
0.396723
0.387866
0.385414
0.37987
0.378685
0.375412
0.375743
0.374887
0.376302
0.37652
0.377745
0.377646
0.377654
0.376423
0.374973
0.372587
0.369978
0.366925
0.364009
0.361306
0.359108
0.357503
0.35642
0.355926
0.355628
0.355665
0.35544
0.35534
0.354647
0.35409
0.352767
0.351768
0.349905
0.348615
0.346415
0.344986
0.342782
0.341464
0.338489
0.337332
0.342679
0.354015
0.372977
0.395886
0.414373
0.422374
0.419378
0.408588
0.394141
0.379309
0.366213
0.356376
0.351149
0.351097
0.355381
0.361828
0.368402
0.373928
0.378323
0.381759
0.384698
0.387255
0.389785
0.392171
0.394741
0.397206
0.399988
0.402618
0.405705
0.408544
0.412038
0.415135
0.419177
0.4226
0.427391
0.431259
0.437104
0.441652
0.448953
0.454273
0.462737
0.467751
0.475616
0.478023
0.483112
0.482075
0.486763
0.488255
0.491932
0.490067
0.454949
0.439501
0.348971
0.30094
0.315865
0.368112
0.395433
0.40789
0.400967
0.39694
0.388038
0.385536
0.379955
0.378751
0.375472
0.375798
0.374931
0.376331
0.376532
0.377743
0.377633
0.377636
0.376405
0.374958
0.372579
0.369978
0.366935
0.364028
0.361332
0.359137
0.357533
0.356445
0.355944
0.355635
0.355661
0.355424
0.355313
0.354608
0.354039
0.352705
0.35169
0.34981
0.348495
0.346268
0.344802
0.342559
0.341195
0.3382
0.337305
0.342592
0.353828
0.372682
0.395565
0.414161
0.422366
0.419606
0.409031
0.394741
0.379989
0.3669
0.35702
0.351711
0.351545
0.355693
0.362012
0.36849
0.373959
0.378329
0.381759
0.3847
0.387264
0.3898
0.392192
0.394767
0.397237
0.400023
0.402656
0.405747
0.408588
0.412085
0.415184
0.419229
0.422657
0.427452
0.431325
0.437173
0.441723
0.44902
0.454335
0.462787
0.467792
0.475647
0.478057
0.48315
0.48213
0.486797
0.488257
0.491815
0.48986
0.454486
0.438605
0.347882
0.300238
0.31573
0.368308
0.395709
0.408163
0.401219
0.397161
0.388214
0.385661
0.380041
0.378817
0.375533
0.375853
0.374976
0.37636
0.376545
0.377741
0.377621
0.377619
0.376387
0.374944
0.372571
0.369979
0.366945
0.364047
0.361358
0.359167
0.357563
0.356471
0.355961
0.355643
0.355657
0.355408
0.355285
0.35457
0.353989
0.352643
0.351612
0.349716
0.348375
0.346122
0.344618
0.342337
0.340928
0.337912
0.337278
0.342506
0.353643
0.372388
0.395243
0.413948
0.422356
0.419831
0.409472
0.395338
0.380664
0.367582
0.357657
0.352267
0.351987
0.356001
0.362193
0.368576
0.37399
0.378335
0.381758
0.384702
0.387272
0.389815
0.392213
0.394794
0.397268
0.400058
0.402695
0.405788
0.408632
0.412131
0.415233
0.419281
0.422713
0.427512
0.43139
0.437241
0.441793
0.449087
0.454396
0.462837
0.467833
0.475678
0.478089
0.483187
0.482184
0.48683
0.488257
0.491697
0.489653
0.454024
0.437709
0.346787
0.29952
0.315572
0.368487
0.395978
0.408439
0.401475
0.397386
0.388393
0.385788
0.380129
0.378885
0.375594
0.375909
0.375022
0.376391
0.376558
0.377739
0.377609
0.377602
0.376369
0.374929
0.372563
0.36998
0.366956
0.364067
0.361384
0.359197
0.357592
0.356496
0.355979
0.355651
0.355653
0.355393
0.355258
0.354532
0.353939
0.352581
0.351535
0.349622
0.348256
0.345977
0.344436
0.342117
0.340663
0.337626
0.337251
0.34242
0.353458
0.372094
0.39492
0.413732
0.422343
0.420053
0.409911
0.395932
0.381334
0.368258
0.358288
0.352816
0.352423
0.356305
0.362371
0.368661
0.37402
0.37834
0.381757
0.384704
0.38728
0.389829
0.392234
0.39482
0.397299
0.400092
0.402732
0.405829
0.408675
0.412177
0.415282
0.419333
0.422768
0.427571
0.431454
0.437308
0.441862
0.449152
0.454457
0.462886
0.467873
0.475708
0.478122
0.483223
0.482238
0.486861
0.488256
0.49158
0.489446
0.453564
0.436814
0.345688
0.298786
0.315391
0.368652
0.396244
0.408716
0.401735
0.397615
0.388575
0.385918
0.380218
0.378954
0.375656
0.375966
0.375069
0.376422
0.376572
0.377739
0.377598
0.377585
0.376352
0.374915
0.372555
0.369981
0.366966
0.364086
0.361409
0.359226
0.357621
0.356521
0.355997
0.355658
0.355649
0.355378
0.355231
0.354494
0.353889
0.35252
0.351458
0.349528
0.348138
0.345832
0.344254
0.341898
0.340399
0.337343
0.337225
0.342336
0.353275
0.3718
0.394597
0.413514
0.422328
0.420274
0.410346
0.396523
0.382001
0.368929
0.358913
0.353359
0.352854
0.356604
0.362547
0.368744
0.374049
0.378345
0.381756
0.384706
0.387287
0.389843
0.392254
0.394846
0.397329
0.400126
0.402769
0.405869
0.408717
0.412222
0.415329
0.419384
0.422823
0.42763
0.431517
0.437374
0.44193
0.449217
0.454516
0.462934
0.467913
0.475737
0.478153
0.483258
0.48229
0.486892
0.488254
0.491462
0.489239
0.453105
0.43592
0.344585
0.298038
0.315189
0.368803
0.396507
0.408997
0.402
0.397848
0.38876
0.38605
0.380309
0.379024
0.375718
0.376023
0.375116
0.376453
0.376587
0.377738
0.377587
0.377569
0.376334
0.374902
0.372548
0.369982
0.366976
0.364105
0.361435
0.359255
0.35765
0.356546
0.356015
0.355666
0.355646
0.355362
0.355204
0.354456
0.35384
0.352459
0.351381
0.349435
0.34802
0.345689
0.344074
0.341681
0.340138
0.337061
0.337199
0.342252
0.353092
0.371507
0.394272
0.413293
0.42231
0.420492
0.41078
0.39711
0.382663
0.369594
0.359532
0.353896
0.353279
0.3569
0.362719
0.368826
0.374078
0.37835
0.381755
0.384707
0.387295
0.389857
0.392274
0.394871
0.397358
0.40016
0.402806
0.405909
0.40876
0.412267
0.415376
0.419434
0.422877
0.427688
0.43158
0.43744
0.441998
0.449282
0.454575
0.462982
0.467952
0.475766
0.478184
0.483293
0.482341
0.486921
0.488251
0.491344
0.489033
0.452648
0.435028
0.343477
0.297276
0.314968
0.368943
0.396768
0.409282
0.402269
0.398086
0.388949
0.386184
0.380402
0.379095
0.375781
0.376081
0.375164
0.376485
0.376602
0.377738
0.377576
0.377552
0.376317
0.374888
0.37254
0.369983
0.366987
0.364123
0.36146
0.359283
0.357679
0.356571
0.356032
0.355674
0.355642
0.355348
0.355178
0.354419
0.353792
0.352399
0.351305
0.349342
0.347903
0.345546
0.343895
0.341464
0.339878
0.336781
0.337173
0.342169
0.352911
0.371215
0.393947
0.413071
0.42229
0.420708
0.411211
0.397694
0.38332
0.370254
0.360144
0.354427
0.353699
0.357191
0.36289
0.368907
0.374106
0.378355
0.381753
0.384708
0.387302
0.389871
0.392293
0.394896
0.397388
0.400193
0.402842
0.405948
0.408801
0.412311
0.415423
0.419484
0.42293
0.427746
0.431642
0.437505
0.442065
0.449345
0.454633
0.463029
0.46799
0.475795
0.478214
0.483327
0.482391
0.48695
0.488247
0.491227
0.488827
0.452192
0.434137
0.342366
0.296501
0.314728
0.369074
0.39703
0.409571
0.402544
0.398328
0.38914
0.386321
0.380496
0.379166
0.375845
0.376139
0.375212
0.376518
0.376617
0.377738
0.377565
0.377536
0.376301
0.374875
0.372533
0.369985
0.366997
0.364142
0.361485
0.359311
0.357707
0.356596
0.35605
0.355682
0.355639
0.355333
0.355152
0.354382
0.353743
0.352339
0.35123
0.34925
0.347786
0.345404
0.343716
0.341249
0.339619
0.336504
0.337148
0.342086
0.35273
0.370924
0.39362
0.412847
0.422267
0.420922
0.411639
0.398274
0.383972
0.370908
0.360751
0.354951
0.354113
0.357478
0.363057
0.368986
0.374133
0.378359
0.381752
0.384709
0.387309
0.389884
0.392313
0.39492
0.397417
0.400226
0.402878
0.405986
0.408842
0.412354
0.415469
0.419533
0.422983
0.427803
0.431703
0.437569
0.44213
0.449407
0.45469
0.463075
0.468028
0.475823
0.478244
0.48336
0.48244
0.486977
0.488242
0.491109
0.488622
0.451738
0.433248
0.341252
0.295712
0.314471
0.369196
0.397293
0.409865
0.402823
0.398574
0.389335
0.386459
0.380591
0.379239
0.375909
0.376198
0.37526
0.376551
0.376633
0.377739
0.377555
0.37752
0.376284
0.374861
0.372526
0.369986
0.367007
0.364161
0.361509
0.359339
0.357735
0.35662
0.356068
0.35569
0.355636
0.355319
0.355126
0.354346
0.353695
0.352279
0.351155
0.349158
0.34767
0.345262
0.343539
0.341036
0.339363
0.336228
0.337123
0.342005
0.352551
0.370633
0.393293
0.41262
0.422242
0.421133
0.412065
0.398851
0.38462
0.371556
0.361351
0.355469
0.354521
0.35776
0.363223
0.369064
0.374159
0.378362
0.38175
0.38471
0.387315
0.389897
0.392332
0.394945
0.397445
0.400258
0.402913
0.406025
0.408883
0.412397
0.415515
0.419581
0.423035
0.427859
0.431763
0.437632
0.442195
0.449469
0.454746
0.46312
0.468065
0.47585
0.478273
0.483393
0.482489
0.487004
0.488236
0.490991
0.488416
0.451286
0.432361
0.340135
0.294911
0.314198
0.369313
0.397557
0.410165
0.403108
0.398825
0.389533
0.3866
0.380687
0.379312
0.375973
0.376257
0.375309
0.376585
0.37665
0.37774
0.377545
0.377505
0.376268
0.374848
0.372519
0.369987
0.367018
0.364179
0.361534
0.359367
0.357763
0.356645
0.356085
0.355698
0.355633
0.355304
0.355101
0.35431
0.353648
0.35222
0.35108
0.349067
0.347555
0.345122
0.343363
0.340824
0.339108
0.335954
0.337098
0.341924
0.352373
0.370343
0.392966
0.412391
0.422214
0.421341
0.412488
0.399424
0.385263
0.372198
0.361944
0.355981
0.354924
0.358039
0.363385
0.36914
0.374185
0.378366
0.381748
0.38471
0.387321
0.38991
0.39235
0.394968
0.397473
0.40029
0.402948
0.406062
0.408923
0.41244
0.415559
0.419629
0.423087
0.427914
0.431823
0.437695
0.44226
0.44953
0.454802
0.463165
0.468101
0.475877
0.478302
0.483425
0.482536
0.487029
0.48823
0.490873
0.488212
0.450836
0.431476
0.339015
0.294098
0.313911
0.369425
0.397826
0.41047
0.403399
0.39908
0.389734
0.386743
0.380785
0.379386
0.376038
0.376316
0.375358
0.376619
0.376667
0.377741
0.377535
0.377489
0.376251
0.374835
0.372512
0.369989
0.367028
0.364197
0.361558
0.359395
0.35779
0.356669
0.356102
0.355706
0.35563
0.35529
0.355076
0.354274
0.3536
0.352161
0.351006
0.348976
0.34744
0.344982
0.343187
0.340613
0.338855
0.335683
0.337074
0.341843
0.352196
0.370054
0.392637
0.412161
0.422184
0.421547
0.412908
0.399994
0.385901
0.372835
0.362531
0.356487
0.355322
0.358313
0.363545
0.369215
0.374211
0.378369
0.381745
0.384711
0.387327
0.389923
0.392369
0.394992
0.397501
0.400321
0.402983
0.406099
0.408962
0.412482
0.415604
0.419677
0.423138
0.427969
0.431882
0.437757
0.442323
0.44959
0.454857
0.463209
0.468137
0.475903
0.47833
0.483456
0.482582
0.487054
0.488222
0.490755
0.488008
0.450388
0.430594
0.337892
0.293273
0.31361
0.369534
0.398098
0.410783
0.403695
0.399339
0.389938
0.386887
0.380884
0.37946
0.376104
0.376376
0.375408
0.376653
0.376684
0.377743
0.377525
0.377474
0.376235
0.374822
0.372506
0.36999
0.367038
0.364215
0.361582
0.359422
0.357818
0.356693
0.35612
0.355714
0.355628
0.355277
0.355051
0.354238
0.353553
0.352102
0.350932
0.348886
0.347326
0.344842
0.343013
0.340403
0.338604
0.335413
0.337049
0.341764
0.352021
0.369765
0.392308
0.411928
0.422152
0.421751
0.413325
0.400559
0.386534
0.373465
0.363112
0.356986
0.355714
0.358584
0.363702
0.369289
0.374236
0.378372
0.381743
0.384711
0.387333
0.389935
0.392386
0.395015
0.397528
0.400352
0.403017
0.406136
0.409001
0.412523
0.415647
0.419723
0.423188
0.428023
0.43194
0.437818
0.442385
0.449649
0.454911
0.463253
0.468172
0.475929
0.478357
0.483486
0.482627
0.487077
0.488214
0.490637
0.487804
0.449943
0.429714
0.336768
0.292437
0.313298
0.369642
0.398377
0.411102
0.403997
0.399602
0.390145
0.387034
0.380984
0.379535
0.376169
0.376436
0.375458
0.376687
0.376701
0.377745
0.377516
0.377459
0.376219
0.37481
0.372499
0.369992
0.367048
0.364233
0.361605
0.359448
0.357844
0.356716
0.356137
0.355722
0.355625
0.355263
0.355026
0.354203
0.353507
0.352044
0.350858
0.348796
0.347212
0.344704
0.34284
0.340194
0.338355
0.335144
0.337025
0.341685
0.351846
0.369478
0.391979
0.411694
0.422117
0.421952
0.413739
0.401121
0.387162
0.37409
0.363687
0.35748
0.356101
0.35885
0.363857
0.369362
0.37426
0.378375
0.38174
0.384711
0.387339
0.389947
0.392404
0.395037
0.397555
0.400382
0.40305
0.406172
0.40904
0.412564
0.415691
0.419769
0.423237
0.428077
0.431998
0.437878
0.442447
0.449708
0.454964
0.463296
0.468207
0.475954
0.478384
0.483516
0.482671
0.4871
0.488204
0.49052
0.487601
0.449499
0.428837
0.335642
0.291592
0.312974
0.369749
0.398661
0.411428
0.404305
0.39987
0.390354
0.387182
0.381085
0.379611
0.376236
0.376496
0.375508
0.376722
0.376719
0.377748
0.377507
0.377444
0.376203
0.374797
0.372492
0.369993
0.367058
0.36425
0.361628
0.359475
0.357871
0.35674
0.356154
0.35573
0.355623
0.35525
0.355002
0.354168
0.35346
0.351986
0.350785
0.348707
0.347099
0.344566
0.342668
0.339987
0.338107
0.334878
0.337002
0.341607
0.351673
0.369192
0.391649
0.411458
0.42208
0.422151
0.41415
0.401679
0.387784
0.374708
0.364255
0.357967
0.356482
0.359113
0.36401
0.369433
0.374283
0.378377
0.381737
0.38471
0.387344
0.389958
0.392421
0.39506
0.397581
0.400412
0.403083
0.406208
0.409078
0.412604
0.415733
0.419815
0.423286
0.42813
0.432055
0.437937
0.442508
0.449765
0.455016
0.463338
0.468241
0.475979
0.47841
0.483545
0.482714
0.487122
0.488195
0.490402
0.487399
0.449058
0.427963
0.334514
0.290736
0.312641
0.369859
0.398952
0.411763
0.404619
0.400142
0.390566
0.387332
0.381187
0.379688
0.376302
0.376557
0.375558
0.376758
0.376737
0.37775
0.377498
0.377429
0.376188
0.374785
0.372486
0.369994
0.367067
0.364268
0.361651
0.359501
0.357897
0.356763
0.356171
0.355738
0.355621
0.355237
0.354978
0.354134
0.353414
0.351929
0.350713
0.348618
0.346986
0.344429
0.342496
0.339781
0.337861
0.334614
0.336978
0.34153
0.351501
0.368906
0.391319
0.41122
0.42204
0.422346
0.414558
0.402232
0.388402
0.37532
0.364817
0.358448
0.356858
0.359371
0.364159
0.369503
0.374306
0.378379
0.381734
0.38471
0.387349
0.389969
0.392438
0.395081
0.397607
0.400442
0.403115
0.406243
0.409115
0.412644
0.415775
0.41986
0.423335
0.428182
0.432111
0.437996
0.442568
0.449822
0.455068
0.463379
0.468274
0.476003
0.478436
0.483574
0.482756
0.487143
0.488184
0.490285
0.487198
0.448619
0.427092
0.333385
0.289871
0.3123
0.36997
0.399252
0.412104
0.404939
0.400417
0.390781
0.387483
0.38129
0.379764
0.376368
0.376617
0.375608
0.376793
0.376755
0.377753
0.377489
0.377415
0.376172
0.374772
0.372479
0.369996
0.367077
0.364285
0.361674
0.359527
0.357923
0.356786
0.356187
0.355746
0.355618
0.355224
0.354954
0.3541
0.353369
0.351872
0.35064
0.34853
0.346874
0.344292
0.342326
0.339577
0.337616
0.334351
0.336955
0.341453
0.35133
0.368622
0.390989
0.41098
0.421998
0.42254
0.414963
0.402782
0.389014
0.375927
0.365372
0.358922
0.357229
0.359625
0.364307
0.369571
0.374329
0.378381
0.38173
0.384709
0.387354
0.38998
0.392455
0.395103
0.397632
0.400471
0.403147
0.406278
0.409152
0.412683
0.415816
0.419904
0.423382
0.428233
0.432166
0.438054
0.442627
0.449878
0.455119
0.46342
0.468307
0.476027
0.478461
0.483602
0.482798
0.487163
0.488172
0.490168
0.486997
0.448183
0.426224
0.332256
0.288998
0.311952
0.370086
0.39956
0.412454
0.405264
0.400697
0.390997
0.387636
0.381393
0.379842
0.376435
0.376678
0.375659
0.376829
0.376774
0.377756
0.377481
0.377401
0.376157
0.37476
0.372473
0.369997
0.367086
0.364302
0.361696
0.359552
0.357949
0.356809
0.356204
0.355754
0.355616
0.355211
0.354931
0.354066
0.353324
0.351815
0.350568
0.348442
0.346763
0.344157
0.342157
0.339373
0.337373
0.334091
0.336932
0.341377
0.35116
0.368338
0.390658
0.410739
0.421954
0.42273
0.415364
0.403327
0.389621
0.376527
0.365921
0.359391
0.357594
0.359876
0.364452
0.369639
0.37435
0.378382
0.381727
0.384708
0.387358
0.389991
0.392471
0.395124
0.397658
0.400499
0.403179
0.406312
0.409188
0.412721
0.415857
0.419948
0.423429
0.428284
0.432221
0.438111
0.442686
0.449933
0.455169
0.46346
0.468339
0.47605
0.478485
0.483629
0.482838
0.487182
0.48816
0.490051
0.486797
0.44775
0.425361
0.331126
0.288116
0.311598
0.370208
0.399877
0.412813
0.405596
0.40098
0.391216
0.38779
0.381498
0.379919
0.376502
0.376738
0.37571
0.376864
0.376793
0.377759
0.377472
0.377386
0.376142
0.374748
0.372466
0.369998
0.367096
0.364318
0.361718
0.359577
0.357974
0.356831
0.356221
0.355762
0.355614
0.355199
0.354907
0.354032
0.353279
0.351759
0.350497
0.348354
0.346652
0.344022
0.341988
0.339171
0.337132
0.333832
0.336909
0.341302
0.350991
0.368056
0.390327
0.410496
0.421907
0.422918
0.415763
0.403868
0.390223
0.377121
0.366463
0.359853
0.357954
0.360122
0.364594
0.369705
0.374372
0.378383
0.381723
0.384707
0.387363
0.390001
0.392487
0.395145
0.397682
0.400528
0.40321
0.406346
0.409224
0.412759
0.415897
0.419991
0.423476
0.428334
0.432275
0.438167
0.442743
0.449987
0.455218
0.463499
0.468371
0.476073
0.47851
0.483656
0.482878
0.4872
0.488148
0.489935
0.486598
0.447319
0.424501
0.329997
0.287227
0.311239
0.370335
0.400205
0.413179
0.405933
0.401267
0.391437
0.387945
0.381603
0.379997
0.376569
0.376799
0.37576
0.3769
0.376811
0.377763
0.377464
0.377372
0.376127
0.374736
0.37246
0.369999
0.367105
0.364334
0.36174
0.359602
0.357999
0.356853
0.356237
0.35577
0.355612
0.355186
0.354884
0.353999
0.353234
0.351703
0.350426
0.348267
0.346542
0.343887
0.341821
0.33897
0.336892
0.333575
0.336887
0.341228
0.350824
0.367775
0.389996
0.410251
0.421859
0.423104
0.416158
0.404405
0.390819
0.377709
0.366999
0.36031
0.358309
0.360365
0.364735
0.369769
0.374392
0.378384
0.381719
0.384706
0.387367
0.390011
0.392502
0.395165
0.397706
0.400555
0.40324
0.406379
0.409259
0.412797
0.415937
0.420033
0.423521
0.428384
0.432328
0.438223
0.4428
0.450041
0.455267
0.463538
0.468402
0.476096
0.478533
0.483682
0.482917
0.487218
0.488134
0.489819
0.486401
0.446892
0.423645
0.328867
0.28633
0.310876
0.370471
0.400542
0.413554
0.406275
0.401557
0.39166
0.388102
0.381709
0.380075
0.376636
0.376859
0.375811
0.376936
0.37683
0.377766
0.377456
0.377358
0.376111
0.374724
0.372454
0.370001
0.367114
0.364351
0.361761
0.359627
0.358024
0.356875
0.356253
0.355778
0.355611
0.355174
0.354862
0.353966
0.35319
0.351647
0.350355
0.34818
0.346432
0.343754
0.341655
0.33877
0.336654
0.333319
0.336865
0.341154
0.350658
0.367495
0.389665
0.410005
0.421807
0.423286
0.41655
0.404937
0.391409
0.378291
0.367529
0.36076
0.358659
0.360604
0.364872
0.369833
0.374412
0.378385
0.381714
0.384704
0.38737
0.390021
0.392517
0.395185
0.39773
0.400583
0.40327
0.406411
0.409294
0.412834
0.415976
0.420075
0.423566
0.428432
0.432381
0.438278
0.442856
0.450093
0.455315
0.463576
0.468432
0.476117
0.478556
0.483708
0.482955
0.487235
0.48812
0.489704
0.486204
0.446467
0.422794
0.327738
0.285428
0.310511
0.370615
0.400891
0.413938
0.406623
0.40185
0.391885
0.388259
0.381815
0.380153
0.376703
0.37692
0.375861
0.376972
0.37685
0.37777
0.377449
0.377345
0.376097
0.374712
0.372447
0.370002
0.367122
0.364366
0.361782
0.359651
0.358049
0.356897
0.356269
0.355786
0.355609
0.355162
0.354839
0.353933
0.353146
0.351592
0.350285
0.348094
0.346323
0.343621
0.341489
0.338572
0.336417
0.333066
0.336843
0.341082
0.350493
0.367216
0.389334
0.409757
0.421754
0.423466
0.416938
0.405465
0.391995
0.378866
0.368052
0.361204
0.359004
0.360839
0.365008
0.369895
0.374432
0.378385
0.38171
0.384702
0.387374
0.39003
0.392532
0.395204
0.397754
0.400609
0.4033
0.406443
0.409328
0.41287
0.416014
0.420116
0.423611
0.42848
0.432432
0.438332
0.442911
0.450145
0.455362
0.463613
0.468462
0.476139
0.478579
0.483733
0.482992
0.487251
0.488106
0.489588
0.486008
0.446046
0.421947
0.326611
0.284519
0.310145
0.370769
0.401252
0.41433
0.406977
0.402146
0.392111
0.388417
0.381921
0.380232
0.376769
0.37698
0.375912
0.377008
0.376869
0.377774
0.377441
0.377331
0.376082
0.3747
0.372441
0.370002
0.367131
0.364382
0.361803
0.359674
0.358073
0.356919
0.356285
0.355794
0.355607
0.35515
0.354817
0.353901
0.353102
0.351537
0.350215
0.348008
0.346215
0.343489
0.341325
0.338374
0.336183
0.332814
0.336822
0.341009
0.35033
0.366938
0.389003
0.409508
0.421698
0.423643
0.417323
0.405988
0.392574
0.379435
0.368569
0.361642
0.359343
0.36107
0.365141
0.369956
0.37445
0.378385
0.381705
0.3847
0.387377
0.39004
0.392546
0.395223
0.397777
0.400636
0.403329
0.406475
0.409362
0.412906
0.416052
0.420156
0.423655
0.428528
0.432483
0.438385
0.442965
0.450196
0.455408
0.46365
0.468492
0.47616
0.478601
0.483758
0.483028
0.487267
0.488091
0.489474
0.485814
0.445628
0.421105
0.325484
0.283605
0.309778
0.370934
0.401624
0.41473
0.407335
0.402445
0.392338
0.388576
0.382028
0.38031
0.376836
0.37704
0.375962
0.377044
0.376888
0.377778
0.377433
0.377317
0.376067
0.374688
0.372434
0.370003
0.367139
0.364397
0.361823
0.359698
0.358096
0.35694
0.356301
0.355802
0.355606
0.355139
0.354795
0.353868
0.353059
0.351482
0.350146
0.347923
0.346107
0.343357
0.341161
0.338178
0.335949
0.332564
0.3368
0.340938
0.350167
0.366662
0.388673
0.409258
0.42164
0.423818
0.417704
0.406507
0.393148
0.379998
0.36908
0.362074
0.359677
0.361298
0.365272
0.370016
0.374469
0.378384
0.381701
0.384698
0.38738
0.390048
0.39256
0.395242
0.397799
0.400662
0.403358
0.406506
0.409395
0.412941
0.41609
0.420196
0.423698
0.428575
0.432534
0.438437
0.443019
0.450247
0.455453
0.463686
0.46852
0.47618
0.478623
0.483782
0.483064
0.487282
0.488075
0.48936
0.48562
0.445213
0.420269
0.32436
0.282686
0.309412
0.371111
0.402008
0.415139
0.407699
0.402747
0.392567
0.388735
0.382135
0.380389
0.376903
0.3771
0.376012
0.37708
0.376907
0.377782
0.377426
0.377304
0.376052
0.374676
0.372428
0.370004
0.367147
0.364412
0.361843
0.35972
0.35812
0.356961
0.356317
0.35581
0.355604
0.355127
0.354773
0.353837
0.353016
0.351428
0.350076
0.347838
0.345999
0.343226
0.340999
0.337984
0.335718
0.332316
0.336779
0.340867
0.350007
0.366387
0.388342
0.409007
0.42158
0.423989
0.418082
0.407021
0.393716
0.380555
0.369584
0.362501
0.360007
0.361522
0.3654
0.370075
0.374487
0.378384
0.381696
0.384696
0.387383
0.390057
0.392574
0.395261
0.397821
0.400687
0.403386
0.406537
0.409427
0.412976
0.416126
0.420236
0.423741
0.428621
0.432583
0.438489
0.443071
0.450296
0.455498
0.463722
0.468549
0.476201
0.478644
0.483805
0.483098
0.487296
0.488059
0.489246
0.485428
0.444802
0.419437
0.323238
0.281762
0.309048
0.3713
0.402404
0.415556
0.408067
0.40305
0.392796
0.388894
0.382242
0.380467
0.376969
0.37716
0.376062
0.377115
0.376926
0.377786
0.377418
0.377291
0.376038
0.374664
0.372421
0.370005
0.367155
0.364427
0.361863
0.359743
0.358143
0.356982
0.356332
0.355818
0.355603
0.355116
0.354751
0.353805
0.352973
0.351374
0.350008
0.347754
0.345893
0.343096
0.340837
0.33779
0.335487
0.332069
0.336759
0.340797
0.349847
0.366114
0.388012
0.408754
0.421518
0.424158
0.418456
0.40753
0.394279
0.381105
0.370082
0.362921
0.360331
0.361742
0.365527
0.370133
0.374504
0.378383
0.381691
0.384693
0.387386
0.390065
0.392588
0.395279
0.397843
0.400712
0.403413
0.406567
0.409459
0.41301
0.416163
0.420275
0.423783
0.428666
0.432632
0.43854
0.443123
0.450345
0.455542
0.463757
0.468577
0.47622
0.478665
0.483829
0.483133
0.487309
0.488043
0.489134
0.485237
0.444394
0.418611
0.322118
0.280835
0.308687
0.371502
0.402813
0.415981
0.408439
0.403356
0.393027
0.389054
0.382349
0.380545
0.377035
0.377219
0.376112
0.377151
0.376946
0.37779
0.377411
0.377277
0.376023
0.374653
0.372415
0.370005
0.367163
0.364441
0.361882
0.359765
0.358165
0.357002
0.356348
0.355826
0.355602
0.355105
0.35473
0.353774
0.352931
0.351321
0.34994
0.34767
0.345786
0.342967
0.340676
0.337597
0.335259
0.331824
0.336738
0.340728
0.349689
0.365842
0.387682
0.4085