/*--------------------------------*- C++ -*----------------------------------*\
| =========                 |                                                 |
| \\      /  F ield         | OpenFOAM: The Open Source CFD Toolbox           |
|  \\    /   O peration     | Version:  2412                                  |
|   \\  /    A nd           | Website:  www.openfoam.com                      |
|    \\/     M anipulation  |                                                 |
\*---------------------------------------------------------------------------*/
FoamFile
{
    version     2.0;
    format      ascii;
    arch        "LSB;label=32;scalar=64";
    class       volScalarField;
    location    "0.7";
    object      p;
}
// * * * * * * * * * * * * * * * * * * * * * * * * * * * * * * * * * * * * * //

dimensions      [0 2 -2 0 0 0 0];

internalField   nonuniform List<scalar> 
13068
(
105779
105749
105703
105626
105547
105430
105321
105171
105042
104870
104722
104516
104332
104072
103849
103534
103284
102909
102633
102177
101876
101314
100993
100289
99960.4
99066
98746.9
97591.6
97314.1
95795.9
95612.8
93583.1
93580.3
90820.7
91136.6
87322.3
88178.4
82822
84572.5
76935.3
80148.7
69100.6
74696.3
58494.8
67972.2
43879.3
59649.8
23186.3
48985.7
-7415.6
34134.2
-53272.6
14696.6
-111897
-696.187
-71871.5
6752.86
-34874.1
16923.3
-8868.45
24651.6
9298.1
31536.9
23072.4
38064.9
33830.1
44070.6
42364.1
49488.1
49231.5
54278.1
54784.9
58416
59269.7
61917
62882
64832.7
65793.5
67245.7
68165.6
69258.5
70146.3
70970
71855.2
72455.2
73377.1
73759.1
74767.3
74900.7
76063.4
75882.1
77297.4
76694
78504.2
77318.8
79725.7
77732.7
81007.9
77911.3
105773
105743
105697
105621
105543
105427
105318
105169
105040
104869
104721
104515
104331
104071
103848
103533
103282
102907
102631
102175
101874
101311
100991
100287
99957.9
99062.8
98744.1
97587.9
97311
95791.6
95609.3
93578.1
93576.5
90814.7
91132.5
87315.3
88174.1
82813.7
84568.1
76925.7
80144.6
69089.6
74692.8
58482.6
67969.4
43865.3
59646
23169.3
48978.7
-7428.85
34130.4
-53242.7
14717.7
-111714
-642.881
-71838.8
6766.66
-34883.3
16921.2
-8879.99
24652.5
9291.71
31539.3
23067.6
38066.4
33825.6
44071
42359.7
49487.3
49226.9
54276
54780.1
58413
59264.9
61913.6
62877.6
64829.4
65789.9
67243
68163.1
69256.6
70144.9
70968.7
71854.6
72454.3
73377
73758.1
74767.5
74899.5
76063.9
75880.4
77298.1
76692
78505.2
77316.7
79726.9
77730.9
81009
77910.7
105767
105738
105692
105617
105539
105423
105315
105167
105038
104867
104719
104513
104329
104069
103846
103531
103281
102905
102630
102173
101872
101309
100989
100284
99955.3
99059.7
98741.3
97584.3
97307.8
95787.3
95605.9
93573.1
93572.8
90808.8
91128.5
87308.4
88169.9
82805.5
84563.8
76916.2
80140.5
69078.7
74689.4
58470.4
67966.5
43851.3
59642.3
23152.4
48971.8
-7441.82
34126.7
-53212.7
14739
-111533
-590.106
-71806.6
6780.23
-34892.4
16919.4
-8891.34
24653.4
9285.32
31541.6
23062.6
38067.7
33821.1
44071.3
42355.4
49486.4
49222.4
54273.9
54775.4
58410.1
59260.2
61910.3
62873.2
64826.2
65786.3
67240.4
68160.6
69254.7
70143.5
70967.5
71854
72453.3
73376.9
73757.2
74767.8
74898.3
76064.3
75878.8
77298.9
76690
78506.2
77314.5
79728.1
77729
81010
77910
105761
105732
105687
105612
105534
105420
105312
105164
105036
104865
104718
104512
104328
104068
103845
103530
103279
102904
102628
102171
101870
101306
100987
100281
99952.8
99056.6
98738.5
97580.7
97304.8
95783.1
95602.5
93568.1
93569.1
90803
91124.5
87301.5
88165.6
82797.4
84559.5
76906.7
80136.4
69067.9
74685.9
58458.3
67963.7
43837.4
59638.6
23135.7
48965.1
-7454.52
34123.3
-53182.7
14760.3
-111353
-537.859
-71774.8
6793.6
-34901.2
16917.7
-8902.54
24654.4
9278.93
31543.8
23057.7
38069.1
33816.6
44071.6
42351.1
49485.6
49217.9
54271.9
54770.7
58407.2
59255.5
61907
62869
64823.1
65782.8
67237.8
68158.2
69252.8
70142
70966.2
71853.4
72452.4
73376.8
73756.2
74768
74897
76064.8
75877.2
77299.6
76688
78507.2
77312.3
79729.2
77727.2
81010.9
77909.3
105755
105727
105682
105607
105530
105416
105309
105162
105034
104864
104717
104511
104327
104067
103843
103528
103278
102902
102626
102169
101868
101304
100984
100279
99950.4
99053.5
98735.7
97577.1
97301.7
95778.9
95599.1
93563.2
93565.4
90797.2
91120.5
87294.6
88161.5
82789.3
84555.3
76897.2
80132.3
69057.1
74682.4
58446.2
67960.8
43823.5
59634.8
23119.2
48958.5
-7467.05
34120
-53152.8
14781.6
-111175
-486.121
-71743.2
6806.82
-34910
16916
-8913.62
24655.3
9272.59
31546
23052.8
38070.4
33812.1
44071.9
42346.8
49484.7
49213.5
54269.9
54766
58404.3
59250.9
61903.8
62864.8
64819.9
65779.4
67235.2
68155.8
69251
70140.6
70965
71852.7
72451.4
73376.7
73755.2
74768.2
74895.8
76065.3
75875.6
77300.3
76686
78508.2
77310.2
79730.3
77725.4
81011.8
77908.6
105749
105722
105677
105603
105526
105412
105306
105159
105032
104862
104715
104510
104326
104065
103842
103527
103276
102900
102624
102167
101866
101302
100982
100276
99947.9
99050.4
98733
97573.5
97298.7
95774.8
95595.8
93558.3
93561.8
90791.5
91116.6
87287.8
88157.3
82781.3
84551.1
76887.9
80128.3
69046.5
74679
58434.3
67958
43809.8
59631.2
23102.8
48951.9
-7479.45
34116.7
-53123
14802.8
-110999
-434.889
-71711.8
6819.88
-34918.8
16914.4
-8924.61
24656.2
9266.31
31548.2
23048
38071.7
33807.7
44072.2
42342.5
49483.9
49209.1
54267.9
54761.4
58401.5
59246.4
61900.6
62860.6
64816.8
65776
67232.7
68153.4
69249.2
70139.2
70963.7
71852.1
72450.5
73376.6
73754.3
74768.4
74894.6
76065.7
75874
77301
76684
78509.2
77308
79731.5
77723.6
81012.7
77908
105744
105717
105672
105598
105522
105409
105303
105157
105030
104861
104714
104508
104324
104064
103841
103525
103275
102899
102623
102165
101864
101300
100980
100273
99945.5
99047.4
98730.3
97570
97295.7
95770.7
95592.5
93553.5
93558.1
90785.8
91112.7
87281.1
88153.2
82773.4
84546.9
76878.6
80124.3
69035.9
74675.6
58422.5
67955.2
43796.2
59627.5
23086.5
48945.3
-7491.69
34113.6
-53093.4
14823.9
-110824
-384.163
-71680.7
6832.81
-34927.4
16912.8
-8935.49
24657.1
9260.09
31550.4
23043.2
38073
33803.3
44072.5
42338.3
49483.1
49204.7
54266
54756.9
58398.7
59241.8
61897.4
62856.4
64813.8
65772.6
67230.2
68151
69247.4
70137.8
70962.5
71851.5
72449.6
73376.5
73753.3
74768.6
74893.4
76066.2
75872.4
77301.7
76682.1
78510.1
77305.9
79732.5
77721.8
81013.6
77907.3
105738
105711
105667
105594
105518
105405
105300
105154
105028
104859
104712
104507
104323
104063
103839
103524
103273
102897
102621
102163
101862
101297
100978
100271
99943
99044.4
98727.6
97566.5
97292.7
95766.6
95589.2
93548.7
93554.5
90780.1
91108.9
87274.4
88149.2
82765.5
84542.7
76869.4
80120.3
69025.4
74672.2
58410.7
67952.4
43782.6
59623.9
23070.4
48938.9
-7503.79
34110.5
-53063.9
14844.8
-110651
-333.938
-71649.8
6845.6
-34936
16911.3
-8946.27
24658.1
9253.92
31552.6
23038.4
38074.3
33798.9
44072.8
42334.1
49482.2
49200.3
54264
54752.3
58395.9
59237.3
61894.2
62852.3
64810.7
65769.2
67227.7
68148.6
69245.6
70136.4
70961.3
71850.9
72448.7
73376.4
73752.4
74768.8
74892.2
76066.7
75870.8
77302.4
76680.2
78511.1
77303.9
79733.6
77720
81014.5
77906.7
105733
105706
105662
105589
105514
105402
105297
105152
105026
104858
104711
104506
104322
104061
103838
103522
103272
102895
102619
102161
101860
101295
100976
100268
99940.6
99041.4
98724.9
97563
97289.7
95762.5
95585.9
93543.9
93551
90774.5
91105
87267.8
88145.1
82757.7
84538.6
76860.3
80116.4
69015
74668.8
58399
67949.6
43769.2
59620.3
23054.4
48932.5
-7515.74
34107.6
-53034.5
14865.7
-110479
-284.214
-71619.2
6858.25
-34944.5
16909.7
-8956.95
24659
9247.8
31554.8
23033.6
38075.6
33794.6
44073.1
42330
49481.4
49196
54262.1
54747.8
58393.2
59232.9
61891.1
62848.2
64807.7
65765.9
67225.2
68146.3
69243.8
70135.1
70960.1
71850.3
72447.7
73376.3
73751.4
74769.1
74891
76067.1
75869.3
77303.1
76678.3
78512
77301.8
79734.7
77718.3
81015.3
77906.1
105727
105701
105657
105585
105510
105399
105294
105150
105024
104856
104710
104505
104321
104060
103837
103521
103270
102893
102617
102159
101859
101293
100973
100266
99938.2
99038.5
98722.2
97559.6
97286.8
95758.5
95582.7
93539.2
93547.5
90768.9
91101.2
87261.2
88141.1
82749.9
84534.5
76851.3
80112.5
69004.7
74665.5
58387.4
67946.8
43755.9
59616.7
23038.6
48926.2
-7527.55
34104.7
-53005.3
14886.5
-110309
-234.986
-71588.7
6870.78
-34953
16908.2
-8967.52
24659.9
9241.73
31557
23028.9
38076.9
33790.3
44073.4
42325.8
49480.6
49191.7
54260.2
54743.4
58390.4
59228.4
61888
62844.1
64804.7
65762.6
67222.7
68143.9
69242
70133.7
70958.9
71849.7
72446.8
73376.2
73750.5
74769.3
74889.8
76067.6
75867.7
77303.8
76676.4
78512.9
77299.8
79735.7
77716.6
81016.2
77905.5
105722
105696
105652
105581
105506
105395
105291
105147
105022
104855
104708
104503
104319
104059
103835
103519
103269
102892
102616
102157
101857
101291
100971
100263
99935.9
99035.5
98719.6
97556.2
97283.8
95754.5
95579.5
93534.5
93544
90763.4
91097.5
87254.7
88137.1
82742.2
84530.4
76842.3
80108.6
68994.4
74662.1
58376
67944
43742.7
59613.1
23022.9
48920
-7539.21
34101.9
-52976.2
14907.2
-110141
-186.252
-71558.5
6883.2
-34961.3
16906.8
-8977.98
24660.9
9235.72
31559.1
23024.3
38078.1
33786.1
44073.7
42321.7
49479.8
49187.5
54258.2
54738.9
58387.7
59224
61884.9
62840.1
64801.7
65759.3
67220.3
68141.6
69240.2
70132.4
70957.7
71849.1
72445.9
73376.1
73749.6
74769.5
74888.6
76068
75866.2
77304.5
76674.5
78513.9
77297.8
79736.7
77714.9
81017
77904.9
105716
105691
105647
105576
105502
105392
105288
105145
105020
104853
104707
104502
104318
104057
103834
103518
103267
102890
102614
102155
101855
101288
100969
100260
99933.5
99032.6
98717
97552.8
97280.9
95750.5
95576.3
93529.9
93540.5
90757.9
91093.7
87248.2
88133.2
82734.6
84526.4
76833.4
80104.8
68984.2
74658.8
58364.6
67941.3
43729.6
59609.6
23007.3
48913.8
-7550.73
34099.2
-52947.3
14927.7
-109974
-138.011
-71528.6
6895.49
-34969.6
16905.4
-8988.34
24661.8
9229.77
31561.2
23019.7
38079.4
33781.9
44074
42317.7
49479
49183.3
54256.4
54734.5
58385
59219.7
61881.8
62836.1
64798.8
65756
67217.8
68139.3
69238.5
70131
70956.5
71848.5
72445
73376
73748.7
74769.7
74887.5
76068.5
75864.7
77305.2
76672.6
78514.8
77295.8
79737.7
77713.3
81017.8
77904.4
105711
105686
105642
105572
105498
105389
105285
105143
105018
104852
104706
104501
104317
104056
103833
103516
103266
102889
102612
102153
101853
101286
100967
100258
99931.2
99029.7
98714.4
97549.4
97278.1
95746.6
95573.1
93525.2
93537
90752.5
91090
87241.8
88129.3
82727
84522.4
76824.6
80101
68974.2
74655.6
58353.3
67938.6
43716.6
59606.1
22991.9
48907.8
-7562.11
34096.5
-52918.5
14948.2
-109810
-90.2586
-71498.8
6907.67
-34977.8
16904
-8998.59
24662.8
9223.87
31563.4
23015.1
38080.6
33777.7
44074.2
42313.6
49478.1
49179.1
54254.5
54730.2
58382.4
59215.3
61878.8
62832.2
64795.9
65752.8
67215.4
68137
69236.8
70129.7
70955.3
71847.9
72444.1
73375.9
73747.8
74769.9
74886.3
76068.9
75863.2
77305.8
76670.8
78515.7
77293.8
79738.7
77711.6
81018.5
77903.8
105706
105681
105638
105568
105494
105385
105282
105140
105016
104850
104705
104500
104316
104055
103831
103515
103265
102887
102611
102151
101851
101284
100965
100256
99928.9
99026.9
98711.8
97546.1
97275.2
95742.7
95570
93520.7
93533.6
90747.1
91086.3
87235.4
88125.4
82719.5
84518.5
76815.8
80097.2
68964.2
74652.3
58342.1
67935.9
43703.7
59602.6
22976.6
48901.7
-7573.35
34094
-52889.9
14968.6
-109646
-42.9928
-71469.3
6919.75
-34985.8
16902.7
-9008.73
24663.8
9218.03
31565.5
23010.6
38081.9
33773.5
44074.5
42309.7
49477.4
49175
54252.6
54725.9
58379.7
59211.1
61875.8
62828.3
64793
65749.6
67213
68134.8
69235.1
70128.4
70954.2
71847.3
72443.2
73375.8
73746.9
74770.1
74885.2
76069.3
75861.7
77306.5
76669
78516.5
77291.8
79739.7
77710
81019.3
77903.3
105700
105676
105633
105564
105490
105382
105279
105138
105014
104849
104703
104498
104314
104053
103830
103514
103263
102885
102609
102150
101849
101282
100963
100253
99926.6
99024
98709.3
97542.8
97272.4
95738.8
95566.9
93516.1
93530.2
90741.7
91082.7
87229.1
88121.5
82712.1
84514.5
76807.2
80093.4
68954.3
74649.1
58330.9
67933.2
43690.9
59599.2
22961.4
48895.8
-7584.45
34091.5
-52861.4
14988.8
-109484
3.78839
-71440
6931.73
-34993.8
16901.4
-9018.76
24664.8
9212.24
31567.6
23006.1
38083.1
33769.4
44074.8
42305.7
49476.6
49170.9
54250.8
54721.6
58377.1
59206.8
61872.8
62824.4
64790.1
65746.4
67210.7
68132.5
69233.3
70127.1
70953
71846.7
72442.4
73375.7
73746
74770.3
74884.1
76069.8
75860.2
77307.2
76667.2
78517.4
77289.9
79740.7
77708.4
81020
77902.7
105695
105671
105628
105560
105486
105379
105276
105136
105013
104847
104702
104497
104313
104052
103829
103512
103262
102884
102608
102148
101847
101280
100961
100251
99924.4
99021.2
98706.8
97539.5
97269.6
95735
95563.8
93511.6
93526.8
90736.4
91079
87222.9
88117.7
82704.7
84510.6
76798.6
80089.7
68944.4
74645.9
58319.9
67930.5
43678.2
59595.8
22946.4
48889.9
-7595.41
34089.1
-52833.1
15008.9
-109324
50.0881
-71411
6943.61
-35001.7
16900.2
-9028.68
24665.7
9206.51
31569.6
23001.6
38084.3
33765.3
44075.1
42301.8
49475.8
49166.8
54248.9
54717.3
58374.5
59202.6
61869.8
62820.5
64787.2
65743.3
67208.3
68130.3
69231.7
70125.8
70951.9
71846.2
72441.5
73375.6
73745.1
74770.5
74882.9
76070.2
75858.8
77307.8
76665.4
78518.3
77288
79741.6
77706.8
81020.8
77902.2
105690
105666
105624
105556
105482
105376
105274
105134
105011
104846
104701
104496
104312
104051
103828
103511
103260
102882
102606
102146
101846
101278
100959
100248
99922.1
99018.4
98704.2
97536.2
97266.8
95731.2
95560.7
93507.2
93523.5
90731.2
91075.5
87216.6
88113.9
82697.4
84506.8
76790
80086
68934.7
74642.7
58309
67927.9
43665.6
59592.4
22931.5
48884.1
-7606.23
34086.8
-52805
15028.9
-109166
95.9083
-71382.1
6955.39
-35009.4
16899
-9038.49
24666.7
9200.83
31571.7
22997.2
38085.5
33761.3
44075.3
42297.9
49475
49162.7
54247.1
54713.1
58371.9
59198.4
61866.9
62816.7
64784.4
65740.1
67206
68128.1
69230
70124.5
70950.7
71845.6
72440.6
73375.5
73744.2
74770.7
74881.8
76070.6
75857.3
77308.5
76663.6
78519.1
77286.1
79742.6
77705.3
81021.5
77901.7
105685
105662
105619
105552
105479
105372
105271
105131
105009
104844
104700
104495
104311
104050
103826
103510
103259
102881
102604
102144
101844
101276
100957
100246
99919.9
99015.6
98701.8
97533
97264.1
95727.4
95557.7
93502.7
93520.2
90726
91071.9
87210.5
88110.2
82690.2
84503
76781.6
80082.4
68925
74639.6
58298.1
67925.3
43653.1
59589
22916.7
48878.3
-7616.92
34084.5
-52777
15048.8
-109009
141.252
-71353.5
6967.09
-35017.1
16897.9
-9048.19
24667.7
9195.21
31573.7
22992.8
38086.8
33757.3
44075.6
42294
49474.2
49158.7
54245.3
54708.9
58369.3
59194.2
61864
62812.9
64781.6
65737
67203.7
68125.9
69228.3
70123.2
70949.6
71845
72439.8
73375.4
73743.3
74770.9
74880.7
76071.1
75855.9
77309.1
76661.9
78520
77284.2
79743.5
77703.8
81022.2
77901.2
105680
105657
105615
105548
105475
105369
105268
105129
105007
104843
104698
104494
104310
104048
103825
103508
103258
102879
102603
102142
101842
101274
100955
100243
99917.7
99012.9
98699.3
97529.8
97261.3
95723.7
95554.7
93498.4
93516.9
90720.8
91068.4
87204.4
88106.4
82683
84499.2
76773.2
80078.7
68915.5
74636.5
58287.4
67922.6
43640.8
59585.7
22902.1
48872.7
-7627.47
34082.3
-52749.2
15068.6
-108854
186.121
-71325.1
6978.7
-35024.7
16896.8
-9057.78
24668.7
9189.64
31575.8
22988.5
38087.9
33753.3
44075.9
42290.2
49473.5
49154.8
54243.5
54704.8
58366.8
59190.1
61861.1
62809.1
64778.8
65734
67201.4
68123.8
69226.7
70121.9
70948.5
71844.5
72438.9
73375.3
73742.5
74771.2
74879.6
76071.5
75854.4
77309.7
76660.1
78520.8
77282.4
79744.4
77702.2
81022.9
77900.7
105675
105652
105610
105544
105471
105366
105265
105127
105005
104842
104697
104493
104308
104047
103824
103507
103256
102878
102601
102141
101840
101272
100953
100241
99915.5
99010.2
98696.9
97526.6
97258.6
95720
95551.7
93494
93513.7
90715.7
91064.9
87198.4
88102.7
82675.9
84495.4
76764.9
80075.1
68906
74633.4
58276.7
67920
43628.5
59582.3
22887.6
48867.1
-7637.89
34080.2
-52721.6
15088.3
-108700
230.518
-71297
6990.23
-35032.1
16895.8
-9067.26
24669.8
9184.13
31577.8
22984.2
38089.1
33749.4
44076.1
42286.4
49472.7
49150.8
54241.7
54700.7
58364.2
59186
61858.2
62805.4
64776.1
65730.9
67199.1
68121.6
69225
70120.7
70947.4
71843.9
72438.1
73375.2
73741.6
74771.4
74878.6
76071.9
75853
77310.4
76658.4
78521.6
77280.5
79745.3
77700.7
81023.5
77900.3
105670
105648
105606
105540
105468
105363
105263
105125
105004
104840
104696
104491
104307
104046
103823
103506
103255
102876
102600
102139
101839
101270
100951
100239
99913.3
99007.5
98694.4
97523.5
97255.9
95716.3
95548.7
93489.7
93510.4
90710.6
91061.4
87192.4
88099.1
82668.8
84491.7
76756.7
80071.6
68896.6
74630.3
58266.2
67917.5
43616.3
59579.1
22873.3
48861.5
-7648.17
34078.2
-52694.1
15107.8
-108548
274.446
-71269
7001.68
-35039.4
16894.9
-9076.63
24670.8
9178.68
31579.8
22979.9
38090.3
33745.4
44076.4
42282.6
49471.9
49146.9
54239.9
54696.6
58361.7
59182
61855.3
62801.7
64773.3
65727.9
67196.9
68119.5
69223.4
70119.4
70946.3
71843.4
72437.2
73375.2
73740.7
74771.6
74877.5
76072.3
75851.6
77311
76656.7
78522.4
77278.7
79746.2
77699.3
81024.2
77899.8
105665
105643
105602
105536
105464
105360
105260
105123
105002
104839
104695
104490
104306
104045
103821
103504
103254
102875
102598
102137
101837
101268
100949
100236
99911.1
99004.8
98692
97520.4
97253.3
95712.7
95545.8
93485.4
93507.2
90705.6
91057.9
87186.4
88095.4
82661.8
84488
76748.5
80068
68887.2
74627.3
58255.7
67914.9
43604.3
59575.8
22859.1
48856.1
-7658.33
34076.3
-52666.8
15127.2
-108397
317.906
-71241.3
7013.06
-35046.6
16893.9
-9085.89
24671.8
9173.28
31581.8
22975.7
38091.5
33741.6
44076.6
42278.9
49471.2
49143
54238.2
54692.5
58359.2
59178
61852.5
62798
64770.6
65724.9
67194.6
68117.4
69221.8
70118.2
70945.2
71842.8
72436.4
73375.1
73739.9
74771.8
74876.4
76072.7
75850.2
77311.6
76655
78523.2
77276.9
79747
77697.8
81024.8
77899.4
105661
105639
105597
105532
105461
105357
105257
105121
105000
104837
104693
104489
104305
104044
103820
103503
103252
102873
102597
102135
101835
101266
100947
100234
99909
99002.1
98689.6
97517.3
97250.6
95709.1
95542.9
93481.2
93504.1
90700.6
91054.5
87180.5
88091.8
82654.9
84484.3
76740.4
80064.5
68878
74624.3
58245.3
67912.4
43592.3
59572.6
22845
48850.6
-7668.35
34074.4
-52639.7
15146.5
-108248
360.901
-71213.8
7024.37
-35053.7
16893.1
-9095.03
24672.9
9167.93
31583.8
22971.5
38092.6
33737.7
44076.9
42275.2
49470.4
49139.2
54236.5
54688.5
58356.8
59174
61849.7
62794.4
64767.9
65721.9
67192.4
68115.3
69220.2
70117
70944.1
71842.3
72435.6
73375
73739.1
74772
74875.4
76073.2
75848.9
77312.2
76653.3
78524
77275.2
79747.9
77696.4
81025.5
77899
105656
105634
105593
105528
105457
105354
105255
105119
104999
104836
104692
104488
104304
104042
103819
103502
103251
102872
102595
102134
101834
101264
100945
100232
99906.9
98999.5
98687.3
97514.2
97248
95705.5
95540
93477
93500.9
90695.7
91051.2
87174.7
88088.3
82648
84480.7
76732.4
80061.1
68868.8
74621.3
58235
67909.8
43580.5
59569.4
22831.1
48845.3
-7678.24
34072.5
-52612.7
15165.7
-108101
403.434
-71186.5
7035.61
-35060.7
16892.3
-9104.07
24673.9
9162.65
31585.8
22967.4
38093.8
33733.9
44077.1
42271.5
49469.7
49135.4
54234.7
54684.6
58354.3
59170.1
61847
62790.8
64765.3
65719
67190.2
68113.2
69218.6
70115.8
70943
71841.7
72434.7
73374.9
73738.2
74772.2
74874.3
76073.6
75847.5
77312.8
76651.7
78524.8
77273.4
79748.7
77695
81026.1
77898.6
105651
105630
105589
105524
105454
105351
105252
105117
104997
104835
104691
104487
104303
104041
103818
103500
103250
102870
102594
102132
101832
101262
100944
100230
99904.8
98996.9
98685
97511.2
97245.4
95702
95537.2
93472.9
93497.8
90690.8
91047.8
87168.9
88084.7
82641.2
84477.1
76724.5
80057.6
68859.8
74618.3
58224.8
67907.3
43568.7
59566.2
22817.3
48840
-7688
34070.8
-52585.9
15184.7
-107955
445.507
-71159.4
7046.78
-35067.6
16891.5
-9112.99
24675
9157.41
31587.7
22963.3
38094.9
33730.2
44077.4
42267.9
49469
49131.6
54233
54680.6
58351.9
59166.2
61844.2
62787.2
64762.6
65716.1
67188
68111.2
69217
70114.5
70941.9
71841.2
72433.9
73374.8
73737.4
74772.4
74873.3
76074
75846.2
77313.4
76650
78525.6
77271.7
79749.5
77693.6
81026.7
77898.2
105646
105626
105585
105521
105450
105348
105250
105115
104995
104833
104690
104486
104302
104040
103817
103499
103248
102869
102592
102130
101830
101260
100942
100227
99902.7
98994.3
98682.6
97508.2
97242.8
95698.5
95534.3
93468.7
93494.7
90685.9
91044.5
87163.2
88081.2
82634.5
84473.5
76716.6
80054.2
68850.8
74615.4
58214.7
67904.9
43557.1
59563
22803.6
48834.8
-7697.64
34069.1
-52559.3
15203.6
-107810
487.122
-71132.5
7057.9
-35074.3
16890.8
-9121.81
24676
9152.24
31589.7
22959.2
38096.1
33726.4
44077.6
42264.3
49468.2
49127.9
54231.3
54676.7
58349.5
59162.3
61841.5
62783.7
64760
65713.2
67185.9
68109.2
69215.5
70113.4
70940.9
71840.7
72433.1
73374.7
73736.6
74772.6
74872.3
76074.4
75844.8
77314
76648.4
78526.3
77270
79750.3
77692.2
81027.2
77897.8
105642
105621
105581
105517
105447
105345
105247
105113
104994
104832
104689
104485
104301
104039
103816
103498
103247
102867
102591
102129
101829
101258
100940
100225
99900.7
98991.8
98680.3
97505.2
97240.3
95695
95531.5
93464.7
93491.7
90681.1
91041.2
87157.5
88077.8
82627.8
84470
76708.8
80050.9
68841.9
74612.4
58204.7
67902.4
43545.6
59559.9
22790.1
48829.7
-7707.15
34067.5
-52532.9
15222.4
-107667
528.281
-71105.9
7068.96
-35080.9
16890.1
-9130.52
24677.1
9147.11
31591.6
22955.2
38097.2
33722.7
44077.9
42260.7
49467.5
49124.2
54229.7
54672.8
58347.1
59158.5
61838.8
62780.2
64757.4
65710.3
67183.7
68107.1
69213.9
70112.2
70939.8
71840.2
72432.3
73374.7
73735.8
74772.8
74871.2
76074.8
75843.5
77314.6
76646.8
78527.1
77268.3
79751.1
77690.9
81027.8
77897.4
105637
105617
105577
105513
105443
105342
105245
105111
104992
104831
104688
104484
104300
104038
103814
103497
103246
102866
102590
102127
101827
101256
100938
100223
99898.6
98989.3
98678.1
97502.3
97237.8
95691.5
95528.7
93460.6
93488.7
90676.4
91037.9
87151.9
88074.3
82621.2
84466.5
76701.1
80047.5
68833.1
74609.5
58194.8
67899.9
43534.1
59556.8
22776.7
48824.6
-7716.53
34065.9
-52506.7
15241.1
-107526
568.986
-71079.4
7079.97
-35087.4
16889.5
-9139.11
24678.2
9142.04
31593.5
22951.2
38098.3
33719.1
44078.1
42257.1
49466.8
49120.5
54228
54669
58344.7
59154.7
61836.1
62776.7
64754.9
65707.5
67181.6
68105.1
69212.4
70111
70938.8
71839.6
72431.5
73374.6
73735
74772.9
74870.2
76075.2
75842.2
77315.2
76645.2
78527.8
77266.6
79751.9
77689.5
81028.4
77897
105633
105613
105573
105510
105440
105339
105242
105109
104990
104830
104686
104483
104298
104037
103813
103496
103245
102864
102588
102125
101825
101254
100936
100221
99896.6
98986.7
98675.8
97499.4
97235.3
95688.1
95526
93456.6
93485.7
90671.7
91034.7
87146.4
88070.9
82614.6
84463
76693.5
80044.2
68824.3
74606.7
58185
67897.5
43522.8
59553.8
22763.4
48819.6
-7725.79
34064.4
-52480.7
15259.6
-107386
609.241
-71053.2
7090.92
-35093.8
16889
-9147.6
24679.3
9137.03
31595.4
22947.3
38099.4
33715.4
44078.3
42253.6
49466.1
49116.9
54226.3
54665.2
58342.4
59150.9
61833.4
62773.2
64752.3
65704.7
67179.5
68103.2
69210.9
70109.8
70937.8
71839.1
72430.7
73374.5
73734.2
74773.1
74869.2
76075.6
75840.9
77315.8
76643.7
78528.6
77265
79752.7
77688.2
81028.9
77896.7
105628
105609
105569
105506
105437
105337
105240
105107
104989
104828
104685
104481
104297
104036
103812
103494
103243
102863
102587
102124
101824
101252
100934
100219
99894.6
98984.3
98673.6
97496.5
97232.8
95684.8
95523.3
93452.7
93482.7
90667
91031.5
87140.8
88067.6
82608.1
84459.6
76685.9
80040.9
68815.7
74603.8
58175.2
67895.1
43511.6
59550.7
22750.3
48814.6
-7734.92
34062.9
-52454.8
15278
-107248
649.047
-71027.2
7101.82
-35100.1
16888.5
-9155.98
24680.4
9132.07
31597.3
22943.3
38100.5
33711.8
44078.6
42250.2
49465.4
49113.2
54224.7
54661.4
58340.1
59147.1
61830.8
62769.8
64749.8
65701.9
67177.4
68101.2
69209.4
70108.7
70936.7
71838.6
72430
73374.4
73733.4
74773.3
74868.3
76075.9
75839.6
77316.3
76642.1
78529.3
77263.3
79753.5
77686.9
81029.4
77896.3
105624
105605
105565
105503
105433
105334
105237
105105
104987
104827
104684
104480
104296
104035
103811
103493
103242
102862
102585
102122
101822
101250
100933
100217
99892.6
98981.8
98671.4
97493.6
97230.4
95681.4
95520.6
93448.7
93479.7
90662.4
91028.3
87135.4
88064.2
82601.7
84456.2
76678.4
80037.7
68807.1
74601
58165.6
67892.7
43500.5
59547.7
22737.3
48809.8
-7743.93
34061.5
-52429.2
15296.2
-107111
688.406
-71001.4
7112.67
-35106.2
16888
-9164.25
24681.5
9127.17
31599.1
22939.5
38101.5
33708.3
44078.8
42246.7
49464.7
49109.7
54223.1
54657.7
58337.8
59143.4
61828.2
62766.4
64747.3
65699.1
67175.4
68099.3
69207.9
70107.5
70935.7
71838.1
72429.2
73374.3
73732.6
74773.5
74867.3
76076.3
75838.4
77316.9
76640.6
78530
77261.7
79754.2
77685.6
81029.9
77896
105620
105601
105561
105499
105430
105331
105235
105103
104985
104826
104683
104479
104295
104033
103810
103492
103241
102860
102584
102121
101821
101249
100931
100215
99890.7
98979.4
98669.2
97490.8
97227.9
95678.1
95517.9
93444.9
93476.8
90657.8
91025.2
87130
88060.9
82595.3
84452.8
76671
80034.4
68798.6
74598.2
58156
67890.3
43489.5
59544.8
22724.4
48804.9
-7752.82
34060.2
-52403.7
15314.3
-106976
727.321
-70975.8
7123.48
-35112.2
16887.7
-9172.41
24682.6
9122.31
31601
22935.6
38102.6
33704.7
44079
42243.3
49464
49106.1
54221.5
54654
58335.5
59139.8
61825.6
62763.1
64744.8
65696.4
67173.3
68097.3
69206.4
70106.4
70934.7
71837.6
72428.4
73374.3
73731.8
74773.7
74866.3
76076.7
75837.1
77317.4
76639.1
78530.7
77260.1
79754.9
77684.4
81030.4
77895.7
105615
105597
105557
105496
105427
105328
105232
105101
104984
104824
104682
104478
104294
104032
103809
103491
103240
102859
102583
102119
101819
101247
100929
100212
99888.7
98977
98667
97488
97225.5
95674.8
95515.3
93441
93473.9
90653.3
91022.1
87124.6
88057.6
82589
84449.5
76663.6
80031.2
68790.2
74595.5
58146.6
67888
43478.6
59541.8
22711.7
48800.2
-7761.59
34058.9
-52378.5
15332.2
-106842
765.794
-70950.4
7134.25
-35118.1
16887.3
-9180.47
24683.7
9117.52
31602.8
22931.9
38103.7
33701.2
44079.2
42239.9
49463.3
49102.6
54219.9
54650.3
58333.2
59136.1
61823.1
62759.8
64742.4
65693.7
67171.3
68095.4
69204.9
70105.3
70933.7
71837.1
72427.7
73374.2
73731.1
74773.9
74865.4
76077.1
75835.9
77318
76637.6
78531.4
77258.6
79755.6
77683.1
81030.9
77895.3
105611
105593
105553
105492
105424
105326
105230
105099
104982
104823
104681
104477
104293
104031
103808
103490
103239
102858
102581
102118
101818
101245
100928
100210
99886.8
98974.6
98664.9
97485.2
97223.1
95671.6
95512.6
93437.2
93471.1
90648.8
91019
87119.3
88054.4
82582.8
84446.1
76656.4
80028.1
68781.9
74592.7
58137.2
67885.7
43467.8
59538.9
22699.1
48795.5
-7770.24
34057.7
-52353.4
15350.1
-106710
803.827
-70925.2
7144.97
-35123.9
16887
-9188.42
24684.8
9112.77
31604.7
22928.1
38104.7
33697.8
44079.5
42236.6
49462.6
49099.1
54218.3
54646.7
58331
59132.5
61820.5
62756.5
64739.9
65691
67169.3
68093.5
69203.5
70104.2
70932.7
71836.6
72426.9
73374.1
73730.3
74774.1
74864.4
76077.5
75834.6
77318.5
76636.1
78532.1
77257
79756.4
77681.9
81031.4
77895
105607
105589
105549
105489
105421
105323
105228
105097
104981
104822
104680
104476
104292
104030
103807
103489
103238
102856
102580
102116
101816
101243
100926
100208
99884.9
98972.2
98662.8
97482.5
97220.8
95668.4
95510
93433.4
93468.3
90644.3
91016
87114.1
88051.2
82576.6
84442.9
76649.2
80025
68773.7
74590
58127.9
67883.3
43457.1
59536
22686.6
48790.8
-7778.77
34056.5
-52328.5
15367.7
-106580
841.423
-70900.2
7155.65
-35129.5
16886.8
-9196.27
24685.9
9108.08
31606.5
22924.4
38105.8
33694.3
44079.7
42233.2
49461.9
49095.7
54216.7
54643.1
58328.8
59129
61818
62753.2
64737.5
65688.4
67167.3
68091.7
69202.1
70103.1
70931.8
71836.2
72426.2
73374.1
73729.6
74774.3
74863.5
76077.8
75833.4
77319.1
76634.6
78532.8
77255.5
79757
77680.7
81031.9
77894.7
105603
105585
105546
105485
105418
105320
105225
105095
104979
104821
104679
104475
104291
104029
103806
103487
103236
102855
102579
102114
101815
101242
100924
100206
99883
98969.9
98660.6
97479.7
97218.5
95665.2
95507.5
93429.7
93465.5
90639.9
91013
87108.9
88048
82570.5
84439.6
76642
80021.9
68765.5
74587.3
58118.8
67881.1
43446.6
59533.1
22674.3
48786.3
-7787.18
34055.4
-52303.9
15385.2
-106450
878.582
-70875.4
7166.3
-35135.1
16886.6
-9204.01
24687
9103.44
31608.2
22920.7
38106.8
33690.9
44079.9
42230
49461.2
49092.3
54215.1
54639.6
58326.6
59125.5
61815.5
62750
64735.1
65685.8
67165.4
68089.8
69200.6
70102
70930.8
71835.7
72425.5
73374
73728.8
74774.5
74862.6
76078.2
75832.2
77319.6
76633.1
78533.4
77253.9
79757.7
77679.5
81032.3
77894.5
105599
105581
105542
105482
105415
105318
105223
105094
104978
104820
104678
104474
104290
104028
103805
103486
103235
102854
102577
102113
101813
101240
100922
100204
99881.1
98967.6
98658.6
97477
97216.2
95662
95504.9
93426
93462.7
90635.6
91010
87103.8
88044.8
82564.5
84436.4
76635
80018.8
68757.5
74584.7
58109.7
67878.8
43436.1
59530.3
22662.1
48781.7
-7795.47
34054.3
-52279.4
15402.6
-106323
915.309
-70850.8
7176.9
-35140.5
16886.4
-9211.65
24688.1
9098.85
31610
22917.1
38107.8
33687.6
44080.1
42226.7
49460.5
49088.9
54213.6
54636
58324.4
59122
61813.1
62746.8
64732.8
65683.2
67163.4
68088
69199.2
70100.9
70929.8
71835.2
72424.7
73373.9
73728.1
74774.7
74861.6
76078.6
75831
77320.1
76631.7
78534.1
77252.4
79758.4
77678.4
81032.8
77894.2
105595
105577
105538
105479
105412
105315
105221
105092
104976
104819
104677
104473
104289
104027
103804
103485
103234
102852
102576
102112
101812
101238
100921
100202
99879.3
98965.3
98656.5
97474.4
97213.9
95658.9
95502.4
93422.3
93459.9
90631.3
91007
87098.7
88041.7
82558.5
84433.3
76628
80015.8
68749.5
74582
58100.7
67876.5
43425.7
59527.5
22650.1
48777.3
-7803.65
34053.3
-52255.2
15419.8
-106196
951.604
-70826.4
7187.47
-35145.8
16886.3
-9219.18
24689.2
9094.32
31611.8
22913.5
38108.8
33684.2
44080.3
42223.5
49459.9
49085.6
54212.1
54632.5
58322.2
59118.5
61810.6
62743.7
64730.4
65680.6
67161.5
68086.2
69197.8
70099.9
70928.9
71834.7
72424
73373.9
73727.4
74774.8
74860.7
76078.9
75829.9
77320.7
76630.3
78534.7
77251
79759.1
77677.2
81033.2
77893.9
105591
105573
105535
105476
105409
105313
105219
105090
104975
104817
104676
104472
104288
104026
103803
103484
103233
102851
102575
102110
101810
101236
100919
100200
99877.5
98963
98654.5
97471.7
97211.6
95655.8
95499.9
93418.7