/*--------------------------------*- C++ -*----------------------------------*\
| =========                 |                                                 |
| \\      /  F ield         | OpenFOAM: The Open Source CFD Toolbox           |
|  \\    /   O peration     | Version:  2412                                  |
|   \\  /    A nd           | Website:  www.openfoam.com                      |
|    \\/     M anipulation  |                                                 |
\*---------------------------------------------------------------------------*/
FoamFile
{
    version     2.0;
    format      ascii;
    arch        "LSB;label=32;scalar=64";
    class       surfaceScalarField;
    location    "0.7";
    object      phi;
}
// * * * * * * * * * * * * * * * * * * * * * * * * * * * * * * * * * * * * * //

dimensions      [0 3 -1 0 0 0 0];

oriented        oriented;

internalField   nonuniform List<scalar> 
25905
(
0.00747748
-0.013006
0.00739368
-0.0114959
0.00732225
-0.0101597
0.00726095
-0.00895511
0.00721043
-0.00748138
0.00717278
-0.00533386
0.00715108
-0.00226984
0.00714745
0.00137739
0.00716374
0.0049922
0.00720038
0.00788915
0.0072549
0.00962388
0.00732083
0.0100963
0.00738877
0.00952094
0.0074504
0.00836841
0.00750161
0.00709238
0.0075434
0.0060333
0.00757847
0.00521213
0.00760943
0.00461999
0.00763705
0.00409418
0.00766216
0.00368142
0.00768461
0.00326841
0.00770516
0.00296403
0.00772334
0.00261385
0.00774019
0.00240526
0.00775481
0.00209261
0.00776854
0.0019533
0.00778003
0.001653
0.00779105
0.00157749
0.0077996
0.0012573
0.0078083
0.00126587
0.00781409
0.000898965
0.00782071
0.00099515
0.00782375
0.000550595
0.0078286
0.000774453
0.00782894
0.000223792
0.00783237
0.00061457
0.00782991
-9.18366e-05
0.0078324
0.000544573
0.0078271
-0.000374498
0.0078294
0.000605684
0.00782215
-0.000514449
0.00782693
0.000985749
0.00782138
-0.000300013
0.00783397
0.00180348
0.00783536
0.000212755
0.00785899
0.00256391
0.00786492
-8.2385e-06
0.00788596
0.00128849
0.00787609
-0.0029399
0.00785953
-0.00511889
0.00780196
-0.0114114
0.00764497
-0.0267157
0.00736511
-0.0434557
0.00742096
0.00684606
0.00762079
0.0290524
0.00774587
0.0182559
0.00778968
0.00850162
0.00781808
0.00634273
0.00780554
0.000633337
0.00779689
0.000674833
0.00777215
-0.00191412
0.00776349
-0.000303838
0.00774859
-0.00140901
0.00774746
0.000234377
0.00774126
-0.000449453
0.00774539
0.000836327
0.00774602
0.000319313
0.00775424
0.00119531
0.00775916
0.000688592
0.00776816
0.00115265
0.00777292
0.000593354
0.00777836
0.000686866
0.0077789
8.51011e-05
0.00777817
-5.37998e-05
0.00777281
-0.000622122
0.00776553
-0.00085013
0.00775456
-0.00130276
0.00774191
-0.00150956
0.00772712
-0.00177846
0.00771167
-0.00187872
0.00769572
-0.00196057
0.00768006
-0.00196395
0.00766527
-0.00188896
0.00765126
-0.00184436
0.00763883
-0.00167428
0.00762695
-0.00164965
0.00761679
-0.00144389
0.00760646
-0.00148054
0.00759801
-0.00124132
0.0075884
-0.00136456
0.00758103
-0.00108476
0.00757161
-0.00125514
0.0075653
-0.00090507
0.00755636
-0.00103479
0.00755184
-0.000597028
0.00754526
-0.000507987
0.00754469
3.38423e-05
0.00754512
0.000551196
0.00168928
0.00747744
-0.0129077
0.00739351
-0.011412
0.0073219
-0.0100881
0.00726038
-0.00889359
0.00720969
-0.00743068
0.00717196
-0.00529613
0.00715037
-0.00224825
0.00714705
0.00138071
0.00716383
0.00497542
0.00720105
0.00785193
0.00725608
0.00956884
0.00732234
0.01003
0.00739043
0.00945285
0.00745211
0.00830674
0.00750336
0.00704112
0.00754523
0.00599143
0.0075804
0.00517696
0.00761146
0.00458893
0.00763917
0.00406647
0.00766434
0.00365624
0.00768685
0.00324591
0.00770745
0.00294343
0.00772567
0.00259563
0.00774256
0.00238837
0.00775721
0.00207795
0.00777097
0.00193955
0.00778248
0.00164149
0.00779353
0.00156644
0.0078021
0.00124873
0.00781082
0.00125715
0.00781664
0.000893144
0.00782328
0.000988515
0.00782634
0.000547529
0.00783121
0.000769586
0.00783158
0.000223422
0.00783502
0.000611122
0.00783259
-8.94058e-05
0.00783511
0.00054206
0.00782985
-0.000369243
0.00783219
0.000603345
0.00782502
-0.000507277
0.00782986
0.000980905
0.0078244
-0.000294548
0.00783703
0.00179085
0.00783847
0.000211322
0.00786206
0.00254032
0.0078679
-1.40834e-05
0.00788874
0.00126765
0.00787863
-0.00292979
0.00786157
-0.00510184
0.00780333
-0.0113532
0.00764518
-0.0265575
0.00736399
-0.0431745
0.00741977
0.00679027
0.0076203
0.0288519
0.00774587
0.0181303
0.00779016
0.00845733
0.00781895
0.00631394
0.00780672
0.000645566
0.00779831
0.000683248
0.00777372
-0.00188953
0.00776514
-0.000295255
0.00775026
-0.00139413
0.00774913
0.000235508
0.00774292
-0.000443249
0.00774704
0.000832215
0.00774764
0.000318708
0.00775582
0.00118713
0.0077607
0.000683715
0.00776966
0.00114369
0.00777439
0.000588623
0.0077798
0.000681453
0.00778033
8.45733e-05
0.0077796
-5.30707e-05
0.00777426
-0.000616783
0.00776701
-0.000842874
0.00775607
-0.00129182
0.00774346
-0.00149694
0.00772871
-0.00176371
0.00771329
-0.0018633
0.00769737
-0.00194465
0.00768174
-0.00194832
0.00766696
-0.00187418
0.00765295
-0.00183035
0.00764052
-0.00166185
0.00762862
-0.00163775
0.00761844
-0.00143372
0.0076081
-0.0014702
0.00759964
-0.00123285
0.00759003
-0.00135495
0.00758267
-0.0010774
0.00757329
-0.00124575
0.00756702
-0.000898801
0.00755817
-0.00102595
0.00755374
-0.000592595
0.00754733
-0.000501574
0.00754691
3.42584e-05
0.00754759
0.000550516
0.00167711
0.00747739
-0.0128093
0.00739334
-0.0113279
0.00732155
-0.0100163
0.00725983
-0.00883187
0.00720896
-0.00737981
0.00717115
-0.00525833
0.00714966
-0.00222676
0.00714665
0.00138372
0.00716392
0.00495815
0.0072017
0.00781415
0.00725724
0.0095133
0.00732383
0.00996341
0.00739206
0.00938462
0.00745378
0.00824501
0.00750509
0.00698982
0.00754704
0.00594948
0.00758231
0.00514168
0.00761347
0.00455777
0.00764126
0.00403868
0.00766651
0.00363099
0.00768908
0.00322334
0.00770972
0.00292278
0.00772798
0.00257737
0.00774491
0.00237145
0.00775959
0.00206327
0.00777338
0.00192576
0.00778492
0.00162995
0.00779599
0.00155537
0.00780458
0.00124013
0.00781333
0.00124841
0.00781917
0.0008873
0.00782583
0.000981859
0.00782892
0.00054444
0.0078338
0.000764699
0.0078342
0.000223028
0.00783766
0.000607655
0.00783526
-8.70042e-05
0.0078378
0.00053952
0.00783259
-0.000364031
0.00783497
0.000600963
0.00782787
-0.000500173
0.00783277
0.000975997
0.00782739
-0.000289166
0.00784008
0.00177816
0.00784155
0.000209848
0.0078651
0.00251678
0.00787086
-1.98445e-05
0.00789149
0.00124702
0.00788114
-0.00291944
0.0078636
-0.0050843
0.00780468
-0.0112943
0.00764538
-0.0263982
0.00736287
-0.042892
0.00741859
0.00673455
0.00761982
0.0286506
0.00774586
0.0180043
0.00779063
0.00841256
0.00781981
0.00628476
0.0078079
0.000657478
0.00779972
0.000691428
0.00777529
-0.00186511
0.00776678
-0.000286743
0.00775192
-0.00137927
0.00775078
0.000236644
0.00774457
-0.000437037
0.00774867
0.000828117
0.00774925
0.000318123
0.0077574
0.00117898
0.00776224
0.000678878
0.00777115
0.00113478
0.00777585
0.000583925
0.00778124
0.000676063
0.00778176
8.40547e-05
0.00778103
-5.23452e-05
0.00777571
-0.00061146
0.00776848
-0.000835644
0.00775758
-0.00128092
0.007745
-0.00148437
0.00773029
-0.001749
0.00771491
-0.00184792
0.00769902
-0.00192876
0.00768341
-0.00193271
0.00766864
-0.00185941
0.00765463
-0.00181634
0.0076422
-0.00164942
0.00763028
-0.00162584
0.00762009
-0.00142353
0.00760974
-0.00145985
0.00760126
-0.00122438
0.00759165
-0.00134534
0.0075843
-0.00107005
0.00757496
-0.00123641
0.00756873
-0.000892574
0.00755998
-0.0010172
0.00755563
-0.00058825
0.00754939
-0.000495329
0.00754912
3.45253e-05
0.00755004
0.000549593
0.00166473
0.00747735
-0.0127109
0.00739318
-0.0112438
0.00732121
-0.00994434
0.00725929
-0.00876995
0.00720823
-0.00732876
0.00717036
-0.00522045
0.00714896
-0.00220536
0.00714626
0.00138641
0.00716402
0.00494039
0.00720236
0.00777581
0.00725839
0.00945727
0.0073253
0.0098965
0.00739367
0.00931624
0.00745544
0.00818324
0.00750679
0.00693847
0.00754883
0.00590744
0.00758421
0.0051063
0.00761547
0.00452651
0.00764334
0.00401081
0.00766866
0.00360568
0.00769128
0.00320071
0.00771198
0.00290209
0.00773028
0.00255907
0.00774724
0.00235449
0.00776196
0.00204855
0.00777577
0.00191195
0.00778734
0.00161839
0.00779843
0.00154428
0.00780705
0.00123151
0.00781582
0.00123965
0.00782168
0.000881432
0.00782836
0.000975182
0.00783147
0.000541328
0.00783638
0.000759793
0.0078368
0.000222611
0.00784029
0.000604167
0.00783791
-8.46312e-05
0.00784048
0.000536955
0.00783531
-0.000358861
0.00783773
0.00059854
0.0078307
-0.000493138
0.00783567
0.000971027
0.00783037
-0.000283868
0.0078431
0.00176543
0.00784462
0.000208333
0.00786811
0.00249328
0.00787379
-2.55222e-05
0.00789422
0.00122659
0.00788363
-0.00290885
0.00786561
-0.00506627
0.00780602
-0.0112347
0.00764557
-0.0262378
0.00736176
-0.0426082
0.00741741
0.00667889
0.00761933
0.0284487
0.00774584
0.0178778
0.00779109
0.00836731
0.00782066
0.0062552
0.00780906
0.000669074
0.00780111
0.000699375
0.00777684
-0.00184083
0.0077684
-0.000278304
0.00775357
-0.00136444
0.00775243
0.000237784
0.00774621
-0.000430822
0.00775029
0.000824034
0.00775086
0.000317559
0.00775897
0.00117087
0.00776377
0.000674082
0.00777264
0.00112591
0.0077773
0.00057926
0.00778267
0.000670697
0.00778318
8.35447e-05
0.00778246
-5.16231e-05
0.00777715
-0.000606153
0.00776995
-0.000828439
0.00775908
-0.00127006
0.00774654
-0.00147183
0.00773187
-0.00173433
0.00771652
-0.00183257
0.00770067
-0.00191291
0.00768507
-0.00191711
0.00767032
-0.00184466
0.00765631
-0.00180232
0.00764387
-0.00163698
0.00763194
-0.00161391
0.00762173
-0.00141332
0.00761136
-0.00144948
0.00760288
-0.00121589
0.00759327
-0.00133573
0.00758593
-0.00106271
0.00757662
-0.0012271
0.00757043
-0.000886388
0.00756177
-0.00100854
0.00755752
-0.000583992
0.00755144
-0.000489251
0.00755132
3.46446e-05
0.00755248
0.00054843
0.00165214
0.0074773
-0.0126124
0.00739301
-0.0111595
0.00732087
-0.0098722
0.00725875
-0.00870783
0.00720752
-0.00727754
0.00716957
-0.00518249
0.00714827
-0.00218407
0.00714588
0.00138881
0.00716412
0.00492215
0.00720301
0.00773692
0.00725953
0.00940076
0.00732675
0.00982927
0.00739527
0.00924773
0.00745709
0.00812142
0.00750849
0.00688707
0.00755061
0.00586532
0.00758609
0.00507082
0.00761745
0.00449515
0.00764541
0.00398285
0.00767079
0.00358029
0.00769348
0.00317803
0.00771422
0.00288134
0.00773256
0.00254073
0.00774956
0.00233749
0.00776431
0.0020338
0.00777815
0.00189811
0.00778974
0.00160679
0.00780086
0.00153316
0.0078095
0.00122287
0.00781829
0.00123086
0.00782418
0.000875541
0.00783088
0.000968484
0.00783401
0.000538192
0.00783894
0.000754867
0.00783938
0.000222169
0.00784289
0.00060066
0.00784055
-8.22868e-05
0.00784314
0.000534363
0.00783801
-0.000353734
0.00784048
0.000596074
0.00783351
-0.00048617
0.00783854
0.000965995
0.00783332
-0.000278651
0.00784611
0.00175264
0.00784766
0.00020678
0.00787111
0.00246983
0.00787671
-3.11167e-05
0.00789694
0.00120636
0.00788611
-0.00289802
0.0078676
-0.00504776
0.00780735
-0.0111744
0.00764576
-0.0260762
0.00736065
-0.0423231
0.00741624
0.00662331
0.00761884
0.0282461
0.00774581
0.0177508
0.00779153
0.00832159
0.00782148
0.00622525
0.00781021
0.000680352
0.00780249
0.000707086
0.00777838
-0.00181672
0.00777001
-0.000269938
0.0077552
-0.00134963
0.00775406
0.000238927
0.00774784
-0.000424602
0.00775191
0.000819963
0.00775245
0.000317016
0.00776053
0.00116279
0.00776529
0.000669325
0.00777412
0.00111707
0.00777875
0.000574628
0.00778409
0.000665353
0.0077846
8.30435e-05
0.00778388
-5.09046e-05
0.00777859
-0.000600863
0.00777141
-0.000821259
0.00776057
-0.00125922
0.00774807
-0.00145932
0.00773344
-0.0017197
0.00771813
-0.00181726
0.0077023
-0.00189708
0.00768673
-0.00190154
0.00767199
-0.00182992
0.00765798
-0.00178831
0.00764553
-0.00162453
0.00763359
-0.00160197
0.00762337
-0.0014031
0.00761298
-0.00143909
0.00760449
-0.0012074
0.00759488
-0.00132613
0.00758755
-0.00105538
0.00757828
-0.00121782
0.00757213
-0.000880243
0.00756356
-0.000999966
0.00755939
-0.000579819
0.00755347
-0.000483337
0.0075535
3.46178e-05
0.0075549
0.000547032
0.00163935
0.00747726
-0.0125139
0.00739285
-0.0110751
0.00732053
-0.00979987
0.00725822
-0.00864551
0.00720682
-0.00722614
0.00716879
-0.00514447
0.00714759
-0.00216287
0.00714551
0.00139089
0.00716423
0.00490344
0.00720367
0.00769747
0.00726067
0.00934376
0.0073282
0.00976174
0.00739685
0.00917908
0.00745872
0.00805956
0.00751017
0.00683562
0.00755238
0.00582311
0.00758796
0.00503523
0.00761942
0.0044637
0.00764746
0.00395481
0.00767291
0.00355484
0.00769565
0.00315529
0.00771644
0.00286055
0.00773483
0.00252234
0.00775186
0.00232046
0.00776664
0.00201902
0.00778051
0.00188424
0.00779213
0.00159518
0.00780327
0.00152202
0.00781194
0.0012142
0.00782075
0.00122205
0.00782666
0.000869626
0.00783338
0.000961766
0.00783654
0.000535034
0.00784149
0.000749922
0.00784195
0.000221703
0.00784548
0.000597133
0.00784316
-7.99711e-05
0.00784578
0.000531747
0.00784069
-0.000348649
0.0078432
0.000593566
0.0078363
-0.000479269
0.00784139
0.000960902
0.00783626
-0.000273517
0.00784909
0.00173981
0.00785068
0.000205188
0.00787409
0.00244642
0.0078796
-3.66287e-05
0.00789963
0.00118634
0.00788856
-0.00288696
0.00786957
-0.00502877
0.00780866
-0.0111135
0.00764595
-0.0259135
0.00735956
-0.0420367
0.00741508
0.00656778
0.00761834
0.0280429
0.00774577
0.0176234
0.00779196
0.0082754
0.0078223
0.00619491
0.00781134
0.000691314
0.00780386
0.000714562
0.0077799
-0.00179276
0.00777161
-0.000261644
0.00775682
-0.00133484
0.00775568
0.000240072
0.00774946
-0.00041838
0.00775351
0.000815905
0.00775404
0.000316491
0.00776208
0.00115475
0.0077668
0.000664607
0.00777559
0.00110828
0.00778019
0.000570028
0.00778551
0.000660033
0.007786
8.25504e-05
0.00778529
-5.01897e-05
0.00778002
-0.000595588
0.00777286
-0.000814105
0.00776206
-0.00124842
0.00774959
-0.00144686
0.007735
-0.0017051
0.00771972
-0.00180198
0.00770393
-0.00188128
0.00768838
-0.00188599
0.00767365
-0.00181519
0.00765964
-0.0017743
0.00764718
-0.00161207
0.00763523
-0.00159001
0.00762499
-0.00139286
0.00761459
-0.00142869
0.00760609
-0.00119889
0.00759648
-0.00131652
0.00758916
-0.00104806
0.00757992
-0.00120858
0.00757382
-0.000874139
0.00756533
-0.000991482
0.00756125
-0.000575732
0.0075555
-0.000477586
0.00755567
3.44463e-05
0.0075573
0.0005454
0.00162636
0.00747721
-0.0124154
0.00739269
-0.0109905
0.0073202
-0.00972738
0.00725769
-0.00858301
0.00720613
-0.00717457
0.00716803
-0.00510637
0.00714693
-0.00214176
0.00714514
0.00139268
0.00716434
0.00488424
0.00720433
0.00765748
0.0072618
0.00928628
0.00732964
0.0096939
0.00739842
0.0091103
0.00746034
0.00799764
0.00751184
0.00678412
0.00755413
0.00578081
0.00758982
0.00499954
0.00762137
0.00443215
0.0076495
0.00392669
0.00767502
0.00352932
0.00769781
0.00313249
0.00771865
0.00283971
0.00773708
0.00250392
0.00775414
0.00230339
0.00776896
0.0020042
0.00778285
0.00187035
0.0077945
0.00158353
0.00780566
0.00151085
0.00781436
0.0012055
0.00782319
0.00121322
0.00782913
0.000863688
0.00783587
0.000955026
0.00783905
0.000531853
0.00784401
0.000744957
0.0078445
0.000221214
0.00784805
0.000593586
0.00784576
-7.76838e-05
0.00784841
0.000529104
0.00784336
-0.000343606
0.00784591
0.000591017
0.00783908
-0.000472434
0.00784423
0.000955748
0.00783918
-0.000268463
0.00785205
0.00172694
0.00785368
0.000203558
0.00787705
0.00242305
0.00788247
-4.20576e-05
0.0079023
0.00116651
0.007891
-0.00287566
0.00787153
-0.0050093
0.00780996
-0.0110519
0.00764613
-0.0257496
0.00735847
-0.0417491
0.00741392
0.00651233
0.00761784
0.027839
0.00774572
0.0174955
0.00779237
0.00822874
0.00782309
0.00616419
0.00781245
0.000701957
0.00780521
0.000721802
0.00778141
-0.00176896
0.00777319
-0.000253426
0.00775843
-0.00132008
0.00775729
0.000241218
0.00775106
-0.000412156
0.00775511
0.000811857
0.00775562
0.000315983
0.00776363
0.00114674
0.00776831
0.000659928
0.00777706
0.00109953
0.00778162
0.00056546
0.00778692
0.000654735
0.00778741
8.20656e-05
0.00778669
-4.94785e-05
0.00778144
-0.00059033
0.00777431
-0.000806976
0.00776354
-0.00123766
0.00775111
-0.00143443
0.00773655
-0.00169055
0.00772131
-0.00178673
0.00770555
-0.00186552
0.00769002
-0.00187046
0.0076753
-0.00180048
0.00766129
-0.00176029
0.00764883
-0.00159961
0.00763686
-0.00157804
0.0076266
-0.00138261
0.00761619
-0.00141828
0.00760768
-0.00119038
0.00759807
-0.00130692
0.00759076
-0.00104075
0.00758156
-0.00119938
0.00757549
-0.000868076
0.0075671
-0.000983086
0.00756309
-0.000571729
0.00755751
-0.000471997
0.00755782
3.41315e-05
0.00755968
0.000543539
0.00161318
0.00747717
-0.0123168
0.00739254
-0.0109059
0.00731988
-0.00965472
0.00725718
-0.00852031
0.00720544
-0.00712284
0.00716728
-0.0050682
0.00714627
-0.00212076
0.00714479
0.00139416
0.00716446
0.00486457
0.00720499
0.00761695
0.00726293
0.00922834
0.00733107
0.00962577
0.00739998
0.00904139
0.00746194
0.00793568
0.00751349
0.00673257
0.00755587
0.00573843
0.00759167
0.00496375
0.00762331
0.0044005
0.00765152
0.00389849
0.00767711
0.00350373
0.00769996
0.00310964
0.00772085
0.00281883
0.00773931
0.00248545
0.00775641
0.00228629
0.00777126
0.00198936
0.00778518
0.00185643
0.00779685
0.00157186
0.00780804
0.00149966
0.00781676
0.00119678
0.00782562
0.00120437
0.00783158
0.000857727
0.00783834
0.000948267
0.00784154
0.000528648
0.00784652
0.000739972
0.00784704
0.000220701
0.0078506
0.000590019
0.00784835
-7.54243e-05
0.00785101
0.000526436
0.00784601
-0.000338605
0.0078486
0.000588426
0.00784183
-0.000465666
0.00784705
0.000950533
0.00784207
-0.000263488
0.007855
0.00171402
0.00785666
0.000201891
0.00787998
0.00239974
0.00788533
-4.74043e-05
0.00790495
0.00114688
0.00789342
-0.00286412
0.00787347
-0.00498935
0.00781124
-0.0109897
0.0076463
-0.0255847
0.00735738
-0.0414601
0.00741277
0.00645695
0.00761734
0.0276344
0.00774565
0.0173672
0.00779277
0.00818162
0.00782387
0.00613308
0.00781355
0.000712285
0.00780654
0.000728805
0.0077829
-0.00174532
0.00777476
-0.000245283
0.00776003
-0.00130535
0.00775888
0.000242364
0.00775266
-0.000405931
0.0077567
0.00080782
0.00775719
0.000315493
0.00776516
0.00113877
0.0077698
0.000655286
0.00777851
0.00109083
0.00778305
0.000560924
0.00778832
0.000649459
0.0077888
8.1589e-05
0.00778809
-4.8771e-05
0.00778285
-0.000585087
0.00777575
-0.000799871
0.00776501
-0.00122692
0.00775262
-0.00142203
0.0077381
-0.00167603
0.00772289
-0.00177152
0.00770715
-0.00184978
0.00769164
-0.00185495
0.00767694
-0.00178577
0.00766293
-0.00174628
0.00765046
-0.00158715
0.00763848
-0.00156605
0.00762821
-0.00137234
0.00761778
-0.00140785
0.00760926
-0.00118186
0.00759966
-0.00129732
0.00759236
-0.00103344
0.00758319
-0.0011902
0.00757716
-0.000862052
0.00756885
-0.000974778
0.00756493
-0.00056781
0.0075595
-0.000466568
0.00755996
3.3675e-05
0.00756205
0.00054145
0.00159979
0.00747713
-0.0122182
0.00739238
-0.0108212
0.00731955
-0.00958189
0.00725667
-0.00845742
0.00720477
-0.00707094
0.00716653
-0.00502997
0.00714563
-0.00209985
0.00714444
0.00139535
0.00716458
0.00484444
0.00720565
0.00757588
0.00726405
0.00916994
0.00733248
0.00955734
0.00740152
0.00897235
0.00746353
0.00787368
0.00751513
0.00668096
0.0075576
0.00569597
0.0075935
0.00492786
0.00762524
0.00436875
0.00765353
0.0038702
0.00767918
0.00347807
0.00770209
0.00308673
0.00772303
0.00279789
0.00774153
0.00246694
0.00775867
0.00226916
0.00777354
0.00197448
0.0077875
0.00184247
0.00779919
0.00156016
0.00781041
0.00148845
0.00781915
0.00118804
0.00782802
0.00119549
0.00783401
0.000851743
0.00784079
0.000941486
0.00784402
0.000525421
0.00784902
0.000734969
0.00784956
0.000220165
0.00785314
0.000586432
0.00785091
-7.31933e-05
0.0078536
0.000523742
0.00784864
-0.000333645
0.00785128
0.000585794
0.00784457
-0.000458962
0.00784985
0.000945259
0.00784495
-0.000258592
0.00785792
0.00170105
0.00785962
0.000200187
0.00788289
0.00237647
0.00788816
-5.26684e-05
0.00790759
0.00112745
0.00789581
-0.00285234
0.00787539
-0.00496893
0.00781252
-0.0109268
0.00764647
-0.0254187
0.00735631
-0.04117
0.00741162
0.00640163
0.00761683
0.0274292
0.00774557
0.0172384
0.00779315
0.00813405
0.00782464
0.00610159
0.00781463
0.000722295
0.00780786
0.000735571
0.00778438
-0.00172185
0.00777632
-0.000237215
0.00776161
-0.00129064
0.00776047
0.000243509
0.00775424
-0.000399707
0.00775827
0.000803792
0.00775874
0.000315019
0.00776669
0.00113082
0.00777129
0.000650681
0.00777996
0.00108216
0.00778447
0.00055642
0.00778972
0.000644206
0.00779019
8.11205e-05
0.00778949
-4.80673e-05
0.00778426
-0.000579861
0.00777718
-0.000792791
0.00776648
-0.00121622
0.00775412
-0.00140968
0.00773964
-0.00166155
0.00772446
-0.00175635
0.00770875
-0.00183407
0.00769326
-0.00183946
0.00767857
-0.00177108
0.00766456
-0.00173227
0.00765209
-0.00157467
0.00764009
-0.00155406
0.00762981
-0.00136206
0.00761937
-0.00139741
0.00761083
-0.00117333
0.00760123
-0.00128772
0.00759394
-0.00102615
0.0075848
-0.00118107
0.00757882
-0.000856067
0.0075706
-0.000966555
0.00756676
-0.000563974
0.00756149
-0.000461297
0.00756209
3.3078e-05
0.0075644
0.000539137
0.00158622
0.00747709
-0.0121195
0.00739223
-0.0107363
0.00731924
-0.0095089
0.00725617
-0.00839435
0.00720411
-0.00701888
0.0071658
-0.00499166
0.00714499
-0.00207904
0.0071441
0.00139623
0.00716471
0.00482383
0.00720631
0.00753428
0.00726517
0.00911108
0.00733389
0.00948863
0.00740305
0.00890318
0.0074651
0.00781162
0.00751676
0.00662931
0.00755931
0.00565341
0.00759531
0.00489186
0.00762715
0.00433691
0.00765552
0.00384184
0.00768124
0.00345235
0.00770421
0.00306376
0.00772519
0.00277691
0.00774374
0.0024484
0.00776091
0.00225199
0.00777582
0.00195958
0.00778979
0.0018285
0.00780152
0.00154844
0.00781275
0.00147721
0.00782152
0.00117928
0.00783042
0.00118659
0.00783642
0.000845735
0.00784323
0.000934686
0.00784647
0.000522172
0.0078515
0.000729946
0.00785206
0.000219605
0.00785566
0.000582826
0.00785346
-7.09901e-05
0.00785618
0.000521023
0.00785126
-0.000328726
0.00785393
0.000583121
0.0078473
-0.000452324
0.00785263
0.000939925
0.00784781
-0.000253775
0.00786082
0.00168804
0.00786256
0.000198448
0.00788579
0.00235324
0.00789097
-5.78505e-05
0.0079102
0.00110822
0.00789819
-0.00284034
0.0078773
-0.00494803
0.00781377
-0.0108633
0.00764664
-0.0252515
0.00735524
-0.0408786
0.00741048
0.00634639
0.00761632
0.0272233
0.00774549
0.0171093
0.00779352
0.00808602
0.00782539
0.00606972
0.0078157
0.000731987
0.00780917
0.000742099
0.00778585
-0.00169853
0.00777786
-0.000229225
0.00776318
-0.00127597
0.00776204
0.000244652
0.00775582
-0.000393483
0.00775984
0.000799772
0.00776029
0.00031456
0.00776821
0.00112291
0.00777278
0.000646113
0.00778141
0.00107353
0.00778588
0.000551948
0.00779111
0.000638975
0.00779157
8.06599e-05
0.00779087
-4.73674e-05
0.00778566
-0.00057465
0.0077786
-0.000785736
0.00776793
-0.00120555
0.00775561
-0.00139735
0.00774117
-0.0016471
0.00772602
-0.00174121
0.00771034
-0.0018184
0.00769487
-0.00182399
0.00768019
-0.0017564
0.00766618
-0.00171827
0.0076537
-0.00156219
0.00764169
-0.00154205
0.0076314
-0.00135176
0.00762094
-0.00138695
0.0076124
-0.00116479
0.0076028
-0.00127812
0.00759552
-0.00101887
0.00758641
-0.00117196
0.00758047
-0.000850121
0.00757233
-0.000958418
0.00756858
-0.000560219
0.00756346
-0.000456183
0.0075642
3.2342e-05
0.00756673
0.000536602
0.00157245
0.00747705
-0.0120208
0.00739208
-0.0106513
0.00731892
-0.00943575
0.00725567
-0.0083311
0.00720345
-0.00696666
0.00716508
-0.00495329
0.00714436
-0.00205832
0.00714378
0.00139682
0.00716484
0.00480276
0.00720697
0.00749216
0.00726628
0.00905176
0.00733528
0.00941963
0.00740457
0.00883389
0.00746667
0.00774952
0.00751838
0.0065776
0.00756102
0.00561077
0.00759712
0.00485576
0.00762905
0.00430498
0.0076575
0.00381339
0.00768329
0.00342656
0.00770631
0.00304074
0.00772734
0.00275588
0.00774593
0.00242981
0.00776313
0.00223479
0.00777807
0.00194464
0.00779208
0.00181449
0.00780383
0.00153669
0.00781509
0.00146595
0.00782388
0.00117049
0.00783279
0.00117768
0.00783882
0.000839705
0.00784565
0.000927865
0.00784892
0.0005189
0.00785396
0.000724905
0.00785454
0.000219023
0.00785817
0.000579201
0.00785599
-6.88145e-05
0.00785874
0.000518278
0.00785386
-0.000323849
0.00785657
0.000580407
0.00785
-0.00044575
0.00785539
0.000934534
0.00785065
-0.000249034
0.0078637
0.00167498
0.00786548
0.000196674
0.00788866
0.00233006
0.00789376
-6.29512e-05
0.0079128
0.00108918
0.00790055
-0.00282809
0.00787919
-0.00492666
0.00781502
-0.0107991
0.0076468
-0.0250833
0.00735417
-0.0405859
0.00740935
0.00629121
0.00761581
0.0270169
0.00774539
0.0169797
0.00779387
0.00803753
0.00782612
0.00603747
0.00781675
0.000741362
0.00781046
0.000748387
0.0077873
-0.00167537
0.00777939
-0.000221312
0.00776474
-0.00126132
0.0077636
0.000245793
0.00775738
-0.000387261
0.00776139
0.000795759
0.00776184
0.000314116
0.00776972
0.00111503
0.00777425
0.000641582
0.00778284
0.00106494
0.00778728
0.000547507
0.00779249
0.000633765
0.00779294
8.02073e-05
0.00779225
-4.66715e-05
0.00778705
-0.000569455
0.00778002
-0.000778704
0.00776938
-0.00119491
0.00775709
-0.00138506
0.00774269
-0.0016327
0.00772758
-0.0017261
0.00771193
-0.00180274
0.00769648
-0.00180854
0.0076818
-0.00174173
0.0076678
-0.00170426
0.00765531
-0.00154971
0.00764329
-0.00153002
0.00763298
-0.00134145
0.00762251
-0.00137648
0.00761396
-0.00115624
0.00760436
-0.00126852
0.00759708
-0.00101159
0.00758801
-0.00116289
0.00758211
-0.000844214
0.00757405
-0.000950366
0.00757038
-0.000556546
0.00756542
-0.000451224
0.0075663
3.14683e-05
0.00756905
0.00053385
0.00155849
0.007477
-0.011922
0.00739193
-0.0105663
0.00731861
-0.00936243
0.00725518
-0.00826767
0.00720281
-0.00691428
0.00716437
-0.00491486
0.00714375
-0.0020377
0.00714345
0.00139711
0.00716498
0.00478123
0.00720763
0.00744951
0.00726739
0.00899201
0.00733666
0.00935035
0.00740607
0.00876449
0.00746821
0.00768738
0.00751998
0.00652583
0.00756271
0.00556804
0.00759891
0.00481956
0.00763094
0.00427295
0.00765946
0.00378486
0.00768532
0.0034007
0.0077084
0.00301766
0.00772947
0.00273481
0.0077481
0.00241118
0.00776534
0.00221755
0.00778031
0.00192967
0.00779434
0.00180046
0.00780612
0.00152491
0.0078174
0.00145467
0.00782621
0.00116167
0.00783515
0.00116874
0.00784121
0.000833652
0.00784805
0.000921024
0.00785134
0.000515606
0.0078564
0.000719844
0.00785701
0.000218417
0.00786065
0.000575556
0.00785851
-6.66669e-05
0.00786128
0.000515509
0.00785644
-0.000319012
0.00785919
0.000577653
0.00785268
-0.000439241
0.00785813
0.000929084
0.00785347
-0.00024437
0.00786657
0.00166189
0.00786838
0.000194866
0.00789151
0.00230692
0.00789653
-6.797e-05
0.00791537
0.00107034
0.0079029
-0.00281562
0.00788106
-0.00490483
0.00781625
-0.0107343
0.00764695
-0.024914
0.00735312
-0.0402921
0.00740822
0.0062361
0.00761529
0.0268098
0.00774528
0.0168497
0.00779421
0.0079886
0.00782684
0.00600484
0.00781778
0.000750418
0.00781173
0.000754437
0.00778874
-0.00165237
0.0077809
-0.000213477
0.00776628
-0.0012467
0.00776515
0.000246929
0.00775893
-0.000381043
0.00776294
0.000791752
0.00776337
0.000313685
0.00777122
0.00110717
0.00777572
0.000637086
0.00778427
0.00105638
0.00778868
0.000543096
0.00779387
0.000628578
0.00779431
7.97625e-05
0.00779362
-4.59793e-05
0.00778844
-0.000564275
0.00778143
-0.000771697
0.00777082
-0.0011843
0.00775857
-0.00137281
0.0077442
-0.00161832
0.00772912
-0.00171102
0.0077135
-0.00178712
0.00769807
-0.00179311
0.00768341
-0.00172707
0.0076694
-0.00169025
0.00765691
-0.00153721
0.00764487
-0.00151798
0.00763455
-0.00133113
0.00762406
-0.001366
0.0076155
-0.00114768
0.00760591
-0.00125892
0.00759864
-0.00100433
0.0075896
-0.00115385
0.00758373
-0.000838345
0.00757577
-0.000942398
0.00757217
-0.000552953
0.00756737
-0.000446419
0.00756838
3.04585e-05
0.00757135
0.000530881
0.00154435
0.00747696
-0.0118232
0.00739178
-0.0104811
0.00731831
-0.00928896
0.0072547
-0.00820407
0.00720217
-0.00686175
0.00716367
-0.00487635
0.00714314
-0.00201717
0.00714314
0.00139711
0.00716513
0.00475924
0.00720829
0.00740635
0.00726848
0.00893181
0.00733804
0.0092808
0.00740756
0.00869496
0.00746975
0.00762519
0.00752157
0.00647401
0.00756438
0.00552523
0.00760068
0.00478326
0.00763281
0.00424082
0.00766142
0.00375625
0.00768734
0.00337477
0.00771047
0.00299453
0.00773159
0.00271369
0.00775026
0.00239251
0.00776753
0.00220028
0.00778253
0.00191467
0.00779659
0.0017864
0.00780839
0.00151311
0.0078197
0.00144336
0.00782854
0.00115284
0.0078375
0.00115977
0.00784357
0.000827577
0.00785043
0.000914163
0.00785375
0.00051229
0.00785883
0.000714765
0.00785946
0.000217789
0.00786312
0.000571892
0.007861
-6.45465e-05
0.0078638
0.000512714
0.007859
-0.000314216
0.0078618
0.000574859
0.00785535
-0.000432794
0.00786086
0.000923576
0.00785627
-0.000239782
0.00786941
0.00164874
0.00787125
0.000193024
0.00789434
0.00228383
0.00789928
-7.29076e-05
0.00791793
0.00105169
0.00790522
-0.00280291
0.00788292
-0.00488253
0.00781747
-0.0106689
0.00764711
-0.0247436
0.00735207
-0.0399971
0.0074071
0.00618107
0.00761477
0.0266022
0.00774515
0.0167193
0.00779453
0.00793923
0.00782754
0.00597183
0.0078188
0.000759156
0.00781299
0.000760247
0.00779016
-0.00162954
0.0077824
-0.000205721
0.00776782
-0.00123212
0.00776669
0.00024806
0.00776047
-0.000374828
0.00776447
0.000787751
0.00776489
0.000313268
0.00777271
0.00109935
0.00777717
0.000632625
0.00778569
0.00104787
0.00779007
0.000538717
0.00779523
0.000623412
0.00779567
7.93254e-05
0.00779498
-4.52909e-05
0.00778982
-0.000559111
0.00778283
-0.000764714
0.00777226
-0.00117373
0.00776004
-0.00136059
0.0077457
-0.00160398
0.00773065
-0.00169597
0.00771506
-0.00177153
0.00769965
-0.0017777
0.007685
-0.00171242
0.007671
-0.00167625
0.0076585
-0.00152472
0.00764645
-0.00150593
0.00763611
-0.00132079
0.00762561
-0.0013555
0.00761704
-0.00113911
0.00760745
-0.00124933
0.00760019
-0.000997073
0.00759119
-0.00114485
0.00758535
-0.000832514
0.00757747
-0.000934513
0.00757396
-0.000549439
0.0075693
-0.000441766
0.00757045
2.93136e-05
0.00757363
0.000527699
0.00153002
0.00747692
-0.0117244
0.00739164
-0.0103958
0.00731801
-0.00921534
0.00725423
-0.00814029
0.00720154
-0.00680906
0.00716297
-0.00483779
0.00714254
-0.00199674
0.00714283
0.00139682
0.00716528
0.0047368
0.00720895
0.00736268