/*--------------------------------*- C++ -*----------------------------------*\
| =========                 |                                                 |
| \\      /  F ield         | OpenFOAM: The Open Source CFD Toolbox           |
|  \\    /   O peration     | Version:  2412                                  |
|   \\  /    A nd           | Website:  www.openfoam.com                      |
|    \\/     M anipulation  |                                                 |
\*---------------------------------------------------------------------------*/
FoamFile
{
    version     2.0;
    format      ascii;
    arch        "LSB;label=32;scalar=64";
    class       volVectorField;
    location    "0.7";
    object      U;
}
// * * * * * * * * * * * * * * * * * * * * * * * * * * * * * * * * * * * * * //

dimensions      [0 1 -1 0 0 0 0];

internalField   nonuniform List<vector> 
13068
(
(100.007 0.583804 0)
(100.219 1.64728 -4.3905e-17)
(100.647 2.61381 -4.18516e-17)
(101.231 3.50998 0)
(101.987 4.59924 0)
(102.929 6.15771 0)
(104.125 8.34818 0)
(105.614 10.9559 6.62834e-17)
(107.453 13.5814 0)
(109.667 15.7675 -3.41892e-17)
(112.29 17.2259 0)
(115.246 17.8768 0)
(118.451 17.8568 0)
(121.709 17.4574 0)
(124.968 16.9758 0)
(128.134 16.6337 3.34958e-17)
(131.345 16.461 -3.21177e-17)
(134.543 16.4379 3.07656e-17)
(137.899 16.4786 2.96041e-17)
(141.26 16.5965 2.85308e-17)
(144.844 16.7369 2.76064e-17)
(148.419 16.9556 -6.37582e-22)
(152.294 17.1782 2.58361e-17)
(156.128 17.4885 -2.49209e-17)
(160.364 17.7782 -6.23644e-22)
(164.505 18.175 0)
(169.183 18.5215 0)
(173.682 19.0085 2.14407e-17)
(178.902 19.4062 -2.06897e-17)
(183.815 19.9951 0)
(189.706 20.4412 1.89577e-17)
(195.095 21.1521 0)
(201.823 21.6449 0)
(207.762 22.5073 1.60371e-17)
(215.545 23.048 -3.09141e-17)
(222.121 24.1038 0)
(231.254 24.6957 1.36875e-17)
(238.569 26.0004 -1.22299e-17)
(249.454 26.6595 6.17318e-22)
(257.647 28.3033 -1.02361e-17)
(270.855 29.0956 2.02216e-17)
(280.162 31.2249 8.19187e-18)
(296.574 32.2732 -3.90954e-22)
(307.469 35.0143 6.14335e-18)
(328.425 36.3748 6.75275e-18)
(341.694 39.5616 4.08881e-18)
(368.881 40.9927 -5.26467e-18)
(385.309 43.8499 1.90771e-18)
(420.03 45.0415 -3.76081e-18)
(440.215 46.0167 5.27216e-19)
(482.739 46.7428 2.24998e-18)
(508.052 39.4535 3.46745e-18)
(549.374 36.8959 1.2875e-21)
(576.861 0.269684 -4.88351e-19)
(550.572 -18.2772 0)
(540.577 -26.3907 -6.28014e-18)
(506.175 -30.1934 0)
(490.389 -30.4893 0)
(459.495 -32.0423 0)
(443.192 -30.8622 0)
(417.306 -30.718 0)
(402.78 -28.6452 0)
(382.123 -27.908 3.18614e-18)
(369.624 -25.951 0)
(352.999 -25.2247 1.62012e-22)
(342.052 -23.6101 3.93641e-18)
(328.446 -22.9876 -5.31026e-18)
(318.786 -21.732 5.42266e-22)
(307.46 -21.2569 6.36976e-18)
(298.817 -20.3488 -6.05128e-22)
(289.126 -20.0294 -7.41351e-18)
(281.225 -19.4113 -7.71378e-18)
(272.676 -19.2015 4.31517e-22)
(265.335 -18.7739 8.87427e-18)
(257.625 -18.6013 0)
(250.769 -18.2662 1.00492e-17)
(243.731 -18.0656 5.42867e-22)
(237.342 -17.7444 -1.12497e-17)
(230.896 -17.469 -1.18849e-17)
(224.995 -17.119 0)
(219.108 -16.7567 3.61726e-22)
(213.726 -16.3788 1.356e-17)
(208.369 -15.9513 0)
(203.518 -15.5794 -1.28196e-22)
(198.639 -15.1235 1.50454e-17)
(194.298 -14.8007 -1.55592e-17)
(189.812 -14.3443 0)
(185.947 -14.1001 -1.65291e-17)
(181.752 -13.6475 0)
(178.337 -13.4869 1.16678e-22)
(174.323 -13.0205 3.85828e-22)
(171.367 -12.9232 0)
(167.425 -12.416 -4.99345e-22)
(164.978 -12.3283 0)
(160.998 -11.7566 -1.99653e-17)
(159.161 -11.5732 0)
(155.05 -10.9285 0)
(153.967 -10.5138 0)
(149.691 -9.46712 0)
(100.007 0.578177 -4.51889e-17)
(100.218 1.63154 4.3922e-17)
(100.644 2.58909 -4.18746e-17)
(101.224 3.47757 0)
(101.978 4.55854 0)
(102.917 6.10723 0)
(104.114 8.28586 0)
(105.605 10.8804 -3.31246e-17)
(107.45 13.4915 0)
(109.673 15.6629 3.41388e-17)
(112.305 17.108 0)
(115.268 17.7496 -3.54323e-17)
(118.477 17.7259 3.57018e-17)
(121.736 17.3281 3.54677e-17)
(124.997 16.8507 0)
(128.164 16.5123 -3.34663e-17)
(131.378 16.3413 0)
(134.578 16.3184 -6.15196e-17)
(137.936 16.3586 -2.96038e-17)
(141.3 16.4753 -2.85327e-17)
(144.886 16.6146 -2.76077e-17)
(148.463 16.8315 -5.33389e-17)
(152.34 17.0524 -5.16748e-17)
(156.176 17.3604 2.49207e-17)
(160.413 17.648 -2.4122e-17)
(164.556 18.0418 0)
(169.236 18.3858 2.24091e-17)
(173.737 18.8692 0)
(178.96 19.2641 2.06881e-17)
(183.874 19.8487 0)
(189.768 20.2917 -1.89558e-17)
(195.159 20.9973 0)
(201.889 21.4868 0)
(207.831 22.3428 0)
(215.617 22.8799 1.54558e-17)
(222.196 23.9279 0)
(231.332 24.5159 -1.36851e-17)
(238.652 25.8111 1.22289e-17)
(249.54 26.466 1.19003e-17)
(257.739 28.0979 1.27726e-21)
(270.952 28.8853 -1.011e-17)
(280.267 30.9989 -1.63821e-17)
(296.685 32.0401 -8.36995e-18)
(307.591 34.7601 0)
(328.552 36.1102 -1.35055e-17)
(341.833 39.271 4.08624e-18)
(369.019 40.6899 5.26383e-18)
(385.456 43.5228 1.90494e-18)
(420.167 44.7031 3.76112e-18)
(440.355 45.6646 -5.27393e-19)
(482.84 46.3758 0)
(508.126 39.1273 -3.47142e-18)
(549.331 36.5719 -8.94806e-19)
(576.731 0.266523 4.89777e-19)
(550.522 -18.1187 0)
(540.558 -26.1774 0)
(506.194 -29.9495 0)
(490.432 -30.2455 0)
(459.558 -31.79 0)
(443.266 -30.622 0)
(417.389 -30.4819 0)
(402.864 -28.4275 0)
(382.205 -27.6973 -3.18541e-18)
(369.703 -25.7558 -2.46034e-18)
(353.075 -25.035 -4.23089e-18)
(342.125 -23.4327 -3.93599e-18)
(328.516 -22.8151 -5.30985e-18)
(318.851 -21.5694 5.29394e-18)
(307.522 -21.0981 0)
(298.875 -20.197 -6.00603e-22)
(289.181 -19.8799 -7.41336e-18)
(281.277 -19.2664 7.71439e-18)
(272.726 -19.0578 8.47255e-18)
(265.384 -18.6332 -8.87508e-18)
(257.673 -18.4618 0)
(250.816 -18.1291 -1.00498e-17)
(243.778 -17.9298 1.07138e-17)
(237.389 -17.6111 0)
(230.942 -17.3377 1.18838e-17)
(225.042 -16.9904 0)
(219.154 -16.631 1.30217e-17)
(213.773 -16.2562 -2.71185e-17)
(208.415 -15.8321 0)
(203.563 -15.4633 -2.91798e-17)
(198.682 -15.011 -1.50457e-17)
(194.341 -14.6908 0)
(189.854 -14.2379 0)
(185.988 -13.9956 0)
(181.79 -13.5463 0)
(178.376 -13.3868 -1.75522e-17)
(174.36 -12.924 1.79148e-17)
(171.404 -12.827 0)
(167.462 -12.3239 -3.78771e-17)
(165.016 -12.2359 0)
(161.038 -11.6694 1.99748e-17)
(159.202 -11.4857 0)
(155.095 -10.8474 0)
(154.013 -10.4341 0)
(149.744 -9.3977 0)
(100.007 0.572582 4.51988e-17)
(100.217 1.61589 0)
(100.641 2.56451 8.38016e-17)
(101.218 3.44531 -3.91669e-17)
(101.969 4.51799 0)
(102.905 6.05681 -3.43376e-17)
(104.102 8.22346 0)
(105.596 10.8046 -3.31062e-17)
(107.447 13.4012 0)
(109.679 15.5579 0)
(112.32 16.9898 0)
(115.289 17.6221 7.07318e-17)
(118.503 17.5949 -3.56371e-17)
(121.763 17.1987 -3.54104e-17)
(125.025 16.7255 0)
(128.194 16.3907 0)
(131.41 16.2216 0)
(134.613 16.1988 6.15079e-17)
(137.973 16.2384 0)
(141.339 16.3541 0)
(144.928 16.4921 5.45954e-22)
(148.506 16.7073 2.66711e-17)
(152.385 16.9265 5.76224e-22)
(156.223 17.2321 -2.49217e-17)
(160.462 17.5176 -2.41214e-17)
(164.607 17.9084 -2.31863e-17)
(169.289 18.25 -2.24091e-17)
(173.791 18.7298 0)
(179.016 19.1218 -2.06877e-17)
(183.933 19.7021 0)
(189.829 20.142 1.89552e-17)
(195.223 20.8424 0)
(201.955 21.3286 0)
(207.9 22.1782 0)
(215.689 22.7117 0)
(222.27 23.7519 0)
(231.41 24.336 1.36841e-17)
(238.734 25.6215 0)
(249.626 26.2724 1.1898e-17)
(257.83 27.8922 1.26791e-21)
(271.048 28.6747 0)
(280.371 30.7725 8.19015e-18)
(296.795 31.8067 0)
(307.712 34.5056 0)
(328.679 35.8452 2.84969e-22)
(341.97 38.9802 -4.08627e-18)
(369.157 40.3868 -5.26362e-18)
(385.602 43.1954 -1.90497e-18)
(420.302 44.3644 -3.76036e-18)
(440.494 45.3124 5.29408e-19)
(482.939 46.009 0)
(508.199 38.8017 0)
(549.288 36.2489 8.99321e-19)
(576.601 0.263403 -4.89627e-19)
(550.472 -17.9607 0)
(540.538 -25.9643 0)
(506.213 -29.7059 0)
(490.474 -30.0019 2.73638e-18)
(459.621 -31.5377 0)
(443.34 -30.3818 -7.57885e-19)
(417.471 -30.2459 0)
(402.947 -28.2097 0)
(382.288 -27.4865 0)
(369.782 -25.5604 2.45995e-18)
(353.151 -24.8452 0)
(342.197 -23.2553 0)
(328.585 -22.6425 -3.8943e-23)
(318.917 -21.4067 5.29251e-18)
(307.584 -20.9392 0)
(298.933 -20.0452 -6.53807e-18)
(289.236 -19.7303 7.41375e-18)
(281.33 -19.1213 0)
(272.776 -18.914 0)
(265.433 -18.4925 0)
(257.72 -18.3221 0)
(250.863 -17.9919 0)
(243.825 -17.794 0)
(237.436 -17.4777 0)
(230.989 -17.2063 -1.18837e-17)
(225.089 -16.8619 0)
(219.201 -16.5053 0)
(213.819 -16.1335 1.35585e-17)
(208.461 -15.7129 0)
(203.608 -15.3471 1.45897e-17)
(198.726 -14.8984 0)
(194.384 -14.5809 -1.55609e-17)
(189.895 -14.1314 0)
(186.028 -13.891 0)
(181.829 -13.4451 0)
(178.414 -13.2867 0)
(174.397 -12.8274 0)
(171.442 -12.7308 0)
(167.499 -12.2318 1.89443e-17)
(165.055 -12.1435 0)
(161.077 -11.5822 0)
(159.243 -11.3983 2.1047e-17)
(155.14 -10.7664 0)
(154.059 -10.3545 -2.2325e-17)
(149.797 -9.32834 0)
(100.007 0.567015 0)
(100.216 1.60031 0)
(100.637 2.54005 -4.19269e-17)
(101.212 3.4132 3.92017e-17)
(101.96 4.47758 0)
(102.894 6.0065 3.43567e-17)
(104.09 8.16108 3.33064e-17)
(105.587 10.7288 3.30894e-17)
(107.445 13.3107 0)
(109.684 15.4526 0)
(112.334 16.8712 -3.47393e-17)
(115.311 17.4943 -3.53001e-17)
(118.528 17.4637 0)
(121.79 17.0692 0)
(125.053 16.6002 0)
(128.224 16.2689 -3.34074e-17)
(131.442 16.1016 0)
(134.647 16.079 -5.22194e-22)
(138.01 16.1181 0)
(141.378 16.2327 -2.85346e-17)
(144.969 16.3695 5.38111e-22)
(148.549 16.5829 0)
(152.43 16.8005 2.58395e-17)
(156.269 17.1037 0)
(160.511 17.387 2.41219e-17)
(164.657 17.7749 2.31865e-17)
(169.341 18.114 0)
(173.846 18.5902 2.14369e-17)
(179.073 18.9795 0)
(183.991 19.5554 0)
(189.89 19.9922 -1.89532e-17)
(195.286 20.6874 0)
(202.021 21.1701 -1.72089e-17)
(207.968 22.0134 0)
(215.76 22.5432 0)
(222.345 23.5756 -1.41536e-17)
(231.488 24.1559 -1.36818e-17)
(238.815 25.4318 0)
(249.712 26.0785 -1.18971e-17)
(257.921 27.6863 2.04614e-17)
(271.144 28.4638 1.01073e-17)
(280.474 30.5459 -8.18736e-18)
(296.904 31.5729 8.36868e-18)
(307.832 34.2507 0)
(328.804 35.5798 2.86112e-22)
(342.107 38.689 -4.0837e-18)
(369.293 40.0833 0)
(385.747 42.8679 0)
(420.436 44.0256 3.76066e-18)
(440.632 44.9602 -5.29582e-19)
(483.037 45.6424 0)
(508.271 38.4766 3.47343e-18)
(549.245 35.9269 -9.01251e-19)
(576.473 0.260279 4.91084e-19)
(550.422 -17.8032 0)
(540.518 -25.7515 0)
(506.23 -29.4625 -5.3953e-19)
(490.515 -29.7585 -2.73414e-18)
(459.683 -31.2856 0)
(443.412 -30.1417 1.51588e-18)
(417.552 -30.0097 0)
(403.03 -27.9918 8.94226e-19)
(382.369 -27.2756 0)
(369.86 -25.365 2.4585e-18)
(353.226 -24.6552 0)
(342.269 -23.0777 3.93357e-18)
(328.654 -22.4698 5.30885e-18)
(318.982 -21.2439 -5.29213e-18)
(307.645 -20.7801 6.36882e-18)
(298.991 -19.8932 0)
(289.291 -19.5806 7.41358e-18)
(281.382 -18.9762 -7.71359e-18)
(272.826 -18.7702 0)
(265.481 -18.3518 0)
(257.768 -18.1825 0)
(250.91 -17.8547 -1.00491e-17)
(243.871 -17.6582 0)
(237.482 -17.3443 0)
(231.035 -17.075 0)
(225.136 -16.7333 0)
(219.247 -16.3795 0)
(213.866 -16.0109 0)
(208.506 -15.5936 0)
(203.653 -15.2309 0)
(198.769 -14.7857 0)
(194.426 -14.4709 2.38119e-23)
(189.935 -14.0249 1.598e-17)
(186.068 -13.7863 0)
(181.867 -13.3438 0)
(178.452 -13.1865 0)
(174.434 -12.7308 0)
(171.479 -12.6345 0)
(167.536 -12.1396 0)
(165.093 -12.0511 0)
(161.117 -11.4949 0)
(159.283 -11.3109 -2.10593e-17)
(155.184 -10.6853 -2.10145e-17)
(154.105 -10.2749 -2.61586e-22)
(149.849 -9.25901 0)
(100.007 0.561478 0)
(100.215 1.58482 4.39637e-17)
(100.634 2.51572 0)
(101.206 3.38124 0)
(101.951 4.43731 0)
(102.883 5.95626 3.43736e-17)
(104.079 8.09866 -3.33085e-17)
(105.578 10.6527 0)
(107.442 13.2199 0)
(109.69 15.3469 -3.3986e-17)
(112.349 16.7523 3.46788e-17)
(115.332 17.3663 -3.52344e-17)
(118.553 17.3324 0)
(121.817 16.9396 0)
(125.081 16.4748 0)
(128.253 16.1471 3.33793e-17)
(131.474 15.9815 0)
(134.682 15.959 -3.07428e-17)
(138.047 15.9976 0)
(141.417 16.1111 2.85365e-17)
(145.01 16.2468 5.52262e-17)
(148.592 16.4585 0)
(152.474 16.6743 0)
(156.316 16.9752 0)
(160.559 17.2564 0)
(164.707 17.6413 0)
(169.393 17.9779 2.24071e-17)
(173.9 18.4505 -2.14366e-17)
(179.129 18.837 -2.06849e-17)
(184.049 19.4086 -1.96634e-17)
(189.95 19.8422 1.89526e-17)
(195.348 20.5321 -1.78636e-17)
(202.086 21.0115 1.72081e-17)
(208.036 21.8484 1.60289e-17)
(215.83 22.3745 1.54504e-17)
(222.418 23.3992 1.1049e-21)
(231.565 23.9755 1.36807e-17)
(238.896 25.2419 1.22212e-17)
(249.796 25.8844 1.18949e-17)
(258.011 27.4801 -1.02293e-17)
(271.239 28.2526 -5.11383e-22)
(280.577 30.319 8.18713e-18)
(297.013 31.3389 -1.67369e-17)
(307.951 33.9956 6.1375e-18)
(328.928 35.3142 6.7523e-18)
(342.243 38.3976 4.08374e-18)
(369.429 39.7797 -5.26224e-18)
(385.891 42.54 0)
(420.57 43.6866 -3.75994e-18)
(440.769 44.608 -5.31538e-19)
(483.135 45.2759 2.25353e-18)
(508.342 38.152 -3.47737e-18)
(549.202 35.6058 0)
(576.345 0.257183 4.90984e-19)
(550.372 -17.6462 0)
(540.497 -25.539 0)
(506.247 -29.2193 5.39104e-19)
(490.555 -29.5152 0)
(459.743 -31.0335 0)
(443.484 -29.9015 -1.51693e-18)
(417.633 -29.7736 0)
(403.112 -27.7739 -8.93894e-19)
(382.45 -27.0646 0)
(369.937 -25.1694 -4.91566e-18)
(353.3 -24.4651 0)
(342.341 -22.9001 -3.93312e-18)
(328.722 -22.297 0)
(319.047 -21.081 0)
(307.706 -20.621 -6.36862e-18)
(299.049 -19.7411 0)
(289.345 -19.4308 -1.48276e-17)
(281.434 -18.8309 7.71417e-18)
(272.876 -18.6263 0)
(265.529 -18.2109 0)
(257.815 -18.0427 0)
(250.957 -17.7174 1.00497e-17)
(243.917 -17.5223 1.07131e-17)
(237.529 -17.2108 0)
(231.082 -16.9436 0)
(225.182 -16.6046 0)
(219.293 -16.2537 0)
(213.912 -15.8881 1.35565e-17)
(208.551 -15.4742 -1.40735e-17)
(203.697 -15.1146 0)
(198.813 -14.673 1.50459e-17)
(194.469 -14.3608 3.11252e-17)
(189.976 -13.9182 -1.59814e-17)
(186.108 -13.6816 0)
(181.905 -13.2425 0)
(178.49 -13.0863 0)
(174.471 -12.6341 0)
(171.517 -12.5382 0)
(167.573 -12.0474 0)
(165.131 -11.9588 -1.98284e-17)
(161.156 -11.4077 2.00008e-17)
(159.324 -11.2236 0)
(155.229 -10.6044 4.20579e-17)
(154.15 -10.1955 2.23629e-17)
(149.901 -9.18974 0)
(100.007 0.555971 0)
(100.213 1.5694 -8.79587e-17)
(100.631 2.49151 0)
(101.2 3.34943 -3.92662e-17)
(101.942 4.39718 0)
(102.872 5.90609 -3.43931e-17)
(104.068 8.0362 0)
(105.569 10.5765 0)
(107.439 13.1288 3.33407e-17)
(109.696 15.2408 6.78723e-17)
(112.363 16.633 3.4618e-17)
(115.353 17.238 3.51703e-17)
(118.578 17.2009 -3.54458e-17)
(121.844 16.8099 3.52413e-17)
(125.108 16.3493 0)
(128.282 16.0251 0)
(131.506 15.8613 0)
(134.716 15.8389 0)
(138.084 15.8771 2.96006e-17)
(141.456 15.9895 0)
(145.05 16.124 -2.76151e-17)
(148.634 16.3339 0)
(152.519 16.548 2.58408e-17)
(156.362 16.8465 -2.4922e-17)
(160.607 17.1256 0)
(164.757 17.5076 0)
(169.445 17.8417 -6.18507e-22)
(173.953 18.3106 2.14349e-17)
(179.184 18.6943 2.06845e-17)
(184.107 19.2616 1.96629e-17)
(190.01 19.6921 1.89507e-17)
(195.41 20.3768 1.78629e-17)
(202.151 20.8527 1.72061e-17)
(208.103 21.6832 -1.60281e-17)
(215.901 22.2057 -1.54496e-17)
(222.492 23.2226 1.09627e-21)
(231.641 23.795 0)
(238.976 25.0517 -2.44392e-17)
(249.881 25.69 -5.92158e-22)
(258.101 27.2737 0)
(271.334 28.0412 -1.01057e-17)
(280.68 30.0918 -8.18438e-18)
(297.121 31.1045 8.3682e-18)
(308.07 33.7401 -6.13763e-18)
(329.052 35.0482 0)
(342.377 38.1058 -4.08121e-18)
(369.563 39.4757 5.26206e-18)
(386.034 42.212 0)
(420.702 43.3474 7.51999e-18)
(440.905 44.2558 1.0643e-18)
(483.232 44.9096 -2.25471e-18)
(508.412 37.828 0)
(549.159 35.2857 0)
(576.218 0.254112 -9.84166e-19)
(550.322 -17.4897 3.8462e-20)
(540.476 -25.3268 0)
(506.263 -28.9763 0)
(490.594 -29.272 -2.73202e-18)
(459.803 -30.7815 -1.34886e-18)
(443.555 -29.6614 7.58509e-19)
(417.712 -29.5374 0)
(403.193 -27.5558 0)
(382.531 -26.8534 -3.18338e-18)
(370.014 -24.9737 2.45714e-18)
(353.375 -24.2749 0)
(342.412 -22.7223 3.93164e-18)
(328.79 -22.1241 -5.30787e-18)
(319.112 -20.918 0)
(307.767 -20.4617 0)
(299.106 -19.5889 0)
(289.399 -19.2809 1.48278e-17)
(281.485 -18.6856 0)
(272.925 -18.4823 0)
(265.578 -18.07 -8.87474e-18)
(257.862 -17.903 -9.57005e-18)
(251.003 -17.5801 -1.0049e-17)
(243.963 -17.3864 -1.07135e-17)
(237.575 -17.0773 0)
(231.127 -16.8121 -1.18814e-17)
(225.228 -16.4759 0)
(219.339 -16.1278 0)
(213.957 -15.7653 -2.71115e-17)
(208.596 -15.3548 2.46587e-22)
(203.742 -14.9982 -1.45888e-17)
(198.855 -14.5602 -1.50462e-17)
(194.511 -14.2506 -1.55634e-17)
(190.016 -13.8115 0)
(186.148 -13.5768 1.65396e-17)
(181.943 -13.1411 0)
(178.528 -12.986 -1.75659e-17)
(174.508 -12.5374 -1.79287e-17)
(171.554 -12.4419 -1.86633e-17)
(167.61 -11.9552 0)
(165.168 -11.8664 -2.46247e-22)
(161.195 -11.3205 -5.48245e-22)
(159.364 -11.1363 0)
(155.273 -10.5234 -4.20862e-17)
(154.195 -10.1161 -2.23821e-17)
(149.953 -9.12052 0)
(100.007 0.550493 0)
(100.212 1.55407 8.79875e-17)
(100.628 2.46743 0)
(101.194 3.31776 3.93011e-17)
(101.933 4.35719 3.65134e-17)
(102.861 5.85601 -3.44105e-17)
(104.056 7.97371 0)
(105.561 10.5001 0)
(107.437 13.0373 -6.29881e-22)
(109.702 15.1343 -3.38866e-17)
(112.377 16.5134 -4.45239e-22)
(115.375 17.1095 -3.5106e-17)
(118.603 17.0692 7.07679e-17)
(121.87 16.6801 -3.51871e-17)
(125.136 16.2237 0)
(128.311 15.903 -3.33232e-17)
(131.537 15.741 0)
(134.749 15.7187 0)
(138.12 15.7564 -5.92006e-17)
(141.494 15.8677 -2.85386e-17)
(145.091 16.001 0)
(148.677 16.2092 0)
(152.563 16.4216 -2.58423e-17)
(156.408 16.7177 2.4923e-17)
(160.654 16.9947 0)
(164.807 17.3737 0)
(169.496 17.7053 -2.24064e-17)
(174.006 18.1706 -7.71448e-22)
(179.24 18.5515 0)
(184.164 19.1144 1.96607e-17)
(190.069 19.5418 -1.89501e-17)
(195.472 20.2212 0)
(202.215 20.6938 -3.441e-17)
(208.17 21.5179 -1.60253e-17)
(215.97 22.0367 -1.54474e-17)
(222.565 23.0458 1.08759e-21)
(231.717 23.6143 -1.36768e-17)
(239.056 24.8614 1.22181e-17)
(249.964 25.4954 -1.18924e-17)
(258.19 27.0671 1.02242e-17)
(271.427 27.8296 0)
(280.781 29.8643 8.18417e-18)
(297.229 30.8698 8.36739e-18)
(308.188 33.4843 0)
(329.175 34.7818 0)
(342.511 37.8138 8.16124e-18)
(369.697 39.1714 0)
(386.176 41.8838 0)
(420.833 43.0081 -3.76006e-18)
(441.039 43.9035 -5.32763e-19)
(483.327 44.5435 0)
(508.482 37.5046 0)
(549.117 34.9666 0)
(576.093 0.251064 4.93197e-19)
(550.273 -17.3337 -5.56531e-20)
(540.454 -25.1148 0)
(506.278 -28.7336 -5.41488e-19)
(490.632 -29.029 2.73007e-18)
(459.862 -30.5296 1.34801e-18)
(443.626 -29.4213 0)
(417.791 -29.3011 0)
(403.273 -27.3376 0)
(382.611 -26.6422 -2.19645e-22)
(370.091 -24.7778 0)
(353.448 -24.0845 4.22916e-18)
(342.482 -22.5444 -7.86185e-18)
(328.857 -21.951 5.30731e-18)
(319.176 -20.7549 -5.28882e-18)
(307.827 -20.3024 -6.36785e-18)
(299.164 -19.4366 -6.53545e-18)
(289.453 -19.1309 -1.48279e-17)
(281.537 -18.5402 0)
(272.974 -18.3382 0)
(265.625 -17.9291 1.77503e-17)
(257.908 -17.7631 9.57079e-18)
(251.05 -17.4427 2.00986e-17)
(244.009 -17.2504 1.07129e-17)
(237.621 -16.9437 0)
(231.173 -16.6806 1.18813e-17)
(225.274 -16.3472 -1.24333e-17)
(219.384 -16.0019 1.30167e-17)
(214.003 -15.6425 1.3555e-17)
(208.64 -15.2353 1.40723e-17)
(203.786 -14.8818 2.91772e-17)
(198.898 -14.4473 1.50461e-17)
(194.553 -14.1404 0)
(190.056 -13.7048 -1.59836e-17)
(186.187 -13.472 -1.65416e-17)
(181.981 -13.0396 -1.69375e-17)
(178.566 -12.8857 3.51385e-17)
(174.544 -12.4406 3.58648e-17)
(171.591 -12.3455 1.86682e-17)
(167.646 -11.863 1.89657e-17)
(165.206 -11.7741 3.96883e-17)
(161.233 -11.2332 -2.00188e-17)
(159.404 -11.049 -2.10972e-17)
(155.316 -10.4425 2.10574e-17)
(154.24 -10.0368 2.24007e-17)
(150.004 -9.05135 2.20927e-17)
(100.007 0.545044 0)
(100.211 1.53882 -8.80162e-17)
(100.625 2.44346 0)
(101.188 3.28623 0)
(101.924 4.31733 -3.65458e-17)
(102.85 5.806 3.44303e-17)
(104.045 7.91118 0)
(105.553 10.4235 0)
(107.435 12.9456 -3.32721e-17)
(109.707 15.0275 0)
(112.392 16.3934 -6.89981e-17)
(115.395 16.9807 3.50432e-17)
(118.628 16.9374 -3.5323e-17)
(121.896 16.5502 3.51327e-17)
(125.163 16.098 0)
(128.34 15.7808 6.65925e-17)
(131.568 15.6205 0)
(134.783 15.5984 -3.07261e-17)
(138.156 15.6355 4.91258e-22)
(141.532 15.7458 2.85404e-17)
(145.131 15.8779 0)
(148.718 16.0843 2.66774e-17)
(152.607 16.2951 2.58427e-17)
(156.453 16.5888 0)
(160.702 16.8636 0)
(164.856 17.2397 2.31839e-17)
(169.547 17.5688 0)
(174.059 18.0305 -2.14336e-17)
(179.295 18.4085 0)
(184.221 18.9671 -1.96602e-17)
(190.129 19.3914 0)
(195.534 20.0655 0)
(202.279 20.5347 1.7204e-17)
(208.237 21.3524 1.60246e-17)
(216.04 21.8675 3.08924e-17)
(222.637 22.8688 1.41467e-17)
(231.793 23.4334 1.36758e-17)
(239.136 24.6709 0)
(250.048 25.3007 0)
(258.278 26.8602 -1.21842e-21)
(271.521 27.6176 0)
(280.882 29.6365 8.18147e-18)
(297.335 30.6348 -1.67343e-17)
(308.305 33.2282 0)
(329.297 34.5152 0)
(342.644 37.5214 -1.25567e-21)
(369.83 38.8669 0)
(386.316 41.5553 0)
(420.964 42.6686 3.75939e-18)
(441.173 43.5512 -5.34659e-19)
(483.422 44.1776 2.25644e-18)
(508.551 37.1816 0)
(549.074 34.6484 -9.1558e-19)
(575.968 0.24804 0)
(550.223 -17.1782 1.7145e-20)
(540.432 -24.9032 -6.25977e-18)
(506.292 -28.4911 1.08336e-18)
(490.669 -28.7861 0)
(459.92 -30.2778 0)
(443.695 -29.1812 -7.60415e-19)
(417.869 -29.0649 2.21772e-18)
(403.353 -27.1194 0)
(382.69 -26.4308 3.1819e-18)
(370.166 -24.5819 0)
(353.521 -23.8941 -8.45734e-18)
(342.552 -22.3664 5.04219e-22)
(328.925 -21.7779 5.30681e-18)
(319.24 -20.5916 5.20399e-22)
(307.887 -20.1429 6.36761e-18)
(299.22 -19.2842 1.30704e-17)
(289.506 -18.9808 7.41415e-18)
(281.588 -18.3947 0)
(273.023 -18.194 8.47402e-18)
(265.673 -17.788 -8.87557e-18)
(257.955 -17.6232 -9.57055e-18)
(251.096 -17.3053 -1.00496e-17)
(244.055 -17.1144 -1.07133e-17)
(237.666 -16.8102 0)
(231.219 -16.5491 -1.18802e-17)
(225.32 -16.2184 2.48653e-17)
(219.43 -15.876 -1.30162e-17)
(214.048 -15.5196 -1.35539e-17)
(208.685 -15.1158 -1.40714e-17)
(203.83 -14.7653 -1.45884e-17)
(198.94 -14.3344 -3.00925e-17)
(194.595 -14.0301 0)
(190.096 -13.5979 1.59849e-17)
(186.227 -13.3671 -1.65436e-17)
(182.019 -12.9381 2.702e-22)
(178.603 -12.7853 -3.51451e-17)
(174.58 -12.3438 -1.79361e-17)
(171.627 -12.2491 -1.86734e-17)
(167.682 -11.7708 -3.79427e-17)
(165.243 -11.6817 2.40883e-22)
(161.272 -11.146 0)
(159.443 -10.9618 2.11093e-17)
(155.36 -10.3616 0)
(154.284 -9.95759 -2.24197e-17)
(150.055 -8.98222 -2.21126e-17)
(100.007 0.539623 0)
(100.21 1.52364 4.40234e-17)
(100.622 2.41962 0)
(101.182 3.25485 0)
(101.916 4.27761 0)
(102.839 5.75606 3.44481e-17)
(104.035 7.84861 -3.33139e-17)
(105.544 10.3467 3.30032e-17)
(107.432 12.8536 3.32372e-17)
(109.713 14.9203 0)
(112.406 16.2731 3.44405e-17)
(115.416 16.8517 0)
(118.652 16.8055 0)
(121.922 16.4203 -3.50801e-17)
(125.19 15.9722 0)
(128.368 15.6584 -3.32698e-17)
(131.599 15.4999 0)
(134.816 15.4779 5.00107e-22)
(138.191 15.5145 2.95995e-17)
(141.57 15.6237 0)
(145.171 15.7547 2.76198e-17)
(148.76 15.9594 -2.66794e-17)
(152.65 16.1684 -5.47027e-22)
(156.498 16.4598 0)
(160.749 16.7325 0)
(164.904 17.1055 -6.95136e-22)
(169.598 17.4322 -2.24045e-17)
(174.111 17.8903 0)
(179.349 18.2655 2.06809e-17)
(184.278 18.8197 0)
(190.187 19.2408 0)
(195.595 19.9097 0)
(202.343 20.3754 1.7202e-17)
(208.303 21.1868 0)
(216.109 21.6982 -1.5445e-17)
(222.709 22.6916 0)
(231.868 23.2523 0)
(239.215 24.4801 -1.22127e-17)
(250.13 25.1056 -1.18887e-17)
(258.366 26.6531 -1.02215e-17)
(271.613 27.4054 1.0102e-17)
(280.983 29.4085 -8.18127e-18)
(297.441 30.3996 3.78032e-22)
(308.421 32.9718 0)
(329.418 34.2482 0)
(342.776 37.2288 -1.24598e-21)
(369.961 38.5621 0)
(386.456 41.2266 0)
(421.093 42.3289 -3.75971e-18)
(441.306 43.1989 5.34835e-19)
(483.516 43.8119 -1.91989e-22)
(508.618 36.8593 0)
(549.032 34.3311 -1.29065e-21)
(575.844 0.245039 4.93944e-19)
(550.173 -17.0231 1.28952e-20)
(540.409 -24.6918 6.2623e-18)
(506.305 -28.2488 1.00715e-21)
(490.705 -28.5434 0)
(459.977 -30.026 0)
(443.763 -28.9411 7.59972e-19)
(417.946 -28.8286 8.03945e-23)
(403.432 -26.9011 0)
(382.768 -26.2193 0)
(370.242 -24.3858 0)
(353.594 -23.7035 8.45647e-18)
(342.622 -22.1882 5.0009e-22)
(328.991 -21.6046 -5.30622e-18)
(319.303 -20.4283 5.28745e-18)
(307.947 -19.9833 0)
(299.277 -19.1317 -6.53496e-18)
(289.56 -18.8306 7.41394e-18)
(281.639 -18.2491 7.71318e-18)
(273.071 -18.0498 -3.96034e-22)
(265.72 -17.6469 0)
(258.001 -17.4833 9.57127e-18)
(251.142 -17.1678 0)
(244.1 -16.9783 0)
(237.712 -16.6765 0)
(231.264 -16.4175 2.37596e-17)
(225.365 -16.0896 -1.2432e-17)
(219.475 -15.75 0)
(214.093 -15.3966 2.71064e-17)
(208.729 -14.9962 2.41648e-22)
(203.873 -14.6488 0)
(198.983 -14.2214 1.50464e-17)
(194.636 -13.9197 0)
(190.136 -13.491 -1.59859e-17)
(186.266 -13.2621 -4.69527e-23)
(182.056 -12.8365 2.68131e-22)
(178.641 -12.6849 3.51517e-17)
(174.616 -12.247 0)
(171.664 -12.1527 -1.69045e-22)
(167.718 -11.6785 3.79534e-17)
(165.28 -11.5893 -3.97196e-17)
(161.31 -11.0587 -2.00356e-17)
(159.483 -10.8747 0)
(155.403 -10.2807 0)
(154.328 -9.87845 -2.37061e-22)
(150.105 -8.91314 0)
(100.007 0.53423 0)
(100.209 1.50854 -4.40355e-17)
(100.618 2.39589 0)
(101.177 3.2236 0)
(101.908 4.23801 0)
(102.829 5.7062 -1.11248e-21)
(104.024 7.78601 3.33169e-17)
(105.536 10.2698 -3.29873e-17)
(107.43 12.7612 -6.12125e-22)
(109.719 14.8128 3.37392e-17)
(112.421 16.1525 0)
(115.437 16.7225 0)
(118.676 16.6735 0)
(121.947 16.2902 0)
(125.216 15.8463 0)
(128.397 15.536 -3.3243e-17)
(131.63 15.3791 -3.19851e-17)
(134.849 15.3572 4.95762e-22)
(138.227 15.3934 -2.95986e-17)
(141.607 15.5015 2.85426e-17)
(145.21 15.6313 -2.7622e-17)
(148.801 15.8343 -2.66802e-17)
(152.693 16.0416 -5.42668e-22)
(156.543 16.3306 0)
(160.796 16.6012 2.41213e-17)
(164.953 16.9713 -2.31837e-17)
(169.648 17.2954 4.48085e-17)
(174.164 17.7499 -2.1431e-17)
(179.403 18.1222 -4.13604e-17)
(184.334 18.6721 0)
(190.246 19.0901 1.89459e-17)
(195.655 19.7537 0)
(202.406 20.216 -3.44019e-17)
(208.368 21.021 1.60202e-17)
(216.177 21.5287 -1.54429e-17)
(222.78 22.5143 -1.41418e-17)
(231.943 23.0709 0)
(239.293 24.2892 2.44225e-17)
(250.212 24.9104 1.18878e-17)
(258.453 26.4457 1.02184e-17)
(271.705 27.193 -1.01015e-17)
(281.082 29.1801 0)
(297.547 30.164 8.36654e-18)
(308.536 32.7151 0)
(329.538 33.981 -6.75112e-18)
(342.907 36.9358 -4.07762e-18)
(370.092 38.2571 0)
(386.595 40.8977 0)
(421.222 41.989 0)
(441.437 42.8465 0)
(483.609 43.4463 -1.86429e-22)
(508.686 36.5374 0)
(548.989 34.0148 9.20844e-19)
(575.721 0.242063 -7.58689e-22)
(550.124 -16.8686 -2.11782e-21)
(540.386 -24.4807 0)
(506.317 -28.0068 -5.42643e-19)
(490.741 -28.3008 0)
(460.033 -29.7744 1.34497e-18)
(443.831 -28.7011 7.61325e-19)
(418.023 -28.5922 -2.21553e-18)
(403.51 -26.6827 -8.8855e-19)
(382.846 -26.0077 0)
(370.316 -24.1896 -2.4528e-18)
(353.666 -23.5129 -4.22772e-18)
(342.691 -22.01 3.92822e-18)
(329.058 -21.4312 0)
(319.367 -20.2648 0)
(308.007 -19.8236 0)
(299.333 -18.9791 0)
(289.612 -18.6804 -1.48282e-17)
(281.689 -18.1034 -7.71371e-18)
(273.12 -17.9055 -1.69496e-17)
(265.768 -17.5058 -8.87505e-18)
(258.047 -17.3433 0)
(251.187 -17.0303 0)
(244.145 -16.8422 1.07125e-17)
(237.757 -16.5429 1.12451e-17)
(231.309 -16.2859 -1.18794e-17)
(225.41 -15.9607 0)
(219.519 -15.6239 0)
(214.138 -15.2736 -1.35525e-17)
(208.772 -14.8766 1.40703e-17)
(203.917 -14.5322 0)
(199.025 -14.1083 0)
(194.677 -13.8093 1.55665e-17)
(190.176 -13.3841 3.19742e-17)
(186.305 -13.157 -4.67141e-23)
(182.093 -12.7349 1.69444e-17)
(178.678 -12.5844 -1.7579e-17)
(174.652 -12.1501 0)
(171.7 -12.0562 1.86833e-17)
(167.754 -11.5862 -1.89823e-17)
(165.317 -11.497 -2.35593e-22)
(161.348 -10.9715 2.00447e-17)
(159.522 -10.7876 0)
(155.446 -10.1999 -2.10987e-17)
(154.372 -9.79939 2.24566e-17)
(150.155 -8.84411 0)
(100.007 0.528864 -4.52542e-17)
(100.208 1.49352 4.40517e-17)
(100.615 2.37228 0)
(101.171 3.19249 3.94322e-17)
(101.899 4.19855 0)
(102.818 5.65641 -1.10322e-21)
(104.014 7.72338 3.33182e-17)
(105.529 10.1927 0)
(107.428 12.6686 -3.317e-17)
(109.725 14.7049 -4.84572e-22)
(112.435 16.0315 0)
(115.457 16.593 0)
(118.7 16.5413 0)
(121.973 16.1601 0)
(125.243 15.7203 0)
(128.425 15.4134 6.64348e-17)
(131.66 15.2582 3.19721e-17)
(134.882 15.2365 6.14223e-17)
(138.262 15.2722 2.95987e-17)
(141.644 15.3792 -2.85445e-17)
(145.249 15.5079 2.76233e-17)
(148.842 15.7091 2.66821e-17)
(152.736 15.9147 -2.5846e-17)
(156.588 16.2013 2.49238e-17)
(160.842 16.4698 -2.41219e-17)
(165.001 16.8369 -2.31826e-17)
(169.698 17.1585 -2.24039e-17)
(174.215 17.6094 2.14308e-17)
(179.457 17.9789 2.06795e-17)
(184.389 18.5244 0)
(190.304 18.9392 -6.34088e-22)
(195.715 19.5976 0)
(202.469 20.0564 1.72e-17)
(208.433 20.855 -3.20379e-17)
(216.245 21.359 1.54421e-17)
(222.851 22.3367 2.82808e-17)
(232.017 22.8895 1.36704e-17)
(239.371 24.098 -1.22098e-17)
(250.294 24.715 1.18858e-17)
(258.54 26.2382 -1.18867e-21)
(271.797 26.9802 0)
(281.181 28.9516 0)
(297.651 29.9281 8.36578e-18)
(308.651 32.4581 0)
(329.658 33.7134 6.75124e-18)
(343.037 36.6426 0)
(370.222 37.9518 0)
(386.733 40.5686 0)
(421.349 41.649 0)
(441.567 42.4942 0)
(483.702 43.081 -2.25958e-18)
(508.752 36.2161 0)
(548.947 33.6994 0)
(575.599 0.239112 -4.96296e-19)
(550.074 -16.7144 -1.08347e-20)
(540.361 -24.2698 0)
(506.328 -27.7649 0)
(490.775 -28.0583 2.72615e-18)
(460.088 -29.5228 -1.34412e-18)
(443.898 -28.4611 -7.60868e-19)
(418.099 -28.3559 2.21453e-18)
(403.587 -26.4642 5.7679e-22)
(382.923 -25.796 3.18005e-18)
(370.39 -23.9933 2.45232e-18)
(353.738 -23.3221 0)
(342.76 -21.8316 -3.92674e-18)
(329.124 -21.2577 0)
(319.429 -20.1012 0)
(308.066 -19.6638 0)
(299.389 -18.8263 -6.5333e-18)
(289.665 -18.53 1.48283e-17)
(281.739 -17.9577 -7.71298e-18)
(273.168 -17.7611 3.89996e-22)
(265.814 -17.3646 8.87578e-18)
(258.093 -17.2032 -9.57126e-18)
(251.233 -16.8928 0)
(244.19 -16.7061 -2.14253e-17)
(237.802 -16.4091 -1.12452e-17)
(231.354 -16.1543 1.18784e-17)
(225.455 -15.8318 1.243e-17)
(219.564 -15.4978 0)
(214.182 -15.1505 0)
(208.816 -14.7569 -1.40693e-17)
(203.96 -14.4155 0)
(199.066 -13.9952 1.50464e-17)
(194.718 -13.6987 -1.55673e-17)
(190.215 -13.277 -1.59883e-17)
(186.343 -13.0519 3.3099e-17)
(182.13 -12.6332 -1.69463e-17)
(178.714 -12.4838 0)
(174.687 -12.0531 -1.79461e-17)
(171.736 -11.9597 -1.86884e-17)
(167.789 -11.4939 0)
(165.353 -11.4046 1.98752e-17)
(161.385 -10.8842 0)
(159.561 -10.7005 2.11463e-17)
(155.489 -10.119 2.11129e-17)
(154.415 -9.72041 -2.24753e-17)
(150.205 -8.77512 2.21708e-17)
(100.007 0.523526 4.52636e-17)
(100.207 1.47857 0)
(100.612 2.34878 0)
(101.166 3.16151 -7.89325e-17)
(101.891 4.15921 0)
(102.808 5.60669 -6.90134e-17)
(104.003 7.66071 -3.33215e-17)
(105.521 10.1154 0)
(107.427 12.5757 0)