/*--------------------------------*- C++ -*----------------------------------*\
| =========                 |                                                 |
| \\      /  F ield         | OpenFOAM: The Open Source CFD Toolbox           |
|  \\    /   O peration     | Version:  2412                                  |
|   \\  /    A nd           | Website:  www.openfoam.com                      |
|    \\/     M anipulation  |                                                 |
\*---------------------------------------------------------------------------*/
FoamFile
{
    version     2.0;
    format      ascii;
    arch        "LSB;label=32;scalar=64";
    class       volScalarField;
    location    "0.3";
    object      epsilon;
}
// * * * * * * * * * * * * * * * * * * * * * * * * * * * * * * * * * * * * * //

dimensions      [0 2 -3 0 0 0 0];

internalField   nonuniform List<scalar> 
12960
(
400.467
484.45
635.112
788.497
870.641
876.65
839.756
786.231
735.487
699.803
680.109
671.895
670.386
673.185
678.591
686.419
695.85
707.454
720.42
735.838
752.587
772.418
793.608
818.889
845.528
877.802
911.298
952.767
995.041
1048.91
1102.75
1174.04
1243.94
1340.78
1434.18
1570.43
1701.78
1904.87
2105.29
2428
2744.66
3252.09
3716.35
4429.4
4949.19
5694.57
6063.8
6925.39
7688.37
8858.29
9834.65
8358.77
8815.38
5278.25
3399.8
3368.42
3936.94
3888.37
3747.92
3277.85
3008.54
2635.45
2423.26
2152.6
2000.04
1816.62
1720.8
1607.8
1548.2
1470.07
1423.27
1363.6
1320.32
1264.52
1214.6
1154.99
1098.75
1040.75
990.39
944.943
907.682
876.023
849.739
826.987
805.835
786.091
765.46
745.472
723.47
701.822
677.721
653.548
627.353
600.179
572.781
543.868
517.729
493.943
467.414
400.818
485.966
638.451
793.155
875.197
880.036
841.741
787.03
735.445
699.284
679.396
671.147
669.672
672.527
677.989
685.864
695.334
706.966
719.952
735.381
752.135
771.963
793.147
818.414
845.035
877.283
910.752
952.182
994.413
1048.22
1102
1173.2
1242.99
1339.69
1432.92
1568.97
1700.08
1902.87
2103.04
2425.55
2742.16
3249.77
3714.5
4428.32
4948.3
5693.15
6060.22
6922.12
7686.7
8870.08
9858.5
8396.7
8897.39
5340.07
3431.99
3388.31
3952.05
3897.36
3752.94
3280.18
3009.6
2635.62
2422.95
2152.03
1999.33
1815.81
1719.97
1607.04
1547.55
1469.52
1422.82
1363.27
1320.12
1264.41
1214.53
1154.91
1098.61
1040.53
990.096
944.614
907.362
875.752
849.54
826.871
805.799
786.13
765.565
745.645
723.706
702.134
678.1
654.012
627.894
600.803
573.486
544.609
518.521
494.728
468.064
401.173
487.495
641.816
797.85
879.793
883.46
843.758
787.853
735.417
698.773
678.687
670.403
668.962
671.872
677.39
685.313
694.822
706.482
719.488
734.929
751.688
771.513
792.69
817.943
844.548
876.771
910.212
951.603
993.791
1047.54
1101.25
1172.36
1242.05
1338.61
1431.68
1567.52
1698.38
1900.88
2100.8
2423.1
2739.67
3247.45
3712.67
4427.24
4947.42
5691.72
6056.58
6918.72
7684.81
8881.7
9882.01
8434.28
8979.42
5402.1
3464.29
3407.91
3966.64
3905.78
3757.52
3282.21
3010.44
2635.63
2422.52
2151.36
1998.53
1814.94
1719.08
1606.23
1546.87
1468.94
1422.35
1362.93
1319.9
1264.29
1214.46
1154.83
1098.48
1040.31
989.799
944.282
907.04
875.479
849.341
826.755
805.764
786.172
765.673
745.823
723.946
702.453
678.487
654.486
628.445
601.439
574.203
545.364
519.327
495.524
468.723
401.53
489.039
645.212
802.583
884.425
886.913
845.797
788.69
735.395
698.264
677.978
669.656
668.249
671.215
676.79
684.761
694.309
705.997
719.024
734.475
751.24
771.062
792.233
817.471
844.06
876.257
909.671
951.023
993.168
1046.86
1100.5
1171.52
1241.1
1337.53
1430.43
1566.06
1696.68
1898.88
2098.54
2420.63
2737.15
3245.1
3710.79
4426.13
4946.46
5690.18
6052.78
6915.09
7682.57
8893
9905
8471.35
9061.39
5464.38
3496.76
3427.22
3980.68
3913.58
3761.59
3283.88
3011.02
2635.44
2421.92
2150.56
1997.64
1813.98
1718.13
1605.36
1546.13
1468.31
1421.84
1362.55
1319.65
1264.15
1214.36
1154.73
1098.32
1040.08
989.49
943.938
906.706
875.196
849.133
826.633
805.725
786.211
765.78
746
724.188
702.773
678.877
654.964
629.003
602.083
574.93
546.129
520.143
496.33
469.388
401.892
490.599
648.64
807.356
889.092
890.395
847.857
789.536
735.376
697.752
677.264
668.906
667.533
670.555
676.186
684.206
693.793
705.509
718.556
734.018
750.788
770.608
791.772
816.996
843.567
875.739
909.125
950.438
992.54
1046.17
1099.74
1170.68
1240.15
1336.43
1429.17
1564.58
1694.96
1896.86
2096.25
2418.13
2734.58
3242.7
3708.86
4424.94
4945.41
5688.5
6048.77
6911.18
7679.9
8903.91
9927.38
8507.85
9143.31
5526.99
3529.49
3446.3
3994.16
3920.75
3765.15
3285.18
3011.32
2635.03
2421.15
2149.62
1996.63
1812.92
1717.09
1604.42
1545.33
1467.63
1421.28
1362.14
1319.38
1263.98
1214.25
1154.62
1098.15
1039.83
989.165
943.579
906.359
874.901
848.915
826.503
805.679
786.245
765.883
746.175
724.428
703.094
679.269
655.446
629.565
602.734
575.666
546.905
520.971
497.147
470.06
402.257
492.175
652.101
812.168
893.794
893.903
849.934
790.392
735.357
697.236
676.546
668.151
666.812
669.89
675.578
683.647
693.273
705.018
718.085
733.558
750.333
770.15
791.307
816.516
843.071
875.217
908.575
949.848
991.907
1045.48
1098.98
1169.82
1239.19
1335.33
1427.89
1563.1
1693.22
1894.81
2093.93
2415.59
2731.98
3240.25
3706.87
4423.67
4944.25
5686.66
6044.54
6906.97
7676.81
8914.4
9949.14
8543.77
9225.24
5590.04
3562.58
3465.21
4007.13
3927.29
3768.18
3286.1
3011.34
2634.4
2420.2
2148.54
1995.5
1811.77
1715.97
1603.41
1544.47
1466.9
1420.69
1361.68
1319.07
1263.78
1214.11
1154.48
1097.96
1039.56
988.823
943.205
905.998
874.594
848.686
826.363
805.626
786.273
765.982
746.348
724.667
703.416
679.662
655.931
630.133
603.392
576.411
547.691
521.81
497.974
470.74
402.627
493.767
655.594
817.02
898.533
897.44
852.029
791.255
735.338
696.717
675.823
667.39
666.087
669.221
674.966
683.083
692.748
704.522
717.609
733.094
749.874
769.688
790.838
816.032
842.57
874.69
908.019
949.253
991.267
1044.78
1098.21
1168.96
1238.21
1334.21
1426.61
1561.6
1691.46
1892.75
2091.59
2413.02
2729.34
3237.75
3704.82
4422.34
4942.98
5684.67
6040.1
6902.46
7673.29
8924.47
9970.25
8579.12
9307.26
5653.69
3596.15
3484.02
4019.61
3933.23
3770.71
3286.65
3011.08
2633.55
2419.08
2147.32
1994.27
1810.52
1714.77
1602.33
1543.55
1466.12
1420.05
1361.19
1318.72
1263.56
1213.94
1154.32
1097.76
1039.27
988.465
942.815
905.622
874.274
848.447
826.215
805.566
786.296
766.076
746.517
724.905
703.737
680.057
656.421
630.707
604.058
577.166
548.488
522.662
498.813
471.43
403.001
495.376
659.119
821.911
903.309
901.005
854.142
792.126
735.32
696.195
675.095
666.625
665.356
668.547
674.349
682.515
692.22
704.023
717.13
732.625
749.41
769.221
790.365
815.544
842.064
874.158
907.459
948.653
990.623
1044.07
1097.44
1168.09
1237.23
1333.09
1425.31
1560.08
1689.69
1890.66
2089.22
2410.42
2726.65
3235.2
3702.72
4420.94
4941.61
5682.54
6035.44
6897.66
7669.34
8934.12
9990.73
8613.9
9389.48
5718.06
3630.33
3502.81
4031.63
3938.58
3772.73
3286.83
3010.54
2632.48
2417.79
2145.98
1992.92
1809.19
1713.49
1601.18
1542.57
1465.29
1419.36
1360.67
1318.35
1263.31
1213.76
1154.15
1097.53
1038.97
988.093
942.411
905.234
873.943
848.198
826.059
805.5
786.314
766.168
746.685
725.142
704.06
680.456
656.915
631.287
604.733
577.932
549.298
523.528
499.665
472.129
403.378
497
662.675
826.843
908.122
904.599
856.273
793.004
735.302
695.668
674.362
665.854
664.621
667.869
673.728
681.944
691.688
703.519
716.647
732.153
748.943
768.751
789.888
815.052
841.555
873.622
906.895
948.048
989.973
1043.36
1096.66
1167.22
1236.25
1331.95
1424.01
1558.56
1687.9
1888.56
2086.83
2407.79
2723.94
3232.61
3700.56
4419.47
4940.16
5680.27
6030.58
6892.57
7664.97
8943.35
10010.6
8648.14
9471.99
5783.33
3665.26
3521.66
4043.26
3943.37
3774.26
3286.67
3009.73
2631.21
2416.34
2144.5
1991.47
1807.76
1712.13
1599.97
1541.54
1464.42
1418.64
1360.11
1317.94
1263.03
1213.55
1153.95
1097.3
1038.66
987.706
941.994
904.833
873.601
847.94
825.896
805.427
786.328
766.256
746.851
725.379
704.384
680.857
657.414
631.875
605.418
578.709
550.121
524.409
500.531
472.839
403.76
498.64
666.263
831.814
912.973
908.223
858.423
793.891
735.283
695.138
673.623
665.078
663.88
667.186
673.103
681.368
691.152
703.012
716.16
731.677
748.473
768.277
789.407
814.556
841.042
873.082
906.326
947.439
989.32
1042.64
1095.87
1166.34
1235.26
1330.81
1422.69
1557.02
1686.11
1886.45
2084.42
2405.14
2721.2
3229.99
3698.37
4417.95
4938.62
5677.87
6025.53
6887.21
7660.2
8952.18
10029.8
8681.87
9554.92
5849.65
3701.07
3540.67
4054.53
3947.63
3775.32
3286.16
3008.66
2629.75
2414.73
2142.9
1989.92
1806.25
1710.71
1598.7
1540.46
1463.5
1417.88
1359.52
1317.51
1262.73
1213.33
1153.75
1097.04
1038.33
987.306
941.565
904.421
873.249
847.674
825.726
805.351
786.338
766.343
747.017
725.618
704.711
681.263
657.92
632.47
606.113
579.5
550.959
525.305
501.413
473.562
404.145
500.296
669.882
836.824
917.863
911.877
860.592
794.786
735.266
694.603
672.88
664.297
663.135
666.498
672.474
680.788
690.612
702.501
715.67
731.198
747.999
767.8
788.923
814.057
840.525
872.539
905.754
946.826
988.662
1041.93
1095.08
1165.45
1234.26
1329.67
1421.37
1555.48
1684.3
1884.32
2082
2402.47
2718.43
3227.34
3696.14
4416.39
4937
5675.35
6020.29
6881.59
7655.05
8960.62
10048.4
8715.11
9638.4
5917.19
3737.9
3559.91
4065.49
3951.38
3775.94
3285.33
3007.35
2628.09
2412.96
2141.19
1988.28
1804.67
1709.21
1597.37
1539.33
1462.54
1417.09
1358.89
1317.06
1262.41
1213.08
1153.52
1096.78
1037.99
986.896
941.125
903.999
872.888
847.4
825.551
805.269
786.346
766.428
747.182
725.857
705.041
681.673
658.433
633.075
606.82
580.304
551.812
526.22
502.311
474.298
404.534
501.967
673.531
841.874
922.791
915.562
862.779
795.689
735.248
694.065
672.131
663.511
662.385
665.806
671.841
680.205
690.069
701.987
715.176
730.716
747.521
767.319
788.435
813.555
840.005
871.993
905.179
946.211
988.002
1041.2
1094.29
1164.56
1233.26
1328.52
1420.05
1553.93
1682.49
1882.18
2079.56
2399.78
2715.64
3224.66
3693.88
4414.79
4935.32
5672.71
6014.88
6875.72
7649.52
8968.68
10066.4
8747.91
9722.55
5986.13
3775.89
3579.49
4076.2
3954.68
3776.13
3284.18
3005.8
2626.25
2411.06
2139.36
1986.55
1803.01
1707.66
1595.99
1538.15
1461.54
1416.26
1358.24
1316.58
1262.07
1212.83
1153.29
1096.5
1037.64
986.475
940.675
903.568
872.519
847.12
825.37
805.184
786.351
766.512
747.348
726.099
705.375
682.089
658.953
633.689
607.539
581.123
552.681
527.152
503.227
475.049
404.927
503.653
677.211
846.963
927.759
919.278
864.987
796.6
735.231
693.524
671.377
662.719
661.63
665.11
671.203
679.617
689.522
701.469
714.679
730.23
747.041
766.836
787.945
813.049
839.482
871.443
904.601
945.592
987.338
1040.48
1093.49
1163.67
1232.26
1327.37
1418.72
1552.38
1680.67
1880.03
2077.11
2397.08
2712.84
3221.97
3691.6
4413.15
4933.58
5669.98
6009.31
6869.61
7643.63
8976.37
10083.9
8780.29
9807.53
6056.64
3815.2
3599.49
4086.72
3957.53
3775.91
3282.75
3004.03
2624.25
2409.02
2137.44
1984.74
1801.29
1706.04
1594.56
1536.93
1460.5
1415.4
1357.57
1316.07
1261.72
1212.56
1153.04
1096.22
1037.28
986.045
940.217
903.129
872.143
846.834
825.185
805.097
786.355
766.596
747.516
726.343
705.713
682.511
659.481
634.314
608.271
581.957
553.568
528.104
504.162
475.814
405.324
505.355
680.921
852.092
932.765
923.026
867.215
797.52
735.215
692.978
670.619
661.923
660.871
664.409
670.562
679.026
688.971
700.947
714.179
729.741
746.557
766.349
787.451
812.541
838.957
870.892
904.021
944.971
986.673
1039.75
1092.69
1162.78
1231.25
1326.21
1417.39
1550.83
1678.85
1877.88
2074.65
2394.36
2710.02
3219.25
3689.3
4411.49
4931.79
5667.16
6003.59
6863.27
7637.41
8983.72
10100.8
8812.32
9893.47
6128.9
3855.97
3620.01
4097.09
3960
3775.32
3281.03
3002.05
2622.08
2406.86
2135.41
1982.85
1799.5
1704.38
1593.08
1535.67
1459.43
1414.52
1356.87
1315.55
1261.35
1212.27
1152.79
1095.92
1036.92
985.607
939.751
902.683
871.761
846.543
824.997
805.007
786.358
766.68
747.685
726.59
706.056
682.94
660.019
634.95
609.016
582.808
554.473
529.075
505.116
476.595
405.724
507.071
684.66
857.26
937.812
926.806
869.463
798.45
735.199
692.43
669.856
661.122
660.106
663.704
669.916
678.431
688.417
700.423
713.676
729.249
746.071
765.86
786.956
812.03
838.429
870.337
903.438
944.348
986.006
1039.02
1091.9
1161.89
1230.24
1325.06
1416.06
1549.27
1677.02
1875.73
2072.19
2391.64
2707.19
3216.53
3686.99
4409.81
4929.96
5664.25
5997.73
6856.72
7630.86
8990.73
10117.2
8844.02
9980.53
6203.11
3898.34
3641.15
4107.38
3962.11
3774.37
3279.05
2999.86
2619.76
2404.57
2133.31
1980.89
1797.66
1702.66
1591.56
1534.37
1458.34
1413.61
1356.16
1315.02
1260.96
1211.98
1152.53
1095.63
1036.54
985.163
939.279
902.23
871.373
846.247
824.805
804.915
786.36
766.765
747.856
726.841
706.404
683.375
660.565
635.597
609.776
583.675
555.396
530.068
506.09
477.393
406.129
508.801
688.429
862.467
942.898
930.619
871.731
799.388
735.184
691.878
669.087
660.316
659.338
662.995
669.267
677.833
687.86
699.895
713.169
728.754
745.582
765.368
786.457
811.517
837.899
869.781
902.854
943.724
985.337
1038.29
1091.1
1160.99
1229.23
1323.9
1414.73
1547.71
1675.19
1873.57
2069.72
2388.91
2704.36
3213.8
3684.67
4408.12
4928.09
5661.28
5991.75
6849.98
7624
8997.42
10133.1
8875.45
10068.9
6279.44
3942.48
3663.02
4117.64
3963.9
3773.1
3276.83
2997.49
2617.3
2402.18
2131.12
1978.87
1795.76
1700.9
1590.01
1533.04
1457.21
1412.67
1355.42
1314.46
1260.56
1211.68
1152.26
1095.32
1036.17
984.713
938.801
901.772
870.981
845.949
824.612
804.823
786.363
766.852
748.03
727.097
706.758
683.819
661.122
636.257
610.551
584.56
556.339
531.083
507.086
478.209
406.537
510.546
692.227
867.713
948.025
934.464
874.021
800.337
735.171
691.322
668.315
659.505
658.565
662.282
668.614
677.231
687.299
699.364
712.66
728.256
745.09
764.874
785.957
811.002
837.367
869.223
902.268
943.098
984.668
1037.56
1090.29
1160.09
1228.23
1322.74
1413.39
1546.15
1673.37
1871.41
2067.25
2386.18
2701.53
3211.07
3682.35
4406.42
4926.2
5658.24
5985.64
6843.04
7616.86
9003.82
10148.6
8906.65
10158.6
6358.09
3988.54
3685.7
4127.95
3965.42
3771.52
3274.39
2994.96
2614.72
2399.69
2128.85
1976.79
1793.82
1699.09
1588.42
1531.69
1456.07
1411.72
1354.67
1313.9
1260.16
1211.37
1151.99
1095.01
1035.79
984.26
938.318
901.31
870.585
845.647
824.417
804.73
786.367
766.941
748.208
727.357
707.119
684.27
661.689
636.929
611.341
585.463
557.303
532.12
508.103
479.042
406.948
512.306
696.053
872.997
953.192
938.343
876.333
801.295
735.159
690.764
667.537
658.689
657.787
661.565
667.957
676.625
686.735
698.831
712.148
727.756
744.596
764.377
785.454
810.485
836.834
868.664
901.681
942.471
983.997
1036.83
1089.49
1159.2
1227.22
1321.59
1412.06
1544.6
1671.54
1869.25
2064.78
2383.46
2698.7
3208.33
3680.04
4404.72
4924.3
5655.14
5979.43
6835.93
7609.45
9009.95
10163.6
8937.69
10250
6439.23
4036.66
3709.31
4138.35
3966.71
3769.69
3271.75
2992.26
2612.02
2397.12
2126.53
1974.66
1791.83
1697.26
1586.8
1530.3
1454.9
1410.75
1353.9
1313.32
1259.75
1211.06
1151.71
1094.7
1035.4
983.803
937.833
900.845
870.187
845.343
824.221
804.638
786.372
767.032
748.389
727.622
707.486
684.731
662.267
637.614
612.147
586.385
558.287
533.181
509.143
479.893
407.364
514.079
699.908
878.32
958.399
942.256
878.666
802.263
735.148
690.202
666.755
657.869
657.005
660.843
667.296
676.017
686.168
698.294
711.633
727.253
744.099
763.878
784.949
809.966
836.298
868.103
901.093
941.843
983.326
1036.1
1088.69
1158.3
1226.21
1320.43
1410.73
1543.04
1669.72
1867.09
2062.32
2380.73
2695.87
3205.6
3677.73
4403.02
4922.38
5652
5973.12
6828.66
7601.79
9015.81
10178.2
8968.62
10343.1
6523.05
4087.02
3733.96
4148.93
3967.81
3767.61
3268.93
2989.43
2609.21
2394.46
2124.14
1972.48
1789.81
1695.38
1585.15
1528.9
1453.71
1409.77
1353.13
1312.74
1259.33
1210.75
1151.44
1094.39
1035.02
983.344
937.345
900.377
869.786
845.038
824.024
804.546
786.379
767.127
748.575
727.892
707.861
685.2
662.856
638.313
612.969
587.326
559.292
534.265
510.206
480.763
407.783
515.867
703.792
883.682
963.646
946.202
881.021
803.242
735.139
689.638
665.969
657.044
656.219
660.118
666.632
675.404
685.597
697.754
711.115
726.748
743.6
763.377
784.442
809.444
835.761
867.54
900.504
941.214
982.655
1035.37
1087.89
1157.41
1225.21
1319.28
1409.41
1541.49
1667.9
1864.94
2059.85
2378.01
2693.05
3202.88
3675.43
4401.34
4920.45
5648.83
5966.73
6821.25
7593.91
9021.44
10192.5
8999.5
10438.1
6609.75
4139.76
3759.73
4159.73
3968.78
3765.32
3265.94
2986.46
2606.32
2391.73
2121.71
1970.27
1787.76
1693.49
1583.49
1527.48
1452.51
1408.78
1352.34
1312.14
1258.91
1210.43
1151.16
1094.08
1034.63
982.884
936.855
899.907
869.383
844.732
823.828
804.455
786.388
767.224
748.765
728.169
708.243
685.678
663.457
639.026
613.808
588.287
560.319
535.374
511.293
481.653
408.205
517.668
707.703
889.082
968.934
950.183
883.399
804.231
735.132
689.07
665.178
656.215
655.428
659.389
665.964
674.789
685.024
697.211
710.595
726.24
743.099
762.873
783.933
808.922
835.223
866.976
899.914
940.585
981.984
1034.63
1087.09
1156.52
1224.21
1318.13
1408.08
1539.94
1666.08
1862.79
2057.39
2375.29
2690.23
3200.17
3673.14
4399.67
4918.53
5645.63
5960.26
6813.7
7585.81
9026.86
10206.4
9030.38
10535.2
6699.5
4195.05
3786.76
4170.83
3969.64
3762.86
3262.81
2983.39
2603.34
2388.93
2119.23
1968.02
1785.69
1691.57
1581.8
1526.04
1451.3
1407.77
1351.55
1311.55
1258.48
1210.11
1150.89
1093.77
1034.25
982.424
936.365
899.436
868.98
844.426
823.633
804.367
786.4
767.325
748.96
728.452
708.633
686.166
664.069
639.753
614.664
589.267
561.368
536.507
512.403
482.562
408.631
519.484
711.642
894.519
974.263
954.197
885.8
805.231
735.127
688.5
664.382
655.381
654.633
658.656
665.293
674.17
684.448
696.666
710.072
725.729
742.595
762.368
783.422
808.397
834.683
866.412
899.323
939.955
981.313
1033.9
1086.3
1155.63
1223.2
1316.98
1406.76
1538.4
1664.27
1860.65
2054.94
2372.58
2687.43
3197.47
3670.87
4398.02
4916.62
5642.4
5953.73
6806.03
7577.52
9032.08
10220
9061.32
10634.6
6792.49
4253.05
3815.14
4182.3
3970.46
3760.25
3259.57
2980.22
2600.29
2386.09
2116.72
1965.75
1783.59
1689.63
1580.1
1524.59
1450.08
1406.76
1350.75
1310.95
1258.06
1209.8
1150.62
1093.46
1033.86
981.965
935.874
898.964
868.576
844.12
823.438
804.28
786.415
767.431
749.16
728.741
709.03
686.664
664.694
640.494
615.537
590.268
562.44
537.666
513.538
483.491
409.061
521.312
715.609
899.995
979.631
958.246
888.224
806.243
735.124
687.928
663.583
654.542
653.834
657.919
664.618
673.548
683.868
696.117
709.546
725.216
742.089
761.86
782.909
807.871
834.142
865.846
898.731
939.325
980.642
1033.17
1085.5
1154.74
1222.21
1315.84
1405.45
1536.86
1662.47
1858.51
2052.49
2369.88
2684.64
3194.79
3668.63
4396.39
4914.72
5639.17
5947.15
6798.25
7569.07
9037.13
10233.4
9092.4
10736.4
6888.89
4313.91
3844.99
4194.21
3971.27
3757.52
3256.22
2976.97
2597.18
2383.2
2114.18
1963.46
1781.48
1687.68
1578.39
1523.13
1448.85
1405.74
1349.96
1310.35
1257.63
1209.49
1150.35
1093.16
1033.48
981.507
935.384
898.493
868.172
843.815
823.246
804.196
786.434
767.54
749.366
729.037
709.436
687.172
665.33
641.25
616.428
591.289
563.534
538.849
514.697
484.439
409.494
523.155
719.603
905.507
985.04
962.33
890.672
807.266
735.124
687.353
662.779
653.7
653.031
657.178
663.94
672.922
683.286
695.566
709.018
724.701
741.581
761.35
782.395
807.343
833.599
865.279
898.139
938.695
979.971
1032.44
1084.7
1153.85
1221.21
1314.7
1404.14
1535.33
1660.67
1856.38
2050.06
2367.19
2681.86
3192.12
3666.41
4394.79
4912.84
5635.93
5940.52
6790.37
7560.45
9042.03
10246.6
9123.66
10840.7
6988.89
4377.82
3876.43
4206.62
3972.13
3754.71
3252.8
2973.65
2594.03
2380.28
2111.62
1961.16
1779.36
1685.72
1576.67
1521.67
1447.62
1404.73
1349.16
1309.75
1257.21
1209.18
1150.09
1092.86
1033.11
981.051
934.896
898.022
867.77
843.511
823.055
804.114
786.456
767.654
749.577
729.339
709.851
687.689
665.979
642.02
617.336
592.33
564.65
540.059
515.881
485.408
409.93
525.01
723.623
911.057
990.489
966.448
893.143
808.302
735.127
686.775
661.971
652.853
652.224
656.434
663.258
672.294
682.7
695.012
708.487
724.183
741.07
760.839
781.878
806.814
833.055
864.711
897.546
938.064
979.3
1031.71
1083.91
1152.96
1220.22
1313.56
1402.83
1533.8
1658.88
1854.26
2047.62
2364.51
2679.09
3189.47
3664.21
4393.22
4910.99
5632.7
5933.85
6782.41
7551.71
9046.81
10259.5
9155.18
10947.8
7092.64
4444.93
3909.57
4219.6
3973.08
3751.85
3249.32
2970.28
2590.84
2377.33
2109.05
1958.85
1777.23
1683.75
1574.95
1520.2
1446.39
1403.71
1348.36
1309.15
1256.8
1208.88
1149.84
1092.57
1032.74
980.599
934.41
897.553
867.369
843.209
822.867
804.036
786.482
767.773
749.794
729.649
710.273
688.217
666.641
642.805
618.261
593.392
565.79
541.294
517.09
486.397
410.37
526.879
727.671
916.644
995.977
970.602
895.638
809.349
735.132
686.196
661.16
652.001
651.413
655.686
662.573
671.662
682.112
694.456
707.953
723.663
740.558
760.325
781.36
806.283
832.51
864.142
896.952
937.433
978.63
1030.99
1083.12
1152.08
1219.23
1312.42
1401.53
1532.28
1657.09
1852.14
2045.2
2361.84
2676.35
3186.84
3662.04
4391.69
4909.17
5629.47
5927.15
6774.38
7542.85
9051.48
10272.3
9187.01
11057.8
7200.33
4515.43
3944.55
4233.24
3974.16
3748.96
3245.79
2966.87
2587.62
2374.37
2106.47
1956.53
1775.1
1681.78
1573.23
1518.73
1445.15
1402.69
1347.56
1308.56
1256.39
1208.59
1149.59
1092.29
1032.37
980.15
933.926
897.085
866.969
842.909
822.681
803.961
786.512
767.897
750.017
729.966
710.705
688.755
667.314
643.605
619.205
594.475
566.953
542.556
518.325
487.406
410.814
528.761
731.745
922.268
1001.51
974.789
898.157
810.409
735.141
685.614
660.344
651.146
650.599
654.934
661.885
671.028
681.521
693.896
707.417
723.14
740.043
759.809
780.84
805.75
831.964
863.572
896.358
936.802
977.96
1030.26
1082.33
1151.19
1218.24
1311.29
1400.23
1530.76
1655.31
1850.03
2042.79
2359.18
2673.61
3184.23
3659.91
4390.19
4907.38
5626.26
5920.44
6766.28
7533.88
9056.06
10285
9219.22
11170.8
7312.11
4589.48
3981.48
4247.59
3975.42
3746.09
3242.25
2963.44
2584.39
2371.4
2103.89
1954.22
1772.98
1679.81
1571.51
1517.26
1443.92
1401.68
1346.77
1307.97
1255.99
1208.3
1149.35
1092.01
1032.01
979.705
933.445
896.62
866.571
842.611
822.499
803.89
786.547
768.026
750.246
730.289
711.144
689.303
668.001
644.42
620.166
595.578
568.139
543.844
519.584
488.435
411.261
530.656
735.846
927.928
1007.07
979.012
900.7
811.482
735.153
685.031
659.525
650.287
649.78
654.179
661.193
670.39
680.927
693.334
706.879
722.615
739.526
759.291
780.318
805.216
831.416
863
895.763
936.17
977.29
1029.53
1081.54
1150.31
1217.25
1310.16
1398.94
1529.25
1653.54
1847.92
2040.38
2356.53
2670.9
3181.65
3657.8
4388.72
4905.63
5623.07
5913.71
6758.13
7524.84
9060.58
10297.6
9251.87
11287
7428.15
4667.28
4020.5
4262.75
3976.92
3743.24
3238.71
2960
2581.16
2368.43
2101.32
1951.91
1770.86
1677.84
1569.79
1515.8
1442.7
1400.67
1345.99
1307.39
1255.59
1208.02
1149.12
1091.74
1031.65
979.265
932.967
896.158
866.176
842.316
822.32
803.822
786.586
768.16
750.481
730.62
711.593
689.861
668.699
645.248
621.144
596.702
569.347
545.158
520.869
489.485
411.711
532.564
739.972
933.624
1012.68
983.27
903.268
812.567
735.169
684.446
658.702
649.424
648.958
653.421
660.498
669.749
680.33
692.769
706.338
722.088
739.006
758.771
779.795
804.68
830.866
862.428
895.167
935.538
976.62
1028.81
1080.75
1149.44
1216.27
1309.04
1397.65
1527.74
1651.77
1845.83
2037.99
2353.9
2668.2
3179.08
3655.72
4387.3
4903.92
5619.91
5906.98
6749.93
7515.73
9065.05
10310.2
9285.02
11406.6
7548.61
4749.01
4061.74
4278.78
3978.69
3740.46
3235.18
2956.56
2577.93
2365.46
2098.76
1949.62
1768.75
1675.88
1568.08
1514.35
1441.49
1399.67
1345.21
1306.82
1255.21
1207.76
1148.9
1091.47
1031.31
978.83
932.494
895.698
865.783
842.023
822.144
803.759
786.629
768.3
750.722
730.958
712.049
690.429
669.409
646.092
622.14
597.847
570.579
546.498
522.179
490.554
412.165
534.485
744.124
939.356
1018.33
987.562
905.861
813.666
735.188
683.86
657.876
648.557
648.132
652.659
659.8
669.105
679.73
692.202
705.794
721.558
738.484
758.249
779.269
804.142
830.315
861.854
894.57
934.906
975.95
1028.08
1079.96
1148.56
1215.29
1307.92
1396.36
1526.24
1650.01
1843.74
2035.6
2351.27
2665.51
3176.54
3653.68
4385.92
4902.25
5616.77
5900.25
6741.7
7506.56
9069.5
10322.8
9318.74
11529.7
7673.65
4834.88
4105.37
4295.76
3980.79
3737.78
3231.69
2953.14
2574.72
2362.51
2096.21
1947.34
1766.65
1673.94
1566.38
1512.9
1440.28
1398.68
1344.45
1306.26
1254.83
1207.5
1148.7
1091.22
1030.97
978.401
932.024
895.241
865.394
841.734
821.971
803.7
786.678
768.444
750.969
731.302
712.514
691.007
670.132
646.949
623.152
599.011
571.834
547.864
523.514
491.644
412.622
536.418
748.302
945.123
1024.01
991.89
908.479
814.779
735.212
683.272
657.047
647.686
647.302
651.894
659.099
668.459
679.127
691.632
705.248
721.025
737.96
757.724
778.741
803.602
829.763
861.279
893.972
934.272
975.279
1027.35
1079.17
1147.68
1214.31
1306.8
1395.08
1524.74
1648.25
1841.66
2033.22
2348.66
2662.84
3174.01
3651.67
4384.58
4900.63
5613.67
5893.52
6733.45
7497.36
9073.95
10335.4
9353.08
11656.4
7803.42
4925.09
4151.52
4313.79
3983.25
3735.22
3228.25
2949.74
2571.53
2359.58
2093.69
1945.08
1764.57
1672
1564.7
1511.47
1439.08
1397.7
1343.69
1305.71
1254.47
1207.26
1148.5
1090.98
1030.63
977.977
931.559
894.788
865.007
841.448
821.802
803.644
786.731
768.594
751.222
731.654
712.987
691.594
670.866
647.821
624.182
600.196
573.111
549.256
524.874
492.754
413.082
538.363
752.504
950.925
1029.74
996.252
911.122
815.905
735.24
682.683
656.214
646.812
646.469
651.125
658.395
667.809
678.522
691.059
704.699
720.491
737.434
757.197
778.211
803.061
829.208
860.702
893.373
933.638
974.609
1026.63
1078.38
1146.81
1213.34
1305.68
1393.8
1523.25
1646.5
1839.58
2030.85
2346.06
2660.19
3171.51
3649.69
4383.29
4899.06
5610.61
5886.81
6725.18
7488.14
9078.4
10348.1
9388.11
11786.8
7938.07
5019.86
4200.36
4332.94
3986.13
3732.8
3224.88
2946.38
2568.37
2356.68
2091.19
1942.85
1762.51
1670.09
1563.03
1510.05
1437.9
1396.73
1342.95
1305.17
1254.12
1207.03
1148.31
1090.74
1030.31
977.559
931.098
894.338
864.624
841.165
821.638
803.593
786.789
768.749
751.481
732.013
713.468
692.191
671.612
648.706
625.229
601.401
574.411
550.675
526.259
493.883
413.545
540.321
756.732
956.761
1035.5
1000.65
913.79
817.045
735.272
682.093
655.378
645.934
645.633
650.353
657.688
667.156
677.914
690.483
704.147
719.953
736.905
756.668
777.679
802.517
828.652
860.124
892.773
933.003
973.937
1025.9
1077.6
1145.93
1212.36
1304.57
1392.53
1521.76
1644.76
1837.51
2028.49
2343.47
2657.56
3169.03
3647.74
4382.04
4897.54
5607.6
5880.11
6716.89
7478.91
9082.89
10360.8
9423.88
11921.2
8077.77
5119.43
4252.06
4353.3
3989.47
3730.56
3221.6
2943.07
2565.25
2353.81
2088.73
1940.64
1760.48
1668.19
1561.37
1508.64
1436.73
1395.78
1342.21
1304.64
1253.78
1206.81
1148.14
1090.52
1029.99
977.146
930.642
893.892
864.244
840.886
821.476
803.547
786.851
768.91
751.746
732.378
713.957
692.798
672.369
649.605
626.292
602.626
575.733
552.119
527.669
495.032
414.012
542.292
760.984
962.632
1041.3
1005.08
916.484
818.199
735.31
681.502
654.539
645.053
644.793
649.578
656.978
666.501
677.303
689.905
703.593
719.413
736.374
756.137
777.145
801.971
828.094
859.544
892.171
932.366
973.265
1025.17
1076.81
1145.06
1211.39
1303.46
1391.26
1520.27
1643.02
1835.44
2026.13
2340.89
2654.93
3166.58
3645.83
4380.83
4896.08
5604.63
5873.44
6708.6
7469.68
9087.43
10373.7
9460.45
12059.5
8222.67
5224.04
4306.82
4374.97
3993.32
3728.52
3218.41
2939.81
2562.19
2350.98
2086.3
1938.47
1758.46
1666.31
1559.73
1507.25
1435.58
1394.84
1341.5
1304.13
1253.45
1206.6
1147.98
1090.31
1029.68
976.741
930.191
893.45
863.867
840.61
821.319
803.504
786.918
769.075
752.016
732.749
714.454
693.413
673.138
650.517
627.372
603.87
577.077
553.59
529.103
496.201
414.482
544.274
765.261
968.536
1047.14
1009.55
919.203
819.368
735.352
680.91
653.697
644.169
643.95
648.801
656.264
665.843
676.689
689.324
703.037
718.871
735.84
755.603
776.608
801.423
827.534
858.962
891.568
931.728
972.592
1024.45
1076.03
1144.19
1210.41
1302.35
1389.99
1518.79
1641.28
1833.38
2023.78
2338.31
2652.32
3164.14
3643.94
4379.66
4894.66
5601.71
5866.8
6700.32
7460.46
9092.03
10386.7
9497.88
12202
8372.92
5333.97
4364.82
4398.04
3997.73
3726.71
3215.33
2936.63
2559.17
2348.2
2083.92
1936.33
1756.48
1664.45
1558.12
1505.88
1434.45
1393.91
1340.79
1303.63
1253.14
1206.41
1147.83
1090.11
1029.38
976.341
929.744
893.011
863.494
840.338
821.166
803.466
786.99
769.246
752.293
733.127
714.958
694.037
673.917
651.442
628.467
605.133
578.444
555.086
530.563
497.389
414.956
546.268
769.561
974.474
1053.01
1014.05
921.947
820.551
735.399
680.318
652.853
643.281
643.104
648.02
655.549
665.182
676.073
688.74
702.478
718.326
735.304
755.067
776.069
800.872
826.972
858.378
890.963
931.089
971.918
1023.72
1075.24
1143.31
1209.44
1301.24
1388.72
1517.31
1639.55
1831.32
2021.44
2335.75
2649.73
3161.72
3642.09
4378.54
4893.31
5598.84
5860.18
6692.04
7451.26
9096.71
10399.9
9536.21
12348.7
8528.7
5449.48
4426.28
4422.62
4002.74
3725.14
3212.37
2933.52
2556.21
2345.47
2081.57
1934.22
1754.53
1662.62
1556.52
1504.53
1433.33
1393
1340.1
1303.14
1252.85
1206.23
1147.7
1089.91
1029.09
975.948
929.302
892.576
863.124
840.069
821.017
803.432
787.067
769.421
752.574
733.511
715.47
694.67
674.706
652.38
629.579
606.415
579.832
556.609
532.047
498.597
415.432
548.274
773.886
980.444
1058.93
1018.58
924.717
821.749
735.451
679.726
652.006
642.39
642.255
647.236
654.83
664.518
675.454
688.154
701.916
717.778
734.766
754.528
775.528
800.32
826.407
857.792
890.356
930.448
971.243
1022.99
1074.45
1142.44
1208.47
1300.13
1387.46
1515.84
1637.82
1829.27
2019.1
2333.19
2647.14
3159.31
3640.26
4377.46
4892
5596.02
5853.59
6683.77
7442.1
9101.48
10413.3
9575.5
12499.8
8690.17
5570.89
4491.44
4448.82
4008.41
3723.84
3209.56
2930.5
2553.33
2342.79
2079.27
1932.16
1752.61
1660.81
1554.95
1503.2
1432.23
1392.11
1339.43
1302.67
1252.57
1206.07
1147.57
1089.73
1028.81
975.56
928.865
892.145
862.757
839.804
820.871
803.403
787.147
769.601
752.861
733.901
715.988
695.311
675.506
653.33
630.705
607.716
581.242
558.156
533.556
499.824
415.912
550.292
778.233
986.447
1064.87
1023.15
927.513
822.963
735.509
679.133
651.156
641.496
641.403
646.449
654.108
663.852
674.832
687.565
701.351
717.228
734.224
753.987
774.984
799.764
825.84
857.203
889.746