/*--------------------------------*- C++ -*----------------------------------*\
| =========                 |                                                 |
| \\      /  F ield         | OpenFOAM: The Open Source CFD Toolbox           |
|  \\    /   O peration     | Version:  2412                                  |
|   \\  /    A nd           | Website:  www.openfoam.com                      |
|    \\/     M anipulation  |                                                 |
\*---------------------------------------------------------------------------*/
FoamFile
{
    version     2.0;
    format      ascii;
    arch        "LSB;label=32;scalar=64";
    class       volScalarField;
    location    "0.3";
    object      k;
}
// * * * * * * * * * * * * * * * * * * * * * * * * * * * * * * * * * * * * * //

dimensions      [0 2 -2 0 0 0 0];

internalField   nonuniform List<scalar> 
12960
(
39.1949
44.3425
51.619
57.1671
58.7476
57.583
55.6071
53.7237
52.294
51.4597
51.0972
51.0234
51.1021
51.2943
51.5607
51.913
52.3196
52.8109
53.3475
53.9803
54.6535
55.446
56.2732
57.2555
58.2623
59.4774
60.6971
62.2033
63.678
65.5556
67.3445
69.7157
71.911
74.9586
77.7042
81.7179
85.2958
90.8154
95.7936
103.682
110.618
121.45
130.151
143.227
151.266
163.211
167.928
181.294
191.526
207.111
218.26
195.821
201.686
142.06
110.939
116.95
130.65
129.353
126.91
117.415
112.632
104.569
100.389
94.0041
90.7264
86.0719
83.9267
80.88
79.4452
77.1989
75.9903
74.213
72.9807
71.2301
69.6889
67.7533
65.9447
64.0379
62.3969
60.8847
59.6414
58.5616
57.649
56.8383
56.0581
55.3168
54.5168
53.7372
52.854
51.9807
50.9835
49.9718
48.8545
47.6697
46.4673
45.1658
44.0004
42.9436
41.6882
39.2165
44.4222
51.7634
57.3327
58.8779
57.6531
55.6262
53.7114
52.2656
51.4255
51.0632
50.9919
51.0736
51.2685
51.5373
51.8915
52.2996
52.7919
53.3293
53.9627
54.6361
55.4286
56.2556
57.2376
58.2439
59.4584
60.6774
62.1824
63.656
65.5321
67.3192
69.6881
71.8807
74.925
77.6668
81.6761
85.2489
90.7634
95.7383
103.626
110.565
121.404
130.118
143.21
151.251
163.186
167.867
181.248
191.507
207.279
218.566
196.36
202.81
143.089
111.531
117.333
130.93
129.51
126.996
117.455
112.65
104.569
100.38
93.9889
90.7079
86.0505
83.9048
80.8597
79.428
77.1839
75.9782
74.2043
72.9756
71.2275
69.6869
67.7506
65.9396
64.0298
62.3862
60.873
59.6304
58.5525
57.6427
56.8349
56.0577
55.3192
54.5216
53.7448
52.8641
51.9941
50.9999
49.9922
48.8786
47.6977
46.4995
45.1998
44.0373
42.9802
41.7178
39.2382
44.5022
51.9084
57.4989
59.0088
57.7239
55.6459
53.6994
52.2374
51.3915
51.0293
50.9605
51.0452
51.2429
51.514
51.8701
52.2797
52.7731
53.3113
53.9451
54.6188
55.4113
56.2383
57.2199
58.2258
59.4396
60.6578
62.1618
63.6343
65.5088
67.2941
69.6608
71.8507
74.8916
77.6296
81.6345
85.2022
90.7116
95.6831
103.57
110.511
121.359
130.085
143.193
151.235
163.16
167.806
181.2
191.485
207.446
218.868
196.894
203.931
144.116
112.121
117.709
131.202
129.658
127.075
117.489
112.663
104.566
100.368
93.9717
90.6877
86.0275
83.8815
80.8383
79.4099
77.1682
75.9655
74.1952
72.9701
71.2247
69.6849
67.7478
65.9343
64.0216
62.3754
60.8613
59.6192
58.5433
57.6363
56.8316
56.0573
55.3217
54.5266
53.7526
52.8744
52.0078
51.0166
50.013
48.9031
47.7263
46.5322
45.2345
44.0747
43.0173
41.7476
39.2601
44.5826
52.0541
57.6657
59.1401
57.795
55.6658
53.6874
52.2091
51.3574
50.9953
50.929
51.0166
51.2171
51.4906
51.8486
52.2597
52.7543
53.2933
53.9275
54.6015
55.394
56.2209
57.2021
58.2076
59.4207
60.6382
62.1412
63.6125
65.4854
67.269
69.6333
71.8205
74.8581
77.5922
81.5926
85.1552
90.6593
95.6273
103.514
110.457
121.313
130.052
143.175
151.218
163.132
167.741
181.148
191.458
207.608
219.164
197.42
205.049
145.141
112.709
118.078
131.464
129.797
127.146
117.518
112.673
104.56
100.353
93.9519
90.6652
86.0025
83.8565
80.8153
79.3903
77.1512
75.9517
74.1852
72.9638
71.2211
69.6823
67.7445
65.9287
64.0129
62.3642
60.8491
59.6077
58.5338
57.6296
56.8281
56.0568
55.3241
54.5316
53.7604
52.8848
52.0217
51.0335
50.0339
48.9278
47.7552
46.5654
45.2696
44.1126
43.0548
41.7777
39.2821
44.6635
52.2005
57.833
59.2718
57.8663
55.6857
53.6755
52.1806
51.323
50.9611
50.8973
50.988
51.1912
51.4671
51.827
52.2396
52.7353
53.2751
53.9098
54.5841
55.3766
56.2033
57.1842
58.1892
59.4016
60.6184
62.1203
63.5904
65.4618
67.2436
69.6056
71.79
74.8243
77.5544
81.5503
85.1076
90.6064
95.5707
103.456
110.402
121.266
130.017
143.156
151.2
163.101
167.674
181.093
191.425
207.765
219.452
197.938
206.164
146.165
113.296
118.441
131.717
129.925
127.21
117.541
112.677
104.549
100.335
93.9291
90.6402
85.9752
83.8294
80.7905
79.3693
77.1329
75.9368
74.1742
72.9566
71.2169
69.679
67.7406
65.9225
64.0038
62.3525
60.8364
59.5957
58.5239
57.6226
56.8243
56.0561
55.3263
54.5364
53.768
52.8952
52.0355
51.0505
50.0551
48.9528
47.7845
46.5989
45.3051
44.151
43.0927
41.8081
39.3042
44.745
52.3476
58.001
59.4039
57.9378
55.7057
53.6633
52.1519
51.2884
50.9267
50.8654
50.9591
51.1651
51.4434
51.8052
52.2194
52.7161
53.2568
53.892
54.5665
55.359
56.1856
57.166
58.1707
59.3823
60.5984
62.0992
63.5682
65.4379
67.2179
69.5775
71.7592
74.79
77.5162
81.5075
85.0595
90.5529
95.5134
103.398
110.346
121.218
129.981
143.135
151.179
163.069
167.602
181.033
191.386
207.916
219.732
198.447
207.276
147.191
113.883
118.798
131.96
130.043
127.265
117.558
112.677
104.534
100.313
93.9033
90.6126
85.9457
83.8003
80.764
79.3466
77.1132
75.9208
74.1621
72.9485
71.2118
69.675
67.7361
65.9158
63.994
62.3403
60.8232
59.5832
58.5136
57.6152
56.8202
56.0551
55.3284
54.5411
53.7756
52.9055
52.0494
51.0676
50.0764
48.978
47.8141
46.6329
45.3412
44.19
43.1311
41.8388
39.3266
44.8269
52.4954
58.1696
59.5364
58.0095
55.7257
53.651
52.123
51.2536
50.8919
50.8332
50.9299
51.1388
51.4195
51.7833
52.199
52.6968
53.2383
53.8739
54.5487
55.3412
56.1676
57.1477
58.1519
59.3629
60.5782
62.0779
63.5457
65.4138
67.192
69.5492
71.7281
74.7555
77.4776
81.4643
85.0108
90.4987
95.4553
103.338
110.289
121.169
129.944
143.113
151.157
163.033
167.528
180.968
191.342
208.063
220.004
198.948
208.387
148.219
114.474
119.15
132.195
130.152
127.313
117.569
112.671
104.514
100.288
93.8746
90.5825
85.914
83.7692
80.7356
79.3224
77.0922
75.9035
74.149
72.9395
71.2059
69.6704
67.7311
65.9085
63.9838
62.3275
60.8095
59.5702
58.5028
57.6075
56.8159
56.0539
55.3302
54.5456
53.7832
52.9158
52.0633
51.0847
50.0978
49.0035
47.844
46.6673
45.3777
44.2295
43.17
41.8698
39.3491
44.9094
52.6439
58.3387
59.6693
58.0814
55.7458
53.6386
52.0938
51.2184
50.857
50.8008
50.9006
51.1123
51.3954
51.7611
52.1784
52.6773
53.2196
53.8557
54.5307
55.3232
56.1496
57.1293
58.133
59.3433
60.5579
62.0565
63.5231
65.3895
67.1658
69.5207
71.6967
74.7206
77.4387
81.4207
84.9617
90.444
95.3965
103.278
110.232
121.119
129.906
143.09
151.132
162.995
167.449
180.899
191.291
208.204
220.268
199.441
209.498
149.253
115.069
119.5
132.422
130.251
127.353
117.574
112.661
104.491
100.259
93.8431
90.55
85.88
83.7362
80.7056
79.2967
77.0699
75.8851
74.135
72.9296
71.1993
69.6651
67.7255
65.9007
63.973
62.3142
60.7953
59.5568
58.4917
57.5994
56.8112
56.0525
55.3319
54.55
53.7907
52.9261
52.0773
51.102
50.1195
49.0293
47.8744
46.7022
45.4148
44.2696
43.2095
41.9013
39.3717
44.9923
52.793
58.5085
59.8026
58.1536
55.7658
53.6259
52.0643
51.183
50.8217
50.7682
50.8711
51.0856
51.3711
51.7388
52.1576
52.6577
53.2007
53.8373
54.5126
55.3051
56.1313
57.1106
58.1139
59.3235
60.5373
62.0348
63.5002
65.365
67.1395
69.4919
71.6651
74.6855
77.3994
81.3767
84.9122
90.3887
95.3371
103.218
110.173
121.068
129.867
143.065
151.106
162.955
167.368
180.826
191.235
208.34
220.524
199.927
210.61
150.295
115.67
119.846
132.641
130.341
127.385
117.574
112.646
104.464
100.227
93.8088
90.5152
85.8441
83.7014
80.6739
79.2696
77.0464
75.8657
74.1199
72.9189
71.1919
69.6592
67.7193
65.8924
63.9618
62.3005
60.7807
59.543
58.4802
57.5911
56.8063
56.0509
55.3335
54.5544
53.7981
52.9365
52.0914
51.1195
50.1415
49.0554
47.9051
46.7377
45.4525
44.3103
43.2496
41.9332
39.3945
45.0756
52.9428
58.6788
59.9363
58.226
55.7858
53.6131
52.0345
51.1473
50.7863
50.7353
50.8413
51.0587
51.3467
51.7163
52.1367
52.6379
53.1817
53.8188
54.4944
55.2868
56.1129
57.0918
58.0947
59.3035
60.5166
62.0129
63.4772
65.3403
67.1129
69.4629
71.6332
74.65
77.3599
81.3324
84.8622
90.333
95.2771
103.156
110.114
121.016
129.827
143.04
151.079
162.913
167.283
180.749
191.172
208.47
220.773
200.405
211.724
151.345
116.279
120.192
132.854
130.422
127.41
117.568
112.627
104.433
100.192
93.772
90.4781
85.8062
83.6648
80.6407
79.2412
77.0217
75.8452
74.104
72.9074
71.184
69.6528
67.7128
65.8837
63.9502
62.2863
60.7656
59.5288
58.4683
57.5824
56.8012
56.0491
55.3349
54.5587
53.8055
52.9468
52.1056
51.1371
50.1637
49.0819
47.9364
46.7737
45.4908
44.3518
43.2903
41.9656
39.4174
45.1594
53.0932
58.8496
60.0705
58.2986
55.8059
53.6001
52.0045
51.1113
50.7505
50.7022
50.8113
51.0316
51.322
51.6937
52.1155
52.6179
53.1626
53.8001
54.4759
55.2684
56.0943
57.0728
58.0753
59.2834
60.4957
61.991
63.454
65.3155
67.0862
69.4337
71.6012
74.6144
77.3201
81.2878
84.812
90.2769
95.2166
103.094
110.053
120.963
129.786
143.013
151.05
162.868
167.196
180.668
191.105
208.596
221.014
200.876
212.841
152.408
116.899
120.538
133.06
130.494
127.428
117.556
112.604
104.399
100.154
93.7328
90.439
85.7664
83.6266
80.6061
79.2115
76.9959
75.8238
74.0873
72.8953
71.1754
69.6459
67.7058
65.8746
63.9382
62.2718
60.7502
59.5142
58.4561
57.5735
56.7959
56.0472
55.3363
54.5629
53.813
52.9573
52.12
51.155
50.1863
49.1087
47.9681
46.8103
45.5298
44.3941
43.3318
41.9985
39.4405
45.2437
53.2441
59.021
60.2051
58.3716
55.8259
53.587
51.9743
51.0751
50.7145
50.6689
50.7811
51.0043
51.2972
51.6708
52.0943
52.5977
53.1433
53.7812
54.4574
55.2498
56.0756
57.0538
58.0558
59.2631
60.4747
61.9688
63.4307
65.2905
67.0593
69.4044
71.569
74.5786
77.2801
81.2429
84.7615
90.2205
95.1557
103.032
109.993
120.91
129.745
142.986
151.02
162.822
167.105
180.584
191.032
208.717
221.248
201.341
213.964
153.484
117.531
120.885
133.26
130.559
127.439
117.54
112.576
104.361
100.113
93.6912
90.3979
85.725
83.5868
80.5701
79.1806
76.9691
75.8016
74.0699
72.8825
71.1663
69.6386
67.6984
65.8652
63.9259
62.2569
60.7345
59.4994
58.4437
57.5644
56.7904
56.0452
55.3376
54.5672
53.8205
52.9679
52.1345
51.1731
50.2091
49.136
48.0004
46.8475
45.5696
44.4372
43.3741
42.0321
39.4638
45.3283
53.3957
59.1929
60.3401
58.4448
55.846
53.5737
51.9437
51.0385
50.6782
50.6353
50.7508
50.9769
51.2722
51.6478
52.0729
52.5775
53.1238
53.7623
54.4387
55.2311
56.0568
57.0345
58.0361
59.2427
60.4536
61.9466
63.4072
65.2654
67.0323
69.375
71.5366
74.5427
77.24
81.1979
84.7107
90.1638
95.0945
102.969
109.932
120.856
129.703
142.958
150.988
162.774
167.012
180.496
190.955
208.833
221.475
201.8
215.094
154.577
118.178
121.235
133.455
130.616
127.444
117.519
112.545
104.32
100.069
93.6475
90.355
85.682
83.5456
80.5329
79.1486
76.9413
75.7785
74.0518
72.869
71.1568
69.6309
67.6908
65.8555
63.9132
62.2417
60.7185
59.4842
58.431
57.5551
56.7848
56.0431
55.3388
54.5714
53.8281
52.9785
52.1492
51.1915
50.2323
49.1638
48.0333
46.8855
45.6101
44.4811
43.4171
42.0662
39.4871
45.4133
53.5477
59.3653
60.4757
58.5184
55.8662
53.5602
51.9129
51.0017
50.6417
50.6015
50.7202
50.9492
51.2471
51.6247
52.0513
52.557
53.1042
53.7432
54.4199
55.2123
56.0379
57.0152
58.0164
59.2223
60.4323
61.9243
63.3837
65.2402
67.0053
69.3454
71.5042
74.5066
77.1998
81.1528
84.6598
90.1068
95.0329
102.906
109.871
120.802
129.66
142.93
150.956
162.724
166.917
180.404
190.873
208.945
221.695
202.254
216.232
155.688
118.84
121.588
133.647
130.667
127.442
117.493
112.509
104.276
100.023
93.6019
90.3104
85.6374
83.5031
80.4946
79.1157
76.9128
75.7548
74.033
72.8551
71.1468
69.6229
67.6829
65.8456
63.9004
62.2263
60.7022
59.4688
58.4182
57.5456
56.779
56.0409
55.3401
54.5757
53.8357
52.9894
52.1642
51.2101
50.256
49.192
48.0668
46.9242
45.6514
44.5259
43.461
42.1011
39.5107
45.4987
53.7003
59.5383
60.6117
58.5922
55.8864
53.5465
51.8819
50.9646
50.605
50.5675
50.6893
50.9213
51.2217
51.6014
52.0296
52.5365
53.0845
53.7239
54.4009
55.1933
56.0188
56.9958
57.9965
59.2017
60.411
61.9018
63.3601
65.2149
66.9781
69.3158
71.4717
74.4705
77.1594
81.1075
84.6088
90.0497
94.9711
102.842
109.809
120.748
129.617
142.901
150.923
162.673
166.819
180.31
190.786
209.052
221.909
202.703
217.38
156.82
119.521
121.946
133.835
130.711
127.436
117.463
112.471
104.229
99.9745
93.5544
90.2642
85.5916
83.4594
80.4552
79.0818
76.8834
75.7303
74.0137
72.8407
71.1365
69.6147
67.6748
65.8355
63.8873
62.2107
60.6857
59.4533
58.4051
57.536
56.7732
56.0387
55.3413
54.58
53.8435
53.0004
52.1793
51.2291
50.28
49.2208
48.1009
46.9636
45.6936
44.5717
43.5058
42.1366
39.5343
45.5845
53.8534
59.7117
60.7481
58.6664
55.9067
53.5327
51.8506
50.9273
50.5679
50.5333
50.6583
50.8933
51.1962
51.5779
52.0077
52.5157
53.0647
53.7046
54.3819
55.1742
55.9997
56.9762
57.9766
59.181
60.3896
61.8793
63.3364
65.1896
66.9509
69.2862
71.4391
74.4343
77.1191
81.0622
84.5576
89.9925
94.9092
102.779
109.747
120.693
129.575
142.872
150.889
162.62
166.719
180.212
190.695
209.156
222.117
203.148
218.539
157.975
120.221
122.311
134.02
130.749
127.424
117.429
112.429
104.18
99.924
93.5052
90.2167
85.5445
83.4145
80.4148
79.0471
76.8534
75.7053
73.994
72.8259
71.1259
69.6062
67.6666
65.8252
63.8741
62.1949
60.669
59.4375
58.3919
57.5262
56.7674
56.0365
55.3426
54.5845
53.8514
53.0116
52.1948
51.2484
50.3044
49.25
48.1356
47.0038
45.7366
44.6184
43.5516
42.1729
39.5581
45.6706
54.0069
59.8856
60.885
58.7409
55.927
53.5188
51.819
50.8896
50.5307
50.4988
50.6271
50.8651
51.1706
51.5542
51.9857
52.4949
53.0447
53.6851
54.3627
55.1551
55.9804
56.9566
57.9565
59.1603
60.3682
61.8568
63.3127
65.1642
66.9237
69.2565
71.4066
74.3981
77.0786
81.0169
84.5065
89.9351
94.8472
102.715
109.685
120.638
129.531
142.842
150.854
162.567
166.617
180.112
190.6
209.255
222.319
203.59
219.711
159.155
120.943
122.683
134.203
130.782
127.407
117.392
112.384
104.128
99.8715
93.4545
90.1679
85.4964
83.3687
80.3736
79.0116
76.8228
75.6798
73.9738
72.8108
71.115
69.5976
67.6582
65.8148
63.8608
62.1789
60.6522
59.4216
58.3786
57.5164
56.7614
56.0342
55.3439
54.589
53.8594
53.023
52.2105
51.2681
50.3293
49.2799
48.171
47.0448
45.7805
44.6662
43.5983
42.21
39.582
45.7571
54.1609
60.06
61.0225
58.8157
55.9475
53.5047
51.7872
50.8517
50.4932
50.4642
50.5957
50.8367
51.1447
51.5305
51.9635
52.4739
53.0246
53.6655
54.3434
55.1358
55.9611
56.9369
57.9364
59.1394
60.3466
61.8341
63.2889
65.1387
66.8965
69.2267
71.374
74.3619
77.0382
80.9715
84.4553
89.8778
94.785
102.651
109.623
120.583
129.488
142.813
150.819
162.512
166.514
180.009
190.501
209.352
222.516
204.03
220.898
160.362
121.689
123.063
134.386
130.811
127.386
117.351
112.336
104.074
99.8172
93.4025
90.118
85.4472
83.322
80.3317
78.9755
76.7916
75.6538
73.9532
72.7954
71.104
69.5888
67.6498
65.8044
63.8474
62.1629
60.6353
59.4056
58.3651
57.5066
56.7555
56.0321
55.3453
54.5936
53.8676
53.0346
52.2265
51.2881
50.3547
49.3102
48.2071
47.0866
45.8253
44.715
43.6459
42.2478
39.606
45.8439
54.3154
60.2349
61.1603
58.8909
55.968
53.4904
51.7551
50.8136
50.4554
50.4292
50.5641
50.8081
51.1187
51.5065
51.9412
52.4528
53.0043
53.6458
54.324
55.1164
55.9416
56.9171
57.9162
59.1185
60.325
61.8115
63.2651
65.1133
66.8692
69.197
71.3414
74.3257
76.9979
80.9262
84.4041
89.8204
94.7229
102.587
109.561
120.528
129.445
142.783
150.784
162.456
166.408
179.903
190.399
209.445
222.708
204.468
222.102
161.599
122.46
123.454
134.568
130.836
127.361
117.307
112.286
104.018
99.7614
93.3494
90.0672
85.3973
83.2745
80.2891
78.9389
76.76
75.6275
73.9324
72.7798
71.0928
69.58
67.6414
65.794
63.834
62.1468
60.6183
59.3894
58.3516
57.4966
56.7496
56.0299
55.3468
54.5983
53.876
53.0464
52.2428
51.3085
50.3806
49.3412
48.2439
47.1292
45.8711
44.7648
43.6946
42.2864
39.6301
45.931
54.4703
60.4102
61.2987
58.9665
55.9886
53.476
51.7228
50.7751
50.4174
50.3941
50.5323
50.7794
51.0926
51.4825
51.9188
52.4316
52.984
53.626
54.3046
55.097
55.9221
56.8972
57.896
59.0976
60.3034
61.7888
63.2413
65.0878
66.8419
69.1673
71.3088
74.2895
76.9575
80.8809
84.353
89.763
94.6608
102.523
109.499
120.473
129.403
142.754
150.749
162.4
166.302
179.796
190.294
209.535
222.896
204.905
223.323
162.867
123.258
123.855
134.751
130.858
127.332
117.261
112.234
103.961
99.7041
93.2952
90.0155
85.3466
83.2264
80.2459
78.9018
76.728
75.6008
73.9114
72.764
71.0816
69.5712
67.633
65.7836
63.8205
62.1306
60.6012
59.3733
58.3381
57.4867
56.7437
56.0278
55.3484
54.6032
53.8846
53.0585
52.2594
51.3293
50.4069
49.3728
48.2815
47.1728
45.9178
44.8157
43.7443
42.3258
39.6544
46.0184
54.6256
60.586
61.4375
59.0424
56.0093
53.4615
51.6903
50.7365
50.3792
50.3588
50.5003
50.7504
51.0663
51.4582
51.8962
52.4103
52.9636
53.6061
54.285
55.0774
55.9025
56.8772
57.8756
59.0766
60.2817
61.766
63.2175
65.0624
66.8147
69.1376
71.2763
74.2534
76.9172
80.8356
84.3019
89.7058
94.5987
102.46
109.437
120.419
129.36
142.725
150.713
162.343
166.194
179.686
190.185
209.622
223.08
205.342
224.564
164.168
124.085
124.269
134.935
130.877
127.3
117.212
112.18
103.902
99.6457
93.2402
89.9631
85.2953
83.1777
80.2023
78.8642
76.6957
75.574
73.8902
72.7481
71.0703
69.5624
67.6247
65.7732
63.8071
62.1145
60.5841
59.357
58.3245
57.4768
56.7378
56.0258
55.3501
54.6083
53.8934
53.0709
52.2763
51.3505
50.4338
49.405
48.3198
47.2172
45.9655
44.8677
43.7951
42.3661
39.6787
46.1062
54.7812
60.7622
61.5768
59.1187
56.0301
53.4469
51.6575
50.6975
50.3407
50.3233
50.4682
50.7213
51.0398
51.4339
51.8736
52.3888
52.943
53.586
54.2653
55.0578
55.8828
56.8572
57.8553
59.0556
60.26
61.7433
63.1936
65.0369
66.7874
69.1079
71.2438
74.2173
76.877
80.7905
84.251
89.6485
94.5367
102.396
109.376
120.364
129.318
142.696
150.678
162.286
166.084
179.575
190.074
209.707
223.26
205.779
225.826
165.504
124.942
124.696
135.121
130.894
127.266
117.161
112.124
103.841
99.5863
93.1844
89.9102
85.2436
83.1286
80.1584
78.8264
76.6632
75.5469
73.8689
72.7321
71.059
69.5537
67.6165
65.763
63.7938
62.0984
60.567
59.3408
58.3109
57.4669
56.732
56.0239
55.352
54.6135
53.9024
53.0835
52.2936
51.3722
50.4611
49.4378
48.3588
47.2624
46.0142
44.9208
43.8469
42.4072
39.7032
46.1942
54.9373
60.9388
61.7166
59.1954
56.051
53.4322
51.6245
50.6583
50.3019
50.2875
50.4358
50.6921
51.0132
51.4094
51.8507
52.3672
52.9223
53.5659
54.2455
55.0381
55.863
56.8371
57.8348
59.0345
60.2383
61.7205
63.1698
65.0114
66.7602
69.0783
71.2114
74.1813
76.8369
80.7455
84.2001
89.5914
94.4749
102.332
109.314
120.31
129.276
142.667
150.643
162.229
165.974
179.462
189.961
209.789
223.437
206.218
227.111
166.877
125.831
125.137
135.31
130.91
127.23
117.108
112.067
103.78
99.526
93.1282
89.8568
85.1915
83.0791
80.1142
78.7884
76.6305
75.5198
73.8475
72.7162
71.0478
69.5451
67.6085
65.7529
63.7806
62.0823
60.5499
59.3246
58.2974
57.457
56.7263
56.0221
55.3539
54.6189
53.9117
53.0964
52.3112
51.3942
50.489
49.4712
48.3986
47.3086
46.0639
44.9751
43.8998
42.4491
39.7278
46.2824
55.0937
61.1158
61.8568
59.2724
56.072
53.4173
51.5913
50.6189
50.263
50.2515
50.4033
50.6626
50.9864
51.3847
51.8278
52.3455
52.9015
53.5457
54.2256
55.0182
55.8432
56.817
57.8143
59.0133
60.2165
61.6977
63.1459
64.986
66.7331
69.0487
71.179
74.1454
76.7969
80.7005
84.1494
89.5345
94.4131
102.269
109.253
120.256
129.234
142.639
150.608
162.171
165.863
179.347
189.846
209.87
223.611
206.659
228.42
168.287
126.753
125.594
135.503
130.925
127.192
117.055
112.008
103.717
99.4651
93.0715
89.8032
85.1391
83.0294
80.0698
78.7502
76.5978
75.4926
73.8261
72.7003
71.0368
69.5367
67.6006
65.7429
63.7674
62.0663
60.5329
59.3084
58.2838
57.4472
56.7206
56.0204
55.3561
54.6245
53.9211
53.1096
52.3292
51.4167
50.5174
49.5053
48.4391
47.3557
46.1145
45.0305
43.9538
42.4919
39.7525
46.371
55.2504
61.2932
61.9975
59.3498
56.0932
53.4024
51.5578
50.5792
50.2238
50.2154
50.3705
50.633
50.9595
51.3599
51.8047
52.3236
52.8806
53.5253
54.2057
54.9983
55.8233
56.7967
57.7938
58.9921
60.1947
61.6748
63.1221
64.9606
66.7059
69.0191
71.1468
74.1095
76.757
80.6557
84.0988
89.4776
94.3516
102.206
109.192
120.202
129.193
142.611
150.573
162.113
165.752
179.231
189.729
209.949
223.783
207.103
229.754
169.737
127.709
126.067
135.7
130.94
127.152
117
111.949
103.654
99.4037
93.0147
89.7494
85.0867
82.9795
80.0253
78.712
76.565
75.4654
73.8048
72.6844
71.0258
69.5285
67.593
65.7331
63.7544
62.0504
60.5159
59.2922
58.2704
57.4374
56.7151
56.0188
55.3584
54.6303
53.9308
53.1231
52.3475
51.4396
50.5464
49.54
48.4804
47.4036
46.1662
45.087
44.0088
42.5355
39.7773
46.4597
55.4075
61.471
62.1386
59.4276
56.1145
53.3874
51.5241
50.5392
50.1844
50.179
50.3376
50.6033
50.9324
51.335
51.7815
52.3017
52.8596
53.5049
54.1856
54.9784
55.8033
56.7764
57.7732
58.9709
60.1729
61.652
63.0982
64.9352
66.6788
68.9896
71.1145
74.0738
76.7173
80.611
84.0484
89.4209
94.2902
102.143
109.132
120.149
129.153
142.584
150.539
162.055
165.639
179.114
189.61
210.027
223.953
207.551
231.115
171.228
128.701
126.558
135.903
130.955
127.112
116.944
111.889
103.591
99.342
92.9577
89.6956
85.0342
82.9295
79.9808
78.6737
76.5323
75.4383
73.7837
72.6688
71.0151
69.5205
67.5855
65.7235
63.7416
62.0346
60.499
59.2761
58.2569
57.4278
56.7096
56.0173
55.3608
54.6363
53.9408
53.1368
52.3662
51.4629
50.5758
49.5753
48.5225
47.4525
46.2189
45.1447
44.065
42.58
39.8021
46.5488
55.5649
61.6491
62.2801
59.5058
56.136
53.3723
51.4903
50.499
50.1448
50.1424
50.3045
50.5734
50.9052
51.31
51.7582
52.2796
52.8385
53.4843
54.1655
54.9583
55.7832
56.756
57.7525
58.9496
60.151
61.6291
63.0744
64.9097
66.6517
68.9602
71.0824
74.0381
76.6776
80.5665
83.9981
89.3643
94.2289
102.08
109.071
120.096
129.113
142.557
150.505
161.998
165.527
178.996
189.49
210.103
224.121
208.003
232.503
172.761
129.73
127.068
136.111
130.971
127.071
116.888
111.828
103.527
99.2801
92.9008
89.6419
84.9817
82.8796
79.9364
78.6355
76.4997
75.4113
73.7626
72.6532
71.0046
69.5128
67.5784
65.7141
63.729
62.0189
60.4822
59.2601
58.2436
57.4182
56.7043
56.0161
55.3634
54.6425
53.951
53.1509
52.3852
51.4866
50.6058
49.6112
48.5653
47.5023
46.2726
45.2035
44.1222
42.6253
39.8271
46.638
55.7225
61.8276
62.4221
59.5843
56.1576
53.3571
51.4562
50.4586
50.1049
50.1057
50.2713
50.5433
50.8778
51.2848
51.7347
52.2574
52.8173
53.4637
54.1452
54.9381
55.763
56.7356
57.7318
58.9283
60.1291
61.6063
63.0505
64.8844
66.6247
68.9308
71.0503
74.0025
76.6381
80.5221
83.9479
89.3079
94.1679
102.018
109.011
120.044
129.073
142.531
150.472
161.94
165.414
178.878
189.368
210.179
224.289
208.46
233.921
174.337
130.798
127.596
136.326
130.989
127.031
116.831
111.768
103.463
99.2183
92.844
89.5883
84.9294
82.8298
79.8921
78.5975
76.4673
75.3845
73.7418
72.638
70.9944
69.5053
67.5716
65.705
63.7165
62.0034
60.4655
59.2442
58.2303
57.4087
56.6991
56.0149
55.3662
54.6489
53.9614
53.1652
52.4046
51.5108
50.6363
49.6478
48.6089
47.5529
46.3273
45.2634
44.1806
42.6715
39.8522
46.7275
55.8805
62.0064
62.5645
59.6632
56.1794
53.3418
51.4219
50.418
50.0648
50.0687
50.2378
50.5131
50.8503
51.2595
51.7111
52.2351
52.7959
53.4429
54.1249
54.9179
55.7428
56.7151
57.711
58.9069
60.1072
61.5834
63.0266
64.859
66.5977
68.9014
71.0183
73.967
76.5986
80.4778
83.8979
89.2516
94.107
101.956
108.952
119.991
129.034
142.506
150.44
161.883
165.301
178.758
189.246
210.254
224.456
208.924
235.369
175.957
131.904
128.146
136.548
131.01
126.99
116.775
111.707
103.399
99.1566
92.7875
89.535
84.8774
82.7802
79.848
78.5596
76.435
75.3578
73.7212
72.6229
70.9845
69.4982
67.565
65.6962
63.7043
61.988
60.449
59.2284
58.2172
57.3993
56.694
56.0139
55.3692
54.6555
53.9721
53.1799
52.4243
51.5353
50.6673
49.685
48.6532
47.6045
46.383
45.3246
44.24
42.7185
39.8774
46.8172
56.0387
62.1855
62.7073
59.7426
56.2014
53.3265
51.3874
50.3771
50.0246
50.0316
50.2042
50.4827
50.8226
51.234
51.6874
52.2127
52.7745
53.4221
54.1045
54.8975
55.7225
56.6945
57.6902
58.8855
60.0852
61.5604
63.0028
64.8336
66.5707
68.8721
70.9863
73.9316
76.5593
80.4336
83.848
89.1955
94.0463
101.894
108.892
119.94
128.996
142.482
150.408
161.826
165.187
178.638
189.123
210.329
224.623
209.394
236.848
177.621
133.052
128.717
136.778
131.033
126.951
116.719
111.646
103.336
99.0952
92.7315
89.4821
84.8256
82.7308
79.8041
78.522
76.4031
75.3315
73.7009
72.6082
70.9748
69.4914
67.5588
65.6877
63.6923
61.9729
60.4325
59.2126
58.2041
57.3901
56.6891
56.0131
55.3724
54.6623
53.983
53.1948
52.4444
51.5603
50.6988
49.7227
48.6983
47.6569
46.4397
45.3868
44.3004
42.7663
39.9027
46.9071
56.1972
62.3649
62.8505
59.8223
56.2235
53.3111
51.3528
50.336
49.9841
49.9942
50.1705
50.4521
50.7949
51.2084
51.6636
52.1902
52.7529
53.4011
54.0839
54.8771
55.7021
56.6739
57.6693
58.864
60.0632
61.5375
62.9789
64.8082
66.5437
68.8428
70.9544
73.8962
76.52
80.3895
83.7983
89.1395
93.9858
101.832
108.833
119.888
128.958
142.458
150.377
161.77
165.074
178.517
188.999
210.403
224.79
209.871
238.36
179.33
134.241
129.31
137.017
131.059
126.913
116.664
111.586
103.273
99.0343
92.6759
89.4297
84.7743
82.6818
79.7606
78.4847
76.3714
75.3054
73.6808
72.5938
70.9656
69.485
67.553
65.6794
63.6806
61.9579
60.4163
59.197
58.1912
57.381
56.6843
56.0125
55.3758
54.6693
53.9942
53.21
52.4648
51.5857
50.7309
49.7611
48.7441
47.7102
46.4973
45.4502
44.362
42.815
39.928
46.9972
56.3559
62.5446
62.9941
59.9023
56.2458
53.2956
51.3179
50.2947
49.9434
49.9567
50.1365
50.4214
50.7669
51.1827
51.6396
52.1675
52.7313
53.3801
54.0633
54.8566
55.6816
56.6531
57.6483
58.8424
60.0412
61.5145
62.955
64.7828
66.5168
68.8135
70.9226
73.8609
76.4809
80.3456
83.7486
89.0836
93.9255
101.77
108.775
119.838
128.921
142.435
150.346
161.715
164.961
178.397
188.876
210.478
224.958
210.357
239.904
181.085
135.472
129.926
137.265
131.09
126.876
116.61
111.526
103.211
98.974
92.621
89.3778
84.7234
82.6331
79.7175
78.4477
76.3401
75.2797
73.6612
72.5797
70.9567
69.479
67.5475
65.6715
63.669
61.943
60.4001
59.1815
58.1783
57.372
56.6797
56.012
55.3793
54.6765
54.0056
53.2254
52.4856
51.6115
50.7634
49.8001
48.7906
47.7643
46.556
45.5148
44.4246
42.8644
39.9535
47.0875
56.5148
62.7245
63.1381
59.9828
56.2683
53.2802
51.2829
50.2531
49.9025
49.919
50.1024
50.3906
50.7389
51.1569
51.6156
52.1447
52.7095
53.3589
54.0426
54.836
55.6611
56.6323
57.6272
58.8208
60.0191
61.4915
62.9311
64.7574
66.4898
68.7843
70.8908
73.8257
76.4418
80.3017
83.6991
89.0279
93.8653
101.709
108.716
119.787
128.885
142.412
150.317
161.659
164.848
178.276
188.752
210.553
225.127
210.852
241.482
182.887
136.748
130.567
137.523
131.124
126.841
116.557
111.467
103.149
98.9143
92.5667
89.3266
84.6731
82.5849
79.6748
78.4112
76.3092
75.2544
73.6419
72.566
70.9482
69.4733
67.5424
65.6638
63.6578
61.9284
60.3841
59.1661
58.1656
57.3631
56.6752
56.0116
55.383
54.684
54.0172
53.2412
52.5066
51.6376
50.7963
49.8396
48.8378
47.8193
46.6156
45.5804
44.4883
42.9147
39.979
47.1779
56.6739
62.9047
63.2825
60.0636
56.2909
53.2647
51.2477
50.2114
49.8614
49.8812
50.0682
50.3596
50.7107
51.1309
51.5914
52.1219
52.6876
53.3377
54.0217
54.8153
55.6404
56.6114
57.6061
58.7991
59.9969
61.4684
62.9071
64.732
66.4629
68.755
70.859
73.7905
76.4029
80.2579
83.6497
88.9722
93.8053
101.648
108.658
119.737
128.849
142.391
150.288
161.605
164.735
178.154
188.628
210.629
225.297
211.356
243.094
184.734
138.068
131.233
137.792
131.164
126.808
116.505
111.409
103.088
98.8555
92.5133
89.2761
84.6234
82.5371
79.6325
78.375
76.2787
75.2294
73.6229
72.5526
70.9401
69.4681
67.5377
65.6565
63.6468
61.914
60.3683
59.1509
58.153
57.3543
56.6709
56.0115
55.387
54.6916
54.0291
53.2572
52.528
51.6642
50.8298
49.8797
48.8857
47.8752
46.6761
45.6472
44.553
42.9657
40.0046
47.2685
56.8332
63.0852
63.4272
60.1448
56.3138
53.2491
51.2124
50.1695
49.8201
49.8431
50.0338
50.3285
50.6823
51.1048
51.5671
52.0989
52.6656
53.3163
54.0008
54.7945
55.6197
56.5904
57.5849
58.7774
59.9747
61.4452
62.8831
64.7066
66.436
68.7258
70.8272
73.7554
76.3639
80.2142
83.6004
88.9166
93.7453
101.587
108.601
119.687
128.814
142.37
150.261
161.551
164.622
178.033
188.504
210.705
225.469
211.87
244.741
186.629
139.435
131.926
138.072
131.208
126.778
116.455
111.353
103.029
98.7975
92.4607
89.2263
84.5743
82.4899
79.5908
78.3394
76.2487
75.2049
73.6044
72.5397
70.9325
69.4633
67.5334
65.6495
63.636
61.8998
60.3526
59.1357
58.1406
57.3457
56.6667
56.0115
55.391
54.6994
54.0412
53.2734
52.5497
51.6911
50.8637
49.9203
48.9343
47.9318
46.7376
45.7151
44.6188
43.0175
40.0303
47.3593
56.9927
63.2658
63.5722
60.2264
56.3369
53.2336
51.1769
50.1274
49.7786
49.8049
49.9992
50.2972
50.6539
51.0786
51.5426
52.0758
52.6435
53.2948
53.9798
54.7736
55.5988
56.5693
57.5636
58.7556
59.9524
61.4221
62.8591
64.6811
66.409
68.6965
70.7955
73.7203
76.3251
80.1706
83.5511
88.8611
93.6855
101.526
108.543
119.638
128.779
142.35
150.234
161.498
164.51
177.912
188.38
210.782
225.643
212.394
246.424
188.57
140.848
132.645
138.364
131.259
126.75
116.406
111.297
102.97
98.7405
92.409
89.1773
84.5259
82.4433
79.5496
78.3042
76.2191
75.1808
73.5864
72.5272
70.9252
69.459
67.5295
65.6429
63.6256
61.8857
60.3371
59.1207
58.1282
57.3372
56.6626
56.0116
55.3953
54.7074
54.0535
53.2899
52.5717
51.7183
50.898
49.9614
48.9835
47.9893
46.8001
45.7841
44.6856
43.0701
40.056
47.4503
57.1523
63.4467
63.7176
60.3083
56.3601
53.218
51.1413
50.085
49.7369
49.7665
49.9645
50.2658
50.6253
51.0522
51.5181
52.0525
52.6213
53.2732
53.9586
54.7525
55.5779
56.5482
57.5423
58.7336
59.93
61.3988
62.835
64.6556
66.382
68.6673
70.7637
73.6851
76.2862
80.127
83.5019
88.8056
93.6258
101.465
108.486
119.589
128.745
142.331
150.208
161.446
164.398
177.791
188.257
210.861
225.819
212.929
248.142
190.558
142.31
133.393
138.668
131.315
126.726
116.359
111.243
102.912
98.6846
92.3583
89.1292
84.4782
82.3973
79.509
78.2696
76.1901
75.1572
73.5687
72.5152
70.9184
69.455
67.5259
65.6366
63.6153
61.8719
60.3217
59.1059
58.116
57.3289
56.6587
56.012
55.3997
54.7156
54.066
53.3067
52.5939
51.7459
50.9328
50.0031
49.0334
48.0475
46.8634
45.8542
44.7534
43.1235
40.0819
47.5413
57.3121
63.6277
63.8633
60.3906
56.3836
53.2024
51.1055
50.0425
49.6951
49.728
49.9296
50.2343
50.5965
51.0257
51.4934
52.0292
52.599
53.2515
53.9374
54.7314
55.5568
56.5269
57.5208