/*--------------------------------*- C++ -*----------------------------------*\
| =========                 |                                                 |
| \\      /  F ield         | OpenFOAM: The Open Source CFD Toolbox           |
|  \\    /   O peration     | Version:  2412                                  |
|   \\  /    A nd           | Website:  www.openfoam.com                      |
|    \\/     M anipulation  |                                                 |
\*---------------------------------------------------------------------------*/
FoamFile
{
    version     2.0;
    format      ascii;
    arch        "LSB;label=32;scalar=64";
    class       volScalarField;
    location    "0.3";
    object      nut;
}
// * * * * * * * * * * * * * * * * * * * * * * * * * * * * * * * * * * * * * //

dimensions      [0 2 -1 0 0 0 0];

internalField   nonuniform List<scalar> 
12960
(
0.345251
0.365287
0.377582
0.373023
0.356767
0.340412
0.331398
0.330388
0.334636
0.340566
0.345508
0.348722
0.350587
0.35176
0.352591
0.35335
0.354043
0.354806
0.355537
0.356395
0.357208
0.358205
0.35912
0.36029
0.361318
0.362703
0.363847
0.365496
0.366758
0.368745
0.370143
0.37258
0.374139
0.37716
0.378903
0.3827
0.384763
0.38967
0.392287
0.398475
0.401241
0.408199
0.410221
0.416818
0.416095
0.421
0.418547
0.427137
0.429401
0.435813
0.435945
0.412874
0.415293
0.34411
0.325805
0.365444
0.390212
0.387282
0.386764
0.378533
0.379501
0.37342
0.374296
0.369464
0.3704
0.367029
0.368395
0.366179
0.366903
0.364861
0.365151
0.36351
0.363061
0.361115
0.359862
0.357706
0.356208
0.354626
0.353803
0.353064
0.352699
0.352333
0.351999
0.351581
0.350972
0.350336
0.349447
0.348628
0.347518
0.346497
0.345184
0.343887
0.342405
0.340758
0.339273
0.337573
0.336553
0.336018
0.334632
0.345329
0.365457
0.377712
0.372983
0.356484
0.339929
0.330844
0.329901
0.334291
0.340366
0.345411
0.34868
0.350569
0.35175
0.352584
0.353343
0.354034
0.354796
0.355526
0.356383
0.357195
0.35819
0.359105
0.360274
0.361301
0.362685
0.363828
0.365475
0.366737
0.368721
0.370118
0.372554
0.37411
0.377129
0.37887
0.382664
0.384726
0.389632
0.392253
0.398447
0.401219
0.408187
0.410218
0.41682
0.416084
0.420972
0.418492
0.427121
0.42941
0.435941
0.436113
0.413277
0.416061
0.345071
0.326206
0.365681
0.390389
0.387328
0.386767
0.378517
0.379484
0.373395
0.374275
0.369443
0.370382
0.36701
0.36838
0.366169
0.366897
0.364856
0.36515
0.363512
0.363066
0.361119
0.359862
0.357701
0.356196
0.35461
0.353787
0.353051
0.352693
0.352332
0.352003
0.351589
0.350983
0.350348
0.349461
0.348645
0.347538
0.346522
0.345213
0.343923
0.342447
0.340805
0.339326
0.337622
0.336602
0.336057
0.334641
0.345406
0.365624
0.37784
0.372941
0.356201
0.339443
0.330286
0.329409
0.333942
0.340165
0.345313
0.348637
0.350551
0.351741
0.352577
0.353335
0.354026
0.354786
0.355515
0.356371
0.357182
0.358176
0.35909
0.360258
0.361284
0.362667
0.363809
0.365455
0.366716
0.368698
0.370093
0.372527
0.374081
0.377098
0.378836
0.382629
0.384688
0.389594
0.392219
0.398419
0.401198
0.408175
0.410215
0.416822
0.416073
0.420944
0.418435
0.427104
0.429417
0.436068
0.436278
0.413675
0.416831
0.346021
0.32659
0.365911
0.390569
0.387379
0.386777
0.378507
0.37947
0.373372
0.374255
0.369424
0.370364
0.366991
0.368365
0.366159
0.366892
0.364851
0.365149
0.363515
0.363071
0.361124
0.359863
0.357696
0.356185
0.354595
0.353771
0.353039
0.352686
0.352332
0.352008
0.351598
0.350994
0.350361
0.349475
0.348663
0.347558
0.346548
0.345243
0.34396
0.342489
0.340853
0.339379
0.337672
0.336651
0.336096
0.334649
0.345483
0.365788
0.377963
0.372895
0.355915
0.338954
0.329725
0.328914
0.333591
0.339961
0.345214
0.348594
0.350532
0.351731
0.352569
0.353327
0.354017
0.354776
0.355504
0.356358
0.357169
0.358162
0.359075
0.360242
0.361267
0.362649
0.36379
0.365435
0.366694
0.368675
0.370069
0.3725
0.374052
0.377066
0.378802
0.382593
0.384649
0.389556
0.392184
0.398389
0.401175
0.408162
0.410212
0.416824
0.416061
0.420914
0.418377
0.427085
0.429421
0.436195
0.436442
0.414069
0.417601
0.34696
0.326958
0.366134
0.390749
0.387433
0.386793
0.378501
0.37946
0.373351
0.374236
0.369405
0.370346
0.366972
0.36835
0.366149
0.366887
0.364847
0.365147
0.363517
0.363076
0.361129
0.359863
0.357692
0.356174
0.354579
0.353755
0.353026
0.352679
0.352331
0.352013
0.351606
0.351004
0.350374
0.34949
0.34868
0.347579
0.346574
0.345273
0.343997
0.342532
0.340901
0.339433
0.337722
0.336702
0.336136
0.334657
0.345559
0.36595
0.378083
0.372846
0.355625
0.338463
0.329161
0.328414
0.333236
0.339755
0.345114
0.348551
0.350514
0.351722
0.352562
0.35332
0.354008
0.354766
0.355493
0.356346
0.357155
0.358147
0.359059
0.360225
0.36125
0.36263
0.363771
0.365414
0.366672
0.368651
0.370043
0.372472
0.374022
0.377034
0.378767
0.382556
0.38461
0.389516
0.392148
0.398359
0.401151
0.408148
0.410207
0.416824
0.416047
0.420882
0.418316
0.427063
0.429423
0.43632
0.436602
0.414458
0.418372
0.347889
0.327308
0.366347
0.390929
0.38749
0.386814
0.3785
0.379452
0.373331
0.374218
0.369387
0.370329
0.366953
0.368334
0.366139
0.366882
0.364842
0.365146
0.36352
0.363081
0.361133
0.359864
0.357687
0.356162
0.354563
0.353738
0.353013
0.352672
0.352331
0.352018
0.351615
0.351015
0.350387
0.349505
0.348698
0.3476
0.3466
0.345303
0.344034
0.342575
0.34095
0.339488
0.337773
0.336752
0.336176
0.334665
0.345635
0.36611
0.3782
0.372793
0.355333
0.337968
0.328592
0.32791
0.332878
0.339548
0.345013
0.348508
0.350495
0.351712
0.352554
0.353312
0.353999
0.354756
0.355481
0.356333
0.357141
0.358132
0.359043
0.360208
0.361232
0.362612
0.363751
0.365393
0.36665
0.368627
0.370017
0.372444
0.373991
0.377001
0.378732
0.382518
0.38457
0.389476
0.392111
0.398328
0.401127
0.408133
0.410201
0.416823
0.416031
0.420849
0.418253
0.42704
0.429422
0.436443
0.43676
0.414843
0.419144
0.348809
0.327642
0.366548
0.391107
0.387549
0.386839
0.378503
0.379447
0.373313
0.374201
0.369369
0.370312
0.366934
0.368319
0.366129
0.366876
0.364837
0.365145
0.363522
0.363086
0.361138
0.359865
0.357682
0.35615
0.354546
0.353721
0.353
0.352665
0.35233
0.352022
0.351623
0.351026
0.350401
0.349519
0.348717
0.347621
0.346627
0.345334
0.344072
0.34262
0.341
0.339544
0.337825
0.336804
0.336215
0.334672
0.34571
0.366267
0.378312
0.372737
0.355037
0.33747
0.32802
0.327403
0.332517
0.339339
0.344911
0.348464
0.350476
0.351702
0.352546
0.353303
0.35399
0.354745
0.355469
0.35632
0.357127
0.358117
0.359027
0.360191
0.361214
0.362592
0.363731
0.365372
0.366627
0.368603
0.369991
0.372416
0.373961
0.376968
0.378696
0.38248
0.384529
0.389435
0.392073
0.398295
0.401101
0.408117
0.410194
0.416821
0.416014
0.420813
0.418187
0.427015
0.429418
0.436565
0.436915
0.415223
0.419916
0.34972
0.327957
0.366736
0.391283
0.38761
0.38687
0.37851
0.379444
0.373296
0.374186
0.369352
0.370295
0.366915
0.368304
0.366118
0.366871
0.364832
0.365144
0.363525
0.36309
0.361142
0.359865
0.357677
0.356138
0.35453
0.353704
0.352987
0.352658
0.352329
0.352027
0.351632
0.351037
0.350414
0.349534
0.348735
0.347642
0.346654
0.345366
0.344111
0.342664
0.341051
0.3396
0.337878
0.336856
0.336256
0.334679
0.345785
0.366422
0.378421
0.372676
0.354738
0.336969
0.327443
0.326891
0.332152
0.339129
0.344809
0.348419
0.350457
0.351691
0.352538
0.353295
0.35398
0.354735
0.355457
0.356307
0.357113
0.358101
0.359011
0.360174
0.361196
0.362573
0.363711
0.36535
0.366604
0.368578
0.369964
0.372387
0.373929
0.376934
0.378659
0.382441
0.384488
0.389393
0.392033
0.398262
0.401074
0.4081
0.410186
0.416818
0.415995
0.420775
0.41812
0.426987
0.429412
0.436685
0.437067
0.415598
0.420688
0.350624
0.328254
0.36691
0.391456
0.387672
0.386904
0.378522
0.379444
0.373281
0.374171
0.369336
0.370279
0.366897
0.368289
0.366108
0.366866
0.364827
0.365142
0.363527
0.363095
0.361147
0.359866
0.357672
0.356126
0.354513
0.353687
0.352974
0.35265
0.352328
0.352032
0.351641
0.351049
0.350427
0.349549
0.348754
0.347664
0.346681
0.345397
0.34415
0.34271
0.341102
0.339657
0.337932
0.336909
0.336296
0.334685
0.345859
0.366574
0.378525
0.372612
0.354437
0.336464
0.326863
0.326375
0.331785
0.338916
0.344706
0.348375
0.350437
0.351681
0.35253
0.353286
0.353971
0.354724
0.355445
0.356293
0.357098
0.358086
0.358994
0.360156
0.361177
0.362553
0.36369
0.365328
0.366581
0.368552
0.369937
0.372357
0.373897
0.3769
0.378622
0.382402
0.384446
0.38935
0.391993
0.398228
0.401047
0.408081
0.410177
0.416813
0.415975
0.420736
0.418049
0.426957
0.429403
0.436803
0.437217
0.41597
0.421461
0.351521
0.328532
0.367067
0.391623
0.387735
0.386943
0.378537
0.379446
0.373268
0.374157
0.369321
0.370264
0.366878
0.368274
0.366098
0.36686
0.364822
0.365141
0.363529
0.3631
0.361152
0.359866
0.357667
0.356114
0.354496
0.353669
0.35296
0.352643
0.352327
0.352036
0.351649
0.35106
0.350441
0.349565
0.348773
0.347686
0.346709
0.34543
0.34419
0.342756
0.341155
0.339716
0.337987
0.336963
0.336338
0.334691
0.345932
0.366724
0.378626
0.372545
0.354132
0.335957
0.326279
0.325855
0.331414
0.338702
0.344602
0.34833
0.350418
0.35167
0.352521
0.353278
0.353961
0.354712
0.355433
0.356279
0.357083
0.35807
0.358977
0.360138
0.361158
0.362533
0.363669
0.365305
0.366557
0.368526
0.369909
0.372327
0.373865
0.376864
0.378585
0.382361
0.384403
0.389306
0.391953
0.398193
0.401018
0.408062
0.410167
0.416808
0.415952
0.420695
0.417977
0.426925
0.429391
0.436919
0.437364
0.416338
0.422235
0.352412
0.328792
0.367206
0.391786
0.387797
0.386985
0.378556
0.379451
0.373256
0.374144
0.369307
0.370249
0.36686
0.368259
0.366088
0.366855
0.364818
0.36514
0.363532
0.363104
0.361156
0.359867
0.357662
0.356102
0.354479
0.353652
0.352946
0.352635
0.352327
0.352041
0.351658
0.351071
0.350454
0.34958
0.348792
0.347708
0.346737
0.345462
0.34423
0.342803
0.341208
0.339775
0.338042
0.337018
0.336379
0.334697
0.346005
0.36687
0.378723
0.372473
0.353824
0.335446
0.32569
0.32533
0.33104
0.338485
0.344497
0.348285
0.350398
0.35166
0.352513
0.353269
0.353951
0.354701
0.35542
0.356265
0.357068
0.358053
0.35896
0.36012
0.361139
0.362513
0.363648
0.365282
0.366533
0.3685
0.369881
0.372297
0.373832
0.376829
0.378546
0.382321
0.384359
0.389262
0.391911
0.398157
0.400989
0.408042
0.410157
0.416801
0.415929
0.420652
0.417903
0.426892
0.429377
0.437034
0.437507
0.416702
0.423009
0.353298
0.329032
0.367325
0.391942
0.38786
0.38703
0.378578
0.379458
0.373245
0.374132
0.369293
0.370234
0.366842
0.368243
0.366078
0.36685
0.364813
0.365139
0.363534
0.363109
0.361161
0.359868
0.357658
0.35609
0.354462
0.353634
0.352932
0.352627
0.352326
0.352046
0.351667
0.351083
0.350468
0.349596
0.348811
0.347731
0.346766
0.345496
0.344271
0.34285
0.341262
0.339836
0.338099
0.337074
0.336421
0.334702
0.346077
0.367014
0.378816
0.372399
0.353513
0.334933
0.325098
0.324801
0.330663
0.338267
0.344392
0.348239
0.350378
0.351649
0.352504
0.353259
0.353941
0.354689
0.355407
0.356251
0.357053
0.358037
0.358943
0.360101
0.36112
0.362492
0.363626
0.365259
0.366508
0.368474
0.369853
0.372266
0.373799
0.376793
0.378508
0.38228
0.384315
0.389217
0.391869
0.39812
0.400959
0.408022
0.410145
0.416794
0.415904
0.420607
0.417827
0.426856
0.429361
0.437148
0.437649
0.417063
0.423784
0.35418
0.329254
0.367423
0.39209
0.387921
0.387079
0.378604
0.379467
0.373236
0.374122
0.36928
0.37022
0.366825
0.368228
0.366067
0.366845
0.364809
0.365138
0.363536
0.363114
0.361166
0.359869
0.357653
0.356078
0.354444
0.353616
0.352918
0.352619
0.352325
0.352051
0.351676
0.351094
0.350482
0.349612
0.348831
0.347754
0.346795
0.345529
0.344313
0.342899
0.341318
0.339898
0.338157
0.337132
0.336464
0.334708
0.346149
0.367155
0.378905
0.37232
0.3532
0.334416
0.324502
0.324268
0.330282
0.338047
0.344286
0.348193
0.350358
0.351638
0.352495
0.35325
0.35393
0.354677
0.355394
0.356236
0.357037
0.35802
0.358925
0.360082
0.3611
0.362471
0.363604
0.365236
0.366483
0.368447
0.369824
0.372235
0.373765
0.376757
0.378469
0.382238
0.384271
0.389171
0.391826
0.398083
0.400928
0.408
0.410133
0.416786
0.415878
0.420561
0.417748
0.426819
0.429343
0.43726
0.437788
0.417422
0.42456
0.355058
0.329455
0.367498
0.392229
0.387981
0.38713
0.378634
0.379479
0.373228
0.374112
0.369269
0.370206
0.366807
0.368213
0.366058
0.36684
0.364804
0.365137
0.363539
0.363118
0.361171
0.35987
0.357648
0.356065
0.354427
0.353598
0.352904
0.352611
0.352324
0.352056
0.351686
0.351106
0.350497
0.349628
0.348851
0.347777
0.346825
0.345564
0.344355
0.342948
0.341374
0.33996
0.338216
0.33719
0.336508
0.334713
0.34622
0.367293
0.37899
0.372239
0.352884
0.333897
0.323903
0.323731
0.329898
0.337825
0.344179
0.348147
0.350338
0.351626
0.352486
0.353241
0.353919
0.354665
0.35538
0.356222
0.357022
0.358003
0.358907
0.360063
0.36108
0.36245
0.363582
0.365212
0.366458
0.36842
0.369796
0.372204
0.373732
0.37672
0.378429
0.382196
0.384226
0.389125
0.391783
0.398046
0.400897
0.407978
0.41012
0.416777
0.415851
0.420514
0.417668
0.42678
0.429322
0.43737
0.437924
0.417778
0.425337
0.355935
0.329637
0.367548
0.392359
0.38804
0.387184
0.378666
0.379492
0.373221
0.374104
0.369258
0.370193
0.36679
0.368199
0.366048
0.366835
0.3648
0.365136
0.363542
0.363123
0.361176
0.359871
0.357644
0.356053
0.35441
0.353579
0.352889
0.352603
0.352323
0.352061
0.351695
0.351118
0.350511
0.349645
0.348871
0.347801
0.346855
0.345599
0.344399
0.342998
0.341431
0.340025
0.338276
0.337249
0.336552
0.334718
0.34629
0.367428
0.379071
0.372154
0.352565
0.333375
0.323299
0.32319
0.32951
0.337602
0.344071
0.3481
0.350318
0.351615
0.352477
0.353231
0.353909
0.354653
0.355367
0.356207
0.357006
0.357986
0.358889
0.360044
0.36106
0.362429
0.36356
0.365189
0.366433
0.368393
0.369766
0.372172
0.373697
0.376683
0.37839
0.382154
0.38418
0.389079
0.391739
0.398007
0.400865
0.407955
0.410107
0.416767
0.415823
0.420465
0.417587
0.42674
0.4293
0.437479
0.438058
0.418132
0.426114
0.356809
0.329798
0.36757
0.392478
0.388096
0.38724
0.378701
0.379507
0.373216
0.374096
0.369248
0.370181
0.366773
0.368184
0.366038
0.36683
0.364796
0.365135
0.363545
0.363128
0.361182
0.359872
0.35764
0.356041
0.354392
0.353561
0.352875
0.352595
0.352322
0.352066
0.351705
0.35113
0.350526
0.349661
0.348892
0.347825
0.346886
0.345634
0.344443
0.34305
0.34149
0.34009
0.338337
0.33731
0.336597
0.334723
0.346359
0.367561
0.379149
0.372065
0.352244
0.332851
0.322691
0.322644
0.329119
0.337376
0.343962
0.348053
0.350297
0.351604
0.352468
0.353221
0.353898
0.354641
0.355353
0.356192
0.35699
0.357969
0.358871
0.360025
0.36104
0.362407
0.363538
0.365165
0.366408
0.368366
0.369737
0.372141
0.373663
0.376646
0.37835
0.382111
0.384135
0.389032
0.391694
0.397969
0.400833
0.407932
0.410093
0.416756
0.415793
0.420414
0.417503
0.426698
0.429276
0.437586
0.43819
0.418484
0.426893
0.357683
0.329939
0.367564
0.392584
0.388148
0.387298
0.378739
0.379524
0.373213
0.37409
0.369239
0.370169
0.366757
0.36817
0.366029
0.366826
0.364792
0.365135
0.363548
0.363134
0.361187
0.359874
0.357635
0.356029
0.354375
0.353543
0.352861
0.352587
0.352321
0.352071
0.351714
0.351143
0.350541
0.349678
0.348913
0.34785
0.346917
0.345671
0.344488
0.343102
0.341549
0.340156
0.3384
0.337372
0.336642
0.334729
0.346428
0.36769
0.379222
0.371973
0.35192
0.332323
0.32208
0.322093
0.328725
0.337148
0.343852
0.348006
0.350276
0.351592
0.352458
0.353211
0.353887
0.354628
0.35534
0.356177
0.356973
0.357951
0.358853
0.360005
0.36102
0.362386
0.363515
0.365141
0.366382
0.368338
0.369708
0.372109
0.373629
0.376609
0.37831
0.382068
0.384089
0.388985
0.391649
0.397929
0.400801
0.407908
0.410079
0.416745
0.415763
0.420363
0.417419
0.426655
0.429251
0.437692
0.43832
0.418835
0.427673
0.358556
0.33006
0.367527
0.392677
0.388197
0.387357
0.378779
0.379543
0.37321
0.374084
0.369231
0.370158
0.366741
0.368156
0.36602
0.366821
0.364789
0.365135
0.363551
0.363139
0.361193
0.359876
0.357632
0.356017
0.354358
0.353524
0.352846
0.352579
0.35232
0.352077
0.351724
0.351155
0.350556
0.349696
0.348934
0.347875
0.346949
0.345708
0.344533
0.343155
0.34161
0.340224
0.338464
0.337435
0.336689
0.334734
0.346496
0.367816
0.379291
0.371878
0.351594
0.331793
0.321465
0.321539
0.328327
0.336918
0.343742
0.347959
0.350255
0.35158
0.352449
0.353201
0.353876
0.354616
0.355326
0.356162
0.356957
0.357934
0.358834
0.359986
0.360999
0.362364
0.363493
0.365116
0.366357
0.36831
0.369678
0.372077
0.373594
0.376572
0.378269
0.382025
0.384042
0.388937
0.391604
0.39789
0.400768
0.407884
0.410065
0.416734
0.415732
0.42031
0.417332
0.42661
0.429224
0.437797
0.438448
0.419185
0.428454
0.35943
0.330159
0.367457
0.392755
0.388242
0.387417
0.378821
0.379564
0.373209
0.37408
0.369223
0.370147
0.366725
0.368142
0.366011
0.366817
0.364785
0.365135
0.363554
0.363145
0.3612
0.359878
0.357628
0.356006
0.35434
0.353506
0.352832
0.352571
0.35232
0.352082
0.351735
0.351168
0.350571
0.349713
0.348956
0.3479
0.346981
0.345745
0.34458
0.343209
0.341672
0.340294
0.338529
0.3375
0.336737
0.334739
0.346562
0.367939
0.379356
0.37178
0.351266
0.331261
0.320847
0.32098
0.327925
0.336687
0.34363
0.347911
0.350234
0.351569
0.352439
0.353191
0.353864
0.354603
0.355312
0.356146
0.356941
0.357916
0.358816
0.359966
0.360979
0.362342
0.36347
0.365092
0.366331
0.368283
0.369649
0.372044
0.373559
0.376534
0.378229
0.381982
0.383996
0.38889
0.391559
0.39785
0.400735
0.407859
0.41005
0.416722
0.4157
0.420256
0.417245
0.426564
0.429196
0.437901
0.438575
0.419535
0.429237
0.360304
0.330237
0.367353
0.392818
0.388282
0.387478
0.378866
0.379585
0.373209
0.374076
0.369217
0.370137
0.36671
0.368128
0.366003
0.366813
0.364782
0.365135
0.363558
0.363151
0.361206
0.359881
0.357625
0.355994
0.354323
0.353488
0.352817
0.352563
0.352319
0.352088
0.351745
0.351181
0.350587
0.349731
0.348978
0.347927
0.347014
0.345784
0.344627
0.343264
0.341735
0.340364
0.338596
0.337566
0.336785
0.334744
0.346629
0.368059
0.379418
0.371679
0.350935
0.330727
0.320224
0.320416
0.32752
0.336453
0.343518
0.347863
0.350213
0.351557
0.352429
0.353181
0.353853
0.35459
0.355298
0.356131
0.356924
0.357898
0.358797
0.359946
0.360958
0.36232
0.363447
0.365067
0.366305
0.368255
0.369619
0.372012
0.373524
0.376496
0.378188
0.381938
0.383949
0.388842
0.391513
0.39781
0.400701
0.407835
0.410035
0.41671
0.415667
0.420201
0.417156
0.426518
0.429166
0.438004
0.4387
0.419885
0.43002
0.36118
0.330294
0.367211
0.392862
0.388317
0.387539
0.378912
0.379609
0.37321
0.374074
0.369212
0.370127
0.366695
0.368114
0.365994
0.36681
0.36478
0.365135
0.363562
0.363157
0.361213
0.359884
0.357621
0.355982
0.354306
0.353469
0.352803
0.352555
0.352319
0.352094
0.351755
0.351195
0.350603
0.349749
0.349001
0.347953
0.347047
0.345823
0.344675
0.34332
0.341799
0.340437
0.338664
0.337634
0.336835
0.334749
0.346694
0.368175
0.379475
0.371574
0.350603
0.33019
0.319599
0.319849
0.327111
0.336217
0.343405
0.347814
0.350192
0.351545
0.352419
0.353171
0.353841
0.354577
0.355283
0.356115
0.356907
0.35788
0.358778
0.359926
0.360937
0.362298
0.363424
0.365043
0.366279
0.368227
0.369589
0.37198
0.37349
0.376458
0.378148
0.381895
0.383902
0.388793
0.391467
0.39777
0.400668
0.40781
0.41002
0.416697
0.415634
0.420146
0.417066
0.42647
0.429136
0.438106
0.438823
0.420235
0.430805
0.362057
0.330328
0.36703
0.392888
0.388345
0.3876
0.378959
0.379633
0.373212
0.374072
0.369207
0.370119
0.36668
0.368101
0.365986
0.366806
0.364777
0.365136
0.363566
0.363163
0.36122
0.359887
0.357618
0.355971
0.354288
0.353451
0.352789
0.352547
0.352318
0.3521
0.351766
0.351208
0.350619
0.349768
0.349024
0.34798
0.347081
0.345862
0.344725
0.343378
0.341865
0.34051
0.338734
0.337703
0.336885
0.334754
0.346758
0.368289
0.379529
0.371467
0.350268
0.329651
0.318969
0.319277
0.326698
0.335979
0.343291
0.347765
0.35017
0.351532
0.352409
0.35316
0.35383
0.354564
0.355269
0.356099
0.35689
0.357862
0.358759
0.359906
0.360916
0.362276
0.363401
0.365018
0.366253
0.368199
0.369559
0.371947
0.373455
0.37642
0.378107
0.381851
0.383855
0.388745
0.391421
0.397729
0.400634
0.407784
0.410005
0.416684
0.415601
0.420089
0.416976
0.426421
0.429104
0.438207
0.438946
0.420585
0.43159
0.362937
0.330339
0.366807
0.392892
0.388367
0.38766
0.379008
0.379659
0.373215
0.374071
0.369204
0.37011
0.366665
0.368088
0.365979
0.366803
0.364775
0.365137
0.363571
0.363169
0.361227
0.35989
0.357616
0.35596
0.354271
0.353433
0.352774
0.352539
0.352318
0.352106
0.351777
0.351222
0.350636
0.349787
0.349047
0.348007
0.347116
0.345903
0.344775
0.343436
0.341932
0.340585
0.338805
0.337774
0.336937
0.33476
0.346821
0.368399
0.379578
0.371356
0.349932
0.32911
0.318336
0.3187
0.326282
0.335739
0.343176
0.347716
0.350149
0.35152
0.352399
0.35315
0.353818
0.354551
0.355254
0.356083
0.356873
0.357844
0.35874
0.359886
0.360896
0.362254
0.363378
0.364993
0.366227
0.368171
0.369529
0.371914
0.37342
0.376382
0.378066
0.381807
0.383808
0.388696
0.391375
0.397689
0.4006
0.407759
0.40999
0.416671
0.415567
0.420032
0.416884
0.426372
0.429072
0.438307
0.439067
0.420937
0.432377
0.363818
0.330328
0.36654
0.392875
0.38838
0.387719
0.379057
0.379685
0.373219
0.374071
0.369201
0.370103
0.366651
0.368075
0.365971
0.3668
0.364773
0.365138
0.363576
0.363176
0.361235
0.359894
0.357613
0.355949
0.354254
0.353414
0.35276
0.352531
0.352318
0.352112
0.351788
0.351236
0.350653
0.349806
0.349071
0.348035
0.347151
0.345944
0.344825
0.343495
0.342
0.340662
0.338878
0.337846
0.336989
0.334765
0.346884
0.368506
0.379624
0.371243
0.349594
0.328567
0.3177
0.318119
0.325862
0.335496
0.34306
0.347667
0.350127
0.351508
0.352389
0.353139
0.353806
0.354538
0.35524
0.356067
0.356856
0.357826
0.358721
0.359865
0.360874
0.362232
0.363354
0.364969
0.366201
0.368142
0.369499
0.371882
0.373384
0.376344
0.378025
0.381764
0.383761
0.388648
0.391329
0.397648
0.400567
0.407734
0.409975
0.416658
0.415532
0.419974
0.416791
0.426322
0.429039
0.438406
0.439187
0.421291
0.433164
0.364701
0.330292
0.366226
0.392833
0.388385
0.387777
0.379107
0.379712
0.373224
0.374072
0.369199
0.370095
0.366638
0.368063
0.365964
0.366798
0.364772
0.36514
0.363581
0.363183
0.361243
0.359898
0.357611
0.355938
0.354237
0.353396
0.352746
0.352523
0.352317
0.352119
0.3518
0.35125
0.35067
0.349826
0.349095
0.348064
0.347187
0.345986
0.344877
0.343556
0.342069
0.34074
0.338952
0.33792
0.337043
0.334771
0.346945
0.36861
0.379666
0.371126
0.349253
0.328022
0.317061
0.317534
0.325439
0.335252
0.342943
0.347617
0.350105
0.351495
0.352379
0.353128
0.353794
0.354524
0.355225
0.356051
0.356839
0.357807
0.358702
0.359845
0.360853
0.362209
0.363331
0.364944
0.366175
0.368114
0.369469
0.371849
0.373349
0.376306
0.377985
0.38172
0.383714
0.388599
0.391282
0.397608
0.400533
0.407708
0.40996
0.416645
0.415498
0.419916
0.416698
0.426271
0.429006
0.438505
0.439307
0.421646
0.433951
0.365586
0.330232
0.365863
0.392764
0.388381
0.387833
0.379157
0.37974
0.37323
0.374074
0.369197
0.370089
0.366624
0.36805
0.365957
0.366795
0.36477
0.365142
0.363586
0.363191
0.361252
0.359902
0.357609
0.355927
0.354221
0.353378
0.352731
0.352515
0.352317
0.352125
0.351811
0.351265
0.350687
0.349846
0.34912
0.348093
0.347224
0.346028
0.34493
0.343617
0.34214
0.340819
0.339028
0.337996
0.337098
0.334777
0.347005
0.36871
0.379703
0.371007
0.348912
0.327475
0.316418
0.316945
0.325011
0.335005
0.342826
0.347567
0.350083
0.351483
0.352368
0.353117
0.353782
0.354511
0.35521
0.356035
0.356822
0.357789
0.358683
0.359825
0.360832
0.362187
0.363308
0.364919
0.366149
0.368086
0.369439
0.371817
0.373314
0.376268
0.377944
0.381676
0.383667
0.38855
0.391236
0.397567
0.400499
0.407683
0.409945
0.416632
0.415463
0.419857
0.416604
0.42622
0.428972
0.438603
0.439426
0.422004
0.43474
0.366473
0.330147
0.365449
0.392668
0.388366
0.387886
0.379207
0.379768
0.373236
0.374076
0.369197
0.370082
0.366611
0.368038
0.365951
0.366793
0.364769
0.365144
0.363592
0.363198
0.36126
0.359907
0.357608
0.355916
0.354204
0.35336
0.352717
0.352508
0.352318
0.352132
0.351823
0.351279
0.350705
0.349866
0.349145
0.348122
0.347261
0.346071
0.344983
0.343679
0.342212
0.3409
0.339105
0.338073
0.337154
0.334783
0.347065
0.368807
0.379737
0.370885
0.348568
0.326926
0.315772
0.316351
0.32458
0.334756
0.342707
0.347516
0.350061
0.35147
0.352358
0.353106
0.35377
0.354497
0.355196
0.356019
0.356805
0.35777
0.358663
0.359804
0.360811
0.362164
0.363285
0.364894
0.366123
0.368058
0.369409
0.371784
0.373279
0.37623
0.377903
0.381632
0.38362
0.388501
0.39119
0.397527
0.400466
0.407657
0.40993
0.416619
0.415428
0.419798
0.416509
0.426168
0.428938
0.438701
0.439544
0.422364
0.435528
0.36736
0.330035
0.364979
0.392541
0.38834
0.387936
0.379257
0.379796
0.373242
0.374078
0.369197
0.370077
0.366598
0.368026
0.365945
0.366792
0.364769
0.365146
0.363598
0.363206
0.361269
0.359912
0.357606
0.355906
0.354187
0.353342
0.352703
0.3525
0.352318
0.352139
0.351835
0.351294
0.350723
0.349886
0.34917
0.348152
0.347298
0.346115
0.345038
0.343743
0.342285
0.340983
0.339184
0.338152
0.337211
0.334789
0.347123
0.368901
0.379767
0.37076
0.348223
0.326376
0.315123
0.315753
0.324145
0.334505
0.342588
0.347465
0.350038
0.351457
0.352347
0.353095
0.353758
0.354483
0.355181
0.356003
0.356788
0.357752
0.358644
0.359784
0.36079
0.362142
0.363261
0.364869
0.366097
0.36803
0.369379
0.371751
0.373244
0.376192
0.377862
0.381588
0.383573
0.388453
0.391143
0.397486
0.400432
0.407632
0.409916
0.416606
0.415394
0.419738
0.416414
0.426116
0.428903
0.438798
0.439663
0.422726
0.436316
0.368248
0.329897
0.364452
0.392382
0.388301
0.387982
0.379307
0.379824
0.373249
0.374081
0.369197
0.370071
0.366586
0.368015
0.365939
0.36679
0.364768
0.365149
0.363604
0.363214
0.361279
0.359918
0.357605
0.355895
0.354171
0.353324
0.352689
0.352492
0.352318
0.352146
0.351847
0.35131
0.350741
0.349907
0.349196
0.348182
0.347336
0.34616
0.345093
0.343808
0.342359
0.341067
0.339265
0.338233
0.337269
0.334795
0.34718
0.368991
0.379794
0.370632
0.347877
0.325824
0.314471
0.315151
0.323707
0.334252
0.342467
0.347414
0.350016
0.351445
0.352337
0.353084
0.353746
0.35447
0.355166
0.355986
0.35677
0.357733
0.358624
0.359763
0.360769
0.362119
0.363238
0.364844
0.366071
0.368001
0.369349
0.371719
0.373209
0.376154
0.377822
0.381544
0.383526
0.388404
0.391097
0.397446
0.400399
0.407607
0.409901
0.416594
0.415359
0.419679
0.416319
0.426063
0.428869
0.438895
0.439781
0.423092
0.437104
0.369136
0.329729
0.363864
0.392187
0.388249
0.388024
0.379355
0.379852
0.373257
0.374085
0.369198
0.370066
0.366573
0.368003
0.365933
0.366789
0.364768
0.365152
0.36361
0.363223
0.361288
0.359923
0.357604
0.355885
0.354154
0.353306
0.352675
0.352485
0.352319
0.352154
0.35186
0.351325
0.350759
0.349928
0.349222
0.348213
0.347375
0.346205
0.345149
0.343873
0.342435
0.341152
0.339347
0.338315
0.337328
0.334801
0.347237
0.369078
0.379816
0.370502
0.347529
0.325271
0.313816
0.314544
0.323264
0.333996
0.342346
0.347362
0.349993
0.351432
0.352326
0.353073
0.353733
0.354456
0.35515
0.35597
0.356753
0.357715
0.358605
0.359743
0.360747
0.362097
0.363215
0.36482
0.366045
0.367973
0.369319
0.371686
0.373174
0.376116
0.377781
0.381501
0.383479
0.388355
0.391051
0.397405
0.400366
0.407582
0.409887
0.416581
0.415324
0.419618
0.416222
0.426011
0.428834
0.438991
0.439899
0.423461
0.437891
0.370022
0.329532
0.363212
0.391955
0.388181
0.388061
0.379402
0.37988
0.373264
0.374089
0.3692
0.370061
0.366561
0.367992
0.365928
0.366788
0.364769
0.365155
0.363617
0.363232
0.361298
0.359929
0.357604
0.355875
0.354138
0.353288
0.352661
0.352477
0.352319
0.352161
0.351872
0.351341
0.350778
0.34995
0.349249
0.348244
0.347414
0.346251
0.345206
0.34394
0.342512
0.341239
0.33943
0.338399
0.337389
0.334808
0.347292
0.369162
0.379835
0.370369
0.34718
0.324717
0.313158
0.313934
0.322818
0.333738
0.342223
0.34731
0.349971
0.351419
0.352315
0.353062
0.353721
0.354442
0.355135
0.355953
0.356735
0.357696
0.358585
0.359722
0.360726
0.362074
0.363191
0.364795
0.366019
0.367945
0.369289
0.371653
0.373139
0.376078
0.377741
0.381457
0.383432
0.388306
0.391005
0.397365
0.400333
0.407557
0.409874
0.416569
0.41529
0.419558
0.416126
0.425958
0.4288
0.439088
0.440017
0.423833
0.438676
0.370906
0.329304
0.362492
0.391681
0.388098
0.388093
0.379447
0.379908
0.373272
0.374093
0.369202
0.370057
0.366549
0.36798
0.365923
0.366787
0.364769
0.365158
0.363624
0.363241
0.361309
0.359935
0.357603
0.355865
0.354121
0.35327
0.352647
0.35247
0.35232
0.352169
0.351885
0.351357
0.350797
0.349971
0.349275
0.348275
0.347454
0.346298
0.345264
0.344007
0.34259
0.341328
0.339516
0.338485
0.33745
0.334814
0.347346
0.369242
0.37985
0.370234
0.34683
0.324161
0.312497
0.313319
0.322368
0.333478
0.3421
0.347258
0.349948
0.351406
0.352304
0.35305
0.353708
0.354428
0.35512
0.355937
0.356717
0.357677
0.358566
0.359701
0.360705
0.362052
0.363168
0.36477
0.365993
0.367917
0.369259
0.371621
0.373104
0.37604
0.3777
0.381413
0.383385
0.388257
0.390959
0.397325
0.4003
0.407532
0.409861
0.416557
0.415255
0.419498
0.416029
0.425904
0.428766
0.439184
0.440135
0.424208
0.439461
0.371786
0.329043
0.361701
0.391364
0.387997
0.388119
0.37949
0.379934
0.373279
0.374097
0.369204
0.370053
0.366537
0.367969
0.365918
0.366786
0.36477
0.365162
0.363631
0.36325
0.361319
0.359942
0.357603
0.355855
0.354105
0.353252
0.352633
0.352462
0.352321
0.352177
0.351898
0.351373
0.350816
0.349993
0.349303
0.348307
0.347494
0.346345
0.345322
0.344076
0.342669
0.341417
0.339602
0.338573
0.337513
0.33482
0.347399
0.369318
0.379861
0.370096
0.346478
0.323604
0.311834
0.3127
0.321914
0.333216
0.341975
0.347205
0.349925
0.351392
0.352293
0.353039
0.353695
0.354414
0.355105
0.35592
0.3567
0.357658
0.358546
0.35968
0.360683
0.362029
0.363145
0.364745
0.365967
0.367889
0.36923
0.371588
0.37307
0.376002
0.37766
0.38137
0.383338
0.388208
0.390913
0.397285
0.400267
0.407508
0.409848
0.416546
0.415221
0.419438
0.415932
0.425851
0.428732
0.43928
0.440253
0.424587
0.440243
0.372661
0.328747
0.360836
0.391
0.387876
0.388138
0.379531
0.37996
0.373287
0.374101
0.369207
0.370048
0.366525
0.367958
0.365913
0.366786
0.364771
0.365165
0.363639
0.363259
0.36133
0.359949
0.357603
0.355845
0.354089
0.353234
0.352619
0.352455
0.352321
0.352185
0.351911
0.351389
0.350836
0.350015
0.34933
0.34834
0.347535
0.346393
0.345382
0.344145
0.34275
0.341509
0.33969
0.338662
0.337577
0.334827
0.34745
0.369392
0.379869
0.369955
0.346125
0.323046
0.311168
0.312077
0.321456
0.332951
0.34185