/*--------------------------------*- C++ -*----------------------------------*\
| =========                 |                                                 |
| \\      /  F ield         | OpenFOAM: The Open Source CFD Toolbox           |
|  \\    /   O peration     | Version:  2412                                  |
|   \\  /    A nd           | Website:  www.openfoam.com                      |
|    \\/     M anipulation  |                                                 |
\*---------------------------------------------------------------------------*/
FoamFile
{
    version     2.0;
    format      ascii;
    arch        "LSB;label=32;scalar=64";
    class       volScalarField;
    location    "0.3";
    object      p;
}
// * * * * * * * * * * * * * * * * * * * * * * * * * * * * * * * * * * * * * //

dimensions      [0 2 -2 0 0 0 0];

internalField   nonuniform List<scalar> 
12960
(
109924
109902
109871
109811
109754
109665
109587
109457
109341
109170
109029
108817
108650
108386
108193
107864
107646
107234
106995
106476
106223
105560
105306
104450
104220
103102
102933
101455
101411
99432
99613.9
96930.1
97496.3
93809.7
95007.3
89879
92092
84874.6
88699
78438.7
84792.1
70090.7
80345
59119.3
75167.1
44204.2
68453.9
22650.5
58141.3
-9966.75
42176.9
-57311.2
21895.2
-114943
9439.32
-73101.5
12017.9
-40134.9
16938.5
-14298.3
24753.5
6486.85
32844.7
22175.6
39868.5
33795.4
45836.1
42608.6
50903.8
49354.9
55115.1
54533.6
58584.6
58558.5
61467
61774.8
63937.6
64471.5
66149.2
66838.9
68166.9
68945.2
69979.5
70802.1
71568.1
72428.1
72941.1
73868
74130.5
75181.1
75175.4
76428.8
76113.2
77667.2
76977.2
78936.6
77797.3
80241.4
78599.1
109929
109906
109874
109814
109757
109668
109590
109460
109344
109173
109032
108820
108652
108388
108195
107867
107649
107238
106998
106479
106226
105563
105310
104454
104223
103106
102936
101460
101415
99437
99617.4
96935.6
97499.6
93815.7
95010.1
89885.6
92094.3
84881.5
88700.4
78445.9
84792.8
70098.3
80346.5
59129.3
75172.8
44220.4
68467.5
22672.4
58157.2
-9955.22
42181.6
-57349.5
21864.1
-115134
9399.23
-73117.7
12009.2
-40134.8
16925.7
-14296.9
24747
6494.15
32844
22184.8
39869.5
33803.3
45837.7
42615.5
50906.1
49361
55117.5
54538.6
58586.6
58561.9
61467.9
61776.4
63937.4
64471.8
66148.5
66838.7
68166.5
68945.2
69979.4
70802
71568.1
72427.7
72940.8
73866.9
74129.7
75179.2
75174
76426.2
76111.1
77664.4
76974.5
78934.5
77794.6
80241.1
78597.1
109933
109910
109878
109817
109760
109670
109593
109463
109347
109175
109035
108822
108655
108391
108198
107870
107652
107241
107001
106482
106229
105567
105313
104458
104227
103110
102940
101464
101418
99442.1
99620.9
96941.2
97502.8
93821.8
95013
89892.2
92096.6
84888.6
88702
78453.2
84793.7
70106.1
80348
59139.5
75178.5
44236.5
68480.9
22694.3
58173.1
-9943.66
42186.3
-57388.1
21832.6
-115326
9358.8
-73134.1
12000.3
-40134.6
16913.1
-14295.4
24740.6
6501.6
32843.4
22194.1
39870.6
33811.3
45839.3
42622.5
50908.3
49367.2
55120
54543.5
58588.5
58565.4
61468.9
61778
63937.2
64472.1
66147.9
66838.5
68166.1
68945.1
69979.5
70802
71568.2
72427.3
72940.6
73865.7
74128.9
75177.2
75172.6
76423.7
76109.1
77661.7
76972
78932.6
77791.9
80240.9
78595.2
109938
109914
109882
109821
109764
109673
109596
109465
109350
109178
109037
108825
108658
108394
108200
107872
107654
107244
107004
106486
106232
105570
105316
104462
104230
103115
102944
101469
101422
99447.2
99624.4
96946.8
97506.1
93827.9
95016
89898.9
92099
84895.7
88703.5
78460.5
84794.6
70114
80349.7
59149.7
75184.2
44252.7
68494.3
22716.2
58189
-9932.03
42191
-57426.9
21800.9
-115521
9318.04
-73150.8
11991.2
-40134.4
16900.4
-14293.6
24734.3
6509.16
32842.9
22203.5
39871.7
33819.3
45840.9
42629.6
50910.6
49373.4
55122.4
54548.5
58590.5
58568.8
61469.8
61779.7
63937.1
64472.4
66147.3
66838.4
68165.7
68945.1
69979.5
70802
71568.3
72426.9
72940.4
73864.7
74128.2
75175.4
75171.3
76421.2
76107.2
77659.1
76969.6
78930.8
77789.3
80240.9
78593.3
109942
109918
109886
109824
109767
109676
109599
109468
109352
109181
109040
108827
108660
108396
108203
107875
107657
107247
107007
106489
106235
105574
105320
104466
104234
103119
102947
101474
101425
99452.4
99627.9
96952.4
97509.4
93834.1
95018.9
89905.6
92101.4
84902.9
88705.1
78468
84795.5
70121.9
80351.3
59160.1
75189.9
44269.1
68507.8
22738.3
58205
-9920.25
42195.8
-57465.8
21768.9
-115717
9276.91
-73167.5
11982.1
-40134.2
16887.8
-14291.9
24727.9
6516.81
32842.4
22213
39872.8
33827.4
45842.5
42636.7
50912.9
49379.6
55124.8
54553.6
58592.5
58572.3
61470.8
61781.4
63937
64472.7
66146.7
66838.3
68165.4
68945.1
69979.5
70802
71568.5
72426.5
72940.3
73863.6
74127.5
75173.5
75170
76418.7
76105.2
77656.5
76967.2
78928.9
77786.7
80240.8
78591.5
109947
109923
109891
109828
109771
109680
109602
109471
109355
109183
109042
108830
108663
108399
108206
107878
107660
107250
107010
106492
106239
105578
105323
104470
104237
103123
102951
101478
101429
99457.6
99631.4
96958.1
97512.8
93840.4
95021.9
89912.4
92103.7
84910.1
88706.7
78475.5
84796.4
70130
80352.9
59170.4
75195.6
44285.5
68521.5
22760.6
58221.1
-9908.32
42200.7
-57504.8
21736.7
-115915
9235.39
-73184.2
11973
-40134
16875
-14290.1
24721.5
6524.53
32841.8
22222.5
39873.9
33835.6
45844.1
42643.8
50915.2
49385.9
55127.3
54558.7
58594.5
58575.8
61471.8
61783.1
63936.8
64473.1
66146.1
66838.2
68165
68945.1
69979.6
70802
71568.6
72426.1
72940.1
73862.5
74126.9
75171.6
75168.6
76416.1
76103.3
77653.8
76964.8
78927
77784.1
80240.8
78589.6
109952
109927
109895
109832
109774
109683
109604
109473
109357
109186
109045
108832
108665
108402
108208
107881
107663
107253
107013
106496
106242
105581
105326
104474
104241
103128
102954
101483
101433
99462.8
99635
96963.8
97516.1
93846.7
95024.9
89919.3
92106.2
84917.4
88708.3
78483.1
84797.3
70138
80354.5
59180.9
75201.4
44302.1
68535.2
22783.1
58237.4
-9896.24
42205.8
-57544
21704.2
-116115
9193.48
-73200.9
11963.8
-40133.7
16862.1
-14288.2
24715.1
6532.32
32841.3
22232.1
39875.1
33843.8
45845.7
42651
50917.6
49392.2
55129.8
54563.8
58596.5
58579.3
61472.7
61784.8
63936.7
64473.4
66145.5
66838.1
68164.7
68945.2
69979.7
70802
71568.8
72425.8
72940
73861.4
74126.2
75169.8
75167.3
76413.6
76101.3
77651.1
76962.3
78925.1
77781.4
80240.8
78587.7
109956
109931
109899
109835
109778
109686
109607
109476
109360
109188
109047
108835
108668
108404
108211
107884
107666
107256
107016
106499
106245
105585
105330
104478
104244
103132
102958
101488
101436
99468
99638.6
96969.6
97519.5
93853
95027.9
89926.2
92108.6
84924.8
88710
78490.7
84798.2
70146.1
80356.2
59191.4
75207.2
44318.7
68549
22805.7
58253.9
-9884
42211
-57583.4
21671.6
-116317
9151.19
-73217.7
11954.5
-40133.5
16849.1
-14286.4
24708.6
6540.18
32840.8
22241.8
39876.2
33852.1
45847.4
42658.3
50919.9
49398.6
55132.3
54568.9
58598.5
58582.8
61473.7
61786.5
63936.5
64473.8
66144.8
66838.1
68164.3
68945.2
69979.8
70802.1
71569
72425.4
72939.9
73860.4
74125.5
75167.9
75166
76411.1
76099.4
77648.4
76959.8
78923.2
77778.7
80240.8
78585.7
109961
109936
109903
109839
109781
109689
109610
109479
109363
109191
109050
108838
108670
108407
108214
107887
107669
107259
107019
106502
106248
105589
105333
104482
104248
103136
102962
101493
101440
99473.3
99642.2
96975.4
97522.9
93859.4
95030.9
89933.1
92111
84932.2
88711.6
78498.3
84799.1
70154.3
80357.8
59202
75213.1
44335.5
68562.9
22828.6
58270.5
-9871.61
42216.2
-57622.9
21638.7
-116521
9108.5
-73234.4
11945.2
-40133.2
16836
-14284.6
24702.1
6548.12
32840.3
22251.6
39877.4
33860.5
45849.1
42665.6
50922.3
49405.1
55134.8
54574.2
58600.6
58586.4
61474.7
61788.3
63936.4
64474.1
66144.2
66838
68164
68945.2
69979.8
70802.1
71569.2
72425.1
72939.7
73859.3
74124.8
75166
75164.7
76408.5
76097.4
77645.7
76957.3
78921.3
77776
80240.8
78583.7
109966
109940
109907
109843
109785
109692
109613
109482
109365
109193
109052
108840
108673
108410
108217
107890
107671
107262
107023
106506
106252
105592
105337
104486
104251
103141
102965
101498
101444
99478.7
99645.8
96981.2
97526.3
93865.8
95034
89940.1
92113.5
84939.7
88713.2
78506.1
84800
70162.5
80359.4
59212.6
75218.9
44352.4
68577
22851.7
58287.3
-9859.06
42221.6
-57662.5
21605.6
-116726
9065.43
-73251.3
11935.9
-40132.9
16822.9
-14282.7
24695.6
6556.13
32839.9
22261.5
39878.6
33868.9
45850.7
42673
50924.8
49411.6
55137.4
54579.4
58602.6
58590
61475.7
61790
63936.2
64474.5
66143.6
66837.9
68163.6
68945.3
69979.9
70802.2
71569.4
72424.7
72939.6
73858.2
74124.1
75164.1
75163.4
76405.9
76095.4
77643
76954.8
78919.4
77773.2
80240.8
78581.6
109971
109945
109912
109847
109788
109695
109616
109485
109368
109196
109055
108843
108676
108413
108219
107893
107674
107265
107026
106509
106255
105596
105340
104490
104255
103145
102969
101503
101447
99484
99649.5
96987.1
97529.8
93872.2
95037
89947.2
92116
84947.2
88714.9
78513.8
84800.9
70170.8
80361
59223.3
75224.8
44369.4
68591.1
22874.9
58304.2
-9846.35
42227.1
-57702.2
21572.2
-116933
9021.96
-73268.1
11926.5
-40132.6
16809.6
-14280.8
24689
6564.21
32839.4
22271.5
39879.8
33877.4
45852.4
42680.5
50927.2
49418.1
55140
54584.7
58604.7
58593.7
61476.8
61791.8
63936.1
64474.8
66143
66837.8
68163.3
68945.3
69980.1
70802.2
71569.6
72424.4
72939.5
73857.2
74123.5
75162.2
75162
76403.3
76093.5
77640.2
76952.2
78917.4
77770.4
80240.8
78579.5
109976
109949
109916
109851
109792
109698
109619
109487
109371
109199
109058
108846
108678
108415
108222
107895
107677
107269
107029
106513
106258
105600
105344
104494
104259
103150
102973
101507
101451
99489.5
99653.2
96993.1
97533.2
93878.8
95040.1
89954.3
92118.5
84954.8
88716.5
78521.7
84801.8
70179.1
80362.6
59234
75230.7
44386.5
68605.4
22898.4
58321.3
-9833.49
42232.8
-57742.1
21538.6
-117142
8978.1
-73285
11917
-40132.3
16796.2
-14278.9
24682.4
6572.37
32839
22281.5
39881
33885.9
45854.2
42688
50929.7
49424.7
55142.6
54590
58606.8
58597.4
61477.8
61793.6
63935.9
64475.2
66142.3
66837.7
68163
68945.4
69980.2
70802.3
71569.8
72424.1
72939.4
73856.1
74122.8
75160.2
75160.7
76400.7
76091.5
77637.4
76949.7
78915.4
77767.6
80240.8
78577.4
109981
109954
109920
109854
109796
109701
109623
109490
109374
109201
109060
108848
108681
108418
108225
107898
107680
107272
107032
106516
106262
105604
105347
104499
104262
103155
102977
101512
101455
99494.9
99656.9
96999
97536.7
93885.3
95043.2
89961.5
92121
84962.4
88718.2
78529.5
84802.7
70187.4
80364.2
59244.8
75236.7
44403.8
68619.7
22922
58338.5
-9820.46
42238.5
-57782.2
21504.8
-117353
8933.84
-73301.9
11907.5
-40132.1
16782.8
-14277
24675.8
6580.59
32838.5
22291.6
39882.3
33894.5
45855.9
42695.5
50932.1
49431.4
55145.2
54595.4
58609
58601.1
61478.8
61795.3
63935.8
64475.5
66141.7
66837.6
68162.6
68945.4
69980.3
70802.4
71570
72423.8
72939.3
73855
74122.2
75158.3
75159.4
76398.1
76089.5
77634.6
76947.1
78913.4
77764.8
80240.8
78575.2
109985
109958
109925
109858
109799
109705
109626
109493
109377
109204
109063
108851
108684
108421
108228
107901
107683
107275
107035
106520
106265
105608
105351
104503
104266
103159
102981
101517
101459
99500.4
99660.6
97005.1
97540.3
93891.9
95046.4
89968.7
92123.5
84970.1
88719.9
78537.5
84803.6
70195.8
80365.8
59255.7
75242.7
44421.1
68634.2
22945.8
58355.9
-9807.27
42244.4
-57822.3
21470.7
-117566
8889.18
-73318.9
11897.9
-40131.8
16769.2
-14275.1
24669.2
6588.89
32838.1
22301.8
39883.5
33903.2
45857.6
42703.1
50934.7
49438.1
55147.9
54600.8
58611.1
58604.8
61479.9
61797.2
63935.6
64475.9
66141
66837.6
68162.3
68945.5
69980.4
70802.5
71570.3
72423.5
72939.3
73854
74121.5
75156.4
75158
76395.4
76087.4
77631.8
76944.5
78911.3
77761.9
80240.8
78573
109990
109963
109929
109862
109803
109708
109629
109496
109379
109207
109066
108854
108687
108424
108231
107904
107686
107278
107038
106523
106268
105612
105354
104507
104270
103164
102984
101523
101463
99505.9
99664.4
97011.1
97543.8
93898.6
95049.5
89975.9
92126
84977.8
88721.6
78545.5
84804.5
70204.3
80367.4
59266.6
75248.7
44438.6
68648.8
22969.9
58373.5
-9793.92
42250.4
-57862.6
21436.5
-117780
8844.13
-73335.9
11888.2
-40131.5
16755.5
-14273.1
24662.5
6597.27
32837.7
22312.1
39884.8
33911.9
45859.4
42710.8
50937.2
49444.9
55150.6
54606.3
58613.3
58608.6
61481
61799
63935.5
64476.2
66140.4
66837.5
68162
68945.6
69980.6
70802.6
71570.5
72423.2
72939.2
73852.9
74120.9
75154.5
75156.7
76392.8
76085.4
77628.9
76941.9
78909.3
77758.9
80240.8
78570.8
109996
109968
109933
109866
109807
109711
109632
109499
109382
109210
109068
108856
108689
108427
108233
107908
107689
107282
107042
106527
106272
105616
105358
104511
104274
103168
102988
101528
101467
99511.5
99668.2
97017.2
97547.4
93905.3
95052.7
89983.2
92128.6
84985.7
88723.3
78553.5
84805.4
70212.8
80369
59277.6
75254.7
44456.1
68663.5
22994.1
58391.2
-9780.41
42256.5
-57903
21401.9
-117997
8798.67
-73352.9
11878.4
-40131.2
16741.7
-14271.2
24655.7
6605.71
32837.3
22322.5
39886.1
33920.7
45861.2
42718.5
50939.7
49451.7
55153.3
54611.8
58615.5
58612.3
61482
61800.8
63935.3
64476.6
66139.7
66837.4
68161.7
68945.7
69980.7
70802.8
71570.8
72422.9
72939.2
73851.9
74120.2
75152.5
75155.4
76390.1
76083.4
77626
76939.2
78907.2
77756
80240.8
78568.5
110001
109972
109938
109870
109810
109714
109635
109502
109385
109212
109071
108859
108692
108430
108236
107911
107692
107285
107045
106531
106275
105619
105362
104516
104277
103173
102992
101533
101470
99517.1
99672
97023.4
97551
93912
95055.9
89990.6
92131.2
84993.5
88725
78561.6
84806.3
70221.4
80370.6
59288.6
75260.7
44473.8
68678.2
23018.5
58409
-9766.74
42262.7
-57943.6
21367.2
-118215
8752.8
-73370
11868.6
-40130.9
16727.8
-14269.2
24649
6614.23
32836.9
22332.9
39887.4
33929.6
45863
42726.3
50942.3
49458.5
55156
54617.4
58617.7
58616.2
61483.1
61802.7
63935.2
64476.9
66139.1
66837.3
68161.3
68945.8
69980.9
70802.9
71571.1
72422.6
72939.1
73850.8
74119.6
75150.6
75154
76387.4
76081.3
77623.1
76936.6
78905.1
77753
80240.8
78566.2
110006
109977
109942
109874
109814
109718
109638
109505
109388
109215
109074
108862
108695
108433
108239
107914
107695
107288
107048
106534
106279
105623
105365
104520
104281
103178
102996
101538
101474
99522.7
99675.8
97029.6
97554.6
93918.8
95059.1
89998
92133.8
85001.4
88726.7
78569.8
84807.2
70230
80372.2
59299.7
75266.8
44491.5
68693.1
23043.1
58427.1
-9752.9
42269.1
-57984.3
21332.2
-118435
8706.53
-73387.2
11858.7
-40130.6
16713.8
-14267.2
24642.2
6622.83
32836.6
22343.4
39888.7
33938.5
45864.8
42734.2
50944.9
49465.5
55158.8
54623
58619.9
58620
61484.2
61804.5
63935
64477.3
66138.4
66837.3
68161
68945.9
69981.1
70803.1
71571.4
72422.3
72939.1
73849.8
74118.9
75148.6
75152.7
76384.7
76079.3
77620.1
76933.9
78903
77750
80240.8
78563.8
110011
109982
109947
109878
109818
109721
109641
109508
109391
109218
109077
108865
108698
108436
108242
107917
107698
107292
107051
106538
106282
105627
105369
104524
104285
103183
103000
101543
101478
99528.4
99679.7
97035.8
97558.2
93925.7
95062.4
90005.5
92136.4
85009.4
88728.4
78578
84808
70238.6
80373.7
59310.8
75272.9
44509.4
68708.1
23067.9
58445.2
-9738.9
42275.6
-58025.1
21296.9
-118657
8659.86
-73404.4
11848.7
-40130.3
16699.7
-14265.2
24635.3
6631.5
32836.2
22354.1
39890
33947.5
45866.7
42742.1
50947.6
49472.4
55161.6
54628.6
58622.2
58623.9
61485.3
61806.4
63934.8
64477.7
66137.8
66837.2
68160.7
68946
69981.3
70803.2
71571.7
72422.1
72939
73848.7
74118.3
75146.6
75151.3
76381.9
76077.2
77617.2
76931.2
78900.8
77746.9
80240.8
78561.4
110016
109987
109952
109882
109822
109724
109645
109511
109394
109221
109080
108868
108700
108438
108245
107920
107702
107295
107055
106542
106286
105631
105373
104529
104289
103187
103004
101548
101482
99534.1
99683.5
97042.1
97561.9
93932.6
95065.6
90013
92139
85017.4
88730.2
78586.3
84808.9
70247.3
80375.3
59322
75279
44527.4
68723.2
23092.9
58463.6
-9724.73
42282.2
-58066
21261.5
-118881
8612.76
-73421.7
11838.7
-40130
16685.5
-14263.2
24628.5
6640.24
32835.9
22364.8
39891.4
33956.5
45868.5
42750
50950.2
49479.5
55164.4
54634.3
58624.5
58627.8
61486.4
61808.3
63934.7
64478
66137.1
66837.1
68160.4
68946.1
69981.5
70803.4
71572
72421.8
72939
73847.7
74117.7
75144.7
75150
76379.2
76075.1
77614.2
76928.5
78898.6
77743.9
80240.8
78558.9
110021
109992
109956
109886
109826
109728
109648
109514
109397
109223
109082
108870
108703
108441
108248
107923
107705
107298
107058
106545
106289
105635
105376
104533
104293
103192
103008
101554
101486
99539.9
99687.4
97048.4
97565.5
93939.5
95068.9
90020.6
92141.7
85025.5
88731.9
78594.6
84809.8
70256.1
80376.9
59333.3
75285.1
44545.5
68738.5
23118.1
58482
-9710.4
42288.9
-58107.1
21225.8
-119107
8565.26
-73439.1
11828.5
-40129.7
16671.2
-14261.2
24621.6
6649.05
32835.6
22375.5
39892.7
33965.6
45870.4
42758.1
50952.9
49486.5
55167.2
54640
58626.8
58631.8
61487.5
61810.2
63934.5
64478.4
66136.4
66837.1
68160.1
68946.3
69981.7
70803.6
71572.3
72421.6
72939
73846.6
74117
75142.7
75148.6
76376.4
76073.1
77611.2
76925.7
78896.4
77740.7
80240.8
78556.4
110027
109996
109961
109891
109829
109731
109651
109517
109399
109226
109085
108873
108706
108444
108251
107926
107708
107302
107061
106549
106293
105640
105380
104537
104297
103197
103012
101559
101490
99545.7
99691.4
97054.7
97569.2
93946.5
95072.2
90028.2
92144.3
85033.6
88733.7
78603
84810.7
70264.9
80378.4
59344.5
75291.2
44563.7
68753.8
23143.5
58500.7
-9695.89
42295.8
-58148.3
21189.8
-119335
8517.33
-73456.6
11818.3
-40129.4
16656.7
-14259.2
24614.6
6657.94
32835.3
22386.4
39894.1
33974.8
45872.3
42766.1
50955.6
49493.7
55170.1
54645.8
58629.1
58635.7
61488.7
61812.1
63934.3
64478.8
66135.7
66837
68159.8
68946.4
69981.9
70803.8
71572.7
72421.3
72939
73845.6
74116.4
75140.7
75147.3
76373.6
76071
77608.1
76923
78894.2
77737.6
80240.8
78553.8
110032
110001
109966
109895
109833
109735
109654
109520
109402
109229
109088
108876
108709
108447
108254
107929
107711
107305
107065
106553
106296
105644
105384
104542
104301
103202
103016
101564
101494
99551.5
99695.3
97061.1
97573
93953.5
95075.5
90035.9
92147
85041.8
88735.4
78611.4
84811.6
70273.7
80380
59355.9
75297.4
44582
68769.2
23169.1
58519.5
-9681.23
42302.8
-58189.6
21153.6
-119565
8468.99
-73474.1
11807.9
-40129.2
16642.2
-14257.2
24607.7
6666.9
32835
22397.3
39895.5
33984
45874.2
42774.3
50958.3
49500.9
55172.9
54651.6
58631.4
58639.7
61489.8
61814
63934.2
64479.1
66135
66837
68159.5
68946.6
69982.1
70804
71573
72421.1
72939
73844.5
74115.8
75138.7
75145.9
76370.8
76068.8
77605
76920.2
78891.9
77734.4
80240.8
78551.2
110037
110006
109970
109899
109837
109738
109658
109523
109405
109232
109091
108879
108712
108450
108257
107933
107714
107309
107068
106557
106300
105648
105388
104546
104305
103207
103020
101570
101498
99557.3
99699.3
97067.6
97576.7
93960.6
95078.9
90043.6
92149.7
85050.1
88737.2
78619.9
84812.5
70282.6
80381.5
59367.3
75303.6
44600.4
68784.7
23194.8
58538.4
-9666.39
42309.9
-58231.1
21117.2
-119796
8420.22
-73491.7
11797.4
-40128.9
16627.5
-14255.1
24600.6
6675.94
32834.7
22408.4
39896.9
33993.3
45876.1
42782.5
50961.1
49508.1
55175.8
54657.4
58633.8
58643.8
61491
61816
63934
64479.5
66134.3
66836.9
68159.2
68946.7
69982.4
70804.2
71573.4
72420.9
72939
73843.5
74115.2
75136.7
75144.6
76368
76066.7
77601.9
76917.4
78889.7
77731.2
80240.8
78548.6
110043
110011
109975
109903
109841
109741
109661
109526
109408
109235
109094
108882
108715
108453
108260
107936
107717
107312
107071
106560
106304
105652
105391
104551
104309
103212
103024
101575
101503
99563.3
99703.3
97074
97580.5
93967.7
95082.3
90051.4
92152.4
85058.4
88739
78628.4
84813.3
70291.5
80383
59378.7
75309.8
44618.9
68800.4
23220.8
58557.5
-9651.38
42317.2
-58272.6
21080.5
-120030
8371.02
-73509.5
11786.9
-40128.7
16612.7
-14253.1
24593.6
6685.05
32834.5
22419.5
39898.3
34002.7
45878
42790.7
50963.8
49515.4
55178.8
54663.3
58636.1
58647.8
61492.1
61817.9
63933.8
64479.9
66133.6
66836.8
68158.9
68946.9
69982.6
70804.4
71573.8
72420.7
72939.1
73842.4
74114.6
75134.7
75143.2
76365.1
76064.6
77598.8
76914.6
78887.3
77727.9
80240.8
78545.9
110048
110017
109980
109907
109845
109745
109664
109529
109411
109238
109097
108885
108718
108456
108263
107939
107721
107316
107075
106564
106307
105656
105395
104556
104313
103217
103028
101580
101507
99569.2
99707.4
97080.6
97584.3
93974.9
95085.6
90059.2
92155.1
85066.8
88740.8
78637
84814.2
70300.5
80384.6
59390.2
75316
44637.6
68816.1
23247
58576.8
-9636.2
42324.5
-58314.3
21043.6
-120266
8321.38
-73527.3
11776.1
-40128.5
16597.8
-14251
24586.5
6694.23
32834.2
22430.7
39899.8
34012.1
45879.9
42799
50966.6
49522.7
55181.7
54669.3
58638.5
58651.9
61493.3
61819.9
63933.6
64480.2
66132.9
66836.8
68158.6
68947
69982.9
70804.7
71574.2
72420.5
72939.1
73841.4
74114
75132.7
75141.8
76362.3
76062.4
77595.6
76911.7
78885
77724.6
80240.8
78543.1
110054
110022
109985
109912
109849
109748
109668
109532
109414
109241
109100
108888
108721
108460
108266
107942
107724
107319
107078
106568
106311
105660
105399
104560
104317
103222
103032
101586
101511
99575.2
99711.4
97087.1
97588.1
93982.1
95089
90067.1
92157.9
85075.2
88742.6
78645.6
84815.1
70309.5
80386.1
59401.8
75322.3
44656.3
68832
23273.4
58596.2
-9620.85
42332.1
-58356.1
21006.4
-120503
8271.31
-73545.3
11765.3
-40128.4
16582.7
-14249
24579.4
6703.49
32834
22442
39901.2
34021.6
45881.9
42807.4
50969.4
49530.1
55184.7
54675.3
58640.9
58656.1
61494.5
61821.8
63933.5
64480.6
66132.2
66836.7
68158.3
68947.2
69983.1
70804.9
71574.6
72420.3
72939.1
73840.3
74113.3
75130.6
75140.5
76359.4
76060.3
77592.4
76908.8
78882.6
77721.3
80240.9
78540.3
110060
110027
109990
109916
109853
109752
109671
109536
109418
109244
109102
108891
108724
108463
108269
107946
107727
107323
107082
106572
106315
105664
105403
104565
104321
103227
103037
101591
101515
99581.2
99715.5
97093.7
97592
93989.4
95092.5
90075.1
92160.6
85083.7
88744.4
78654.3
84815.9
70318.6
80387.6
59413.3
75328.5
44675.1
68847.9
23299.9
58615.8
-9605.33
42339.7
-58398.1
20969
-120743
8220.79
-73563.4
11754.3
-40128.2
16567.5
-14246.9
24572.2
6712.82
32833.8
22453.3
39902.7
34031.1
45883.9
42815.8
50972.3
49537.6
55187.7
54681.3
58643.4
58660.2
61495.6
61823.8
63933.3
64481
66131.5
66836.7
68158
68947.4
69983.4
70805.2
71575
72420.1
72939.2
73839.3
74112.7
75128.6
75139.1
76356.5
76058.1
77589.2
76905.9
78880.2
77717.9
80240.9
78537.5
110065
110032
109995
109920
109857
109755
109674
109539
109421
109247
109105
108894
108727
108466
108272
107949
107730
107326
107085
106576
106318
105669
105407
104569
104325
103232
103041
101597
101519
99587.3
99719.6
97100.4
97595.8
93996.7
95095.9
90083.1
92163.4
85092.2
88746.2
78663.1
84816.8
70327.7
80389.1
59425
75334.8
44694
68864
23326.7
58635.6
-9589.63
42347.5
-58440.1
20931.3
-120984
8169.83
-73581.7
11743.2
-40128.1
16552.2
-14244.9
24565
6722.22
32833.6
22464.8
39904.2
34040.8
45885.9
42824.3
50975.2
49545.1
55190.7
54687.4
58645.8
58664.4
61496.8
61825.8
63933.1
64481.3
66130.8
66836.6
68157.7
68947.6
69983.7
70805.5
71575.4
72420
72939.3
73838.3
74112.2
75126.5
75137.7
76353.6
76056
77585.9
76903
78877.8
77714.5
80240.8
78534.6
110071
110037
110000
109925
109861
109759
109678
109542
109424
109250
109108
108897
108730
108469
108275
107952
107734
107330
107089
106580
106322
105673
105411
104574
104329
103237
103045
101602
101523
99593.4
99723.7
97107.1
97599.7
94004.1
95099.4
90091.1
92166.2
85100.8
88748
78671.9
84817.6
70336.8
80390.5
59436.7
75341.1
44713.1
68880.1
23353.7
58655.5
-9573.76
42355.4
-58482.2
20893.5
-121228
8118.41
-73600.1
11731.9
-40128
16536.8
-14242.8
24557.8
6731.7
32833.4
22476.3
39905.7
34050.4
45887.9
42832.8
50978
49552.6
55193.8
54693.5
58648.3
58668.6
61498
61827.8
63932.9
64481.7
66130.1
66836.6
68157.4
68947.8
69984
70805.8
71575.9
72419.8
72939.3
73837.2
74111.6
75124.5
75136.3
76350.6
76053.8
77582.7
76900.1
78875.3
77711.1
80240.8
78531.7
110077
110043
110005
109929
109865
109763
109681
109545
109427
109253
109111
108900
108733
108472
108279
107956
107737
107334
107092
106584
106326
105677
105415
104579
104333
103242
103049
101608
101528
99599.5
99727.9
97113.8
97603.6
94011.5
95102.9
90099.2
92169
85109.4
88749.8
78680.7
84818.5
70346
80392
59448.4
75347.4
44732.2
68896.4
23380.8
58675.5
-9557.71
42363.4
-58524.5
20855.3
-121474
8066.52
-73618.7
11720.5
-40128
16521.2
-14240.8
24550.5
6741.25
32833.3
22487.9
39907.2
34060.2
45889.9
42841.4
50981
49560.2
55196.9
54699.6
58650.8
58672.9
61499.2
61829.9
63932.7
64482.1
66129.3
66836.5
68157.1
68948
69984.3
70806.1
71576.4
72419.6
72939.4
73836.2
74111
75122.4
75134.9
76347.7
76051.6
77579.3
76897.1
78872.8
77707.6
80240.8
78528.7
110082
110048
110010
109934
109869
109766
109685
109548
109430
109256
109114
108903
108736
108475
108282
107959
107740
107337
107096
106588
106330
105682
105419
104583
104337
103247
103053
101614
101532
99605.7
99732.1
97120.6
97607.6
94018.9
95106.4
90107.4
92171.8
85118.1
88751.7
78689.7
84819.3
70355.3
80393.5
59460.2
75353.7
44751.4
68912.8
23408.2
58695.8
-9541.49
42371.6
-58566.9
20817
-121721
8014.17
-73637.5
11708.9
-40128
16505.5
-14238.7
24543.2
6750.88
32833.1
22499.6
39908.8
34070
45891.9
42850
50983.9
49567.9
55200
54705.8
58653.3
58677.1
61500.5
61831.9
63932.5
64482.4
66128.6
66836.5
68156.8
68948.3
69984.7
70806.4
71576.8
72419.5
72939.5
73835.2
74110.4
75120.3
75133.6
76344.7
76049.3
77576
76894.2
78870.3
77704.1
80240.8
78525.6
110088
110053
110015
109938
109874
109770
109688
109552
109433
109259
109117
108906
108739
108478
108285
107962
107744
107341
107099
106592
106333
105686
105423
104588
104341
103252
103058
101619
101536
99611.9
99736.3
97127.4
97611.5
94026.4
95109.9
90115.6
92174.7
85126.9
88753.5
78698.6
84820.2
70364.6
80394.9
59472
75360.1
44770.8
68929.3
23435.8
58716.1
-9525.09
42379.9
-58609.4
20778.4
-121971
7961.34
-73656.4
11697.1
-40128
16489.7
-14236.7
24535.9
6760.58
32833
22511.4
39910.3
34079.8
45894
42858.7
50986.9
49575.6
55203.1
54712.1
58655.8
58681.4
61501.7
61834
63932.3
64482.8
66127.8
66836.4
68156.5
68948.5
69985
70806.7
71577.3
72419.4
72939.6
73834.1
74109.8
75118.3
75132.2
76341.7
76047.1
77572.6
76891.1
78867.7
77700.5
80240.8
78522.5
110094
110059
110020
109942
109878
109774
109692
109555
109436
109262
109120
108909
108742
108482
108288
107966
107747
107345
107103
106596
106337
105690
105427
104593
104346
103258
103062
101625
101541
99618.1
99740.5
97134.3
97615.5
94034
95113.5
90123.8
92177.5
85135.7
88755.4
78707.6
84821
70373.9
80396.3
59483.9
75366.4
44790.2
68945.9
23463.5
58736.7
-9508.52
42388.4
-58651.9
20739.6
-122223
7908.02
-73675.6
11685.1
-40128.1
16473.7
-14234.7
24528.5
6770.35
32832.9
22523.3
39911.9
34089.7
45896.1
42867.5
50989.8
49583.4
55206.2
54718.4
58658.4
58685.8
61502.9
61836
63932.1
64483.1
66127.1
66836.4
68156.2
68948.7
69985.3
70807.1
71577.8
72419.2
72939.7
73833.1
74109.2
75116.2
75130.8
76338.6
76044.9
77569.2
76888.1
78865.1
77697
80240.8
78519.4
110100
110064
110025
109947
109882
109777
109695
109558
109439
109265
109124
108912
108745
108485
108291
107969
107750
107348
107107
106600
106341
105695
105431
104598
104350
103263
103066
101631
101545
99624.4
99744.8
97141.2
97619.5
94041.6
95117
90132.1
92180.4
85144.6
88757.3
78716.7
84821.8
70383.3
80397.8
59495.8
75372.8
44809.7
68962.6
23491.5
58757.4
-9491.76
42397
-58694.6
20700.5
-122476
7854.21
-73695
11672.8
-40128.3
16457.6
-14232.6
24521.1
6780.2
32832.8
22535.2
39913.5
34099.7
45898.1
42876.3
50992.9
49591.2
55209.4
54724.7
58660.9
58690.1
61504.2
61838.1
63931.8
64483.5
66126.3
66836.3
68155.9
68949
69985.7
70807.4
71578.3
72419.1
72939.8
73832.1
74108.6
75114.1
75129.4
76335.6
76042.6
77565.7
76885.1
78862.5
77693.3
80240.7
78516.2
110106
110070
110030
109951
109886
109781
109699
109561
109443
109268
109127
108915
108748
108488
108295
107973
107754
107352
107110
106604
106345
105699
105435
104603
104354
103268
103071
101637
101549
99630.7
99749
97148.1
97623.5
94049.2
95120.6
90140.5
92183.3
85153.5
88759.1
78725.8
84822.7
70392.7
80399.2
59507.8
75379.2
44829.4
68979.4
23519.7
58778.3
-9474.83
42405.7
-58737.4
20661.2
-122732
7799.9
-73714.7
11660.4
-40128.5
16441.3
-14230.6
24513.6
6790.12
32832.7
22547.3
39915.1
34109.8
45900.2
42885.2
50995.9
49599.1
55212.6
54731.1
58663.5
58694.5
61505.4
61840.2
63931.6
64483.9
66125.5
66836.3
68155.7
68949.2
69986
70807.8
71578.8
72419
72940
73831.1
74108.1
75112
75128
76332.5
76040.4
77562.3
76882
78859.8
77689.7
80240.7
78512.9
110112
110075
110035
109956
109890
109785
109702
109565
109446
109271
109130
108918
108751
108491
108298
107976
107757
107356
107114
106608
106349
105704
105439
104608
104358
103274
103075
101642
101554
99637.1
99753.3
97155.1
97627.6
94056.9
95124.2
90148.9
92186.2
85162.5
88761
78735
84823.5
70402.2
80400.6
59519.8
75385.6
44849.1
68996.3
23548
58799.3
-9457.71
42414.6
-58780.3
20621.7
-122990
7745.07
-73734.6
11647.6
-40128.8
16424.9
-14228.6
24506.1
6800.11
32832.6
22559.4
39916.7
34119.9
45902.3
42894.1
50998.9
49607
55215.9
54737.5
58666.1
58698.9
61506.7
61842.3
63931.4
64484.2
66124.8
66836.2
68155.4
68949.5
69986.4
70808.2
71579.4
72418.9
72940.1
73830
74107.5
75109.8
75126.6
76329.4
76038.1
77558.7
76878.9
78857.1
77686
80240.7
78509.6
110118
110081
110041
109961
109895
109788
109706
109568
109449
109274
109133
108921
108754
108495
108301
107980
107761
107360
107118
106612
106353
105708
105443
104612
104363
103279
103080
101648
101558
99643.5
99757.7
97162.1
97631.7
94064.6
95127.9
90157.4
92189.1
85171.5
88762.9
78744.3
84824.3
70411.7
80401.9
59531.8
75392
44868.9
69013.3
23576.6
58820.5
-9440.41
42423.6
-58823.2
20581.9
-123250
7689.72
-73754.8
11634.7
-40129.2
16408.3
-14226.5
24498.6
6810.18
32832.6
22571.6
39918.3
34130
45904.5
42903.1
51002
49615
55219.1
54744
58668.8
58703.4
61508
61844.4
63931.2
64484.6
66124
66836.2
68155.1
68949.8
69986.8
70808.6
71579.9
72418.8
72940.3
73829
74106.9
75107.7
75125.2
76326.3
76035.8
77555.2
76875.8
78854.4
77682.2
80240.6
78506.2
110125
110087
110046
109965
109899
109792
109709
109571
109452
109277
109136
108925
108757
108498
108304
107983
107764
107363
107121
106616
106357
105713
105447
104617
104367
103284
103084
101654
101563
99649.9
99762
97169.2
97635.8
94072.4
95131.5
90165.9
92192.1
85180.6
88764.8
78753.6
84825.1
70421.2
80403.3
59543.9
75398.4
44888.9
69030.4
23605.4
58841.9
-9422.92
42432.8
-58866.3
20541.9
-123513
7633.84
-73775.4