/*--------------------------------*- C++ -*----------------------------------*\
| =========                 |                                                 |
| \\      /  F ield         | OpenFOAM: The Open Source CFD Toolbox           |
|  \\    /   O peration     | Version:  2412                                  |
|   \\  /    A nd           | Website:  www.openfoam.com                      |
|    \\/     M anipulation  |                                                 |
\*---------------------------------------------------------------------------*/
FoamFile
{
    version     2.0;
    format      ascii;
    arch        "LSB;label=32;scalar=64";
    class       surfaceScalarField;
    location    "0.3";
    object      phi;
}
// * * * * * * * * * * * * * * * * * * * * * * * * * * * * * * * * * * * * * //

dimensions      [0 3 -1 0 0 0 0];

oriented        oriented;

internalField   nonuniform List<scalar> 
25689
(
0.00747486
0.0136465
0.00738994
0.0116599
0.00733303
0.00764156
0.00731272
0.00176088
0.00732969
-0.00421365
0.00737559
-0.00823958
0.00743531
-0.00958427
0.0074929
-0.00891872
0.00754093
-0.00755837
0.00758022
-0.00635945
0.00761363
-0.00547664
0.00764299
-0.00480802
0.0076689
-0.00422316
0.00769191
-0.00372567
0.00771215
-0.00326493
0.00773017
-0.00288712
0.00774582
-0.00250933
0.00775975
-0.00222711
0.00777163
-0.00191346
0.0077822
-0.00170517
0.00779088
-0.0014313
0.00779864
-0.001285
0.00780446
-0.0010174
0.00780984
-0.000942325
0.00781321
-0.000672754
0.00781665
-0.000665571
0.0078179
-0.000379681
0.00781985
-0.000453261
0.00781922
-0.000122834
0.00782019
-0.000312621
0.00781796
8.7764e-05
0.00781837
-0.000235622
0.00781468
0.000259181
0.00781503
-0.000252801
0.00781016
0.000349884
0.00781105
-0.000401275
0.00780553
0.000315037
0.00780835
-0.000785272
0.00780406
1.26463e-05
0.00781197
-0.00154459
0.00781315
-0.000718173
0.00783112
-0.00275016
0.00784216
-0.00170581
0.00787243
-0.00386104
0.00789004
-0.00194259
0.00792115
-0.00334819
0.0079231
0.000484862
0.00792726
0.000648864
0.00789863
0.00546982
0.00786385
0.00811109
0.00779438
0.0141993
0.00762353
0.030187
0.00733843
0.0470736
0.0073845
-0.0041111
0.00758882
-0.0320164
0.00769571
-0.0192617
0.00771034
-0.00621976
0.00771745
-0.00351661
0.00770241
0.00074952
0.00770846
-0.0012391
0.00770208
0.000823563
0.00771192
-0.00123855
0.00771019
0.000326618
0.00772082
-0.0013193
0.00772206
-4.22727e-05
0.00773244
-0.00121311
0.00773423
-6.97623e-05
0.00774083
-0.000763375
0.0077387
0.000286682
0.00773855
-5.59893e-05
0.00773077
0.000865748
0.00772326
0.00075249
0.00770961
0.00148269
0.00769604
0.00142768
0.00767886
0.00188919
0.007663
0.00174652
0.00764655
0.00189405
0.00763275
0.00164304
0.00762001
0.00159272
0.00760966
0.00134335
0.00760004
0.00126489
0.00759135
0.00111598
0.00758244
0.00106636
0.00757314
0.00100591
0.00756323
0.000941235
0.00755257
0.000881612
0.0075418
0.000725241
0.00753081
0.000566237
0.00752096
0.000233148
0.00751194
-0.00010259
0.00750579
-0.000660361
0.00750266
-0.00129363
0.00750469
-0.00212058
0.00751387
-0.00320035
0.00753087
-0.00430575
0.00756208
-0.0059695
0.00760329
-0.00733388
0.00766702
-0.0094802
-0.0117034
0.00747491
0.0137473
0.00739003
0.0117447
0.00733308
0.00769851
0.00731254
0.00178142
0.00732915
-0.00423026
0.00737469
-0.00828512
0.00743418
-0.00964376
0.00749162
-0.00897616
0.00753949
-0.00760625
0.00757862
-0.00639858
0.00761187
-0.00550988
0.00764109
-0.00483725
0.00766688
-0.00424895
0.00768979
-0.00374858
0.00770996
-0.0032851
0.0077279
-0.00290506
0.00774349
-0.00252492
0.00775737
-0.00224099
0.0077692
-0.00192529
0.00777973
-0.0017157
0.00778838
-0.00143994
0.0077961
-0.00129272
0.00780188
-0.00102318
0.00780723
-0.000947674
0.00781057
-0.000676091
0.00781397
-0.000668976
0.00781519
-0.000380899
0.00781711
-0.00045518
0.00781645
-0.000122171
0.0078174
-0.000313568
0.00781513
9.00291e-05
0.00781551
-0.000236001
0.00781178
0.000262915
0.00781208
-0.000253108
0.00780716
0.000354804
0.00780801
-0.000402124
0.00780242
0.000320629
0.00780517
-0.000788022
0.00780079
1.70262e-05
0.00780862
-0.00155242
0.00780971
-0.000719263
0.00782762
-0.00276808
0.00783865
-0.00171684
0.00786898
-0.00389137
0.00788668
-0.0019603
0.00791796
-0.00337947
0.00792004
0.000482786
0.00792438
0.000644521
0.00789592
0.00549828
0.00786166
0.00814535
0.00779294
0.014268
0.00762336
0.0303566
0.00733996
0.0473569
0.00738633
-0.00415746
0.00758966
-0.0322197
0.00769564
-0.0193677
0.00770954
-0.00623365
0.00771625
-0.00352333
0.00770101
0.000764758
0.00770698
-0.00124507
0.00770056
0.000829982
0.0077104
-0.0012484
0.00770867
0.000328355
0.00771931
-0.00132995
0.00772056
-4.35209e-05
0.00773095
-0.00122351
0.00773276
-7.15682e-05
0.00773939
-0.000770001
0.00773727
0.000288801
0.00773713
-5.58507e-05
0.00772935
0.000873528
0.00772183
0.000760012
0.00770816
0.00149636
0.00769455
0.00144128
0.00767733
0.00190641
0.00766143
0.00176242
0.00764495
0.00191052
0.00763114
0.00165686
0.0076184
0.00160545
0.00760807
0.00135368
0.00759847
0.00127449
0.00758981
0.00112464
0.00758091
0.00107526
0.0075716
0.00101522
0.00756168
0.000951164
0.00755098
0.000892306
0.00754017
0.00073605
0.00752911
0.000577295
0.00751918
0.000243079
0.00751007
-9.3478e-05
0.00750381
-0.0006541
0.00750054
-0.00129036
0.00750244
-0.00212248
0.00751145
-0.00320937
0.0075283
-0.00432259
0.00755936
-0.00600056
0.00760046
-0.00737497
0.00766418
-0.00954392
-0.0117829
0.00747495
0.0138481
0.00739012
0.0118296
0.00733311
0.00775551
0.00731235
0.00180218
0.00732859
-0.00424649
0.00737377
-0.0083303
0.00743302
-0.00970301
0.0074903
-0.00903345
0.00753803
-0.00765398
0.00757699
-0.00643754
0.00761008
-0.00554297
0.00763917
-0.00486633
0.00766484
-0.00427463
0.00768766
-0.0037714
0.00770774
-0.00330518
0.00772561
-0.00292294
0.00774114
-0.00254045
0.00775498
-0.00225483
0.00776676
-0.00193707
0.00777725
-0.00172619
0.00778585
-0.00144854
0.00779354
-0.00130041
0.00779929
-0.00102894
0.00780461
-0.000952991
0.00780792
-0.000679397
0.00781129
-0.000672351
0.00781248
-0.000382086
0.00781437
-0.00045707
0.00781367
-0.000121475
0.00781459
-0.000314485
0.00781229
9.23291e-05
0.00781264
-0.000236349
0.00780886
0.000266689
0.00780913
-0.000253379
0.00780416
0.000359775
0.00780496
-0.000402926
0.0077993
0.000326291
0.00780198
-0.000790704
0.00779751
2.14996e-05
0.00780526
-0.00156017
0.00780625
-0.000720261
0.00782412
-0.00278594
0.00783512
-0.00172784
0.0078655
-0.00392175
0.00788331
-0.00197811
0.00791475
-0.00341091
0.00791696
0.000480578
0.00792148
0.000640003
0.0078932
0.00552656
0.00785945
0.00817909
0.00779147
0.014336
0.00762317
0.0305249
0.00734149
0.0476386
0.00738815
-0.00420412
0.00759049
-0.0324221
0.00769556
-0.0194727
0.00770872
-0.00624681
0.00771504
-0.00352965
0.0076996
0.0007802
0.00770549
-0.00125096
0.00769903
0.000836436
0.00770888
-0.00125824
0.00770714
0.000330089
0.0077178
-0.0013406
0.00771906
-4.47769e-05
0.00772947
-0.00123392
0.0077313
-7.33949e-05
0.00773794
-0.00077665
0.00773584
0.000290906
0.00773571
-5.57208e-05
0.00772793
0.000881307
0.0077204
0.000767541
0.00770671
0.00151005
0.00769307
0.00145492
0.00767581
0.00192367
0.00765987
0.00177836
0.00764336
0.00192703
0.00762953
0.00167069
0.0076168
0.00161818
0.00760649
0.00136399
0.00759691
0.00128407
0.00758827
0.00113328
0.00757938
0.00108415
0.00757008
0.00102452
0.00756013
0.000961111
0.0075494
0.000903034
0.00753854
0.000746906
0.00752742
0.000588419
0.00751741
0.000253086
0.0075082
-8.42638e-05
0.00750183
-0.000647732
0.00749842
-0.00128694
0.00750017
-0.00212423
0.00750901
-0.00321821
0.00752571
-0.00433929
0.00755662
-0.00603148
0.00759759
-0.00741594
0.00766131
-0.00960764
-0.0118623
0.00747499
0.0139489
0.0073902
0.0119143
0.00733315
0.00781257
0.00731215
0.00182318
0.00732802
-0.00426236
0.00737284
-0.00837513
0.00743185
-0.00976201
0.00748898
-0.00909058
0.00753656
-0.00770156
0.00757536
-0.00647634
0.00760829
-0.0055759
0.00763724
-0.00489528
0.0076628
-0.00430018
0.00768551
-0.00379411
0.00770551
-0.00332518
0.00772331
-0.00294074
0.00773879
-0.00255592
0.00775257
-0.00226861
0.0077643
-0.00194881
0.00777476
-0.00173665
0.00778332
-0.00145711
0.00779097
-0.00130806
0.00779669
-0.00103466
0.00780198
-0.000958277
0.00780525
-0.000682671
0.0078086
-0.000675696
0.00780975
-0.00038324
0.00781161
-0.000458931
0.00781088
-0.000120746
0.00781177
-0.000315373
0.00780944
9.46645e-05
0.00780975
-0.000236666
0.00780594
0.000270504
0.00780617
-0.000253614
0.00780115
0.000364797
0.00780191
-0.00040368
0.00779617
0.000332024
0.00779879
-0.000793318
0.00779422
2.60682e-05
0.00780188
-0.00156783
0.00780279
-0.000721166
0.00782059
-0.00280375
0.00783157
-0.00173881
0.00786201
-0.00395219
0.00787992
-0.00199602
0.00791153
-0.00344252
0.00791387
0.000478237
0.00791856
0.00063531
0.00789046
0.00555467
0.00785723
0.00821232
0.00778999
0.0144032
0.00762297
0.0306919
0.00734303
0.0479186
0.00738998
-0.00425107
0.0075913
-0.0326234
0.00769545
-0.0195769
0.00770788
-0.00625924
0.00771381
-0.00353559
0.00769817
0.00079584
0.00770399
-0.00125677
0.0076975
0.000842924
0.00770734
-0.00126808
0.00770561
0.000331818
0.00771628
-0.00135127
0.00771755
-4.60428e-05
0.00772798
-0.00124436
0.00772983
-7.52436e-05
0.00773651
-0.000783322
0.00773441
0.000292998
0.00773429
-5.56004e-05
0.00772651
0.000889087
0.00771898
0.000775079
0.00770526
0.00152376
0.00769159
0.00146859
0.0076743
0.00194097
0.00765832
0.00179434
0.00764177
0.00194358
0.00762792
0.00168454
0.0076152
0.0016309
0.0076049
0.00137428
0.00759535
0.00129362
0.00758673
0.0011419
0.00757785
0.00109303
0.00756855
0.00103383
0.00755858
0.000971075
0.00754782
0.000913797
0.00753692
0.000757811
0.00752573
0.00059961
0.00751564
0.000263171
0.00750633
-7.49471e-05
0.00749985
-0.000641253
0.00749629
-0.00128339
0.00749791
-0.00212585
0.00750657
-0.00322687
0.00752311
-0.00435582
0.00755387
-0.00606224
0.00759471
-0.00745678
0.00765842
-0.00967134
-0.0119416
0.00747503
0.0140496
0.00739029
0.0119991
0.00733318
0.00786968
0.00731196
0.00184441
0.00732746
-0.00427787
0.00737192
-0.00841959
0.00743068
-0.00982077
0.00748765
-0.00914755
0.00753508
-0.00774898
0.00757371
-0.00651497
0.00760649
-0.00560867
0.0076353
-0.0049241
0.00766074
-0.00432562
0.00768336
-0.00381673
0.00770327
-0.00334509
0.00772101
-0.00295847
0.00773642
-0.00257133
0.00775015
-0.00228234
0.00776184
-0.0019605
0.00777225
-0.00174706
0.00778078
-0.00146564
0.0077884
-0.00131567
0.00779408
-0.00104034
0.00779934
-0.000963532
0.00780258
-0.000685913
0.00780589
-0.000679012
0.00780702
-0.000384363
0.00780885
-0.000460762
0.00780809
-0.000119984
0.00780895
-0.000316231
0.00780657
9.70347e-05
0.00780686
-0.000236951
0.00780301
0.000274359
0.0078032
-0.000253812
0.00779813
0.000369871
0.00779884
-0.000404387
0.00779303
0.000337827
0.00779558
-0.000795863
0.00779092
3.07318e-05
0.00779849
-0.00157541
0.0077993
-0.000721976
0.00781705
-0.0028215
0.007828
-0.00174976
0.0078585
-0.00398269
0.00787651
-0.00201403
0.00790829
-0.00347431
0.00791076
0.000475764
0.00791563
0.000630443
0.0078877
0.0055826
0.00785498
0.00824504
0.00778849
0.0144697
0.00762275
0.0308576
0.00734456
0.0481967
0.00739182
-0.00429833
0.00759211
-0.0328237
0.00769533
-0.0196801
0.00770702
-0.00627092
0.00771257
-0.00354115
0.00769673
0.000811676
0.00770248
-0.00126251
0.00769596
0.000849443
0.0077058
-0.00127793
0.00770408
0.00033354
0.00771477
-0.00136196
0.00771604
-4.73186e-05
0.0077265
-0.00125481
0.00772837
-7.71151e-05
0.00773507
-0.00079002
0.00773299
0.000295077
0.00773288
-5.54898e-05
0.0077251
0.000896866
0.00771755
0.000782624
0.00770382
0.0015375
0.00769012
0.00148229
0.00767278
0.0019583
0.00765676
0.00181036
0.00764018
0.00196015
0.00762632
0.0016984
0.0076136
0.00164362
0.00760332
0.00138456
0.00759379
0.00130315
0.0075852
0.0011505
0.00757633
0.0011019
0.00756702
0.00104313
0.00755704
0.000981057
0.00754624
0.000924595
0.00753529
0.000768765
0.00752403
0.000610868
0.00751387
0.000273334
0.00750445
-6.55263e-05
0.00749786
-0.000634663
0.00749416
-0.00127968
0.00749563
-0.00212733
0.00750412
-0.00323536
0.00752049
-0.0043722
0.0075511
-0.00609285
0.00759182
-0.00749749
0.00765552
-0.00973504
-0.0120209
0.00747507
0.0141503
0.00739038
0.0120838
0.00733322
0.00792684
0.00731176
0.00186586
0.0073269
-0.00429301
0.007371
-0.00846368
0.00742951
-0.00987928
0.00748632
-0.00920436
0.00753359
-0.00779625
0.00757206
-0.00655344
0.00760467
-0.00564129
0.00763335
-0.00495277
0.00765867
-0.00435095
0.00768119
-0.00383925
0.00770102
-0.00336492
0.00771869
-0.00297614
0.00773404
-0.00258668
0.00774772
-0.00229601
0.00775936
-0.00197215
0.00776973
-0.00175743
0.00777823
-0.00147413
0.00778581
-0.00132325
0.00779146
-0.00104599
0.00779668
-0.000968756
0.00779989
-0.000689123
0.00780318
-0.000682297
0.00780427
-0.000385454
0.00780607
-0.000462564
0.00780528
-0.000119191
0.00780611
-0.00031706
0.0078037
9.94397e-05
0.00780396
-0.000237206
0.00780006
0.000278255
0.00780022
-0.000253974
0.0077951
0.000374997
0.00779576
-0.000405047
0.00778988
0.0003437
0.00779236
-0.000798339
0.0077876
3.54924e-05
0.00779509
-0.0015829
0.00779581
-0.00072269
0.0078135
-0.00283919
0.00782443
-0.00176069
0.00785498
-0.00401323
0.00787309
-0.00203214
0.00790504
-0.00350626
0.00790764
0.000473159
0.00791268
0.000625403
0.00788491
0.00561037
0.00785272
0.00827723
0.00778697
0.0145355
0.00762251
0.0310221
0.0073461
0.0484732
0.00739365
-0.00434588
0.00759291
-0.0330229
0.00769518
-0.0197824
0.00770613
-0.00628187
0.00771131
-0.00354632
0.00769528
0.000827702
0.00770095
-0.00126819
0.0076944
0.000855991
0.00770426
-0.00128778
0.00770255
0.000335254
0.00771324
-0.00137265
0.00771453
-4.86057e-05
0.00772501
-0.00126529
0.00772691
-7.90113e-05
0.00773363
-0.000796744
0.00773157
0.000297141
0.00773147
-5.53898e-05
0.00772369
0.000904644
0.00771613
0.000790176
0.00770238
0.00155125
0.00768864
0.00149602
0.00767127
0.00197568
0.0076552
0.00182642
0.0076386
0.00197676
0.00762471
0.00171229
0.007612
0.00165634
0.00760174
0.00139482
0.00759224
0.00131265
0.00758366
0.00115908
0.00757481
0.00111075
0.0075655
0.00105244
0.0075555
0.000991057
0.00754467
0.000935428
0.00753366
0.000779768
0.00752234
0.000622194
0.00751209
0.000283576
0.00750257
-5.60004e-05
0.00749587
-0.000627962
0.00749202
-0.00127584
0.00749335
-0.00212866
0.00750166
-0.00324366
0.00751787
-0.00438841
0.00754832
-0.00612331
0.00758891
-0.00753807
0.0076526
-0.00979874
-0.0121002
0.00747511
0.014251
0.00739046
0.0121684
0.00733325
0.00798405
0.00731157
0.00188754
0.00732635
-0.00430779
0.00737008
-0.00850741
0.00742834
-0.00993754
0.00748499
-0.00926101
0.0075321
-0.00784337
0.0075704
-0.00659174
0.00760285
-0.00567374
0.00763139
-0.00498131
0.00765659
-0.00437615
0.00767901
-0.00386167
0.00769876
-0.00338467
0.00771636
-0.00299373
0.00773165
-0.00260197
0.00774527
-0.00230964
0.00775688
-0.00198375
0.00776721
-0.00176776
0.00777566
-0.00148259
0.00778321
-0.0013308
0.00778883
-0.00105161
0.00779402
-0.000973948
0.0077972
-0.000692301
0.00780045
-0.000685552
0.00780151
-0.000386513
0.00780329
-0.000464337
0.00780246
-0.000118364
0.00780326
-0.00031786
0.00780082
0.00010188
0.00780104
-0.00023743
0.00779711
0.000282191
0.00779723
-0.0002541
0.00779206
0.000380175
0.00779267
-0.000405659
0.00778672
0.000349644
0.00778913
-0.000800746
0.00778427
4.03497e-05
0.00779168
-0.00159031
0.0077923
-0.000723308
0.00780993
-0.00285683
0.00782083
-0.00177159
0.00785144
-0.00404384
0.00786965
-0.00205036
0.00790177
-0.00353838
0.00790451
0.000470422
0.00790972
0.00062019
0.00788211
0.00563798
0.00785043
0.00830892
0.00778543
0.0146005
0.00762227
0.0311853
0.00734764
0.0487478
0.00739549
-0.00439373
0.00759369
-0.0332211
0.00769502
-0.0198837
0.00770522
-0.00629207
0.00771002
-0.00355113
0.00769381
0.000843915
0.00769942
-0.0012738
0.00769284
0.000862566
0.00770271
-0.00129765
0.007701
0.000336957
0.00771172
-0.00138337
0.00771302
-4.99053e-05
0.00772352
-0.0012758
0.00772544
-8.09323e-05
0.00773219
-0.000803494
0.00773015
0.000299191
0.00773006
-5.53002e-05
0.00772228
0.000912422
0.00771472
0.000797737
0.00770094
0.00156503
0.00768717
0.00150979
0.00766975
0.0019931
0.00765365
0.00184252
0.00763701
0.0019934
0.00762311
0.00172618
0.00761039
0.00166906
0.00760016
0.00140506
0.00759068
0.00132212
0.00758213
0.00116763
0.00757329
0.00111959
0.00756398
0.00106176
0.00755396
0.00100108
0.00754309
0.000946297
0.00753203
0.000790821
0.00752064
0.000633589
0.00751032
0.000293899
0.00750068
-4.63689e-05
0.00749387
-0.000621147
0.00748987
-0.00127184
0.00749106
-0.00212984
0.00749918
-0.00325179
0.00751524
-0.00440447
0.00754553
-0.0061536
0.00758598
-0.00757852
0.00764967
-0.00986242
-0.0121795
0.00747515
0.0143516
0.00739055
0.012253
0.00733329
0.0080413
0.00731139
0.00190944
0.0073258
-0.0043222
0.00736916
-0.00855077
0.00742716
-0.00999554
0.00748364
-0.0093175
0.0075306
-0.00789032
0.00756873
-0.00662987
0.00760102
-0.00570603
0.00762942
-0.0050097
0.00765451
-0.00440124
0.00767683
-0.00388399
0.00769649
-0.00340434
0.00771402
-0.00301125
0.00772925
-0.00261721
0.00774282
-0.00232322
0.00775438
-0.00199531
0.00776467
-0.00177805
0.00777309
-0.001491
0.0077806
-0.00133831
0.00778619
-0.0010572
0.00779135
-0.000979109
0.00779449
-0.000695448
0.00779772
-0.000688778
0.00779875
-0.000387541
0.00780049
-0.000466081
0.00779963
-0.000117505
0.0078004
-0.00031863
0.00779793
0.000104355
0.00779812
-0.000237623
0.00779414
0.000286168
0.00779423
-0.000254189
0.007789
0.000385405
0.00778957
-0.000406224
0.00778355
0.00035566
0.00778589
-0.000803083
0.00778093
4.53053e-05
0.00778825
-0.00159763
0.00778877
-0.000723827
0.00780635
-0.00287441
0.00781722
-0.00178246
0.00784788
-0.0040745
0.0078662
-0.00206867
0.00789849
-0.00357067
0.00790136
0.000467554
0.00790674
0.000614805
0.00787929
0.00566543
0.00784813
0.00834008
0.00778387
0.0146648
0.007622
0.0313471
0.00734918
0.0490206
0.00739733
-0.00444189
0.00759447
-0.0334182
0.00769484
-0.0199841
0.00770429
-0.00630153
0.00770872
-0.00355556
0.00769233
0.000860311
0.00769787
-0.00127934
0.00769127
0.000869167
0.00770115
-0.00130752
0.00769946
0.000338649
0.00771019
-0.0013941
0.0077115
-5.12183e-05
0.00772203
-0.00128633
0.00772398
-8.2879e-05
0.00773076
-0.000810272
0.00772872
0.000301224
0.00772865
-5.52216e-05
0.00772087
0.000920199
0.0077133
0.000805305
0.0076995
0.00157883
0.0076857
0.00152359
0.00766824
0.00201056
0.00765209
0.00185867
0.00763542
0.00201008
0.0076215
0.0017401
0.00760879
0.00168177
0.00759857
0.00141528
0.00758912
0.00133157
0.00758059
0.00117616
0.00757177
0.00112842
0.00756245
0.00107107
0.00755241
0.00101111
0.00754151
0.000957203
0.00753041
0.000801926
0.00751894
0.000645054
0.00750854
0.000304303
0.0074988
-3.66302e-05
0.00749187
-0.000614217
0.00748772
-0.00126769
0.00748876
-0.00213088
0.0074967
-0.00325973
0.00751259
-0.00442035
0.00754272
-0.00618374
0.00758304
-0.00761884
0.00764672
-0.0099261
-0.0122587
0.00747519
0.0144522
0.00739063
0.0123376
0.00733333
0.00809861
0.0073112
0.00193156
0.00732525
-0.00433625
0.00736824
-0.00859376
0.00742599
-0.0100533
0.0074823
-0.00937381
0.00752909
-0.00793712
0.00756706
-0.00666783
0.00759919
-0.00573816
0.00762744
-0.00503796
0.00765241
-0.0044262
0.00767463
-0.00390621
0.00769421
-0.00342392
0.00771167
-0.00302871
0.00772684
-0.00263238
0.00774036
-0.00233674
0.00775187
-0.00200682
0.00776212
-0.00178829
0.0077705
-0.00149938
0.00777798
-0.00134579
0.00778353
-0.00106275
0.00778866
-0.000984239
0.00779178
-0.000698563
0.00779497
-0.000691974
0.00779597
-0.000388537
0.00779768
-0.000467795
0.00779679
-0.000116614
0.00779753
-0.000319371
0.00779502
0.000106866
0.00779518
-0.000237785
0.00779117
0.000290186
0.00779122
-0.000254242
0.00778594
0.000390687
0.00778646
-0.000406742
0.00778037
0.000361748
0.00778263
-0.00080535
0.00777758
5.0359e-05
0.00778481
-0.00160486
0.00778523
-0.000724249
0.00780276
-0.00289193
0.0078136
-0.0017933
0.00784431
-0.00410522
0.00786273
-0.00208708
0.00789519
-0.00360313
0.00789819
0.000464556
0.00790375
0.000609249
0.00787646
0.00569272
0.00784581
0.00837073
0.00778229
0.0147283
0.00762172
0.0315077
0.00735072
0.0492916
0.00739918
-0.00449035
0.00759523
-0.0336143
0.00769463
-0.0200835
0.00770334
-0.00631023
0.00770741
-0.00355963
0.00769083
0.000876885
0.00769632
-0.00128483
0.0076897
0.00087579
0.00769958
-0.00131741
0.00769791
0.000340326
0.00770866
-0.00140485
0.00770999
-5.25457e-05
0.00772054
-0.00129689
0.00772252
-8.48533e-05
0.00772932
-0.000817077
0.00772731
0.000303242
0.00772724
-5.51546e-05
0.00771946
0.000927975
0.00771189
0.000812881
0.00769806
0.00159266
0.00768423
0.00153742
0.00766673
0.00202807
0.00765054
0.00187485
0.00763383
0.00202679
0.0076199
0.00175403
0.00760719
0.00169448
0.00759699
0.00142548
0.00758757
0.001341
0.00757906
0.00118466
0.00757025
0.00113723
0.00756093
0.00108039
0.00755087
0.00102117
0.00753993
0.000968145
0.00752877
0.000813081
0.00751724
0.000656588
0.00750675
0.000314788
0.00749691
-2.67833e-05
0.00748986
-0.000607172
0.00748556
-0.00126339
0.00748646
-0.00213178
0.00749421
-0.00326748
0.00750993
-0.00443608
0.0075399
-0.00621371
0.00758009
-0.00765902
0.00764376
-0.00998978
-0.0123379
0.00747523
0.0145527
0.00739072
0.0124221
0.00733336
0.00815596
0.00731102
0.00195391
0.00732471
-0.00434994
0.00736732
-0.00863637
0.00742481
-0.0101108
0.00748095
-0.00942995
0.00752758
-0.00798376
0.00756537
-0.00670562
0.00759734
-0.00577013
0.00762545
-0.00506607
0.0076503
-0.00445105
0.00767242
-0.00392834
0.00769192
-0.00344342
0.0077093
-0.00304609
0.00772441
-0.00264749
0.00773789
-0.00235021
0.00774935
-0.00201828
0.00775956
-0.0017985
0.0077679
-0.00150773
0.00777535
-0.00135324
0.00778087
-0.00106827
0.00778596
-0.000989338
0.00778905
-0.000701646
0.00779221
-0.00069514
0.00779318
-0.000389501
0.00779486
-0.000469481
0.00779394
-0.000115689
0.00779465
-0.000320083
0.00779211
0.000109411
0.00779224
-0.000237917
0.00778818
0.000294245
0.0077882
-0.000254259
0.00778286
0.000396021
0.00778333
-0.000407211
0.00777717
0.000367907
0.00777937
-0.000807546
0.00777422
5.55127e-05
0.00778136
-0.00161201
0.00778168
-0.000724571
0.00779914
-0.0029094
0.00780996
-0.00180411
0.00784073
-0.00413599
0.00785924
-0.0021056
0.00789188
-0.00363577
0.00789501
0.000461427
0.00790073
0.000603522
0.0078736
0.00571985
0.00784347
0.00840086
0.00778069
0.0147911
0.00762142
0.031667
0.00735226
0.0495608
0.00740103
-0.00453912
0.00759599
-0.0338092
0.00769441
-0.0201819
0.00770237
-0.00631819
0.00770607
-0.00356333
0.00768932
0.000893635
0.00769475
-0.00129026
0.00768811
0.000882434
0.00769801
-0.00132731
0.00769635
0.000341988
0.00770712
-0.00141563
0.00770846
-5.38881e-05
0.00771905
-0.00130747
0.00772105
-8.68552e-05
0.00772789
-0.000823913
0.00772589
0.000305243
0.00772583
-5.50993e-05
0.00771806
0.000935751
0.00771047
0.000820465
0.00769662
0.0016065
0.00768276
0.00155129
0.00766521
0.00204561
0.00764898
0.00189108
0.00763224
0.00204353
0.00761829
0.00176798
0.00760559
0.00170718
0.00759541
0.00143566
0.00758601
0.00135039
0.00757753
0.00119314
0.00756873
0.00114604
0.00755941
0.0010897
0.00754933
0.00103125
0.00753835
0.000979125
0.00752714
0.000824289
0.00751554
0.000668194
0.00750497
0.000325357
0.00749501
-1.68276e-05
0.00748785
-0.000600011
0.0074834
-0.00125894
0.00748414
-0.00213252
0.00749171
-0.00327505
0.00750726
-0.00445163
0.00753707
-0.00624352
0.00757712
-0.00769907
0.00764079
-0.0100535
-0.012417
0.00747527
0.0146532
0.0073908
0.0125066
0.0073334
0.00821336
0.00731084
0.00197647
0.00732417
-0.00436326
0.00736641
-0.00867861
0.00742363
-0.010168
0.00747959
-0.00948591
0.00752606
-0.00803023
0.00756368
-0.00674324
0.00759548
-0.00580193
0.00762345
-0.00509404
0.00764818
-0.00447578
0.0076702
-0.00395036
0.00768962
-0.00346283
0.00770693
-0.0030634
0.00772198
-0.00266254
0.0077354
-0.00236363
0.00774682
-0.0020297
0.00775699
-0.00180867
0.00776529
-0.00151603
0.0077727
-0.00136065
0.00777819
-0.00107376
0.00778326
-0.000994405
0.00778631
-0.000704697
0.00778944
-0.000698276
0.00779038
-0.000390434
0.00779203
-0.000471137
0.00779108
-0.000114733
0.00779176
-0.000320765
0.00778918
0.000111992
0.00778928
-0.000238017
0.00778518
0.000298344
0.00778516
-0.00025424
0.00777977
0.000401407
0.0077802
-0.000407633
0.00777396
0.000374138
0.00777609
-0.000809672
0.00777084
6.07662e-05
0.00777789
-0.00161906
0.00777811
-0.000724792
0.00779551
-0.0029268
0.0078063
-0.0018149
0.00783713
-0.00416682
0.00785574
-0.00212422
0.00788855
-0.00366857
0.00789181
0.000458167
0.00789771
0.000597624
0.00787072
0.00574684
0.00784111
0.00843047
0.00777907
0.0148531
0.0076211
0.0318249
0.00735381
0.0498281
0.00740289
-0.0045882
0.00759674
-0.0340031
0.00769418
-0.0202793
0.00770138
-0.00632538
0.00770472
-0.00356668
0.0076878
0.000910556
0.00769317
-0.00129563
0.00768651
0.000889097
0.00769643
-0.00133723
0.00769479
0.000343633
0.00770558
-0.00142642
0.00770694
-5.52475e-05
0.00771755
-0.00131808
0.00771958
-8.88861e-05
0.00772645
-0.000830778
0.00772447
0.000307226
0.00772442
-5.50564e-05
0.00771665
0.000943525
0.00770906
0.000828058
0.00769519
0.00162037
0.00768129
0.00156519
0.0076637
0.0020632
0.00764743
0.00190735
0.00763065
0.00206031
0.00761668
0.00178194
0.00760398
0.00171989
0.00759382
0.00144581
0.00758445
0.00135977
0.00757599
0.0012016
0.0075672
0.00115482
0.00755788
0.00109903
0.00754779
0.00104134
0.00753677
0.000990143
0.00752551
0.000835548
0.00751383
0.000679872
0.00750318
0.000336009
0.00749311
-6.76158e-06
0.00748583
-0.000592731
0.00748123
-0.00125434
0.00748182
-0.00213311
0.00748919
-0.00328242
0.00750458
-0.00446701
0.00753422
-0.00627316
0.00757413
-0.00773898
0.0076378
-0.0101171
-0.0124961
0.00747531
0.0147536
0.00739089
0.012591
0.00733345
0.00827081
0.00731067
0.00199925
0.00732363
-0.00437623
0.00736549
-0.00872047
0.00742244
-0.0102249
0.00747823
-0.0095417
0.00752453
-0.00807653
0.00756198
-0.00678068
0.00759362
-0.00583357
0.00762145
-0.00512187
0.00764605
-0.00450039
0.00766798
-0.00397228
0.0076873
-0.00348216
0.00770455
-0.00308064
0.00771954
-0.00267753
0.0077329
-0.002377
0.00774428
-0.00204107
0.0077544
-0.0018188
0.00776267
-0.0015243
0.00777005
-0.00136802
0.0077755
-0.00107921
0.00778054
-0.000999441
0.00778356
-0.000707717
0.00778666
-0.000701382
0.00778756
-0.000391335
0.00778919
-0.000472764
0.0077882
-0.000113743
0.00778885
-0.000321419
0.00778624
0.000114608
0.00778631
-0.000238088
0.00778217
0.000302484
0.00778211
-0.000254184
0.00777667
0.000406845
0.00777705
-0.000408007
0.00777075
0.000380442
0.0077728
-0.000811727
0.00776744
6.61211e-05
0.00777441
-0.00162602
0.00777453
-0.000724912
0.00779187
-0.00294414
0.00780262
-0.00182565
0.00783351
-0.00419771
0.00785223
-0.00214293
0.0078852
-0.00370155
0.00788859
0.000454776
0.00789466
0.000591557
0.00786782
0.00577368
0.00783873
0.00845956
0.00777743
0.0149144
0.00762077
0.0319816
0.00735536
0.0500935
0.00740476
-0.0046376
0.00759749
-0.0341958
0.00769392
-0.0203758
0.00770036
-0.00633183
0.00770335
-0.00356967
0.00768626
0.000927646
0.00769159
-0.00130095
0.0076849
0.000895778
0.00769484
-0.00134717
0.00769322
0.000345258
0.00770404
-0.00143724
0.00770541
-5.66236e-05
0.00771606
-0.00132873
0.00771812
-9.09462e-05
0.00772501
-0.000837675
0.00772305
0.000309192
0.00772302
-5.50258e-05
0.00771524
0.000951299
0.00770764
0.000835658
0.00769375
0.00163426
0.00767982
0.00157913
0.00766218
0.00208083
0.00764587
0.00192367
0.00762905
0.00207713
0.00761507
0.00179593
0.00760237
0.00173258
0.00759223
0.00145595
0.00758289
0.00136911
0.00757446
0.00121003
0.00756568
0.0011636
0.00755636
0.00110835
0.00754624
0.00105146
0.00753519
0.0010012
0.00752387
0.000846861
0.00751212
0.000691622
0.00750139
0.000346745
0.00749121
3.4155e-06
0.00748381
-0.000585332
0.00747905
-0.00124958
0.00747949
-0.00213355
0.00748667
-0.0032896
0.00750188
-0.00448223
0.00753135
-0.00630263
0.00757112
-0.00777875
0.00763479
-0.0101808
-0.0125752
0.00747535
0.014854
0.00739098
0.0126754
0.00733349
0.00832829
0.00731049
0.00202225
0.00732309
-0.00438883
0.00736458
-0.00876196
0.00742126
-0.0102816
0.00747686
-0.00959731
0.007523
-0.00812267
0.00756027
-0.00681795
0.00759174
-0.00586505
0.00761943
-0.00514955
0.00764391
-0.00452487
0.00766574
-0.0039941
0.00768498
-0.00350141
0.00770215
-0.00309781
0.00771708
-0.00269246
0.00773039
-0.00239031
0.00774172
-0.0020524
0.00775181
-0.00182889
0.00776004
-0.00153253
0.00776738
-0.00137536
0.0077728
-0.00108463
0.0077778
-0.00100445
0.00778079
-0.000710704
0.00778387
-0.000704459
0.00778474
-0.000392204
0.00778634
-0.000474362
0.00778531
-0.000112721
0.00778594
-0.000322043
0.00778329
0.000117259
0.00778333
-0.000238127
0.00777915
0.000306665
0.00777905
-0.000254093
0.00777356
0.000412337
0.00777389
-0.000408333
0.00776751
0.000386818
0.0077695
-0.00081371
0.00776404
7.1577e-05
0.00777091
-0.0016329
0.00777093
-0.000724929
0.00778821
-0.00296142
0.00779893
-0.00183637
0.00782987
-0.00422865
0.00784869
-0.00216175
0.00788184
-0.0037347
0.00788536
0.000451255
0.0078916
0.000585322
0.0078649
0.00580038
0.00783633
0.00848814
0.00777577
0.014975
0.00762043
0.0321369
0.00735691
0.050357
0.00740663
-0.00468732
0.00759822
-0.0343874
0.00769365
-0.0204712
0.00769933
-0.00633751
0.00770197
-0.00357231
0.00768471
0.0009449
0.00768999
-0.00130623
0.00768329
0.000902474
0.00769325
-0.00135714
0.00769165
0.000346864
0.00770249
-0.00144808
0.00770388
-5.80177e-05
0.00771455
-0.0013394
0.00771665
-9.30376e-05
0.00772357
-0.000844602
0.00772163
0.000311139
0.00772161
-5.5008e-05
0.00771384
0.000959072
0.00770623
0.000843266
0.00769231
0.00164818
0.00767834
0.00159309
0.00766067
0.0020985
0.00764431
0.00194003
0.00762746
0.00209398
0.00761346
0.00180993
0.00760076
0.00174528
0.00759064
0.00146607
0.00758133
0.00137842
0.00757292
0.00121844
0.00756416
0.00117236
0.00755483
0.00111768
0.0075447
0.00106159
0.0075336
0.00101229
0.00752224
0.000858228
0.00751041
0.000703444
0.00749959
0.000357567
0.0074893
1.37049e-05
0.00748178
-0.000577813
0.00747686
-0.00124466
0.00747715
-0.00213383
0.00748413
-0.00329659
0.00749917
-0.00449727
0.00752847
-0.00633192
0.0075681
-0.00781838
0.00763177
-0.0102445
-0.0126543
0.00747538
0.0149544
0.00739106
0.0127597