/*--------------------------------*- C++ -*----------------------------------*\
| =========                 |                                                 |
| \\      /  F ield         | OpenFOAM: The Open Source CFD Toolbox           |
|  \\    /   O peration     | Version:  2412                                  |
|   \\  /    A nd           | Website:  www.openfoam.com                      |
|    \\/     M anipulation  |                                                 |
\*---------------------------------------------------------------------------*/
FoamFile
{
    version     2.0;
    format      ascii;
    arch        "LSB;label=32;scalar=64";
    class       volVectorField;
    location    "0.3";
    object      U;
}
// * * * * * * * * * * * * * * * * * * * * * * * * * * * * * * * * * * * * * //

dimensions      [0 1 -1 0 0 0 0];

internalField   nonuniform List<vector> 
12960
(
(100.006 -0.437751 0)
(100.151 -1.80161 -4.29111e-17)
(100.614 -4.53576 -8.21184e-17)
(101.56 -8.55105 0)
(103.105 -12.6862 -4.22623e-17)
(105.197 -15.5929 0)
(107.708 -16.7683 0)
(110.364 -16.6323 0)
(112.999 -16.0403 4.20362e-17)
(115.552 -15.5464 4.06116e-17)
(118.115 -15.2663 0)
(120.672 -15.1267 0)
(123.311 -15.054 0)
(125.955 -15.041 0)
(128.72 -15.0653 3.5723e-17)
(131.486 -15.149 -6.97797e-17)
(134.42 -15.2555 0)
(137.339 -15.4215 -3.32488e-17)
(140.487 -15.5935 0)
(143.59 -15.832 3.15676e-17)
(147 -16.0588 3.07692e-17)
(150.317 -16.3673 -2.98423e-17)
(154.048 -16.6424 2.90472e-17)
(157.611 -17.0247 0)
(161.734 -17.3446 0)
(165.577 -17.81 0)
(170.184 -18.1728 0)
(174.344 -18.7359 2.43716e-17)
(179.552 -19.1412 0)
(184.07 -19.822 -4.48773e-17)
(190.032 -20.271 7.57547e-22)
(194.95 -21.0969 -2.04461e-17)
(201.863 -21.5966 6.63346e-22)
(207.233 -22.6045 -3.67701e-17)
(215.357 -23.1711 -1.79412e-17)
(221.241 -24.408 0)
(230.921 -25.0811 0)
(237.417 -26.6225 1.40344e-17)
(249.133 -27.4881 -2.3305e-22)
(256.447 -29.438 2.34755e-17)
(270.907 -30.607 0)
(279.44 -33.0236 -1.02538e-21)
(297.635 -34.4834 1.86209e-22)
(307.968 -37.2151 -7.07593e-18)
(331.083 -38.6634 -1.71277e-17)
(343.665 -41.1632 4.72219e-18)
(372.574 -42.0315 0)
(387.155 -43.7366 0)
(422.455 -44.7101 -5.06984e-18)
(440.223 -45.1574 -7.97919e-19)
(483.285 -46.2222 -3.13271e-18)
(506.521 -38.3697 0)
(547.978 -35.9991 0)
(574.121 1.59751 5.22132e-19)
(547.8 17.1456 7.44848e-19)
(538.776 26.5611 5.52098e-18)
(501.169 32.1593 -9.00388e-19)
(485.222 32.7653 0)
(452.442 33.171 0)
(438.309 30.8604 -1.28321e-18)
(412.451 30.3241 2.32439e-18)
(400.237 28.1107 0)
(379.468 27.626 0)
(368.547 25.7694 2.4304e-18)
(351.603 25.3751 0)
(341.718 23.9005 -9.39928e-22)
(327.668 23.628 0)
(318.571 22.5203 0)
(306.597 22.3301 -6.71864e-18)
(298.072 21.4976 0)
(287.635 21.3408 -3.46623e-22)
(279.616 20.6889 -7.98366e-18)
(270.365 20.4946 0)
(262.846 19.9154 -9.14487e-18)
(254.595 19.619 9.90094e-18)
(247.648 19.0244 0)
(240.325 18.5916 1.0975e-17)
(234.042 17.9697 -1.14062e-17)
(227.596 17.4755 2.40524e-17)
(221.973 16.9086 1.24793e-17)
(216.259 16.445 0)
(211.192 15.9822 -1.35216e-17)
(206.031 15.577 0)
(201.404 15.2031 1.45556e-17)
(196.649 14.8173 0)
(192.397 14.471 -1.55999e-17)
(187.969 14.0442 -1.60819e-17)
(184.089 13.665 -1.66624e-17)
(179.955 13.1498 0)
(176.479 12.6801 0)
(172.631 12.0397 1.81604e-17)
(169.624 11.4106 0)
(166.089 10.6183 0)
(163.643 9.74008 -7.16566e-22)
(160.512 8.79214 -6.80388e-22)
(158.743 7.58866 2.12964e-17)
(156.194 6.51904 -2.14002e-17)
(155.194 5.05519 2.24606e-17)
(153.418 3.48353 -2.24432e-17)
(100.006 -0.441681 0)
(100.152 -1.81661 -4.28894e-17)
(100.616 -4.56995 4.10418e-17)
(101.56 -8.61025 0)
(103.1 -12.771 -1.15585e-21)
(105.186 -15.6982 0)
(107.693 -16.8845 0)
(110.346 -16.7491 0)
(112.979 -16.1528 -4.20743e-17)
(115.529 -15.655 -4.06309e-17)
(118.089 -15.373 0)
(120.643 -15.2328 3.828e-17)
(123.279 -15.1598 3.73768e-17)
(125.921 -15.147 0)
(128.684 -15.1717 -3.57208e-17)
(131.448 -15.2562 6.97774e-17)
(134.38 -15.3636 -3.4102e-17)
(137.298 -15.5309 6.64951e-17)
(140.443 -15.7043 0)
(143.545 -15.9445 -3.15681e-17)
(146.953 -16.1728 -3.07697e-17)
(150.269 -16.4836 -2.98432e-17)
(153.997 -16.7606 -2.90461e-17)
(157.558 -17.1457 0)
(161.68 -17.4677 -2.7284e-17)
(165.52 -17.9364 2.62476e-17)
(170.126 -18.3017 0)
(174.283 -18.8688 -2.4371e-17)
(179.489 -19.2767 0)
(184.004 -19.9625 2.24388e-17)
(189.963 -20.4144 7.60607e-22)
(194.879 -21.2463 4.08929e-17)
(201.789 -21.7491 6.66851e-22)
(207.155 -22.7643 1.83857e-17)
(215.276 -23.3343 0)
(221.155 -24.58 -1.6254e-17)
(230.83 -25.2569 0)
(237.321 -26.8091 0)
(249.031 -27.6799 1.40275e-17)
(256.337 -29.6438 -1.17381e-17)
(270.791 -30.8204 1.20878e-17)
(279.314 -33.255 9.40524e-18)
(297.504 -34.7257 1.9057e-22)
(307.828 -37.479 7.07523e-18)
(330.942 -38.9391 8.5636e-18)
(343.518 -41.459 -4.72205e-18)
(372.432 -42.3339 0)
(387.004 -44.053 -2.12607e-18)
(422.311 -45.0368 -5.07203e-18)
(440.071 -45.4956 -7.95753e-19)
(483.179 -46.581 3.1319e-18)
(506.444 -38.6853 0)
(548.03 -36.3205 1.42184e-18)
(574.306 1.60082 8.68512e-22)
(547.892 17.3033 0)
(538.804 26.7864 -5.51709e-18)
(501.131 32.4185 8.99945e-19)
(485.157 33.0186 0)
(452.361 33.4198 -1.42076e-18)
(438.228 31.0878 2.56631e-18)
(412.369 30.5454 0)
(400.159 28.3152 0)
(379.393 27.8269 0)
(368.475 25.9567 -2.43044e-18)
(351.534 25.5595 -4.52521e-18)
(341.652 24.0739 4.02142e-18)
(327.605 23.7996 0)
(318.511 22.684 -5.45313e-18)
(306.54 22.4932 1.34373e-17)
(298.017 21.655 0)
(287.582 21.4977 7.78967e-18)
(279.564 20.8413 0)
(270.314 20.6461 0)
(262.796 20.0629 9.1444e-18)
(254.545 19.7643 0)
(247.598 19.1652 -1.02868e-17)
(240.276 18.7288 0)
(233.993 18.1017 2.28125e-17)
(227.548 17.6034 -1.20262e-17)
(221.926 17.0321 -1.24792e-17)
(216.214 16.5651 1.30465e-17)
(211.149 16.099 1.3521e-17)
(205.99 15.6913 0)
(201.363 15.3152 -1.45546e-17)
(196.609 14.9273 1.50613e-17)
(192.357 14.5792 1.55987e-17)
(187.93 14.15 3.21611e-17)
(184.048 13.7689 0)
(179.913 13.2507 0)
(176.437 12.7784 1.77513e-17)
(172.587 12.134 -3.32413e-22)
(169.578 11.5012 0)
(166.04 10.7033 1.92239e-17)
(163.593 9.81906 -2.00623e-17)
(160.458 8.86399 -6.65103e-22)
(158.688 7.65029 2.12912e-17)
(156.135 6.5725 -2.13944e-17)
(155.136 5.09345 2.24563e-17)
(153.361 3.51066 0)
(100.006 -0.44564 0)
(100.153 -1.83162 4.28648e-17)
(100.617 -4.60404 0)
(101.56 -8.66917 0)
(103.095 -12.8554 4.23245e-17)
(105.176 -15.8031 0)
(107.677 -17.0005 0)
(110.327 -16.8657 0)
(112.958 -16.2652 0)
(115.505 -15.7635 0)
(118.062 -15.4796 3.93666e-17)
(120.614 -15.3386 -3.82812e-17)
(123.247 -15.2655 -3.73754e-17)
(125.887 -15.2529 3.65174e-17)
(128.648 -15.278 0)
(131.41 -15.3633 -3.4887e-17)
(134.34 -15.4716 3.41e-17)
(137.256 -15.6403 -6.64933e-17)
(140.4 -15.8148 0)
(143.499 -16.0569 6.31342e-17)
(146.906 -16.2868 6.15376e-17)
(150.22 -16.5998 2.98419e-17)
(153.947 -16.8786 0)
(157.506 -17.2665 -2.80705e-17)
(161.625 -17.5906 5.4567e-17)
(165.464 -18.0627 1.08747e-21)
(170.067 -18.4304 0)
(174.222 -19.0016 -2.43726e-17)
(179.426 -19.4122 0)
(183.938 -20.1029 0)
(189.895 -20.5577 -2.17745e-17)
(194.808 -21.3956 1.17872e-21)
(201.714 -21.9014 -1.98709e-17)
(207.077 -22.9239 1.8388e-17)
(215.194 -23.4972 0)
(221.069 -24.7517 1.62541e-17)
(230.74 -25.4324 0)
(237.224 -26.9956 -1.40381e-17)
(248.929 -27.8714 0)
(256.227 -29.8492 0)
(270.675 -31.0335 -2.41749e-17)
(279.187 -33.4862 0)
(297.372 -34.9678 -1.02458e-17)
(307.687 -37.7426 7.07692e-18)
(330.801 -39.2146 -8.56427e-18)
(343.371 -41.7546 0)
(372.289 -42.636 0)
(386.852 -44.3692 4.25396e-18)
(422.167 -45.3632 5.07144e-18)
(439.918 -45.8338 7.95439e-19)
(483.072 -46.94 -3.13038e-18)
(506.365 -39.0014 0)
(548.08 -36.643 -1.41903e-18)
(574.491 1.60395 -1.04111e-18)
(547.983 17.4618 0)
(538.83 27.0124 0)
(501.092 32.678 0)
(485.091 33.272 -3.19149e-18)
(452.28 33.6687 1.42066e-18)
(438.145 31.3151 -1.28307e-18)
(412.287 30.7667 0)
(400.08 28.5196 6.50428e-19)
(379.317 28.0278 0)
(368.403 26.1439 -2.4325e-18)
(351.465 25.7439 4.52525e-18)
(341.586 24.2471 4.02337e-18)
(327.542 23.9711 -5.62881e-18)
(318.452 22.8477 5.45306e-18)
(306.484 22.6562 3.01433e-22)
(297.962 21.8123 0)
(287.529 21.6545 7.79008e-18)
(279.512 20.9937 0)
(270.264 20.7976 0)
(262.746 20.2103 9.14498e-18)
(254.495 19.9097 9.90056e-18)
(247.548 19.3059 2.05734e-17)
(240.226 18.8659 -1.09747e-17)
(233.944 18.2337 5.8985e-23)
(227.5 17.7313 0)
(221.879 17.1555 2.49582e-17)
(216.17 16.6851 -2.60924e-17)
(211.106 16.2157 -4.48658e-24)
(205.948 15.8055 1.40514e-17)
(201.322 15.4272 1.45537e-17)
(196.57 15.0373 2.67315e-23)
(192.317 14.6873 0)
(187.89 14.2558 -1.60792e-17)
(184.008 13.8727 0)
(179.872 13.3515 0)
(176.394 12.8768 -4.39097e-22)
(172.543 12.2283 -1.81557e-17)
(169.532 11.5918 1.88735e-17)
(165.991 10.7884 -4.84919e-22)
(163.543 9.89811 0)
(160.404 8.93589 -2.03119e-17)
(158.633 7.71197 -5.06949e-22)
(156.076 6.62597 2.13901e-17)
(155.078 5.13166 -2.24522e-17)
(153.304 3.53773 0)
(100.006 -0.449625 0)
(100.154 -1.84669 0)
(100.618 -4.63818 4.1011e-17)
(101.559 -8.72809 0)
(103.09 -12.9398 4.23578e-17)
(105.165 -15.9079 0)
(107.662 -17.1162 0)
(110.309 -16.9822 4.34493e-17)
(112.937 -16.3774 0)
(115.482 -15.8719 -4.06733e-17)
(118.036 -15.5859 9.03596e-22)
(120.584 -15.4443 3.82841e-17)
(123.215 -15.371 3.73758e-17)
(125.853 -15.3587 -3.65152e-17)
(128.611 -15.3842 0)
(131.371 -15.4703 -3.48866e-17)
(134.299 -15.5795 3.40997e-17)
(137.213 -15.7494 6.64915e-17)
(140.355 -15.9253 0)
(143.454 -16.1691 -3.15661e-17)
(146.858 -16.4006 -6.15366e-17)
(150.17 -16.7159 0)
(153.896 -16.9965 0)
(157.453 -17.3871 2.80695e-17)
(161.57 -17.7135 -5.45669e-17)
(165.407 -18.1889 -5.2495e-17)
(170.008 -18.559 0)
(174.161 -19.1342 2.43719e-17)
(179.362 -19.5475 0)
(183.872 -20.2431 0)
(189.826 -20.7007 0)
(194.736 -21.5447 -2.04477e-17)
(201.64 -22.0536 0)
(206.999 -23.0834 -1.83879e-17)
(215.112 -23.6599 0)
(220.982 -24.9233 -1.62566e-17)
(230.649 -25.6078 0)
(237.127 -27.1818 2.80777e-17)
(248.827 -28.0626 -1.40282e-17)
(256.116 -30.0544 -1.17409e-17)
(270.558 -31.2463 2.41743e-17)
(279.06 -33.717 0)
(297.24 -35.2095 -1.02453e-17)
(307.546 -38.006 1.23197e-21)
(330.659 -39.4899 8.56368e-18)
(343.223 -42.05 -4.72693e-18)
(372.145 -42.9379 -6.95077e-18)
(386.699 -44.6851 -2.12789e-18)
(422.022 -45.6893 0)
(439.764 -46.172 7.93251e-19)
(482.964 -47.2992 -3.12959e-18)
(506.285 -39.3182 0)
(548.131 -36.9668 1.41211e-18)
(574.678 1.60694 -8.80861e-22)
(548.074 17.6209 0)
(538.856 27.2389 0)
(501.052 32.9378 -8.97077e-19)
(485.024 33.5256 3.19092e-18)
(452.198 33.9175 0)
(438.063 31.5422 1.28274e-18)
(412.204 30.9878 2.32192e-18)
(400.001 28.7238 -6.50438e-19)
(379.241 28.2286 0)
(368.331 26.331 -1.0298e-21)
(351.395 25.9281 0)
(341.52 24.4203 -4.02341e-18)
(327.48 24.1426 -1.98419e-22)
(318.392 23.0113 -5.45479e-18)
(306.427 22.8192 -1.34378e-17)
(297.908 21.9696 -6.77195e-18)
(287.476 21.8113 -7.78978e-18)
(279.461 21.1461 7.98546e-18)
(270.214 20.9491 0)
(262.696 20.3577 -1.82895e-17)
(254.446 20.055 -9.90011e-18)
(247.498 19.4466 -1.02865e-17)
(240.177 19.0031 1.09746e-17)
(233.894 18.3656 -2.28128e-17)
(227.452 17.8592 -1.20259e-17)
(221.833 17.2788 -2.4958e-17)
(216.125 16.805 2.60917e-17)
(211.063 16.3324 -2.70399e-17)
(205.907 15.9197 1.02481e-23)
(201.282 15.5393 -2.91054e-17)
(196.53 15.1472 -3.01183e-17)
(192.277 14.7955 0)
(187.85 14.3616 -1.60778e-17)
(183.967 13.9766 0)
(179.831 13.4523 0)
(176.351 12.9751 -1.7747e-17)
(172.498 12.3225 1.81529e-17)
(169.486 11.6824 -1.88707e-17)
(165.942 10.8735 -3.84339e-17)
(163.492 9.97716 0)
(160.349 9.00777 0)
(158.577 7.77361 -4.25639e-17)
(156.017 6.67938 2.13843e-17)
(155.02 5.16972 2.24481e-17)
(153.246 3.56468 0)
(100.006 -0.453637 4.58295e-17)
(100.155 -1.86178 -4.28216e-17)
(100.62 -4.67226 -8.19895e-17)
(101.559 -8.78681 4.11246e-17)
(103.085 -13.0238 -4.23889e-17)
(105.154 -16.0124 0)
(107.646 -17.2318 -4.41449e-17)
(110.29 -17.0986 -4.35096e-17)
(112.916 -16.4894 0)
(115.458 -15.98 -9.43385e-22)
(118.009 -15.6922 -3.93825e-17)
(120.555 -15.5499 8.94968e-22)
(123.183 -15.4764 -3.73744e-17)
(125.818 -15.4643 0)
(128.574 -15.4902 0)
(131.332 -15.5772 3.48844e-17)
(134.259 -15.6872 -3.40977e-17)
(137.171 -15.8585 -3.32444e-17)
(140.311 -16.0357 0)
(143.408 -16.2812 3.15665e-17)
(146.811 -16.5143 3.07674e-17)
(150.121 -16.8318 0)
(153.844 -17.1144 0)
(157.4 -17.5077 0)
(161.515 -17.8361 2.7283e-17)
(165.35 -18.3149 2.62472e-17)
(169.949 -18.6874 0)
(174.1 -19.2667 0)
(179.299 -19.6826 0)
(183.806 -20.3832 2.2442e-17)
(189.757 -20.8437 0)
(194.664 -21.6936 0)
(201.565 -22.2056 0)
(206.921 -23.2426 0)
(215.03 -23.8225 1.7944e-17)
(220.895 -25.0946 -1.22718e-21)
(230.558 -25.7829 1.59945e-17)
(237.03 -27.3677 -1.40396e-17)
(248.724 -28.2535 1.40281e-17)
(256.004 -30.2593 1.17407e-17)
(270.44 -31.4588 -1.20868e-17)
(278.932 -33.9475 -9.40765e-18)
(297.107 -35.4509 2.04891e-17)
(307.403 -38.269 -7.07669e-18)
(330.516 -39.7649 -8.56441e-18)
(343.074 -42.3451 4.7268e-18)
(372.001 -43.2395 6.95111e-18)
(386.546 -45.0008 0)
(421.876 -46.0153 0)
(439.609 -46.5101 -7.92942e-19)
(482.855 -47.6586 3.1281e-18)
(506.203 -39.6354 0)
(548.18 -37.2917 -1.40932e-18)
(574.866 1.60976 5.19075e-19)
(548.165 17.7808 0)
(538.881 27.4659 0)
(501.01 33.198 8.96627e-19)
(484.955 33.7792 3.19024e-18)
(452.114 34.1663 -1.41725e-18)
(437.979 31.7693 -2.56523e-18)
(412.121 31.2089 -2.32188e-18)
(399.922 28.928 6.51942e-19)
(379.165 28.4293 0)
(368.258 26.518 2.43357e-18)
(351.326 26.1123 0)
(341.454 24.5934 -4.02538e-18)
(327.417 24.3139 5.62902e-18)
(318.333 23.1748 5.45471e-18)
(306.37 22.9821 6.71888e-18)
(297.853 22.1268 1.35444e-17)
(287.424 21.9681 7.79018e-18)
(279.41 21.2984 7.41781e-22)
(270.164 21.1006 0)
(262.647 20.5051 1.82896e-17)
(254.396 20.2003 0)
(247.448 19.5872 1.02868e-17)
(240.128 19.1402 0)
(233.845 18.4975 -6.29434e-23)
(227.404 17.987 1.2026e-17)
(221.786 17.4021 2.49578e-17)
(216.081 16.9248 -2.60909e-17)
(211.019 16.449 1.35194e-17)
(205.865 16.0338 -1.40499e-17)
(201.241 15.6512 1.45517e-17)
(196.49 15.2571 3.01162e-17)
(192.237 14.9036 0)
(187.81 14.4674 1.60764e-17)
(183.926 14.0804 0)
(179.789 13.5532 0)
(176.309 13.0735 0)
(172.454 12.4168 -3.6301e-17)
(169.439 11.773 0)
(165.893 10.9586 3.84266e-17)
(163.441 10.0563 0)
(160.293 9.07969 0)
(158.522 7.83529 2.12774e-17)
(155.957 6.7328 -2.13799e-17)
(154.961 5.20772 -2.24439e-17)
(153.188 3.59159 0)
(100.006 -0.457675 -4.58133e-17)
(100.156 -1.8769 8.55975e-17)
(100.621 -4.7063 4.09789e-17)
(101.558 -8.84537 -8.22558e-17)
(103.08 -13.1076 0)
(105.143 -16.1166 0)
(107.63 -17.3472 -1.1767e-21)
(110.272 -17.2148 0)
(112.895 -16.6014 -4.22373e-17)
(115.434 -16.088 -9.51016e-22)
(117.982 -15.7982 0)
(120.525 -15.6553 -3.82874e-17)
(123.15 -15.5816 0)
(125.783 -15.5698 0)
(128.537 -15.5961 0)
(131.293 -15.6839 0)
(134.218 -15.7948 0)
(137.128 -15.9675 0)
(140.267 -16.1459 -3.24516e-17)
(143.362 -16.3932 9.90516e-22)
(146.763 -16.6279 0)
(150.072 -16.9476 0)
(153.793 -17.232 -2.90461e-17)
(157.347 -17.6281 0)
(161.46 -17.9587 0)
(165.293 -18.4408 0)
(169.889 -18.8157 0)
(174.038 -19.3991 2.4374e-17)
(179.234 -19.8176 2.36477e-17)
(183.74 -20.5231 -2.24415e-17)
(189.688 -20.9864 -2.17764e-17)
(194.592 -21.8424 0)
(201.489 -22.3574 0)
(206.842 -23.4017 0)
(214.948 -23.9848 -1.79441e-17)
(220.808 -25.2658 -1.23653e-21)
(230.467 -25.9577 -1.59947e-17)
(236.932 -27.5534 -1.40421e-17)
(248.621 -28.4442 1.40287e-17)
(255.893 -30.4639 -1.17428e-17)
(270.322 -31.671 1.20867e-17)
(278.803 -34.1777 9.40707e-18)
(296.973 -35.6921 -1.02438e-17)
(307.261 -38.5318 0)
(330.373 -40.0396 8.56388e-18)
(342.925 -42.6401 -4.7302e-18)
(371.856 -43.5409 -6.95423e-18)
(386.391 -45.3162 0)
(421.729 -46.341 0)
(439.452 -46.8481 0)
(482.745 -48.0182 0)
(506.119 -39.9532 0)
(548.229 -37.6179 0)
(575.054 1.61241 -5.19484e-19)
(548.254 17.9414 7.20965e-19)
(538.904 27.6935 5.50904e-18)
(500.966 33.4585 8.9484e-19)
(484.886 34.0329 -3.18962e-18)
(452.03 34.415 1.41709e-18)
(437.895 31.9963 1.28247e-18)
(412.037 31.4298 0)
(399.842 29.132 -6.51947e-19)
(379.088 28.6298 0)
(368.186 26.7049 0)
(351.256 26.2964 0)
(341.388 24.7664 4.02542e-18)
(327.354 24.4852 0)
(318.273 23.3383 5.45647e-18)
(306.314 23.145 6.71932e-18)
(297.798 22.284 8.66465e-22)
(287.372 22.1247 -7.78988e-18)
(279.359 21.4507 -7.98544e-18)
(270.114 21.252 8.84015e-18)
(262.597 20.6524 -9.14454e-18)
(254.347 20.3456 0)
(247.399 19.7279 -1.02865e-17)
(240.078 19.2772 0)
(233.796 18.6294 1.14066e-17)
(227.356 18.1147 0)
(221.74 17.5253 -1.69346e-23)
(216.036 17.0446 1.30451e-17)
(210.976 16.5656 0)
(205.824 16.1479 0)
(201.201 15.7632 0)
(196.451 15.367 -1.5057e-17)
(192.198 15.0117 0)
(187.771 14.5732 0)
(183.886 14.1843 0)
(179.748 13.654 -1.71055e-17)
(176.266 13.1719 0)
(172.409 12.5111 1.81481e-17)
(169.393 11.8637 0)
(165.844 11.0438 -1.92099e-17)
(163.39 10.1354 0)
(160.238 9.15164 0)
(158.466 7.897 0)
(155.897 6.78622 0)
(154.902 5.24564 0)
(153.13 3.61844 0)
(100.006 -0.461739 0)
(100.157 -1.89205 -4.27762e-17)
(100.623 -4.74031 0)
(101.558 -8.90378 4.11316e-17)
(103.075 -13.1912 0)
(105.132 -16.2206 0)
(107.614 -17.4624 4.42879e-17)
(110.253 -17.3309 4.36354e-17)
(112.874 -16.7131 4.22779e-17)
(115.41 -16.1959 8.14734e-17)
(117.954 -15.9041 3.94004e-17)
(120.495 -15.7606 0)
(123.118 -15.6867 0)
(125.748 -15.6751 3.65123e-17)
(128.5 -15.7019 0)
(131.254 -15.7905 0)
(134.177 -15.9024 0)
(137.086 -16.0763 0)
(140.222 -16.256 3.24499e-17)
(143.315 -16.5051 -6.313e-17)
(146.715 -16.7414 0)
(150.022 -17.0633 0)
(153.741 -17.3496 5.80909e-17)
(157.293 -17.7484 0)
(161.405 -18.0811 0)
(165.236 -18.5665 -2.62488e-17)
(169.829 -18.9438 0)
(173.977 -19.5313 -2.43733e-17)
(179.17 -19.9524 -2.36471e-17)
(183.673 -20.6629 0)
(189.618 -21.129 2.17761e-17)
(194.52 -21.991 -2.04517e-17)
(201.414 -22.509 0)
(206.763 -23.5606 0)
(214.865 -24.1469 -1.79453e-17)
(220.721 -25.4367 1.62594e-17)
(230.376 -26.1323 0)
(236.834 -27.7389 1.40423e-17)
(248.518 -28.6346 -1.40287e-17)
(255.78 -30.6683 2.34864e-17)
(270.204 -31.8828 1.29479e-22)
(278.675 -34.4076 -9.40868e-18)
(296.839 -35.9329 0)
(307.117 -38.7943 0)
(330.229 -40.3141 0)
(342.775 -42.9348 4.73011e-18)
(371.711 -43.8421 6.95463e-18)
(386.236 -45.6314 0)
(421.581 -46.6665 0)
(439.294 -47.186 -7.89435e-19)
(482.634 -48.3781 0)
(506.034 -40.2715 0)
(548.277 -37.9452 0)
(575.244 1.6149 5.18131e-19)
(548.344 18.1028 -7.2023e-19)
(538.927 27.9216 -5.50589e-18)
(500.92 33.7193 -1.78812e-18)
(484.815 34.2867 0)
(451.945 34.6637 0)
(437.81 32.2232 0)
(411.952 31.6506 0)
(399.762 29.3359 -6.53474e-19)
(379.011 28.8303 0)
(368.113 26.8916 -2.43673e-18)
(351.187 26.4804 0)
(341.322 24.9393 0)
(327.292 24.6564 0)
(318.214 23.5016 -5.4564e-18)
(306.257 23.3078 -1.34386e-17)
(297.744 22.4411 -6.77314e-18)
(287.319 22.2814 0)
(279.307 21.603 7.98655e-18)
(270.065 21.4034 -8.83965e-18)
(262.547 20.7997 0)
(254.298 20.4909 0)
(247.349 19.8685 0)
(240.029 19.4143 1.09741e-17)
(233.747 18.7612 -1.14067e-17)
(227.308 18.2424 1.20258e-17)
(221.693 17.6485 -2.49574e-17)
(215.991 17.1644 -1.30447e-17)
(210.933 16.6821 0)
(205.783 16.2619 0)
(201.16 15.8751 0)
(196.411 15.4768 0)
(192.158 15.1198 1.5592e-17)
(187.731 14.679 1.60736e-17)
(183.845 14.2881 0)
(179.707 13.7549 1.49406e-22)
(176.223 13.2703 0)
(172.364 12.6055 0)
(169.347 11.9544 0)
(165.794 11.129 0)
(163.339 10.2146 0)
(160.183 9.22362 0)
(158.41 7.95873 0)
(155.837 6.83963 0)
(154.842 5.28349 0)
(153.071 3.64523 0)
(100.006 -0.465828 0)
(100.158 -1.90723 4.27565e-17)
(100.624 -4.77428 -4.09515e-17)
(101.558 -8.96205 4.11378e-17)
(103.07 -13.2745 0)
(105.121 -16.3243 0)
(107.599 -17.5775 4.43623e-17)
(110.234 -17.4468 1.10338e-21)
(112.852 -16.8248 0)
(115.386 -16.3036 -4.0758e-17)
(117.927 -16.0099 -3.94081e-17)
(120.465 -15.8657 3.82926e-17)
(123.085 -15.7916 0)
(125.713 -15.7803 -3.65101e-17)
(128.463 -15.8075 0)
(131.215 -15.897 0)
(134.135 -16.0097 -3.40952e-17)
(137.043 -16.185 3.32427e-17)
(140.177 -16.366 3.24501e-17)
(143.269 -16.6169 6.3129e-17)
(146.666 -16.8547 0)
(149.972 -17.1789 -2.98418e-17)
(153.689 -17.467 9.4353e-22)
(157.24 -17.8686 0)
(161.349 -18.2034 0)
(165.178 -18.6922 -1.12441e-21)
(169.77 -19.0718 0)
(173.915 -19.6633 0)
(179.106 -20.0871 2.36483e-17)
(183.606 -20.8025 2.24442e-17)
(189.548 -21.2715 -2.17773e-17)
(194.447 -22.1394 -1.22217e-21)
(201.338 -22.6604 -1.98741e-17)
(206.683 -23.7193 0)
(214.782 -24.3089 -5.73884e-22)
(220.633 -25.6074 1.62621e-17)
(230.284 -26.3067 1.59964e-17)
(236.736 -27.9241 0)
(248.414 -28.8247 1.40293e-17)
(255.668 -30.8723 -1.17436e-17)
(270.085 -32.0944 -1.20861e-17)
(278.545 -34.6372 9.40814e-18)
(296.704 -36.1734 1.02428e-17)
(306.973 -39.0565 0)
(330.085 -40.5884 0)
(342.624 -43.2293 4.73359e-18)
(371.565 -44.1431 -6.95787e-18)
(386.08 -45.9464 -2.13802e-18)
(421.432 -46.9917 0)
(439.135 -47.5238 1.57728e-18)
(482.522 -48.7381 3.12527e-18)
(505.947 -40.5903 0)
(548.325 -38.2738 -1.39266e-18)
(575.434 1.61722 -5.18596e-19)
(548.433 18.2649 -7.12812e-19)
(538.948 28.1503 0)
(500.873 33.9804 8.93292e-19)
(484.742 34.5406 0)
(451.86 34.9124 1.41351e-18)
(437.725 32.45 0)
(411.867 31.8713 2.31919e-18)
(399.682 29.5397 6.53473e-19)
(378.934 29.0306 0)
(368.04 27.0783 2.43674e-18)
(351.117 26.6643 0)
(341.256 25.1122 0)
(327.229 24.8275 0)
(318.154 23.6649 -5.45818e-18)
(306.201 23.4705 6.71928e-18)
(297.689 22.5981 -6.77471e-18)
(287.267 22.4379 0)
(279.256 21.7552 -1.59731e-17)
(270.015 21.5548 0)
(262.497 20.947 -9.14518e-18)
(254.248 20.6361 0)
(247.299 20.0091 -1.02867e-17)
(239.98 19.5513 -1.0974e-17)
(233.698 18.893 2.28136e-17)
(227.26 18.3701 -1.20258e-17)
(221.646 17.7716 2.49573e-17)
(215.947 17.284 1.30444e-17)
(210.89 16.7985 0)
(205.742 16.3759 0)
(201.12 15.9869 0)
(196.371 15.5866 -1.50548e-17)
(192.118 15.2279 -1.55907e-17)
(187.691 14.7847 -1.60722e-17)
(183.805 14.392 -1.66494e-17)
(179.665 13.8557 1.48326e-22)
(176.18 13.3687 -1.77368e-17)
(172.319 12.6998 0)
(169.3 12.0452 0)
(165.744 11.2142 0)
(163.288 10.2939 0)
(160.127 9.29562 -2.02869e-17)
(158.354 8.02048 2.12622e-17)
(155.776 6.89305 0)
(154.783 5.32124 0)
(153.012 3.67196 2.24234e-17)
(100.006 -0.469943 0)
(100.159 -1.92244 -4.27338e-17)
(100.625 -4.80823 4.09361e-17)
(101.557 -9.02017 -8.22845e-17)
(103.065 -13.3575 0)
(105.11 -16.4278 4.39405e-17)
(107.583 -17.6923 1.20836e-21)
(110.216 -17.5626 -8.75252e-17)
(112.831 -16.9363 -4.23636e-17)
(115.362 -16.4111 0)
(117.9 -16.1155 -3.94178e-17)
(120.435 -15.9706 -7.65887e-17)
(123.052 -15.8964 -3.73735e-17)
(125.678 -15.8854 0)
(128.425 -15.913 0)
(131.175 -16.0033 0)
(134.094 -16.117 3.40932e-17)
(136.999 -16.2936 -6.64828e-17)
(140.132 -16.4759 -3.24485e-17)
(143.222 -16.7285 -6.3128e-17)
(146.618 -16.9679 3.07666e-17)
(149.922 -17.2943 -1.05359e-21)
(153.637 -17.5843 9.50132e-22)
(157.186 -17.9886 0)
(161.293 -18.3256 2.72839e-17)
(165.12 -18.8176 2.62483e-17)
(169.709 -19.1997 -2.5484e-17)
(173.852 -19.7952 0)
(179.041 -20.2216 -2.36478e-17)
(183.539 -20.942 -2.24438e-17)
(189.478 -21.4138 2.1777e-17)
(194.374 -22.2877 2.04526e-17)
(201.262 -22.8117 1.9874e-17)
(206.604 -23.8778 1.83952e-17)
(214.699 -24.4706 1.7946e-17)
(220.546 -25.778 1.26479e-21)
(230.191 -26.4809 4.29322e-22)
(236.637 -28.1091 1.40464e-17)
(248.31 -29.0145 -1.40294e-17)
(255.555 -31.076 -1.17458e-17)
(269.966 -32.3056 0)
(278.415 -34.8664 -9.40982e-18)
(296.569 -36.4136 -2.04842e-17)
(306.829 -39.3185 0)
(329.939 -40.8624 8.56507e-18)
(342.473 -43.5235 -4.73353e-18)
(371.418 -44.4438 6.95834e-18)
(385.923 -46.2611 2.13795e-18)
(421.283 -47.3167 0)
(438.974 -47.8615 -1.00212e-21)
(482.409 -49.0983 3.99802e-22)
(505.859 -40.9097 0)
(548.372 -38.6035 1.38992e-18)
(575.626 1.61938 5.17274e-19)
(548.522 18.4278 3.40514e-21)
(538.968 28.3796 5.50406e-18)
(500.825 34.2418 -8.91511e-19)
(484.669 34.7945 3.18752e-18)
(451.773 35.161 -1.4133e-18)
(437.639 32.6767 0)
(411.781 32.0919 -6.1853e-22)
(399.601 29.7434 0)
(378.857 29.2309 0)
(367.967 27.2649 0)
(351.047 26.8481 0)
(341.19 25.2849 -4.02947e-18)
(327.166 24.9985 -5.63005e-18)
(318.095 23.8281 5.4581e-18)
(306.144 23.6332 0)
(297.635 22.7551 6.77453e-18)
(287.215 22.5945 0)
(279.205 21.9073 -7.66719e-22)
(269.965 21.7061 0)
(262.448 21.0943 9.14466e-18)
(254.199 20.7813 0)
(247.25 20.1496 2.0573e-17)
(239.93 19.6882 0)
(233.648 19.0247 6.46369e-23)
(227.213 18.4977 1.20257e-17)
(221.6 17.8946 -1.24786e-17)
(215.902 17.4036 1.3044e-17)
(210.847 16.9149 1.35172e-17)
(205.7 16.4898 0)
(201.079 16.0987 0)
(196.332 15.6964 3.01075e-17)
(192.078 15.3359 0)
(187.651 14.8905 0)
(183.764 14.4958 2.34921e-22)
(179.624 13.9566 1.47288e-22)
(176.137 13.4671 3.54691e-17)
(172.275 12.7942 1.81398e-17)
(169.254 12.136 0)
(165.694 11.2995 0)
(163.237 10.3732 0)
(160.071 9.36766 2.02825e-17)
(158.297 8.08226 -5.19775e-22)
(155.715 6.94646 0)
(154.723 5.35892 0)
(152.953 3.69862 -2.24213e-17)
(100.006 -0.474084 0)
(100.16 -1.93768 4.27148e-17)
(100.627 -4.84215 0)
(101.557 -9.07815 4.11471e-17)
(103.061 -13.4404 -4.25589e-17)
(105.1 -16.531 -8.8005e-17)
(107.567 -17.8069 -4.45098e-17)
(110.197 -17.6783 -1.12256e-21)
(112.81 -17.0476 -1.05191e-21)
(115.337 -16.5185 0)
(117.872 -16.2209 3.94256e-17)
(120.404 -16.0754 7.65931e-17)
(123.019 -16.0011 7.47452e-17)
(125.643 -15.9903 0)
(128.388 -16.0184 3.57104e-17)
(131.136 -16.1096 0)
(134.052 -16.2242 -3.4093e-17)
(136.956 -16.4021 3.324e-17)
(140.087 -16.5856 0)
(143.175 -16.84 6.31271e-17)
(146.569 -17.081 -6.15314e-17)
(149.871 -17.4096 2.98404e-17)
(153.585 -17.7015 9.56743e-22)
(157.132 -18.1085 0)
(161.237 -18.4476 -2.72829e-17)
(165.062 -18.943 2.62497e-17)
(169.649 -19.3274 2.54832e-17)
(173.79 -19.927 0)
(178.976 -20.356 0)
(183.471 -21.0813 0)
(189.408 -21.5559 0)
(194.301 -22.4358 2.04548e-17)
(201.185 -22.9628 1.98753e-17)
(206.524 -24.0361 -1.83953e-17)
(214.615 -24.6321 -1.79473e-17)
(220.457 -25.9483 1.27421e-21)
(230.099 -26.6548 -1.59973e-17)
(236.538 -28.2938 -1.40467e-17)
(248.206 -29.2041 0)
(255.441 -31.2795 -1.1649e-21)
(269.846 -32.5165 0)
(278.285 -35.0953 9.40931e-18)
(296.433 -36.6535 1.02414e-17)
(306.683 -39.5801 0)
(329.794 -41.1362 -8.56464e-18)
(342.32 -43.8175 0)
(371.27 -44.7442 0)
(385.766 -46.5755 0)
(421.133 -47.6414 0)
(438.812 -48.1992 -7.86553e-19)
(482.296 -49.4587 4.08322e-22)
(505.769 -41.2296 0)
(548.418 -38.9345 1.38294e-18)
(575.818 1.62137 -5.17789e-19)
(548.611 18.5915 3.43338e-21)
(538.988 28.6095 -1.10046e-17)
(500.775 34.5036 1.78152e-18)
(484.594 35.0485 -3.18687e-18)
(451.685 35.4096 0)
(437.552 32.9033 0)
(411.695 32.3123 -6.21663e-22)
(399.52 29.9469 6.55804e-19)
(378.779 29.431 0)
(367.894 27.4514 0)
(350.977 27.0318 4.52644e-18)
(341.123 25.4575 -1.00768e-21)
(327.103 25.1694 5.63005e-18)
(318.035 23.9912 0)
(306.088 23.7958 0)
(297.581 22.912 -6.77612e-18)
(287.163 22.7509 7.79047e-18)
(279.154 22.0594 -7.72964e-22)
(269.915 21.8573 8.8394e-18)
(262.398 21.2415 -9.14528e-18)
(254.15 20.9265 0)
(247.2 20.2902 -2.0573e-17)
(239.881 19.8252 -1.09737e-17)
(233.599 19.1564 -1.1407e-17)
(227.165 18.6252 -1.20257e-17)
(221.553 18.0176 0)
(215.858 17.5232 -2.60874e-17)
(210.804 17.0313 -2.70333e-17)
(205.659 16.6037 0)
(201.039 16.2105 0)
(196.292 15.8062 -3.01053e-17)
(192.039 15.4439 0)
(187.611 14.9962 1.60693e-17)
(183.723 14.5997 2.3447e-22)
(179.582 14.0574 1.4627e-22)
(176.094 13.5656 -3.5464e-17)
(172.23 12.8886 -3.62746e-17)
(169.207 12.2268 0)
(165.644 11.3847 0)
(163.185 10.4526 0)
(160.014 9.43972 0)
(158.24 8.14406 -5.25213e-22)
(155.654 6.99986 0)
(154.662 5.3965 0)
(152.893 3.72522 0)
(100.006 -0.478251 0)
(100.161 -1.95296 -4.26926e-17)
(100.628 -4.87605 4.09112e-17)
(101.557 -9.13599 0)
(103.056 -13.523 4.25925e-17)
(105.089 -16.634 -1.26892e-21)
(107.551 -17.9213 -4.45866e-17)
(110.178 -17.7938 -1.13222e-21)
(112.788 -17.1588 8.48995e-17)
(115.313 -16.6257 0)
(117.845 -16.3262 0)
(120.374 -16.18 -3.82983e-17)
(122.986 -16.1056 -7.47444e-17)
(125.607 -16.0951 0)
(128.35 -16.1237 -3.57081e-17)
(131.096 -16.2157 0)
(134.011 -16.3312 3.4091e-17)
(136.913 -16.5104 -3.32402e-17)
(140.042 -16.6952 0)
(143.128 -16.9514 -6.31261e-17)
(146.52 -17.194 6.15306e-17)
(149.821 -17.5248 -2.98414e-17)
(153.532 -17.8186 -2.90443e-17)
(157.078 -18.2283 0)
(161.18 -18.5695 2.72839e-17)
(165.004 -19.0682 -2.62489e-17)
(169.588 -19.455 0)
(173.727 -20.0586 2.43766e-17)
(178.91 -20.4902 0)
(183.403 -21.2204 0)
(189.337 -21.6978 0)
(194.227 -22.5837 1.24875e-21)
(201.109 -23.1137 -3.97512e-17)
(206.444 -24.1943 0)
(214.531 -24.7934 3.58954e-17)
(220.369 -26.1183 1.28363e-21)
(230.006 -26.8285 -1.59985e-17)
(236.438 -28.4783 0)
(248.101 -29.3933 0)
(255.327 -31.4826 2.34947e-17)
(269.726 -32.7271 0)
(278.154 -35.3239 0)
(296.297 -36.8931 1.0241e-17)
(306.537 -39.8415 0)
(329.647 -41.4097 0)
(342.167 -44.1113 -4.73889e-18)
(371.122 -45.0445 0)
(385.607 -46.8897 0)
(420.982 -47.9659 0)
(438.648 -48.5368 7.84221e-19)
(482.181 -49.8193 -3.1219e-18)
(505.678 -41.5501 -4.12624e-18)
(548.463 -39.2668 -2.13981e-21)
(576.012 1.62319 1.55132e-18)
(548.699 18.756 3.46191e-21)
(539.006 28.84 5.50079e-18)
(500.723 34.7656 -6.88858e-22)
(484.519 35.3026 0)
(451.596 35.6581 1.40956e-18)
(437.464 33.1298 0)
(411.608 32.5327 -2.31757e-18)
(399.438 30.1503 7.94778e-22)
(378.701 29.631 0)
(367.821 27.6377 -2.44102e-18)
(350.907 27.2154 -4.52643e-18)
(341.057 25.6301 4.03052e-18)
(327.04 25.3402 0)
(317.976 24.1542 0)
(306.031 23.9583 -6.72002e-18)
(297.526 23.0689 -9.02116e-22)
(287.111 22.9073 -7.79016e-18)
(279.103 22.2115 7.98729e-18)
(269.865 22.0086 3.20726e-22)
(262.348 21.3887 1.82901e-17)
(254.101 21.0716 0)
(247.15 20.4307 2.05729e-17)
(239.831 19.9621 1.09736e-17)
(233.55 19.2881 0)
(227.117 18.7527 -1.20256e-17)
(221.506 18.1405 0)
(215.813 17.6426 2.60867e-17)
(210.761 17.1475 1.35161e-17)
(205.618 16.7175 0)
(200.998 16.3222 0)
(196.253 15.9159 3.0103e-17)
(191.999 15.5519 -1.55865e-17)
(187.572 15.1019 -1.60678e-17)
(183.682 14.7035 3.32877e-17)
(179.54 14.1583 1.70957e-17)
(176.051 13.664 1.77297e-17)
(172.185 12.983 1.81347e-17)
(169.16 12.3177 0)
(165.594 11.47 -1.91903e-17)
(163.133 10.532 0)
(159.958 9.51181 -2.02716e-17)
(158.183 8.20589 -2.12474e-17)
(155.592 7.05326 0)
(154.602 5.434 0)
(152.833 3.75175 0)