/*--------------------------------*- C++ -*----------------------------------*\
| =========                 |                                                 |
| \\      /  F ield         | OpenFOAM: The Open Source CFD Toolbox           |
|  \\    /   O peration     | Version:  2412                                  |
|   \\  /    A nd           | Website:  www.openfoam.com                      |
|    \\/     M anipulation  |                                                 |
\*---------------------------------------------------------------------------*/
FoamFile
{
    version     2.0;
    format      ascii;
    arch        "LSB;label=32;scalar=64";
    class       volScalarField;
    location    "0.4";
    object      epsilon;
}
// * * * * * * * * * * * * * * * * * * * * * * * * * * * * * * * * * * * * * //

dimensions      [0 2 -3 0 0 0 0];

internalField   nonuniform List<scalar> 
13156
(
4.35893e+06
4.76351e+06
3.58739e+06
2.90056e+06
2.61279e+06
2.49442e+06
2.44757e+06
2.43232e+06
2.4349e+06
2.44827e+06
2.47058e+06
2.49834e+06
2.53192e+06
2.5692e+06
2.61242e+06
2.65959e+06
2.7158e+06
2.77758e+06
2.85212e+06
2.93414e+06
3.03467e+06
3.1446e+06
3.28299e+06
3.43222e+06
3.62314e+06
3.82594e+06
4.09138e+06
4.36649e+06
4.73862e+06
5.11174e+06
5.62822e+06
6.14042e+06
6.8751e+06
7.58025e+06
8.64596e+06
9.6137e+06
1.12047e+07
1.25252e+07
1.49842e+07
1.67941e+07
2.08311e+07
2.35158e+07
3.12423e+07
3.71997e+07
5.35524e+07
6.38126e+07
8.92651e+07
1.01324e+08
1.43582e+08
1.64106e+08
2.55891e+08
3.00944e+08
7.29085e+08
8.03178e+08
4.81276e+08
3.1429e+08
2.39258e+08
1.95562e+08
1.62806e+08
1.36803e+08
1.15859e+08
1.00369e+08
9.08724e+07
8.42067e+07
7.93033e+07
7.2518e+07
6.50178e+07
5.68314e+07
4.93357e+07
4.26506e+07
3.70568e+07
3.23652e+07
2.85104e+07
2.53026e+07
2.26738e+07
2.05376e+07
1.8914e+07
1.7868e+07
1.74724e+07
1.75703e+07
1.7809e+07
1.78304e+07
1.74795e+07
1.68002e+07
1.58793e+07
1.48591e+07
1.37875e+07
1.27655e+07
1.17681e+07
1.08785e+07
1.00234e+07
9.29348e+06
8.57343e+06
7.99187e+06
7.37325e+06
6.92299e+06
6.36029e+06
6.03427e+06
5.49861e+06
1.69708e+07
9.5367e+06
3.53765e+06
1.62165e+06
967827
731250
657807
660071
697488
751798
807287
857883
897751
930025
954256
977092
996182
1.01969e+06
1.04157e+06
1.07201e+06
1.10085e+06
1.14273e+06
1.1806e+06
1.23877e+06
1.28894e+06
1.36975e+06
1.43592e+06
1.54941e+06
1.63711e+06
1.79947e+06
1.92689e+06
2.16089e+06
2.33772e+06
2.6808e+06
2.92367e+06
3.44094e+06
3.77229e+06
4.58209e+06
5.03425e+06
6.35797e+06
7.02933e+06
9.43935e+06
1.10718e+07
1.62412e+07
1.93105e+07
2.70111e+07
2.95893e+07
4.07846e+07
4.45014e+07
6.47542e+07
7.57061e+07
1.09894e+08
1.49347e+08
3.64656e+08
3.25103e+08
2.01007e+08
1.22729e+08
9.39004e+07
7.22791e+07
6.16767e+07
4.99976e+07
4.39922e+07
3.85995e+07
3.60516e+07
3.35137e+07
3.06921e+07
2.71957e+07
2.37066e+07
2.02906e+07
1.75202e+07
1.50482e+07
1.31475e+07
1.14973e+07
1.02065e+07
9.11604e+06
8.25438e+06
7.60597e+06
7.19357e+06
7.00715e+06
6.9677e+06
6.94622e+06
6.84752e+06
6.63736e+06
6.32994e+06
5.95676e+06
5.55357e+06
5.14534e+06
4.75171e+06
4.38196e+06
4.04147e+06
3.7323e+06
3.45154e+06
3.20777e+06
2.97635e+06
2.79828e+06
2.59888e+06
2.4853e+06
2.29964e+06
2.24093e+06
2.14343e+06
2.49757e+06
1.21795e+06
657707
410277
299241
253118
241384
248371
266629
290063
315421
339297
361123
379687
396516
410906
425454
438853
454359
469566
488826
507862
533298
558279
592726
626001
673253
717565
783300
843396
937247
1.01895e+06
1.15551e+06
1.26657e+06
1.47069e+06
1.62148e+06
1.93856e+06
2.1462e+06
2.67025e+06
3.00358e+06
4.06275e+06
5.05845e+06
7.69233e+06
9.39991e+06
1.29884e+07
1.42727e+07
1.90779e+07
2.06426e+07
2.90388e+07
3.30106e+07
4.79978e+07
5.23117e+07
1.26765e+08
1.85032e+08
1.37649e+08
8.74522e+07
6.28937e+07
4.80078e+07
3.95301e+07
3.25997e+07
2.84191e+07
2.55407e+07
2.39966e+07
2.25256e+07
2.054e+07
1.80266e+07
1.54578e+07
1.30444e+07
1.10652e+07
9.40363e+06
8.11313e+06
7.04995e+06
6.21418e+06
5.52933e+06
4.99675e+06
4.60171e+06
4.36559e+06
4.27569e+06
4.28035e+06
4.29371e+06
4.25461e+06
4.13943e+06
3.95535e+06
3.72381e+06
3.46687e+06
3.20412e+06
2.94672e+06
2.70537e+06
2.48021e+06
2.27808e+06
2.09196e+06
1.93117e+06
1.78029e+06
1.65865e+06
1.53392e+06
1.44783e+06
1.33934e+06
1.28079e+06
272014
521596
373887
274751
210342
170934
149276
140171
139418
144476
152943
163441
174419
185392
195478
205023
213400
221673
229069
237223
244894
254429
263583
276049
287974
305127
321189
345289
366837
401082
429857
478931
517692
589279
641143
748413
817214
984369
1.07755e+06
1.35909e+06
1.52478e+06
2.14843e+06
2.75294e+06
4.37443e+06
5.51495e+06
7.72936e+06
8.7452e+06
1.14626e+07
1.25399e+07
1.69572e+07
1.91357e+07
2.72079e+07
2.81476e+07
5.72424e+07
1.10282e+08
1.02603e+08
6.97006e+07
4.95373e+07
3.75274e+07
3.03957e+07
2.52531e+07
2.20424e+07
2.01295e+07
1.90651e+07
1.79755e+07
1.63243e+07
1.4194e+07
1.20213e+07
1.00215e+07
8.39203e+06
7.06295e+06
6.03693e+06
5.2111e+06
4.56581e+06
4.04511e+06
3.6451e+06
3.35309e+06
3.18718e+06
3.13914e+06
3.17047e+06
3.21169e+06
3.20997e+06
3.14316e+06
3.01565e+06
2.84498e+06
2.64936e+06
2.44573e+06
2.24365e+06
2.0528e+06
1.87372e+06
1.71249e+06
1.56391e+06
1.43472e+06
1.3148e+06
1.21521e+06
1.11784e+06
1.04473e+06
962411
910194
60980.5
139556
145811
142792
132147
119843
110000
104177
102126
103249
106536
111292
116692
122397
127856
133113
137741
142200
146031
150075
153663
158093
162142
167930
173246
181517
188943
201149
211464
229635
243704
270567
289841
329860
355620
416635
450277
546954
592086
760188
852231
1.25325e+06
1.6505e+06
2.74681e+06
3.68737e+06
5.30525e+06
6.24476e+06
8.0887e+06
9.00176e+06
1.17757e+07
1.33351e+07
1.84289e+07
1.94243e+07
3.30549e+07
6.84538e+07
7.80309e+07
5.75439e+07
4.16096e+07
3.15678e+07
2.5442e+07
2.12583e+07
1.86502e+07
1.72317e+07
1.64255e+07
1.54991e+07
1.40065e+07
1.20763e+07
1.01303e+07
8.36854e+06
6.94653e+06
5.80612e+06
4.93103e+06
4.23527e+06
3.69408e+06
3.26088e+06
2.93046e+06
2.69273e+06
2.56343e+06
2.53838e+06
2.58598e+06
2.64471e+06
2.66505e+06
2.62542e+06
2.52896e+06
2.39116e+06
2.2285e+06
2.05632e+06
1.88371e+06
1.71942e+06
1.56474e+06
1.42475e+06
1.29595e+06
1.18313e+06
1.07931e+06
991398
907911
842115
772765
724792
25144.1
62606
80786.6
91211.8
94197.7
92280
88622.2
85538.6
83938
84056.2
85564.9
88125
91241.3
94650.7
97968
101137
103864
106361
108351
110300
111841
113722
115268
117716
119806
123549
126727
132682
137433
146870
153677
168293
178036
200511
213763
248954
266291
323530
347206
451069
508676
774114
1.07529e+06
1.89074e+06
2.73876e+06
4.04115e+06
4.92932e+06
6.33521e+06
7.16223e+06
9.14069e+06
1.0414e+07
1.40476e+07
1.53263e+07
2.30322e+07
4.53114e+07
5.99618e+07
4.81116e+07
3.59817e+07
2.75844e+07
2.22903e+07
1.87455e+07
1.65563e+07
1.54357e+07
1.47761e+07
1.39188e+07
1.25069e+07
1.07011e+07
8.91004e+06
7.31342e+06
6.03683e+06
5.02378e+06
4.2493e+06
3.63761e+06
3.16253e+06
2.78395e+06
2.49629e+06
2.29202e+06
2.18555e+06
2.17559e+06
2.23415e+06
2.30412e+06
2.33803e+06
2.31494e+06
2.2374e+06
2.11964e+06
1.97714e+06
1.82416e+06
1.66959e+06
1.52147e+06
1.38169e+06
1.25457e+06
1.13781e+06
1.03491e+06
940834
860183
784933
723772
662117
616923
15784.9
39811.4
55350.6
66502.3
72893.4
75037.8
74659.6
73549.5
72766.9
72847.1
73804.2
75508.1
77647
80010.5
82302.1
84431.2
86181
87657.9
88686.6
89552.9
90047.1
90637.1
90936
91707
92208.6
93663.3
94749.6
97483.4
99476.7
104280
107469
115393
120331
132990
139962
160356
169665
203807
217316
282538
323962
507947
766731
1.4247e+06
2.20807e+06
3.31895e+06
4.16071e+06
5.31559e+06
6.08527e+06
7.62701e+06
8.73889e+06
1.1575e+07
1.30561e+07
1.81226e+07
3.24449e+07
4.67945e+07
4.05511e+07
3.16106e+07
2.46507e+07
2.00747e+07
1.70126e+07
1.51369e+07
1.42125e+07
1.36354e+07
1.27984e+07
1.14286e+07
9.71177e+06
8.04029e+06
6.57216e+06
5.40787e+06
4.49016e+06
3.78938e+06
3.23742e+06
2.80834e+06
2.46723e+06
2.20855e+06
2.02713e+06
1.93671e+06
1.93792e+06
2.00448e+06
2.08197e+06
2.12456e+06
2.11208e+06
2.04684e+06
1.94222e+06
1.81304e+06
1.67276e+06
1.53017e+06
1.39275e+06
1.26287e+06
1.14425e+06
1.03547e+06
939120
851484
775695
705847
647844
591221
547943
11917.8
29954.9
42588.2
52558.5
59540.9
63286.4
64666.7
64904.1
64911.8
65279.3
66177.1
67593.1
69324.8
71200.1
72978.4
74559.7
75777.6
76690.2
77183.3
77451.2
77372.7
77265.7
76901.2
76784
76457.4
76709.5
76716.2
77752.4
78328.8
80660.9
82002.5
86287
88741.9
95968.4
99699.1
111710
116927
137628
146187
188376
222679
360405
596697
1.16016e+06
1.89232e+06
2.87677e+06
3.67742e+06
4.67407e+06
5.40167e+06
6.67952e+06
7.68841e+06
1.00486e+07
1.16602e+07
1.53722e+07
2.50477e+07
3.73428e+07
3.45023e+07
2.8078e+07
2.23624e+07
1.8413e+07
1.57412e+07
1.41113e+07
1.33216e+07
1.27862e+07
1.19421e+07
1.0595e+07
8.94958e+06
7.37876e+06
6.01795e+06
4.94566e+06
4.10379e+06
3.46014e+06
2.9532e+06
2.55808e+06
2.24425e+06
2.00652e+06
1.8418e+06
1.76359e+06
1.77369e+06
1.84644e+06
1.92915e+06
1.97745e+06
1.97201e+06
1.9151e+06
1.81953e+06
1.69959e+06
1.56815e+06
1.43393e+06
1.304e+06
1.18103e+06
1.06836e+06
965149
873383
790240
717869
651778
596028
542896
500998
9896.88
24589.4
35038.3
43721.3
50470.9
54791
57114.5
58253.5
58924.9
59671.3
60717.7
62110.5
63710.7
65373
66894.8
68178.2
69092.5
69674.3
69849.5
69763.6
69348.1
68836.8
68092
67470.6
66680
66259.2
65670.8
65764
65567.6
66529.3
66872.7
69131.4
70244.4
74427.5
76417.8
83678.9
86733.3
99695.6
105809
134719
165950
277831
499552
1.00339e+06
1.69539e+06
2.59191e+06
3.35753e+06
4.24739e+06
4.94282e+06
6.04944e+06
6.9874e+06
9.04161e+06
1.07407e+07
1.36762e+07
2.05788e+07
3.06078e+07
2.97115e+07
2.51802e+07
2.05166e+07
1.71122e+07
1.47666e+07
1.33347e+07
1.26386e+07
1.21168e+07
1.12502e+07
9.91667e+06
8.33443e+06
6.85324e+06
5.58596e+06
4.59181e+06
3.81246e+06
3.2147e+06
2.74299e+06
2.37391e+06
2.08076e+06
1.85884e+06
1.70692e+06
1.6385e+06
1.65602e+06
1.73374e+06
1.82017e+06
1.87227e+06
1.8716e+06
1.82051e+06
1.73135e+06
1.61805e+06
1.493e+06
1.36484e+06
1.24033e+06
1.12239e+06
1.01403e+06
914856
826409
746515
676629
613253
559161
508547
467673
8650.88
21186
30042.6
37635.9
43927.5
48371.6
51189.2
52925.7
54125.7
55252.3
56531.6
58029.6
59640.7
61236.8
62641.7
63764.6
64501.9
64882.3
64859.8
64552.7
63927
63166
62188.4
61261.8
60193
59371.2
58431.6
57969
57322.7
57482.9
57251
58330.9
58676
61093.2
62097.1
66605.2
68458.2
76941.9
81833.2
103259
133085
230294
442166
907270
1.56851e+06
2.40171e+06
3.13808e+06
3.95227e+06
4.62251e+06
5.61193e+06
6.49846e+06
8.3446e+06
1.01052e+07
1.25583e+07
1.77359e+07
2.57994e+07
2.59489e+07
2.27923e+07
1.89983e+07
1.60636e+07
1.3995e+07
1.2725e+07
1.20925e+07
1.15649e+07
1.06676e+07
9.34455e+06
7.82192e+06
6.42329e+06
5.23955e+06
4.31315e+06
3.58649e+06
3.0264e+06
2.58297e+06
2.2344e+06
1.95735e+06
1.74772e+06
1.60596e+06
1.54565e+06
1.5695e+06
1.65132e+06
1.74044e+06
1.79509e+06
1.79769e+06
1.75073e+06
1.66624e+06
1.55783e+06
1.43752e+06
1.31387e+06
1.1934e+06
1.0792e+06
974045
877879
791900
714418
646382
585020
532172
483426
443327
7781.73
18784.6
26461.7
33179
38981.8
43349
46407.2
48535.8
50147.1
51621.4
53159.6
54823.9
56521.4
58132.9
59501.3
60544.1
61179.7
61435.5
61286.4
60836.1
60073.4
59150.7
58023.3
56901.7
55656.7
54582.2
53423.1
52614.2
51689.4
51355.1
50770.5
51129
51007.4
52352.1
52762.6
55614.3
56763.3
62601.3
66894.7
84122.2
113306
202066
407596
847200
1.48522e+06
2.27165e+06
2.98382e+06
3.7424e+06
4.39262e+06
5.29852e+06
6.14629e+06
7.84445e+06
9.65028e+06
1.17857e+07
1.58421e+07
2.23357e+07
2.3006e+07
2.08232e+07
1.77346e+07
1.52011e+07
1.33691e+07
1.22319e+07
1.16404e+07
1.10929e+07
1.01618e+07
8.84967e+06
7.38555e+06
6.06438e+06
4.95622e+06
4.08929e+06
3.40761e+06
2.87894e+06
2.45856e+06
2.12644e+06
1.86216e+06
1.66231e+06
1.52879e+06
1.47536e+06
1.50469e+06
1.58992e+06
1.68101e+06
1.73734e+06
1.7422e+06
1.69822e+06
1.6172e+06
1.51246e+06
1.39574e+06
1.27552e+06
1.15813e+06
1.04678e+06
944060
850173
766065
690408
623773
563931
512045
464701
425197
7118.1
16955.9
23737
29755.9
35102.4
39305.9
42459.5
44841.9
46769.4
48548.4
50343.7
52199.3
54022.1
55695.1
57074.4
58086.3
58667
58846.5
58615.8
58070.9
57216.7
56186.1
54958.7
53707.9
52346.2
51105.6
49802.4
48767.5
47661.4
47006.9
46193.7
46089.2
45667.6
46329.9
46362.3
48174.1
48890.4
53125.3
57159.5
72033.2
101015
184965
386814
809627
1.43026e+06
2.18149e+06
2.87363e+06
3.59023e+06
4.2243e+06
5.06881e+06
5.88644e+06
7.47539e+06
9.31531e+06
1.12332e+07
1.45314e+07
1.98077e+07
2.07041e+07
1.9199e+07
1.66751e+07
1.4481e+07
1.28512e+07
1.1823e+07
1.12546e+07
1.06776e+07
9.71264e+06
8.41408e+06
7.00849e+06
5.7606e+06
4.72125e+06
3.90685e+06
3.26389e+06
2.76166e+06
2.36032e+06
2.04154e+06
1.78753e+06
1.59557e+06
1.46886e+06
1.42133e+06
1.45545e+06
1.54354e+06
1.63605e+06
1.69348e+06
1.69988e+06
1.65808e+06
1.57968e+06
1.47776e+06
1.36382e+06
1.24625e+06
1.13125e+06
1.0221e+06
921272
829143
746476
672220
606662
547986
496849
450576
411533
6577.28
15482.8
21566.8
27025.9
31965.9
35973.1
39138.6
41681.1
43850.2
45890.4
47927.4
49979.8
51945.3
53704.7
55123.2
56134.9
56691.1
56825.9
56543.7
55936.3
55020.6
53916.9
52621.5
51282.9
49841.8
48488.5
47087.4
45899.4
44670.3
43799.9
42831.9
42417.3
41793.1
42001.9
41780.5
42912.3
43353.3
46596.7
50569.8
64146.4
93226
174609
374742
786650
1.39433e+06
2.11865e+06
2.79416e+06
3.47842e+06
4.09928e+06
4.89753e+06
5.6911e+06
7.19676e+06
9.06258e+06
1.0828e+07
1.35959e+07
1.79353e+07
1.88978e+07
1.78581e+07
1.57817e+07
1.38731e+07
1.24155e+07
1.14762e+07
1.09167e+07
1.03038e+07
9.30736e+06
8.02608e+06
6.67938e+06
5.50098e+06
4.52439e+06
3.75656e+06
3.14709e+06
2.66729e+06
2.28178e+06
1.97394e+06
1.72828e+06
1.54275e+06
1.42173e+06
1.37932e+06
1.41759e+06
1.50807e+06
1.60161e+06
1.6597e+06
1.66716e+06
1.62699e+06
1.5506e+06
1.45089e+06
1.33913e+06
1.22367e+06
1.11055e+06
1.00314e+06
903792
813040
731501
658336
593617
535845
485297
439853
401172
6115.67
14246.2
19775.1
24781.2
29365.5
33170.9
36299.8
38938.7
41291.4
43552.7
45810.1
48053.6
50166.7
52024.5
53498.1
54528.8
55080.4
55192.2
54879.1
54231.4
53275.1
52122
50780.5
49381.7
47886.2
46454.9
44985.7
43691.3
42376.1
41355.5
40278.6
39648.6
38881.8
38777.5
38378.1
39049
39312.2
41937.7
45973.8
58880.3
88277.1
168530
368361
773414
1.37144e+06
2.07494e+06
2.73657e+06
3.3955e+06
4.00543e+06
4.76811e+06
5.54197e+06
6.98213e+06
8.86732e+06
1.05246e+07
1.29116e+07
1.65276e+07
1.74728e+07
1.67492e+07
1.50252e+07
1.33552e+07
1.20436e+07
1.11759e+07
1.06141e+07
9.96161e+06
8.93749e+06
7.67769e+06
6.39015e+06
5.27756e+06
4.3582e+06
3.63172e+06
3.05133e+06
2.59063e+06
2.21837e+06
1.91957e+06
1.68074e+06
1.50051e+06
1.38428e+06
1.34629e+06
1.38818e+06
1.48064e+06
1.57488e+06
1.63334e+06
1.64151e+06
1.60256e+06
1.52776e+06
1.42982e+06
1.31982e+06
1.20606e+06
1.09446e+06
988445
890291
800635
719993
647689
583634
526571
476494
431698
393307
5708.81
13176
18253.8
22888.7
27163.3
30773.7
33839
36530.7
39022.4
41469.2
43923.7
46346.6
48604.1
50564
52100.9
53162.2
53722.4
53826.1
53496.8
52824.9
51843.1
50657.8
49285.8
47846.3
46313.5
44828
43311.2
41941.7
40565
39437.2
38281.5
37497.5
36626.7
36299
35770.1
36119.2
36269.2
38515.8
42697
55319.7
85193.2
165261
365776
766785
1.3576e+06
2.04483e+06
2.69476e+06
3.33363e+06
3.93435e+06
4.6692e+06
5.42652e+06
6.8136e+06
8.7126e+06
1.02933e+07
1.2401e+07
1.54544e+07
1.63412e+07
1.58295e+07
1.43817e+07
1.29102e+07
1.17219e+07
1.09108e+07
1.03377e+07
9.64409e+06
8.59727e+06
7.36317e+06
6.13472e+06
5.08427e+06
4.21704e+06
3.5273e+06
2.97222e+06
2.52787e+06
2.16676e+06
1.87545e+06
1.64224e+06
1.46641e+06
1.35422e+06
1.32007e+06
1.36507e+06
1.45914e+06
1.55381e+06
1.61242e+06
1.62108e+06
1.58308e+06
1.50957e+06
1.41308e+06
1.30455e+06
1.19219e+06
1.08185e+06
976977
879799
791033
711119
639505
575985
519486
469792
425511
387356
5342.33
12229.2
16933.2
21259.8
25264.6
28691.9
31679.4
34394.3
36990.5
39592
42220.3
44807.4
47201.5
49261.8
50864.8
51963.3
52540.6
52646.6
52311.9
51627.7
50631.7
49427
48036.3
46570.1
45012.8
43490.2
41940.4
40517.4
39096.6
37891.2
36677.1
35780.4
34831.6
34340.1
33714
33833.5
33916
35943.6
40326.1
52911.2
83373.7
163886
365738
764648
1.35004e+06
2.02443e+06
2.6644e+06
3.2872e+06
3.88004e+06
4.59278e+06
5.33584e+06
6.67861e+06
8.58642e+06
1.0114e+07
1.20138e+07
1.46255e+07
1.5436e+07
1.50641e+07
1.3832e+07
1.25249e+07
1.14398e+07
1.06725e+07
1.00814e+07
9.34661e+06
8.28262e+06
7.07819e+06
5.90832e+06
4.91629e+06
4.09648e+06
3.43941e+06
2.9064e+06
2.47609e+06
2.12442e+06
1.83937e+06
1.61081e+06
1.43862e+06
1.32986e+06
1.29901e+06
1.34666e+06
1.44198e+06
1.53688e+06
1.59549e+06
1.60447e+06
1.56724e+06
1.49481e+06
1.39957e+06
1.29228e+06
1.18112e+06
1.07184e+06
967942
871584
783559
704250
633203
570126
514083
464708
420841
382886
5007.47
11378.3
15766.6
19833.4
23602.1
26859.9
29763.3
32481.1
35155
37884.8
40664.5
43399.4
45919.4
48074.8
49743
50881.7
51481.5
51597.1
51264.9
50577.3
49576
48361.7
46961.3
45479.5
43907.3
42360.3
40788.3
39327.8
37875.2
36613.1
35355.4
34374.7
33365.7
32751.5
32050.8
32004.6
32054.1
33974.1
38597.2
51305.2
82430.5
163799
367388
765521
1.34676e+06
2.01092e+06
2.64232e+06
3.25213e+06
3.8381e+06
4.53298e+06
5.26346e+06
6.56809e+06
8.48005e+06
9.97235e+06
1.17158e+07
1.39776e+07
1.47066e+07
1.44243e+07
1.33601e+07
1.21887e+07
1.11892e+07
1.04546e+07
9.84028e+06
9.06592e+06
7.99054e+06
6.81928e+06
5.70701e+06
4.76973e+06
3.99296e+06
3.36496e+06
2.85126e+06
2.43306e+06
2.08939e+06
1.80959e+06
1.5849e+06
1.41575e+06
1.30989e+06
1.28186e+06
1.3317e+06
1.42798e+06
1.5229e+06
1.58139e+06
1.5906e+06
1.55403e+06
1.48255e+06
1.38841e+06
1.28223e+06
1.17212e+06
1.06378e+06
960725
865082
777691
698904
628334
565634
509971
460871
417344
379564
4698.67
10604.8
14721.8
18566.6
22127
25229.2
28046.7
30753.4
33484.2
36319.7
39229.9
42095.4
44729
46972.1
48702.3
49881.6
50506.8
50637
50313.2
49629.3
48629.5
47413.4
46010.6
44521.7
42942.3
41380.6
39794.8
38308.7
36833.8
35530.3
34239.7
33195.5
32139.5
31431.4
30672.7
30506.6
30550.9
32444.1
37335.1
50271.7
82101.6
164584
370110
768331
1.34629e+06
2.0022e+06
2.62612e+06
3.22536e+06
3.80519e+06
4.48544e+06
5.20452e+06
6.47531e+06
8.38698e+06
9.85792e+06
1.14834e+07
1.34656e+07
1.41142e+07
1.38866e+07
1.29525e+07
1.18927e+07
1.09637e+07
1.02523e+07
9.61114e+06
8.7997e+06
7.71872e+06
6.58356e+06
5.5275e+06
4.64131e+06
3.90357e+06
3.30147e+06
2.80469e+06
2.39699e+06
2.06016e+06
1.78478e+06
1.56332e+06
1.39671e+06
1.29329e+06
1.26763e+06
1.31925e+06
1.41617e+06
1.51096e+06
1.56926e+06
1.57864e+06
1.54266e+06
1.47206e+06
1.37892e+06
1.27376e+06
1.16462e+06
1.05714e+06
954842
859843
773017
694695
624543
562178
506840
457987
414746
377130
4412.28
9896.21
13776.1
17428
20803.4
23762.7
26495.2
29181.4
31952.7
34874.4
37895.8
40875.2
43609
45930.9
47718.2
48936.9
49588.7
49736.7
49425.8
48750.8
47758.3
46546.6
45147.4
43658.2
42078
40509.3
38916.4
37413.8
35924
34590.6
33275.2
32182.7
31089
30308.5
29504.2
29253
29315.4
31242.1
36419.4
49653.1
82202.7
165944
373451
772278
1.34753e+06
1.9967e+06
2.61398e+06
3.20453e+06
3.77876e+06
4.4468e+06
5.1553e+06
6.3952e+06
8.30228e+06
9.76293e+06
1.12995e+07
1.30566e+07
1.3629e+07
1.3432e+07
1.25983e+07
1.16298e+07
1.0758e+07
1.00617e+07
9.39145e+06
8.54625e+06
7.46527e+06
6.36853e+06
5.36691e+06
4.52824e+06
3.82589e+06
3.24688e+06
2.765e+06
2.36643e+06
2.03548e+06
1.76387e+06
1.54512e+06
1.38064e+06
1.27926e+06
1.25556e+06
1.30855e+06
1.40583e+06
1.50034e+06
1.55839e+06
1.56791e+06
1.53249e+06
1.46274e+06
1.37057e+06
1.26638e+06
1.15815e+06
1.05148e+06
949899
855505
769201
691313
621541
559488
504439
455821
412828
375372
4145.76
9243.5
12913
16394.6
19604
22432.1
25082
27741.3
30540
33531.1
36646
39722.9
42543.5
44934.4
46772.9
48028.2
48706.6
48874.5
48579.5
47917.8
46937
45735
44344.3
42860.6
41284.6
39715.4
38120.8
36609
35110
33755.6
32421.6
31292.2
30168.1
29331
28491.4
28182.2
28283.3
30289.8
35764.5
49338
82599.7
167657
377067
776753
1.34961e+06
1.99317e+06
2.60446e+06
3.1878e+06
3.75679e+06
4.41445e+06
5.1129e+06
6.32384e+06
8.22215e+06
9.68144e+06
1.11516e+07
1.27263e+07
1.32279e+07
1.3045e+07
1.2288e+07
1.13938e+07
1.05677e+07
9.87981e+06
9.17937e+06
8.30433e+06
7.22857e+06
6.17196e+06
5.22272e+06
4.42814e+06
3.75785e+06
3.19951e+06
2.73079e+06
2.34023e+06
2.01436e+06
1.74598e+06
1.52953e+06
1.36684e+06
1.26715e+06
1.24501e+06
1.29899e+06
1.39635e+06
1.49044e+06
1.54819e+06
1.55786e+06
1.52301e+06
1.4541e+06
1.36288e+06
1.25966e+06
1.15232e+06
1.04646e+06
945570
851768
765968
688502
619090
557341
502564
454176
411409
374116
3897.28
8640.07
12120.1
15449
18508.2
21215.3
23785.5
26413.6
29229.2
32275.2
35467.4
38626.2
41520.2
43969.9
45852.9
47141.5
47845.4
48034.2
47757.5
47112.2
46146.8
44958.8
43580.8
42107.3
40540
38975.3
37383.6
35868.4
34364.9
32996.5
31648.8
30491.3
29342.4
28461
27594.6
27249.8
27408.4
29530.3
35307.9
49244.5
83192.1
169555
380691
781284
1.35185e+06
1.99064e+06
2.59644e+06
3.17373e+06
3.7377e+06
4.38634e+06
5.07504e+06
6.25819e+06
8.14364e+06
9.60885e+06
1.10304e+07
1.24565e+07
1.2893e+07
1.27127e+07
1.20139e+07
1.11798e+07
1.03894e+07
9.70431e+06
8.97352e+06
8.07295e+06
7.00719e+06
5.99183e+06
5.0927e+06
4.33894e+06
3.69772e+06
3.15792e+06
2.70089e+06
2.3174e+06
1.99599e+06
1.73041e+06
1.51592e+06
1.35474e+06
1.25643e+06
1.2355e+06
1.29008e+06
1.38725e+06
1.4808e+06
1.53823e+06
1.54804e+06
1.51378e+06
1.44574e+06
1.35551e+06
1.25326e+06
1.14683e+06
1.04178e+06
941586
848382
763085
686046
616993
555552
501039
452889
410336
373219
3665.41
8080.85
11388.3
14578.1
17499.8
20095
22588.7
25182.5
28006.3
31094.7
34349.3
37575.2
40529.5
43027.8
44948.2
46265.9
46993.7
47203.7
46946.7
46320.6
45373.5
44203
42841.3
41382
39827
38271.2
36686.2
35172.5
33668.2
32291.3
30933.8
29755
28585.7
27669.9
26784.3
26423.3
26656.4
28921.8
35002.7
49311.3
83902.3
171507
384114
785497
1.35374e+06
1.98835e+06
2.58899e+06
3.16113e+06
3.72019e+06
4.3608e+06
5.0399e+06
6.19583e+06
8.06448e+06
9.54154e+06
1.09285e+07
1.22332e+07
1.26103e+07
1.24248e+07
1.17692e+07
1.09833e+07
1.02202e+07
9.53333e+06
8.77289e+06
7.85129e+06
6.79979e+06
5.82627e+06
4.97482e+06
4.25882e+06
3.64401e+06
3.12091e+06
2.67432e+06
2.29714e+06
1.97967e+06
1.71656e+06
1.50377e+06
1.34387e+06
1.24667e+06
1.22659e+06
1.28143e+06
1.37815e+06
1.47103e+06
1.5281e+06
1.53809e+06
1.50447e+06
1.43734e+06
1.34812e+06
1.24689e+06
1.1414e+06
1.03719e+06
937718
845135
760357
683764
615079
553962
499718
451821
409480
372555
3448.99
7561.83
10710.1
13771.5
16566.3
19057.2
21477.7
24035.2
26860
29979.4
33283
36562
39564
42100.8
44051.3
45393.7
46143.3
46374
46137.7
45532.5
44606.3
43456.2
42113.8
40672
39132.6
37589.3
36014.1
34505.8
33004
31623
30258.8
29064
27877.9
26935.8
26038.3
25678.3
26001.9
28432.3
34812.5
49490.7
84669.4
173410
387171
789099
1.35485e+06
1.98566e+06
2.58138e+06
3.14906e+06
3.70322e+06
4.3365e+06
5.00601e+06
6.13486e+06
7.98285e+06
9.47666e+06
1.08406e+07
1.20456e+07
1.23685e+07
1.21726e+07
1.15484e+07
1.08007e+07
1.00576e+07
9.3654e+06
8.57671e+06
7.63866e+06
6.60515e+06
5.67356e+06
4.8673e+06
4.18619e+06
3.59541e+06
3.08744e+06
2.65026e+06
2.27877e+06
1.96484e+06
1.70395e+06
1.49266e+06
1.33384e+06
1.2375e+06
1.21796e+06
1.2727e+06
1.36872e+06
1.4608e+06
1.5175e+06
1.5277e+06
1.49476e+06
1.42861e+06
1.34046e+06
1.2403e+06
1.13581e+06
1.03248e+06
933769
841845
757617
681499
613205
552436
498474
450853
408728
372018
3247.02
7079.69
10079.9
13021.1
15697.6
18090.9
20441.1
22960.7
25780.3
28920.9
32261.1
35580.2
38617.9
41183.3
43156.6
44519
45287.8
45538.6
45323.4
44740.5
43837.1
42709.8
41389.1
39967.8
38446.6
36918.9
35356.3
33856.6
32359.8
30978.2
29609.8
28403.3
27203.4
26241.9
25339.8
24996.6
25425.5
28037.1
34709.1
49745.3
85444.9
175180
389732
791855
1.35484e+06
1.9821e+06
2.57301e+06
3.13674e+06
3.68594e+06
4.31236e+06
4.97216e+06
6.07377e+06
7.89739e+06
9.4119e+06
1.0762e+07
1.18852e+07
1.21587e+07
1.1949e+07
1.13468e+07
1.0629e+07
9.89961e+06
9.19938e+06
8.38439e+06
7.43443e+06
6.42206e+06
5.53211e+06
4.76852e+06
4.11967e+06
3.55082e+06
3.05663e+06
2.62801e+06
2.26172e+06
1.95102e+06
1.69215e+06
1.48222e+06
1.32434e+06
1.22864e+06
1.20933e+06
1.26364e+06
1.35871e+06
1.44987e+06
1.50618e+06
1.51662e+06
1.48442e+06
1.41931e+06
1.33231e+06
1.2333e+06
1.12985e+06
1.02747e+06
929575
838358
754721
679117
611244
550855
497198
449879
407985
371516
3058.6
6631.63
9492.98
12320.5
14885.7
17187
19469.6
21950.1
24759.3
27912.1
31277.5
34624.5
37686.5
40271
42260
43637.6
44422.8
44692.5
44498.5
43938.9
43059.7
41957.2
40660.4
39261.9
37761.3
36251.7
34703.9
33215.5
31725.8
30346.5
28975.9
27761.1
26550
25575.3
24675.9
24364.7
24912.1
27716.7
34669.6
50045
86189.6
176752
391692
793582
1.35345e+06
1.97723e+06
2.56341e+06
3.12354e+06
3.66765e+06
4.28748e+06
4.93739e+06
6.01134e+06
7.80702e+06
9.34545e+06
1.06894e+07
1.17453e+07
1.19737e+07
1.1748e+07
1.11603e+07
1.04653e+07
9.7446e+06
9.03439e+06
8.19549e+06
7.23803e+06
6.24941e+06
5.40044e+06
4.67704e+06
4.05803e+06
3.50928e+06
3.02773e+06
2.60697e+06
2.24549e+06
1.93779e+06
1.68083e+06
1.47214e+06
1.31508e+06
1.21984e+06
1.20047e+06
1.25403e+06
1.3479e+06
1.43804e+06
1.49392e+06
1.50464e+06
1.47325e+06
1.40925e+06
1.32349e+06
1.22569e+06
1.12337e+06
1.02201e+06
924991
834540
751544
676502
609088
549118
495794
448811
407165
370968
2882.9
6215.18
8945.54
11664.4
14124.2
16338.2
18555.5
20996
23790
26946.9
30327
33690.7
36766.3
39360.8
41358.5
42746.5
43545.2
43832.3
43659.2
43123.5
42269.7
41193.5
39922.4
38548.7
37070.4
35581.2
34050.1
32575.1
31094.2
29719.4
28348
27127.8
25908
24926
24037
23772.1
24450.2
27455.3
34675.4
50365.3
86872
178073
392973
794135
1.35045e+06
1.97076e+06
2.55216e+06
3.10894e+06
3.64776e+06
4.26114e+06
4.9009e+06
5.94662e+06
7.71097e+06
9.27585e+06
1.062e+07
1.16204e+07
1.18077e+07
1.15647e+07
1.09854e+07
1.03075e+07
9.59121e+06
8.86974e+06
8.00966e+06
7.04889e+06
6.0861e+06
5.27719e+06
4.59156e+06
4.00021e+06
3.46996e+06
3.00009e+06
2.58663e+06
2.22968e+06
1.92483e+06
1.66969e+06
1.46218e+06
1.30586e+06
1.2109e+06
1.1912e+06
1.24369e+06
1.33614e+06
1.42512e+06
1.48055e+06
1.49158e+06
1.46107e+06
1.39827e+06
1.31382e+06
1.21733e+06
1.11623e+06
1.01596e+06
919895
830278
747980
673554
606645
547137
494180
447568
406194
370302
2719.15
5828.12
8434.28
11048.7
13407.8
15538.5
17692.5
20092
22866.6
26020.2
29405.5
32775.3
35854.4
38450.3
40450.1
41843.7
42652.9
42955.9
42803.1
42291.5
41463.9
40415.2
39171.1
37823.8
36369.5
34902.3
33389.4
31929.5
30458.7
29090.1
27719.3
26496
25269.9
24286.2
23415.9
23211.1
24030.2
27240.2
34711
50686
87466.3
179102
393513
793404
1.34569e+06
1.9624e+06
2.53896e+06
3.09251e+06
3.62583e+06
4.23275e+06
4.86207e+06
5.87886e+06
7.60865e+06
9.20194e+06
1.05514e+07
1.15064e+07
1.16558e+07
1.1395e+07
1.08194e+07
1.01538e+07
9.43832e+06
8.70493e+06
7.82662e+06
6.86647e+06
5.93113e+06
5.16112e+06
4.51094e+06
3.94526e+06
3.43212e+06
2.97316e+06
2.56656e+06
2.21393e+06
1.91182e+06
1.65847e+06
1.45211e+06
1.29646e+06
1.20164e+06
1.18137e+06
1.23251e+06
1.3233e+06
1.41099e+06
1.46595e+06
1.47732e+06
1.44775e+06
1.38623e+06
1.30319e+06
1.20811e+06
1.10831e+06
1.00922e+06
914184
825474
743938
670188
603833
544836
492284
446083
405008
369456
2566.62
5468.44
7956.41
10469.8
12732.2
14782.9
16875.3
19233
21984.1
25127.6
28509.2
31875.4
34948.7
37537.9
39533.5
40928.1
41744.7
42061.9
41928.6
41441.1
40640
39619.8
38403.7
37084
35655
34211.1
32717.6
31274.2
29814.5
28453.4
27084
25859.6
24629.7
23650.1
22807.4
22675.9
23644.8
27060.5
34763.7
50990.3
87952
179805
393269
791307
1.33905e+06
1.95197e+06
2.52355e+06
3.07391e+06
3.60146e+06
4.20182e+06
4.82039e+06
5.80747e+06
7.49969e+06
9.12282e+06
1.04818e+07
1.13995e+07
1.15142e+07
1.12353e+07
1.06597e+07
1.00024e+07
9.28506e+06
8.53957e+06
7.64612e+06
6.69022e+06
5.78352e+06
5.0511e+06
4.43416e+06
3.89237e+06
3.39517e+06
2.94646e+06
2.54638e+06
2.19795e+06
1.89854e+06
1.64698e+06
1.44177e+06
1.28675e+06
1.19194e+06
1.17086e+06
1.22036e+06
1.30927e+06
1.39555e+06
1.45001e+06
1.46174e+06
1.43317e+06
1.37303e+06
1.29149e+06
1.19791e+06
1.09951e+06
1.0017e+06
907771
820045
739340
666329
600584
542147
490043
444295
403551
368376
2424.59
5134.28
7509.47
9924.58
12093.7
14067.3
16099.3
18414.3
21138.3
24265.5
27635.1
30988.7
34047.5
36622.5
38607.8
39999.1
40820.1
41149.5
41034.8
40571.1
39796.8
38805.6
37618.2
36327.1
34924.3
33504.7
32031.4
30605.4
29157.5
27805
26437.8
25214.1
23983.1
23013.8
22207.9
22162.3
23287.8
26907.2
34822.6
51264.6
88312.9
180160
392212
787791
1.33044e+06
1.9393e+06
2.50572e+06
3.05286e+06
3.57435e+06
4.16799e+06
4.77544e+06
5.73204e+06
7.38387e+06
9.03781e+06
1.04098e+07
1.1297e+07
1.13796e+07
1.10829e+07
1.05044e+07
9.85216e+06
9.13072e+06
8.37341e+06
7.46797e+06
6.51963e+06
5.64235e+06
4.9461e+06
4.3603e+06
3.84084e+06
3.35856e+06
2.91959e+06
2.52579e+06
2.18147e+06
1.88478e+06
1.63503e+06
1.43099e+06
1.27659e+06
1.18169e+06
1.15958e+06
1.20719e+06
1.29399e+06
1.37874e+06
1.43264e+06
1.44477e+06
1.41726e+06
1.35857e+06
1.27864e+06
1.18666e+06
1.08976e+06
993314
900585
813924
734123
661918
596839
539017
487405
442155
401774
367016
2292.4
4823.9
7091.29
9410.64
11489.5
13388.2
15361
17632.2
20325.7
23430.7
26780.8
30113.4
33149.6
35703.4
37672.8
39056.5
39879
40218.7
40121.5
39681
38933.5
37971.5
36813.4
35551.5
34175.4
32780.9
31328.5
29920.5
28484.7
27141.4
25777.1
24555.9
23327
22374.3
21615.2
21667.2
22954.1
26772.6
34878.4
51497.2
88536.4
180149
390327
782821
1.31981e+06
1.92428e+06
2.48534e+06
3.02914e+06
3.54428e+06
4.13094e+06
4.72692e+06
5.65224e+06
7.2611e+06
8.94638e+06
1.03343e+07
1.11964e+07
1.12493e+07
1.09353e+07
1.03516e+07
9.70188e+06
8.97477e+06
8.20627e+06
7.292e+06
6.35419e+06
5.50679e+06
4.8452e+06
4.2886e+06
3.79005e+06
3.32184e+06
2.89221e+06
2.50451e+06
2.1643e+06
1.87035e+06
1.62249e+06
1.41966e+06
1.26587e+06
1.17079e+06
1.14746e+06
1.19293e+06
1.27741e+06
1.36051e+06
1.41381e+06
1.42634e+06
1.39995e+06
1.3428e+06
1.26456e+06
1.17428e+06
1.07898e+06
984006
892566
807056
728233
656902
592551
535398
484326
439618
399637
365334
2169.4
4535.68
6699.9
8925.76
10916.8
12742.8
14657.2
16883.6
19543.2
22620.5
25944
29248.1
32254.2
34780.4
36728.6
38100.8
38921.8
39269.8
39188.9
38771
38050