/*--------------------------------*- C++ -*----------------------------------*\
| =========                 |                                                 |
| \\      /  F ield         | OpenFOAM: The Open Source CFD Toolbox           |
|  \\    /   O peration     | Version:  2412                                  |
|   \\  /    A nd           | Website:  www.openfoam.com                      |
|    \\/     M anipulation  |                                                 |
\*---------------------------------------------------------------------------*/
FoamFile
{
    version     2.0;
    format      ascii;
    arch        "LSB;label=32;scalar=64";
    class       volScalarField;
    location    "0.4";
    object      nut;
}
// * * * * * * * * * * * * * * * * * * * * * * * * * * * * * * * * * * * * * //

dimensions      [0 2 -1 0 0 0 0];

internalField   nonuniform List<scalar> 
13156
(
0.00128466
0.00129761
0.00115732
0.00105649
0.000999451
0.000963614
0.000937285
0.000915208
0.000895433
0.000876985
0.000859494
0.000842516
0.000826019
0.000809754
0.000793923
0.00077826
0.000763191
0.000748368
0.000734318
0.000720495
0.000707692
0.000695013
0.00068371
0.000672377
0.00066276
0.000652772
0.000645017
0.000636275
0.00063049
0.000622816
0.000618687
0.000611939
0.000609676
0.000603479
0.000603184
0.000596849
0.000598813
0.000591461
0.000596185
0.000586865
0.000595816
0.000584646
0.000603309
0.000598256
0.000630582
0.000622041
0.000645003
0.000620441
0.000639149
0.000608676
0.00063844
0.000604098
0.000711394
0.000748843
0.000642224
0.000600238
0.00059054
0.000592508
0.000596244
0.000599902
0.000603229
0.00060914
0.000622311
0.000639515
0.000660075
0.000673871
0.000682403
0.000683874
0.000682555
0.000679084
0.000675767
0.00067271
0.000670758
0.000669696
0.000670031
0.00067198
0.000676774
0.000686427
0.000703416
0.000727336
0.00075416
0.000778727
0.000798081
0.000811974
0.000820878
0.000826494
0.000829242
0.000830832
0.000830732
0.000830928
0.000829762
0.000829914
0.000828255
0.000829092
0.000826711
0.000828796
0.000824557
0.000828853
0.00082176
0.00386832
0.00387065
0.00265875
0.00203006
0.00171799
0.00155576
0.00148864
0.00148742
0.00152531
0.00157551
0.00162324
0.00165848
0.00167943
0.00168508
0.00167898
0.00166248
0.00163946
0.00160977
0.00157795
0.00154228
0.00150752
0.00147082
0.00143703
0.00140163
0.00137127
0.00133891
0.0013129
0.0012841
0.00126272
0.00123705
0.00122048
0.00120051
0.00118766
0.00117258
0.00116237
0.00115259
0.0011436
0.0011405
0.0011321
0.00113989
0.00114033
0.00118476
0.00128104
0.00143649
0.00165709
0.00172347
0.00180315
0.0017003
0.00167176
0.00154624
0.00147313
0.00142199
0.00112952
0.00139447
0.00210368
0.00223242
0.00242132
0.00232469
0.00247765
0.00239209
0.00257922
0.00260252
0.0029045
0.0030402
0.00324573
0.00320227
0.00314766
0.00297057
0.00285302
0.00270019
0.00261899
0.00252379
0.00247849
0.00242531
0.00240797
0.00240173
0.00244944
0.00256887
0.00280084
0.00310915
0.00342354
0.00366613
0.00381811
0.00388568
0.00389065
0.00385335
0.00378586
0.00370373
0.00360791
0.00351422
0.00341215
0.00332329
0.00322274
0.00315008
0.00305113
0.00300269
0.00290111
0.00288834
0.00276519
0.00159714
0.00247525
0.00214812
0.00198175
0.00203917
0.00226939
0.00253937
0.00272004
0.00279133
0.00277997
0.00273942
0.00269016
0.00264916
0.00260809
0.00256972
0.0025218
0.00247168
0.00240664
0.00234173
0.00226322
0.0021913
0.00210838
0.00204005
0.00195963
0.00190141
0.001828
0.00178328
0.00171741
0.0016873
0.00162613
0.00160453
0.00154901
0.00153623
0.00148487
0.00148108
0.00143175
0.00143708
0.00138783
0.00140595
0.00136193
0.0014234
0.00144198
0.00178392
0.00206996
0.002874
0.00296979
0.0035165
0.00306875
0.00332337
0.00270964
0.0028196
0.00248524
0.00243053
0.00152719
0.00273057
0.00333374
0.00403884
0.00408253
0.00452263
0.00442573
0.00487453
0.0049932
0.00566721
0.0059883
0.00637316
0.00626694
0.00610827
0.00573721
0.0054769
0.00516091
0.00498675
0.00478684
0.00468435
0.00456838
0.00452263
0.00451084
0.00462473
0.00492486
0.00550947
0.00629441
0.00709126
0.0077036
0.00807982
0.00824223
0.00824616
0.00814633
0.00797213
0.00776288
0.00751899
0.00727953
0.00701817
0.00678727
0.00652695
0.00632767
0.00605889
0.00591346
0.00561744
0.00555427
0.00520285
0.00192245
0.00189544
0.00241491
0.00304717
0.00384098
0.00469463
0.00539869
0.00578996
0.00587539
0.00573083
0.00548747
0.00521572
0.00497001
0.00474541
0.00454923
0.00435592
0.00417517
0.00398066
0.00379544
0.00359437
0.00340954
0.00321193
0.00304205
0.00285891
0.00271369
0.00255257
0.00243692
0.00229938
0.00221443
0.00209681
0.00203486
0.00193397
0.001891
0.00180367
0.00177804
0.00170027
0.00169098
0.00161935
0.00163357
0.00157816
0.00168597
0.00176086
0.00247123
0.00310247
0.0047446
0.00503349
0.00608941
0.00534374
0.0058374
0.00474419
0.00498641
0.00435857
0.00486558
0.0023208
0.00335533
0.00434474
0.00552363
0.00584712
0.00658711
0.00660757
0.00728468
0.00757338
0.0085527
0.00905776
0.00954946
0.00937764
0.00911546
0.00859216
0.0082172
0.00778829
0.00753898
0.00726445
0.00711011
0.00694427
0.00687275
0.00686741
0.00707661
0.00761896
0.00864698
0.00999542
0.0113211
0.0123089
0.0128916
0.0131239
0.0131026
0.0129195
0.0126226
0.0122735
0.011873
0.01148
0.0110551
0.0106759
0.0102564
0.00992203
0.00950053
0.00923634
0.00878175
0.00862844
0.00811342
0.00622712
0.0043666
0.00573068
0.00686669
0.0079738
0.00898248
0.00974344
0.0101297
0.0101565
0.00988817
0.00946964
0.00898857
0.00852338
0.00807537
0.00766172
0.00725159
0.00686311
0.00646103
0.0060798
0.00568339
0.0053178
0.00494023
0.00460893
0.00426375
0.00397846
0.00367488
0.00344146
0.0031816
0.00300167
0.00278157
0.00264738
0.00246203
0.00236465
0.00220897
0.00214441
0.00201271
0.00197867
0.00186735
0.00187917
0.00181087
0.00201908
0.00221764
0.0035804
0.00476565
0.00743982
0.00793689
0.00941128
0.00837886
0.00901965
0.00750882
0.00781851
0.00694451
0.00806487
0.00399997
0.00423665
0.00535993
0.00695576
0.00758267
0.00862181
0.00880913
0.00969735
0.0101725
0.0114006
0.0120587
0.0126089
0.0123741
0.0120232
0.0113892
0.0109353
0.0104361
0.0101373
0.00981341
0.00961953
0.00941543
0.00932755
0.00934448
0.00967791
0.0105153
0.0120477
0.0139922
0.015831
0.0171504
0.0178909
0.018153
0.0180773
0.0177912
0.0173607
0.0168657
0.016309
0.0157639
0.0151828
0.01466
0.0140931
0.0136289
0.0130738
0.0126927
0.0121062
0.0118585
0.011215
0.0159481
0.0113829
0.0124589
0.0130253
0.0137385
0.0144214
0.0149204
0.015105
0.0149807
0.0145801
0.0140252
0.0133895
0.01275
0.0121064
0.0114815
0.0108454
0.0102272
0.00959067
0.00898209
0.00836035
0.00778305
0.00719733
0.00667585
0.0061417
0.00568872
0.00521489
0.00483612
0.00442352
0.00412104
0.00376469
0.00353227
0.00322674
0.00305187
0.00279214
0.00267098
0.00245137
0.00238359
0.00220442
0.00222777
0.00214247
0.0025677
0.00300577
0.00537013
0.00725197
0.0109223
0.0115405
0.01325
0.0119341
0.0126104
0.0107628
0.0110638
0.0100202
0.0116225
0.00645586
0.00555189
0.00648354
0.00841439
0.00931761
0.0106307
0.0109913
0.0120678
0.0127206
0.0141461
0.0149243
0.0155026
0.0152144
0.0147956
0.0140886
0.0135877
0.0130492
0.0127219
0.0123659
0.0121412
0.0119075
0.0118114
0.0118654
0.0123487
0.0135231
0.0155965
0.0181362
0.0204456
0.0220397
0.0228877
0.0231423
0.0229878
0.0225837
0.0220126
0.0213692
0.0206595
0.0199662
0.019238
0.0185786
0.0178769
0.0172912
0.0166167
0.0161282
0.0154318
0.0150939
0.0143489
0.0292471
0.0215698
0.0212852
0.020639
0.0205164
0.020572
0.0205942
0.0204284
0.0200611
0.0194894
0.018799
0.0180322
0.0172473
0.0164336
0.0156139
0.0147618
0.0139161
0.0130456
0.0122063
0.0113576
0.0105648
0.00977034
0.00905541
0.00833273
0.00770845
0.00706417
0.00653463
0.00596632
0.00553277
0.00503238
0.0046899
0.00425029
0.00398417
0.00360054
0.00341003
0.00307845
0.00297205
0.00270431
0.00277104
0.00268867
0.00351499
0.00436449
0.00797133
0.0105512
0.0149912
0.015619
0.0173758
0.0157842
0.016399
0.0142878
0.0145136
0.0133603
0.015281
0.00939263
0.00735379
0.00779847
0.00995901
0.0110834
0.0126268
0.0131424
0.0143765
0.0151852
0.0167616
0.0176304
0.0182207
0.0178941
0.0174314
0.0166847
0.0161629
0.015607
0.015264
0.014885
0.0146343
0.014376
0.0142774
0.0143809
0.0150351
0.0165772
0.0192078
0.0223205
0.0250476
0.0268608
0.0277723
0.0279898
0.027739
0.0272072
0.0264926
0.0257011
0.0248429
0.0240067
0.0231401
0.0223516
0.0215265
0.0208277
0.0200465
0.0194597
0.0186712
0.0182494
0.0174246
0.0431335
0.0330454
0.0311141
0.029065
0.027913
0.0271732
0.026581
0.0259586
0.0252714
0.0244816
0.0236343
0.0227329
0.0218075
0.0208316
0.0198246
0.0187639
0.0176967
0.0165995
0.0155356
0.0144682
0.0134669
0.0124736
0.011573
0.0106734
0.0098857
0.00908334
0.00841005
0.00769823
0.00713828
0.00650445
0.00605246
0.00548611
0.00512669
0.00462089
0.00435743
0.00391095
0.00376988
0.00341713
0.00358308
0.00357234
0.005014
0.00644809
0.0113017
0.0144701
0.019399
0.0199503
0.0216065
0.0197546
0.0202369
0.017921
0.0180221
0.016795
0.0188927
0.0125534
0.00957769
0.00935286
0.0116264
0.0129008
0.0146192
0.0152577
0.0166132
0.0175502
0.019236
0.0201713
0.0207679
0.0204216
0.0199398
0.0191822
0.0186596
0.0181004
0.0177477
0.0173488
0.0170728
0.0167921
0.0166945
0.0168568
0.0176981
0.0196278
0.0228156
0.0264661
0.0295563
0.0315392
0.0324789
0.0326377
0.0322791
0.0316148
0.0307568
0.0298198
0.0288186
0.0278454
0.0268488
0.0259386
0.0250003
0.0241963
0.0233195
0.0226426
0.0217764
0.0212771
0.0203897
0.0564964
0.0447913
0.041311
0.037897
0.0356658
0.0340501
0.0327611
0.0316096
0.0305436
0.0294918
0.0284581
0.0274042
0.0263278
0.0251847
0.0239887
0.0227214
0.0214369
0.0201199
0.0188394
0.0175636
0.0163638
0.0151839
0.0141085
0.0130455
0.0121057
0.0111601
0.0103542
0.00951489
0.00883857
0.00808822
0.00753438
0.00685836
0.00641154
0.00579956
0.00546788
0.00492283
0.00476125
0.00435706
0.00470032
0.00488116
0.00711009
0.00923104
0.0151339
0.0187521
0.0239297
0.024356
0.0258116
0.0237211
0.0240243
0.0215498
0.0214927
0.0202132
0.0223746
0.0157707
0.0120994
0.0111556
0.0134307
0.0147776
0.0166103
0.0173329
0.0187714
0.0198064
0.021566
0.0225502
0.0231539
0.0228088
0.0223325
0.0215881
0.0210788
0.0205239
0.0201618
0.0197421
0.0194386
0.0191358
0.0190409
0.0192689
0.0203086
0.0226363
0.0263686
0.030515
0.0339163
0.0360269
0.0369679
0.0370532
0.0365807
0.0357828
0.0347839
0.0337056
0.0325676
0.0314638
0.0303453
0.0293206
0.0282779
0.0273762
0.0264134
0.0256537
0.0247215
0.0241509
0.0232143
0.0689561
0.0563245
0.0515276
0.0468813
0.0435961
0.0410782
0.0390478
0.0373208
0.0358329
0.0344822
0.0332318
0.0320016
0.030756
0.0294331
0.0280409
0.0265649
0.0250651
0.0235343
0.0220449
0.0205704
0.0191824
0.0178276
0.0165886
0.0153749
0.0142944
0.0132193
0.012292
0.0113401
0.0105584
0.00970807
0.00906236
0.00829511
0.00777032
0.00707298
0.00668309
0.00606622
0.00590699
0.00550807
0.00611918
0.00663493
0.00972809
0.0125412
0.0192164
0.0231685
0.0284241
0.0287075
0.0299036
0.0275996
0.0276967
0.0250992
0.0248632
0.0235422
0.0256816
0.0189434
0.0147908
0.0131816
0.0153656
0.0167105
0.018596
0.0193627
0.0208457
0.021949
0.0237518
0.0247731
0.0253898
0.0250678
0.0246204
0.0239085
0.0234213
0.0228727
0.022498
0.0220537
0.021719
0.0213927
0.0213012
0.0215996
0.0228448
0.0255725
0.0298278
0.034425
0.03809
0.0402941
0.0412165
0.0412193
0.0406306
0.0397007
0.0385652
0.0373512
0.0360832
0.0348555
0.0336225
0.0324904
0.0313514
0.0303589
0.0293181
0.0284824
0.0274938
0.0268574
0.0258823
0.0804717
0.0674373
0.0615758
0.0558584
0.0515799
0.0481662
0.0453759
0.043046
0.0411065
0.0394273
0.0379323
0.0365005
0.0350645
0.0335459
0.0319475
0.0302588
0.0285445
0.0268044
0.0251132
0.0234491
0.0218827
0.0203637
0.0189715
0.0176185
0.0164075
0.0152147
0.0141764
0.0131245
0.0122476
0.0113113
0.0105836
0.00974143
0.00914891
0.00838637
0.00795083
0.00729192
0.00716401
0.00683903
0.00780832
0.00878776
0.0127227
0.0161592
0.0233447
0.0275502
0.0327769
0.0329188
0.0338268
0.0313353
0.0312136
0.0285206
0.0280949
0.026736
0.0287912
0.0220122
0.0175472
0.0153831
0.0174094
0.0186874
0.020568
0.0213402
0.0228315
0.0239751
0.0257959
0.0268471
0.0274865
0.02721
0.0268124
0.0261477
0.0256864
0.0251422
0.0247489
0.0242747
0.0239044
0.0235529
0.0234646
0.023836
0.0252901
0.028413
0.0331637
0.0381665
0.0420532
0.0443235
0.0452133
0.0451286
0.0444244
0.0433663
0.0420998
0.0407565
0.0393654
0.0380207
0.0366806
0.0354478
0.0342196
0.0331427
0.0320311
0.0311255
0.0300869
0.0293912
0.0283863
0.0911295
0.0780549
0.0713572
0.0647282
0.0595309
0.0552462
0.0516944
0.0487485
0.046338
0.0443075
0.0425432
0.0408855
0.0392376
0.0375069
0.0356917
0.0337857
0.0318571
0.0299118
0.0280253
0.02618
0.0244442
0.0227707
0.0212348
0.0197525
0.0184206
0.01712
0.0159798
0.0148382
0.0138752
0.0128642
0.0120637
0.0111599
0.0105095
0.00969936
0.0092317
0.00855983
0.00849603
0.0083165
0.00972295
0.0112546
0.0159364
0.0198901
0.0273787
0.0317868
0.0369237
0.0369364
0.0375481
0.0348946
0.0345513
0.031784
0.0311646
0.0297671
0.0316944
0.024943
0.020292
0.0177031
0.0195305
0.0206907
0.0225149
0.023258
0.0247249
0.0258835
0.027702
0.0287797
0.0294539
0.0292447
0.0289152
0.0283079
0.0278724
0.0273277
0.0269084
0.0263986
0.0259881
0.0256094
0.0255236
0.0259694
0.027632
0.0311401
0.0363544
0.0417195
0.0457915
0.0481063
0.0489541
0.0487804
0.0479637
0.0467826
0.0453916
0.0439257
0.0424187
0.0409639
0.0395237
0.0381966
0.036886
0.0357305
0.0345545
0.0335846
0.0325016
0.0317522
0.0307243
0.101049
0.0881669
0.080825
0.0734288
0.0673889
0.0622677
0.0579634
0.0543985
0.0515057
0.0491069
0.0470522
0.0451465
0.0432665
0.0413078
0.0392658
0.0371382
0.0349957
0.0328491
0.0307736
0.0287548
0.026858
0.025039
0.0233682
0.0217654
0.0203211
0.0189214
0.0176874
0.0164647
0.0154233
0.014347
0.0134816
0.012527
0.0118278
0.010985
0.010499
0.00984143
0.00987662
0.00991106
0.0118147
0.0139388
0.019233
0.0235894
0.0312331
0.0358125
0.0408297
0.0407298
0.0410503
0.0382583
0.0376975
0.0348721
0.0340599
0.0326205
0.0343903
0.0277175
0.0229731
0.0200846
0.0216938
0.0226998
0.0244242
0.0251086
0.0265225
0.0276739
0.029474
0.0305781
0.031301
0.0311798
0.0309337
0.0303895
0.0299764
0.0294245
0.0289715
0.0284203
0.0279656
0.0275576
0.0274735
0.0279934
0.0298616
0.0337404
0.0393846
0.0450711
0.0492973
0.05164
0.0524401
0.0521782
0.0512534
0.0499554
0.0484469
0.0468657
0.04525
0.0436919
0.0421582
0.0407431
0.0393562
0.0381279
0.0368931
0.0358639
0.0347416
0.0339434
0.0328981
0.110349
0.0977928
0.0899621
0.0819233
0.0751124
0.0691912
0.0641517
0.0599718
0.0565916
0.053812
0.0514494
0.049276
0.0471456
0.0449449
0.0426675
0.0403147
0.0379591
0.0356153
0.0333569
0.031172
0.0291223
0.0271659
0.0253685
0.0236532
0.022104
0.0206128
0.0192921
0.0179958
0.0168829
0.0157487
0.0148257
0.013829
0.0130895
0.0122266
0.0117363
0.0111185
0.0112884
0.0115988
0.014037
0.0167492
0.0225091
0.0271624
0.0348621
0.039593
0.0444791
0.0442842
0.0443266
0.0414175
0.0406473
0.0377764
0.0367756
0.0352894
0.036883
0.0303272
0.0255568
0.0224776
0.0238644
0.0246933
0.0262834
0.0268849
0.0282216
0.0293471
0.0311164
0.0322491
0.0330356
0.0330215
0.0328705
0.0323918
0.0319952
0.0314284
0.0309343
0.0303366
0.0298341
0.0293952
0.0293115
0.0299044
0.0319727
0.0362044
0.042244
0.0482141
0.0525682
0.0549261
0.0556756
0.0553282
0.0543008
0.0528928
0.0512741
0.0495848
0.0478676
0.0462129
0.0445923
0.0430952
0.0416376
0.0403418
0.0390533
0.0379696
0.0368124
0.0359697
0.0349117
0.119134
0.106967
0.0987691
0.0901918
0.0826734
0.075988
0.0702348
0.0654488
0.0615803
0.0584112
0.0557263
0.0532682
0.0508718
0.0484171
0.0458971
0.0433168
0.0407497
0.0382129
0.0357777
0.0334339
0.0312389
0.0291529
0.0272364
0.0254161
0.0237691
0.0221931
0.0207923
0.0194285
0.0182503
0.0170647
0.0160903
0.0150591
0.0142871
0.0134154
0.0129346
0.0123809
0.012721
0.0133608
0.0163474
0.0196087
0.0256926
0.0305527
0.0382455
0.0431141
0.0478683
0.0475952
0.0473768
0.0443699
0.0434008
0.0404942
0.0393111
0.0377728
0.0391791
0.0327699
0.0280223
0.0248408
0.0260111
0.0266513
0.0280808
0.0285806
0.0298203
0.0309042
0.0326336
0.0337991
0.0346643
0.0347744
0.034727
0.0343127
0.0339255
0.033336
0.032794
0.0321453
0.0315923
0.0311212
0.0310368
0.0317004
0.0339611
0.0385254
0.044926
0.0511453
0.0556052
0.0579692
0.0586672
0.0582382
0.0571144
0.0556036
0.0538822
0.0520921
0.0502804
0.0485358
0.0468345
0.045261
0.0437384
0.0423799
0.0410424
0.0399086
0.0387206
0.0378375
0.0367703
0.127494
0.115728
0.107257
0.0982251
0.0900539
0.0826382
0.0761938
0.0708133
0.066459
0.0628948
0.0598758
0.0571188
0.054443
0.0517246
0.0489568
0.0461479
0.0433716
0.0406464
0.0380407
0.0355449
0.033212
0.0310037
0.0289753
0.0270567
0.0253186
0.0236639
0.0221888
0.0207633
0.0195254
0.0182939
0.017274
0.0162149
0.0154177
0.0145474
0.0140905
0.0136242
0.0141693
0.0151815
0.0187082
0.0224558
0.0287372
0.0337311
0.0413788
0.0463739
0.0510011
0.050665
0.0502054
0.0471174
0.0459615
0.0430267
0.041669
0.0400731
0.0412871
0.035047
0.0303581
0.0271426
0.0281077
0.0285559
0.0298062
0.0301905
0.0313175
0.0323471
0.0340301
0.0352339
0.0361927
0.0364416
0.0365032
0.03615
0.0357639
0.0351444
0.0345486
0.0338457
0.0332402
0.0327358
0.0326495
0.0333807
0.0358245
0.0406993
0.0474271
0.0538646
0.0584118
0.0607752
0.0614227
0.0609169
0.0597035
0.0580972
0.0562805
0.054397
0.0524978
0.0506696
0.0488936
0.0472494
0.0456667
0.0442504
0.0428683
0.0416885
0.0404733
0.0395534
0.0384803
0.135504
0.124117
0.115441
0.106022
0.0972427
0.0891277
0.0820142
0.0760526
0.071217
0.0672542
0.0638918
0.0608243
0.0578584
0.0548689
0.0518497
0.0488125
0.0458299
0.0429215
0.0401514
0.0375105
0.0350468
0.0327233
0.0305898
0.0285793
0.0267562
0.0250286
0.0234848
0.0220026
0.0207102
0.0194379
0.0183779
0.0172967
0.0164817
0.0156226
0.0152042
0.0148482
0.015631
0.0170479
0.0210873
0.0252446
0.0316155
0.0366862
0.0442664
0.0493778
0.0538856
0.0534998
0.0528193
0.0496651
0.0483347
0.0453777
0.0438538
0.042195
0.0432159
0.0371623
0.0325587
0.0293597
0.0301324
0.030392
0.0314513
0.0317105
0.0327129
0.033678
0.0353106
0.0365589
0.0376254
0.0380254
0.0381983
0.0379009
0.0375079
0.0368515
0.0361975
0.0354379
0.0347788
0.0342405
0.034151
0.0349458
0.0375618
0.0427239
0.049746
0.0563738
0.0609931
0.0633516
0.0639506
0.0633736
0.0620774
0.0603832
0.0584787
0.0565089
0.0545288
0.0526235
0.0507785
0.049069
0.047431
0.0459613
0.0445387
0.0433168
0.0420778
0.0411246
0.0400483
0.143226
0.132172
0.123341
0.113585
0.104234
0.095447
0.0876854
0.0811565
0.0758454
0.0714823
0.0677692
0.0643819
0.0611176
0.0578516
0.0545794
0.0513152
0.0481303
0.045044
0.0421161
0.0393368
0.0367493
0.0343173
0.0320852
0.029989
0.0280866
0.0262914
0.024684
0.02315
0.0218079
0.0204994
0.0194047
0.0183069
0.0174816
0.0166433
0.0162785
0.0160556
0.0171064
0.0189485
0.0234572
0.0279415
0.0343141
0.0394172
0.0469173
0.0521349
0.0565319
0.056108
0.0552267
0.0520196
0.0505272
0.0475524
0.0458711
0.0441446
0.0449745
0.039121
0.0346226
0.0314763
0.0320692
0.0321476
0.0330094
0.0331377
0.0340068
0.0348997
0.0364793
0.0377789
0.0389661
0.0395269
0.0398108
0.0395629
0.039155
0.0384564
0.0377406
0.036923
0.0362097
0.0356372
0.0355431
0.0363971
0.0391731
0.0445981
0.0518833
0.0586763
0.0633553
0.0657061
0.0662598
0.0656174
0.0642456
0.0624709
0.060486
0.0584369
0.0563826
0.0544062
0.0524978
0.050728
0.0490395
0.0475208
0.0460615
0.0448011
0.0435414
0.042558
0.0414809
0.150711
0.139931
0.130977
0.120922
0.111027
0.10159
0.0931997
0.0861171
0.0803371
0.0755732
0.0715041
0.0677897
0.0642211
0.0606753
0.0571498
0.0536613
0.0502786
0.0470202
0.0439409
0.0410301
0.0383255
0.0357914
0.033467
0.0312908
0.0293147
0.027457
0.025791
0.0242096
0.0228224
0.0214822
0.0203579
0.0192491
0.018421
0.0176133
0.017318
0.0172508
0.0185965
0.0208726
0.0257953
0.0305241
0.0368281
0.04193
0.0493428
0.0546563
0.0589512
0.0584994
0.0574369
0.0541883
0.0525461
0.0495572
0.0477274
0.0459287
0.0465721
0.0409291
0.0365509
0.0334818
0.0339071
0.0338137
0.0344759
0.0344702
0.0352002
0.036015
0.0375406
0.0388983
0.040218
0.0409465
0.0413392
0.0411338
0.040704
0.0399585
0.0391789
0.0383025
0.0375352
0.0369285
0.0368283
0.0377364
0.0406593
0.0463224
0.0538405
0.0607765
0.0655049
0.067847
0.0683592
0.0676575
0.0662174
0.0643695
0.0623114
0.0601898
0.0580677
0.0560261
0.0540598
0.0522347
0.0505001
0.0489364
0.047444
0.0461486
0.0448711
0.0438606
0.0427848
0.157999
0.147426
0.13837
0.128041
0.117621
0.107554
0.0985518
0.0909285
0.0846863
0.0795221
0.0750931
0.0710464
0.0671695
0.0633424
0.0595651
0.0558557
0.0522804
0.0488561
0.0456321
0.0425964
0.0397814
0.0371516
0.0347409
0.0324902
0.0304458
0.0285303
0.0268103
0.0251859
0.0237582
0.0223906
0.0212418
0.0201277
0.0193047
0.0185377
0.0183286
0.0184393
0.0201027
0.0228101
0.0280833
0.0329776
0.039159
0.0442333
0.0515546
0.0569534
0.0611544
0.0606839
0.0594589
0.0561792
0.0543989
0.0513987
0.0494291
0.0475545
0.0480172
0.0425931
0.0383464
0.0353704
0.035639
0.0353839
0.0358475
0.0357075
0.0362947
0.0370271
0.0384988
0.0399212
0.0413833
0.0422842
0.0427817
0.0426117
0.0421539
0.0413583
0.0405137
0.0395788
0.0387581
0.0381172
0.0380095
0.0389661
0.0420218
0.047898
0.0556204
0.0626794
0.067449
0.0697823
0.0702573
0.0695028
0.0680014
0.0660877
0.0639634
0.0617761
0.0595923
0.0574913
0.0554722
0.0535966
0.0518201
0.0502155
0.0486933
0.0473662
0.0460737
0.0450388
0.0439663
0.165123
0.154689
0.14554
0.134952
0.124021
0.113338
0.103738
0.0955864
0.0888887
0.0833252
0.0785338
0.0741515
0.069964
0.065856
0.0618293
0.0579037
0.0541415
0.0505577
0.0471957
0.0440418
0.0411228
0.0384034
0.0359122
0.0335924
0.0314847
0.0295161
0.0277468
0.0260835
0.0246197
0.023229
0.0220611
0.0209473
0.0201378
0.0194225
0.0193169
0.0196273
0.0216261
0.0247513
0.0303065
0.0352939
0.0413114
0.0463378
0.0535643
0.0590376
0.0631527
0.0626717
0.0613018
0.0580002
0.0560928
0.0530838
0.0509829
0.0490289
0.0493182
0.0441193
0.0400131
0.0371393
0.0372606
0.0368541
0.0371226
0.0368494
0.0372922
0.0379393
0.0393579
0.0408512
0.042464
0.0435396
0.0441369
0.0439953
0.0435046
0.0426568
0.041747
0.0407544
0.0398813
0.0392067
0.0390898
0.0400888
0.0432626
0.0493268
0.0572263
0.0643904
0.0691946
0.07152
0.0719626
0.0711618
0.0696063
0.0676338
0.0654502
0.0632037
0.0609642
0.0588093
0.0567424
0.0548209
0.0530067
0.0513649
0.0498163
0.0484606
0.0471556
0.046099
0.0450316
0.172109
0.161745
0.152505
0.141665
0.130231
0.118942
0.108758
0.100088
0.092941
0.0869799
0.0818247
0.0771048
0.0726064
0.068219
0.0639468
0.0598101
0.0558673
0.0521306
0.0486374
0.0453719
0.0423553
0.0395522
0.0369862
0.0346025
0.0324364
0.0304192
0.0286049
0.026907
0.0254115
0.0240021
0.0228204
0.0217131
0.0209261
0.0202741
0.0202902
0.0208211
0.0231677
0.0266871
0.0324538
0.0374692
0.0432922
0.0482542
0.0553828
0.0609199
0.0649562
0.0644724
0.0629744
0.0596593
0.0576352
0.0546193
0.0523954
0.0503593
0.050483
0.0455141
0.0415554
0.0387883
0.0387705
0.0382222
0.0383008
0.0378971
0.0381951
0.0387552
0.0401221
0.0416917
0.0434616
0.0447121
0.0454033
0.045284
0.0447565
0.0438555
0.0428812
0.0418323
0.0409081
0.0402
0.0400723
0.0411074
0.0443841
0.0506112
0.058662
0.0659151
0.0707488
0.0730679
0.0734832
0.0726425
0.0710398
0.0690157
0.0667794
0.06448
0.0621907
0.0599873
0.0578775
0.0559145
0.0540664
0.0523911
0.0508192
0.0494379
0.0481228
0.047047
0.0459863
0.178975
0.168621
0.159283
0.148192
0.136256
0.124369
0.113611
0.104432
0.096841
0.0904841
0.0849646
0.0799068
0.0750985
0.0704348
0.0659218
0.0615799
0.0574631
0.0535804
0.0499628
0.0465922
0.0434843
0.0406033
0.0379679
0.0355253
0.0333056
0.0312442
0.0293893
0.0276608
0.026138
0.0247145
0.0235247
0.0224305
0.0216757
0.0210993
0.0212558
0.0220272
0.0247274
0.0286086
0.0345167
0.0395031
0.0451094
0.0499932
0.0570204
0.0626104
0.0665746
0.0660952
0.0644851
0.061164
0.059033
0.0560119
0.0536729
0.0515523
0.051519
0.0467839
0.0429779
0.0403185
0.0401685
0.0394876
0.0393827
0.0388518
0.0390063
0.0394783
0.0407951
0.0424458
0.0443773
0.0458012
0.0465801
0.0464774
0.0459106
0.0449563
0.0439189
0.0428154
0.0418417
0.0411008
0.0409605
0.0420248
0.0453888
0.051754
0.0599316
0.0672593
0.0721184
0.0744335
0.0748267
0.0739527
0.0723098
0.0702407
0.0679583
0.0656121
0.0632786
0.0610319
0.0588838
0.0568836
0.0550054
0.0533
0.0517078
0.0503037
0.0489808
0.0478883
0.0468358
0.185737
0.175335
0.165892
0.154545
0.142104
0.129623
0.118298
0.108617
0.100588
0.0938367
0.0879535
0.0825585
0.0774426
0.0725067
0.0677584
0.0632179
0.0589341
0.0549123
0.0511771
0.0477079
0.0445148
0.0415615
0.038862
0.0363654
0.0340967
0.0319954
0.0301042
0.0283492
0.0268037
0.0253707
0.024179
0.0231048
0.0223928
0.0219054
0.0222217
0.0232514
0.0263047
0.0305076
0.0364892
0.0413977
0.0467713
0.0515648
0.0584864
0.0641187
0.0680171
0.0675489
0.0658415
0.0625216
0.0602929
0.0572681
0.0548216
0.0526146
0.0524335
0.0479347
0.0442857
0.0417326
0.0414563
0.0406512
0.0403696
0.0397157
0.0397285
0.0401123
0.0413809
0.0431163
0.0452121
0.0468063
0.0476666
0.047576
0.0469684
0.0459614
0.044863
0.043707
0.0426856
0.0419123
0.0417575
0.0428442
0.0462797
0.0527584
0.0610394
0.0684286
0.0733101
0.0756238
0.0760004
0.0750996
0.0734231
0.0713158
0.0689936
0.0666065
0.0642343
0.0619492
0.0597674
0.0577342
0.0558295
0.0540973
0.0524876
0.0510635
0.0497349
0.0486279
0.0475848
0.192404
0.181908
0.172347
0.160732
0.147782
0.134708
0.122821
0.112645
0.10418
0.0970375
0.0907916
0.0850613
0.0796413
0.0744381
0.0694609
0.0647287
0.0602851
0.0561313
0.0522854
0.0487239
0.0454515
0.0424316
0.0396732
0.0371272
0.0348142
0.0326771
0.0307539
0.0289765
0.027413
0.0259754
0.0247882
0.0237418
0.0230841
0.0227001
0.0231956
0.0244993
0.027898
0.0323765
0.0383677
0.0431565
0.0482862
0.0529786
0.0597894
0.0654536
0.069292
0.0688416
0.0670512
0.0637388
0.061421
0.0583939
0.0558472
0.0535524
0.053233
0.0489724
0.0454836
0.0430339
0.0426363
0.0417145
0.0412635
0.0404913
0.040365
0.0406609
0.0418832
0.0437058
0.0459667
0.0477272
0.0486628
0.0485805
0.0479315
0.0468735
0.0457164
0.0445103
0.0434431
0.042638
0.0424669
0.0435687
0.0470598
0.0536279
0.0619901
0.0694288
0.0743303
0.0766457
0.0770111
0.07609
0.0743866
0.0722475
0.0698917
0.0674695
0.0650637
0.0627452
0.060534
0.0584716
0.056544
0.0547883
0.0531637
0.0517222
0.0503899
0.0492705
0.0482381
0.198984
0.188354
0.178662
0.166767
0.153297
0.13963
0.127183
0.116516
0.10762
0.100087
0.0934799
0.0874171
0.0816973
0.0762328
0.0710335
0.066117
0.0615209
0.0572423
0.0532924
0.0496449
0.0462992
0.0432178
0.0404056
0.0378149
0.0354619
0.0332933
0.0313424
0.0295468
0.0279701
0.0265332
0.0253576
0.0243475
0.0237564
0.0234911
0.0241854
0.0257756
0.029505
0.0342084
0.04015
0.0447842
0.0496623
0.0542434
0.0609376
0.0666234
0.0704072
0.0699809
0.068121
0.0648223
0.0624234
0.0593953
0.0567553
0.0543717
0.0539241
0.0499026
0.0465762
0.044226
0.0437117
0.0426798
0.042067
0.0411812
0.040919
0.0411277
0.0423055
0.0442169
0.0466421
0.0485636
0.0495689
0.0494922
0.0488022
0.0476951
0.0464822
0.0452285
0.0441175
0.0432812
0.0430917
0.0442015
0.0477321
0.0543661
0.0627881
0.0702655
0.0751852
0.0775056
0.0778655
0.0769303
0.0752065
0.073042
0.0706585
0.0682067
0.0657725
0.0634253
0.0611888
0.0591011
0.0571538
0.0553776
0.0537408
0.0522842
0.0509503
0.0498205
0.0488
0.205481
0.194688
0.184849
0.172659
0.158659
0.144392
0.131388
0.120232
0.110907
0.102985
0.0960197
0.0896279
0.0836136
0.0778944
0.0724803
0.0673871
0.0626461
0.0582498
0.0542026
0.0504753
0.047062
0.0439245
0.0410633
0.0384325
0.0360439
0.0338479
0.0318735
0.0300642
0.0284794
0.0270489
0.0258924
0.0249278
0.0244171
0.0242866
0.0251987
0.0270843
0.0311227
0.0359972
0.0418354
0.0462862
0.0509076
0.0553673
0.0619383
0.0676355
0.0713698
0.0709741
0.0690573
0.065778
0.0633057
0.0602777
0.0575513
0.0550782
0.0545128
0.0507307
0.0475684
0.045313
0.0446858
0.0435503
0.0427831
0.0417884
0.0413939
0.0415164
0.0426514
0.0446518
0.047239
0.0493158
0.0503855
0.0503125
0.0495827
0.0484291
0.0471634
0.0458649
0.044712
0.0438451
0.0436354
0.0447457
0.0483002
0.0549767
0.0634382
0.0709442
0.0758809
0.0782098
0.0785696
0.0776266
0.0758888
0.0737049
0.0712995
0.0688236
0.066366
0.0639944
0.0617367
0.0596275
0.0576637
0.0558699
0.0542233
0.0527541
0.0514203
0.0502819
0.0492745
0.211894
0.200919
0.190921
0.178417
0.163874
0.149003
0.13544
0.123797
0.114043
0.105735
0.0984129
0.0916965
0.0853935
0.0794266
0.0738056
0.0685434
0.0636651
0.0591582
0.0550204
0.0512194
0.0477441
0.0445556
0.0416503
0.0389837
0.0365639
0.0343447
0.0323513
0.0305326
0.0289451
0.027527
0.026398
0.0254892
0.0250737
0.025095
0.0262431
0.0284284
0.0327475
0.0377378
0.0434245
0.0476681
0.0520294
0.0563582
0.0627985
0.0684973
0.0721867
0.0718276
0.0698662
0.0666117
0.0640731
0.0610465
0.05824
0.0556772
0.0550051
0.0514619
0.0484647
0.0462991
0.0455627
0.0443289
0.0434148
0.0423162
0.0417932
0.0418308
0.0429243
0.045013
0.0477583
0.0499839
0.0511135
0.0510432
0.0502756
0.0490784
0.0477632
0.0464225
0.04523
0.044333
0.0441009
0.0452047
0.0487672
0.0554638
0.0639453
0.0714704
0.0764231
0.0787642
0.0791294
0.0781848
0.0764391
0.0742419
0.0718202
0.0693253
0.066849
0.0644575
0.0621825
0.0600551
0.0580779
0.0562694
0.0546153
0.0531356
0.0518036
0.0506586
0.0496653
0.218223
0.207057
0.196887
0.184053
0.168951
0.153469
0.139344
0.127212
0.117031
0.108337
0.100662
0.0936255
0.0870403
0.0808333
0.0750133
0.0695903
0.0645823
0.0599719
0.0557501
0.0518813
0.0483494
0.045115
0.0421702
0.0394722
0.0370256
0.0347872
0.0327793
0.0309561
0.0293716
0.0279727
0.0268803
0.0260386
0.0257341
0.0259249
0.0273255
0.02981
0.0343754
0.0394257
0.0449187
0.0489359
0.0530349
0.057223
0.0635249
0.0692155
0.0728644
0.0725479
0.0705533
0.0673289
0.0647306
0.0617067
0.0588262
0.056174
0.0554067
0.0521014
0.0492693
0.0471885
0.0463462
0.0450194
0.0439654
0.0427676
0.0421202
0.0420745
0.0431275
0.0453026
0.048201
0.0505688
0.0517543
0.0516865
0.0508834
0.0496459
0.0482846
0.0469046
0.0456744
0.044748
0.0444915
0.0455815
0.0491368
0.0558315
0.0643141
0.0718493
0.0768174
0.0791743
0.0795505
0.0786102
0.0768627
0.0746579
0.0722254
0.0697167
0.0672262
0.064819
0.0625304
0.0603883
0.0584006
0.05658
0.0549206
0.0534326
0.052104
0.0509539
0.0499758
0.224465
0.213108
0.202758
0.189574
0.173899
0.157796
0.143104
0.130483
0.119873
0.110795
0.102769
0.0954182
0.0885577