/*--------------------------------*- C++ -*----------------------------------*\
| =========                 |                                                 |
| \\      /  F ield         | OpenFOAM: The Open Source CFD Toolbox           |
|  \\    /   O peration     | Version:  2412                                  |
|   \\  /    A nd           | Website:  www.openfoam.com                      |
|    \\/     M anipulation  |                                                 |
\*---------------------------------------------------------------------------*/
FoamFile
{
    version     2.0;
    format      ascii;
    arch        "LSB;label=32;scalar=64";
    class       volScalarField;
    location    "0.3";
    object      k;
}
// * * * * * * * * * * * * * * * * * * * * * * * * * * * * * * * * * * * * * //

dimensions      [0 2 -2 0 0 0 0];

internalField   nonuniform List<scalar> 
13156
(
249.376
262.058
215.019
185.036
170.955
163.486
158.615
154.872
151.988
149.877
148.464
147.47
146.756
146.136
145.67
145.269
145.149
145.181
145.645
146.318
147.605
149.111
151.492
154.043
157.77
161.536
166.931
172.051
179.347
186.034
195.675
204.059
216.756
226.807
243.642
255.509
279.221
294.993
332.609
359.527
430.628
491.729
615.758
687.217
806.691
837.459
949.63
971.768
1143.44
1190.42
1480.14
1568.67
2536.03
2678.4
1965.77
1605.67
1413.57
1283.14
1167.46
1095.41
1079.68
1085.37
1081.73
1037.34
972.848
898.096
826.242
759.965
701.29
648.842
603.028
563.051
530.301
505.786
493.626
496.917
515.771
540.371
560.706
569.776
567.407
555.448
537.011
514.836
490.745
466.584
442.753
420.544
399.301
380.361
362.227
346.647
331.114
318.529
304.62
294.658
280.899
273.696
258.982
853.851
640.093
322.861
191.105
135.973
112.938
105.41
106.123
110.676
116.291
121.072
124.453
126.351
127.289
127.485
127.459
127.122
126.98
126.729
126.96
127.134
128.065
128.821
130.684
132.193
135.255
137.635
142.22
145.953
152.64
157.847
167.219
173.89
186.998
195.468
214.703
227.75
260.19
287.684
348.884
423.998
548.869
683.493
811.497
899.501
968.774
1005.84
1078.8
1135.58
1258.54
1348.2
1540.5
1678.22
2509.9
2832.65
2360.77
1947.91
1693.06
1557.07
1486.19
1534.09
1557.92
1542.99
1426.99
1295.34
1158.35
1044.45
946.312
864.249
792.057
730.285
676.956
636.184
609.137
607.2
633.598
686.449
743.798
788.041
808.074
805.466
784.239
751.105
710.85
667.639
624.24
582.246
543.061
506.779
474.247
444.58
418.596
395.113
374.69
356.572
340.264
326.86
313.592
303.013
194.983
261.82
170.345
120.349
96.3894
86.4125
83.4846
84.048
86.4349
89.6828
93.0755
96.0476
98.288
99.7019
100.386
100.501
100.238
99.7464
99.2122
98.7294
98.4454
98.406
98.7196
99.3604
100.492
101.991
104.106
106.579
109.673
113.376
117.607
122.919
128.504
135.994
143.68
155.533
169.824
194.311
229.15
286.539
389.041
534.81
724.165
869.932
992.969
1038.47
1095.4
1123.89
1209.46
1267.88
1378.11
1523.08
1646.57
1808.49
2559.93
2421.58
2132.54
1847.22
1739.04
1667.38
1758.34
1794.32
1769.01
1622.63
1462.64
1296.75
1168.43
1051.87
960.852
875.214
806.021
743.587
698.713
671.091
675.698
717.827
792.702
871.623
931.329
959.095
957.255
931.626
890.622
840.471
786.391
731.872
679.024
629.492
583.617
542.231
504.593
471.384
441.208
415.169
390.901
370.747
350.8
335.671
317.867
76.2556
104.776
100.503
96.7307
94.4385
93.2506
92.689
92.639
93.1526
94.0814
95.2253
96.2476
96.9062
97.002
96.5291
95.5205
94.138
92.4778
90.7358
88.9938
87.4123
86.0486
85.0044
84.3139
84.0349
84.2185
84.8471
86.0432
87.5497
89.8753
92.312
96.0367
99.5541
105.252
110.747
121.045
134.455
159.19
197.476
260.886
382.528
554.896
779.11
948.542
1088.09
1134.53
1195.23
1218.75
1312.26
1361.93
1474.19
1616.11
1775.32
1720.11
2379.39
2457.11
2261.42
1988.24
1885.69
1822.78
1927.38
1969.01
1930.03
1766.09
1589.17
1410.44
1271.41
1145.16
1044.86
950.671
873.632
804.919
755.586
727.274
736.441
789.824
879.78
972.884
1042.32
1074.66
1072.79
1043.77
997.074
939.91
878.161
815.815
755.314
698.484
645.809
598.137
554.787
516.391
481.542
451.287
423.231
399.674
376.577
358.696
338.641
65.0034
82.7098
96.9983
104.615
107.539
107.747
106.849
105.834
105.212
104.971
104.947
104.804
104.314
103.276
101.686
99.5561
97.0526
94.2521
91.3589
88.4341
85.6535
83.0503
80.7499
78.7679
77.1705
76.0134
75.2503
75.0697
75.1478
76.0506
76.9967
79.1967
81.1478
85.2972
89.4954
98.9327
113.116
139.244
182.492
253.194
392.355
588.154
837.475
1026.35
1176.16
1226.92
1288.9
1315.55
1413.53
1466.36
1579.04
1726.82
1918.14
1814.64
2310.54
2486.2
2363.74
2112.4
2012.14
1956.96
2065.49
2107.23
2055.08
1879.74
1692.87
1507.57
1361.02
1227.86
1119.59
1018.43
934.512
860.568
807.382
778.483
791.509
854.01
955.62
1059.24
1135.58
1170.9
1168.56
1136.57
1085.19
1022.36
954.464
885.869
819.268
756.632
698.548
645.883
597.998
555.484
516.954
483.353
452.408
426.119
400.761
380.639
359.146
66.8157
89.5926
106.454
114.992
118.94
119.657
118.753
117.44
116.407
115.713
115.184
114.46
113.302
111.521
109.135
106.171
102.815
99.1456
95.3777
91.5619
87.8854
84.356
81.1261
78.1661
75.59
73.3799
71.5716
70.2404
69.2276
68.8728
68.6841
69.501
70.3405
73.1167
76.8445
85.9575
102.369
130.476
179.191
257.207
411.305
626.719
895.257
1099.81
1256.87
1311.93
1374.7
1406.3
1507.91
1566.43
1679.5
1834.68
2051.36
1950.85
2320.28
2522.93
2452.22
2223.13
2124.33
2074.73
2182.03
2220.17
2156.15
1973.83
1781.73
1593.17
1441.11
1302.34
1187.13
1079.87
989.882
911.345
854.842
825.527
842.091
912.488
1023.74
1135.73
1217.33
1254.71
1251.64
1216.93
1161.47
1093.78
1020.64
946.729
874.954
807.401
744.741
687.858
636.148
590.164
548.547
512.143
478.793
450.246
423.051
401.112
378.454
71.7051
98.4037
115.135
123.44
127.654
128.734
128.112
126.952
125.963
125.22
124.533
123.526
121.962
119.675
116.708
113.119
109.111
104.78
100.346
95.8614
91.518
87.3114
83.4079
79.7483
76.4785
73.5218
70.9832
68.8262
67.0492
65.7658
64.7865
64.5619
64.6981
66.5298
70.495
80.0709
99.374
129.789
183.321
268.196
434.771
666.923
951.098
1168.63
1331.24
1390.03
1453.48
1490.32
1595.2
1659.67
1773.14
1935.33
2172.58
2089.95
2374.6
2571.13
2533.36
2323.54
2225.46
2179.26
2281.81
2313.91
2239.83
2054.14
1860.17
1670.3
1513.99
1370.35
1248.95
1136.16
1040.73
958.057
898.652
869.082
888.988
966.455
1086
1204.93
1290.72
1329.54
1325.61
1288.38
1229.25
1157.25
1079.49
1000.91
924.597
852.733
786.069
725.498
670.451
621.442
577.144
538.312
502.879
472.406
443.646
420.188
396.53
75.6795
105.7
122.07
130.071
134.354
135.719
135.484
134.705
134.019
133.464
132.819
131.7
129.879
127.223
123.809
119.725
115.196
110.337
105.372
100.361
95.4957
90.7697
86.3534
82.1745
78.3933
74.9006
71.841
69.1071
66.7983
64.8769
63.368
62.4528
62.2136
63.6082
68.3447
79.0976
101.238
134.006
191.508
282.761
460.129
707.038
1004.54
1233.15
1400.16
1462.14
1526.24
1568.22
1676.11
1746.17
1859.94
2028.34
2282.72
2222.17
2451.46
2629.37
2610.3
2415.75
2317.47
2272.58
2367.69
2392.31
2310.31
2124.31
1930.88
1740.89
1581.08
1433.06
1306.02
1188.14
1087.76
1001.31
939.324
909.628
932.717
1016.62
1143.45
1268.28
1357.48
1397.35
1392.48
1352.89
1290.43
1214.54
1132.64
1049.88
969.509
893.793
823.555
759.694
701.676
649.979
603.304
562.327
525.056
492.901
462.779
438.023
413.496
78.9443
111.544
127.551
135.303
139.594
141.186
141.358
141.059
140.816
140.59
140.108
138.981
136.997
134.064
130.291
125.802
120.843
115.546
110.142
104.7
99.4076
94.2636
89.4366
84.8513
80.6716
76.7744
73.3225
70.1714
67.477
65.1158
63.2488
61.9061
61.525
62.9086
68.7511
81.0956
105.725
140.753
201.639
298.902
485.977
746.221
1055.42
1293.68
1464.3
1529.02
1593.75
1640.68
1751.31
1826.44
1940.33
2114.02
2382.95
2345.51
2538.57
2694.72
2684.37
2501.16
2401.57
2356.03
2441.58
2458.06
2370.45
2186.74
1995.56
1806.14
1643.32
1491.24
1359.01
1236.41
1131.47
1041.53
977.212
947.486
973.6
1063.39
1196.68
1326.6
1418.64
1459.28
1453.44
1411.65
1346.16
1266.74
1181.09
1094.55
1010.51
931.31
857.845
791.017
730.326
676.21
627.405
584.51
545.601
511.959
480.639
454.756
429.474
81.5588
116.154
131.873
139.451
143.734
145.512
146.08
146.299
146.567
146.748
146.503
145.434
143.35
140.203
136.137
131.31
125.988
120.323
114.548
108.742
103.092
97.6009
92.4335
87.5172
83.0133
78.7959
75.0337
71.5658
68.5778
65.9033
63.788
62.195
61.8348
63.5154
70.6417
84.7232
111.486
148.647
212.561
315.542
511.552
784.016
1103.66
1350.47
1524.1
1591.23
1656.59
1708.23
1821.31
1900.98
2014.76
2192.8
2474.19
2459.97
2629.27
2764.31
2755.98
2580.61
2478.54
2430.5
2504.83
2513.15
2422.35
2243.07
2055.3
1866.81
1701.29
1545.41
1408.36
1281.33
1172.17
1079
1012.55
982.859
1011.83
1107.01
1246.06
1380.41
1474.85
1516.05
1509.25
1465.43
1397.16
1314.54
1225.48
1135.5
1048.12
965.759
889.364
819.843
756.73
700.427
649.702
605.08
564.705
529.738
497.364
470.494
444.562
83.5817
119.727
135.255
142.734
147.009
148.948
149.894
150.635
151.443
152.067
152.098
151.128
148.989
145.675
141.366
136.255
130.625
124.646
118.555
112.441
106.486
100.701
95.2458
90.0532
85.2785
80.7994
76.7828
73.0652
69.8449
66.9396
64.6499
62.9268
62.7063
64.8975
73.3827
89.1902
117.799
156.963
223.669
332.1
536.406
820.144
1149.19
1403.68
1579.84
1649.15
1715.12
1771.25
1886.47
1970.15
2083.57
2265.04
2557.1
2565.98
2719.93
2835.84
2825.11
2654.63
2548.87
2496.64
2558.5
2559.16
2467.54
2294.42
2110.8
1923.4
1755.38
1595.9
1454.34
1323.19
1210.1
1113.91
1045.5
1015.88
1047.51
1147.61
1291.79
1430.01
1526.48
1568.11
1560.4
1514.72
1443.92
1358.38
1266.22
1173.11
1082.69
997.453
918.392
846.421
781.111
722.823
670.365
624.186
582.498
546.347
513.048
485.311
458.828
85.0874
122.427
137.855
145.301
149.578
151.663
152.969
154.224
155.573
156.651
156.975
156.127
153.961
150.517
146.007
140.657
134.765
128.519
122.157
115.78
109.565
103.531
97.8301
92.4042
87.3997
82.7028
78.4737
74.554
71.1456
68.0674
65.6572
63.8908
63.9033
66.7534
76.6092
94.0584
124.287
165.325
234.632
348.238
560.25
854.404
1191.94
1453.38
1631.7
1703.04
1769.6
1830.01
1947.02
2034.23
2147.02
2330.98
2632.12
2663.98
2808.48
2907.57
2891.53
2723.51
2612.88
2554.92
2603.47
2597.35
2507.15
2341.53
2162.47
1976.2
1805.81
1642.95
1497.17
1362.15
1245.38
1146.38
1076.16
1046.61
1080.71
1185.25
1333.99
1475.58
1573.8
1615.76
1607.21
1559.84
1486.75
1398.58
1303.6
1207.65
1114.47
1026.6
945.115
870.917
803.614
743.527
689.506
641.924
599.064
561.855
527.752
499.252
472.311
86.149
124.383
139.789
147.262
151.553
153.778
155.429
157.18
159.059
160.584
161.201
160.485
158.313
154.766
150.089
144.539
138.424
131.953
125.362
118.761
112.324
106.078
100.167
94.5437
89.3438
84.4641
80.0557
75.9709
72.409
69.2012
66.7138
64.9721
65.2954
68.9075
80.1062
99.0829
130.745
173.53
245.256
363.743
582.877
886.635
1231.84
1499.6
1679.8
1753.05
1820.19
1884.66
2003.12
2093.39
2205.27
2390.83
2699.55
2754.32
2893.67
2978.17
2954.94
2787.4
2670.79
2605.72
2640.46
2628.73
2542.02
2384.88
2210.57
2025.38
1852.74
1686.68
1536.95
1398.32
1278.13
1176.51
1104.58
1075.09
1111.42
1219.96
1372.71
1517.24
1616.96
1659.19
1649.88
1601
1525.86
1435.31
1337.79
1239.27
1143.59
1053.34
969.658
893.439
824.335
762.623
707.197
658.355
614.452
576.305
541.507
512.341
485.033
86.8314
125.701
141.151
148.698
153.016
155.381
157.363
159.591
161.979
163.933
164.833
164.249
162.082
158.455
153.64
147.922
141.622
134.962
128.177
121.389
114.764
108.339
102.25
96.46
91.0939
86.0611
81.5017
77.2819
73.5954
70.2934
67.7658
66.1061
66.8074
71.2518
83.7401
104.121
137.054
181.456
255.414
378.466
604.126
916.698
1268.79
1542.33
1724.17
1799.3
1867
1935.3
2054.85
2147.75
2258.43
2444.72
2759.61
2837.28
2974.73
3046.66
3015
2846.33
2722.72
2649.37
2670.14
2654.16
2572.77
2424.79
2255.22
2071.05
1896.25
1727.19
1573.77
1431.78
1308.39
1204.32
1130.79
1101.34
1139.66
1251.73
1407.97
1555.04
1656.05
1698.52
1688.55
1638.35
1561.39
1468.73
1368.93
1268.09
1170.16
1077.76
992.098
914.056
843.333
780.16
723.479
673.512
628.692
589.716
554.325
524.586
496.998
87.1917
126.473
142.012
149.672
154.031
156.536
158.84
161.525
164.395
166.752
167.918
167.459
165.305
161.613
156.685
150.83
144.377
137.56
130.615
123.671
116.889
110.316
104.078
98.1482
92.6422
87.4823
82.7965
78.4678
74.682
71.3162
68.7825
67.2559
68.394
73.7149
87.4226
109.081
143.139
189.023
265.017
392.293
623.865
944.472
1302.71
1581.57
1764.85
1841.83
1910.08
1982
2102.28
2197.37
2306.58
2492.73
2812.43
2913.01
3051.12
3112.28
3071.42
2900.3
2768.78
2686.14
2693.08
2674.33
2599.82
2461.4
2296.48
2113.23
1936.38
1764.52
1607.68
1462.57
1336.2
1229.85
1154.81
1125.34
1165.39
1280.54
1439.77
1589.01
1691.13
1733.82
1723.3
1671.96
1593.43
1498.9
1397.09
1294.19
1194.24
1099.92
1012.48
932.81
860.642
796.165
738.375
687.411
641.791
602.091
566.206
535.98
508.196
87.2792
126.774
142.436
150.238
154.647
157.295
159.912
163.034
166.356
169.087
170.496
170.152
168.01
164.268
159.249
153.282
146.705
139.763
132.687
125.618
118.707
112.012
105.651
99.6073
93.9852
88.7216
83.9318
79.5176
75.6555
72.2536
69.7459
68.3996
70.0257
76.246
91.0913
113.904
148.947
196.176
273.996
405.135
641.984
969.847
1333.52
1617.25
1801.83
1880.69
1949.46
2024.77
2145.41
2242.3
2349.78
2534.94
2858.13
2981.66
3122.47
3174.44
3123.88
2949.27
2809.04
2716.32
2709.8
2689.77
2623.45
2494.78
2334.33
2151.94
1973.15
1798.7
1638.69
1490.71
1361.58
1253.1
1176.65
1147.1
1188.6
1306.35
1468.1
1619.15
1722.22
1765.14
1754.19
1701.91
1622.03
1525.89
1422.32
1317.6
1215.87
1119.85
1030.84
949.72
876.277
810.649
751.888
700.051
653.748
613.424
577.139
546.508
518.608
87.1374
126.672
142.477
150.437
154.904
157.699
160.622
164.158
167.902
170.974
172.6
172.356
170.228
166.445
161.352
155.298
148.623
141.583
134.405
127.237
120.225
113.434
106.973
100.839
95.1223
89.7765
84.9033
80.4249
76.5082
73.096
70.6458
69.5242
71.6819
78.8062
94.6996
118.545
154.439
202.871
282.299
416.917
658.392
992.729
1361.14
1649.35
1835.1
1915.87
1985.14
2063.62
2184.26
2282.56
2388.05
2571.41
2896.79
3043.29
3188.48
3232.67
3172.13
2993.18
2843.54
2740.16
2720.78
2700.95
2643.82
2524.93
2368.73
2187.13
2006.55
1829.74
1666.82
1516.2
1384.53
1274.09
1196.29
1166.6
1209.26
1329.15
1492.93
1645.48
1749.35
1792.51
1781.24
1728.22
1647.22
1549.72
1444.64
1338.35
1235.07
1137.56
1047.18
964.795
890.242
823.611
764.015
711.425
664.548
623.697
587.106
556.146
528.21
86.8036
126.226
142.18
150.307
154.837
157.782
161.002
164.931
169.066
172.445
174.26
174.102
171.982
168.166
163.016
156.896
150.147
143.035
135.78
128.539
121.45
114.586
108.049
101.845
96.0546
90.6464
85.7092
81.1863
77.2358
73.8382
71.4766
70.622
73.3469
81.364
98.2113
122.97
159.585
209.074
289.882
427.579
673.011
1013.04
1385.51
1677.82
1864.65
1947.38
2017.14
2098.56
2218.83
2318.18
2421.42
2602.2
2928.49
3097.98
3248.96
3286.59
3215.93
3031.97
2872.36
2757.92
2726.46
2708.2
2661.02
2551.79
2399.63
2218.8
2036.57
1857.65
1692.07
1539.07
1405.06
1292.82
1213.74
1183.82
1227.36
1348.92
1514.26
1667.98
1772.52
1815.94
1804.48
1750.9
1669.03
1570.41
1464.07
1356.45
1251.85
1153.07
1061.51
978.033
902.533
835.044
774.744
721.518
674.174
632.89
596.08
564.867
536.969
86.3103
125.488
141.587
149.882
154.476
157.571
161.08
165.381
169.875
173.527
175.503
175.412
173.298
169.455
164.261
158.093
151.294
144.132
136.825
129.535
122.391
115.477
108.883
102.629
96.7841
91.3321
86.349
81.8007
77.8365
74.478
72.2361
71.6883
75.0077
83.8929
101.597
127.153
164.361
214.759
296.711
437.07
685.778
1030.71
1406.58
1702.62
1890.44
1975.21
2045.43
2129.56
2249.12
2349.16
2449.93
2627.35
2953.32
3145.75
3303.73
3335.89
3255.07
3065.56
2895.57
2769.87
2727.22
2711.8
2675.08
2575.3
2426.95
2246.89
2063.21
1882.41
1714.44
1559.3
1423.17
1309.28
1228.98
1198.76
1242.86
1365.63
1532.08
1686.66
1791.74
1835.43
1823.93
1769.99
1687.46
1587.97
1480.62
1371.91
1266.21
1166.36
1073.82
989.43
913.14
844.934
784.059
730.311
682.604
640.977
604.035
572.64
544.854
85.6856
124.504
140.736
149.191
153.846
157.091
160.88
165.53
170.351
174.243
176.351
176.312
174.197
170.331
165.106
158.909
152.078
144.889
137.552
130.233
123.056
116.111
109.48
103.196
97.3138
91.8354
86.8237
82.2681
78.3101
75.0149
72.9238
72.7206
76.653
86.3699
104.831
131.072
168.747
219.904
302.759
445.352
696.647
1045.68
1424.29
1723.73
1912.47
1999.35
2070.01
2156.62
2275.14
2375.53
2473.61
2646.94
2971.37
3186.66
3352.67
3380.32
3289.38
3093.93
2913.25
2776.26
2723.41
2711.93
2685.98
2595.36
2450.63
2271.38
2086.44
1904.03
1733.94
1576.91
1438.87
1323.48
1242.03
1211.4
1255.77
1379.28
1546.38
1701.52
1807.02
1851.02
1839.58
1785.48
1702.52
1602.41
1494.29
1384.72
1278.15
1177.44
1084.11
998.977
922.053
853.269
791.944
737.784
689.815
647.933
610.941
579.433
551.828
84.9534
123.315
139.661
148.262
152.971
156.363
160.421
165.398
170.514
174.612
176.827
176.822
174.701
170.816
165.57
159.359
152.515
145.319
137.971
130.644
123.453
116.497
109.848
103.549
97.6472
92.159
87.1352
82.59
78.6578
75.4504
73.5413
73.7173
78.2722
88.775
107.895
134.71
172.73
224.493
308.007
452.396
705.581
1057.92
1438.62
1741.11
1930.74
2019.79
2090.88
2179.73
2296.89
2397.31
2492.5
2661.04
2982.75
3220.76
3395.68
3419.68
3318.71
3117.02
2925.49
2777.36
2715.34
2708.73
2693.66
2611.88
2470.59
2292.25
2106.26
1922.5
1750.57
1591.89
1452.15
1335.42
1252.88
1221.75
1266.07
1389.86
1557.19
1712.59
1818.38
1862.7
1851.46
1797.38
1714.23
1613.74
1505.09
1394.9
1287.68
1186.31
1092.37
1006.67
929.261
860.035
798.382
743.918
695.784
653.732
616.77
585.215
557.859
84.1344
121.956
138.391
147.118
151.873
155.407
159.722
165.002
170.383
174.655
176.95
176.962
174.829
170.929
165.672
159.46
152.621
145.435
138.095
130.779
123.593
116.642
109.991
103.695
97.7886
92.306
87.2862
82.7684
78.8821
75.787
74.0911
74.6774
79.8555
91.0904
110.772
138.052
176.297
228.514
312.442
458.184
712.562
1067.41
1449.55
1754.77
1945.22
2036.54
2108.04
2198.9
2314.39
2414.53
2506.65
2669.74
2987.58
3248.1
3432.71
3453.81
3342.95
3134.84
2932.41
2773.44
2703.29
2702.32
2698.06
2624.77
2486.8
2309.46
2122.67
1937.84
1764.34
1604.26
1463.03
1345.11
1261.55
1229.82
1273.79
1397.4
1564.5
1719.87
1825.84
1870.51
1859.59
1805.73
1722.61
1621.96
1513.03
1402.44
1294.79
1192.97
1098.6
1012.49
934.756
865.221
803.358
748.695
700.49
658.351
621.496
589.957
562.914
83.2464
120.46
136.956
145.783
150.572
154.241
158.798
164.358
169.972
174.387
176.738
176.752
174.602
170.689
165.43
159.23
152.41
145.251
137.937
130.648
123.483
116.554
109.917
103.639
97.7425
92.2805
87.2801
82.8068
78.9863
76.0286
74.5767
75.6004
81.3935
93.3006
113.446
141.088
179.441
231.962
316.056
462.705
717.581
1074.14
1457.09
1764.71
1955.94
2049.59
2121.5
2214.13
2327.67
2427.24
2516.12
2673.13
2986
3268.75
3463.72
3482.6
3362.03
3147.39
2934.13
2764.75
2687.53
2692.76
2699.11
2633.96
2499.22
2323.02
2135.68
1950.05
1775.26
1614.03
1471.53
1352.58
1268.04
1235.62
1278.94
1401.92
1568.37
1723.42
1829.43
1874.47
1864
1810.53
1727.66
1627.1
1518.11
1407.37
1299.49
1197.42
1102.81
1016.46
938.534
868.818
806.863
752.101
703.917
661.769
625.093
593.633
566.964
82.3044
118.854
135.38
144.279
149.087
152.881
157.665
163.48
169.297
173.825
176.207
176.211
174.037
170.113
164.86
158.685
151.898
144.781
137.508
130.262
123.133
116.241
109.632
103.386
97.5142
92.0868
87.1211
82.7091
78.975
76.1802
75.0024
76.4858
82.8774
95.3921
115.908
143.81
182.159
234.832
318.849
465.959
720.643
1078.12
1461.25
1770.93
1962.91
2058.97
2131.26
2225.45
2336.77
2435.49
2520.98
2671.32
2978.19
3282.8
3488.7
3505.95
3375.88
3154.7
2930.82
2751.56
2668.26
2680.09
2696.75
2639.38
2507.8
2332.92
2145.29
1959.16
1783.35
1621.23
1477.67
1357.83
1272.38
1239.18
1281.55
1403.46
1568.83
1723.27
1829.22
1874.64
1864.72
1811.83
1729.42
1629.18
1520.37
1409.69
1301.81
1199.67
1105
1018.56
940.594
870.825
808.888
754.127
706.05
663.972
627.544
596.222
569.983
81.3212
117.162
133.686
142.627
147.437
151.342
156.336
162.38
168.371
172.984
175.376
175.355
173.154
169.222
163.982
157.84
151.1
144.038
136.82
129.631
122.553
115.712
109.145
102.943
97.1093
91.7302
86.8141
82.4803
78.8538
76.2475
75.3728
77.3328
84.2985
97.3531
118.148
146.213
184.448
237.127
320.827
467.955
721.767
1079.37
1462.05
1773.48
1966.16
2064.7
2137.35
2232.88
2341.74
2439.35
2521.32
2664.46
2964.32
3290.36
3507.66
3523.82
3384.5
3156.83
2922.62
2734.12
2645.7
2664.36
2690.91
2640.99
2512.56
2339.17
2151.54
1965.19
1788.64
1625.87
1481.46
1360.9
1274.6
1240.53
1281.66
1402.07
1565.94
1719.5
1825.24
1871.05
1861.81
1809.66
1727.92
1628.23
1519.83
1409.43
1301.75
1199.74
1105.19
1018.81
940.944
871.243
809.433
754.767
706.883
664.947
628.834
597.706
571.951
80.3079
115.407
131.896
140.846
145.638
149.64
154.824
161.072
167.207
171.878
174.26
174.202
171.97
168.031
162.811
156.714
150.031
143.036
135.886
128.767
121.752
114.975
108.462
102.317
96.534
91.2164
86.3648
82.1265
78.6291
76.2376
75.6931
78.1407
85.649
99.1737
120.16
148.295
186.312
238.851
321.999
468.71
720.983
1077.93
1459.56
1772.39
1965.74
2066.81
2139.82
2236.48
2342.64
2438.91
2517.24
2652.67
2944.61
3291.56
3520.64
3536.19
3387.89
3153.86
2909.72
2712.69
2620.02
2645.58
2681.55
2638.76
2513.5
2341.82
2154.45
1968.19
1791.18
1628.01
1482.96
1361.82
1274.74
1239.7
1279.31
1397.81
1559.79
1712.16
1817.58
1863.79
1855.32
1804.09
1723.22
1624.3
1516.53
1406.63
1299.35
1197.66
1103.38
1017.23
939.594
870.082
808.503
754.025
706.413
664.691
628.954
598.075
572.853
79.2735
113.606
130.029
138.953
143.707
147.79
153.142
159.568
165.818
170.521
172.874
172.769
170.503
166.56
161.365
155.32
148.705
141.789
134.719
127.681
120.741
114.038
107.591
101.515
95.7949
90.5518
85.7796
81.6544
78.3085
76.1579
75.9685
78.9082
86.9215
100.846
121.939
150.055
187.754
240.013
322.382
468.249
718.333
1073.85
1453.82
1767.72
1961.69
2065.35
2138.7
2236.28
2339.56
2434.25
2508.84
2636.13
2919.29
3286.54
3527.72
3543.07
3386.09
3145.89
2892.31
2687.51
2591.4
2623.78
2668.65
2632.68
2510.63
2340.89
2154.09
1968.19
1790.99
1627.68
1482.2
1360.63
1272.83
1236.75
1274.58
1390.76
1550.44
1701.37
1806.33
1852.93
1845.32
1795.17
1715.38
1617.44
1510.52
1401.32
1294.65
1193.46
1099.62
1013.84
936.566
867.356
806.11
751.907
704.644
663.203
627.901
597.322
572.681
78.226
111.776
128.102
136.967
141.661
145.805
151.303
157.878
164.215
168.926
171.233
171.072
168.769
164.824
159.661
153.677
147.138
140.311
133.33
126.384
119.53
112.912
106.542
100.545
94.8994
89.7434
85.0658
81.0719
77.9006
76.0168
76.2042
79.6339
88.1092
102.362
123.483
151.495
188.781
240.626
321.997
466.604
713.869
1067.2
1444.92
1759.55
1954.09
2060.37
2134.06
2232.36
2332.57
2425.49
2496.26
2614.99
2888.61
3275.49
3528.98
3544.49
3379.16
3133.06
2870.6
2658.84
2559.99
2599.01
2652.2
2622.78
2504.02
2336.44
2150.5
1965.26
1788.15
1624.93
1479.23
1357.39
1268.93
1231.74
1267.53
1381.01
1538.01
1687.2
1791.57
1838.57
1831.91
1782.98
1704.46
1607.71
1501.85
1393.57
1287.69
1187.17
1093.94
1008.68
931.884
863.089
802.272
748.429
701.588
660.493
625.68
595.451
571.431
77.1719
109.93
126.13
134.903
139.514
143.699
149.319
156.015
162.411
167.107
169.353
169.127
166.785
162.841
157.715
151.798
145.344
138.614
131.733
124.888
118.129
111.606
105.322
99.4152
93.8552
88.799
84.2318
80.3879
77.4149
75.8231
76.4051
80.316
89.2061
103.719
124.792
152.62
189.404
240.704
320.868
463.816
707.656
1058.07
1432.94
1747.96
1943.02
2051.95
2125.97
2224.8
2321.79
2412.73
2479.63
2589.46
2852.84
3258.59
3524.52
3540.52
3367.2
3115.5
2844.81
2626.9
2525.95
2571.28
2632.21
2609.09
2493.7
2328.54
2143.75
1959.45
1782.71
1619.82
1474.11
1352.14
1263.1
1224.73
1258.25
1368.65
1522.6
1669.8
1773.44
1820.8
1815.18
1767.63
1690.55
1595.18
1490.59
1383.42
1278.53
1178.85
1086.38
1001.77
925.584
857.31
797.014
743.613
697.262
656.574
622.302
592.468
569.11
76.1168
108.081
124.129
132.777
137.282
141.485
147.201
153.99
160.418
165.077
167.248
166.95
164.568
160.627
155.543
149.699
143.338
136.713
129.939
123.204
116.549
110.129
103.941
98.1336
92.6708
87.7273
83.2866
79.6123
76.8619
75.5861
76.5756
80.9523
90.2068
104.912
125.866
153.435
189.635
240.265
319.026
459.931
699.767
1046.53
1417.99
1733.06
1928.57
2040.17
2114.5
2213.68
2307.32
2396.12
2459.1
2559.73
2812.28
3236.06
3514.49
3531.24
3350.31
3093.39
2815.15
2591.92
2489.4
2540.67
2608.73
2591.67
2479.77
2317.27
2133.92
1950.85
1774.74
1612.42
1466.89
1344.95
1255.4
1215.79
1246.82
1353.79
1504.34
1649.27
1752.04
1799.76
1795.24
1749.2
1673.74
1579.95
1476.82
1370.96
1267.22
1168.56
1077
993.167
917.708
850.056
790.369
737.486
691.691
651.469
617.784
588.39
565.727
75.0654
106.238
122.111
130.604
134.979
139.177
144.961
151.815
158.248
162.85
164.932
164.556
162.133
158.198
153.161
147.397
141.134
134.621
127.961
121.343
114.799
108.491
102.408
96.7097
91.3554
86.5378
82.2406
78.7563
76.2529
75.315
76.7196
81.5404
91.1069
105.938
126.708
153.948
189.486
239.331
316.502
455.002
690.285
1032.7
1400.2
1714.94
1910.85
2025.11
2099.76
2199.11
2289.29
2375.8
2434.82
2526
2767.23
3208.14
3499.03
3516.77
3328.64
3066.92
2781.85
2554.14
2450.5
2507.24
2581.82
2570.59
2462.3
2302.72
2121.11
1939.53
1764.31
1602.79
1457.65
1335.89
1245.89
1205
1233.34
1336.57
1483.37
1625.77
1727.53
1775.57
1772.22
1727.81
1654.14
1562.12
1460.63
1356.26
1253.85
1156.36
1065.85
982.926
908.303
841.372
782.377
730.087
684.907
645.206
612.151
583.239
561.301
74.0214
104.411
120.087
128.396
132.618
136.787
142.612
149.5
155.913
160.438
162.419
161.962
159.498
155.571
150.584
144.905
138.746
132.351
125.812
119.317
112.892
106.702
100.733
95.153
89.9187
85.2409
81.1051
77.8319
75.5998
75.0187
76.8403
82.0778
91.9026
106.798
127.322
154.168
188.974
237.925
313.335
449.088
679.299
1016.69
1379.67
1693.75
1889.97
2006.88
2081.83
2181.21
2267.83
2351.91
2406.96
2488.5
2718.01
3175.07
3478.31
3497.24
3302.34
3036.28
2745.17
2513.76
2409.38
2471.06
2551.55
2545.95
2441.41
2284.99
2105.39
1925.58
1751.51
1591.02
1446.46
1325.01
1234.66
1192.45
1217.92
1317.09
1459.83
1599.44
1700.05
1748.38
1746.25
1703.59
1631.86
1541.77
1442.12
1339.4
1238.5
1142.32
1053
971.108
897.427
831.309
773.085
721.456
676.95
637.821
605.435
577.042
555.858
72.9883
102.606
118.068
126.167
130.213
134.327
140.164
147.058
153.425
157.855
159.725
159.181
156.676
152.761
147.829
142.239
136.189
129.917
123.504
117.138
110.838
104.774
98.9258
93.474
88.3717
83.8481
79.8925
76.8522
74.9148
74.7061
76.94
82.5618
92.5909
107.491
127.713
154.106
188.115
236.07
309.564
442.252
666.909
998.63
1356.57
1669.61
1866.06
1985.6
2060.85
2160.08
2243.09
2324.63
2375.7
2447.47
2664.97
3137.15
3452.52
3472.8
3271.6
3001.69
2705.33
2471.01
2366.18
2432.25
2518.04
2517.87
2417.21
2264.19
2086.9
1909.11
1736.44
1577.18
1433.4
1312.42
1221.78
1178.23
1200.67
1295.52
1433.87
1570.45
1669.77
1718.34
1717.48
1676.68
1607.02
1519.04
1421.38
1320.49
1221.24
1126.54
1038.52
957.782
885.141
819.924
762.546
711.643
667.863
629.355
597.674
569.836
549.428
71.9685
100.83
116.063
123.928
127.777
131.811
137.63
144.5
150.796
155.113
156.863
156.229
153.684
149.782
144.909
139.413
133.477
127.331
121.05
114.817
108.648
102.716
96.9979
91.6836
86.726
82.372
78.6166
75.8312
74.2103
74.3847
77.02
82.9895
93.1697
108.018
127.888
153.774
186.928
233.796
305.231
434.561
653.219
978.651
1331.03
1642.68
1839.26
1961.38
2036.92
2135.87
2215.22
2294.1
2341.23
2403.13
2608.45
3094.64
3421.86
3443.63
3236.62
2963.38
2662.59
2426.1
2321.04
2390.9
2481.4
2486.48
2389.83
2240.45
2065.72
1890.22
1719.18
1561.38
1418.56
1298.17
1207.34
1162.43
1181.72
1271.98
1405.67
1538.98
1636.85
1685.63
1686.07
1647.21
1579.77
1494.04
1398.54
1299.64
1202.19
1109.08
1022.51
943.02
871.515
807.282
750.818
700.703
657.699
619.855
588.911
561.661
542.049
70.9645
99.0867
114.08
121.691
125.322
129.249
135.02
141.837
148.038
152.226
153.847
153.12
150.537
146.652
141.841
136.441
130.622
124.607
118.46
112.366
106.334
100.541
94.9605
89.7939
84.9944
80.8264
77.2921
74.7834
73.4984
74.0614
77.0809
83.3583
93.6377
108.383
127.855
153.184
185.433
231.128
300.379
426.086
638.339
956.896
1303.23
1613.11
1809.71
1934.36
2010.18
2108.71
2184.38
2260.53
2303.74
2355.73
2548.82
3047.87
3386.56
3409.91
3197.59
2921.6
2617.19
2379.22
2274.1
2347.15
2441.78
2451.93
2359.41
2213.89
2042
1869.02
1699.85
1543.7
1402.02
1282.37
1191.42
1145.16
1161.17
1246.63
1375.4
1505.21
1601.49
1650.41
1652.18
1615.35
1550.24
1466.91
1373.71
1276.94
1181.43
1090.06
1005.04
926.906
856.624
793.452
737.967
688.697
646.513
609.376
579.197
552.565
533.764
69.9779
97.3812
112.126
119.465
122.859
126.654
132.347
139.082
145.163
149.206
150.69
149.869
147.248
143.383
138.637
133.337
127.638
121.757
115.749
109.798
103.907
98.2597
92.8257
87.8176
83.1907
79.2263
75.9346
73.7237
72.7905
73.7418
77.1223
83.6656
93.9941
108.589
127.621
152.351
183.65
228.098
295.056
416.902
622.384
933.514
1273.32
1581.06
1777.57
1904.67
1980.77
2078.76
2150.73
2224.08
2263.42
2305.52
2486.44
2997.14
3346.85
3371.84
3154.76
2876.58
2569.37
2330.58
2225.53
2301.14
2399.34
2414.36
2326.1
2184.66
2015.85
1845.62
1678.54
1524.25
1383.87
1265.09
1174.12
1126.52
1139.17
1219.63
1343.23
1469.32
1563.87
1612.87
1615.98
1581.26
1518.59
1437.78
1347.03
1252.53
1159.09
1069.57
986.2
909.523
840.547
778.508
724.062
675.69
634.367
597.975
568.585
542.599
524.623
69.0103
95.7163
110.208
117.261
120.4
124.036
129.622
136.244
142.183
146.067
147.407
146.49
143.833
139.99
135.312
130.115
124.539
118.794
112.929
107.123
101.38
95.8847
90.6066
85.7687
81.3302
77.588
74.5609
72.6671
72.0969
73.4298
77.1432
83.9091
94.2393
108.639
127.196
151.289
181.6
224.736
289.307
407.083
605.473
908.661
1241.48
1546.71
1743
1872.48
1948.83
2046.16
2114.45
2184.94
2220.48
2252.75
2421.67
2942.78
3302.98
3329.65
3108.36
2828.59
2519.38
2280.38
2175.45
2253.03
2354.25
2373.96
2290.07
2152.91
1987.41
1820.15
1655.38
1503.11
1364.22
1246.44
1155.53
1106.62
1115.84
1191.13
1309.35
1431.51
1524.18
1573.21
1577.66
1545.1
1484.98
1406.8
1318.62
1226.52
1135.27
1047.71
966.098
890.962
823.368
762.529
709.178
661.752
621.328
585.716
557.137
531.821
514.677
68.0629
94.0945
108.33
115.085
117.954
121.407
126.855
133.337
139.111
142.82
144.011
142.997
140.306
136.487
131.881
126.788
121.337
115.732
110.011
104.356
98.7655
93.4293
88.3171
83.6623
79.4293