/*--------------------------------*- C++ -*----------------------------------*\
| =========                 |                                                 |
| \\      /  F ield         | OpenFOAM: The Open Source CFD Toolbox           |
|  \\    /   O peration     | Version:  2412                                  |
|   \\  /    A nd           | Website:  www.openfoam.com                      |
|    \\/     M anipulation  |                                                 |
\*---------------------------------------------------------------------------*/
FoamFile
{
    version     2.0;
    format      ascii;
    arch        "LSB;label=32;scalar=64";
    class       volScalarField;
    location    "0.3";
    object      nut;
}
// * * * * * * * * * * * * * * * * * * * * * * * * * * * * * * * * * * * * * //

dimensions      [0 2 -1 0 0 0 0];

internalField   nonuniform List<scalar> 
13156
(
0.00128451
0.00129759
0.00115794
0.00105793
0.00100129
0.000963922
0.000934443
0.000908479
0.000885141
0.000864152
0.000845223
0.000827546
0.000810676
0.000794088
0.000777928
0.000761925
0.000746611
0.000731654
0.000717696
0.000704144
0.000691906
0.000679957
0.000669704
0.000659502
0.000651348
0.00064277
0.000636783
0.000629541
0.000625419
0.000619289
0.000616928
0.000611394
0.000610863
0.000605172
0.000606677
0.000600197
0.000605129
0.000598971
0.000611261
0.000609649
0.000638576
0.000651962
0.000696586
0.000701377
0.000722886
0.000698257
0.000702532
0.000668575
0.000679527
0.000646393
0.000668629
0.000634057
0.000730762
0.000761774
0.000660748
0.000631384
0.000626768
0.000629791
0.000631656
0.000641192
0.000665186
0.000696409
0.000725663
0.000740597
0.000746123
0.000744394
0.000740237
0.000735015
0.000730171
0.000725515
0.000721784
0.000718998
0.000718558
0.000721795
0.000732428
0.000753942
0.000787719
0.000827049
0.00086418
0.000893305
0.000913611
0.000925824
0.000931795
0.000933319
0.000931642
0.000928295
0.000923616
0.000918944
0.000913729
0.000909632
0.000905064
0.000902375
0.00089851
0.00089753
0.000893617
0.000894492
0.000888619
0.000892204
0.000882564
0.00386768
0.00386957
0.00265595
0.00202833
0.0017165
0.00155241
0.00148656
0.001491
0.00153677
0.0015926
0.00163945
0.0016669
0.00167554
0.00166725
0.00164773
0.00161923
0.00158631
0.00154887
0.00151167
0.00147274
0.00143677
0.00140047
0.00136852
0.0013359
0.00130921
0.0012809
0.00125957
0.00123502
0.0012188
0.00119999
0.00118866
0.00117549
0.00116783
0.00116068
0.00115805
0.00116252
0.00117864
0.00121598
0.00129183
0.00140483
0.0016844
0.00200514
0.00251177
0.00265942
0.00282188
0.00258497
0.00254098
0.00226573
0.00223116
0.00199413
0.00190859
0.00179057
0.00147461
0.00154234
0.00225704
0.00240347
0.00259752
0.00249741
0.00272113
0.00278924
0.00324187
0.0034241
0.00358669
0.00343586
0.00334181
0.00314656
0.00308483
0.00296087
0.00292973
0.00283733
0.00280832
0.002744
0.00274834
0.00278241
0.00295711
0.00328604
0.0037781
0.00427623
0.00468004
0.0049279
0.00504704
0.00505665
0.00499614
0.00488355
0.0047414
0.00458203
0.00441452
0.00424912
0.00408564
0.00393653
0.00379074
0.00366712
0.00353943
0.00344811
0.00333438
0.00327837
0.00316862
0.0031597
0.00302794
0.001597
0.00247454
0.00214868
0.00198445
0.00203407
0.00223008
0.00244569
0.00258454
0.00265025
0.00266836
0.00267201
0.00266123
0.00264137
0.00260151
0.00254902
0.00247708
0.00240015
0.00230917
0.00222332
0.00212911
0.00204826
0.00196137
0.00189455
0.00181859
0.00176846
0.00170377
0.00167034
0.00161392
0.00159154
0.00154125
0.00152824
0.00148359
0.00148109
0.00144057
0.00145553
0.00143037
0.00150429
0.00154407
0.00179329
0.00202143
0.0028991
0.00378479
0.00540482
0.00579058
0.00641405
0.00564791
0.00573559
0.00483894
0.00501762
0.00415797
0.0041899
0.00371032
0.00354544
0.00212717
0.00331406
0.00392487
0.00471586
0.00472767
0.00531871
0.00552424
0.00647093
0.0068555
0.00714639
0.00686845
0.00671038
0.00635505
0.00627067
0.00602644
0.00597025
0.00576399
0.00569341
0.00554589
0.00555515
0.00566056
0.00611016
0.00696416
0.00820165
0.00941858
0.0103595
0.0109051
0.0111369
0.0111185
0.0109427
0.0106558
0.0103052
0.00991971
0.0095161
0.00911814
0.00872157
0.00835654
0.00799505
0.00768335
0.00735865
0.00711194
0.00680215
0.0066363
0.00630904
0.00625457
0.00586697
0.00192388
0.00190287
0.00243756
0.00306795
0.0038107
0.00456071
0.00514562
0.00545801
0.0055368
0.00545262
0.00530165
0.00511545
0.00492382
0.00471384
0.0044996
0.00426608
0.00403657
0.00379316
0.0035667
0.00333383
0.00312915
0.0029216
0.00275165
0.00257553
0.00244349
0.00229925
0.0022035
0.00208654
0.00201993
0.001923
0.0018777
0.00179776
0.00177387
0.00170945
0.00172116
0.00169754
0.00183651
0.00195193
0.00246261
0.00298436
0.00478594
0.00659271
0.00946893
0.0101692
0.0110915
0.00985218
0.0099183
0.00852069
0.00881112
0.00742714
0.00746648
0.00665907
0.00686534
0.00376803
0.00469896
0.00563489
0.00698401
0.00724089
0.00815005
0.00855196
0.00986291
0.0104361
0.0108359
0.010513
0.0103568
0.00994533
0.00985765
0.00954431
0.00944442
0.00914408
0.00901015
0.00879283
0.00880571
0.0090157
0.0098045
0.0112766
0.0133213
0.0152585
0.0166927
0.0174821
0.0177759
0.0176904
0.0173706
0.0168912
0.0163218
0.0157064
0.0150682
0.0144419
0.0138199
0.013246
0.0126786
0.0121849
0.0116767
0.0112758
0.0107993
0.0105081
0.010015
0.0098764
0.00932052
0.00623216
0.00442825
0.00580964
0.00690156
0.00787393
0.0086996
0.00929196
0.00958752
0.0096266
0.0094536
0.00916139
0.00878557
0.00837548
0.00792765
0.00747276
0.00699718
0.00653678
0.00606747
0.00563178
0.00519569
0.00480692
0.00442004
0.00409261
0.00376117
0.00349805
0.00322227
0.00302088
0.00279528
0.00264903
0.00246395
0.00235927
0.00221032
0.00214786
0.00203682
0.00205018
0.00203514
0.0023159
0.00257499
0.00353672
0.00452996
0.00754622
0.0103949
0.0143657
0.0152903
0.0163022
0.0146353
0.014566
0.0128025
0.0131173
0.0113456
0.0113028
0.0102484
0.0108105
0.0064417
0.00661793
0.00760576
0.00940113
0.00988874
0.0110424
0.0116236
0.0132005
0.0139409
0.0144611
0.0141647
0.0140627
0.0136547
0.0135738
0.0132115
0.0130584
0.0126731
0.0124697
0.0121937
0.0122177
0.0125584
0.0137235
0.0158465
0.0186776
0.0212692
0.0231166
0.0240852
0.0243935
0.0242119
0.0237312
0.0230531
0.0222664
0.0214282
0.0205676
0.0197276
0.0188991
0.0181345
0.0173842
0.0167273
0.0160614
0.0155244
0.0149153
0.0145102
0.0138939
0.013674
0.0130053
0.0159578
0.011519
0.0125975
0.0130477
0.0135214
0.0139439
0.0142349
0.0143298
0.0142436
0.0139678
0.0135535
0.0130131
0.0123977
0.0117131
0.0110067
0.0102737
0.00956287
0.00884992
0.00818591
0.0075305
0.00693989
0.00635779
0.00585435
0.00534907
0.0049338
0.00450325
0.00417253
0.0038097
0.00355844
0.00325332
0.00306658
0.00281631
0.00270163
0.0025217
0.00256233
0.00258487
0.00314771
0.00364728
0.00525471
0.00684952
0.0111384
0.0149338
0.0197028
0.0207365
0.0216705
0.0196163
0.0193412
0.0173175
0.0175924
0.015543
0.0153542
0.0141219
0.0149331
0.0097735
0.00907589
0.00986499
0.0119541
0.0125964
0.0139047
0.0146222
0.0163937
0.017295
0.0179589
0.0177482
0.0177334
0.0173558
0.0172767
0.016868
0.0166517
0.016185
0.0159099
0.0155837
0.0156263
0.016116
0.0176749
0.0204483
0.0240152
0.0271839
0.0293701
0.0304656
0.030755
0.0304598
0.029811
0.028935
0.0279372
0.026886
0.0258164
0.0247775
0.0237603
0.0228224
0.0219102
0.0211084
0.0203079
0.019653
0.0189367
0.0184357
0.0177299
0.01744
0.0167001
0.0292569
0.0217778
0.0214694
0.0206143
0.0201464
0.019854
0.0196347
0.0193875
0.0190844
0.018656
0.0180995
0.0173931
0.0165784
0.0156662
0.0147163
0.0137348
0.0127805
0.0118329
0.0109479
0.0100832
0.00929843
0.00853179
0.00785903
0.0071896
0.00662604
0.00604705
0.00558649
0.00508722
0.00472494
0.00429401
0.00401694
0.00365496
0.00348752
0.00324124
0.00336834
0.00350948
0.00452925
0.00536739
0.00770511
0.00992589
0.0153221
0.0198786
0.0251644
0.0262214
0.0269678
0.0245663
0.0240487
0.0218418
0.0220331
0.0197838
0.0194086
0.0180417
0.0189948
0.0133974
0.0119425
0.0123828
0.0146074
0.0153112
0.0166836
0.0174896
0.0194053
0.0204732
0.0213098
0.0212312
0.0213199
0.0209783
0.0208867
0.0204258
0.0201365
0.0195894
0.0192416
0.0188717
0.018938
0.0195879
0.0215442
0.0249483
0.02919
0.0328624
0.0353256
0.0365091
0.0367578
0.0363406
0.0355232
0.0344546
0.0332545
0.0320016
0.0307363
0.0295125
0.0283226
0.0272265
0.0261699
0.0252386
0.0243223
0.0235651
0.022761
0.0221802
0.0214102
0.0210622
0.0202823
0.0431365
0.0333144
0.0313244
0.0289544
0.0273373
0.026165
0.0253047
0.0246143
0.024015
0.0233748
0.0226358
0.0217408
0.0207173
0.0195784
0.0183916
0.0171727
0.0159873
0.0148197
0.0137278
0.0126702
0.0117062
0.0107726
0.00994545
0.00913028
0.00843242
0.00772344
0.0071449
0.00652648
0.00606136
0.00551948
0.00515842
0.00469912
0.00449588
0.00422275
0.00453052
0.00492294
0.00653759
0.00776752
0.0107737
0.0135583
0.0198042
0.0249436
0.0305339
0.0315637
0.0320612
0.0293525
0.0285785
0.0262442
0.0263234
0.0239273
0.0233433
0.0218704
0.0228758
0.017075
0.0150481
0.0150917
0.0173125
0.0179897
0.0193451
0.0201958
0.0222215
0.0234699
0.0245092
0.024597
0.0247918
0.0244794
0.024357
0.023835
0.0234642
0.0228372
0.0224163
0.0220075
0.022101
0.0229162
0.0252638
0.0292676
0.0341209
0.0382314
0.0409219
0.0421653
0.04236
0.0418187
0.0408367
0.0395835
0.0381918
0.036749
0.0353012
0.0339055
0.0325571
0.0313161
0.0301296
0.0290821
0.028065
0.0272182
0.0263417
0.0256938
0.0248786
0.024483
0.0236858
0.0564865
0.0451105
0.0415254
0.0376594
0.0348311
0.0327005
0.031123
0.0299208
0.0289624
0.0280547
0.0270885
0.0259737
0.024724
0.0233528
0.0219319
0.0204842
0.0190792
0.0177056
0.0164211
0.0151863
0.0140583
0.0129744
0.012008
0.0110648
0.0102478
0.00942776
0.008746
0.00802883
0.00747454
0.00684397
0.00641345
0.00588547
0.00567732
0.00544654
0.00604796
0.00683647
0.00909304
0.0107074
0.014234
0.0174882
0.0243392
0.0299247
0.0356772
0.0366563
0.0368773
0.0339002
0.0328708
0.0304498
0.0303994
0.0278926
0.0270896
0.0255285
0.0265184
0.0206688
0.0182437
0.0179102
0.0200183
0.0205963
0.0218675
0.0227266
0.02484
0.0262875
0.0275575
0.0278346
0.0281282
0.0278311
0.0276597
0.027068
0.0266091
0.0259028
0.0254091
0.0249652
0.0250874
0.0260689
0.0287949
0.0333609
0.0387648
0.043256
0.046134
0.0474168
0.0475505
0.0468869
0.0457471
0.0443192
0.0427473
0.0411267
0.039509
0.037954
0.0364597
0.0350857
0.033782
0.0326294
0.0315237
0.0305978
0.0296608
0.0289562
0.0281096
0.0276755
0.0268772
0.0689287
0.0566844
0.0517233
0.0464745
0.0424491
0.0393356
0.0370022
0.0352437
0.0338782
0.0326555
0.0314198
0.0300538
0.0285586
0.026947
0.0252923
0.0236223
0.0220075
0.0204402
0.018976
0.0175779
0.0162991
0.0150792
0.0139869
0.0129305
0.0120077
0.0110925
0.010321
0.00952296
0.00889351
0.0081957
0.00771294
0.00714872
0.00697453
0.00686917
0.00787286
0.00916782
0.0120235
0.0139721
0.0178578
0.0214917
0.0287568
0.0346931
0.0405189
0.0414408
0.0413799
0.0381708
0.0368962
0.034418
0.0342284
0.0316355
0.030612
0.0289725
0.0298983
0.0241035
0.0214188
0.0207603
0.0226783
0.0231026
0.0242375
0.0250763
0.0272643
0.0289312
0.0304565
0.0309354
0.0313141
0.0310158
0.030779
0.0301106
0.0295593
0.0287745
0.0282091
0.0277328
0.0278844
0.0290293
0.0321165
0.0372042
0.0431012
0.0479233
0.050957
0.0522646
0.0523342
0.0515526
0.0502635
0.0486717
0.0469315
0.0451453
0.04337
0.0416673
0.0400387
0.0385427
0.0371324
0.0358846
0.0347004
0.0337042
0.0327162
0.0319633
0.0310957
0.0306304
0.0298425
0.0804239
0.0678305
0.0617302
0.0552404
0.0500684
0.0459793
0.0428761
0.040535
0.038727
0.0371499
0.0356085
0.0339628
0.0322042
0.0303441
0.0284555
0.0265684
0.0247526
0.0230021
0.0213698
0.0198203
0.0184026
0.0170586
0.0158519
0.0146943
0.0136768
0.012679
0.0118294
0.0109646
0.0102725
0.00952555
0.00900767
0.00843848
0.00834044
0.00844415
0.0099362
0.0117902
0.0151454
0.0173604
0.0214695
0.02541
0.0329534
0.0391757
0.0450227
0.0458902
0.0455555
0.0421479
0.0406434
0.0381297
0.0377966
0.0351345
0.0338944
0.0321817
0.0330098
0.0273401
0.0244994
0.0235767
0.0252541
0.0254871
0.0264475
0.0272449
0.0295004
0.0314075
0.0332077
0.0338923
0.0343384
0.0340223
0.0337071
0.0329568
0.032311
0.0314491
0.0308137
0.0303072
0.0304877
0.0317907
0.0352186
0.0407866
0.0471234
0.0522334
0.0553968
0.056719
0.0567242
0.0558309
0.0544019
0.0526573
0.0507607
0.0488209
0.0468996
0.0450606
0.0433085
0.0417003
0.040193
0.0388585
0.0376043
0.0365455
0.0355142
0.0347198
0.033839
0.0333486
0.0325793
0.0910597
0.0784757
0.0714485
0.0638577
0.0576039
0.0525646
0.0486939
0.0457564
0.0434805
0.0415182
0.039641
0.0376921
0.035655
0.0335399
0.0314176
0.0293185
0.0273095
0.0253856
0.0235954
0.0219051
0.0203589
0.0189012
0.0175898
0.0163408
0.0152382
0.0141678
0.0132495
0.0123292
0.0115852
0.0108039
0.0102671
0.00972177
0.00974263
0.0101315
0.0121661
0.0145751
0.018308
0.0207212
0.024953
0.0291437
0.0368735
0.043337
0.049176
0.0499971
0.0494046
0.0458285
0.0441121
0.0415791
0.0411017
0.0383819
0.0369327
0.0351488
0.0358569
0.0303606
0.0274391
0.0263092
0.0277166
0.0277349
0.0284947
0.0292354
0.0315558
0.0337225
0.0358119
0.0366993
0.0371937
0.036845
0.0364413
0.0356063
0.0348657
0.0339288
0.0332253
0.0326904
0.0328984
0.0343523
0.0380984
0.0441053
0.0508333
0.0561937
0.059466
0.0607955
0.0607379
0.0597399
0.058181
0.0562949
0.0542537
0.0521718
0.0501159
0.0481511
0.0462856
0.0445744
0.0429787
0.0415654
0.0402484
0.0391336
0.0380652
0.0372351
0.036347
0.0358366
0.0350916
0.100957
0.0886108
0.0808322
0.0722656
0.0649974
0.0590419
0.0544161
0.0508774
0.0481162
0.0457447
0.0435081
0.0412374
0.0389106
0.0365362
0.0341814
0.0318754
0.0296809
0.0275924
0.025654
0.0238323
0.0221671
0.0206046
0.0191973
0.0178654
0.0166856
0.0155508
0.0145719
0.013605
0.0128185
0.0120152
0.0114748
0.0109798
0.0111614
0.0118995
0.014497
0.0174142
0.0214041
0.0239555
0.0282404
0.0326381
0.0404928
0.0471648
0.0529812
0.0537655
0.0529352
0.0492178
0.0473084
0.0447679
0.044148
0.0413786
0.0397301
0.0378749
0.038449
0.0331596
0.0302113
0.0289224
0.0300453
0.0298366
0.0303792
0.0310527
0.033438
0.0358818
0.0382696
0.0393515
0.0398753
0.0394815
0.038983
0.0380622
0.0372278
0.0362185
0.0354492
0.0348873
0.035121
0.0367169
0.0407575
0.0471627
0.0542373
0.0598157
0.0631796
0.0645115
0.0643942
0.0632991
0.0616204
0.0596041
0.0574297
0.0552171
0.0530374
0.0509568
0.0489872
0.0471816
0.0455055
0.0440203
0.0426471
0.041482
0.0403819
0.039521
0.0386302
0.0381041
0.0373875
0.110234
0.098257
0.0898654
0.0804289
0.0722094
0.0653752
0.0600122
0.0558736
0.0526156
0.0498173
0.0472035
0.0445976
0.0419734
0.0393376
0.0367528
0.0342456
0.0318732
0.0296286
0.0275507
0.0256067
0.0238308
0.0221718
0.0206762
0.0192687
0.018019
0.0168267
0.0157943
0.0147882
0.0139675
0.0131529
0.0126237
0.0122041
0.012586
0.0137231
0.0168731
0.0202249
0.0243649
0.0270052
0.0312969
0.0358679
0.043806
0.0506613
0.0564483
0.0572063
0.0561602
0.0523257
0.0502423
0.047703
0.0469438
0.0441307
0.0422936
0.040366
0.040798
0.0357388
0.0328029
0.0313929
0.032227
0.0317872
0.0321035
0.0327029
0.0351548
0.0378904
0.0405807
0.0418452
0.0423811
0.0419325
0.0413357
0.0403297
0.0394039
0.038325
0.0374923
0.0369046
0.0371614
0.0388893
0.0431998
0.0499641
0.0573446
0.0631127
0.0665541
0.0678853
0.0677121
0.0665279
0.0647396
0.062604
0.0603077
0.0579752
0.0556819
0.0534953
0.0514305
0.0495385
0.0477891
0.0462386
0.044815
0.0436048
0.0424775
0.0415901
0.0406995
0.040162
0.0394767
0.118998
0.107449
0.09855
0.0883293
0.0792144
0.0715385
0.0654589
0.0607255
0.056964
0.0537264
0.0507229
0.0477727
0.0448469
0.04195
0.0391391
0.0364369
0.0338942
0.0315019
0.029293
0.0272348
0.0253563
0.0236082
0.0220315
0.020555
0.0192417
0.017998
0.0169183
0.0158797
0.0150325
0.0142164
0.0137129
0.0133928
0.0140117
0.0155822
0.0192489
0.0229492
0.0271502
0.0298408
0.0341096
0.0388262
0.0468185
0.053836
0.0595919
0.0603335
0.0590941
0.0551645
0.0529254
0.0503936
0.0494995
0.0466469
0.0446325
0.0426308
0.0429167
0.0381039
0.0352089
0.0337067
0.0342546
0.0335852
0.0336717
0.0341929
0.0367137
0.0397528
0.042745
0.0441781
0.0447109
0.0442009
0.0435046
0.0424154
0.0414013
0.0402558
0.0393625
0.0387496
0.0390266
0.0408757
0.045431
0.0525165
0.0601658
0.0660987
0.0696061
0.0709348
0.0707103
0.0694451
0.067557
0.065313
0.0629055
0.0604635
0.0580665
0.055783
0.0536314
0.0516606
0.0498447
0.048235
0.0467661
0.0455156
0.044365
0.0434549
0.0425673
0.0420217
0.0413699
0.127338
0.116228
0.106898
0.0959598
0.0859967
0.0775135
0.0707384
0.0654178
0.0611497
0.0574647
0.0540635
0.0507641
0.0475355
0.04438
0.041348
0.0384576
0.0357524
0.0332204
0.0308887
0.0287241
0.0267506
0.0249203
0.0232691
0.0217297
0.0203588
0.0190693
0.0179482
0.016883
0.0160167
0.0152085
0.0147455
0.0145484
0.0154373
0.0174598
0.0215885
0.0255486
0.0297401
0.0324512
0.0366779
0.0415164
0.0495414
0.0567023
0.0624278
0.0631628
0.0617523
0.0577473
0.0553699
0.0528503
0.0518261
0.0489374
0.0467571
0.0446794
0.044818
0.040263
0.0374301
0.0358572
0.0361254
0.0352317
0.0350891
0.0355297
0.0381217
0.0414726
0.0447623
0.0463492
0.0468663
0.0462906
0.0454958
0.0443264
0.0432276
0.042019
0.0410676
0.04043
0.040724
0.0426827
0.0474575
0.0548277
0.0627118
0.0687876
0.0723515
0.0736771
0.0734061
0.0720681
0.0700902
0.0677481
0.0652398
0.0626984
0.0602072
0.0578354
0.0556049
0.0535624
0.0516864
0.050023
0.0485139
0.0472272
0.0460571
0.0451276
0.0442451
0.0436944
0.0430776
0.13533
0.124634
0.114927
0.103321
0.0925482
0.0832883
0.0758378
0.0699385
0.0651635
0.061027
0.0572241
0.0535739
0.0500441
0.0466341
0.0433873
0.0403159
0.0374562
0.0347926
0.0323461
0.0300826
0.0280211
0.0261152
0.0243958
0.0227992
0.0213761
0.0200461
0.0188892
0.0178032
0.0169252
0.0161343
0.0157268
0.0156757
0.0168632
0.0193411
0.0238644
0.0279998
0.0321278
0.0348365
0.0390084
0.0439477
0.0519882
0.0592753
0.0649724
0.0657099
0.06415
0.0600876
0.0575882
0.0550842
0.053935
0.0510129
0.0486781
0.0465222
0.0465144
0.042225
0.0394705
0.0378425
0.0378401
0.0367298
0.0363616
0.0367204
0.0393857
0.0430532
0.0466328
0.0483585
0.0488501
0.0482069
0.0473159
0.0460701
0.0448908
0.0436224
0.0426155
0.0419536
0.042261
0.0443169
0.049286
0.0569059
0.0649935
0.0711931
0.0748056
0.0761283
0.0758161
0.0744135
0.0723552
0.069925
0.067326
0.0646948
0.0621184
0.0596667
0.0573648
0.0552574
0.0533272
0.0516155
0.0500705
0.0487517
0.0475652
0.0466193
0.0457441
0.0451908
0.0446101
0.143037
0.132708
0.122658
0.110419
0.0988659
0.0888555
0.0807481
0.074279
0.0689989
0.0644096
0.0602043
0.0562047
0.0523777
0.048719
0.0452644
0.04202
0.0390138
0.0362265
0.0336728
0.0313177
0.0291751
0.0271999
0.0254181
0.0237697
0.0222999
0.0209345
0.0197472
0.0186462
0.017764
0.017
0.0166637
0.0167813
0.0182906
0.0212132
0.026056
0.0302902
0.0343144
0.0370029
0.0411116
0.0461319
0.054173
0.0615703
0.0672415
0.0679903
0.0663017
0.0621985
0.0595924
0.0571064
0.0558374
0.0528842
0.0504058
0.0481699
0.0480178
0.043999
0.041336
0.0396641
0.0394015
0.0380838
0.0374953
0.0377721
0.0405119
0.0444976
0.0483568
0.0502071
0.050666
0.0499554
0.048972
0.0476539
0.0463985
0.0450737
0.0440139
0.0433278
0.0436446
0.0457853
0.0509233
0.0587595
0.0670218
0.0733279
0.0769826
0.0783033
0.0779555
0.0764962
0.0743669
0.0718585
0.0691783
0.0664666
0.0638135
0.0612899
0.0589238
0.056758
0.0547791
0.053024
0.0514473
0.0501002
0.0489001
0.0479407
0.0470745
0.0465208
0.0459772
0.150509
0.140487
0.130113
0.117264
0.104951
0.0942114
0.0854632
0.0784331
0.0726511
0.0676104
0.0630047
0.0586598
0.0545413
0.0506411
0.0469866
0.0435774
0.0404329
0.0375298
0.0348764
0.0324367
0.0302195
0.028181
0.0263426
0.0246477
0.0231364
0.0217404
0.0205283
0.019418
0.0185395
0.0178126
0.017564
0.0178722
0.0197203
0.0230642
0.028149
0.0324148
0.0363058
0.0389604
0.0429992
0.048082
0.0561098
0.0636018
0.06925
0.0700185
0.0682212
0.0640927
0.0613937
0.0589275
0.0575439
0.0545617
0.0519504
0.0496326
0.0493391
0.0455945
0.0430334
0.041326
0.0408143
0.0392989
0.0384968
0.0386917
0.0415063
0.0458086
0.0499352
0.0518972
0.0523186
0.0515421
0.0504709
0.049085
0.047758
0.0463803
0.0452702
0.0445598
0.0448818
0.0470943
0.0523763
0.0603966
0.0688069
0.0752041
0.0788958
0.0802159
0.0798381
0.0783301
0.0761389
0.0735616
0.0708097
0.0680262
0.0653048
0.0627169
0.0602934
0.0580751
0.056053
0.0542591
0.0526547
0.0512826
0.0500718
0.0491013
0.0482457
0.0476935
0.0471876
0.157786
0.148006
0.137314
0.123865
0.110808
0.0993554
0.0899798
0.0823967
0.0761172
0.0706286
0.065627
0.0609428
0.0565402
0.0524067
0.0485609
0.0449953
0.0417208
0.0387097
0.035964
0.0334464
0.031161
0.029065
0.0271754
0.0254391
0.0238914
0.0224699
0.0212385
0.0201252
0.0192586
0.0185798
0.0184358
0.0189557
0.0211531
0.0248836
0.0301335
0.0343738
0.0381107
0.0407201
0.0446834
0.0498105
0.057812
0.0653839
0.0710119
0.0718082
0.0699213
0.0657817
0.0630031
0.0605577
0.0590646
0.0560556
0.0533214
0.05092
0.0504888
0.0470201
0.04457
0.0428333
0.0420837
0.0403807
0.0393725
0.0394861
0.0423747
0.0469886
0.0513695
0.0534315
0.0538127
0.0529733
0.0518194
0.0503706
0.0489765
0.0475492
0.0463911
0.0456565
0.0459792
0.0482504
0.0536515
0.061825
0.0703584
0.0768332
0.0805575
0.081879
0.081477
0.0799281
0.0776838
0.0750467
0.0722319
0.0693852
0.0666034
0.0639583
0.0614839
0.059219
0.0571587
0.0553305
0.053702
0.0523082
0.0510891
0.0501098
0.0492663
0.0487174
0.0482496
0.164902
0.155295
0.144283
0.130238
0.116442
0.104289
0.0942966
0.0861679
0.079396
0.0734646
0.0680735
0.0630577
0.0583796
0.0540218
0.0499939
0.0462806
0.0428844
0.039773
0.0369421
0.0343532
0.0320057
0.0298579
0.0279226
0.0261499
0.0245708
0.0231288
0.0218838
0.0207739
0.0199281
0.0193092
0.0192876
0.0200389
0.0225886
0.0266622
0.0320035
0.0361706
0.0397388
0.0422937
0.0461763
0.05133
0.0592921
0.0669295
0.07254
0.0733719
0.0714136
0.0672767
0.0644304
0.0620067
0.0604091
0.0573752
0.0545278
0.0520416
0.0514765
0.0482846
0.0459532
0.044192
0.0432157
0.0413352
0.0401289
0.0401616
0.0431223
0.0480404
0.0526612
0.0548134
0.0551537
0.0542552
0.0530242
0.0515172
0.0500605
0.048587
0.0473833
0.0466241
0.046943
0.0492598
0.0547556
0.0630526
0.0716859
0.0782258
0.0819793
0.0833045
0.0828839
0.0813019
0.0790131
0.076325
0.0734559
0.0705541
0.0677194
0.0650241
0.062505
0.0601991
0.0581052
0.0562469
0.0545978
0.0531853
0.0519601
0.0509742
0.0501441
0.0496
0.0491707
0.171882
0.162383
0.151042
0.136395
0.121862
0.109016
0.0984144
0.0897461
0.0824874
0.0761197
0.070347
0.0650087
0.0600649
0.0554925
0.0512918
0.0474398
0.04393
0.0407259
0.037817
0.0351631
0.0327595
0.0305653
0.0285895
0.0267853
0.02518
0.0237227
0.0224701
0.0213706
0.0205553
0.0200089
0.020128
0.0211285
0.0240261
0.0283917
0.0337563
0.0378109
0.0412004
0.0436926
0.0474892
0.0526521
0.0605617
0.0682506
0.0738461
0.0747213
0.072709
0.0685877
0.065685
0.0632833
0.0615862
0.0585296
0.0555782
0.0530059
0.0523112
0.0493959
0.0471904
0.0454086
0.0442166
0.0421683
0.0407723
0.0407249
0.0437543
0.0489663
0.0538126
0.0560466
0.0563468
0.0553938
0.0540915
0.0525312
0.0510165
0.0494999
0.0482528
0.0474689
0.0477792
0.0501283
0.0556948
0.0640867
0.0727983
0.079392
0.0831718
0.0845033
0.0840701
0.0824623
0.0801373
0.0774066
0.0744916
0.0715426
0.0686623
0.0659234
0.0633654
0.0610237
0.0589009
0.0570163
0.0553498
0.0539214
0.0526923
0.0517017
0.050886
0.0503481
0.0499577
0.178746
0.169294
0.157611
0.142351
0.127078
0.113541
0.102335
0.0931324
0.0853928
0.0785963
0.0724511
0.0668004
0.0616013
0.0568246
0.0524607
0.0484789
0.0448639
0.0415745
0.0385943
0.0358817
0.0334278
0.0311926
0.0291815
0.0273508
0.0257244
0.024257
0.0230034
0.0219216
0.0211474
0.0206872
0.0209657
0.0222304
0.0254636
0.0300656
0.035391
0.0393014
0.0425057
0.044928
0.0486328
0.0537877
0.0616316
0.0693584
0.0749412
0.0758672
0.0738175
0.0697243
0.0667754
0.0643962
0.0626043
0.0595272
0.0564805
0.0538213
0.0530012
0.0503617
0.0482883
0.0464896
0.0450925
0.0428862
0.0413089
0.0411822
0.0442757
0.049769
0.0548262
0.0571354
0.0573975
0.0563953
0.0550276
0.0534187
0.0518503
0.0502939
0.0490055
0.0481963
0.0484935
0.0508618
0.0564755
0.0649348
0.0737039
0.0803412
0.0841452
0.0854856
0.0850455
0.0834195
0.0810663
0.0783013
0.0753482
0.0723596
0.0694406
0.0666644
0.0640733
0.0617007
0.0595532
0.0576461
0.0559652
0.0545235
0.0532925
0.0522989
0.0514987
0.0509682
0.0506166
0.185508
0.176051
0.164009
0.148121
0.132098
0.11787
0.106062
0.0963288
0.0881143
0.0808974
0.0743898
0.0684376
0.0629942
0.0580237
0.0535065
0.0494038
0.0456917
0.0423244
0.0392795
0.0365144
0.0340158
0.0317448
0.0297035
0.0278513
0.0262091
0.0247373
0.0234894
0.0224336
0.021712
0.0213526
0.0218093
0.0233501
0.0268989
0.031678
0.0369089
0.0406499
0.0436647
0.0460102
0.0496172
0.0547472
0.062512
0.0702633
0.0758353
0.0768196
0.0747485
0.0706951
0.0677097
0.0653533
0.0634713
0.0603757
0.0572422
0.0544954
0.0535546
0.0511893
0.0492538
0.0474412
0.0458496
0.0434946
0.0417446
0.0415395
0.0446911
0.0504511
0.0557049
0.058084
0.0583114
0.0572653
0.0558381
0.0541855
0.0525676
0.0509744
0.0496469
0.048812
0.0490912
0.0514657
0.0571038
0.0656039
0.0744112
0.0810825
0.0849087
0.0862611
0.0858199
0.0841827
0.0818093
0.0790178
0.0760344
0.0730134
0.0700623
0.0672549
0.064636
0.0622373
0.0600691
0.0581431
0.0564506
0.0549981
0.0537668
0.0527719
0.0519881
0.051466
0.0511533
0.192178
0.182673
0.170254
0.153719
0.136935
0.122011
0.1096
0.0993386
0.0906551
0.0830266
0.0761673
0.0699251
0.0642489
0.0590954
0.0544348
0.0502202
0.0464189
0.0429808
0.0398779
0.037066
0.0345284
0.0322268
0.0301603
0.0282916
0.0266392
0.0251689
0.0239341
0.0229133
0.0222567
0.022014
0.0226675
0.0244919
0.028329
0.0332247
0.0383126
0.041864
0.0446868
0.046949
0.0504518
0.0555401
0.0632122
0.0709749
0.076538
0.0775877
0.0755105
0.0715084
0.0684953
0.0661619
0.0641944
0.0610828
0.0578703
0.0550355
0.0539788
0.0518854
0.0500933
0.0482699
0.0464939
0.0439994
0.0420851
0.0418027
0.0450051
0.0510154
0.056452
0.0588971
0.0590937
0.0580096
0.0565287
0.054837
0.0531737
0.0515467
0.050182
0.049321
0.0495775
0.0519456
0.0575857
0.0661011
0.074928
0.0816244
0.0854715
0.0868388
0.0864022
0.0847609
0.0823748
0.0795645
0.0765582
0.0735116
0.070535
0.0677021
0.0650605
0.0626402
0.0604553
0.0585135
0.0568122
0.055351
0.0541212
0.0531264
0.0523596
0.0518468
0.0515729
0.198763
0.189175
0.176364
0.159161
0.1416
0.125971
0.112954
0.102166
0.0930192
0.0849882
0.0777884
0.0712682
0.0653708
0.0600452
0.0552511
0.0509332
0.0470508
0.0435489
0.0403943
0.0375415
0.0349702
0.0326431
0.0305566
0.0286766
0.0270196
0.0255571
0.0243436
0.0233677
0.02279
0.0226806
0.0235485
0.0256595
0.0297506
0.0347026
0.0396056
0.042952
0.0455812
0.0477537
0.0511456
0.0561757
0.0637415
0.0715025
0.0770581
0.0781802
0.0761119
0.0721716
0.0691393
0.0668292
0.0647806
0.0616553
0.0583715
0.0554486
0.0542809
0.0524568
0.0508127
0.0489815
0.0470313
0.044406
0.0423361
0.0419773
0.0452222
0.051465
0.0570706
0.0595791
0.0597497
0.0586334
0.0571048
0.0553783
0.0536737
0.0520158
0.0506158
0.0497283
0.0499576
0.0523067
0.0579273
0.0664332
0.0752619
0.0819752
0.0858419
0.0872274
0.0868009
0.0851624
0.0827708
0.0799492
0.0769271
0.0738617
0.0708656
0.0680128
0.0653534
0.0629158
0.0607177
0.0587634
0.0570556
0.055588
0.0543609
0.0533675
0.0526184
0.0521156
0.0518804
0.205265
0.195572
0.182354
0.16446
0.146104
0.129759
0.116131
0.104816
0.095211
0.086787
0.0792582
0.0724721
0.0663654
0.0608785
0.0559606
0.0515483
0.0475923
0.0440335
0.0408334
0.0379453
0.0353457
0.0329982
0.030897
0.0290109
0.0273554
0.0259078
0.0247242
0.0238043
0.0233205
0.0233618
0.0244606
0.0268555
0.0311602
0.0361097
0.0407925
0.0439216
0.0463565
0.048433
0.0517071
0.0566626
0.0641083
0.0718549
0.077404
0.0786052
0.07656
0.0726919
0.0696484
0.0673617
0.0652365
0.0620999
0.0587521
0.0557413
0.054468
0.0529095
0.0514179
0.049582
0.0474672
0.0447199
0.0425029
0.0420687
0.0453468
0.0518028
0.0575646
0.0601348
0.0602846
0.0591421
0.0575713
0.0558146
0.0540725
0.0523864
0.0509531
0.0500385
0.0502361
0.0525543
0.0581344
0.0666071
0.0754207
0.0821429
0.0860283
0.087435
0.0870242
0.085395
0.0830052
0.0801794
0.0771482
0.0740706
0.0710608
0.0681934
0.0655209
0.0630701
0.0608622
0.0588982
0.0571864
0.0557141
0.0544913
0.0535005
0.0527694
0.0522773
0.0520804
0.211686
0.201875
0.188238
0.169631
0.150459
0.133384
0.119136
0.107293
0.0972359
0.0884281
0.080582
0.0735422
0.0672379
0.0616006
0.0565686
0.0520703
0.0480483
0.0444394
0.0411998
0.038282
0.0356594
0.0332966
0.031186
0.0292995
0.027652
0.0262266
0.0250829
0.0242311
0.0238576
0.0240677
0.0254115
0.0280814
0.0325541
0.037445
0.0418782
0.0447809
0.0470211
0.0489953
0.0521442
0.0570093
0.0643211
0.0720404
0.0775837
0.0788705
0.076862
0.073076
0.0700289
0.0677657
0.0655684
0.0624229
0.059018
0.0559197
0.0545467
0.0532498
0.0519143
0.0500768
0.047807
0.0449461
0.0425907
0.0420821
0.0453832
0.0520322
0.0579377
0.0605688
0.0607035
0.0595406
0.0579333
0.0561504
0.0543747
0.0526632
0.0511983
0.0502562
0.0504179
0.0526936
0.058213
0.0666296
0.0754117
0.0821353
0.0860385
0.0874695
0.0870797
0.0854663
0.0830852
0.080262
0.0772285
0.0741447
0.0711269
0.0682501
0.0655688
0.0631087
0.0608943
0.0589234
0.0572096
0.0557346
0.0545171
0.0535299
0.0528172
0.0523363
0.0521772
0.218023
0.208092
0.194028
0.174688
0.154678
0.136856
0.121979
0.109605
0.0990994
0.089917
0.0817651
0.0744839
0.0679938
0.0622167
0.0570802
0.0525043
0.0484236
0.044771
0.0414979
0.0385559
0.0359155
0.0335428
0.0314282
0.0295472
0.0279147
0.0265199
0.0254271
0.0246568
0.0244114
0.0248083
0.0264084
0.0293381
0.0339289
0.0387086
0.0428681
0.0455375
0.0475827
0.0494483
0.0524649
0.0572238
0.0643879
0.0720673
0.0776048
0.0789832
0.0770247
0.0733301
0.0702867
0.0680472
0.0657822
0.0626304
0.059175
0.05599
0.0545235
0.0534833
0.0523073
0.0504713
0.0480559
0.0450898
0.0426044
0.0420226
0.0453355
0.0521565
0.0581939
0.0608859
0.0610112
0.0598339
0.0581954
0.0563906
0.0545848
0.0528504
0.0513558
0.0503858
0.0505076
0.0527297
0.0581692
0.0665076
0.0752423
0.0819601
0.0858802
0.0873385
0.0869749
0.0853836
0.0830179
0.0802039
0.0771745
0.0740905
0.0710702
0.0681886
0.0655029
0.0630371
0.0608194
0.0588442
0.0571304
0.0556543
0.0544431
0.0534604
0.0527663
0.0522969
0.0521752
0.224274
0.214231
0.199738
0.179644
0.158774
0.140186
0.124666
0.111758
0.100808
0.0912597
0.0828134
0.0753028
0.0686384
0.0627321
0.0575003
0.052855
0.0487229
0.0450329
0.0417322
0.0387714
0.0361186