/*--------------------------------*- C++ -*----------------------------------*\
| =========                 |                                                 |
| \\      /  F ield         | OpenFOAM: The Open Source CFD Toolbox           |
|  \\    /   O peration     | Version:  2412                                  |
|   \\  /    A nd           | Website:  www.openfoam.com                      |
|    \\/     M anipulation  |                                                 |
\*---------------------------------------------------------------------------*/
FoamFile
{
    version     2.0;
    format      ascii;
    arch        "LSB;label=32;scalar=64";
    class       volScalarField;
    location    "0.3";
    object      p;
}
// * * * * * * * * * * * * * * * * * * * * * * * * * * * * * * * * * * * * * //

dimensions      [0 2 -2 0 0 0 0];

internalField   nonuniform List<scalar> 
13156
(
122487
114447
113427
112676
111795
111188
110768
110445
110231
110056
109913
109754
109598
109411
109225
108999
108779
108499
108237
107892
107580
107151
106782
106236
105804
105108
104609
103712
103154
101974
101393
99811.5
99280.3
97096.3
96782.3
93651.2
93870.8
89163.1
90515
83174.6
86742.2
75125.6
82817.5
64653
78832.7
51193.4
74388.6
32133.4
66884.2
253.225
53008.5
-55988.1
17759.1
-276717
-23178.3
-70254.3
7555.31
-39169.6
14876.1
-11427.6
24778.7
10678.4
33944.7
25722.3
40754.1
36781.6
46865.5
45302
51977.3
51606.4
56026.2
56258.6
59219.2
59734.6
61820.7
62527.6
64223.1
65137.3
66633.8
67633.4
68926.9
69888.9
70945.1
71812.4
72637.8
73404.3
74033.6
74718.3
75183.9
75841.8
76154
76833.3
76991.4
77774.9
77733.9
78768.9
78395.2
79981.1
78885.6
120533
113876
113299
112647
111780
111176
110759
110438
110225
110052
109909
109751
109595
109408
109221
108995
108775
108495
108233
107887
107574
107145
106776
106229
105797
105101
104601
103703
103145
101963
101383
99799.6
99267.9
97082.6
96768.1
93635.6
93854.3
89145.3
90495.7
83154.3
86719.4
75103.4
82791.5
64630.1
78804.3
51169.6
74354.6
32102.3
66834.4
207.567
52934.3
-56074.8
17723.6
-275502
-23018.9
-70386.3
7524.39
-39178.2
14858.4
-11439.6
24761.2
10664.8
33929
25711.1
40742.8
36772.7
46857.1
45294.7
51970.6
51600.4
56020.8
56253.5
59214.8
59730.4
61817
62523.8
64219.3
65133.3
66629.7
67629.3
68922.9
69885.1
70941.6
71809.1
72634.7
73401.4
74030.8
74716
75181.4
75839.6
76151.7
76831.4
76989
77773
77731.1
78767.3
78391.7
79979.8
78881.3
120181
114009
113343
112646
111770
111167
110752
110433
110222
110049
109907
109748
109592
109405
109218
108992
108772
108491
108229
107883
107570
107140
106770
106223
105791
105094
104594
103695
103137
101954
101373
99788.3
99257
97069.6
96755.6
93620.3
93839.7
89127.3
90477.9
83133.1
86696.4
75078.1
82759.7
64601
78766.7
51138.4
74309.1
32061
66767.5
147.333
52834.7
-56194.1
17662.5
-274074
-22876.7
-70537.6
7496.24
-39190.4
14834.5
-11455.3
24736.7
10645.8
33907
25696.1
40728.3
36762
46847.5
45286.5
51963.5
51593.9
56015.3
56248.2
59210.4
59726
61813.3
62519.9
64215.2
65128.4
66624.8
67624.2
68918
69880.6
70937.5
71805.4
72631.4
73398.5
74028
74713.7
75178.9
75837.7
76149.3
76829.8
76986.4
77771.9
77727.9
78766.9
78387.1
79980.6
78875.3
120122
114100
113339
112625
111755
111157
110746
110428
110219
110047
109905
109746
109590
109402
109216
108989
108769
108487
108225
107879
107566
107135
106766
106218
105786
105087
104588
103688
103130
101945
101365
99777.8
99247.6
97057.3
96744.9
93605.9
93827.5
89110.4
90463.1
83113.2
86676.2
75053.6
82729.7
64572
78730.2
51107.4
74265
32020.3
66701.9
88.4694
52736.5
-56313.6
17584.2
-272751
-22724.8
-70668
7477.86
-39201.3
14814.9
-11468.8
24715.7
10628.2
33887.5
25682.1
40715.9
36752.7
46839.8
45279.7
51958
51588.6
56010.9
56243.7
59207
59722.5
61810.7
62516.8
64212.1
65124.5
66620.6
67619.8
68913.7
69876.7
70933.8
71802.2
72628.4
73395.9
74025.4
74711.8
75176.6
75836.1
76147
76828.6
76983.9
77771
77724.6
78766.9
78382.2
79982.4
78868.5
119792
114066
113316
112604
111743
111148
110739
110423
110215
110044
109902
109744
109587
109399
109213
108986
108765
108484
108221
107875
107561
107130
106761
106212
105780
105081
104581
103680
103122
101936
101357
99767
99238.5
97044.7
96734.8
93591
93816.1
89092.8
90449.1
83092.3
86656.5
75027.8
82700.9
64542.4
78695.5
51076
74223
31979.2
66638.8
28.6449
52640.5
-56434.5
17496.1
-271443
-22539.7
-70790.1
7464.49
-39210.9
14799.1
-11481.3
24697.6
10611.8
33870.6
25669.6
40705.7
36744.6
46833.7
45273.8
51953.5
51583.8
56007.4
56239.8
59204.3
59719.5
61808.7
62514.4
64209.8
65121.1
66617.1
67615.8
68910
69873.1
70930.6
71799.4
72625.7
73393.6
74023
74710
75174.5
75834.6
76144.9
76827.4
76981.4
77770.3
77721.3
78767.2
78377.3
79984.6
78861.3
119475
114040
113310
112582
111729
111138
110731
110418
110212
110041
109900
109741
109585
109397
109210
108982
108762
108480
108217
107870
107557
107125
106756
106206
105774
105074
104575
103672
103115
101926
101349
99755.8
99229.6
97031.6
96725
93575.4
93804.8
89074
90434.7
83069.4
86636.1
75000.3
82672.1
64512
78661.7
51044
74182
31937.1
66576.6
-33.0166
52545
-56557.6
17410.1
-270114
-22334.6
-70911.3
7453.15
-39220.4
14784.4
-11494.3
24680.1
10595.7
33855
25657.7
40696.6
36736.9
46828.2
45268
51949.4
51579.2
56004.1
56235.9
59201.7
59716.5
61806.8
62512.1
64207.6
65117.9
66613.8
67612
68906.4
69869.7
70927.5
71796.5
72623.1
73391.3
74020.7
74708.3
75172.3
75833.1
76142.6
76826.3
76978.9
77769.6
77717.8
78767.4
78372.1
79987
78853.8
119211
114012
113305
112557
111714
111127
110724
110412
110208
110038
109898
109739
109583
109394
109207
108979
108758
108476
108213
107866
107553
107120
106750
106200
105769
105066
104568
103663
103108
101916
101341
99744.3
99220.6
97018
96715.2
93559
93793.2
89054
90419.7
83045
86615.1
74971.5
82643.5
64481.3
78628.6
51011.9
74141.8
31894.8
66515.3
-95.2179
52450.3
-56680.1
17330.6
-268778
-22120.7
-71031
7443.21
-39230.1
14769.8
-11508.1
24662.5
10579.4
33840
25646.1
40688.1
36729.4
46822.9
45262.1
51945.4
51574.4
56000.9
56232
59199.2
59713.5
61805
62509.7
64205.4
65114.6
66610.4
67608.2
68902.8
69866.2
70924.3
71793.7
72620.4
73389
74018.3
74706.5
75170.1
75831.5
76140.4
76825.1
76976.2
77768.9
77714.3
78767.7
78366.8
79989.5
78846
118957
113976
113298
112530
111699
111116
110716
110406
110204
110036
109895
109736
109580
109391
109204
108976
108755
108472
108209
107861
107548
107115
106745
106194
105763
105059
104562
103655
103100
101906
101333
99732.4
99211.6
97003.9
96705.2
93541.8
93781.2
89032.7
90404.1
83019.4
86593.9
74942.3
82615.5
64450.6
78596.3
50980
74102.6
31852.8
66455.1
-157
52357
-56800
17257.4
-267445
-21901.9
-71148.4
7434.35
-39240.3
14755.2
-11522.5
24644.9
10563.1
33825.6
25634.9
40680.1
36722
46817.9
45256.2
51941.4
51569.6
55997.6
56228
59196.6
59710.4
61803.2
62507.2
64203.1
65111.2
66606.9
67604.3
68899.1
69862.7
70921.1
71790.8
72617.8
73386.7
74015.9
74704.7
75167.8
75830
76138.1
76823.9
76973.5
77768.2
77710.7
78768
78361.3
79992
78838
118709
113937
113289
112503
111684
111105
110708
110401
110201
110033
109893
109734
109578
109388
109201
108972
108751
108468
108205
107857
107544
107109
106740
106187
105757
105052
104555
103646
103093
101896
101324
99720.2
99202.4
96989.4
96695
93523.8
93768.6
89010.4
90388.2
82993
86572.9
74912.8
82588.2
64420.3
78565
50948.5
74064.5
31811.3
66396.3
-217.999
52265.3
-56916.4
17190.1
-266118
-21680.2
-71263.8
7426.17
-39251
14740.6
-11537.7
24627.2
10546.7
33811.9
25624.2
40672.6
36714.6
46812.8
45250.1
51937.3
51564.6
55994.3
56223.8
59194
59707.2
61801.3
62504.6
64200.6
65107.7
66603.4
67600.4
68895.4
69859.1
70917.9
71787.9
72615
73384.3
74013.4
74702.9
75165.5
75828.4
76135.7
76822.7
76970.8
77767.4
77706.9
78768.2
78355.7
79994.6
78829.7
118472
113900
113278
112476
111669
111094
110700
110395
110197
110030
109891
109732
109575
109385
109198
108969
108748
108465
108202
107852
107539
107104
106735
106181
105751
105045
104549
103637
103086
101886
101316
99707.9
99193.3
96974.6
96684.5
93505.1
93755.8
88987.6
90372.2
82966.2
86552.1
74883.3
82561.6
64390.3
78534.6
50917.5
74027.4
31770.4
66338.8
-278.065
52175.3
-57029.1
17128.2
-264797
-21457.1
-71377.7
7418.33
-39262.5
14725.7
-11553.6
24609.5
10530.5
33798.8
25613.7
40665.5
36707.2
46807.8
45243.8
51933.1
51559.4
55990.9
56219.5
59191.3
59703.9
61799.2
62501.8
64198
65104.1
66599.8
67596.3
68891.6
69855.5
70914.6
71784.9
72612.2
73381.9
74010.9
74701
75163.1
75826.8
76133.2
76821.4
76967.9
77766.6
77703
78768.4
78349.9
79997.3
78821.2
118245
113862
113266
112449
111654
111083
110692
110389
110193
110027
109888
109729
109573
109383
109196
108966
108745
108461
108198
107848
107535
107099
106730
106175
105745
105037
104542
103628
103078
101875
101308
99695.5
99184.2
96959.5
96673.9
93485.9
93742.8
88964.3
90356.4
82939.3
86531.8
74854
82535.8
64360.8
78505.1
50887
73991.3
31730.3
66282.6
-337.112
52086.9
-57138
17071.5
-263483
-21233.9
-71490.5
7410.57
-39274.7
14710.4
-11570.2
24591.8
10514.2
33786.3
25603.6
40658.6
36699.7
46802.7
45237.3
51928.8
51554
55987.4
56215.1
59188.5
59700.4
61797
62498.8
64195.2
65100.2
66596
67592.2
68887.7
69851.8
70911.3
71781.9
72609.4
73379.4
74008.4
74699
75160.7
75825.1
76130.7
76820.1
76965
77765.8
77699.1
78768.5
78344
79999.9
78812.5
118029
113825
113253
112422
111639
111072
110684
110384
110190
110024
109886
109727
109570
109380
109193
108963
108742
108457
108194
107843
107531
107094
106725
106169
105740
105030
104536
103620
103071
101865
101300
99683.1
99175.1
96944.1
96663.3
93466.5
93730
88941
90340.8
82912.4
86511.9
74824.9
82510.8
64331.8
78476.4
50857.1
73956.1
31690.8
66227.5
-395.096
52000.1
-57242.9
17019.8
-262175
-21011.6
-71602.5
7402.72
-39287.8
14694.8
-11587.4
24574
10498
33774.2
25593.7
40652
36692.1
46797.4
45230.6
51924.4
51548.4
55983.8
56210.5
59185.6
59696.8
61794.7
62495.6
64192.2
65096.2
66592.2
67588
68883.8
69848.1
70907.9
71778.8
72606.5
73376.9
74005.7
74697
75158.2
75823.3
76128.2
76818.7
76962
77764.9
77695
78768.6
78338
80002.4
78803.7
117821
113789
113239
112395
111624
111060
110676
110378
110186
110022
109884
109725
109568
109377
109190
108960
108738
108453
108191
107839
107527
107089
106720
106163
105734
105023
104529
103611
103064
101855
101292
99670.6
99166.1
96928.7
96652.6
93446.9
93717.3
88917.7
90325.6
82885.6
86492.6
74796
82486.4
64303.2
78448.6
50827.8
73921.9
31652.1
66173.6
-452.004
51914.9
-57343.9
16972.6
-260875
-20790.5
-71713.7
7394.67
-39301.7
14678.8
-11605.3
24556.2
10481.9
33762.6
25584
40645.5
36684.4
46792.1
45223.6
51919.8
51542.7
55980
56205.8
59182.6
59693
61792.2
62492.1
64189
65092
66588.2
67583.6
68879.8
69844.2
70904.4
71775.7
72603.6
73374.3
74003.1
74695
75155.7
75821.6
76125.5
76817.3
76959
77764
77690.9
78768.6
78331.9
80005
78794.7
117621
113753
113223
112368
111610
111049
110668
110373
110183
110019
109882
109722
109566
109375
109188
108957
108735
108450
108187
107835
107522
107084
106715
106157
105729
105016
104523
103603
103057
101845
101284
99658.1
99157.1
96913.1
96642
93427.2
93704.8
88894.5
90310.7
82859
86473.7
74767.5
82462.8
64275.1
78421.6
50799
73888.5
31614.1
66120.9
-507.847
51831.1
-57441
16929.8
-259583
-20571.1
-71824.3
7386.34
-39316.5
14662.3
-11623.8
24538.3
10465.8
33751.5
25574.5
40639.2
36676.5
46786.6
45216.5
51915
51536.8
55976.1
56200.9
59179.5
59689.1
61789.5
62488.5
64185.6
65087.7
66584.1
67579.2
68875.7
69840.4
70900.9
71772.5
72600.6
73371.7
74000.3
74692.9
75153.1
75819.8
76122.9
76815.9
76955.8
77763
77686.7
78768.6
78325.6
80007.5
78785.7
117429
113717
113206
112341
111595
111037
110660
110367
110179
110016
109880
109720
109564
109372
109185
108954
108732
108446
108183
107831
107518
107079
106711
106151
105723
105009
104517
103594
103050
101835
101276
99645.6
99148.2
96897.4
96631.5
93407.6
93692.7
88871.4
90296.3
82832.6
86455.3
74739.3
82439.8
64247.4
78395.2
50770.7
73856
31576.9
66069.1
-562.648
51748.8
-57534.4
16891.1
-258298
-20353.4
-71934.4
7377.7
-39332.1
14645.5
-11642.8
24520.5
10449.7
33740.7
25565.2
40632.9
36668.5
46781
45209.1
51910.1
51530.7
55972.2
56195.8
59176.2
59685
61786.7
62484.7
64182.1
65083.2
66579.8
67574.7
68871.6
69836.4
70897.3
71769.3
72597.6
73369
73997.6
74690.8
75150.5
75817.9
76120.1
76814.4
76952.7
77762
77682.4
78768.5
78319.3
80010
78776.5
117245
113681
113189
112315
111580
111026
110652
110362
110176
110014
109878
109718
109561
109370
109182
108951
108729
108443
108180
107827
107514
107074
106706
106145
105718
105002
104511
103586
103043
101824
101268
99633.1
99139.4
96881.7
96621
93388.1
93680.8
88848.6
90282.2
82806.4
86437.4
74711.3
82417.4
64220.2
78369.6
50742.9
73824.2
31540.3
66018.4
-616.437
51667.8
-57624.2
16856.2
-257021
-20137.6
-72043.8
7368.73
-39348.5
14628.3
-11662.3
24502.6
10433.6
33730.3
25555.9
40626.6
36660.2
46775.2
45201.5
51905.1
51524.4
55968
56190.7
59172.9
59680.8
61783.7
62480.7
64178.3
65078.5
66575.5
67570
68867.3
69832.4
70893.7
71766
72594.5
73366.3
73994.8
74688.6
75147.8
75816.1
76117.4
76812.9
76949.4
77760.9
77678
78768.4
78312.8
80012.4
78767.2
117067
113646
113170
112288
111565
111015
110644
110356
110172
110011
109876
109716
109559
109367
109180
108948
108726
108439
108177
107823
107511
107069
106701
106140
105713
104995
104505
103577
103036
101814
101260
99620.6
99130.6
96865.9
96610.7
93368.6
93669.2
88826
90268.5
82780.5
86419.9
74683.7
82395.6
64193.4
78344.6
50715.6
73793.2
31504.3
65968.6
-669.247
51588.2
-57710.4
16824.8
-255752
-19923.7
-72152.5
7359.44
-39365.7
14610.7
-11682.3
24484.8
10417.6
33720.2
25546.7
40620.3
36651.8
46769.2
45193.7
51899.9
51518
55963.8
56185.4
59169.5
59676.4
61780.6
62476.4
64174.4
65073.7
66571
67565.3
68863
69828.3
70890
71762.7
72591.4
73363.6
73991.9
74686.4
75145.1
75814.1
76114.6
76811.3
76946.2
77759.8
77673.6
78768.1
78306.3
80014.7
78757.8
116895
113611
113150
112262
111550
111003
110636
110351
110169
110009
109874
109714
109557
109365
109177
108945
108723
108436
108173
107819
107507
107064
106697
106134
105707
104988
104499
103569
103029
101804
101253
99608.1
99121.8
96850.1
96600.5
93349.3
93657.9
88803.6
90255.1
82754.8
86402.8
74656.4
82374.3
64167
78320.1
50688.7
73762.9
31469.1
65919.8
-721.111
51509.8
-57793.2
16796.9
-254492
-19711.6
-72260.5
7349.85
-39383.6
14592.8
-11702.7
24467
10401.6
33710.3
25537.5
40613.9
36643.3
46763.1
45185.8
51894.6
51511.5
55959.5
56180
59165.9
59671.9
61777.3
62472
64170.3
65068.7
66566.4
67560.5
68858.6
69824.1
70886.3
71759.3
72588.2
73360.8
73989.1
74684.2
75142.4
75812.2
76111.7
76809.8
76942.8
77758.6
77669.1
78767.9
78299.6
80017
78748.3
116729
113576
113129
112235
111536
110992
110628
110346
110166
110007
109872
109712
109555
109362
109175
108942
108720
108433
108170
107815
107503
107059
106693
106128
105702
104981
104493
103561
103023
101794
101245
99595.6
99113.1
96834.2
96590.5
93330.1
93646.8
88781.4
90242
82729.3
86386.1
74629.3
82353.6
64140.9
78296.3
50662.3
73733.2
31434.4
65871.8
-772.063
51432.6
-57872.7
16772.1
-253239
-19501.4
-72367.7
7339.98
-39402.2
14574.6
-11723.5
24449.2
10385.6
33700.6
25528.3
40607.6
36634.5
46756.8
45177.6
51889.2
51504.8
55955.1
56174.5
59162.3
59667.3
61773.9
62467.5
64166
65063.6
66561.7
67555.6
68854.2
69819.9
70882.5
71755.9
72585
73358
73986.2
74681.9
75139.6
75810.2
76108.8
76808.2
76939.4
77757.5
77664.5
78767.6
78292.9
80019.3
78738.8
116569
113541
113108
112209
111521
110980
110621
110340
110163
110004
109870
109710
109553
109360
109173
108939
108717
108429
108167
107811
107499
107055
106688
106123
105697
104974
104487
103552
103016
101784
101238
99583.1
99104.4
96818.4
96580.6
93311.1
93636
88759.4
90229.3
82704.1
86369.8
74602.6
82333.3
64115.2
78273
50636.3
73704.2
31400.4
65824.6
-822.133
51356.6
-57948.9
16750.4
-251995
-19293
-72474
7329.86
-39421.4
14556.1
-11744.8
24431.4
10369.6
33691.2
25519.1
40601.1
36625.5
46750.4
45169.3
51883.6
51498
55950.6
56168.9
59158.6
59662.6
61770.3
62462.7
64161.6
65058.3
66556.8
67550.5
68849.6
69815.6
70878.7
71752.4
72581.8
73355.2
73983.2
74679.6
75136.8
75808.2
76105.9
76806.5
76936
77756.2
77659.9
78767.2
78286.1
80021.5
78729.2
116415
113506
113085
112183
111506
110969
110613
110335
110160
110002
109868
109708
109551
109358
109170
108936
108715
108426
108163
107807
107495
107050
106684
106117
105692
104968
104482
103544
103010
101774
101230
99570.5
99095.8
96802.6
96570.8
93292.2
93625.4
88737.6
90216.8
82679.1
86353.9
74576
82313.4
64089.8
78250.1
50610.8
73675.8
31366.9
65778.2
-871.355
51281.7
-58022
16731.5
-250760
-19086.3
-72579.4
7319.54
-39441.3
14537.3
-11766.3
24413.7
10353.6
33681.8
25509.9
40594.6
36616.4
46743.9
45160.9
51878
51491
55946
56163.2
59154.8
59657.8
61766.7
62457.8
64157
65052.9
66551.9
67545.4
68845
69811.2
70874.8
71748.9
72578.5
73352.3
73980.3
74677.3
75134
75806.2
76103
76804.9
76932.6
77755
77655.2
78766.7
78279.2
80023.6
78719.5
116266
113472
113062
112158
111492
110958
110606
110330
110157
110000
109867
109706
109549
109355
109168
108933
108712
108423
108160
107803
107492
107045
106679
106112
105687
104961
104476
103536
103003
101764
101223
99557.9
99087.1
96786.8
96561.2
93273.5
93615.1
88715.9
90204.6
82654.3
86338.3
74549.8
82294
64064.8
78227.8
50585.6
73647.9
31334
65732.5
-919.755
51208
-58092.2
16715.2
-249532
-18881.3
-72683.8
7309.05
-39461.7
14518.3
-11788.2
24396.1
10337.5
33672.6
25500.6
40588
36607.1
46737.2
45152.2
51872.2
51484
55941.4
56157.5
59150.9
59652.8
61762.9
62452.8
64152.3
65047.3
66546.8
67540.2
68840.3
69806.8
70870.8
71745.3
72575.2
73349.4
73977.3
74675
75131.2
75804.2
76100
76803.2
76929.1
77753.7
77650.5
78766.2
78272.3
80025.6
78709.8
116121
113437
113038
112132
111477
110946
110598
110325
110154
109998
109865
109704
109547
109353
109166
108931
108709
108420
108157
107799
107488
107041
106675
106106
105682
104954
104470
103528
102997
101754
101216
99545.3
99078.5
96771
96551.8
93254.9
93605
88694.5
90192.7
82629.8
86323
74523.8
82274.9
64040
78205.9
50560.8
73620.7
31301.7
65687.6
-967.362
51135.3
-58159.3
16701.5
-248314
-18677.9
-72787
7298.42
-39482.7
14499
-11810.3
24378.5
10321.4
33663.5
25491.2
40581.2
36597.6
46730.3
45143.5
51866.3
51476.8
55936.6
56151.6
59146.9
59647.8
61759
62447.6
64147.5
65041.7
66541.7
67534.9
68835.5
69802.4
70866.8
71741.7
72571.8
73346.5
73974.2
74672.6
75128.3
75802.1
76097
76801.5
76925.6
77752.4
77645.8
78765.7
78265.3
80027.6
78700.1
115982
113402
113014
112107
111463
110935
110591
110320
110151
109996
109863
109702
109546
109351
109163
108928
108706
108416
108154
107795
107484
107036
106671
106101
105678
104948
104465
103520
102990
101744
101208
99532.7
99070
96755.3
96542.5
93236.5
93595.1
88673.3
90181
82605.4
86308.1
74498
82256.3
64015.5
78184.3
50536.3
73593.9
31269.9
65643.4
-1014.2
51063.6
-58223.7
16690.2
-247104
-18476.1
-72889.2
7287.7
-39504.2
14479.6
-11832.8
24360.9
10305.2
33654.4
25481.7
40574.4
36587.9
46723.3
45134.6
51860.3
51469.6
55931.8
56145.7
59142.9
59642.7
61755
62442.3
64142.5
65035.9
66536.4
67529.5
68830.7
69797.8
70862.8
71738.1
72568.4
73343.5
73971.2
74670.2
75125.4
75800.1
76093.9
76799.7
76922
77751
77640.9
78765.1
78258.2
80029.5
78690.3
115847
113368
112989
112082
111449
110924
110584
110316
110148
109994
109862
109701
109544
109349
109161
108925
108704
108413
108151
107792
107481
107032
106667
106095
105673
104941
104459
103512
102984
101734
101201
99520
99061.5
96739.6
96533.4
93218.2
93585.4
88652.2
90169.6
82581.3
86293.4
74472.5
82238
63991.3
78163.2
50512.2
73567.7
31238.6
65599.8
-1060.3
50992.9
-58285.3
16681.2
-245902
-18275.9
-72990.1
7276.92
-39526.1
14459.9
-11855.5
24343.4
10289
33645.4
25472.1
40567.4
36578.1
46716.2
45125.5
51854.3
51462.3
55927
56139.7
59138.9
59637.5
61750.9
62436.9
64137.4
65030
66531.1
67524.1
68825.8
69793.2
70858.7
71734.4
72565
73340.6
73968.1
74667.8
75122.5
75798
76090.9
76798
76918.4
77749.6
77636.1
78764.4
78251.1
80031.3
78680.4
115716
113334
112963
112057
111434
110912
110576
110311
110146
109992
109860
109699
109542
109347
109159
108923
108701
108410
108148
107788
107477
107027
106663
106090
105668
104935
104454
103504
102978
101724
101194
99507.3
99053
96723.9
96524.4
93200
93575.9
88631.3
90158.4
82557.3
86279
74447.1
82220
63967.3
78142.5
50488.4
73541.9
31207.8
65556.9
-1105.68
50923.2
-58344.1
16674.3
-244709
-18077.2
-73089.7
7266.12
-39548.4
14440.2
-11878.4
24326
10272.7
33636.4
25462.4
40560.4
36568.1
46709
45116.4
51848.1
51454.8
55922.1
56133.6
59134.8
59632.2
61746.7
62431.4
64132.2
65023.9
66525.6
67518.5
68820.8
69788.6
70854.5
71730.7
72561.6
73337.6
73965
74665.4
75119.5
75795.8
76087.8
76796.2
76914.8
77748.2
77631.2
78763.7
78243.9
80033.1
78670.5
115590
113299
112937
112032
111420
110901
110569
110306
110143
109990
109859
109697
109540
109345
109157
108920
108699
108407
108145
107784
107474
107023
106659
106085
105663
104928
104448
103496
102972
101714
101186
99494.5
99044.5
96708.4
96515.6
93182
93566.5
88610.5
90147.4
82533.6
86264.8
74422
82202.3
63943.6
78122.1
50464.9
73516.6
31177.5
65514.6
-1150.37
50854.5
-58400.4
16669.4
-243525
-17880
-73188
7255.33
-39571.2
14420.3
-11901.5
24308.6
10256.2
33627.3
25452.5
40553.1
36557.9
46701.6
45107.1
51841.9
51447.4
55917.1
56127.5
59130.6
59626.9
61742.4
62425.7
64126.9
65017.8
66520
67512.9
68815.7
69783.9
70850.4
71727
72558.1
73334.5
73961.9
74662.9
75116.5
75793.7
76084.7
76794.4
76911.1
77746.8
77626.3
78762.9
78236.7
80034.8
78660.6
115468
113265
112911
112007
111406
110890
110562
110301
110140
109988
109858
109696
109539
109343
109155
108918
108696
108404
108142
107781
107471
107019
106655
106080
105659
104922
104443
103488
102965
101704
101179
99481.7
99036.1
96692.9
96506.9
93164.1
93557.3
88589.9
90136.5
82510
86250.9
74397.1
82184.9
63920.1
78102
50441.7
73491.7
31147.7
65472.9
-1194.38
50786.7
-58454.2
16666.4
-242350
-17684.2
-73284.9
7244.59
-39594.3
14400.2
-11924.8
24291.3
10239.7
33618.2
25442.5
40545.8
36547.6
46694.2
45097.7
51835.6
51439.8
55912.1
56121.3
59126.4
59621.5
61738.1
62420
64121.5
65011.6
66514.4
67507.1
68810.6
69779.1
70846.1
71723.2
72554.6
73331.5
73958.8
74660.5
75113.6
75791.6
76081.6
76792.6
76907.5
77745.3
77621.3
78762.1
78229.4
80036.4
78650.6
115349
113231
112884
111983
111391
110879
110555
110297
110138
109987
109856
109694
109537
109341
109153
108915
108694
108401
108139
107777
107467
107014
106651
106074
105654
104915
104438
103480
102959
101694
101172
99468.9
99027.8
96677.4
96498.3
93146.3
93548.3
88569.4
90125.9
82486.6
86237.2
74372.4
82167.7
63896.7
78082.2
50418.8
73467.3
31118.3
65431.7
-1237.74
50719.7
-58505.4
16665.2
-241183
-17489.7
-73380.4
7233.92
-39617.7
14380.1
-11948.3
24274
10223
33609.1
25432.3
40538.3
36537.1
46686.6
45088.2
51829.3
51432.2
55907
56115.1
59122.1
59616.1
61733.7
62414.2
64116
65005.3
66508.6
67501.3
68805.4
69774.3
70841.8
71719.4
72551.1
73328.4
73955.6
74658
75110.6
75789.4
76078.4
76790.7
76903.8
77743.9
77616.3
78761.3
78222.1
80037.9
78640.7
115234
113197
112857
111959
111377
110868
110548
110292
110135
109985
109855
109693
109535
109339
109151
108913
108691
108398
108136
107774
107464
107010
106647
106069
105649
104909
104432
103471
102953
101684
101164
99456
99019.5
96662.1
96489.9
93128.6
93539.4
88549.1
90115.5
82463.3
86223.8
74347.9
82150.8
63873.6
78062.7
50396.2
73443.3
31089.4
65391.2
-1280.47
50653.7
-58554.3
16665.6
-240025
-17296.6
-73474.4
7223.37
-39641.5
14359.9
-11972
24256.8
10206.2
33599.8
25422
40530.6
36526.5
46678.9
45078.7
51822.8
51424.5
55901.9
56108.9
59117.9
59610.6
61729.2
62408.3
64110.4
64998.9
66502.8
67495.4
68800.2
69769.4
70837.5
71715.6
72547.5
73325.3
73952.4
74655.5
75107.5
75787.2
76075.3
76788.9
76900.1
77742.3
77611.3
78760.3
78214.7
80039.4
78630.6
115123
113163
112829
111935
111363
110857
110542
110288
110133
109983
109854
109691
109534
109337
109149
108910
108689
108396
108133
107770
107461
107006
106643
106064
105645
104902
104427
103463
102947
101673
101157
99443.1
99011.2
96646.8
96481.6
93111.1
93530.6
88528.9
90105.2
82440.2
86210.5
74323.5
82134.2
63850.7
78043.5
50373.8
73419.7
31060.9
65351.1
-1322.59
50588.5
-58600.9
16667.6
-238875
-17104.7
-73567
7212.95
-39665.5
14339.7
-11995.8
24239.7
10189.3
33590.5
25411.4
40522.8
36515.7
46671.1
45069
51816.3
51416.7
55896.8
56102.6
59113.6
59605.1
61724.7
62402.4
64104.8
64992.4
66496.8
67489.4
68794.8
69764.4
70833.2
71711.7
72543.9
73322.2
73949.2
74653
75104.5
75785
76072.1
76787
76896.3
77740.8
77606.2
78759.4
78207.3
80040.7
78620.6
115016
113129
112802
111911
111349
110847
110535
110284
110131
109982
109852
109690
109532
109335
109147
108908
108686
108393
108131
107767
107457
107002
106639
106059
105640
104896
104422
103455
102940
101663
101149
99430.2
99003
96631.6
96473.4
93093.6
93522
88508.8
90095.1
82417.3
86197.4
74299.3
82117.7
63827.9
78024.6
50351.6
73396.5
31032.9
65311.6
-1364.11
50524.1
-58645.2
16671.1
-237735
-16914.1
-73657.9
7202.72
-39689.7
14319.4
-12019.8
24222.7
10172.1
33581
25400.7
40514.9
36504.8
46663.2
45059.3
51809.8
51408.9
55891.7
56096.3
59109.2
59599.5
61720.2
62396.3
64099
64985.8
66490.8
67483.4
68789.4
69759.4
70828.7
71707.8
72540.3
73319.1
73946
74650.4
75101.5
75782.8
76068.9
76785.2
76892.6
77739.3
77601.2
78758.4
78199.8
80042
78610.5
114911
113095
112774
111887
111335
110836
110528
110279
110128
109980
109851
109688
109531
109333
109145
108906
108684
108390
108128
107763
107454
106997
106635
106054
105636
104889
104416
103447
102934
101653
101142
99417.2
98994.9
96616.4
96465.3
93076.2
93513.4
88488.9
90085.1
82394.5
86184.5
74275.3
82101.5
63805.3
78005.8
50329.7
73373.7
31005.2
65272.6
-1405.07
50460.5
-58687.4
16675.9
-236603
-16724.8
-73747.3
7192.68
-39714.2
14299.1
-12043.8
24205.7
10154.8
33571.4
25389.7
40506.8
36493.7
46655.2
45049.4
51803.2
51401.1
55886.5
56089.9
59104.9
59593.9
61715.6
62390.3
64093.2
64979.1
66484.7
67477.3
68784
69754.4
70824.3
71703.8
72536.7
73315.9
73942.8
74647.9
75098.4
75780.6
76065.7
76783.3
76888.8
77737.7
77596.1
78757.3
78192.3
80043.2
78600.4
114810
113062
112745
111864
111321
110825
110522
110275
110126
109979
109850
109687
109529
109331
109143
108903
108682
108387
108125
107760
107451
106993
106631
106048
105631
104883
104411
103439
102928
101643
101134
99404.2
98986.8
96601.3
96457.2
93059
93505
88469
90075.2
82371.9
86171.8
74251.4
82085.4
63782.8
77987.3
50308.1
73351.2
30978
65234.1
-1445.48
50397.8
-58727.4
16681.9
-235480
-16536.6
-73835
7182.87
-39738.9
14278.7
-12068
24188.8
10137.3
33561.6
25378.6
40498.6
36482.5
46647.1
45039.5
51796.6
51393.2
55881.3
56083.6
59100.6
59588.3
61711
62384.2
64087.4
64972.4
66478.6
67471.1
68778.4
69749.3
70819.8
71699.8
72533
73312.8
73939.6
74645.3
75095.3
75778.4
76062.5
76781.4
76885
77736.1
77590.9
78756.2
78184.8
80044.3
78590.2
114712
113028
112717
111841
111307
110815
110515
110271
110124
109977
109849
109686
109528
109329
109141
108901
108680
108384
108123
107757
107448
106989
106628
106043
105627
104877
104406
103431
102921
101632
101127
99391.3
98978.8
96586.3
96449.3
93041.8
93496.7
88449.3
90065.5
82349.4
86159.2
74227.6
82069.5
63760.4
77969.1
50286.6
73329.1
30951.1
65196
-1485.36
50335.8
-58765.3
16689.1
-234366
-16349.6
-73921.1
7173.33
-39763.8
14258.4
-12092.4
24172
10119.6
33551.7
25367.2
40490.2
36471.2
46639
45029.6
51789.9
51385.3
55876.1
56077.2
59096.2
59582.7
61706.4
62378
64081.5
64965.6
66472.3
67464.8
68772.9
69744.1
70815.3
71695.8
72529.3
73309.6
73936.3
74642.7
75092.2
75776.2
76059.2
76779.5
76881.2
77734.5
77585.8
78755.1
78177.2
80045.4
78580
114617
112995
112688
111818
111293
110804
110509
110267
110122
109976
109848
109684
109526
109327
109139
108899
108677
108382
108120
107753
107445
106985
106624
106038
105622
104870
104400
103423
102915
101622
101119
99378.3
98970.8
96571.4
96441.5
93024.7
93488.5
88429.7
90055.9
82327
86146.8
74204
82053.8
63738.2
77951
50265.3
73307.3
30924.6
65158.5
-1524.72
50274.6
-58801.3
16697.2
-233260
-16163.7
-74005.5
7164.07
-39788.9
14238.1
-12116.8
24155.2
10101.7
33541.6
25355.6
40481.6
36459.7
46630.8
45019.5
51783.2
51377.4
55870.9
56070.8
59091.9
59577
61701.8
62371.9
64075.5
64958.7
66466
67458.5
68767.2
69738.9
70810.7
71691.8
72525.6
73306.4
73933
74640.2
75089.1
75773.9
76056
76777.6
76877.4
77732.8
77580.6
78753.9
78169.6
80046.3
78569.8
114525
112961
112660
111795
111279
110794
110503
110263
110120
109974
109847
109683
109525
109326
109137
108897
108675
108379
108117
107750
107441
106981
106620
106033
105618
104864
104395
103414
102908
101611
101112
99365.2
98962.9
96556.5
96433.7
93007.7
93480.3
88410.1
90046.5
82304.7
86134.5
74180.5
82038.2
63716.1
77933.1
50244.2
73285.8
30898.5
65121.3
-1563.6
50214.1
-58835.3
16706.3
-232164
-15978.8
-74088.1
7155.12
-39814.1
14217.8
-12141.3
24138.6
10083.6
33531.3
25343.7
40472.9
36448.1
46622.5
45009.4
51776.5
51369.4
55865.7
56064.4
59087.5
59571.4
61697.2
62365.7
64069.6
64951.8
66459.7
67452.1
68761.5
69733.7
70806.1
71687.7
72521.9
73303.2
73929.8
74637.6
75086
75771.7
76052.8
76775.6
76873.6
77731.2
77575.5
78752.7
78162
80047.2
78559.6
114436
112928
112631
111773
111266
110784
110497
110259
110118
109973
109846
109682
109524
109324
109136
108894
108673
108376
108115
107747
107438
106977
106616
106028
105613
104857
104390
103406
102902
101600
101104
99352.2
98955.1
96541.7
96426.1
92990.7
93472.3
88390.7
90037.1
82282.6
86122.3
74157
82022.7
63694
77915.3
50223.3
73264.7
30872.7
65084.6
-1602.01
50154.4
-58867.5
16716.3
-231076
-15795.1
-74169
7146.51
-39839.4
14197.5
-12165.9
24122
10065.3
33520.8
25331.6
40464
36436.4
46614.1
44999.3
51769.8
51361.5
55860.5
56058.1
59083.2
59565.8
61692.5
62359.5
64063.6
64944.9
66453.2
67445.6
68755.7
69728.4
70801.5
71683.6
72518.1
73300
73926.5
74635
75082.9
75769.4
76049.5
76773.7
76869.8
77729.5
77570.3
78751.4
78154.3
80048
78549.3
114349
112895
112602
111751
111252
110774
110490
110255
110116
109972
109845
109681
109522
109322
109134
108892
108671
108373
108112
107743
107435
106973
106613
106023
105609
104851
104384
103397
102895
101589
101097
99339.2
98947.3
96526.9
96418.4
92973.8
93464.3
88371.3
90027.8
82260.5
86110.2
74133.7
82007.3
63672.1
77897.7
50202.6
73243.9
30847.3
65048.3
-1639.96
50095.3
-58897.8
16726.9
-229997
-15612.3
-74248.1
7138.26
-39864.9
14177.3