/*--------------------------------*- C++ -*----------------------------------*\
| =========                 |                                                 |
| \\      /  F ield         | OpenFOAM: The Open Source CFD Toolbox           |
|  \\    /   O peration     | Version:  2412                                  |
|   \\  /    A nd           | Website:  www.openfoam.com                      |
|    \\/     M anipulation  |                                                 |
\*---------------------------------------------------------------------------*/
FoamFile
{
    version     2.0;
    format      ascii;
    arch        "LSB;label=32;scalar=64";
    class       volVectorField;
    location    "0.3";
    object      U;
}
// * * * * * * * * * * * * * * * * * * * * * * * * * * * * * * * * * * * * * //

dimensions      [0 1 -1 0 0 0 0];

internalField   nonuniform List<vector> 
13156
(
(79.1638 -82.4352 -1.60981e-14)
(101.288 -24.8966 -4.62131e-17)
(113.457 14.7469 0)
(120.031 28.8611 0)
(123.925 33.2184 -2.13296e-14)
(124.699 34.454 -1.17169e-18)
(123.674 34.635 0)
(121.797 34.4545 4.43798e-14)
(119.814 34.1961 4.50651e-14)
(118.008 33.9289 0)
(116.59 33.7123 0)
(115.434 33.529 2.33763e-14)
(114.566 33.3988 -2.36631e-14)
(113.8 33.2928 3.8206e-19)
(113.245 33.2288 0)
(112.711 33.1827 2.45624e-14)
(112.449 33.2004 0)
(112.181 33.2256 -2.51679e-14)
(112.26 33.3261 5.44419e-19)
(112.287 33.4345 0)
(112.783 33.6385 0)
(113.133 33.8472 -2.60856e-14)
(114.165 34.2011 0)
(114.881 34.5233 -2.62719e-14)
(116.524 35.0428 0)
(117.603 35.4962 0)
(119.979 36.2099 0)
(121.358 36.7968 0)
(124.48 37.708 -2.57871e-14)
(126.116 38.4244 0)
(130.131 39.5681 0)
(131.879 40.4136 -1.46127e-18)
(137.081 41.8515 -2.41079e-14)
(138.629 42.7757 -2.33193e-14)
(145.431 44.5779 2.29036e-14)
(146.404 45.5435 2.18358e-14)
(155.67 47.908 0)
(156.049 49.0047 0)
(169.286 52.3837 -1.90441e-14)
(170.049 54.07 -1.67193e-14)
(189.688 59.371 1.55319e-14)
(194.251 62.8615 -1.22431e-14)
(220.488 70.3312 0)
(224.154 73.7589 0)
(249.895 80.7579 0)
(246.257 81.8655 6.3402e-15)
(274.077 88.9428 0)
(267.616 89.2984 0)
(306.555 99.2503 7.89347e-15)
(300.495 100.334 0)
(356.9 115.129 0)
(351.97 116.397 -1.26172e-14)
(502.355 167.037 1.8329e-18)
(501.432 11.6593 1.69649e-15)
(335.378 -73.485 1.13671e-15)
(296.847 -67.2922 0)
(287 -63.9671 0)
(284.636 -61.2011 2.09152e-15)
(266.011 -59.0618 4.68807e-19)
(257.727 -55.7467 0)
(245.127 -54.27 4.42743e-19)
(248.015 -53.7618 0)
(247.72 -54.4462 1.68589e-15)
(252.404 -54.6323 2.94582e-19)
(248.744 -54.4268 -2.19932e-15)
(244.745 -52.9915 2.10883e-15)
(236.604 -51.6787 5.5607e-15)
(229.197 -49.6516 2.81699e-15)
(220.922 -48.1544 3.33581e-15)
(213.813 -46.3162 -3.44531e-15)
(206.735 -44.993 -3.84986e-15)
(200.762 -43.4832 -1.80755e-19)
(195.117 -42.3961 -8.55698e-15)
(190.81 -41.3184 1.5646e-19)
(187.146 -40.6054 -4.43194e-15)
(185.263 -40.1104 4.29659e-15)
(184.338 -39.9514 4.12101e-15)
(184.381 -39.8872 -1.22426e-19)
(184.225 -39.8738 0)
(183.923 -39.7687 -3.82564e-15)
(183.024 -39.5804 0)
(181.891 -39.3031 0)
(180.291 -38.9577 -4.0956e-15)
(178.593 -38.5668 0)
(176.579 -38.1279 -4.40364e-15)
(174.583 -37.6818 -4.57504e-15)
(172.363 -37.183 4.75032e-15)
(170.274 -36.7333 0)
(167.921 -36.2223 -5.10437e-15)
(165.851 -35.7754 0)
(163.429 -35.2452 -5.44502e-15)
(161.491 -34.8357 -5.60519e-15)
(158.815 -34.2517 -5.75814e-15)
(157.155 -33.9126 0)
(153.84 -33.1845 6.03953e-15)
(152.738 -32.9833 -6.19082e-15)
(147.96 -31.9653 0)
(148.016 -32.0157 -6.45884e-15)
(141.329 -30.4531 0)
(129.337 45.2743 1.09248e-14)
(138.443 49.9663 -2.25503e-14)
(136.875 43.6696 0)
(137.86 40.219 0)
(140.092 39.6286 1.54022e-14)
(141.72 40.1875 -3.06096e-14)
(142.41 40.7222 0)
(142.123 40.9555 -1.49039e-14)
(140.969 40.8626 -1.48264e-14)
(139.352 40.5787 0)
(137.622 40.2255 -1.48343e-14)
(136.023 39.9028 -3.93431e-19)
(134.651 39.6356 0)
(133.518 39.4509 1.51068e-14)
(132.616 39.3146 0)
(131.898 39.2561 1.54351e-14)
(131.398 39.2436 0)
(131.083 39.3026 0)
(130.989 39.3917 6.37996e-19)
(131.078 39.5732 -1.62239e-14)
(131.429 39.775 0)
(131.951 40.1006 1.65461e-14)
(132.812 40.4525 0)
(133.854 40.9453 0)
(135.288 41.4516 1.68469e-14)
(136.884 42.1485 0)
(138.982 42.8263 0)
(141.153 43.7571 0)
(144.083 44.6568 0)
(146.782 45.813 0)
(150.618 46.9443 0)
(153.746 48.3473 -1.55619e-14)
(158.675 49.7386 3.06019e-14)
(162.087 51.3842 1.47286e-14)
(168.394 53.0614 0)
(171.887 54.9701 -1.36102e-14)
(180.303 57.095 1.3096e-14)
(183.992 59.3821 -1.19302e-14)
(195.962 62.394 2.26038e-18)
(200.68 65.424 9.3493e-15)
(218.434 70.1346 0)
(226.364 74.596 5.70056e-15)
(248.599 80.7915 4.7951e-15)
(256.071 85.3185 -3.44567e-15)
(277.493 91.1168 3.75937e-15)
(281.374 94.6392 0)
(304.536 100.608 0)
(308.032 104.284 0)
(341.516 113.227 0)
(347.838 118.352 1.05087e-17)
(399.579 132.945 0)
(404.904 137.538 5.4106e-15)
(555.847 193.86 8.00768e-16)
(611.774 -6.64983 -8.64782e-16)
(412.235 -88.1193 0)
(356.237 -76.3485 0)
(330.419 -71.9107 -1.46581e-16)
(328.268 -69.7391 -8.12068e-16)
(302.615 -65.795 5.93668e-16)
(294.882 -62.7685 0)
(277.606 -60.2768 4.56804e-16)
(280.593 -60.0489 1.96192e-16)
(279.413 -60.5886 0)
(284.509 -60.9325 5.06493e-16)
(279.745 -60.426 8.3774e-16)
(276.065 -59.0382 0)
(266.005 -57.2971 -2.18738e-15)
(258.67 -55.298 -1.94318e-19)
(248.577 -53.4456 0)
(241.389 -51.621 2.82101e-15)
(232.925 -50.0472 1.58856e-15)
(226.717 -48.5137 -1.67057e-15)
(220.063 -47.2618 1.798e-15)
(215.129 -46.0777 1.83739e-15)
(210.573 -45.2283 1.83116e-15)
(207.621 -44.5362 -1.71943e-15)
(205.403 -44.1427 0)
(204.217 -43.8323 -1.00082e-19)
(203.089 -43.629 0)
(202.133 -43.3847 1.40727e-15)
(200.811 -43.1071 0)
(199.422 -42.776 1.48128e-15)
(197.672 -42.3995 1.549e-15)
(195.903 -41.9994 0)
(193.879 -41.559 3.44057e-15)
(191.914 -41.1299 1.82003e-15)
(189.77 -40.643 -1.92573e-15)
(187.774 -40.2333 0)
(185.553 -39.7381 7.17367e-20)
(183.606 -39.3407 0)
(181.345 -38.8209 2.38549e-15)
(179.516 -38.4707 2.50053e-15)
(177.149 -37.903 5.23897e-15)
(175.461 -37.6173 0)
(172.774 -36.9215 -5.68425e-15)
(171.312 -36.7604 2.94655e-15)
(167.806 -35.8094 3.05049e-15)
(166.865 -35.8891 3.14856e-15)
(162.278 -34.4607 3.23843e-15)
(96.41 37.6877 0)
(131.754 40.7683 -1.20268e-17)
(141.249 38.5289 -1.2641e-14)
(144.291 39.4122 0)
(146.305 40.7871 0)
(147.319 41.7587 1.17081e-14)
(147.677 42.2811 0)
(147.476 42.547 -1.06072e-14)
(146.738 42.5817 1.04349e-14)
(145.624 42.4657 0)
(144.341 42.2581 1.04472e-14)
(143.05 42.0393 -1.05261e-14)
(141.88 41.8357 0)
(140.866 41.6932 0)
(140.067 41.5879 0)
(139.438 41.5641 -2.22744e-14)
(139.06 41.5892 0)
(138.859 41.6931 -1.16049e-14)
(138.93 41.8313 1.18716e-14)
(139.161 42.0703 1.21191e-14)
(139.717 42.3308 -1.23873e-14)
(140.396 42.7238 1.26033e-14)
(141.497 43.1425 0)
(142.69 43.7069 0)
(144.405 44.2863 -1.31734e-14)
(146.137 45.061 0)
(148.566 45.8191 0)
(150.845 46.8332 0)
(154.134 47.81 0)
(156.952 49.0732 0)
(161.202 50.2832 0)
(164.461 51.8255 0)
(169.877 53.295 -1.27624e-18)
(173.418 55.1162 -1.20733e-14)
(180.316 56.8697 -1.17518e-14)
(183.949 59.0077 1.11271e-14)
(193.102 61.2158 -2.09757e-14)
(197.048 63.8159 9.43093e-15)
(209.795 66.9046 8.23065e-15)
(214.916 70.2898 0)
(232.512 74.7918 0)
(239.801 79.1576 3.30022e-15)
(260.127 84.641 -9.49351e-19)
(266.833 89.0015 1.81549e-15)
(287.491 94.5267 -1.94528e-15)
(291.856 98.3145 0)
(315.156 104.323 0)
(319.87 108.539 8.60901e-16)
(353.594 117.606 0)
(361.864 123.508 -5.65783e-18)
(414.529 138.634 0)
(422.456 144.045 -2.93555e-15)
(571.652 201.473 0)
(645.256 -10.6337 5.7201e-16)
(452.496 -94.3465 0)
(386.044 -81.4672 0)
(352.367 -76.2754 1.69247e-16)
(346.931 -73.2999 4.59182e-16)
(319.407 -68.9734 -1.64526e-16)
(310.56 -65.7065 -1.27747e-16)
(292.925 -63.26 0)
(295.924 -63.1162 -1.06864e-16)
(294.665 -63.7112 0)
(299.358 -63.9222 2.7735e-16)
(293.776 -63.2177 -4.60641e-16)
(289.324 -61.5959 -4.5278e-16)
(278.577 -59.715 6.01591e-16)
(270.677 -57.5699 -6.21968e-16)
(260.209 -55.6708 0)
(252.662 -53.7642 -1.56804e-15)
(243.971 -52.1767 -7.88222e-20)
(237.507 -50.5902 0)
(230.657 -49.329 0)
(225.466 -48.0984 0)
(220.525 -47.199 0)
(217.041 -46.4072 5.20963e-20)
(214.151 -45.8963 0)
(212.36 -45.4659 -7.70811e-16)
(210.759 -45.1721 7.40155e-16)
(209.484 -44.859 0)
(207.942 -44.5349 0)
(206.41 -44.1706 -7.79913e-16)
(204.566 -43.7723 0)
(202.74 -43.3602 0)
(200.694 -42.9131 -9.23445e-16)
(198.729 -42.4872 0)
(196.616 -42.0037 0)
(194.664 -41.6103 0)
(192.523 -41.1246 1.19167e-15)
(190.648 -40.7546 -1.2674e-15)
(188.503 -40.2453 0)
(186.757 -39.9328 0)
(184.519 -39.3634 -1.50512e-15)
(182.923 -39.1331 0)
(180.357 -38.4041 3.33535e-15)
(178.992 -38.3334 0)
(175.575 -37.2803 -1.82881e-15)
(174.728 -37.538 0)
(170.089 -35.8905 -1.98523e-15)
(98.9969 17.5202 0)
(127.208 30.0623 2.54313e-14)
(137.282 36.0187 2.11993e-14)
(142.11 39.3381 0)
(145.445 40.9027 0)
(147.187 41.8119 7.92713e-15)
(147.95 42.394 -7.29852e-15)
(148.063 42.7641 6.95628e-15)
(147.663 42.9061 -1.36585e-14)
(146.926 42.9079 6.83574e-15)
(146.028 42.8138 0)
(145.093 42.7007 0)
(144.232 42.5845 0)
(143.482 42.5187 0)
(142.915 42.4768 0)
(142.501 42.5161 7.79685e-15)
(142.332 42.5979 8.05523e-15)
(142.34 42.7658 8.33473e-15)
(142.627 42.9623 -8.63759e-15)
(143.079 43.2718 0)
(143.865 43.5943 3.63764e-19)
(144.78 44.0656 -4.38953e-19)
(146.122 44.5478 0)
(147.556 45.197 -1.01659e-14)
(149.519 45.8374 1.04537e-14)
(151.491 46.7038 -1.06399e-14)
(154.171 47.5174 0)
(156.688 48.6314 0)
(160.215 49.6499 0)
(163.277 51.0295 1.1042e-14)
(167.768 52.2668 -1.10851e-14)
(171.291 53.9536 1.09241e-14)
(176.957 55.4316 -1.00789e-18)
(180.794 57.4376 0)
(187.964 59.1762 1.02488e-14)
(191.977 61.5657 9.68127e-15)
(201.455 63.7492 1.11641e-18)
(205.953 66.6913 0)
(218.812 69.6787 0)
(224.34 73.3458 0)
(240.91 77.3835 -3.23052e-15)
(247.496 81.6 -2.06122e-15)
(266.299 86.5053 -3.15461e-15)
(272.523 90.789 1.11074e-15)
(292.569 96.066 1.19768e-15)
(297.158 100.018 8.23157e-16)
(320.326 105.916 0)
(325.687 110.427 -5.27926e-16)
(359.285 119.382 0)
(368.646 125.71 0)
(421.423 140.885 0)
(431.217 146.697 -1.89418e-18)
(577.678 203.761 0)
(659.974 -9.76818 -3.64168e-16)
(477.944 -97.8103 0)
(407.086 -85.2559 6.25525e-16)
(367.309 -79.2495 -5.83073e-17)
(359.057 -75.5661 -3.09173e-16)
(330.143 -71.0211 -1.10219e-16)
(320.754 -67.6126 8.51937e-17)
(303.227 -65.3322 -1.6736e-16)
(306.456 -65.2839 -7.16006e-17)
(305.036 -65.9091 -2.27637e-16)
(309.131 -65.9188 -1.85877e-16)
(302.621 -64.9901 0)
(297.376 -63.1249 2.99959e-16)
(285.998 -61.1133 0)
(277.685 -58.8536 -4.09685e-16)
(266.935 -56.9198 0)
(259.183 -54.9621 5.1105e-20)
(250.337 -53.3678 -1.17395e-15)
(243.743 -51.7531 0)
(236.774 -50.4903 6.69524e-16)
(231.455 -49.2384 6.78472e-16)
(226.301 -48.3183 0)
(222.53 -47.4784 6.02616e-16)
(219.282 -46.9141 0)
(217.17 -46.4259 0)
(215.31 -46.0864 -9.55647e-16)
(213.848 -45.7327 0)
(212.164 -45.3773 0)
(210.526 -44.9863 0)
(208.602 -44.5679 -5.37262e-16)
(206.716 -44.1407 0)
(204.631 -43.6827 0)
(202.642 -43.2517 -6.4968e-16)
(200.525 -42.765 6.94316e-16)
(198.578 -42.3751 0)
(196.468 -41.892 0)
(194.623 -41.5338 8.45078e-16)
(192.538 -41.0293 0)
(190.834 -40.7355 -9.54476e-16)
(188.672 -40.1667 0)
(187.125 -39.9637 0)
(184.648 -39.2219 -2.25815e-15)
(183.325 -39.1925 1.18489e-15)
(180.012 -38.0971 0)
(179.176 -38.4368 -1.3026e-15)
(174.612 -36.6871 0)
(103.837 22.5955 0)
(126.994 34.1013 -1.63016e-14)
(134.985 36.1363 -6.60483e-15)
(139.583 38.5553 -6.1659e-15)
(143.404 40.2303 0)
(145.715 41.3678 -5.16585e-15)
(146.923 42.1165 4.84308e-15)
(147.354 42.5954 -4.66056e-15)
(147.202 42.8151 4.59055e-15)
(146.689 42.8872 -1.1624e-19)
(146.011 42.8573 0)
(145.294 42.8078 0)
(144.644 42.7497 0)
(144.096 42.7402 0)
(143.72 42.7488 0)
(143.491 42.8394 5.44735e-15)
(143.5 42.9676 -1.77325e-19)
(143.688 43.1872 -5.93584e-15)
(144.154 43.4302 6.21257e-15)
(144.794 43.7961 0)
(145.768 44.1677 6.81367e-15)
(146.885 44.7029 -3.38994e-19)
(148.428 45.2362 7.4522e-15)
(150.08 45.9588 1.55217e-14)
(152.253 46.6501 -8.08513e-15)
(154.459 47.6006 8.35731e-15)
(157.357 48.4617 0)
(160.122 49.6724 0)
(163.861 50.7273 -9.12278e-15)
(167.184 52.2202 -1.83973e-14)
(171.88 53.4772 9.3544e-15)
(175.685 55.3034 -9.3455e-15)
(181.547 56.7779 -9.34946e-15)
(185.7 58.9628 0)
(193.064 60.6705 0)
(197.49 63.3067 -1.66876e-14)
(207.16 65.4425 7.31451e-15)
(212.166 68.6799 6.18417e-15)
(224.827 71.4846 -4.67654e-15)
(230.505 75.2982 0)
(246.112 78.9061 2.18332e-15)
(252.215 83.0175 0)
(270.114 87.5554 3.73285e-19)
(276.055 91.813 -7.63311e-16)
(295.695 96.9066 -3.63758e-19)
(300.377 100.965 -1.14171e-15)
(323.399 106.739 7.91301e-16)
(329.094 111.42 0)
(362.557 120.235 0)
(372.535 126.81 0)
(425.309 141.935 0)
(436.374 147.913 -1.29653e-18)
(580.813 204.336 0)
(666.494 -9.10763 -2.31011e-16)
(493.964 -99.7288 1.60628e-16)
(422.469 -87.8699 -4.70102e-16)
(378.484 -81.3924 0)
(367.986 -77.1748 0)
(338.099 -72.504 8.24305e-17)
(328.463 -69.0282 -6.36759e-17)
(311.282 -66.9607 1.26371e-16)
(314.79 -67.0164 1.0803e-16)
(313.13 -67.6416 1.7226e-16)
(316.505 -67.4211 1.39268e-16)
(309.042 -66.2571 2.29514e-16)
(303.027 -64.1588 -2.21797e-16)
(291.096 -62.0311 -2.93615e-16)
(282.45 -59.6789 3.95272e-20)
(271.484 -57.7209 0)
(263.585 -55.7272 3.81094e-16)
(254.626 -54.1309 2.66264e-20)
(247.945 -52.4987 0)
(240.895 -51.2391 -9.87045e-16)
(235.502 -49.9771 -4.98229e-16)
(230.223 -49.0508 0)
(226.29 -48.1891 0)
(222.844 -47.6034 0)
(220.551 -47.0884 0)
(218.535 -46.7248 1.78449e-20)
(216.946 -46.3443 0)
(215.155 -45.9651 0)
(213.429 -45.5511 0)
(211.431 -45.114 7.98598e-16)
(209.485 -44.671 0)
(207.353 -44.2009 0)
(205.329 -43.762 1.53187e-20)
(203.194 -43.2695 -5.18469e-16)
(201.235 -42.8785 0)
(199.133 -42.3946 -5.92183e-16)
(197.295 -42.0417 0)
(195.24 -41.5387 0)
(193.556 -41.2548 1.0742e-20)
(191.439 -40.6856 0)
(189.916 -40.4971 0)
(187.494 -39.747 3.66366e-20)
(186.191 -39.7385 -8.88393e-16)
(182.949 -38.6179 0)
(182.107 -39.0008 -2.76975e-20)
(177.606 -37.1899 0)
(103.617 22.5874 0)
(125.878 33.8803 8.7333e-15)
(133.376 35.2589 0)
(137.763 37.8972 3.85952e-15)
(141.688 39.6802 0)
(144.254 40.9122 3.55969e-15)
(145.721 41.7599 0)
(146.362 42.3215 3.36024e-15)
(146.375 42.6018 -3.33007e-15)
(146.001 42.7228 -3.34017e-15)
(145.458 42.7333 -3.38399e-15)
(144.878 42.7227 0)
(144.368 42.7008 0)
(143.959 42.7283 0)
(143.722 42.7711 0)
(143.63 42.8972 -3.99879e-15)
(143.773 43.0576 -4.18771e-15)
(144.095 43.3128 4.39536e-15)
(144.693 43.5877 4.62023e-15)
(145.469 43.9919 0)
(146.58 44.3965 0)
(147.842 44.9754 -1.07637e-14)
(149.529 45.5433 -1.13213e-14)
(151.34 46.3175 -5.93914e-15)
(153.669 47.0445 0)
(156.052 48.0572 6.50439e-15)
(159.115 48.9533 0)
(162.079 50.24 0)
(165.987 51.3243 7.32252e-15)
(169.532 52.9108 7.49268e-15)
(174.397 54.185 -7.70061e-15)
(178.453 56.1306 0)
(184.479 57.6027 0)
(188.924 59.9449 0)
(196.447 61.6286 0)
(201.26 64.4814 6.89723e-15)
(211.026 66.5624 0)
(216.395 70.0061 -4.65729e-15)
(228.772 72.6205 5.41735e-19)
(234.493 76.504 2.38638e-15)
(249.483 79.8218 -1.54509e-15)
(255.344 83.8903 0)
(272.729 88.2046 8.02486e-16)
(278.503 92.4587 0)
(297.856 97.4174 -2.71508e-19)
(302.572 101.544 4.32018e-16)
(325.46 107.208 -6.03676e-16)
(331.342 111.987 0)
(364.697 120.676 5.23971e-16)
(375.07 127.399 0)
(427.833 142.462 4.08831e-16)
(439.847 148.474 4.43056e-16)
(582.814 204.222 -1.1478e-16)
(669.703 -8.70866 1.59542e-16)
(504.304 -100.631 -1.10616e-18)
(433.901 -89.6382 0)
(387.218 -82.9829 0)
(375.038 -78.3871 0)
(344.502 -73.654 0)
(334.81 -70.1689 5.09842e-17)
(318.085 -68.3288 1.02177e-16)
(321.85 -68.487 -8.73178e-17)
(319.868 -69.0802 0)
(322.446 -68.615 -2.23492e-16)
(314.043 -67.2133 -1.83353e-16)
(307.307 -64.9011 3.51894e-16)
(294.9 -62.6722 2.32807e-16)
(285.983 -60.2468 3.09413e-20)
(274.845 -58.2717 0)
(266.835 -56.2526 -3.01597e-16)
(257.787 -54.6573 3.43198e-16)
(251.044 -53.0146 0)
(243.937 -51.7608 1.70933e-20)
(238.495 -50.4955 0)
(233.14 -49.5709 0)
(229.115 -48.702 -3.43288e-16)
(225.557 -48.1119 0)
(223.158 -47.5862 0)
(221.037 -47.2094 2.78078e-16)
(219.353 -46.8092 0)
(217.473 -46.4098 0)
(215.667 -45.975 0)
(213.599 -45.5201 -3.20355e-16)
(211.592 -45.0616 0)
(209.412 -44.5792 0)
(207.348 -44.1314 3.89981e-16)
(205.186 -43.6322 4.17161e-16)
(203.209 -43.2382 0)
(201.102 -42.7521 4.76473e-16)
(199.263 -42.4014 0)
(197.221 -41.8984 0)
(195.546 -41.6202 5.74271e-16)
(193.455 -41.0497 0)
(191.945 -40.8696 0)
(189.558 -40.1125 6.77326e-16)
(188.263 -40.1152 0)
(185.069 -38.9756 0)
(184.215 -39.384 7.83958e-16)
(179.755 -37.5287 0)
(103.546 21.6611 0)
(124.729 33.1877 -2.59794e-15)
(131.978 34.5754 0)
(136.337 37.3543 0)
(140.291 39.1823 0)
(142.963 40.4772 -2.56442e-19)
(144.562 41.3961 2.60317e-15)
(145.325 42.0207 2.58505e-15)
(145.441 42.3482 2.58105e-15)
(145.16 42.5056 0)
(144.708 42.5445 2.62909e-15)
(144.224 42.5605 0)
(143.817 42.5635 0)
(143.514 42.6168 2.86135e-15)
(143.384 42.684 2.97922e-15)
(143.399 42.8356 0)
(143.647 43.0189 0)
(144.073 43.2993 0)
(144.773 43.5962 -3.6122e-15)
(145.652 44.0268 0)
(146.865 44.4536 0)
(148.233 45.0619 8.44035e-15)
(150.026 45.6523 8.88844e-15)
(151.95 46.4613 0)
(154.391 47.2113 0)
(156.899 48.2667 -3.53662e-19)
(160.082 49.1857 0)
(163.189 50.5264 0)
(167.222 51.6306 0)
(170.93 53.2866 0)
(175.926 54.5727 6.25937e-15)
(180.172 56.6107 0)
(186.327 58.0805 0)
(191.007 60.5489 6.44971e-15)
(198.657 62.2162 0)
(203.784 65.2373 0)
(213.59 67.2611 0)
(219.194 70.8328 3.38677e-15)
(231.364 73.3032 4.85564e-15)
(237.135 77.236 -1.72197e-15)
(251.802 80.3841 1.15505e-15)
(257.577 84.4524 0)
(274.659 88.626 0)
(280.327 92.8871 0)
(299.464 97.7414 -2.1478e-19)
(304.182 101.914 0)
(326.95 107.48 4.88507e-16)
(332.943 112.315 -2.1692e-16)
(366.215 120.895 -8.42774e-16)
(376.877 127.709 0)
(429.638 142.715 -3.26181e-16)
(442.422 148.682 0)
(584.248 203.787 9.10932e-17)
(671.498 -8.34469 1.17966e-16)
(511.304 -100.936 -9.12225e-17)
(442.555 -90.8346 0)
(394.241 -84.1893 -2.85047e-17)
(380.86 -79.3383 0)
(349.932 -74.5938 0)
(340.313 -71.1411 0)
(324.086 -69.53 -6.1106e-20)
(328.054 -69.7794 7.38341e-17)
(325.667 -70.3105 -1.17736e-16)
(327.4 -69.5916 1.87401e-16)
(318.09 -67.9563 1.53165e-16)
(310.697 -65.4508 -2.92584e-16)
(297.882 -63.1354 -1.93623e-16)
(288.742 -60.652 3.96146e-16)
(277.468 -58.6657 0)
(269.369 -56.6286 2.35022e-20)
(260.251 -55.0364 0)
(253.459 -53.3881 -3.01187e-16)
(246.311 -52.1421 3.24614e-16)
(240.839 -50.8778 -3.25656e-16)
(235.438 -49.9599 -3.14752e-16)
(231.363 -49.0928 1.09404e-20)
(227.743 -48.5078 0)
(225.278 -47.9802 2.37615e-16)
(223.082 -47.5957 0)
(221.318 -47.1793 0)
(219.358 -46.7617 0)
(217.477 -46.3073 0)
(215.341 -45.835 0)
(213.274 -45.3613 0)
(211.043 -44.8666 0)
(208.938 -44.4097 0)
(206.746 -43.9036 -3.52506e-16)
(204.746 -43.5059 0)
(202.63 -43.0169 0)
(200.783 -42.667 0)
(198.747 -42.163 0)
(197.074 -41.8884 0)
(194.999 -41.3159 0)
(193.495 -41.141 0)
(191.132 -40.3774 0)
(189.84 -40.3861 0)
(186.677 -39.2305 0)
(185.81 -39.6546 0)
(181.374 -37.7638 0)
(103.451 20.9283 0)
(123.673 32.4336 -1.77095e-15)
(130.741 33.9621 0)
(135.138 36.8495 0)
(139.102 38.7199 2.01569e-15)
(141.816 40.0694 -4.1075e-15)
(143.477 41.0437 -2.074e-15)
(144.304 41.7172 -1.0818e-19)
(144.48 42.0813 0)
(144.259 42.2665 0)
(143.874 42.3264 -2.14883e-15)
(143.464 42.362 -2.19588e-15)
(143.139 42.3836 2.26037e-15)
(142.923 42.4565 -2.34198e-15)
(142.882 42.5424 -2.43958e-15)
(142.986 42.7136 0)
(143.322 42.9143 0)
(143.833 43.2138 0)
(144.619 43.5271 0)
(145.58 43.977 0)
(146.876 44.4196 0)
(148.328 45.0488 -1.70787e-19)
(150.203 45.6544 -3.62857e-15)
(152.214 46.4877 0)
(154.74 47.2526 -4.00244e-15)
(157.341 48.3378 -8.37991e-15)
(160.614 49.2712 -4.3912e-15)
(163.823 50.65 -4.5755e-15)
(167.951 51.7663 -4.78082e-15)
(171.775 53.4725 4.94462e-15)
(176.868 54.765 -5.11706e-15)
(181.251 56.8713 -5.24924e-15)
(187.503 58.3377 -5.29212e-15)
(192.356 60.9015 -1.04666e-14)
(200.109 62.5569 0)
(205.465 65.6969 4.11102e-15)
(215.299 67.6708 0)
(221.061 71.324 -2.47309e-15)
(233.13 73.7031 -1.80675e-15)
(238.975 77.6826 0)
(253.496 80.7356 9.08803e-16)
(259.266 84.8259 0)
(276.16 88.9052 0)
(281.755 93.1777 0)
(300.715 97.9469 -4.36027e-16)
(305.419 102.151 0)
(328.077 107.628 -8.25689e-16)
(334.141 112.496 2.37765e-19)
(367.35 120.977 7.08118e-16)
(378.246 127.852 8.48169e-19)
(431.018 142.806 0)
(444.465 148.681 -2.91128e-16)
(585.346 203.18 7.54147e-17)
(672.604 -7.9923 -9.37442e-17)
(516.31 -100.904 -7.16694e-17)
(449.259 -91.6375 0)
(400.018 -85.1181 2.41729e-17)
(385.823 -80.1075 0)
(354.703 -75.3922 0)
(345.25 -72.0017 3.73291e-17)
(329.521 -70.6143 -1.51445e-16)
(333.621 -70.9374 -4.98508e-20)
(330.75 -71.3792 4.30821e-20)
(331.612 -70.4015 -8.10599e-17)
(321.441 -68.5409 -1.32154e-16)
(313.455 -65.8625 1.25802e-16)
(300.292 -63.4742 3.33343e-16)
(290.971 -60.9452 -2.28286e-20)
(279.586 -58.9522 0)
(271.416 -56.9026 2.1607e-16)
(262.242 -55.3153 2.46295e-16)
(255.413 -53.665 5.1898e-16)
(248.235 -52.4285 -2.79485e-16)
(242.746 -51.1684 2.79705e-16)
(237.319 -50.2606 8.32143e-21)
(233.219 -49.401 2.42541e-16)
(229.568 -48.8268 0)
(227.061 -48.3021 -4.09886e-16)
(224.804 -47.9126 0)
(222.969 -47.4818 2.03206e-16)
(220.934 -47.0467 0)
(218.98 -46.5733 0)
(216.777 -46.0841 -2.35673e-16)
(214.65 -45.5954 0)
(212.369 -45.0886 0)
(210.222 -44.6227 2.8798e-16)
(207.998 -44.1096 -3.08143e-16)
(205.974 -43.7078 0)
(203.845 -43.2157 -3.51775e-16)
(201.988 -42.866 0)
(199.952 -42.3606 0)
(198.278 -42.0883 0)
(196.212 -41.5135 0)
(194.711 -41.3417 0)
(192.363 -40.572 4.95568e-16)
(191.071 -40.5834 5.21485e-16)
(187.93 -39.4138 0)
(187.049 -39.8474 -5.71294e-16)
(182.625 -37.9268 0)
(103.334 20.2383 0)
(122.703 31.6379 2.66519e-15)
(129.62 33.3785 0)
(134.078 36.3699 0)
(138.049 38.2852 -1.6115e-15)
(140.776 39.686 1.67357e-15)
(142.46 40.7063 -1.71543e-15)
(143.314 41.4189 -9.08404e-20)
(143.52 41.8117 0)
(143.337 42.0182 0)
(142.999 42.0939 1.82188e-15)
(142.65 42.1445 1.86465e-15)
(142.394 42.1805 -1.92147e-15)
(142.254 42.2691 0)
(142.291 42.3703 -2.07624e-15)
(142.473 42.5575 0)
(142.886 42.7723 0)
(143.473 43.0872 0)
(144.332 43.4134 0)
(145.365 43.8785 -2.64487e-15)
(146.731 44.3331 0)
(148.254 44.9782 -5.8437e-15)
(150.199 45.5945 -3.06924e-15)
(152.281 46.446 3.21662e-15)
(154.878 47.221 3.37287e-15)
(157.551 48.3279 3.52327e-15)
(160.897 49.2706 7.37048e-15)
(164.184 50.6769 3.83238e-15)
(168.386 51.8004 7.99253e-15)
(172.297 53.5433 -4.12665e-15)
(177.464 54.8384 8.52284e-15)
(181.946 56.9952 4.35779e-15)
(188.275 58.457 4.00693e-19)
(193.252 61.0918 4.24257e-15)
(201.094 62.738 -3.73149e-15)
(206.617 65.9594 -6.23182e-15)
(216.484 67.8959 0)
(222.364 71.6062 0)
(234.401 73.9311 1.40275e-15)
(240.332 77.9557 1.0245e-15)
(254.8 80.9554 -7.47603e-16)
(260.602 85.0772 -5.0989e-16)
(277.369 89.0891 0)
(282.908 93.374 0)
(301.719 98.0709 0)
(306.397 102.297 0)
(328.954 107.693 3.59962e-16)
(335.066 112.576 1.5677e-16)
(368.23 120.971 -3.0743e-16)
(379.328 127.886 -1.7455e-18)
(432.124 142.795 0)
(446.162 148.546 5.00577e-16)
(586.222 202.469 -1.30327e-16)
(673.327 -7.65698 7.72647e-17)
(520.081 -100.671 6.02703e-19)
(454.582 -92.1642 0)
(404.868 -85.842 0)
(390.16 -80.7445 0)
(359.005 -76.0905 -4.21696e-17)
(349.783 -72.7835 -3.32475e-17)
(334.528 -71.6097 6.78216e-17)
(338.68 -71.9861 -5.74828e-17)
(335.253 -72.3144 3.67457e-20)
(335.233 -71.0762 0)
(324.253 -69.0015 -1.16727e-16)
(315.74 -66.1696 -1.10892e-16)
(302.282 -63.7206 -1.47177e-16)
(292.813 -61.1561 -1.50471e-16)
(281.337 -59.1601 1.81528e-16)
(273.109 -57.1022 0)
(263.889 -55.5213 -4.35942e-16)
(257.033 -53.8719 -4.59006e-16)
(249.835 -52.6462 2.47059e-16)
(244.337 -51.393 0)
(238.899 -50.4976 2.3744e-16)
(234.793 -49.6495 0)
(231.129 -49.0893 0)
(228.593 -48.57 9.86035e-21)
(226.283 -48.1767 0)
(224.382 -47.7323 -1.06387e-20)
(222.273 -47.2801 0)
(220.247 -46.788 -1.98262e-16)
(217.977 -46.282 2.10849e-16)
(215.79 -45.7786 -2.25014e-16)
(213.459 -45.2599 0)
(211.27 -44.785 -2.5802e-16)
(209.014 -44.2652 9.34487e-21)
(206.965 -43.8593 0)
(204.821 -43.3641 6.30326e-16)
(202.953 -43.014 -3.36102e-16)
(200.914 -42.5071 0)
(199.237 -42.2363 -3.78539e-16)
(197.176 -41.6592 -3.99278e-16)
(195.675 -41.4891 0)
(193.337 -40.7136 -4.42326e-16)
(192.044 -40.7255 1.28734e-21)
(188.917 -39.5432 0)
(188.024 -39.9821 5.08679e-16)
(183.602 -38.0356 -5.23831e-16)
(103.211 19.565 0)
(121.797 30.8356 -3.53199e-19)
(128.583 32.8164 0)
(133.112 35.9098 0)
(137.088 37.8717 0)
(139.816 39.3222 0)
(141.5 40.3831 1.06825e-19)
(142.355 41.1282 -1.49844e-15)
(142.57 41.5439 -1.52773e-15)
(142.408 41.7667 0)
(142.107 41.8541 0)
(141.808 41.9162 0)
(141.613 41.9638 -1.68016e-15)
(141.54 42.0654 1.74396e-15)
(141.647 42.1795 1.81892e-15)
(141.9 42.3803 0)
(142.383 42.607 0)
(143.038 42.9348 0)
(143.963 43.2719 0)
(145.062 43.7494 9.46825e-20)
(146.491 44.2137 2.4302e-15)
(148.077 44.8716 5.09763e-15)
(150.084 45.4962 1.2605e-19)
(152.227 46.3618 -5.59134e-15)
(154.885 47.1442 2.92526e-15)
(157.621 48.2677 0)
(161.028 49.2167 -6.36114e-15)
(164.379 50.644 3.29756e-15)
(168.644 51.7714 -2.44685e-19)
(172.622 53.5423 0)
(177.852 54.8376 -3.63075e-15)
(182.408 57.0328 0)
(188.801 58.4895 3.65186e-15)
(193.873 61.1781 -3.47663e-15)
(201.796 62.817 2.96562e-15)
(207.445 66.0957 2.41027e-15)
(217.352 68.006 0)
(223.324 71.7598 0)
(235.366 74.0523 -2.27305e-15)
(241.385 78.1189 -8.43629e-16)
(255.844 81.088 6.37028e-16)
(261.695 85.2442 1.73921e-19)
(278.369 89.2047 4.00051e-16)
(283.86 93.5016 0)
(302.538 98.135 3.39331e-16)
(307.184 102.376 2.25554e-16)
(329.647 107.696 -3.21102e-16)
(335.793 112.585 0)
(368.928 120.901 0)
(380.211 127.844 2.04276e-18)
(433.043 142.714 0)
(447.621 148.32 -4.42686e-16)
(586.939 201.69 5.78288e-17)
(673.813 -7.33742 -6.65829e-17)
(523.049 -100.31 5.03675e-17)
(458.913 -92.4946 0)
(409.021 -86.4125 0)
(394.027 -81.2834 0)
(362.963 -76.7156 3.81181e-17)
(354.015 -73.5069 0)
(339.192 -72.5334 6.17731e-17)
(343.31 -72.941 5.21909e-17)
(339.265 -73.1347 8.27384e-17)
(338.367 -71.6374 0)
(326.633 -69.3614 1.05058e-16)
(317.654 -66.3941 9.97027e-17)
(303.948 -63.8953 0)
(294.357 -61.3036 1.35522e-16)
(282.807 -59.3076 -1.34398e-20)
(274.532 -57.2449 0)
(265.275 -55.6717 1.22445e-20)
(258.399 -54.0256 4.14208e-16)
(251.189 -52.812 2.22822e-16)
(245.69 -51.5676 -2.22075e-16)
(240.252 -50.6867 0)
(236.151 -49.8527 0)
(232.485 -49.3082 0)
(229.927 -48.7954 1.64172e-16)
(227.568 -48.3983 0)
(225.601 -47.9404 -1.64532e-16)
(223.419 -47.4711 -1.7147e-16)
(221.322 -46.9605 1.80609e-16)
(218.985 -46.4379 0)
(216.739 -45.9201 2.05257e-16)
(214.357 -45.3896 0)
(212.127 -44.9061 2.35514e-16)
(209.839 -44.3798 2.52076e-16)
(207.764 -43.9698 -2.69774e-16)
(205.604 -43.4715 -2.87701e-16)
(203.724 -43.121 3.0678e-16)
(201.681 -42.6125 -3.25356e-16)
(199.998 -42.3427 3.4527e-16)
(197.941 -41.7632 3.63915e-16)
(196.438 -41.594 0)
(194.107 -40.813 0)
(192.811 -40.8238 -4.23287e-16)
(189.693 -39.6298 0)
(188.789 -40.071 0)
(184.363 -38.1014 4.74382e-16)
(103.089 18.9132 0)
(120.942 30.0457 -1.8e-15)
(127.611 32.2726 0)
(132.213 35.4645 0)
(136.195 37.4743 0)
(138.915 38.9742 0)
(140.585 40.0725 2.54252e-15)
(141.425 40.8457 0)
(141.634 41.2798 4.5195e-20)
(141.481 41.5149 0)
(141.207 41.6108 0)
(140.951 41.6817 0)
(140.81 41.7387 1.50102e-15)
(140.798 41.8512 -1.56023e-15)
(140.971 41.9765 1.62878e-15)
(141.289 42.1891 1.70516e-15)
(141.838 42.4263 0)
(142.555 42.7653 0)
(143.542 43.1117 0)
(144.7 43.5999 2.07005e-15)
(146.189 44.0725 -2.17247e-15)
(147.831 44.741 -4.55067e-15)
(149.895 45.3724 4.76583e-15)
(152.093 46.2495 2.48753e-15)
(154.808 47.0376 -5.19593e-15)
(157.598 48.1745 0)
(161.061 49.1278 5.62239e-15)
(164.468 50.5718 -2.90595e-15)
(168.787 51.7014 -3.01286e-15)
(172.821 53.4945 0)
(178.106 54.7886 -3.16258e-15)
(182.721 57.014 0)
(189.171 58.4657 3.11656e-15)
(194.324 61.1964 2.89739e-15)
(202.324 62.8301 0)
(208.073 66.1511 0)
(218.022 68.0433 1.47933e-15)
(224.069 71.8318 0)
(236.132 74.104 9.55466e-16)
(242.234 78.2087 -7.1872e-16)
(256.706 81.1594 -1.11722e-15)
(262.61 85.3497 3.92444e-16)
(279.209 89.2689 -3.60919e-16)
(284.656 93.5765 2.6377e-16)
(303.212 98.1529 -3.08789e-16)
(307.821 102.403 -2.04643e-16)
(330.197 107.652 2.92013e-16)
(336.37 112.54 0)
(369.49 120.784 0)
(380.95 127.747 -2.28635e-18)
(433.826 142.582 0)
(448.908 148.029 1.99702e-16)
(587.534 200.86 5.21236e-17)
(674.139 -7.03024 0)
(525.472 -99.8656 0)
(462.521 -92.6832 1.6009e-16)
(412.639 -86.8669 1.66546e-17)
(397.535 -81.7481 0)
(366.659 -77.286 3.49137e-17)
(358.011 -74.1854 -2.79384e-17)
(343.568 -73.3963 -1.14237e-16)
(347.566 -73.8125 -2.40337e-17)
(342.85 -73.8535 7.5905e-17)
(341.088 -72.1013 0)
(328.659 -69.6378 0)
(319.271 -66.5517 -9.09968e-17)
(305.355 -64.0128 1.212e-16)
(295.664 -61.4006 -1.24028e-16)
(284.053 -59.4072 -1.50077e-16)
(275.741 -57.3424 -1.57976e-16)
(266.455 -55.7782 1.80484e-16)
(259.566 -54.1374 -3.79735e-16)
(252.349 -52.9369 -2.04195e-16)
(246.855 -51.7031 2.03176e-16)
(241.425 -50.8381 0)
(237.339 -50.02 0)
(233.675 -49.492 0)
(231.098 -48.9858 1.50816e-16)
(228.691 -48.5845 0)
(226.658 -48.1128 0)
(224.403 -47.6261 1.58393e-16)
(222.234 -47.0972 1.66961e-16)
(219.83 -46.5581 0)
(217.526 -46.0261 0)
(215.094 -45.4842 0)
(212.822 -44.9923 -4.36246e-16)
(210.502 -44.4597 -2.33482e-16)
(208.402 -44.0459 4.99815e-16)
(206.226 -43.5447 0)
(204.332 -43.1936 2.84128e-16)
(202.283 -42.6835 3.01245e-16)
(200.596 -42.4143 0)
(198.538 -41.8324 0)
(197.034 -41.6635 0)
(194.706 -40.8771 0)
(193.408 -40.8858 0)
(190.295 -39.6807 0)
(189.382 -40.1221 0)
(184.946 -38.1315 4.36286e-16)
(102.971 18.2862 0)
(120.129 29.2749 1.56161e-15)
(126.69 31.7442 0)
(131.366 35.0303 9.21454e-16)
(135.353 37.0894 -9.99811e-16)
(138.061 38.639 0)
(139.707 39.7729 -8.24385e-20)
(140.521 40.5711 0)
(140.713 41.0204 4.00294e-20)
(140.561 41.2646 -1.24034e-15)
(140.307 41.3663 -1.27495e-15)
(140.087 41.4437 0)
(139.996 41.5082 1.36339e-15)
(140.041 41.6301 0)
(140.274 41.7651 -1.48363e-15)
(140.654 41.9883 -1.55422e-15)
(141.263 42.2347 -1.631e-15)
(142.04 42.5838 0)
(143.085 42.9384 0)