/*--------------------------------*- C++ -*----------------------------------*\
| =========                 |                                                 |
| \\      /  F ield         | OpenFOAM: The Open Source CFD Toolbox           |
|  \\    /   O peration     | Version:  2412                                  |
|   \\  /    A nd           | Website:  www.openfoam.com                      |
|    \\/     M anipulation  |                                                 |
\*---------------------------------------------------------------------------*/
FoamFile
{
    version     2.0;
    format      ascii;
    arch        "LSB;label=32;scalar=64";
    class       volScalarField;
    location    "0.7";
    object      epsilon;
}
// * * * * * * * * * * * * * * * * * * * * * * * * * * * * * * * * * * * * * //

dimensions      [0 2 -3 0 0 0 0];

internalField   nonuniform List<scalar> 
13068
(
376.684
377.089
380.36
390.559
417.115
477.205
592.163
773.262
1004.97
1244.68
1445.14
1579.45
1646.82
1664.43
1653.19
1631.45
1610.1
1596.18
1591.73
1599.16
1617.48
1648.44
1689.81
1744.28
1808.85
1888.33
1978.48
2087.43
2208.59
2355.37
2516.98
2715.58
2933.08
3206.83
3506.2
3895.21
4320.97
4896.05
5529.7
6425.3
7423.68
8887.33
10509.3
12886.8
15376
18817.4
21979.9
25838.1
28995.6
31454.1
32773.1
26964.5
20554.3
10535.4
6452.84
5246.82
6605.55
8299.85
9982.71
10280.3
10170.7
9313.28
8509.72
7515.18
6734.16
5961.54
5389.05
4865.16
4480.49
4133.18
3871.33
3632.56
3443.54
3265.78
3113.05
2962.26
2820.74
2677.24
2536.95
2397.34
2261.89
2132.81
2010.7
1899.47
1795.89
1704.39
1618.23
1542.75
1468.68
1402.89
1334.46
1272.01
1203.84
1139.87
1068.72
1000.84
926.367
856.322
784.15
376.684
377.091
380.363
390.565
417.123
477.214
592.165
773.249
1004.95
1244.68
1445.17
1579.53
1646.94
1664.57
1653.34
1631.6
1610.25
1596.33
1591.87
1599.3
1617.62
1648.58
1689.95
1744.43
1809.01
1888.49
1978.65
2087.61
2208.79
2355.59
2517.22
2715.85
2933.39
3207.19
3506.59
3895.65
4321.45
4896.57
5530.26
6425.92
7424.38
8888.19
10510.4
12888.3
15378.1
18820.4
21983.6
25842.4
28999.9
31458.1
32776.5
26967.7
20558
10538
6454.58
5248.02
6606.22
8300.16
9983.26
10281.3
10172
9314.45
8510.76
7516.15
6735.1
5962.42
5389.83
4865.82
4481.08
4133.72
3871.85
3633.05
3444
3266.21
3113.46
2962.64
2821.1
2677.58
2537.27
2397.65
2262.18
2133.1
2010.97
1899.74
1796.16
1704.65
1618.5
1543.03
1468.97
1403.18
1334.76
1272.3
1204.12
1140.11
1068.93
1000.99
926.472
856.364
784.129
376.685
377.093
380.368
390.574
417.14
477.24
592.192
773.265
1004.95
1244.68
1445.21
1579.61
1647.06
1664.71
1653.49
1631.75
1610.38
1596.46
1592
1599.43
1617.76
1648.72
1690.09
1744.58
1809.16
1888.66
1978.83
2087.8
2208.99
2355.81
2517.47
2716.12
2933.7
3207.54
3507
3896.09
4321.92
4897.08
5530.8
6426.52
7425.08
8889.04
10511.5
12889.9
15380.3
18823.4
21987.4
25846.9
29004.3
31462.5
32780.3
26971.3
20562.6
10541.1
6456.81
5249.63
6607.19
8300.64
9983.9
10282.3
10173.2
9315.59
8511.76
7517.09
6736.03
5963.29
5390.59
4866.47
4481.65
4134.26
3872.36
3633.53
3444.46
3266.66
3113.88
2963.04
2821.47
2677.94
2537.61
2397.98
2262.5
2133.4
2011.26
1900.02
1796.43
1704.93
1618.78
1543.32
1469.27
1403.49
1335.07
1272.6
1204.4
1140.37
1069.16
1001.17
926.6
856.429
784.133
376.687
377.097
380.375
390.589
417.169
477.286
592.248
773.311
1004.98
1244.7
1445.25
1579.68
1647.17
1664.84
1653.61
1631.87
1610.5
1596.57
1592.11
1599.54
1617.87
1648.84
1690.22
1744.71
1809.31
1888.81
1978.99
2087.97
2209.18
2356.01
2517.7
2716.38
2934
3207.88
3507.38
3896.51
4322.38
4897.56
5531.32
6427.09
7425.72
8889.83
10512.5
12891.3
15382.3
18826.3
21991.2
25851.4
29008.6
31466.9
32784.4
26975.3
20567.7
10544.6
6459.42
5251.57
6608.39
8301.25
9984.57
10283.3
10174.4
9316.63
8512.65
7517.94
6736.87
5964.09
5391.29
4867.07
4482.18
4134.75
3872.83
3633.99
3444.9
3267.08
3114.28
2963.43
2821.84
2678.29
2537.94
2398.3
2262.81
2133.7
2011.55
1900.29
1796.7
1705.2
1619.06
1543.6
1469.57
1403.8
1335.38
1272.91
1204.7
1140.65
1069.4
1001.37
926.743
856.513
784.155
376.689
377.101
380.384
390.609
417.208
477.353
592.333
773.391
1005.03
1244.74
1445.3
1579.75
1647.26
1664.94
1653.71
1631.96
1610.58
1596.65
1592.19
1599.63
1617.97
1648.94
1690.33
1744.83
1809.43
1888.95
1979.14
2088.13
2209.36
2356.21
2517.91
2716.62
2934.28
3208.2
3507.74
3896.91
4322.79
4897.99
5531.77
6427.58
7426.28
8890.53
10513.5
12892.7
15384.3
18829.1
21994.8
25855.6
29012.8
31471.1
32788.5
26979.5
20573.3
10548.6
6462.37
5253.83
6609.82
8301.95
9985.24
10284.3
10175.4
9317.52
8513.4
7518.66
6737.61
5964.8
5391.91
4867.59
4482.64
4135.19
3873.26
3634.41
3445.31
3267.48
3114.67
2963.8
2822.19
2678.62
2538.27
2398.61
2263.11
2133.99
2011.83
1900.56
1796.96
1705.46
1619.33
1543.89
1469.86
1404.11
1335.7
1273.22
1205
1140.93
1069.65
1001.58
926.9
856.612
784.193
376.691
377.106
380.396
390.633
417.259
477.439
592.448
773.504
1005.11
1244.79
1445.34
1579.82
1647.34
1665.02
1653.79
1632.02
1610.64
1596.71
1592.25
1599.69
1618.03
1649.02
1690.42
1744.93
1809.54
1889.07
1979.27
2088.27
2209.51
2356.38
2518.1
2716.84
2934.53
3208.49
3508.07
3897.26
4323.16
4898.38
5532.17
6428
7426.75
8891.12
10514.3
12893.9
15386.1
18831.7
21998.2
25859.7
29016.7
31475.3
32792.6
26983.9
20579.3
10552.9
6465.64
5256.38
6611.46
8302.74
9985.89
10285.1
10176.3
9318.25
8513.98
7519.24
6738.23
5965.41
5392.44
4868.04
4483.04
4135.57
3873.63
3634.78
3445.68
3267.84
3115.03
2964.14
2822.52
2678.94
2538.58
2398.91
2263.4
2134.26
2012.09
1900.81
1797.21
1705.71
1619.59
1544.16
1470.15
1404.41
1336.01
1273.54
1205.31
1141.21
1069.91
1001.79
927.07
856.725
784.246
376.693
377.112
380.409
390.663
417.32
477.546
592.593
773.651
1005.22
1244.86
1445.39
1579.87
1647.4
1665.08
1653.83
1632.05
1610.66
1596.73
1592.28
1599.73
1618.08
1649.07
1690.49
1745.01
1809.63
1889.16
1979.38
2088.39
2209.64
2356.53
2518.27
2717.04
2934.76
3208.76
3508.36
3897.58
4323.49
4898.71
5532.5
6428.35
7427.14
8891.61
10515
12895
15387.7
18834.2
22001.4
25863.6
29020.4
31479.2
32796.7
26988.3
20585.7
10557.6
6469.23
5259.23
6613.31
8303.62
9986.53
10285.9
10177
9318.81
8514.41
7519.67
6738.72
5965.91
5392.88
4868.4
4483.36
4135.88
3873.95
3635.11
3446.01
3268.18
3115.36
2964.46
2822.84
2679.24
2538.87
2399.19
2263.67
2134.52
2012.34
1901.06
1797.45
1705.96
1619.84
1544.43
1470.44
1404.71
1336.32
1273.85
1205.62
1141.5
1070.17
1002.02
927.251
856.853
784.314
376.696
377.12
380.425
390.698
417.393
477.674
592.768
773.832
1005.36
1244.94
1445.45
1579.92
1647.44
1665.11
1653.85
1632.05
1610.66
1596.72
1592.28
1599.73
1618.1
1649.11
1690.53
1745.06
1809.7
1889.24
1979.47
2088.5
2209.76
2356.65
2518.42
2717.21
2934.96
3208.99
3508.62
3897.86
4323.78
4898.99
5532.77
6428.62
7427.44
8892
10515.5
12896
15389.3
18836.5
22004.4
25867.2
29023.8
31483.1
32800.7
26992.9
20592.5
10562.7
6473.14
5262.38
6615.37
8304.59
9987.15
10286.5
10177.6
9319.21
8514.68
7519.96
6739.09
5966.31
5393.23
4868.69
4483.61
4136.13
3874.22
3635.39
3446.31
3268.48
3115.66
2964.76
2823.13
2679.53
2539.15
2399.46
2263.93
2134.77
2012.58
1901.29
1797.68
1706.19
1620.09
1544.69
1470.71
1405
1336.62
1274.16
1205.93
1141.8
1070.45
1002.25
927.445
856.995
784.397
376.699
377.128
380.443
390.738
417.476
477.822
592.974
774.046
1005.53
1245.04
1445.51
1579.96
1647.47
1665.12
1653.83
1632.02
1610.62
1596.68
1592.25
1599.72
1618.1
1649.12
1690.56
1745.1
1809.75
1889.3
1979.54
2088.58
2209.85
2356.76
2518.55
2717.36
2935.14
3209.19
3508.85
3898.1
4324.02
4899.22
5532.98
6428.82
7427.64
8892.28
10516
12896.8
15390.6
18838.7
22007.2
25870.7
29027
31486.7
32804.8
26997.7
20599.7
10568.1
6477.38
5265.82
6617.64
8305.65
9987.76
10287.1
10178.1
9319.45
8514.78
7520.11
6739.34
5966.6
5393.49
4868.9
4483.79
4136.32
3874.43
3635.62
3446.56
3268.74
3115.93
2965.03
2823.4
2679.79
2539.41
2399.72
2264.18
2135.01
2012.8
1901.5
1797.89
1706.41
1620.32
1544.94
1470.98
1405.29
1336.93
1274.48
1206.24
1142.1
1070.73
1002.5
927.65
857.151
784.495
376.703
377.137
380.463
390.783
417.571
477.99
593.209
774.294
1005.72
1245.16
1445.57
1579.99
1647.48
1665.11
1653.79
1631.96
1610.54
1596.61
1592.19
1599.67
1618.07
1649.1
1690.56
1745.12
1809.78
1889.34
1979.59
2088.64
2209.93
2356.85
2518.65
2717.48
2935.29
3209.37
3509.05
3898.31
4324.21
4899.4
5533.13
6428.94
7427.76
8892.46
10516.3
12897.5
15391.8
18840.7
22009.8
25873.9
29030
31490.2
32808.8
27002.6
20607.4
10573.9
6481.94
5269.56
6620.14
8306.81
9988.36
10287.5
10178.4
9319.52
8514.73
7520.12
6739.47
5966.8
5393.66
4869.02
4483.9
4136.44
3874.58
3635.81
3446.77
3268.98
3116.17
2965.28
2823.65
2680.04
2539.65
2399.96
2264.41
2135.23
2013.01
1901.7
1798.09
1706.62
1620.54
1545.18
1471.25
1405.58
1337.23
1274.79
1206.55
1142.41
1071.01
1002.76
927.868
857.321
784.608
376.706
377.147
380.485
390.833
417.676
478.179
593.474
774.575
1005.94
1245.29
1445.63
1580.02
1647.48
1665.07
1653.72
1631.87
1610.44
1596.51
1592.1
1599.6
1618.01
1649.07
1690.54
1745.11
1809.79
1889.37
1979.62
2088.68
2209.98
2356.91
2518.73
2717.58
2935.41
3209.51
3509.21
3898.47
4324.36
4899.52
5533.21
6428.98
7427.78
8892.53
10516.5
12898
15392.9
18842.5
22012.3
25876.9
29032.7
31493.6
32812.8
27007.7
20615.5
10580.1
6486.84
5273.62
6622.86
8308.08
9988.97
10287.9
10178.6
9319.45
8514.52
7519.99
6739.48
5966.89
5393.74
4869.07
4483.94
4136.51
3874.68
3635.95
3446.95
3269.18
3116.39
2965.51
2823.87
2680.27
2539.88
2400.18
2264.63
2135.44
2013.21
1901.89
1798.28
1706.81
1620.75
1545.42
1471.51
1405.86
1337.53
1275.11
1206.87
1142.72
1071.31
1003.02
928.097
857.505
784.736
376.711
377.158
380.51
390.888
417.793
478.388
593.77
774.89
1006.19
1245.44
1445.7
1580.03
1647.46
1665.01
1653.63
1631.75
1610.31
1596.38
1591.98
1599.5
1617.94
1649.01
1690.5
1745.09
1809.78
1889.37
1979.64
2088.71
2210.01
2356.96
2518.79
2717.65
2935.5
3209.63
3509.34
3898.6
4324.47
4899.58
5533.23
6428.95
7427.72
8892.49
10516.6
12898.5
15393.8
18844.2
22014.5
25879.7
29035.1
31496.8
32816.8
27012.9
20624.1
10586.7
6492.08
5277.99
6625.81
8309.45
9989.58
10288.3
10178.7
9319.22
8514.16
7519.72
6739.37
5966.88
5393.73
4869.04
4483.91
4136.51
3874.73
3636.05
3447.08
3269.35
3116.58
2965.71
2824.08
2680.49
2540.1
2400.4
2264.83
2135.63
2013.39
1902.07
1798.46
1707
1620.96
1545.64
1471.76
1406.14
1337.83
1275.42
1207.19
1143.04
1071.61
1003.3
928.339
857.704
784.88
376.715
377.169
380.536
390.948
417.921
478.618
594.094
775.238
1006.47
1245.61
1445.77
1580.05
1647.43
1664.93
1653.51
1631.59
1610.14
1596.22
1591.84
1599.37
1617.83
1648.93
1690.44
1745.05
1809.75
1889.35
1979.63
2088.71
2210.03
2356.98
2518.83
2717.7
2935.57
3209.71
3509.44
3898.69
4324.53
4899.6
5533.18
6428.84
7427.57
8892.35
10516.6
12898.8
15394.6
18845.7
22016.6
25882.4
29037.3
31499.9
32820.9
27018.3
20633.1
10593.6
6497.66
5282.68
6629
8310.95
9990.2
10288.5
10178.6
9318.85
8513.66
7519.33
6739.15
5966.77
5393.64
4868.93
4483.81
4136.45
3874.73
3636.1
3447.18
3269.49
3116.74
2965.89
2824.27
2680.68
2540.3
2400.59
2265.02
2135.81
2013.57
1902.24
1798.63
1707.18
1621.15
1545.86
1472.01
1406.42
1338.13
1275.74
1207.51
1143.36
1071.92
1003.58
928.594
857.917
785.038
376.72
377.182
380.565
391.013
418.06
478.868
594.449
775.619
1006.77
1245.79
1445.84
1580.05
1647.38
1664.83
1653.35
1631.41
1609.95
1596.03
1591.66
1599.22
1617.71
1648.82
1690.35
1744.98
1809.7
1889.31
1979.6
2088.69
2210.02
2356.98
2518.84
2717.73
2935.62
3209.77
3509.5
3898.74
4324.55
4899.56
5533.07
6428.66
7427.33
8892.11
10516.5
12898.9
15395.2
18847.1
22018.4
25884.8
29039.3
31502.8
32824.9
27023.9
20642.6
10601
6503.6
5287.71
6632.45
8312.58
9990.85
10288.7
10178.4
9318.34
8513.02
7518.8
6738.82
5966.57
5393.46
4868.76
4483.64
4136.34
3874.67
3636.11
3447.25
3269.59
3116.88
2966.04
2824.44
2680.86
2540.48
2400.78
2265.2
2135.98
2013.73
1902.39
1798.78
1707.34
1621.34
1546.08
1472.25
1406.69
1338.43
1276.05
1207.84
1143.69
1072.24
1003.88
928.861
858.145
785.212
376.725
377.196
380.596
391.084
418.21
479.138
594.834
776.033
1007.11
1245.98
1445.92
1580.05
1647.31
1664.7
1653.18
1631.2
1609.72
1595.81
1591.46
1599.04
1617.55
1648.7
1690.25
1744.9
1809.63
1889.26
1979.56
2088.66
2209.99
2356.97
2518.83
2717.73
2935.64
3209.8
3509.53
3898.75
4324.52
4899.47
5532.9
6428.4
7427
8891.76
10516.2
12899
15395.7
18848.3
22020.1
25887
29041.1
31505.7
32829
27029.7
20652.6
10608.8
6509.9
5293.07
6636.15
8314.35
9991.53
10288.8
10178.2
9317.69
8512.23
7518.15
6738.38
5966.28
5393.21
4868.5
4483.41
4136.16
3874.57
3636.07
3447.28
3269.67
3116.99
2966.18
2824.59
2681.03
2540.65
2400.95
2265.37
2136.14
2013.87
1902.53
1798.93
1707.5
1621.52
1546.28
1472.48
1406.96
1338.72
1276.37
1208.17
1144.02
1072.57
1004.19
929.14
858.388
785.402
376.731
377.211
380.629
391.159
418.371
479.429
595.248
776.48
1007.47
1246.19
1446
1580.04
1647.23
1664.56
1652.97
1630.95
1609.46
1595.56
1591.23
1598.84
1617.38
1648.55
1690.13
1744.79
1809.54
1889.18
1979.49
2088.6
2209.95
2356.93
2518.8
2717.71
2935.63
3209.8
3509.53
3898.73
4324.45
4899.33
5532.67
6428.07
7426.58
8891.31
10515.8
12898.9
15396.1
18849.4
22021.6
25889.1
29042.7
31508.4
32833.2
27035.8
20663.2
10617.1
6516.58
5298.79
6640.12
8316.26
9992.25
10288.9
10177.8
9316.92
8511.32
7517.39
6737.84
5965.89
5392.87
4868.18
4483.12
4135.93
3874.42
3636
3447.27
3269.71
3117.07
2966.29
2824.72
2681.17
2540.81
2401.11
2265.52
2136.28
2014.01
1902.66
1799.06
1707.64
1621.68
1546.48
1472.71
1407.22
1339.01
1276.69
1208.5
1144.36
1072.9
1004.51
929.433
858.645
785.607
376.737
377.226
380.664
391.24
418.542
479.74
595.691
776.961
1007.85
1246.42
1446.09
1580.02
1647.13
1664.39
1652.74
1630.68
1609.18
1595.28
1590.97
1598.61
1617.18
1648.38
1689.98
1744.66
1809.43
1889.09
1979.41
2088.53
2209.88
2356.87
2518.75
2717.67
2935.59
3209.77
3509.49
3898.66
4324.34
4899.13
5532.37
6427.66
7426.07
8890.76
10515.4
12898.7
15396.3
18850.3
22023
25890.9
29044
31511
32837.4
27042
20674.2
10625.8
6523.65
5304.86
6644.38
8318.34
9993.02
10289
10177.3
9316.02
8510.28
7516.5
6737.19
5965.42
5392.46
4867.79
4482.76
4135.65
3874.21
3635.88
3447.22
3269.73
3117.13
2966.38
2824.84
2681.3
2540.95
2401.25
2265.66
2136.42
2014.13
1902.78
1799.18
1707.78
1621.84
1546.67
1472.94
1407.48
1339.3
1277.01
1208.84
1144.71
1073.24
1004.84
929.738
858.917
785.828
376.744
377.243
380.702
391.325
418.726
480.072
596.165
777.473
1008.27
1246.66
1446.18
1580
1647.03
1664.2
1652.48
1630.38
1608.86
1594.97
1590.68
1598.35
1616.95
1648.18
1689.81
1744.52
1809.3
1888.97
1979.31
2088.43
2209.79
2356.78
2518.67
2717.6
2935.53
3209.71
3509.43
3898.56
4324.18
4898.88
5532.02
6427.18
7425.48
8890.11
10514.8
12898.3
15396.4
18851
22024.1
25892.6
29045.1
31513.5
32841.6
27048.5
20685.9
10634.9
6531.11
5311.31
6648.93
8320.59
9993.86
10289
10176.7
9315.01
8509.12
7515.51
6736.45
5964.86
5391.97
4867.33
4482.35
4135.31
3873.96
3635.72
3447.15
3269.72
3117.17
2966.45
2824.93
2681.42
2541.08
2401.39
2265.79
2136.54
2014.24
1902.89
1799.29
1707.91
1621.99
1546.85
1473.16
1407.74
1339.6
1277.33
1209.18
1145.06
1073.6
1005.17
930.056
859.205
786.065
376.75
377.26
380.742
391.416
418.92
480.423
596.667
778.019
1008.71
1246.92
1446.27
1579.97
1646.9
1663.99
1652.2
1630.05
1608.51
1594.63
1590.36
1598.07
1616.7
1647.96
1689.62
1744.35
1809.16
1888.84
1979.19
2088.32
2209.68
2356.68
2518.58
2717.51
2935.45
3209.62
3509.33
3898.42
4323.98
4898.58
5531.6
6426.63
7424.8
8889.36
10514
12897.9
15396.3
18851.7
22025.1
25894.1
29046.1
31515.9
32845.9
27055.3
20698.1
10644.5
6538.98
5318.15
6653.78
8323.03
9994.77
10289
10176.1
9313.9
8507.84
7514.4
6735.61
5964.22
5391.41
4866.81
4481.87
4134.91
3873.67
3635.53
3447.04
3269.68
3117.18
2966.5
2825.01
2681.52
2541.2
2401.51
2265.91
2136.65
2014.34
1902.99
1799.39
1708.02
1622.14
1547.03
1473.37
1407.99
1339.89
1277.65
1209.52
1145.41
1073.96
1005.52
930.387
859.508
786.318
376.757
377.279
380.784
391.512
419.125
480.795
597.199
778.597
1009.17
1247.19
1446.36
1579.94
1646.77
1663.76
1651.89
1629.69
1608.13
1594.26
1590.02
1597.76
1616.43
1647.72
1689.41
1744.17
1808.99
1888.69
1979.05
2088.18
2209.56
2356.56
2518.46
2717.39
2935.33
3209.5
3509.19
3898.24
4323.73
4898.23
5531.12
6426
7424.04
8888.51
10513.2
12897.3
15396.1
18852.2
22026
25895.4
29046.8
31518.2
32850.4
27062.4
20710.8
10654.7
6547.28
5325.39
6658.96
8325.66
9995.77
10289.1
10175.4
9312.68
8506.46
7513.2
6734.68
5963.51
5390.78
4866.22
4481.34
4134.47
3873.33
3635.29
3446.89
3269.61
3117.16
2966.53
2825.08
2681.61
2541.3
2401.62
2266.01
2136.74
2014.43
1903.07
1799.49
1708.13
1622.27
1547.2
1473.58
1408.24
1340.17
1277.97
1209.87
1145.78
1074.32
1005.89
930.732
859.826
786.587
376.765
377.298
380.828
391.613
419.341
481.187
597.761
779.208
1009.67
1247.48
1446.47
1579.9
1646.61
1663.5
1651.55
1629.3
1607.72
1593.85
1589.65
1597.42
1616.13
1647.46
1689.18
1743.96
1808.8
1888.52
1978.89
2088.03
2209.41
2356.41
2518.32
2717.25
2935.19
3209.36
3509.03
3898.03
4323.44
4897.83
5530.58
6425.3
7423.19
8887.56
10512.3
12896.6
15395.8
18852.5
22026.7
25896.5
29047.3
31520.5
32854.9
27069.7
20724.2
10665.3
6556.01
5333.04
6664.47
8328.51
9996.86
10289.1
10174.6
9311.38
8504.97
7511.9
6733.66
5962.71
5390.08
4865.58
4480.75
4133.98
3872.95
3635.02
3446.72
3269.52
3117.13
2966.54
2825.12
2681.69
2541.39
2401.71
2266.11
2136.83
2014.51
1903.15
1799.57
1708.23
1622.4
1547.37
1473.79
1408.49
1340.46
1278.3
1210.22
1146.15
1074.7
1006.26
931.09
860.159
786.873
376.773
377.319
380.874
391.719
419.569
481.6
598.351
779.851
1010.19
1247.79
1446.57
1579.86
1646.45
1663.23
1651.19
1628.88
1607.28
1593.42
1589.25
1597.06
1615.81
1647.18
1688.93
1743.73
1808.6
1888.33
1978.71
2087.86
2209.24
2356.25
2518.15
2717.09
2935.03
3209.18
3508.83
3897.78
4323.11
4897.37
5529.98
6424.52
7422.26
8886.51
10511.2
12895.8
15395.4
18852.7
22027.2
25897.5
29047.7
31522.7
32859.5
27077.4
20738.3
10676.4
6565.2
5341.12
6670.32
8331.58
9998.08
10289.1
10173.8
9309.99
8503.39
7510.5
6732.57
5961.85
5389.31
4864.87
4480.11
4133.44
3872.52
3634.71
3446.52
3269.4
3117.07
2966.53
2825.15
2681.75
2541.47
2401.8
2266.19
2136.91
2014.58
1903.21
1799.64
1708.32
1622.52
1547.53
1473.99
1408.74
1340.75
1278.62
1210.57
1146.52
1075.09
1006.64
931.461
860.509
787.175
376.781
377.34
380.923
391.831
419.807
482.033
598.971
780.527
1010.74
1248.11
1446.68
1579.81
1646.27
1662.94
1650.8
1628.43
1606.81
1592.97
1588.82
1596.67
1615.46
1646.87
1688.65
1743.49
1808.37
1888.12
1978.51
2087.67
2209.06
2356.06
2517.97
2716.9
2934.84
3208.97
3508.6
3897.49
4322.73
4896.87
5529.32
6423.68
7421.24
8885.36
10510.1
12894.8
15394.8
18852.8
22027.5
25898.4
29047.9
31524.8
32864.3
27085.4
20752.9
10688.1
6574.85
5349.65
6676.55
8334.9
9999.42
10289.2
10173
9308.52
8501.72
7509.03
6731.39
5960.91
5388.49
4864.11
4479.41
4132.85
3872.05
3634.37
3446.28
3269.25
3117
2966.51
2825.17
2681.8
2541.54
2401.88
2266.27
2136.97
2014.64
1903.27
1799.7
1708.4
1622.63
1547.68
1474.18
1408.98
1341.04
1278.95
1210.93
1146.91
1075.48
1007.04
931.846
860.874
787.493
376.79
377.363
380.974
391.947
420.057
482.485
599.62
781.235
1011.31
1248.44
1446.79
1579.75
1646.08
1662.63
1650.39
1627.95
1606.31
1592.48
1588.36
1596.26
1615.1
1646.54
1688.36
1743.22
1808.13
1887.89
1978.29
2087.45
2208.85
2355.85
2517.76
2716.69
2934.62
3208.74
3508.33
3897.16
4322.31
4896.31
5528.6
6422.76
7420.13
8884.12
10508.8
12893.8
15394.1
18852.8
22027.8
25899
29047.9
31526.9
32869.2
27093.7
20768.3
10700.4
6584.98
5358.64
6683.16
8338.48
10000.9
10289.3
10172.1
9306.99
8499.96
7507.47
6730.14
5959.91
5387.6
4863.29
4478.67
4132.22
3871.55
3633.99
3446.02
3269.09
3116.9
2966.47
2825.17
2681.83
2541.6
2401.94
2266.33
2137.03
2014.68
1903.31
1799.75
1708.48
1622.74
1547.83
1474.38
1409.22
1341.32
1279.28
1211.29
1147.3
1075.89
1007.45
932.245
861.255
787.829
376.799
377.386
381.027
392.069
420.318
482.959
600.299
781.975
1011.91
1248.8
1446.91
1579.69
1645.88
1662.3
1649.95
1627.45
1605.78
1591.96
1587.88
1595.82
1614.7
1646.19
1688.05
1742.93
1807.86
1887.64
1978.05
2087.22
2208.62
2355.63
2517.53
2716.45
2934.38
3208.48
3508.04
3896.8
4321.85
4895.7
5527.82
6421.78
7418.95
8882.79
10507.4
12892.6
15393.3
18852.6
22027.8
25899.6
29047.8
31529
32874.3
27102.4
20784.3
10713.2
6595.61
5368.11
6690.16
8342.33
10002.5
10289.5
10171.2
9305.4
8498.14
7505.83
6728.82
5958.85
5386.66
4862.43
4477.88
4131.54
3871
3633.59
3445.73
3268.9
3116.78
2966.41
2825.16
2681.86
2541.65
2402
2266.39
2137.08
2014.72
1903.35
1799.8
1708.54
1622.84
1547.97
1474.57
1409.46
1341.61
1279.62
1211.66
1147.69
1076.3
1007.86
932.658
861.652
788.181
376.808
377.41
381.083
392.196
420.59
483.452
601.006
782.747
1012.54
1249.17
1447.03
1579.63
1645.67
1661.95
1649.49
1626.91
1605.22
1591.41
1587.37
1595.35
1614.28
1645.82
1687.71
1742.63
1807.58
1887.37
1977.8
2086.97
2208.38
2355.38
2517.28
2716.19
2934.11
3208.19
3507.71
3896.4
4321.34
4895.05
5526.98
6420.72
7417.68
8881.35
10506
12891.3
15392.4
18852.3
22027.8
25899.9
29047.5
31531
32879.6
27111.4
20801.1
10726.6
6606.76
5378.07
6697.59
8346.47
10004.3
10289.7
10170.3
9303.77
8496.24
7504.13
6727.43
5957.72
5385.67
4861.51
4477.04
4130.82
3870.42
3633.14
3445.41
3268.68
3116.65
2966.33
2825.13
2681.87
2541.68
2402.05
2266.43
2137.11
2014.75
1903.37
1799.83
1708.6
1622.93
1548.11
1474.75
1409.7
1341.9
1279.95
1212.03
1148.1
1076.72
1008.3
933.084
862.065
788.55
376.818
377.436
381.14
392.328
420.873
483.966
601.743
783.551
1013.2
1249.55
1447.16
1579.56
1645.44
1661.58
1649.01
1626.35
1604.63
1590.84
1586.83
1594.86
1613.84
1645.42
1687.35
1742.3
1807.28
1887.09
1977.53
2086.71
2208.11
2355.11
2517.01
2715.91
2933.82
3207.87
3507.35
3895.96
4320.79
4894.34
5526.08
6419.59
7416.33
8879.83
10504.4
12889.9
15391.3
18851.9
22027.6
25900.2
29047.1
31533.1
32885
27120.9
20818.6
10740.7
6618.45
5388.55
6705.45
8350.92
10006.3
10290.1
10169.4
9302.09
8494.29
7502.36
6725.99
5956.55
5384.62
4860.55
4476.16
4130.07
3869.8
3632.67
3445.07
3268.45
3116.49
2966.24
2825.1
2681.87
2541.71
2402.09
2266.47
2137.14
2014.77
1903.39
1799.86
1708.65
1623.02
1548.24
1474.94
1409.94
1342.18
1280.29
1212.41
1148.51
1077.15
1008.74
933.525
862.495
788.936
376.828
377.462
381.2
392.466
421.167
484.499
602.508
784.387
1013.88
1249.95
1447.29
1579.49
1645.2
1661.19
1648.49
1625.76
1604.02
1590.23
1586.26
1594.34
1613.38
1645
1686.97
1741.96
1806.96
1886.78
1977.23
2086.42
2207.82
2354.82
2516.71
2715.6
2933.5
3207.52
3506.95
3895.49
4320.2
4893.58
5525.12
6418.39
7414.9
8878.21
10502.7
12888.4
15390.1
18851.4
22027.2
25900.3
29046.5
31535.1
32890.7
27130.8
20836.9
10755.4
6630.68
5399.56
6713.76
8355.69
10008.5
10290.5
10168.6
9300.39
8492.28
7500.53
6724.49
5955.32
5383.53
4859.54
4475.24
4129.27
3869.15
3632.17
3444.7
3268.19
3116.32
2966.14
2825.05
2681.87
2541.73
2402.12
2266.5
2137.16
2014.78
1903.4
1799.88
1708.7
1623.1
1548.37
1475.11
1410.17
1342.47
1280.63
1212.79
1148.93
1077.6
1009.19
933.981
862.941
789.34
376.838
377.489
381.262
392.608
421.473
485.053
603.302
785.255
1014.59
1250.36
1447.43
1579.41
1644.95
1660.78
1647.96
1625.15
1603.37
1589.6
1585.67
1593.8
1612.89
1644.56
1686.58
1741.59
1806.62
1886.46
1976.92
2086.11
2207.52
2354.51
2516.4
2715.27
2933.15
3207.14
3506.53
3894.98
4319.57
4892.77
5524.1
6417.13
7413.39
8876.5
10500.9
12886.8
15388.9
18850.8
22026.8
25900.3
29045.8
31537.1
32896.6
27141.1
20856
10770.7
6643.49
5411.12
6722.54
8360.81
10011
10291
10167.7
9298.67
8490.23
7498.66
6722.93
5954.04
5382.39
4858.49
4474.28
4128.44
3868.47
3631.65
3444.31
3267.92
3116.13
2966.02
2824.99
2681.85
2541.74
2402.14
2266.52
2137.17
2014.79
1903.4
1799.89
1708.73
1623.17
1548.49
1475.29
1410.41
1342.76
1280.97
1213.18
1149.35
1078.05
1009.66
934.45
863.404
789.761
376.849
377.518
381.327
392.756
421.79
485.628
604.125
786.155
1015.32
1250.8
1447.57
1579.33
1644.69
1660.36
1647.4
1624.5
1602.7
1588.94
1585.04
1593.23
1612.38
1644.1
1686.16
1741.2
1806.26
1886.12
1976.59
2085.78
2207.19
2354.18
2516.06
2714.92
2932.78
3206.74
3506.07
3894.43
4318.9
4891.92
5523.03
6415.79
7411.81
8874.7
10499
12885.1
15387.5
18850
22026.2
25900.2
29045
31539.2
32902.7
27151.8
20875.9
10786.8
6656.89
5423.25
6731.81
8366.29
10013.6
10291.7
10166.9
9296.94
8488.15
7496.74
6721.33
5952.72
5381.21
4857.4
4473.28
4127.57
3867.75
3631.09
3443.9
3267.62
3115.93
2965.89
2824.91
2681.83
2541.75
2402.16
2266.53
2137.18
2014.78
1903.39
1799.89
1708.76
1623.24
1548.61
1475.46
1410.64
1343.05
1281.32
1213.57
1149.79
1078.51
1010.14
934.935
863.884
790.2
376.86
377.547
381.394
392.909
422.118
486.222
604.977
787.087
1016.08
1251.24
1447.72
1579.25
1644.42
1659.92
1646.82
1623.83
1601.99
1588.25
1584.4
1592.64
1611.84
1643.62
1685.72
1740.8
1805.88
1885.75
1976.24
2085.44
2206.85
2353.83
2515.7
2714.54
2932.38
3206.3
3505.58
3893.84
4318.18
4891.01
5521.9
6414.39
7410.14
8872.81
10497
12883.3
15386
18849.2
22025.5
25899.9
29044
31541.3
32909
27163.1
20896.6
10803.5
6670.9
5435.98
6741.59
8372.14
10016.5
10292.5
10166.2
9295.2
8486.04
7494.78
6719.69
5951.36
5379.99
4856.28
4472.25
4126.67
3867.01
3630.51
3443.47
3267.31
3115.71
2965.75
2824.83
2681.79
2541.74
2402.17
2266.54
2137.17
2014.77
1903.38
1799.89
1708.78
1623.3
1548.72
1475.63
1410.87
1343.34
1281.66
1213.96
1150.23
1078.98
1010.63
935.434
864.38
790.657
376.872
377.577
381.463
393.068
422.457
486.837
605.858
788.05
1016.87
1251.71
1447.88
1579.16
1644.13
1659.46
1646.22
1623.14
1601.26
1587.53
1583.72
1592.02
1611.28
1643.11
1685.26
1740.37
1805.48
1885.37
1975.87
2085.07
2206.48
2353.45
2515.32
2714.14
2931.96
3205.84
3505.06
3893.22
4317.42
4890.06
5520.71
6412.92
7408.39
8870.83
10495
12881.4
15384.4
18848.3
22024.7
25899.6
29043
31543.4
32915.7
27174.8
20918.3
10821
6685.55
5449.32
6751.9
8378.4
10019.7
10293.4
10165.5
9293.48
8483.9
7492.78
6718.02
5949.96
5378.74
4855.12
4471.19
4125.75
3866.24
3629.91
3443.01
3266.98
3115.48
2965.6
2824.74
2681.75
2541.73
2402.17
2266.54
2137.16
2014.75
1903.36
1799.88
1708.8
1623.36
1548.83
1475.8
1411.1
1343.63
1282.01
1214.36
1150.67
1079.46
1011.13
935.948
864.894
791.131
376.884
377.609
381.534
393.232
422.808
487.471
606.768
789.045
1017.68
1252.19
1448.04
1579.07
1643.84
1658.98
1645.59
1622.41
1600.5
1586.78
1583.02
1591.38
1610.7
1642.58
1684.78
1739.93
1805.06
1884.98
1975.48
2084.69
2206.1
2353.06
2514.91
2713.72
2931.51
3205.35
3504.51
3892.57
4316.62
4889.06
5519.47
6411.38
7406.57
8868.77
10492.8
12879.4
15382.7
18847.2
22023.8
25899.1
29041.9
31545.6
32922.6
27187
20940.8
10839.2
6700.84
5463.29
6762.76
8385.07
10023.2
10294.5
10164.9
9291.78
8481.76
7490.76
6716.31
5948.53
5377.46
4853.93
4470.09
4124.79
3865.44
3629.28
3442.54
3266.64
3115.23
2965.43
2824.64
2681.7
2541.72
2402.16
2266.53
2137.15
2014.72
1903.33
1799.86
1708.81
1623.41
1548.94
1475.97
1411.33
1343.92
1282.37
1214.77
1151.13
1079.95
1011.65
936.476
865.424
791.623
376.896
377.641
381.608
393.401
423.17
488.126
607.706
790.071
1018.52
1252.68
1448.2
1578.98
1643.54
1658.49
1644.94
1621.66
1599.71
1586
1582.29
1590.71
1610.09
1642.03
1684.27
1739.47
1804.63
1884.56
1975.08
2084.29
2205.69
2352.65
2514.49
2713.27
2931.04
3204.83
3503.93
3891.87
4315.78
4888
5518.16
6409.78
7404.67
8866.61
10490.5
12877.3
15380.9
18846.1
22022.7
25898.6
29040.6
31547.8
32929.8
27199.8
20964.3
10858.2
6716.81
5477.91
6774.2
8392.18
10026.9
10295.8
10164.4
9290.11
8479.6
7488.72
6714.57
5947.07
5376.14
4852.71
4468.96
4123.8
3864.62
3628.63
3442.05
3266.28
3114.98
2965.26
2824.54
2681.65
2541.69
2402.15
2266.51
2137.12
2014.69
1903.29
1799.84
1708.82
1623.46
1549.04
1476.13
1411.56
1344.21
1282.73
1215.18
1151.59
1080.45
1012.18
937.02
865.973
792.134
376.909
377.674
381.684
393.576
423.544
488.802
608.673
791.129
1019.39
1253.2
1448.37
1578.89
1643.22
1657.98
1644.26
1620.88
1598.89
1585.2
1581.53
1590.01
1609.46
1641.46
1683.75
1738.98
1804.17
1884.12
1974.65
2083.86
2205.27
2352.21
2514.04
2712.8
2930.54
3204.28
3503.31
3891.15
4314.9
4886.91
5516.81
6408.11
7402.69
8864.37
10488.2
12875
15379.1
18844.9
22021.6
25897.9
29039.3
31550.2
32937.3
27213.1
20988.7
10878
6733.48
5493.21
6786.22
8399.74
10031
10297.3
10164
9288.48
8477.46
7486.67
6712.81
5945.58
5374.8
4851.46
4467.81
4122.79
3863.77
3627.96
3441.54
3265.9
3114.71
2965.08
2824.42
2681.59
2541.66
2402.14
2266.49
2137.09
2014.64
1903.25
1799.81
1708.81
1623.5
1549.14
1476.29
1411.79
1344.5
1283.09
1215.6
1152.07
1080.96
1012.72
937.579
866.538
792.663
376.922
377.709
381.763
393.756
423.928
489.497
609.669
792.219
1020.28
1253.72
1448.55
1578.79
1642.9
1657.45
1643.57
1620.08
1598.05
1584.37
1580.75
1589.29
1608.81
1640.87
1683.21
1738.48
1803.7
1883.67
1974.21
2083.42
2204.83
2351.76
2513.57
2712.31
2930.02
3203.71
3502.66
3890.38
4313.98
4885.76
5515.39
6406.38
7400.64
8862.05
10485.7
12872.7
15377.1
18843.6
22020.4
25897.2
29037.9
31552.6
32945.2
27227
21014.1
10898.7
6750.87
5509.2
6798.85
8407.77
10035.4
10299
10163.7
9286.89
8475.32
7484.6
6711.03
5944.08
5373.44
4850.2
4466.64
4121.76
3862.91
3627.27
3441.01
3265.51
3114.43
2964.88
2824.3
2681.52
2541.63
2402.11
2266.47
2137.06
2014.6
1903.2
1799.77
1708.81
1623.54
1549.23
1476.45
1412.02
1344.8
1283.45
1216.02
1152.55
1081.49
1013.28
938.154
867.121
793.21
376.936
377.744
381.844
393.941
424.325
490.213
610.693
793.339
1021.2
1254.27
1448.73
1578.69
1642.57
1656.91
1642.85
1619.25
1597.18
1583.51
1579.94
1588.55
1608.13
1640.25
1682.65
1737.95
1803.21
1883.19
1973.75
2082.96
2204.36
2351.28
2513.08
2711.79
2929.47
3203.1
3501.99
3889.58
4313.02
4884.56
5513.92
6404.58
7398.51
8859.63
10483.2
12870.3
15375
18842.2
22019.1
25896.4
29036.4
31555.1
32953.4
27241.5
21040.5
10920.2
6769
5525.92
6812.11
8416.29
10040.2
10300.9
10163.5
9285.37
8473.2
7482.54
6709.24
5942.55
5372.05
4848.9
4465.44
4120.7
3862.02
3626.57
3440.47
3265.11
3114.13
2964.68
2824.17
2681.45
2541.59
2402.09
2266.44
2137.01
2014.55
1903.15
1799.73
1708.8
1623.58
1549.33
1476.61
1412.25
1345.09
1283.82
1216.45
1153.04
1082.02
1013.85
938.744
867.722
793.776
376.95
377.781
381.927
394.132
424.732
490.949
611.746
794.491
1022.14
1254.83
1448.93
1578.59
1642.23
1656.35
1642.11
1618.39
1596.28
1582.62
1579.1
1587.78
1607.43
1639.61
1682.06
1737.41
1802.69
1882.7
1973.26
2082.48
2203.88
2350.79
2512.57
2711.25