/*--------------------------------*- C++ -*----------------------------------*\
| =========                 |                                                 |
| \\      /  F ield         | OpenFOAM: The Open Source CFD Toolbox           |
|  \\    /   O peration     | Version:  2412                                  |
|   \\  /    A nd           | Website:  www.openfoam.com                      |
|    \\/     M anipulation  |                                                 |
\*---------------------------------------------------------------------------*/
FoamFile
{
    version     2.0;
    format      ascii;
    arch        "LSB;label=32;scalar=64";
    class       volScalarField;
    location    "0.7";
    object      k;
}
// * * * * * * * * * * * * * * * * * * * * * * * * * * * * * * * * * * * * * //

dimensions      [0 2 -2 0 0 0 0];

internalField   nonuniform List<scalar> 
13068
(
37.4893
37.6002
38.0045
39.038
41.2944
45.5274
52.1867
60.7782
69.7518
77.2608
82.1603
84.4003
84.6727
83.9083
82.8451
81.9526
81.3955
81.2339
81.4129
81.9422
82.7518
83.8832
85.2541
86.9476
88.8565
91.1235
93.596
96.503
99.6136
103.288
107.166
111.812
116.664
122.61
128.761
136.517
144.468
154.836
165.409
179.715
194.24
214.343
234.223
261.389
286.29
318.436
344.042
374.147
396.046
411.089
416.298
357.583
294.727
176.476
128.687
134.715
173.143
200.867
221.394
220.961
217.058
204.012
193.232
179.539
169.311
158.473
150.659
142.879
137.217
131.646
127.446
123.312
119.999
116.654
113.696
110.599
107.612
104.481
101.378
98.2464
95.183
92.2377
89.4121
86.8066
84.3131
82.0678
79.861
77.878
75.8228
73.9442
71.8759
69.9348
67.7066
65.5635
63.0803
60.6625
57.9223
55.314
52.5707
37.4893
37.6004
38.0047
39.0385
41.2951
45.5281
52.187
60.7779
69.7514
77.261
82.1619
84.4034
84.6767
83.9127
82.8494
81.9567
81.3995
81.2378
81.4167
81.9461
82.7557
83.8872
85.2582
86.9518
88.8608
91.128
93.6007
96.5079
99.6188
103.293
107.172
111.819
116.672
122.618
128.769
136.526
144.477
154.845
165.419
179.725
194.251
214.355
234.238
261.407
286.313
318.465
344.075
374.181
396.076
411.117
416.322
357.61
294.768
176.51
128.714
134.735
173.158
200.876
221.405
220.976
217.073
204.026
193.245
179.552
169.324
158.486
150.669
142.888
137.226
131.655
127.455
123.321
120.008
116.662
113.704
110.606
107.619
104.488
101.385
98.2529
95.1895
92.2441
89.4185
86.8131
84.3198
82.0748
79.8684
77.8858
75.8309
73.9526
71.8842
69.9427
67.714
65.5697
63.0851
60.6652
57.9229
55.3121
52.5664
37.4894
37.6006
38.0052
39.0393
41.2965
45.5299
52.1886
60.7787
69.7515
77.2614
82.1633
84.4061
84.6803
83.9166
82.8534
81.9605
81.4031
81.2414
81.4203
81.9498
82.7595
83.8911
85.2623
86.956
88.8652
91.1325
93.6054
96.5128
99.624
103.299
107.178
111.826
116.679
122.626
128.778
136.535
144.486
154.854
165.428
179.735
194.262
214.367
234.253
261.426
286.337
318.494
344.108
374.215
396.107
411.147
416.35
357.643
294.818
176.55
128.747
134.761
173.176
200.888
221.418
220.992
217.089
204.039
193.257
179.565
169.338
158.498
150.68
142.898
137.235
131.664
127.464
123.33
120.016
116.67
113.712
110.614
107.626
104.495
101.392
98.2597
95.1962
92.2508
89.4252
86.8198
84.3267
82.0819
79.8759
77.8938
75.8394
73.9613
71.8929
69.9512
67.7218
65.5765
63.0905
60.6687
57.9244
55.3112
52.563
37.4895
37.6009
38.0058
39.0406
41.2987
45.5329
52.1916
60.7807
69.7523
77.2618
82.1644
84.4082
84.6832
83.9198
82.8565
81.9636
81.4061
81.2444
81.4234
81.953
82.7629
83.8947
85.266
86.9599
88.8692
91.1368
93.6098
96.5175
99.629
103.304
107.184
111.832
116.686
122.633
128.786
136.543
144.494
154.863
165.437
179.744
194.272
214.379
234.266
261.444
286.359
318.522
344.14
374.25
396.138
411.178
416.379
357.678
294.874
176.598
128.786
134.791
173.197
200.9
221.43
221.007
217.103
204.051
193.268
179.577
169.35
158.51
150.69
142.907
137.243
131.673
127.473
123.338
120.025
116.678
113.72
110.622
107.634
104.502
101.399
98.2664
95.2029
92.2574
89.4318
86.8265
84.3335
82.0891
79.8835
77.9019
75.8479
73.9701
71.9018
69.9599
67.73
65.5837
63.0964
60.6729
57.9265
55.311
52.5605
37.4897
37.6012
38.0067
39.0423
41.3017
45.5372
52.1961
60.784
69.7537
77.2622
82.165
84.4096
84.6853
83.9221
82.8588
81.9658
81.4083
81.2466
81.4258
81.9556
82.7657
83.8977
85.2692
86.9633
88.8729
91.1406
93.6139
96.5218
99.6335
103.309
107.189
111.838
116.692
122.64
128.794
136.551
144.502
154.87
165.444
179.752
194.28
214.389
234.279
261.46
286.381
318.549
344.171
374.282
396.167
411.209
416.409
357.716
294.935
176.651
128.83
134.825
173.22
200.914
221.443
221.021
217.116
204.062
193.278
179.587
169.361
158.52
150.698
142.914
137.251
131.68
127.48
123.346
120.032
116.686
113.727
110.629
107.641
104.509
101.405
98.273
95.2094
92.2638
89.4382
86.8329
84.3401
82.096
79.8909
77.9098
75.8563
73.9789
71.9108
69.9687
67.7384
65.5912
63.1028
60.6775
57.9292
55.3115
52.5587
37.4898
37.6017
38.0077
39.0445
41.3056
45.5427
52.2021
60.7885
69.7559
77.2627
82.1652
84.4103
84.6865
83.9235
82.8601
81.967
81.4096
81.2481
81.4276
81.9576
82.7679
83.9002
85.2719
86.9663
88.876
91.1439
93.6175
96.5256
99.6376
103.313
107.194
111.843
116.698
122.647
128.8
136.558
144.509
154.877
165.451
179.759
194.288
214.398
234.29
261.476
286.401
318.575
344.2
374.313
396.195
411.239
416.44
357.755
295.002
176.71
128.88
134.863
173.246
200.929
221.456
221.035
217.128
204.071
193.286
179.596
169.37
158.529
150.706
142.921
137.257
131.687
127.487
123.353
120.04
116.693
113.734
110.636
107.647
104.515
101.412
98.2793
95.2156
92.27
89.4443
86.8391
84.3464
82.1027
79.8981
77.9176
75.8646
73.9877
71.9198
69.9777
67.7469
65.599
63.1095
60.6825
57.9325
55.3126
52.5575
37.49
37.6022
38.009
39.0471
41.3103
45.5496
52.2096
60.7943
69.7587
77.2632
82.1649
84.4102
84.6867
83.9239
82.8605
81.9673
81.41
81.2488
81.4285
81.9589
82.7695
83.9021
85.2741
86.9687
88.8787
91.1468
93.6206
96.5289
99.6412
103.317
107.198
111.848
116.704
122.653
128.807
136.564
144.515
154.883
165.457
179.765
194.294
214.405
234.3
261.489
286.419
318.599
344.227
374.343
396.22
411.268
416.471
357.796
295.075
176.775
128.935
134.905
173.274
200.944
221.469
221.047
217.139
204.078
193.292
179.603
169.378
158.537
150.712
142.926
137.262
131.692
127.493
123.359
120.046
116.7
113.741
110.643
107.654
104.521
101.418
98.2853
95.2216
92.2758
89.4501
86.8449
84.3525
82.1092
79.9051
77.9252
75.8728
73.9964
71.9288
69.9867
67.7557
65.607
63.1165
60.6881
57.9363
55.3143
52.557
37.4902
37.6029
38.0105
39.0502
41.3159
45.5577
52.2186
60.8014
69.7622
77.2638
82.1642
84.4093
84.6861
83.9233
82.8598
81.9667
81.4096
81.2486
81.4288
81.9595
82.7705
83.9034
85.2758
86.9706
88.8809
91.1492
93.6232
96.5317
99.6443
103.32
107.202
111.852
116.708
122.658
128.812
136.57
144.52
154.888
165.461
179.769
194.299
214.411
234.308
261.501
286.436
318.621
344.253
374.37
396.244
411.296
416.502
357.839
295.152
176.846
128.995
134.95
173.305
200.961
221.482
221.059
217.147
204.084
193.297
179.609
169.385
158.543
150.718
142.93
137.267
131.697
127.498
123.365
120.052
116.706
113.747
110.649
107.66
104.527
101.424
98.291
95.2272
92.2814
89.4556
86.8505
84.3583
82.1155
79.9119
77.9327
75.8809
74.0051
71.9378
69.9959
67.7646
65.6153
63.1239
60.694
57.9407
55.3167
52.5572
37.4905
37.6036
38.0121
39.0537
41.3223
45.5671
52.2291
60.8098
69.7665
77.2644
82.163
84.4078
84.6846
83.9217
82.8582
81.9651
81.4083
81.2477
81.4283
81.9595
82.7709
83.9042
85.2769
86.972
88.8825
91.1511
93.6253
96.5341
99.6469
103.323
107.205
111.856
116.713
122.662
128.817
136.574
144.525
154.892
165.465
179.772
194.302
214.416
234.315
261.512
286.451
318.642
344.277
374.396
396.266
411.323
416.534
357.884
295.235
176.922
129.061
135
173.338
200.979
221.494
221.069
217.155
204.088
193.3
179.613
169.39
158.548
150.721
142.934
137.27
131.701
127.503
123.37
120.057
116.712
113.753
110.654
107.665
104.533
101.429
98.2964
95.2325
92.2866
89.4608
86.8558
84.3639
82.1214
79.9185
77.94
75.8889
74.0137
71.9469
70.0051
67.7737
65.6239
63.1316
60.7004
57.9456
55.3197
52.5581
37.4907
37.6044
38.014
39.0577
41.3295
45.5777
52.2411
60.8195
69.7714
77.265
82.1613
84.4054
84.6821
83.9192
82.8556
81.9626
81.406
81.2459
81.4271
81.9587
82.7707
83.9044
85.2774
86.9729
88.8837
91.1525
93.6269
96.5359
99.649
103.326
107.208
111.859
116.716
122.666
128.821
136.578
144.528
154.895
165.467
179.774
194.304
214.419
234.32
261.521
286.465
318.661
344.298
374.42
396.286
411.349
416.566
357.931
295.324
177.004
129.132
135.053
173.373
200.998
221.507
221.079
217.161
204.09
193.301
179.616
169.394
158.552
150.724
142.935
137.272
131.703
127.506
123.374
120.062
116.717
113.758
110.66
107.671
104.538
101.434
98.3015
95.2375
92.2916
89.4657
86.8608
84.3691
82.1272
79.9249
77.9471
75.8968
74.0222
71.9559
70.0144
67.7829
65.6327
63.1397
60.7073
57.951
55.3233
52.5596
37.491
37.6053
38.0161
39.0621
41.3375
45.5897
52.2546
60.8304
69.7769
77.2656
82.1592
84.4023
84.6788
83.9157
82.852
81.9591
81.4029
81.2434
81.4251
81.9574
82.7698
83.904
85.2775
86.9733
88.8844
91.1534
93.6281
96.5373
99.6506
103.328
107.21
111.861
116.719
122.669
128.824
136.581
144.531
154.897
165.468
179.775
194.305
214.421
234.324
261.529
286.477
318.679
344.319
374.442
396.304
411.375
416.599
357.979
295.418
177.092
129.208
135.111
173.412
201.018
221.519
221.088
217.165
204.09
193.3
179.617
169.397
158.555
150.726
142.936
137.273
131.705
127.509
123.378
120.066
116.721
113.763
110.664
107.675
104.543
101.439
98.3063
95.2423
92.2963
89.4704
86.8655
84.3741
82.1327
79.9311
77.9541
75.9046
74.0307
71.965
70.0238
67.7923
65.6418
63.1481
60.7145
57.9569
55.3276
52.5618
37.4914
37.6063
38.0184
39.0669
41.3464
45.6029
52.2696
60.8426
69.7832
77.2663
82.1566
84.3985
84.6746
83.9112
82.8474
81.9547
81.399
81.24
81.4224
81.9553
82.7684
83.903
85.2769
86.9731
88.8845
91.1538
93.6287
96.5381
99.6517
103.329
107.212
111.863
116.721
122.672
128.827
136.584
144.532
154.898
165.469
179.775
194.305
214.421
234.326
261.535
286.488
318.695
344.337
374.463
396.32
411.4
416.632
358.03
295.517
177.187
129.29
135.173
173.453
201.039
221.532
221.096
217.169
204.089
193.298
179.616
169.398
158.556
150.726
142.936
137.273
131.706
127.511
123.38
120.07
116.725
113.767
110.669
107.68
104.547
101.444
98.3109
95.2467
92.3006
89.4747
86.87
84.3789
82.1379
79.937
77.9609
75.9122
74.0392
71.9741
70.0333
67.8019
65.6511
63.1569
60.7223
57.9634
55.3325
52.5647
37.4917
37.6073
38.0209
39.0722
41.3561
45.6174
52.286
60.856
69.7901
77.2669
82.1535
84.3939
84.6694
83.9058
82.8419
81.9494
81.3941
81.2359
81.419
81.9526
82.7663
83.9015
85.2759
86.9725
88.8842
91.1538
93.6289
96.5385
99.6523
103.33
107.213
111.865
116.723
122.674
128.829
136.585
144.533
154.898
165.468
179.773
194.303
214.42
234.327
261.539
286.497
318.709
344.353
374.481
396.334
411.423
416.666
358.083
295.623
177.287
129.378
135.239
173.497
201.062
221.545
221.104
217.171
204.087
193.295
179.614
169.398
158.556
150.725
142.935
137.272
131.706
127.512
123.382
120.072
116.729
113.771
110.673
107.684
104.552
101.448
98.3151
95.2509
92.3047
89.4787
86.8741
84.3833
82.143
79.9428
77.9676
75.9198
74.0476
71.9832
70.0429
67.8117
65.6607
63.1661
60.7305
57.9705
55.338
52.5682
37.4921
37.6085
38.0236
39.078
41.3667
45.6331
52.3039
60.8707
69.7977
77.2676
82.15
84.3886
84.6634
83.8995
82.8354
81.9431
81.3884
81.2309
81.4148
81.9492
82.7636
83.8994
85.2743
86.9713
88.8833
91.1532
93.6286
96.5384
99.6524
103.33
107.214
111.866
116.724
122.675
128.83
136.586
144.533
154.897
165.466
179.77
194.3
214.417
234.326
261.542
286.504
318.722
344.368
374.498
396.347
411.447
416.7
358.138
295.734
177.393
129.472
135.309
173.544
201.086
221.558
221.11
217.171
204.083
193.289
179.611
169.396
158.555
150.723
142.932
137.27
131.705
127.512
123.384
120.075
116.732
113.774
110.676
107.688
104.556
101.452
98.3191
95.2548
92.3085
89.4825
86.878
84.3876
82.1478
79.9484
77.9741
75.9272
74.056
71.9923
70.0526
67.8217
65.6706
63.1756
60.7391
57.9781
55.3442
52.5725
37.4925
37.6097
38.0265
39.0842
41.3781
45.6501
52.3233
60.8866
69.8059
77.2683
82.1461
84.3826
84.6566
83.8921
82.8279
81.9359
81.3818
81.2251
81.4099
81.9451
82.7603
83.8967
85.2722
86.9696
88.882
91.1521
93.6278
96.5378
99.652
103.33
107.214
111.866
116.725
122.676
128.831
136.586
144.533
154.895
165.463
179.766
194.295
214.413
234.324
261.544
286.51
318.733
344.381
374.514
396.358
411.469
416.735
358.195
295.851
177.506
129.571
135.384
173.594
201.111
221.571
221.117
217.171
204.077
193.283
179.606
169.394
158.553
150.72
142.929
137.267
131.703
127.511
123.384
120.076
116.734
113.777
110.68
107.691
104.559
101.456
98.3228
95.2584
92.312
89.486
86.8816
84.3915
82.1524
79.9538
77.9804
75.9346
74.0644
72.0015
70.0624
67.8318
65.6808
63.1855
60.7483
57.9862
55.351
52.5774
37.493
37.6111
38.0296
39.0908
41.3903
45.6683
52.3442
60.9038
69.8148
77.2691
82.1417
84.3758
84.6488
83.8839
82.8195
81.9277
81.3743
81.2185
81.4043
81.9404
82.7564
83.8935
85.2695
86.9674
88.8802
91.1506
93.6265
96.5367
99.6511
103.329
107.213
111.866
116.725
122.676
128.831
136.585
144.531
154.892
165.459
179.761
194.289
214.408
234.321
261.544
286.514
318.743
344.393
374.528
396.367
411.491
416.771
358.255
295.975
177.626
129.677
135.464
173.647
201.138
221.585
221.122
217.169
204.07
193.275
179.6
169.39
158.549
150.716
142.924
137.263
131.7
127.51
123.384
120.077
116.736
113.78
110.683
107.695
104.563
101.459
98.3262
95.2617
92.3153
89.4892
86.885
84.3953
82.1567
79.959
77.9867
75.9419
74.0727
72.0107
70.0723
67.8421
65.6912
63.1957
60.7579
57.9949
55.3585
52.583
37.4935
37.6125
38.033
39.0979
41.4033
45.6878
52.3665
60.9221
69.8244
77.2698
82.1368
84.3684
84.6402
83.8747
82.8101
81.9187
81.366
81.2112
81.398
81.935
82.7518
83.8897
85.2663
86.9646
88.8778
91.1486
93.6247
96.5351
99.6497
103.328
107.212
111.865
116.724
122.676
128.83
136.584
144.528
154.888
165.453
179.755
194.282
214.401
234.316
261.543
286.517
318.751
344.402
374.54
396.375
411.513
416.808
358.317
296.105
177.752
129.788
135.549
173.703
201.167
221.599
221.127
217.167
204.062
193.265
179.593
169.384
158.545
150.711
142.919
137.258
131.697
127.508
123.384
120.078
116.738
113.782
110.685
107.697
104.566
101.462
98.3294
95.2648
92.3182
89.4922
86.888
84.3987
82.1609
79.9641
77.9928
75.949
74.081
72.0199
70.0824
67.8526
65.702
63.2063
60.7679
58.0042
55.3666
52.5893
37.494
37.614
38.0365
39.1054
41.4172
45.7086
52.3903
60.9418
69.8346
77.2706
82.1315
84.3602
84.6308
83.8646
82.7998
81.9087
81.3568
81.203
81.3909
81.929
82.7467
83.8853
85.2626
86.9614
88.875
91.146
93.6224
96.533
99.6478
103.326
107.211
111.863
116.723
122.674
128.828
136.582
144.525
154.883
165.447
179.747
194.274
214.393
234.309
261.54
286.519
318.758
344.41
374.551
396.381
411.534
416.845
358.382
296.241
177.884
129.906
135.638
173.763
201.198
221.614
221.132
217.163
204.052
193.254
179.584
169.378
158.539
150.705
142.913
137.252
131.692
127.505
123.382
120.078
116.739
113.783
110.687
107.7
104.568
101.465
98.3323
95.2676
92.321
89.4949
86.8909
84.402
82.1648
79.9689
77.9987
75.9561
74.0892
72.0291
70.0925
67.8633
65.713
63.2173
60.7784
58.014
55.3754
52.5963
37.4945
37.6155
38.0403
39.1134
41.4319
45.7306
52.4155
60.9626
69.8454
77.2713
82.1257
84.3513
84.6204
83.8535
82.7885
81.8978
81.3467
81.194
81.3831
81.9223
82.741
83.8804
85.2583
86.9577
88.8717
91.143
93.6197
96.5305
99.6454
103.324
107.209
111.862
116.721
122.672
128.826
136.579
144.521
154.877
165.44
179.738
194.264
214.384
234.301
261.536
286.519
318.764
344.417
374.56
396.386
411.555
416.884
358.45
296.384
178.024
130.031
135.733
173.827
201.23
221.629
221.136
217.159
204.041
193.242
179.574
169.371
158.533
150.698
142.905
137.245
131.687
127.501
123.38
120.077
116.739
113.785
110.689
107.702
104.571
101.468
98.335
95.2702
92.3234
89.4973
86.8935
84.405
82.1686
79.9736
78.0046
75.9632
74.0975
72.0385
70.1028
67.8742
65.7243
63.2287
60.7894
58.0244
55.3849
52.604
37.4951
37.6172
38.0442
39.1218
41.4474
45.7538
52.4422
60.9846
69.8569
77.2721
82.1195
84.3416
84.6093
83.8416
82.7763
81.8859
81.3358
81.1843
81.3746
81.9149
82.7346
83.8749
85.2535
86.9534
88.8679
91.1395
93.6165
96.5274
99.6426
103.321
107.206
111.859
116.719
122.67
128.823
136.575
144.516
154.871
165.431
179.729
194.253
214.373
234.292
261.531
286.518
318.768
344.422
374.567
396.389
411.575
416.924
358.521
296.534
178.171
130.163
135.833
173.894
201.265
221.646
221.141
217.153
204.029
193.229
179.563
169.362
158.525
150.69
142.897
137.238
131.681
127.497
123.378
120.076
116.739
113.785
110.691
107.704
104.573
101.47
98.3374
95.2725
92.3256
89.4995
86.8958
84.4078
82.1721
79.9782
78.0103
75.9701
74.1057
72.0478
70.1131
67.8853
65.7359
63.2404
60.8009
58.0353
55.395
52.6125
37.4956
37.619
38.0484
39.1307
41.4638
45.7783
52.4703
61.0079
69.869
77.2729
82.1129
84.3313
84.5973
83.8287
82.7632
81.8732
81.324
81.1737
81.3653
81.9069
82.7276
83.8688
85.2481
86.9486
88.8636
91.1356
93.6128
96.5239
99.6392
103.318
107.203
111.856
116.716
122.667
128.82
136.57
144.51
154.863
165.422
179.717
194.241
214.361
234.281
261.524
286.515
318.771
344.425
374.574
396.39
411.595
416.966
358.595
296.691
178.325
130.301
135.938
173.964
201.302
221.663
221.145
217.147
204.016
193.214
179.551
169.352
158.516
150.681
142.888
137.229
131.674
127.492
123.375
120.075
116.739
113.786
110.692
107.706
104.575
101.472
98.3396
95.2746
92.3276
89.5014
86.8979
84.4104
82.1754
79.9825
78.0159
75.977
74.1139
72.0572
70.1236
67.8966
65.7478
63.2525
60.8129
58.0469
55.4058
52.6216
37.4963
37.6208
38.0527
39.14
41.4809
45.804
52.4998
61.0323
69.8817
77.2737
82.1058
84.3203
84.5844
83.8149
82.7491
81.8595
81.3114
81.1624
81.3554
81.8982
82.7201
83.8621
85.2423
86.9434
88.8588
91.1311
93.6086
96.5199
99.6353
103.314
107.199
111.852
116.712
122.663
128.815
136.565
144.503
154.855
165.411
179.705
194.228
214.348
234.269
261.516
286.511
318.772
344.427
374.579
396.39
411.615
417.008
358.672
296.855
178.487
130.446
136.049
174.039
201.341
221.681
221.149
217.141
204.002
193.199
179.537
169.342
158.507
150.671
142.878
137.22
131.666
127.486
123.371
120.073
116.738
113.786
110.693
107.707
104.577
101.474
98.3416
95.2765
92.3293
89.5031
86.8998
84.4127
82.1786
79.9868
78.0214
75.9838
74.1221
72.0667
70.1343
67.9081
65.7599
63.265
60.8253
58.059
55.4173
52.6315
37.4969
37.6227
38.0573
39.1498
41.4989
45.831
52.5307
61.058
69.8951
77.2745
82.0983
84.3086
84.5707
83.8002
82.7341
81.845
81.2979
81.1503
81.3447
81.8888
82.7119
83.8549
85.2359
86.9376
88.8535
91.1262
93.6039
96.5154
99.631
103.31
107.195
111.848
116.708
122.659
128.81
136.559
144.495
154.845
165.4
179.692
194.213
214.333
234.256
261.506
286.506
318.773
344.428
374.582
396.389
411.635
417.052
358.752
297.026
178.657
130.599
136.166
174.118
201.383
221.7
221.153
217.133
203.987
193.182
179.523
169.33
158.496
150.66
142.867
137.21
131.658
127.48
123.367
120.07
116.737
113.786
110.693
107.708
104.579
101.476
98.3433
95.2781
92.3308
89.5046
86.9015
84.4149
82.1816
79.9908
78.0267
75.9906
74.1303
72.0762
70.1451
67.9198
65.7724
63.278
60.8383
58.0717
55.4294
52.6421
37.4976
37.6248
38.0621
39.16
41.5177
45.8592
52.5631
61.0848
69.909
77.2753
82.0903
84.2962
84.5562
83.7846
82.7182
81.8295
81.2835
81.1374
81.3333
81.8788
82.7031
83.8472
85.2289
86.9313
88.8477
91.1207
93.5987
96.5104
99.6262
103.305
107.19
111.844
116.704
122.653
128.805
136.552
144.487
154.835
165.387
179.677
194.197
214.317
234.241
261.496
286.499
318.772
344.427
374.584
396.387
411.655
417.098
358.836
297.205
178.834
130.759
136.289
174.201
201.427
221.72
221.157
217.126
203.972
193.164
179.508
169.318
158.485
150.648
142.855
137.199
131.649
127.473
123.362
120.067
116.735
113.785
110.693
107.709
104.58
101.478
98.3448
95.2795
92.3321
89.5058
86.9029
84.4168
82.1844
79.9948
78.032
75.9973
74.1385
72.0857
70.156
67.9317
65.7852
63.2913
60.8517
58.085
55.4423
52.6534
37.4983
37.6269
38.0671
39.1706
41.5374
45.8886
52.5969
61.1128
69.9236
77.2762
82.0819
84.2831
84.5409
83.7681
82.7013
81.8131
81.2683
81.1237
81.3212
81.8682
82.6937
83.8389
85.2215
86.9245
88.8414
91.1148
93.5931
96.5049
99.6208
103.3
107.185
111.838
116.698
122.648
128.798
136.544
144.478
154.823
165.374
179.662
194.18
214.299
234.225
261.484
286.491
318.769
344.425
374.585
396.384
411.675
417.145
358.923
297.391
179.02
130.927
136.418
174.289
201.474
221.742
221.162
217.117
203.955
193.146
179.492
169.304
158.473
150.636
142.843
137.188
131.639
127.466
123.357
120.064
116.734
113.784
110.693
107.71
104.581
101.479
98.3462
95.2807
92.3332
89.5069
86.9042
84.4186
82.187
79.9985
78.0372
76.0039
74.1467
72.0953
70.167
67.9439
65.7983
63.305
60.8657
58.0989
55.4558
52.6654
37.499
37.6291
38.0723
39.1817
41.5578
45.9192
52.632
61.142
69.9388
77.277
82.0731
84.2693
84.5248
83.7508
82.6835
81.7959
81.2523
81.1092
81.3084
81.8569
82.6838
83.83
85.2135
86.9172
88.8346
91.1084
93.587
96.499
99.615
103.294
107.179
111.833
116.692
122.642
128.791
136.536
144.468
154.811
165.359
179.645
194.162
214.281
234.208
261.471
286.482
318.766
344.421
374.585
396.379
411.695
417.194
359.014
297.586
179.214
131.103
136.553
174.381
201.524
221.765
221.167
217.109
203.938
193.127
179.475
169.29
158.46
150.623
142.83
137.175
131.629
127.457
123.351
120.06
116.731
113.783
110.693
107.71
104.582
101.48
98.3473
95.2817
92.3341
89.5077
86.9052
84.4202
82.1895
80.0022
78.0423
76.0105
74.1549
72.105
70.1782
67.9562
65.8118
63.3191
60.8801
58.1134
55.47
52.6782
37.4998
37.6314
38.0777
39.1933
41.5791
45.951
52.6686
61.1723
69.9546
77.2778
82.0639
84.2549
84.5078
83.7325
82.6649
81.7777
81.2354
81.094
81.2948
81.8449
82.6732
83.8205
85.205
86.9094
88.8274
91.1015
93.5804
96.4925
99.6087
103.288
107.173
111.826
116.686
122.635
128.784
136.527
144.457
154.798
165.344
179.627
194.142
214.261
234.19
261.456
286.472
318.761
344.417
374.583
396.373
411.715
417.245
359.109
297.788
179.416
131.287
136.696
174.478
201.577
221.79
221.173
217.1
203.92
193.107
179.457
169.275
158.446
150.609
142.816
137.163
131.618
127.449
123.344
120.056
116.729
113.782
110.693
107.71
104.583
101.481
98.3483
95.2825
92.3347
89.5083
86.906
84.4215
82.1918
80.0057
78.0473
76.0171
74.1631
72.1148
70.1895
67.9688
65.8255
63.3336
60.8951
58.1285
55.485
52.6917
37.5006
37.6337
38.0833
39.2053
41.6012
45.9841
52.7066
61.2038
69.9711
77.2787
82.0542
84.2398
84.4901
83.7134
82.6453
81.7586
81.2176
81.0779
81.2806
81.8323
82.662
83.8105
85.1959
86.9011
88.8196
91.0942
93.5733
96.4856
99.6019
103.281
107.166
111.819
116.679
122.627
128.775
136.517
144.445
154.784
165.327
179.608
194.121
214.24
234.17
261.44
286.46
318.756
344.41
374.581
396.367
411.736
417.298
359.208
297.999
179.627
131.48
136.845
174.581
201.633
221.817
221.179
217.091
203.902
193.086
179.438
169.26
158.432
150.595
142.802
137.149
131.607
127.44
123.338
120.051
116.726
113.78
110.692
107.71
104.583
101.482
98.3491
95.2832
92.3352
89.5087
86.9067
84.4228
82.1939
80.0091
78.0522
76.0236
74.1713
72.1246
70.201
67.9816
65.8395
63.3485
60.9105
58.1442
55.5006
52.706
37.5014
37.6362
38.0892
39.2177
41.6241
46.0183
52.7459
61.2365
69.9881
77.2796
82.0441
84.224
84.4715
83.6933
82.6248
81.7387
81.199
81.0611
81.2656
81.819
82.6502
83.8
85.1864
86.8922
88.8114
91.0863
93.5658
96.4782
99.5947
103.274
107.159
111.812
116.671
122.619
128.766
136.507
144.432
154.769
165.31
179.588
194.099
214.218
234.149
261.423
286.448
318.749
344.403
374.577
396.359
411.757
417.354
359.311
298.219
179.848
131.681
137.001
174.688
201.693
221.845
221.186
217.083
203.883
193.064
179.419
169.243
158.417
150.579
142.787
137.135
131.594
127.43
123.33
120.046
116.722
113.778
110.691
107.71
104.583
101.483
98.3497
95.2836
92.3354
89.509
86.9071
84.4238
82.1959
80.0124
78.057
76.0301
74.1796
72.1346
70.2126
67.9947
65.8539
63.3639
60.9265
58.1605
55.5169
52.721
37.5023
37.6387
38.0952
39.2306
41.6478
46.0538
52.7866
61.2702
70.0057
77.2804
82.0336
84.2076
84.4522
83.6725
82.6034
81.7178
81.1796
81.0435
81.2499
81.8051
82.6378
83.7888
85.1763
86.8829
88.8027
91.078
93.5578
96.4704
99.5869
103.266
107.151
111.804
116.663
122.61
128.756
136.495
144.419
154.753
165.291
179.567
194.076
214.194
234.126
261.405
286.434
318.741
344.395
374.573
396.35
411.778
417.411
359.419
298.447
180.077
131.891
137.165
174.801
201.756
221.876
221.194
217.074
203.864
193.042
179.399
169.226
158.401
150.564
142.771
137.12
131.582
127.42
123.323
120.04
116.719
113.776
110.689
107.71
104.584
101.483
98.3501
95.2839
92.3355
89.509
86.9074
84.4246
82.1978
80.0156
78.0618
76.0365
74.1879
72.1446
70.2244
68.0079
65.8686
63.3796
60.943
58.1775
55.534
52.7368
37.5032
37.6414
38.1015
39.2439
41.6724
46.0905
52.8287
61.3052
70.0239
77.2813
82.0227
84.1905
84.432
83.6507
82.5811
81.6961
81.1593
81.0252
81.2336
81.7906
82.6249
83.7772
85.1656
86.8731
88.7935
91.0692
93.5493
96.462
99.5787
103.258
107.143
111.795
116.654
122.601
128.746
136.483
144.405
154.736
165.271
179.545
194.052
214.17
234.103
261.386
286.419
318.732
344.385
374.567
396.341
411.8
417.471
359.531
298.685
180.316
132.11
137.336
174.919
201.822
221.908
221.202
217.065
203.844
193.02
179.379
169.209
158.385
150.547
142.755
137.105
131.568
127.409
123.315
120.035
116.715
113.773
110.688
107.709
104.584
101.483
98.3504
95.284
92.3355
89.5089
86.9075
84.4253
82.1995
80.0187
78.0665
76.0429
74.1962
72.1547
70.2364
68.0214
65.8837
63.3958
60.96
58.195
55.5517
52.7533
37.5041
37.6441
38.1079
39.2577
41.6977
46.1283
52.8721
61.3412
70.0427
77.2822
82.0114
84.1727
84.4111
83.6281
82.5579
81.6735
81.1383
81.0061
81.2165
81.7754
82.6113
83.7649
85.1545
86.8628
88.7838
91.06
93.5403
96.4532
99.57
103.249
107.134
111.786
116.645
122.591
128.735
136.47
144.39
154.718
165.251
179.522
194.027
214.144
234.078
261.366
286.403
318.722
344.375
374.56
396.331
411.823
417.533
359.648
298.931
180.565
132.339
137.515
175.043
201.893
221.943
221.212
217.057
203.825
192.997
179.358
169.191
158.368
150.531
142.738
137.089
131.555
127.398
123.306
120.028
116.71
113.77
110.686
107.708
104.584
101.483
98.3506
95.284
92.3352
89.5086
86.9074
84.4259
82.2011
80.0216
78.0711
76.0493
74.2045
72.1648
70.2485
68.0352
65.899
63.4124
60.9776
58.2132
55.5702
52.7706
37.505
37.6469
38.1146
39.2719
41.7239
46.1674
52.9169
61.3784
70.062
77.2831
81.9996
84.1544
84.3894
83.6047
82.5339
81.6501
81.1163
80.9862
81.1987
81.7595
82.5971
83.7522
85.1428
86.8519
88.7736
91.0502
93.5309
96.4439
99.5608
103.24
107.125
111.777
116.635
122.58
128.723
136.457
144.374
154.7
165.229
179.497
194
214.117
234.052
261.344
286.386
318.711
344.363
374.553
396.32
411.846
417.597
359.769
299.187
180.824
132.577
137.702
175.172
201.967
221.98
221.223
217.049
203.805
192.974
179.337
169.172
158.351
150.513
142.721
137.073
131.541
127.386
123.297
120.022
116.706
113.767
110.685
107.707
104.583
101.484
98.3506
95.2838
92.3348
89.5081
86.9072
84.4263
82.2026
80.0245
78.0757
76.0557
74.2129
72.1751
70.2607
68.0492
65.9147
63.4294
60.9957
58.232
55.5894
52.7886
37.506
37.6498
38.1215
39.2866
41.7509
46.2076
52.963
61.4167
70.082
77.284
81.9875
84.1353
84.3669
83.5803
82.5089
81.6257
81.0936
80.9655
81.1802
81.743
82.5824
83.7388
85.1306
86.8406
88.7629
91.04
93.521
96.4342
99.5511
103.23
107.115
111.767
116.624
122.569
128.711
136.443
144.358
154.681
165.207
179.472
193.973
214.088
234.025
261.322
286.368
318.7
344.35
374.545
396.308
411.87
417.665
359.896
299.453
181.094
132.826
137.898
175.308
202.046
222.02
221.235
217.042
203.786
192.951
179.315
169.154
158.333
150.495
142.703
137.056
131.526
127.374
123.288
120.015
116.701
113.764
110.683
107.706
104.583
101.483
98.3505
95.2834
92.3342
89.5075
86.9068
84.4265
82.2039
80.0273
78.0802
76.0621
74.2213
72.1855
70.2732
68.0634
65.9308
63.4469
61.0143
58.2514
55.6094
52.8075
37.507
37.6528
38.1286
39.3018
41.7786
46.2491
53.0105
61.456
70.1025
77.285
81.975
84.1157
84.3437
83.5552
82.4831
81.6005
81.07
80.9441
81.161
81.7259
82.567
83.7249
85.1179
86.8288
88.7518
91.0293
93.5106
96.4239
99.5409
103.22
107.105
111.756
116.613
122.557
128.698
136.428
144.341
154.66
165.184
179.445
193.944
214.059
233.997
261.298
286.349
318.687
344.337
374.536
396.296
411.895
417.735
360.027
299.729
181.374
133.084
138.101
175.451
202.129
222.062
221.249
217.035
203.766
192.927
179.293
169.134
158.315
150.477
142.685
137.039
131.511
127.362
123.279
120.008
116.696
113.761
110.68
107.705
104.583
101.483
98.3502
95.283
92.3335
89.5067
86.9062
84.4267
82.2051
80.03
78.0847
76.0685
74.2298
72.1959
70.2858
68.0779
65.9471
63.4647
61.0334
58.2714
55.6301
52.8271
37.508
37.6559
38.1359
39.3173
41.8072
46.2917
53.0593
61.4965
70.1236
77.2859
81.962
84.0954
84.3197
83.5292
82.4564
81.5744
81.0456
80.9219
81.1411
81.7081
82.5511
83.7105
85.1047
86.8165
88.7401
91.0181
93.4997
96.4132
99.5302
103.209
107.094
111.745
116.602
122.544
128.684
136.412
144.322
154.639
165.159
179.418
193.914
214.029
233.968
261.274
286.329
318.674
344.322
374.526
396.283
411.921
417.808
360.164
300.015
181.664
133.353
138.314
175.599
202.216
222.107
221.264
217.029
203.747
192.903
179.271
169.115
158.297
150.459
142.666
137.021
131.495
127.349
123.269
120.001
116.691
113.757
110.678
107.704
104.582
101.483
98.3499
95.2824
92.3327
89.5058
86.9055
84.4266
82.2062
80.0326
78.0891
76.0748
74.2383
72.2065
70.2986
68.0926
65.9639
63.4831
61.0531
58.2921
55.6515
52.8475
37.5091
37.6591
38.1435
39.3334
41.8366
46.3354
53.1094
61.5381
70.1453
77.2868
81.9487
84.0745
84.295
83.5024
82.4288
81.5474
81.0204
80.8989
81.1205
81.6897
82.5345
83.6955
85.0909
86.8036
88.728
91.0064
93.4884
96.402
99.5191
103.198
107.082
111.733
116.589
122.531
128.67
136.396
144.304
154.617
165.134
179.389
193.883
213.997
233.937
261.248
286.308
318.659
344.307
374.515
396.27
411.948
417.884
360.307
300.311
181.966
133.633
138.536
175.755
202.309
222.156
221.281
217.024
203.728
192.88
179.249
169.095
158.278
150.44
142.647
137.004
131.48
127.336
123.259
119.993
116.686
113.753
110.676
107.703
104.581
101.483
98.3495
95.2816
92.3317
89.5047
86.9047
84.4265
82.2072
80.0351
78.0935
76.0812
74.2469
72.2172
70.3115
68.1076
65.9809
63.5018
61.0733
58.3135
55.6736
52.8686
37.5102
37.6624
38.1512
39.3498
41.8668
46.3804
53.1609
61.5808
70.1676
77.2878
81.935
84.0529
84.2695
83.4748
82.4004
81.5196
80.9943
80.8752
81.0992
81.6707
82.5174
83.68
85.0767
86.7903
88.7154