/*--------------------------------*- C++ -*----------------------------------*\
| =========                 |                                                 |
| \\      /  F ield         | OpenFOAM: The Open Source CFD Toolbox           |
|  \\    /   O peration     | Version:  2412                                  |
|   \\  /    A nd           | Website:  www.openfoam.com                      |
|    \\/     M anipulation  |                                                 |
\*---------------------------------------------------------------------------*/
FoamFile
{
    version     2.0;
    format      ascii;
    arch        "LSB;label=32;scalar=64";
    class       volScalarField;
    location    "0.7";
    object      nut;
}
// * * * * * * * * * * * * * * * * * * * * * * * * * * * * * * * * * * * * * //

dimensions      [0 2 -1 0 0 0 0];

internalField   nonuniform List<scalar> 
13068
(
0.3358
0.337427
0.341757
0.351181
0.367934
0.390916
0.413925
0.429944
0.435713
0.43162
0.420393
0.405906
0.391817
0.380705
0.373641
0.370505
0.370332
0.372078
0.374766
0.377891
0.381029
0.384167
0.387112
0.390069
0.392842
0.395754
0.398497
0.401525
0.404357
0.407642
0.410655
0.414344
0.417633
0.421906
0.425573
0.430612
0.434713
0.440696
0.445307
0.452395
0.457405
0.465252
0.469816
0.477167
0.479746
0.484984
0.484664
0.487604
0.486857
0.483544
0.475921
0.426779
0.380347
0.26605
0.230975
0.311297
0.408456
0.437512
0.441901
0.427435
0.41691
0.40221
0.3949
0.386031
0.383116
0.379138
0.379068
0.377643
0.378211
0.377377
0.377604
0.37674
0.376351
0.375018
0.373718
0.37164
0.369489
0.366968
0.364604
0.362365
0.360488
0.35901
0.35784
0.357039
0.356248
0.355648
0.354708
0.353817
0.352302
0.350775
0.348419
0.34605
0.342717
0.339401
0.335093
0.330917
0.325949
0.32157
0.317198
0.3358
0.337428
0.341758
0.351184
0.367939
0.39092
0.413928
0.429947
0.435717
0.431625
0.420401
0.405915
0.391825
0.380711
0.373645
0.370507
0.370334
0.37208
0.374768
0.377894
0.381032
0.38417
0.387116
0.390073
0.392847
0.395759
0.398502
0.40153
0.404362
0.407648
0.410662
0.414351
0.41764
0.421914
0.425581
0.430619
0.434719
0.440702
0.445313
0.452402
0.457413
0.465261
0.469826
0.477178
0.479758
0.484995
0.484673
0.487609
0.486859
0.483548
0.475926
0.426795
0.380384
0.266086
0.231006
0.311323
0.408484
0.437536
0.441922
0.42745
0.416917
0.402212
0.394903
0.386037
0.383122
0.379141
0.379068
0.377642
0.378211
0.377379
0.377607
0.376744
0.376354
0.375021
0.373721
0.371641
0.36949
0.366969
0.364605
0.362366
0.360489
0.359011
0.357842
0.357042
0.356252
0.355652
0.354714
0.353823
0.352308
0.35078
0.348422
0.34605
0.342713
0.339392
0.335078
0.330895
0.32592
0.321533
0.317154
0.3358
0.337429
0.341762
0.351191
0.367948
0.390929
0.413935
0.42995
0.435718
0.431627
0.420405
0.40592
0.39183
0.380714
0.373647
0.370509
0.370335
0.372082
0.37477
0.377897
0.381035
0.384174
0.38712
0.390078
0.392851
0.395763
0.398507
0.401536
0.404368
0.407654
0.410668
0.414358
0.417648
0.421922
0.425588
0.430626
0.434725
0.440708
0.44532
0.452409
0.457421
0.465269
0.469836
0.47719
0.47977
0.485007
0.484682
0.487615
0.486862
0.483554
0.475933
0.426814
0.380427
0.266131
0.231046
0.311347
0.408509
0.437559
0.441943
0.427467
0.416925
0.402215
0.394907
0.386044
0.383129
0.379144
0.379068
0.377642
0.378212
0.377381
0.37761
0.376747
0.376358
0.375024
0.373724
0.371644
0.369492
0.36697
0.364606
0.362367
0.360491
0.359013
0.357844
0.357045
0.356255
0.355657
0.35472
0.353829
0.352315
0.350786
0.348426
0.346051
0.34271
0.339384
0.335064
0.330874
0.325892
0.321497
0.317113
0.335801
0.337431
0.341767
0.351201
0.367962
0.390944
0.413944
0.429952
0.435716
0.431625
0.420404
0.405921
0.391832
0.380715
0.373648
0.370509
0.370336
0.372084
0.374773
0.3779
0.381039
0.384178
0.387124
0.390082
0.392856
0.395768
0.398512
0.401541
0.404373
0.40766
0.410675
0.414365
0.417655
0.421929
0.425595
0.430632
0.434731
0.440713
0.445325
0.452415
0.457428
0.465278
0.469846
0.477201
0.479781
0.485017
0.484691
0.48762
0.486865
0.483559
0.475941
0.426835
0.380477
0.266184
0.231092
0.31137
0.408532
0.437582
0.441965
0.427483
0.416933
0.402219
0.394911
0.386051
0.383136
0.379148
0.379068
0.377641
0.378213
0.377384
0.377614
0.376751
0.376362
0.375028
0.373727
0.371646
0.369494
0.366972
0.364607
0.362368
0.360492
0.359015
0.357846
0.357048
0.356259
0.355663
0.354726
0.353836
0.352322
0.350792
0.348431
0.346053
0.342708
0.339377
0.335052
0.330855
0.325865
0.321463
0.317073
0.335802
0.337434
0.341774
0.351214
0.367982
0.390963
0.413955
0.429954
0.43571
0.431617
0.420397
0.405916
0.391828
0.380713
0.373645
0.370508
0.370336
0.372085
0.374775
0.377903
0.381043
0.384183
0.387129
0.390087
0.392861
0.395773
0.398517
0.401546
0.404378
0.407666
0.410681
0.414372
0.417662
0.421936
0.425601
0.430638
0.434736
0.440718
0.44533
0.452421
0.457435
0.465286
0.469856
0.477211
0.479793
0.485028
0.484699
0.487625
0.486867
0.483566
0.475951
0.426859
0.380533
0.266245
0.231146
0.311393
0.408554
0.437605
0.441987
0.427501
0.416942
0.402222
0.394916
0.386059
0.383144
0.379153
0.379069
0.377641
0.378214
0.377387
0.377618
0.376755
0.376366
0.375032
0.37373
0.371649
0.369496
0.366974
0.364609
0.362369
0.360493
0.359016
0.357848
0.35705
0.356263
0.355668
0.354733
0.353844
0.35233
0.350799
0.348436
0.346055
0.342708
0.339371
0.335041
0.330837
0.325841
0.321432
0.317036
0.335803
0.337438
0.341783
0.351231
0.368006
0.390987
0.41397
0.429955
0.435702
0.431605
0.420385
0.405907
0.391821
0.380707
0.373641
0.370505
0.370336
0.372086
0.374778
0.377907
0.381047
0.384187
0.387133
0.390091
0.392865
0.395777
0.398521
0.40155
0.404383
0.407671
0.410686
0.414378
0.417669
0.421942
0.425607
0.430643
0.43474
0.440722
0.445335
0.452426
0.457441
0.465293
0.469864
0.477221
0.479803
0.485038
0.484706
0.487629
0.486868
0.483572
0.475961
0.426884
0.380595
0.266314
0.231207
0.311417
0.408574
0.437628
0.442009
0.427518
0.416951
0.402227
0.394921
0.386067
0.383152
0.379157
0.379069
0.377641
0.378216
0.37739
0.377622
0.37676
0.376371
0.375036
0.373734
0.371652
0.369498
0.366976
0.36461
0.362371
0.360494
0.359018
0.35785
0.357053
0.356267
0.355673
0.35474
0.353851
0.352337
0.350806
0.348442
0.346059
0.342708
0.339367
0.335031
0.330821
0.325818
0.321402
0.317001
0.335804
0.337442
0.341794
0.351252
0.368036
0.391017
0.413987
0.429956
0.435689
0.431587
0.420367
0.405892
0.391809
0.380697
0.373634
0.370501
0.370334
0.372087
0.37478
0.37791
0.381051
0.384192
0.387138
0.390096
0.392869
0.395782
0.398526
0.401555
0.404388
0.407676
0.410692
0.414383
0.417675
0.421948
0.425612
0.430647
0.434744
0.440726
0.445338
0.45243
0.457446
0.4653
0.469872
0.477231
0.479813
0.485047
0.484712
0.487633
0.486869
0.483579
0.475973
0.426912
0.380663
0.266391
0.231276
0.31144
0.408592
0.43765
0.442032
0.427536
0.41696
0.402231
0.394927
0.386076
0.383161
0.379162
0.37907
0.377641
0.378218
0.377394
0.377627
0.376765
0.376376
0.375041
0.373738
0.371655
0.369501
0.366978
0.364612
0.362372
0.360496
0.359019
0.357851
0.357056
0.356272
0.355679
0.354747
0.353859
0.352346
0.350814
0.348449
0.346063
0.342709
0.339364
0.335023
0.330806
0.325797
0.321375
0.316967
0.335805
0.337447
0.341806
0.351276
0.368071
0.391052
0.414008
0.429956
0.435674
0.431563
0.420344
0.405872
0.391793
0.380684
0.373624
0.370495
0.370332
0.372088
0.374783
0.377914
0.381056
0.384196
0.387142
0.3901
0.392874
0.395786
0.39853
0.401559
0.404392
0.40768
0.410696
0.414388
0.41768
0.421953
0.425617
0.430651
0.434747
0.440728
0.445341
0.452433
0.45745
0.465305
0.46988
0.47724
0.479822
0.485055
0.484717
0.487636
0.48687
0.483587
0.475986
0.426941
0.380738
0.266476
0.231352
0.311465
0.40861
0.437672
0.442055
0.427553
0.41697
0.402236
0.394934
0.386086
0.38317
0.379168
0.379072
0.377641
0.378219
0.377398
0.377631
0.37677
0.376381
0.375046
0.373743
0.371659
0.369504
0.36698
0.364614
0.362373
0.360497
0.35902
0.357853
0.357059
0.356276
0.355685
0.354754
0.353868
0.352355
0.350823
0.348456
0.346068
0.342711
0.339361
0.335016
0.330793
0.325778
0.321349
0.316936
0.335807
0.337453
0.34182
0.351303
0.368111
0.391092
0.414031
0.429955
0.435654
0.431535
0.420315
0.405846
0.391772
0.380668
0.373613
0.370488
0.370329
0.372088
0.374786
0.377918
0.38106
0.384201
0.387147
0.390105
0.392878
0.39579
0.398534
0.401562
0.404396
0.407684
0.410701
0.414393
0.417685
0.421958
0.425621
0.430653
0.434749
0.44073
0.445343
0.452436
0.457454
0.46531
0.469887
0.477248
0.479831
0.485062
0.484722
0.487638
0.48687
0.483594
0.476
0.426973
0.380818
0.266569
0.231436
0.311489
0.408626
0.437693
0.442078
0.427571
0.416979
0.402241
0.39494
0.386096
0.38318
0.379174
0.379073
0.377642
0.378221
0.377402
0.377636
0.376776
0.376387
0.375052
0.373747
0.371663
0.369507
0.366982
0.364616
0.362375
0.360498
0.359022
0.357855
0.357062
0.35628
0.355691
0.354762
0.353877
0.352364
0.350832
0.348464
0.346074
0.342714
0.33936
0.33501
0.330782
0.325761
0.321325
0.316907
0.335809
0.337459
0.341836
0.351334
0.368156
0.391137
0.414057
0.429954
0.435631
0.431502
0.42028
0.405815
0.391746
0.380648
0.373598
0.370479
0.370325
0.372088
0.374788
0.377922
0.381065
0.384205
0.387151
0.390109
0.392882
0.395793
0.398537
0.401566
0.404399
0.407688
0.410705
0.414397
0.417689
0.421962
0.425624
0.430656
0.43475
0.440731
0.445344
0.452438
0.457457
0.465315
0.469893
0.477255
0.479839
0.485069
0.484726
0.487639
0.48687
0.483602
0.476014
0.427007
0.380904
0.26667
0.231528
0.311515
0.40864
0.437714
0.442102
0.427589
0.416989
0.402246
0.394948
0.386106
0.38319
0.37918
0.379075
0.377643
0.378223
0.377406
0.377642
0.376782
0.376393
0.375057
0.373752
0.371667
0.36951
0.366985
0.364617
0.362376
0.360499
0.359023
0.357857
0.357065
0.356285
0.355697
0.35477
0.353886
0.352374
0.350841
0.348473
0.346081
0.342718
0.339361
0.335006
0.330772
0.325745
0.321304
0.316879
0.335811
0.337466
0.341853
0.351368
0.368207
0.391188
0.414085
0.429952
0.435605
0.431463
0.42024
0.405779
0.391716
0.380624
0.373581
0.370469
0.37032
0.372088
0.374791
0.377927
0.38107
0.38421
0.387156
0.390113
0.392885
0.395797
0.39854
0.401569
0.404402
0.407691
0.410708
0.414401
0.417693
0.421965
0.425627
0.430657
0.434751
0.440731
0.445344
0.452439
0.457459
0.465319
0.469898
0.477262
0.479846
0.485075
0.484729
0.48764
0.486869
0.48361
0.476031
0.427043
0.380997
0.26678
0.231627
0.311541
0.408653
0.437735
0.442125
0.427608
0.416999
0.402252
0.394955
0.386117
0.383201
0.379187
0.379077
0.377643
0.378226
0.37741
0.377647
0.376788
0.376399
0.375063
0.373757
0.371671
0.369513
0.366988
0.364619
0.362377
0.3605
0.359024
0.357859
0.357068
0.356289
0.355704
0.354778
0.353895
0.352384
0.350852
0.348482
0.346089
0.342723
0.339362
0.335003
0.330763
0.325731
0.321284
0.316854
0.335813
0.337474
0.341873
0.351406
0.368262
0.391243
0.414117
0.42995
0.435575
0.431419
0.420194
0.405738
0.391682
0.380597
0.373562
0.370457
0.370315
0.372088
0.374794
0.377931
0.381075
0.384215
0.38716
0.390117
0.392889
0.3958
0.398543
0.401572
0.404405
0.407694
0.410711
0.414404
0.417696
0.421968
0.425629
0.430658
0.434751
0.440731
0.445344
0.452439
0.45746
0.465322
0.469903
0.477269
0.479852
0.485081
0.484731
0.48764
0.486867
0.483619
0.476048
0.427081
0.381096
0.266898
0.231734
0.311568
0.408665
0.437755
0.442149
0.427626
0.417009
0.402257
0.394963
0.386129
0.383212
0.379193
0.379079
0.377644
0.378228
0.377415
0.377653
0.376795
0.376406
0.375069
0.373763
0.371676
0.369517
0.36699
0.364621
0.362379
0.360501
0.359025
0.357861
0.357071
0.356294
0.35571
0.354786
0.353905
0.352395
0.350862
0.348492
0.346097
0.342729
0.339365
0.335002
0.330757
0.325719
0.321267
0.316831
0.335815
0.337483
0.341894
0.351447
0.368323
0.391303
0.414151
0.429946
0.435541
0.431369
0.420142
0.405691
0.391643
0.380567
0.37354
0.370443
0.370309
0.372087
0.374797
0.377935
0.38108
0.38422
0.387165
0.390121
0.392893
0.395803
0.398546
0.401574
0.404408
0.407696
0.410714
0.414407
0.417699
0.42197
0.42563
0.430658
0.43475
0.440729
0.445343
0.452439
0.457461
0.465324
0.469907
0.477274
0.479858
0.485086
0.484732
0.48764
0.486866
0.483628
0.476066
0.427121
0.381201
0.267024
0.23185
0.311595
0.408675
0.437774
0.442172
0.427644
0.417019
0.402263
0.394972
0.386141
0.383224
0.379201
0.379082
0.377645
0.378231
0.377419
0.377659
0.376801
0.376413
0.375076
0.373768
0.37168
0.369521
0.366993
0.364623
0.36238
0.360502
0.359027
0.357863
0.357074
0.356299
0.355717
0.354795
0.353915
0.352406
0.350874
0.348503
0.346106
0.342736
0.339368
0.335002
0.330752
0.325709
0.321251
0.31681
0.335818
0.337492
0.341917
0.351492
0.368388
0.391369
0.414187
0.429942
0.435504
0.431315
0.420085
0.405639
0.391599
0.380532
0.373515
0.370428
0.370302
0.372086
0.374799
0.37794
0.381085
0.384225
0.387169
0.390125
0.392896
0.395806
0.398548
0.401576
0.40441
0.407698
0.410716
0.414409
0.417701
0.421972
0.425631
0.430658
0.434748
0.440727
0.445341
0.452437
0.457461
0.465326
0.46991
0.477279
0.479864
0.48509
0.484732
0.487639
0.486863
0.483638
0.476086
0.427164
0.381312
0.267159
0.231973
0.311624
0.408684
0.437793
0.442196
0.427662
0.417029
0.402269
0.39498
0.386153
0.383236
0.379208
0.379085
0.377647
0.378233
0.377424
0.377666
0.376809
0.37642
0.375083
0.373774
0.371685
0.369525
0.366996
0.364626
0.362382
0.360503
0.359028
0.357864
0.357077
0.356304
0.355724
0.354804
0.353926
0.352417
0.350886
0.348514
0.346116
0.342744
0.339373
0.335003
0.330748
0.325701
0.321237
0.31679
0.335821
0.337502
0.341941
0.35154
0.368459
0.391439
0.414227
0.429938
0.435463
0.431255
0.420022
0.405582
0.391551
0.380495
0.373488
0.370411
0.370294
0.372085
0.374802
0.377945
0.38109
0.38423
0.387174
0.390129
0.392899
0.395809
0.398551
0.401578
0.404411
0.4077
0.410718
0.414411
0.417703
0.421973
0.425631
0.430656
0.434746
0.440724
0.445338
0.452435
0.45746
0.465327
0.469913
0.477284
0.479868
0.485093
0.484732
0.487637
0.48686
0.483647
0.476107
0.427209
0.381429
0.267302
0.232105
0.311654
0.408691
0.437811
0.442219
0.42768
0.417039
0.402275
0.394989
0.386166
0.383249
0.379216
0.379087
0.377648
0.378236
0.377429
0.377672
0.376816
0.376427
0.37509
0.37378
0.37169
0.369529
0.367
0.364628
0.362383
0.360504
0.359029
0.357866
0.35708
0.356309
0.355731
0.354813
0.353937
0.352429
0.350898
0.348526
0.346127
0.342753
0.339379
0.335006
0.330746
0.325694
0.321226
0.316773
0.335824
0.337512
0.341968
0.351592
0.368535
0.391515
0.414268
0.429932
0.435419
0.43119
0.419953
0.405519
0.391499
0.380453
0.373458
0.370393
0.370285
0.372083
0.374805
0.37795
0.381096
0.384235
0.387178
0.390132
0.392902
0.395811
0.398553
0.40158
0.404413
0.407701
0.410719
0.414412
0.417704
0.421973
0.42563
0.430654
0.434743
0.440721
0.445334
0.452432
0.457458
0.465327
0.469915
0.477288
0.479872
0.485096
0.48473
0.487634
0.486857
0.483658
0.476129
0.427256
0.381553
0.267454
0.232245
0.311684
0.408697
0.437829
0.442242
0.427698
0.417049
0.40228
0.394999
0.386179
0.383262
0.379224
0.37909
0.377649
0.378239
0.377435
0.377679
0.376824
0.376435
0.375097
0.373787
0.371696
0.369533
0.367003
0.36463
0.362384
0.360505
0.35903
0.357868
0.357083
0.356314
0.355739
0.354823
0.353948
0.352442
0.350911
0.348539
0.346139
0.342763
0.339387
0.33501
0.330746
0.32569
0.321216
0.316758
0.335827
0.337524
0.341996
0.351647
0.368615
0.391595
0.414313
0.429926
0.435371
0.43112
0.419879
0.405451
0.391442
0.380408
0.373426
0.370373
0.370276
0.372081
0.374808
0.377954
0.381101
0.384241
0.387183
0.390136
0.392905
0.395813
0.398554
0.401581
0.404414
0.407702
0.41072
0.414413
0.417705
0.421973
0.425629
0.430652
0.434739
0.440717
0.44533
0.452429
0.457456
0.465327
0.469917
0.477291
0.479875
0.485098
0.484728
0.487631
0.486854
0.483669
0.476152
0.427306
0.381684
0.267614
0.232393
0.311715
0.4087
0.437845
0.442264
0.427715
0.417058
0.402286
0.395008
0.386193
0.383275
0.379233
0.379094
0.377651
0.378242
0.37744
0.377686
0.376832
0.376443
0.375105
0.373793
0.371701
0.369538
0.367007
0.364633
0.362386
0.360506
0.359031
0.35787
0.357087
0.356319
0.355746
0.354832
0.35396
0.352455
0.350924
0.348552
0.346152
0.342774
0.339395
0.335015
0.330747
0.325687
0.321209
0.316745
0.33583
0.337536
0.342026
0.351705
0.368701
0.391681
0.41436
0.429919
0.43532
0.431045
0.419799
0.405378
0.39138
0.38036
0.373391
0.370351
0.370265
0.372079
0.37481
0.37796
0.381107
0.384246
0.387187
0.39014
0.392908
0.395815
0.398556
0.401582
0.404414
0.407702
0.41072
0.414413
0.417705
0.421972
0.425627
0.430649
0.434735
0.440712
0.445325
0.452425
0.457453
0.465326
0.469918
0.477294
0.479878
0.485099
0.484726
0.487628
0.48685
0.48368
0.476177
0.427358
0.381821
0.267784
0.23255
0.311748
0.408702
0.43786
0.442286
0.427732
0.417068
0.402292
0.395017
0.386206
0.383289
0.379241
0.379097
0.377653
0.378245
0.377445
0.377694
0.37684
0.376452
0.375112
0.3738
0.371707
0.369543
0.36701
0.364635
0.362387
0.360507
0.359032
0.357871
0.35709
0.356325
0.355754
0.354843
0.353972
0.352468
0.350939
0.348566
0.346165
0.342785
0.339405
0.335022
0.33075
0.325686
0.321203
0.316734
0.335833
0.337548
0.342057
0.351767
0.368792
0.391771
0.41441
0.429912
0.435265
0.430964
0.419713
0.4053
0.391314
0.380308
0.373354
0.370328
0.370254
0.372076
0.374813
0.377965
0.381113
0.384251
0.387192
0.390143
0.39291
0.395817
0.398557
0.401583
0.404415
0.407702
0.41072
0.414413
0.417704
0.421971
0.425625
0.430645
0.43473
0.440706
0.445319
0.45242
0.457449
0.465325
0.469918
0.477297
0.47988
0.4851
0.484722
0.487623
0.486845
0.483691
0.476203
0.427413
0.381964
0.267962
0.232716
0.311782
0.408701
0.437874
0.442308
0.427748
0.417076
0.402298
0.395027
0.38622
0.383302
0.37925
0.379101
0.377654
0.378248
0.377451
0.377701
0.376849
0.37646
0.37512
0.373807
0.371713
0.369548
0.367014
0.364637
0.362389
0.360508
0.359032
0.357873
0.357093
0.35633
0.355762
0.354853
0.353984
0.352482
0.350953
0.348581
0.346179
0.342798
0.339416
0.33503
0.330755
0.325687
0.3212
0.316725
0.335837
0.337562
0.342091
0.351832
0.368887
0.391866
0.414462
0.429903
0.435206
0.430878
0.419621
0.405216
0.391243
0.380252
0.373314
0.370303
0.370242
0.372073
0.374816
0.37797
0.381118
0.384257
0.387196
0.390147
0.392913
0.395819
0.398558
0.401583
0.404415
0.407702
0.41072
0.414413
0.417703
0.421969
0.425622
0.43064
0.434724
0.440699
0.445313
0.452414
0.457445
0.465322
0.469918
0.477299
0.479882
0.4851
0.484718
0.487618
0.48684
0.483704
0.47623
0.42747
0.382114
0.26815
0.232892
0.311816
0.408699
0.437886
0.442328
0.427764
0.417085
0.402303
0.395037
0.386234
0.383317
0.379259
0.379104
0.377656
0.378252
0.377457
0.377709
0.376857
0.376469
0.375129
0.373814
0.371719
0.369553
0.367018
0.36464
0.36239
0.360508
0.359033
0.357875
0.357096
0.356336
0.35577
0.354863
0.353997
0.352496
0.350968
0.348596
0.346194
0.342812
0.339427
0.33504
0.330761
0.325689
0.321198
0.316718
0.335841
0.337576
0.342126
0.351901
0.368988
0.391965
0.414516
0.429894
0.435143
0.430787
0.419524
0.405127
0.391168
0.380193
0.373271
0.370276
0.370229
0.37207
0.374819
0.377975
0.381124
0.384262
0.387201
0.39015
0.392915
0.39582
0.398558
0.401583
0.404414
0.407701
0.410719
0.414412
0.417702
0.421967
0.425618
0.430635
0.434718
0.440692
0.445305
0.452407
0.45744
0.46532
0.469918
0.4773
0.479883
0.4851
0.484713
0.487613
0.486835
0.483716
0.476259
0.42753
0.382271
0.268347
0.233076
0.311852
0.408693
0.437897
0.442348
0.427779
0.417093
0.402308
0.395047
0.386249
0.383331
0.379268
0.379108
0.377658
0.378255
0.377463
0.377717
0.376866
0.376478
0.375137
0.373822
0.371726
0.369558
0.367022
0.364643
0.362391
0.360509
0.359034
0.357876
0.3571
0.356341
0.355779
0.354874
0.35401
0.352511
0.350984
0.348612
0.34621
0.342827
0.339441
0.335051
0.330768
0.325693
0.321199
0.316713
0.335845
0.337591
0.342163
0.351973
0.369094
0.39207
0.414573
0.429884
0.435077
0.43069
0.419421
0.405032
0.391088
0.38013
0.373226
0.370248
0.370215
0.372067
0.374821
0.377981
0.381131
0.384268
0.387205
0.390153
0.392917
0.395821
0.398559
0.401583
0.404414
0.4077
0.410718
0.41441
0.4177
0.421964
0.425614
0.430629
0.43471
0.440684
0.445297
0.4524
0.457434
0.465316
0.469916
0.477301
0.479883
0.485099
0.484707
0.487607
0.48683
0.48373
0.476289
0.427593
0.382435
0.268553
0.23327
0.311889
0.408686
0.437906
0.442366
0.427793
0.4171
0.402313
0.395056
0.386263
0.383345
0.379278
0.379112
0.37766
0.378258
0.377469
0.377725
0.376876
0.376488
0.375146
0.37383
0.371732
0.369563
0.367026
0.364645
0.362393
0.36051
0.359035
0.357878
0.357103
0.356347
0.355787
0.354885
0.354023
0.352526
0.351
0.348629
0.346226
0.342842
0.339455
0.335063
0.330778
0.3257
0.321202
0.316711
0.335849
0.337606
0.342201
0.352049
0.369204
0.392179
0.414633
0.429872
0.435008
0.430589
0.419313
0.404932
0.391004
0.380064
0.373178
0.370218
0.3702
0.372063
0.374824
0.377986
0.381137
0.384273
0.38721
0.390156
0.392919
0.395822
0.398559
0.401582
0.404413
0.407699
0.410716
0.414408
0.417697
0.421961
0.425609
0.430623
0.434703
0.440675
0.445289
0.452392
0.457428
0.465312
0.469915
0.477301
0.479883
0.485097
0.4847
0.487601
0.486824
0.483744
0.47632
0.427658
0.382606
0.268769
0.233473
0.311927
0.408675
0.437912
0.442384
0.427806
0.417107
0.402317
0.395066
0.386278
0.38336
0.379287
0.379116
0.377662
0.378262
0.377475
0.377733
0.376885
0.376497
0.375155
0.373837
0.371739
0.369569
0.36703
0.364648
0.362394
0.36051
0.359035
0.357879
0.357106
0.356353
0.355796
0.354897
0.354037
0.352541
0.351017
0.348646
0.346244
0.342859
0.33947
0.335077
0.330788
0.325708
0.321206
0.31671
0.335854
0.337622
0.342242
0.352127
0.369319
0.392293
0.414694
0.42986
0.434934
0.430482
0.419199
0.404827
0.390915
0.379993
0.373128
0.370187
0.370185
0.372059
0.374826
0.377992
0.381143
0.384279
0.387214
0.39016
0.392921
0.395823
0.398559
0.401581
0.404411
0.407697
0.410714
0.414405
0.417694
0.421956
0.425603
0.430616
0.434694
0.440666
0.445279
0.452384
0.457421
0.465308
0.469912
0.477301
0.479883
0.485095
0.484693
0.487594
0.486818
0.483758
0.476353
0.427726
0.382783
0.268995
0.233686
0.311966
0.408661
0.437917
0.4424
0.427818
0.417113
0.402321
0.395075
0.386292
0.383375
0.379296
0.37912
0.377664
0.378265
0.377481
0.377742
0.376895
0.376507
0.375164
0.373846
0.371746
0.369575
0.367035
0.364651
0.362395
0.360511
0.359036
0.357881
0.35711
0.356359
0.355805
0.354909
0.354051
0.352557
0.351034
0.348664
0.346262
0.342877
0.339487
0.335092
0.330801
0.325717
0.321213
0.316711
0.335859
0.337639
0.342284
0.35221
0.369439
0.392411
0.414758
0.429847
0.434857
0.43037
0.419079
0.404717
0.390821
0.379919
0.373075
0.370153
0.370168
0.372054
0.374829
0.377998
0.38115
0.384285
0.387219
0.390163
0.392923
0.395823
0.398558
0.40158
0.40441
0.407695
0.410711
0.414402
0.417691
0.421952
0.425597
0.430608
0.434685
0.440656
0.445269
0.452375
0.457413
0.465303
0.469909
0.4773
0.479882
0.485092
0.484685
0.487586
0.486811
0.483773
0.476388
0.427797
0.382968
0.269231
0.233909
0.312006
0.408644
0.437919
0.442414
0.427829
0.417118
0.402324
0.395085
0.386307
0.383389
0.379306
0.379123
0.377665
0.378269
0.377487
0.37775
0.376905
0.376517
0.375174
0.373854
0.371753
0.369581
0.367039
0.364653
0.362397
0.360511
0.359036
0.357882
0.357113
0.356365
0.355814
0.35492
0.354065
0.352574
0.351052
0.348683
0.346281
0.342896
0.339505
0.335108
0.330815
0.325729
0.321222
0.316714
0.335863
0.337657
0.342327
0.352295
0.369564
0.392534
0.414824
0.429833
0.434776
0.430252
0.418953
0.404601
0.390723
0.379842
0.373019
0.370118
0.370151
0.372049
0.374831
0.378004
0.381156
0.384291
0.387223
0.390166
0.392925
0.395824
0.398558
0.401579
0.404407
0.407692
0.410708
0.414399
0.417687
0.421947
0.425591
0.430599
0.434675
0.440646
0.445258
0.452365
0.457405
0.465297
0.469906
0.477299
0.47988
0.485089
0.484677
0.487578
0.486805
0.483789
0.476423
0.427871
0.38316
0.269476
0.234143
0.312048
0.408624
0.437919
0.442427
0.427839
0.417122
0.402327
0.395093
0.386321
0.383404
0.379316
0.379127
0.377667
0.378272
0.377494
0.377759
0.376915
0.376528
0.375183
0.373862
0.371761
0.369587
0.367043
0.364656
0.362398
0.360511
0.359036
0.357884
0.357117
0.356371
0.355823
0.354933
0.35408
0.35259
0.351071
0.348702
0.346301
0.342915
0.339524
0.335126
0.330831
0.325742
0.321232
0.31672
0.335868
0.337675
0.342373
0.352384
0.369693
0.392662
0.414892
0.429818
0.434692
0.430129
0.418822
0.40448
0.39062
0.379761
0.37296
0.370082
0.370132
0.372044
0.374834
0.37801
0.381163
0.384296
0.387228
0.390169
0.392926
0.395824
0.398557
0.401577
0.404405
0.407689
0.410705
0.414395
0.417682
0.421941
0.425583
0.430591
0.434665
0.440634
0.445247
0.452354
0.457396
0.465291
0.469902
0.477298
0.479878
0.485085
0.484668
0.48757
0.486798
0.483806
0.476461
0.427948
0.383359
0.269732
0.234386
0.312091
0.4086
0.437916
0.442438
0.427847
0.417125
0.402329
0.395102
0.386336
0.383419
0.379325
0.379131
0.377669
0.378275
0.3775
0.377768
0.376925
0.376538
0.375193
0.373871
0.371768
0.369593
0.367048
0.364659
0.362399
0.360512
0.359037
0.357885
0.35712
0.356377
0.355832
0.354945
0.354095
0.352608
0.35109
0.348722
0.346321
0.342936
0.339544
0.335145
0.330848
0.325758
0.321245
0.316727
0.335874
0.337694
0.34242
0.352476
0.369828
0.392794
0.414963
0.429803
0.434604
0.430001
0.418685
0.404353
0.390513
0.379676
0.372899
0.370043
0.370113
0.372038
0.374836
0.378016
0.38117
0.384302
0.387232
0.390171
0.392927
0.395824
0.398556
0.401575
0.404402
0.407686
0.410701
0.414391
0.417677
0.421935
0.425576
0.430581
0.434653
0.440622
0.445235
0.452343
0.457387
0.465284
0.469898
0.477296
0.479876
0.485081
0.484658
0.487561
0.486791
0.483823
0.4765
0.428028
0.383566
0.269999
0.23464
0.312134
0.408572
0.437909
0.442446
0.427853
0.417127
0.40233
0.39511
0.38635
0.383434
0.379335
0.379135
0.377671
0.378279
0.377506
0.377777
0.376935
0.376549
0.375203
0.37388
0.371776
0.369599
0.367053
0.364662
0.3624
0.360512
0.359037
0.357886
0.357124
0.356384
0.355842
0.354958
0.354111
0.352625
0.351109
0.348743
0.346343
0.342957
0.339566
0.335166
0.330867
0.325775
0.32126
0.316736
0.335879
0.337714
0.342469
0.352572
0.369967
0.39293
0.415035
0.429785
0.434512
0.429868
0.418542
0.404221
0.3904
0.379587
0.372835
0.370003
0.370092
0.372032
0.374839
0.378022
0.381177
0.384308
0.387237
0.390174
0.392929
0.395824
0.398555
0.401573
0.404399
0.407683
0.410697
0.414386
0.417672
0.421928
0.425567
0.430571
0.434642
0.44061
0.445222
0.452332
0.457377
0.465277
0.469893
0.477294
0.479873
0.485077
0.484648
0.487552
0.486784
0.483841
0.476541
0.428112
0.38378
0.270276
0.234905
0.312179
0.40854
0.4379
0.442453
0.427858
0.417128
0.402331
0.395118
0.386364
0.383449
0.379344
0.379139
0.377673
0.378282
0.377513
0.377785
0.376946
0.37656
0.375214
0.373889
0.371784
0.369606
0.367057
0.364664
0.362401
0.360512
0.359037
0.357888
0.357127
0.35639
0.355852
0.354971
0.354127
0.352643
0.351129
0.348764
0.346365
0.34298
0.339588
0.335188
0.330887
0.325794
0.321277
0.316748
0.335885
0.337734
0.34252
0.352671
0.37011
0.39307
0.41511
0.429767
0.434416
0.42973
0.418394
0.404084
0.390284
0.379495
0.372768
0.369961
0.370071
0.372026
0.374841
0.378028
0.381184
0.384315
0.387241
0.390177
0.39293
0.395823
0.398553
0.40157
0.404396
0.407679
0.410693
0.414381
0.417666
0.421921
0.425559
0.43056
0.434629
0.440596
0.445208
0.452319
0.457366
0.465269
0.469888
0.477291
0.479869
0.485072
0.484637
0.487542
0.486776
0.48386
0.476583
0.428198
0.384001
0.270563
0.235181
0.312225
0.408504
0.437886
0.442457
0.427861
0.417127
0.40233
0.395125
0.386378
0.383463
0.379354
0.379143
0.377674
0.378285
0.377519
0.377795
0.376957
0.376571
0.375224
0.373898
0.371792
0.369612
0.367062
0.364667
0.362402
0.360512
0.359037
0.357889
0.35713
0.356397
0.355862
0.354984
0.354143
0.352662
0.35115
0.348786
0.346388
0.343003
0.339612
0.335211
0.33091
0.325815
0.321296
0.316761
0.335891
0.337755
0.342573
0.352773
0.370258
0.393215
0.415186
0.429748
0.434317
0.429586
0.41824
0.403941
0.390162
0.379398
0.372699
0.369917
0.370049
0.372019
0.374843
0.378034
0.381191
0.384321
0.387246
0.390179
0.39293
0.395823
0.398551
0.401567
0.404392
0.407674
0.410688
0.414375
0.417659
0.421913
0.425549
0.430549
0.434616
0.440582
0.445194
0.452306
0.457355
0.465261
0.469882
0.477288
0.479866
0.485066
0.484625
0.487532
0.486769
0.483879
0.476627
0.428288
0.38423
0.270862
0.235468
0.312273
0.408463
0.437869
0.442458
0.427861
0.417125
0.402329
0.395132
0.386391
0.383477
0.379363
0.379147
0.377676
0.378288
0.377525
0.377804
0.376968
0.376582
0.375235
0.373907
0.3718
0.369619
0.367067
0.36467
0.362403
0.360512
0.359037
0.35789
0.357134
0.356403
0.355872
0.354998
0.354159
0.352681
0.351171
0.348808
0.346412
0.343028
0.339637
0.335236
0.330933
0.325837
0.321317
0.316777
0.335897
0.337777
0.342627
0.352878
0.370411
0.393364
0.415265
0.429728
0.434214
0.429436
0.41808
0.403793
0.390036
0.379298
0.372626
0.369871
0.370026
0.372012
0.374845
0.378041
0.381198
0.384327
0.38725
0.390182
0.392931
0.395822
0.398549
0.401564
0.404388
0.407669
0.410682
0.414369
0.417652
0.421905
0.425539
0.430537
0.434603
0.440568
0.445179
0.452293
0.457343
0.465252
0.469876
0.477285
0.479862
0.48506
0.484613
0.487521
0.486761
0.483899
0.476673
0.428381
0.384467
0.271172
0.235766
0.312321
0.408417
0.437848
0.442456
0.42786
0.417121
0.402326
0.395138
0.386404
0.383491
0.379372
0.37915
0.377677
0.378291
0.377532
0.377813
0.376979
0.376593
0.375245
0.373917
0.371808
0.369626
0.367072
0.364673
0.362404
0.360512
0.359037
0.357891
0.357138
0.35641
0.355882
0.355011
0.354176
0.3527
0.351192
0.348831
0.346436
0.343053
0.339663
0.335262
0.330959
0.325862
0.32134
0.316795
0.335903
0.3378
0.342683
0.352987
0.370569
0.393518
0.415345
0.429706
0.434107
0.429282
0.417914
0.403639
0.389905
0.379195
0.372551
0.369824
0.370001
0.372004
0.374847
0.378047
0.381205
0.384333
0.387255
0.390184
0.392932
0.395821
0.398547
0.401561
0.404384
0.407664
0.410677
0.414363
0.417645
0.421896
0.425529
0.430524
0.434589
0.440553
0.445164
0.452278
0.457331
0.465243
0.46987
0.477281
0.479857
0.485054
0.4846
0.48751
0.486754
0.483921
0.476721
0.428478
0.384712
0.271493
0.236076
0.312371
0.408366
0.437823
0.442452
0.427856
0.417115
0.402322
0.395143
0.386416
0.383505
0.379381
0.379153
0.377678
0.378294
0.377538
0.377822
0.37699
0.376605
0.375256
0.373927
0.371816
0.369632
0.367077
0.364675
0.362405
0.360512
0.359037
0.357893
0.357141
0.356417
0.355893
0.355025
0.354193
0.35272
0.351214
0.348855
0.346462
0.343079
0.33969
0.335289
0.330986
0.325888
0.321365
0.316814
0.335909
0.337823
0.34274
0.353099
0.37073
0.393675
0.415427