/*--------------------------------*- C++ -*----------------------------------*\
| =========                 |                                                 |
| \\      /  F ield         | OpenFOAM: The Open Source CFD Toolbox           |
|  \\    /   O peration     | Version:  2412                                  |
|   \\  /    A nd           | Website:  www.openfoam.com                      |
|    \\/     M anipulation  |                                                 |
\*---------------------------------------------------------------------------*/
FoamFile
{
    version     2.0;
    format      ascii;
    arch        "LSB;label=32;scalar=64";
    class       volScalarField;
    location    "0.7";
    object      p;
}
// * * * * * * * * * * * * * * * * * * * * * * * * * * * * * * * * * * * * * //

dimensions      [0 2 -2 0 0 0 0];

internalField   nonuniform List<scalar> 
13068
(
105412
105406
105374
105330
105273
105195
105116
105008
104908
104764
104628
104428
104244
103981
103758
103435
103183
102794
102517
102043
101744
101159
100844
100111
99793.4
98858.8
98560.6
97350.4
97107.4
95513.9
95385.1
93252.2
93331.9
90430.8
90869.2
86861.9
87896
82279.2
84284.1
76301
79871.1
68372.4
74452.3
57671.6
67761.4
42931.5
59392.4
22092.2
48593.2
-8143.57
34062.1
-51079
16246.5
-100489
2619.14
-69585.4
7781.58
-35347.6
16916.5
-9548.1
24761.5
8888.97
31694.4
22737.2
38148.2
33516.6
44079.5
42059.1
49415.4
48913
54124
54451
58202.8
58938.5
61679.6
62581.2
64608.9
65551.2
67065.3
67998.4
69131.9
70052
70887.5
71817.8
72395.4
73377.3
73699.1
74790.1
74823
76101.1
75777.9
77347.4
76565.8
78563.6
77184.9
79783.7
77631
81041.9
77896.3
105412
105406
105374
105330
105273
105195
105116
105008
104908
104764
104628
104428
104244
103981
103758
103435
103183
102794
102517
102043
101744
101159
100844
100111
99793.4
98858.9
98560.6
97350.4
97107.4
95514
95385.1
93252.3
93332
90430.9
90869.2
86862
87896.1
82279.3
84284.1
76301
79871.1
68372.5
74452.2
57671.5
67761.2
42931.5
59392.3
22092.3
48593.5
-8143.13
34062.6
-51079.5
16246.3
-100492
2618.5
-69586.2
7781.67
-35347.4
16917.1
-9547.29
24762.1
8889.45
31694.5
22737.2
38148.1
33516.5
44079.3
42058.8
49415.1
48912.7
54123.6
54450.7
58202.5
58938.1
61679.2
62580.9
64608.6
65551.1
67065.2
67998.4
69132
70052.1
70887.6
71818
72395.6
73377.5
73699.3
74790.3
74823.2
76101.2
75778
77347.5
76565.9
78563.6
77184.9
79783.6
77631.1
81041.8
77896.5
105412
105406
105374
105330
105273
105195
105116
105008
104908
104764
104628
104428
104244
103981
103758
103435
103183
102794
102517
102043
101744
101159
100844
100111
99793.5
98858.9
98560.7
97350.5
97107.5
95514.1
95385.2
93252.4
93332.1
90431
90869.3
86862.2
87896.2
82279.4
84284.2
76301.2
79871.1
68372.6
74452.1
57671.6
67761.1
42931.5
59392.3
22092.6
48593.8
-8142.64
34063.1
-51080.2
16245.9
-100497
2617.48
-69587.2
7781.62
-35347
16917.7
-9546.39
24762.8
8890
31694.7
22737.2
38148
33516.4
44079.2
42058.7
49414.9
48912.4
54123.3
54450.3
58202.1
58937.8
61678.9
62580.7
64608.4
65551
67065.1
67998.4
69132
70052.2
70887.8
71818.1
72395.8
73377.6
73699.5
74790.5
74823.3
76101.3
75778.1
77347.5
76565.9
78563.6
77184.9
79783.6
77631.1
81041.7
77896.7
105412
105406
105374
105330
105273
105195
105116
105009
104908
104764
104628
104428
104244
103981
103758
103435
103183
102794
102517
102043
101744
101159
100844
100111
99793.5
98859
98560.8
97350.6
97107.6
95514.2
95385.3
93252.5
93332.2
90431.2
90869.4
86862.4
87896.3
82279.6
84284.3
76301.4
79871.2
68372.7
74452.1
57671.7
67761
42931.7
59392.3
22093
48594.2
-8142.09
34063.5
-51081.3
16245.2
-100502
2616.08
-69588.5
7781.45
-35346.7
16918.4
-9545.4
24763.5
8890.59
31694.8
22737.3
38147.9
33516.3
44079
42058.5
49414.7
48912.2
54123
54450.1
58201.8
58937.5
61678.6
62580.5
64608.2
65550.8
67065
67998.4
69132.1
70052.3
70887.9
71818.3
72396
73377.8
73699.6
74790.6
74823.5
76101.5
75778.2
77347.6
76566
78563.6
77185
79783.6
77631.2
81041.6
77896.9
105412
105406
105374
105330
105273
105195
105116
105009
104908
104764
104628
104428
104244
103981
103758
103435
103183
102794
102517
102043
101744
101159
100845
100111
99793.6
98859.1
98560.9
97350.8
97107.7
95514.4
95385.4
93252.7
93332.3
90431.4
90869.6
86862.6
87896.4
82279.9
84284.4
76301.7
79871.2
68373
74452.1
57671.9
67761
42932
59392.4
22093.6
48594.7
-8141.45
34064
-51082.6
16244.5
-100509
2614.3
-69590.2
7781.16
-35346.2
16919
-9544.32
24764.2
8891.25
31695
22737.5
38147.8
33516.3
44078.8
42058.4
49414.4
48912
54122.8
54449.8
58201.5
58937.3
61678.4
62580.3
64608.1
65550.8
67065
67998.4
69132.2
70052.4
70888.1
71818.5
72396.2
73378
73699.8
74790.8
74823.7
76101.6
75778.3
77347.6
76566.1
78563.6
77185
79783.5
77631.3
81041.5
77897.1
105412
105406
105374
105330
105273
105196
105116
105009
104909
104764
104629
104428
104244
103981
103758
103435
103183
102794
102517
102043
101744
101159
100845
100111
99793.8
98859.3
98561
97350.9
97107.8
95514.6
95385.6
93252.9
93332.5
90431.7
90869.7
86862.9
87896.6
82280.2
84284.6
76302
79871.3
68373.4
74452.1
57672.3
67760.9
42932.4
59392.5
22094.2
48595.2
-8140.73
34064.5
-51084.1
16243.5
-100518
2612.13
-69592.2
7780.75
-35345.8
16919.7
-9543.13
24764.9
8891.96
31695.1
22737.6
38147.7
33516.3
44078.7
42058.4
49414.2
48911.9
54122.5
54449.6
58201.2
58937
61678.1
62580.1
64607.9
65550.7
67065
67998.5
69132.3
70052.5
70888.3
71818.6
72396.4
73378.2
73700.1
74790.9
74823.8
76101.7
75778.4
77347.7
76566.1
78563.6
77185.1
79783.5
77631.4
81041.4
77897.3
105413
105407
105375
105331
105274
105196
105117
105009
104909
104765
104629
104428
104244
103981
103758
103435
103183
102794
102517
102043
101744
101159
100845
100111
99793.9
98859.4
98561.1
97351.1
97108
95514.8
95385.8
93253.2
93332.7
90432
90870
86863.3
87896.8
82280.6
84284.8
76302.5
79871.5
68373.8
74452.2
57672.7
67760.9
42932.9
59392.6
22095
48595.7
-8139.93
34065
-51086
16242.3
-100527
2609.58
-69594.4
7780.23
-35345.2
16920.4
-9541.85
24765.6
8892.74
31695.2
22737.9
38147.5
33516.3
44078.5
42058.3
49414
48911.8
54122.2
54449.4
58200.9
58936.8
61677.9
62580
64607.8
65550.7
67065
67998.6
69132.4
70052.7
70888.4
71818.8
72396.6
73378.4
73700.3
74791.1
74824
76101.8
75778.6
77347.7
76566.3
78563.6
77185.2
79783.4
77631.5
81041.3
77897.5
105413
105407
105375
105331
105274
105196
105117
105009
104909
104765
104629
104428
104244
103981
103758
103435
103183
102794
102517
102044
101744
101159
100845
100111
99794
98859.6
98561.3
97351.3
97108.2
95515.1
95386
93253.5
93332.9
90432.4
90870.2
86863.7
87897.1
82281.1
84285
76303
79871.6
68374.3
74452.2
57673.2
67760.9
42933.5
59392.7
22095.9
48596.3
-8139.05
34065.5
-51088.1
16241
-100538
2606.64
-69597
7779.58
-35344.6
16921.1
-9540.47
24766.3
8893.57
31695.3
22738.1
38147.4
33516.4
44078.3
42058.3
49413.8
48911.7
54122
54449.3
58200.6
58936.7
61677.7
62579.9
64607.7
65550.7
67065
67998.7
69132.5
70052.8
70888.6
71819
72396.8
73378.5
73700.5
74791.2
74824.3
76101.9
75778.8
77347.8
76566.4
78563.6
77185.3
79783.4
77631.6
81041.2
77897.7
105413
105407
105375
105331
105274
105196
105117
105009
104909
104765
104629
104428
104244
103981
103758
103435
103183
102794
102517
102044
101745
101160
100845
100112
99794.2
98859.8
98561.5
97351.6
97108.4
95515.4
95386.2
93253.9
93333.2
90432.8
90870.5
86864.2
87897.4
82281.6
84285.2
76303.6
79871.8
68374.9
74452.3
57673.8
67760.9
42934.2
59392.9
22096.9
48596.9
-8138.09
34066.1
-51090.5
16239.5
-100550
2603.33
-69599.8
7778.81
-35343.9
16921.8
-9538.99
24767
8894.47
31695.3
22738.4
38147.2
33516.5
44078.1
42058.4
49413.6
48911.7
54121.8
54449.2
58200.4
58936.6
61677.5
62579.8
64607.6
65550.7
67065.1
67998.8
69132.7
70053
70888.8
71819.2
72397
73378.7
73700.7
74791.4
74824.5
76102
75778.9
77347.8
76566.5
78563.6
77185.4
79783.3
77631.7
81041
77897.9
105414
105408
105376
105331
105274
105196
105117
105009
104909
104765
104629
104428
104244
103981
103758
103435
103183
102795
102517
102044
101745
101160
100845
100112
99794.4
98860.1
98561.7
97351.9
97108.7
95515.7
95386.5
93254.2
93333.5
90433.2
90870.8
86864.7
87897.7
82282.2
84285.5
76304.2
79872.1
68375.6
74452.5
57674.6
67761
42935.1
59393.1
22098.1
48597.6
-8137.04
34066.6
-51093.1
16237.8
-100564
2599.63
-69603
7777.93
-35343.2
16922.6
-9537.41
24767.7
8895.43
31695.4
22738.8
38147
33516.6
44077.9
42058.4
49413.4
48911.6
54121.5
54449.1
58200.2
58936.5
61677.3
62579.8
64607.6
65550.8
67065.2
67998.9
69132.8
70053.2
70889.1
71819.4
72397.3
73378.9
73701
74791.6
74824.7
76102.1
75779.1
77347.9
76566.7
78563.6
77185.5
79783.3
77631.9
81040.9
77898.1
105414
105408
105376
105332
105275
105197
105117
105010
104909
104765
104629
104428
104245
103981
103758
103436
103184
102795
102517
102044
101745
101160
100845
100112
99794.6
98860.4
98562
97352.2
97108.9
95516.1
95386.8
93254.7
93333.8
90433.7
90871.1
86865.3
87898
82282.9
84285.9
76304.9
79872.3
68376.4
74452.6
57675.4
67761.1
42936
59393.3
22099.4
48598.3
-8135.92
34067.1
-51096
16235.9
-100578
2595.55
-69606.5
7776.92
-35342.4
16923.3
-9535.73
24768.4
8896.44
31695.5
22739.1
38146.9
33516.8
44077.7
42058.5
49413.2
48911.7
54121.3
54449
58200
58936.4
61677.2
62579.7
64607.5
65550.8
67065.2
67999.1
69133
70053.4
70889.3
71819.6
72397.5
73379.1
73701.2
74791.7
74824.9
76102.2
75779.3
77347.9
76566.8
78563.6
77185.6
79783.2
77632
81040.8
77898.4
105415
105408
105376
105332
105275
105197
105118
105010
104909
104765
104629
104428
104245
103981
103758
103436
103184
102795
102518
102044
101745
101160
100846
100112
99794.9
98860.6
98562.2
97352.5
97109.2
95516.4
95387.1
93255.1
93334.1
90434.2
90871.5
86865.9
87898.4
82283.6
84286.2
76305.7
79872.6
68377.2
74452.8
57676.3
67761.2
42937.1
59393.6
22100.8
48599.1
-8134.71
34067.6
-51099.2
16233.8
-100594
2591.08
-69610.2
7775.8
-35341.5
16924.1
-9533.96
24769.2
8897.52
31695.5
22739.6
38146.7
33517
44077.5
42058.7
49413
48911.7
54121.1
54449
58199.8
58936.4
61677.1
62579.8
64607.5
65550.9
67065.3
67999.3
69133.2
70053.6
70889.5
71819.8
72397.8
73379.3
73701.5
74791.9
74825.2
76102.3
75779.6
77347.9
76567
78563.5
77185.8
79783.1
77632.2
81040.7
77898.6
105415
105409
105377
105333
105276
105197
105118
105010
104910
104765
104629
104428
104245
103982
103758
103436
103184
102795
102518
102044
101745
101160
100846
100113
99795.1
98861
98562.5
97352.9
97109.5
95516.9
95387.5
93255.6
93334.5
90434.8
90871.9
86866.6
87898.8
82284.4
84286.6
76306.6
79873
68378.2
74453
57677.3
67761.3
42938.2
59393.9
22102.3
48599.9
-8133.43
34068.2
-51102.7
16231.5
-100612
2586.24
-69614.3
7774.56
-35340.5
16924.9
-9532.08
24769.9
8898.66
31695.6
22740
38146.5
33517.2
44077.4
42058.8
49412.9
48911.8
54121
54449
58199.6
58936.4
61677
62579.8
64607.5
65551.1
67065.5
67999.5
69133.4
70053.8
70889.8
71820.1
72398.1
73379.5
73701.8
74792
74825.5
76102.4
75779.8
77348
76567.2
78563.5
77185.9
79783.1
77632.3
81040.6
77898.8
105416
105410
105377
105333
105276
105198
105118
105010
104910
104766
104629
104429
104245
103982
103759
103436
103184
102795
102518
102045
101745
101161
100846
100113
99795.4
98861.3
98562.8
97353.3
97109.9
95517.3
95387.8
93256.2
93334.9
90435.5
90872.3
86867.3
87899.3
82285.3
84287.1
76307.6
79873.3
68379.2
74453.3
57678.4
67761.5
42939.5
59394.2
22104
48600.8
-8132.06
34068.7
-51106.4
16229.1
-100630
2581.01
-69618.7
7773.2
-35339.5
16925.7
-9530.11
24770.6
8899.85
31695.6
22740.5
38146.3
33517.5
44077.2
42059
49412.7
48911.9
54120.8
54449.1
58199.5
58936.4
61676.9
62579.9
64607.6
65551.2
67065.6
67999.7
69133.7
70054.1
70890.1
71820.3
72398.4
73379.7
73702.1
74792.2
74825.7
76102.5
75780
77348
76567.4
78563.4
77186.1
79783
77632.5
81040.4
77899
105417
105410
105378
105334
105276
105198
105119
105011
104910
104766
104630
104429
104245
103982
103759
103436
103184
102795
102518
102045
101746
101161
100846
100113
99795.7
98861.7
98563.1
97353.7
97110.2
95517.8
95388.3
93256.8
93335.4
90436.2
90872.8
86868.1
87899.7
82286.2
84287.5
76308.6
79873.7
68380.3
74453.5
57679.5
67761.6
42940.9
59394.5
22105.8
48601.7
-8130.61
34069.3
-51110.4
16226.5
-100650
2575.4
-69623.3
7771.72
-35338.5
16926.6
-9528.04
24771.4
8901.11
31695.6
22741.1
38146
33517.8
44077
42059.2
49412.5
48912.1
54120.6
54449.2
58199.4
58936.5
61676.8
62580
64607.6
65551.4
67065.8
67999.9
69133.9
70054.3
70890.4
71820.5
72398.7
73379.9
73702.4
74792.3
74826
76102.6
75780.3
77348
76567.6
78563.4
77186.3
79782.9
77632.7
81040.3
77899.2
105417
105411
105379
105334
105277
105199
105119
105011
104910
104766
104630
104429
104245
103982
103759
103436
103184
102796
102518
102045
101746
101161
100847
100113
99796
98862
98563.5
97354.1
97110.6
95518.4
95388.7
93257.4
93335.8
90436.9
90873.3
86869
87900.3
82287.1
84288
76309.7
79874.2
68381.5
74453.8
57680.8
67761.8
42942.4
59394.9
22107.7
48602.7
-8129.08
34069.8
-51114.7
16223.7
-100671
2569.41
-69628.3
7770.12
-35337.4
16927.4
-9525.87
24772.1
8902.43
31695.6
22741.6
38145.8
33518.2
44076.8
42059.5
49412.4
48912.2
54120.5
54449.3
58199.3
58936.6
61676.8
62580.1
64607.7
65551.6
67066
68000.2
69134.1
70054.6
70890.6
71820.8
72399
73380.2
73702.7
74792.5
74826.3
76102.7
75780.6
77348
76567.9
78563.3
77186.5
79782.8
77632.9
81040.2
77899.5
105418
105411
105379
105335
105278
105199
105120
105011
104911
104766
104630
104429
104245
103982
103759
103437
103185
102796
102519
102045
101746
101162
100847
100114
99796.3
98862.5
98563.9
97354.6
97111
95518.9
95389.1
93258
93336.3
90437.6
90873.8
86869.9
87900.8
82288.2
84288.6
76310.9
79874.6
68382.8
74454.1
57682.2
67762.1
42944
59395.3
22109.8
48603.7
-8127.46
34070.4
-51119.2
16220.7
-100694
2563.03
-69633.6
7768.4
-35336.2
16928.3
-9523.6
24772.9
8903.8
31695.6
22742.3
38145.6
33518.6
44076.6
42059.8
49412.2
48912.4
54120.4
54449.4
58199.2
58936.7
61676.8
62580.3
64607.8
65551.8
67066.2
68000.4
69134.4
70054.9
70891
71821
72399.3
73380.4
73703
74792.7
74826.6
76102.8
75780.9
77348
76568.1
78563.3
77186.7
79782.7
77633.1
81040.1
77899.7
105419
105412
105380
105335
105278
105200
105120
105012
104911
104766
104630
104429
104246
103982
103759
103437
103185
102796
102519
102046
101746
101162
100847
100114
99796.7
98862.9
98564.3
97355.1
97111.5
95519.5
95389.6
93258.7
93336.9
90438.5
90874.4
86870.8
87901.4
82289.3
84289.1
76312.1
79875.1
68384.1
74454.5
57683.7
67762.3
42945.7
59395.8
22111.9
48604.7
-8125.77
34071
-51124.1
16217.5
-100718
2556.28
-69639.1
7766.56
-35334.9
16929.2
-9521.23
24773.7
8905.24
31695.6
22742.9
38145.3
33519
44076.4
42060.1
49412.1
48912.7
54120.2
54449.6
58199.1
58936.8
61676.8
62580.5
64607.9
65552.1
67066.4
68000.7
69134.7
70055.2
70891.3
71821.3
72399.6
73380.6
73703.4
74792.8
74827
76102.9
75781.2
77348
76568.4
78563.2
77187
79782.6
77633.3
81039.9
77899.9
105419
105413
105381
105336
105279
105200
105120
105012
104911
104767
104630
104429
104246
103983
103759
103437
103185
102796
102519
102046
101747
101162
100848
100115
99797.1
98863.4
98564.7
97355.7
97111.9
95520.1
95390.1
93259.5
93337.4
90439.3
90875
86871.8
87902
82290.5
84289.7
76313.4
79875.6
68385.6
74454.9
57685.2
67762.6
42947.5
59396.3
22114.2
48605.8
-8123.99
34071.5
-51129.1
16214.2
-100743
2549.14
-69645
7764.6
-35333.6
16930.1
-9518.77
24774.4
8906.73
31695.5
22743.6
38145.1
33519.4
44076.2
42060.5
49411.9
48913
54120.1
54449.8
58199
58937
61676.8
62580.7
64608
65552.3
67066.6
68001
69135
70055.5
70891.6
71821.6
72400
73380.8
73703.7
74793
74827.3
76102.9
75781.5
77348
76568.7
78563.2
77187.2
79782.5
77633.5
81039.8
77900.1
105420
105414
105381
105337
105279
105201
105121
105012
104911
104767
104631
104430
104246
103983
103760
103437
103185
102797
102519
102046
101747
101163
100848
100115
99797.4
98863.8
98565.1
97356.2
97112.4
95520.8
95390.7
93260.2
93338
90440.2
90875.6
86872.9
87902.7
82291.7
84290.4
76314.8
79876.2
68387.1
74455.3
57686.9
67762.9
42949.4
59396.8
22116.7
48607
-8122.13
34072.1
-51134.5
16210.7
-100769
2541.63
-69651.1
7762.53
-35332.2
16931
-9516.21
24775.2
8908.29
31695.5
22744.4
38144.8
33519.9
44075.9
42060.9
49411.8
48913.3
54120
54450.1
58199
58937.3
61676.9
62580.9
64608.2
65552.6
67066.9
68001.3
69135.3
70055.8
70891.9
71821.9
72400.3
73381
73704
74793.1
74827.6
76103
75781.8
77348
76569
78563.1
77187.5
79782.4
77633.7
81039.7
77900.4
105421
105414
105382
105337
105280
105201
105121
105013
104912
104767
104631
104430
104246
103983
103760
103437
103185
102797
102520
102047
101747
101163
100848
100115
99797.9
98864.4
98565.6
97356.8
97112.9
95521.5
95391.2
93261.1
93338.6
90441.2
90876.3
86874
87903.4
82293
84291
76316.3
79876.8
68388.7
74455.7
57688.6
67763.2
42951.5
59397.3
22119.2
48608.2
-8120.18
34072.7
-51140.1
16206.9
-100797
2533.73
-69657.6
7760.33
-35330.8
16932
-9513.55
24776
8909.9
31695.4
22745.1
38144.5
33520.4
44075.7
42061.3
49411.6
48913.6
54120
54450.3
58199
58937.5
61676.9
62581.2
64608.4
65553
67067.2
68001.7
69135.7
70056.1
70892.3
71822.1
72400.7
73381.3
73704.4
74793.3
74828
76103.1
75782.1
77348
76569.3
78563
77187.7
79782.3
77633.9
81039.5
77900.6
105422
105415
105383
105338
105281
105202
105122
105013
104912
104767
104631
104430
104246
103983
103760
103438
103186
102797
102520
102047
101748
101163
100849
100116
99798.3
98864.9
98566.1
97357.5
97113.5
95522.2
95391.8
93261.9
93339.3
90442.2
90877
86875.2
87904.1
82294.3
84291.7
76317.8
79877.4
68390.4
74456.2
57690.5
67763.5
42953.6
59397.9
22121.9
48609.4
-8118.16
34073.3
-51146
16203
-100826
2525.45
-69664.3
7758.01
-35329.3
16932.9
-9510.8
24776.7
8911.57
31695.3
22746
38144.2
33521
44075.5
42061.7
49411.5
48914
54119.9
54450.7
58199
58937.8
61677
62581.5
64608.6
65553.3
67067.5
68002.1
69136
70056.5
70892.7
71822.4
72401.1
73381.5
73704.8
74793.5
74828.4
76103.2
75782.5
77348
76569.6
78562.9
77188
79782.1
77634.2
81039.4
77900.8
105423
105416
105384
105339
105281
105203
105123
105014
104912
104768
104631
104430
104247
103983
103760
103438
103186
102797
102520
102047
101748
101164
100849
100116
99798.7
98865.4
98566.6
97358.1
97114
95523
95392.4
93262.8
93340
90443.3
90877.7
86876.4
87904.8
82295.8
84292.5
76319.4
79878
68392.2
74456.7
57692.4
67763.9
42955.9
59398.4
22124.7
48610.7
-8116.05
34073.9
-51152.2
16198.9
-100856
2516.8
-69671.4
7755.57
-35327.7
16933.9
-9507.94
24777.5
8913.3
31695.3
22746.8
38143.9
33521.6
44075.3
42062.2
49411.4
48914.4
54119.8
54451
58199
58938.1
61677.1
62581.9
64608.8
65553.7
67067.8
68002.4
69136.4
70056.8
70893
71822.7
72401.4
73381.7
73705.2
74793.6
74828.8
76103.3
75782.9
77348
76569.9
78562.8
77188.3
79782
77634.4
81039.3
77901
105424
105417
105385
105340
105282
105203
105123
105014
104913
104768
104632
104431
104247
103984
103761
103438
103186
102798
102521
102048
101748
101164
100849
100117
99799.2
98866
98567.1
97358.8
97114.6
95523.8
95393.1
93263.7
93340.7
90444.3
90878.5
86877.7
87905.6
82297.3
84293.2
76321.1
79878.7
68394.1
74457.2
57694.5
67764.3
42958.2
59399.1
22127.6
48612.1
-8113.86
34074.5
-51158.6
16194.7
-100887
2507.76
-69678.7
7753.01
-35326.1
16934.9
-9504.99
24778.3
8915.09
31695.2
22747.7
38143.6
33522.2
44075.1
42062.7
49411.3
48914.8
54119.8
54451.4
58199
58938.5
61677.3
62582.2
64609.1
65554.1
67068.1
68002.9
69136.8
70057.2
70893.4
71823
72401.8
73382
73705.6
74793.8
74829.1
76103.3
75783.2
77348
76570.3
78562.7
77188.6
79781.9
77634.7
81039.1
77901.3
105425
105418
105385
105341
105283
105204
105124
105015
104913
104768
104632
104431
104247
103984
103761
103438
103186
102798
102521
102048
101749
101165
100850
100117
99799.7
98866.6
98567.6
97359.5
97115.2
95524.6
95393.8
93264.7
93341.4
90445.5
90879.3
86879
87906.4
82298.8
84294
76322.9
79879.4
68396
74457.7
57696.6
67764.7
42960.7
59399.7
22130.7
48613.5
-8111.59
34075.2
-51165.3
16190.2
-100920
2498.35
-69686.3
7750.33
-35324.4
16935.9
-9501.95
24779.1
8916.94
31695
22748.7
38143.3
33522.9
44074.9
42063.3
49411.2
48915.3
54119.8
54451.8
58199.1
58938.8
61677.4
62582.6
64609.3
65554.5
67068.5
68003.3
69137.2
70057.6
70893.8
71823.4
72402.2
73382.2
73706
74794
74829.5
76103.4
75783.6
77347.9
76570.7
78562.6
77188.9
79781.7
77635
81039
77901.5
105426
105419
105386
105341
105284
105205
105124
105015
104914
104769
104632
104431
104247
103984
103761
103439
103187
102798
102521
102048
101749
101165
100850
100118
99800.2
98867.3
98568.2
97360.2
97115.9
95525.5
95394.5
93265.7
93342.2
90446.7
90880.1
86880.4
87907.3
82300.4
84294.9
76324.7
79880.2
68398
74458.3
57698.8
67765.1
42963.3
59400.4
22133.9
48614.9
-8109.23
34075.8
-51172.3
16185.6
-100954
2488.55
-69694.3
7747.53
-35322.7
16936.9
-9498.81
24779.9
8918.85
31694.9
22749.7
38143
33523.6
44074.6
42063.9
49411
48915.8
54119.8
54452.2
58199.2
58939.3
61677.6
62583
64609.6
65555
67068.9
68003.7
69137.6
70058
70894.3
71823.7
72402.6
73382.4
73706.4
74794.1
74830
76103.5
75784
77347.9
76571
78562.5
77189.3
79781.6
77635.3
81038.8
77901.8
105427
105420
105387
105342
105285
105205
105125
105016
104914
104769
104632
104431
104248
103984
103761
103439
103187
102799
102522
102049
101750
101166
100851
100118
99800.7
98867.9
98568.8
97361
97116.5
95526.4
95395.2
93266.8
93343
90447.9
90880.9
86881.9
87908.2
82302.1
84295.8
76326.6
79881
68400.2
74458.9
57701.1
67765.6
42966
59401.1
22137.2
48616.4
-8106.8
34076.4
-51179.5
16180.7
-100990
2478.38
-69702.5
7744.6
-35320.9
16938
-9495.57
24780.7
8920.81
31694.8
22750.7
38142.7
33524.3
44074.4
42064.5
49410.9
48916.3
54119.7
54452.7
58199.3
58939.7
61677.8
62583.5
64609.9
65555.4
67069.3
68004.2
69138
70058.4
70894.7
71824
72403.1
73382.7
73706.8
74794.3
74830.4
76103.5
75784.5
77347.9
76571.4
78562.4
77189.6
79781.5
77635.6
81038.7
77902
105428
105421
105388
105343
105285
105206
105126
105016
104915
104769
104633
104432
104248
103985
103762
103439
103187
102799
102522
102049
101750
101166
100851
100119
99801.3
98868.6
98569.4
97361.8
97117.2
95527.3
95396
93267.9
93343.8
90449.2
90881.8
86883.4
87909.1
82303.8
84296.7
76328.6
79881.8
68402.4
74459.5
57703.6
67766.1
42968.8
59401.9
22140.6
48617.9
-8104.27
34077.1
-51187.1
16175.7
-101027
2467.83
-69711
7741.56
-35319
16939
-9492.24
24781.5
8922.83
31694.6
22751.7
38142.3
33525.1
44074.2
42065.1
49410.8
48916.9
54119.8
54453.2
58199.4
58940.2
61678
62584
64610.3
65555.9
67069.7
68004.7
69138.5
70058.8
70895.1
71824.3
72403.5
73382.9
73707.2
74794.4
74830.8
76103.6
75784.9
77347.8
76571.8
78562.3
77190
79781.3
77635.9
81038.5
77902.2
105429
105422
105390
105344
105286
105207
105126
105017
104915
104770
104633
104432
104248
103985
103762
103440
103188
102800
102522
102050
101751
101167
100852
100120
99801.9
98869.3
98570.1
97362.6
97117.9
95528.3
95396.7
93269
93344.6
90450.5
90882.7
86884.9
87910
82305.6
84297.6
76330.7
79882.6
68404.6
74460.2
57706.1
67766.6
42971.7
59402.6
22144.2
48619.5
-8101.67
34077.7
-51194.8
16170.5
-101065
2456.9
-69719.8
7738.39
-35317.1
16940.1
-9488.81
24782.3
8924.91
31694.4
22752.8
38141.9
33525.9
44074
42065.8
49410.7
48917.5
54119.8
54453.7
58199.5
58940.7
61678.3
62584.5
64610.6
65556.5
67070.1
68005.2
69138.9
70059.2
70895.6
71824.7
72403.9
73383.2
73707.7
74794.6
74831.3
76103.7
75785.3
77347.8
76572.3
78562.2
77190.4
79781.2
77636.2
81038.4
77902.5
105431
105423
105391
105345
105287
105208
105127
105017
104915
104770
104633
104432
104249
103985
103762
103440
103188
102800
102523
102050
101751
101167
100852
100120
99802.5
98870
98570.7
97363.5
97118.7
95529.3
95397.5
93270.1
93345.5
90451.9
90883.7
86886.5
87911
82307.5
84298.6
76332.8
79883.5
68407
74460.9
57708.7
67767.1
42974.7
59403.4
22147.9
48621.1
-8098.98
34078.4
-51202.9
16165.1
-101104
2445.59
-69728.9
7735.09
-35315.1
16941.2
-9485.29
24783.1
8927.05
31694.3
22754
38141.6
33526.7
44073.7
42066.5
49410.7
48918.1
54119.8
54454.3
58199.6
58941.2
61678.5
62585
64611
65557
67070.6
68005.7
69139.4
70059.7
70896
71825
72404.4
73383.4
73708.1
74794.8
74831.7
76103.7
75785.8
77347.7
76572.7
78562
77190.8
79781
77636.5
81038.2
77902.7
105432
105424
105392
105346
105288
105209
105128
105018
104916
104770
104634
104433
104249
103986
103763
103440
103188
102800
102523
102051
101751
101168
100853
100121
99803.1
98870.8
98571.4
97364.3
97119.4
95530.3
95398.4
93271.4
93346.4
90453.3
90884.7
86888.2
87912
82309.4
84299.6
76335
79884.4
68409.5
74461.6
57711.4
67767.7
42977.8
59404.3
22151.7
48622.8
-8096.21
34079
-51211.2
16159.6
-101145
2433.91
-69738.3
7731.68
-35313.1
16942.3
-9481.67
24783.9
8929.25
31694.1
22755.1
38141.2
33527.5
44073.5
42067.3
49410.6
48918.8
54119.9
54454.9
58199.8
58941.8
61678.8
62585.6
64611.4
65557.6
67071
68006.2
69139.9
70060.1
70896.5
71825.4
72404.8
73383.7
73708.6
74794.9
74832.2
76103.8
75786.3
77347.7
76573.2
78561.9
77191.2
79780.8
77636.8
81038
77903
105433
105426
105393
105347
105289
105210
105129
105018
104916
104771
104634
104433
104249
103986
103763
103441
103189
102801
102524
102051
101752
101168
100853
100122
99803.7
98871.6
98572.1
97365.2
97120.2
95531.3
95399.2
93272.6
93347.4
90454.8
90885.7
86889.9
87913.1
82311.4
84300.6
76337.3
79885.3
68412
74462.3
57714.1
67768.2
42981
59405.1
22155.6
48624.5
-8093.35
34079.7
-51219.8
16153.8
-101187
2421.85
-69748
7728.13
-35311
16943.4
-9477.96
24784.7
8931.5
31693.9
22756.3
38140.8
33528.4
44073.2
42068.1
49410.5
48919.5
54119.9
54455.5
58200
58942.4
61679.1
62586.2
64611.8
65558.2
67071.5
68006.8
69140.4
70060.6
70897
71825.7
72405.3
73384
73709.1
74795.1
74832.7
76103.8
75786.8
77347.6
76573.6
78561.7
77191.6
79780.7
77637.1
81037.9
77903.2
105435
105427
105394
105348
105290
105210
105129
105019
104917
104771
104634
104433
104250
103986
103763
103441
103189
102801
102524
102052
101752
101169
100854
100122
99804.3
98872.4
98572.8
97366.2
97121
95532.4
95400.1
93273.9
93348.3
90456.3
90886.7
86891.7
87914.2
82313.5
84301.7
76339.6
79886.3
68414.6
74463.1
57717
67768.8
42984.4
59406
22159.7
48626.3
-8090.41
34080.4
-51228.7
16147.9
-101230
2409.41
-69757.9
7724.47
-35308.8
16944.5
-9474.15
24785.6
8933.8
31693.6
22757.6
38140.4
33529.4
44073
42068.9
49410.4
48920.2
54120
54456.2
58200.2
58943
61679.4
62586.9
64612.3
65558.8
67072.1
68007.4
69140.9
70061.1
70897.5
71826.1
72405.8
73384.2
73709.5
74795.2
74833.2
76103.9
75787.3
77347.6
76574.1
78561.6
77192
79780.5
77637.5
81037.7
77903.4
105436
105428
105395
105350
105291
105211
105130
105020
104917
104772
104635
104434
104250
103987
103764
103442
103190
102802
102525
102052
101753
101170
100855
100123
99805
98873.2
98573.6
97367.2
97121.8
95533.6
95401
93275.2
93349.3
90457.8
90887.8
86893.5
87915.3
82315.6
84302.8
76342.1
79887.3
68417.3
74463.9
57720
67769.5
42987.8
59406.9
22163.9
48628.1
-8087.38
34081.1
-51237.8
16141.7
-101275
2396.59
-69768.2
7720.68
-35306.6
16945.6
-9470.26
24786.4
8936.17
31693.4
22758.9
38140
33530.3
44072.7
42069.7
49410.4
48920.9
54120.1
54456.9
58200.4
58943.7
61679.8
62587.5
64612.7
65559.5
67072.6
68007.9
69141.5
70061.6
70898
71826.5
72406.3
73384.5
73710
74795.4
74833.7
76103.9
75787.8
77347.5
76574.6
78561.4
77192.5
79780.3
77637.8
81037.6
77903.7
105437
105430
105397
105351
105293
105212
105131
105020
104918
104772
104635
104434
104250
103987
103764
103442
103190
102802
102525
102053
101754
101170
100855
100124
99805.7
98874.1
98574.4
97368.1
97122.7
95534.7
95402
93276.6
93350.4
90459.4
90888.9
86895.4
87916.5
82317.8
84304
76344.6
79888.4
68420.1
74464.7
57723.1
67770.1
42991.4
59407.9
22168.2
48630
-8084.27
34081.8
-51247.2
16135.4
-101321
2383.4
-69778.7
7716.77
-35304.4
16946.8
-9466.26
24787.2
8938.59
31693.1
22760.2
38139.5
33531.3
44072.5
42070.6
49410.3
48921.7
54120.2
54457.6
58200.6
58944.4
61680.2
62588.2
64613.2
65560.1
67073.1
68008.6
69142
70062.1
70898.5
71826.9
72406.8
73384.8
73710.5
74795.6
74834.2
76104
75788.3
77347.4
76575.1
78561.3
77192.9
79780.1
77638.2
81037.4
77903.9
105439
105431
105398
105352
105294
105213
105132
105021
104919
104772
104636
104434
104251
103987
103764
103442
103190
102803
102526
102053
101754
101171
100856
100125
99806.4
98874.9
98575.1
97369.2
97123.6
95535.9
95403
93278
93351.4
90461.1
90890
86897.3
87917.6
82320.1
84305.1
76347.1
79889.4
68423
74465.5
57726.2
67770.8
42995
59408.9
22172.7
48631.9
-8081.08
34082.5
-51256.8
16128.9
-101368
2369.84
-69789.6
7712.73
-35302.1
16947.9
-9462.18
24788
8941.07
31692.9
22761.6
38139.1
33532.4
44072.2
42071.5
49410.2
48922.6
54120.3
54458.4
58200.9
58945.1
61680.5
62588.9
64613.7
65560.8
67073.7
68009.2
69142.6
70062.6
70899.1
71827.3
72407.3
73385
73711.1
74795.7
74834.7
76104
75788.8
77347.4
76575.6
78561.1
77193.4
79779.9
77638.6
81037.2
77904.2
105440
105432
105399
105353
105295
105214
105133
105022
104919
104773
104636
104435
104251
103988
103765
103443
103191
102803
102526
102054
101755
101171
100857
100125
99807.1
98875.8
98576
97370.2
97124.5
95537.1
95404
93279.4
93352.5
90462.8
90891.2
86899.3
87918.9
82322.4
84306.3
76349.8
79890.5
68425.9
74466.4
57729.5
67771.5
42998.8
59409.9
22177.2
48633.9
-8077.8
34083.3
-51266.8
16122.2
-101416
2355.89
-69800.7
7708.56
-35299.7
16949.1
-9458
24788.8
8943.6
31692.6
22763
38138.7
33533.4
44072
42072.4
49410.2
48923.4
54120.4
54459.1
58201.1
58945.9
61680.9
62589.7
64614.2
65561.6
67074.3
68009.9
69143.2
70063.1
70899.6
71827.7
72407.8
73385.3
73711.6
74795.9
74835.3
76104.1
75789.4
77347.3
76576.2
78560.9
77193.9
79779.7
77639
81037.1
77904.4
105442
105434
105401
105355
105296
105215
105134
105023
104920
104773
104636
104435
104251
103988
103765
103443
103191
102804
102527
102055
101755
101172
100857
100126
99807.9
98876.8
98576.8
97371.3
97125.4
95538.4
95405
93280.9
93353.6
90464.5
90892.4
86901.4
87920.1
82324.8
84307.6
76352.5
79891.7
68429
74467.3
57732.8
67772.2
43002.7
59410.9
22181.9
48635.9
-8074.43
34084
-51277
16115.4
-101466
2341.57
-69812.1
7704.27
-35297.2
16950.3
-9453.73
24789.6
8946.19
31692.3
22764.4
38138.2
33534.5
44071.7
42073.4
49410.1
48924.3
54120.5
54460
58201.4
58946.7
61681.4
62590.4
64614.8
65562.3
67074.9
68010.5
69143.8
70063.7
70900.2
71828.1
72408.4
73385.6
73712.1
74796.1
74835.8
76104.1
75789.9
77347.2
76576.7
78560.8
77194.4
79779.5
77639.4
81036.9
77904.7
105443
105435
105402
105356
105297
105216
105135
105023
104920
104774
104637
104436
104252
103989
103766
103444
103192
102804
102527
102055
101756
101173
100858
100127
99808.7
98877.7
98577.7
97372.4
97126.4
95539.7
95406
93282.4
93354.8
90466.3
90893.6
86903.5
87921.4
82327.2
84308.9
76355.3
79892.8
68432.1