/*--------------------------------*- C++ -*----------------------------------*\
| =========                 |                                                 |
| \\      /  F ield         | OpenFOAM: The Open Source CFD Toolbox           |
|  \\    /   O peration     | Version:  2412                                  |
|   \\  /    A nd           | Website:  www.openfoam.com                      |
|    \\/     M anipulation  |                                                 |
\*---------------------------------------------------------------------------*/
FoamFile
{
    version     2.0;
    format      ascii;
    arch        "LSB;label=32;scalar=64";
    class       surfaceScalarField;
    location    "0.7";
    object      phi;
}
// * * * * * * * * * * * * * * * * * * * * * * * * * * * * * * * * * * * * * //

dimensions      [0 3 -1 0 0 0 0];

oriented        oriented;

internalField   nonuniform List<scalar> 
25905
(
0.00747494
0.000201694
0.00738454
0.000181016
0.0073036
0.000162154
0.00723156
0.000144008
0.00717084
0.000120375
0.007128
8.31599e-05
0.00711244
2.73205e-05
0.00713023
-3.97787e-05
0.00717975
-0.000102842
0.00725199
-0.000147541
0.00733483
-0.000168151
0.00741759
-0.000167624
0.00749334
-0.00015337
0.00755944
-0.000133837
0.00761606
-0.000114635
0.00766495
-9.88898e-05
0.00770755
-8.6045e-05
0.00774531
-7.61233e-05
0.00777868
-6.71532e-05
0.00780854
-5.99903e-05
0.00783497
-5.30591e-05
0.00785883
-4.78989e-05
0.00787984
-4.2295e-05
0.00789911
-3.88672e-05
0.00791589
-3.40115e-05
0.0079315
-3.15292e-05
0.00794475
-2.65478e-05
0.00795736
-2.42784e-05
0.00796749
-1.79782e-05
0.00797761
-1.5349e-05
0.00798492
-6.37312e-06
0.00799288
-2.25337e-06
0.00799744
1.06948e-05
0.00800361
1.5952e-05
0.00800562
3.18793e-05
0.00801052
3.50566e-05
0.00801016
5.04928e-05
0.00801461
4.62617e-05
0.00801236
5.6772e-05
0.00801765
3.86035e-05
0.00801496
3.59248e-05
0.00802378
-7.34812e-06
0.00802341
-3.45126e-05
0.00803875
-0.000109431
0.00804224
-0.000160773
0.00806242
-0.000245666
0.00806247
-0.000256429
0.00806937
-0.000223218
0.00804184
-7.51711e-05
0.00799065
0.000133699
0.00788626
0.000332694
0.0076553
0.000672169
0.00729642
0.000728159
0.00734823
-7.57666e-05
0.00758269
-0.000544859
0.00772958
-0.000334352
0.00780538
-0.000155504
0.00786281
-4.60454e-06
0.00787451
0.000117544
0.00788419
0.000168481
0.00787162
0.000242703
0.00786896
0.000282048
0.00785658
0.000318006
0.00785612
0.000311605
0.00785043
0.000309968
0.00785434
0.000298054
0.00785416
0.000299372
0.00786034
0.000283914
0.00786263
0.000263431
0.0078686
0.000218687
0.00787079
0.000174976
0.0078743
0.000122005
0.00787389
7.88254e-05
0.00787304
3.4109e-05
0.00786841
2.66046e-06
0.0078625
-2.40563e-05
0.00785349
-3.73208e-05
0.00784315
-4.61203e-05
0.0078309
-4.70042e-05
0.00781786
-4.54509e-05
0.0078041
-3.91739e-05
0.00779008
-3.12759e-05
0.00777638
-2.20504e-05
0.00776272
-1.37449e-05
0.00775011
-8.73017e-06
0.00773748
-8.73692e-06
0.00772634
-1.61963e-05
0.00771499
-3.26359e-05
0.00770562
-5.91869e-05
0.00769581
-9.72816e-05
0.00768851
-0.000147702
0.00768103
-0.000210612
0.00767679
-0.000289649
0.00767346
-0.000376108
0.00767413
-0.000488849
0.00767812
-0.000587782
0.00768705
-0.000738982
0.00770242
-0.000817318
-0.00105473
0.00747494
0.000302507
0.00738454
0.000271416
0.0073036
0.000243099
0.00723156
0.000216046
0.00717085
0.000181088
0.007128
0.000126006
0.00711244
4.28795e-05
0.00713022
-5.75562e-05
0.00717973
-0.000152348
0.00725195
-0.000219761
0.00733478
-0.000250986
0.00741755
-0.000250387
0.0074933
-0.00022912
0.00755939
-0.00019993
0.00761601
-0.000171254
0.0076649
-0.000147784
0.0077075
-0.000128647
0.00774527
-0.000113885
0.00777863
-0.000100516
0.00780849
-8.98519e-05
0.00783492
-7.94866e-05
0.00785878
-7.17657e-05
0.0078798
-6.33081e-05
0.00789907
-5.81349e-05
0.00791584
-5.07855e-05
0.00793145
-4.71389e-05
0.00794471
-3.98064e-05
0.00795731
-3.68845e-05
0.00796744
-2.81079e-05
0.00797757
-2.5474e-05
0.00798488
-1.36795e-05
0.00799283
-1.02131e-05
0.0079974
6.13138e-06
0.00800358
9.7741e-06
0.00800559
2.98684e-05
0.00801049
3.01543e-05
0.00801013
5.08539e-05
0.00801458
4.18107e-05
0.00801233
5.9021e-05
0.00801762
3.33148e-05
0.00801492
3.86217e-05
0.00802374
-1.61618e-05
0.00802336
-3.41398e-05
0.0080387
-0.000124771
0.00804218
-0.000164255
0.00806237
-0.000265853
0.00806243
-0.000256489
0.00806934
-0.000230126
0.00804181
-4.76444e-05
0.00799063
0.000184877
0.00788624
0.000437084
0.00765529
0.000903122
0.00729642
0.00108703
0.00734823
-0.000127578
0.00758267
-0.000779297
0.00772954
-0.000481225
0.00780532
-0.000231289
0.00786276
-6.20424e-05
0.00787447
0.000105833
0.00788415
0.000158802
0.00787159
0.000255264
0.00786893
0.000284707
0.00785655
0.000330384
0.00785609
0.000312072
0.0078504
0.000315656
0.00785431
0.000294144
0.00785412
0.000299557
0.00786031
0.000277726
0.0078626
0.000261147
0.00786857
0.000212714
0.00787076
0.000172789
0.00787426
0.000118504
0.00787385
7.92362e-05
0.007873
3.49583e-05
0.00786837
7.2906e-06
0.00786245
-1.81399e-05
0.00785345
-2.83158e-05
0.00784311
-3.57824e-05
0.00783086
-3.4752e-05
0.00781783
-3.24201e-05
0.00780407
-2.54131e-05
0.00779005
-1.72575e-05
0.00777635
-8.35627e-06
0.00776269
-7.7653e-08
0.00775008
3.87823e-06
0.00773745
3.89431e-06
0.0077263
-5.05473e-06
0.00771495
-2.1281e-05
0.00770557
-4.98083e-05
0.00769575
-8.74579e-05
0.00768844
-0.000140394
0.00768094
-0.000203118
0.00767668
-0.000285386
0.00767333
-0.000372761
0.007674
-0.00048951
0.00767797
-0.000591761
0.00768689
-0.000747901
0.00770227
-0.000832696
-0.00108028
0.00747495
0.000403319
0.00738455
0.000361814
0.00730361
0.000324042
0.00723157
0.00028808
0.00717086
0.0002418
0.00712801
0.000168855
0.00711244
5.84496e-05
0.0071302
-7.53145e-05
0.00717968
-0.000201832
0.00725188
-0.000291963
0.00733471
-0.00033381
0.00741747
-0.000333147
0.00749322
-0.000304871
0.00755931
-0.000266025
0.00761593
-0.000227874
0.00766483
-0.000196678
0.00770743
-0.00017125
0.00774519
-0.000151646
0.00777856
-0.000133879
0.00780842
-0.000119714
0.00783485
-0.000105915
0.00785871
-9.56328e-05
0.00787973
-8.43217e-05
0.00789899
-7.74032e-05
0.00791577
-6.75601e-05
0.00793138
-6.27492e-05
0.00794464
-5.30657e-05
0.00795725
-4.94913e-05
0.00796738
-3.82384e-05
0.0079775
-3.56e-05
0.00798481
-2.0987e-05
0.00799277
-1.81742e-05
0.00799734
1.56603e-06
0.00800352
3.59372e-06
0.00800553
2.78547e-05
0.00801044
2.52496e-05
0.00801008
5.12133e-05
0.00801453
3.73592e-05
0.00801228
6.12708e-05
0.00801756
2.80283e-05
0.00801486
4.13222e-05
0.00802367
-2.49707e-05
0.00802329
-3.37613e-05
0.00803863
-0.000140106
0.00804211
-0.000167733
0.0080623
-0.000286041
0.00806236
-0.000256555
0.00806928
-0.000237047
0.00804177
-2.01294e-05
0.0079906
0.000236042
0.00788622
0.000541466
0.00765528
0.00113406
0.00729642
0.00144589
0.00734823
-0.00017939
0.00758265
-0.00101371
0.0077295
-0.000628074
0.00780527
-0.000307058
0.00786271
-0.000119482
0.00787443
9.41115e-05
0.00788411
0.000149117
0.00787155
0.000267823
0.00786889
0.000287366
0.00785652
0.000342762
0.00785605
0.00031254
0.00785036
0.000321345
0.00785427
0.000290235
0.00785408
0.000299741
0.00786027
0.000271537
0.00786256
0.000258863
0.00786853
0.000206741
0.00787071
0.000170604
0.00787421
0.000115006
0.0078738
7.96495e-05
0.00787295
3.58093e-05
0.00786832
1.19213e-05
0.0078624
-1.22242e-05
0.0078534
-1.93128e-05
0.00784307
-2.54474e-05
0.00783082
-2.25028e-05
0.00781779
-1.93921e-05
0.00780403
-1.16544e-05
0.00779001
-3.24054e-06
0.00777632
5.33714e-06
0.00776265
1.35895e-05
0.00775004
1.64874e-05
0.00773741
1.65277e-05
0.00772626
6.09071e-06
0.0077149
-9.9199e-06
0.00770551
-4.04208e-05
0.00769568
-7.76227e-05
0.00768836
-0.000133073
0.00768085
-0.000195608
0.00767657
-0.000281106
0.0076732
-0.000369398
0.00767385
-0.000490153
0.00767781
-0.000595729
0.00768672
-0.000756811
0.0077021
-0.000848078
-0.00110584
0.00747495
0.00050413
0.00738455
0.000452209
0.00730361
0.00040498
0.00723158
0.000360111
0.00717087
0.00030251
0.00712802
0.000211706
0.00711244
7.4031e-05
0.00713018
-9.30512e-05
0.00717963
-0.00025129
0.00725181
-0.000364141
0.00733462
-0.000416621
0.00741738
-0.000415901
0.00749313
-0.000380621
0.00755923
-0.000332122
0.00761585
-0.000284495
0.00766474
-0.000245572
0.00770734
-0.000213851
0.0077451
-0.000189407
0.00777847
-0.000167241
0.00780833
-0.000149575
0.00783476
-0.000132343
0.00785862
-0.0001195
0.00787964
-0.000105336
0.00789891
-9.66719e-05
0.00791568
-8.43352e-05
0.00793129
-7.83601e-05
0.00794455
-6.63255e-05
0.00795716
-6.20986e-05
0.00796729
-4.83695e-05
0.00797742
-4.57267e-05
0.00798473
-2.82956e-05
0.00799269
-2.61367e-05
0.00799726
-3.00126e-06
0.00800344
-2.58915e-06
0.00800545
2.58383e-05
0.00801036
2.03424e-05
0.00801
5.15713e-05
0.00801446
3.29075e-05
0.0080122
6.35219e-05
0.00801749
2.27444e-05
0.00801478
4.4027e-05
0.00802359
-3.37742e-05
0.0080232
-3.33764e-05
0.00803853
-0.000155435
0.00804201
-0.000171208
0.0080622
-0.000306231
0.00806227
-0.000256627
0.0080692
-0.000243981
0.0080417
7.3718e-06
0.00799055
0.00028719
0.00788618
0.000645837
0.00765526
0.00136499
0.00729644
0.00180471
0.00734824
-0.000231199
0.00758263
-0.00124809
0.00772945
-0.000774897
0.0078052
-0.000382808
0.00786264
-0.000176923
0.00787437
8.23829e-05
0.00788406
0.000139426
0.0078715
0.000280382
0.00786884
0.000290025
0.00785647
0.000355139
0.007856
0.000313007
0.00785031
0.000327035
0.00785422
0.000286328
0.00785403
0.000299925
0.00786022
0.000265346
0.00786251
0.000256578
0.00786848
0.00020077
0.00787066
0.000168421
0.00787416
0.000111511
0.00787374
8.0065e-05
0.00787289
3.66618e-05
0.00786826
1.65526e-05
0.00786235
-6.30937e-06
0.00785334
-1.03118e-05
0.00784301
-1.51151e-05
0.00783077
-1.02566e-05
0.00781774
-6.36652e-06
0.00780398
2.10246e-06
0.00778997
1.07753e-05
0.00777627
1.903e-05
0.00776261
2.72568e-05
0.00775
2.90975e-05
0.00773736
2.91633e-05
0.00772621
1.72402e-05
0.00771484
1.44762e-06
0.00770545
-3.10244e-05
0.0076956
-6.77758e-05
0.00768826
-0.000125737
0.00768074
-0.000188082
0.00767644
-0.000276807
0.00767306
-0.000366017
0.00767368
-0.000490779
0.00767764
-0.000599685
0.00768654
-0.000765708
0.00770192
-0.000863461
-0.00113142
0.00747495
0.00060494
0.00738456
0.000542601
0.00730362
0.000485914
0.0072316
0.000432137
0.00717089
0.000363216
0.00712804
0.000254558
0.00711244
8.9624e-05
0.00713016
-0.000110764
0.00717959
-0.000300718
0.00725174
-0.000436294
0.00733453
-0.000499414
0.00741728
-0.000498649
0.00749303
-0.000456371
0.00755913
-0.000398218
0.00761575
-0.000341116
0.00766464
-0.000294465
0.00770724
-0.000256452
0.007745
-0.000227167
0.00777836
-0.000200602
0.00780822
-0.000179436
0.00783465
-0.00015877
0.00785852
-0.000143367
0.00787953
-0.00012635
0.0078988
-0.000115941
0.00791557
-0.000101111
0.00793119
-9.39712e-05
0.00794445
-7.95856e-05
0.00795705
-7.47064e-05
0.00796719
-5.85012e-05
0.00797731
-5.58542e-05
0.00798462
-3.56051e-05
0.00799259
-3.41007e-05
0.00799716
-7.57038e-06
0.00800334
-8.77438e-06
0.00800536
2.38194e-05
0.00801027
1.54331e-05
0.00800991
5.19281e-05
0.00801436
2.84558e-05
0.00801211
6.57746e-05
0.00801739
1.74635e-05
0.00801468
4.67368e-05
0.00802348
-4.25719e-05
0.00802309
-3.29845e-05
0.00803841
-0.000170759
0.00804188
-0.00017468
0.00806208
-0.000326423
0.00806216
-0.000256707
0.00806911
-0.000250931
0.00804162
3.48572e-05
0.00799049
0.000338316
0.00788614
0.00075019
0.00765524
0.00159589
0.00729645
0.0021635
0.00734826
-0.000283004
0.00758261
-0.00148244
0.0077294
-0.00092169
0.00780513
-0.000458536
0.00786257
-0.000234361
0.0078743
7.06482e-05
0.007884
0.000129731
0.00787144
0.000292939
0.00786878
0.000292682
0.0078564
0.000367515
0.00785594
0.000313473
0.00785025
0.000332727
0.00785415
0.000282421
0.00785397
0.000300109
0.00786016
0.000259153
0.00786245
0.000254292
0.00786842
0.000194798
0.0078706
0.00016624
0.0078741
0.000108017
0.00787368
8.04824e-05
0.00787282
3.75157e-05
0.00786819
2.11843e-05
0.00786228
-3.95193e-07
0.00785328
-1.31255e-06
0.00784295
-4.78526e-06
0.00783071
1.98712e-06
0.00781768
6.65685e-06
0.00780393
1.58578e-05
0.00778991
2.47904e-05
0.00777622
3.27226e-05
0.00776255
4.09244e-05
0.00774994
4.17086e-05
0.0077373
4.18012e-05
0.00772615
2.83937e-05
0.00771478
1.28216e-05
0.00770537
-2.16189e-05
0.00769551
-5.7917e-05
0.00768816
-0.000118386
0.00768062
-0.000180539
0.0076763
-0.000272489
0.0076729
-0.000362618
0.00767351
-0.000491385
0.00767745
-0.000603627
0.00768633
-0.000774593
0.00770172
-0.000878846
-0.00115701
0.00747495
0.000705749
0.00738456
0.00063299
0.00730363
0.000566843
0.00723161
0.000504158
0.00717091
0.000423917
0.00712806
0.00029741
0.00711245
0.000105228
0.00713014
-0.000128452
0.00717954
-0.000350114
0.00725166
-0.000508417
0.00733443
-0.000582188
0.00741717
-0.000581387
0.00749292
-0.000532117
0.00755901
-0.000464315
0.00761563
-0.000397736
0.00766452
-0.000343356
0.00770712
-0.000299049
0.00774488
-0.000264924
0.00777824
-0.000233962
0.0078081
-0.000209296
0.00783453
-0.000185197
0.00785839
-0.000167234
0.00787941
-0.000147363
0.00789867
-0.000135209
0.00791545
-0.000117886
0.00793106
-0.000109583
0.00794432
-9.28461e-05
0.00795693
-8.73146e-05
0.00796706
-6.86334e-05
0.00797719
-6.59823e-05
0.0079845
-4.29155e-05
0.00799247
-4.20658e-05
0.00799704
-1.21412e-05
0.00800322
-1.49619e-05
0.00800525
2.17981e-05
0.00801016
1.05217e-05
0.0080098
5.2284e-05
0.00801425
2.40043e-05
0.008012
6.80294e-05
0.00801728
1.2186e-05
0.00801456
4.9452e-05
0.00802335
-5.13631e-05
0.00802295
-3.25849e-05
0.00803827
-0.000186077
0.00804174
-0.000178147
0.00806193
-0.000346618
0.00806202
-0.000256795
0.00806899
-0.000257898
0.00804152
6.23245e-05
0.00799042
0.000389418
0.00788609
0.000854522
0.00765522
0.00182676
0.00729647
0.00252224
0.00734827
-0.000334804
0.00758258
-0.00171675
0.00772934
-0.00106845
0.00780505
-0.000534238
0.00786248
-0.000291795
0.00787422
5.89091e-05
0.00788392
0.000120033
0.00787136
0.000305497
0.0078687
0.00029534
0.00785633
0.000379889
0.00785586
0.000313938
0.00785017
0.000338418
0.00785408
0.000278515
0.0078539
0.000300291
0.00786009
0.000252958
0.00786238
0.000252004
0.00786835
0.000188827
0.00787053
0.00016406
0.00787402
0.000104525
0.00787361
8.09017e-05
0.00787275
3.8371e-05
0.00786812
2.58166e-05
0.0078622
5.5183e-06
0.00785321
7.685e-06
0.00784288
5.54229e-06
0.00783064
1.42285e-05
0.00781762
1.96784e-05
0.00780386
2.96119e-05
0.00778985
3.88049e-05
0.00777616
4.64152e-05
0.00776249
5.45924e-05
0.00774987
5.43208e-05
0.00773723
5.44415e-05
0.00772608
3.95513e-05
0.0077147
2.42022e-05
0.00770528
-1.22043e-05
0.00769541
-4.80459e-05
0.00768804
-0.000111021
0.00768048
-0.000172978
0.00767615
-0.000268152
0.00767273
-0.0003592
0.00767331
-0.00049197
0.00767724
-0.000607555
0.00768611
-0.000783464
0.0077015
-0.000894229
-0.0011826
0.00747495
0.000806556
0.00738457
0.000723374
0.00730364
0.000647766
0.00723163
0.000576172
0.00717093
0.000484613
0.00712808
0.000340262
0.00711247
0.000120844
0.00713013
-0.000146113
0.00717949
-0.000399473
0.00725158
-0.000580507
0.00733433
-0.000664939
0.00741706
-0.000664114
0.0074928
-0.00060786
0.00755889
-0.000530409
0.00761551
-0.000454353
0.0076644
-0.000392243
0.00770699
-0.000341643
0.00774474
-0.000302679
0.0077781
-0.000267319
0.00780796
-0.000239154
0.00783439
-0.000211622
0.00785825
-0.0001911
0.00787926
-0.000168376
0.00789853
-0.000154478
0.00791531
-0.000134661
0.00793092
-0.000125194
0.00794418
-0.000106107
0.00795679
-9.9923e-05
0.00796692
-7.87658e-05
0.00797705
-7.61109e-05
0.00798436
-5.02267e-05
0.00799233
-5.00322e-05
0.0079969
-1.67137e-05
0.00800309
-2.11516e-05
0.00800511
1.97747e-05
0.00801003
5.60835e-06
0.00800967
5.26391e-05
0.00801412
1.95533e-05
0.00801186
7.02866e-05
0.00801714
6.91232e-06
0.00801442
5.21734e-05
0.0080232
-6.01474e-05
0.00802279
-3.21767e-05
0.0080381
-0.000201388
0.00804157
-0.00018161
0.00806177
-0.000366816
0.00806186
-0.000256891
0.00806885
-0.000264884
0.0080414
8.97719e-05
0.00799033
0.00044049
0.00788602
0.000958828
0.00765519
0.00205759
0.0072965
0.00288094
0.00734829
-0.000386596
0.00758256
-0.00195102
0.00772928
-0.00121518
0.00780496
-0.000609912
0.00786239
-0.000349223
0.00787413
4.7167e-05
0.00788383
0.000110331
0.00787127
0.000318055
0.00786861
0.000297996
0.00785624
0.000392261
0.00785578
0.000314402
0.00785009
0.000344109
0.00785399
0.000274609
0.00785381
0.000300471
0.00786001
0.00024676
0.0078623
0.000249714
0.00786827
0.000182854
0.00787045
0.00016188
0.00787394
0.000101035
0.00787352
8.13227e-05
0.00787267
3.92276e-05
0.00786803
3.04493e-05
0.00786212
1.14312e-05
0.00785313
1.66811e-05
0.0078428
1.58679e-05
0.00783056
2.6468e-05
0.00781754
3.26984e-05
0.00780379
4.33651e-05
0.00778977
5.28191e-05
0.00777608
6.01079e-05
0.00776241
6.8261e-05
0.0077498
6.69343e-05
0.00773716
6.70843e-05
0.00772599
5.07132e-05
0.00771461
3.55894e-05
0.00770518
-2.78031e-06
0.0076953
-3.81624e-05
0.00768792
-0.00010364
0.00768034
-0.0001654
0.00767598
-0.000263795
0.00767254
-0.000355762
0.00767311
-0.000492535
0.00767702
-0.000611466
0.00768587
-0.000792319
0.00770126
-0.000909611
-0.00120821
0.00747495
0.000907361
0.00738457
0.000813753
0.00730366
0.000728683
0.00723165
0.000648179
0.00717096
0.000545302
0.00712811
0.000383112
0.00711248
0.000136471
0.00713012
-0.000163746
0.00717944
-0.000448794
0.00725149
-0.00065256
0.00733422
-0.000747665
0.00741693
-0.000746828
0.00749267
-0.000683597
0.00755876
-0.0005965
0.00761537
-0.000510966
0.00766426
-0.000441126
0.00770685
-0.000384233
0.0077446
-0.000340429
0.00777795
-0.000300673
0.00780781
-0.00026901
0.00783423
-0.000238046
0.00785809
-0.000214964
0.00787911
-0.000189388
0.00789837
-0.000173746
0.00791515
-0.000151436
0.00793076
-0.000140805
0.00794402
-0.000119367
0.00795663
-0.000112531
0.00796676
-8.88985e-05
0.00797689
-8.624e-05
0.0079842
-5.75384e-05
0.00799217
-5.79997e-05
0.00799674
-2.12877e-05
0.00800294
-2.73434e-05
0.00800496
1.77491e-05
0.00800988
6.93152e-07
0.00800952
5.29937e-05
0.00801397
1.5103e-05
0.00801171
7.25467e-05
0.00801698
1.64283e-06
0.00801425
5.49016e-05
0.00802303
-6.89241e-05
0.00802261
-3.17595e-05
0.00803792
-0.000216692
0.00804137
-0.000185068
0.00806158
-0.000387017
0.00806168
-0.000256997
0.00806869
-0.000271891
0.00804126
0.000117197
0.00799022
0.000491531
0.00788595
0.0010631
0.00765517
0.00228837
0.00729653
0.00323958
0.00734831
-0.00043838
0.00758253
-0.00218523
0.00772922
-0.00136187
0.00780486
-0.000685555
0.00786228
-0.000406643
0.00787402
3.54238e-05
0.00788373
0.000100629
0.00787117
0.000330614
0.00786851
0.000300652
0.00785614
0.000404631
0.00785568
0.000314864
0.00784999
0.0003498
0.0078539
0.000270701
0.00785372
0.000300649
0.00785992
0.000240559
0.00786221
0.00024742
0.00786819
0.00017688
0.00787037
0.000159701
0.00787386
9.75458e-05
0.00787343
8.17452e-05
0.00787258
4.00853e-05
0.00786794
3.50826e-05
0.00786203
1.73436e-05
0.00785304
2.56758e-05
0.00784271
2.61916e-05
0.00783047
3.87058e-05
0.00781746
4.57172e-05
0.0078037
5.71178e-05
0.00778969
6.68333e-05
0.00777599
7.3801e-05
0.00776233
8.19304e-05
0.00774971
7.95492e-05
0.00773707
7.97297e-05
0.0077259
6.18793e-05
0.0077145
4.69833e-05
0.00770507
6.65307e-06
0.00769518
-2.82663e-05
0.00768778
-9.62436e-05
0.00768018
-0.000157804
0.0076758
-0.000259417
0.00767235
-0.000352303
0.00767289
-0.000493078
0.00767678
-0.00061536
0.00768562
-0.000801158
0.007701
-0.000924988
-0.00123382
0.00747495
0.00100816
0.00738458
0.000904127
0.00730367
0.000809592
0.00723167
0.000720179
0.00717099
0.000605983
0.00712814
0.000425958
0.00711251
0.000152109
0.00713011
-0.000181347
0.00717939
-0.000498072
0.0072514
-0.000724573
0.0073341
-0.000830363
0.0074168
-0.000829527
0.00749253
-0.000759328
0.00755862
-0.000662587
0.00761522
-0.000567575
0.0076641
-0.000490003
0.00770669
-0.000426817
0.00774443
-0.000378175
0.00777778
-0.000334024
0.00780763
-0.000298862
0.00783406
-0.000264467
0.00785792
-0.000238827
0.00787893
-0.000210399
0.0078982
-0.000193013
0.00791497
-0.00016821
0.00793058
-0.000156416
0.00794384
-0.000132627
0.00795645
-0.00012514
0.00796658
-9.90312e-05
0.00797671
-9.63693e-05
0.00798402
-6.48507e-05
0.00799199
-6.59682e-05
0.00799657
-2.5863e-05
0.00800276
-3.35372e-05
0.00800479
1.57216e-05
0.00800971
-4.22371e-06
0.00800935
5.33481e-05
0.0080138
1.06536e-05
0.00801154
7.481e-05
0.0080168
-3.62209e-06
0.00801407
5.7637e-05
0.00802284
-7.76928e-05
0.00802241
-3.13325e-05
0.00803771
-0.00023199
0.00804116
-0.000188521
0.00806136
-0.000407222
0.00806148
-0.000257114
0.00806851
-0.000278921
0.00804111
0.000144598
0.00799011
0.000542535
0.00788587
0.00116734
0.00765514
0.0025191
0.00729656
0.00359815
0.00734834
-0.000490153
0.0075825
-0.00241939
0.00772915
-0.00150853
0.00780476
-0.000761164
0.00786217
-0.000464052
0.00787391
2.36809e-05
0.00788361
9.09252e-05
0.00787105
0.000343175
0.0078684
0.000303307
0.00785603
0.000416998
0.00785557
0.000315324
0.00784988
0.00035549
0.00785379
0.000266793
0.00785361
0.000300825
0.00785982
0.000234353
0.00786211
0.000245124
0.00786809
0.000170905
0.00787027
0.000157523
0.00787376
9.40575e-05
0.00787333
8.2169e-05
0.00787248
4.09442e-05
0.00786784
3.97164e-05
0.00786193
2.32557e-05
0.00785294
3.46694e-05
0.00784261
3.65139e-05
0.00783038
5.09422e-05
0.00781736
5.87351e-05
0.00780361
7.08702e-05
0.00778959
8.08477e-05
0.0077759
8.74947e-05
0.00776223
9.56007e-05
0.00774961
9.21655e-05
0.00773696
9.23776e-05
0.00772579
7.30498e-05
0.00771439
5.83841e-05
0.00770495
1.6096e-05
0.00769504
-1.83573e-05
0.00768763
-8.88315e-05
0.00768001
-0.000150188
0.00767561
-0.000255019
0.00767213
-0.000348822
0.00767265
-0.000493597
0.00767653
-0.000619236
0.00768535
-0.00080998
0.00770072
-0.000940361
-0.00125944
0.00747496
0.00110896
0.00738459
0.000994495
0.00730369
0.000890493
0.0072317
0.000792169
0.00717103
0.000666656
0.00712818
0.000468801
0.00711253
0.000167759
0.0071301
-0.000198917
0.00717934
-0.000547304
0.0072513
-0.000796542
0.00733397
-0.00091303
0.00741665
-0.00091221
0.00749238
-0.000835052
0.00755846
-0.00072867
0.00761506
-0.000624178
0.00766393
-0.000538874
0.00770651
-0.000469395
0.00774425
-0.000415915
0.0077776
-0.000367369
0.00780745
-0.000328711
0.00783387
-0.000290886
0.00785773
-0.000262688
0.00787874
-0.000231409
0.007898
-0.000212278
0.00791477
-0.000184983
0.00793039
-0.000172026
0.00794364
-0.000145887
0.00795625
-0.000137748
0.00796639
-0.000109164
0.00797652
-0.000106499
0.00798383
-7.21634e-05
0.0079918
-7.39376e-05
0.00799637
-3.04397e-05
0.00800257
-3.97329e-05
0.0080046
1.36924e-05
0.00800952
-9.1421e-06
0.00800916
5.37025e-05
0.00801361
6.20547e-06
0.00801134
7.70769e-05
0.0080166
-8.88199e-06
0.00801386
6.03804e-05
0.00802262
-8.64528e-05
0.00802218
-3.0895e-05
0.00803747
-0.000247279
0.00804092
-0.000191969
0.00806113
-0.000427431
0.00806126
-0.000257241
0.00806831
-0.000285974
0.00804094
0.000171973
0.00798997
0.000593499
0.00788578
0.00127154
0.00765511
0.00274977
0.0072966
0.00395665
0.00734836
-0.000541914
0.00758246
-0.00265349
0.00772907
-0.00165514
0.00780465
-0.000836736
0.00786204
-0.000521449
0.00787378
1.19402e-05
0.00788349
8.12223e-05
0.00787092
0.000355738
0.00786827
0.000305961
0.00785591
0.000429363
0.00785545
0.00031578
0.00784976
0.000361179
0.00785367
0.000262884
0.0078535
0.000300998
0.00785971
0.000228143
0.00786201
0.000242823
0.00786798
0.000164927
0.00787016
0.000155343
0.00787365
9.05698e-05
0.00787323
8.25941e-05
0.00787237
4.18041e-05
0.00786773
4.43507e-05
0.00786182
2.91672e-05
0.00785283
4.36619e-05
0.00784251
4.68349e-05
0.00783027
6.31777e-05
0.00781725
7.17524e-05
0.0078035
8.46227e-05
0.00778949
9.48626e-05
0.00777579
0.000101189
0.00776212
0.000109272
0.0077495
0.000104783
0.00773685
0.000105028
0.00772568
8.42247e-05
0.00771427
6.97918e-05
0.00770482
2.55485e-05
0.00769489
-8.43526e-06
0.00768747
-8.14035e-05
0.00767983
-0.000142554
0.00767541
-0.000250598
0.00767191
-0.000345318
0.0076724
-0.000494093
0.00767626
-0.000623091
0.00768506
-0.000818782
0.00770043
-0.000955728
-0.00128506
0.00747496
0.00120976
0.0073846
0.00108486
0.00730371
0.000971385
0.00723173
0.00086415
0.00717106
0.000727318
0.00712823
0.000511638
0.00711257
0.000183419
0.0071301
-0.000216452
0.00717928
-0.000596488
0.00725121
-0.000868464
0.00733384
-0.000995664
0.0074165
-0.000994874
0.00749222
-0.000910766
0.00755829
-0.000794746
0.00761489
-0.000680774
0.00766375
-0.000587737
0.00770632
-0.000511965
0.00774406
-0.000453649
0.0077774
-0.00040071
0.00780724
-0.000358556
0.00783366
-0.000317301
0.00785752
-0.000286546
0.00787852
-0.000252416
0.00789779
-0.000231543
0.00791456
-0.000201756
0.00793017
-0.000187635
0.00794343
-0.000159146
0.00795604
-0.000150356
0.00796617
-0.000119296
0.0079763
-0.000116629
0.00798361
-7.94763e-05
0.00799158
-8.19078e-05
0.00799616
-3.50174e-05
0.00800236
-4.59304e-05
0.00800439
1.16615e-05
0.00800931
-1.40619e-05
0.00800895
5.40571e-05
0.0080134
1.75877e-06
0.00801113
7.93478e-05
0.00801638
-1.41365e-05
0.00801363
6.31323e-05
0.00802238
-9.52038e-05
0.00802194
-3.04464e-05
0.00803722
-0.000262561
0.00804066
-0.000195412
0.00806087
-0.000447645
0.00806101
-0.00025738
0.00806809
-0.000293053
0.00804075
0.00019932
0.00798982
0.000644419
0.00788567
0.00137569
0.00765507
0.00298037
0.00729665
0.00431507
0.00734839
-0.000593661
0.00758243
-0.00288752
0.007729
-0.00180171
0.00780453
-0.000912267
0.00786191
-0.000578831
0.00787365
2.03261e-07
0.00788335
7.15208e-05
0.00787078
0.000368303
0.00786813
0.000308614
0.00785577
0.000441725
0.00785531
0.000316234
0.00784963
0.000366867
0.00785354
0.000258973
0.00785337
0.000301168
0.00785958
0.000221929
0.00786189
0.000240518
0.00786787
0.000158947
0.00787005
0.000153163
0.00787354
8.70824e-05
0.00787311
8.30201e-05
0.00787225
4.2665e-05
0.00786761
4.89855e-05
0.0078617
3.50786e-05
0.00785271
5.26538e-05
0.00784239
5.71548e-05
0.00783016
7.54124e-05
0.00781714
8.47696e-05
0.00780339
9.83755e-05
0.00778937
0.000108878
0.00777568
0.000114885
0.007762
0.000122945
0.00774938
0.000117403
0.00773673
0.000117682
0.00772555
9.5404e-05
0.00771414
8.12065e-05
0.00770467
3.50108e-05
0.00769474
1.50015e-06
0.00768729
-7.39591e-05
0.00767964
-0.000134899
0.0076752
-0.000246156
0.00767167
-0.00034179
0.00767214
-0.000494564
0.00767597
-0.000626925
0.00768476
-0.000827565
0.00770012
-0.000971088
-0.00131069
0.00747496
0.00131056
0.00738461
0.00117521
0.00730373
0.00105227
0.00723176
0.000936121
0.0071711
0.000787969
0.00712827
0.00055447
0.0071126
0.000199091
0.0071301
-0.000233952
0.00717923
-0.000645619
0.0072511
-0.000940335
0.0073337
-0.00107826
0.00741634
-0.00107752
0.00749205
-0.00098647
0.00755812
-0.000860815
0.00761471
-0.000737363
0.00766356
-0.000636592
0.00770612
-0.000554527
0.00774385
-0.000491376
0.00777718
-0.000434045
0.00780702
-0.000388397
0.00783344
-0.000343713
0.00785729
-0.000310401
0.0078783
-0.000273421
0.00789756
-0.000250805
0.00791433
-0.000218527
0.00792994
-0.000203244
0.0079432
-0.000172404
0.0079558
-0.000162963
0.00796594
-0.000129428
0.00797607
-0.000126758
0.00798338
-8.67894e-05
0.00799135
-8.98788e-05
0.00799593
-3.95962e-05
0.00800213
-5.21297e-05
0.00800416
9.62921e-06
0.00800908
-1.89829e-05
0.00800873
5.44123e-05
0.00801317
-2.68629e-06
0.0080109
8.16232e-05
0.00801614
-1.93852e-05
0.00801338
6.58934e-05
0.00802213
-0.000103945
0.00802166
-2.9986e-05
0.00803694
-0.000277835
0.00804038
-0.000198849
0.00806059
-0.000467863
0.00806075
-0.000257531
0.00806785
-0.00030016
0.00804054
0.000226636
0.00798966
0.000695292
0.00788556
0.00147979
0.00765503
0.0032109
0.0072967
0.00467341
0.00734843
-0.000645393
0.00758239
-0.00312148
0.00772891
-0.00194823
0.0078044
-0.000987756
0.00786177
-0.000636197
0.0078735
-1.15281e-05
0.0078832
6.1822e-05
0.00787063
0.000380872
0.00786798
0.000311266
0.00785562
0.000454083
0.00785517
0.000316683
0.00784948
0.000372552
0.0078534
0.00025506
0.00785323
0.000301334
0.00785945
0.000215708
0.00786176
0.000238209
0.00786774
0.000152963
0.00786992
0.000150982
0.00787341
8.35951e-05
0.00787298
8.34471e-05
0.00787212
4.35268e-05
0.00786749
5.3621e-05
0.00786158
4.09898e-05
0.00785259
6.16449e-05
0.00784227
6.7474e-05
0.00783003
8.76467e-05
0.00781702
9.77868e-05
0.00780326
0.000112129
0.00778924
0.000122895
0.00777555
0.000128582
0.00776187
0.000136619
0.00774925
0.000130025
0.0077366
0.000130338
0.00772541
0.000106588
0.00771399
9.26283e-05
0.00770452
4.4483e-05
0.00769457
1.14491e-05
0.00768711
-6.6498e-05
0.00767943
-0.000127224
0.00767497
-0.000241691
0.00767142
-0.000338238
0.00767186
-0.00049501
0.00767567
-0.000630737
0.00768443
-0.000836326
0.00769978
-0.000986438
-0.00133632
0.00747497
0.00141135
0.00738462
0.00126556
0.00730375
0.00113314
0.00723179
0.00100808
0.00717115
0.000848608
0.00712833
0.000597294
0.00711264
0.000214773
0.0071301
-0.000251413
0.00717918
-0.000694694
0.007251
-0.00101215
0.00733355
-0.00116082
0.00741618
-0.00116014
0.00749187
-0.00106216
0.00755793
-0.000926876
0.00761451
-0.000793942
0.00766335
-0.000685436
0.00770591
-0.000597079
0.00774363
-0.000529094
0.00777695
-0.000467373
0.00780679
-0.000418232
0.0078332
-0.00037012
0.00785705
-0.000334254
0.00787805
-0.000294424
0.00789731
-0.000270066
0.00791408
-0.000235296
0.00792969
-0.000218851
0.00794295
-0.000185662
0.00795555
-0.00017557
0.00796568
-0.00013956
0.00797581
-0.000136888
0.00798313
-9.41026e-05
0.0079911
-9.78504e-05
0.00799568
-4.41759e-05
0.00800188
-5.83305e-05
0.00800391
7.59565e-06
0.00800883
-2.39051e-05
0.00800848
5.47681e-05
0.00801292
-7.12938e-06
0.00801064
8.39035e-05
0.00801588
-2.46277e-05
0.00801311
6.86642e-05
0.00802184
-0.000112676
0.00802137
-2.95131e-05
0.00803664
-0.0002931
0.00804007
-0.00020228
0.00806029
-0.000488088
0.00806046
-0.000257695
0.00806759
-0.000307297
0.00804031
0.000253919
0.00798949
0.000746114
0.00788544
0.00158383
0.007655
0.00344135
0.00729675
0.00503165
0.00734847
-0.000697106
0.00758235
-0.00335537
0.00772883
-0.0020947
0.00780427
-0.0010632
0.00786161
-0.000693543
0.00787334
-2.32523e-05
0.00788303
5.21268e-05
0.00787046
0.000393444
0.00786781
0.000313917
0.00785545
0.000466437
0.00785501
0.000317129
0.00784933
0.000378235
0.00785324
0.000251144
0.00785308
0.000301497
0.00785931
0.000209482