/*--------------------------------*- C++ -*----------------------------------*\
| =========                 |                                                 |
| \\      /  F ield         | OpenFOAM: The Open Source CFD Toolbox           |
|  \\    /   O peration     | Version:  2412                                  |
|   \\  /    A nd           | Website:  www.openfoam.com                      |
|    \\/     M anipulation  |                                                 |
\*---------------------------------------------------------------------------*/
FoamFile
{
    version     2.0;
    format      ascii;
    arch        "LSB;label=32;scalar=64";
    class       volVectorField;
    location    "0.7";
    object      U;
}
// * * * * * * * * * * * * * * * * * * * * * * * * * * * * * * * * * * * * * //

dimensions      [0 1 -1 0 0 0 0];

internalField   nonuniform List<vector> 
13068
(
(100.007 -0.00589806 0)
(100.153 -0.0167485 -7.04458e-19)
(100.466 -0.0268765 -3.42814e-19)
(100.899 -0.0368736 0)
(101.497 -0.0498623 0)
(102.295 -0.0699517 0)
(103.466 -0.0996624 -7.99083e-19)
(105.14 -0.135409 5.0457e-19)
(107.413 -0.169736 0)
(110.192 -0.195443 4.85666e-19)
(113.355 -0.209666 -2.44874e-19)
(116.687 -0.213601 -2.48817e-19)
(120.098 -0.210856 -5.05626e-19)
(123.46 -0.205448 0)
(126.827 -0.200215 0)
(130.136 -0.196686 0)
(133.524 -0.194763 0)
(136.893 -0.194258 -4.77949e-19)
(140.413 -0.194456 -2.31933e-19)
(143.922 -0.195557 2.24307e-19)
(147.649 -0.197047 6.51561e-19)
(151.352 -0.199478 -6.28816e-19)
(155.359 -0.202113 2.0282e-19)
(159.313 -0.205734 0)
(163.678 -0.20923 1.88845e-19)
(167.938 -0.21375 -3.62551e-19)
(172.75 -0.217681 -1.75082e-19)
(177.373 -0.222727 -3.34593e-19)
(182.738 -0.226574 -3.22786e-19)
(187.786 -0.231701 3.06472e-19)
(193.836 -0.23481 -1.47696e-19)
(199.376 -0.239465 -1.3901e-19)
(206.281 -0.241269 0)
(212.395 -0.245622 0)
(220.377 -0.247082 2.40204e-19)
(227.163 -0.253374 -1.09723e-19)
(236.525 -0.257355 0)
(244.111 -0.268999 2.8373e-19)
(255.268 -0.279237 1.84632e-19)
(263.832 -0.30068 2.37236e-19)
(277.38 -0.32338 -2.3566e-19)
(287.215 -0.362101 -6.33127e-20)
(304.028 -0.405973 0)
(315.612 -0.467131 0)
(336.909 -0.534072 -1.05377e-19)
(350.898 -0.604891 0)
(378.078 -0.655388 -1.22819e-19)
(395.053 -0.654306 -1.4252e-20)
(429.035 -0.611938 0)
(449.315 -0.507579 0)
(489.084 -0.445154 -3.65202e-20)
(512.436 -0.29163 0)
(546.551 -0.388086 9.15714e-21)
(569.06 0.0150075 1.38312e-20)
(547.393 0.147446 6.83373e-21)
(538.271 0.268648 0)
(506.296 0.334349 0)
(492.306 0.415335 -5.86418e-20)
(463.018 0.456268 9.73374e-21)
(447.662 0.476331 -5.95741e-21)
(422.474 0.496908 0)
(408.114 0.51421 -1.93822e-20)
(387.454 0.517695 -2.44314e-20)
(374.77 0.507124 0)
(357.988 0.490738 0)
(346.863 0.477066 9.06544e-20)
(333.069 0.465398 0)
(323.197 0.449387 0)
(311.618 0.425291 0)
(302.741 0.390203 1.01533e-19)
(292.805 0.35241 -1.15856e-19)
(284.725 0.311774 1.80648e-19)
(276.008 0.275286 0)
(268.572 0.239965 0)
(260.768 0.211905 1.49877e-19)
(253.878 0.18848 -1.57117e-19)
(246.797 0.173083 8.37558e-20)
(240.413 0.161669 0)
(233.949 0.155267 1.85374e-19)
(228.065 0.151262 9.68952e-20)
(222.154 0.150318 -2.02822e-19)
(216.776 0.151016 0)
(211.366 0.152743 1.09688e-19)
(206.492 0.154208 -3.41641e-19)
(201.522 0.153788 0)
(197.14 0.15022 3.6583e-19)
(192.536 0.142052 -3.76152e-19)
(188.63 0.128155 -2.60381e-19)
(184.313 0.107996 0)
(180.879 0.080239 0)
(176.77 0.0448697 -4.26158e-19)
(173.826 0.00142253 1.48758e-19)
(169.857 -0.0522487 0)
(167.451 -0.110246 1.59784e-19)
(163.57 -0.1856 -1.61834e-19)
(161.781 -0.250401 5.17118e-19)
(157.955 -0.350426 3.46398e-19)
(156.902 -0.400227 -1.86379e-19)
(153.08 -0.554729 0)
(100.007 -0.00985952 0)
(100.153 -0.0280085 2.11323e-18)
(100.466 -0.0449097 0)
(100.899 -0.0614258 0)
(101.497 -0.0826389 -1.23633e-18)
(102.295 -0.115469 0)
(103.467 -0.16443 5.32712e-19)
(105.139 -0.223821 -5.04562e-19)
(107.412 -0.281207 0)
(110.191 -0.324372 -4.85645e-19)
(113.354 -0.348348 0)
(116.686 -0.355072 0)
(120.097 -0.350597 5.05599e-19)
(123.459 -0.34168 0)
(126.826 -0.33307 0)
(130.136 -0.327319 0)
(133.523 -0.324231 0)
(136.892 -0.323496 4.77938e-19)
(140.413 -0.323901 0)
(143.921 -0.325807 -4.48604e-19)
(147.648 -0.32832 -4.34365e-19)
(151.351 -0.332387 4.19202e-19)
(155.358 -0.336733 8.11266e-19)
(159.312 -0.34274 0)
(163.677 -0.348509 3.77683e-19)
(167.937 -0.356111 3.62545e-19)
(172.749 -0.362785 3.50158e-19)
(177.372 -0.371625 1.00376e-18)
(182.737 -0.378637 9.68342e-19)
(187.785 -0.388349 3.06468e-19)
(193.835 -0.395019 0)
(199.375 -0.405198 0)
(206.28 -0.410951 0)
(212.394 -0.421996 4.98091e-19)
(220.376 -0.427824 2.40201e-19)
(227.162 -0.442317 -4.38886e-19)
(236.524 -0.451152 0)
(244.11 -0.472976 -1.89151e-19)
(255.267 -0.488758 -1.84629e-19)
(263.831 -0.523123 -1.58156e-19)
(277.378 -0.552622 1.57104e-19)
(287.213 -0.6081 1.26623e-19)
(304.026 -0.660839 -2.60917e-19)
(315.61 -0.743285 0)
(336.907 -0.821215 -1.05374e-19)
(350.896 -0.91615 1.25226e-19)
(378.076 -0.977402 8.18778e-20)
(395.051 -0.996592 0)
(429.033 -0.961464 -1.17692e-19)
(449.313 -0.860023 -1.85471e-20)
(489.084 -0.797555 3.65195e-20)
(512.434 -0.580485 0)
(546.55 -0.651477 -5.49349e-20)
(569.061 0.013065 9.2203e-21)
(547.392 0.278663 -1.47168e-24)
(538.269 0.465376 -9.68363e-20)
(506.293 0.558947 0)
(492.303 0.644317 3.90923e-20)
(463.015 0.699207 0)
(447.66 0.712282 -1.19124e-20)
(422.472 0.733654 0)
(408.112 0.736792 1.29216e-20)
(387.452 0.735425 0)
(374.768 0.710237 0)
(357.987 0.688176 6.55833e-20)
(346.861 0.662226 -6.04357e-20)
(333.067 0.645763 8.2388e-20)
(323.196 0.620258 -8.16892e-20)
(311.617 0.59239 0)
(302.739 0.550139 -5.52362e-25)
(292.804 0.50943 1.15855e-19)
(284.724 0.463573 -2.40861e-19)
(276.007 0.424919 0)
(268.57 0.385858 1.38797e-19)
(260.767 0.35604 -1.49876e-19)
(253.876 0.329724 1.57117e-19)
(246.796 0.31251 1.6751e-19)
(240.411 0.298469 0)
(233.947 0.289846 -1.85374e-19)
(228.064 0.283174 1.93791e-19)
(222.153 0.279507 2.02822e-19)
(216.775 0.277462 0)
(211.365 0.276051 2.19377e-19)
(206.491 0.27486 2.2776e-19)
(201.521 0.271061 0)
(197.139 0.265136 -4.87769e-19)
(192.535 0.253466 5.0153e-19)
(188.629 0.237631 2.60377e-19)
(184.311 0.213848 2.66889e-19)
(180.878 0.184521 0)
(176.768 0.145288 2.84104e-19)
(173.824 0.100367 2.97517e-19)
(169.855 0.0424432 0)
(167.448 -0.0174554 0)
(163.568 -0.0975512 3.23683e-19)
(161.778 -0.165452 -6.89535e-19)
(157.952 -0.270762 -3.46428e-19)
(156.898 -0.325343 7.45595e-19)
(153.077 -0.488534 0)
(100.007 -0.0138214 0)
(100.153 -0.0392697 -2.81744e-18)
(100.466 -0.0629447 0)
(100.899 -0.0859799 0)
(101.497 -0.115417 1.23625e-18)
(102.295 -0.160984 0)
(103.467 -0.229191 -1.0654e-18)
(105.139 -0.312222 0)
(107.412 -0.392664 0)
(110.19 -0.453288 0)
(113.353 -0.487021 0)
(116.685 -0.496539 -9.95159e-19)
(120.096 -0.490336 -1.01114e-18)
(123.458 -0.47791 0)
(126.824 -0.465924 0)
(130.134 -0.457951 1.00401e-18)
(133.522 -0.453697 0)
(136.891 -0.452731 -9.55852e-19)
(140.411 -0.453344 0)
(143.919 -0.456056 8.97188e-19)
(147.647 -0.45959 8.68712e-19)
(151.35 -0.465294 0)
(155.356 -0.471351 4.71691e-25)
(159.31 -0.479744 0)
(163.675 -0.487785 4.98089e-25)
(167.936 -0.498468 0)
(172.748 -0.507887 -7.00303e-19)
(177.371 -0.52052 -6.69162e-19)
(182.736 -0.530697 -6.45549e-19)
(187.783 -0.544994 7.10683e-25)
(193.833 -0.555225 5.90762e-19)
(199.374 -0.570928 0)
(206.278 -0.580632 0)
(212.392 -0.598369 -4.98082e-19)
(220.375 -0.608564 5.38863e-25)
(227.161 -0.631258 4.3888e-19)
(236.523 -0.644946 0)
(244.108 -0.67695 0)
(255.265 -0.698275 3.69253e-19)
(263.83 -0.74556 3.16307e-19)
(277.377 -0.781858 -3.14203e-19)
(287.211 -0.854091 2.53241e-19)
(304.023 -0.915694 5.21822e-19)
(315.607 -1.01943 0)
(336.904 -1.10835 3.2559e-25)
(350.893 -1.2274 -1.25223e-19)
(378.073 -1.29941 0)
(395.047 -1.33888 0)
(429.031 -1.31099 1.17692e-19)
(449.311 -1.21247 1.85468e-20)
(489.082 -1.14996 0)
(512.433 -0.86934 0)
(546.55 -0.91488 7.3233e-20)
(569.062 0.0111236 9.24783e-25)
(547.391 0.409895 4.54798e-21)
(538.267 0.662117 -9.683e-20)
(506.289 0.783551 0)
(492.299 0.873292 0)
(463.012 0.942135 0)
(447.658 0.948225 3.57336e-20)
(422.47 0.970395 0)
(408.11 0.95937 -2.58462e-20)
(387.45 0.953152 0)
(374.767 0.913347 0)
(357.985 0.885613 -6.5582e-20)
(346.859 0.847384 0)
(333.065 0.826127 -8.2388e-20)
(323.194 0.791126 8.16894e-20)
(311.616 0.759487 1.98172e-19)
(302.738 0.710075 -1.01531e-19)
(292.803 0.66645 -2.31706e-19)
(284.723 0.615374 3.61286e-19)
(276.005 0.574552 0)
(268.569 0.531752 -1.38796e-19)
(260.765 0.500174 2.99746e-19)
(253.875 0.470967 0)
(246.794 0.451934 -1.6751e-19)
(240.41 0.435267 0)
(233.946 0.424423 0)
(228.063 0.415083 -1.93791e-19)
(222.152 0.408694 0)
(216.774 0.403907 -4.22453e-19)
(211.364 0.399356 2.19377e-19)
(206.491 0.395511 0)
(201.52 0.388332 0)
(197.138 0.380051 2.43881e-19)
(192.534 0.364881 -7.52285e-19)
(188.628 0.347109 0)
(184.31 0.319704 2.66886e-19)
(180.876 0.288808 0)
(176.766 0.245713 -5.68204e-19)
(173.822 0.19932 2.97518e-19)
(169.853 0.137145 0)
(167.446 0.0753435 0)
(163.565 -0.00949362 -3.23696e-19)
(161.774 -0.0804994 3.44788e-19)
(157.949 -0.191094 0)
(156.895 -0.250465 3.72835e-19)
(153.074 -0.42235 0)
(100.007 -0.017784 0)
(100.153 -0.0505325 2.81724e-18)
(100.466 -0.080982 1.37098e-18)
(100.9 -0.110536 1.31474e-18)
(101.497 -0.148196 -1.23615e-18)
(102.296 -0.206499 0)
(103.467 -0.293944 2.13073e-18)
(105.139 -0.400609 1.00909e-18)
(107.411 -0.504105 0)
(110.19 -0.582189 0)
(113.352 -0.625684 -9.79354e-19)
(116.683 -0.638 9.95113e-19)
(120.095 -0.630072 1.0111e-18)
(123.457 -0.614139 0)
(126.823 -0.598776 1.01758e-18)
(130.133 -0.588579 -1.00398e-18)
(133.52 -0.583159 -9.83012e-19)
(136.889 -0.581964 9.55828e-19)
(140.41 -0.582784 0)
(143.918 -0.586301 -1.79433e-18)
(147.645 -0.590857 5.74298e-25)
(151.348 -0.598198 0)
(155.355 -0.605965 6.12014e-25)
(159.309 -0.616744 7.81211e-19)
(163.673 -0.627057 6.46923e-25)
(167.934 -0.640822 0)
(172.746 -0.652986 -6.79019e-25)
(177.369 -0.669411 0)
(182.734 -0.682753 0)
(187.781 -0.701636 9.23634e-25)
(193.831 -0.715428 -5.9075e-19)
(199.372 -0.736656 0)
(206.276 -0.75031 0)
(212.39 -0.774739 4.98075e-19)
(220.373 -0.789301 -9.60769e-19)
(227.159 -0.820196 -4.38875e-19)
(236.52 -0.838737 0)
(244.106 -0.88092 -3.78294e-19)
(255.263 -0.907787 -3.69247e-19)
(263.827 -0.967991 -6.32606e-19)
(277.374 -1.01109 -2.27082e-25)
(287.208 -1.10007 8.43888e-25)
(304.02 -1.17054 -2.60905e-19)
(315.603 -1.29556 1.89707e-19)
(336.9 -1.39547 4.21472e-19)
(350.888 -1.53865 -1.2522e-19)
(378.068 -1.62142 0)
(395.043 -1.68116 0)
(429.027 -1.66052 0)
(449.308 -1.56492 0)
(489.08 -1.50236 0)
(512.43 -1.1582 0)
(546.55 -1.1783 -3.66094e-20)
(569.064 0.00918265 -1.84338e-20)
(547.391 0.541144 -9.09801e-21)
(538.264 0.858871 1.93638e-19)
(506.285 1.00816 0)
(492.294 1.10226 -7.81729e-20)
(463.009 1.18505 0)
(447.655 1.18416 -2.58301e-24)
(422.467 1.20713 -6.63913e-20)
(408.107 1.18195 2.5846e-20)
(387.448 1.17088 9.77241e-20)
(374.764 1.11645 7.46739e-20)
(357.983 1.08305 1.31161e-19)
(346.857 1.03254 1.20868e-19)
(333.063 1.00649 -1.64774e-19)
(323.192 0.961991 1.63378e-19)
(311.614 0.92658 -8.84943e-25)
(302.736 0.870008 0)
(292.801 0.823468 4.63406e-19)
(284.721 0.767172 -1.13605e-24)
(276.003 0.724182 0)
(268.567 0.677642 -2.77586e-19)
(260.763 0.644305 -2.99742e-19)
(253.873 0.612205 -3.14226e-19)
(246.793 0.591354 3.35016e-19)
(240.408 0.572059 3.51139e-19)
(233.945 0.558995 0)
(228.061 0.546989 0)
(222.151 0.537878 0)
(216.773 0.530349 -6.92368e-25)
(211.363 0.522661 -8.77498e-19)
(206.489 0.51616 0)
(201.519 0.505603 0)
(197.137 0.494967 -4.87754e-19)
(192.533 0.476297 5.01514e-19)
(188.627 0.45659 0)
(184.309 0.425564 -5.33761e-19)
(180.874 0.393101 0)
(176.764 0.346145 -9.29577e-25)
(173.82 0.29828 -5.95033e-19)
(169.85 0.231853 0)
(167.443 0.168148 0)
(163.562 0.0785694 0)
(161.771 0.00445448 0)
(157.945 -0.111426 0)
(156.891 -0.175595 -9.16073e-25)
(153.071 -0.356181 0)
(100.007 -0.0217473 0)
(100.153 -0.0617974 1.40852e-18)
(100.466 -0.0990221 -1.37087e-18)
(100.9 -0.135096 -1.31462e-18)
(101.497 -0.180977 -1.23604e-18)
(102.296 -0.252012 0)
(103.467 -0.358691 -1.06533e-18)
(105.139 -0.488981 -1.00908e-18)
(107.411 -0.615526 0)
(110.189 -0.711073 1.9424e-18)
(113.35 -0.764335 9.79326e-19)
(116.682 -0.779455 -1.99016e-18)
(120.093 -0.769806 2.02213e-18)
(123.455 -0.750366 0)
(126.821 -0.731626 -1.01755e-18)
(130.131 -0.719205 -2.00791e-18)
(133.518 -0.712617 2.94896e-18)
(136.888 -0.711192 0)
(140.408 -0.71222 0)
(143.916 -0.716542 8.97143e-19)
(147.643 -0.72212 -8.68669e-19)
(151.346 -0.731098 0)
(155.352 -0.740576 8.11213e-19)
(159.306 -0.753741 -7.81193e-19)
(163.671 -0.766326 -7.5532e-19)
(167.931 -0.783172 0)
(172.743 -0.79808 7.00276e-19)
(177.366 -0.818299 0)
(182.731 -0.834805 0)
(187.779 -0.858273 -6.129e-19)
(193.829 -0.875627 0)
(199.369 -0.902378 0)
(206.274 -0.919983 0)
(212.387 -0.951105 -4.98065e-19)
(220.37 -0.970034 1.44113e-18)
(227.156 -1.00913 4.38868e-19)
(236.518 -1.03252 0)
(244.103 -1.08488 1.13487e-18)
(255.26 -1.11729 -7.38485e-19)
(263.824 -1.19041 3.16299e-19)
(277.37 -1.2403 3.14191e-19)
(287.205 -1.34604 -2.53231e-19)
(304.016 -1.42537 -5.21798e-19)
(315.599 -1.57168 -1.89701e-19)
(336.895 -1.68258 -6.32191e-19)
(350.883 -1.84988 3.75653e-19)
(378.063 -1.94341 0)
(395.038 -2.02345 0)
(429.022 -2.01005 2.35386e-19)
(449.303 -1.91737 0)
(489.077 -1.85476 0)
(512.428 -1.44707 0)
(546.55 -1.44174 0)
(569.067 0.00724408 3.68639e-20)
(547.39 0.672412 9.08287e-21)
(538.262 1.05564 -1.93628e-19)
(506.281 1.23278 0)
(492.29 1.33122 7.81682e-20)
(463.004 1.42796 0)
(447.651 1.42009 -2.38172e-20)
(422.464 1.44387 6.63897e-20)
(408.104 1.40452 -2.58495e-20)
(387.445 1.38859 -9.77225e-20)
(374.761 1.31956 -7.46722e-20)
(357.98 1.28048 -4.36755e-25)
(346.854 1.21769 -5.72463e-26)
(333.061 1.18684 3.29547e-19)
(323.189 1.13285 -1.63378e-19)
(311.611 1.09367 -1.98169e-19)
(302.734 1.02994 0)
(292.798 0.980485 -1.16597e-24)
(284.718 0.918969 -2.4085e-19)
(276.001 0.873812 0)
(268.564 0.823531 1.11764e-24)
(260.761 0.788434 2.99736e-19)
(253.871 0.75344 8.96422e-25)
(246.791 0.730771 -8.10868e-25)
(240.406 0.708847 -3.51138e-19)
(233.943 0.693563 0)
(228.06 0.67889 3.8758e-19)
(222.149 0.667059 0)
(216.772 0.656788 4.22448e-19)
(211.362 0.645962 8.7749e-19)
(206.488 0.636808 -4.55508e-19)
(201.518 0.622873 0)
(197.135 0.609882 9.75488e-19)
(192.531 0.587714 5.01504e-19)
(188.625 0.566073 5.2073e-19)
(184.307 0.531428 5.33754e-19)
(180.873 0.497398 0)
(176.762 0.446584 5.68191e-19)
(173.817 0.397247 5.9503e-19)
(169.847 0.326571 0)
(167.439 0.260961 0)
(163.558 0.166641 6.47436e-19)
(161.767 0.0894124 -6.89649e-19)
(157.941 -0.0317541 0)
(156.886 -0.100731 -1.49161e-18)
(153.067 -0.290024 0)
(100.007 -0.0257115 0)
(100.153 -0.0730646 6.63438e-24)
(100.466 -0.117066 0)
(100.9 -0.159659 2.62898e-18)
(101.498 -0.213762 2.47181e-18)
(102.296 -0.297526 0)
(103.467 -0.42343 0)
(105.139 -0.577337 0)
(107.41 -0.726926 0)
(110.188 -0.839937 -1.94238e-18)
(113.349 -0.902972 0)
(116.68 -0.920902 3.98023e-18)
(120.091 -0.909535 1.12695e-24)
(123.453 -0.88659 0)
(126.819 -0.864471 0)
(130.129 -0.849825 -1.34768e-24)
(133.516 -0.842071 -1.96593e-18)
(136.885 -0.840414 0)
(140.406 -0.84165 0)
(143.913 -0.846778 0)
(147.641 -0.853378 0)
(151.344 -0.863993 0)
(155.35 -0.875182 -1.62239e-18)
(159.304 -0.890732 0)
(163.669 -0.905589 0)
(167.929 -0.925517 0)
(172.741 -0.943169 0)
(177.364 -0.96718 -1.33825e-18)
(182.729 -0.986852 0)
(187.776 -1.0149 1.22578e-18)
(193.826 -1.03582 0)
(199.366 -1.0681 -1.11198e-18)
(206.271 -1.08965 -1.07144e-18)
(212.384 -1.12747 0)
(220.367 -1.15076 -9.60738e-19)
(227.153 -1.19806 -8.7773e-19)
(236.514 -1.2263 0)
(244.1 -1.28884 -7.56572e-19)
(255.256 -1.32679 1.47695e-18)
(263.82 -1.41282 0)
(277.366 -1.46951 0)
(287.2 -1.592 0)
(304.011 -1.68018 5.21786e-19)
(315.593 -1.84778 0)
(336.889 -1.96968 4.21449e-19)
(350.876 -2.1611 -2.50429e-19)
(378.056 -2.2654 -3.27486e-19)
(395.031 -2.36572 0)
(429.017 -2.35957 -2.35383e-19)
(449.298 -2.26982 0)
(489.074 -2.20717 -1.46069e-19)
(512.424 -1.73595 2.25389e-19)
(546.55 -1.70521 -7.3177e-20)
(569.07 0.005309 -7.37115e-20)
(547.389 0.803704 -9.08005e-21)
(538.259 1.25243 -5.8591e-24)
(506.276 1.45741 0)
(492.284 1.56018 0)
(462.999 1.67086 0)
(447.646 1.65601 2.38103e-20)
(422.46 1.68059 0)
(408.1 1.62708 2.58492e-20)
(387.441 1.60631 9.77216e-20)
(374.758 1.52265 7.46717e-20)
(357.977 1.4779 -1.31154e-19)
(346.851 1.40284 -1.20865e-19)
(333.057 1.36719 -1.64773e-19)
(323.186 1.3037 1.63377e-19)
(311.609 1.26075 0)
(302.731 1.18986 0)
(292.796 1.1375 -1.1123e-24)
(284.716 1.07076 -2.40845e-19)
(275.998 1.02344 0)
(268.562 0.969417 2.77577e-19)
(260.758 0.932559 -2.99732e-19)
(253.868 0.894672 3.1422e-19)
(246.788 0.870183 -3.35011e-19)
(240.404 0.845631 0)
(233.941 0.828127 0)
(228.058 0.810787 -3.87577e-19)
(222.147 0.796235 -4.0564e-19)
(216.77 0.783224 0)
(211.36 0.769261 1.08519e-24)
(206.486 0.757453 4.55501e-19)
(201.516 0.740141 0)
(197.134 0.724796 -4.87734e-19)
(192.53 0.699131 -5.01492e-19)
(188.623 0.675557 -5.20716e-19)
(184.305 0.637294 -5.33743e-19)
(180.87 0.601701 0)
(176.76 0.547029 -5.68184e-19)
(173.815 0.496222 -5.95025e-19)
(169.844 0.421297 0)
(167.436 0.353781 0)
(163.554 0.254721 -1.29491e-18)
(161.763 0.174374 6.8968e-19)
(157.937 0.0479211 0)
(156.882 -0.0258734 7.45867e-19)
(153.063 -0.223877 0)
(100.007 -0.0296768 0)
(100.153 -0.0843346 -5.63318e-18)
(100.467 -0.135113 0)
(100.9 -0.184227 -2.62869e-18)
(101.498 -0.246551 0)
(102.297 -0.34304 0)
(103.467 -0.488163 -2.13045e-18)
(105.139 -0.665676 0)
(107.41 -0.838303 0)
(110.187 -0.968778 1.94239e-18)
(113.348 -1.04159 1.95862e-18)
(116.678 -1.06234 1.33665e-24)
(120.089 -1.04926 -2.02206e-18)
(123.451 -1.02281 0)
(126.817 -0.997311 0)
(130.127 -0.98044 4.01566e-18)
(133.514 -0.971517 0)
(136.883 -0.969631 -1.91152e-18)
(140.403 -0.971074 1.85519e-18)
(143.911 -0.977008 0)
(147.638 -0.98463 0)
(151.341 -0.996882 -1.67661e-18)
(155.347 -1.00978 1.62235e-18)
(159.301 -1.02772 -1.56232e-18)
(163.666 -1.04485 0)
(167.926 -1.06786 0)
(172.738 -1.08825 0)
(177.36 -1.11606 1.33823e-18)
(182.725 -1.13889 0)
(187.772 -1.17153 3.13114e-24)
(193.822 -1.19601 -1.18144e-18)
(199.363 -1.23381 1.11195e-18)
(206.267 -1.25931 1.07142e-18)
(212.381 -1.30382 9.96098e-19)
(220.363 -1.33148 0)
(227.149 -1.38698 8.77718e-19)
(236.511 -1.42007 0)
(244.096 -1.49279 0)
(255.252 -1.53627 -7.38466e-19)
(263.816 -1.63522 6.32591e-19)
(277.362 -1.69869 -6.28364e-19)
(287.195 -1.83794 5.06449e-19)
(304.005 -1.93498 0)
(315.587 -2.12387 -3.79389e-19)
(336.882 -2.25675 0)
(350.869 -2.4723 0)
(378.049 -2.58738 3.2748e-19)
(395.024 -2.708 -1.14024e-19)
(429.01 -2.70909 -2.35386e-19)
(449.291 -2.62228 -3.70746e-20)
(489.07 -2.55959 1.46063e-19)
(512.42 -2.02484 -4.50743e-19)
(546.55 -1.96872 7.31603e-20)
(569.074 0.00337855 3.68464e-20)
(547.388 0.935022 0)
(538.257 1.44923 1.93596e-19)
(506.27 1.68204 0)
(492.278 1.78914 -1.56311e-19)
(462.994 1.91375 0)
(447.641 1.89192 -2.38093e-20)
(422.455 1.91731 0)
(408.095 1.84964 0)
(387.437 1.82401 -9.77197e-20)
(374.754 1.72574 -7.46698e-20)
(357.973 1.67532 0)
(346.847 1.58798 2.41727e-19)
(333.054 1.54754 3.29541e-19)
(323.183 1.47455 -1.63377e-19)
(311.605 1.42783 0)
(302.728 1.34979 0)
(292.793 1.29451 -2.31692e-19)
(284.713 1.22256 7.22524e-19)
(275.995 1.17306 0)
(268.559 1.1153 0)
(260.756 1.07668 5.99452e-19)
(253.866 1.0359 0)
(246.786 1.00959 6.70012e-19)
(240.402 0.98241 7.02264e-19)
(233.938 0.962686 -7.41479e-19)
(228.055 0.94268 0)
(222.145 0.925409 4.05636e-19)
(216.768 0.909657 -8.44883e-19)
(211.358 0.892557 -4.38736e-19)
(206.484 0.878095 0)
(201.514 0.857406 0)
(197.132 0.839709 9.75451e-19)
(192.528 0.810548 -1.00296e-18)
(188.621 0.785043 0)
(184.303 0.743164 1.06747e-18)
(180.868 0.706008 0)
(176.757 0.64748 -5.68176e-19)
(173.812 0.595204 1.19004e-18)
(169.84 0.516031 0)
(167.432 0.44661 0)
(163.55 0.342809 6.47468e-19)
(161.758 0.259341 1.37941e-18)
(157.932 0.1276 0)
(156.876 0.0489791 0)
(153.058 -0.157743 0)
(100.007 -0.0336432 2.8658e-18)
(100.153 -0.0956077 2.81636e-18)
(100.467 -0.153165 0)
(100.9 -0.208799 2.62839e-18)
(101.498 -0.279344 0)
(102.297 -0.388557 -2.29069e-18)
(103.468 -0.552889 4.26064e-18)
(105.139 -0.753997 -2.01808e-18)
(107.41 -0.949654 -1.95839e-18)
(110.185 -1.09759 -3.88482e-18)
(113.346 -1.18019 -1.95863e-18)
(116.676 -1.20376 -3.98021e-18)
(120.087 -1.18897 -2.02206e-18)
(123.449 -1.15902 0)
(126.815 -1.13015 2.03502e-18)
(130.125 -1.11105 -2.0078e-18)
(133.511 -1.10096 0)
(136.88 -1.09884 1.91147e-18)
(140.4 -1.10049 2.03353e-24)
(143.908 -1.10723 0)
(147.635 -1.11587 -1.7372e-18)
(151.338 -1.12976 1.67657e-18)
(155.344 -1.14437 2.3534e-24)
(159.298 -1.1647 3.12457e-18)
(163.662 -1.1841 1.51055e-18)
(167.922 -1.21019 0)
(172.734 -1.23333 0)
(177.357 -1.26492 0)
(182.722 -1.29092 0)
(187.769 -1.32815 -1.22574e-18)
(193.819 -1.35618 1.18142e-18)
(199.359 -1.39951 0)
(206.263 -1.42897 1.0714e-18)
(212.377 -1.48017 -1.99216e-18)
(220.359 -1.5122 9.60715e-19)
(227.145 -1.57589 0)
(236.506 -1.61383 8.4959e-19)
(244.091 -1.69672 -7.56568e-19)
(255.247 -1.74574 0)
(263.811 -1.8576 -1.26517e-18)
(277.356 -1.92786 1.25671e-18)
(287.189 -2.08385 -5.06439e-19)
(303.999 -2.18975 5.21765e-19)
(315.579 -2.39993 3.79379e-19)
(336.874 -2.5438 -4.21427e-19)
(350.86 -2.78349 2.50425e-19)
(378.04 -2.90934 -3.27476e-19)
(395.015 -3.05026 1.14022e-19)
(429.003 -3.05861 2.35383e-19)
(449.284 -2.97474 4.17907e-24)
(489.065 -2.91201 -1.4606e-19)
(512.416 -2.31375 2.25353e-19)
(546.551 -2.23226 0)
(569.078 0.00145393 -7.36846e-20)
(547.387 1.06637 1.8089e-20)
(538.254 1.64605 0)
(506.264 1.90669 -3.47941e-20)
(492.272 2.01809 1.56302e-19)
(462.988 2.15663 -7.78671e-20)
(447.636 2.12782 0)
(422.449 2.15402 0)
(408.09 2.07218 0)
(387.432 2.04171 0)
(374.749 1.92883 0)
(357.969 1.87274 0)
(346.843 1.77312 -2.41723e-19)
(333.05 1.72788 -3.29539e-19)
(323.179 1.64539 0)
(311.602 1.5949 0)
(302.725 1.5097 0)
(292.79 1.45152 0)
(284.71 1.37434 -9.63348e-19)
(275.992 1.32268 0)
(268.556 1.26118 0)
(260.753 1.2208 -5.99442e-19)
(253.863 1.17712 0)
(246.783 1.14899 -6.70004e-19)
(240.399 1.11918 -7.02256e-19)
(233.936 1.09724 7.41471e-19)
(228.053 1.07457 -7.75142e-19)
(222.143 1.05458 8.11267e-19)
(216.765 1.03609 -2.00602e-24)
(211.356 1.01585 0)
(206.482 0.998735 0)
(201.512 0.974669 9.40559e-19)
(197.129 0.95462 2.50153e-24)
(192.525 0.921965 -3.19993e-24)
(188.619 0.894529 1.04138e-18)
(184.3 0.849036 -2.13488e-18)
(180.865 0.81032 0)
(176.754 0.747937 1.13633e-18)
(173.808 0.694193 -1.19002e-18)
(169.837 0.610774 0)
(167.428 0.539446 0)
(163.546 0.430905 -1.29496e-18)
(161.753 0.344311 -1.37946e-18)
(157.927 0.207282 0)
(156.871 0.123826 0)
(153.053 -0.0916211 0)
(100.007 -0.037611 -2.86556e-18)
(100.153 -0.106884 2.81613e-18)
(100.467 -0.171222 2.74074e-18)
(100.901 -0.233377 7.95952e-24)
(101.499 -0.312143 0)
(102.297 -0.434076 2.29039e-18)
(103.468 -0.617608 -2.13017e-18)
(105.139 -0.842299 4.03611e-18)
(107.409 -1.06098 1.95842e-18)
(110.184 -1.22638 3.88492e-18)
(113.344 -1.31877 0)
(116.674 -1.34518 1.99014e-18)
(120.085 -1.32868 2.02207e-18)
(123.447 -1.29523 0)
(126.813 -1.26297 1.82934e-24)
(130.122 -1.24165 0)
(133.509 -1.23039 -1.96582e-18)
(136.878 -1.22804 0)
(140.397 -1.2299 -1.85509e-18)
(143.905 -1.23745 -1.79409e-18)
(147.632 -1.24711 3.47431e-18)
(151.334 -1.26264 -1.67653e-18)
(155.341 -1.27896 -1.62227e-18)
(159.294 -1.30167 -1.56225e-18)
(163.659 -1.32334 2.78937e-24)
(167.919 -1.35251 0)
(172.73 -1.37839 0)
(177.353 -1.41378 1.33818e-18)
(182.718 -1.44295 0)
(187.764 -1.48475 1.22572e-18)
(193.814 -1.51635 0)
(199.354 -1.5652 0)
(206.258 -1.59861 -1.07138e-18)
(212.372 -1.6565 1.99213e-18)
(220.354 -1.6929 -1.92141e-18)
(227.14 -1.76479 0)
(236.501 -1.80758 2.88835e-24)
(244.086 -1.90064 7.56561e-19)
(255.242 -1.95519 7.38455e-19)
(263.805 -2.07997 6.32581e-19)
(277.35 -2.15702 -6.28346e-19)
(287.182 -2.32975 5.06438e-19)
(303.991 -2.44451 8.27342e-25)
(315.571 -2.67596 0)
(336.865 -2.83083 4.21417e-19)
(350.85 -3.09466 -2.50419e-19)
(378.031 -3.23129 3.27471e-19)
(395.005 -3.39252 0)
(428.994 -3.40812 0)
(449.276 -3.3272 3.70684e-20)
(489.059 -3.26444 2.92109e-19)
(512.411 -2.60269 0)
(546.552 -2.49584 -1.46208e-19)
(569.083 -0.000463674 7.36582e-20)
(547.386 1.19775 -1.80817e-20)
(538.25 1.84289 0)
(506.258 2.13135 6.9581e-20)
(492.265 2.24703 1.56287e-19)
(462.981 2.39949 1.55729e-19)
(447.629 2.3637 -4.75931e-20)
(422.443 2.39072 1.32784e-19)
(408.084 2.29472 0)
(387.426 2.25939 0)
(374.744 2.1319 1.49337e-19)
(357.964 2.07014 2.62282e-19)
(346.838 1.95825 2.4172e-19)
(333.045 1.90821 -3.29534e-19)
(323.175 1.81622 3.26753e-19)
(311.598 1.76197 0)
(302.721 1.66961 -4.06094e-19)
(292.786 1.60852 4.63364e-19)
(284.706 1.52613 4.81665e-19)
(275.989 1.4723 0)
(268.553 1.40706 -5.55122e-19)
(260.749 1.36491 0)
(253.859 1.31834 0)
(246.78 1.28839 6.69994e-19)
(240.396 1.25595 7.02248e-19)
(233.933 1.23179 0)
(228.05 1.20645 7.75134e-19)
(222.14 1.18374 -8.11259e-19)
(216.763 1.16251 8.44867e-19)
(211.353 1.13914 -8.77458e-19)
(206.479 1.11937 0)
(201.509 1.09193 -1.88109e-18)
(197.127 1.06953 -9.75408e-19)
(192.523 1.03338 1.00291e-18)
(188.616 1.00402 -2.08269e-18)
(184.298 0.95491 1.06741e-18)
(180.862 0.914635 0)
(176.751 0.8484 -1.13631e-18)
(173.805 0.79319 0)
(169.833 0.705525 0)
(167.423 0.63229 0)
(163.541 0.519009 1.29498e-18)
(161.748 0.429287 0)
(157.922 0.286969 0)
(156.865 0.198669 0)
(153.048 -0.0255106 0)
(100.007 -0.0415803 2.86534e-18)
(100.153 -0.118165 -2.81588e-18)
(100.467 -0.189284 -2.74045e-18)
(100.901 -0.25796 -2.62769e-18)
(101.499 -0.344949 0)
(102.298 -0.479599 0)
(103.469 -0.682322 -2.13002e-18)
(105.14 -0.930581 -4.03607e-18)
(107.409 -1.17227 1.95847e-18)
(110.183 -1.35514 -1.94253e-18)
(113.342 -1.45733 0)
(116.672 -1.48658 0)
(120.083 -1.46838 0)
(123.444 -1.43143 0)
(126.81 -1.39579 -2.03502e-18)
(130.119 -1.37224 -2.00777e-18)
(133.506 -1.35981 3.93157e-18)
(136.874 -1.35723 0)
(140.394 -1.3593 1.85504e-18)
(143.902 -1.36765 -2.83112e-24)
(147.628 -1.37834 -1.7371e-18)
(151.331 -1.3955 1.67648e-18)
(155.337 -1.41353 0)
(159.29 -1.43863 -3.12443e-18)
(163.655 -1.46257 -1.51048e-18)
(167.914 -1.49482 0)
(172.726 -1.52345 0)
(177.349 -1.56263 -1.33816e-18)
(182.713 -1.59496 0)
(187.76 -1.64135 1.22571e-18)
(193.809 -1.67651 2.36276e-18)
(199.349 -1.73088 2.22381e-18)
(206.253 -1.76824 -2.14274e-18)
(212.367 -1.83283 -9.96052e-19)
(220.349 -1.87359 9.60692e-19)
(227.135 -1.95368 0)
(236.496 -2.00132 -2.54873e-18)
(244.08 -2.10455 0)
(255.236 -2.16463 -2.21535e-18)
(263.798 -2.30232 -1.26517e-18)
(277.343 -2.38615 0)
(287.174 -2.57563 -5.06429e-19)
(303.983 -2.69923 -5.21744e-19)
(315.562 -2.95197 -7.58745e-19)
(336.855 -3.11783 0)
(350.84 -3.4058 -5.00846e-19)
(378.02 -3.55321 -6.54936e-19)
(394.994 -3.73476 0)
(428.985 -3.75763 0)
(449.266 -3.67966 7.41156e-20)
(489.053 -3.61688 -1.46048e-19)
(512.406 -2.89165 4.50672e-19)
(546.552 -2.75948 1.46167e-19)
(569.088 -0.00237305 -7.36493e-20)
(547.385 1.32917 0)
(538.247 2.03976 0)
(506.251 2.35603 -3.47869e-20)
(492.257 2.47597 -1.56278e-19)
(462.973 2.64235 -7.78621e-20)
(447.622 2.59958 4.7591e-20)
(422.436 2.62741 -2.65565e-19)
(408.078 2.51725 0)
(387.42 2.47706 0)
(374.738 2.33496 2.38845e-24)
(357.958 2.26754 -2.62274e-19)
(346.833 2.14337 -2.41716e-19)
(333.04 2.08853 3.29532e-19)
(323.17 1.98704 -3.26752e-19)
(311.594 1.92902 0)
(302.717 1.82952 -2.53414e-26)
(292.782 1.76551 -9.2671e-19)
(284.702 1.67791 -4.81655e-19)
(275.985 1.62191 -5.30796e-19)
(268.549 1.55293 5.55112e-19)
(260.746 1.50902 0)
(253.856 1.45955 0)
(246.776 1.42778 -6.69984e-19)
(240.392 1.39271 6.0612e-25)
(233.93 1.36633 7.41456e-19)
(228.047 1.33833 7.75129e-19)
(222.137 1.3129 -8.11254e-19)
(216.76 1.28893 0)
(211.35 1.26242 8.77447e-19)
(206.476 1.24 0)
(201.507 1.20919 9.40526e-19)
(197.124 1.18443 -9.75388e-19)
(192.52 1.14479 0)
(188.613 1.1135 1.04131e-18)
(184.295 1.06079 0)
(180.859 1.01895 0)
(176.747 0.948868 1.13628e-18)
(173.801 0.892194 0)
(169.829 0.800284 0)
(167.419 0.725143 0)
(163.536 0.607122 0)
(161.742 0.514267 0)
(157.916 0.366659 0)
(156.859 0.273506 0)
(153.042 0.040588 0)
(100.007 -0.0455513 -2.86509e-18)
(100.153 -0.12945 0)
(100.467 -0.207352 0)
(100.901 -0.282551 0)
(101.5 -0.377761 0)
(102.299 -0.525126 0)
(103.47 -0.74703 2.12985e-18)
(105.14 -1.01884 2.01802e-18)
(107.408 -1.28353 1.95854e-18)
(110.182 -1.48387 3.88526e-18)
(113.341 -1.59586 0)
(116.67 -1.62796 3.98055e-18)
(120.08 -1.60807 4.04436e-18)
(123.442 -1.56762 0)
(126.807 -1.5286 0)
(130.116 -1.50281 2.00776e-18)
(133.503 -1.48922 1.96576e-18)
(136.871 -1.48641 0)
(140.391 -1.48869 -1.85498e-18)
(143.898 -1.49785 1.79398e-18)
(147.624 -1.50956 0)
(151.327 -1.52836 0)
(155.333 -1.5481 3.24438e-18)
(159.286 -1.57558 3.12435e-18)
(163.65 -1.60179 -3.02091e-18)
(167.91 -1.63713 2.89986e-18)
(172.721 -1.66849 0)
(177.344 -1.71147 0)
(182.708 -1.74696 0)
(187.755 -1.79794 -2.45136e-18)
(193.804 -1.83666 -2.36272e-18)
(199.344 -1.89656 -2.22377e-18)
(206.248 -1.93786 2.1427e-18)
(212.361 -2.00914 1.99209e-18)
(220.343 -2.05427 0)
(227.129 -2.14256 0)
(236.49 -2.19504 1.69914e-18)
(244.074 -2.30844 -1.51313e-18)
(255.229 -2.37405 -6.08094e-24)
(263.791 -2.52464 1.26516e-18)
(277.335 -2.61525 0)
(287.166 -2.82147 0)
(303.974 -2.95392 -1.04347e-18)
(315.552 -3.22795 -1.12769e-23)
(336.844 -3.40481 8.42796e-19)
(350.828 -3.71692 5.00834e-19)
(378.008 -3.87512 6.54927e-19)
(394.982 -4.077 2.28085e-19)
(428.974 -4.10712 4.70778e-19)
(449.256 -4.03212 -7.41133e-20)
(489.046 -3.96933 0)
(512.4 -3.18063 -9.01263e-19)
(546.553 -3.02317 0)
(569.094 -0.00427302 7.36185e-20)
(547.383 1.46062 -1.79829e-20)
(538.243 2.23664 -3.87114e-19)
(506.244 2.58072 0)
(492.249 2.70491 0)
(462.965 2.8852 -7.78648e-20)
(447.615 2.83545 -4.75721e-20)
(422.429 2.8641 2.65565e-19)
(408.07 2.73976 -5.17258e-20)
(387.413 2.69472 0)
(374.731 2.53801 -1.4933e-19)
(357.952 2.46492 2.62263e-19)
(346.827 2.32847 2.41714e-19)
(333.035 2.26884 0)
(323.165 2.15785 0)
(311.589 2.09607 -3.96311e-19)