/*--------------------------------*- C++ -*----------------------------------*\
| =========                 |                                                 |
| \\      /  F ield         | OpenFOAM: The Open Source CFD Toolbox           |
|  \\    /   O peration     | Version:  2412                                  |
|   \\  /    A nd           | Website:  www.openfoam.com                      |
|    \\/     M anipulation  |                                                 |
\*---------------------------------------------------------------------------*/
FoamFile
{
    version     2.0;
    format      ascii;
    arch        "LSB;label=32;scalar=64";
    class       volScalarField;
    location    "0.6";
    object      epsilon;
}
// * * * * * * * * * * * * * * * * * * * * * * * * * * * * * * * * * * * * * //

dimensions      [0 2 -3 0 0 0 0];

internalField   nonuniform List<scalar> 
12960
(
381.124
391.662
419.931
484.691
603.219
772.577
963.488
1138.55
1274.77
1363.36
1399.35
1383.59
1330.83
1267.7
1216.17
1185.81
1175
1179.91
1195.77
1220.84
1252.46
1291.39
1335.73
1388.05
1446.1
1514.38
1589.37
1678.35
1775.47
1892.44
2019.27
2175.24
2343.05
2555.22
2781.7
3078.73
3394.54
3830.29
4299.87
4990.85
5756.98
6933.91
8237.61
10213.3
12217.7
14965.6
17197.5
20025.9
22307.3
25304.3
28056.7
25159.5
24647.9
15995.2
11362
9616.83
9983.99
10124.8
10290.7
9431
8584.14
7421.83
6574.27
5711.14
5102.49
4511.84
4092.18
3706.33
3439.48
3200.15
3030.07
2871.87
2749.88
2629.71
2524.17
2412.84
2302.68
2184.34
2064.2
1942.56
1825.45
1716.89
1618.91
1534.79
1461.39
1400.84
1346.12
1300.39
1254.77
1215.21
1171.48
1132.49
1086.63
1044.58
994.753
946.757
893.255
841.823
778.326
381.204
391.908
420.544
486.022
605.608
776.059
967.639
1142.67
1278.28
1366.03
1401.21
1384.66
1331
1267
1214.8
1184.09
1173.18
1178.14
1194.1
1219.29
1251
1290.01
1334.39
1386.74
1444.8
1513.05
1588.02
1676.94
1773.99
1890.86
2017.58
2173.38
2341.02
2552.93
2779.12
3075.73
3391.05
3826.12
4294.88
4984.9
5750.1
6926.33
8229.9
10206.6
12212.6
14962.6
17193.8
20022.4
22303.2
25322.1
28105.8
25252.1
24852
16203.6
11544
9762.98
10088.6
10190.9
10329.7
9452.22
8594.78
7426.34
6575.47
5710.72
5101.32
4510.29
4090.37
3704.4
3437.55
3198.37
3028.49
2870.53
2748.81
2628.93
2523.67
2412.58
2302.58
2184.31
2064.13
1942.38
1825.13
1716.44
1618.39
1534.26
1460.92
1400.48
1345.92
1300.37
1254.93
1215.58
1172.04
1133.28
1087.64
1045.87
996.293
948.604
895.394
844.25
780.802
381.286
392.156
421.163
487.362
608.01
779.558
971.809
1146.81
1281.81
1368.72
1403.11
1385.76
1331.21
1266.32
1213.46
1182.39
1171.37
1176.37
1192.43
1217.73
1249.55
1288.63
1333.07
1385.44
1443.5
1511.74
1586.67
1675.53
1772.51
1889.29
2015.89
2171.54
2339
2550.66
2776.55
3072.75
3387.56
3821.95
4289.9
4978.95
5743.22
6918.75
8222.2
10200
12207.4
14959.7
17190.1
20019
22299.2
25340.1
28155.3
25345.6
25059.5
16416.6
11731.5
9914.15
10196.6
10258.7
10369.4
9473.63
8605.42
7430.79
6576.61
5710.25
5100.1
4508.72
4088.54
3702.45
3435.61
3196.58
3026.9
2869.2
2747.75
2628.16
2523.18
2412.33
2302.49
2184.29
2064.08
1942.22
1824.82
1716.01
1617.87
1533.74
1460.46
1400.14
1345.73
1300.36
1255.1
1215.95
1172.61
1134.09
1088.66
1047.18
997.857
950.48
897.568
846.717
783.321
381.368
392.407
421.789
488.713
610.429
783.077
976.003
1150.98
1285.37
1371.44
1405.03
1386.89
1331.44
1265.65
1212.11
1180.68
1169.56
1174.59
1190.76
1216.17
1248.09
1287.25
1331.74
1384.13
1442.2
1510.42
1585.32
1674.12
1771.03
1887.71
2014.2
2169.69
2336.97
2548.38
2773.97
3069.76
3384.07
3817.77
4284.9
4972.98
5736.3
6911.13
8214.45
10193.3
12202.3
14956.7
17186.4
20015.5
22294.8
25358
28204.7
25439.8
25270
16634.4
11924.7
10070.5
10308
10328.3
10409.7
9495.16
8615.98
7435.11
6577.62
5709.67
5098.8
4507.08
4086.65
3700.45
3433.62
3194.75
3025.28
2867.84
2746.66
2627.38
2522.68
2412.07
2302.4
2184.27
2064.03
1942.06
1824.52
1715.56
1617.35
1533.21
1459.99
1399.79
1345.54
1300.35
1255.28
1216.33
1173.18
1134.9
1089.7
1048.5
999.439
952.379
899.77
849.22
785.877
381.452
392.661
422.421
490.076
612.865
786.617
980.221
1155.17
1288.95
1374.19
1406.97
1388.03
1331.69
1265
1210.77
1178.97
1167.74
1172.82
1189.08
1214.61
1246.62
1285.86
1330.4
1382.82
1440.9
1509.09
1583.96
1672.7
1769.54
1886.12
2012.5
2167.83
2334.93
2546.08
2771.37
3066.75
3380.55
3813.56
4279.87
4966.96
5729.34
6903.46
8206.64
10186.5
12197.1
14953.7
17182.6
20011.8
22290.2
25375.6
28254
25534.6
25483.7
16857.1
12123.8
10232.3
10423
10399.7
10450.8
9516.79
8626.43
7439.26
6578.48
5708.97
5097.4
4505.35
4084.69
3698.39
3431.58
3192.87
3023.62
2866.44
2745.55
2626.57
2522.16
2411.8
2302.3
2184.24
2063.97
1941.89
1824.2
1715.11
1616.82
1532.67
1459.51
1399.43
1345.34
1300.33
1255.45
1216.7
1173.76
1135.72
1090.74
1049.83
1001.04
954.3
902
851.757
788.468
381.537
392.918
423.06
491.452
615.32
790.18
984.463
1159.4
1292.56
1376.96
1408.94
1389.2
1331.95
1264.34
1209.43
1177.26
1165.91
1171.03
1187.4
1213.03
1245.15
1284.46
1329.05
1381.5
1439.58
1507.76
1582.59
1671.27
1768.04
1884.52
2010.78
2165.96
2332.87
2543.77
2768.75
3063.71
3377.01
3809.33
4274.8
4960.9
5722.32
6895.71
8198.75
10179.7
12191.8
14950.6
17178.7
20007.9
22285.2
25392.9
28303.2
25629.9
25700.5
17084.8
12329.1
10399.9
10541.8
10473.1
10492.5
9538.55
8636.76
7443.24
6579.16
5708.12
5095.88
4503.52
4082.65
3696.26
3429.48
3190.94
3021.92
2865.02
2744.41
2625.74
2521.63
2411.52
2302.19
2184.21
2063.9
1941.71
1823.87
1714.65
1616.28
1532.12
1459.03
1399.07
1345.13
1300.31
1255.62
1217.08
1174.34
1136.54
1091.79
1051.18
1002.65
956.241
904.256
854.327
791.096
381.623
393.179
423.706
492.84
617.793
793.766
988.729
1163.64
1296.2
1379.75
1410.92
1390.38
1332.22
1263.7
1208.08
1175.54
1164.08
1169.23
1185.7
1211.45
1243.67
1283.05
1327.7
1380.17
1438.25
1506.41
1581.21
1669.83
1766.53
1882.91
2009.05
2164.07
2330.8
2541.44
2766.12
3060.66
3373.44
3805.06
4269.7
4954.79
5715.24
6887.9
8190.79
10172.7
12186.4
14947.4
17174.6
20003.7
22279.9
25409.9
28352.1
25725.8
25920.5
17317.7
12540.9
10573.6
10664.7
10548.7
10535.1
9560.46
8646.98
7447.04
6579.68
5707.12
5094.24
4501.6
4080.52
3694.06
3427.31
3188.96
3020.18
2863.55
2743.24
2624.88
2521.07
2411.22
2302.06
2184.16
2063.82
1941.52
1823.53
1714.18
1615.72
1531.56
1458.53
1398.69
1344.92
1300.28
1255.78
1217.46
1174.92
1137.36
1092.84
1052.53
1004.27
958.203
906.539
856.931
793.76
381.711
393.443
424.359
494.241
620.284
797.373
993.02
1167.91
1299.86
1382.57
1412.93
1391.58
1332.51
1263.06
1206.74
1173.81
1162.24
1167.43
1184
1209.87
1242.18
1281.64
1326.34
1378.83
1436.92
1505.06
1579.82
1668.38
1765.01
1881.28
2007.31
2162.17
2328.71
2539.09
2763.47
3057.58
3369.85
3800.77
4264.55
4948.64
5708.1
6880.02
8182.75
10165.7
12180.9
14944
17170.3
19999.4
22274.1
25426.6
28400.8
25822.2
26143.9
17556.2
12759.5
10753.7
10792
10626.5
10578.5
9582.56
8657.11
7450.68
6580.03
5705.99
5092.49
4499.58
4078.32
3691.79
3425.09
3186.93
3018.39
2862.05
2742.04
2624
2520.49
2410.91
2301.93
2184.1
2063.74
1941.33
1823.18
1713.69
1615.16
1530.99
1458.02
1398.31
1344.7
1300.25
1255.94
1217.83
1175.5
1138.19
1093.9
1053.9
1005.91
960.186
908.849
859.569
796.463
381.799
393.711
425.019
495.654
622.793
801.001
997.334
1172.21
1303.55
1385.41
1414.95
1392.8
1332.8
1262.42
1205.39
1172.08
1160.39
1165.62
1182.29
1208.27
1240.69
1280.22
1324.97
1377.48
1435.58
1503.69
1578.42
1666.92
1763.47
1879.64
2005.56
2160.25
2326.61
2536.73
2760.8
3054.49
3366.23
3796.44
4259.37
4942.44
5700.91
6872.07
8174.63
10158.7
12175.3
14940.6
17166
19994.8
22268
25443
28449.3
25919.1
26370.7
17800.4
12985.4
10940.6
10923.9
10706.8
10623
9604.89
8667.16
7454.15
6580.22
5704.71
5090.62
4497.47
4076.04
3689.45
3422.81
3184.85
3016.56
2860.52
2740.81
2623.1
2519.89
2410.57
2301.78
2184.04
2063.64
1941.12
1822.83
1713.2
1614.58
1530.4
1457.5
1397.92
1344.47
1300.21
1256.1
1218.2
1176.08
1139.03
1094.97
1055.27
1007.57
962.19
911.188
862.243
799.204
381.889
393.981
425.686
497.079
625.319
804.651
1001.67
1176.53
1307.26
1388.27
1416.99
1394.03
1333.11
1261.79
1204.04
1170.34
1158.54
1163.8
1180.58
1206.66
1239.18
1278.79
1323.59
1376.13
1434.23
1502.32
1577.01
1665.45
1761.93
1878
2003.79
2158.32
2324.49
2534.35
2758.11
3051.37
3362.59
3792.09
4254.16
4936.2
5693.66
6864.06
8166.45
10151.5
12169.7
14937.1
17161.4
19989.9
22261.5
25459.1
28497.5
26016.6
26601
18050.6
13218.8
11134.7
11060.8
10789.8
10668.5
9627.5
8677.15
7457.47
6580.25
5703.3
5088.64
4495.27
4073.69
3687.05
3420.48
3182.72
3014.69
2858.95
2739.55
2622.17
2519.28
2410.23
2301.62
2183.97
2063.54
1940.9
1822.46
1712.69
1613.99
1529.8
1456.97
1397.52
1344.24
1300.17
1256.26
1218.58
1176.67
1139.86
1096.05
1056.66
1009.24
964.217
913.555
864.954
801.986
381.98
394.256
426.361
498.516
627.863
808.32
1006.03
1180.88
1310.99
1391.15
1419.05
1395.27
1333.43
1261.17
1202.69
1168.6
1156.67
1161.97
1178.85
1205.05
1237.67
1277.35
1322.2
1374.77
1432.87
1500.94
1575.59
1663.97
1760.38
1876.34
2002.02
2156.38
2322.36
2531.96
2755.4
3048.24
3358.93
3787.71
4248.91
4929.91
5686.37
6855.99
8158.2
10144.3
12164
14933.5
17156.8
19984.9
22254.7
25474.9
28545.6
26114.8
26835.1
18307.2
13460.2
11336.5
11202.9
10875.6
10715.2
9650.43
8687.11
7460.65
6580.13
5701.76
5086.56
4492.99
4071.26
3684.59
3418.09
3180.55
3012.78
2857.35
2738.27
2621.22
2518.64
2409.87
2301.46
2183.89
2063.43
1940.68
1822.08
1712.17
1613.39
1529.2
1456.44
1397.11
1344
1300.12
1256.41
1218.95
1177.26
1140.71
1097.13
1058.06
1010.93
966.266
915.951
867.701
804.809
382.073
394.533
427.042
499.966
630.424
812.01
1010.41
1185.25
1314.75
1394.05
1421.12
1396.54
1333.77
1260.55
1201.35
1166.85
1154.81
1160.14
1177.12
1203.43
1236.15
1275.91
1320.81
1373.39
1431.5
1499.54
1574.16
1662.48
1758.81
1874.67
2000.23
2154.42
2320.21
2529.55
2752.68
3045.08
3355.25
3783.3
4243.63
4923.59
5679.02
6847.87
8149.88
10137
12158.2
14929.9
17152
19979.6
22247.5
25490.4
28593.5
26213.5
27072.9
18570.4
13710
11546.3
11350.7
10964.6
10763.2
9673.75
8697.05
7463.69
6579.85
5700.09
5084.37
4490.62
4068.76
3682.06
3415.65
3178.33
3010.84
2855.71
2736.95
2620.25
2518
2409.5
2301.28
2183.8
2063.32
1940.45
1821.69
1711.65
1612.78
1528.58
1455.89
1396.69
1343.75
1300.07
1256.57
1219.33
1177.84
1141.55
1098.22
1059.48
1012.64
968.339
918.377
870.487
807.674
382.167
394.814
427.73
501.427
633.001
815.72
1014.81
1189.64
1318.54
1396.97
1423.22
1397.81
1334.11
1259.94
1200
1165.1
1152.93
1158.3
1175.38
1201.8
1234.62
1274.45
1319.41
1372.01
1430.12
1498.14
1572.72
1660.98
1757.24
1872.99
1998.43
2152.46
2318.05
2527.12
2749.94
3041.91
3351.54
3778.87
4238.32
4917.23
5671.62
6839.68
8141.51
10129.7
12152.4
14926.1
17147.1
19974.2
22239.9
25505.5
28641.1
26312.9
27314.7
18840.5
13968.6
11764.6
11504.4
11056.8
10812.6
9697.5
8707
7466.6
6579.44
5698.3
5082.08
4488.17
4066.19
3679.48
3413.16
3176.07
3008.86
2854.05
2735.62
2619.26
2517.33
2409.12
2301.09
2183.71
2063.2
1940.22
1821.3
1711.11
1612.16
1527.95
1455.33
1396.26
1343.5
1300.02
1256.72
1219.7
1178.44
1142.41
1099.32
1060.9
1014.36
970.436
920.835
873.313
810.584
382.262
395.099
428.426
502.901
635.595
819.448
1019.24
1194.06
1322.34
1399.92
1425.33
1399.11
1334.47
1259.34
1198.65
1163.35
1151.05
1156.45
1173.63
1200.17
1233.09
1273
1318
1370.63
1428.74
1496.74
1571.28
1659.47
1755.65
1871.29
1996.61
2150.48
2315.88
2524.69
2747.19
3038.72
3347.82
3774.42
4232.98
4910.83
5664.18
6831.44
8133.07
10122.3
12146.5
14922.3
17142.1
19968.5
22232
25520.5
28688.6
26413
27560.5
19117.9
14236.5
11991.9
11664.5
11152.6
10863.6
9721.74
8716.98
7469.41
6578.89
5696.38
5079.69
4485.64
4063.56
3676.84
3410.62
3173.77
3006.84
2852.36
2734.26
2618.25
2516.65
2408.73
2300.9
2183.61
2063.07
1939.98
1820.9
1710.57
1611.53
1527.31
1454.77
1395.83
1343.24
1299.96
1256.87
1220.08
1179.03
1143.26
1100.43
1062.34
1016.1
972.557
923.324
876.178
813.539
382.359
395.387
429.128
504.386
638.205
823.196
1023.68
1198.49
1326.17
1402.88
1427.46
1400.41
1334.84
1258.75
1197.3
1161.59
1149.16
1154.59
1171.88
1198.53
1231.55
1271.53
1316.58
1369.23
1427.34
1495.32
1569.82
1657.95
1754.06
1869.59
1994.79
2148.49
2313.7
2522.24
2744.42
3035.51
3344.08
3769.94
4227.62
4904.39
5656.7
6823.15
8124.58
10114.8
12140.5
14918.4
17137
19962.7
22223.8
25535.1
28735.8
26513.8
27810.6
19402.9
14514.1
12228.6
11831.2
11252.1
10916.2
9746.55
8727.03
7472.11
6578.21
5694.36
5077.22
4483.04
4060.87
3674.15
3408.03
3171.43
3004.79
2850.65
2732.88
2617.23
2515.96
2408.33
2300.7
2183.5
2062.95
1939.73
1820.49
1710.01
1610.89
1526.66
1454.19
1395.39
1342.98
1299.9
1257.02
1220.45
1179.63
1144.13
1101.55
1063.79
1017.85
974.702
925.845
879.085
816.541
382.457
395.679
429.838
505.883
640.83
826.961
1028.14
1202.95
1330.02
1405.87
1429.6
1401.74
1335.23
1258.16
1195.96
1159.82
1147.26
1152.73
1170.11
1196.88
1230
1270.05
1315.16
1367.83
1425.94
1493.89
1568.36
1656.42
1752.45
1867.88
1992.96
2146.49
2311.51
2519.77
2741.64
3032.29
3340.32
3765.44
4222.22
4897.92
5649.17
6814.82
8116.03
10107.3
12134.5
14914.5
17131.7
19956.6
22215.2
25549.4
28782.9
26615.3
28065.1
19696
14801.9
12475.3
12005.1
11355.8
10970.7
9771.99
8737.16
7474.73
6577.41
5692.23
5074.65
4480.36
4058.11
3671.41
3405.4
3169.05
3002.71
2848.91
2731.48
2616.18
2515.25
2407.92
2300.5
2183.4
2062.81
1939.48
1820.08
1709.45
1610.24
1526.01
1453.61
1394.95
1342.72
1299.84
1257.17
1220.83
1180.23
1145
1102.67
1065.25
1019.63
976.874
928.399
882.033
819.59
382.556
395.974
430.555
507.392
643.472
830.744
1032.62
1207.43
1333.9
1408.87
1431.76
1403.07
1335.62
1257.57
1194.61
1158.05
1145.36
1150.86
1168.35
1195.22
1228.45
1268.57
1313.73
1366.42
1424.53
1492.46
1566.89
1654.89
1750.84
1866.16
1991.12
2144.48
2309.3
2517.3
2738.84
3029.05
3336.54
3760.93
4216.8
4891.42
5641.61
6806.43
8107.43
10099.7
12128.4
14910.5
17126.4
19950.4
22206.3
25563.5
28829.8
26717.6
28324.1
19997.4
15100.4
12732.4
12186.6
11463.7
11027.2
9798.13
8747.42
7477.27
6576.5
5689.99
5072
4477.62
4055.3
3668.61
3402.72
3166.63
3000.6
2847.14
2730.06
2615.12
2514.53
2407.5
2300.29
2183.29
2062.68
1939.23
1819.66
1708.88
1609.58
1525.35
1453.02
1394.5
1342.45
1299.78
1257.31
1221.21
1180.84
1145.88
1103.81
1066.73
1021.42
979.071
930.987
885.025
822.689
382.657
396.273
431.279
508.913
646.129
834.544
1037.12
1211.93
1337.79
1411.89
1433.94
1404.43
1336.03
1257
1193.26
1156.28
1143.45
1148.98
1166.57
1193.56
1226.88
1267.08
1312.29
1365
1423.12
1491.02
1565.41
1653.34
1749.22
1864.43
1989.26
2142.45
2307.09
2514.81
2736.03
3025.8
3332.74
3756.39
4211.36
4884.88
5634
6798
8098.79
10092.1
12122.3
14906.5
17121
19944.1
22197.1
25577.4
28876.5
26820.7
28587.8
20307.5
15410.1
13000.5
12376.1
11576.4
11085.8
9825.04
8757.83
7479.76
6575.48
5687.66
5069.27
4474.81
4052.44
3665.78
3400.01
3164.19
2998.47
2845.35
2728.63
2614.05
2513.81
2407.07
2300.08
2183.17
2062.54
1938.97
1819.24
1708.31
1608.92
1524.67
1452.43
1394.04
1342.17
1299.71
1257.46
1221.59
1181.45
1146.76
1104.96
1068.23
1023.24
981.295
933.609
888.061
825.838
382.759
396.576
432.01
510.445
648.801
838.361
1041.64
1216.45
1341.71
1414.93
1436.13
1405.79
1336.46
1256.43
1191.92
1154.51
1141.54
1147.1
1164.79
1191.89
1225.31
1265.59
1310.84
1363.58
1421.69
1489.57
1563.92
1651.79
1747.59
1862.69
1987.4
2140.42
2304.86
2512.31
2733.21
3022.53
3328.93
3751.83
4205.89
4878.32
5626.36
6789.53
8090.1
10084.5
12116.2
14902.4
17115.6
19937.5
22187.6
25590.9
28923.1
26924.7
28856.5
20627
15731.6
13280.3
12574
11693.9
11146.7
9852.81
8768.44
7482.2
6574.36
5685.23
5066.47
4471.95
4049.52
3662.9
3397.26
3161.71
2996.31
2843.55
2727.17
2612.97
2513.07
2406.64
2299.86
2183.06
2062.4
1938.71
1818.81
1707.73
1608.25
1524
1451.82
1393.58
1341.9
1299.64
1257.61
1221.97
1182.06
1147.65
1106.11
1069.73
1025.07
983.546
936.266
891.142
829.039
382.863
396.882
432.749
511.989
651.488
842.194
1046.18
1220.99
1345.64
1417.99
1438.33
1407.17
1336.89
1255.87
1190.58
1152.73
1139.62
1145.21
1163
1190.22
1223.74
1264.09
1309.39
1362.15
1420.26
1488.12
1562.42
1650.23
1745.95
1860.94
1985.53
2138.38
2302.62
2509.8
2730.38
3019.25
3325.11
3747.25
4200.4
4871.73
5618.68
6781.02
8081.37
10076.8
12110
14898.3
17110
19930.9
22177.8
25604.3
28969.6
27029.5
29130.2
20956
16065.5
13572.1
12780.9
11816.8
11210.1
9881.53
8779.27
7484.62
6573.16
5682.72
5063.59
4469.03
4046.56
3659.98
3394.48
3159.2
2994.12
2841.72
2725.7
2611.87
2512.33
2406.21
2299.64
2182.95
2062.26
1938.45
1818.38
1707.14
1607.57
1523.31
1451.21
1393.11
1341.61
1299.57
1257.76
1222.36
1182.68
1148.55
1107.28
1071.26
1026.92
985.824
938.959
894.27
832.294
382.968
397.192
433.495
513.544
654.189
846.042
1050.73
1225.54
1349.59
1421.07
1440.55
1408.56
1337.34
1255.32
1189.23
1150.95
1137.7
1143.31
1161.21
1188.53
1222.16
1262.58
1307.93
1360.71
1418.83
1486.65
1560.92
1648.66
1744.3
1859.19
1983.65
2136.33
2300.37
2507.28
2727.53
3015.96
3321.27
3742.66
4194.89
4865.11
5610.97
6772.46
8072.6
10069.1
12103.8
14894.2
17104.4
19924
22167.7
25617.4
29015.9
27135.3
29409.2
21295.2
16412.2
13876.8
12997.3
11945.2
11276.2
9911.27
8790.36
7487.03
6571.87
5680.13
5060.65
4466.05
4043.56
3657.02
3391.66
3156.66
2991.91
2839.87
2724.22
2610.76
2511.57
2405.77
2299.42
2182.83
2062.13
1938.19
1817.95
1706.55
1606.89
1522.62
1450.6
1392.64
1341.33
1299.5
1257.91
1222.75
1183.3
1149.46
1108.45
1072.79
1028.79
988.131
941.688
897.444
835.603
383.075
397.506
434.248
515.11
656.905
849.906
1055.29
1230.12
1353.57
1424.16
1442.79
1409.97
1337.8
1254.78
1187.9
1149.17
1135.77
1141.41
1159.4
1186.84
1220.57
1261.07
1306.47
1359.26
1417.38
1485.18
1559.41
1647.08
1742.65
1857.42
1981.76
2134.27
2298.12
2504.75
2724.68
3012.66
3317.42
3738.05
4189.36
4858.46
5603.23
6763.88
8063.79
10061.3
12097.6
14890.1
17098.8
19917.1
22157.3
25630.3
29062.1
27242.1
29693.7
21645
16772.5
14194.7
13223.6
12079.6
11345.1
9942.15
8801.76
7489.45
6570.52
5677.47
5057.65
4463.03
4040.51
3654.03
3388.81
3154.1
2989.68
2838.01
2722.72
2609.65
2510.81
2405.32
2299.2
2182.72
2061.99
1937.93
1817.51
1705.96
1606.2
1521.92
1449.98
1392.17
1341.05
1299.43
1258.06
1223.14
1183.93
1150.37
1109.64
1074.35
1030.68
990.466
944.455
900.666
838.969
383.183
397.824
435.008
516.688
659.635
853.785
1059.88
1234.71
1357.56
1427.27
1445.04
1411.39
1338.27
1254.25
1186.56
1147.38
1133.84
1139.5
1157.6
1185.15
1218.97
1259.54
1304.99
1357.81
1415.93
1483.71
1557.89
1645.5
1740.99
1855.65
1979.87
2132.2
2295.85
2502.21
2721.81
3009.34
3313.55
3733.43
4183.81
4851.79
5595.45
6755.25
8054.94
10053.5
12091.3
14885.9
17093.1
19910
22146.6
25642.9
29108.1
27349.8
29983.8
22006
17146.9
14526.7
13460.5
12220.4
11417.1
9974.25
8813.51
7491.9
6569.11
5674.75
5054.6
4459.97
4037.43
3651.01
3385.94
3151.52
2987.43
2836.14
2721.21
2608.52
2510.05
2404.88
2298.99
2182.61
2061.85
1937.66
1817.07
1705.36
1605.5
1521.22
1449.36
1391.69
1340.76
1299.36
1258.21
1223.53
1184.56
1151.29
1110.84
1075.92
1032.6
992.829
947.259
903.938
842.392
383.293
398.146
435.775
518.276
662.379
857.677
1064.47
1239.31
1361.57
1430.39
1447.3
1412.82
1338.75
1253.72
1185.22
1145.59
1131.9
1137.59
1155.78
1183.45
1217.37
1258.02
1303.52
1356.35
1414.47
1482.22
1556.37
1643.91
1739.32
1853.87
1977.96
2130.12
2293.58
2499.66
2718.94
3006.02
3309.67
3728.79
4178.24
4845.1
5587.65
6746.6
8046.07
10045.7
12085
14881.8
17087.3
19902.7
22135.7
25655.4
29154.1
27458.7
30279.9
22378.6
17536
14873.3
13708.4
12367.9
11492.4
10007.7
8825.65
7494.39
6567.65
5671.96
5051.49
4456.86
4034.32
3647.96
3383.04
3148.91
2985.17
2834.25
2719.7
2607.39
2509.28
2404.44
2298.77
2182.5
2061.72
1937.4
1816.63
1704.76
1604.8
1520.51
1448.73
1391.21
1340.47
1299.29
1258.37
1223.93
1185.2
1152.22
1112.05
1077.5
1034.53
995.223
950.101
907.26
845.874
383.405
398.472
436.55
519.876
665.136
861.584
1069.08
1243.93
1365.59
1433.53
1449.57
1414.26
1339.25
1253.2
1183.89
1143.8
1129.95
1135.67
1153.96
1181.74
1215.77
1256.48
1302.03
1354.89
1413.01
1480.73
1554.84
1642.31
1737.64
1852.08
1976.05
2128.04
2291.3
2497.1
2716.05
3002.68
3305.78
3724.14
4172.65
4838.38
5579.82
6737.91
8037.16
10037.9
12078.8
14877.6
17081.6
19895.4
22124.5
25667.7
29200
27568.6
30582
22763.4
17940.6
15235.1
13968.1
12522.5
11571.2
10042.5
8838.23
7496.95
6566.15
5669.13
5048.34
4453.72
4031.17
3644.88
3380.11
3146.29
2982.89
2832.35
2718.17
2606.25
2508.51
2403.99
2298.55
2182.4
2061.59
1937.14
1816.19
1704.15
1604.1
1519.79
1448.09
1390.72
1340.18
1299.21
1258.52
1224.33
1185.85
1153.16
1113.27
1079.1
1036.49
997.646
952.982
910.633
849.417
383.518
398.801
437.332
521.488
667.907
865.504
1073.7
1248.57
1369.63
1436.69
1451.85
1415.72
1339.76
1252.69
1182.56
1142
1128.01
1133.75
1152.14
1180.03
1214.16
1254.95
1300.54
1353.42
1411.54
1479.23
1553.3
1640.7
1735.95
1850.28
1974.13
2125.94
2289
2494.53
2713.16
2999.33
3301.88
3719.47
4167.05
4831.65
5571.96
6729.2
8028.22
10030.1
12072.5
14873.4
17075.7
19888
22113.1
25679.8
29245.9
27679.8
30890.5
23161
18361.2
15612.9
14240
12684.7
11653.8
10079
8851.3
7499.6
6564.62
5666.25
5045.15
4450.55
4028
3641.78
3377.17
3143.65
2980.6
2830.44
2716.64
2605.11
2507.74
2403.55
2298.34
2182.3
2061.46
1936.88
1815.75
1703.55
1603.39
1519.08
1447.46
1390.23
1339.88
1299.14
1258.68
1224.74
1186.5
1154.11
1114.5
1080.72
1038.46
1000.1
955.902
914.058
853.022
383.633
399.135
438.122
523.11
670.69
869.436
1078.34
1253.22
1373.68
1439.85
1454.15
1417.19
1340.28
1252.19
1181.23
1140.21
1126.05
1131.82
1150.31
1178.31
1212.54
1253.4
1299.05
1351.94
1410.06
1477.73
1551.75
1639.09
1734.26
1848.48
1972.2
2123.84
2286.71
2491.96
2710.25
2995.98
3297.97
3714.8
4161.43
4824.89
5564.08
6720.45
8019.26
10022.2
12066.1
14869.3
17069.9
19880.5
22101.4
25691.7
29291.6
27792.1
31205.6
23572
18798.7
16007.3
14524.8
12854.9
11740.4
10117.1
8864.9
7502.36
6563.07
5663.33
5041.93
4447.35
4024.8
3638.66
3374.21
3141
2978.29
2828.52
2715.1
2603.97
2506.97
2403.1
2298.13
2182.2
2061.34
1936.63
1815.31
1702.94
1602.68
1518.36
1446.81
1389.74
1339.59
1299.07
1258.84
1225.15
1187.16
1155.06
1115.74
1082.36
1040.46
1002.58
958.863
917.536
856.691
383.749
399.473
438.919
524.743
673.487
873.38
1082.98
1257.88
1377.75
1443.03
1456.45
1418.66
1340.81
1251.7
1179.9
1138.41
1124.1
1129.88
1148.47
1176.59
1210.91
1251.85
1297.54
1350.46
1408.58
1476.22
1550.2
1637.46
1732.56
1846.66
1970.26
2121.73
2284.4
2489.37
2707.34
2992.61
3294.05
3710.11
4155.79
4818.11
5556.17
6711.68
8010.27
10014.3
12059.8
14865.1
17064.1
19872.8
22089.6
25703.5
29337.4
27905.8
31527.6
23997.1
19253.5
16419.1
14823.2
13033.5
11831.2
10157
8879.1
7505.25
6561.52
5660.38
5038.67
4444.13
4021.59
3635.52
3371.23
3138.33
2975.98
2826.6
2713.56
2602.82
2506.2
2402.66
2297.93
2182.11
2061.22
1936.38
1814.87
1702.33
1601.97
1517.63
1446.17
1389.25
1339.29
1299
1259
1225.56
1187.82
1156.02
1117
1084.01
1042.48
1005.1
961.864
921.069
860.425
383.868
399.814
439.723
526.387
676.295
877.337
1087.64
1262.55
1381.83
1446.23
1458.77
1420.15
1341.35
1251.21
1178.58
1136.61
1122.13
1127.94
1146.63
1174.86
1209.28
1250.29
1296.03
1348.97
1407.09
1474.7
1548.64
1635.84
1730.85
1844.85
1968.32
2119.62
2282.08
2486.78
2704.42
2989.24
3290.12
3705.4
4150.14
4811.31
5548.24
6702.89
8001.26
10006.4
12053.5
14861
17058.2
19865.1
22077.4
25715.1
29383.1
28020.8
31856.7
24436.8
19726.6
16848.8
15135.7
13221.2
11926.6
10198.8
8893.95
7508.3
6559.98
5657.41
5035.4
4440.89
4018.36
3632.37
3368.24
3135.65
2973.65
2824.67
2712.01
2601.67
2505.42
2402.23
2297.73
2182.03
2061.11
1936.13
1814.43
1701.71
1601.25
1516.9
1445.52
1388.75
1339
1298.93
1259.16
1225.98
1188.49
1157
1118.27
1085.68
1044.53
1007.65
964.907
924.657
864.226
383.988
400.16
440.535
528.041
679.117
881.304
1092.31
1267.24
1385.93
1449.43
1461.1
1421.65
1341.9
1250.74
1177.26
1134.81
1120.17
1125.99
1144.78
1173.12
1207.65
1248.73
1294.52
1347.47
1405.59
1473.18
1547.07
1634.2
1729.14
1843.02
1966.37
2117.49
2279.76
2484.18
2701.49
2985.86
3286.18
3700.69
4144.48
4804.5
5540.29
6694.07
7992.23
9998.52
12047.2
14856.9
17052.4
19857.3
22065.1
25726.6
29428.9
28137.2
32193.1
24891.9
20218.6
17297.3
15463.1
13418.2
12026.8
10242.7
8909.5
7511.53
6558.46
5654.43
5032.11
4437.63
4015.11
3629.2
3365.24
3132.96
2971.33
2822.73
2710.46
2600.52
2504.65
2401.8
2297.54
2181.95
2061
1935.89
1813.99
1701.1
1600.53
1516.17
1444.87
1388.26
1338.7
1298.86
1259.33
1226.4
1189.16
1157.98
1119.55
1087.36
1046.59
1010.22
967.991
928.301
868.096
384.109
400.511
441.355
529.707
681.95
885.282
1096.98
1271.93
1390.03
1452.64
1463.43
1423.15
1342.47
1250.27
1175.95
1133
1118.2
1124.04
1142.93
1171.38
1206.01
1247.16
1293
1345.97
1404.09
1471.64
1545.5
1632.56
1727.42
1841.19
1964.41
2115.36
2277.43
2481.57
2698.56
2982.46
3282.23
3695.97
4138.81
4797.66
5532.31
6685.22
7983.18
9990.6
12040.9
14852.8
17046.5
19849.5
22052.6
25737.9
29474.7
28255
32537.2
25363.1
20730.3
17765.1
15806
13625.2
12132.2
10288.8
8925.82
7514.97
6556.96
5651.44
5028.8
4434.36
4011.86
3626.03
3362.23
3130.27
2968.99
2820.8
2708.91
2599.38
2503.89
2401.37
2297.36
2181.88
2060.91
1935.65
1813.56
1700.49
1599.81
1515.43
1444.22
1387.76
1338.41
1298.79
1259.5
1226.83
1189.85
1158.97
1120.84
1089.06
1048.68
1012.84
971.118
932.002
872.037
384.233
400.865
442.182
531.383
684.795
889.269
1101.67
1276.63
1394.15
1455.87
1465.77
1424.67
1343.04
1249.81
1174.63
1131.2
1116.23
1122.09
1141.07
1169.64
1204.36
1245.59
1291.47
1344.46
1402.58
1470.11
1543.92
1630.91
1725.69
1839.35
1962.44
2113.22
2275.09
2478.96
2695.61
2979.06
3278.27
3691.24
4133.12
4790.82
5524.32
6676.36
7974.11
9982.68
12034.6
14848.7
17040.7
19841.6
22039.9
25749.1
29520.5
28374.4
32889.2
25851.1
21262.4
18253.1
16165.1
13842.8
12242.9
10337.3
8942.97
7518.63
6555.51
5648.45
5025.49
4431.09
4008.6
3622.85
3359.21
3127.57
2966.66
2818.86
2707.36
2598.23
2503.13
2400.95
2297.18
2181.82
2060.81
1935.41
1813.13
1699.88
1599.09
1514.7
1443.56
1387.26
1338.11
1298.73
1259.67
1227.26
1190.53
1159.97
1122.15
1090.78
1050.79
1015.48
974.287
935.761
876.05
384.358
401.224
443.016
533.07
687.651
893.267
1106.36
1281.34
1398.27
1459.1
1468.12
1426.19
1343.63
1249.36
1173.32
1129.39
1114.25
1120.13
1139.21
1167.89
1202.71
1244.01
1289.94
1342.95
1401.06
1468.56
1542.33
1629.26
1723.95
1837.5
1960.47
2111.07
2272.75
2476.33
2692.66
2975.66
3274.3
3686.49
4127.42
4783.95
5516.3
6667.48
7965.03
9974.75
12028.3
14844.7
17034.9
19833.6
22027
25760.3
29566.3
28495.4
33249.5
26356.6
21815.8
18761.8
16541.1
14071.3
12359.5
10388.4
8961.02
7522.55
6554.12
5645.46
5022.18
4427.82
4005.34
3619.67
3356.19
3124.87
2964.32
2816.93
2705.82
2597.09
2502.37
2400.54
2297.02
2181.77
2060.73
1935.19
1812.7
1699.27
1598.36
1513.96
1442.91
1386.76
1337.81
1298.66
1259.85
1227.7
1191.23
1160.98
1123.46
1092.52
1052.93
1018.15
977.5
939.58
880.137
384.485
401.587
443.859
534.767
690.519
897.273
1111.05
1286.06
1402.41
1462.34
1470.47
1427.72
1344.22
1248.92
1172.02
1127.59
1112.27
1118.17
1137.35
1166.13
1201.06
1242.43
1288.41
1341.43
1399.54
1467.02
1540.74
1627.6
1722.21
1835.64
1958.49
2108.92
2270.4
2473.7
2689.7
2972.24
3270.33
3681.74
4121.7
4777.07
5508.27
6658.57
7955.92
9966.82
12022.1
14840.7
17029.1
19825.6
22014
25771.3
29612.2
28618
33618.3
26880.5
22391.1
19292.1
16934.7
14311.5
12482.1
10442.1
8980.03
7526.76
6552.79
5642.5
5018.87
4424.55
4002.07
3616.49
3353.18
3122.17
2961.99
2814.99
2704.27
2595.95
2501.62
2400.14
2296.86
2181.73
2060.66
1934.96
1812.27
1698.65
1597.64
1513.22
1442.25
1386.25
1337.52
1298.6
1260.03
1228.14
1191.93
1162
1124.79
1094.28
1055.08
1020.86
980.756
943.459
884.301
384.614
401.954
444.708
536.475
693.397
901.288
1115.76
1290.78
1406.55
1465.59
1472.83
1429.26
1344.83
1248.49
1170.72
1125.78
1110.29
1116.2
1135.47
1164.37
1199.4
1240.84
1286.86
1339.91
1398.01
1465.46
1539.14
1625.93
1720.47
1833.78
1956.51
2106.76
2268.04
2471.07
2686.74
2968.82
3266.35
3676.98
4115.98
4770.17
5500.22
6649.65
7946.81
9958.88
12015.8
14836.8
17023.4
19817.6
22000.8
25782.2
29658.3
28742.4
33996
27423.5
22989.1
19844.5
17346.7
14563.8
12611.2
10498.7
9000.08
7531.29
6551.55
5639.56
5015.57
4421.29
3998.82
3613.31
3350.16
3119.47
2959.65
2813.06
2702.73
2594.82
2500.88
2399.74
2296.71
2181.7
2060.59
1934.75
1811.85
1698.04
1596.91
1512.48
1441.59
1385.75
1337.22
1298.54
1260.21
1228.58
1192.64
1163.03
1126.13
1096.05
1057.26
1023.61
984.057
947.4
888.543
384.745
402.326
445.566
538.194
696.287
905.31
1120.47
1295.51
1410.7
1468.84
1475.19
1430.8
1345.44
1248.06
1169.42
1123.97
1108.3
1114.23
1133.6
1162.61
1197.73
1239.24
1285.32
1338.38
1396.48
1463.9
1537.54
1624.25
1718.71
1831.92
1954.51
2104.59
2265.68
2468.42
2683.76
2965.39
3262.36
3672.21
4110.24
4763.26
5492.14
6640.71
7937.68
9950.95
12009.6
14832.9
17017.7
19809.5
21987.4
25793.1
29704.4
28868.6
34383
27986.5
23610.7
20419.8
17777.6
14828.9
12747.1
10558.3
9021.24
7536.16
6550.4
5636.65
5012.29
4418.03
3995.57
3610.14
3347.14
3116.78
2957.33
2811.14
2701.2
2593.7
2500.14
2399.36
2296.57
2181.68
2060.54
1934.54
1811.44
1697.44
1596.19
1511.73
1440.92
1385.25
1336.93
1298.48
1260.4
1229.04
1193.36
1164.07
1127.49
1097.84
1059.47
1026.38
987.402
951.403
892.865
384.878
402.703
446.432
539.923
699.187
909.34
1125.18
1300.24
1414.85
1472.1
1477.56
1432.35
1346.07
1247.64
1168.12
1122.17
1106.31
1112.25
1131.72
1160.84
1196.06
1237.64
1283.76
1336.84
1394.94
1462.33
1535.93
1622.57
1716.95
1830.04
1952.51
2102.42
2263.3
2465.77
2680.79
2961.96
3258.36
3667.43
4104.5
4756.33
5484.06
6631.75
7928.53
9943.01
12003.4
14829.1
17012
19801.5
21973.9
25803.9
29750.7
28996.6
34779.4
28570.4
24256.7
21018.5
18228.3
15107.4
12890.2
10621.1
9043.59
7541.4
6549.36
5633.78
5009.03
4414.8
3992.34
3606.98
3344.14
3114.09
2955
2809.22
2699.68
2592.58
2499.41
2398.99
2296.45
2181.68
2060.49
1934.34
1811.02
1696.83
1595.46
1510.99
1440.26
1384.75
1336.64
1298.43
1260.59
1229.49
1194.08
1165.11
1128.86
1099.65
1061.7
1029.19
990.793
955.469
897.269
385.013
403.084
447.305
541.662
702.097
913.377
1129.89
1304.98
1419.01
1475.36
1479.93
1433.9
1346.7
1247.24
1166.83
1120.36
1104.32
1110.27
1129.83
1159.06
1194.38
1236.04
1282.21
1335.3
1393.4
1460.76
1534.31
1620.88
1715.18
1828.16
1950.51
2100.24
2260.93
2463.12
2677.8
2958.51
3254.36
3662.64
4098.74