/*--------------------------------*- C++ -*----------------------------------*\
| =========                 |                                                 |
| \\      /  F ield         | OpenFOAM: The Open Source CFD Toolbox           |
|  \\    /   O peration     | Version:  2412                                  |
|   \\  /    A nd           | Website:  www.openfoam.com                      |
|    \\/     M anipulation  |                                                 |
\*---------------------------------------------------------------------------*/
FoamFile
{
    version     2.0;
    format      ascii;
    arch        "LSB;label=32;scalar=64";
    class       volScalarField;
    location    "0.6";
    object      k;
}
// * * * * * * * * * * * * * * * * * * * * * * * * * * * * * * * * * * * * * //

dimensions      [0 2 -2 0 0 0 0];

internalField   nonuniform List<scalar> 
12960
(
37.851
38.8546
41.174
45.5448
52.0086
59.3897
65.9276
70.4778
72.9953
73.9363
73.6683
72.5082
70.9491
69.6122
68.851
68.6953
68.9662
69.5462
70.326
71.3068
72.4284
73.7421
75.1827
76.8435
78.6324
80.6967
82.8943
85.4527
88.1461
91.3265
94.6326
98.6149
102.694
107.743
112.829
119.354
125.841
134.575
143.288
155.676
168.152
186.289
204.096
229.199
251.171
279.34
298.72
323.968
342.64
367.194
386.704
354.203
348.687
251.532
197.038
187.714
206.695
213.747
217.259
205.203
194.59
178.762
167.821
155.276
146.658
137.294
130.839
124.32
119.949
115.612
112.574
109.478
107.086
104.52
102.2
99.5926
96.9531
94.047
91.0957
88.1025
85.2307
82.5651
80.1394
78.0386
76.1513
74.5612
73.0436
71.7395
70.3528
69.1262
67.6925
66.3999
64.8083
63.3343
61.5249
59.7591
57.7508
55.7994
53.2797
37.8569
38.8732
41.2167
45.6238
52.1254
59.5272
66.0565
70.5712
73.0413
73.94
73.6433
72.4654
70.8936
69.548
68.7838
68.6305
68.9065
69.4919
70.2767
71.2615
72.3861
73.7021
75.1442
76.8058
78.5951
80.6592
82.8564
85.4138
88.1061
91.2847
94.5888
98.5684
102.645
107.689
112.771
119.288
125.768
134.493
143.195
155.574
168.044
186.181
203.997
229.123
251.116
279.307
298.672
323.927
342.606
367.372
387.13
355.048
350.492
253.561
198.74
188.944
207.514
214.255
217.557
205.367
194.67
178.792
167.82
155.259
146.633
137.264
130.805
124.283
119.913
115.578
112.545
109.454
107.067
104.507
102.192
99.5892
96.9519
94.0458
91.0923
88.0957
85.2203
82.552
80.1254
78.0254
76.1407
74.5545
73.0418
71.7432
70.3622
69.1421
67.715
66.4307
64.8471
63.3839
61.5845
59.8309
57.8348
55.8948
53.3769
37.8629
38.8919
41.2595
45.703
52.2425
59.6649
66.1856
70.665
73.0878
73.944
73.6186
72.423
70.8383
69.4839
68.7167
68.5657
68.8467
69.4377
70.2275
71.2162
72.344
73.6622
75.1059
76.7683
78.558
80.6219
82.8186
85.375
88.0662
91.2431
94.5453
98.5221
102.595
107.635
112.712
119.223
125.695
134.411
143.103
155.472
167.935
186.073
203.897
229.048
251.062
279.274
298.624
323.888
342.572
367.551
387.557
355.9
352.316
255.616
200.471
190.196
208.345
214.767
217.855
205.53
194.751
178.82
167.818
155.242
146.608
137.234
130.77
124.246
119.876
115.545
112.516
109.429
107.048
104.494
102.185
99.5862
96.951
94.0449
91.0893
88.0893
85.2102
82.5392
80.1114
78.0123
76.1302
74.548
73.0402
71.7471
70.3719
69.1584
67.738
66.4621
64.8866
63.4343
61.645
59.9038
57.92
55.9917
53.4755
37.869
38.9108
41.3027
45.7827
52.3599
59.8029
66.3149
70.7591
73.1345
73.9483
73.594
72.3805
70.7829
69.4196
68.6493
68.5006
68.7868
69.3833
70.178
71.1708
72.3018
73.6221
75.0674
76.7306
78.5207
80.5844
82.7807
85.3361
88.0262
91.2013
94.5015
98.4756
102.546
107.581
112.653
119.158
125.622
134.328
143.009
155.369
167.825
185.964
203.798
228.972
251.008
279.241
298.576
323.847
342.536
367.729
387.985
356.756
354.158
257.698
202.232
191.47
209.186
215.283
218.154
205.692
194.829
178.847
167.815
155.224
146.582
137.203
130.735
124.209
119.839
115.511
112.485
109.404
107.029
104.481
102.177
99.5831
96.9502
94.0441
91.0862
88.0827
85.1999
82.5262
80.0974
77.9991
76.1196
74.5415
73.0385
71.751
70.3817
69.1749
67.7612
66.4937
64.9265
63.4851
61.7061
59.9776
58.0062
56.0899
53.5755
37.8752
38.9299
41.3461
45.8627
52.4777
59.9411
66.4445
70.8534
73.1815
73.9526
73.5693
72.3378
70.7273
69.355
68.5817
68.4353
68.7266
69.3286
70.1284
71.1252
72.2593
73.5819
75.0286
76.6927
78.4832
80.5467
82.7425
85.2969
87.9858
91.1592
94.4575
98.4288
102.496
107.527
112.594
119.092
125.549
134.245
142.916
155.266
167.715
185.855
203.697
228.895
250.952
279.208
298.527
323.804
342.496
367.905
388.411
357.615
356.017
259.806
204.022
192.767
210.038
215.802
218.452
205.853
194.906
178.872
167.81
155.203
146.555
137.171
130.698
124.17
119.801
115.476
112.455
109.379
107.009
104.468
102.169
99.5798
96.9492
94.0431
91.0831
88.0761
85.1895
82.5129
80.083
77.9856
76.1088
74.5347
73.0367
71.7549
70.3915
69.1914
67.7845
66.5256
64.9666
63.5364
61.7678
60.0522
58.0935
56.1893
53.6768
37.8814
38.9492
41.3899
45.9431
52.596
60.0798
66.5743
70.9479
73.2287
73.957
73.5445
72.2949
70.6714
69.2901
68.5137
68.3696
68.666
69.2737
70.0784
71.0793
72.2165
73.5413
74.9896
76.6545
78.4454
80.5087
82.7041
85.2575
87.9452
91.1168
94.4131
98.3816
102.445
107.472
112.534
119.026
125.474
134.161
142.821
155.162
167.603
185.744
203.595
228.817
250.896
279.173
298.476
323.759
342.454
368.079
388.835
358.478
357.894
261.941
205.844
194.089
210.901
216.325
218.749
206.011
194.98
178.895
167.803
155.181
146.526
137.137
130.66
124.13
119.762
115.44
112.423
109.352
106.989
104.454
102.161
99.5762
96.948
94.042
91.0797
88.0692
85.1788
82.4994
80.0684
77.9719
76.0978
74.5278
73.0348
71.7587
70.4012
69.208
67.8079
66.5576
65.0071
63.5881
61.8301
60.1275
58.1817
56.2899
53.7793
37.8877
38.9686
41.4341
46.024
52.7146
60.2187
66.7044
71.0427
73.276
73.9614
73.5195
72.2517
70.6152
69.2248
68.4453
68.3036
68.6051
69.2184
70.0282
71.0331
72.1735
73.5005
74.9504
76.616
78.4073
80.4704
82.6653
85.2177
87.9042
91.074
94.3684
98.334
102.394
107.417
112.474
118.959
125.4
134.077
142.726
155.057
167.491
185.632
203.492
228.738
250.839
279.136
298.423
323.712
342.408
368.251
389.258
359.344
359.789
264.104
207.698
195.437
211.777
216.852
219.047
206.168
195.052
178.915
167.794
155.158
146.495
137.102
130.621
124.09
119.722
115.404
112.391
109.326
106.968
104.439
102.153
99.5723
96.9465
94.0407
91.0761
88.062
85.1678
82.4855
80.0534
77.9578
76.0864
74.5206
73.0327
71.7623
70.4109
69.2245
67.8314
66.5899
65.0478
63.6403
61.8929
60.2037
58.2709
56.3917
53.8831
37.8941
38.9882
41.4785
46.1054
52.8337
60.3579
66.8347
71.1378
73.3236
73.9659
73.4944
72.2083
70.5587
69.1592
68.3766
68.2372
68.5439
69.1628
69.9776
70.9866
72.1301
73.4594
74.9108
76.5773
78.3689
80.4317
82.6262
85.1775
87.8629
91.0309
94.3233
98.2861
102.343
107.362
112.413
118.892
125.324
133.992
142.63
154.951
167.378
185.519
203.388
228.658
250.78
279.099
298.369
323.662
342.358
368.42
389.679
360.214
361.701
266.296
209.587
196.812
212.666
217.384
219.344
206.323
195.122
178.934
167.783
155.132
146.463
137.066
130.581
124.048
119.681
115.366
112.358
109.298
106.947
104.425
102.144
99.5682
96.9448
94.0391
91.0724
88.0546
85.1565
82.4714
80.0381
77.9434
76.0748
74.5132
73.0304
71.7659
70.4205
69.2411
67.855
66.6223
65.0888
63.6929
61.9563
60.2806
58.3612
56.4948
53.9883
37.9006
39.0081
41.5233
46.1871
52.9531
60.4975
66.9652
71.233
73.3714
73.9704
73.469
72.1646
70.5018
69.0933
68.3074
68.1704
68.4823
69.1068
69.9268
70.9399
72.0865
73.418
74.871
76.5382
78.3302
80.3928
82.5868
85.1371
87.8213
90.9874
94.2778
98.2377
102.292
107.306
112.352
118.824
125.249
133.906
142.533
154.844
167.263
185.405
203.282
228.577
250.72
279.061
298.313
323.61
342.305
368.586
390.098
361.087
363.632
268.517
211.511
198.216
213.569
217.92
219.641
206.476
195.19
178.95
167.769
155.105
146.429
137.028
130.539
124.005
119.639
115.328
112.324
109.27
106.925
104.409
102.135
99.5637
96.943
94.0374
91.0684
88.047
85.145
82.4569
80.0225
77.9287
76.063
74.5056
73.028
71.7693
70.4301
69.2577
67.8787
66.6549
65.1301
63.7459
62.0203
60.3583
58.4525
56.5991
54.0948
37.9071
39.0281
41.5684
46.2692
53.073
60.6372
67.096
71.3285
73.4193
73.9749
73.4436
72.1206
70.4447
69.027
68.238
68.1033
68.4204
69.0506
69.8756
70.8928
72.0426
73.3764
74.8309
76.4989
78.2912
80.3536
82.5471
85.0963
87.7793
90.9436
94.232
98.189
102.24
107.249
112.291
118.756
125.172
133.82
142.436
154.736
167.148
185.291
203.176
228.495
250.66
279.021
298.255
323.556
342.249
368.75
390.515
361.963
365.582
270.77
213.472
199.651
214.488
218.463
219.939
206.628
195.256
178.964
167.754
155.076
146.394
136.989
130.497
123.96
119.596
115.289
112.29
109.241
106.902
104.394
102.125
99.559
96.9409
94.0355
91.0643
88.0392
85.1332
82.4422
80.0066
77.9138
76.0509
74.4978
73.0254
71.7727
70.4397
69.2744
67.9025
66.6877
65.1717
63.7993
62.0849
60.4369
58.5448
56.7048
54.2028
37.9137
39.0483
41.6138
46.3518
53.1932
60.7773
67.2269
71.4242
73.4674
73.9794
73.4179
72.0763
70.3872
68.9603
68.1681
68.0358
68.3582
68.994
69.8242
70.8455
71.9985
73.3344
74.7905
76.4593
78.252
80.3141
82.5071
85.0553
87.737
90.8994
94.1858
98.1399
102.187
107.192
112.229
118.687
125.095
133.733
142.337
154.627
167.031
185.175
203.069
228.412
250.598
278.981
298.196
323.499
342.19
368.911
390.93
362.843
367.551
273.055
215.472
201.118
215.423
219.011
220.238
206.779
195.319
178.975
167.737
155.045
146.358
136.948
130.453
123.915
119.553
115.249
112.254
109.212
106.879
104.378
102.115
99.5541
96.9386
94.0334
91.06
88.0312
85.1212
82.4272
79.9905
77.8985
76.0385
74.4898
73.0227
71.776
70.4493
69.2911
67.9264
66.7207
65.2136
63.8533
62.1501
60.5164
58.6383
56.8118
54.3122
37.9205
39.0687
41.6595
46.4347
53.3137
60.9175
67.3579
71.52
73.5157
73.9839
73.392
72.0317
70.3294
68.8933
68.0979
67.968
68.2956
68.9372
69.7724
70.7979
71.9541
73.2922
74.7498
76.4195
78.2125
80.2743
82.4667
85.0139
87.6944
90.855
94.1393
98.0905
102.135
107.135
112.166
118.617
125.018
133.645
142.238
154.518
166.914
185.058
202.961
228.329
250.536
278.939
298.135
323.44
342.127
369.07
391.343
363.726
369.541
275.373
217.513
202.618
216.375
219.567
220.538
206.928
195.381
178.985
167.719
155.013
146.32
136.907
130.408
123.869
119.508
115.208
112.219
109.182
106.856
104.361
102.105
99.549
96.9362
94.0313
91.0556
88.023
85.1089
82.4119
79.974
77.883
76.0259
74.4816
73.0199
71.7792
70.4588
69.3078
67.9505
66.7539
65.2558
63.9077
62.2159
60.5967
58.7328
56.9201
54.4231
37.9272
39.0893
41.7056
46.518
53.4346
61.0579
67.4891
71.616
73.5642
73.9885
73.366
71.9869
70.2713
68.826
68.0273
67.8998
68.2327
68.88
69.7204
70.75
71.9094
73.2498
74.7089
76.3793
78.1727
80.2343
82.4262
84.9722
87.6515
90.8102
94.0924
98.0408
102.082
107.078
112.103
118.548
124.94
133.557
142.139
154.408
166.796
184.94
202.851
228.244
250.473
278.897
298.073
323.38
342.061
369.227
391.755
364.614
371.55
277.726
219.597
204.155
217.347
220.13
220.839
207.077
195.441
178.993
167.698
154.979
146.28
136.864
130.362
123.822
119.462
115.166
112.182
109.152
106.832
104.344
102.095
99.5437
96.9337
94.029
91.051
88.0147
85.0965
82.3964
79.9573
77.8673
76.0131
74.4732
73.0169
71.7824
70.4684
69.3246
67.9747
66.7874
65.2984
63.9625
62.2824
60.6778
58.8285
57.0299
54.5355
37.9341
39.1101
41.752
46.6017
53.5557
61.1986
67.6205
71.7122
73.6128
73.993
73.3398
71.9417
70.2128
68.7583
67.9564
67.8313
68.1695
68.8226
69.6682
70.7018
71.8644
73.2071
74.6677
76.3389
78.1326
80.1939
82.3853
84.9303
87.6083
90.7651
94.0453
97.9907
102.028
107.02
112.04
118.478
124.861
133.468
142.038
154.297
166.677
184.821
202.741
228.159
250.409
278.853
298.009
323.317
341.991
369.382
392.164
365.505
373.581
280.115
221.725
205.729
218.338
220.702
221.142
207.225
195.499
178.999
167.675
154.944
146.24
136.821
130.315
123.774
119.416
115.124
112.145
109.121
106.808
104.327
102.084
99.5382
96.931
94.0266
91.0463
88.0062
85.0838
82.3806
79.9403
77.8513
76.0001
74.4647
73.0139
71.7855
70.4779
69.3415
67.999
66.8211
65.3413
64.0179
62.3495
60.7599
58.9253
57.1411
54.6495
37.9411
39.1311
41.7986
46.6857
53.6772
61.3393
67.7519
71.8086
73.6616
73.9976
73.3134
71.8962
70.1541
68.6903
67.8851
67.7624
68.1059
68.7649
69.6156
70.6534
71.8192
73.1641
74.6263
76.2983
78.0923
80.1533
82.3442
84.8881
87.5648
90.7197
93.9978
97.9402
101.975
106.961
111.976
118.407
124.782
133.379
141.937
154.185
166.557
184.701
202.63
228.073
250.344
278.809
297.945
323.252
341.919
369.534
392.572
366.401
375.633
282.542
223.9
207.343
219.352
221.283
221.448
207.372
195.556
179.003
167.651
154.907
146.198
136.776
130.268
123.725
119.368
115.081
112.107
109.089
106.783
104.31
102.073
99.5325
96.9282
94.0241
91.0415
87.9975
85.071
82.3646
79.9231
77.8351
75.9869
74.456
73.0107
71.7885
70.4875
69.3585
68.0235
66.855
65.3845
64.0738
62.4173
60.843
59.0233
57.2537
54.7651
37.9481
39.1523
41.8456
46.7702
53.7989
61.4802
67.8834
71.9051
73.7105
74.0022
73.2868
71.8505
70.095
68.6219
67.8135
67.6932
68.0421
68.7068
69.5628
70.6048
71.7737
73.1209
74.5846
76.2573
78.0517
80.1125
82.3027
84.8455
87.5211
90.6741
93.9501
97.8895
101.921
106.903
111.912
118.336
124.703
133.289
141.836
154.073
166.436
184.581
202.519
227.986
250.279
278.765
297.879
323.185
341.844
369.683
392.978
367.301
377.708
285.008
226.123
208.999
220.388
221.875
221.757
207.519
195.611
179.005
167.625
154.869
146.155
136.73
130.219
123.675
119.32
115.037
112.069
109.058
106.758
104.292
102.062
99.5267
96.9254
94.0216
91.0367
87.9888
85.058
82.3484
79.9057
77.8186
75.9735
74.4472
73.0075
71.7916
70.4971
69.3755
68.0481
66.8892
65.4281
64.1302
62.4858
60.9269
59.1225
57.3678
54.8823
37.9553
39.1736
41.893
46.8549
53.9209
61.6212
68.015
72.0017
73.7596
74.0068
73.26
71.8044
70.0356
68.5533
67.7416
67.6237
67.978
68.6485
69.5097
70.5558
71.728
73.0774
74.5426
76.2162
78.0108
80.0713
82.2611
84.8028
87.477
90.6281
93.902
97.8385
101.866
106.844
111.848
118.265
124.623
133.199
141.734
153.96
166.315
184.459
202.406
227.898
250.213
278.719
297.812
323.117
341.765
369.831
393.383
368.206
379.806
287.515
228.396
210.698
221.448
222.477
222.068
207.667
195.665
179.006
167.598
154.829
146.111
136.683
130.169
123.625
119.272
114.993
112.031
109.025
106.733
104.274
102.051
99.5208
96.9224
94.019
91.0318
87.9799
85.0448
82.3321
79.8881
77.802
75.96
74.4382
73.0042
71.7946
70.5067
69.3927
68.0729
66.9237
65.4721
64.1872
62.555
61.0118
59.2229
57.4835
55.0013
37.9625
39.1952
41.9406
46.94
54.0431
61.7623
68.1466
72.0984
73.8088
74.0114
73.233
71.758
69.9759
68.4843
67.6693
67.5539
67.9135
68.59
69.4563
70.5066
71.6821
73.0337
74.5004
76.1748
77.9697
80.03
82.2191
84.7597
87.4327
90.5819
93.8537
97.7872
101.811
106.784
111.783
118.193
124.543
133.109
141.631
153.846
166.192
184.337
202.293
227.81
250.146
278.673
297.743
323.046
341.684
369.977
393.786
369.115
381.927
290.064
230.722
212.444
222.535
223.092
222.384
207.814
195.718
179.005
167.569
154.789
146.066
136.635
130.119
123.573
119.222
114.948
111.991
108.993
106.707
104.256
102.039
99.5148
96.9195
94.0164
91.0268
87.971
85.0315
82.3155
79.8702
77.7851
75.9462
74.4292
73.0008
71.7976
70.5164
69.41
68.0979
66.9584
65.5165
64.2447
62.6249
61.0977
59.3246
57.6006
55.122
37.9698
39.217
41.9885
47.0254
54.1655
61.9035
68.2782
72.1952
73.8581
74.0161
73.2057
71.7113
69.9158
68.415
67.5967
67.4837
67.8488
68.5311
69.4027
70.4572
71.6359
72.9897
74.458
76.1331
77.9284
79.9883
82.177
84.7164
87.3881
90.5354
93.8051
97.7356
101.757
106.725
111.718
118.121
124.462
133.017
141.528
153.732
166.07
184.215
202.179
227.722
250.079
278.626
297.674
322.974
341.599
370.12
394.187
370.03
384.072
292.656
233.103
214.237
223.649
223.719
222.703
207.962
195.769
179.003
167.539
154.747
146.02
136.587
130.067
123.521
119.172
114.903
111.952
108.96
106.681
104.237
102.027
99.5087
96.9165
94.0138
91.0218
87.962
85.0181
82.2988
79.8522
77.7681
75.9323
74.42
72.9973
71.8006
70.5261
69.4273
68.1231
66.9935
65.5612
64.3027
62.6955
61.1846
59.4275
57.7194
55.2444
37.9772
39.239
42.0367
47.1112
54.2882
62.0447
68.4099
72.2921
73.9076
74.0207
73.1783
71.6643
69.8555
68.3453
67.5238
67.4132
67.7837
68.472
69.3488
70.4075
71.5894
72.9455
74.4154
76.0912
77.8868
79.9465
82.1345
84.6729
87.3433
90.4886
93.7562
97.6837
101.701
106.665
111.653
118.048
124.382
132.926
141.424
153.617
165.946
184.091
202.064
227.632
250.012
278.579
297.604
322.9
341.512
370.262
394.587
370.949
386.242
295.295
235.54
216.081
224.792
224.36
223.028
208.111
195.82
178.999
167.507
154.703
145.973
136.538
130.015
123.469
119.122
114.857
111.912
108.926
106.655
104.218
102.016
99.5026
96.9135
94.0111
91.0168
87.9529
85.0046
82.2819
79.834
77.7509
75.9183
74.4107
72.9938
71.8035
70.5359
69.4448
68.1485
67.0288
65.6064
64.3613
62.7669
61.2725
59.5317
57.8398
55.3687
37.9847
39.2612
42.0853
47.1972
54.4111
62.186
68.5415
72.389
73.9572
74.0253
73.1507
71.617
69.7948
68.2754
67.4505
67.3424
67.7184
68.4126
69.2947
70.3576
71.5427
72.9011
74.3725
76.0491
77.845
79.9043
82.0918
84.629
87.2982
90.4416
93.7071
97.6316
101.646
106.605
111.587
117.976
124.3
132.834
141.32
153.501
165.822
183.967
201.949
227.543
249.944
278.532
297.533
322.825
341.422
370.401
394.985
371.875
388.438
297.981
238.037
217.977
225.967
225.017
223.358
208.261
195.87
178.994
167.475
154.659
145.925
136.487
129.963
123.416
119.071
114.811
111.871
108.893
106.628
104.2
102.004
99.4964
96.9105
94.0086
91.0118
87.9438
84.991
82.2649
79.8156
77.7335
75.9041
74.4013
72.9903
71.8065
70.5458
69.4625
68.174
67.0644
65.6519
64.4205
62.839
61.3614
59.6372
57.9618
55.4948
37.9923
39.2836
42.1341
47.2836
54.5341
62.3273
68.6731
72.486
74.0069
74.0299
73.1229
71.5694
69.7338
68.2051
67.377
67.2713
67.6528
68.3529
69.2403
70.3075
71.4958
72.8565
74.3293
76.0067
77.803
79.862
82.0489
84.585
87.2529
90.3943
93.6577
97.5791
101.59
106.544
111.522
117.903
124.219
132.741
141.215
153.385
165.697
183.842
201.833
227.452
249.875
278.484
297.461
322.748
341.33
370.539
395.382
372.806
390.66
300.716
240.595
219.929
227.174
225.69
223.693
208.413
195.919
178.988
167.44
154.614
145.876
136.437
129.909
123.362
119.019
114.764
111.83
108.859
106.602
104.181
101.992
99.4902
96.9075
94.006
91.0068
87.9346
84.9772
82.2477
79.7971
77.716
75.8898
74.3919
72.9867
71.8096
70.5557
69.4802
68.1998
67.1003
65.6979
64.4802
62.9118
61.4514
59.744
58.0855
55.6228
38
39.3062
42.1833
47.3703
54.6573
62.4685
68.8046
72.583
74.0566
74.0344
73.0949
71.5215
69.6725
68.1345
67.3031
67.1999
67.5869
68.293
69.1857
70.2571
71.4487
72.8116
74.286
75.9641
77.7607
79.8194
82.0058
84.5407
87.2073
90.3468
93.6081
97.5265
101.534
106.483
111.455
117.829
124.137
132.649
141.11
153.268
165.571
183.717
201.716
227.362
249.806
278.435
297.388
322.67
341.235
370.675
395.778
373.743
392.91
303.503
243.216
221.937
228.417
226.38
224.036
208.567
195.968
178.98
167.405
154.568
145.827
136.385
129.856
123.307
118.967
114.717
111.789
108.825
106.575
104.161
101.98
99.484
96.9046
94.0035
91.0018
87.9254
84.9635
82.2304
79.7784
77.6984
75.8754
74.3823
72.9831
71.8126
70.5657
69.4981
68.2258
67.1365
65.7442
64.5406
62.9854
61.5424
59.8522
58.2109
55.7528
38.0077
39.329
42.2327
47.4573
54.7807
62.6098
68.936
72.6801
74.1065
74.039
73.0666
71.4732
69.6109
68.0637
67.2289
67.1282
67.5208
68.2328
69.1308
70.2064
71.4013
72.7665
74.2424
75.9213
77.7182
79.7766
81.9624
84.4962
87.1615
90.299
93.5582
97.4736
101.478
106.422
111.389
117.755
124.054
132.556
141.005
153.151
165.445
183.591
201.6
227.271
249.737
278.387
297.315
322.59
341.137
370.809
396.173
374.687
395.187
306.342
245.904
224.006
229.696
227.089
224.386
208.722
196.017
178.972
167.369
154.521
145.777
136.333
129.801
123.252
118.914
114.669
111.748
108.79
106.548
104.142
101.968
99.4779
96.9017
94.0011
90.9969
87.9163
84.9496
82.2131
79.7596
77.6806
75.8609
74.3727
72.9794
71.8156
70.5758
69.5162
68.252
67.173
65.791
64.6015
63.0598
61.6345
59.9618
58.338
55.8847
38.0156
39.352
42.2825
47.5445
54.9041
62.751
69.0674
72.7771
74.1564
74.0435
73.0381
71.4246
69.5489
67.9925
67.1544
67.0563
67.4543
68.1723
69.0757
70.1556
71.3537
72.7211
74.1986
75.8783
77.6754
79.7335
81.9188
84.4514
87.1154
90.251
93.5081
97.4204
101.421
106.361
111.322
117.682
123.972
132.462
140.899
153.034
165.319
183.464
201.482
227.179
249.668
278.338
297.241
322.509
341.037
370.941
396.567
375.637
397.493
309.238
248.66
226.136
231.013
227.818
224.743
208.881
196.066
178.963
167.332
154.473
145.726
136.281
129.746
123.197
118.861
114.621
111.706
108.756
106.521
104.123
101.956
99.4717
96.8989
93.9987
90.992
87.9071
84.9357
82.1956
79.7407
77.6627
75.8463
74.363
72.9758
71.8187
70.586
69.5344
68.2784
67.2098
65.8382
64.663
63.1349
61.7276
60.0727
58.4668
56.0187
38.0236
39.3753
42.3325
47.6321
55.0278
62.8921
69.1986
72.8741
74.2064
74.048
73.0094
71.3757
69.4867
67.921
67.0796
66.984
67.3876
68.1117
69.0204
70.1045
71.3059
72.6756
74.1546
75.835
77.6325
79.6903
81.8749
84.4064
87.0692
90.2028
93.4578
97.3671
101.364
106.299
111.255
117.607
123.889
132.368
140.792
152.915
165.191
183.337
201.364
227.088
249.598
278.289
297.166
322.426
340.935
371.072
396.96
376.595
399.829
312.19
251.486
228.331
232.372
228.569
225.11
209.042
196.115
178.953
167.294
154.425
145.674
136.228
129.691
123.141
118.807
114.573
111.664
108.721
106.493
104.104
101.944
99.4657
96.8962
93.9965
90.9872
87.898
84.9218
82.178
79.7216
77.6447
75.8316
74.3533
72.9721
71.8219
70.5962
69.5527
68.305
67.247
65.8859
64.7252
63.2109
61.8219
60.185
58.5975
56.1548
38.0317
39.3987
42.3829
47.7199
55.1515
63.0331
69.3297
72.9711
74.2564
74.0525
72.9805
71.3265
69.4241
67.8492
67.0045
66.9114
67.3207
68.0507
68.9648
70.0532
71.2579
72.6298
74.1103
75.7916
77.5893
79.6468
81.8308
84.3612
87.0227
90.1543
93.4072
97.3134
101.307
106.238
111.188
117.533
123.805
132.274
140.685
152.797
165.064
183.209
201.246
226.996
249.529
278.24
297.091
322.343
340.83
371.202
397.352
377.559
402.195
315.202
254.386
230.593
233.774
229.342
225.486
209.206
196.164
178.943
167.255
154.376
145.623
136.174
129.635
123.085
118.754
114.525
111.622
108.686
106.466
104.084
101.932
99.4597
96.8936
93.9944
90.9825
87.8889
84.9078
82.1604
79.7025
77.6265
75.8168
74.3435
72.9685
71.8251
70.6066
69.5712
68.3319
67.2845
65.9339
64.7879
63.2876
61.9173
60.2987
58.7299
56.2929
38.0398
39.4224
42.4335
47.808
55.2753
63.1741
69.4606
73.0679
74.3064
74.0569
72.9514
71.2769
69.3612
67.7772
66.9292
66.8386
67.2534
67.9896
68.909
70.0017
71.2096
72.5838
74.0659
75.7479
77.5459
79.603
81.7866
84.3158
86.9759
90.1057
93.3564
97.2596
101.25
106.176
111.12
117.458
123.722
132.18
140.578
152.678
164.935
183.081
201.127
226.903
249.459
278.191
297.016
322.258
340.724
371.33
397.744
378.531
404.593
318.276
257.362
232.925
235.22
230.139
225.872
209.375
196.214
178.932
167.216
154.326
145.57
136.12
129.579
123.029
118.7
114.476
111.58
108.651
106.438
104.065
101.92
99.4538
96.8912
93.9924
90.9779
87.8798
84.8938
82.1427
79.6833
77.6083
75.8019
74.3337
72.9648
71.8283
70.6171
69.5899
68.359
67.3223
65.9825
64.8513
63.3652
62.0137
60.4139
58.8642
56.4333
38.0481
39.4463
42.4845
47.8964
55.3992
63.3149
69.5913
73.1647
74.3565
74.0612
72.922
71.227
69.298
67.7048
66.8535
66.7655
67.1859
67.9282
68.853
69.9499
71.1611
72.5376
74.0212
75.704
77.5023
79.5591
81.7421
84.2701
86.929
90.0568
93.3054
97.2056
101.193
106.113
111.053
117.383
123.638
132.085
140.471
152.558
164.807
182.952
201.008
226.811
249.389
278.142
296.94
322.172
340.615
371.457
398.135
379.512
407.022
321.414
260.415
235.328
236.714
230.963
226.27
209.547
196.264
178.92
167.176
154.276
145.518
136.066
129.523
122.972
118.645
114.427
111.537
108.616
106.411
104.045
101.908
99.448
96.8888
93.9905
90.9734
87.8708
84.8799
82.1249
79.6639
77.59
75.787
74.3239
72.9612
71.8316
70.6277
69.6088
68.3864
67.3604
66.0314
64.9152
63.4435
62.1113
60.5305
59.0004
56.5758
38.0565
39.4704
42.5357
47.985
55.5232
63.4556
69.7218
73.2615
74.4065
74.0655
72.8923
71.1767
69.2344
67.6322
66.7776
66.6921
67.1182
67.8665
68.7967
69.898
71.1125
72.4912
73.9764
75.6598
77.4585
79.515
81.6973
84.2242
86.8818
90.0076
93.2542
97.1513
101.135
106.051
110.985
117.308
123.554
131.99
140.363
152.438
164.678
182.823
200.888
226.718
249.319
278.093
296.864
322.086
340.504
371.582
398.525
380.5
409.485
324.619
263.549
237.805
238.258
231.813
226.679
209.725
196.316
178.909
167.135
154.225
145.464
136.012
129.466
122.915
118.591
114.378
111.494
108.581
106.383
104.026
101.896
99.4423
96.8867
93.9888
90.9691
87.8619
84.8659
82.1071
79.6445
77.5716
75.772
74.314
72.9576
71.835
70.6384
69.6278
68.414
67.3989
66.0808
64.9799
63.5227
62.2101
60.6486
59.1384
56.7206
38.065
39.4947
42.5872
48.0738
55.6472
63.5961
69.8521
73.358
74.4566
74.0697
72.8624
71.1261
69.1705
67.5592
66.7014
66.6184
67.0502
67.8046
68.7403
69.8458
71.0636
72.4446
73.9313
75.6155
77.4145
79.4706
81.6524
84.1782
86.8345
89.9583
93.2028
97.0968
101.077
105.988
110.917
117.232
123.47
131.894
140.254
152.318
164.548
182.694
200.768
226.625
249.249
278.045
296.788
321.998
340.391
371.707
398.915
381.497
411.983
327.893
266.767
240.359
239.854
232.693
227.101
209.907
196.368
178.897
167.094
154.175
145.411
135.957
129.41
122.858
118.536
114.329
111.452
108.545
106.355
104.006
101.884
99.4368
96.8847
93.9873
90.9648
87.853
84.8519
82.0893
79.6251
77.5531
75.7569
74.3041
72.954
71.8384
70.6492
69.647
68.4418
67.4377
66.1307
65.0451
63.6027
62.3099
60.7681
59.2784
56.8676
38.0736
39.5192
42.6391
48.1629
55.7713
63.7364
69.9822
73.4545
74.5066
74.0738
72.8323
71.0751
69.1063
67.486
66.6249
66.5445
66.982
67.7425
68.6836
69.7934
71.0145
72.3978
73.886
75.571
77.3702
79.426
81.6073
84.1319
86.7869
89.9088
93.1511
97.0421
101.019
105.926
110.848
117.157
123.385
131.799
140.146
152.197
164.418
182.564
200.648
226.532
249.179
277.996
296.711
321.909
340.276
371.83
399.305
382.503
414.515
331.238
270.069
242.992
241.504
233.603
227.537
210.095
196.422
178.885
167.053
154.123
145.358
135.902
129.353
122.801
118.481
114.279
111.409
108.51
106.328
103.987
101.872
99.4314
96.8829
93.986
90.9607
87.8442
84.838
82.0714
79.6055
77.5346
75.7418
74.2942
72.9504
71.8419
70.6601
69.6663
68.4699
67.4768
66.181
65.111
63.6835
62.411
60.8892
59.4203
57.017
38.0823
39.544
42.6912
48.2523
55.8954
63.8765
70.1119
73.5507
74.5565
74.0779
72.8019
71.0238
69.0418
67.4125
66.5481
66.4703
66.9135
67.6802
68.6267
69.7408
70.9652
72.3507
73.8405
75.5262
77.3258
79.3813
81.5619
84.0853
86.7391
89.859
93.0993
96.9872
100.961
105.862
110.78
117.081
123.301
131.703
140.037
152.076
164.287
182.434
200.527
226.439
249.109
277.948
296.634
321.82
340.159
371.953
399.695
383.518
417.083
334.657
273.46
245.706
243.21
234.546
227.988
210.289
196.478
178.873
167.012
154.072
145.304
135.847
129.295
122.744
118.426
114.23
111.366
108.475
106.3
103.968
101.861
99.4262
96.8813
93.9848
90.9568
87.8356
84.8241
82.0535
79.586
77.516
75.7266
74.2843
72.9468
71.8455
70.6712
69.6859
68.4982
67.5163
66.2317
65.1775
63.7651
62.5132
61.0117
59.5642
57.1688
38.0911
39.569
42.7436
48.3419
56.0196
64.0164
70.2414
73.6468
74.6064
74.0818
72.7712
70.9721
68.977
67.3387
66.4711
66.3959
66.8448
67.6176
68.5696
69.688
70.9157
72.3035
73.7948
75.4813
77.2812
79.3363
81.5164
84.0386
86.6911
89.8091
93.0472
96.9321
100.902
105.799
110.711
117.005
123.216
131.606
139.928
151.955
164.156
182.303
200.406
226.346
249.039
277.9
296.558
321.73
340.041
372.074
400.085
384.543
419.689
338.154
276.941
248.504
244.976
235.522
228.454
210.489
196.536
178.862
166.97
154.021
145.25
135.792
129.238
122.686
118.371
114.18
111.323
108.439
106.273
103.949
101.849
99.4212
96.8799
93.9839
90.953
87.827
84.8102
82.0356
79.5663
77.4974
75.7114
74.2744
72.9433
71.8491
70.6824
69.7056
68.5267
67.5561
66.2829
65.2446
63.8476
62.6165
61.1357
59.7101
57.3231
38.1
39.5942
42.7964
48.4317
56.1437
64.1561
70.3705
73.7426
74.6562
74.0856
72.7402
70.92
68.9118
67.2646
66.3938
66.3212
66.7759
67.5549
68.5123
69.635
70.866
72.2561
73.7489
75.4361
77.2363
79.2911
81.4706
83.9917
86.6429
89.7589
92.995
96.8768
100.843
105.736
110.642
116.929
123.131
131.51
139.818
151.833
164.025
182.172
200.285
226.252
248.969
277.852
296.481
321.639
339.921
372.194
400.475
385.578
422.333
341.729
280.515
251.387
246.802
236.535
228.937
210.697
196.596
178.851
166.928
153.969
145.196
135.737
129.181
122.629
118.316
114.131
111.28
108.404
106.245
103.93
101.838
99.4164
96.8787
93.9831
90.9494
87.8185
84.7964
82.0177
79.5466
77.4786
75.6962
74.2644
72.9398
71.8529
70.6937
69.7255
68.5556
67.5963
66.3346
65.3123
63.9309
62.7211
61.2613
59.8579
57.4798
38.1091
39.6197
42.8494
48.5217
56.2678
64.2955
70.4993
73.8383
74.7059
74.0893
72.709
70.8676
68.8462
67.1903
66.3163
66.2463
66.7067
67.4919
68.4548
69.5818
70.8161
72.2084
73.7028
75.3908
77.1912
79.2457
81.4246
83.9446
86.5945
89.7085
92.9425
96.8213
100.785
105.672
110.573
116.852
123.045
131.413
139.708
151.71
163.893
182.04
200.163
226.159
248.899
277.804
296.404
321.547
339.799
372.314
400.865
386.624
425.016
345.386
284.184
254.357
248.692
237.585
229.438
210.912
196.658
178.84
166.887
153.918
145.143
135.682
129.124
122.571
118.261
114.081
111.237
108.369
106.218
103.911
101.827
99.4118
96.8778
93.9826
90.946
87.8102
84.7827
81.9998
79.5269
77.4599
75.6809
74.2545
72.9364
71.8567
70.7051
69.7456
68.5846
67.6368
66.3867
65.3807
64.015
62.8268
61.3883
60.0079
57.639
38.1182
39.6453
42.9027
48.612
56.3919
64.4346
70.6277
73.9336
74.7555
74.0929
72.6775
70.8148
68.7804
67.1157
66.2385
66.1712
66.6373
67.4287
68.397
69.5284
70.766
72.1606
73.6565
75.3452
77.146
79.2001
81.3784
83.8972
86.5459
89.6579
92.8899
96.7656
100.725
105.608
110.503
116.775
122.96
131.316
139.598
151.588
163.761
181.908
200.042
226.065
248.83
277.757
296.328
321.455
339.676
372.433
401.255
387.681
427.739
349.129
287.95
257.417
250.648
238.675
229.958
211.135
196.723
178.83
166.845
153.866
145.089
135.628
129.067
122.514
118.206
114.032
111.195
108.334
106.191
103.892
101.816
99.4075
96.8771
93.9824
90.9427
87.802
84.7689
81.9819
79.5072
77.4411
75.6657
74.2446
72.933
71.8606
70.7167
69.7658
68.6139
67.6776
66.4392
65.4498
64.0999
62.9337
61.5169
60.1599
57.8008
38.1275
39.6713
42.9564
48.7024
56.516
64.5735
70.7558
74.0287
74.805
74.0963
72.6456
70.7616
68.7142
67.0408
66.1605
66.0958
66.5677
67.3653
68.3391
69.4748
70.7157
72.1126
73.61