/*--------------------------------*- C++ -*----------------------------------*\
| =========                 |                                                 |
| \\      /  F ield         | OpenFOAM: The Open Source CFD Toolbox           |
|  \\    /   O peration     | Version:  2412                                  |
|   \\  /    A nd           | Website:  www.openfoam.com                      |
|    \\/     M anipulation  |                                                 |
\*---------------------------------------------------------------------------*/
FoamFile
{
    version     2.0;
    format      ascii;
    arch        "LSB;label=32;scalar=64";
    class       volScalarField;
    location    "0.6";
    object      nut;
}
// * * * * * * * * * * * * * * * * * * * * * * * * * * * * * * * * * * * * * //

dimensions      [0 2 -1 0 0 0 0];

internalField   nonuniform List<scalar> 
12960
(
0.338322
0.34691
0.363339
0.385172
0.403569
0.410888
0.406005
0.392642
0.376183
0.360866
0.349042
0.341987
0.34042
0.34403
0.350807
0.358164
0.364317
0.368927
0.372245
0.374839
0.376961
0.37898
0.380856
0.38287
0.38481
0.387008
0.389105
0.391571
0.393855
0.396656
0.399143
0.402366
0.40509
0.408874
0.411885
0.41643
0.41986
0.425541
0.429739
0.437029
0.442032
0.450442
0.455103
0.462915
0.46472
0.469261
0.466988
0.471687
0.473665
0.479556
0.479693
0.448792
0.44395
0.35599
0.307529
0.329765
0.385122
0.406121
0.412812
0.401839
0.396996
0.387511
0.385555
0.379952
0.379378
0.376004
0.376499
0.375299
0.37648
0.375903
0.376417
0.375607
0.375316
0.373882
0.37241
0.369971
0.367394
0.364428
0.361815
0.359621
0.358149
0.35735
0.357037
0.357118
0.357135
0.357175
0.356717
0.356193
0.355011
0.353896
0.352037
0.350381
0.347872
0.345604
0.342476
0.339478
0.336034
0.332875
0.32825
0.338357
0.347024
0.36356
0.385451
0.403785
0.41094
0.405845
0.392264
0.375625
0.360198
0.348341
0.34132
0.339842
0.343586
0.350516
0.358006
0.364249
0.368906
0.372243
0.374841
0.376961
0.378974
0.380846
0.382856
0.384792
0.386986
0.38908
0.391544
0.393826
0.396624
0.399109
0.402329
0.40505
0.408831
0.411839
0.41638
0.419806
0.425484
0.429682
0.436977
0.441988
0.450412
0.455086
0.462912
0.464714
0.469243
0.466939
0.471652
0.473658
0.479683
0.479909
0.449283
0.444873
0.357105
0.307933
0.329098
0.384155
0.405408
0.412382
0.401577
0.396833
0.387402
0.38548
0.379898
0.379338
0.37597
0.376468
0.375274
0.376464
0.375896
0.376417
0.375613
0.375328
0.373899
0.372428
0.369987
0.367401
0.364424
0.3618
0.359598
0.358125
0.357329
0.357027
0.35712
0.35715
0.357201
0.356752
0.356235
0.35506
0.353953
0.352104
0.350462
0.347967
0.345719
0.342609
0.339632
0.336207
0.333054
0.328403
0.338392
0.347139
0.363781
0.385728
0.403998
0.410991
0.405684
0.391886
0.375067
0.359529
0.347638
0.340649
0.339258
0.343136
0.350221
0.357846
0.364179
0.368884
0.372241
0.374843
0.37696
0.378969
0.380836
0.382841
0.384773
0.386965
0.389056
0.391517
0.393797
0.396592
0.399075
0.402293
0.40501
0.408788
0.411792
0.416329
0.419752
0.425428
0.429625
0.436926
0.441945
0.450383
0.45507
0.462909
0.464709
0.469226
0.46689
0.471617
0.47365
0.47981
0.480125
0.449774
0.445795
0.358208
0.308313
0.328389
0.383136
0.404656
0.411931
0.401307
0.396669
0.387294
0.385405
0.379845
0.379299
0.375936
0.376437
0.37525
0.376449
0.375889
0.376417
0.375619
0.37534
0.373917
0.372447
0.370002
0.367409
0.364421
0.361785
0.359575
0.3581
0.357309
0.357016
0.357122
0.357164
0.357227
0.356786
0.356277
0.355109
0.354011
0.352172
0.350545
0.348064
0.345836
0.342744
0.339789
0.336381
0.333236
0.328559
0.338428
0.347254
0.364002
0.386003
0.404208
0.411038
0.405521
0.391507
0.374507
0.358856
0.34693
0.339973
0.338669
0.342682
0.349923
0.357684
0.364109
0.368862
0.372239
0.374845
0.37696
0.378964
0.380826
0.382826
0.384755
0.386943
0.389031
0.39149
0.393768
0.396561
0.399041
0.402256
0.40497
0.408744
0.411745
0.416279
0.419697
0.425371
0.429567
0.436874
0.441901
0.450353
0.455053
0.462906
0.464703
0.469208
0.46684
0.47158
0.473641
0.479937
0.480341
0.450267
0.446715
0.3593
0.308669
0.327636
0.382061
0.403862
0.41146
0.401029
0.396503
0.387186
0.385331
0.379793
0.37926
0.375903
0.376406
0.375225
0.376434
0.375883
0.376417
0.375626
0.375353
0.373935
0.372467
0.370019
0.367417
0.364418
0.36177
0.359552
0.358074
0.357288
0.357005
0.357124
0.357179
0.357253
0.356821
0.35632
0.355159
0.35407
0.35224
0.350627
0.348161
0.345954
0.34288
0.339947
0.336558
0.33342
0.328716
0.338463
0.347369
0.364223
0.386276
0.404415
0.411082
0.405356
0.391125
0.373946
0.358181
0.346218
0.339291
0.338075
0.342223
0.349621
0.35752
0.364038
0.36884
0.372236
0.374847
0.376959
0.378959
0.380816
0.382811
0.384736
0.386921
0.389007
0.391463
0.393738
0.396528
0.399007
0.402218
0.40493
0.4087
0.411697
0.416228
0.419642
0.425314
0.429509
0.436822
0.441856
0.450322
0.455035
0.462902
0.464697
0.469189
0.466788
0.471543
0.473631
0.480064
0.480557
0.45076
0.447633
0.360379
0.309
0.32684
0.38093
0.403025
0.410966
0.400742
0.396334
0.387077
0.385258
0.379741
0.379222
0.37587
0.376376
0.375201
0.37642
0.375877
0.376418
0.375633
0.375366
0.373953
0.372487
0.370035
0.367425
0.364415
0.361756
0.359529
0.358049
0.357267
0.356995
0.357126
0.357194
0.357279
0.356857
0.356363
0.355209
0.354129
0.352309
0.350711
0.348259
0.346073
0.343018
0.340107
0.336737
0.333606
0.328875
0.338499
0.347485
0.364443
0.386547
0.404619
0.411124
0.405188
0.390742
0.373382
0.357503
0.345502
0.338605
0.337475
0.341759
0.349316
0.357354
0.363965
0.368817
0.372233
0.374848
0.376958
0.378953
0.380805
0.382796
0.384717
0.386898
0.388981
0.391435
0.393708
0.396496
0.398972
0.40218
0.404889
0.408656
0.411649
0.416176
0.419586
0.425255
0.42945
0.436769
0.441811
0.450291
0.455017
0.462898
0.464691
0.46917
0.466736
0.471504
0.473619
0.48019
0.480772
0.451254
0.448549
0.361444
0.309305
0.326
0.379738
0.402142
0.410446
0.400443
0.396162
0.386969
0.385186
0.37969
0.379185
0.375837
0.376347
0.375177
0.376405
0.375872
0.376419
0.37564
0.37538
0.373972
0.372507
0.370052
0.367434
0.364412
0.361741
0.359506
0.358023
0.357246
0.356984
0.357129
0.35721
0.357306
0.356892
0.356406
0.35526
0.354189
0.352379
0.350795
0.348358
0.346193
0.343158
0.340269
0.336918
0.333794
0.329036
0.338536
0.347601
0.364664
0.386817
0.40482
0.411162
0.405018
0.390357
0.372817
0.356822
0.344782
0.337913
0.33687
0.34129
0.349007
0.357186
0.363892
0.368794
0.37223
0.37485
0.376957
0.378947
0.380794
0.38278
0.384698
0.386875
0.388956
0.391407
0.393678
0.396463
0.398936
0.402142
0.404847
0.408611
0.4116
0.416124
0.41953
0.425196
0.42939
0.436715
0.441765
0.45026
0.454999
0.462894
0.464683
0.469149
0.466682
0.471463
0.473606
0.480316
0.480987
0.451748
0.449462
0.362495
0.309585
0.325114
0.378486
0.40121
0.4099
0.400133
0.395986
0.38686
0.385114
0.37964
0.379148
0.375805
0.376317
0.375154
0.376391
0.375866
0.37642
0.375648
0.375394
0.373991
0.372527
0.370069
0.367443
0.364409
0.361726
0.359482
0.357997
0.357225
0.356973
0.357131
0.357225
0.357333
0.356928
0.35645
0.355311
0.354249
0.352449
0.35088
0.348458
0.346315
0.343299
0.340432
0.337101
0.333985
0.329199
0.338572
0.347718
0.364884
0.387085
0.405017
0.411197
0.404845
0.389971
0.372249
0.356138
0.344057
0.337216
0.336259
0.340816
0.348694
0.357016
0.363818
0.368771
0.372227
0.374851
0.376956
0.378941
0.380783
0.382764
0.384678
0.386852
0.38893
0.391378
0.393647
0.39643
0.398901
0.402103
0.404806
0.408566
0.411551
0.416071
0.419473
0.425137
0.429329
0.43666
0.441718
0.450227
0.45498
0.462889
0.464675
0.469128
0.466627
0.471422
0.473591
0.48044
0.481201
0.452242
0.450372
0.36353
0.309838
0.324183
0.377169
0.400226
0.409325
0.399811
0.395806
0.38675
0.385042
0.379591
0.379112
0.375774
0.376288
0.375131
0.376377
0.375861
0.376421
0.375656
0.375408
0.37401
0.372548
0.370087
0.367452
0.364406
0.361711
0.359458
0.357971
0.357203
0.356961
0.357133
0.35724
0.35736
0.356965
0.356494
0.355362
0.35431
0.35252
0.350966
0.348559
0.346438
0.343441
0.340598
0.337286
0.334178
0.329364
0.338609
0.347836
0.365104
0.387352
0.405212
0.411229
0.40467
0.389583
0.37168
0.355452
0.343329
0.336514
0.335643
0.340337
0.348378
0.356844
0.363743
0.368747
0.372224
0.374852
0.376954
0.378934
0.380771
0.382748
0.384658
0.386828
0.388904
0.391349
0.393616
0.396396
0.398865
0.402064
0.404763
0.40852
0.411502
0.416017
0.419415
0.425077
0.429268
0.436605
0.441671
0.450194
0.45496
0.462883
0.464667
0.469106
0.466571
0.471379
0.473575
0.480565
0.481414
0.452736
0.451279
0.36455
0.310064
0.323207
0.375786
0.399188
0.408719
0.399475
0.395622
0.386639
0.384971
0.379543
0.379077
0.375743
0.376259
0.375107
0.376363
0.375856
0.376423
0.375664
0.375422
0.37403
0.372569
0.370104
0.367461
0.364404
0.361696
0.359435
0.357944
0.357182
0.35695
0.357135
0.357256
0.357387
0.357001
0.356539
0.355414
0.354371
0.352591
0.351053
0.348661
0.346562
0.343585
0.340766
0.337474
0.334374
0.329531
0.338647
0.347953
0.365324
0.387616
0.405404
0.411258
0.404492
0.389193
0.371109
0.354763
0.342597
0.335807
0.335021
0.339854
0.348059
0.35667
0.363667
0.368722
0.37222
0.374852
0.376952
0.378927
0.380759
0.382731
0.384637
0.386804
0.388877
0.39132
0.393584
0.396362
0.398828
0.402024
0.404721
0.408473
0.411451
0.415963
0.419357
0.425016
0.429206
0.436548
0.441622
0.450161
0.45494
0.462878
0.464657
0.469084
0.466514
0.471334
0.473557
0.480688
0.481627
0.453231
0.452182
0.365553
0.310264
0.322185
0.374335
0.398092
0.40808
0.399123
0.395432
0.386527
0.3849
0.379495
0.379043
0.375713
0.376231
0.375085
0.37635
0.375852
0.376425
0.375672
0.375437
0.37405
0.37259
0.370122
0.36747
0.364401
0.361681
0.35941
0.357918
0.35716
0.356939
0.357137
0.357272
0.357415
0.357038
0.356584
0.355466
0.354433
0.352663
0.35114
0.348763
0.346688
0.343731
0.340936
0.337664
0.334571
0.3297
0.338684
0.348072
0.365544
0.387879
0.405592
0.411283
0.404313
0.388801
0.370537
0.354071
0.341861
0.335095
0.334394
0.339365
0.347736
0.356494
0.36359
0.368697
0.372216
0.374853
0.37695
0.37892
0.380747
0.382714
0.384616
0.38678
0.38885
0.39129
0.393553
0.396327
0.398791
0.401984
0.404677
0.408426
0.411401
0.415909
0.419298
0.424954
0.429143
0.436491
0.441573
0.450127
0.454919
0.462871
0.464647
0.46906
0.466455
0.471288
0.473538
0.480811
0.481839
0.453725
0.453081
0.366538
0.310437
0.321118
0.372815
0.396936
0.407406
0.398756
0.395237
0.386414
0.384829
0.379447
0.379009
0.375683
0.376203
0.375062
0.376337
0.375848
0.376428
0.375681
0.375452
0.37407
0.372611
0.370141
0.36748
0.364399
0.361665
0.359386
0.357891
0.357137
0.356927
0.35714
0.357288
0.357443
0.357076
0.356629
0.355519
0.354495
0.352736
0.351229
0.348867
0.346814
0.343878
0.341107
0.337857
0.334772
0.329871
0.338722
0.34819
0.365764
0.388139
0.405777
0.411306
0.404131
0.388408
0.369963
0.353378
0.341121
0.334378
0.333762
0.338872
0.34741
0.356316
0.363512
0.368672
0.372212
0.374853
0.376948
0.378913
0.380735
0.382697
0.384595
0.386756
0.388823
0.39126
0.39352
0.396293
0.398754
0.401944
0.404634
0.408379
0.411349
0.415854
0.419238
0.424892
0.42908
0.436434
0.441524
0.450092
0.454898
0.462864
0.464637
0.469036
0.466395
0.471241
0.473518
0.480934
0.48205
0.45422
0.453975
0.367505
0.310582
0.320006
0.371224
0.395718
0.406694
0.39837
0.395035
0.386299
0.384758
0.3794
0.378975
0.375654
0.376175
0.375039
0.376324
0.375844
0.376431
0.37569
0.375467
0.37409
0.372633
0.370159
0.36749
0.364397
0.36165
0.359362
0.357864
0.357115
0.356916
0.357142
0.357304
0.357471
0.357113
0.356675
0.355572
0.354558
0.352809
0.351318
0.348972
0.346942
0.344027
0.341281
0.338051
0.334974
0.330044
0.33876
0.348309
0.365983
0.388398
0.40596
0.411326
0.403947
0.388014
0.369388
0.352681
0.340377
0.333657
0.333124
0.338373
0.347079
0.356136
0.363433
0.368646
0.372207
0.374853
0.376946
0.378905
0.380722
0.38268
0.384574
0.386731
0.388795
0.39123
0.393488
0.396257
0.398716
0.401903
0.40459
0.408331
0.411298
0.415798
0.419178
0.424829
0.429016
0.436375
0.441474
0.450056
0.454876
0.462857
0.464626
0.469011
0.466334
0.471193
0.473495
0.481055
0.48226
0.454715
0.454864
0.368454
0.310701
0.318849
0.36956
0.394433
0.405942
0.397966
0.394826
0.386182
0.384688
0.379354
0.378943
0.375625
0.376148
0.375017
0.376311
0.37584
0.376434
0.3757
0.375482
0.374111
0.372656
0.370178
0.3675
0.364395
0.361635
0.359337
0.357836
0.357092
0.356904
0.357144
0.357321
0.357499
0.357151
0.356721
0.355626
0.354621
0.352883
0.351407
0.349078
0.347072
0.344177
0.341457
0.338248
0.33518
0.33022
0.338798
0.348429
0.366202
0.388654
0.406138
0.411342
0.403761
0.387619
0.368812
0.351983
0.33963
0.33293
0.33248
0.33787
0.346746
0.355954
0.363353
0.36862
0.372203
0.374853
0.376943
0.378898
0.380709
0.382662
0.384552
0.386706
0.388767
0.391199
0.393455
0.396222
0.398678
0.401862
0.404545
0.408283
0.411246
0.415742
0.419118
0.424766
0.428951
0.436316
0.441423
0.45002
0.454854
0.462849
0.464615
0.468985
0.466272
0.471143
0.473472
0.481177
0.48247
0.45521
0.455748
0.369382
0.310792
0.317649
0.367823
0.39308
0.405148
0.39754
0.394609
0.386062
0.384617
0.379308
0.378911
0.375596
0.376121
0.374995
0.376299
0.375836
0.376437
0.37571
0.375498
0.374132
0.372678
0.370198
0.367511
0.364393
0.36162
0.359312
0.357808
0.35707
0.356892
0.357147
0.357337
0.357528
0.357189
0.356767
0.35568
0.354685
0.352957
0.351498
0.349185
0.347203
0.344329
0.341635
0.338448
0.335387
0.330397
0.338837
0.348549
0.36642
0.388909
0.406314
0.411356
0.403572
0.387222
0.368234
0.351283
0.33888
0.332199
0.331832
0.337361
0.346408
0.35577
0.363273
0.368594
0.372198
0.374853
0.37694
0.37889
0.380696
0.382644
0.38453
0.38668
0.388739
0.391168
0.393422
0.396186
0.39864
0.40182
0.404501
0.408235
0.411193
0.415686
0.419057
0.424702
0.428885
0.436257
0.441371
0.449984
0.454831
0.462841
0.464602
0.468958
0.466208
0.471092
0.473447
0.481297
0.482679
0.455705
0.456626
0.37029
0.310857
0.316407
0.366011
0.391657
0.404309
0.397093
0.394383
0.38594
0.384546
0.379263
0.378879
0.375568
0.376094
0.374974
0.376286
0.375833
0.376441
0.37572
0.375515
0.374154
0.372701
0.370218
0.367521
0.364391
0.361604
0.359287
0.35778
0.357047
0.35688
0.357149
0.357354
0.357557
0.357228
0.356814
0.355734
0.354749
0.353032
0.351589
0.349292
0.347335
0.344483
0.341815
0.33865
0.335598
0.330577
0.338876
0.348669
0.366638
0.389161
0.406486
0.411366
0.403382
0.386824
0.367656
0.350581
0.338126
0.331463
0.331178
0.336848
0.346067
0.355583
0.363191
0.368567
0.372193
0.374852
0.376937
0.378881
0.380683
0.382626
0.384508
0.386654
0.38871
0.391137
0.393388
0.39615
0.398601
0.401778
0.404455
0.408186
0.41114
0.415629
0.418995
0.424637
0.428819
0.436197
0.441319
0.449947
0.454808
0.462832
0.46459
0.468931
0.466144
0.47104
0.47342
0.481417
0.482887
0.456199
0.457497
0.371176
0.310896
0.315124
0.364125
0.390159
0.403422
0.396622
0.394148
0.385815
0.384474
0.379218
0.378848
0.375541
0.376067
0.374952
0.376274
0.37583
0.376445
0.37573
0.375531
0.374175
0.372725
0.370238
0.367532
0.364389
0.361589
0.359262
0.357752
0.357023
0.356868
0.357152
0.357371
0.357586
0.357267
0.356861
0.355789
0.354814
0.353108
0.351682
0.349401
0.347468
0.344638
0.341997
0.338854
0.33581
0.330758
0.338916
0.34879
0.366856
0.389412
0.406656
0.411373
0.40319
0.386425
0.367077
0.349877
0.337369
0.330723
0.330518
0.33633
0.345722
0.355395
0.363108
0.368539
0.372187
0.374851
0.376933
0.378873
0.380669
0.382607
0.384485
0.386628
0.388681
0.391106
0.393354
0.396113
0.398562
0.401736
0.40441
0.408136
0.411087
0.415571
0.418933
0.424572
0.428752
0.436136
0.441266
0.449909
0.454785
0.462823
0.464577
0.468903
0.466078
0.470987
0.473392
0.481536
0.483094
0.456694
0.458362
0.37204
0.310909
0.313801
0.362164
0.388586
0.402485
0.396126
0.393902
0.385687
0.384402
0.379174
0.378818
0.375513
0.376041
0.374931
0.376262
0.375828
0.376449
0.375741
0.375548
0.374198
0.372748
0.370258
0.367544
0.364387
0.361574
0.359237
0.357724
0.357
0.356856
0.357154
0.357388
0.357616
0.357306
0.356909
0.355844
0.354879
0.353184
0.351775
0.349511
0.347603
0.344795
0.342182
0.339061
0.336026
0.330942
0.338955
0.348911
0.367073
0.389659
0.406821
0.411378
0.402995
0.386026
0.366497
0.349172
0.336609
0.329978
0.329854
0.335806
0.345374
0.355205
0.363025
0.368511
0.372181
0.374851
0.37693
0.378864
0.380655
0.382588
0.384462
0.386602
0.388652
0.391074
0.39332
0.396076
0.398523
0.401694
0.404364
0.408086
0.411033
0.415513
0.41887
0.424506
0.428685
0.436074
0.441213
0.449871
0.454761
0.462814
0.464563
0.468874
0.466011
0.470932
0.473363
0.481654
0.4833
0.457189
0.45922
0.372882
0.310896
0.312442
0.360127
0.386934
0.401495
0.395602
0.393646
0.385555
0.38433
0.379129
0.378788
0.375487
0.376015
0.37491
0.376251
0.375825
0.376454
0.375752
0.375565
0.37422
0.372772
0.370279
0.367555
0.364386
0.361558
0.359212
0.357695
0.356976
0.356844
0.357157
0.357405
0.357646
0.357346
0.356957
0.3559
0.354945
0.353261
0.351868
0.349622
0.347739
0.344954
0.342368
0.339271
0.336244
0.331129
0.338995
0.349032
0.36729
0.389905
0.406984
0.411379
0.402799
0.385625
0.365916
0.348465
0.335846
0.329228
0.329184
0.335278
0.345022
0.355012
0.36294
0.368483
0.372176
0.374849
0.376926
0.378855
0.380641
0.382569
0.384439
0.386575
0.388623
0.391042
0.393286
0.396039
0.398483
0.401651
0.404318
0.408036
0.410979
0.415455
0.418807
0.42444
0.428617
0.436012
0.441159
0.449833
0.454736
0.462804
0.464549
0.468845
0.465943
0.470876
0.473333
0.481772
0.483506
0.457683
0.46007
0.3737
0.310859
0.311047
0.358016
0.385201
0.40045
0.39505
0.393377
0.385419
0.384256
0.379085
0.378758
0.37546
0.375989
0.374889
0.376239
0.375823
0.376459
0.375763
0.375582
0.374243
0.372796
0.3703
0.367567
0.364384
0.361543
0.359186
0.357666
0.356952
0.356832
0.357159
0.357423
0.357676
0.357386
0.357005
0.355956
0.355011
0.353339
0.351963
0.349734
0.347877
0.345114
0.342557
0.339483
0.336465
0.331317
0.339035
0.349154
0.367506
0.390149
0.407143
0.411377
0.402601
0.385224
0.365335
0.347756
0.335079
0.328475
0.328509
0.334745
0.344666
0.354817
0.362854
0.368454
0.372169
0.374848
0.376922
0.378846
0.380626
0.38255
0.384416
0.386548
0.388593
0.391009
0.393251
0.396002
0.398443
0.401607
0.404271
0.407986
0.410924
0.415396
0.418744
0.424374
0.428549
0.435949
0.441104
0.449794
0.454711
0.462794
0.464535
0.468815
0.465874
0.470818
0.473301
0.481889
0.483711
0.458177
0.460912
0.374495
0.310799
0.309619
0.355831
0.383386
0.399347
0.394466
0.393095
0.385278
0.384181
0.379041
0.378729
0.375434
0.375964
0.374868
0.376228
0.375822
0.376464
0.375775
0.3756
0.374266
0.372821
0.370321
0.367579
0.364383
0.361527
0.35916
0.357637
0.356928
0.356819
0.357162
0.357441
0.357706
0.357427
0.357054
0.356013
0.355078
0.353417
0.352059
0.349847
0.348016
0.345276
0.342748
0.339697
0.336688
0.331508
0.339076
0.349276
0.367722
0.39039
0.407299
0.411373
0.402402
0.384822
0.364754
0.347047
0.334311
0.327717
0.327829
0.334206
0.344307
0.354621
0.362768
0.368425
0.372163
0.374847
0.376918
0.378837
0.380611
0.38253
0.384392
0.386521
0.388563
0.390976
0.393216
0.395964
0.398403
0.401564
0.404224
0.407935
0.410869
0.415337
0.41868
0.424306
0.428479
0.435886
0.441049
0.449754
0.454686
0.462784
0.46452
0.468785
0.465804
0.47076
0.473267
0.482006
0.483915
0.458671
0.461745
0.375264
0.310716
0.308161
0.353574
0.381486
0.398182
0.39385
0.3928
0.385132
0.384106
0.378997
0.378701
0.375408
0.375939
0.374848
0.376217
0.37582
0.37647
0.375787
0.375618
0.374289
0.372846
0.370343
0.367591
0.364382
0.361512
0.359134
0.357608
0.356904
0.356807
0.357165
0.357459
0.357737
0.357467
0.357103
0.35607
0.355145
0.353496
0.352155
0.349961
0.348156
0.34544
0.342941
0.339915
0.336914
0.331701
0.339117
0.349398
0.367937
0.390629
0.407452
0.411365
0.4022
0.384419
0.364172
0.346336
0.333539
0.326955
0.327144
0.333663
0.343943
0.354422
0.36268
0.368396
0.372157
0.374845
0.376913
0.378827
0.380597
0.38251
0.384369
0.386494
0.388533
0.390943
0.393181
0.395926
0.398362
0.40152
0.404177
0.407884
0.410814
0.415278
0.418616
0.424239
0.42841
0.435822
0.440994
0.449714
0.454661
0.462773
0.464505
0.468754
0.465733
0.4707
0.473233
0.482122
0.484118
0.459165
0.462569
0.376008
0.310611
0.306676
0.351246
0.379501
0.396954
0.393199
0.392489
0.384981
0.384029
0.378953
0.378672
0.375383
0.375913
0.374827
0.376206
0.375819
0.376476
0.375799
0.375636
0.374313
0.372871
0.370365
0.367604
0.364381
0.361496
0.359108
0.357578
0.35688
0.356794
0.357167
0.357477
0.357768
0.357508
0.357153
0.356127
0.355213
0.353576
0.352252
0.350076
0.348298
0.345606
0.343136
0.340134
0.337143
0.331897
0.339158
0.349521
0.368151
0.390865
0.407601
0.411355
0.401997
0.384016
0.36359
0.345624
0.332765
0.326189
0.326454
0.333115
0.343576
0.35422
0.362591
0.368366
0.37215
0.374843
0.376909
0.378817
0.380581
0.38249
0.384344
0.386466
0.388502
0.39091
0.393145
0.395888
0.398321
0.401476
0.40413
0.407832
0.410758
0.415218
0.418551
0.42417
0.42834
0.435758
0.440938
0.449674
0.454635
0.462763
0.464489
0.468722
0.465661
0.470639
0.473197
0.482237
0.48432
0.459658
0.463384
0.376727
0.310486
0.305167
0.348849
0.377428
0.395659
0.392511
0.392162
0.384824
0.38395
0.378909
0.378644
0.375358
0.375888
0.374807
0.376196
0.375817
0.376482
0.375811
0.375655
0.374336
0.372897
0.370387
0.367616
0.36438
0.361481
0.359082
0.357549
0.356855
0.356782
0.35717
0.357495
0.357799
0.35755
0.357203
0.356185
0.355282
0.353656
0.35235
0.350192
0.348441
0.345773
0.343334
0.340357
0.337374
0.332094
0.3392
0.349644
0.368365
0.391099
0.407747
0.411342
0.401792
0.383612
0.363008
0.344912
0.331988
0.325418
0.325759
0.332562
0.343206
0.354017
0.362502
0.368335
0.372143
0.374841
0.376904
0.378807
0.380566
0.38247
0.38432
0.386438
0.388472
0.390877
0.393109
0.395849
0.39828
0.401432
0.404082
0.407781
0.410702
0.415158
0.418486
0.424102
0.428269
0.435693
0.440882
0.449634
0.454609
0.462751
0.464474
0.46869
0.465588
0.470577
0.47316
0.482352
0.484522
0.460151
0.464188
0.377419
0.310343
0.303637
0.346386
0.375267
0.394296
0.391784
0.391817
0.38466
0.383869
0.378865
0.378616
0.375333
0.375864
0.374787
0.376185
0.375816
0.376488
0.375824
0.375673
0.374361
0.372923
0.37041
0.367629
0.364379
0.361465
0.359055
0.357518
0.35683
0.356769
0.357173
0.357513
0.357831
0.357591
0.357253
0.356243
0.355351
0.353736
0.352449
0.35031
0.348586
0.345942
0.343534
0.340582
0.337609
0.332295
0.339242
0.349768
0.368578
0.39133
0.407889
0.411326
0.401585
0.383208
0.362426
0.344198
0.33121
0.324644
0.325059
0.332004
0.342831
0.353812
0.362411
0.368304
0.372136
0.374839
0.376899
0.378797
0.38055
0.382449
0.384295
0.38641
0.388441
0.390843
0.393073
0.395811
0.398239
0.401387
0.404034
0.407728
0.410646
0.415097
0.41842
0.424033
0.428198
0.435628
0.440825
0.449593
0.454582
0.46274
0.464457
0.468657
0.465513
0.470514
0.473121
0.482466
0.484722
0.460643
0.464981
0.378085
0.310182
0.302091
0.343859
0.373017
0.39286
0.391016
0.391454
0.384489
0.383786
0.37882
0.378588
0.375308
0.375839
0.374766
0.376175
0.375816
0.376494
0.375837
0.375692
0.374385
0.372949
0.370433
0.367642
0.364378
0.361449
0.359028
0.357488
0.356805
0.356756
0.357176
0.357532
0.357863
0.357633
0.357304
0.356302
0.35542
0.353818
0.352549
0.350428
0.348732
0.346113
0.343736
0.34081
0.337846
0.332497
0.339284
0.349891
0.36879
0.39156
0.408029
0.411307
0.401377
0.382804
0.361845
0.343485
0.330429
0.323867
0.324354
0.331441
0.342453
0.353604
0.362319
0.368273
0.372128
0.374836
0.376894
0.378786
0.380535
0.382428
0.384271
0.386381
0.38841
0.390809
0.393037
0.395772
0.398198
0.401342
0.403985
0.407676
0.410589
0.415037
0.418354
0.423963
0.428126
0.435562
0.440767
0.449551
0.454556
0.462728
0.464441
0.468624
0.465438
0.470449
0.473081
0.482579
0.484922
0.461135
0.465763
0.378724
0.310005
0.300531
0.341271
0.370678
0.39135
0.390205
0.391071
0.384311
0.383702
0.378775
0.378561
0.375283
0.375814
0.374746
0.376164
0.375815
0.376501
0.37585
0.375711
0.37441
0.372976
0.370456
0.367656
0.364378
0.361433
0.359002
0.357458
0.35678
0.356743
0.357179
0.357551
0.357895
0.357676
0.357355
0.356361
0.35549
0.3539
0.352649
0.350547
0.348879
0.346286
0.343941
0.34104
0.338086
0.332702
0.339326
0.350015
0.369001
0.391786
0.408164
0.411285
0.401168
0.3824
0.361263
0.34277
0.329646
0.323085
0.323645
0.330874
0.342071
0.353394
0.362227
0.368241
0.37212
0.374833
0.376889
0.378776
0.380519
0.382407
0.384246
0.386353
0.388378
0.390775
0.393001
0.395733
0.398156
0.401297
0.403937
0.407623
0.410532
0.414975
0.418288
0.423893
0.428054
0.435496
0.440709
0.44951
0.454529
0.462716
0.464424
0.46859
0.465362
0.470384
0.473041
0.482692
0.485121
0.461627
0.466534
0.379335
0.309815
0.298962
0.338628
0.368249
0.389763
0.389348
0.390667
0.384124
0.383614
0.378729
0.378533
0.375258
0.37579
0.374726
0.376154
0.375814
0.376508
0.375863
0.375731
0.374435
0.373002
0.370479
0.36767
0.364377
0.361417
0.358974
0.357427
0.356754
0.35673
0.357182
0.35757
0.357927
0.357718
0.357406
0.356421
0.35556
0.353983
0.35275
0.350668
0.349028
0.346461
0.344148
0.341273
0.338328
0.33291
0.339369
0.35014
0.369212
0.39201
0.408297
0.41126
0.400957
0.381995
0.360682
0.342055
0.328861
0.3223
0.322931
0.330301
0.341685
0.353182
0.362133
0.368209
0.372112
0.374831
0.376883
0.378765
0.380502
0.382386
0.38422
0.386324
0.388346
0.39074
0.392964
0.395693
0.398114
0.401252
0.403888
0.407571
0.410475
0.414914
0.418221
0.423823
0.427981
0.435429
0.440651
0.449467
0.454501
0.462704
0.464407
0.468556
0.465285
0.470317
0.472999
0.482804
0.485319
0.462117
0.467291
0.37992
0.309613
0.297389
0.335932
0.365731
0.388096
0.388443
0.39024
0.383929
0.383524
0.378682
0.378505
0.375234
0.375765
0.374706
0.376143
0.375814
0.376515
0.375877
0.37575
0.37446
0.373029
0.370503
0.367683
0.364377
0.361401
0.358947
0.357396
0.356728
0.356716
0.357185
0.357589
0.35796
0.357761
0.357458
0.356481
0.355631
0.354066
0.352852
0.350789
0.349178
0.346637
0.344357
0.341509
0.338574
0.333119
0.339412
0.350264
0.369422
0.392232
0.408426
0.411233
0.400744
0.38159
0.360101
0.34134
0.328074
0.321512
0.322212
0.329724
0.341296
0.352968
0.362038
0.368177
0.372104
0.374828
0.376877
0.378754
0.380486
0.382365
0.384195
0.386295
0.388315
0.390706
0.392927
0.395654
0.398072
0.401206
0.403839
0.407517
0.410418
0.414852
0.418154
0.423752
0.427908
0.435362
0.440593
0.449425
0.454474
0.462692
0.464389
0.468521
0.465207
0.470249
0.472955
0.482916
0.485517
0.462607
0.468036
0.380477
0.309402
0.295815
0.333188
0.363125
0.386348
0.387487
0.389789
0.383724
0.38343
0.378635
0.378477
0.375209
0.37574
0.374686
0.376133
0.375814
0.376522
0.37589
0.37577
0.374485
0.373057
0.370527
0.367697
0.364376
0.361385
0.35892
0.357364
0.356702
0.356703
0.357188
0.357608
0.357993
0.357805
0.35751
0.356541
0.355703
0.35415
0.352955
0.350912
0.34933
0.346815
0.344569
0.341748
0.338822
0.333331
0.339456
0.350389
0.369631
0.392451
0.408552
0.411203
0.400531
0.381185
0.359521
0.340625
0.327286
0.32072
0.321488
0.329142
0.340903
0.352752
0.361943
0.368144
0.372096
0.374824
0.376871
0.378743
0.380469
0.382343
0.384169
0.386265
0.388282
0.390671
0.39289
0.395614
0.398029
0.40116
0.40379
0.407464
0.41036
0.41479
0.418087
0.423681
0.427835
0.435294
0.440533
0.449382
0.454446
0.462679
0.464372
0.468486
0.465128
0.47018
0.472911
0.483027
0.485713
0.463096
0.468767
0.381006
0.309183
0.294244
0.330401
0.360433
0.384517
0.386479
0.389313
0.383509
0.383334
0.378587
0.378448
0.375184
0.375715
0.374665
0.376122
0.375813
0.376529
0.375904
0.37579
0.37451
0.373084
0.370551
0.367712
0.364376
0.361369
0.358892
0.357333
0.356676
0.35669
0.357191
0.357627
0.358026
0.357848
0.357562
0.356602
0.355774
0.354234
0.353059
0.351035
0.349483
0.346995
0.344783
0.341989
0.339073
0.333546
0.3395
0.350514
0.36984
0.392667
0.408674
0.41117
0.400315
0.380781
0.358941
0.33991
0.326496
0.319925
0.320761
0.328555
0.340506
0.352533
0.361846
0.36811
0.372087
0.374821
0.376865
0.378731
0.380452
0.382321
0.384143
0.386236
0.38825
0.390636
0.392853
0.395574
0.397987
0.401114
0.40374
0.40741
0.410302
0.414728
0.418019
0.42361
0.427761
0.435226
0.440474
0.449339
0.454418
0.462666
0.464354
0.46845
0.465048
0.470109
0.472865
0.483137
0.485909
0.463585
0.469484
0.381508
0.308958
0.292682
0.327578
0.357655
0.382599
0.385415
0.38881
0.383284
0.383233
0.378537
0.37842
0.375159
0.37569
0.374644
0.376112
0.375813
0.376536
0.375918
0.375809
0.374536
0.373112
0.370576
0.367726
0.364375
0.361353
0.358864
0.357301
0.356649
0.356676
0.357194
0.357647
0.358059
0.357892
0.357615
0.356663
0.355847
0.354319
0.353163
0.35116
0.349638
0.347176
0.344999
0.342233
0.339327
0.333763
0.339544
0.35064
0.370047
0.392881
0.408793
0.411135
0.400099
0.380376
0.358362
0.339195
0.325705
0.319127
0.320028
0.327964
0.340105
0.352312
0.361748
0.368076
0.372078
0.374817
0.376859
0.37872
0.380435
0.382299
0.384117
0.386206
0.388218
0.390601
0.392815
0.395533
0.397944
0.401068
0.403691
0.407356
0.410244
0.414665
0.417951
0.423538
0.427686
0.435158
0.440414
0.449296
0.45439
0.462653
0.464336
0.468414
0.464967
0.470038
0.472819
0.483247
0.486104
0.464072
0.470186
0.381983
0.308731
0.291132
0.324722
0.354795
0.380594
0.384294
0.388278
0.383046
0.383129
0.378487
0.37839
0.375133
0.375664
0.374624
0.376101
0.375812
0.376543
0.375931
0.375829
0.374562
0.37314
0.3706
0.36774
0.364375
0.361336
0.358835
0.357268
0.356623
0.356662
0.357197
0.357666
0.358092
0.357936
0.357668
0.356724
0.355919
0.354405
0.353268
0.351285
0.349794
0.34736
0.345218
0.34248
0.339584
0.333982
0.339588
0.350765
0.370254
0.393092
0.408909
0.411096
0.399881
0.379972
0.357784
0.338481
0.324913
0.318326
0.319292
0.327367
0.3397
0.352089
0.361649
0.368042
0.372069
0.374814
0.376852
0.378708
0.380418
0.382277
0.384091
0.386176
0.388185
0.390565
0.392777
0.395493
0.397901
0.401022
0.403641
0.407302
0.410186
0.414602
0.417883
0.423466
0.427612
0.435089
0.440354
0.449253
0.454361
0.46264
0.464317
0.468378
0.464885
0.469965
0.472771
0.483356
0.486298
0.464558
0.470873
0.382432
0.308504
0.2896
0.321841
0.351854
0.378501
0.383113
0.387716
0.382796
0.38302
0.378434
0.37836
0.375107
0.375638
0.374602
0.37609
0.375811
0.37655
0.375945
0.375849
0.374587
0.373168
0.370625
0.367755
0.364375
0.361319
0.358807
0.357236
0.356595
0.356648
0.3572
0.357686
0.358126
0.357981
0.357721
0.356786
0.355992
0.354491
0.353374
0.351412
0.349951
0.347545
0.345439
0.34273
0.339844
0.334203
0.339633
0.350891
0.37046
0.393301
0.409022
0.411056
0.399662
0.379568
0.357207
0.337767