/*--------------------------------*- C++ -*----------------------------------*\
| =========                 |                                                 |
| \\      /  F ield         | OpenFOAM: The Open Source CFD Toolbox           |
|  \\    /   O peration     | Version:  2412                                  |
|   \\  /    A nd           | Website:  www.openfoam.com                      |
|    \\/     M anipulation  |                                                 |
\*---------------------------------------------------------------------------*/
FoamFile
{
    version     2.0;
    format      ascii;
    arch        "LSB;label=32;scalar=64";
    class       volScalarField;
    location    "0.6";
    object      p;
}
// * * * * * * * * * * * * * * * * * * * * * * * * * * * * * * * * * * * * * //

dimensions      [0 2 -2 0 0 0 0];

internalField   nonuniform List<scalar> 
12960
(
106735
106705
106661
106586
106510
106396
106293
106151
106032
105867
105721
105512
105325
105063
104847
104535
104294
103918
103650
103189
102898
102327
102019
101301
100987
100070
99771.2
98581.6
98332.3
96763.2
96620.6
94516.8
94573.5
91707.2
92111.6
88144.6
89133.6
83559.6
85512.7
77567.6
81095.1
69616.2
75713.2
58918.3
69211.5
44285.3
61340.2
23590.9
51186.4
-7332.89
36348.7
-54022
16414.6
-113616
983.097
-72189.8
8460.76
-34842.9
17666.1
-9371.2
24712.5
8728.42
31527.9
22792.8
38199.8
33850.2
44352.4
42606.4
49880.9
49610.1
54729.4
55211
58851.7
59647.5
62255.8
63138.6
65031.4
65913.6
67317.1
68182
69247.2
70108.2
70923.6
71804.8
72407.4
73338
73723.6
74743.3
74874.7
76045.1
75856.4
77272.3
76664.7
78463.8
77297.2
79665.7
77753.2
80916.9
78037.3
106740
106711
106666
106590
106514
106399
106295
106153
106034
105869
105723
105514
105327
105065
104848
104537
104296
103920
103652
103192
102900
102330
102021
101304
100990
100073
99774.3
98585.6
98335.7
96767.8
96624.3
94522.2
94577.5
91713.4
92115.8
88151.9
89137.9
83568.1
85516.7
77577.1
81098.4
69626.7
75715.3
58929.7
69213.1
44299.1
61344.5
23609.5
51197
-7317.43
36356.1
-54053.4
16392.9
-113810
927.3
-72222.8
8449.24
-34831.7
17668.5
-9359.93
24710.4
8733.76
31524.6
22797.3
38197.9
33854.6
44351.8
42610.8
49881.5
49614.7
54731.4
55216
58854.8
59652.5
62259.2
63143
65034.4
65916.8
67319.3
68184
69248.6
70109.2
70924.5
71805.2
72408.3
73338.2
73724.7
74743.3
74876.1
76044.9
75857.9
77271.7
76666.2
78462.8
77298.4
79664.6
77753.7
80916.4
78036.7
106746
106716
106671
106595
106518
106402
106298
106156
106036
105870
105725
105515
105329
105067
104850
104539
104297
103922
103654
103194
102903
102332
102024
101307
100993
100077
99777.4
98589.6
98339.1
96772.5
96628
94527.6
94581.5
91719.7
92119.9
88159.2
89142.1
83576.5
85520.8
77586.8
81101.8
69637.2
75717.6
58941.2
69214.7
44313
61348.8
23628.2
51207.6
-7302.03
36363.4
-54085.1
16370.8
-114006
871.075
-72255.8
8437.43
-34820.8
17670.7
-9348.65
24708.2
8739.23
31521.3
22801.9
38196.1
33859.1
44351.2
42615.2
49882.2
49619.4
54733.5
55221
58857.9
59657.5
62262.6
63147.3
65037.3
65920
67321.4
68186
69250
70110.3
70925.5
71805.7
72409.2
73338.4
73725.8
74743.4
74877.4
76044.7
75859.5
77271.1
76667.8
78461.9
77299.7
79663.6
77754.4
80916
78036.3
106752
106722
106676
106599
106522
106406
106301
106158
106038
105872
105726
105517
105330
105069
104852
104541
104299
103924
103656
103196
102905
102335
102026
101310
100995
100080
99780.5
98593.6
98342.5
96777.2
96631.7
94533.1
94585.5
91726.1
92124.1
88166.6
89146.4
83585.1
85524.9
77596.5
81105.3
69647.9
75719.9
58952.8
69216.4
44327.1
61353.2
23647
51218.1
-7286.62
36370.8
-54117
16348.5
-114204
814.397
-72288.8
8425.36
-34810
17672.7
-9337.37
24706.1
8744.79
31518
22806.5
38194.4
33863.7
44350.7
42619.7
49882.9
49624.1
54735.5
55226
58861
59662.5
62266
63151.6
65040.3
65923.2
67323.6
68188
69251.4
70111.3
70926.5
71806.2
72410.1
73338.6
73726.9
74743.4
74878.8
76044.5
75861.1
77270.5
76669.4
78460.9
77301
79662.7
77755
80915.7
78035.9
106758
106727
106681
106604
106526
106409
106304
106161
106040
105874
105728
105518
105332
105070
104854
104543
104301
103926
103658
103199
102907
102338
102029
101313
100998
100084
99783.7
98597.7
98346
96781.9
96635.5
94538.5
94589.5
91732.4
92128.4
88174
89150.7
83593.7
85529
77606.2
81108.7
69658.6
75722.2
58964.6
69218.1
44341.2
61357.6
23665.9
51228.8
-7271.06
36378.2
-54149.1
16326
-114403
757.174
-72322.1
8413.05
-34799.2
17674.6
-9326.04
24703.9
8750.4
31514.8
22811.3
38192.6
33868.3
44350.2
42624.2
49883.6
49628.9
54737.6
55231.1
58864.1
59667.5
62269.4
63155.9
65043.2
65926.4
67325.7
68190
69252.8
70112.4
70927.4
71806.7
72411.1
73338.8
73728
74743.5
74880.2
76044.3
75862.7
77270
76671
78460
77302.4
79661.7
77755.7
80915.4
78035.5
106764
106733
106687
106609
106531
106413
106307
106163
106042
105876
105730
105520
105334
105072
104855
104545
104303
103928
103660
103201
102910
102340
102032
101316
101001
100088
99786.8
98601.8
98349.4
96786.6
96639.2
94544
94593.5
91738.9
92132.6
88181.5
89155
83602.4
85533.1
77616.1
81112.2
69669.5
75724.5
58976.4
69219.8
44355.5
61362
23684.9
51239.5
-7255.32
36385.8
-54181.3
16303.5
-114605
699.392
-72355.5
8400.52
-34788.5
17676.5
-9314.65
24701.7
8756.03
31511.5
22816
38190.9
33873
44349.6
42628.8
49884.4
49633.6
54739.6
55236.2
58867.2
59672.6
62272.9
63160.3
65046.2
65929.6
67327.9
68192
69254.2
70113.4
70928.4
71807.1
72412
73339
73729.2
74743.5
74881.7
76044.1
75864.3
77269.4
76672.7
78459.1
77303.8
79660.7
77756.4
80915
78035.1
106770
106739
106692
106614
106535
106417
106310
106165
106044
105877
105731
105522
105335
105074
104857
104547
104305
103930
103662
103204
102912
102343
102034
101319
101004
100091
99790
98605.9
98352.9
96791.4
96643
94549.6
94597.6
91745.3
92136.9
88189.1
89159.4
83611.1
85537.3
77626
81115.8
69680.4
75726.9
58988.3
69221.5
44369.8
61366.5
23704.1
51250.4
-7239.4
36393.5
-54213.6
16280.9
-114808
641.053
-72389.2
8387.75
-34777.8
17678.4
-9303.21
24699.5
8761.69
31508.1
22820.8
38189.1
33877.7
44349.1
42633.4
49885.1
49638.5
54741.7
55241.4
58870.4
59677.8
62276.3
63164.8
65049.3
65932.9
67330.1
68194.1
69255.6
70114.5
70929.4
71807.6
72412.9
73339.2
73730.3
74743.6
74883.1
76043.9
75865.9
77268.8
76674.3
78458.1
77305.2
79659.7
77757.1
80914.7
78034.7
106777
106744
106698
106618
106539
106420
106313
106168
106046
105879
105733
105523
105337
105076
104859
104549
104307
103932
103665
103206
102914
102346
102037
101322
101007
100095
99793.2
98610
98356.4
96796.2
96646.8
94555.2
94601.6
91751.9
92141.2
88196.7
89163.8
83619.9
85541.5
77636
81119.3
69691.4
75729.3
59000.3
69223.2
44384.3
61371
23723.4
51261.4
-7223.31
36401.4
-54246
16258.1
-115013
582.156
-72423.1
8374.74
-34767.1
17680.1
-9291.73
24697.2
8767.37
31504.8
22825.6
38187.3
33882.5
44348.6
42638
49885.8
49643.3
54743.9
55246.6
58873.6
59682.9
62279.8
63169.2
65052.3
65936.2
67332.3
68196.1
69257
70115.6
70930.4
71808.1
72413.9
73339.5
73731.5
74743.6
74884.5
76043.7
75867.6
77268.2
76676
78457.2
77306.6
79658.7
77757.8
80914.3
78034.3
106783
106750
106703
106623
106544
106424
106317
106170
106048
105881
105735
105525
105339
105077
104860
104551
104309
103935
103667
103208
102917
102349
102039
101325
101010
100098
99796.4
98614.2
98359.9
96801
96650.6
94560.8
94605.8
91758.4
92145.5
88204.3
89168.2
83628.8
85545.8
77646.1
81122.9
69702.4
75731.6
59012.4
69224.9
44398.8
61375.5
23742.9
51272.4
-7207.04
36409.3
-54278.5
16235.4
-115220
522.697
-72457.2
8361.47
-34756.5
17681.9
-9280.2
24694.9
8773.09
31501.4
22830.5
38185.5
33887.2
44348
42642.7
49886.6
49648.2
54746
55251.9
58876.8
59688.1
62283.4
63173.7
65055.4
65939.5
67334.5
68198.2
69258.5
70116.7
70931.3
71808.6
72414.8
73339.7
73732.6
74743.6
74886
76043.5
75869.3
77267.6
76677.7
78456.2
77308
79657.6
77758.6
80914
78033.9
106789
106756
106709
106628
106548
106428
106320
106173
106050
105883
105736
105527
105340
105079
104862
104552
104311
103937
103669
103211
102919
102351
102042
101328
101013
100102
99799.6
98618.4
98363.5
96805.9
96654.5
94566.5
94609.9
91765
92149.9
88212
89172.7
83637.7
85550
77656.2
81126.5
69713.6
75734
59024.5
69226.7
44413.5
61380
23762.6
51283.6
-7190.59
36417.5
-54311.1
16212.5
-115429
462.674
-72491.6
8347.94
-34746
17683.5
-9268.63
24692.6
8778.84
31498
22835.4
38183.7
33892.1
44347.5
42647.4
49887.3
49653.2
54748.2
55257.2
58880
59693.4
62286.9
63178.2
65058.5
65942.8
67336.8
68200.2
69259.9
70117.7
70932.3
71809.1
72415.7
73339.9
73733.8
74743.7
74887.4
76043.3
75870.9
77267
76679.4
78455.2
77309.4
79656.5
77759.3
80913.6
78033.5
106796
106762
106714
106633
106553
106431
106323
106176
106053
105885
105738
105529
105342
105081
104864
104554
104313
103939
103671
103213
102922
102354
102045
101332
101016
100106
99802.9
98622.6
98367.1
96810.8
96658.4
94572.2
94614.1
91771.7
92154.3
88219.8
89177.1
83646.7
85554.3
77666.4
81130.1
69724.8
75736.4
59036.8
69228.4
44428.2
61384.5
23782.3
51294.8
-7173.96
36425.7
-54343.8
16189.5
-115639
402.085
-72526.1
8334.14
-34735.5
17685.1
-9257.03
24690.2
8784.61
31494.6
22840.3
38181.9
33896.9
44347
42652.2
49888.1
49658.2
54750.3
55262.5
58883.3
59698.7
62290.5
63182.8
65061.6
65946.2
67339
68202.3
69261.4
70118.8
70933.3
71809.6
72416.7
73340.1
73735
74743.7
74888.9
76043.1
75872.6
77266.4
76681.1
78454.2
77310.9
79655.5
77760
80913.2
78033.1
106802
106768
106720
106638
106557
106435
106326
106178
106055
105886
105740
105530
105344
105083
104866
104556
104315
103941
103673
103216
102924
102357
102047
101335
101019
100109
99806.2
98626.9
98370.7
96815.7
96662.3
94577.9
94618.3
91778.4
92158.7
88227.6
89181.7
83655.7
85558.7
77676.7
81133.8
69736.2
75738.9
59049.1
69230.1
44443
61389.1
23802.3
51306.2
-7157.15
36434.1
-54376.6
16166.5
-115852
340.93
-72560.8
8320.07
-34725.2
17686.6
-9245.39
24687.7
8790.4
31491.1
22845.3
38180
33901.8
44346.4
42657
49888.9
49663.2
54752.5
55267.9
58886.6
59704.1
62294.2
63187.4
65064.7
65949.5
67341.3
68204.4
69262.8
70119.9
70934.3
71810.1
72417.6
73340.3
73736.1
74743.8
74890.4
76042.8
75874.3
77265.8
76682.8
78453.2
77312.3
79654.4
77760.8
80912.8
78032.6
106808
106774
106726
106643
106562
106439
106329
106181
106057
105888
105742
105532
105346
105084
104868
104558
104317
103943
103675
103218
102926
102360
102050
101338
101022
100113
99809.5
98631.2
98374.3
96820.7
96666.2
94583.7
94622.5
91785.1
92163.2
88235.5
89186.2
83664.9
85563
77687.1
81137.4
69747.5
75741.3
59061.5
69231.8
44457.9
61393.7
23822.3
51317.7
-7140.16
36442.7
-54409.5
16143.4
-116066
279.206
-72595.7
8305.73
-34714.9
17687.9
-9233.73
24685.3
8796.22
31487.6
22850.3
38178.2
33906.8
44345.9
42661.8
49889.7
49668.3
54754.8
55273.3
58890
59709.4
62297.8
63192.1
65067.9
65952.9
67343.6
68206.5
69264.3
70121
70935.3
71810.6
72418.6
73340.5
73737.3
74743.8
74891.9
76042.6
75876
77265.2
76684.6
78452.1
77313.8
79653.2
77761.5
80912.4
78032.2
106815
106780
106731
106648
106566
106443
106333
106183
106059
105890
105743
105534
105347
105086
104869
104560
104319
103946
103678
103221
102929
102363
102053
101341
101025
100117
99812.8
98635.5
98377.9
96825.7
96670.2
94589.5
94626.8
91791.9
92167.6
88243.4
89190.8
83674
85567.4
77697.5
81141.1
69759
75743.7
59074
69233.5
44472.9
61398.3
23842.6
51329.3
-7122.98
36451.3
-54442.5
16120.2
-116282
216.912
-72630.8
8291.1
-34704.8
17689.2
-9222.04
24682.7
8802.07
31484.1
22855.4
38176.4
33911.7
44345.3
42666.6
49890.4
49673.4
54757
55278.8
58893.3
59714.9
62301.5
63196.7
65071.1
65956.4
67345.9
68208.6
69265.7
70122.1
70936.3
71811.1
72419.5
73340.8
73738.5
74743.9
74893.4
76042.4
75877.8
77264.6
76686.3
78451.1
77315.3
79652.1
77762.3
80911.9
78031.7
106822
106786
106737
106653
106571
106446
106336
106186
106061
105892
105745
105535
105349
105088
104871
104562
104321
103948
103680
103223
102931
102365
102056
101345
101028
100120
99816.2
98639.9
98381.6
96830.7
96674.2
94595.4
94631
91798.8
92172.2
88251.4
89195.4
83683.3
85571.8
77708
81144.9
69770.6
75746.2
59086.5
69235.2
44488
61403
23862.9
51341
-7105.62
36460.2
-54475.6
16096.9
-116500
154.048
-72666
8276.18
-34694.7
17690.4
-9210.33
24680.2
8807.94
31480.5
22860.4
38174.5
33916.7
44344.8
42671.5
49891.2
49678.5
54759.3
55284.3
58896.7
59720.3
62305.2
63201.4
65074.3
65959.8
67348.2
68210.8
69267.2
70123.2
70937.3
71811.6
72420.5
73341
73739.7
74743.9
74894.9
76042.2
75879.5
77264
76688.1
78450
77316.8
79650.9
77763
80911.5
78031.3
106828
106792
106743
106658
106576
106450
106339
106188
106064
105894
105747
105537
105351
105090
104873
104564
104323
103950
103682
103226
102934
102368
102058
101348
101031
100124
99819.5
98644.2
98385.3
96835.8
96678.2
94601.3
94635.4
91805.6
92176.7
88259.4
89200
83692.6
85576.3
77718.6
81148.6
69782.2
75748.7
59099.2
69236.9
44503.2
61407.6
23883.4
51352.8
-7088.07
36469.2
-54508.7
16073.6
-116720
90.6132
-72701.5
8260.98
-34684.8
17691.4
-9198.61
24677.5
8813.83
31476.9
22865.6
38172.6
33921.8
44344.2
42676.5
49892.1
49683.7
54761.6
55289.9
58900.2
59725.9
62309
63206.2
65077.5
65963.3
67350.5
68212.9
69268.7
70124.3
70938.3
71812
72421.4
73341.2
73740.9
74744
74896.4
76042
75881.2
77263.3
76689.9
78449
77318.3
79649.7
77763.8
80911
78030.8
106835
106798
106749
106663
106580
106454
106343
106191
106066
105896
105749
105539
105353
105092
104875
104566
104325
103952
103684
103228
102936
102371
102061
101351
101034
100128
99822.9
98648.6
98389
96840.9
96682.3
94607.2
94639.7
91812.6
92181.3
88267.5
89204.7
83702
85580.8
77729.3
81152.4
69793.9
75751.1
59111.9
69238.7
44518.5
61412.3
23904.1
51364.7
-7070.33
36478.3
-54542
16050.2
-116942
26.6071
-72737
8245.48
-34675.1
17692.3
-9186.88
24674.9
8819.73
31473.3
22870.7
38170.8
33926.9
44343.7
42681.4
49892.9
49688.9
54763.9
55295.5
58903.6
59731.4
62312.7
63211
65080.8
65966.8
67352.9
68215.1
69270.2
70125.4
70939.3
71812.5
72422.4
73341.4
73742.1
74744
74898
76041.8
75883
77262.7
76691.7
78447.9
77319.8
79648.5
77764.6
80910.5
78030.3
106842
106805
106755
106669
106585
106458
106346
106194
106068
105897
105750
105541
105354
105094
104877
104568
104327
103955
103687
103231
102939
102374
102064
101355
101037
100132
99826.3
98653.1
98392.8
96846
96686.3
94613.2
94644.1
91819.5
92185.9
88275.6
89209.4
83711.4
85585.3
77740
81156.2
69805.7
75753.6
59124.7
69240.4
44533.9
61417
23924.9
51376.7
-7052.4
36487.6
-54575.3
16026.7
-117166
-37.9701
-72772.8
8229.69
-34665.5
17693.1
-9175.15
24672.1
8825.66
31469.7
22875.9
38168.9
33932
44343.1
42686.4
49893.7
49694.2
54766.2
55301.1
58907.1
59737
62316.5
63215.8
65084.1
65970.3
67355.2
68217.3
69271.7
70126.5
70940.3
71813
72423.4
73341.6
73743.4
74744.1
74899.5
76041.6
75884.8
77262.1
76693.5
78446.8
77321.4
79647.3
77765.4
80910
78029.8
106849
106811
106761
106674
106590
106462
106349
106196
106070
105899
105752
105542
105356
105096
104879
104570
104329
103957
103689
103234
102941
102377
102067
101358
101040
100136
99829.8
98657.5
98396.5
96851.2
96690.4
94619.2
94648.4
91826.6
92190.5
88283.8
89214.1
83720.9
85589.8
77750.8
81160.1
69817.6
75756.1
59137.6
69242.1
44549.4
61421.7
23945.9
51388.8
-7034.28
36497
-54608.6
16003.2
-117391
-103.118
-72808.7
8213.61
-34656.1
17693.7
-9163.42
24669.3
8831.61
31466
22881.1
38167
33937.2
44342.6
42691.5
49894.5
49699.5
54768.5
55306.8
58910.6
59742.7
62320.4
63220.6
65087.4
65973.9
67357.6
68219.4
69273.2
70127.6
70941.3
71813.5
72424.3
73341.9
73744.6
74744.1
74901.1
76041.3
75886.6
77261.4
76695.3
78445.7
77322.9
79646
77766.2
80909.5
78029.4
106855
106817
106767
106679
106595
106466
106353
106199
106073
105901
105754
105544
105358
105097
104881
104572
104331
103959
103691
103236
102944
102380
102069
101361
101043
100140
99833.2
98662
98400.3
96856.4
96694.5
94625.3
94652.9
91833.6
92195.2
88292.1
89218.9
83730.5
85594.4
77761.7
81163.9
69829.6
75758.7
59150.5
69243.8
44564.9
61426.5
23967
51401
-7015.97
36506.6
-54642.1
15979.6
-117619
-168.836
-72844.7
8197.24
-34646.8
17694.1
-9151.7
24666.4
8837.58
31462.3
22886.4
38165.1
33942.3
44342
42696.6
49895.4
49704.8
54770.9
55312.6
58914.2
59748.4
62324.3
63225.5
65090.7
65977.5
67360
68221.6
69274.7
70128.7
70942.3
71814
72425.3
73342.1
73745.8
74744.2
74902.6
76041.1
75888.4
77260.7
76697.2
78444.5
77324.5
79644.7
77767
80908.9
78028.9
106862
106824
106773
106685
106599
106470
106356
106202
106075
105903
105756
105546
105360
105099
104883
104575
104333
103962
103694
103239
102946
102383
102072
101365
101046
100144
99836.7
98666.5
98404.1
96861.6
96698.7
94631.3
94657.3
91840.7
92199.8
88300.4
89223.7
83740.1
85599
77772.7
81167.8
69841.6
75761.2
59163.6
69245.5
44580.6
61431.2
23988.2
51413.3
-6997.47
36516.3
-54675.6
15956
-117849
-235.124
-72880.8
8180.58
-34637.7
17694.4
-9139.99
24663.5
8843.56
31458.5
22891.6
38163.2
33947.6
44341.5
42701.7
49896.2
49710.2
54773.3
55318.4
58917.8
59754.1
62328.2
63230.5
65094.1
65981.1
67362.4
68223.8
69276.2
70129.9
70943.3
71814.5
72426.3
73342.3
73747.1
74744.2
74904.2
76040.9
75890.2
77260.1
76699.1
78443.4
77326.1
79643.4
77767.8
80908.4
78028.4
106869
106830
106779
106690
106604
106474
106360
106205
106077
105905
105757
105548
105362
105101
104884
104577
104335
103964
103696
103241
102949
102386
102075
101368
101049
100148
99840.2
98671.1
98408
96866.9
96702.8
94637.5
94661.8
91847.9
92204.6
88308.8
89228.5
83749.8
85603.6
77783.7
81171.7
69853.7
75763.7
59176.7
69247.2
44596.3
61436
24009.6
51425.8
-6978.78
36526.2
-54709.2
15932.3
-118080
-301.979
-72917.1
8163.64
-34628.8
17694.5
-9128.31
24660.5
8849.55
31454.7
22897
38161.2
33952.9
44340.9
42706.8
49897.1
49715.6
54775.7
55324.2
58921.4
59759.9
62332.1
63235.4
65097.5
65984.7
67364.8
68226
69277.7
70131
70944.4
71815
72427.3
73342.5
73748.3
74744.3
74905.8
76040.7
75892
77259.4
76700.9
78442.2
77327.7
79642.1
77768.6
80907.8
78027.9
106877
106837
106786
106696
106609
106478
106363
106207
106079
105907
105759
105550
105363
105103
104886
104579
104337
103966
103698
103244
102952
102389
102078
101372
101053
100152
99843.7
98675.7
98411.8
96872.2
96707
94643.7
94666.3
91855.1
92209.3
88317.2
89233.3
83759.6
85608.3
77794.8
81175.6
69865.9
75766.3
59189.9
69248.9
44612.2
61440.8
24031.2
51438.3
-6959.89
36536.3
-54742.8
15908.6
-118314
-369.4
-72953.4
8146.41
-34620.1
17694.4
-9116.65
24657.5
8855.56
31450.9
22902.3
38159.3
33958.2
44340.4
42712
49897.9
49721.1
54778.1
55330.1
58925
59765.7
62336
63240.4
65100.9
65988.3
67367.2
68228.3
69279.2
70132.1
70945.4
71815.5
72428.3
73342.7
73749.6
74744.3
74907.4
76040.4
75893.9
77258.7
76702.8
78441.1
77329.3
79640.8
77769.4
80907.2
78027.3
106884
106843
106792
106701
106614
106482
106367
106210
106082
105909
105761
105551
105365
105105
104888
104581
104340
103969
103701
103247
102954
102392
102081
101375
101056
100155
99847.3
98680.3
98415.7
96877.6
96711.3
94649.9
94670.8
91862.4
92214.1
88325.6
89238.2
83769.4
85613
77806
81179.6
69878.2
75768.9
59203.2
69250.6
44628.1
61445.7
24052.9
51451
-6940.8
36546.5
-54776.5
15884.8
-118549
-437.385
-72989.9
8128.92
-34611.7
17694.1
-9105.02
24654.3
8861.58
31447.1
22907.7
38157.4
33963.5
44339.8
42717.3
49898.8
49726.6
54780.6
55336
58928.7
59771.6
62340
63245.5
65104.3
65992
67369.7
68230.5
69280.7
70133.2
70946.4
71816
72429.2
73343
73750.8
74744.4
74909
76040.2
75895.7
77258.1
76704.7
78439.9
77330.9
79639.4
77770.3
80906.6
78026.8
106891
106850
106798
106707
106619
106486
106370
106213
106084
105911
105763
105553
105367
105107
104890
104583
104342
103971
103703
103249
102957
102395
102084
101379
101059
100160
99850.8
98684.9
98419.6
96882.9
96715.5
94656.1
94675.4
91869.7
92218.9
88334.2
89243.1
83779.3
85617.7
77817.2
81183.6
69890.5
75771.4
59216.6
69252.3
44644.1
61450.5
24074.7
51463.8
-6921.52
36556.8
-54810.3
15860.9
-118786
-505.933
-73026.4
8111.15
-34603.4
17693.6
-9093.44
24651.1
8867.61
31443.2
22913.1
38155.4
33968.9
44339.3
42722.5
49899.7
49732.1
54783.1
55341.9
58932.4
59777.5
62344.1
63250.5
65107.8
65995.7
67372.1
68232.8
69282.3
70134.4
70947.4
71816.5
72430.2
73343.2
73752.1
74744.5
74910.6
76040
75897.6
77257.4
76706.6
78438.7
77332.6
79638
77771.1
80905.9
78026.3
106898
106857
106805
106712
106624
106490
106374
106216
106086
105913
105765
105555
105369
105109
104892
104585
104344
103974
103705
103252
102960
102398
102087
101382
101062
100164
99854.4
98689.6
98423.5
96888.3
96719.8
94662.4
94680
91877
92223.7
88342.7
89248.1
83789.2
85622.5
77828.6
81187.6
69903
75774
59230
69254
44660.2
61455.4
24096.7
51476.6
-6902.04
36567.4
-54844.1
15837
-119026
-575.039
-73062.9
8093.14
-34595.4
17692.8
-9081.9
24647.8
8873.65
31439.3
22918.6
38153.4
33974.3
44338.7
42727.8
49900.6
49737.7
54785.5
55347.9
58936.1
59783.5
62348.1
63255.7
65111.2
65999.4
67374.6
68235
69283.8
70135.5
70948.4
71817
72431.2
73343.4
73753.4
74744.5
74912.3
76039.8
75899.5
77256.7
76708.6
78437.4
77334.2
79636.6
77772
80905.3
78025.7
106906
106864
106811
106718
106629
106495
106377
106218
106089
105915
105767
105557
105371
105111
104894
104587
104346
103976
103708
103255
102962
102401
102090
101386
101066
100168
99858
98694.2
98427.5
96893.8
96724.1
94668.7
94684.6
91884.4
92228.6
88351.4
89253
83799.3
85627.2
77840
81191.6
69915.5
75776.6
59243.5
69255.6
44676.4
61460.3
24118.9
51489.6
-6882.36
36578.1
-54878
15813.1
-119267
-644.702
-73099.5
8074.87
-34587.6
17691.8
-9070.42
24644.4
8879.69
31435.3
22924.1
38151.4
33979.8
44338.1
42733.1
49901.5
49743.3
54788.1
55354
58939.9
59789.5
62352.2
63260.8
65114.7
66003.2
67377.1
68237.3
69285.3
70136.6
70949.5
71817.5
72432.2
73343.6
73754.6
74744.6
74913.9
76039.5
75901.4
77256
76710.5
78436.2
77335.9
79635.1
77772.9
80904.6
78025.2
106913
106871
106818
106723
106635
106499
106381
106221
106091
105917
105768
105559
105373
105113
104896
104590
104348
103979
103710
103258
102965
102404
102093
101389
101069
100172
99861.6
98699
98431.5
96899.2
96728.4
94675.1
94689.2
91891.8
92233.5
88360.1
89258
83809.3
85632
77851.4
81195.7
69928.1
75779.2
59257.1
69257.3
44692.7
61465.2
24141.1
51502.7
-6862.48
36589
-54911.9
15789.1
-119511
-714.917
-73136.1
8056.38
-34580
17690.6
-9059
24640.9
8885.74
31431.3
22929.6
38149.5
33985.3
44337.6
42738.5
49902.4
49749
54790.6
55360.1
58943.6
59795.5
62356.3
63266
65118.3
66006.9
67379.6
68239.6
69286.9
70137.8
70950.5
71818
72433.2
73343.8
73755.9
74744.6
74915.6
76039.3
75903.3
77255.3
76712.5
78435
77337.6
79633.7
77773.7
80903.9
78024.6
106921
106878
106824
106729
106640
106503
106385
106224
106094
105919
105770
105561
105375
105115
104898
104592
104351
103981
103713
103260
102968
102408
102096
101393
101072
100176
99865.3
98703.7
98435.5
96904.7
96732.7
94681.5
94693.9
91899.3
92238.4
88368.8
89263.1
83819.5
85636.9
77863
81199.8
69940.8
75781.9
59270.8
69259
44709
61470.1
24163.6
51515.9
-6842.39
36600
-54945.8
15765.1
-119756
-785.682
-73172.7
8037.66
-34572.6
17689.1
-9047.65
24637.4
8891.8
31427.3
22935.1
38147.5
33990.8
44337
42743.9
49903.3
49754.7
54793.1
55366.2
58947.5
59801.6
62360.5
63271.2
65121.8
66010.7
67382.1
68241.9
69288.4
70138.9
70951.5
71818.4
72434.2
73344.1
73757.2
74744.7
74917.2
76039.1
75905.2
77254.6
76714.5
78433.7
77339.3
79632.2
77774.6
80903.2
78024.1
106928
106884
106831
106735
106645
106507
106388
106227
106096
105921
105772
105562
105377
105117
104900
104594
104353
103983
103715
103263
102970
102411
102099
101396
101075
100180
99868.9
98708.5
98439.5
96910.3
96737.1
94687.9
94698.6
91906.8
92243.3
88377.6
89268.1
83829.7
85641.8
77874.6
81203.9
69953.5
75784.5
59284.6
69260.7
44725.5
61475
24186.1
51529.2
-6822.11
36611.2
-54979.8
15741.1
-120004
-856.992
-73209.3
8018.74
-34565.5
17687.4
-9036.38
24633.7
8897.86
31423.2
22940.7
38145.4
33996.4
44336.4
42749.4
49904.3
49760.4
54795.7
55372.4
58951.3
59807.8
62364.7
63276.5
65125.4
66014.5
67384.6
68244.2
69290
70140.1
70952.5
71818.9
72435.2
73344.3
73758.5
74744.7
74918.9
76038.9
75907.2
77253.8
76716.5
78432.4
77341
79630.6
77775.5
80902.4
78023.5
106936
106892
106837
106741
106650
106512
106392
106230
106098
105923
105774
105564
105378
105119
104902
104596
104355
103986
103718
103266
102973
102414
102102
101400
101079
100184
99872.6
98713.3
98443.5
96915.8
96741.5
94694.4
94703.3
91914.4
92248.3
88386.4
89273.2
83840
85646.7
77886.3
81208
69966.4
75787.1
59298.4
69262.3
44742
61480
24208.9
51542.7
-6801.61
36622.6
-55013.9
15717
-120253
-928.844
-73245.9
7999.63
-34558.6
17685.4
-9025.19
24629.9
8903.91
31419.1
22946.4
38143.4
34002
44335.9
42754.8
49905.2
49766.2
54798.3
55378.6
58955.2
59814
62368.9
63281.8
65129
66018.4
67387.1
68246.5
69291.6
70141.2
70953.6
71819.4
72436.2
73344.5
73759.8
74744.8
74920.6
76038.6
75909.1
77253.1
76718.5
78431.1
77342.7
79629.1
77776.4
80901.7
78023
106943
106899
106844
106747
106656
106516
106396
106233
106101
105925
105776
105566
105380
105121
104904
104598
104357
103988
103720
103269
102976
102417
102105
101404
101082
100188
99876.4
98718.1
98447.6
96921.4
96745.9
94700.9
94708
91922
92253.3
88395.3
89278.3
83850.3
85651.6
77898.1
81212.2
69979.3
75789.8
59312.3
69264
44758.6
61484.9
24231.7
51556.2
-6780.92
36634.1
-55047.9
15692.9
-120505
-1001.23
-73282.5
7980.36
-34552
17683.1
-9014.1
24626.1
8909.97
31415
22952
38141.4
34007.6
44335.3
42760.4
49906.1
49772
54800.9
55384.9
58959.1
59820.2
62373.1
63287.1
65132.6
66022.2
67389.7
68248.9
69293.1
70142.4
70954.6
71819.9
72437.2
73344.7
73761.1
74744.9
74922.3
76038.4
75911.1
77252.4
76720.5
78429.8
77344.5
79627.5
77777.3
80900.9
78022.4
106951
106906
106851
106753
106661
106520
106400
106236
106103
105927
105778
105568
105382
105123
104906
104601
104360
103991
103723
103272
102979
102420
102108
101407
101086
100193
99880.1
98723
98451.7
96927.1
96750.4
94707.5
94712.8
91929.7
92258.3
88404.3
89283.5
83860.7
85656.6
77909.9
81216.4
69992.3
75792.5
59326.3
69265.6
44775.3
61489.9
24254.8
51569.9
-6760.01
36645.8
-55082
15668.7
-120759
-1074.15
-73318.9
7960.93
-34545.5
17680.5
-9003.12
24622.1
8916.02
31410.8
22957.7
38139.3
34013.3
44334.7
42765.9
49907.1
49777.9
54803.6
55391.2
58963
59826.5
62377.4
63292.5
65136.3
66026.1
67392.3
68251.2
69294.7
70143.5
70955.6
71820.4
72438.2
73344.9
73762.5
74744.9
74924
76038.2
75913.1
77251.6
76722.6
78428.4
77346.2
79625.9
77778.3
80900
78021.8
106959
106913
106858
106759
106666
106525
106403
106239
106106
105929
105780
105570
105384
105125
104908
104603
104362
103994
103725
103275
102981
102424
102111
101411
101089
100197
99883.8
98727.9
98455.8
96932.7
96754.8
94714.1
94717.6
91937.4
92263.4
88413.3
89288.6
83871.2
85661.6
77921.8
81220.6
70005.4
75795.2
59340.4
69267.3
44792.1
61494.9
24277.9
51583.6
-6738.9
36657.7
-55116.1
15644.6
-121015
-1147.6
-73355.4
7941.37
-34539.3
17677.6
-8992.24
24618
8922.07
31406.5
22963.4
38137.3
34019
44334.1
42771.5
49908
49783.8
54806.2
55397.6
58967
59832.8
62381.7
63297.9
65139.9
66030
67394.8
68253.6
69296.3
70144.7
70956.7
71820.9
72439.2
73345.2
73763.8
74745
74925.7
76037.9
75915.1
77250.9
76724.6
78427.1
77348
79624.2
77779.2
80899.2
78021.2
106967
106920
106865
106765
106672
106529
106407
106242
106108
105931
105781
105572
105386
105127
104910
104605
104364
103996
103728
103277
102984
102427
102114
101415
101092
100201
99887.6
98732.8
98459.9
96938.4
96759.3
94720.7
94722.4
91945.1
92268.5
88422.4
89293.9
83881.7
85666.6
77933.8
81224.8
70018.6
75797.8
59354.5
69268.9
44809
61499.9
24301.2
51597.5
-6717.57
36669.8
-55150.3
15620.4
-121273
-1221.57
-73391.7
7921.7
-34533.3
17674.4
-8981.48
24613.8
8928.11
31402.3
22969.1
38135.2
34024.8
44333.5
42777.1
49909
49789.7
54808.9
55404
58971
59839.2
62386
63303.3
65143.6
66034
67397.4
68255.9
69297.9
70145.8
70957.7
71821.4
72440.3
73345.4
73765.1
74745.1
74927.4
76037.7
75917.1
77250.1
76726.7
78425.7
77349.8
79622.6
77780.2
80898.3
78020.6
106975
106928
106872
106771
106677
106534
106411
106245
106111
105933
105783
105574
105388
105129
104913
104607
104366
103999
103730
103280
102987
102430
102117
101418
101096
100205
99891.4
98737.7
98464.1
96944.2
96763.8
94727.4
94727.3
91952.9
92273.6
88431.5
89299.1
83892.3
85671.6
77945.9
81229.1
70031.8
75800.5
59368.7
69270.5
44826
61504.9
24324.7
51611.5
-6696.04
36682.1
-55184.4
15596.2
-121533
-1296.06
-73427.9
7901.94
-34527.6
17670.9
-8970.85
24609.5
8934.14
31398
22974.9
38133.1
34030.5
44333
42782.8
49910
49795.7
54811.6
55410.5
58975
59845.6
62390.4
63308.8
65147.4
66037.9
67400
68258.3
69299.4
70147
70958.7
71821.9
72441.3
73345.6
73766.5
74745.1
74929.1
76037.5
75919.1
77249.4
76728.8
78424.3
77351.6
79620.9
77781.1
80897.4
78020
106983
106935
106879
106777
106683
106538
106415
106248
106113
105935
105785
105576
105390
105131
104915
104610
104369
104001
103733
103283
102990
102433
102120
101422
101099
100210
99895.2
98742.7
98468.3
96949.9
96768.4
94734.1
94732.2
91960.8
92278.8
88440.6
89304.4
83903
85676.7
77958.1
81233.4
70045.1
75803.3
59383.1
69272.1
44843
61510
24348.3
51625.6
-6674.29
36694.5
-55218.6
15572
-121795
-1371.06
-73464
7882.12
-34522
17667
-8960.36
24605
8940.15
31393.6
22980.7
38131
34036.4
44332.4
42788.4
49911
49801.7
54814.3
55417
58979.1
59852
62394.8
63314.3
65151.1
66041.9
67402.6
68260.7
69301
70148.2
70959.8
71822.3
72442.3
73345.8
73767.8
74745.2
74930.9
76037.2
75921.1
77248.6
76730.9
78422.9
77353.4
79619.2
77782.1
80896.5
78019.4
106991
106943
106886
106783
106688
106543
106419
106251
106116
105937
105787
105577
105392
105133
104917
104612
104371
104004
103735
103286
102993
102437
102123
101426
101103
100214
99899.1
98747.7
98472.5
96955.7
96773
94740.9
94737.1
91968.6
92283.9
88449.9
89309.7
83913.7
85681.8
77970.3
81237.7
70058.5
75806
59397.4
69273.8
44860.2
61515
24372.1
51639.8
-6652.33
36707.1
-55252.8
15547.8
-122059
-1446.57
-73499.9
7862.26
-34516.6
17662.9
-8950
24600.4
8946.16
31389.2
22986.5
38128.9
34042.2
44331.8
42794.2
49911.9
49807.8
54817.1
55423.5
58983.2
59858.5
62399.2
63319.9
65154.9
66045.9
67405.3
68263.1
69302.6
70149.3
70960.8
71822.8
72443.3
73346
73769.2
74745.3
74932.7
76037
75923.2
77247.8
76733
78421.5
77355.2
79617.4
77783.1
80895.5
78018.8
106999
106950
106893
106789
106694
106547
106422
106254
106118
105939
105789
105579
105394
105135
104919
104614
104374
104006
103738
103289
102996
102440
102127
101430
101106
100218
99902.9
98752.7
98476.7
96961.6
96777.6
94747.6
94742
91976.6
92289.1
88459.1
89315
83924.5
85687
77982.6
81242