/*--------------------------------*- C++ -*----------------------------------*\
| =========                 |                                                 |
| \\      /  F ield         | OpenFOAM: The Open Source CFD Toolbox           |
|  \\    /   O peration     | Version:  2412                                  |
|   \\  /    A nd           | Website:  www.openfoam.com                      |
|    \\/     M anipulation  |                                                 |
\*---------------------------------------------------------------------------*/
FoamFile
{
    version     2.0;
    format      ascii;
    arch        "LSB;label=32;scalar=64";
    class       surfaceScalarField;
    location    "0.6";
    object      phi;
}
// * * * * * * * * * * * * * * * * * * * * * * * * * * * * * * * * * * * * * //

dimensions      [0 3 -1 0 0 0 0];

oriented        oriented;

internalField   nonuniform List<scalar> 
25689
(
0.00747719
0.0134544
0.00739225
0.0119988
0.00731912
0.0106564
0.00725739
0.00916006
0.00721022
0.00689908
0.00718093
0.00360368
0.00717252
-0.000502562
0.00718644
-0.00462461
0.00722282
-0.00794052
0.00727814
-0.00987346
0.00734424
-0.0103113
0.00741048
-0.00959663
0.00746846
-0.00830578
0.00751582
-0.00701634
0.00755456
-0.00597784
0.00758787
-0.00522583
0.00761728
-0.00460512
0.00764386
-0.0041163
0.00766762
-0.0036464
0.00768924
-0.00328409
0.00770851
-0.00290971
0.00772618
-0.00264452
0.00774164
-0.00231563
0.00775598
-0.00213428
0.00776818
-0.00182894
0.00777965
-0.00171108
0.00778891
-0.00140794
0.00779789
-0.00135294
0.00780439
-0.0010207
0.00781127
-0.00105305
0.00781521
-0.00066406
0.00782028
-0.000790269
0.00782167
-0.000311852
0.00782524
-0.000576706
0.0078241
2.04887e-05
0.00782649
-0.000428005
0.00782263
0.000334311
0.00782425
-0.000393307
0.00781768
0.000564583
0.00781956
-0.000573903
0.00781183
0.000524639
0.00781743
-0.00121963
0.00781323
-4.07124e-05
0.00782874
-0.00242177
0.00783412
-0.000970974
0.00786212
-0.00342798
0.00787216
-0.00076478
0.00789425
-0.00160786
0.0078836
0.00308427
0.00786289
0.00602486
0.00780142
0.0126395
0.00763913
0.0287284
0.00735584
0.0454851
0.00740543
-0.005849
0.00760274
-0.0300271
0.00772568
-0.0195384
0.0077639
-0.00866122
0.00778732
-0.00568128
0.00777199
0.000279274
0.00776422
-5.13472e-05
0.00774181
0.00240463
0.00773697
0.000551074
0.00772582
0.00163978
0.00772895
-0.000109785
0.00772633
0.000655914
0.00773392
-0.000650766
0.00773681
-1.42367e-05
0.00774648
-0.000875985
0.00775135
-0.000272075
0.00775936
-0.000744167
0.00776214
-0.000144629
0.00776518
-0.000271288
0.00776289
0.000333584
0.00775919
0.000427616
0.00775075
0.000974409
0.00774053
0.00114833
0.00772689
0.00155814
0.00771211
0.00169483
0.00769585
0.00189974
0.00767972
0.00192318
0.00766383
0.0019461
0.00764888
0.00189291
0.00763515
0.00179064
0.00762226
0.00172617
0.00761062
0.00156979
0.00759898
0.00155026
0.0075882
0.00137504
0.0075765
0.00139654
0.00756572
0.00116119
0.0075533
0.00119479
0.00754238
0.000854147
0.00752969
0.000807218
0.00751971
0.000304558
0.00750881
3.68003e-05
0.00750229
-0.000666749
0.00749824
-0.00138416
0.00750063
-0.0023358
0.00751335
-0.00369838
-0.00566492
0.00747724
0.0135529
0.00739243
0.0120836
0.00731949
0.0107294
0.00725793
0.00922162
0.00721086
0.00694615
0.00718149
0.00363304
0.00717279
-0.000493859
0.00718624
-0.00463806
0.00722207
-0.00797635
0.00727692
-0.00992831
0.00734272
-0.0103772
0.00740884
-0.00966275
0.00746676
-0.00836371
0.00751404
-0.00706362
0.00755267
-0.00601647
0.00758586
-0.00525902
0.00761517
-0.00463443
0.00764166
-0.00414279
0.00766535
-0.00367008
0.00768692
-0.00330566
0.00770613
-0.00292893
0.00772376
-0.00266214
0.00773919
-0.00233106
0.0077535
-0.0021486
0.00776566
-0.00184111
0.00777711
-0.00172253
0.00778634
-0.00141717
0.0077953
-0.0013619
0.00780177
-0.00102717
0.00780863
-0.00105991
0.00781255
-0.000667979
0.0078176
-0.000795313
0.00781897
-0.00031322
0.00782252
-0.000580258
0.00782135
2.16535e-05
0.00782372
-0.000430368
0.00781982
0.000338208
0.00782141
-0.000394894
0.00781478
0.000571207
0.0078166
-0.000575725
0.00780878
0.00053246
0.00781431
-0.00122515
0.00781
-3.64093e-05
0.00782547
-0.00243723
0.00783082
-0.000976323
0.0078589
-0.00345606
0.00786906
-0.000774945
0.0078914
-0.0016302
0.00788101
0.00309466
0.00786079
0.00604508
0.00780001
0.0127002
0.0076389
0.0288895
0.00735703
0.0457669
0.00740681
-0.00589878
0.00760343
-0.0302238
0.00772577
-0.0196608
0.00776337
-0.00869882
0.00778635
-0.00570426
0.00777071
0.000294914
0.00776274
-4.33748e-05
0.0077402
0.00242717
0.0077353
0.000555975
0.00772414
0.00165094
0.00772728
-0.000112922
0.00772467
0.000658518
0.00773227
-0.000658368
0.00773518
-1.7148e-05
0.00774489
-0.00088569
0.00774979
-0.000276971
0.00775783
-0.000752213
0.00776063
-0.00014743
0.0077637
-0.000274351
0.00776141
0.000335868
0.00775772
0.000431309
0.00774926
0.000982864
0.00773902
0.00115857
0.00772535
0.00157181
0.00771053
0.00170965
0.00769423
0.00191604
0.00767807
0.00193934
0.00766215
0.00196201
0.0076472
0.00190787
0.00763346
0.00180438
0.00762058
0.00173904
0.00760895
0.00158143
0.00759731
0.0015619
0.00758653
0.00138582
0.00757481
0.00140826
0.007564
0.001172
0.00755153
0.00120726
0.00754056
0.000865123
0.00752777
0.000820006
0.00751768
0.000314651
0.00750661
4.7866e-05
0.00749993
-0.000660067
0.00749564
-0.00137987
0.00749781
-0.00233797
0.00751028
-0.00371084
-0.00569199
0.00747729
0.0136513
0.00739262
0.0121683
0.00731986
0.0108021
0.00725848
0.009283
0.0072115
0.00699313
0.00718206
0.00366248
0.00717306
-0.000484864
0.00718603
-0.00465103
0.0072213
-0.00801162
0.00727566
-0.00998267
0.00734117
-0.0104427
0.00740716
-0.00972874
0.00746503
-0.00842158
0.00751224
-0.00711082
0.00755076
-0.00605499
0.00758384
-0.00529209
0.00761304
-0.00466363
0.00763944
-0.0041692
0.00766306
-0.00369369
0.00768457
-0.00332717
0.00770374
-0.0029481
0.00772132
-0.00267972
0.00773671
-0.00234645
0.00775099
-0.00216288
0.00776313
-0.00185325
0.00777455
-0.00173395
0.00778376
-0.00142638
0.00779269
-0.00137083
0.00779914
-0.00103363
0.00780598
-0.00106675
0.00780988
-0.000671875
0.0078149
-0.000800336
0.00781624
-0.000314565
0.00781978
-0.00058379
0.00781859
2.28449e-05
0.00782093
-0.000432708
0.00781699
0.00034214
0.00781855
-0.000396447
0.00781187
0.000577886
0.00781363
-0.00057749
0.00780572
0.000540371
0.00781116
-0.0012306
0.00780676
-3.20049e-05
0.00782217
-0.00245264
0.00782749
-0.000981645
0.00785565
-0.00348422
0.00786594
-0.000785235
0.00788853
-0.00165279
0.00787839
0.0031048
0.00785868
0.00606479
0.00779859
0.0127603
0.00763867
0.0290494
0.00735823
0.0460474
0.0074082
-0.00594874
0.00760413
-0.0304197
0.00772585
-0.0197825
0.00776284
-0.0087358
0.00778537
-0.00572679
0.00776943
0.000310859
0.00776125
-3.52006e-05
0.00773858
0.00244985
0.00773362
0.000560934
0.00772245
0.00166211
0.00772559
-0.000116071
0.007723
0.00066111
0.00773062
-0.000665988
0.00773356
-2.00793e-05
0.00774329
-0.000895426
0.00774822
-0.000281899
0.0077563
-0.000760291
0.00775912
-0.000150256
0.00776221
-0.000277434
0.00775993
0.000338142
0.00775624
0.000435001
0.00774778
0.000991331
0.00773751
0.00116884
0.00772381
0.00158551
0.00770895
0.00172451
0.00769261
0.00193238
0.00767642
0.00195554
0.00766048
0.00197795
0.00764551
0.00192284
0.00763176
0.00181812
0.00761889
0.00175192
0.00760727
0.00159305
0.00759564
0.00157353
0.00758485
0.00139661
0.00757312
0.00141998
0.00756228
0.00118284
0.00754977
0.00121978
0.00753873
0.000876162
0.00752584
0.000832894
0.00751564
0.000324851
0.00750441
5.90993e-05
0.00749756
-0.00065322
0.00749303
-0.00137534
0.00749497
-0.00233991
0.00750718
-0.00372305
-0.00571883
0.00747735
0.0137498
0.0073928
0.0122528
0.00732024
0.0108747
0.00725904
0.00934421
0.00721215
0.00704002
0.00718263
0.00369201
0.00717334
-0.000475578
0.00718583
-0.00466352
0.00722054
-0.00804633
0.00727441
-0.0100365
0.00733961
-0.0105079
0.00740547
-0.0097946
0.00746329
-0.0084794
0.00751042
-0.00715795
0.00754884
-0.0060934
0.00758179
-0.00532505
0.00761089
-0.00469273
0.00763721
-0.00419552
0.00766075
-0.00371724
0.0076822
-0.00334862
0.00770133
-0.00296722
0.00771886
-0.00269726
0.00773422
-0.00236181
0.00774847
-0.00217713
0.00776058
-0.00186535
0.00777197
-0.00174534
0.00778115
-0.00143556
0.00779007
-0.00137974
0.00779649
-0.00104005
0.00780331
-0.00107357
0.00780718
-0.000675747
0.00781219
-0.000805339
0.00781351
-0.000315886
0.00781702
-0.000587302
0.0078158
2.40631e-05
0.00781812
-0.000435024
0.00781415
0.000346108
0.00781567
-0.000397966
0.00780893
0.000584622
0.00781064
-0.000579197
0.00780264
0.000548371
0.007808
-0.00123596
0.0078035
-2.74985e-05
0.00781885
-0.002468
0.00782415
-0.000986938
0.00785238
-0.00351245
0.0078628
-0.000795654
0.00788563
-0.00167562
0.00787576
0.00311467
0.00785655
0.006084
0.00779715
0.0128197
0.00763843
0.0292081
0.00735944
0.0463263
0.0074096
-0.00599891
0.00760483
-0.0306149
0.00772593
-0.0199036
0.0077623
-0.00877217
0.00778438
-0.00574888
0.00776813
0.000327112
0.00775975
-2.68228e-05
0.00773695
0.00247265
0.00773193
0.000565951
0.00772074
0.0016733
0.0077239
-0.000119232
0.00772133
0.000663688
0.00772897
-0.000673629
0.00773192
-2.30317e-05
0.00774169
-0.000905193
0.00774665
-0.000286858
0.00775476
-0.000768402
0.00775761
-0.000153109
0.00776071
-0.000280537
0.00775845
0.000340404
0.00775476
0.000438691
0.00774628
0.00099981
0.00773599
0.00117913
0.00772226
0.00159925
0.00770737
0.0017394
0.00769099
0.00194875
0.00767476
0.00197177
0.00765879
0.00199392
0.00764381
0.00193783
0.00763006
0.00183187
0.0076172
0.00176478
0.00760558
0.00160467
0.00759395
0.00158516
0.00758317
0.00140739
0.00757143
0.00143173
0.00756056
0.00119371
0.00754799
0.00123234
0.00753689
0.000887263
0.0075239
0.000845882
0.00751359
0.000335161
0.00750219
7.05014e-05
0.00749518
-0.000646206
0.0074904
-0.00137056
0.00749212
-0.00234163
0.00750405
-0.00373499
-0.00574544
0.0074774
0.0138481
0.007393
0.0123372
0.00732062
0.010947
0.0072596
0.00940523
0.00721281
0.00708682
0.00718321
0.00372161
0.00717363
-0.000466001
0.00718564
-0.00467553
0.00721978
-0.00808047
0.00727315
-0.0100899
0.00733804
-0.0105727
0.00740378
-0.00986034
0.00746154
-0.00853716
0.0075086
-0.00720501
0.0075469
-0.0061317
0.00757974
-0.00535789
0.00760873
-0.00472172
0.00763496
-0.00422175
0.00765844
-0.00374071
0.00767983
-0.00337001
0.0076989
-0.00298629
0.0077164
-0.00271475
0.00773172
-0.00237713
0.00774593
-0.00219135
0.00775801
-0.00187743
0.00776938
-0.00175671
0.00777854
-0.00144472
0.00778743
-0.00138863
0.00779383
-0.00104646
0.00780063
-0.00108036
0.00780448
-0.000679597
0.00780946
-0.000810322
0.00781076
-0.000317183
0.00781425
-0.000590793
0.007813
2.53082e-05
0.0078153
-0.000437317
0.00781129
0.000350111
0.00781278
-0.000399452
0.00780599
0.000591413
0.00780764
-0.000580846
0.00779955
0.000556461
0.00780482
-0.00124123
0.00780021
-2.28885e-05
0.00781552
-0.0024833
0.00782078
-0.000992204
0.00784909
-0.00354077
0.00785964
-0.000806199
0.00788272
-0.00169871
0.00787311
0.00312428
0.00785441
0.0061027
0.0077957
0.0128784
0.00763818
0.0293657
0.00736066
0.0466039
0.00741102
-0.00604927
0.00760553
-0.0308094
0.00772601
-0.0200241
0.00776175
-0.0088079
0.00778339
-0.00577051
0.00776682
0.000343674
0.00775824
-1.82415e-05
0.00773531
0.00249559
0.00773023
0.000571026
0.00771903
0.0016845
0.0077222
-0.000122407
0.00771964
0.000666253
0.0077273
-0.000681291
0.00773027
-2.60053e-05
0.00774007
-0.000914993
0.00774507
-0.00029185
0.00775321
-0.000776547
0.00775609
-0.000155988
0.00775922
-0.000283663
0.00775696
0.000342656
0.00775327
0.000442381
0.00774478
0.0010083
0.00773447
0.00118944
0.00772071
0.00161302
0.00770578
0.00175433
0.00768936
0.00196517
0.00767309
0.00198804
0.0076571
0.00200991
0.0076421
0.00195283
0.00762836
0.00184562
0.00761549
0.00177764
0.00760389
0.00161627
0.00759227
0.00159678
0.00758148
0.00141818
0.00756972
0.00144348
0.00755883
0.0012046
0.00754621
0.00124496
0.00753505
0.000898429
0.00752196
0.00085897
0.00751154
0.00034558
0.00749997
8.20745e-05
0.00749278
-0.000639025
0.00748776
-0.00136553
0.00748924
-0.00234311
0.00750091
-0.00374666
-0.00577182
0.00747745
0.0139464
0.00739319
0.0124215
0.00732101
0.0110192
0.00726017
0.00946607
0.00721347
0.00713352
0.00718379
0.00375129
0.00717393
-0.000456133
0.00718546
-0.00468706
0.00721903
-0.00811404
0.0072719
-0.0101428
0.00733647
-0.0106373
0.00740207
-0.00992594
0.00745977
-0.00859487
0.00750675
-0.00725199
0.00754495
-0.00616989
0.00757767
-0.00539061
0.00760656
-0.00475062
0.0076327
-0.0042479
0.0076561
-0.00376411
0.00767744
-0.00339135
0.00769646
-0.00300531
0.00771391
-0.00273221
0.0077292
-0.00239241
0.00774338
-0.00220553
0.00775543
-0.00188948
0.00776678
-0.00176806
0.00777591
-0.00145385
0.00778477
-0.00139749
0.00779115
-0.00105284
0.00779793
-0.00108714
0.00780175
-0.000683424
0.00780672
-0.000815284
0.00780799
-0.000318457
0.00781146
-0.000594263
0.00781019
2.65802e-05
0.00781246
-0.000439586
0.00780842
0.000354149
0.00780987
-0.000400903
0.00780302
0.000598262
0.00780461
-0.000582436
0.00779643
0.000564641
0.00780163
-0.00124643
0.00779691
-1.81742e-05
0.00781216
-0.00249855
0.0078174
-0.00099744
0.00784579
-0.00356916
0.00785646
-0.000816874
0.00787979
-0.00172204
0.00787044
0.00313363
0.00785224
0.00612089
0.00779424
0.0129364
0.00763793
0.029522
0.00736188
0.0468799
0.00741244
-0.00609983
0.00760624
-0.0310032
0.00772609
-0.0201439
0.0077612
-0.00884301
0.00778238
-0.00579169
0.00776551
0.000360549
0.00775672
-9.45397e-06
0.00773365
0.00251866
0.00772852
0.000576158
0.0077173
0.00169572
0.00772049
-0.000125597
0.00771794
0.000668803
0.00772562
-0.000688973
0.00772862
-2.90017e-05
0.00773845
-0.000924825
0.00774348
-0.000296875
0.00775166
-0.000784726
0.00775456
-0.000158894
0.00775771
-0.000286809
0.00775547
0.000344897
0.00775178
0.00044607
0.00774328
0.0010168
0.00773295
0.00119977
0.00771915
0.00162682
0.00770418
0.0017693
0.00768772
0.00198162
0.00767142
0.00200434
0.0076554
0.00202592
0.00764039
0.00196784
0.00762664
0.00185937
0.00761378
0.0017905
0.00760218
0.00162787
0.00759057
0.00160839
0.00757978
0.00142897
0.00756801
0.00145526
0.00755709
0.00121552
0.00754442
0.00125762
0.00753319
0.000909658
0.00752
0.00087216
0.00750947
0.000356109
0.00749773
9.38199e-05
0.00749038
-0.000631674
0.0074851
-0.00136025
0.00748634
-0.00234436
0.00749774
-0.00375805
-0.00579796
0.00747751
0.0140447
0.00739338
0.0125056
0.0073214
0.0110912
0.00726075
0.00952672
0.00721415
0.00718012
0.00718439
0.00378104
0.00717423
-0.000445976
0.00718528
-0.00469811
0.00721828
-0.00814704
0.00727064
-0.0101951
0.00733489
-0.0107016
0.00740035
-0.0099914
0.00745799
-0.00865252
0.0075049
-0.0072989
0.00754298
-0.00620797
0.00757559
-0.00542322
0.00760437
-0.0047794
0.00763043
-0.00427396
0.00765376
-0.00378743
0.00767503
-0.00341262
0.007694
-0.00302428
0.00771142
-0.00274962
0.00772666
-0.00240766
0.00774082
-0.00221969
0.00775284
-0.0019015
0.00776416
-0.00177937
0.00777326
-0.00146296
0.0077821
-0.00140633
0.00778846
-0.0010592
0.00779521
-0.00109389
0.00779902
-0.000687227
0.00780396
-0.000820225
0.00780521
-0.000319706
0.00780866
-0.000597713
0.00780736
2.78794e-05
0.0078096
-0.000441831
0.00780553
0.000358223
0.00780695
-0.000402321
0.00780004
0.000605167
0.00780157
-0.000583967
0.0077933
0.000572913
0.00779841
-0.00125154
0.00779359
-1.33549e-05
0.00780878
-0.00251374
0.00781399
-0.00100265
0.00784246
-0.00359762
0.00785326
-0.000827676
0.00787684
-0.00174562
0.00786775
0.00314272
0.00785006
0.00613858
0.00779276
0.0129938
0.00763767
0.029677
0.00736311
0.0471545
0.00741387
-0.00615059
0.00760696
-0.0311963
0.00772618
-0.0202631
0.00776065
-0.00887748
0.00778137
-0.00581241
0.00776418
0.000377739
0.00775518
-4.60711e-07
0.00773198
0.00254186
0.0077268
0.000581346
0.00771557
0.00170695
0.00771877
-0.000128803
0.00771624
0.000671338
0.00772394
-0.000696677
0.00772696
-3.20204e-05
0.00773683
-0.000934691
0.00774189
-0.000301933
0.0077501
-0.000792939
0.00775303
-0.000161828
0.0077562
-0.000289978
0.00775397
0.000347126
0.00775028
0.000449758
0.00774177
0.00102531
0.00773141
0.00121013
0.00771758
0.00164065
0.00770257
0.00178431
0.00768608
0.00199812
0.00766974
0.00202067
0.0076537
0.00204197
0.00763867
0.00198287
0.00762492
0.00187312
0.00761207
0.00180335
0.00760047
0.00163947
0.00758887
0.00162
0.00757808
0.00143976
0.00756629
0.00146704
0.00755534
0.00122647
0.00754262
0.00127034
0.00753133
0.000920952
0.00751804
0.000885452
0.0075074
0.00036675
0.00749548
0.000105739
0.00748796
-0.000624152
0.00748242
-0.00135472
0.00748343
-0.00234537
0.00749455
-0.00376918
-0.00582386
0.00747756
0.0141429
0.00739358
0.0125896
0.0073218
0.011163
0.00726133
0.00958718
0.00721483
0.00722662
0.007185
0.00381088
0.00717455
-0.000435529
0.00718512
-0.00470867
0.00721754
-0.00817946
0.00726938
-0.010247
0.0073333
-0.0107655
0.00739862
-0.0100567
0.0074562
-0.0087101
0.00750304
-0.00734573
0.00754101
-0.00624594
0.00757349
-0.0054557
0.00760217
-0.00480808
0.00762814
-0.00429993
0.0076514
-0.00381069
0.00767261
-0.00343383
0.00769153
-0.00304321
0.0077089
-0.002767
0.00772411
-0.00242287
0.00773824
-0.00223381
0.00775023
-0.0019135
0.00776152
-0.00179066
0.0077706
-0.00147204
0.00777942
-0.00141515
0.00778575
-0.00106553
0.00779248
-0.00110063
0.00779626
-0.000691007
0.00780118
-0.000825147
0.00780241
-0.000320932
0.00780584
-0.000601142
0.00780451
2.92056e-05
0.00780673
-0.000444054
0.00780262
0.000362333
0.00780401
-0.000403705
0.00779705
0.00061213
0.00779852
-0.000585439
0.00779015
0.000581277
0.00779518
-0.00125656
0.00779025
-8.42904e-06
0.00780539
-0.00252887
0.00781056
-0.00100782
0.00783911
-0.00362617
0.00785004
-0.000838608
0.00787387
-0.00176945
0.00786504
0.00315155
0.00784787
0.00615576
0.00779126
0.0130504
0.00763741
0.0298309
0.00736435
0.0474275
0.00741532
-0.00620156
0.00760768
-0.0313887
0.00772626
-0.0203817
0.00776009
-0.00891131
0.00778034
-0.00583267
0.00776284
0.000395247
0.00775363
8.74068e-06
0.0077303
0.00256519
0.00772506
0.000586588
0.00771382
0.00171819
0.00771704
-0.000132026
0.00771452
0.000673857
0.00772225
-0.000704405
0.00772529
-3.50621e-05
0.00773519
-0.000944591
0.00774029
-0.000307026
0.00774853
-0.000801188
0.0077515
-0.000164789
0.00775469
-0.000293169
0.00775247
0.000349344
0.00774878
0.000453445
0.00774026
0.00103384
0.00772988
0.0012205
0.00771601
0.00165452
0.00770096
0.00179935
0.00768443
0.00201466
0.00766805
0.00203705
0.00765198
0.00205804
0.00763694
0.00199791
0.00762318
0.00188688
0.00761034
0.00181619
0.00759876
0.00165105
0.00758716
0.0016316
0.00757636
0.00145055
0.00756457
0.00147884
0.00755359
0.00123745
0.00754082
0.0012831
0.00752946
0.00093231
0.00751607
0.000898847
0.00750531
0.000377503
0.00749322
0.000117833
0.00748552
-0.000616457
0.00747973
-0.00134893
0.0074805
-0.00234614
0.00749134
-0.00378002
-0.00584952
0.00747762
0.014241
0.00739378
0.0126734
0.0073222
0.0112346
0.00726192
0.00964746
0.00721552
0.00727302
0.00718562
0.00384078
0.00717488
-0.000424794
0.00718496
-0.00471875
0.0072168
-0.0082113
0.00726813
-0.0102983
0.0073317
-0.010829
0.00739687
-0.0101219
0.0074544
-0.00876763
0.00750116
-0.00739249
0.00753902
-0.0062838
0.00757138
-0.00548807
0.00759996
-0.00483665
0.00762584
-0.00432581
0.00764902
-0.00383387
0.00767018
-0.00345499
0.00768905
-0.00306208
0.00770638
-0.00278432
0.00772155
-0.00243804
0.00773564
-0.0022479
0.0077476
-0.00192546
0.00775887
-0.00180193
0.00776792
-0.00148109
0.00777672
-0.00142394
0.00778303
-0.00107184
0.00778974
-0.00110734
0.00779349
-0.000694763
0.00779839
-0.000830047
0.0077996
-0.000322133
0.007803
-0.000604551
0.00780165
3.05596e-05
0.00780385
-0.000446252
0.0077997
0.000366479
0.00780105
-0.000405054
0.00779403
0.000619149
0.00779545
-0.000586851
0.00778699
0.000589733
0.00779193
-0.0012615
0.00778689
-3.39546e-06
0.00780197
-0.00254395
0.00780711
-0.00101296
0.00783574
-0.00365479
0.0078468
-0.000849669
0.00787088
-0.00179353
0.00786232
0.00316011
0.00784565
0.00617242
0.00778975
0.0131063
0.00763713
0.0299835
0.0073656
0.0476991
0.00741678
-0.00625273
0.00760841
-0.0315803
0.00772634
-0.0204997
0.00775953
-0.0089445
0.00777932
-0.00585245
0.00776149
0.000413077
0.00775207
1.81523e-05
0.00772861
0.00258865
0.00772331
0.000591886
0.00771206
0.00172944
0.0077153
-0.000135266
0.0077128
0.000676359
0.00772055
-0.000712155
0.00772362
-3.81282e-05
0.00773355
-0.000954524
0.00773868
-0.000312154
0.00774696
-0.000809472
0.00774995
-0.000167779
0.00775317
-0.000296381
0.00775096
0.000351551
0.00774727
0.000457131
0.00773874
0.00104238
0.00772833
0.00123091
0.00771443
0.00166842
0.00769935
0.00181444
0.00768277
0.00203124
0.00766636
0.00205346
0.00765026
0.00207413
0.00763521
0.00201296
0.00762144
0.00190064
0.00760861
0.00182903
0.00759703
0.00166262
0.00758544
0.00164319
0.00757465
0.00146134
0.00756283
0.00149065
0.00755183
0.00124846
0.00753901
0.00129592
0.00752758
0.000943735
0.00751408
0.000912346
0.00750322
0.00038837
0.00749095
0.000130105
0.00748308
-0.000608587
0.00747702
-0.00134287
0.00747755
-0.00234667
0.00748811
-0.00379057
-0.00587493
0.00747768
0.0143391
0.00739398
0.0127571
0.0073226
0.0113059
0.00726252
0.00970754
0.00721622
0.00731932
0.00718625
0.00387076
0.00717522
-0.00041377
0.00718482
-0.00472834
0.00721607
-0.00824256
0.00726687
-0.0103491
0.0073301
-0.0108923
0.00739512
-0.0101869
0.00745259
-0.00882509
0.00749927
-0.00743917
0.00753702
-0.00632155
0.00756926
-0.00552031
0.00759773
-0.00486512
0.00762353
-0.0043516
0.00764664
-0.00385698
0.00766773
-0.00347608
0.00768655
-0.0030809
0.00770384
-0.00280161
0.00771897
-0.00245318
0.00773303
-0.00226196
0.00774497
-0.00193739
0.0077562
-0.00181316
0.00776523
-0.00149012
0.007774
-0.00143271
0.00778029
-0.00107812
0.00778698
-0.00111403
0.00779071
-0.000698496
0.00779559
-0.000834926
0.00779677
-0.00032331
0.00780015
-0.000607938
0.00779877
3.19407e-05
0.00780095
-0.000448426
0.00779677
0.00037066
0.00779808
-0.000406369
0.007791
0.000626227
0.00779236
-0.000588204
0.00778381
0.000598283
0.00778866
-0.00126635
0.00778352
1.74663e-06
0.00779853
-0.00255897
0.00780364
-0.00101807
0.00783234
-0.00368349
0.00784353
-0.00086086
0.00786787
-0.00181787
0.00785957
0.00316842
0.00784342
0.00618857
0.00778823
0.0131614
0.00763686
0.0301349
0.00736685
0.0479691
0.00741824
-0.00630413
0.00760915
-0.0317712
0.00772643
-0.0206169
0.00775897
-0.00897703
0.00777828
-0.00587176
0.00776012
0.000431232
0.0077505
2.77756e-05
0.00772691
0.00261224
0.00772156
0.000597237
0.00771029
0.0017407
0.00771355
-0.000138526
0.00771107
0.000678844
0.00771884
-0.000719929
0.00772193
-4.12184e-05
0.0077319
-0.000964494
0.00773707
-0.000317317
0.00774539
-0.000817792
0.00774841
-0.000170797
0.00775164
-0.000299616
0.00774945
0.000353747
0.00774576
0.000460817
0.00773721
0.00105093
0.00772678
0.00124133
0.00771285
0.00168235
0.00769772
0.00182957
0.0076811
0.00204786
0.00766465
0.0020699
0.00764853
0.00209026
0.00763346
0.00202803
0.0076197
0.00191441
0.00760687
0.00184185
0.0075953
0.00167419
0.00758372
0.00165478
0.00757292
0.00147214
0.00756109
0.00150248
0.00755006
0.00125949
0.00753719
0.00130879
0.0075257
0.000955225
0.00751209
0.000925949
0.00750111
0.000399352
0.00748866
0.000142555
0.00748062
-0.000600541
0.0074743
-0.00133655
0.00747458
-0.00234695
0.00748485
-0.00380084
-0.00590009
0.00747773
0.0144371
0.00739419
0.0128407
0.00732301
0.0113771
0.00726313
0.00976742
0.00721693
0.00736551
0.00718688
0.00390081
0.00717557
-0.000402459
0.00718468
-0.00473745
0.00721535
-0.00827323
0.00726561
-0.0103994
0.0073285
-0.0109552
0.00739336
-0.0102518
0.00745076
-0.00888249
0.00749737
-0.00748577
0.00753501
-0.00635919
0.00756713
-0.00555244
0.00759549
-0.00489348
0.0076212
-0.00437731
0.00764423
-0.00388001
0.00766527
-0.00349711
0.00768404
-0.00309967
0.00770128
-0.00281886
0.00771638
-0.00246828
0.00773041
-0.00227599
0.00774231
-0.0019493
0.00775352
-0.00182437
0.00776253
-0.00149912
0.00777127
-0.00144146
0.00777753
-0.00108438
0.0077842
-0.00112069
0.00778791
-0.000702205
0.00779277
-0.000839785
0.00779392
-0.000324463
0.00779729
-0.000611305
0.00779588
3.33495e-05
0.00779803
-0.000450577
0.00779381
0.000374878
0.00779509
-0.00040765
0.00778796
0.000633362
0.00778925
-0.000589497
0.00778061
0.000606928
0.00778537
-0.00127111
0.00778012
6.99828e-06
0.00779508
-0.00257393
0.00780016
-0.00102315
0.00782893
-0.00371227
0.00784025
-0.000872181
0.00786485
-0.00184246
0.0078568
0.00317646
0.00784117
0.00620421
0.00778669
0.0132159
0.00763657
0.030285
0.00736811
0.0482375
0.00741972
-0.00635574
0.00760989
-0.0319614
0.00772653
-0.0207336
0.00775841
-0.00900892
0.00777724
-0.00589059
0.00775875
0.000449716
0.00774892
3.76127e-05
0.00772519
0.00263597
0.00771978
0.000602641
0.00770852
0.00175196
0.0077118
-0.000141805
0.00770933
0.000681311
0.00771713
-0.000727727
0.00772024
-4.43336e-05
0.00773025
-0.000974499
0.00773545
-0.000322516
0.0077438
-0.00082615
0.00774685
-0.000173844
0.00775011
-0.000302874
0.00774793
0.000355931
0.00774424
0.000464501
0.00773568
0.00105949
0.00772523
0.00125179
0.00771126
0.00169632
0.00769609
0.00184474
0.00767942
0.00206452
0.00766294
0.00208638
0.00764679
0.00210641
0.00763171
0.00204311
0.00761794
0.00192817
0.00760512
0.00185468
0.00759356
0.00168575
0.00758198
0.00166636
0.00757119
0.00148294
0.00755934
0.00151432
0.00754828
0.00127056
0.00753536
0.00132171
0.0075238
0.000966783
0.00751009
0.000939658
0.007499
0.000410448
0.00748637
0.000155185
0.00747814
-0.000592318
0.00747156
-0.00132997
0.00747159
-0.00234698
0.00748157
-0.00381082
-0.005925
0.00747779
0.0145351
0.0073944
0.0129241
0.00732343
0.0114481
0.00726374
0.00982711
0.00721765
0.0074116
0.00718753
0.00393093
0.00717594
-0.000390861
0.00718456
-0.00474607
0.00721464
-0.00830331
0.00726436
-0.0104491
0.00732688
-0.0110177
0.00739159
-0.0103165
0.00744892
-0.00893983
0.00749545
-0.00753231
0.00753298
-0.00639672
0.00756499
-0.00558445
0.00759324
-0.00492173
0.00761886
-0.00440293
0.00764182
-0.00390298
0.00766279
-0.00351809
0.00768151
-0.00311839
0.00769871
-0.00283606
0.00771377
-0.00248334
0.00772777
-0.00228999
0.00773964
-0.00196117
0.00775083
-0.00183556
0.0077598
-0.0015081
0.00776853
-0.00145018
0.00777476
-0.00109062
0.00778141
-0.00112734
0.00778509
-0.00070589
0.00778993
-0.000844623
0.00779106
-0.000325592
0.00779441
-0.00061465
0.00779297
3.4786e-05
0.0077951
-0.000452703
0.00779084
0.000379132
0.00779209
-0.000408897
0.0077849
0.000640556
0.00778613
-0.000590729
0.00777739
0.000615666
0.00778206
-0.00127579
0.0077767
1.23599e-05
0.0077916
-0.00258883
0.00779664
-0.00102819
0.0078255
-0.00374112
0.00783695
-0.000883632
0.0078618
-0.00186731
0.00785402
0.00318424
0.0078389
0.00621933
0.00778513
0.0132697
0.00763627
0.0304339
0.00736938
0.0485044
0.00742121
-0.00640757
0.00761065
-0.0321508
0.00772662
-0.0208496
0.00775785
-0.00904014
0.00777619
-0.00590894
0.00775737
0.000468533
0.00774732
4.76654e-05
0.00772346
0.00265983
0.007718
0.000608097
0.00770673
0.00176324
0.00771003
-0.000145104
0.00770758
0.000683759
0.0077154
-0.00073555
0.00771854
-4.74738e-05
0.00772858
-0.000984541
0.00773382
-0.000327752
0.00774222
-0.000834544
0.00774529
-0.00017692
0.00774857
-0.000306154
0.0077464
0.000358104
0.00774272
0.000468186
0.00773414
0.00106807
0.00772366
0.00126226
0.00770966
0.00171033
0.00769445
0.00185995
0.00767774
0.00208123
0.00766122
0.0021029
0.00764504
0.00212259
0.00762995
0.0020582
0.00761618
0.00194194
0.00760336
0.00186749
0.00759181
0.0016973
0.00758024
0.00167793
0.00756945
0.00149373
0.00755759
0.00152618
0.0075465
0.00128165
0.00753353
0.00133468
0.0075219
0.000978407
0.00750809
0.000953473
0.00749687
0.000421661
0.00748406
0.000167996
0.00747566
-0.000583915
0.0074688
-0.00132311
0.00746858
-0.00234676
0.00747826
-0.0038205
-0.00594965
0.00747785
0.014633
0.00739461
0.0130073
0.00732385
0.0115188
0.00726436
0.0098866
0.00721838
0.00745758
0.00718819
0.00396111
0.00717631
-0.000378977
0.00718444
-0.0047542
0.00721393
-0.00833279
0.0072631
-0.0104983
0.00732527
-0.0110798
0.0073898
-0.010381
0.00744707
-0.00899709
0.00749353
-0.00757876
0.00753094
-0.00643414
0.00756283
-0.00561634
0.00759097
-0.00494988
0.0076165
-0.00442845
0.00763939
-0.00392586
0.0076603
-0.003539
0.00767897
-0.00313705
0.00769613
-0.00285322
0.00771115
-0.00249837
0.00772511
-0.00230395
0.00773696
-0.00197301
0.00774812
-0.00184672
0.00775707
-0.00151705
0.00776577
-0.00145888
0.00777198
-0.00109683
0.0077786
-0.00113396
0.00778226
-0.000709551
0.00778708
-0.00084944
0.00778818
-0.000326696
0.00779151
-0.000617975
0.00779004
3.62503e-05
0.00779215
-0.000454806
0.00778786
0.000383423
0.00778907
-0.000410109
0.00778182
0.000647808
0.00778299
-0.000591901
0.00777415
0.0006245
0.00777874
-0.00128038
0.00777327
1.78338e-05
0.00778811
-0.00260367
0.00779311
-0.0010332
0.00782205
-0.00377006
0.00783363
-0.000895215
0.00785873
-0.00189241
0.00785122
0.00319175
0.00783661
0.00623393
0.00778356
0.0133227
0.00763597
0.0305815
0.00737065
0.0487698
0.00742271
-0.00645963
0.00761141
-0.0323395
0.00772673
-0.0209649
0.00775729
-0.0090707
0.00777514
-0.00592679
0.00775598
0.000487688
0.00774571
5.79372e-05
0.00772172
0.00268383
0.00771621
0.000613605
0.00770493
0.00177452
0.00770825
-0.000148426
0.00770582
0.000686187
0.00771367
-0.000743399
0.00771684
-5.06407e-05
0.00772691
-0.00099462
0.00773219
-0.000333025
0.00774062
-0.000842976
0.00774373
-0.000180026
0.00774703
-0.000309458
0.00774487
0.000360265
0.00774118
0.00047187
0.0077326
0.00107666
0.0077221
0.00127276
0.00770806
0.00172437
0.0076928
0.0018752
0.00767605
0.00209798
0.00765949
0.00211946
0.00764328
0.0021388
0.00762818
0.00207331
0.0076144
0.00195571
0.0076016
0.0018803
0.00759006
0.00170883
0.0075785
0.00168949
0.0075677
0.00150453
0.00755583
0.00153805
0.00754471
0.00129277
0.00753168
0.00134771
0.00751999
0.000990099
0.00750607
0.000967394
0.00749474
0.000432991
0.00748174
0.000180991
0.00747316
-0.000575331
0.00746603
-0.00131598
0.00746556
-0.00234629
0.00747494
-0.00382988
-0.00597404
0.00747791
0.0147308
0.00739482
0.0130904
0.00732428
0.0115894
0.00726499
0.00994589
0.00721912
0.00750345
0.00718886
0.00399137
0.0071767