/*--------------------------------*- C++ -*----------------------------------*\
| =========                 |                                                 |
| \\      /  F ield         | OpenFOAM: The Open Source CFD Toolbox           |
|  \\    /   O peration     | Version:  2412                                  |
|   \\  /    A nd           | Website:  www.openfoam.com                      |
|    \\/     M anipulation  |                                                 |
\*---------------------------------------------------------------------------*/
FoamFile
{
    version     2.0;
    format      ascii;
    arch        "LSB;label=32;scalar=64";
    class       volVectorField;
    location    "0.6";
    object      U;
}
// * * * * * * * * * * * * * * * * * * * * * * * * * * * * * * * * * * * * * //

dimensions      [0 1 -1 0 0 0 0];

internalField   nonuniform List<vector> 
12960
(
(100.008 -0.564273 0)
(100.211 -1.58294 -4.38351e-17)
(100.617 -2.54516 -8.26229e-17)
(101.175 -3.62719 0)
(101.943 -5.23324 -3.62096e-17)
(102.966 -7.55338 0)
(104.323 -10.442 0)
(106.045 -13.3788 0)
(108.184 -15.8273 3.63372e-17)
(110.726 -17.3996 3.71516e-17)
(113.628 -18.0227 0)
(116.71 -17.9023 0)
(119.849 -17.4112 0)
(122.901 -16.9148 0)
(125.942 -16.5841 3.47357e-17)
(128.947 -16.4435 -6.66312e-17)
(132.063 -16.4067 0)
(135.187 -16.456 -3.09642e-17)
(138.487 -16.5393 0)
(141.789 -16.6954 2.90751e-17)
(145.327 -16.8682 2.82341e-17)
(148.848 -17.1184 -2.73346e-17)
(152.686 -17.3635 2.65274e-17)
(156.467 -17.6977 0)
(160.671 -18.002 0)
(164.757 -18.4191 0)
(169.409 -18.7751 0)
(173.847 -19.2819 2.2102e-17)
(179.048 -19.6853 0)
(183.891 -20.2959 -4.05972e-17)
(189.774 -20.7442 7.47837e-22)
(195.082 -21.4806 -1.84608e-17)
(201.816 -21.9721 7.44998e-22)
(207.658 -22.8663 -3.31589e-17)
(215.469 -23.4029 -1.60062e-17)
(221.924 -24.5 0)
(231.113 -25.089 0)
(238.271 -26.4541 1.26541e-17)
(249.248 -27.1318 -5.83097e-22)
(257.24 -28.8768 2.11721e-17)
(270.601 -29.7423 0)
(279.685 -32.0278 -1.26476e-21)
(296.354 -33.2271 2.50884e-22)
(307.055 -36.1505 -6.35153e-18)
(328.419 -37.7141 -1.41295e-17)
(341.588 -40.9827 4.24384e-18)
(369.273 -42.4942 0)
(385.602 -45.0717 0)
(420.591 -46.0964 -4.04818e-18)
(440.467 -46.5855 -5.34975e-19)
(482.893 -47.2251 -2.45442e-18)
(507.825 -39.5007 0)
(548.806 -37.1714 0)
(575.999 0.494695 4.98786e-19)
(549.081 18.5254 8.14288e-20)
(539.485 26.4376 6.04225e-18)
(504.53 30.8189 -6.38968e-19)
(488.738 31.614 0)
(457.405 33.2229 0)
(441.402 31.8533 -7.92433e-19)
(415.492 31.5685 2.22049e-18)
(401.393 29.3556 0)
(380.83 28.5769 0)
(368.708 26.5668 2.42765e-18)
(352.19 25.8711 0)
(341.521 24.2518 -5.08382e-22)
(327.985 23.6875 0)
(318.477 22.4411 0)
(307.142 22.0076 -6.41372e-18)
(298.523 21.0844 0)
(288.754 20.7668 -2.72651e-22)
(280.805 20.1111 -7.81783e-18)
(272.157 19.8789 0)
(264.746 19.4042 -8.99405e-18)
(256.938 19.195 9.68879e-18)
(250.012 18.8073 0)
(242.895 18.5593 1.08209e-17)
(236.46 18.1777 -1.13446e-17)
(229.974 17.8462 2.39285e-17)
(224.071 17.4362 1.24928e-17)
(218.192 17.0265 0)
(212.849 16.6061 -1.35502e-17)
(207.534 16.1559 0)
(202.735 15.7674 1.45262e-17)
(197.898 15.3165 0)
(193.588 14.9924 -1.54867e-17)
(189.114 14.5503 -1.59168e-17)
(185.235 14.2886 -1.64937e-17)
(181.015 13.8308 0)
(177.543 13.6013 0)
(173.485 13.0867 1.79654e-17)
(170.443 12.8356 0)
(166.473 12.2224 0)
(163.927 11.8634 -2.46355e-22)
(159.997 11.1185 3.26532e-22)
(158.061 10.5157 2.14171e-17)
(154.192 9.61875 -2.14714e-17)
(153.019 8.64884 2.29262e-17)
(149.364 7.10856 -2.27828e-17)
(100.008 -0.569738 0)
(100.212 -1.59802 -4.38198e-17)
(100.62 -2.56889 4.12827e-17)
(101.182 -3.65945 0)
(101.952 -5.27619 -1.38766e-21)
(102.976 -7.60925 0)
(104.33 -10.5127 0)
(106.046 -13.4653 0)
(108.177 -15.9297 -3.63879e-17)
(110.711 -17.516 -3.72165e-17)
(113.605 -18.1482 0)
(116.684 -18.0302 3.78223e-17)
(119.822 -17.5363 3.72847e-17)
(122.873 -17.0353 0)
(125.912 -16.7013 -3.47607e-17)
(128.913 -16.5595 6.6655e-17)
(132.027 -16.5226 -3.20811e-17)
(135.149 -16.5726 6.19271e-17)
(138.447 -16.6567 0)
(141.746 -16.8142 -2.90738e-17)
(145.283 -16.9883 -2.8233e-17)
(148.802 -17.2404 -2.73341e-17)
(152.637 -17.4873 -2.65259e-17)
(156.417 -17.824 0)
(160.619 -18.1304 -2.48187e-17)
(164.703 -18.5505 2.3872e-17)
(169.353 -18.909 0)
(173.789 -19.4194 -2.21017e-17)
(178.989 -19.8256 0)
(183.829 -20.4406 2.0299e-17)
(189.709 -20.892 7.49762e-22)
(195.015 -21.6337 3.6923e-17)
(201.747 -22.1285 7.47154e-22)
(207.586 -23.0293 1.65804e-17)
(215.394 -23.5693 0)
(221.845 -24.6744 -1.4651e-17)
(231.031 -25.2669 0)
(238.184 -26.6418 0)
(249.157 -27.3233 1.2347e-17)
(257.143 -29.0807 -1.0587e-17)
(270.499 -29.951 1.04986e-17)
(279.573 -32.2527 8.46881e-18)
(296.235 -33.4596 2.56053e-22)
(306.924 -36.4048 6.35099e-18)
(328.283 -37.98 7.06427e-18)
(341.441 -41.2746 -4.2436e-18)
(369.129 -42.7989 0)
(385.45 -45.3987 -2.00301e-18)
(420.452 -46.4341 -4.04952e-18)
(440.323 -46.9344 -5.32534e-19)
(482.79 -47.5893 2.45406e-18)
(507.749 -39.8233 0)
(548.849 -37.4936 9.98164e-19)
(576.141 0.495554 8.52025e-22)
(549.149 18.6866 0)
(539.516 26.653 -6.05402e-18)
(504.51 31.0658 6.40531e-19)
(488.689 31.8598 0)
(457.336 33.4754 -1.3911e-18)
(441.324 32.0916 1.58487e-18)
(415.407 31.8018 0)
(401.308 29.5698 0)
(380.746 28.7841 0)
(368.628 26.7584 -2.42789e-18)
(352.113 26.0578 -4.23286e-18)
(341.448 24.4263 3.92864e-18)
(327.916 23.858 0)
(318.411 22.6024 -5.31534e-18)
(307.08 22.166 1.28275e-17)
(298.464 21.2364 0)
(288.698 20.9171 7.50152e-18)
(280.751 20.2572 0)
(272.105 20.024 0)
(264.696 19.5463 8.99329e-18)
(256.889 19.336 0)
(249.964 18.9457 -1.01629e-17)
(242.848 18.6961 0)
(236.412 18.3118 2.2689e-17)
(229.927 17.9777 -1.19644e-17)
(224.023 17.5645 -1.24937e-17)
(218.145 17.1515 1.30476e-17)
(212.802 16.7276 1.35507e-17)
(207.488 16.2738 0)
(202.69 15.8822 -1.45255e-17)
(197.855 15.428 1.4969e-17)
(193.545 15.1017 1.5485e-17)
(189.073 14.6566 3.18295e-17)
(185.194 14.3935 0)
(180.974 13.9329 0)
(177.502 13.7025 1.75689e-17)
(173.444 13.1848 3.69123e-22)
(170.401 12.9331 0)
(166.429 12.3158 1.90711e-17)
(163.882 11.9559 -2.00069e-17)
(159.948 11.2058 3.36842e-22)
(158.01 10.6003 2.14061e-17)
(154.135 9.69656 -2.146e-17)
(152.961 8.71918 2.29127e-17)
(149.298 7.16693 0)
(100.008 -0.575239 0)
(100.214 -1.6132 4.38e-17)
(100.624 -2.59275 0)
(101.188 -3.69183 0)
(101.961 -5.31921 3.61661e-17)
(102.985 -7.66505 0)
(104.336 -10.5832 0)
(106.047 -13.5514 0)
(108.169 -16.0317 0)
(110.695 -17.632 0)
(113.583 -18.2734 3.78414e-17)
(116.658 -18.158 -3.78918e-17)
(119.795 -17.6612 -3.7344e-17)
(122.844 -17.1556 3.6207e-17)
(125.881 -16.8183 0)
(128.88 -16.6753 -3.33393e-17)
(131.991 -16.6384 3.20842e-17)
(135.111 -16.689 -6.19264e-17)
(138.406 -16.774 0)
(141.703 -16.9328 5.8143e-17)
(145.238 -17.1083 5.64618e-17)
(148.755 -17.3623 2.73321e-17)
(152.589 -17.611 0)
(156.367 -17.9501 -2.5612e-17)
(160.567 -18.2587 4.96362e-17)
(164.649 -18.6818 8.30942e-22)
(169.297 -19.0428 0)
(173.731 -19.5569 -2.21031e-17)
(178.929 -19.9657 0)
(183.767 -20.5852 0)
(189.645 -21.0396 -1.95869e-17)
(194.948 -21.7867 1.05793e-21)
(201.677 -22.2847 -1.78069e-17)
(207.513 -23.192 1.65829e-17)
(215.319 -23.7355 0)
(221.766 -24.8485 1.46515e-17)
(230.948 -25.4447 0)
(238.097 -26.8293 -1.2659e-17)
(249.066 -27.5146 0)
(257.046 -29.2843 0)
(270.396 -30.1594 -2.09978e-17)
(279.461 -32.4774 0)
(296.116 -33.6917 -8.71006e-18)
(306.793 -36.6587 6.3529e-18)
(328.147 -38.2454 -7.06401e-18)
(341.294 -41.5662 0)
(368.983 -43.1032 0)
(385.297 -45.7255 4.00751e-18)
(420.311 -46.7715 4.04919e-18)
(440.179 -47.2832 5.32339e-19)
(482.686 -47.9537 -2.4527e-18)
(507.672 -40.1465 0)
(548.892 -37.8169 -9.9597e-19)
(576.284 0.496304 -9.93951e-19)
(549.217 18.8483 0)
(539.547 26.869 0)
(504.49 31.3131 0)
(488.64 32.1058 -2.65454e-18)
(457.266 33.7281 1.39255e-18)
(441.245 32.3299 -7.92454e-19)
(415.322 32.035 0)
(401.223 29.784 8.42735e-19)
(380.662 28.9913 0)
(368.548 26.95 -2.42911e-18)
(352.037 26.2445 4.23313e-18)
(341.375 24.6008 3.92988e-18)
(327.846 24.0285 -5.3281e-18)
(318.344 22.7635 5.31547e-18)
(307.017 22.3244 8.71544e-23)
(298.404 21.3883 0)
(288.641 21.0673 7.50177e-18)
(280.697 20.4031 0)
(272.053 20.1689 0)
(264.645 19.6882 8.99401e-18)
(256.84 19.4769 9.68862e-18)
(249.915 19.0841 2.03248e-17)
(242.8 18.833 -1.0821e-17)
(236.365 18.4459 5.5216e-22)
(229.879 18.1093 0)
(223.975 17.6927 2.49883e-17)
(218.098 17.2765 -2.60962e-17)
(212.755 16.849 2.05725e-22)
(207.442 16.3917 1.40356e-17)
(202.644 15.997 1.4525e-17)
(197.811 15.5395 1.89497e-22)
(193.502 15.2108 0)
(189.031 14.7628 -1.59127e-17)
(185.153 14.4983 0)
(180.934 14.0349 0)
(177.461 13.8037 -4.83995e-23)
(173.403 13.2828 -1.79574e-17)
(170.358 13.0305 1.87264e-17)
(166.385 12.4093 3.99226e-22)
(163.836 12.0485 0)
(159.899 11.2931 -2.02308e-17)
(157.959 10.6849 -2.64376e-22)
(154.078 9.77443 2.14481e-17)
(152.902 8.78963 -2.28993e-17)
(149.232 7.22536 0)
(100.008 -0.580773 0)
(100.215 -1.62846 0)
(100.628 -2.61675 4.12297e-17)
(101.195 -3.72436 0)
(101.97 -5.36233 3.6147e-17)
(102.995 -7.72087 0)
(104.343 -10.6535 0)
(106.048 -13.6373 3.55872e-17)
(108.162 -16.1334 0)
(110.679 -17.7477 -3.73485e-17)
(113.56 -18.3983 5.8701e-22)
(116.632 -18.2856 3.79632e-17)
(119.767 -17.786 3.74053e-17)
(122.815 -17.2759 -3.62506e-17)
(125.85 -16.9352 0)
(128.846 -16.7909 -3.33523e-17)
(131.954 -16.754 3.20885e-17)
(135.072 -16.8052 6.19257e-17)
(138.365 -16.8911 0)
(141.66 -17.0512 -2.90691e-17)
(145.193 -17.2281 -5.64583e-17)
(148.708 -17.484 0)
(152.54 -17.7345 0)
(156.316 -18.0761 2.56108e-17)
(160.515 -18.3868 -4.96357e-17)
(164.595 -18.813 -4.77436e-17)
(169.241 -19.1764 0)
(173.673 -19.6941 2.21027e-17)
(178.868 -20.1057 0)
(183.704 -20.7296 0)
(189.58 -21.187 0)
(194.881 -21.9394 -1.84632e-17)
(201.607 -22.4408 0)
(207.44 -23.3546 -1.65832e-17)
(215.242 -23.9015 0)
(221.687 -25.0225 -1.46544e-17)
(230.865 -25.6222 0)
(238.01 -27.0165 2.53205e-17)
(248.974 -27.7057 -1.23498e-17)
(256.948 -29.4876 -1.05915e-17)
(270.292 -30.3675 2.09988e-17)
(279.348 -32.7017 0)
(295.996 -33.9234 -8.71011e-18)
(306.661 -36.9123 1.26293e-21)
(328.009 -38.5105 7.06342e-18)
(341.145 -41.8575 -4.24709e-18)
(368.836 -43.4074 -5.58117e-18)
(385.143 -46.0521 -2.0045e-18)
(420.169 -47.1087 0)
(440.033 -47.632 5.29894e-19)
(482.581 -48.3183 -2.45233e-18)
(507.594 -40.4703 0)
(548.934 -38.1412 9.9108e-19)
(576.428 0.496974 -8.63494e-22)
(549.286 19.0106 0)
(539.578 27.0853 0)
(504.47 31.5607 -6.41187e-19)
(488.59 32.352 2.6596e-18)
(457.195 33.9808 0)
(441.165 32.5682 7.91039e-19)
(415.236 32.2682 2.22221e-18)
(401.137 29.998 -8.42935e-19)
(380.578 29.1983 0)
(368.468 27.1415 -5.00283e-22)
(351.959 26.4309 0)
(341.302 24.7751 -3.93007e-18)
(327.776 24.1988 6.43341e-23)
(318.278 22.9245 -5.31671e-18)
(306.954 22.4826 -1.28279e-17)
(298.344 21.5401 -6.59999e-18)
(288.584 21.2175 -7.50147e-18)
(280.643 20.549 7.81933e-18)
(272.001 20.3138 0)
(264.595 19.8301 -1.79872e-17)
(256.791 19.6178 -9.68771e-18)
(249.867 19.2225 -1.01619e-17)
(242.752 18.9698 1.08203e-17)
(236.317 18.5799 -2.26896e-17)
(229.831 18.2408 -1.19655e-17)
(223.927 17.821 -2.49896e-17)
(218.05 17.4014 2.60974e-17)
(212.707 16.9705 -2.71028e-17)
(207.396 16.5095 1.94818e-22)
(202.599 16.1117 -2.90486e-17)
(197.767 15.6509 -2.99335e-17)
(193.459 15.32 0)
(188.99 14.8691 -1.59109e-17)
(185.111 14.6031 0)
(180.893 14.1369 0)
(177.42 13.9048 -1.75616e-17)
(173.362 13.3808 1.79539e-17)
(170.315 13.128 -1.87211e-17)
(166.341 12.5028 -3.8119e-17)
(163.79 12.1412 0)
(159.849 11.3805 0)
(157.907 10.7696 -4.27689e-17)
(154.02 9.85234 2.14365e-17)
(152.843 8.86011 2.28856e-17)
(149.166 7.28379 0)
(100.008 -0.586342 4.54357e-17)
(100.217 -1.64382 -4.37671e-17)
(100.632 -2.64088 -8.24026e-17)
(101.202 -3.75702 3.83333e-17)
(101.979 -5.40554 -3.61253e-17)
(103.004 -7.77666 0)
(104.35 -10.7237 -3.50425e-17)
(106.049 -13.7228 -3.5619e-17)
(108.155 -16.2347 0)
(110.663 -17.863 -6.16725e-22)
(113.537 -18.523 -3.79871e-17)
(116.606 -18.413 5.89304e-22)
(119.739 -17.9107 -3.74662e-17)
(122.786 -17.396 0)
(125.818 -17.052 0)
(128.812 -16.9064 3.33642e-17)
(131.918 -16.8694 -3.20918e-17)
(135.033 -16.9214 -3.09622e-17)
(138.323 -17.0081 0)
(141.617 -17.1695 2.90677e-17)
(145.148 -17.3478 2.8227e-17)
(148.661 -17.6057 0)
(152.491 -17.8579 0)
(156.265 -18.202 0)
(160.462 -18.5148 2.48173e-17)
(164.541 -18.944 2.38715e-17)
(169.184 -19.3098 0)
(173.614 -19.8312 0)
(178.807 -20.2456 0)
(183.641 -20.8739 2.03025e-17)
(189.514 -21.3343 0)
(194.813 -22.0921 0)
(201.536 -22.5967 0)
(207.367 -23.5169 0)
(215.166 -24.0674 1.60116e-17)
(221.607 -25.1962 -1.24074e-21)
(230.781 -25.7995 1.41928e-17)
(237.922 -27.2035 -1.26614e-17)
(248.881 -27.8965 1.23503e-17)
(256.849 -29.6906 1.05918e-17)
(270.187 -30.5753 -1.04997e-17)
(279.234 -32.9257 -8.4733e-18)
(295.875 -34.1548 1.74195e-17)
(306.528 -37.1655 -6.35301e-18)
(327.871 -38.7753 -7.06318e-18)
(340.995 -42.1485 4.24683e-18)
(368.688 -43.7112 5.58123e-18)
(384.987 -46.3785 0)
(420.027 -47.4458 0)
(439.886 -47.9807 -5.297e-19)
(482.476 -48.683 2.45097e-18)
(507.515 -40.7946 0)
(548.977 -38.4665 -9.88917e-19)
(576.573 0.497538 4.95268e-19)
(549.355 19.1735 0)
(539.609 27.3021 0)
(504.45 31.8087 6.43049e-19)
(488.54 32.5985 2.66332e-18)
(457.124 34.2336 -1.39615e-18)
(441.085 32.8065 -1.58217e-18)
(415.149 32.5013 -2.22305e-18)
(401.05 30.2119 8.4422e-19)
(380.492 29.4052 0)
(368.386 27.3328 2.43007e-18)
(351.882 26.6173 0)
(341.228 24.9494 -3.93132e-18)
(327.705 24.369 5.32847e-18)
(318.211 23.0854 5.31683e-18)
(306.891 22.6407 6.41397e-18)
(298.284 21.6918 1.32003e-17)
(288.528 21.3676 7.50171e-18)
(280.588 20.6948 7.17008e-22)
(271.949 20.4586 0)
(264.544 19.9719 1.79871e-17)
(256.742 19.7587 0)
(249.818 19.3608 1.01624e-17)
(242.704 19.1065 0)
(236.268 18.7139 -5.58018e-22)
(229.783 18.3723 1.19655e-17)
(223.879 17.9491 2.49908e-17)
(218.002 17.5263 -2.60986e-17)
(212.66 17.0918 1.35517e-17)
(207.35 16.6273 -1.40354e-17)
(202.554 16.2263 1.45236e-17)
(197.723 15.7622 2.99313e-17)
(193.416 15.429 0)
(188.948 14.9752 1.59087e-17)
(185.07 14.7078 0)
(180.853 14.2389 0)
(177.379 14.006 0)
(173.321 13.4788 -3.58997e-17)
(170.273 13.2255 0)
(166.297 12.5962 3.81075e-17)
(163.744 12.2339 0)
(159.8 11.4679 0)
(157.855 10.8544 2.13736e-17)
(153.962 9.93032 -2.14243e-17)
(152.783 8.93069 -2.28719e-17)
(149.099 7.34227 0)
(100.008 -0.591948 -4.54247e-17)
(100.218 -1.65928 8.74966e-17)
(100.635 -2.66515 4.11729e-17)
(101.208 -3.78982 -7.66069e-17)
(101.988 -5.44882 0)
(103.014 -7.83241 0)
(104.358 -10.7937 -1.02403e-21)
(106.051 -13.808 0)
(108.148 -16.3356 -3.65953e-17)
(110.647 -17.978 -6.21412e-22)
(113.514 -18.6475 0)
(116.579 -18.5404 -3.81068e-17)
(119.711 -18.0353 0)
(122.757 -17.516 0)
(125.787 -17.1686 0)
(128.778 -17.0218 0)
(131.881 -16.9847 0)
(134.993 -17.0373 0)
(138.282 -17.1249 -3.00029e-17)
(141.573 -17.2877 6.69756e-22)
(145.102 -17.4674 0)
(148.613 -17.7272 0)
(152.442 -17.9812 -2.65229e-17)
(156.214 -18.3277 0)
(160.409 -18.6427 0)
(164.486 -19.0749 0)
(169.127 -19.4432 0)
(173.555 -19.9682 2.21047e-17)
(178.746 -20.3853 2.13515e-17)
(183.578 -21.018 -2.03024e-17)
(189.448 -21.4814 -1.95899e-17)
(194.745 -22.2445 0)
(201.465 -22.7524 0)
(207.293 -23.6792 0)
(215.089 -24.233 -1.6012e-17)
(221.526 -25.3698 -1.24984e-21)
(230.697 -25.9766 -1.41934e-17)
(237.834 -27.3903 -1.26646e-17)
(248.789 -28.087 1.23521e-17)
(256.75 -29.8934 -1.05948e-17)
(270.083 -30.7828 1.05007e-17)
(279.12 -33.1494 8.47307e-18)
(295.754 -34.3859 -8.70941e-18)
(306.395 -37.4184 0)
(327.732 -39.0397 7.06259e-18)
(340.845 -42.4391 -4.2493e-18)
(368.539 -44.0148 -5.5821e-18)
(384.831 -46.7047 0)
(419.883 -47.7827 0)
(439.737 -48.3294 0)
(482.369 -49.048 0)
(507.435 -41.1195 0)
(549.02 -38.793 0)
(576.719 0.497999 -4.95547e-19)
(549.425 19.3369 5.23724e-20)
(539.641 27.5193 6.1239e-18)
(504.429 32.0571 6.43072e-19)
(488.49 32.8451 -2.66901e-18)
(457.052 34.4865 1.39784e-18)
(441.004 33.0448 7.91153e-19)
(415.062 32.7343 0)
(400.963 30.4257 -8.44421e-19)
(380.406 29.612 0)
(368.305 27.5239 0)
(351.804 26.8036 0)
(341.154 25.1235 3.9315e-18)
(327.635 24.5391 0)
(318.143 23.2461 5.31808e-18)
(306.827 22.7987 6.41413e-18)
(298.224 21.8433 6.35108e-22)
(288.47 21.5175 -7.50139e-18)
(280.533 20.8405 -7.81912e-18)
(271.897 20.6033 8.5892e-18)
(264.493 20.1137 -8.99312e-18)
(256.693 19.8994 0)
(249.769 19.4991 -1.01615e-17)
(242.656 19.2432 0)
(236.22 18.8478 1.13448e-17)
(229.735 18.5037 0)
(223.831 18.0773 3.75525e-22)
(217.955 17.6511 1.30498e-17)
(212.612 17.2131 0)
(207.303 16.745 0)
(202.508 16.3409 0)
(197.679 15.8735 -1.49645e-17)
(193.372 15.538 0)
(188.906 15.0813 0)
(185.028 14.8125 0)
(180.812 14.3408 -1.68999e-17)
(177.337 14.1071 0)
(173.279 13.5768 1.79457e-17)
(170.23 13.323 0)
(166.253 12.6897 -1.90477e-17)
(163.697 12.3266 0)
(159.75 11.5553 0)
(157.803 10.9393 0)
(153.903 10.0084 0)
(152.723 9.00135 0)
(149.032 7.40079 0)
(100.008 -0.597589 0)
(100.219 -1.67483 -4.37295e-17)
(100.639 -2.68956 0)
(101.215 -3.82276 3.82738e-17)
(101.997 -5.4922 0)
(103.024 -7.88815 0)
(104.365 -10.8635 3.50683e-17)
(106.053 -13.893 3.56858e-17)
(108.141 -16.4361 3.66471e-17)
(110.631 -18.0926 7.50987e-17)
(113.491 -18.7717 3.81369e-17)
(116.552 -18.6676 0)
(119.683 -18.1599 0)
(122.727 -17.6359 3.63877e-17)
(125.755 -17.285 0)
(128.743 -17.137 0)
(131.843 -17.0998 0)
(134.954 -17.1532 0)
(138.24 -17.2416 3.00004e-17)
(141.529 -17.4058 -5.81267e-17)
(145.056 -17.5868 0)
(148.566 -17.8485 0)
(152.392 -18.1043 5.30434e-17)
(156.163 -18.4533 0)
(160.355 -18.7704 0)
(164.43 -19.2056 -2.38727e-17)
(169.07 -19.5763 0)
(173.496 -20.105 -2.21044e-17)
(178.684 -20.5248 -2.13513e-17)
(183.514 -21.162 0)
(189.382 -21.6284 1.95899e-17)
(194.676 -22.3968 -1.84678e-17)
(201.394 -22.9079 0)
(207.219 -23.8412 0)
(215.011 -24.3984 -1.6014e-17)
(221.446 -25.5431 1.46584e-17)
(230.613 -26.1535 0)
(237.745 -27.5769 1.26652e-17)
(248.695 -28.2773 -1.23526e-17)
(256.65 -30.096 2.11916e-17)
(269.977 -30.99 4.60984e-22)
(279.005 -33.3728 -8.47551e-18)
(295.632 -34.6166 0)
(306.26 -37.6709 0)
(327.592 -39.3038 0)
(340.693 -42.7295 4.24905e-18)
(368.389 -44.3181 5.58218e-18)
(384.674 -47.0306 0)
(419.739 -48.1194 0)
(439.588 -48.678 -5.25858e-19)
(482.261 -49.4131 0)
(507.355 -41.4449 0)
(549.063 -39.1205 0)
(576.866 0.498354 4.94109e-19)
(549.495 19.5009 -5.2322e-20)
(539.673 27.737 -6.14012e-18)
(504.408 32.3059 -1.28931e-18)
(488.439 33.092 0)
(456.98 34.7395 0)
(440.923 33.2831 0)
(414.974 32.9673 0)
(400.875 30.6394 -8.4572e-19)
(380.32 29.8186 0)
(368.223 27.715 -2.43204e-18)
(351.725 26.9897 0)
(341.079 25.2974 0)
(327.564 24.7091 0)
(318.076 23.4068 -5.31819e-18)
(306.764 22.9566 -1.28283e-17)
(298.163 21.9948 -6.60073e-18)
(288.413 21.6674 0)
(280.478 20.9861 7.8201e-18)
(271.844 20.7479 -8.58854e-18)
(264.442 20.2554 0)
(256.643 20.0402 0)
(249.72 19.6373 0)
(242.607 19.3799 1.08202e-17)
(236.171 18.9817 -1.13456e-17)
(229.687 18.6351 1.19666e-17)
(223.782 18.2054 -2.49933e-17)
(217.906 17.7758 -1.30507e-17)
(212.564 17.3343 0)
(207.257 16.8626 0)
(202.462 16.4554 0)
(197.635 15.9847 0)
(193.329 15.6469 1.54762e-17)
(188.864 15.1874 1.59048e-17)
(184.986 14.9172 0)
(180.771 14.4427 -3.2434e-22)
(177.295 14.2082 0)
(173.237 13.6748 0)
(170.186 13.4205 0)
(166.208 12.7832 0)
(163.65 12.4194 0)
(159.699 11.6428 0)
(157.751 11.0242 0)
(153.844 10.0865 0)
(152.663 9.0721 0)
(148.964 7.45936 0)
(100.008 -0.603267 0)
(100.221 -1.69048 4.37141e-17)
(100.643 -2.7141 -4.11205e-17)
(101.222 -3.85584 3.8247e-17)
(102.007 -5.53566 0)
(103.034 -7.94385 0)
(104.373 -10.9332 3.5083e-17)
(106.054 -13.9776 8.41605e-22)
(108.135 -16.5363 0)
(110.616 -18.2069 -3.76172e-17)
(113.468 -18.8956 -3.8212e-17)
(116.526 -18.7946 3.82549e-17)
(119.654 -18.2843 0)
(122.697 -17.7557 -3.64338e-17)
(125.723 -17.4013 0)
(128.709 -17.252 0)
(131.806 -17.2148 -3.21042e-17)
(134.914 -17.2689 3.0962e-17)
(138.198 -17.3582 2.99992e-17)
(141.485 -17.5237 5.81227e-17)
(145.01 -17.7061 0)
(148.518 -17.9697 -2.73266e-17)
(152.342 -18.2273 6.80306e-22)
(156.111 -18.5787 0)
(160.301 -18.898 0)
(164.375 -19.3362 -8.58052e-22)
(169.012 -19.7094 0)
(173.436 -20.2417 0)
(178.622 -20.6642 2.13526e-17)
(183.45 -21.3058 2.03052e-17)
(189.316 -21.7752 -1.95915e-17)
(194.607 -22.549 -1.09432e-21)
(201.322 -23.0633 -1.78126e-17)
(207.144 -24.003 0)
(214.934 -24.5637 -7.51698e-22)
(221.364 -25.7163 1.46614e-17)
(230.528 -26.3301 1.41967e-17)
(237.655 -27.7633 0)
(248.601 -28.4674 1.23544e-17)
(256.55 -30.2982 -1.05968e-17)
(269.871 -31.1969 -1.05013e-17)
(278.889 -33.5958 8.4753e-18)
(295.509 -34.8469 8.7093e-18)
(306.125 -37.9231 0)
(327.452 -39.5675 0)
(340.541 -43.0195 4.25157e-18)
(368.239 -44.6211 -5.58308e-18)
(384.516 -47.3563 -2.01245e-18)
(419.593 -48.456 0)
(439.438 -49.0266 1.05016e-18)
(482.153 -49.7784 2.44897e-18)
(507.273 -41.7709 0)
(549.106 -39.4491 -9.77062e-19)
(577.015 0.498603 -4.94462e-19)
(549.566 19.6655 -4.24121e-20)
(539.705 27.9552 0)
(504.387 32.555 6.46354e-19)
(488.388 33.3391 0)
(456.907 34.9926 1.40195e-18)
(440.84 33.5214 0)
(414.885 33.2002 2.22492e-18)
(400.786 30.853 8.45923e-19)
(380.233 30.0251 0)
(368.14 27.9059 2.43226e-18)
(351.647 27.1757 0)
(341.004 25.4713 0)
(327.492 24.879 0)
(318.008 23.5673 -5.31945e-18)
(306.699 23.1144 6.41417e-18)
(298.102 22.1462 -6.60182e-18)
(288.356 21.8172 0)
(280.423 21.1316 -1.564e-17)
(271.792 20.8925 0)
(264.391 20.397 -8.99378e-18)
(256.593 20.1808 0)
(249.671 19.7754 -1.01618e-17)
(242.558 19.5165 -1.08195e-17)
(236.122 19.1156 2.26908e-17)
(229.638 18.7665 -1.19665e-17)
(223.733 18.3334 2.49946e-17)
(217.858 17.9005 1.30511e-17)
(212.516 17.4555 0)
(207.21 16.9801 0)
(202.416 16.5698 0)
(197.59 16.0958 -1.49625e-17)
(193.285 15.7558 -1.54743e-17)
(188.822 15.2934 -1.59025e-17)
(184.944 15.0217 -1.64748e-17)
(180.73 14.5445 -3.26665e-22)
(177.253 14.3092 -1.75464e-17)
(173.195 13.7727 0)
(170.143 13.5179 0)
(166.164 12.8768 0)
(163.603 12.5122 0)
(159.649 11.7303 -2.01885e-17)
(157.698 11.1093 2.13395e-17)
(153.785 10.1646 0)
(152.602 9.14293 0)
(148.895 7.51798 2.26974e-17)
(100.008 -0.608982 0)
(100.222 -1.70623 -4.3694e-17)
(100.647 -2.7388 4.10912e-17)
(101.229 -3.88906 -7.64356e-17)
(102.016 -5.57922 0)
(103.044 -7.99954 3.50351e-17)
(104.38 -11.0027 1.04857e-21)
(106.056 -14.0619 -7.15045e-17)
(108.128 -16.6361 -3.67539e-17)
(110.6 -18.3208 0)
(113.445 -19.0193 -3.82891e-17)
(116.499 -18.9215 -7.66594e-17)
(119.626 -18.4086 -3.77208e-17)
(122.667 -17.8753 0)
(125.691 -17.5175 0)
(128.674 -17.3669 0)
(131.768 -17.3297 3.21077e-17)
(134.874 -17.3844 -6.19228e-17)
(138.155 -17.4746 -2.99967e-17)
(141.441 -17.6415 -5.81187e-17)
(144.963 -17.8252 2.82206e-17)
(148.469 -18.0908 -7.36178e-22)
(152.292 -18.3502 6.8496e-22)
(156.059 -18.7041 0)
(160.247 -19.0255 2.48171e-17)
(164.319 -19.4667 2.38722e-17)
(168.954 -19.8422 -2.30953e-17)
(173.377 -20.3782 0)
(178.56 -20.8035 -2.13524e-17)
(183.386 -21.4494 -2.03051e-17)
(189.249 -21.9218 1.95915e-17)
(194.538 -22.7009 1.84692e-17)
(201.249 -23.2185 1.78128e-17)
(207.069 -24.1647 1.65919e-17)
(214.855 -24.7287 1.60156e-17)
(221.283 -25.8892 1.27706e-21)
(230.443 -26.5066 7.0778e-22)
(237.566 -27.9494 1.26704e-17)
(248.507 -28.6572 -1.2355e-17)
(256.449 -30.5002 -1.05999e-17)
(269.764 -31.4035 0)
(278.773 -33.8185 -8.47779e-18)
(295.386 -35.0769 -1.74179e-17)
(305.989 -38.1749 0)
(327.31 -39.8309 7.06157e-18)
(340.388 -43.3092 -4.25133e-18)
(368.087 -44.9238 5.58318e-18)
(384.357 -47.6818 2.01242e-18)
(419.447 -48.7923 0)
(439.286 -49.3752 -1.18987e-21)
(482.044 -50.1438 5.40148e-22)
(507.19 -42.0975 0)
(549.149 -39.7788 9.74968e-19)
(577.165 0.498742 4.93077e-19)
(549.637 19.8307 4.9986e-21)
(539.737 28.1739 6.18415e-18)
(504.367 32.8045 -6.46601e-19)
(488.336 33.5864 2.68498e-18)
(456.833 35.2457 -1.40395e-18)
(440.758 33.7597 0)
(414.796 33.4331 -2.03593e-22)
(400.697 31.0665 0)
(380.146 30.2315 0)
(368.057 28.0966 0)
(351.567 27.3616 0)
(340.929 25.645 -3.93419e-18)
(327.42 25.0487 -5.32893e-18)
(317.94 23.7277 5.31955e-18)
(306.635 23.2721 0)
(298.041 22.2974 6.60163e-18)
(288.298 21.9669 0)
(280.368 21.277 -7.41376e-22)
(271.739 21.0369 0)
(264.339 20.5385 8.99294e-18)
(256.543 20.3214 0)
(249.621 19.9135 2.03226e-17)
(242.51 19.6531 0)
(236.073 19.2494 5.74745e-22)
(229.589 18.8978 1.19673e-17)
(223.684 18.4614 -1.24978e-17)
(217.809 18.0252 1.3052e-17)
(212.468 17.5766 1.35536e-17)
(207.163 17.0976 0)
(202.369 16.6842 0)
(197.546 16.2068 2.99225e-17)
(193.241 15.8646 0)
(188.779 15.3993 0)
(184.901 15.1263 -9.79602e-24)
(180.688 14.6463 -3.28982e-22)
(177.211 14.4103 3.50851e-17)
(173.153 13.8706 1.79342e-17)
(170.099 13.6154 0)
(166.119 12.9703 0)
(163.556 12.605 0)
(159.598 11.8179 2.01794e-17)
(157.645 11.1944 -2.84701e-22)
(153.725 10.2429 0)
(152.541 9.21385 0)
(148.826 7.57664 -2.26849e-17)
(100.008 -0.614735 0)
(100.224 -1.72208 4.36786e-17)
(100.651 -2.76363 0)
(101.236 -3.92243 3.81888e-17)
(102.026 -5.62286 -3.60296e-17)
(103.054 -8.05521 -7.00606e-17)
(104.388 -11.072 -3.51101e-17)
(106.058 -14.146 -8.54798e-22)
(108.122 -16.7355 -7.43657e-22)
(110.584 -18.4343 0)
(113.422 -19.1427 3.83657e-17)
(116.471 -19.0482 7.68113e-17)
(119.597 -18.5328 7.5572e-17)
(122.637 -17.9949 0)
(125.658 -17.6336 3.49803e-17)
(128.639 -17.4816 0)
(131.731 -17.4444 -3.21125e-17)
(134.834 -17.4998 3.09609e-17)
(138.113 -17.5909 0)
(141.396 -17.7591 5.81147e-17)
(144.917 -17.9443 -5.64371e-17)
(148.421 -18.2118 2.73234e-17)
(152.241 -18.473 6.89618e-22)
(156.007 -18.8293 0)
(160.193 -19.1528 -2.48162e-17)
(164.263 -19.597 2.38732e-17)
(168.896 -19.975 2.30948e-17)
(173.316 -20.5146 0)
(178.498 -20.9426 0)
(183.321 -21.5929 0)
(189.181 -22.0683 0)
(194.468 -22.8527 1.84715e-17)
(201.177 -23.3735 1.78146e-17)
(206.994 -24.3262 -1.65922e-17)
(214.777 -24.8936 -1.60176e-17)
(221.201 -26.062 1.28614e-21)
(230.357 -26.6828 -1.41986e-17)
(237.475 -28.1353 -1.2671e-17)
(248.412 -28.8467 0)
(256.348 -30.7019 -1.39105e-21)
(269.657 -31.6098 0)
(278.656 -34.0409 8.47759e-18)
(295.262 -35.3065 8.70865e-18)
(305.853 -38.4263 0)
(327.168 -40.0939 -7.061e-18)
(340.233 -43.5986 0)
(367.935 -45.2262 0)
(384.196 -48.0071 0)
(419.3 -49.1285 0)
(439.133 -49.7237 -5.22919e-19)
(481.933 -50.5094 5.49153e-22)
(507.107 -42.4247 0)
(549.191 -40.1096 9.70147e-19)
(577.315 0.498771 -4.93506e-19)
(549.709 19.9964 5.04227e-21)
(539.77 28.3931 -1.24095e-17)
(504.346 33.0545 1.29704e-18)
(488.285 33.8339 -2.69219e-18)
(456.759 35.499 0)
(440.674 33.998 0)
(414.705 33.6659 -2.07346e-22)
(400.607 31.2799 8.48004e-19)
(380.058 30.4378 0)
(367.974 28.2872 0)
(351.488 27.5473 4.23319e-18)
(340.853 25.8186 -5.61218e-22)
(327.348 25.2183 5.3291e-18)
(317.871 23.888 0)
(306.57 23.4296 0)
(297.98 22.4486 -6.60273e-18)
(288.24 22.1164 7.50145e-18)
(280.312 21.4224 -7.47476e-22)
(271.686 21.1813 8.58836e-18)
(264.288 20.68 -8.99367e-18)
(256.493 20.4619 0)
(249.572 20.0515 -2.03221e-17)
(242.46 19.7896 -1.08195e-17)
(236.024 19.3831 -1.13454e-17)
(229.54 19.0291 -1.19672e-17)
(223.635 18.5894 0)
(217.761 18.1498 -2.6105e-17)
(212.419 17.6977 -2.71078e-17)
(207.115 17.2151 0)
(202.323 16.7985 0)
(197.501 16.3178 -2.99202e-17)
(193.197 15.9733 0)
(188.736 15.5052 1.58986e-17)
(184.859 15.2308 -9.89573e-24)
(180.647 14.7481 -3.31295e-22)
(177.169 14.5113 -3.50774e-17)
(173.111 13.9686 -3.58598e-17)
(170.055 13.7129 0)
(166.073 13.0638 0)
(163.509 12.698 0)
(159.547 11.9054 0)
(157.592 11.2796 -2.89703e-22)
(153.665 10.3212 0)
(152.479 9.28486 0)
(148.757 7.63534 0)
(100.008 -0.620526 0)
(100.225 -1.73803 -4.36584e-17)
(100.655 -2.78861 4.10392e-17)
(101.244 -3.95595 0)
(102.035 -5.66661 3.60096e-17)
(103.065 -8.11086 -1.22918e-21)
(104.396 -11.1412 -3.51255e-17)
(106.061 -14.2297 -8.61376e-22)
(108.115 -16.8345 7.37217e-17)
(110.569 -18.5475 0)
(113.399 -19.2659 0)
(116.444 -19.1748 -3.84822e-17)
(119.568 -18.6569 -7.57048e-17)
(122.607 -18.1143 0)
(125.626 -17.7494 -3.50088e-17)
(128.603 -17.5962 0)
(131.693 -17.5589 3.21161e-17)
(134.793 -17.6151 -3.09613e-17)
(138.07 -17.7071 0)
(141.351 -17.8766 -5.81107e-17)
(144.87 -18.0632 5.64336e-17)
(148.372 -18.3326 -2.73229e-17)
(152.19 -18.5956 -2.65179e-17)
(155.954 -18.9543 0)
(160.138 -19.2799 2.48168e-17)
(164.206 -19.7272 -2.38726e-17)
(168.837 -20.1076 0)
(173.256 -20.6508 2.21077e-17)
(178.435 -21.0815 0)
(183.256 -21.7362 0)
(189.114 -22.2146 0)
(194.398 -23.0043 1.11725e-21)
(201.104 -23.5283 -3.56306e-17)
(206.918 -24.4875 0)
(214.698 -25.0582 3.2037e-17)
(221.118 -26.2345 1.29522e-21)
(230.271 -26.8588 -1.42007e-17)
(237.384 -28.3209 0)
(248.317 -29.036 0)
(256.246 -30.9033 2.12053e-17)
(269.549 -31.8157 0)
(278.538 -34.263 0)
(295.137 -35.5357 8.70875e-18)
(305.715 -38.6774 0)
(327.025 -40.3565 0)
(340.078 -43.8877 -4.25507e-18)
(367.781 -45.5284 0)
(384.035 -48.3322 0)
(419.152 -49.4644 0)
(438.98 -50.0721 5.20313e-19)
(481.822 -50.8752 -2.44602e-18)
(507.022 -42.7524 -3.57116e-18)
(549.234 -40.4416 -1.3757e-21)
(577.467 0.498686 1.47833e-18)
(549.781 20.1628 5.08645e-21)
(539.804 28.6127 6.2264e-18)
(504.325 33.3048 -1.1028e-21)
(488.233 34.0817 0)
(456.685 35.7523 1.4087e-18)
(440.59 34.2363 0)
(414.615 33.8986 -2.22738e-18)
(400.517 31.4931 5.6133e-22)
(379.969 30.6439 0)
(367.89 28.4777 -2.43496e-18)
(351.407 27.7329 -4.23339e-18)
(340.777 25.9921 3.93504e-18)
(327.276 25.3878 0)
(317.802 24.0482 0)
(306.506 23.5871 -6.41443e-18)
(297.918 22.5996 -6.61269e-22)
(288.182 22.2659 -7.50109e-18)
(280.256 21.5676 7.82033e-18)
(271.633 21.3256 4.76188e-22)
(264.236 20.8214 1.79864e-17)
(256.443 20.6024 0)
(249.522 20.1895 2.03217e-17)
(242.411 19.9261 1.08187e-17)
(235.975 19.5169 0)
(229.491 19.1603 -1.1968e-17)
(223.585 18.7173 0)
(217.712 18.2744 2.61063e-17)
(212.371 17.8187 1.35542e-17)
(207.068 17.3324 0)
(202.276 16.9127 0)
(197.456 16.4287 2.99179e-17)
(193.152 16.0819 -1.54689e-17)
(188.694 15.611 -1.58962e-17)
(184.816 15.3352 3.29329e-17)
(180.605 14.8498 1.68852e-17)
(177.127 14.6123 1.75348e-17)
(173.069 14.0665 1.79256e-17)
(170.011 13.8105 0)
(166.028 13.1574 -1.90183e-17)
(163.461 12.7909 0)
(159.496 11.9931 -2.01619e-17)
(157.538 11.365 -2.13048e-17)