/*--------------------------------*- C++ -*----------------------------------*\
| =========                 |                                                 |
| \\      /  F ield         | OpenFOAM: The Open Source CFD Toolbox           |
|  \\    /   O peration     | Version:  2412                                  |
|   \\  /    A nd           | Website:  www.openfoam.com                      |
|    \\/     M anipulation  |                                                 |
\*---------------------------------------------------------------------------*/
FoamFile
{
    version     2.0;
    format      ascii;
    arch        "LSB;label=32;scalar=64";
    class       volScalarField;
    location    "0.8";
    object      epsilon;
}
// * * * * * * * * * * * * * * * * * * * * * * * * * * * * * * * * * * * * * //

dimensions      [0 2 -3 0 0 0 0];

internalField   nonuniform List<scalar> 
13077
(
417.138
469.708
543.16
652.088
809.006
1004.97
1211.86
1398.98
1545.59
1647.84
1712.06
1750.3
1774.23
1793.54
1812.97
1830.13
1831.47
1804.13
1754.43
1709.62
1690.05
1701.26
1735.52
1787.31
1849.43
1923.3
2005.54
2103.17
2212.7
2346.14
2497
2684.33
2894.83
3159.75
3452.7
3828.81
4237.42
4781.56
5364.59
417.941
471.574
546.46
657.164
816.001
1013.53
1221.11
1408.02
1553.94
1655.65
1719.94
1759.13
1784.87
1806.73
1829.18
1849.85
1855.32
1832.14
1784.9
1740.06
1718.71
1727.63
1759.7
1809.61
1870.04
1942.35
2023.09
2119.32
2227.49
2359.76
2509.6
2696.25
2906.33
3171.39
3464.88
3842.34
4252.85
4800.18
5387.17
6216.68
7122.67
8555.12
10257.4
13196.9
16832.2
23097.8
30504.8
42708
54402.2
71064
85607.5
115470
250072
310697
332418
359805
368933
366644
341207
316731
292790
281389
275191
275018
273149
270874
264416
256704
245979
418.764
473.49
549.852
662.386
823.202
1022.36
1230.68
1417.45
1562.75
1664
1728.47
1768.76
1796.53
1821.17
1846.9
1871.29
1881.06
1862.18
1817.6
1772.85
1749.73
1756.25
1786
1833.88
1892.48
1963.13
2042.24
2136.95
2243.65
2374.66
2523.38
2709.28
2918.9
3184.06
3478.1
3856.96
4269.46
4820.16
5411.34
6247.26
7160.12
8602.18
10313.2
13267.1
16921.2
23231.4
30728.4
43153.2
55229.7
72482.7
87414.6
117820
254826
317701
342524
373041
383995
382803
356553
330739
305022
292487
285667
285431
283741
281697
275390
267676
256814
245154
231567
217530
202224
186661
170420
154251
138039
122339
107238
93104.5
80082.9
68383.1
58166.1
49451.3
42304.9
36480.5
31892.9
28118.8
25092.9
22385.6
20113.5
17908
16054
14195
12702
11230.3
10144.4
9215.62
8728.07
419.608
475.457
553.338
667.759
830.619
1031.48
1240.6
1427.29
1572.05
1672.93
1737.71
1779.25
1809.25
1836.92
1866.21
1894.55
1908.77
1894.37
1852.65
1808.14
1783.25
1787.28
1814.55
1860.26
1916.89
1985.74
2063.08
2156.16
2261.27
2390.9
2538.41
2723.48
2932.57
3197.81
3492.39
3872.7
4287.28
4841.5
5437.11
6279.85
7200.06
8652.39
10373
13342.3
17016
23371.9
30960.2
43609.4
56078.6
73951.4
89301.2
120264
259708
325040
353172
386952
399830
399825
372766
345544
317894
304063
296468
296052
294461
292595
286410
278673
267663
255729
241781
227312
211544
195490
178749
162071
145357
129162
113580
98977.5
85495.9
73336.7
62656.8
53477.9
45884.9
39650.8
34714.9
30652.8
27402
24504.2
22076.2
19713.8
17721.3
15703.6
14073.3
12439.3
11225.3
10148.1
9566.54
420.475
477.477
556.924
673.291
838.262
1040.89
1250.9
1437.58
1581.87
1682.47
1747.68
1790.64
1823.08
1854.06
1887.19
1919.74
1938.6
1928.85
1890.2
1846.08
1819.44
1820.89
1845.54
1888.92
1943.41
2010.31
2085.76
2177.06
2280.45
2408.59
2554.77
2738.92
2947.41
3212.7
3507.8
3889.61
4306.35
4864.26
5464.52
6314.46
7242.5
8705.81
10436.7
13422.4
17116.8
23519.7
31200.6
44076.5
56948.3
75469.9
91268.7
122803
264723
332733
364388
401563
416458
417731
389876
361180
331442
316143
307609
306889
305308
303561
297461
289679
278507
266290
251977
237072
220841
204294
187055
169873
152661
135975
119918
104857
90929
78329.5
67209.1
57588.4
49565.3
42930.3
37647
33295.4
29817.6
26730.5
24149.5
21635.6
19509.1
17336.5
15570.4
13771.4
12425.1
11189.1
10504.8
421.366
479.552
560.613
678.987
846.142
1050.62
1261.58
1448.33
1592.23
1692.66
1758.42
1802.98
1838.1
1872.66
1909.94
1946.97
1970.67
1965.75
1930.39
1886.85
1858.5
1857.28
1879.14
1920.02
1972.21
2037.01
2110.4
2199.79
2301.31
2427.83
2572.56
2755.7
2963.5
3228.79
3524.4
3907.74
4326.72
4888.47
5493.63
6351.15
7287.52
8762.5
10504.6
13507.7
17223.8
23675
31449.8
44554.5
57838.7
77038.2
93319.3
125442
269876
340802
376202
416898
433899
436542
407912
377684
345701
328760
319112
317954
316284
314591
308535
300681
289332
276820
262136
246791
230095
213056
195322
177637
159932
142761
126237
110724
96361.5
83337.6
71796.9
61755.8
53320.3
46295.7
40668.9
36028.3
32322.8
29048.9
26319
23660.9
21407.5
19087
17189.5
15226.6
13746.4
12343.9
11549.3
422.28
481.685
564.408
684.855
854.267
1060.67
1272.67
1459.57
1603.18
1703.53
1769.99
1816.32
1854.34
1892.78
1934.55
1976.37
2005.13
2005.24
1973.4
1930.63
1900.62
1896.64
1915.57
1953.77
2003.48
2066
2137.17
2224.47
2323.98
2448.73
2591.88
2773.89
2980.92
3246.15
3542.25
3927.15
4348.44
4914.21
5524.49
6389.97
7335.17
8822.56
10576.6
13598.2
17337.3
23838
31708.2
45043.7
58749.6
78656
95455.1
128184
275174
349270
388645
432982
452173
456277
426900
395092
360709
341946
331001
329261
327394
325682
319625
311669
300124
287305
272243
256453
239292
221762
203534
185351
167157
149507
132521
116564
101776
88341.5
76397.7
65956
57125.8
49724.5
43760
38832.5
34899.6
31442.2
28568.4
25775.2
23403.6
20945.1
18923.6
16801.5
15189.4
13615.8
12705.2
423.22
483.877
568.314
690.901
862.649
1071.07
1284.19
1471.33
1614.73
1715.12
1782.42
1830.72
1871.9
1914.52
1961.12
2008.06
2042.13
2047.48
2019.41
1977.62
1946.03
1939.22
1955.04
1990.36
2037.39
2097.45
2166.22
2251.27
2348.59
2471.42
2612.84
2793.6
2999.76
3264.86
3561.41
3947.9
4371.58
4941.51
5557.15
6430.97
7385.52
8886.07
10652.9
13694.2
17457.3
24009.1
31976.1
45544.3
59680.8
80323.5
97678.2
131034
280623
358160
401748
449841
471296
476951
446866
413436
376506
355736
343302
340826
338644
336835
330723
322634
310873
297730
282283
266045
248417
230396
211679
193002
174326
156201
138759
122364
107160
93325.2
80992.7
70167.8
60959.8
53195.1
46900
41688.8
37529.4
33892.1
30879.7
27961.1
25481.6
22897.6
20762.3
18489.8
16750.8
15005.5
13975.3
424.185
486.131
572.336
697.132
871.298
1081.82
1296.15
1483.62
1626.93
1727.48
1795.77
1846.23
1890.82
1937.95
1989.76
2042.18
2081.83
2092.65
2068.6
2028.04
1994.95
1985.23
1997.78
2030.04
2074.18
2131.58
2197.73
2280.35
2375.28
2496.03
2635.56
2814.94
3020.1
3285.01
3581.97
3970.06
4396.19
4970.45
5591.68
6474.23
7438.65
8953.14
10733.7
13795.9
17584.3
24188.7
32253.9
46056.7
60632.3
82040.5
99991
133996
286231
367497
415544
467498
491286
498578
467829
432748
393127
370167
356042
352667
350044
348050
341827
333567
321566
308086
292246
275554
257457
238947
219745
200579
181426
162834
144942
128115
112502
98275.7
85566.5
74373.2
64802.8
56687.8
50069.5
44578.4
40193.3
36379.6
33233.6
30200.1
27623.6
24928.6
22691.6
20281.1
18423.7
16510.4
15360.1
425.178
488.449
576.478
703.557
880.225
1092.95
1308.59
1496.49
1639.81
1740.65
1810.09
1862.91
1911.18
1963.15
2020.56
2078.85
2124.4
2140.94
2121.18
2082.09
2047.62
2034.96
2044.06
2073.03
2114.06
2168.57
2231.91
2311.88
2404.23
2522.71
2660.17
2838.02
3042.06
3306.69
3604.01
3993.71
4422.35
5001.08
5628.14
6519.8
7494.63
9023.84
10819
13903.4
17718.4
24377.1
32542
46581.1
61603.9
83806.5
102396
137074
292004
377306
430067
485978
512156
521165
489806
453056
410611
385275
369253
364806
361604
359332
352934
344461
332196
318360
302117
284967
266402
247404
227720
208072
188449
169395
151060
133809
117792
103182
90106.1
78557.1
68637.7
60184.7
53250.9
47483.6
42873.5
38885.9
35610.8
32472.3
29810
27019.6
24694.9
22161.9
20197.5
18124.3
16856.6
426.199
490.834
580.744
710.182
889.442
1104.46
1321.52
1509.96
1653.4
1754.67
1825.42
1880.82
1933.05
1990.22
2053.64
2118.22
2170
2192.54
2177.36
2140.03
2104.31
2088.65
2094.14
2119.61
2157.28
2208.68
2268.95
2346.05
2435.6
2551.61
2686.81
2862.96
3065.73
3329.99
3627.6
4018.91
4450.12
5033.46
5666.58
6567.75
7553.54
9098.27
10909.1
14016.9
17859.8
24574.5
32840.8
47118
62595.7
85621.3
104894
140274
297952
387615
445351
505305
533916
544717
512810
474386
428992
401098
382965
377265
373339
370686
364043
355313
342755
328544
311888
294274
275238
255755
235594
215469
195384
175876
157106
139436
123022
108036
94601.3
82707
72450.4
63670.5
56428.4
50388.3
45553.1
41393.2
37991.9
34757.6
32020
29150.5
26752.9
24115.4
22058
19837.4
18458.2
427.249
493.288
585.14
717.016
898.962
1116.38
1334.96
1524.06
1667.75
1769.58
1841.82
1900.03
1956.5
2019.24
2089.1
2160.43
2218.83
2247.65
2237.36
2202.08
2165.29
2146.61
2148.32
2170.05
2204.11
2252.14
2309.1
2383.09
2469.59
2582.89
2715.62
2889.91
3091.25
3355.01
3652.83
4045.75
4479.57
5067.67
5707.08
6618.15
7615.44
9176.52
11003.9
14136.5
18008.9
24781.4
33150.9
47667.8
63607.6
87484.3
107488
143600
304080
398449
461429
525500
556575
569235
536847
496756
448303
417674
397212
390070
385264
382120
375156
366118
353235
338629
321549
303465
283957
263991
243357
222762
202223
182270
163072
144990
128186
112830
99043.7
86813
76229.1
67132.2
59588.3
53278.3
48217.3
43885.1
40359
37036.4
34233.1
31300.4
28844.9
26122.6
23988.1
21636.3
20154.6
428.33
495.815
589.671
724.068
908.796
1128.73
1348.95
1538.83
1682.89
1785.43
1859.35
1920.6
1981.61
2050.3
2127.07
2205.62
2271.05
2306.5
2301.42
2268.52
2230.84
2209.14
2206.91
2224.66
2254.83
2299.22
2352.58
2423.2
2506.39
2616.76
2746.78
2918.99
3118.73
3381.87
3679.82
4074.31
4510.77
5103.77
5749.69
6671.06
7680.41
9258.67
11103.7
14262.5
18165.8
24998
33472.6
48231
64639.7
89395.1
110179
147057
310399
409838
478337
546585
580138
594715
561918
520184
468576
435039
412029
403248
397397
393644
386275
376876
363631
348609
331090
312530
292549
272101
250999
229942
208957
188569
168952
150465
133277
117557
103427
90867.1
79964.4
70559
62719.3
56141.9
50853.3
46347.2
42695.7
39290
36428.9
33448.1
30949.4
28162.7
25967.8
23504.5
21932.1
429.443
498.416
594.343
731.347
918.958
1141.52
1363.51
1554.29
1698.87
1802.28
1878.06
1942.59
2008.47
2083.49
2167.65
2253.95
2326.87
2369.3
2369.78
2339.61
2301.26
2276.57
2270.25
2283.77
2309.77
2350.21
2399.68
2466.64
2546.23
2653.39
2780.44
2950.37
3148.3
3410.68
3708.65
4104.69
4543.82
5141.84
5794.49
6726.54
7748.51
9344.81
11208.5
14394.9
18330.8
25224.9
33806.5
48808.1
65692.2
91352.9
112970
150650
316916
421807
496107
568580
604610
621147
588021
544678
489835
453230
427450
416828
409758
405270
397406
387586
373942
358477
340505
321460
301004
280076
258513
237001
215580
194765
174738
155856
138292
122214
107745
94862.8
83648.8
73942.4
65812.2
58969.3
53450.6
48767.4
44987.7
41501.8
38588.6
35572.8
33044.4
30213.7
27975.9
25422.7
23773.5
430.589
501.096
599.16
738.861
929.462
1154.78
1378.65
1570.48
1715.72
1820.17
1898.01
1966.08
2037.14
2118.92
2210.96
2305.56
2386.48
2436.28
2442.7
2415.62
2376.87
2349.24
2338.67
2347.72
2369.23
2405.43
2450.68
2513.66
2589.34
2693
2816.81
2984.21
3180.12
3441.58
3739.44
4136.98
4578.78
5181.94
5841.54
6784.67
7819.82
9435.03
11318.4
14534
18504.1
25462.2
34152.9
49399.7
66765.1
93357.1
115862
154385
323640
434387
514776
591504
629990
648520
615144
570240
512104
472280
443514
430842
422371
417014
408556
398252
384164
368230
349789
330250
309315
287910
265889
243931
222083
200851
180425
161156
143223
126795
111993
98795.2
87276.5
77275.7
68859.9
61752.9
56001.1
51136
47223.2
43657.2
40695
37655.2
35109
32253.8
29989.9
27369.9
25659.1
431.769
503.858
604.13
746.62
940.322
1168.52
1394.42
1587.44
1733.5
1839.16
1919.27
1991.14
2067.71
2156.67
2257.12
2360.61
2450.06
2507.68
2520.43
2496.86
2458
2427.51
2412.57
2416.89
2433.6
2465.21
2505.89
2564.55
2635.98
2735.83
2856.09
3020.69
3214.34
3474.69
3772.3
4171.28
4615.75
5224.16
5890.9
6845.49
7894.41
9529.38
11433.6
14679.8
18685.9
25710.3
34512.5
50006.4
67858.8
95407
118855
158265
330580
447606
534376
615376
656278
676815
643273
596866
535401
492221
460255
445323
435261
428892
419737
408877
394298
377866
358935
338894
317477
295593
273121
250724
228460
206822
186006
166361
148068
131296
116168
102660
90842.9
80553.7
71856.8
64487.1
58499
53446
49393.1
45744.2
42733.3
39677.5
37123.3
34261.5
31987.3
29323.9
27567.5
432.986
506.705
609.257
754.636
951.554
1182.77
1410.84
1605.2
1752.24
1859.29
1941.9
2017.84
2100.28
2196.85
2306.25
2419.24
2517.82
2583.75
2603.25
2583.63
2544.99
2511.75
2492.33
2491.68
2503.24
2529.91
2565.64
2619.62
2686.42
2782.12
2898.49
3060
3251.13
3510.17
3807.36
4207.7
4654.83
5268.58
5942.67
6909.09
7972.32
9627.96
11554.2
14832.6
18876.4
25969.6
34885.6
50628.8
68973.5
97501.6
121952
162298
337747
461492
554939
640211
683467
706011
672385
624546
559737
513083
477710
460304
448454
440925
430960
419470
404348
387383
367943
347387
325482
303121
280203
257375
234704
212672
191478
171466
152822
135714
120267
106455
94344.4
83772.5
74798.8
67167.7
60940.1
55692.5
51491
47753.4
44691.4
41624.6
39069.6
36216.8
33946.5
31262.4
29476.3
434.241
509.64
614.55
762.917
963.173
1197.54
1427.94
1623.8
1772
1880.64
1965.97
2046.26
2134.92
2239.57
2358.48
2481.6
2589.95
2664.72
2691.44
2676.22
2638.18
2602.36
2578.38
2572.5
2578.58
2599.92
2630.3
2679.2
2740.98
2832.14
2944.26
3102.36
3290.66
3548.17
3844.76
4246.35
4696.1
5315.28
5996.89
6975.53
8053.64
9730.82
11680.2
14992.4
19075.9
26240.4
35272.9
51267.7
70109.8
99640.3
125154
166487
345148
476075
576499
666025
711552
736084
702454
653263
585118
534890
495914
475823
461982
453135
442240
430039
414317
396784
376811
355727
333328
310489
287128
263877
240809
218394
196833
176466
157481
140046
124286
110176
97778.1
86929
77682.8
69792.1
63322.2
57872.8
53512.9
49678.6
46559.8
43483.7
40932.2
38101.4
35847
33163.6
31362.9
435.534
512.667
620.014
771.476
975.195
1212.86
1445.75
1643.29
1792.83
1903.26
1991.54
2076.48
2171.72
2284.91
2413.91
2547.86
2666.65
2750.85
2785.29
2774.96
2737.93
2699.74
2671.14
2659.8
2660.04
2675.65
2700.25
2743.65
2799.95
2886.18
2993.64
3147.99
3333.14
3588.86
3884.64
4287.37
4739.68
5364.36
6053.67
7044.87
8138.43
9838.03
11811.7
15159.4
19284.4
26523
35674.7
51923.8
71268
101822
128461
170839
352796
491383
599086
692830
740523
767004
733446
682993
611544
557663
514901
491914
475876
465547
453597
440597
424214
406072
385540
363912
341012
317692
293892
270225
246771
223985
202069
181357
162041
144287
128222
113821
101142
90020.7
80506.6
72358.4
65644
59986
55457.2
51515.9
48332.1
45244.8
42698.3
39899.2
37670.5
35007
33205.4
436.869
515.791
625.658
780.324
987.638
1228.76
1464.31
1663.71
1814.77
1927.21
2018.69
2108.57
2210.79
2333
2472.69
2618.16
2748.11
2842.37
2885.07
2880.17
2844.61
2804.3
2771.07
2754.06
2748.09
2757.56
2775.92
2813.34
2863.71
2944.55
3046.93
3197.13
3378.78
3632.41
3927.15
4330.87
4785.68
5415.89
6113.06
7117.18
8226.73
9949.65
11948.8
15333.7
19502.3
26817.7
36091.7
52597.9
72448.9
104047
131874
175360
360699
507443
622728
720639
770370
798739
765323
713706
639007
581417
534703
508615
490169
478190
465050
451157
434047
415254
394133
371944
348533
324729
300492
276416
252585
229438
207179
186135
166498
148436
132073
117387
104433
93046
83268.6
74865.5
67905.4
62032.6
57324.3
53264.1
50004.8
46901
44357.7
41596.8
39400.8
36774
34983.6
438.247
519.015
631.487
789.474
1000.52
1245.26
1483.65
1685.09
1837.89
1952.55
2047.49
2142.63
2252.21
2383.93
2534.92
2692.64
2834.53
2939.53
2991.08
2992.18
2958.59
2916.47
2878.64
2855.76
2843.22
2846.12
2857.74
2888.71
2932.63
3007.6
3104.4
3250.04
3427.79
3679.04
3972.46
4377.01
4834.21
5470
6175.15
7192.52
8318.61
10065.7
12091.5
15515.3
19729.6
27124.8
36524.2
53290.9
73653
106313
135394
180054
368869
524284
647453
749462
801079
831254
798042
745362
667494
606163
555348
525962
504897
491093
476623
461739
443830
424338
402596
379826
355891
331600
306927
282447
258247
234751
212162
190797
170850
152489
135837
120874
107651
96003.1
85967.4
77312.7
70106.8
64013.9
59116.1
54924.1
51576.9
48448.3
45903.5
43183.7
41024.5
38448.1
36678.9
439.67
522.344
637.511
798.937
1013.86
1262.39
1503.8
1707.49
1862.24
1979.35
2078.01
2178.73
2296.08
2437.82
2600.74
2771.46
2926.09
3042.58
3103.6
3111.3
3080.23
3036.67
2994.33
2965.41
2945.96
2941.84
2946.21
2970.19
3007.1
3075.68
3166.39
3307
3480.43
3728.94
4020.74
4425.93
4885.4
5526.77
6240.04
7270.97
8414.13
10186.3
12240
15704.4
19966.5
27444.5
36972.8
54003.5
74881.3
108621
139020
184927
377316
541931
673286
779306
832636
864513
831555
777920
696982
631904
576861
543990
520096
504289
488343
472362
453578
433336
410936
387563
363089
338304
313195
288316
263756
239921
217012
195338
175094
156443
139511
124278
110793
98890.7
88602.2
79699.8
72249
65932
60835.6
56498.9
53049.8
49885.4
47331.5
44652.2
42531.1
40015.5
38275.3
441.14
525.782
643.738
808.727
1027.67
1280.17
1524.8
1730.96
1887.87
2007.68
2110.34
2216.97
2342.49
2494.77
2670.26
2854.76
3022.97
3151.74
3222.91
3237.86
3209.92
3165.35
3118.63
3083.54
3056.83
3045.24
3041.83
3058.26
3087.58
3149.19
3233.25
3368.33
3536.95
3782.34
4072.2
4477.8
4939.39
5586.31
6307.79
7352.59
8513.33
10311.5
12394.2
15900.9
20213.1
27777.1
37437.9
54736.7
76134.6
110969
142754
189985
386051
560411
700248
810178
865026
898476
865811
811329
727442
658636
599265
562734
535804
517814
500239
483051
463310
442261
419164
395162
370133
344846
319298
294023
269109
244945
221728
199757
179226
160296
143094
127599
113858
101708
91172.1
82026.6
74333
67789.5
62486.6
57992.6
54427.3
51213.7
48640.5
45997.5
43913.1
41465.3
39759.7
442.659
529.335
650.175
818.859
1041.99
1298.64
1546.69
1755.53
1914.85
2037.6
2144.55
2257.44
2391.56
2554.9
2743.61
2942.67
3125.34
3267.23
3349.3
3372.18
3348.01
3302.92
3252.03
3210.7
3176.42
3156.89
3145.13
3153.43
3174.52
3228.56
3305.36
3434.36
3597.65
3839.49
4127.03
4532.78
4996.31
5648.75
6378.51
7437.44
8616.27
10441.2
12554.2
16105
20469.5
28122.7
37919.9
55491.2
77413.9
113358
146595
195233
395085
579746
728360
842082
898230
933102
900756
845533
758839
686350
622574
582225
552059
531702
512343
493832
473046
451131
427293
402633
377030
351230
325238
299568
274306
249822
226307
204051
183244
164045
146582
130834
116845
104453
93676.3
84292.9
76359.7
69588.8
64073.5
59410.5
55714.4
52436.8
49831.9
47217.9
45165.8
42789.4
41121.5
444.229
533.007
656.834
829.346
1056.82
1317.82
1569.51
1781.27
1943.23
2069.2
2180.74
2300.23
2443.38
2618.31
2820.91
3035.33
3233.36
3389.26
3483.01
3514.56
3494.85
3449.82
3395.04
3347.43
3305.29
3277.39
3256.71
3256.24
3268.43
3314.24
3383.1
3505.42
3662.83
3900.65
4185.45
4591.06
5056.31
5714.21
6452.29
7525.61
8722.99
10575.5
12720
16316.7
20735.8
28481.6
38419.3
56268
78720.3
115787
150543
200678
404431
599960
757635
875019
932231
968351
936332
880473
791128
715028
646800
602493
568898
545994
524690
504735
482812
459966
435340
409990
383789
357462
331020
304954
279347
254551
230749
208218
187147
167690
149975
133981
119752
107125
96114.1
86498.6
78330.1
71332.5
65600.7
60758.5
56917.6
53560.2
50909.5
48314.3
46287.5
43982.6
42353.5
445.854
536.804
663.722
840.205
1072.19
1337.74
1593.31
1808.23
1973.09
2102.55
2218.97
2345.44
2498.05
2685.12
2902.27
3132.87
3347.19
3518.04
3624.31
3665.29
3650.8
3606.45
3548.12
3494.3
3444.04
3407.34
3377.15
3367.27
3369.84
3406.72
3466.93
3581.92
3732.81
3966.09
4247.7
4652.84
5119.56
5782.81
6529.23
7617.15
8833.54
10714.5
12891.6
16535.9
21011.9
28853.8
38936.3
57068
80055
118257
154598
206323
414099
621072
788088
908989
967010
1.00418e+06
972480
916084
824260
744645
671947
623563
586358
560727
537316
515793
492634
468789
443323
417247
390423
363553
336651
310186
284237
259134
235053
212258
190932
171228
153270
137040
122577
109723
98484.9
88643.6
80245
73022.9
67072.4
62042.9
58044.4
54591.1
51879.3
49290
47279.3
45042.9
43451.1
447.535
540.731
670.85
851.45
1088.12
1358.43
1618.11
1836.45
2004.5
2137.72
2259.35
2393.16
2555.68
2755.44
2987.81
3235.41
3466.97
3653.74
3773.41
3824.66
3816.17
3773.2
3711.78
3651.86
3593.29
3547.37
3507.08
3487.13
3479.32
3506.52
3557.31
3664.26
3807.95
4036.13
4314.04
4718.33
5186.23
5854.69
6609.44
7712.14
8947.96
10858.1
13069.1
16762.7
21298
29239.4
39471.2
57891.9
81419.2
120768
158759
212176
424101
643100
819724
943987
1.00255e+06
1.04055e+06
1.00914e+06
952298
858180
775169
698014
645457
604474
575943
550260
527041
502545
477626
451264
424423
396946
369514
342139
315269
288977
263572
239220
216170
194600
174658
156467
140009
125321
112247
100788
90727.9
82105.1
74662.2
68492.9
63269.7
59102.6
55537.7
52748.9
50150.9
48144.8
45970.5
44412.7
449.275
544.795
678.228
863.099
1104.65
1379.94
1643.98
1866
2037.51
2174.8
2301.97
2443.49
2616.39
2829.39
3077.65
3343.07
3592.82
3796.53
3930.54
3992.92
3991.28
3950.44
3886.45
3820.65
3753.65
3698.13
3647.18
3616.46
3597.49
3614.2
3654.73
3752.88
3888.64
4111.09
4384.73
4787.76
5256.5
5930
6693.02
7810.66
9066.29
11006.3
13252.4
16997
21593.9
29638.4
40024.4
58740.5
82814.3
123319
163027
218240
434449
666061
852549
980007
1.03882e+06
1.07742e+06
1.04625e+06
989046
892826
806560
724992
668192
623281
591682
563564
538517
512577
486507
459189
431539
403377
375359
347495
320212
293574
267869
243251
219954
198151
177980
159565
142887
127983
114696
103024
92751.3
83911
76252.3
69865.7
64444.9
60100.1
56409
53527.5
50904.5
48889.9
46768.7
45239.5
451.077
549.003
685.869
875.17
1121.78
1402.29
1670.95
1896.95
2072.2
2213.87
2346.9
2496.54
2680.26
2907.06
3171.91
3455.96
3724.88
3946.55
4095.88
4170.3
4176.39
4138.52
4072.58
4001.19
3925.71
3860.28
3798.09
3755.93
3724.97
3730.35
3759.74
3848.26
3975.28
4191.32
4460.08
4861.37
5330.57
6008.89
6780.08
7912.77
9188.57
11159.2
13441.4
17238.7
21899.6
30050.9
40596
59614.6
84241.6
125913
167400
224521
445156
689966
886560
1.01704e+06
1.07581e+06
1.11474e+06
1.08375e+06
1.02625e+06
928132
838773
752865
691780
642809
607983
577269
550262
522768
495465
467126
438620
409735
381105
352733
325024
298035
272029
247151
223614
201584
181194
162564
145675
130561
117069
105191
94713.9
85663.4
77794.7
71194.4
65574.3
61044.8
57214.5
54225
51560.1
49522.6
47442.9
45935.2
452.945
553.359
693.782
887.68
1139.56
1425.52
1699.07
1929.33
2108.64
2255.01
2394.27
2552.41
2747.43
2988.58
3270.68
3574.19
3863.23
4103.93
4269.6
4357.01
4371.75
4337.75
4270.56
4194
4110.08
4034.48
3960.53
3906.23
3862.44
3855.61
3872.91
3950.9
4068.32
4277.2
4540.4
4939.42
5408.65
6091.52
6870.75
8018.57
9314.82
11316.7
13636.1
17487.7
22215
30476.7
41186
60514.8
85702.4
128550
171879
231024
456234
714825
921751
1.05507e+06
1.1135e+06
1.15248e+06
1.12158e+06
1.06385e+06
964027
871754
781612
716226
663085
624887
591419
562319
533158
504536
475107
445694
416045
386772
357868
329719
302369
276061
250922
227151
204902
184301
165464
148371
133056
119366
107290
96615.9
87362.9
79291
72481.8
66662.8
61944.3
57963.7
54852.1
52128
50052.4
48000.7
46505.6
454.882
557.873
701.981
900.65
1158
1449.67
1728.4
1963.24
2146.91
2298.32
2444.15
2611.2
2817.99
3074.06
3374.08
3697.86
4007.99
4268.77
4451.83
4553.22
4577.59
4548.39
4480.74
4399.53
4307.31
4221.38
4135.19
4068.07
4010.6
3990.63
3994.84
4061.36
4168.22
4369.13
4626.02
5022.2
5490.96
6178.09
6965.16
8128.12
9445.1
11478.8
13836.5
17743.9
22539.9
30915.6
41794.6
61441.7
87198.2
131231
176462
237753
467694
740646
958110
1.09409e+06
1.15186e+06
1.19061e+06
1.15969e+06
1.10176e+06
1.00044e+06
905445
811201
741529
684134
642430
606058
574732
543788
513760
483167
452792
422333
392383
362920
334310
306587
279970
254571
230569
208107
187302
168266
150978
135469
121588
109321
98457.7
89010.2
80742.7
73730.8
67715.2
62805.5
58665.8
55419.5
52619.6
50490.4
48451.4
46958.8
456.89
562.551
710.479
914.099
1177.14
1474.79
1758.99
1998.71
2187.1
2343.88
2496.65
2673.02
2892.05
3163.61
3482.21
3827.06
4159.22
4441.16
4642.69
4759.08
4794.08
4770.69
4703.46
4618.21
4517.95
4421.59
4322.75
4242.19
4170.18
4136.13
4126.18
4180.21
4275.5
4467.56
4717.31
5110
5577.76
6268.76
7063.44
8241.51
9579.41
11645.5
14042.4
18007.1
22874.2
31367.5
42421.6
62395.7
88730.1
133958
181150
244713
479551
767431
995621
1.13407e+06
1.19087e+06
1.22907e+06
1.198e+06
1.13991e+06
1.03729e+06
939783
841598
767684
705974
660649
621229
587547
554704
523177
491345
459947
428629
397962
367908
338816
310704
283769
258106
233873
211203
190200
170971
153495
137800
123736
111285
100240
90606.3
82151.1
74943.6
68735.6
63634.8
59329.6
55938.2
53046.6
50848.4
48805.8
47304.5
458.975
567.401
719.289
928.049
1197.01
1500.9
1790.89
2035.84
2229.27
2391.78
2551.87
2737.97
2969.74
3257.33
3595.17
3961.86
4317
4621.16
4842.25
4974.71
5021.36
5004.81
4938.95
4850.4
4742.49
4635.74
4523.91
4429.32
4341.91
4292.81
4267.61
4308.07
4390.69
4572.93
4814.66
5203.15
5669.28
6363.75
7165.74
8358.82
9717.81
11816.7
14253.8
18277.2
23217.6
31832.1
43066.9
63377.2
90299.6
136733
185942
251909
491815
795180
1.03426e+06
1.17499e+06
1.23051e+06
1.26785e+06
1.23648e+06
1.17823e+06
1.07451e+06
974700
872760
794676
728620
679575
636976
600812
565953
532832
499681
467198
434966
403539
372858
343255
314733
287468
261535
237071
214194
192999
173583
155926
140050
125810
113183
101964
92152.3
83517.8
76122.7
69727.8
64438.1
59963.4
56418.6
53421
51139.1
49076
47554
461.139
572.433
728.425
942.522
1217.64
1528.06
1824.15
2074.67
2273.52
2442.12
2609.92
2806.18
3051.15
3355.33
3713.06
4102.36
4481.38
4808.81
5050.57
5200.16
5259.52
5250.91
5187.44
5096.43
4981.37
4864.38
4739.34
4630.19
4526.56
4461.44
4419.84
4445.58
4514.37
4685.76
4918.49
5302
5765.81
6463.26
7272.21
8480.16
9860.3
11992.4
14470.5
18554
23569.9
32308.9
43730.3
64386.4
91907.7
139557
190838
259344
504501
823888
1.074e+06
1.21682e+06
1.27075e+06
1.3069e+06
1.27506e+06
1.21665e+06
1.11201e+06
1.01012e+06
904637
822485
752080
699240
653340
614574
577583
542774
508220
474584
441380
409145
377796
347650
318694
291082
264869
240170
217087
195702
176105
158271
142222
127812
115016
103632
93649.6
84844.4
77270.1
70695.1
65220.5
60574.8
56870.5
53754.4
51375.2
49274.8
47719.8
463.387
577.653
737.903
957.542
1239.06
1556.3
1858.84
2115.3
2319.92
2495
2670.9
2877.76
3136.41
3457.73
3835.97
4248.62
4652.41
5004.15
5267.67
5435.48
5508.63
5509.05
5449.06
5356.52
5234.96
5108.02
4969.65
4845.51
4724.9
4642.79
4583.62
4593.45
4647.16
4806.57
5029.24
5406.9
5867.65
6567.52
7383
8605.62
10006.9
12172.5
14692.5
18837.1
23930.7
32797.5
44411.3
65423.2
93555.5
142432
195838
267021
517619
853548
1.1148e+06
1.25954e+06
1.31157e+06
1.34621e+06
1.3137e+06
1.2551e+06
1.14972e+06
1.04598e+06
937175
851084
776358
719667
670362
628881
589644
553050
517008
482148
447910
414814
382752
352026
322607
294627
268120
243180
219888
198315
178540
160536
144319
129746
116788
105244
95100.2
86132.9
78388.3
71640.7
65986.6
61170.4
57303.1
54058.2
51569.6
49415.5
47815.2
465.723
583.074
747.739
973.134
1261.31
1585.68
1895.02
2157.79
2368.58
2550.52
2734.92
2952.8
3225.62
3564.62
3963.98
4400.7
4830.12
5207.18
5493.55
5680.68
5768.71
5779.28
5723.9
5630.87
5503.57
5367.1
5215.43
5075.97
4937.68
4837.64
4759.71
4752.39
4789.69
4935.93
5147.39
5518.27
5975.11
6676.78
7498.31
8735.29
10157.7
12357
14919.5
19126.4
24299.6
33297.4
45109.4
66487.6
95243.9
145362
200941
274944
531183
884148
1.15664e+06
1.30309e+06
1.35294e+06
1.38572e+06
1.35235e+06
1.29352e+06
1.18756e+06
1.0822e+06
970316
880441
801450
740878
688081
643779
602188
563713
526095
489937
454598
420585
387759
356411
326494
298120
271303
246111
222607
200845
180895
162724
146344
131613
118500
106804
96506.3
87385.4
79479.4
72567.5
66740.6
61756.5
57724.7
54343.1
51734.8
49511.6
47853.8
468.152
588.703
757.949
989.324
1284.42
1616.25
1932.74
2202.22
2419.57
2608.78
2802.09
3031.43
3318.89
3676.1
4097.19
4558.67
5014.54
5417.88
5728.18
5935.73
6039.71
6061.58
6011.97
5919.56
5787.4
5642
5477.21
5322.22
5165.65
5046.79
4948.91
4923.16
4942.65
5074.44
5273.45
5636.51
6088.52
6791.31
7618.3
8869.3
10312.7
12545.8
15151.4
19421.6
24676.2
33808.1
45824
67579.1
96973.5
148347
206148
283117
545206
915672
1.19945e+06
1.34745e+06
1.39483e+06
1.42543e+06
1.39098e+06
1.33185e+06
1.22545e+06
1.11869e+06
1.004e+06
910517
827347
762890
706530
659316
615265
574816
535533
498000
461489
426497
392851
360835
330380
301584
274434
248977
225253
203300
183175
164840
148301
133419
120155
108314
97870.7
88604.4
80546
73478.3
67486.3
62338.4
58142.9
54618.8
51882.6
49576.4
47849.9
470.679
594.553
768.552
1006.14
1308.43
1648.06
1972.09
2248.66
2473
2669.89
2872.53
3113.77
3416.34
3792.28
4235.67
4722.57
5205.67
5636.23
5971.51
6200.55
6321.59
6355.89
6313.24
6222.61
6086.61
5933
5755.41
5584.86
5409.5
5271.01
5152.02
5106.53
5106.77
5222.74
5407.96
5762.08
6208.25
6911.36
7743.17
9007.74
10471.9
12738.9
15388
19722.2
25060.1
34328.7
46554.4
68697.3
98745
151390
211460
291541
559699
948100
1.24319e+06
1.39257e+06
1.43722e+06
1.46531e+06
1.42953e+06
1.37002e+06
1.26333e+06
1.15539e+06
1.03815e+06
941269
854035
785712
725742
675535
628927
586411
545374
506388
468631
432594
398068
365330
334294
305040
277532
251792
227838
205689
185388
166890
150197
135166
121759
109779
99196.5
89792.8
81590.8
74375.9
68226.9
62920.7
58564
54894.4
52024.2
49622.8
47817.4
473.31
600.634
779.566
1023.61
1333.39
1681.15
2013.11
2297.22
2528.96
2733.95
2946.34
3199.92
3518.08
3913.25
4379.5
4892.44
5403.52
5862.2
6223.47
6475.06
6614.22
6662.08
6627.59
6539.97
6401.23
6240.28
6050.41
5864.41
5669.92
5511.08
5369.85
5303.31
5282.78
5381.49
5551.49
5895.46
6334.67
7037.25
7873.14
9150.76
10635.4
12936.1
15629.2
20028
25450.8
34858.5
47299.7
69841.3
100558
154493
216876
300218
574675
981410
1.28781e+06
1.43839e+06
1.48008e+06
1.50533e+06
1.46799e+06
1.408e+06
1.30112e+06
1.19222e+06
1.07271e+06
972647
881493
809352
745744
692478
643225
598553
555673
515154
476074
438921
403449
369932
338265
308512
280616
254572
230374
208021
187542
168882
152036
136861
123315
111202
100488
90953.9
82616.6
75263.2
68965.7
63507.6
58994
55177.7
52169.6
49663
47769.9
476.05
606.958
791.01
1041.76
1359.34
1715.59
2055.89
2347.95
2587.54
2801.07
3023.65
3290
3624.2
4039.1
4528.75
5068.33
5608.08
6095.72
6483.95
6759.14
6917.48
6980.01
6954.87
6871.51
6731.22
6563.93