/*--------------------------------*- C++ -*----------------------------------*\
| =========                 |                                                 |
| \\      /  F ield         | OpenFOAM: The Open Source CFD Toolbox           |
|  \\    /   O peration     | Version:  2412                                  |
|   \\  /    A nd           | Website:  www.openfoam.com                      |
|    \\/     M anipulation  |                                                 |
\*---------------------------------------------------------------------------*/
FoamFile
{
    version     2.0;
    format      ascii;
    arch        "LSB;label=32;scalar=64";
    class       volScalarField;
    location    "0.8";
    object      k;
}
// * * * * * * * * * * * * * * * * * * * * * * * * * * * * * * * * * * * * * //

dimensions      [0 2 -2 0 0 0 0];

internalField   nonuniform List<scalar> 
13077
(
40.129
43.6359
48.2545
54.3726
61.8752
69.5719
75.9262
79.943
81.4117
80.8
78.8204
76.2044
73.5494
71.3488
69.9781
69.6368
70.1454
71.0563
72.0593
73.2322
74.6903
76.4634
78.4402
80.6004
82.8713
85.3379
87.9409
90.8398
93.9239
97.4381
101.174
105.513
110.07
115.458
121.005
127.742
134.513
143.077
151.527
40.1786
43.7456
48.4312
54.612
62.1589
69.8674
76.196
80.1642
81.5809
80.9302
78.9306
76.3113
73.6607
71.4609
70.0778
69.7127
70.2023
71.1077
72.1051
73.2595
74.6914
76.4403
78.3993
80.5465
82.8075
85.265
87.8597
90.7496
93.8253
97.3303
101.058
105.387
109.936
115.314
120.853
127.578
134.339
142.887
151.322
162.737
174.251
191.391
209.559
237.096
265.19
304.532
339.752
387.481
425.287
486.426
551.08
678.104
1081.71
1133.05
1002.11
899.773
814.826
735.617
658.981
596.577
547.47
513.447
487.045
465.458
443.517
422.134
399.471
377.83
356.086
40.2293
43.8577
48.6118
54.8566
62.4488
70.1699
76.4735
80.3939
81.7596
81.0712
79.0534
76.4328
73.7892
71.593
70.1992
69.8097
70.277
71.1733
72.1627
73.2971
74.7012
76.4239
78.3634
80.4961
82.7464
85.1939
87.7798
90.6603
93.7273
97.2226
100.942
105.261
109.802
115.17
120.7
127.414
134.164
142.697
151.119
162.505
173.983
191.043
209.103
236.448
264.347
303.418
338.556
386.304
424.588
486.148
551.002
679.276
1086.84
1138.74
1008.68
907.809
823.688
744.799
667.458
604.113
554.02
519.559
493.21
472.022
450.614
429.672
407.329
385.817
364.079
343.557
323.306
304.073
285.027
266.678
248.518
230.983
213.896
197.644
182.295
168.162
155.405
144.223
134.768
127.026
120.97
116.253
112.643
109.608
107.025
104.441
102.073
99.5784
97.4163
95.2744
93.6233
92.4062
91.6958
92.6581
93.6742
40.2812
43.9725
48.7966
55.1067
62.7451
70.4797
76.7591
80.6325
81.9481
81.2233
79.189
76.5694
73.9355
71.7455
70.3431
69.929
70.371
71.2542
72.2331
73.3458
74.7201
76.4146
78.3327
80.4496
82.688
85.1248
87.7012
90.5717
93.6296
97.1149
100.825
105.135
109.666
115.025
120.546
127.249
133.99
142.508
150.916
162.275
173.718
190.698
208.651
235.8
263.501
302.292
337.338
385.089
423.85
485.844
550.907
680.394
1091.86
1144.46
1015.4
916.026
832.788
754.279
676.256
611.937
560.764
525.757
499.363
478.504
457.591
437.075
415.052
393.678
371.958
351.336
330.915
311.452
292.15
273.511
255.038
237.161
219.705
203.055
187.279
172.691
159.454
147.777
137.828
129.621
123.171
118.165
114.388
111.293
108.727
106.188
103.866
101.376
99.1955
96.9634
95.2248
93.8311
92.9942
93.713
94.6137
40.3344
44.0899
48.9855
55.3624
63.0482
70.7971
77.0531
80.8803
82.1469
81.387
79.338
76.7216
74.1003
71.9195
70.5106
70.072
70.4857
71.3519
72.3174
73.4064
74.749
76.4131
78.3079
80.4073
82.6326
85.0578
87.624
90.4839
93.5322
97.0071
100.708
105.008
109.531
114.879
120.392
127.083
133.815
142.318
150.714
162.046
173.455
190.356
208.201
235.153
262.653
301.155
336.099
383.834
423.07
485.51
550.791
681.455
1096.76
1150.22
1022.26
924.424
842.122
764.051
685.379
620.057
567.714
532.052
505.507
484.904
464.44
444.331
422.627
401.396
379.707
358.998
338.421
318.741
299.196
280.281
261.512
243.311
225.506
208.479
192.3
177.279
163.586
151.432
140.999
132.326
125.465
120.141
116.164
112.987
110.426
107.938
105.677
103.214
101.039
98.741
96.9315
95.3726
94.4133
94.8813
95.6573
40.3889
44.21
49.1788
55.6238
63.3581
71.1223
77.3557
81.1377
82.3565
81.5629
79.501
76.8902
74.2842
72.1156
70.7028
70.24
70.6228
71.4679
72.4168
73.4801
74.7889
76.4203
78.2895
80.3697
82.5807
84.9931
87.5483
90.3971
93.4352
96.8992
100.591
104.88
109.394
114.731
120.237
126.917
133.64
142.128
150.512
161.819
173.195
190.017
207.755
234.507
261.802
300.008
334.84
382.54
422.246
485.142
550.654
682.457
1101.55
1156.03
1029.27
933.002
851.683
774.112
694.828
628.484
574.886
538.457
511.652
491.224
471.161
451.435
430.045
408.962
387.312
366.528
345.809
325.923
306.15
286.973
267.923
249.414
231.281
213.897
197.336
181.908
167.781
155.17
144.267
135.13
127.845
122.178
117.97
114.682
112.111
109.672
107.484
105.072
102.926
100.589
98.7286
97.0217
95.9486
96.1638
96.8084
40.4448
44.333
49.3765
55.8912
63.6751
71.4555
77.6673
81.4051
82.5772
81.7515
79.6785
77.0758
74.488
72.3349
70.9209
70.4345
70.784
71.6038
72.5329
73.5682
74.8409
76.437
78.2783
80.3374
82.5325
84.9311
87.4745
90.3113
93.3388
96.7914
100.473
104.751
109.256
114.583
120.08
126.75
133.464
141.938
150.311
161.593
172.938
189.681
207.313
233.863
260.949
298.85
333.56
381.208
421.377
484.74
550.494
683.4
1106.21
1161.9
1036.44
941.76
861.468
784.454
704.604
637.227
582.294
544.987
517.808
497.47
477.752
458.383
437.298
416.366
394.765
373.914
353.066
332.987
312.998
293.573
274.259
255.459
237.015
219.295
202.374
186.559
172.02
158.974
147.618
138.024
130.308
124.274
119.804
116.374
113.771
111.376
109.268
106.927
104.833
102.485
100.598
98.7653
97.5915
97.5583
98.068
40.502
44.4589
49.5788
56.1646
63.9993
71.7971
77.9883
81.683
82.8096
81.9533
79.8713
77.2791
74.7125
72.5783
71.1659
70.6572
70.9712
71.7615
72.6672
73.672
74.9061
76.4644
78.2752
80.311
82.4886
84.8722
87.4028
90.2268
93.243
96.6836
100.355
104.622
109.118
114.434
119.923
126.581
133.288
141.748
150.111
161.368
172.683
189.349
206.874
233.221
260.096
297.685
332.263
379.839
420.463
484.299
550.311
684.283
1110.76
1167.83
1043.79
950.696
871.468
795.071
714.707
646.295
589.954
551.66
523.988
503.649
484.216
465.172
444.38
423.6
402.055
381.147
360.181
339.922
319.731
300.071
280.506
261.431
242.695
224.657
207.397
191.217
176.289
162.829
151.037
140.997
132.847
126.429
121.666
118.063
115.4
113.038
111.009
108.756
106.736
104.408
102.518
100.587
99.3296
99.0587
99.434
40.5607
44.5878
49.7858
56.4443
64.3309
72.1471
78.3188
81.9716
83.0543
82.169
80.0799
77.5008
74.9586
72.8466
71.4392
70.9095
71.1862
71.943
72.8214
73.793
74.9859
76.5034
78.2811
80.2913
82.4496
84.8167
87.3335
90.1438
93.148
96.576
100.237
104.492
108.978
114.284
119.765
126.412
133.111
141.558
149.912
161.145
172.431
189.02
206.44
232.582
259.243
296.513
330.949
378.434
419.503
483.82
550.105
685.106
1115.18
1173.84
1051.31
959.811
881.676
805.953
725.133
655.694
597.881
558.492
530.206
509.771
490.557
471.802
451.289
430.659
409.175
388.218
367.146
346.718
326.336
306.455
286.655
267.321
248.31
229.973
212.393
195.87
180.574
166.72
154.512
144.038
135.456
128.642
123.559
119.747
116.995
114.646
112.693
110.539
108.611
106.331
104.465
102.465
101.146
100.655
100.9
40.6209
44.7197
49.9975
56.7303
64.6702
72.5059
78.6592
82.2715
83.3116
82.399
80.3051
77.7417
75.2269
73.1408
71.7417
71.193
71.431
72.1503
72.9974
73.9327
75.0818
76.5554
78.2969
80.279
82.4161
84.7652
87.2669
90.0625
93.054
96.4687
100.118
104.361
108.838
114.133
119.605
126.242
132.934
141.367
149.713
160.923
172.182
188.694
206.01
231.946
258.391
295.335
329.62
376.996
418.497
483.299
549.876
685.867
1119.47
1179.93
1059.02
969.103
892.083
817.088
735.878
665.428
606.087
565.501
536.478
515.847
496.779
478.273
458.021
437.537
416.119
395.12
373.952
353.366
332.807
312.717
292.696
273.119
253.85
235.232
217.351
200.504
184.861
170.635
158.03
147.137
138.129
130.91
125.483
121.43
118.554
116.194
114.305
112.256
110.434
108.23
106.413
104.378
103.02
102.332
102.457
40.6826
44.8548
50.2143
57.0228
65.0172
72.8737
79.0099
82.583
83.5821
82.6442
80.5475
78.0024
75.5183
73.4617
72.0747
71.5092
71.7076
72.3855
73.1972
74.0931
75.1952
76.6218
78.3239
80.2751
82.3887
84.7181
87.2034
89.9833
92.9612
96.3619
99.9997
104.23
108.697
113.98
119.445
126.071
132.756
141.177
149.514
160.702
171.936
188.373
205.585
231.314
257.542
294.154
328.279
375.525
417.447
482.737
549.624
686.569
1123.64
1186.11
1066.92
978.57
902.68
828.463
746.933
675.499
614.586
572.704
542.821
521.889
502.891
484.589
464.575
444.23
422.881
401.846
380.592
359.859
339.134
318.848
298.621
278.816
259.305
240.424
222.261
205.108
189.139
174.561
161.578
150.283
140.858
133.231
127.441
123.115
120.079
117.68
115.836
113.892
112.185
110.079
108.336
106.298
104.928
104.071
104.089
40.7459
44.9932
50.436
57.3221
65.3722
73.2507
79.3711
82.9065
83.8664
82.9049
80.8078
78.2837
75.8335
73.8103
72.4392
71.8596
72.0181
72.651
73.423
74.276
75.328
76.704
78.3632
80.2806
82.3682
84.676
87.1435
89.9065
92.8699
96.2556
99.8811
104.098
108.555
113.827
119.284
125.898
132.577
140.985
149.316
160.483
171.692
188.055
205.165
230.688
256.697
292.971
326.926
374.024
416.353
482.131
549.349
687.21
1127.68
1192.38
1075.02
988.211
913.453
840.062
758.287
685.906
623.389
580.12
549.252
527.912
508.901
490.754
470.951
450.738
429.456
408.392
387.06
366.19
345.31
324.841
304.421
284.402
264.666
245.539
227.112
209.674
193.396
178.486
165.145
153.466
143.636
135.601
129.435
124.807
121.574
119.101
117.281
115.432
113.844
111.856
110.208
108.2
106.843
105.851
105.779
40.8109
45.135
50.663
57.6281
65.7353
73.6372
79.7432
83.2425
84.1649
83.1819
81.0866
78.5863
76.1734
74.1874
72.8364
72.2457
72.3643
72.949
73.677
74.4836
75.482
76.8037
78.4164
80.2965
82.3556
84.6396
87.0877
89.8323
92.7802
96.1502
99.7627
103.966
108.413
113.672
119.121
125.725
132.398
140.794
149.119
160.265
171.452
187.741
204.751
230.066
255.855
291.788
325.565
372.496
415.216
481.48
549.051
687.792
1131.6
1198.77
1083.33
998.021
924.393
851.868
769.927
696.647
632.504
587.764
555.791
533.931
514.819
496.773
477.152
457.057
435.842
414.752
393.35
372.352
351.33
330.69
310.089
289.872
269.926
250.57
231.896
214.19
197.624
182.401
168.721
156.676
146.455
138.017
131.464
126.51
123.045
120.463
118.635
116.868
115.397
113.54
112.003
110.057
108.739
107.647
107.504
40.8775
45.2802
50.8953
57.9412
66.1068
74.0334
80.1266
83.5915
84.4782
83.4757
81.3847
78.911
76.5387
74.594
73.2672
72.669
72.7484
73.2821
73.9616
74.7179
75.6591
76.9227
78.4848
80.3242
82.3518
84.6097
87.0364
89.7613
92.6924
96.0457
99.6445
103.833
108.269
113.516
118.957
125.55
132.218
140.602
148.922
160.048
171.214
187.432
204.342
229.451
255.019
290.605
324.198
370.944
414.037
480.785
548.729
688.314
1135.38
1205.26
1091.86
1008
935.484
863.862
781.836
707.715
641.94
595.654
562.456
539.963
520.658
502.655
483.181
463.189
442.037
420.924
399.458
378.342
357.186
336.386
315.619
295.218
275.078
255.509
236.606
218.649
201.812
186.295
172.296
159.903
149.306
140.473
133.53
128.228
124.498
121.769
119.901
118.195
116.831
115.113
113.701
111.844
110.588
109.433
109.241
40.946
45.429
51.133
58.2614
66.4869
74.4396
80.5214
83.9538
84.8069
83.787
81.7026
79.2584
76.9302
75.0307
73.7327
73.131
73.1724
73.6526
74.2795
74.9814
75.8617
77.063
78.5702
80.365
82.3578
84.587
86.9904
89.6939
92.607
95.9424
99.5266
103.7
108.125
113.359
118.792
125.375
132.037
140.409
148.726
159.833
170.979
187.126
203.94
228.842
254.189
289.426
322.826
369.37
412.819
480.043
548.386
688.78
1139.04
1211.87
1100.61
1018.14
946.715
876.023
793.998
719.099
651.699
603.806
569.267
546.028
526.433
508.409
489.043
469.137
448.04
426.905
405.38
384.154
362.874
341.926
321.005
300.434
280.115
260.348
241.233
223.043
205.953
190.16
175.861
163.138
152.182
142.965
135.63
129.967
125.943
123.027
121.082
119.41
118.138
116.56
115.281
113.537
112.364
111.183
110.962
41.0162
45.5814
51.3764
58.589
66.8757
74.856
80.9282
84.3299
85.1513
84.1164
82.0412
79.6293
77.3486
75.4985
74.2339
73.6328
73.6382
74.0631
74.6331
75.2767
76.092
77.2268
78.6745
80.4204
82.3749
84.5726
86.9504
89.6305
92.5242
95.8405
99.4093
103.567
107.98
113.201
118.626
125.197
131.855
140.216
148.529
159.618
170.747
186.825
203.544
228.24
253.367
288.252
321.453
367.778
411.564
479.255
548.021
689.189
1142.56
1218.61
1109.58
1028.45
958.071
888.331
806.39
730.787
661.784
612.232
576.244
552.145
532.159
514.046
494.744
474.902
453.853
432.694
411.115
389.785
368.391
347.304
326.241
305.513
285.031
265.083
245.771
227.364
210.038
193.988
179.406
166.373
155.074
145.486
137.764
131.729
127.384
124.247
122.186
120.516
119.315
117.871
116.728
115.114
114.043
112.869
112.642
41.0884
45.7377
51.6255
58.924
67.2734
75.2829
81.3472
84.7202
85.5122
84.4646
82.401
80.0244
77.7947
75.998
74.7717
74.1759
74.1477
74.516
75.0254
75.6063
76.3525
77.4162
78.7997
80.4921
82.4044
84.5674
86.917
89.5719
92.4445
95.7404
99.2928
103.433
107.834
113.042
118.459
125.019
131.672
140.022
148.333
159.405
170.518
186.529
203.155
227.646
252.553
287.084
320.081
366.172
410.275
478.423
547.635
689.543
1145.95
1225.47
1118.78
1038.91
969.537
900.763
818.991
742.762
672.195
620.944
583.407
558.334
537.853
519.579
500.294
480.492
459.476
438.293
416.661
395.234
373.732
352.517
331.324
310.452
289.82
269.706
250.213
231.607
214.062
197.771
182.923
169.598
157.974
148.031
139.929
133.516
128.831
125.437
123.221
121.518
120.361
119.039
118.029
116.56
115.603
114.469
114.255
41.1626
45.8978
51.8804
59.2667
67.6802
75.7205
81.7788
85.1252
85.8901
84.832
82.7827
80.4444
78.2691
76.5301
75.347
74.7614
74.7027
75.0139
75.4591
75.9732
76.646
77.6338
78.9479
80.582
82.4478
84.5725
86.8913
89.5186
92.3683
95.6423
99.1772
103.3
107.688
112.881
118.29
124.839
131.488
139.827
148.138
159.192
170.292
186.236
202.772
227.06
251.748
285.925
318.712
364.555
408.955
477.545
547.229
689.844
1149.22
1232.47
1128.21
1049.52
981.1
913.296
831.776
755.008
682.926
629.954
590.776
564.617
543.536
525.024
505.704
485.911
464.916
443.702
422.018
400.498
378.896
357.561
336.248
315.246
294.478
274.213
254.555
235.765
218.017
201.502
186.407
172.806
160.875
150.592
142.121
135.33
130.289
126.609
124.2
122.424
121.281
120.062
119.177
117.858
117.026
115.958
115.776
41.2387
46.0619
52.1414
59.6173
68.0964
76.169
82.2232
85.5453
86.2854
85.2195
83.187
80.89
78.7726
77.0955
75.9604
75.3905
75.305
75.5592
75.9371
76.3801
76.9752
77.8822
79.1215
80.692
82.5067
84.5894
86.8741
89.4713
92.2962
95.5467
99.0627
103.167
107.541
112.719
118.12
124.657
131.302
139.632
147.942
158.981
170.068
185.948
202.396
226.483
250.954
284.776
317.35
362.931
407.607
476.625
546.804
690.096
1152.35
1239.6
1137.89
1060.28
992.745
925.907
844.719
767.503
693.972
639.268
598.367
571.017
549.226
530.396
510.984
491.17
470.176
448.925
427.188
405.578
383.882
362.434
341.012
319.891
299.001
278.599
258.791
239.832
221.898
205.175
189.848
175.99
163.77
153.163
144.335
137.169
131.764
127.772
125.133
123.246
122.081
120.941
120.166
119
118.297
117.319
117.184
41.317
46.2302
52.4085
59.9758
68.522
76.6288
82.6809
85.981
86.6988
85.6275
83.6147
81.3618
79.3058
77.6949
76.6129
76.064
75.9561
76.1542
76.4621
76.8302
77.3431
78.1643
79.3231
80.8245
82.583
84.6194
86.8666
89.4309
92.2288
95.4539
98.9498
103.034
107.393
112.556
117.948
124.473
131.116
139.435
147.745
158.769
169.846
185.664
202.027
225.915
250.171
283.64
315.996
361.305
406.236
475.663
546.363
690.299
1155.35
1246.86
1147.8
1071.2
1004.46
938.571
857.792
780.223
705.321
648.891
606.199
577.555
554.946
535.715
516.15
496.277
475.264
453.967
432.173
410.475
388.688
367.136
345.614
324.384
303.384
282.859
262.917
243.805
225.698
208.783
193.241
179.142
166.651
155.737
146.567
139.034
133.258
128.934
126.034
123.994
122.771
121.681
120.998
119.978
119.406
118.535
118.46
41.3975
46.4027
52.682
60.3425
68.9574
77.1
83.1521
86.4326
87.1308
86.0568
84.0663
81.8606
79.8695
78.3287
77.305
76.783
76.6575
76.8011
77.037
77.3264
77.7527
78.483
79.5555
80.9818
82.6786
84.6641
86.8701
89.3984
92.1668
95.3644
98.8385
102.901
107.245
112.392
117.775
124.288
130.927
139.237
147.549
158.559
169.627
185.384
201.665
225.357
249.4
282.517
314.654
359.682
404.846
474.662
545.906
690.458
1158.22
1254.26
1157.94
1082.25
1016.23
951.267
870.968
793.143
716.96
658.825
614.287
584.253
560.719
541.001
521.218
501.247
480.189
458.834
436.978
415.192
393.317
371.665
350.051
328.724
307.626
286.991
266.928
247.677
229.414
212.322
196.581
182.257
169.511
158.308
148.811
140.921
134.774
130.104
126.913
124.684
123.364
122.29
121.674
120.791
120.344
119.594
119.588
41.4803
46.5796
52.9619
60.7175
69.4026
77.5829
83.6373
86.9008
87.5819
86.5078
84.5424
82.3869
80.4641
78.9978
78.0374
77.5481
77.4103
77.502
77.6646
77.8718
78.2073
78.8415
79.8216
81.1665
82.7958
84.7253
86.8858
89.3747
92.1109
95.2788
98.7295
102.769
107.097
112.227
117.6
124.101
130.737
139.037
147.352
158.348
169.41
185.109
201.31
224.809
248.642
281.41
313.327
358.065
403.443
473.626
545.436
690.575
1160.96
1261.8
1168.33
1093.44
1028.04
963.972
884.219
806.236
728.873
669.069
622.644
591.132
566.567
546.274
526.204
506.092
484.962
463.534
441.608
419.733
397.771
376.024
354.324
332.909
311.723
290.992
270.821
251.446
233.041
215.786
199.861
185.329
172.344
160.869
151.062
142.827
136.314
131.287
127.782
125.328
123.873
122.779
122.203
121.44
121.109
120.487
120.556
41.5654
46.761
53.2485
61.101
69.858
78.0777
84.1367
87.3858
88.0527
86.9813
85.0438
82.9415
81.0903
79.7025
78.8105
78.3599
78.2158
78.2587
78.3475
78.4696
78.71
79.243
80.1245
81.3815
82.937
84.805
86.9153
89.361
92.0619
95.1977
98.6229
102.638
106.949
112.06
117.424
123.912
130.545
138.836
147.153
158.138
169.195
184.837
200.962
224.27
247.898
280.321
312.017
356.459
402.031
472.559
544.956
690.655
1163.57
1269.47
1178.95
1104.77
1039.88
976.663
897.514
819.472
741.04
679.618
631.282
598.215
572.515
551.558
531.13
510.829
489.595
468.077
446.071
424.102
402.053
380.214
358.434
336.938
315.675
294.858
274.594
255.107
236.574
219.171
203.076
188.351
175.144
163.415
153.313
144.748
137.876
132.489
128.652
125.941
124.313
123.162
122.594
121.929
121.701
121.209
121.355
41.6529
46.947
53.5418
61.4932
70.3236
78.5848
84.6506
87.8881
88.5436
87.4779
85.571
83.5248
81.7487
80.4434
79.6248
79.2191
79.0748
79.0729
79.0881
79.1226
79.2641
79.691
80.4675
81.6297
83.1047
84.9053
86.9604
89.3587
92.0208
95.1217
98.5193
102.508
106.8
111.893
117.246
123.721
130.352
138.633
146.954
157.927
168.981
184.569
200.62
223.742
247.168
279.25
310.728
354.871
400.617
471.465
544.468
690.702
1166.06
1277.27
1189.8
1116.22
1051.73
989.319
910.826
832.822
753.44
690.465
640.208
605.52
578.587
556.876
536.016
515.475
494.104
472.475
450.376
428.308
406.168
384.239
362.383
340.812
319.481
298.59
278.243
258.658
240.011
222.474
206.223
191.319
177.905
165.938
155.56
146.681
139.46
133.713
129.532
126.536
124.7
123.452
122.86
122.267
122.124
121.758
121.982
41.743
47.1379
53.842
61.8943
70.7997
79.1043
85.1795
88.4082
89.0553
87.998
86.1247
84.1376
82.4398
81.2208
80.4806
80.1259
79.9879
79.946
79.8887
79.8338
79.8728
80.1887
80.8541
81.9144
83.3017
85.0285
87.0228
89.3692
91.9888
95.0516
98.4193
102.38
106.652
111.724
117.066
123.527
130.156
138.427
146.754
157.716
168.769
184.304
200.286
223.225
246.453
278.201
309.461
353.304
399.207
470.349
543.977
690.721
1168.41
1285.2
1200.88
1127.8
1063.6
1001.92
924.126
846.255
766.049
701.599
649.43
613.064
584.807
562.254
540.884
520.051
498.503
476.74
454.534
432.357
410.123
388.103
366.172
344.533
323.141
302.185
281.767
262.097
243.348
225.69
209.297
194.228
180.622
168.434
157.797
148.62
141.064
134.961
130.427
127.126
125.049
123.668
123.014
122.464
122.386
122.138
122.436
41.8358
47.3336
54.1493
62.3043
71.2865
79.6365
85.7237
88.9465
89.5883
88.5424
86.7055
84.7803
83.164
82.0352
81.3781
81.0806
80.9556
80.879
80.7513
80.6058
80.5394
80.7397
81.2877
82.239
83.5311
85.1772
87.1047
89.394
91.967
94.9883
98.3234
102.254
106.504
111.554
116.884
123.332
129.957
138.22
146.552
157.503
168.557
184.042
199.958
222.718
245.754
277.173
308.22
351.763
397.807
469.218
543.486
690.716
1170.65
1293.24
1212.18
1139.51
1075.46
1014.45
937.386
859.739
778.84
713.006
658.949
620.865
591.199
567.717
545.759
524.577
502.811
480.889
458.556
436.262
413.926
391.812
369.808
348.103
326.657
305.645
285.166
265.422
246.583
228.817
212.294
197.075
183.292
170.897
160.017
150.56
142.683
136.233
131.345
127.721
125.377
123.825
123.075
122.535
122.497
122.354
122.718
41.9312
47.5344
54.4639
62.7236
71.7842
80.1816
86.2834
89.5034
90.143
89.1115
87.3139
85.4535
83.9218
82.8869
82.3175
82.0831
81.9782
81.873
81.6775
81.4412
81.2668
81.3474
81.772
82.607
83.7962
85.3542
87.2083
89.435
91.9567
94.9329
98.2323
102.13
106.357
111.384
116.701
123.133
129.757
138.009
146.348
157.29
168.347
183.782
199.636
222.222
245.07
276.169
307.008
350.255
396.424
468.079
543.001
690.693
1172.76
1301.4
1223.69
1151.32
1087.32
1026.89
950.581
873.243
791.785
724.668
668.765
628.935
597.785
573.291
550.665
529.077
507.048
484.937
462.458
440.033
417.587
395.375
373.295
351.526
330.03
308.97
288.44
268.632
249.715
231.852
215.213
199.855
185.909
173.323
162.217
152.496
144.316
137.529
132.29
128.332
125.697
123.94
123.059
122.495
122.471
122.414
122.836
42.0295
47.7404
54.7858
63.1522
72.2929
80.7399
86.859
90.0794
90.72
89.706
87.9504
86.1577
84.7136
83.776
83.2989
83.1336
83.0557
82.9283
82.6689
82.3421
82.0579
82.0151
82.3105
83.022
84.1003
85.5625
87.3361
89.4942
91.9596
94.8863
98.1468
102.008
106.21
111.212
116.516
122.932
129.553
137.796
146.142
157.075
168.136
183.526
199.321
221.736
244.403
275.19
305.826
348.784
395.064
466.94
542.525
690.659
1174.75
1309.66
1235.4
1163.25
1099.16
1039.23
963.684
886.736
804.856
736.567
678.875
637.287
604.586
579.002
555.631
533.574
511.236
488.905
466.255
443.684
421.116
398.799
376.641
354.808
333.265
312.161
291.588
271.727
252.742
234.794
218.05
202.566
188.469
175.707
164.392
154.425
145.957
138.849
133.263
128.965
126.023
124.031
122.985
122.361
122.322
122.331
122.798
42.1308
47.9517
55.1153
63.5904
72.8128
81.3116
87.4508
90.6749
91.3198
90.3263
88.6157
86.8934
85.5397
84.7028
84.3222
84.2316
84.1879
84.0451
83.7263
83.3105
82.9153
82.7459
82.9069
83.4878
84.4469
85.8052
87.4908
89.5737
91.9771
94.8499
98.0677
101.891
106.065
111.04
116.33
122.729
129.347
137.58
145.934
156.858
167.925
183.271
199.011
221.261
243.753
274.238
304.678
347.354
393.737
465.808
542.066
690.62
1176.62
1318.02
1247.3
1175.29
1110.97
1051.45
976.673
900.188
818.022
748.68
689.272
645.928
611.624
584.875
560.681
538.095
515.397
492.812
469.965
447.23
424.528
402.097
379.853
357.954
336.365
315.222
294.612
274.706
255.664
237.641
220.803
205.206
190.971
178.047
166.537
156.342
147.604
140.189
134.267
129.629
126.365
124.113
122.872
122.152
122.068
122.118
122.616
42.2351
48.1686
55.4526
64.0383
73.3442
81.897
88.0592
91.2901
91.9428
90.973
89.3101
87.6609
86.4004
85.6674
85.3874
85.377
85.3744
85.2235
84.8504
84.3478
83.8412
83.543
83.5647
84.0082
84.8399
86.0858
87.6753
89.6759
92.0113
94.825
97.9961
101.777
105.922
110.868
116.142
122.522
129.137
137.36
145.722
156.638
167.713
183.017
198.706
220.797
243.12
273.312
303.565
345.972
392.448
464.693
541.629
690.582
1178.38
1326.45
1259.37
1187.42
1122.75
1063.54
989.525
913.569
831.251
760.982
699.945
654.863
618.915
590.936
565.843
542.666
519.558
496.681
473.609
450.69
427.836
405.28
382.942
360.973
339.336
318.157
297.515
277.571
258.48
240.393
223.472
207.772
193.412
180.338
168.65
158.242
149.253
141.548
135.303
130.327
126.735
124.202
122.737
121.888
121.728
121.792
122.304
42.3425
48.3912
55.7978
64.4961
73.8873
82.4963
88.6844
91.9257
92.5895
91.6466
90.0342
88.4606
87.2959
86.6698
86.4941
86.5691
86.6145
86.463
86.0415
85.4552
84.8378
84.4089
84.2871
84.5868
85.283
86.4079
87.8927
89.8034
92.064
94.8132
97.933
101.669
105.78
110.696
115.952
122.313
128.924
137.137
145.507
156.416
167.5
182.764
198.406
220.342
242.503
272.414
302.49
344.641
391.205
463.604
541.222
690.555
1180.02
1334.96
1271.61
1199.64
1134.5
1075.49
1002.22
926.851
844.513
773.449
710.882
664.095
626.476
597.208
571.146
547.315
523.743
500.536
477.208
454.081
431.057
408.362
385.919
363.873
342.185
320.97
300.3
280.325
261.193
243.05
226.056
210.263
195.79
182.58
170.726
160.123
150.9
142.923
136.369
131.063
127.141
124.31
122.598
121.587
121.322
121.371
121.879
42.4533
48.6196
56.151
64.964
74.4422
83.1097
89.3267
92.5819
93.2604
92.3474
90.7884
89.2929
88.2265
87.7099
87.642
87.8074
87.9075
87.7628
87.2993
86.6333
85.9064
85.346
85.0774
85.2273
85.78
86.7751
88.1464
89.9591
92.1377
94.8162
97.8796
101.566
105.641
110.523
115.76
122.101
128.708
136.909
145.289
156.19
167.286
182.511
198.11
219.897
241.904
271.545
301.455
343.367
390.015
462.552
540.853
690.546
1181.56
1343.52
1283.98
1211.94
1146.21
1087.29
1014.74
940.006
857.777
786.051
722.066
673.623
634.32
603.714
576.615
552.071
527.981
504.402
480.784
457.424
434.209
411.358
388.798
366.665
344.921
323.668
302.971
282.969
263.803
245.613
228.554
212.68
198.103
184.769
172.765
161.982
152.542
144.311
137.465
131.84
127.59
124.451
122.471
121.27
120.87
120.875
121.36
42.5675
48.8541
56.5125
65.4422
75.0091
83.7374
89.9865
93.2591
93.9558
93.0761
91.5731
90.158
89.1922
88.7876
88.8309
89.0912
89.2522
89.1221
88.6235
87.8824
87.0482
86.3563
85.9382
85.9332
86.3347
87.1913
88.4398
90.1458
92.2346
94.8359
97.8375
101.469
105.506
110.351
115.567
121.886
128.488
136.678
145.066
155.96
167.069
182.258
197.818
219.46
241.321
270.705
300.461
342.152
388.887
461.547
540.53
690.563
1183
1352.13
1296.48
1224.32
1157.88
1098.93
1027.07
953.01
871.012
798.76
733.48
683.442
642.458
610.474
582.278
556.962
532.299
508.307
484.363
460.743
437.313
414.287
391.593
369.361
347.552
326.258
305.534
285.509
266.314
248.083
230.968
215.021
200.352
186.905
174.763
163.816
154.177
145.71
138.589
132.66
128.086
124.635
122.373
120.954
120.393
120.324
120.766
42.6852
49.0947
56.8824
65.9308
75.5883
84.3797
90.664
93.9576
94.6763
93.8329
92.3887
91.0563
90.1931
89.9028
90.06
90.4195
90.6477
90.5394
90.013
89.2021
88.2638
87.4413
86.872
86.7077
86.951
87.6603
88.7766
90.3669
92.3576
94.8744
97.808
101.381
105.374
110.18
115.373
121.668
128.264
136.441
144.839
155.726
166.848
182.004
197.528
219.032
240.754
269.894
299.509
341.002
387.826
460.6
540.263
690.615
1184.34
1360.76
1309.08
1236.76
1169.5
1110.42
1039.19
965.839
884.189
811.547
745.102
693.545
650.896
617.507
588.161
562.016
536.727
512.278
487.97
464.061
440.389
417.167
394.32
371.975
350.09
328.748
307.996
287.948
268.728
250.463
233.3
217.289
202.536
188.988
176.721
165.624
155.802
147.118
139.741
133.521
128.635
124.87
122.316
120.658
119.912
119.741
120.119
42.8066
49.3418
57.261
66.4301
76.1798
85.0369
91.3595
94.6779
95.4221
94.6184
93.2354
91.9879
91.2292
91.0552
91.329
91.7914
92.0924
92.0134
91.4665
90.5919
89.5532
88.602
87.8809
87.5536
87.6322
88.1859
89.1605
90.6257
92.5093
94.934
97.793
101.301
105.247
110.01
115.178
121.446
128.036
136.2
144.607
155.487
166.624
181.748
197.24
218.612
240.203
269.112
298.602
339.92
386.841
459.723
540.06
690.714
1185.59
1369.4
1321.77
1249.25
1181.07
1121.74
1051.09
978.472
897.278
824.383
756.91
703.922
659.639
624.83
594.286
567.261
541.293
516.344
491.634
467.403
443.461
420.019
396.997
374.522
352.548
331.149
310.363
290.292
271.05
252.756
235.551
219.484
204.657
191.018
178.638
167.405
157.416
148.534
140.919
134.426
129.239
125.164
122.312
120.399
119.447
119.146
119.442
42.9319
49.5954
57.6483
66.9402
76.784
85.709
92.0733
95.4202
96.1937
95.4327
94.1136
92.9529
92.3004
92.2444
92.637
93.2059
93.585
93.5422
92.9825
92.0506
90.9162
89.8389
88.9662
88.4735
88.3817
88.772
89.5954
90.9259
92.693
95.0172
97.7943
101.232
105.125
109.842
114.982
121.222
127.803
135.953
144.369
155.242
166.396
181.489
196.954
218.199
239.667
268.36
297.739
338.909
385.937
458.926
539.933
690.868
1186.76
1378.03
1334.51
1261.78
1192.6
1132.9
1062.77
990.889
910.252
837.236
768.878
714.559
668.688
632.456
600.678
572.726
546.028
520.535
495.382
470.796
446.554
422.865
399.645
377.018
354.939
333.472
312.646
292.549
273.286
254.966
237.725
221.608
206.716
192.996
180.514
169.158
159.019
149.954
142.121
135.373
129.901
125.523
122.372
120.192
119.017
118.562
118.757
43.0612
49.8558
58.0446
67.4613
77.401
86.3964
92.8056
96.1849
96.9913
96.2763
95.0235
93.9515
93.4066
93.4701
93.9833
94.6617
95.1238
95.124
94.559
93.5766
92.3518
91.1519
90.1289
89.4693
89.2026
89.4221
90.085
91.271
92.9118
95.1266
97.8141
101.175
105.01
109.677
114.785
120.995
127.566
135.7
144.125
154.991
166.162
181.226
196.667
217.791
239.146
267.637
296.922
337.972
385.121
458.22
539.891
691.088
1187.85
1386.64
1347.28
1274.33
1204.06
1143.89
1074.21
1003.07
923.085
850.079
780.983
725.44
678.042
640.396
607.357
578.436
550.961
524.88
499.245
474.269
449.694
425.728
402.283
379.482
357.279
335.729
314.853
294.726
275.441
257.098
239.825
223.665
208.716
194.923
182.35
170.885
160.609
151.38
143.346
136.362
130.62
125.95
122.505
120.05
118.64
118.009
118.087
43.1946
50.1231
58.4501
67.9936
78.0309
87.0992
93.5567
96.9722
97.8153
97.1494
95.9653
94.9836
94.5475
94.7317
95.3672
96.1576
96.707
96.7567
96.1938
95.168
93.8586
92.5404
91.3694
90.5426
90.0972
90.1395
90.6332
91.6648
93.1692
95.2653
97.8545
101.131
104.903
109.515
114.588
120.764
127.325
135.442
143.875
154.733
165.923
180.959
196.38
217.389
238.638
266.942
296.15
337.111
384.398
457.618
539.946
691.385
1188.86
1395.21
1360.06
1286.9
1215.47
1154.71
1085.4
1015.01
935.753
862.881
793.196
736.548
687.695
648.657
614.341
584.417
556.12
529.411
503.251
477.85
452.908
428.635
404.935
381.934
359.584
337.935
316.996
296.832
277.522
259.157
241.856
225.659
210.659
196.803
184.15
172.586
162.188
152.81
144.593
137.392
131.398
126.45
122.718
119.985
118.331
117.509
117.455
43.3323
50.3977
58.8649
68.5373
78.6741
87.8177
94.3269
97.7823
98.666
98.0522
96.939
96.0492
95.723
96.0286
96.7875
97.6922
98.3329
98.4379
97.8844
96.8225
95.4347
94.0033
92.6874