/*--------------------------------*- C++ -*----------------------------------*\
| =========                 |                                                 |
| \\      /  F ield         | OpenFOAM: The Open Source CFD Toolbox           |
|  \\    /   O peration     | Version:  2412                                  |
|   \\  /    A nd           | Website:  www.openfoam.com                      |
|    \\/     M anipulation  |                                                 |
\*---------------------------------------------------------------------------*/
FoamFile
{
    version     2.0;
    format      ascii;
    arch        "LSB;label=32;scalar=64";
    class       volScalarField;
    location    "0.8";
    object      nut;
}
// * * * * * * * * * * * * * * * * * * * * * * * * * * * * * * * * * * * * * //

dimensions      [0 2 -1 0 0 0 0];

internalField   nonuniform List<scalar> 
13077
(
0.34744
0.36484
0.385825
0.408034
0.425916
0.433468
0.428126
0.411142
0.385942
0.356573
0.326589
0.2986
0.274405
0.255449
0.243096
0.238472
0.241792
0.251872
0.266371
0.282324
0.297079
0.309298
0.319073
0.327127
0.334205
0.340785
0.347052
0.353118
0.358816
0.364205
0.368948
0.373266
0.376667
0.379699
0.381673
0.383572
0.384299
0.385314
0.385202
0.34763
0.365225
0.386309
0.408455
0.426146
0.433465
0.42791
0.410767
0.385466
0.356037
0.326003
0.297936
0.273594
0.254382
0.241628
0.236445
0.23907
0.248381
0.262156
0.277592
0.292134
0.304394
0.314361
0.322664
0.330014
0.336864
0.343405
0.349732
0.355686
0.361302
0.366253
0.370732
0.374263
0.377363
0.379373
0.38124
0.381913
0.382799
0.38255
0.383403
0.383664
0.385353
0.38532
0.383372
0.376025
0.361357
0.340563
0.316398
0.299219
0.299658
0.319271
0.3584
0.421118
0.371883
0.271888
0.202508
0.161966
0.132832
0.114544
0.101131
0.0921313
0.0843193
0.0775794
0.0708994
0.0648133
0.0592072
0.0543157
0.0500497
0.0463931
0.347823
0.365615
0.386795
0.408874
0.426367
0.43345
0.42768
0.410376
0.384973
0.355486
0.325402
0.297257
0.272768
0.253299
0.240139
0.234387
0.236302
0.244824
0.257851
0.272737
0.28703
0.299304
0.309448
0.317996
0.325619
0.332744
0.339567
0.346164
0.352386
0.358242
0.363415
0.368067
0.371741
0.37492
0.376976
0.378817
0.379441
0.380201
0.379817
0.380439
0.380483
0.381852
0.381566
0.379258
0.371673
0.356657
0.33571
0.311234
0.293769
0.293458
0.312583
0.352465
0.417189
0.367344
0.267339
0.198827
0.159016
0.13042
0.112452
0.0993103
0.0905654
0.0830626
0.0766383
0.0702533
0.0644065
0.0589842
0.0542232
0.0500491
0.0464532
0.0433313
0.0406249
0.0382544
0.0361561
0.0342897
0.0326165
0.0311299
0.0298296
0.0287372
0.0278899
0.0273354
0.0271414
0.0273755
0.0281027
0.0293664
0.0311319
0.0333419
0.0358059
0.038453
0.0410829
0.043855
0.04662
0.0498339
0.0532012
0.057552
0.0621069
0.0684312
0.0745956
0.0838465
0.0904824
0.34802
0.36601
0.387285
0.40929
0.42658
0.433422
0.427434
0.409968
0.384463
0.354917
0.324785
0.296562
0.271926
0.252198
0.23863
0.232301
0.233494
0.241211
0.253467
0.267769
0.281777
0.294037
0.30434
0.313124
0.321019
0.328423
0.335534
0.34241
0.348912
0.355019
0.360429
0.365268
0.369098
0.372367
0.374479
0.376302
0.376883
0.37752
0.377003
0.377394
0.37722
0.378266
0.377727
0.375059
0.367241
0.351887
0.330804
0.306044
0.288317
0.28727
0.305873
0.346441
0.413134
0.362667
0.262741
0.195165
0.156112
0.128067
0.110415
0.0975334
0.0890265
0.0818181
0.0757002
0.0696059
0.0639983
0.0587607
0.0541328
0.0500529
0.0465204
0.0434419
0.0407618
0.0384064
0.0363121
0.0344404
0.0327498
0.0312337
0.0298873
0.0287299
0.0277921
0.0271171
0.0267652
0.0267999
0.0272865
0.0282762
0.0297572
0.0316935
0.0339224
0.0363672
0.0388272
0.0414147
0.0439811
0.0469179
0.0499726
0.0538839
0.0579891
0.0637
0.0693354
0.0778857
0.0842161
0.34822
0.366411
0.387777
0.409703
0.426784
0.433379
0.42717
0.40954
0.383933
0.354328
0.324148
0.295849
0.271066
0.251079
0.237102
0.230191
0.230652
0.23755
0.249012
0.262699
0.276386
0.288598
0.299041
0.308049
0.316214
0.323897
0.331302
0.338466
0.345258
0.35163
0.357289
0.36233
0.36633
0.369701
0.371879
0.373692
0.374236
0.374754
0.374107
0.374268
0.373877
0.374599
0.373805
0.370777
0.362729
0.34705
0.325848
0.300831
0.28287
0.281103
0.299154
0.340336
0.408956
0.357857
0.258106
0.191528
0.153257
0.125774
0.108437
0.0958037
0.0875175
0.0805872
0.0747648
0.0689559
0.0635863
0.0585342
0.0540414
0.0500578
0.0465911
0.0435584
0.040907
0.038569
0.0364817
0.0346078
0.0329045
0.0313647
0.0299801
0.0287679
0.0277532
0.0269751
0.026487
0.0263482
0.0266224
0.0273652
0.028583
0.0302594
0.0322595
0.0345075
0.0368058
0.0392266
0.0416194
0.0443154
0.0470963
0.0506146
0.0543091
0.0594444
0.064567
0.0724117
0.0783952
0.348424
0.366816
0.388272
0.410112
0.426976
0.433321
0.426887
0.409092
0.383382
0.35372
0.323492
0.295117
0.270189
0.249944
0.235557
0.228061
0.227782
0.233849
0.244499
0.25754
0.270866
0.282998
0.293555
0.302776
0.311204
0.319166
0.326868
0.334326
0.341419
0.348068
0.353992
0.359247
0.363432
0.366917
0.369173
0.370984
0.371499
0.371904
0.371131
0.371064
0.370455
0.370851
0.369802
0.366416
0.358143
0.342151
0.320847
0.295601
0.277431
0.274964
0.292434
0.334158
0.404655
0.352923
0.253442
0.187922
0.150456
0.123544
0.10652
0.0941244
0.086041
0.0793717
0.0738325
0.0683024
0.0631689
0.0583025
0.0539466
0.0500613
0.0466626
0.0436776
0.0410571
0.0387387
0.0366609
0.0347881
0.033076
0.0315175
0.0301015
0.0288432
0.0277633
0.026897
0.0262919
0.0260025
0.0260899
0.0266115
0.0275879
0.0290191
0.030798
0.032854
0.0349969
0.0372653
0.0395059
0.0419941
0.0445379
0.0477094
0.0510347
0.0556389
0.0602741
0.0674238
0.0730317
0.348632
0.367227
0.388768
0.410517
0.427157
0.433245
0.426583
0.408622
0.382809
0.353089
0.322815
0.294365
0.269293
0.248793
0.233997
0.225915
0.22489
0.230116
0.239937
0.252304
0.265231
0.277246
0.287891
0.297307
0.305991
0.314229
0.322231
0.329989
0.337392
0.344329
0.350531
0.356016
0.3604
0.364013
0.366359
0.368178
0.368672
0.368968
0.368074
0.36778
0.366956
0.367026
0.36572
0.361979
0.353487
0.337194
0.315806
0.290358
0.272006
0.268861
0.285725
0.327914
0.400233
0.347871
0.24876
0.184354
0.147712
0.12138
0.104666
0.0924983
0.0846
0.0781733
0.0729038
0.0676449
0.0627447
0.0580638
0.0538463
0.0500609
0.0467324
0.043797
0.0412095
0.0389125
0.0368468
0.0349776
0.0332603
0.0316875
0.030246
0.0289492
0.0278142
0.0268727
0.026167
0.0257471
0.0256708
0.0259954
0.0267516
0.0279533
0.0295193
0.0313878
0.0333799
0.0355071
0.0376131
0.0399224
0.0422627
0.0451321
0.0481302
0.0522519
0.0564321
0.062911
0.0681266
0.348843
0.367642
0.389266
0.410916
0.427326
0.433151
0.426258
0.408128
0.382212
0.352436
0.322116
0.293593
0.268378
0.247626
0.232424
0.223758
0.221985
0.226363
0.23534
0.247004
0.259495
0.271353
0.282057
0.291649
0.300577
0.309087
0.317389
0.325451
0.333172
0.340409
0.346903
0.352631
0.35723
0.360985
0.363434
0.365271
0.365753
0.365947
0.364936
0.36442
0.363381
0.363127
0.361565
0.35747
0.348764
0.332185
0.310728
0.285107
0.266601
0.262801
0.279037
0.321611
0.395692
0.342709
0.244069
0.180829
0.145028
0.119283
0.102878
0.0909277
0.0831971
0.0769942
0.0719795
0.0669832
0.0623129
0.0578167
0.0537387
0.0500547
0.0467983
0.0439142
0.0413618
0.0390882
0.0370365
0.0351734
0.0334541
0.0318709
0.030409
0.0290803
0.0278987
0.0268932
0.0261013
0.0255685
0.0253492
0.0254989
0.0260556
0.0270438
0.028406
0.0300918
0.0319362
0.0339305
0.0359159
0.0380712
0.0402381
0.0428468
0.0455586
0.0492483
0.0530109
0.0588541
0.0636723
0.349058
0.368062
0.389764
0.411308
0.42748
0.433037
0.42591
0.407611
0.381591
0.351758
0.321395
0.292799
0.267446
0.246444
0.230842
0.221594
0.219073
0.222599
0.23072
0.241655
0.253671
0.265334
0.276063
0.285809
0.294967
0.303742
0.312341
0.320711
0.328757
0.336303
0.343102
0.349089
0.353917
0.357829
0.360395
0.362262
0.362741
0.36284
0.361718
0.360984
0.359734
0.359155
0.357338
0.352893
0.343979
0.327127
0.305621
0.279854
0.261221
0.256792
0.272379
0.315258
0.391033
0.337447
0.239379
0.177351
0.142405
0.117254
0.101156
0.0894149
0.0818349
0.0758367
0.0710609
0.0663175
0.0618727
0.0575599
0.0536222
0.0500411
0.0468587
0.0440274
0.0415119
0.0392634
0.0372278
0.0353731
0.0336545
0.0320644
0.0305866
0.0292317
0.028011
0.026951
0.0260852
0.025455
0.025111
0.0251061
0.0254827
0.0262736
0.027442
0.02895
0.0306493
0.0325163
0.0343919
0.0364138
0.0384332
0.0408193
0.0432834
0.0465912
0.0499763
0.0552273
0.0596533
0.349277
0.368487
0.390263
0.411693
0.427619
0.432903
0.425538
0.407067
0.380944
0.351055
0.320649
0.291983
0.266494
0.245249
0.229252
0.219429
0.216163
0.218834
0.226089
0.236274
0.247778
0.259203
0.269922
0.279796
0.289167
0.298197
0.30709
0.315767
0.324143
0.332008
0.339125
0.345385
0.350459
0.354543
0.357239
0.359149
0.359635
0.359648
0.358422
0.357474
0.356015
0.355115
0.353044
0.348253
0.339137
0.322027
0.300487
0.274603
0.25587
0.25084
0.265761
0.308863
0.38626
0.332092
0.2347
0.173927
0.139846
0.115294
0.0995015
0.0879614
0.0805161
0.0747031
0.0701493
0.0656481
0.0614237
0.0572927
0.0534957
0.0500186
0.0469118
0.0441349
0.041658
0.0394363
0.0374188
0.0355744
0.0338591
0.0322652
0.0307753
0.0293992
0.028146
0.0270398
0.0261107
0.0253965
0.0249439
0.0248027
0.0250178
0.0256273
0.0266126
0.0279481
0.0295041
0.0312479
0.0330211
0.0349261
0.0368202
0.0390173
0.0412694
0.0442436
0.047292
0.0519999
0.0560476
0.3495
0.368915
0.390761
0.41207
0.427741
0.432747
0.42514
0.406497
0.380269
0.350326
0.319878
0.291146
0.265524
0.244042
0.227658
0.217267
0.213262
0.21508
0.221463
0.230876
0.241832
0.252977
0.263648
0.273621
0.283186
0.292457
0.301637
0.310619
0.31933
0.327521
0.334968
0.341515
0.346852
0.351122
0.353965
0.355929
0.356435
0.35637
0.355047
0.353891
0.352229
0.35101
0.348687
0.343555
0.334243
0.31689
0.295334
0.26936
0.250554
0.244953
0.259194
0.302435
0.381375
0.326655
0.23004
0.170558
0.137353
0.113401
0.097915
0.0865686
0.0792427
0.0735957
0.0692464
0.0649759
0.0609658
0.0570144
0.0533582
0.049986
0.0469564
0.0442353
0.0417987
0.0396054
0.0376076
0.0357755
0.0340658
0.0324707
0.0309724
0.0295794
0.0282992
0.0271541
0.026171
0.0253845
0.0248375
0.0245765
0.0246471
0.0250908
0.025904
0.027073
0.0284876
0.0301103
0.0317864
0.0335874
0.0353743
0.0374117
0.0394838
0.0421695
0.0449216
0.0491382
0.0528283
0.349727
0.369348
0.391259
0.412437
0.427846
0.432566
0.424715
0.405898
0.379566
0.349569
0.319082
0.290285
0.264536
0.242823
0.226063
0.215115
0.210379
0.211347
0.216855
0.225479
0.235852
0.246675
0.257257
0.267297
0.277031
0.286528
0.295986
0.30527
0.314316
0.322841
0.330628
0.337476
0.343092
0.347565
0.35057
0.352602
0.353139
0.353006
0.351595
0.350238
0.348377
0.346844
0.344272
0.338804
0.329303
0.311721
0.290167
0.264129
0.245277
0.239135
0.252685
0.295982
0.376382
0.321145
0.22541
0.167251
0.134925
0.111577
0.096396
0.0852372
0.0780169
0.0725171
0.068354
0.0643017
0.0604992
0.0567245
0.0532088
0.0499423
0.0469912
0.0443274
0.0419326
0.0397691
0.0377928
0.0359747
0.0342726
0.0326789
0.0311752
0.0297693
0.0284671
0.0272893
0.0262602
0.0254114
0.0247827
0.0244164
0.0243584
0.0246513
0.0253037
0.0263129
0.0275879
0.029091
0.0306728
0.0323794
0.0340736
0.0359761
0.0378963
0.040335
0.042829
0.046607
0.0499651
0.349958
0.369785
0.391755
0.412793
0.427931
0.432361
0.424262
0.405269
0.378834
0.348784
0.318259
0.289401
0.26353
0.241594
0.22447
0.212978
0.207522
0.207649
0.21228
0.2201
0.229859
0.240316
0.250767
0.260839
0.270716
0.28042
0.290142
0.299722
0.309103
0.317965
0.326103
0.333266
0.339175
0.343868
0.347052
0.349166
0.349748
0.349557
0.348068
0.346517
0.344462
0.34262
0.339802
0.334006
0.324322
0.306528
0.28499
0.258917
0.240044
0.233392
0.246245
0.289514
0.371284
0.315573
0.220817
0.164008
0.132563
0.109819
0.0949441
0.0839676
0.0768404
0.0714694
0.0674742
0.0636269
0.0600242
0.056423
0.053047
0.0498867
0.0470153
0.04441
0.0420586
0.0399264
0.0379729
0.0361705
0.034478
0.0328879
0.0313816
0.0299661
0.0286463
0.0274412
0.0263732
0.0254711
0.0247714
0.0243131
0.0241409
0.0242972
0.0248002
0.0256568
0.0267947
0.0281789
0.0296677
0.0312864
0.0328991
0.0346873
0.0364799
0.0387086
0.0409802
0.0443709
0.0474257
0.350192
0.370226
0.392248
0.413137
0.427996
0.432129
0.423778
0.404609
0.378071
0.347969
0.317408
0.288493
0.262507
0.240358
0.222881
0.210861
0.204699
0.203995
0.207753
0.214758
0.223872
0.233922
0.244197
0.254263
0.264254
0.274142
0.284113
0.293979
0.303692
0.312894
0.321392
0.32888
0.3351
0.340029
0.343408
0.34562
0.34626
0.346024
0.344465
0.34273
0.340489
0.338344
0.335283
0.329165
0.319306
0.301315
0.27981
0.253727
0.234859
0.22773
0.239881
0.283039
0.366086
0.309949
0.216272
0.160832
0.130269
0.108128
0.0935582
0.0827598
0.0757148
0.0704552
0.066609
0.0629527
0.0595415
0.0561098
0.0528723
0.0498186
0.047028
0.0444823
0.0421755
0.040076
0.0381469
0.0363616
0.0346806
0.0330962
0.0315898
0.0301678
0.0288341
0.0276066
0.0265057
0.0255579
0.024797
0.0242583
0.0239849
0.024018
0.0243832
0.0250948
0.0260987
0.0273643
0.0287602
0.0302952
0.0318345
0.0335252
0.0352106
0.0372619
0.0393434
0.0423956
0.045177
0.350431
0.37067
0.392738
0.413468
0.428039
0.431869
0.423263
0.403916
0.377275
0.347124
0.31653
0.287562
0.261466
0.239115
0.221301
0.20877
0.20192
0.200397
0.203287
0.209469
0.217912
0.227514
0.237569
0.247588
0.257658
0.267705
0.277907
0.288046
0.298085
0.307628
0.316492
0.324318
0.330864
0.336045
0.339637
0.341962
0.342676
0.342406
0.34079
0.338879
0.336459
0.334018
0.33072
0.324287
0.314261
0.296089
0.274633
0.248566
0.229728
0.222154
0.233602
0.276566
0.360791
0.304285
0.211781
0.157725
0.12804
0.1065
0.0922368
0.0816135
0.0746411
0.0694764
0.0657608
0.0622809
0.059052
0.0557852
0.0526847
0.0497375
0.0470284
0.0445435
0.0422826
0.040217
0.0383137
0.0365469
0.034879
0.0333022
0.031798
0.0303723
0.0290281
0.0277825
0.0266541
0.0256673
0.0248535
0.0242448
0.023882
0.0238046
0.024043
0.0246179
0.0254912
0.0266389
0.0279412
0.0293947
0.0308661
0.0324725
0.0340675
0.0359695
0.0378897
0.0406485
0.0431865
0.350673
0.371116
0.393223
0.413785
0.428057
0.431579
0.422715
0.40319
0.376446
0.346247
0.315623
0.286607
0.26041
0.237867
0.219732
0.20671
0.199192
0.196867
0.198898
0.204253
0.212001
0.221114
0.230904
0.240834
0.250948
0.261125
0.271534
0.281931
0.292288
0.30217
0.311404
0.319579
0.326464
0.331914
0.335736
0.338192
0.338995
0.338705
0.337043
0.334967
0.332376
0.329647
0.326118
0.319379
0.309193
0.290857
0.269465
0.243439
0.224653
0.216669
0.227415
0.270105
0.355406
0.29859
0.207353
0.154691
0.125878
0.104936
0.0909783
0.0805279
0.0736201
0.0685352
0.0649318
0.0616132
0.0585566
0.0554496
0.052484
0.049643
0.0470162
0.044593
0.0423792
0.0403487
0.0384723
0.0367255
0.0350723
0.0335048
0.0320049
0.0305779
0.0292264
0.0279663
0.026815
0.0257953
0.024936
0.0242663
0.0238247
0.0236484
0.023771
0.0242176
0.0249647
0.0259954
0.0272029
0.0285757
0.0299824
0.0315144
0.0330327
0.0348094
0.0365933
0.0390996
0.0414233
0.350919
0.371566
0.393704
0.414086
0.428051
0.431258
0.422133
0.402428
0.375583
0.345337
0.314687
0.285628
0.259337
0.236617
0.218178
0.204687
0.196523
0.193416
0.1946
0.199126
0.20616
0.214748
0.224226
0.234022
0.244141
0.254416
0.265006
0.275643
0.286306
0.296522
0.30613
0.314661
0.321899
0.327635
0.331706
0.334309
0.335216
0.334921
0.333226
0.330997
0.328245
0.325236
0.321481
0.314446
0.304109
0.285625
0.264311
0.23835
0.219639
0.211278
0.221327
0.263665
0.349934
0.292877
0.202995
0.15173
0.123781
0.103431
0.0897807
0.0795019
0.0726523
0.0676333
0.0641242
0.0609517
0.0580567
0.0551038
0.0522706
0.0495351
0.0469909
0.0446303
0.0424646
0.0404704
0.0386221
0.0368966
0.0352594
0.0337028
0.0322092
0.0307832
0.029427
0.0281558
0.0269859
0.0259383
0.0250401
0.0243174
0.0238067
0.0235421
0.0235594
0.0238863
0.0245122
0.0254273
0.0265389
0.0278304
0.0291739
0.0306387
0.0320909
0.0337621
0.0354313
0.0377219
0.0398582
0.35117
0.372017
0.394178
0.414369
0.428018
0.430903
0.421515
0.401629
0.374684
0.344394
0.313722
0.284625
0.258251
0.235366
0.216642
0.202705
0.193921
0.190053
0.190406
0.194107
0.200409
0.208438
0.217559
0.227176
0.237258
0.247595
0.258339
0.269193
0.280145
0.290689
0.30067
0.309564
0.317169
0.323206
0.327544
0.330312
0.331341
0.331056
0.329341
0.326971
0.324068
0.32079
0.316817
0.309495
0.299014
0.280399
0.259179
0.233305
0.214691
0.205985
0.215346
0.257255
0.344382
0.287157
0.198713
0.148845
0.121748
0.101985
0.0886416
0.078534
0.0717377
0.0667723
0.0633405
0.0602984
0.0575538
0.0547486
0.0520447
0.0494138
0.0469524
0.044655
0.0425384
0.0405814
0.0387624
0.0370592
0.0354395
0.0338954
0.0324098
0.0309868
0.0296284
0.0283491
0.0271642
0.0260934
0.0251619
0.0243935
0.0238221
0.0234791
0.0234009
0.0236168
0.024127
0.0249287
0.0259434
0.0271524
0.0284328
0.029835
0.0312291
0.0328112
0.034384
0.036491
0.0384649
0.351424
0.37247
0.394645
0.414633
0.427956
0.430514
0.420859
0.400793
0.373748
0.343417
0.312727
0.283599
0.257151
0.234116
0.215127
0.20077
0.191392
0.186789
0.186329
0.189211
0.19477
0.202208
0.210928
0.22032
0.230321
0.240683
0.251547
0.262592
0.273816
0.284676
0.295028
0.30429
0.312273
0.318627
0.323249
0.3262
0.327369
0.32711
0.32539
0.322892
0.319849
0.316314
0.312129
0.304532
0.293917
0.275187
0.254073
0.22831
0.209812
0.200795
0.209477
0.250884
0.338756
0.281439
0.194514
0.146036
0.119779
0.100596
0.0875586
0.0776222
0.0708759
0.0659534
0.0625827
0.0596556
0.0570495
0.0543851
0.0518069
0.0492793
0.0469006
0.0446669
0.0426001
0.0406813
0.0388927
0.037213
0.0356119
0.0340817
0.0326057
0.0311876
0.0298293
0.0285446
0.0273479
0.026258
0.0252983
0.0244904
0.0238661
0.0234535
0.0232891
0.0234028
0.0238033
0.0244942
0.0254115
0.0265365
0.0277527
0.0290952
0.0304367
0.0319427
0.0334342
0.0353856
0.0372196
0.351681
0.372924
0.395103
0.414877
0.427863
0.430088
0.420164
0.399917
0.372775
0.342406
0.311701
0.28255
0.256038
0.232869
0.213637
0.198887
0.188944
0.183633
0.182381
0.184454
0.189262
0.196081
0.204359
0.213479
0.223354
0.233699
0.244648
0.255856
0.267329
0.278491
0.289208
0.298841
0.307211
0.313896
0.318821
0.321974
0.323301
0.323084
0.321375
0.318763
0.315593
0.311811
0.307424
0.299563
0.288823
0.269994
0.249
0.223369
0.205007
0.19571
0.203726
0.244561
0.333062
0.275736
0.190403
0.143305
0.117871
0.0992596
0.0865291
0.0767646
0.0700664
0.0651776
0.061853
0.0590254
0.0565456
0.0540145
0.0515579
0.0491319
0.0468355
0.0446659
0.0426496
0.0407699
0.0390124
0.0373572
0.0357759
0.0342609
0.032796
0.0313847
0.0300285
0.0287407
0.0275353
0.0264298
0.0254465
0.0246047
0.0239342
0.0234601
0.0232184
0.0232382
0.0235355
0.024119
0.0249388
0.0259783
0.0271285
0.0284123
0.0297049
0.031145
0.0325677
0.0343873
0.0361012
0.351943
0.373379
0.395551
0.415099
0.427739
0.429625
0.419429
0.399001
0.371763
0.341359
0.310645
0.281479
0.254915
0.231628
0.212175
0.197058
0.186582
0.180592
0.178572
0.17985
0.183903
0.19008
0.197877
0.206679
0.21638
0.226667
0.237662
0.248999
0.260696
0.272142
0.283216
0.29322
0.301985
0.309015
0.314259
0.317633
0.319136
0.31898
0.317297
0.314588
0.311302
0.307287
0.302707
0.294594
0.283738
0.264829
0.243966
0.218487
0.200278
0.190733
0.198098
0.238295
0.327305
0.270056
0.186384
0.140652
0.116024
0.0979747
0.0855503
0.0759588
0.0693082
0.0644457
0.0611534
0.0584103
0.0560441
0.0536382
0.0512986
0.0489722
0.0467574
0.044652
0.0426867
0.0408467
0.0391212
0.0374914
0.0359311
0.0344324
0.0329801
0.031577
0.0302249
0.0289363
0.0277247
0.0266069
0.0256038
0.0247332
0.0240226
0.0234944
0.0231834
0.0231176
0.0233182
0.0237984
0.0245216
0.0254741
0.026556
0.027781
0.0290265
0.0304084
0.0317721
0.0334802
0.0350913
0.352208
0.373833
0.395988
0.415296
0.42758
0.429121
0.418651
0.398044
0.370712
0.340276
0.309559
0.280385
0.253782
0.230394
0.210742
0.195288
0.184312
0.177675
0.174914
0.175413
0.178712
0.184227
0.191506
0.199946
0.209427
0.219609
0.230609
0.24204
0.253931
0.26564
0.277058
0.28743
0.296597
0.303983
0.309564
0.313177
0.314876
0.314798
0.313159
0.310368
0.306981
0.302746
0.297983
0.289633
0.27867
0.259697
0.238977
0.21367
0.195629
0.185867
0.192598
0.232094
0.321494
0.264412
0.182462
0.138078
0.114236
0.0967385
0.0846196
0.0752024
0.0686
0.0637578
0.0604855
0.0578124
0.0555471
0.0532578
0.0510301
0.0488007
0.0466666
0.0446253
0.0427113
0.0409116
0.0392189
0.0376154
0.0360769
0.0345958
0.0331573
0.031764
0.0304176
0.0291302
0.0279149
0.0267876
0.0257684
0.0248732
0.024128
0.0235524
0.0231796
0.0230359
0.0231467
0.0235283
0.0241561
0.0250207
0.026032
0.0271969
0.028396
0.029725
0.0310374
0.0326508
0.0341741
0.352476
0.374287
0.396413
0.415468
0.427385
0.428576
0.41783
0.397043
0.36962
0.339157
0.308443
0.279271
0.25264
0.229169
0.209342
0.193581
0.182137
0.174887
0.171413
0.171154
0.173703
0.178543
0.185272
0.193305
0.20252
0.212551
0.223512
0.234998
0.24705
0.258998
0.270744
0.281477
0.291048
0.298802
0.304736
0.308607
0.310522
0.310542
0.308963
0.306107
0.302633
0.298194
0.293258
0.284684
0.273624
0.254605
0.234039
0.208922
0.191065
0.181114
0.187231
0.225968
0.315635
0.258811
0.178641
0.135582
0.112506
0.0955488
0.083734
0.0744928
0.0679403
0.0631142
0.0598508
0.057234
0.0550567
0.0528751
0.0507535
0.0486184
0.0465635
0.044586
0.0427235
0.0409646
0.0393053
0.0377288
0.0362131
0.0347505
0.033327
0.0319449
0.0306057
0.0293215
0.0281045
0.0269705
0.0259382
0.0250225
0.0242475
0.0236304
0.0232028
0.0229888
0.0230165
0.0233045
0.0238392
0.0246153
0.0255538
0.0266568
0.0278089
0.0290885
0.0303553
0.0318879
0.0333362
0.352748
0.374739
0.396824
0.415612
0.427153
0.427988
0.416965
0.395999
0.368488
0.338002
0.307298
0.278136
0.251492
0.227955
0.207978
0.191938
0.180062
0.172234
0.168078
0.167083
0.168892
0.173046
0.179196
0.186784
0.195684
0.205519
0.216394
0.227894
0.24007
0.252227
0.264282
0.275369
0.285344
0.293475
0.299777
0.303923
0.306074
0.306211
0.304711
0.301808
0.298263
0.293635
0.288539
0.279754
0.268608
0.249559
0.229158
0.204248
0.186588
0.176477
0.181999
0.219923
0.309736
0.253263
0.174923
0.133165
0.110832
0.0944031
0.0828907
0.0738272
0.0673272
0.0625145
0.0592508
0.0566772
0.0545751
0.0524918
0.0504703
0.048426
0.0464489
0.0445345
0.0427235
0.0410058
0.0393802
0.0378315
0.0363392
0.0348961
0.0334887
0.032119
0.0307887
0.0295092
0.0282927
0.0271542
0.0261117
0.025179
0.0243786
0.0237254
0.0232493
0.022972
0.0229234
0.0231233
0.0235676
0.0242554
0.0251192
0.0261581
0.0272617
0.0284939
0.0297191
0.031182
0.0325661
0.353024
0.375188
0.397219
0.415726
0.42688
0.427354
0.416052
0.39491
0.367314
0.33681
0.306123
0.276982
0.250338
0.226754
0.20665
0.190363
0.178089
0.169719
0.164914
0.163209
0.16429
0.167754
0.173301
0.180406
0.188948
0.198538
0.209281
0.22075
0.23301
0.245345
0.257684
0.269111
0.279489
0.288003
0.294687
0.299127
0.301533
0.301807
0.300406
0.297475
0.293874
0.289073
0.283828
0.274849
0.263627
0.244565
0.22434
0.199653
0.182202
0.171958
0.176907
0.213968
0.303803
0.247777
0.17131
0.130825
0.109213
0.093299
0.082087
0.073203
0.0667588
0.061958
0.0586864
0.0561439
0.0541045
0.0521099
0.0501819
0.0482248
0.0463233
0.0444714
0.0427116
0.0410351
0.0394438
0.0379232
0.0364552
0.0350323
0.0336421
0.032286
0.0309659
0.0296927
0.0284784
0.0273375
0.0262876
0.025341
0.0245191
0.0238347
0.0233158
0.0229819
0.0228635
0.022981
0.0233385
0.0239389
0.0247263
0.0256988
0.026752
0.0279374
0.0291235
0.0305256
0.0318544
0.353302
0.375635
0.397596
0.415809
0.426566
0.426674
0.415093
0.393775
0.366098
0.335582
0.304919
0.275809
0.24918
0.225569
0.205362
0.188857
0.17622
0.167345
0.161926
0.159539
0.159908
0.162681
0.167607
0.174196
0.182335
0.191635
0.202197
0.21359
0.22589
0.238368
0.250964
0.262714
0.273489
0.282391
0.289469
0.294221
0.296901
0.297333
0.296049
0.293109
0.28947
0.284514
0.279133
0.269975
0.258688
0.239631
0.219589
0.195142
0.177909
0.167558
0.171956
0.20811
0.297845
0.24236
0.167804
0.128563
0.107647
0.0922345
0.0813202
0.0726174
0.066233
0.0614439
0.0581582
0.0556361
0.0536472
0.0517315
0.04989
0.0480159
0.0461878
0.0443971
0.0426881
0.0410529
0.039496
0.0380041
0.0365608
0.0351589
0.0337867
0.0324454
0.0311367
0.0298713
0.0286609
0.0275197
0.0264644
0.0255069
0.0246671
0.0239558
0.0233995
0.023015
0.0228334
0.0228743
0.0231488
0.0236634
0.0243736
0.0252775
0.0262778
0.027416
0.0285644
0.0299125
0.0311933
0.353583
0.376077
0.397955
0.415858
0.426208
0.425945
0.414084
0.392593
0.364839
0.334317
0.303686
0.274619
0.248019
0.2244
0.204114
0.187422
0.174458
0.165115
0.159116
0.156077
0.155755
0.157841
0.162132
0.168175
0.175873
0.184836
0.19517
0.206438
0.218733
0.231313
0.244135
0.256189
0.267351
0.276643
0.284126
0.289205
0.292179
0.29279
0.291644
0.288715
0.285054
0.279961
0.274458
0.265138
0.253797
0.234761
0.214912
0.190719
0.173714
0.163279
0.167149
0.202357
0.29187
0.23702
0.164405
0.126378
0.106133
0.0912073
0.0805877
0.0720676
0.0657475
0.0609711
0.0576668
0.0551553
0.0532052
0.0513586
0.0495964
0.0478008
0.0460432
0.0443125
0.0426536
0.0410595
0.0395371
0.038074
0.036656
0.0352758
0.0339224
0.0325968
0.0313008
0.0300444
0.0288395
0.0276997
0.0266413
0.0256754
0.0248208
0.0240867
0.0234978
0.0230686
0.0228296
0.0227998
0.0229958
0.0234269
0.0240595
0.024893
0.0258379
0.0269278
0.0280388
0.0293378
0.0305765
0.353866
0.376513
0.398293
0.415871
0.425805
0.425167
0.413025
0.391364
0.363538
0.333016
0.302426
0.273414
0.246858
0.223249
0.202909
0.186059
0.172801
0.163027
0.156486
0.152826
0.151835
0.153244
0.156892
0.162365
0.169583
0.178167
0.188223
0.199319
0.211562
0.224201
0.237213
0.249546
0.261083
0.270764
0.27866
0.284082
0.28737
0.28818
0.287192
0.284294
0.28063
0.275419
0.269808
0.260342
0.248958
0.229961
0.210314
0.186388
0.169618
0.159123
0.162489
0.196714
0.285886
0.231764
0.161116
0.124269
0.104669
0.0902156
0.079887
0.0715509
0.0652998
0.0605383
0.0572123
0.054703
0.0527807
0.0509935
0.0493028
0.0475808
0.0458908
0.0442183
0.0426087
0.0410553
0.0395673
0.0381333
0.0367408
0.0353828
0.034049
0.03274
0.0314576
0.0302116
0.0290136
0.0278768
0.0268173
0.0258454
0.0249788
0.0242256
0.0236084
0.0231398
0.0228494
0.0227548
0.022877
0.0232273
0.0237829
0.0245444
0.0254315
0.0264712
0.0275443
0.0287978
0.0299991
0.354152
0.376944
0.398609
0.415847
0.425354
0.424336
0.411914
0.390087
0.362194
0.33168
0.30114
0.272193
0.245697
0.222118
0.201747
0.184767
0.17125
0.161083
0.154035
0.149787
0.148153
0.148899
0.151899
0.156783
0.16349
0.171653
0.181385
0.192259
0.204399
0.217053
0.230217
0.2428
0.254695
0.264761
0.273075
0.278854
0.282474
0.283504
0.282695
0.27985
0.276201
0.270891
0.265188
0.255594
0.244178
0.225237
0.205798
0.182153
0.165626
0.15509
0.157976
0.191189
0.279899
0.226598
0.157934
0.122234
0.103255
0.0892573
0.0792156
0.0710647
0.0648877
0.0601437
0.0567945
0.0542803
0.0523757
0.0506381
0.0490112
0.0473577
0.0457317
0.0441155
0.042554
0.0410408
0.0395869
0.038182
0.0368152
0.0354798
0.0341662
0.0328746
0.0316069
0.0303724
0.0291827
0.0280505
0.0269916
0.0260158
0.02514
0.0243708
0.0237295
0.0232262
0.0228899
0.0227363
0.0227896
0.0230628
0.0235423
0.0242309
0.025058
0.0260455
0.0270797
0.0282898
0.0294572
0.35444
0.377367
0.398899
0.415782
0.424853
0.423452
0.410752
0.388761
0.360808
0.330307
0.299828
0.270959
0.244539
0.221008
0.200628
0.183546
0.169804
0.15928
0.151762
0.146961
0.144711
0.14481
0.147165
0.151446
0.157613
0.165317
0.17468
0.185283
0.197271
0.209892
0.223163
0.235965
0.248197
0.258641
0.267377
0.273526
0.277495
0.278766
0.278156
0.275385
0.271771
0.266382
0.260601
0.250897
0.239462
0.220593
0.201371
0.178018
0.161738
0.151183
0.153612
0.185788
0.27392
0.221527
0.154859
0.120273
0.101887
0.0883309
0.0785713
0.0706065
0.0645086
0.0597858
0.056413
0.0538882
0.0519919
0.0502947
0.0487236
0.047133
0.0455674
0.0440053
0.0424904
0.0410167
0.0395965
0.0382205
0.0368795
0.035567
0.034274
0.0330005
0.0317484
0.0305265
0.0293462
0.0282201
0.0271635
0.0261858
0.0253031
0.024521
0.0238592
0.0233259
0.0229488
0.0227417
0.0227314
0.0229312
0.0233365
0.0239519
0.0247171
0.0256503
0.0266439
0.027812
0.0289481
0.35473
0.377781
0.399163
0.415675
0.4243
0.422514
0.409535
0.387386
0.359378
0.3289
0.298491
0.269714
0.243384
0.21992
0.199554
0.182397
0.16846
0.157616
0.149665
0.144345
0.141509
0.140981
0.142697
0.146366
0.151971
0.159183
0.168133
0.178418
0.190201
0.202739
0.216073
0.229058
0.241602
0.252411
0.261571
0.268099
0.272435
0.273966
0.273577
0.270903
0.267342
0.261895
0.256052
0.246257
0.234815
0.216035
0.197036
0.173986
0.157959
0.147401
0.149397
0.180515
0.267955
0.216555
0.151891
0.118384
0.100566
0.0874346
0.0779521
0.0701738
0.06416
0.0594625
0.0560672
0.0535272
0.0516311
0.0499652
0.048442
0.0469086
0.0453993
0.0438888
0.0424189
0.0409836
0.0395965
0.0382492
0.0369339
0.0356444
0.0343725
0.0331177
0.0318818
0.0306736
0.0295039
0.0283851
0.0273324
0.0263546
0.0254673
0.0246749
0.0239961
0.023437
0.0230239
0.0227688
0.0226999
0.0228307
0.0231642
0.0237067
0.0244086
0.0252854
0.0262368
0.0273632
0.0284699
0.35502
0.378184
0.399398
0.415523
0.423694
0.421518
0.408265
0.385962
0.357906
0.327459
0.29713
0.268457
0.242233
0.218855
0.198524
0.181318
0.167218
0.156087
0.147739
0.141935
0.138544
0.137413
0.138501
0.141556
0.146579
0.153269
0.161768
0.171689
0.183216
0.19562
0.208968
0.222095
0.234921
0.246082
0.255662
0.262579
0.267296
0.269109
0.268961
0.266404
0.262919
0.257434
0.251545
0.241677
0.23024
0.211566
0.192797
0.170061
0.154289
0.143745
0.145333
0.175376
0.262012
0.211686
0.149028
0.116565
0.0992906
0.086567
0.0773559
0.0697642
0.0638396
0.059172
0.055756
0.0531978
0.0512945
0.0496517
0.0481685
0.0466863
0.045229
0.0437672
0.0423405
0.0409424
0.0395876
0.0382685
0.0369787
0.0357122
0.0344615
0.033226
0.0320072
0.0308134
0.0296554
0.0285453
0.0274978
0.0265216
0.0256317
0.0248317
0.0241388
0.0235578
0.0231133
0.0228153
0.0226929
0.0227592
0.0230238
0.0234947
0.0241325
0.024951
0.0258584
0.0269429
0.0280214
0.355312
0.378576
0.399603
0.415324
0.423031
0.420465
0.406939
0.384487
0.356392
0.325985
0.295747
0.267191
0.241089
0.217814
0.197538
0.180307
0.166073
0.15469
0.14598
0.139726
0.135813
0.134104
0.13458
0.137021
0.141451
0.147594
0.155605
0.165119
0.17634
0.188559
0.201868
0.215095
0.228171
0.239664
0.249659
0.25697
0.262082
0.264195
0.264309
0.261893
0.258502
0.253001
0.247083
0.237161
0.225743
0.20719
0.188657
0.166245
0.150731
0.140217
0.141418
0.170375
0.256101
0.206924
0.146267