/*--------------------------------*- C++ -*----------------------------------*\
| =========                 |                                                 |
| \\      /  F ield         | OpenFOAM: The Open Source CFD Toolbox           |
|  \\    /   O peration     | Version:  2412                                  |
|   \\  /    A nd           | Website:  www.openfoam.com                      |
|    \\/     M anipulation  |                                                 |
\*---------------------------------------------------------------------------*/
FoamFile
{
    version     2.0;
    format      ascii;
    arch        "LSB;label=32;scalar=64";
    class       volScalarField;
    location    "0.8";
    object      p;
}
// * * * * * * * * * * * * * * * * * * * * * * * * * * * * * * * * * * * * * //

dimensions      [0 2 -2 0 0 0 0];

internalField   nonuniform List<scalar> 
13077
(
106596
106425
106314
106051
105882
105586
105361
105049
104793
104491
104244
103971
103748
103494
103284
103020
102797
102482
102213
101812
101496
101002
100649
100041
99658.5
98898.7
98495.7
97529.5
97122.2
95868.1
95489.1
93826.6
93533.3
91281.6
91174.1
88057.9
88305.1
83897.1
84781.8
106615
106442
106330
106064
105894
105596
105369
105055
104798
104495
104247
103973
103750
103495
103286
103022
102800
102486
102217
101818
101501
101008
100655
100047
99664.9
98906.3
98502.5
97538
97129.5
95877.7
95496.9
93837.6
93541.7
91294.5
91183.2
88073.3
88315.2
83915.7
84793.1
78432.3
80410.1
71017
74878.4
60757.8
67915.6
46460.1
59506.9
26465.3
49570.5
-3461.13
35405.6
-55773.7
10779
-155318
-14637
-76109.4
2878.48
-33911.2
15733.9
-6891.93
24331.2
10983.9
31069.5
24046.5
37462.6
34367.9
43499.2
42624
48948.9
106634
106459
106346
106078
105906
105606
105378
105062
104803
104499
104250
103976
103752
103497
103287
103024
102803
102490
102222
101823
101506
101014
100661
100054
99671.3
98913.9
98509.4
97546.5
97136.8
95887.3
95504.7
93848.7
93550.1
91307.5
91192.4
88088.8
88325.4
83934.4
84804.6
78455.2
80423.1
71045.1
74892.8
60791.1
67931.2
46498.9
59526.7
26513.1
49604
-3400.27
35462.5
-55754.3
10783.3
-155838
-14786.2
-76131.7
2857.94
-33898.2
15728.4
-6878.93
24328.7
10997.9
31071.3
24061.1
37466.8
34380.8
43504
42635
48953.8
49290.1
53761.4
54691.1
57921.3
59079.7
61467.9
62661.2
64472
65607.1
67010.4
68048.6
69155.1
70094.7
70980
71842.7
72558.1
73374.3
73943.9
74742.7
75160.5
75974.9
76209.1
77093.1
77082.5
78136.4
77764.4
79178.8
78211.6
80373
78320.7
106654
106476
106363
106091
105918
105616
105386
105069
104809
104504
104254
103978
103754
103499
103289
103027
102806
102494
102226
101828
101512
101020
100667
100061
99677.8
98921.6
98516.3
97555.1
97144.2
95897.1
95512.7
93859.8
93558.6
91320.5
91201.7
88104.3
88335.6
83953.2
84816.1
78478.3
80436.3
71073.3
74907.4
60824.7
67947.2
46538.3
59546.9
26561.3
49637.6
-3339.66
35519.4
-55734.4
10788.3
-156362
-14936.1
-76153.2
2837.67
-33885.2
15722.8
-6865.98
24326.2
11011.9
31073.3
24075.8
37471
34393.8
43508.8
42646
48958.7
49299
53765.7
54697.9
57924.7
59084.7
61470.4
62664.7
64473.9
65609.7
67012.1
68050.8
69156.9
70096.6
70982
71844.5
72560.3
73375.6
73946
74743.2
75162.5
75974.4
76211.2
77091.4
77085.1
78133.2
77768
79173.6
78217.4
80365.5
78329
106674
106493
106379
106104
105930
105626
105395
105076
104815
104508
104257
103981
103756
103501
103291
103029
102808
102498
102231
101834
101517
101026
100673
100068
99684.3
98929.4
98523.4
97563.8
97151.7
95906.9
95520.7
93871.1
93567.3
91333.6
91211
88119.9
88345.9
83972.1
84827.7
78501.5
80449.5
71101.7
74922.3
60858.6
67963.5
46578
59567.4
26609.7
49671.1
-3279.31
35576.3
-55713.9
10793.9
-156891
-15086.7
-76173.9
2817.71
-33872
15717.3
-6853.04
24323.7
11026
31075.3
24090.6
37475.3
34406.9
43513.8
42657
48963.7
49308
53770.1
54704.7
57928.1
59089.6
61472.9
62668.2
64475.9
65612.4
67013.9
68053
69158.8
70098.7
70984.2
71846.4
72562.6
73377
73948.2
74743.8
75164.6
75974
76213.4
77089.9
77087.8
78130.2
77771.9
79168.6
78223.5
80358.3
78337.6
106694
106510
106395
106117
105942
105636
105403
105083
104820
104513
104261
103984
103758
103502
103292
103031
102811
102501
102235
101839
101523
101032
100679
100075
99691
98937.3
98530.5
97572.7
97159.4
95916.9
95528.8
93882.5
93576
91346.9
91220.5
88135.7
88356.4
83991.2
84839.5
78524.9
80462.8
71130.3
74937.3
60892.8
67980.1
46618.1
59588.2
26658.2
49704.7
-3219.11
35633.2
-55692.6
10800.2
-157423
-15238
-76193.7
2798.07
-33858.5
15711.9
-6839.99
24321.3
11040.1
31077.4
24105.5
37479.7
34420.1
43518.7
42668.1
48968.7
49317
53774.5
54711.6
57931.5
59094.6
61475.5
62671.8
64477.9
65615.1
67015.7
68055.2
69160.8
70100.9
70986.4
71848.4
72565
73378.6
73950.6
74744.6
75166.8
75973.8
76215.7
77088.5
77090.6
78127.3
77775.9
79163.9
78229.7
80351.4
78346.4
106714
106527
106412
106131
105955
105646
105412
105090
104826
104517
104264
103986
103760
103504
103294
103033
102814
102505
102239
101844
101528
101039
100685
100082
99697.7
98945.2
98537.8
97581.6
97167.1
95927
95537.1
93894
93584.8
91360.3
91230
88151.5
88366.9
84010.3
84851.3
78548.4
80476.3
71159
74952.5
60927.2
67997
46658.5
59609.2
26706.9
49738.2
-3159.07
35690.2
-55670.7
10807.3
-157959
-15390
-76212.8
2778.78
-33844.7
15706.6
-6826.8
24319.1
11054.4
31079.6
24120.5
37484.1
34433.3
43523.7
42679.2
48973.8
49326
53778.9
54718.5
57935
59099.6
61478.1
62675.4
64479.9
65617.8
67017.5
68057.6
69162.8
70103.1
70988.7
71850.4
72567.5
73380.3
73953
74745.4
75169.1
75973.6
76218.1
77087.2
77093.5
78124.7
77780.1
79159.4
78236.1
80344.7
78355.6
106734
106545
106428
106144
105967
105656
105421
105097
104832
104522
104268
103989
103762
103506
103296
103035
102816
102509
102244
101850
101534
101045
100691
100089
99704.5
98953.3
98545.1
97590.6
97174.9
95937.1
95545.4
93905.6
93593.7
91373.7
91239.7
88167.5
88377.5
84029.6
84863.2
78572
80489.9
71188
74967.9
60961.9
68014
46699.1
59630.4
26755.6
49771.7
-3099.24
35747.2
-55648
10815.1
-158500
-15542.5
-76230.9
2759.84
-33830.7
15701.6
-6813.48
24316.9
11068.8
31081.8
24135.5
37488.5
34446.5
43528.7
42690.3
48978.9
49335
53783.4
54725.4
57938.5
59104.6
61480.7
62679
64482
65620.6
67019.4
68059.9
69164.9
70105.3
70991.1
71852.6
72570.1
73382
73955.5
74746.4
75171.4
75973.6
76220.6
77086
77096.6
78122.1
77784.4
79155.1
78242.7
80338.3
78365
106754
106563
106445
106158
105979
105666
105430
105104
104838
104526
104271
103992
103764
103508
103297
103037
102819
102512
102248
101855
101539
101051
100698
100097
99711.4
98961.5
98552.5
97599.8
97182.9
95947.4
95553.9
93917.4
93602.8
91387.3
91249.4
88183.6
88388.2
84049.1
84875.3
78595.8
80503.7
71217.1
74983.4
60996.8
68031.3
46740
59651.8
26804.5
49805.2
-3039.65
35804.1
-55624.7
10823.6
-159044
-15695.7
-76248.1
2741.26
-33816.4
15696.8
-6800.03
24314.9
11083.2
31084.2
24150.6
37493
34459.7
43533.8
42701.5
48984
49344.1
53787.9
54732.4
57942
59109.7
61483.3
62682.6
64484.1
65623.3
67021.4
68062.3
69167
70107.7
70993.5
71854.8
72572.7
73383.8
73958.1
74747.5
75173.9
75973.7
76223.2
77085
77099.7
78119.8
77788.7
79151
78249.4
80332.1
78374.7
106775
106580
106462
106171
105992
105676
105438
105112
104844
104531
104275
103995
103766
103510
103299
103039
102821
102516
102252
101860
101545
101058
100704
100104
99718.4
98969.7
98560.1
97609
97191
95957.9
95562.5
93929.2
93611.9
91401.1
91259.3
88199.8
88399.1
84068.6
84887.4
78619.7
80517.5
71246.4
74999.1
61031.9
68048.8
46781.1
59673.3
26853.4
49838.5
-2980.34
35860.9
-55600.8
10832.9
-159592
-15849.3
-76264.5
2723.04
-33801.9
15692.2
-6786.43
24313
11097.8
31086.6
24165.7
37497.5
34473
43538.8
42712.6
48989.1
49353.1
53792.4
54739.3
57945.5
59114.7
61486
62686.3
64486.3
65626.2
67023.4
68064.8
69169.2
70110
70996
71857.1
72575.4
73385.7
73960.8
74748.6
75176.4
75973.8
76225.8
77084
77102.9
78117.5
77793.2
79147.1
78256.2
80326
78384.6
106796
106598
106479
106185
106004
105687
105447
105119
104849
104536
104278
103997
103768
103512
103301
103041
102824
102519
102256
101865
101550
101064
100710
100111
99725.4
98978
98567.7
97618.4
97199.1
95968.4
95571.2
93941.2
93621.2
91414.9
91269.3
88216.1
88410
84088.2
84899.7
78643.7
80531.5
71275.9
75014.9
61067.3
68066.4
46822.5
59695
26902.5
49871.8
-2921.32
35917.5
-55576.4
10842.8
-160144
-16003.5
-76279.9
2705.19
-33787
15687.8
-6772.68
24311.3
11112.4
31089.1
24180.9
37502.1
34486.3
43543.9
42723.8
48994.3
49362.2
53796.9
54746.2
57949.1
59119.8
61488.7
62690
64488.4
65629
67025.4
68067.3
69171.4
70112.4
70998.6
71859.5
72578.2
73387.7
73963.5
74749.8
75179
75974
76228.4
77083.1
77106.1
78115.3
77797.7
79143.2
78263.2
80320.2
78394.7
106817
106616
106496
106199
106017
105697
105456
105126
104855
104541
104282
104000
103771
103513
103303
103043
102826
102522
102260
101870
101556
101070
100717
100119
99732.5
98986.4
98575.4
97627.9
97207.4
95979.1
95580
93953.3
93630.5
91428.8
91279.3
88232.6
88421
84108
84912
78667.9
80545.5
71305.5
75030.9
61102.9
68084.3
46864.1
59716.8
26951.5
49904.9
-2862.64
35974
-55551.5
10853.4
-160700
-16158.1
-76294.3
2687.71
-33771.9
15683.6
-6758.77
24309.7
11127.2
31091.7
24196.1
37506.7
34499.6
43549.1
42735
48999.4
49371.3
53801.5
54753.2
57952.7
59124.9
61491.5
62693.7
64490.6
65631.9
67027.4
68069.8
69173.6
70114.9
71001.2
71861.8
72581
73389.7
73966.3
74751.1
75181.6
75974.3
76231.2
77082.3
77109.4
78113.2
77802.4
79139.6
78270.2
80314.5
78405
106838
106634
106513
106213
106030
105707
105465
105134
104861
104545
104286
104003
103773
103515
103304
103045
102828
102526
102264
101875
101561
101077
100723
100126
99739.7
98994.9
98583.3
97637.4
97215.8
95989.8
95588.9
93965.5
93640
91442.9
91289.5
88249.1
88432.1
84127.9
84924.4
78692.1
80559.7
71335.3
75047
61138.7
68102.4
46906
59738.8
27000.6
49937.9
-2804.31
36030.1
-55526.2
10864.6
-161261
-16313.2
-76307.8
2670.6
-33756.5
15679.6
-6744.72
24308.2
11142.1
31094.4
24211.4
37511.4
34513
43554.2
42746.2
49004.6
49380.4
53806.1
54760.2
57956.3
59129.9
61494.2
62697.4
64492.8
65634.7
67029.5
68072.3
69175.9
70117.4
71003.8
71864.3
72583.8
73391.8
73969.1
74752.4
75184.3
75974.6
76233.9
77081.5
77112.7
78111.2
77807
79136
78277.4
80308.9
78415.4
106860
106652
106531
106227
106042
105718
105474
105141
104867
104550
104289
104006
103775
103517
103306
103047
102831
102529
102268
101880
101566
101083
100729
100134
99746.9
99003.4
98591.2
97647.1
97224.3
96000.7
95598
93977.9
93649.6
91457.1
91299.8
88265.8
88443.3
84147.9
84937
78716.5
80574
71365.2
75063.3
61174.6
68120.6
46948
59760.8
27049.7
49970.8
-2746.37
36086
-55500.5
10876.5
-161825
-16468.6
-76320.3
2653.87
-33740.9
15675.9
-6730.51
24306.9
11157
31097.1
24226.8
37516.1
34526.3
43559.4
42757.4
49009.8
49389.5
53810.7
54767.2
57960
59135.1
61497
62701.1
64495.1
65637.6
67031.6
68074.8
69178.2
70119.9
71006.4
71866.7
72586.7
73393.9
73971.9
74753.8
75187
75975
76236.7
77080.9
77116.1
78109.3
77811.7
79132.5
78284.6
80303.4
78426
106881
106671
106548
106241
106055
105728
105483
105148
104873
104555
104293
104009
103777
103519
103308
103049
102833
102532
102272
101885
101572
101089
100736
100141
99754.1
99012
98599.1
97656.8
97232.9
96011.7
95607.2
93990.3
93659.4
91471.4
91310.2
88282.6
88454.6
84168
84949.6
78741.1
80588.4
71395.3
75079.7
61210.8
68139
46990.2
59783
27098.8
50003.5
-2688.82
36141.5
-55474.4
10889
-162394
-16624.4
-76331.8
2637.52
-33725
15672.3
-6716.14
24305.8
11172.1
31100
24242.2
37520.8
34539.7
43564.6
42768.6
49015.1
49398.6
53815.3
54774.1
57963.6
59140.2
61499.8
62704.8
64497.3
65640.5
67033.8
68077.4
69180.5
70122.4
71009.1
71869.2
72589.6
73396.1
73974.8
74755.2
75189.8
75975.5
76239.5
77080.2
77119.5
78107.5
77816.4
79129.1
78291.8
80298
78436.8
106903
106689
106566
106255
106068
105739
105492
105156
104879
104560
104297
104012
103780
103521
103309
103051
102835
102535
102276
101890
101577
101096
100742
100148
99761.4
99020.7
98607.2
97666.7
97241.6
96022.8
95616.4
94002.9
93669.2
91485.9
91320.7
88299.5
88466
84188.3
84962.3
78765.7
80602.8
71425.4
75096.2
61247.1
68157.5
47032.6
59805.3
27148
50036
-2631.7
36196.6
-55448.1
10902
-162967
-16780.5
-76342.2
2621.54
-33708.8
15669
-6701.61
24304.8
11187.3
31103
24257.6
37525.6
34553.2
43569.8
42779.8
49020.3
49407.7
53819.9
54781.1
57967.3
59145.3
61502.6
62708.5
64499.6
65643.5
67035.9
68080
69182.9
70125
71011.8
71871.8
72592.5
73398.3
73977.7
74756.7
75192.5
75976
76242.3
77079.6
77122.9
78105.7
77821.2
79125.8
78299.1
80292.7
78447.7
106925
106708
106584
106269
106081
105749
105501
105163
104886
104565
104301
104015
103782
103523
103311
103053
102837
102538
102279
101895
101582
101102
100748
100156
99768.7
99029.3
98615.3
97676.6
97250.5
96034
95625.9
94015.6
93679.2
91500.5
91331.3
88316.6
88477.5
84208.6
84975.1
78790.4
80617.4
71455.7
75112.8
61283.6
68176.2
47075.2
59827.7
27197
50068.3
-2575.02
36251.4
-55421.5
10915.5
-163544
-16936.9
-76351.6
2605.93
-33692.3
15665.9
-6686.93
24304
11202.5
31106.1
24273.2
37530.4
34566.6
43575
42791.1
49025.6
49416.8
53824.6
54788.1
57971
59150.4
61505.4
62712.3
64501.9
65646.4
67038.1
68082.6
69185.3
70127.6
71014.5
71874.3
72595.5
73400.5
73980.7
74758.2
75195.3
75976.5
76245.2
77079.1
77126.3
78103.9
77825.9
79122.5
78306.4
80287.4
78458.6
106948
106727
106602
106283
106094
105760
105510
105171
104892
104570
104305
104018
103784
103525
103313
103055
102839
102541
102283
101899
101587
101108
100755
100163
99776
99038
98623.4
97686.5
97259.3
96045.4
95635.4
94028.5
93689.3
91515.1
91342
88333.7
88489.1
84229
84987.9
78815.2
80632
71486.1
75129.5
61320.2
68195
47117.9
59850.1
27246.1
50100.4
-2518.8
36305.6
-55394.8
10929.6
-164126
-17093.5
-76360
2590.69
-33675.6
15663
-6672.09
24303.4
11217.9
31109.2
24288.7
37535.2
34580.1
43580.3
42802.3
49030.9
49425.9
53829.2
54795.1
57974.7
59155.5
61508.3
62716.1
64504.2
65649.4
67040.3
68085.3
69187.7
70130.2
71017.3
71876.9
72598.5
73402.8
73983.7
74759.7
75198.2
75977.1
76248.1
77078.6
77129.7
78102.2
77830.7
79119.3
78313.7
80282.2
78469.6
106970
106746
106620
106298
106107
105770
105520
105178
104898
104575
104309
104021
103787
103527
103314
103057
102841
102544
102286
101904
101592
101114
100761
100171
99783.3
99046.8
98631.6
97696.6
97268.3
96056.8
95645
94041.4
93699.5
91530
91352.9
88351
88500.8
84249.6
85000.9
78840.2
80646.7
71516.7
75146.2
61357
68213.9
47160.7
59872.6
27295.1
50132.3
-2463.05
36359.4
-55368
10944.1
-164711
-17250.3
-76367.3
2575.82
-33658.7
15660.4
-6657.09
24303
11233.4
31112.5
24304.4
37540.2
34593.5
43585.5
42813.6
49036.2
49435
53833.9
54802.1
57978.4
59160.7
61511.1
62719.8
64506.5
65652.4
67042.5
68087.9
69190.2
70132.8
71020.1
71879.5
72601.5
73405.1
73986.7
74761.3
75201
75977.8
76250.9
77078.1
77133.1
78100.6
77835.5
79116.2
78321.1
80277.1
78480.7
106993
106765
106638
106312
106120
105781
105529
105186
104904
104580
104313
104025
103789
103529
103316
103059
102843
102546
102290
101908
101597
101120
100767
100178
99790.5
99055.5
98639.9
97706.7
97277.4
96068.3
95654.7
94054.5
93709.8
91544.9
91363.8
88368.3
88512.6
84270.2
85013.9
78865.2
80661.4
71547.3
75163.1
61393.9
68232.9
47203.7
59895.1
27344
50163.9
-2407.78
36412.7
-55341.1
10959.1
-165301
-17407.4
-76373.5
2561.32
-33641.5
15657.9
-6641.94
24302.7
11249
31115.9
24320
37545.1
34607.1
43590.8
42824.8
49041.5
49444.2
53838.6
54809.2
57982.2
59165.8
61514
62723.6
64508.9
65655.3
67044.7
68090.6
69192.6
70135.5
71022.9
71882.1
72604.5
73407.4
73989.7
74763
75203.8
75978.4
76253.8
77077.7
77136.5
78098.9
77840.2
79113.1
78328.4
80271.9
78491.9
107016
106784
106656
106327
106133
105792
105538
105194
104910
104585
104316
104028
103791
103531
103318
103060
102845
102549
102293
101913
101602
101126
100773
100186
99797.8
99064.2
98648.1
97716.8
97286.5
96079.9
95664.6
94067.7
93720.2
91559.9
91374.8
88385.8
88524.5
84291
85027
78890.3
80676.2
71577.9
75180
61430.9
68252
47246.7
59917.6
27392.9
50195.3
-2353.01
36465.4
-55314.2
10974.4
-165896
-17564.6
-76378.6
2547.19
-33624.1
15655.7
-6626.64
24302.6
11264.7
31119.4
24335.8
37550.2
34620.6
43596.2
42836.1
49046.8
49453.3
53843.3
54816.2
57985.9
59171
61516.9
62727.4
64511.3
65658.3
67047
68093.3
69195.1
70138.2
71025.7
71884.8
72607.6
73409.7
73992.7
74764.6
75206.7
75979.1
76256.7
77077.3
77140
78097.4
77845
79110.1
78335.8
80266.8
78503.1
107039
106803
106675
106341
106147
105803
105547
105201
104917
104590
104321
104031
103794
103533
103320
103062
102847
102551
102296
101917
101607
101132
100779
100193
99805
99072.9
98656.4
97727
97295.7
96091.5
95674.5
94080.9
93730.7
91575.1
91386
88403.4
88536.5
84311.8
85040.2
78915.5
80691.1
71608.7
75197
61467.9
68271.2
47289.9
59940.2
27441.6
50226.5
-2298.74
36517.5
-55287.3
10990.1
-166494
-17722
-76382.5
2533.42
-33606.4
15653.7
-6611.2
24302.6
11280.5
31123
24351.6
37555.2
34634.1
43601.5
42847.4
49052.2
49462.4
53848.1
54823.2
57989.7
59176.1
61519.8
62731.2
64513.6
65661.4
67049.2
68096
69197.6
70140.9
71028.5
71887.5
72610.6
73412.1
73995.7
74766.3
75209.6
75979.8
76259.6
77077
77143.4
78095.8
77849.7
79107.1
78343.1
80261.6
78514.3
107063
106823
106694
106356
106160
105814
105557
105209
104923
104595
104325
104034
103796
103536
103321
103064
102849
102554
102299
101921
101611
101138
100785
100200
99812.2
99081.6
98664.6
97737.2
97304.9
96103.3
95684.5
94094.3
93741.4
91590.4
91397.3
88421.1
88548.6
84332.8
85053.5
78940.8
80706
71639.5
75214.1
61505.1
68290.5
47333.1
59962.7
27490.3
50257.4
-2244.98
36569.1
-55260.6
11006.1
-167098
-17879.5
-76385.4
2520.01
-33588.5
15651.9
-6595.61
24302.9
11296.4
31126.8
24367.4
37560.4
34647.7
43606.9
42858.7
49057.5
49471.5
53852.8
54830.2
57993.5
59181.3
61522.7
62735
64516
65664.4
67051.5
68098.7
69200.1
70143.6
71031.4
71890.2
72613.7
73414.5
73998.8
74768
75212.5
75980.6
76262.5
77076.7
77146.8
78094.3
77854.5
79104.1
78350.4
80256.5
78525.5
107086
106843
106712
106371
106173
105825
105566
105217
104930
104601
104329
104038
103799
103538
103323
103066
102850
102556
102302
101925
101616
101143
100791
100207
99819.2
99090.2
98672.9
97747.3
97314.1
96115.1
95694.6
94107.8
93752.2
91605.8
91408.7
88438.9
88560.7
84353.8
85066.8
78966.1
80721
71670.5
75231.2
61542.4
68309.8
47376.4
59985.2
27538.9
50288
-2191.74
36620
-55234
11022.4
-167705
-18037.1
-76387.2
2506.95
-33570.4
15650.3
-6579.87
24303.3
11312.4
31130.6
24383.4
37565.6
34661.3
43612.3
42869.9
49062.9
49480.7
53857.6
54837.2
57997.3
59186.4
61525.6
62738.7
64518.4
65667.4
67053.8
68101.5
69202.6
70146.3
71034.3
71892.9
72616.8
73416.9
74001.9
74769.7
75215.4
75981.4
76265.4
77076.4
77150.1
78092.9
77859.2
79101.2
78357.7
80251.4
78536.7
107110
106862
106731
106386
106187
105836
105576
105225
104936
104606
104333
104041
103802
103540
103325
103067
102852
102558
102304
101928
101620
101149
100797
100214
99826.3
99098.8
98681.1
97757.5
97323.4
96126.9
95704.8
94121.4
93763
91621.3
91420.1
88456.8
88573
84374.9
85080.2
78991.5
80736
71701.4
75248.3
61579.7
68329.2
47419.8
60007.8
27587.3
50318.3
-2139.03
36670.4
-55207.6
11039
-168317
-18194.9
-76387.7
2494.26
-33552.1
15648.9
-6564.01
24303.9
11328.5
31134.6
24399.3
37570.9
34674.9
43617.8
42881.3
49068.3
49489.8
53862.3
54844.3
58001.1
59191.6
61528.5
62742.5
64520.8
65670.4
67056.1
68104.2
69205.2
70149.1
71037.2
71895.6
72619.9
73419.3
74005
74771.5
75218.3
75982.2
76268.3
77076.1
77153.5
78091.4
77863.8
79098.3
78365
80246.3
78548
107135
106882
106750
106401
106200
105847
105585
105233
104943
104611
104337
104044
103804
103542
103327
103069
102854
102560
102307
101932
101624
101154
100802
100221
99833.2
99107.3
98689.3
97767.7
97332.7
96138.8
95715
94135
93774
91636.9
91431.7
88474.9
88585.3
84396.1
85093.6
79017
80751
71732.4
75265.4
61617.1
68348.5
47463.2
60030.2
27635.6
50348.4
-2086.83
36720
-55181.4
11055.7
-168934
-18352.8
-76387.2
2481.91
-33533.5
15647.6
-6548
24304.6
11344.7
31138.7
24415.4
37576.2
34688.6
43623.3
42892.6
49073.8
49499
53867.1
54851.3
58004.9
59196.8
61531.5
62746.4
64523.3
65673.5
67058.5
68107
69207.8
70151.8
71040.1
71898.4
72623
73421.8
74008.1
74773.3
75221.2
75983.1
76271.2
77075.9
77156.9
78090
77868.5
79095.5
78372.2
80241.2
78559.2
107159
106902
106770
106416
106214
105858
105595
105241
104949
104617
104341
104048
103807
103544
103328
103071
102855
102563
102309
101936
101628
101159
100808
100228
99840
99115.7
98697.4
97777.8
97342
96150.6
95725.3
94148.7
93785
91652.6
91443.4
88493
88597.7
84417.4
85107.1
79042.5
80766.1
71763.4
75282.6
61654.5
68368
47506.6
60052.6
27683.7
50378.1
-2035.17
36769.1
-55155.6
11072.5
-169555
-18510.8
-76385.4
2469.92
-33514.8
15646.6
-6531.87
24305.5
11361
31142.9
24431.4
37581.6
34702.3
43628.8
42903.9
49079.2
49508.1
53871.9
54858.3
58008.7
59201.9
61534.4
62750.2
64525.7
65676.5
67060.8
68109.8
69210.3
70154.6
71043
71901.1
72626.2
73424.3
74011.2
74775.1
75224.1
75983.9
76274.1
77075.7
77160.2
78088.7
77873.1
79092.7
78379.4
80236.1
78570.4
107184
106923
106789
106431
106228
105869
105604
105249
104956
104622
104346
104051
103809
103546
103330
103073
102857
102565
102312
101939
101632
101164
100813
100234
99846.7
99123.9
98705.4
97787.8
97351.3
96162.5
95735.6
94162.5
93796.1
91668.4
91455.2
88511.2
88610.2
84438.8
85120.7
79068.1
80781.2
71794.5
75299.8
61692
68387.4
47550
60075
27731.7
50407.6
-1984.03
36817.5
-55130.1
11089.5
-170180
-18668.9
-76382.5
2458.28
-33495.8
15645.8
-6515.61
24306.6
11377.3
31147.3
24447.6
37587.1
34716
43634.4
42915.2
49084.7
49517.3
53876.8
54865.3
58012.6
59207.1
61537.4
62754
64528.2
65679.6
67063.2
68112.6
69212.9
70157.4
71045.9
71903.9
72629.3
73426.8
74014.3
74776.9
75227
75984.8
76276.9
77075.6
77163.6
78087.4
77877.7
79089.9
78386.6
80231
78581.7
107209
106943
106808
106446
106241
105881
105614
105257
104962
104628
104350
104055
103812
103549
103332
103074
102858
102566
102314
101942
101636
101169
100818
100241
99853.2
99132.1
98713.3
97797.8
97360.5
96174.4
95746
94176.3
93807.4
91684.2
91467.1
88529.5
88622.8
84460.2
85134.3
79093.7
80796.3
71825.6
75316.9
61729.4
68406.8
47593.4
60097.3
27779.6
50436.7
-1933.41
36865.2
-55104.9
11106.5
-170810
-18827.2
-76378.5
2446.99
-33476.6
15645.1
-6499.23
24307.8
11393.8
31151.7
24463.8
37592.7
34729.7
43640
42926.6
49090.2
49526.4
53881.6
54872.4
58016.5
59212.3
61540.4
62757.8
64530.6
65682.7
67065.5
68115.4
69215.6
70160.2
71048.9
71906.7
72632.5
73429.3
74017.4
74778.7
75230
75985.8
76279.8
77075.4
77166.9
78086.1
77882.3
79087.2
78393.7
80226
78592.9
107234
106964
106828
106462
106255
105892
105624
105265
104969
104633
104354
104058
103815
103551
103334
103076
102860
102568
102316
101945
101639
101174
100823
100247
99859.7
99140.2
98721.2
97807.7
97369.7
96186.3
95756.3
94190.2
93818.6
91700.2
91479
88547.9
88635.5
84481.7
85147.9
79119.4
80811.4
71856.7
75334.1
61766.9
68426.2
47636.9
60119.5
27827.3
50465.5
-1883.32
36912.3
-55080.2
11123.6
-171445
-18985.5
-76373.2
2436.05
-33457.3
15644.7
-6482.73
24309.2
11410.3
31156.3
24480
37598.3
34743.5
43645.7
42937.9
49095.7
49535.6
53886.5
54879.4
58020.3
59217.4
61543.4
62761.6
64533.1
65685.7
67067.9
68118.2
69218.2
70163
71051.9
71909.5
72635.7
73431.8
74020.5
74780.6
75232.9
75986.7
76282.7
77075.3
77170.2
78084.8
77886.9
79084.5
78400.7
80220.9
78604
107260
106984
106848
106477
106269
105903
105633
105273
104976
104639
104359
104062
103818
103553
103335
103078
102861
102570
102318
101948
101643
101178
100828
100253
99866
99148.1
98728.9
97817.6
97378.8
96198.1
95766.7
94204.1
93829.9
91716.2
91491.1
88566.4
88648.2
84503.3
85161.6
79145.1
80826.6
71887.9
75351.3
61804.4
68445.5
47680.3
60141.6
27874.8
50494
-1833.75
36958.7
-55055.9
11140.6
-172084
-19144
-76366.7
2425.46
-33437.7
15644.4
-6466.12
24310.8
11426.9
31161
24496.3
37604.1
34757.3
43651.4
42949.3
49101.3
49544.7
53891.3
54886.5
58024.2
59222.6
61546.4
62765.4
64535.6
65688.8
67070.3
68121
69220.8
70165.9
71054.8
71912.3
72638.9
73434.3
74023.7
74782.5
75235.9
75987.7
76285.6
77075.3
77173.5
78083.6
77891.4
79081.8
78407.8
80215.8
78615.1
107286
107005
106868
106492
106283
105915
105643
105281
104983
104644
104363
104066
103820
103556
103337
103079
102863
102572
102320
101951
101646
101183
100833
100259
99872.1
99155.8
98736.5
97827.3
97387.9
96209.8
95777
94217.9
93841.3
91732.3
91503.2
88584.9
88661
84525
85175.4
79170.9
80841.7
71919
75368.4
61841.9
68464.9
47723.6
60163.6
27922.1
50522.2
-1784.7
37004.4
-55032.1
11157.5
-172729
-19302.7
-76359
2415.21
-33417.9
15644.3
-6449.39
24312.5
11443.6
31165.8
24512.7
37609.9
34771.2
43657.2
42960.7
49106.9
49553.9
53896.2
54893.5
58028.1
59227.8
61549.4
62769.3
64538.1
65691.9
67072.7
68123.8
69223.5
70168.7
71057.8
71915.2
72642
73436.9
74026.8
74784.4
75238.8
75988.7
76288.5
77075.2
77176.8
78082.4
77895.9
79079.2
78414.8
80210.8
78626.2
107312
107026
106888
106508
106297
105926
105653
105290
104989
104650
104368
104069
103823
103558
103339
103081
102864
102573
102322
101954
101649
101187
100838
100265
99878.1
99163.4
98743.9
97836.8
97396.8
96221.5
95787.4
94231.8
93852.7
91748.4
91515.4
88603.6
88673.9
84546.7
85189.2
79196.7
80856.9
71950.2
75385.5
61879.4
68484.2
47767
60185.6
27969.2
50550.1
-1736.16
37049.5
-55008.9
11174.3
-173377
-19461.5
-76350.1
2405.31
-33398
15644.4
-6432.56
24314.4
11460.3
31170.7
24529.1
37615.8
34785
43663
42972.1
49112.5
49563.1
53901.2
54900.6
58032
59233
61552.4
62773.1
64540.6
65695
67075.1
68126.7
69226.2
70171.6
71060.8
71918.1
72645.3
73439.4
74030
74786.3
75241.8
75989.7
76291.4
77075.2
77180.1
78081.3
77900.3
79076.7
78421.7
80205.7
78637.3
107338
107047
106908
106524
106311
105938
105663
105298
104996
104656
104372
104073
103826
103560
103341
103083
102866
102575
102324
101957
101652
101191
100842
100271
99883.9
99170.9
98751.2
97846.3
97405.6
96233.1
95797.7
94245.7
93864.2
91764.6
91527.6
88622.3
88686.8
84568.5
85203
79222.5
80872
71981.3
75402.6
61916.8
68503.4
47810.2
60207.4
28016.2
50577.6
-1688.12
37094
-54986.1
11191
-174031
-19620.5
-76339.9
2395.76
-33377.8
15644.6
-6415.62
24316.4
11477.1
31175.8
24545.5
37621.8
34799
43668.9
42983.6
49118.2
49572.3
53906.1
54907.6
58036
59238.2
61555.5
62776.9
64543.1
65698.1
67077.6
68129.5
69228.9
70174.5
71063.9
71920.9
72648.5
73442
74033.2
74788.2
75244.7
75990.8
76294.3
77075.3
77183.3
78080.2
77904.7
79074.2
78428.6
80200.7
78648.3
107365
107069
106929
106540
106325
105949
105673
105306
105003
104662
104377
104077
103829
103563
103343
103084
102867
102577
102326
101959
101655
101195
100846
100276
99889.5
99178.2
98758.4
97855.5
97414.4
96244.6
95807.9
94259.6
93875.6
91780.8
91539.9
88641
88699.8
84590.3
85216.8
79248.4
80887.1
72012.4
75419.6
61954.3
68522.6
47853.5
60229
28063
50604.8
-1640.58
37137.8
-54964
11207.4
-174689
-19779.7
-76328.6
2386.55
-33357.5
15645
-6398.58
24318.5
11494
31180.9
24562
37627.8
34812.9
43674.8
42995
49123.9
49581.5
53911.1
54914.7
58039.9
59243.3
61558.5
62780.8
64545.6
65701.2
67080
68132.4
69231.6
70177.4
71066.9
71923.8
72651.7
73444.6
74036.3
74790.2
75247.7
75991.8
76297.2
77075.3
77186.6
78079.1
77909.1
79071.7
78435.4
80195.7
78659.3
107392
107090
106949
106555
106339
105961
105683
105315
105010
104667
104381
104081
103832
103565
103345
103086
102868
102578
102327
101962
101658
101199
100850
100282
99895
99185.3
98765.4
97864.6
97423
96256
95818
94273.4
93887
91797.1
91552.3
88659.8
88712.9
84612.2
85230.7
79274.2
80902.3
72043.5
75436.6
61991.7
68541.8
47896.6
60250.6
28109.6
50631.7
-1593.52
37180.9
-54942.4
11223.6
-175352
-19939.1
-76315.9
2377.69
-33337
15645.6
-6381.44
24320.8
11510.9
31186.1
24578.5
37634
34826.9
43680.8
43006.5
49129.6
49590.7
53916.1
54921.8
58043.9
59248.5
61561.6
62784.6
64548.1
65704.3
67082.5
68135.3
69234.3
70180.3
71070
71926.7
72654.9
73447.2
74039.5
74792.1
75250.7
75992.9
76300.1
77075.4
77189.8
78078.1
77913.5
79069.3
78442.2
80190.7
78670.2
107420
107112
106970
106571
106353
105973
105693
105323
105017
104673
104386
104084
103835
103568
103347
103088
102870
102580
102329
101964
101661
101203
100855
100287
99900.4
99192.2
98772.2
97873.6
97431.4
96267.3
95828.1
94287.1
93898.4
91813.3
91564.7
88678.7
88726
84634.2
85244.6
79300.1
80917.4
72074.6
75453.5
62029
68560.8
47939.7
60272
28156
50658.3
-1546.94
37223.5
-54921.5
11239.5
-176020
-20098.8
-76302.1
2369.17
-33316.2
15646.4
-6364.2
24323.3
11527.9
31191.5
24595.1
37640.2
34840.9
43686.9
43018
49135.4
49599.9
53921.1
54928.8
58047.9
59253.7
61564.6
62788.4
64550.7
65707.5
67084.9
68138.2
69237
70183.2
71073
71929.6
72658.2
73449.9
74042.7
74794.1
75253.6
75994
76302.9
77075.5
77193
78077.1
77917.8
79066.9
78448.9
80185.8
78681.1
107448
107134
106991
106588
106368
105985
105703
105332
105024
104679
104391
104088
103838
103570
103348
103089
102871
102581
102331
101966
101664
101206
100858
100292
99905.5
99198.9
98778.8
97882.4
97439.7
96278.4
95838
94300.7
93909.8
91829.5
91577.1
88697.6
88739.1
84656.1
85258.6
79326.1
80932.5
72105.7
75470.4
62066.4
68579.8
47982.8
60293.3
28202.2
50684.5
-1500.83
37265.4
-54901.1
11255.1
-176693
-20258.8
-76287
2360.99
-33295.3
15647.3
-6346.86
24325.9
11544.9
31196.9
24611.6
37646.5
34854.9
43693
43029.5
49141.2
49609.2
53926.2
54935.9
58051.9
59258.9
61567.7
62792.3
64553.2
65710.6
67087.4
68141.1
69239.8
70186.2
71076.1
71932.6
72661.4
73452.5
74045.9
74796.1
75256.6
75995.2
76305.8
77075.7
77196.2
78076.1
77922.1
79064.5
78455.5
80180.9
78691.9
107476
107156
107012
106604
106382
105996
105713
105340
105031
104685
104396
104092
103841
103573
103350
103091
102872
102583
102332
101969
101666
101210
100862
100297
99910.6
99205.5
98785.3
97890.9
97447.8
96289.3
95847.9
94314.3
93921.2
91845.7
91589.5
88716.5
88752.3
84678.1
85272.5
79352
80947.6
72136.8
75487.3
62103.6
68598.7
48025.7
60314.4
28248.2
50710.5
-1455.17
37306.8
-54881.4
11270.2
-177370
-20419.1
-76270.6
2353.15
-33274.2
15648.4
-6329.43
24328.6
11562
31202.5
24628.3
37652.9
34869
43699.2
43041.1
49147.1
49618.4
53931.3
54943
58056
59264.2
61570.8
62796.2
64555.8
65713.7
67089.9
68144
69242.5
70189.1
71079.2
71935.5
72664.7
73455.2
74049.1
74798.2
75259.6
75996.4
76308.7
77075.9
77199.4
78075.2
77926.4
79062.3
78462.1
80176
78702.6
107504
107178
107034
106620
106397
106008
105723
105349
105039
104691
104401
104096
103844
103575
103352
103093
102874
102584
102334
101971
101669
101213
100866
100302
99915.4
99211.9