/*--------------------------------*- C++ -*----------------------------------*\
| =========                 |                                                 |
| \\      /  F ield         | OpenFOAM: The Open Source CFD Toolbox           |
|  \\    /   O peration     | Version:  2412                                  |
|   \\  /    A nd           | Website:  www.openfoam.com                      |
|    \\/     M anipulation  |                                                 |
\*---------------------------------------------------------------------------*/
FoamFile
{
    version     2.0;
    format      ascii;
    arch        "LSB;label=32;scalar=64";
    class       surfaceScalarField;
    location    "0.8";
    object      phi;
}
// * * * * * * * * * * * * * * * * * * * * * * * * * * * * * * * * * * * * * //

dimensions      [0 3 -1 0 0 0 0];

oriented        oriented;

internalField   nonuniform List<scalar> 
25922
(
0.00749532
0.0253102
0.00745279
0.0204928
0.00744284
0.0162731
0.0074523
0.0131648
0.00747357
0.0106336
0.00749594
0.00853397
0.00750911
0.00619158
0.00750554
0.00343856
0.00748107
0.000272073
0.00743659
-0.00306203
0.00737572
-0.00623936
0.00730481
-0.00903063
0.00723171
-0.0111967
0.00716694
-0.0126365
0.00712268
-0.0131593
0.00710868
-0.0127609
0.00712387
-0.0115062
0.00715538
-0.00996033
0.00718755
-0.0084491
0.00721316
-0.00736892
0.00723232
-0.00648545
0.00724834
-0.0059116
0.00726243
-0.00526399
0.00727604
-0.00489528
0.00728819
-0.00430251
0.00730004
-0.00404961
0.00730997
-0.00345573
0.00731976
-0.00331447
0.00732713
-0.00266271
0.0073349
-0.00268086
0.00733975
-0.001924
0.00734583
-0.00211738
0.00734829
-0.00119135
0.00735321
-0.00163648
0.00735346
-0.000466366
0.00735766
-0.00122953
0.00735544
0.000313988
0.00735917
-0.000903865
0.00118605
0.0074957
0.0253902
0.00745386
0.0205347
0.00744486
0.0162821
0.00745535
0.0131543
0.00747764
0.0106113
0.00750099
0.00851062
0.00751498
0.00617758
0.00751201
0.00344153
0.00748782
0.000296264
0.00744328
-0.00301749
0.00738198
-0.00617806
0.00731027
-0.00895892
0.00723595
-0.0111224
0.00716948
-0.01257
0.00712305
-0.0131128
0.00710676
-0.0127446
0.00712018
-0.0115196
0.00715085
-0.00999101
0.00718298
-0.00848122
0.00720883
-0.00739478
0.00722819
-0.00650481
0.0072443
-0.0059277
0.00725842
-0.00527811
0.00727204
-0.00490891
0.00728422
-0.00431469
0.0072961
-0.00406148
0.00730606
-0.0034657
0.00731588
-0.00332429
0.00732329
-0.00267011
0.00733109
-0.00268866
0.00733596
-0.00192887
0.00734207
-0.00212349
0.00734456
-0.00119384
0.00734952
-0.00164143
0.00734981
-0.000466655
0.00735407
-0.00123379
0.00735192
0.000316133
0.00735574
-0.000907687
0.00735054
0.00119125
0.00735337
-0.000620744
0.00734235
0.00213446
0.00734081
-0.00062625
0.00731929
0.00258869
0.00731211
-0.00180471
0.00728306
0.00144651
0.00728175
-0.00489173
0.00726698
-0.00100898
0.00730463
-0.00703046
0.00734197
0.000247264
0.00742923
0.000523136
0.00749385
0.0117944
0.00757663
0.0336667
0.00761298
0.0620935
0.00767785
-0.0178836
0.00770214
-0.0479245
0.00776068
-0.0301429
0.00779618
-0.0114582
0.00785182
-0.00937401
0.00789952
0.000203106
0.007946
0.000748201
0.00797019
0.00675147
0.00797492
0.00476726
0.00795803
0.00675181
0.00792849
0.00331603
0.00789485
0.00378711
0.00786054
0.00103193
0.00783198
0.001438
0.00780447
-0.000369831
7.85189e-05
0.00749609
0.0254699
0.00745496
0.0205758
0.00744692
0.0162901
0.00745844
0.0131428
0.00748177
0.010588
0.00750611
0.00848628
0.00752094
0.00616275
0.00751858
0.0034439
0.00749468
0.000320156
0.00745011
-0.00297291
0.0073884
-0.00611636
0.00731592
-0.00888644
0.0072404
-0.0110469
0.00717224
-0.0125019
0.00712364
-0.0130642
0.00710502
-0.012726
0.00711658
-0.0115312
0.00714635
-0.0100208
0.00717838
-0.00851325
0.00720446
-0.00742086
0.00722403
-0.00652438
0.00724023
-0.0059439
0.00725439
-0.00529226
0.00726804
-0.00492255
0.00728025
-0.0043269
0.00729216
-0.00407339
0.00730216
-0.0034757
0.00731202
-0.00333414
0.00731946
-0.00267756
0.00732729
-0.00269649
0.00733219
-0.00193377
0.00733833
-0.00212962
0.00734085
-0.00119637
0.00734584
-0.00164643
0.00734618
-0.000466991
0.00735051
-0.00123812
0.00734844
0.000318203
0.00735236
-0.000911607
0.00734727
0.00119633
0.00735026
-0.000623728
0.00733942
0.0021453
0.00733806
-0.000624892
0.00731662
0.00261014
0.00730935
-0.00179743
0.00727989
0.00147596
0.00727789
-0.00488973
0.00726207
-0.000993155
0.00729878
-0.00706717
0.00733584
0.0002102
0.00742419
0.000434785
0.00749066
0.0117279
0.00757617
0.0335812
0.00761529
0.0620544
0.00767811
-0.0179465
0.00769821
-0.0479445
0.00775477
-0.0301994
0.00779025
-0.0114937
0.00784712
-0.00943087
0.00789741
0.000152814
0.0079471
0.000698518
0.00797499
0.00672357
0.00798298
0.00475928
0.00796884
0.00676595
0.00794112
0.00334375
0.00790864
0.00381959
0.00787487
0.0010657
0.00784653
0.00146635
0.00781902
-0.000342328
0.00779736
0.000100176
0.00777504
-0.00100329
0.0077576
-0.000476104
0.0077391
-0.000931267
0.00772477
-0.000238046
0.00770948
-0.000187006
0.0076975
0.000617763
0.00768504
0.000968949
0.00767579
0.00175725
0.00766755
0.00221995
0.00766317
0.00284741
0.00766111
0.0032295
0.00766175
0.0036173
0.00766307
0.00384463
0.00766278
0.00393427
0.00765935
0.00399755
0.00764996
0.00382292
0.00763588
0.00382566
0.00761531
0.00351129
0.00759244
0.00360625
0.00756535
0.00321729
0.00753892
0.0035657
0.00750971
0.0030996
0.00748195
0.00373566
0.00745113
0.00305212
0.00741969
0.00397726
0.00738589
0.0028666
0.00734502
0.00404365
0.00730796
0.00221134
0.0072413
0.00356813
-2.77923e-05
0.00749648
0.0255492
0.00745608
0.0206162
0.00744902
0.0162972
0.00746159
0.0131302
0.00748596
0.0105637
0.0075113
0.00846093
0.00752698
0.00614706
0.00752524
0.00344565
0.00750166
0.000343734
0.00745705
-0.0029283
0.00739497
-0.00605427
0.00732173
-0.0088132
0.00724504
-0.0109702
0.00717522
-0.0124321
0.00712446
-0.0130135
0.00710349
-0.012705
0.00711312
-0.0115408
0.00714188
-0.0100495
0.00717376
-0.00854513
0.00720006
-0.00744717
0.00721984
-0.00654416
0.00723615
-0.00596021
0.00725035
-0.00530646
0.00726402
-0.00493622
0.00727627
-0.00433915
0.00728821
-0.00408533
0.00729826
-0.00348576
0.00730816
-0.00334404
0.00731564
-0.00268504
0.00732351
-0.00270435
0.00732844
-0.00193871
0.00733461
-0.00213579
0.00733716
-0.00119892
0.0073422
-0.00165146
0.00734258
-0.000467377
0.00734697
-0.00124251
0.00734498
0.000320193
0.007349
-0.000915627
0.00734404
0.00120129
0.00734719
-0.000626876
0.00733654
0.00215595
0.00733537
-0.000623721
0.00731402
0.00263149
0.00730666
-0.00179008
0.00727681
0.00150581
0.00727411
-0.00488703
0.00725722
-0.000976263
0.00729293
-0.00710287
0.00732965
0.000173474
0.00741907
0.000345373
0.00748743
0.0116595
0.0075757
0.0334929
0.00761763
0.0620124
0.00767833
-0.0180072
0.00769413
-0.0479603
0.00774861
-0.0302539
0.007784
-0.0115291
0.00784204
-0.00948891
0.00789491
9.99405e-05
0.00794783
0.000645599
0.00797951
0.0066919
0.00799084
0.00474795
0.00797955
0.00677724
0.00795374
0.00336955
0.00792251
0.00385082
0.00788935
0.00109885
0.00786127
0.00149444
0.00783381
-0.000314872
0.00781207
0.000121915
0.00778962
-0.000980838
0.00777198
-0.000458458
0.00775323
-0.000912517
0.00773853
-0.000223346
0.00772277
-0.000171247
0.00771018
0.000630352
0.007697
0.000982129
0.00768692
0.00176734
0.00767783
0.00222903
0.00767266
0.00285258
0.00767004
0.00323213
0.00767051
0.00361683
0.00767223
0.00384291
0.00767294
0.00393356
0.00767107
0.00399942
0.00766345
0.00383054
0.00765116
0.00383795
0.00763199
0.00353045
0.00761018
0.00362806
0.0075835
0.00324396
0.00755724
0.00359197
0.00752761
0.00312923
0.00749952
0.00376374
0.00746784
0.0030838
0.00743599
0.00400912
0.00740106
0.00290152
0.00735989
0.00408482
0.0073216
0.00224964
0.00725484
0.00363489
4.42923e-05
0.00749689
0.0256281
0.00745723
0.0206559
0.00745116
0.0163033
0.00746479
0.0131166
0.00749021
0.0105382
0.00751656
0.00843458
0.00753311
0.00613052
0.00753199
0.00344676
0.00750874
0.000366985
0.00746413
-0.00288369
0.00740168
-0.00599182
0.00732771
-0.00873923
0.00724988
-0.0108923
0.00717842
-0.0123606
0.00712553
-0.0129606
0.00710217
-0.0126817
0.00710979
-0.0115485
0.00713746
-0.0100772
0.00716913
-0.0085768
0.00719563
-0.00747367
0.00721563
-0.00656415
0.00723204
-0.00597662
0.00724629
-0.00532072
0.00725999
-0.00494993
0.00727228
-0.00435143
0.00728426
-0.00409731
0.00729436
-0.00349586
0.0073043
-0.00335398
0.00731183
-0.00269257
0.00731973
-0.00271225
0.00732471
-0.00194368
0.00733091
-0.00214199
0.0073335
-0.00120151
0.00733857
-0.00165654
0.00733901
-0.000467814
0.00734347
-0.00124696
0.00734156
0.000322101
0.00734569
-0.000919752
0.00734086
0.00120612
0.00734417
-0.000630192
0.00733372
0.0021664
0.00733275
-0.000622745
0.00731149
0.00265274
0.00730406
-0.00178265
0.00727382
0.00153605
0.00727042
-0.00488362
0.00725244
-0.00095828
0.00728709
-0.00713753
0.00732342
0.000137149
0.00741386
0.000254933
0.00748415
0.0115893
0.00757523
0.0334018
0.00761998
0.0619677
0.00767853
-0.0180657
0.00768991
-0.0479717
0.00774222
-0.0303062
0.00777742
-0.0115643
0.00783657
-0.00954807
0.007892
4.45121e-05
0.00794818
0.000589423
0.00798369
0.00665638
0.00799845
0.00473319
0.00799011
0.00678558
0.00796629
0.00339336
0.00793639
0.00388072
0.00790391
0.00113133
0.00787615
0.0015222
0.00784878
-0.000287511
0.00782702
0.000143681
0.0078045
-0.000958316
0.00778669
-0.000440648
0.00776773
-0.00089356
0.0077527
-0.000208313
0.00773652
-0.000155067
0.00772335
0.000643518
0.00770949
0.000995989
0.00769861
0.00177823
0.00768869
0.00223895
0.00768271
0.00285855
0.00767946
0.00323538
0.00767967
0.00361663
0.00768166
0.00384092
0.00768327
0.00393196
0.00768287
0.00399981
0.00767707
0.00383635
0.0076667
0.00384831
0.00764913
0.00354802
0.0076286
0.00364859
0.00760255
0.00327001
0.00757664
0.00361787
0.00754675
0.00315913
0.00751845
0.00379204
0.00748599
0.00311626
0.00745377
0.00404134
0.00741773
0.00293756
0.00737626
0.00412629
0.00733666
0.00228923
0.0072698
0.00370175
0.000118088
0.00749731
0.0257065
0.0074584
0.0206948
0.00745334
0.0163083
0.00746805
0.0131019
0.00749453
0.0105118
0.0075219
0.00840721
0.00753931
0.00611311
0.00753884
0.00344723
0.00751594
0.000389893
0.00747133
-0.00283908
0.00740854
-0.00592903
0.00733386
-0.00866456
0.00725492
-0.0108134
0.00718186
-0.0122875
0.00712684
-0.0129056
0.00710108
-0.0126559
0.00710663
-0.011554
0.00713311
-0.0101037
0.0071645
-0.00860819
0.00719117
-0.00750034
0.00721138
-0.00658436
0.0072279
-0.00599315
0.00724221
-0.00533502
0.00725594
-0.00496366
0.00726827
-0.00436376
0.0072803
-0.00410934
0.00729046
-0.00350602
0.00730045
-0.00336397
0.00730803
-0.00270015
0.00731598
-0.00272019
0.00732099
-0.0019487
0.00732723
-0.00214823
0.00732986
-0.00120414
0.00733498
-0.00166166
0.00733547
-0.000468306
0.00734
-0.00125149
0.00733818
0.000323924
0.00734241
-0.000923983
0.00733771
0.00121081
0.0073412
-0.000633682
0.00733095
0.00217665
0.00733018
-0.000621974
0.00730904
0.00267388
0.00730155
-0.00177516
0.00727092
0.00156668
0.00726681
-0.00487951
0.00724772
-0.00093919
0.00728128
-0.0071711
0.00731714
0.000101291
0.00740857
0.000163502
0.00748081
0.011517
0.00757476
0.0333079
0.00762237
0.0619201
0.0076787
-0.0181221
0.00768557
-0.0479786
0.00773558
-0.0303562
0.00777052
-0.0115992
0.00783072
-0.00960827
0.00788867
-1.3441e-05
0.00794812
0.000529982
0.00798753
0.00661697
0.00800579
0.00471493
0.00800048
0.00679089
0.00797875
0.00341509
0.00795025
0.00390922
0.00791852
0.00116306
0.00789114
0.00154958
0.00786392
-0.000260292
0.00784217
0.000165432
0.00781962
-0.000935759
0.00780168
-0.000422708
0.00778255
-0.000874434
0.00776722
-0.000192987
0.00775067
-0.000138507
0.00773696
0.000657223
0.00772246
0.00101049
0.0077108
0.00178989
0.00770005
0.0022497
0.00769327
0.00286534
0.00768935
0.00323929
0.00768921
0.00361677
0.00769135
0.00383878
0.00769373
0.00392959
0.00769473
0.0039988
0.00769074
0.00384034
0.00768239
0.00385665
0.0076666
0.00356382
0.00764756
0.00366763
0.00762237
0.0032952
0.00759702
0.00364322
0.00756703
0.00318913
0.00753866
0.00382041
0.00750551
0.00314941
0.00747299
0.00407386
0.00743589
0.00297466
0.00739413
0.00416804
0.00735318
0.00233019
0.00728623
0.0037687
0.000193606
0.00749775
0.0257845
0.0074596
0.0207329
0.00745556
0.0163124
0.00747136
0.0130861
0.00749891
0.0104842
0.00752731
0.0083788
0.0075456
0.00609483
0.00754579
0.00344704
0.00752324
0.00041244
0.00747866
-0.0027945
0.00741555
-0.00586592
0.00734019
-0.00858921
0.00726017
-0.0107334
0.00718554
-0.0122129
0.00712842
-0.0128484
0.00710024
-0.0126277
0.00710363
-0.0115574
0.00712884
-0.0101289
0.00715987
-0.00863923
0.00718668
-0.00752715
0.0072071
-0.00660478
0.00722375
-0.0060098
0.00723812
-0.00534939
0.00725189
-0.00497743
0.00726426
-0.00437614
0.00727634
-0.00412142
0.00728656
-0.00351624
0.00729661
-0.00337402
0.00730424
-0.00270779
0.00731223
-0.00272818
0.00731729
-0.00195376
0.00732357
-0.0021545
0.00732625
-0.00120682
0.00733141
-0.00166683
0.00733196
-0.000468855
0.00733656
-0.00125609
0.00733482
0.000325658
0.00733917
-0.000928324
0.00733461
0.00121537
0.00733828
-0.000637349
0.00732824
0.00218668
0.00732768
-0.000621414
0.00730666
0.0026949
0.00729911
-0.0017676
0.00726811
0.00159768
0.00726328
-0.00487468
0.00724307
-0.000918975
0.0072755
-0.00720353
0.00731082
6.59668e-05
0.0074032
7.11205e-05
0.00747742
0.0114428
0.00757427
0.033211
0.00762478
0.0618696
0.00767885
-0.0181761
0.00768111
-0.0479809
0.00772873
-0.0304039
0.0077633
-0.0116338
0.00782447
-0.00966944
0.00788491
-7.38757e-05
0.00794762
0.000467269
0.00799097
0.00657362
0.00801282
0.00469308
0.00801065
0.00679306
0.00799109
0.00343464
0.00796409
0.00393623
0.00793317
0.00119397
0.00790623
0.00157652
0.0078792
-0.000233262
0.0078575
0.000187129
0.00783495
-0.000913203
0.00781692
-0.000404676
0.00779766
-0.000855176
0.00778208
-0.000177405
0.00776518
-0.000121607
0.00775097
0.000671428
0.00773586
0.0010256
0.00772346
0.00180229
0.00771191
0.00226125
0.00770431
0.00287295
0.0076997
0.0032439
0.00769914
0.00361734
0.00770131
0.00383661
0.00770433
0.00392658
0.00770662
0.0039965
0.00770441
0.00384255
0.00769815
0.00386292
0.00768428
0.00357768
0.00766696
0.00368495
0.00764285
0.00331931
0.00761827
0.0036678
0.00758838
0.00321902
0.00756008
0.00384871
0.00752638
0.00318311
0.00749365
0.00410658
0.00745553
0.00301278
0.00741354
0.00421004
0.00737121
0.00237251
0.00730418
0.00383573
0.000270834
0.00749819
0.0258621
0.00746083
0.0207703
0.00745783
0.0163154
0.00747473
0.0130692
0.00750336
0.0104556
0.0075328
0.00834936
0.00755197
0.00607565
0.00755283
0.00344618
0.00753066
0.000434614
0.00748613
-0.00274997
0.00742271
-0.0058025
0.0073467
-0.0085132
0.00726563
-0.0106523
0.00718947
-0.0121368
0.00713027
-0.0127892
0.00709965
-0.0125971
0.00710083
-0.0115586
0.00712466
-0.0101527
0.00715527
-0.00866984
0.00718218
-0.00755406
0.0072028
-0.0066254
0.00721957
-0.00602657
0.007234
-0.00536382
0.00724781
-0.00499124
0.00726024
-0.00438856
0.00727237
-0.00413356
0.00728265
-0.00352652
0.00729276
-0.00338413
0.00730046
-0.00271549
0.0073085
-0.00273623
0.00731362
-0.00195887
0.00731993
-0.00216082
0.00732266
-0.00120954
0.00732787
-0.00167204
0.00732848
-0.000469464
0.00733315
-0.00126076
0.00733151
0.000327301
0.00733596
-0.000932777
0.00733155
0.00121979
0.0073354
-0.000641198
0.00732558
0.0021965
0.00732524
-0.000621077
0.00730436
0.00271578
0.00729676
-0.00176001
0.00726539
0.00162906
0.00725985
-0.00486914
0.00723849
-0.000897619
0.00726974
-0.00723478
0.00730446
3.12459e-05
0.00739775
-2.21633e-05
0.00747397
0.0113666
0.00757378
0.0331112
0.00762723
0.0618161
0.00767899
-0.0182279
0.00767654
-0.0479784
0.00772164
-0.030449
0.00775576
-0.0116679
0.00781783
-0.00973151
0.0078807
-0.000136744
0.00794667
0.000401291
0.00799401
0.00652628
0.00801952
0.00466758
0.00802057
0.00679201
0.00800329
0.00345192
0.00797786
0.00396166
0.00794783
0.00122399
0.00792139
0.00160297
0.0078946
-0.000206469
0.007873
0.000208731
0.00785048
-0.000890684
0.00783239
-0.000386586
0.00781303
-0.000835821
0.00779723
-0.000161602
0.00778003
-0.000104404
0.00776536
0.000686097
0.00774968
0.00104129
0.00773656
0.00181541
0.00772423
0.00227358
0.00771581
0.00288137
0.00771049
0.00324922
0.00770944
0.00361838
0.00771155
0.0038345
0.00771507
0.00392306
0.00771854
0.00399303
0.00771805
0.00384304
0.00771389
0.00386709
0.00770209
0.00358948
0.00768667
0.00370038
0.00766387
0.0033421
0.00764029
0.00369138
0.0076107
0.00324861
0.00758263
0.00387678
0.00754851
0.00321722
0.00751568
0.00413941
0.00747664
0.00305182
0.00743447
0.00425221
0.00739078
0.0024162
0.00732371
0.0039028
0.000349729
0.00749865
0.0259392
0.00746208
0.0208069
0.00746014
0.0163173
0.00747815
0.0130512
0.00750788
0.0104258
0.00753836
0.00831888
0.00755843
0.00605558
0.00755998
0.00344463
0.0075382
0.000456395
0.00749373
-0.0027055
0.00743003
-0.0057388
0.00735339
-0.00843656
0.0072713
-0.0105702
0.00719365
-0.0120591
0.0071324
-0.012728
0.00709933
-0.012564
0.00709824
-0.0115575
0.00712059
-0.0101751
0.00715068
-0.00869993
0.00717765
-0.00758103
0.00719847
-0.00664622
0.00721537
-0.00604347
0.00722987
-0.00537832
0.00724372
-0.00500509
0.0072562
-0.00440104
0.00726839
-0.00414575
0.00727875
-0.00353688
0.00728892
-0.0033943
0.00729669
-0.00272326
0.00730479
-0.00274432
0.00730996
-0.00196404
0.00731632
-0.00216718
0.00731909
-0.00121231
0.00732436
-0.00167731
0.00732503
-0.000470135
0.00732978
-0.00126551
0.00732823
0.000328849
0.0073328
-0.000937347
0.00732853
0.00122406
0.00733257
-0.000645234
0.00732298
0.00220609
0.00732287
-0.000620969
0.00730214
0.00273651
0.0072945
-0.00175237
0.00726277
0.00166079
0.00725651
-0.00486288
0.007234
-0.000875109
0.00726403
-0.0072648
0.00729807
-2.80049e-06
0.00739221
-0.000116301
0.00747046
0.0112883
0.00757328
0.0330084
0.00762972
0.0617597
0.00767914
-0.0182773
0.00767187
-0.0479711
0.00771435
-0.0304914
0.00774791
-0.0117015
0.00781078
-0.00979439
0.00787603
-0.000201984
0.00794526
0.00033206
0.00799662
0.00647492
0.00802586
0.00463834
0.00803023
0.00678764
0.00801531
0.00346684
0.00799154
0.00398543
0.00796248
0.00125306
0.0079366
0.00162885
0.00791009
-0.000179962
0.00788862
0.000230198
0.00786618
-0.000868236
0.00784806
-0.000368474
0.00782865
-0.000816401
0.00781266
-0.000145615
0.00779519
-8.69333e-05
0.00778009
0.000701192
0.00776388
0.0010575
0.00775008
0.00182921
0.00773699
0.00228667
0.00772777
0.00289059
0.00772171
0.00325528
0.00772013
0.00361997
0.00772208
0.00383255
0.00772598
0.00391916
0.00773048
0.00398852
0.00773163
0.00384189
0.00772956
0.00386915
0.00771993
0.00359911
0.00770657
0.00371373
0.00768532
0.00336335
0.00766295
0.00371375
0.00763388
0.00327768
0.00760622
0.00390443
0.00757186
0.00325159
0.00753904
0.00417223
0.00749919
0.00309167
0.00745691
0.00429449
0.0074119
0.0024612
0.00734483
0.00396988
0.000430223
0.00749912
0.0260158
0.00746337
0.0208426
0.0074625
0.0163182
0.00748164
0.013032
0.00751246
0.010395
0.007544
0.00828734
0.00756498
0.00603461
0.00756722
0.00344239
0.00754585
0.000477769
0.00750146
-0.00266111
0.00743751
-0.00567485
0.00736027
-0.00835932
0.0072772
-0.0104871
0.00719809
-0.01198
0.00713482
-0.0126647
0.00709931
-0.0125285
0.00709587
-0.0115541
0.00711665
-0.0101958
0.00714614
-0.00872942
0.00717312
-0.00760801
0.00719412
-0.00666722
0.00721115
-0.00606049
0.00722571
-0.00539289
0.00723961
-0.00501898
0.00725215
-0.00441358
0.0072644
-0.004158
0.00727484
-0.00354732
0.00728508
-0.00340455
0.00729293
-0.0027311
0.00730108
-0.00275248
0.00730631
-0.00196927
0.00731273
-0.0021736
0.00731555
-0.00121514
0.00732087
-0.00168263
0.00732161
-0.000470872
0.00732644
-0.00127034
0.00732499
0.000330299
0.00732967
-0.000942035
0.00732556
0.00122817
0.00732978
-0.000649461
0.00732043
0.00221544
0.00732056
-0.000621102
0.00729999
0.00275709
0.00729233
-0.00174472
0.00726025
0.00169288
0.00725327
-0.00485591
0.00722959
-0.000851432
0.00725835
-0.00729356
0.00729165
-3.61007e-05
0.00738659
-0.000211235
0.00746688
0.011208
0.00757276
0.0329025
0.00763225
0.0617002
0.00767929
-0.0183243
0.0076671
-0.047959
0.00770685
-0.0305312
0.00773975
-0.0117344
0.00780334
-0.00985798
0.00787089
-0.000269532
0.00794335
0.000259599
0.00799876
0.00641951
0.0080318
0.0046053
0.00803958
0.00677985
0.00802712
0.0034793
0.00800511
0.00400744
0.00797709
0.00128108
0.00795183
0.00165411
0.00792566
-0.000153789
0.00790437
0.000251488
0.00788202
-0.000845895
0.00786392
-0.000350374
0.00784448
-0.000796952
0.00782834
-0.000129478
0.00781064
-6.92312e-05
0.00779515
0.000716678
0.00777844
0.00107422
0.00776399
0.00184366
0.00775016
0.00230049
0.00774015
0.00290061
0.00773335
0.00326208
0.00773119
0.00362213
0.0077329
0.00383084
0.00773706
0.003915
0.00774246
0.00398312
0.00774513
0.00383922
0.00774511
0.00386917
0.0077377
0.00360652
0.00772656
0.00372488
0.00770706
0.00338285
0.00768613
0.00373468
0.0076578
0.003306
0.00763075
0.00393149
0.0075963
0.00328603
0.00756363
0.0042049
0.00752311
0.0031322
0.00748081
0.00433679
0.00743457
0.00250744
0.00736755
0.00403689
0.000512212
0.00749961
0.026092
0.00746469
0.0208775
0.00746491
0.016318
0.00748519
0.0130117
0.00751712
0.0103631
0.00754972
0.00825473
0.00757162
0.00601271
0.00757457
0.00343943
0.00755362
0.00049872
0.00750933
-0.00261682
0.00744515
-0.00561067
0.00736734
-0.00828151
0.00728332
-0.0104031
0.00720279
-0.0118995
0.00713754
-0.0125995
0.00709958
-0.0124906
0.00709375
-0.0115482
0.00711285
-0.0102149
0.00714165
-0.00875822
0.00716858
-0.00763495
0.00718975
-0.00668838
0.0072069
-0.00607764
0.00722154
-0.00540753
0.00723548
-0.00503292
0.00724808
-0.00442618
0.0072604
-0.00417032
0.00727092
-0.00355783
0.00728124
-0.00341487
0.00728916
-0.00273902
0.00729739
-0.00276071
0.00730269
-0.00197456
0.00730916
-0.00218007
0.00731204
-0.00121802
0.00731742
-0.001688
0.00731822
-0.000471678
0.00732313
-0.00127525
0.00732178
0.000331647
0.00732659
-0.000946845
0.00732263
0.00123214
0.00732705
-0.000653882
0.00731794
0.00222455
0.00731832
-0.000621482
0.00729792
0.00277748
0.00729025
-0.00173705
0.00725782
0.0017253
0.00725013
-0.00484821
0.00722528
-0.000826577
0.00725273
-0.00732102
0.00728521
-6.85809e-05
0.00738088
-0.000306904
0.00746323
0.0111257
0.00757224
0.0327935
0.00763483
0.0616376
0.00767945
-0.018369
0.00766226
-0.0479418
0.00769915
-0.0305681
0.00773128
-0.0117665
0.0077955
-0.0099222
0.00786528
-0.000339308
0.00794094
0.000183938
0.00800041
0.00636004
0.00803732
0.00456839
0.00804861
0.00676855
0.0080387
0.00348921
0.00801853
0.00402761
0.00799162
0.00130799
0.00796706
0.00167867
0.00794127
-0.000128002
0.0079202
0.000272558
0.007898
-0.000823695
0.00787994
-0.00033232
0.0078605
-0.000777504
0.00784424
-0.000113224
0.00782635
-5.13319e-05
0.00781051
0.000732518
0.00779332
0.0010914
0.00777826
0.00185873
0.00776373
0.00231502
0.00775294
0.0029114
0.00774539
0.00326963
0.00774262
0.00362491
0.00774402
0.00382944
0.00774833
0.00391069
0.00775448
0.00397697
0.00775856
0.00383515
0.00776052
0.00386721
0.00775535
0.00361169
0.00774653
0.00373369
0.00772898
0.00340041
0.0077097
0.00375396
0.00768235
0.00333335
0.00765609
0.00395775
0.00762175
0.00332036
0.00758937
0.00423728
0.00754832
0.00317325
0.00750612
0.00437899
0.00745874
0.00255482
0.00739186
0.00410377
0.000595567
0.00750011
0.0261676
0.00746604
0.0209116
0.00746737
0.0163166
0.0074888
0.0129903
0.00752184
0.0103301
0.00755552
0.00822106
0.00757834
0.00598989
0.00758202
0.00343576
0.00756151
0.00051923
0.00751735
-0.00257267
0.00745295
-0.00554627
0.0073746
-0.00820315
0.00728966
-0.0103182
0.00720776
-0.0118176
0.00714057
-0.0125323
0.00710017
-0.0124502
0.0070919
-0.01154
0.00710923
-0.0102323
0.00713722
-0.00878621
0.00716406
-0.00766178
0.00718536
-0.00670969
0.00720263
-0.00609491
0.00721735
-0.00542225
0.00723133
-0.00504691
0.007244
-0.00443884
0.00725638
-0.00418271
0.00726699
-0.00356844
0.0072774
-0.00342528
0.00728541
-0.00274704
0.00729371
-0.002769
0.00729908
-0.00197993
0.00730561
-0.0021866
0.00730855
-0.00122096
0.00731399
-0.00169344
0.00731487
-0.000472555
0.00731986
-0.00128024
0.00731861
0.000332891
0.00732355
-0.000951779
0.00731974
0.00123594
0.00732437
-0.000658504
0.0073155
0.00223342
0.00731614
-0.00062212
0.00729593
0.00279769
0.00728826
-0.00172938
0.00725551
0.00175805
0.0072471
-0.00483981
0.00722106
-0.000800536
0.00724717
-0.00734713
0.00727876
-0.000100166
0.0073751
-0.000403245
0.00745951
0.0110412
0.00757169
0.0326813
0.00763746
0.0615718
0.00767965
-0.0184111
0.00765734
-0.0479195
0.00769127
-0.030602
0.00772253
-0.0117978
0.00778726
-0.00998694
0.00785919
-0.00041123
0.007938
0.000105119
0.00800155
0.00629649
0.00804238
0.00452756
0.00805728
0.00675366
0.00805001
0.00349648
0.00803179
0.00404583
0.00800607
0.00133371
0.00798226
0.00170248
0.00795691
-0.00010265
0.0079361
0.000293367
0.00791408
-0.000801671
0.0078961
-0.000314346
0.00787669
-0.00075809
0.00786035
-9.68886e-05
0.00784229
-3.32685e-05
0.00782613
0.000748678
0.00780852
0.00110901
0.00779286
0.00187439
0.00777766
0.00233022
0.00776611
0.00292295
0.00775782
0.00327791
0.00775442
0.00362831
0.00775544
0.00382842
0.0077598
0.00390633
0.00776657
0.00397019
0.00777191
0.00382981
0.00777574
0.00386337
0.00777282
0.00361461
0.0077664
0.00374011
0.00775096
0.00341585
0.00773354
0.00377138
0.00770738
0.00335951
0.00768212
0.00398302
0.00764809
0.00335439
0.00761615
0.00426922
0.00757474
0.00321466
0.00753274
0.00442099
0.00748436
0.0026032
0.00741771
0.00417042
0.000680128
0.00750062
0.0262428
0.00746743
0.0209448
0.00746987
0.0163142
0.00749248
0.0129677
0.00752664
0.0102959
0.0075614
0.00818631
0.00758515
0.00596613
0.00758957
0.00343134
0.00756952
0.000539281
0.0075255
-0.00252865
0.00746093
-0.0054817
0.00738206
-0.00812428
0.00729624
-0.0102324
0.00721301
-0.0117343
0.00714392
-0.0124632
0.00710109
-0.0124073
0.00709033
-0.0115292
0.00710579
-0.0102477
0.00713288
-0.00881331
0.00715954
-0.00768844
0.00718096
-0.0067311
0.00719834
-0.00611229
0.00721313
-0.00543703
0.00722716
-0.00506094
0.00723989
-0.00445157
0.00725236
-0.00419518
0.00726306
-0.00357914
0.00727355
-0.00343578
0.00728166
-0.00275515
0.00729004
-0.00277738
0.00729549
-0.00198538
0.00730208
-0.0021932
0.00730509
-0.00122398
0.00731059
-0.00169893
0.00731154
-0.000473506
0.00731662
-0.00128531
0.00731549
0.000334027
0.00732055
-0.000956841
0.00731691
0.00123958
0.00732173
-0.000663329
0.00731313
0.00224202
0.00731403
-0.000623025
0.00729402
0.0028177
0.00728636
-0.00172172
0.0072533
0.00179112
0.00724418
-0.00483069
0.00721695
-0.000773301
0.00724167
-0.00737185
0.00727229
-0.000130782
0.00736923
-0.000500187
0.00745572
0.0109548
0.00757113
0.0325659
0.00764014
0.0615028
0.00767987
-0.0184509
0.00765236
-0.0478919
0.00768321
-0.0306329
0.00771349
-0.011828
0.00777864
-0.0100521
0.00785261
-0.000485201
0.00793454
2.31933e-05
0.00800216
0.00622887
0.00804697
0.00448274
0.00806555
0.00673508
0.00806103
0.00350099
0.00804485
0.00406201
0.0080204
0.00135816
0.00799741
0.00172547
0.00797255
-7.7787e-05
0.00795204
0.00031387
0.00793023
-0.000779858
0.00791237
-0.000296486
0.00789302
-0.000738741
0.00787664
-8.05027e-05
0.00785844
-1.5075e-05
0.007842
0.000765122
0.00782399
0.00112702
0.00780778
0.0018906
0.00779193
0.00234607
0.00777965
0.00293524
0.00777063
0.00328693
0.00776657
0.00363237
0.00776716
0.00382783
0.00777148
0.00390202
0.00777874
0.00396292
0.0077852
0.00382336
0.00779079
0.00385778
0.00779006
0.00361534
0.00778608
0.00374409
0.00777289
0.00342903
0.00775751
0.00378676
0.00773278
0.00338424
0.00770871
0.00400709
0.00767519
0.00338791
0.00764386
0.00430055
0.00760225
0.00325627
0.00756059
0.00446265
0.00751135
0.00265243
0.00744503
0.00423674
0.000765715
0.00750115
0.0263174
0.00746884
0.0209771
0.00747243
0.0163106
0.00749622
0.0129439
0.00753152
0.0102606
0.00756736
0.00815047
0.00759206
0.00594142
0.00759723
0.00342617
0.00757765
0.000558857
0.0075338
-0.0024848
0.00746907
-0.00541696
0.00738971
-0.00804493
0.00730306
-0.0101457
0.00721854
-0.0116498
0.00714759
-0.0123922
0.00710236
-0.0123621
0.00708907
-0.0115159
0.00710255
-0.0102612
0.00712865
-0.0088394
0.00715506
-0.00771486
0.00717656
-0.0067526
0.00719404
-0.00612977
0.0072089
-0.00545189
0.00722298
-0.00507502
0.00723577
-0.00446436
0.00724831
-0.00420772
0.00725911
-0.00358994
0.0072697
-0.00344636
0.00727791
-0.00276336
0.00728638
-0.00278584
0.00729191
-0.00199091
0.00729858
-0.00219986
0.00730166
-0.00122706
0.00730722
-0.0017045
0.00730825
-0.000474537
0.00731342
-0.00129048
0.0073124
0.00033505
0.00731759
-0.000962034
0.00731411
0.00124306
0.00731915
-0.000668362
0.00731081
0.00225036
0.00731199
-0.000624205
0.0072922
0.00283749
0.00728456
-0.00171408
0.0072512
0.00182448
0.00724137
-0.00482087
0.00721294
-0.000744868
0.00723624
-0.00739515
0.00726582
-0.000160353
0.00736328
-0.000597653
0.00745184
0.0108662
0.00757055
0.0324472
0.00764288
0.0614305
0.00768014
-0.0184881
0.00764734
-0.0478591
0.007675
-0.0306605
0.00770417
-0.0118572
0.00776963
-0.0101175
0.00784555
-0.000561122
0.00793052
-6.1778e-05
0.0080022
0.00615719
0.00805104
0.0044339
0.00807339
0.00671273
0.00807172
0.00350266
0.00805767
0.00407606
0.00803457
0.00138125
0.00801248
0.00174757
0.00798816
-5.34656e-05
0.00796801
0.000334022
0.00794644
-0.000758292
0.00792873
-0.000278774
0.00790948
-0.000719489
0.00789307
-6.40996e-05
0.00787478
3.21642e-06
0.00785809
0.000781816
0.00783972
0.00114539
0.00782299
0.00190732
0.00780653
0.00236254
0.00779352
0.00294825
0.00778378
0.00329668
0.00777906
0.00363709
0.00777919
0.0038277
0.00778338
0.00389783
0.00779101
0.00395529
0.00779845
0.00381593
0.00780565
0.00385057
0.00780704
0.00361396
0.0078055
0.00374562
0.00779467
0.00343987
0.0077815
0.00379993
0.0077584
0.00340734
0.00773573
0.00402975
0.00770292
0.00342072
0.00767236
0.00433111
0.00763074
0.00329789
0.00758955
0.00450384
0.00753962
0.00270236
0.00747375
0.00430261
0.000852128
0.0075017
0.0263914
0.0074703
0.0210085
0.00747504
0.0163059
0.00750003
0.0129189
0.00753647
0.0102241
0.0075734
0.00811354
0.00759906
0.00591576
0.00760499
0.00342025
0.00758591
0.000577939
0.00754225
-0.00244114
0.00747738
-0.0053521
0.00739757
-0.00796512
0.00731012
-0.0100583
0.00722436
-0.0115641
0.00715159
-0.0123195