/*--------------------------------*- C++ -*----------------------------------*\
| =========                 |                                                 |
| \\      /  F ield         | OpenFOAM: The Open Source CFD Toolbox           |
|  \\    /   O peration     | Version:  2412                                  |
|   \\  /    A nd           | Website:  www.openfoam.com                      |
|    \\/     M anipulation  |                                                 |
\*---------------------------------------------------------------------------*/
FoamFile
{
    version     2.0;
    format      ascii;
    arch        "LSB;label=32;scalar=64";
    class       volVectorField;
    location    "0.8";
    object      U;
}
// * * * * * * * * * * * * * * * * * * * * * * * * * * * * * * * * * * * * * //

dimensions      [0 1 -1 0 0 0 0];

internalField   nonuniform List<vector> 
13077
(
(100.032 -1.90461 0)
(100.663 -5.27854 8.1734e-17)
(101.807 -8.35393 -7.6383e-17)
(103.387 -10.788 0)
(105.184 -12.8817 0)
(107.203 -14.7462 0)
(109.177 -16.7653 0)
(111.06 -19.0454 0)
(112.682 -21.5601 0)
(114.058 -24.1376 -7.35337e-17)
(115.185 -26.5698 0)
(116.145 -28.7097 0)
(117.047 -30.4259 0)
(118.014 -31.6702 -9.3943e-17)
(119.283 -32.3604 0)
(121.038 -32.5378 0)
(123.49 -32.2942 9.31144e-17)
(126.449 -31.9577 8.74962e-17)
(129.735 -31.7216 3.61341e-21)
(132.992 -31.7715 7.46592e-17)
(136.345 -31.9725 0)
(139.658 -32.3829 6.48951e-17)
(143.225 -32.8039 -6.13509e-17)
(146.791 -33.4043 -5.81551e-17)
(150.719 -33.9457 0)
(154.602 -34.705 0)
(158.959 -35.3406 -5.02433e-17)
(163.191 -36.2672 4.76636e-17)
(168.061 -36.9872 3.39033e-21)
(172.686 -38.1075 8.61291e-17)
(178.186 -38.9086 0)
(183.26 -40.2657 0)
(189.552 -41.1431 0)
(195.145 -42.7932 3.49432e-17)
(202.452 -43.7384 -3.36212e-17)
(208.636 -45.7539 0)
(217.253 -46.7541 3.01968e-17)
(224.104 -49.226 0)
(234.427 -50.2731 -2.68418e-17)
(100.033 -1.92238 0)
(100.672 -5.32374 1.2871e-20)
(101.828 -8.42403 7.63016e-17)
(103.423 -10.8753 -7.1134e-17)
(105.234 -12.9812 0)
(107.269 -14.8514 0)
(109.257 -16.8688 0)
(111.152 -19.1419 -6.63118e-17)
(112.782 -21.6459 0)
(114.162 -24.2121 7.36363e-17)
(115.287 -26.6343 0)
(116.24 -28.767 8.42133e-17)
(117.127 -30.4798 0)
(118.072 -31.7263 -1.52879e-21)
(119.309 -32.425 0)
(121.024 -32.6162 0)
(123.437 -32.3867 9.41508e-17)
(126.372 -32.059 0)
(129.65 -31.8249 -8.22667e-17)
(132.91 -31.8739 3.97367e-21)
(136.266 -32.0741 0)
(139.579 -32.4855 -6.59175e-17)
(143.146 -32.9082 -3.66772e-21)
(146.711 -33.5111 0)
(150.637 -34.0547 0)
(154.518 -34.8169 0)
(158.874 -35.4548 -5.07705e-17)
(163.105 -36.3848 0)
(167.973 -37.1071 -4.58984e-17)
(172.596 -38.2315 -4.34028e-17)
(178.093 -39.0351 -4.14776e-17)
(183.165 -40.3972 3.91065e-17)
(189.456 -41.2772 3.74792e-17)
(195.046 -42.9336 -3.51525e-17)
(202.351 -43.8816 0)
(208.533 -45.9049 3.14287e-17)
(217.149 -46.9081 -6.0763e-17)
(223.997 -49.3898 -2.77683e-17)
(234.321 -50.4401 5.40491e-17)
(241.908 -53.5019 -6.99676e-21)
(254.456 -54.634 0)
(262.765 -58.517 1.98348e-17)
(278.149 -60.0031 0)
(287.122 -65.1845 3.10636e-17)
(306.421 -67.551 -3.36536e-17)
(316.468 -74.3022 1.13503e-17)
(341.936 -77.7043 -4.82105e-21)
(354.894 -84.945 0)
(391.092 -88.5592 0)
(410.726 -93.1641 7.8976e-19)
(461.641 -97.5627 -7.04768e-18)
(489.896 -89.6764 0)
(557.702 -94.5042 -1.35507e-18)
(606.714 -2.63227 0)
(559.792 45.5766 -5.53629e-18)
(542.869 58.3919 2.04912e-17)
(506.004 64.9806 1.02097e-18)
(491.185 64.2195 1.55665e-17)
(463.077 66.4408 8.82159e-18)
(450.24 64.9533 4.59207e-18)
(427.005 65.5191 1.85452e-17)
(413.733 62.3318 0)
(392.789 60.6231 3.05793e-17)
(379.043 56.4116 2.70092e-17)
(360.671 54.0931 0)
(347.961 50.4746 -4.98757e-17)
(332.685 48.5594 -7.1211e-17)
(321.553 45.7857 0)
(308.899 44.259 9.9583e-21)
(100.034 -1.94041 0)
(100.682 -5.36947 -1.63117e-16)
(101.848 -8.49488 -7.6197e-17)
(103.459 -10.9635 7.10534e-17)
(105.284 -13.0817 0)
(107.336 -14.9575 0)
(109.338 -16.9733 -6.48016e-17)
(111.246 -19.2392 6.63654e-17)
(112.885 -21.7323 0)
(114.268 -24.2871 0)
(115.392 -26.6989 0)
(116.337 -28.8243 -8.43957e-17)
(117.21 -30.5337 8.99583e-17)
(118.134 -31.782 9.47158e-17)
(119.339 -32.4889 0)
(121.014 -32.6939 0)
(123.388 -32.4786 -9.52249e-17)
(126.296 -32.1598 0)
(129.565 -31.9281 0)
(132.827 -31.9762 4.01262e-21)
(136.186 -32.1756 7.17089e-17)
(139.5 -32.588 6.70234e-17)
(143.066 -33.0123 6.32212e-17)
(146.629 -33.6177 0)
(150.554 -34.1635 0)
(154.434 -34.9287 0)
(158.789 -35.5689 -3.60526e-21)
(163.018 -36.5023 0)
(167.885 -37.227 4.63242e-17)
(172.506 -38.3554 0)
(178.002 -39.1615 4.17924e-17)
(183.072 -40.5286 4.67267e-21)
(189.36 -41.4113 -3.77258e-17)
(194.947 -43.0739 0)
(202.251 -44.0249 3.40372e-17)
(208.43 -46.0559 -3.16236e-17)
(217.045 -47.0623 3.05754e-17)
(223.891 -49.5537 5.59117e-17)
(234.216 -50.6072 -2.72156e-17)
(241.801 -53.6811 2.41608e-17)
(254.353 -54.8158 -2.3753e-17)
(262.661 -58.7126 2.00287e-17)
(278.051 -60.2 2.01749e-17)
(287.014 -65.3972 -1.57015e-17)
(306.306 -67.7645 -3.97305e-21)
(316.311 -74.5343 -1.14976e-17)
(341.746 -77.942 1.47863e-17)
(354.613 -85.2094 -6.68332e-18)
(390.778 -88.8481 -1.24244e-17)
(410.366 -93.4945 -8.06303e-19)
(461.412 -97.9529 7.19677e-18)
(489.716 -90.1164 0)
(557.816 -95.0731 1.36743e-18)
(606.951 -2.63642 0)
(559.599 45.826 -2.86896e-20)
(542.491 58.5949 6.00098e-21)
(505.59 65.1719 1.02483e-18)
(490.835 64.3985 0)
(462.863 66.6291 0)
(450.204 65.1606 0)
(427.17 65.757 0)
(414.072 62.6003 -9.73346e-18)
(393.27 60.9151 -3.09468e-17)
(379.609 56.7167 0)
(361.286 54.3983 0)
(348.584 50.7747 0)
(333.304 48.8469 7.13226e-17)
(322.15 46.0635 0)
(309.476 44.5231 -1.00227e-16)
(299.645 42.4017 0)
(288.935 41.2093 -1.33668e-16)
(280.186 39.6559 -1.4848e-16)
(271.005 38.7923 0)
(263.188 37.7007 -1.89354e-16)
(255.214 37.0823 0)
(248.203 36.3025 0)
(241.211 35.814 0)
(234.944 35.2039 2.75211e-16)
(228.821 34.7426 -2.95597e-16)
(223.282 34.1981 -3.12638e-16)
(217.922 33.6818 3.26504e-16)
(212.999 33.1219 3.34973e-16)
(208.165 32.4851 0)
(203.595 31.8676 3.34244e-16)
(198.98 31.0883 3.25904e-16)
(194.543 30.45 0)
(190.001 29.5797 -3.02575e-16)
(185.706 29.0324 -2.91166e-16)
(181.29 28.143 2.80466e-16)
(177.279 27.7927 2.71028e-16)
(173.045 26.8798 2.61442e-16)
(169.434 26.7744 0)
(165.292 25.7336 -7.91082e-21)
(162.155 25.8834 -2.29935e-16)
(157.846 24.533 0)
(155.369 24.947 0)
(150.381 23.041 0)
(149.086 23.7242 0)
(142.149 20.3881 -1.62421e-16)
(100.035 -1.9587 0)
(100.691 -5.41573 8.1466e-17)
(101.869 -8.56648 7.61152e-17)
(103.495 -11.0526 7.0991e-17)
(105.336 -13.183 0)
(107.404 -15.0645 6.49917e-17)
(109.42 -17.0786 6.48304e-17)
(111.341 -19.3374 -6.64306e-17)
(112.988 -21.8194 -6.96422e-17)
(114.376 -24.3626 0)
(115.498 -26.764 -7.89856e-17)
(116.436 -28.8819 0)
(117.296 -30.5875 -1.80453e-16)
(118.199 -31.8374 0)
(119.373 -32.5523 0)
(121.008 -32.7708 -9.8866e-17)
(123.341 -32.5696 0)
(126.221 -32.2602 0)
(129.48 -32.031 8.50373e-17)
(132.743 -32.0783 -7.86388e-17)
(136.106 -32.277 -7.3019e-17)
(139.421 -32.6903 4.16896e-21)
(142.986 -33.1162 6.42684e-17)
(146.548 -33.7242 0)
(150.471 -34.2722 -5.76541e-17)
(154.35 -35.0404 0)
(158.703 -35.6829 5.19377e-17)
(162.931 -36.6197 0)
(167.797 -37.3468 -4.67742e-17)
(172.416 -38.4793 0)
(177.91 -39.2879 0)
(182.978 -40.6599 -3.96791e-17)
(189.265 -41.5454 0)
(194.85 -43.2142 0)
(202.151 -44.1682 -3.42575e-17)
(208.329 -46.207 3.184e-17)
(216.943 -47.2165 0)
(223.786 -49.7177 6.3266e-21)
(234.111 -50.7745 2.7421e-17)
(241.696 -53.8604 0)
(254.252 -54.9979 2.39537e-17)
(262.559 -58.9087 -2.02147e-17)
(277.955 -60.3974 -4.07557e-17)
(286.908 -65.6103 0)
(306.194 -67.9783 -4.11013e-21)
(316.159 -74.7665 1.16708e-17)
(341.559 -78.1795 1.5013e-17)
(354.334 -85.4732 1.36027e-17)
(390.464 -89.1361 1.2657e-17)
(410.001 -93.8239 0)
(461.178 -98.343 0)
(489.534 -90.5575 -9.39627e-18)
(557.933 -95.6445 0)
(607.189 -2.6392 1.34583e-18)
(559.4 46.0769 2.90689e-18)
(542.099 58.7968 5.87575e-21)
(505.155 65.36 -7.4327e-21)
(490.463 64.5731 -1.6121e-17)
(462.626 66.812 0)
(450.146 65.3625 4.73344e-18)
(427.317 65.9901 1.91775e-17)
(414.398 62.8651 -1.25682e-20)
(393.744 61.2048 -3.13256e-17)
(380.171 57.0208 -2.75486e-17)
(361.903 54.7036 -4.83656e-17)
(349.211 51.0757 0)
(333.929 49.136 0)
(322.756 46.3432 0)
(310.064 44.7894 0)
(300.207 42.6595 0)
(289.476 41.455 -1.07815e-20)
(280.701 39.8939 -1.85001e-20)
(271.495 39.0192 0)
(263.649 37.9198 1.88578e-16)
(255.646 37.2907 0)
(248.601 36.5025 2.31603e-16)
(241.574 36.0032 0)
(235.271 35.3839 2.75326e-16)
(229.115 34.9121 2.9665e-16)
(223.548 34.3589 3.15135e-16)
(218.17 33.8354 -3.31029e-16)
(213.244 33.2717 -3.42009e-16)
(208.424 32.6353 -3.47404e-16)
(203.883 32.0214 -6.93391e-16)
(199.308 31.2493 -3.4043e-16)
(194.91 30.6173 0)
(190.403 29.754 3.18731e-16)
(186.128 29.2088 -2.45201e-21)
(181.723 28.3217 -2.96185e-16)
(177.708 27.968 -2.86427e-16)
(173.465 27.0537 -2.76638e-16)
(169.833 26.9422 0)
(165.676 25.8991 -8.87217e-21)
(162.511 26.0434 2.45128e-16)
(158.186 24.6901 -2.31757e-16)
(155.682 25.103 2.18322e-16)
(150.676 23.1898 0)
(149.366 23.8887 0)
(142.395 20.5473 1.74297e-16)
(100.036 -1.97728 0)
(100.701 -5.46253 8.13923e-17)
(101.891 -8.63884 -1.52032e-16)
(103.533 -11.1425 -7.09117e-17)
(105.388 -13.2853 -6.71033e-17)
(107.472 -15.1725 -6.49903e-17)
(109.504 -17.1849 0)
(111.437 -19.4363 6.64903e-17)
(113.093 -21.9071 6.97271e-17)
(114.485 -24.4386 0)
(115.607 -26.8294 7.9131e-17)
(116.538 -28.9395 0)
(117.385 -30.6412 1.81006e-16)
(118.267 -31.8925 0)
(119.411 -32.6151 0)
(121.006 -32.8469 -2.07064e-21)
(123.298 -32.66 0)
(126.147 -32.36 -9.26609e-17)
(129.395 -32.1337 -8.65266e-17)
(132.659 -32.1804 0)
(136.024 -32.3783 0)
(139.341 -32.7924 -6.94641e-17)
(142.906 -33.22 3.95002e-21)
(146.466 -33.8304 6.16997e-17)
(150.388 -34.3807 1.17028e-16)
(154.266 -35.1519 0)
(158.618 -35.7968 0)
(162.845 -36.737 0)
(167.709 -37.4665 4.72648e-17)
(172.327 -38.603 -4.45835e-17)
(177.819 -39.4142 4.25005e-17)
(182.885 -40.7912 4.00018e-17)
(189.17 -41.6795 -3.82777e-17)
(194.753 -43.3545 3.58797e-17)
(202.052 -44.3115 0)
(208.228 -46.3582 -3.20561e-17)
(216.841 -47.3708 3.09996e-17)
(223.683 -49.8819 -2.83608e-17)
(234.009 -50.942 -5.52596e-17)
(241.592 -54.04 -2.45714e-17)
(254.152 -55.1804 0)
(262.46 -59.1051 0)
(277.861 -60.5953 -4.10777e-21)
(286.806 -65.824 1.60812e-17)
(306.086 -68.1925 -4.23556e-21)
(316.01 -74.9988 -2.36722e-17)
(341.375 -78.4168 -1.52384e-17)
(354.056 -85.7363 -6.92394e-18)
(390.149 -89.4232 0)
(409.631 -94.1522 0)
(460.94 -98.7329 0)
(489.35 -90.9996 9.56211e-18)
(558.05 -96.2185 0)
(607.429 -2.64053 -1.36383e-18)
(559.194 46.3297 0)
(541.693 58.9977 5.74736e-21)
(504.702 65.545 -2.10337e-18)
(490.067 64.7432 1.64118e-17)
(462.365 66.9895 0)
(450.065 65.559 -9.15387e-21)
(427.444 66.218 -1.9504e-17)
(414.708 63.1259 1.00406e-17)
(394.209 61.4916 6.34199e-17)
(380.729 57.3236 5.56202e-17)
(362.518 55.0086 4.86676e-17)
(349.841 51.3773 5.0497e-17)
(334.56 49.4262 0)
(323.369 46.6245 0)
(310.66 45.0576 -9.99366e-17)
(300.78 42.9195 0)
(290.028 41.7031 -1.08478e-20)
(281.229 40.1345 1.47303e-16)
(271.999 39.2488 0)
(264.126 38.1418 -1.8768e-16)
(256.094 37.5021 0)
(249.016 36.7058 -2.30646e-16)
(241.955 36.1959 0)
(235.616 35.5673 1.12029e-20)
(229.427 35.0848 2.97098e-16)
(223.829 34.5226 0)
(218.432 33.9913 3.34451e-16)
(213.498 33.4229 3.47737e-16)
(208.689 32.786 3.55823e-16)
(204.173 32.1749 3.57861e-16)
(199.638 31.4098 -1.15469e-20)
(195.281 30.7845 3.45657e-16)
(190.814 29.9289 -3.34548e-16)
(186.564 29.387 3.23138e-16)
(182.176 28.5032 6.23705e-16)
(178.16 28.1471 1.1154e-21)
(173.913 27.2321 2.91814e-16)
(170.261 27.1148 0)
(166.09 26.0701 2.71557e-16)
(162.899 26.2087 0)
(158.558 24.8531 2.4706e-16)
(156.025 25.2642 -2.33521e-16)
(151.001 23.3443 0)
(149.673 24.0577 0)
(142.669 20.7121 0)
(100.038 -1.99614 0)
(100.711 -5.50989 -1.62596e-16)
(101.913 -8.71198 1.51844e-16)
(103.571 -11.2334 0)
(105.441 -13.3886 6.70655e-17)
(107.542 -15.2815 0)
(109.588 -17.292 6.49123e-17)
(111.535 -19.536 6.65623e-17)
(113.2 -21.9955 0)
(114.596 -24.5151 0)
(115.717 -26.8951 -7.92871e-17)
(116.642 -28.9973 -8.49862e-17)
(117.477 -30.6949 -9.07866e-17)
(118.339 -31.9473 9.59514e-17)
(119.453 -32.6773 -9.96087e-17)
(121.009 -32.9223 2.01314e-16)
(123.258 -32.7497 0)
(126.076 -32.4594 9.40942e-17)
(129.31 -32.2361 -8.80983e-17)
(132.574 -32.2823 -8.17126e-17)
(135.943 -32.4795 0)
(139.261 -32.8944 0)
(142.825 -33.3235 4.06193e-21)
(146.384 -33.9365 -1.25511e-16)
(150.305 -34.4891 3.99334e-21)
(154.181 -35.2633 0)
(158.532 -35.9105 -5.32965e-17)
(162.758 -36.8542 0)
(167.621 -37.5862 -4.77841e-17)
(172.238 -38.7268 4.50288e-17)
(177.729 -39.5405 -4.28865e-17)
(182.793 -40.9226 -4.0336e-17)
(189.075 -41.8136 -3.61898e-21)
(194.656 -43.4949 -3.61443e-17)
(201.954 -44.4548 0)
(208.128 -46.5094 3.22951e-17)
(216.74 -47.5253 -6.24475e-17)
(223.58 -50.0461 0)
(233.907 -51.1097 2.78479e-17)
(241.489 -54.2199 2.47789e-17)
(254.054 -55.3632 0)
(262.362 -59.302 0)
(277.77 -60.7937 -4.20037e-21)
(286.707 -66.0381 9.17144e-21)
(305.982 -68.4071 1.76674e-17)
(315.865 -75.2313 -1.03655e-20)
(341.196 -78.6539 -1.54838e-17)
(353.782 -85.9987 0)
(389.833 -89.7094 1.31756e-17)
(409.256 -94.4794 7.99948e-19)
(460.697 -99.1226 0)
(489.163 -91.4428 0)
(558.17 -96.795 1.41146e-18)
(607.672 -2.6404 -1.39222e-18)
(558.983 46.5843 0)
(541.275 59.1977 -2.20786e-17)
(504.23 65.727 7.45852e-21)
(489.65 64.9089 0)
(462.08 67.1615 9.46646e-18)
(449.96 65.7497 -9.40358e-21)
(427.55 66.4405 0)
(415.002 63.3825 -1.02181e-17)
(394.662 61.7754 -3.21026e-17)
(381.28 57.6246 -2.8078e-17)
(363.132 55.3131 4.89889e-17)
(350.472 51.6793 -5.06873e-17)
(335.195 49.7175 7.16831e-17)
(323.987 46.9072 7.84587e-17)
(311.263 45.3275 1.99551e-16)
(301.361 43.1814 0)
(290.59 41.9534 1.32286e-16)
(281.767 40.3773 0)
(272.516 39.4808 0)
(264.615 38.3664 0)
(256.555 37.7165 0)
(249.445 36.9121 2.29563e-16)
(242.351 36.3917 -2.52727e-16)
(235.977 35.7539 -5.48611e-16)
(229.753 35.2606 -5.94034e-16)
(224.125 34.6892 0)
(218.706 34.1493 3.36923e-16)
(213.761 33.5755 0)
(208.959 32.9371 0)
(204.466 32.3281 0)
(199.968 31.5695 7.32474e-16)
(195.655 30.951 7.97106e-21)
(191.23 30.1039 6.99597e-16)
(187.011 29.5663 0)
(182.645 28.6871 -6.54706e-16)
(178.633 28.3293 3.17091e-16)
(174.385 27.4148 0)
(170.717 27.292 0)
(166.535 26.2463 2.86697e-16)
(163.318 26.379 0)
(158.962 25.0218 0)
(156.4 25.4303 0)
(151.358 23.5046 0)
(150.01 24.2312 0)
(142.973 20.8826 0)
(100.039 -2.01529 0)
(100.721 -5.55782 8.12032e-17)
(101.935 -8.78592 -7.58226e-17)
(103.61 -11.3251 0)
(105.495 -13.4927 0)
(107.613 -15.3914 0)
(109.674 -17.4001 -1.29905e-16)
(111.633 -19.6366 4.50194e-21)
(113.308 -22.0847 0)
(114.71 -24.5921 0)
(115.83 -26.9612 7.94436e-17)
(116.749 -29.0554 8.5193e-17)
(117.572 -30.7486 0)
(118.415 -32.0019 -9.63813e-17)
(119.5 -32.7391 1.00254e-16)
(121.016 -32.997 2.07118e-21)
(123.222 -32.8387 0)
(126.007 -32.5584 -9.55928e-17)
(129.227 -32.3384 8.97389e-17)
(132.489 -32.3841 -4.29959e-21)
(135.86 -32.5806 7.75015e-17)
(139.18 -32.9962 0)
(142.743 -33.427 -1.35757e-16)
(146.302 -34.0425 6.38897e-17)
(150.222 -34.5973 -6.04364e-17)
(154.097 -35.3745 5.70351e-17)
(158.447 -36.0241 1.081e-16)
(162.672 -36.9713 0)
(167.534 -37.7058 0)
(172.149 -38.8504 0)
(177.638 -39.6668 -4.33073e-17)
(182.701 -41.0539 4.07028e-17)
(188.982 -41.9477 3.88945e-17)
(194.561 -43.6352 3.64356e-17)
(201.857 -44.5982 0)
(208.028 -46.6607 -6.50752e-17)
(216.64 -47.6798 6.29215e-17)
(223.479 -50.2106 0)
(233.807 -51.2776 0)
(241.388 -54.4 0)
(253.958 -55.5464 -2.46254e-17)
(262.267 -59.4993 0)
(277.682 -60.9926 -4.29448e-21)
(286.611 -66.2527 -1.64749e-17)
(305.881 -68.622 0)
(315.724 -75.464 1.21928e-17)
(341.02 -78.8908 1.5728e-17)
(353.51 -86.2606 -7.20975e-18)
(389.518 -89.9947 -2.68808e-17)
(408.877 -94.8056 -8.17966e-19)
(460.449 -99.5121 -7.92888e-18)
(488.974 -91.887 0)
(558.291 -97.374 9.79539e-22)
(607.917 -2.63875 2.82952e-18)
(558.767 46.8411 -3.19268e-18)
(540.844 59.397 2.25116e-17)
(503.74 65.9059 1.07933e-18)
(489.21 65.0702 0)
(461.769 67.3279 -9.63319e-18)
(449.83 65.9345 -4.97054e-18)
(427.634 66.6573 0)
(415.278 63.6343 2.07583e-17)
(395.103 62.0559 -3.25071e-17)
(381.824 57.9238 0)
(363.742 55.6168 5.80348e-21)
(351.103 51.9815 0)
(335.832 50.0097 8.24144e-21)
(324.611 47.1912 -1.56927e-16)
(311.873 45.599 1.03059e-20)
(301.95 43.4451 0)
(291.161 42.2056 0)
(282.316 40.6222 0)
(273.043 39.7152 0)
(265.116 38.5935 0)
(257.029 37.9335 2.08299e-16)
(249.887 37.1213 -2.28338e-16)
(242.762 36.5905 2.51538e-16)
(236.352 35.9435 -1.14285e-20)
(230.095 35.4395 2.96506e-16)
(224.435 34.8584 0)
(218.992 34.3097 1.00652e-20)
(214.033 33.7296 3.55725e-16)
(209.234 33.0888 -3.68687e-16)
(204.761 32.4809 0)
(200.299 31.7283 1.32221e-20)
(196.029 31.1166 -3.73042e-16)
(191.649 30.2787 1.22885e-20)
(187.466 29.7462 0)
(183.126 28.8727 3.42567e-16)
(179.123 28.5142 3.3215e-16)
(174.879 27.6012 3.21764e-16)
(171.199 27.4735 0)
(167.008 26.4276 1.17785e-20)
(163.766 26.5544 0)
(159.398 25.1962 2.77921e-16)
(156.806 25.6017 2.64643e-16)
(151.748 23.6709 2.48019e-16)
(150.376 24.4094 2.31981e-16)
(143.307 21.059 2.14714e-16)
(100.04 -2.03474 0)
(100.731 -5.60633 8.11274e-17)
(101.958 -8.86066 -7.57409e-17)
(103.649 -11.4178 0)
(105.55 -13.5978 -6.70189e-17)
(107.684 -15.5023 0)
(109.76 -17.5091 6.4996e-17)
(111.734 -19.738 -1.33413e-16)
(113.418 -22.1745 7.00222e-17)
(114.825 -24.6697 0)
(115.945 -27.0276 7.96115e-17)
(116.859 -29.1136 8.54113e-17)
(117.67 -30.8024 0)
(118.494 -32.0564 -9.68247e-17)
(119.55 -32.8004 0)
(121.028 -33.0711 2.06972e-21)
(123.19 -32.927 1.01225e-16)
(125.941 -32.6568 9.71424e-17)
(129.143 -32.4404 -9.14639e-17)
(132.403 -32.4859 -4.37178e-21)
(135.777 -32.6815 -1.5837e-16)
(139.098 -33.0979 0)
(142.662 -33.5302 -4.29478e-21)
(146.219 -34.1482 0)
(150.138 -34.7054 0)
(154.012 -35.4856 -5.79654e-17)
(158.361 -36.1376 -5.48601e-17)
(162.585 -37.0883 0)
(167.446 -37.8253 0)
(172.06 -38.974 0)
(177.549 -39.7931 -3.85833e-21)
(182.609 -41.1851 -4.1084e-17)
(188.889 -42.0818 0)
(194.466 -43.7756 -3.67334e-17)
(201.761 -44.7417 0)
(207.93 -46.812 6.55916e-17)
(216.541 -47.8344 -6.34188e-17)
(223.378 -50.3751 0)
(233.708 -51.4457 -2.83214e-17)
(241.289 -54.5805 2.52435e-17)
(253.864 -55.7299 2.48627e-17)
(262.173 -59.6971 2.10837e-17)
(277.596 -61.192 2.12864e-17)
(286.518 -66.4678 1.66984e-17)
(305.785 -68.8375 -1.81487e-17)
(315.587 -75.6969 0)
(340.849 -79.1276 0)
(353.241 -86.5219 -1.3401e-20)
(389.203 -90.2792 -9.20619e-21)
(408.493 -95.1306 0)
(460.197 -99.9014 8.117e-18)
(488.782 -92.3321 0)
(558.414 -97.9557 -1.44355e-18)
(608.166 -2.63556 -1.43843e-18)
(558.547 47.1 -3.20755e-20)
(540.401 59.5956 5.31235e-21)
(503.232 66.0819 -1.08406e-18)
(488.747 65.2272 -1.72668e-17)
(461.433 67.4886 0)
(449.673 66.1132 0)
(427.694 66.8681 0)
(415.535 63.8813 1.36898e-20)
(395.529 62.3327 3.29155e-17)
(382.358 58.2207 0)
(364.347 55.9195 -4.96435e-17)
(351.734 52.2837 0)
(336.472 50.3025 -1.43892e-16)
(325.238 47.4763 -2.04445e-20)
(312.489 45.872 -1.98959e-16)
(302.546 43.7104 0)
(291.74 42.4597 1.3134e-16)
(282.873 40.8691 0)
(273.58 39.9518 -1.67371e-16)
(265.627 38.823 -1.84759e-16)
(257.515 38.1531 -4.14194e-16)
(250.343 37.3332 0)
(243.185 36.7922 0)
(236.741 36.136 5.44279e-16)
(230.451 35.6212 0)
(224.758 35.0305 3.17863e-16)
(219.29 34.4724 -6.78804e-16)
(214.315 33.8854 -3.58174e-16)
(209.515 33.2412 3.73251e-16)
(205.057 32.6335 0)
(200.629 31.8862 -7.74032e-16)
(196.401 31.281 -3.85106e-16)
(192.069 30.4526 -7.5608e-16)
(187.926 29.926 -3.68493e-16)
(183.618 29.0596 0)
(179.63 28.7014 -3.46919e-16)
(175.394 27.791 -3.36358e-16)
(171.705 27.6589 0)
(167.507 26.6136 -6.32561e-16)
(164.244 26.7345 0)
(159.864 25.3762 -2.93135e-16)
(157.244 25.7782 -5.60524e-16)
(152.17 23.8433 -2.6362e-16)
(150.772 24.5926 -2.47507e-16)
(143.674 21.2416 -2.29426e-16)
(100.041 -2.0545 0)
(100.742 -5.65543 1.34304e-20)
(101.981 -8.93623 7.56355e-17)
(103.689 -11.5114 7.06489e-17)
(105.605 -13.7039 6.69871e-17)
(107.757 -15.6142 0)
(109.848 -17.6191 0)
(111.835 -19.8403 6.67836e-17)
(113.529 -22.2651 -7.01246e-17)
(114.942 -24.7479 0)
(116.063 -27.0945 -7.97803e-17)
(116.971 -29.1722 -8.56323e-17)
(117.772 -30.8563 0)
(118.577 -32.1108 -1.75337e-21)
(119.606 -32.8614 0)
(121.044 -33.1445 -2.07047e-16)
(123.163 -33.0147 -1.02538e-16)
(125.877 -32.7549 0)
(129.061 -32.5422 -3.82198e-21)
(132.318 -32.5875 1.7398e-16)
(135.694 -32.7824 -4.36756e-21)
(139.016 -33.1994 0)
(142.58 -33.6333 7.0739e-17)
(146.136 -34.2537 -6.6426e-17)
(150.054 -34.8132 0)
(153.927 -35.5965 -5.89759e-17)
(158.275 -36.251 0)
(162.498 -37.2052 -5.24102e-17)
(167.359 -37.9447 4.9601e-17)
(171.972 -39.0976 -4.65882e-17)
(177.459 -39.9193 -3.95313e-21)
(182.518 -41.3164 4.15015e-17)
(188.796 -42.216 -3.96008e-17)
(194.371 -43.9161 0)
(201.665 -44.8852 0)
(207.832 -46.9635 -3.30644e-17)
(216.444 -47.9892 3.19683e-17)
(223.279 -50.5399 2.93025e-17)
(233.61 -51.614 2.85676e-17)
(241.191 -54.7612 -5.09653e-17)
(253.771 -55.9139 2.51183e-17)
(262.082 -59.8954 -2.13127e-17)
(277.513 -61.392 0)
(286.428 -66.6835 -3.3833e-17)
(305.692 -69.0533 -4.70446e-21)
(315.454 -75.9301 1.25957e-17)
(340.682 -79.3644 0)
(352.975 -86.7827 1.49948e-17)
(388.889 -90.5629 1.40043e-17)
(408.104 -95.4545 0)
(459.939 -100.29 0)
(488.586 -92.7782 0)
(558.539 -98.5401 0)
(608.419 -2.63079 0)
(558.323 47.3613 -3.28139e-20)
(539.948 59.7939 -2.3394e-17)
(502.706 66.2551 2.20022e-18)
(488.261 65.3797 7.51846e-21)
(461.07 67.6436 0)
(449.49 66.2857 0)
(427.729 67.0727 2.0832e-17)
(415.77 64.1231 -1.0715e-17)
(395.94 62.6055 0)
(382.882 58.5152 -2.89685e-17)
(364.947 56.221 0)
(352.362 52.5856 -5.13871e-17)
(337.112 50.5958 -8.36547e-21)
(325.869 47.7624 7.85114e-17)
(313.109 46.1462 1.98695e-16)
(303.147 43.9772 -1.09754e-16)
(292.326 42.7154 -2.61735e-16)
(283.438 41.1178 0)
(274.125 40.1903 1.66514e-16)
(266.149 39.0547 3.67466e-16)
(258.012 38.3752 -8.96484e-21)
(250.81 37.5477 2.25704e-16)
(243.622 36.9966 2.48793e-16)
(237.143 36.3315 -5.41531e-16)
(230.82 35.8059 2.94513e-16)
(225.095 35.2052 1.12991e-20)
(219.599 34.6375 -1.05623e-20)
(214.606 34.0429 -3.59785e-16)
(209.802 33.3945 -3.76741e-16)
(205.356 32.786 3.89066e-16)
(200.958 32.0432 7.90843e-16)
(196.771 31.4441 3.95943e-16)
(192.488 30.6255 3.90761e-16)
(188.388 30.1055 3.82373e-16)
(184.117 29.2471 -3.71762e-16)
(180.149 28.8903 3.61325e-16)
(175.926 27.9837 -3.50653e-16)
(172.233 27.8478 3.4109e-16)
(168.032 26.8041 6.61168e-16)
(164.749 26.9193 0)
(160.361 25.5617 0)
(157.712 25.9597 2.95698e-16)
(152.624 24.0218 0)
(151.2 24.7808 0)
(144.074 21.4306 0)
(100.043 -2.07459 0)
(100.753 -5.70514 -8.09337e-17)
(102.005 -9.01264 -7.55544e-17)
(103.731 -11.606 -7.05752e-17)
(105.662 -13.811 6.69735e-17)
(107.83 -15.7271 0)
(109.937 -17.73 0)
(111.938 -19.9435 0)
(113.642 -22.3564 -7.024e-17)
(115.06 -24.8267 -7.46337e-17)
(116.182 -27.1619 7.99613e-17)
(117.086 -29.231 -8.58655e-17)
(117.876 -30.9103 0)
(118.664 -32.1651 9.7736e-17)
(119.666 -32.9221 0)
(121.066 -33.2175 1.0452e-16)
(123.14 -33.1018 -1.0389e-16)
(125.817 -32.8524 1.00421e-16)
(128.981 -32.6438 1.90272e-16)
(132.232 -32.6891 4.50638e-21)
(135.61 -32.8832 8.28668e-17)
(138.934 -33.3008 0)
(142.497 -33.7361 7.23284e-17)
(146.052 -34.3591 6.78276e-17)
(149.969 -34.921 6.39037e-17)
(153.841 -35.7073 6.00523e-17)
(158.189 -36.3643 0)
(162.412 -37.322 5.32148e-17)
(167.272 -38.0641 -5.02929e-17)
(171.884 -39.2211 -5.15815e-21)
(177.37 -40.0455 4.47389e-17)
(182.428 -41.4477 -8.38782e-17)
(188.705 -42.3501 -3.93612e-21)
(194.278 -44.0565 0)
(201.571 -45.0288 0)
(207.736 -47.115 3.33564e-17)
(216.347 -48.1441 0)
(223.181 -50.7048 -5.91202e-17)
(233.514 -51.7826 -2.88329e-17)
(241.094 -54.9422 2.57317e-17)
(253.68 -56.0982 -2.53755e-17)
(261.993 -60.0941 0)
(277.433 -61.5926 2.18047e-17)
(286.342 -66.8998 3.42967e-17)
(305.603 -69.2698 1.86609e-17)
(315.326 -76.1636 1.12897e-20)
(340.519 -79.6011 0)
(352.713 -87.043 -7.64597e-18)
(388.576 -90.8458 1.43136e-17)
(407.712 -95.7774 0)
(459.676 -100.679 0)
(488.388 -93.2252 0)
(558.666 -99.1272 -1.48149e-18)
(608.676 -2.6244 0)
(558.095 47.6251 3.44819e-18)
(539.483 59.9918 0)
(502.163 66.4256 -1.11625e-18)
(487.753 65.5279 1.78499e-17)
(460.682 67.7928 0)
(449.279 66.4518 0)
(427.738 67.2709 -2.11693e-17)
(415.984 64.3593 0)
(396.334 62.874 0)
(383.394 58.8069 2.92565e-17)
(365.54 56.5209 5.03551e-17)
(352.987 52.8872 5.16154e-17)
(337.752 50.8893 7.22568e-17)
(326.502 48.0492 0)
(313.733 46.4215 -9.92249e-17)
(303.754 44.2453 1.09481e-16)
(292.918 42.9727 1.3041e-16)
(284.01 41.3682 1.44183e-16)
(274.68 40.4308 0)
(266.68 39.2884 -1.82708e-16)
(258.519 38.5995 -8.99777e-21)
(251.288 37.7646 -2.24303e-16)
(244.07 37.2037 -2.47281e-16)
(237.558 36.5296 -1.15979e-20)
(231.201 35.9933 -5.8628e-16)
(225.444 35.3827 1.14184e-20)
(219.921 34.8049 -1.07525e-20)
(214.907 34.2023 3.60624e-16)
(210.096 33.5489 3.79221e-16)
(205.658 32.9386 -3.93692e-16)
(201.286 32.1993 -4.02522e-16)
(197.139 31.6057 0)
(192.904 30.7969 0)
(188.85 30.284 3.95461e-16)
(184.621 29.4347 -1.31844e-20)
(180.678 29.0803 -3.75297e-16)
(176.473 28.1786 -1.27241e-20)
(172.779 28.0398 -3.54965e-16)
(168.58 26.9985 -3.44485e-16)
(165.28 27.1083 0)
(160.885 25.7523 3.22613e-16)
(158.209 26.1462 0)
(153.111 24.2063 0)
(151.658 24.9739 0)
(144.508 21.626 0)
(100.044 -2.095 0)
(100.765 -5.75548 0)
(102.03 -9.08989 1.50911e-16)
(103.772 -11.7015 0)
(105.719 -13.9191 -6.69466e-17)
(107.905 -15.841 0)
(110.028 -17.8419 0)
(112.042 -20.0476 6.69604e-17)
(113.757 -22.4485 7.03529e-17)
(115.181 -24.9062 1.49561e-16)
(116.304 -27.2297 -8.01438e-17)
(117.204 -29.2902 8.61018e-17)
(117.984 -30.9645 -9.23336e-17)
(118.755 -32.2193 0)
(119.73 -32.9825 0)
(121.093 -33.2899 0)
(123.123 -33.1884 1.0527e-16)
(125.76 -32.9496 -2.04273e-16)
(128.902 -32.7452 -9.70857e-17)
(132.147 -32.7905 -9.09811e-17)
(135.526 -32.9839 -8.48767e-17)
(138.851 -33.402 0)
(142.414 -33.8389 -7.4019e-17)
(145.968 -34.4643 0)
(149.884 -35.0285 -6.52294e-17)
(153.756 -35.8179 0)
(158.103 -36.4775 0)
(162.325 -37.4387 0)
(167.185 -38.1834 5.10449e-17)
(171.796 -39.3446 4.78167e-17)
(177.281 -40.1717 0)
(182.338 -41.5789 4.24066e-17)
(188.614 -42.4843 8.07899e-17)
(194.185 -44.197 -3.77628e-17)
(201.477 -45.1725 0)
(207.64 -47.2666 -6.73083e-17)
(216.251 -48.2992 0)
(223.084 -50.8699 5.96659e-17)
(233.419 -51.9514 5.82063e-17)
(240.999 -55.1235 2.60029e-17)
(253.591 -56.283 2.56519e-17)
(261.906 -60.2933 0)
(277.355 -61.7937 4.68579e-21)
(286.259 -67.1167 1.01017e-20)
(305.518 -69.4867 0)
(315.203 -76.3975 -2.60288e-17)
(340.361 -79.8379 0)
(352.455 -87.303 0)
(388.265 -91.1279 -1.46143e-17)
(407.315 -96.0991 8.1414e-19)
(459.407 -101.067 0)
(488.185 -93.6731 0)
(558.794 -99.717 -1.41382e-21)
(608.938 -2.61637 1.52975e-18)
(557.866 47.8916 0)
(539.009 60.1896 0)
(501.603 66.5936 1.12135e-18)
(487.223 65.6719 0)
(460.267 67.9361 -1.02768e-17)
(449.04 66.6113 0)
(427.719 67.4623 2.15026e-17)
(416.173 64.5897 0)
(396.708 63.138 0)
(383.892 59.0956 -2.95888e-17)
(366.124 56.8191 -5.07203e-17)
(353.607 53.188 0)
(338.391 51.183 7.24454e-17)
(327.135 48.3367 -7.8644e-17)
(314.36 46.6978 9.91362e-17)
(304.365 44.5146 -1.09267e-16)
(293.516 43.2314 0)
(284.589 41.6202 -2.87152e-16)
(275.241 40.6731 0)
(267.219 39.5241 -1.81719e-16)
(259.036 38.8259 2.03392e-16)
(251.777 37.9839 0)
(244.529 37.4133 2.45737e-16)
(237.984 36.7304 2.67644e-16)
(231.595 36.1834 5.83192e-16)
(225.804 35.5627 -6.29907e-16)
(220.253 34.9748 6.77264e-16)
(215.217 34.3635 3.60848e-16)
(210.397 33.7044 3.80858e-16)
(205.963 33.0914 -3.97251e-16)
(201.613 32.3547 -4.08404e-16)
(197.502 31.7659 0)
(193.316 30.9666 0)
(189.31 30.4611 -4.07643e-16)
(185.126 29.6219 7.97288e-16)
(181.213 29.2708 -3.88778e-16)
(177.031 28.3754 7.56123e-16)
(173.342 28.2344 0)
(169.148 27.1966 -3.57984e-16)
(165.834 27.3013 0)
(161.436 25.9478 -6.73338e-16)
(158.735 26.3373 0)
(153.628 24.3967 0)
(152.147 25.172 0)
(144.976 21.8279 0)
(100.046 -2.11575 0)
(100.776 -5.80645 8.07646e-17)
(102.054 -9.16801 -1.50727e-16)
(103.815 -11.798 0)
(105.778 -14.0282 0)
(107.981 -15.956 0)
(110.119 -17.9547 0)
(112.148 -20.1525 4.66659e-21)
(113.873 -22.5413 0)
(115.304 -24.9862 -7.49342e-17)
(116.428 -27.2981 0)
(117.325 -29.3498 -8.63511e-17)
(118.095 -31.019 -1.97099e-21)
(118.85 -32.2737 -9.86888e-17)
(119.8 -33.0427 0)
(121.126 -33.3619 0)
(123.111 -33.2744 1.06684e-16)
(125.708 -33.0463 1.03903e-16)
(128.825 -32.8464 -9.91155e-17)
(132.062 -32.8919 -9.31277e-17)
(135.442 -33.0845 1.73985e-16)
(138.768 -33.5031 0)
(142.331 -33.9414 7.58352e-17)
(145.884 -34.5693 0)
(149.799 -35.1359 -6.66625e-17)
(153.67 -35.9284 0)
(158.017 -36.5905 0)
(162.238 -37.5552 0)
(167.098 -38.3026 -5.18437e-17)
(171.708 -39.468 4.85071e-17)
(177.193 -40.2979 0)
(182.248 -41.7102 -4.29143e-17)
(188.523 -42.6185 4.11891e-21)
(194.093 -44.3376 7.62869e-17)
(201.384 -45.3163 0)
(207.546 -47.4184 6.79415e-17)
(216.157 -48.4544 0)
(222.988 -51.0352 7.10054e-21)
(233.325 -52.1205 -2.9385e-17)
(240.905 -55.3051 -2.62688e-17)
(253.504 -56.4682 4.54656e-21)
(261.821 -60.4931 2.20926e-17)
(277.28 -61.9955 -2.23557e-17)
(286.179 -67.3342 -1.76349e-17)
(305.437 -69.7042 0)
(315.084 -76.6318 1.32333e-17)
(340.208 -80.0748 0)
(352.201 -87.5627 0)
(387.955 -91.4094 -1.49455e-17)
(406.915 -96.4197 -1.6508e-18)
(459.133 -101.455 0)
(487.979 -94.1218 0)
(558.925 -100.31 1.52083e-18)
(609.205 -2.60667 -1.5559e-18)
(557.635 48.1609 0)
(538.526 60.3874 -2.48074e-17)
(501.027 66.759 -7.38013e-21)
(486.672 65.8117 0)
(459.825 68.0737 2.08719e-17)
(448.771 66.7642 0)
(427.672 67.6468 -2.18368e-17)
(416.336 64.814 0)
(397.063 63.397 0)
(384.376 59.3809 5.98017e-17)
(366.699 57.1153 0)
(354.222 53.4879 0)
(339.028 51.4765 -7.26337e-17)
(327.769 48.6246 -2.05952e-20)
(314.989 46.975 -9.90467e-17)
(304.979 44.7849 -2.00649e-20)
(294.118 43.4914 0)
(285.173 41.8737 1.42992e-16)
(275.809 40.917 0)
(267.766 39.7616 1.80718e-16)
(259.56 39.0545 0)
(252.274 38.2053 2.21502e-16)
(244.999 37.6253 -2.44148e-16)
(238.422 36.9337 0)