/*--------------------------------*- C++ -*----------------------------------*\
| =========                 |                                                 |
| \\      /  F ield         | OpenFOAM: The Open Source CFD Toolbox           |
|  \\    /   O peration     | Version:  2412                                  |
|   \\  /    A nd           | Website:  www.openfoam.com                      |
|    \\/     M anipulation  |                                                 |
\*---------------------------------------------------------------------------*/
FoamFile
{
    version     2.0;
    format      ascii;
    arch        "LSB;label=32;scalar=64";
    class       volScalarField;
    location    "0.8";
    object      epsilon;
}
// * * * * * * * * * * * * * * * * * * * * * * * * * * * * * * * * * * * * * //

dimensions      [0 2 -3 0 0 0 0];

internalField   nonuniform List<scalar> 
13068
(
376.641
376.815
379.102
385.9
403.111
443.307
526.948
675.608
896.479
1168.15
1444.29
1676.94
1837.95
1925.81
1955.94
1951.01
1930.12
1908.21
1892.7
1889.35
1898.98
1924.45
1963.95
2020.36
2090.51
2179.16
2281.92
2407.08
2548.09
2718.83
2908.73
3140.87
3397.53
3717.64
4071.07
4524.88
5026.85
5695.35
6440.12
7477.43
8649.44
10351.4
12278.4
15105.2
18166.4
22445.5
26558.8
31629.9
35849.1
39268.6
41124.2
34565.1
27029.9
14504.8
9308.57
7367.35
8144.72
9771.42
11788.6
12416
12521.6
11664.1
10747.7
9545.81
8543.49
7543.16
6769.5
6067.14
5536.28
5067.35
4708.53
4390.77
4139.39
3911.52
3719.45
3536.9
3369.45
3203.18
3041.46
2880.13
2721.62
2568.03
2419.8
2282.05
2151.72
2035.03
1924.86
1828.34
1734.87
1653.15
1569.95
1496.06
1416.6
1344.28
1263.7
1188.77
1104.95
1027.23
944.825
376.642
376.817
379.105
385.904
403.117
443.315
526.952
675.599
896.452
1168.11
1444.27
1676.96
1838.02
1925.93
1956.09
1951.18
1930.29
1908.37
1892.85
1889.5
1899.14
1924.6
1964.11
2020.52
2090.67
2179.33
2282.1
2407.27
2548.3
2719.05
2908.98
3141.15
3397.84
3717.99
4071.48
4525.34
5027.36
5695.9
6440.7
7478.06
8650.15
10352.3
12279.5
15106.6
18168.5
22448.5
26562.7
31634.7
35854.1
39273.4
41128.3
34568.7
27033.9
14507.5
9310.31
7368.48
8145.31
9771.53
11788.8
12416.7
12522.7
11665.3
10748.9
9546.91
8544.55
7544.17
6770.41
6067.93
5536.98
5067.98
4709.13
4391.33
4139.92
3912.02
3719.91
3537.33
3369.85
3203.55
3041.81
2880.46
2721.94
2568.34
2420.1
2282.34
2152.01
2035.32
1925.16
1828.65
1735.19
1653.48
1570.29
1496.41
1416.94
1344.6
1264
1189.03
1105.16
1027.39
944.915
376.643
376.819
379.109
385.912
403.13
443.335
526.976
675.615
896.448
1168.09
1444.25
1676.97
1838.09
1926.05
1956.24
1951.33
1930.44
1908.52
1893
1889.64
1899.27
1924.74
1964.25
2020.67
2090.83
2179.5
2282.28
2407.46
2548.5
2719.28
2909.22
3141.42
3398.15
3718.35
4071.89
4525.8
5027.86
5696.44
6441.27
7478.68
8650.83
10353.1
12280.5
15108.1
18170.5
22451.5
26566.7
31639.7
35859.4
39278.7
41133.1
34573
27038.9
14510.9
9312.7
7370.26
8146.42
9772.02
11789.2
12417.5
12523.9
11666.6
10750
9548.02
8545.61
7545.18
6771.32
6068.72
5537.67
5068.62
4709.72
4391.89
4140.45
3912.52
3720.39
3537.78
3370.26
3203.93
3042.17
2880.81
2722.27
2568.67
2420.42
2282.65
2152.31
2035.62
1925.46
1828.96
1735.52
1653.83
1570.64
1496.77
1417.3
1344.95
1264.32
1189.31
1105.4
1027.57
945.032
376.645
376.822
379.115
385.922
403.149
443.367
527.021
675.66
896.472
1168.09
1444.25
1676.99
1838.15
1926.15
1956.36
1951.46
1930.56
1908.63
1893.11
1889.75
1899.39
1924.86
1964.37
2020.8
2090.97
2179.65
2282.44
2407.64
2548.69
2719.48
2909.45
3141.68
3398.45
3718.7
4072.28
4526.24
5028.33
5696.94
6441.8
7479.24
8651.45
10353.8
12281.5
15109.4
18172.5
22454.4
26570.7
31644.7
35864.6
39284.1
41138.2
34577.8
27044.6
14515
9315.63
7372.57
8148
9772.82
11789.9
12418.4
12525.1
11667.8
10751.2
9549.04
8546.6
7546.12
6772.18
6069.47
5538.32
5069.21
4710.28
4392.43
4140.96
3913
3720.84
3538.21
3370.67
3204.31
3042.53
2881.15
2722.61
2568.99
2420.73
2282.95
2152.61
2035.91
1925.77
1829.28
1735.85
1654.17
1571
1497.14
1417.66
1345.3
1264.66
1189.61
1105.66
1027.77
945.169
376.646
376.827
379.122
385.936
403.175
443.413
527.088
675.733
896.526
1168.11
1444.25
1677.01
1838.2
1926.23
1956.46
1951.56
1930.65
1908.71
1893.19
1889.83
1899.47
1924.95
1964.47
2020.91
2091.09
2179.78
2282.58
2407.79
2548.86
2719.67
2909.66
3141.91
3398.72
3719.01
4072.64
4526.64
5028.77
5697.39
6442.26
7479.73
8651.98
10354.5
12282.3
15110.7
18174.3
22457.2
26574.5
31649.6
35869.7
39289.5
41143.4
34583
27051.1
14519.7
9319.03
7375.37
8150.01
9773.9
11790.6
12419.4
12526.3
11668.9
10752.2
9549.95
8547.49
7546.98
6772.95
6070.14
5538.9
5069.74
4710.78
4392.91
4141.43
3913.46
3721.28
3538.62
3371.06
3204.68
3042.88
2881.49
2722.93
2569.3
2421.03
2283.25
2152.9
2036.2
1926.06
1829.59
1736.17
1654.51
1571.36
1497.51
1418.03
1345.67
1265
1189.92
1105.93
1027.99
945.323
376.649
376.831
379.131
385.953
403.208
443.473
527.178
675.837
896.611
1168.15
1444.26
1677.02
1838.24
1926.29
1956.53
1951.62
1930.71
1908.76
1893.23
1889.88
1899.52
1925.01
1964.54
2020.99
2091.18
2179.88
2282.7
2407.93
2549.01
2719.83
2909.85
3142.12
3398.96
3719.29
4072.97
4527
5029.15
5697.79
6442.66
7480.14
8652.42
10355
12283
15111.7
18176
22459.9
26578.1
31654.2
35874.5
39294.8
41148.8
34588.6
27058.2
14524.9
9322.9
7378.66
8152.44
9775.25
11791.5
12420.4
12527.4
11669.9
10753
9550.73
8548.26
7547.74
6773.64
6070.72
5539.41
5070.21
4711.23
4393.35
4141.86
3913.88
3721.68
3539.01
3371.43
3205.03
3043.22
2881.81
2723.25
2569.61
2421.33
2283.53
2153.18
2036.48
1926.34
1829.89
1736.49
1654.85
1571.71
1497.87
1418.4
1346.03
1265.35
1190.24
1106.21
1028.22
945.494
376.651
376.837
379.142
385.973
403.247
443.546
527.291
675.972
896.727
1168.22
1444.29
1677.04
1838.26
1926.33
1956.57
1951.66
1930.73
1908.77
1893.24
1889.89
1899.54
1925.04
1964.59
2021.05
2091.25
2179.97
2282.8
2408.03
2549.13
2719.97
2910
3142.31
3399.18
3719.54
4073.25
4527.32
5029.49
5698.13
6443
7480.47
8652.76
10355.4
12283.6
15112.7
18177.5
22462.3
26581.5
31658.7
35879.2
39300.1
41154.3
34594.4
27066
14530.7
9327.23
7382.42
8155.28
9776.87
11792.6
12421.4
12528.4
11670.9
10753.8
9551.38
8548.91
7548.39
6774.23
6071.23
5539.85
5070.6
4711.62
4393.74
4142.24
3914.26
3722.06
3539.37
3371.77
3205.36
3043.54
2882.12
2723.55
2569.9
2421.61
2283.8
2153.44
2036.75
1926.62
1830.18
1736.8
1655.18
1572.06
1498.24
1418.77
1346.4
1265.71
1190.57
1106.5
1028.46
945.68
376.654
376.844
379.154
385.996
403.294
443.633
527.427
676.136
896.873
1168.31
1444.32
1677.05
1838.28
1926.35
1956.59
1951.66
1930.71
1908.74
1893.2
1889.86
1899.53
1925.04
1964.6
2021.08
2091.3
2180.03
2282.87
2408.12
2549.23
2720.09
2910.14
3142.46
3399.36
3719.76
4073.51
4527.6
5029.78
5698.41
6443.26
7480.72
8653
10355.7
12284
15113.4
18178.9
22464.6
26584.8
31663
35883.7
39305.2
41159.8
34600.5
27074.3
14537
9332.01
7386.65
8158.53
9778.77
11793.8
12422.4
12529.4
11671.7
10754.4
9551.9
8549.43
7548.93
6774.73
6071.65
5540.2
5070.94
4711.95
4394.07
4142.58
3914.6
3722.4
3539.7
3372.1
3205.68
3043.84
2882.42
2723.84
2570.18
2421.87
2284.06
2153.69
2037
1926.88
1830.46
1737.1
1655.51
1572.41
1498.6
1419.15
1346.78
1266.07
1190.91
1106.81
1028.73
945.882
376.657
376.851
379.168
386.023
403.348
443.733
527.586
676.331
897.05
1168.42
1444.36
1677.05
1838.28
1926.36
1956.58
1951.63
1930.66
1908.68
1893.14
1889.8
1899.48
1925.01
1964.59
2021.09
2091.32
2180.06
2282.92
2408.18
2549.3
2720.17
2910.24
3142.59
3399.51
3719.94
4073.72
4527.83
5030.02
5698.64
6443.46
7480.88
8653.14
10355.8
12284.3
15114.1
18180.1
22466.7
26587.8
31667.1
35887.9
39310.2
41165.4
34606.9
27083.3
14543.8
9337.25
7391.36
8162.2
9780.94
11795.1
12423.4
12530.3
11672.4
10754.8
9552.29
8549.84
7549.37
6775.13
6071.99
5540.49
5071.2
4712.22
4394.36
4142.88
3914.91
3722.71
3540.01
3372.4
3205.97
3044.13
2882.7
2724.11
2570.44
2422.13
2284.3
2153.93
2037.24
1927.13
1830.73
1737.39
1655.83
1572.75
1498.97
1419.52
1347.16
1266.44
1191.26
1107.13
1029
946.1
376.661
376.859
379.184
386.053
403.408
443.847
527.767
676.557
897.258
1168.55
1444.41
1677.06
1838.27
1926.34
1956.55
1951.56
1930.57
1908.57
1893.03
1889.71
1899.4
1924.95
1964.55
2021.06
2091.31
2180.07
2282.94
2408.22
2549.35
2720.24
2910.32
3142.69
3399.64
3720.09
4073.9
4528.03
5030.21
5698.8
6443.58
7480.95
8653.18
10355.9
12284.5
15114.6
18181.1
22468.6
26590.7
31671
35891.9
39315.1
41171.1
34613.6
27093
14551.2
9342.95
7396.54
8166.28
9783.38
11796.6
12424.5
12531.2
11672.9
10755.2
9552.54
8550.13
7549.7
6775.44
6072.25
5540.69
5071.4
4712.43
4394.59
4143.14
3915.18
3722.99
3540.29
3372.68
3206.25
3044.4
2882.97
2724.37
2570.69
2422.37
2284.54
2154.16
2037.47
1927.38
1830.99
1737.68
1656.14
1573.09
1499.33
1419.9
1347.54
1266.82
1191.62
1107.46
1029.29
946.334
376.665
376.868
379.201
386.086
403.475
443.975
527.972
676.812
897.496
1168.71
1444.47
1677.06
1838.25
1926.3
1956.48
1951.47
1930.44
1908.43
1892.89
1889.58
1899.29
1924.86
1964.48
2021.01
2091.28
2180.06
2282.94
2408.23
2549.38
2720.28
2910.37
3142.76
3399.73
3720.21
4074.04
4528.18
5030.35
5698.91
6443.64
7480.95
8653.11
10355.8
12284.5
15114.9
18182
22470.4
26593.3
31674.7
35895.7
39320
41176.9
34620.6
27103.3
14559.1
9349.12
7402.21
8170.78
9786.11
11798.2
12425.6
12532
11673.4
10755.4
9552.67
8550.3
7549.93
6775.66
6072.42
5540.83
5071.53
4712.58
4394.77
4143.35
3915.42
3723.24
3540.55
3372.93
3206.5
3044.66
2883.22
2724.62
2570.93
2422.6
2284.76
2154.38
2037.69
1927.61
1831.24
1737.95
1656.45
1573.43
1499.69
1420.28
1347.93
1267.2
1191.99
1107.8
1029.6
946.584
376.669
376.878
379.219
386.123
403.55
444.116
528.199
677.098
897.765
1168.88
1444.55
1677.06
1838.22
1926.25
1956.39
1951.34
1930.28
1908.25
1892.71
1889.41
1899.14
1924.74
1964.39
2020.94
2091.23
2180.02
2282.92
2408.22
2549.38
2720.29
2910.4
3142.8
3399.79
3720.3
4074.14
4528.28
5030.44
5698.96
6443.62
7480.86
8652.95
10355.6
12284.4
15115.1
18182.7
22472
26595.7
31678.2
35899.3
39324.7
41182.9
34627.9
27114.3
14567.6
9355.76
7408.36
8175.71
9789.12
11800
12426.7
12532.7
11673.8
10755.5
9552.67
8550.36
7550.05
6775.79
6072.51
5540.89
5071.59
4712.67
4394.9
4143.51
3915.62
3723.46
3540.78
3373.17
3206.74
3044.89
2883.46
2724.85
2571.16
2422.81
2284.96
2154.58
2037.9
1927.83
1831.48
1738.22
1656.75
1573.76
1500.05
1420.65
1348.32
1267.59
1192.37
1108.15
1029.92
946.85
376.674
376.889
379.24
386.163
403.631
444.271
528.448
677.413
898.063
1169.08
1444.63
1677.06
1838.17
1926.17
1956.28
1951.18
1930.09
1908.04
1892.5
1889.21
1898.97
1924.59
1964.26
2020.84
2091.15
2179.96
2282.87
2408.19
2549.36
2720.28
2910.4
3142.81
3399.83
3720.35
4074.21
4528.35
5030.48
5698.95
6443.54
7480.68
8652.69
10355.3
12284.1
15115.1
18183.2
22473.4
26598
31681.5
35902.7
39329.4
41188.9
34635.6
27125.9
14576.7
9362.88
7415.01
8181.08
9792.43
11801.9
12427.9
12533.5
11674.1
10755.4
9552.56
8550.3
7550.08
6775.83
6072.53
5540.88
5071.59
4712.7
4394.98
4143.64
3915.78
3723.65
3540.98
3373.38
3206.96
3045.12
2883.68
2725.07
2571.37
2423.02
2285.16
2154.77
2038.09
1928.04
1831.71
1738.49
1657.05
1574.09
1500.41
1421.04
1348.71
1267.99
1192.76
1108.52
1030.25
947.132
376.679
376.901
379.262
386.206
403.719
444.44
528.721
677.759
898.393
1169.31
1444.72
1677.06
1838.12
1926.08
1956.14
1950.99
1929.86
1907.79
1892.25
1888.97
1898.76
1924.4
1964.11
2020.71
2091.05
2179.87
2282.8
2408.13
2549.31
2720.24
2910.38
3142.8
3399.83
3720.36
4074.24
4528.37
5030.48
5698.88
6443.39
7480.42
8652.33
10354.9
12283.7
15115
18183.6
22474.7
26600.1
31684.6
35905.8
39334
41195
34643.6
27138.3
14586.4
9370.5
7422.16
8186.88
9796.04
11804
12429.2
12534.2
11674.3
10755.3
9552.32
8550.13
7550.01
6775.79
6072.46
5540.79
5071.52
4712.68
4395.02
4143.73
3915.91
3723.81
3541.16
3373.57
3207.16
3045.33
2883.89
2725.28
2571.57
2423.21
2285.34
2154.95
2038.28
1928.23
1831.94
1738.74
1657.34
1574.41
1500.77
1421.42
1349.11
1268.39
1193.15
1108.9
1030.6
947.43
376.685
376.913
379.285
386.253
403.815
444.622
529.016
678.134
898.752
1169.55
1444.82
1677.05
1838.05
1925.96
1955.97
1950.77
1929.59
1907.5
1891.96
1888.7
1898.51
1924.19
1963.93
2020.56
2090.92
2179.76
2282.71
2408.05
2549.24
2720.18
2910.33
3142.76
3399.8
3720.35
4074.23
4528.35
5030.42
5698.76
6443.16
7480.08
8651.88
10354.4
12283.2
15114.7
18183.8
22475.8
26602
31687.5
35908.8
39338.5
41201.3
34652
27151.3
14596.7
9378.62
7429.81
8193.13
9799.95
11806.2
12430.5
12534.8
11674.4
10755
9551.97
8549.86
7549.85
6775.66
6072.32
5540.64
5071.4
4712.6
4395
4143.77
3916
3723.94
3541.32
3373.74
3207.35
3045.52
2884.09
2725.47
2571.76
2423.39
2285.51
2155.12
2038.45
1928.42
1832.15
1738.99
1657.62
1574.73
1501.13
1421.8
1349.52
1268.8
1193.56
1109.29
1030.96
947.745
376.69
376.927
379.31
386.303
403.917
444.818
529.333
678.539
899.141
1169.82
1444.93
1677.05
1837.97
1925.83
1955.78
1950.52
1929.29
1907.17
1891.63
1888.4
1898.24
1923.95
1963.72
2020.38
2090.76
2179.63
2282.59
2407.94
2549.14
2720.09
2910.25
3142.69
3399.75
3720.3
4074.18
4528.29
5030.32
5698.58
6442.87
7479.66
8651.32
10353.7
12282.6
15114.3
18183.8
22476.7
26603.7
31690.3
35911.6
39343
41207.7
34660.8
27165.1
14607.5
9387.24
7437.99
8199.84
9804.19
11808.7
12431.8
12535.5
11674.5
10754.7
9551.5
8549.48
7549.59
6775.45
6072.11
5540.42
5071.21
4712.47
4394.94
4143.77
3916.06
3724.04
3541.45
3373.9
3207.51
3045.7
2884.27
2725.66
2571.94
2423.56
2285.67
2155.27
2038.61
1928.6
1832.36
1739.23
1657.9
1575.05
1501.48
1422.19
1349.93
1269.22
1193.98
1109.69
1031.34
948.076
376.697
376.941
379.337
386.356
404.026
445.028
529.673
678.974
899.56
1170.1
1445.05
1677.04
1837.89
1925.68
1955.57
1950.24
1928.96
1906.81
1891.27
1888.06
1897.93
1923.68
1963.48
2020.17
2090.58
2179.47
2282.45
2407.81
2549.03
2719.98
2910.14
3142.59
3399.66
3720.22
4074.1
4528.18
5030.16
5698.33
6442.52
7479.15
8650.67
10352.9
12281.8
15113.7
18183.7
22477.4
26605.2
31692.9
35914.2
39347.4
41214.3
34669.9
27179.6
14619
9396.39
7446.69
8207.02
9808.75
11811.3
12433.3
12536.1
11674.4
10754.2
9550.94
8549
7549.24
6775.15
6071.82
5540.13
5070.96
4712.28
4394.83
4143.73
3916.09
3724.11
3541.55
3374.03
3207.66
3045.86
2884.44
2725.83
2572.1
2423.71
2285.82
2155.42
2038.77
1928.77
1832.56
1739.46
1658.18
1575.37
1501.84
1422.57
1350.34
1269.65
1194.41
1110.11
1031.74
948.424
376.703
376.956
379.366
386.412
404.142
445.251
530.036
679.439
900.009
1170.41
1445.18
1677.03
1837.79
1925.52
1955.33
1949.92
1928.59
1906.42
1890.88
1887.68
1897.59
1923.38
1963.21
2019.94
2090.38
2179.29
2282.28
2407.66
2548.88
2719.84
2910.02
3142.47
3399.54
3720.1
4073.98
4528.04
5029.96
5698.03
6442.09
7478.56
8649.91
10352.1
12280.9
15113
18183.4
22478
26606.5
31695.3
35916.6
39351.7
41221
34679.4
27194.9
14631.2
9406.07
7455.93
8214.68
9813.65
11814.1
12434.8
12536.7
11674.3
10753.6
9550.26
8548.42
7548.8
6774.78
6071.46
5539.78
5070.65
4712.05
4394.67
4143.66
3916.08
3724.15
3541.64
3374.14
3207.8
3046.01
2884.6
2725.99
2572.26
2423.86
2285.96
2155.55
2038.91
1928.93
1832.75
1739.69
1658.45
1575.68
1502.2
1422.96
1350.76
1270.08
1194.85
1110.54
1032.15
948.789
376.71
376.972
379.396
386.472
404.265
445.488
530.421
679.933
900.488
1170.75
1445.32
1677.02
1837.68
1925.33
1955.06
1949.58
1928.18
1905.98
1890.44
1887.27
1897.22
1923.04
1962.92
2019.68
2090.15
2179.08
2282.1
2407.48
2548.72
2719.68
2909.86
3142.32
3399.39
3719.96
4073.83
4527.85
5029.71
5697.68
6441.59
7477.89
8649.06
10351.1
12279.8
15112.1
18183
22478.5
26607.7
31697.5
35918.8
39356.1
41227.9
34689.4
27211
14644
9416.3
7465.72
8222.83
9818.89
11817.2
12436.4
12537.3
11674.2
10753
9549.49
8547.75
7548.28
6774.33
6071.03
5539.36
5070.29
4711.75
4394.47
4143.54
3916.04
3724.17
3541.7
3374.23
3207.91
3046.15
2884.75
2726.14
2572.4
2423.99
2286.08
2155.68
2039.04
1929.08
1832.93
1739.91
1658.72
1575.99
1502.55
1423.35
1351.18
1270.52
1195.3
1110.98
1032.58
949.171
376.717
376.988
379.428
386.535
404.395
445.738
530.829
680.456
900.996
1171.1
1445.47
1677
1837.56
1925.13
1954.77
1949.21
1927.75
1905.51
1889.98
1886.83
1896.81
1922.68
1962.6
2019.4
2089.89
2178.85
2281.88
2407.28
2548.53
2719.5
2909.68
3142.14
3399.22
3719.77
4073.63
4527.61
5029.41
5697.26
6441.03
7477.14
8648.12
10349.9
12278.7
15111.2
18182.5
22478.8
26608.7
31699.6
35920.8
39360.3
41235
34699.7
27227.9
14657.4
9427.09
7476.08
8231.47
9824.5
11820.5
12438.1
12538
11674
10752.2
9548.63
8546.99
7547.68
6773.8
6070.53
5538.89
5069.86
4711.41
4394.23
4143.39
3915.97
3724.16
3541.73
3374.3
3208.02
3046.27
2884.88
2726.27
2572.53
2424.12
2286.2
2155.79
2039.16
1929.22
1833.1
1740.12
1658.98
1576.3
1502.91
1423.75
1351.61
1270.97
1195.76
1111.44
1033.02
949.57
376.725
377.006
379.461
386.602
404.532
446.002
531.259
681.009
901.534
1171.47
1445.63
1676.99
1837.43
1924.91
1954.46
1948.8
1927.27
1905.01
1889.47
1886.35
1896.37
1922.29
1962.25
2019.09
2089.62
2178.59
2281.65
2407.06
2548.31
2719.29
2909.47
3141.93
3399.01
3719.56
4073.4
4527.34
5029.06
5696.79
6440.39
7476.3
8647.07
10348.7
12277.4
15110
18181.7
22478.9
26609.5
31701.5
35922.7
39364.6
41242.3
34710.5
27245.5
14671.6
9438.45
7487.01
8240.64
9830.48
11824
12439.9
12538.6
11673.7
10751.4
9547.68
8546.14
7547
6773.21
6069.97
5538.35
5069.38
4711.02
4393.94
4143.2
3915.87
3724.12
3541.75
3374.36
3208.1
3046.38
2885
2726.4
2572.65
2424.23
2286.3
2155.89
2039.27
1929.35
1833.27
1740.33
1659.23
1576.6
1503.27
1424.14
1352.04
1271.43
1196.23
1111.91
1033.48
949.986
376.733
377.025
379.496
386.671
404.676
446.28
531.711
681.592
902.101
1171.87
1445.8
1676.97
1837.29
1924.67
1954.13
1948.37
1926.77
1904.47
1888.93
1885.84
1895.91
1921.87
1961.88
2018.75
2089.31
2178.31
2281.39
2406.81
2548.07
2719.05
2909.24
3141.69
3398.77
3719.31
4073.14
4527.02
5028.66
5696.26
6439.69
7475.39
8645.93
10347.4
12275.9
15108.7
18180.9
22478.9
26610.2
31703.3
35924.4
39368.8
41249.7
34721.7
27264.1
14686.4
9450.4
7498.54
8250.33
9836.85
11827.7
12441.8
12539.3
11673.4
10750.5
9546.65
8545.21
7546.24
6772.54
6069.35
5537.75
5068.85
4710.58
4393.61
4142.98
3915.73
3724.06
3541.74
3374.39
3208.17
3046.47
2885.11
2726.51
2572.76
2424.33
2286.39
2155.98
2039.37
1929.48
1833.43
1740.53
1659.49
1576.91
1503.62
1424.54
1352.48
1271.89
1196.71
1112.39
1033.95
950.419
376.742
377.044
379.533
386.745
404.827
446.571
532.186
682.203
902.697
1172.29
1445.98
1676.96
1837.15
1924.42
1953.77
1947.91
1926.23
1903.89
1888.36
1885.3
1895.41
1921.42
1961.47
2018.39
2088.98
2178.01
2281.1
2406.54
2547.81
2718.79
2908.98
3141.43
3398.5
3719.03
4072.83
4526.66
5028.21
5695.67
6438.93
7474.39
8644.7
10345.9
12274.4
15107.3
18179.8
22478.7
26610.7
31704.8
35926
39373
41257.4
34733.4
27283.4
14701.9
9462.95
7510.67
8260.56
9843.61
11831.7
12443.9
12540
11673.1
10749.6
9545.53
8544.21
7545.41
6771.81
6068.66
5537.1
5068.27
4710.1
4393.24
4142.72
3915.57
3723.98
3541.72
3374.41
3208.23
3046.56
2885.22
2726.62
2572.86
2424.42
2286.48
2156.06
2039.46
1929.59
1833.58
1740.73
1659.73
1577.21
1503.98
1424.94
1352.93
1272.36
1197.2
1112.89
1034.44
950.87
376.751
377.064
379.572
386.821
404.985
446.876
532.683
682.844
903.323
1172.72
1446.16
1676.94
1836.99
1924.15
1953.39
1947.42
1925.66
1903.28
1887.75
1884.72
1894.87
1920.94
1961.04
2018
2088.63
2177.69
2280.8
2406.24
2547.52
2718.5
2908.69
3141.14
3398.21
3718.72
4072.49
4526.26
5027.72
5695.03
6438.09
7473.31
8643.37
10344.4
12272.7
15105.8
18178.7
22478.4
26611
31706.3
35927.4
39377.2
41265.3
34745.6
27303.7
14718.2
9476.12
7523.42
8271.36
9850.79
11836
12446.1
12540.7
11672.8
10748.6
9544.35
8543.12
7544.51
6771.01
6067.92
5536.39
5067.64
4709.57
4392.83
4142.42
3915.38
3723.87
3541.67
3374.42
3208.27
3046.63
2885.31
2726.71
2572.96
2424.5
2286.55
2156.13
2039.54
1929.7
1833.72
1740.92
1659.98
1577.5
1504.33
1425.35
1353.38
1272.84
1197.71
1113.4
1034.95
951.338
376.76
377.085
379.612
386.901
405.15
447.195
533.203
683.514
903.977
1173.18
1446.36
1676.92
1836.82
1923.87
1952.98
1946.9
1925.06
1902.63
1887.1
1884.1
1894.31
1920.43
1960.58
2017.59
2088.25
2177.34
2280.47
2405.93
2547.21
2718.19
2908.38
3140.82
3397.88
3718.37
4072.11
4525.82
5027.18
5694.33
6437.19
7472.15
8641.94
10342.7
12270.9
15104.1
18177.4
22477.9
26611.2
31707.6
35928.6
39381.5
41273.5
34758.3
27324.8
14735.3
9489.93
7536.81
8282.72
9858.4
11840.6
12448.5
12541.6
11672.4
10747.5
9543.1
8541.97
7543.54
6770.15
6067.12
5535.63
5066.95
4708.99
4392.38
4142.1
3915.16
3723.73
3541.6
3374.4
3208.3
3046.69
2885.38
2726.8
2573.04
2424.57
2286.61
2156.19
2039.61
1929.79
1833.86
1741.1
1660.22
1577.8
1504.69
1425.75
1353.83
1273.33
1198.22
1113.92
1035.47
951.824
376.769
377.107
379.654
386.985
405.322
447.527
533.745
684.212
904.661
1173.66
1446.57
1676.9
1836.65
1923.57
1952.56
1946.35
1924.42
1901.95
1886.42
1883.46
1893.71
1919.89
1960.1
2017.15
2087.85
2176.96
2280.11
2405.58
2546.88
2717.86
2908.04
3140.47
3397.52
3717.99
4071.7
4525.33
5026.59
5693.57
6436.22
7470.92
8640.42
10340.9
12269
15102.3
18175.9
22477.3
26611.3
31708.7
35929.7
39385.7
41281.9
34771.5
27346.9
14753.1
9504.39
7550.85
8294.68
9866.45
11845.4
12451
12542.4
11672
10746.4
9541.79
8540.76
7542.51
6769.24
6066.26
5534.82
5066.22
4708.37
4391.9
4141.74
3914.92
3723.58
3541.52
3374.37
3208.32
3046.74
2885.45
2726.87
2573.11
2424.64
2286.67
2156.25
2039.68
1929.88
1833.98
1741.28
1660.46
1578.1
1505.05
1426.16
1354.3
1273.83
1198.75
1114.46
1036.01
952.328
376.779
377.13
379.697
387.071
405.502
447.873
534.309
684.94
905.373
1174.17
1446.79
1676.88
1836.47
1923.25
1952.11
1945.78
1923.75
1901.24
1885.71
1882.78
1893.09
1919.32
1959.59
2016.68
2087.43
2176.56
2279.74
2405.22
2546.52
2717.5
2907.68
3140.1
3397.14
3717.58
4071.24
4524.81
5025.95
5692.76
6435.18
7469.6
8638.81
10339
12266.9
15100.3
18174.3
22476.6
26611.1
31709.8
35930.7
39390
41290.5
34785.2
27369.9
14771.7
9519.52
7565.56
8307.24
9874.95
11850.6
12453.7
12543.4
11671.7
10745.3
9540.42
8539.48
7541.43
6768.27
6065.35
5533.95
5065.45
4707.71
4391.37
4141.35
3914.64
3723.4
3541.41
3374.33
3208.32
3046.78
2885.51
2726.94
2573.17
2424.69
2286.71
2156.29
2039.73
1929.96
1834.11
1741.45
1660.69
1578.39
1505.4
1426.58
1354.76
1274.34
1199.28
1115.01
1036.56
952.85
376.79
377.154
379.743
387.162
405.688
448.232
534.895
685.696
906.114
1174.69
1447.01
1676.86
1836.28
1922.92
1951.64
1945.18
1923.05
1900.49
1884.96
1882.06
1892.43
1918.72
1959.04
2016.19
2086.98
2176.14
2279.34
2404.83
2546.13
2717.11
2907.29
3139.7
3396.72
3717.13
4070.76
4524.24
5025.26
5691.89
6434.08
7468.2
8637.1
10337
12264.7
15098.2
18172.6
22475.7
26610.9
31710.7
35931.5
39394.2
41299.4
34799.4
27393.9
14791.1
9535.35
7580.96
8320.42
9883.94
11856.1
12456.6
12544.4
11671.4
10744.1
9539
8538.15
7540.28
6767.24
6064.39
5533.04
5064.63
4707.01
4390.82
4140.93
3914.35
3723.2
3541.29
3374.27
3208.31
3046.81
2885.57
2727
2573.23
2424.73
2286.74
2156.32
2039.78
1930.04
1834.22
1741.62
1660.92
1578.68
1505.76
1426.99
1355.24
1274.85
1199.83
1115.57
1037.14
953.39
376.801
377.179
379.79
387.255
405.882
448.606
535.503
686.482
906.884
1175.23
1447.25
1676.84
1836.08
1922.58
1951.15
1944.55
1922.32
1899.7
1884.18
1881.32
1891.74
1918.09
1958.48
2015.67
2086.5
2175.7
2278.91
2404.42
2545.73
2716.71
2906.88
3139.27
3396.27
3716.65
4070.23
4523.63
5024.52
5690.96
6432.91
7466.72
8635.3
10334.9
12262.4
15096
18170.7
22474.7
26610.5
31711.4
35932.2
39398.6
41308.7
34814.2
27418.8
14811.4
9551.89
7597.06
8334.24
9893.41
11861.9
12459.8
12545.6
11671
10742.9
9537.54
8536.76
7539.09
6766.17
6063.39
5532.09
5063.77
4706.27
4390.22
4140.47
3914.02
3722.98
3541.15
3374.2
3208.29
3046.83
2885.61
2727.05
2573.27
2424.77
2286.77
2156.35
2039.81
1930.1
1834.33
1741.78
1661.14
1578.97
1506.12
1427.41
1355.72
1275.37
1200.39
1116.15
1037.73
953.948
376.812
377.204
379.838
387.353
406.082
448.992
536.134
687.296
907.683
1175.8
1447.5
1676.82
1835.87
1922.22
1950.64
1943.89
1921.55
1898.89
1883.36
1880.54
1891.01
1917.43
1957.88
2015.13
2086
2175.23
2278.47
2403.98
2545.3
2716.27
2906.44
3138.81
3395.8
3716.14
4069.67
4522.97
5023.74
5689.98
6431.68
7465.17
8633.4
10332.7
12260
15093.6
18168.7
22473.6
26609.9
31712
35932.8
39402.9
41318.2
34829.6
27444.8
14832.5
9569.16
7613.9
8348.73
9903.38
11868.1
12463.1
12546.8
11670.8
10741.7
9536.05
8535.33
7537.85
6765.05
6062.34
5531.09
5062.87
4705.5
4389.6
4140
3913.67
3722.73
3541
3374.11
3208.26
3046.84
2885.64
2727.09
2573.31
2424.8
2286.79
2156.37
2039.84
1930.16
1834.43
1741.94
1661.37
1579.26
1506.48
1427.83
1356.2
1275.9
1200.97
1116.74
1038.33
954.525
376.823
377.231
379.889
387.453
406.29
449.393
536.786
688.138
908.51
1176.39
1447.75
1676.8
1835.65
1921.84
1950.11
1943.21
1920.76
1898.04
1882.51
1879.72
1890.26
1916.75
1957.26
2014.56
2085.48
2174.74
2278
2403.52
2544.84
2715.81
2905.97
3138.33
3395.29
3715.6
4069.07
4522.28
5022.91
5688.94
6430.38
7463.54
8631.42
10330.3
12257.5
15091.1
18166.6
22472.3
26609.3
31712.6
35933.3
39407.4
41328
34845.6
27471.8
14854.5
9587.18
7631.47
8363.88
9913.89
11874.7
12466.6
12548.2
11670.5
10740.5
9534.52
8533.86
7536.56
6763.89
6061.25
5530.06
5061.92
4704.68
4388.94
4139.49
3913.3
3722.47
3540.82
3374.01
3208.22
3046.84
2885.67
2727.13
2573.34
2424.81
2286.8
2156.37
2039.87
1930.21
1834.53
1742.09
1661.59
1579.55
1506.84
1428.26
1356.69
1276.44
1201.55
1117.35
1038.95
955.12
376.835
377.258
379.941
387.557
406.505
449.807
537.461
689.009
909.365
1176.99
1448.02
1676.79
1835.43
1921.46
1949.55
1942.5
1919.93
1897.15
1881.62
1878.88
1889.48
1916.03
1956.61
2013.97
2084.93
2174.22
2277.5
2403.04
2544.37
2715.33
2905.48
3137.82
3394.75
3715.02
4068.43
4521.54
5022.03
5687.84
6429.01
7461.82
8629.34
10327.9
12254.8
15088.5
18164.3
22470.9
26608.4
31713
35933.7
39411.9
41338.2
34862.2
27499.9
14877.5
9605.98
7649.82
8379.74
9924.93
11881.6
12470.4
12549.7
11670.3
10739.3
9532.97
8532.35
7535.24
6762.68
6060.12
5528.98
5060.95
4703.84
4388.25
4138.95
3912.91
3722.19
3540.64
3373.89
3208.17
3046.83
2885.69
2727.15
2573.36
2424.83
2286.8
2156.37
2039.88
1930.25
1834.62
1742.24
1661.81
1579.83
1507.21
1428.69
1357.19
1276.99
1202.14
1117.97
1039.59
955.733
376.847
377.286
379.995
387.665
406.728
450.235
538.158
689.909
910.249
1177.62
1448.3
1676.77
1835.2
1921.06
1948.98
1941.77
1919.07
1896.23
1880.7
1878
1888.66
1915.29
1955.93
2013.35
2084.36
2173.68
2276.99
2402.54
2543.87
2714.82
2904.96
3137.28
3394.19
3714.41
4067.76
4520.77
5021.1
5686.69
6427.58
7460.04
8627.17
10325.4
12252
15085.8
18161.9
22469.4
26607.5
31713.3
35934
39416.4
41348.7
34879.4
27529.1
14901.3
9625.57
7668.94
8396.3
9936.53
11889
12474.5
12551.3
11670.2
10738.1
9531.4
8530.81
7533.88
6761.44
6058.95
5527.87
5059.93
4702.96
4387.53
4138.4
3912.5
3721.89
3540.44
3373.77
3208.11
3046.82
2885.7
2727.17
2573.38
2424.83
2286.79
2156.37
2039.88
1930.29
1834.71
1742.39
1662.02
1580.12
1507.57
1429.12
1357.7
1277.55
1202.75
1118.61
1040.25
956.366
376.86
377.315
380.051
387.776
406.957
450.677
538.877
690.837
911.161
1178.27
1448.59
1676.75
1834.97
1920.64
1948.39
1941
1918.18
1895.28
1879.75
1877.08
1887.82
1914.51
1955.23
2012.71
2083.76
2173.12
2276.45
2402.01
2543.34
2714.29
2904.41
3136.71
3393.59
3713.76
4067.05
4519.95
5020.13
5685.49
6426.09
7458.17
8624.92
10322.7
12249.1
15082.9
18159.4
22467.8
26606.4
31713.4
35934.1
39421.1
41359.6
34897.3
27559.4
14926.1
9645.98
7688.87
8413.6
9948.7
11896.7
12478.8
12553.1
11670.2
10736.9
9529.81
8529.25
7532.48
6760.16
6057.74
5526.72
5058.89
4702.05
4386.79
4137.81
3912.06
3721.58
3540.22
3373.63
3208.04
3046.79
2885.7
2727.19
2573.38
2424.83
2286.78
2156.35
2039.88
1930.32
1834.78
1742.53
1662.23
1580.41
1507.93
1429.56
1358.21
1278.12
1203.37
1119.26
1040.93
957.017
376.873
377.346
380.108
387.891
407.194
451.133
539.618
691.793
912.101
1178.94
1448.88
1676.73
1834.73
1920.22
1947.78
1940.22
1917.27
1894.29
1878.76
1876.14
1886.94
1913.71
1954.5
2012.04
2083.14
2172.53
2275.89
2401.46
2542.79
2713.73
2903.84
3136.11
3392.97
3713.09
4066.31
4519.09
5019.11
5684.22
6424.53
7456.23
8622.57
10320
12246.1
15080
18156.7
22466
26605.3
31713.5
35934.2
39425.9
41370.8
34915.8
27590.8
14951.9
9667.22
7709.63
8431.66
9961.47
11904.9
12483.5
12555.1
11670.2
10735.8
9528.23
8527.66
7531.06
6758.85
6056.51
5525.54
5057.81
4701.1
4386.01
4137.2
3911.6
3721.25
3539.99
3373.49
3207.96
3046.76
2885.7
2727.19
2573.38
2424.81
2286.75
2156.33
2039.87
1930.35
1834.86
1742.66
1662.44
1580.69
1508.3
1430
1358.72
1278.69
1204
1119.93
1041.62
957.687
376.887
377.377
380.167
388.009
407.438
451.602
540.381
692.777
913.069
1179.63
1449.19
1676.71
1834.48
1919.78
1947.15
1939.41
1916.32
1893.28
1877.74
1875.16
1886.03
1912.88
1953.74
2011.34
2082.49
2171.92
2275.3
2400.88
2542.22
2713.15
2903.25
3135.49
3392.31
3712.38
4065.53
4518.18
5018.04
5682.91
6422.9
7454.21
8620.13
10317.1
12243
15076.8
18153.9
22464.1
26604
31713.5
35934.3
39430.7
41382.4
34935
27623.5
14978.7
9689.33
7731.23
8450.48
9974.85
11913.6
12488.4
12557.3
11670.3
10734.6
9526.64
8526.05
7529.61
6757.52
6055.24
5524.33
5056.7
4700.13
4385.21
4136.57
3911.13
3720.9
3539.75
3373.33
3207.87
3046.72
2885.69
2727.19
2573.38
2424.8
2286.73
2156.3
2039.86
1930.36
1834.93
1742.79
1662.65
1580.97
1508.67
1430.44
1359.25
1279.28
1204.65
1120.61
1042.33
958.377
376.901
377.409
380.228
388.131
407.69
452.085
541.166
693.79
914.066
1180.34
1449.51
1676.7
1834.23
1919.33
1946.5
1938.57
1915.34
1892.23
1876.69
1874.15
1885.1
1912.02
1952.96
2010.62
2081.83
2171.29
2274.69
2400.28
2541.62
2712.55
2902.63
3134.84
3391.63
3711.63
4064.71
4517.24
5016.93
5681.54
6421.21
7452.11
8617.6
10314.2
12239.7
15073.6
18151
22462.1
26602.6
31713.4
35934.2
39435.7
41394.4
34954.9
27657.3
15006.6
9712.33
7753.71
8470.1
9988.86
11922.7
12493.6
12559.6
11670.6
10733.6
9525.05
8524.43
7528.14
6756.15
6053.95
5523.09
5055.56
4699.14
4384.39
4135.92
3910.64
3720.54
3539.49
3373.16
3207.78
3046.68
2885.68
2727.19
2573.37
2424.77
2286.69
2156.26
2039.84
1930.37
1834.99
1742.92
1662.86
1581.26
1509.04
1430.89
1359.78
1279.87
1205.3
1121.3
1043.06
959.085
376.915
377.441
380.291
388.257
407.949
452.582
541.973
694.83
915.09
1181.08
1449.84
1676.68
1833.97
1918.87
1945.84
1937.71
1914.33
1891.14
1875.6
1873.11
1884.13
1911.14
1952.15
2009.88
2081.13
2170.63
2274.06
2399.66
2541
2711.92
2901.98
3134.16
3390.91
3710.86
4063.85
4516.26