/*--------------------------------*- C++ -*----------------------------------*\
| =========                 |                                                 |
| \\      /  F ield         | OpenFOAM: The Open Source CFD Toolbox           |
|  \\    /   O peration     | Version:  2412                                  |
|   \\  /    A nd           | Website:  www.openfoam.com                      |
|    \\/     M anipulation  |                                                 |
\*---------------------------------------------------------------------------*/
FoamFile
{
    version     2.0;
    format      ascii;
    arch        "LSB;label=32;scalar=64";
    class       volScalarField;
    location    "0.8";
    object      k;
}
// * * * * * * * * * * * * * * * * * * * * * * * * * * * * * * * * * * * * * //

dimensions      [0 2 -2 0 0 0 0];

internalField   nonuniform List<scalar> 
13068
(
37.4812
37.5559
37.8465
38.583
40.2098
43.4223
48.949
56.9924
66.7424
76.5017
84.4975
89.7341
92.2089
92.6287
91.8875
90.7856
89.8081
89.2224
89.0614
89.3492
90.0089
91.0701
92.4457
94.2077
96.2476
98.6965
101.406
104.594
108.042
112.093
116.412
121.54
126.948
133.493
140.34
148.844
157.673
168.99
180.691
196.25
212.311
234.268
256.509
286.763
315.476
352.574
383.455
419.501
445.966
464.92
471.581
410.023
341.503
210.796
154.831
153.361
189.12
218.685
243.083
245.842
243.45
230.371
218.488
203.196
191.087
178.421
168.837
159.526
152.504
145.812
140.646
135.734
131.774
127.929
124.576
121.182
117.952
114.61
111.291
107.921
104.578
101.317
98.1362
95.1571
92.2763
89.6596
87.0924
84.793
82.4421
80.3275
78.0363
75.938
73.5443
71.3017
68.679
66.1799
63.2787
60.5491
57.5982
37.4813
37.556
37.8467
38.5834
40.2103
43.4229
48.9494
56.9922
66.7415
76.5008
84.4974
89.7354
92.2117
92.6325
91.8918
90.7899
89.8123
89.2264
89.0653
89.3531
90.0128
91.074
92.4497
94.2118
96.2519
98.701
101.411
104.599
108.047
112.099
116.418
121.546
126.955
133.501
140.348
148.852
157.682
168.999
180.7
196.259
212.321
234.279
256.522
286.78
315.497
352.601
383.487
419.536
445.998
464.95
471.607
410.051
341.542
210.828
154.856
153.383
189.137
218.695
243.092
245.855
243.464
230.384
218.501
203.209
191.101
178.434
168.848
159.537
152.514
145.822
140.655
135.743
131.783
127.938
124.584
121.19
117.959
114.617
111.297
107.927
104.585
101.323
98.1425
95.1636
92.2829
89.6665
87.0998
84.8009
82.4505
80.3364
78.0454
75.9472
73.5532
71.3098
68.6861
66.1853
63.2823
60.5504
57.597
37.4814
37.5562
37.8471
38.584
40.2113
43.4244
48.9509
56.9932
66.7414
76.5001
84.4971
89.7363
92.214
92.6358
91.8956
90.7938
89.8159
89.2299
89.0688
89.3566
90.0164
91.0777
92.4536
94.2158
96.256
98.7053
101.416
104.604
108.052
112.104
116.424
121.552
126.962
133.508
140.356
148.861
157.691
169.008
180.709
196.269
212.331
234.29
256.535
286.797
315.519
352.629
383.52
419.572
446.032
464.984
471.637
410.085
341.591
210.87
154.89
153.412
189.16
218.709
243.104
245.868
243.479
230.398
218.514
203.223
191.114
178.447
168.86
159.547
152.523
145.831
140.665
135.752
131.792
127.947
124.592
121.198
117.966
114.624
111.304
107.934
104.591
101.33
98.1491
95.1703
92.2898
89.6738
87.1075
84.8091
82.4593
80.3456
78.0549
75.9568
73.5626
71.3186
68.6939
66.1916
63.2868
60.5527
57.5969
37.4815
37.5564
37.8476
38.5849
40.2129
43.4268
48.9537
56.9954
66.7423
76.4997
84.4965
89.7366
92.2156
92.6384
91.8985
90.7967
89.8188
89.2327
89.0716
89.3595
90.0195
91.081
92.457
94.2195
96.2598
98.7093
101.42
104.608
108.056
112.109
116.429
121.558
126.968
133.515
140.364
148.869
157.699
169.017
180.718
196.277
212.34
234.3
256.548
286.813
315.54
352.656
383.552
419.607
446.066
465.018
471.67
410.123
341.648
210.919
154.931
153.447
189.186
218.725
243.117
245.883
243.494
230.412
218.526
203.235
191.127
178.46
168.871
159.557
152.532
145.84
140.674
135.761
131.8
127.955
124.601
121.205
117.974
114.631
111.311
107.94
104.598
101.337
98.1557
95.177
92.2966
89.6809
87.1151
84.8173
82.468
80.355
78.0646
75.9666
73.5723
71.3277
68.7021
66.1985
63.292
60.5557
57.5976
37.4816
37.5567
37.8482
38.5861
40.2151
43.4301
48.9578
56.999
66.7442
76.4998
84.4958
89.7363
92.2163
92.6399
91.9005
90.7987
89.8207
89.2345
89.0736
89.3616
90.0218
91.0836
92.4598
94.2225
96.2631
98.7128
101.424
104.612
108.061
112.114
116.434
121.564
126.974
133.522
140.371
148.877
157.707
169.024
180.725
196.285
212.348
234.309
256.559
286.827
315.559
352.682
383.583
419.642
446.098
465.053
471.705
410.164
341.713
210.976
154.979
153.488
189.217
218.744
243.132
245.898
243.508
230.424
218.537
203.246
191.139
178.471
168.881
159.565
152.54
145.848
140.682
135.769
131.809
127.963
124.608
121.213
117.981
114.638
111.317
107.947
104.604
101.343
98.1622
95.1834
92.3033
89.6879
87.1226
84.8254
82.4767
80.3643
78.0744
75.9766
73.5821
71.3371
68.7108
66.2058
63.2978
60.5595
57.5991
37.4817
37.5571
37.849
38.5877
40.2179
43.4344
48.9632
57.004
66.7471
76.5002
84.4948
89.7354
92.2161
92.6405
91.9014
90.7996
89.8215
89.2354
89.0746
89.363
90.0235
91.0855
92.462
94.225
96.2659
98.7158
101.427
104.616
108.064
112.118
116.438
121.568
126.98
133.528
140.378
148.884
157.714
169.031
180.732
196.291
212.355
234.317
256.568
286.84
315.577
352.706
383.612
419.675
446.13
465.087
471.741
410.208
341.784
211.04
155.035
153.535
189.252
218.765
243.147
245.912
243.522
230.436
218.547
203.256
191.149
178.481
168.89
159.573
152.547
145.855
140.689
135.776
131.816
127.971
124.616
121.22
117.988
114.644
111.324
107.953
104.611
101.349
98.1683
95.1897
92.3097
89.6947
87.1299
84.8333
82.4853
80.3735
78.0841
75.9867
73.5922
71.3468
68.7198
66.2136
63.3041
60.5639
57.6013
37.4819
37.5576
37.8499
38.5895
40.2212
43.4397
48.97
57.0103
66.751
76.501
84.4936
89.7338
92.215
92.64
91.9012
90.7994
89.8213
89.2353
89.0748
89.3635
90.0243
91.0867
92.4636
94.2269
96.2681
98.7182
101.429
104.619
108.068
112.121
116.442
121.573
126.985
133.533
140.384
148.89
157.72
169.037
180.737
196.296
212.36
234.323
256.576
286.852
315.594
352.729
383.639
419.706
446.159
465.121
471.778
410.256
341.861
211.111
155.096
153.587
189.291
218.788
243.164
245.927
243.535
230.446
218.556
203.265
191.158
178.49
168.898
159.58
152.553
145.861
140.695
135.783
131.823
127.978
124.623
121.227
117.994
114.651
111.33
107.959
104.617
101.355
98.1742
95.1957
92.3159
89.7012
87.1369
84.8411
82.4938
80.3827
78.0938
75.9968
73.6024
71.3568
68.7291
66.2219
63.3109
60.5689
57.6041
37.4821
37.5581
37.851
38.5916
40.2252
43.446
48.978
57.0181
66.7559
76.5021
84.4921
89.7315
92.2131
92.6385
91.8999
90.7981
89.82
89.2342
89.0741
89.3632
90.0245
91.0873
92.4646
94.2282
96.2697
98.7201
101.432
104.621
108.07
112.124
116.445
121.576
126.989
133.538
140.389
148.895
157.725
169.041
180.741
196.3
212.364
234.327
256.583
286.862
315.608
352.75
383.665
419.736
446.188
465.155
471.816
410.306
341.946
211.189
155.165
153.645
189.333
218.814
243.181
245.941
243.547
230.455
218.563
203.272
191.166
178.498
168.904
159.585
152.558
145.867
140.701
135.789
131.83
127.984
124.629
121.233
118
114.656
111.336
107.965
104.622
101.361
98.1799
95.2014
92.3218
89.7075
87.1438
84.8487
82.5021
80.3918
78.1036
76.007
73.6127
71.367
68.7387
66.2305
63.3183
60.5746
57.6076
37.4824
37.5587
37.8523
38.5941
40.2297
43.4533
48.9874
57.0272
66.7618
76.5037
84.4904
89.7285
92.2102
92.636
91.8975
90.7957
89.8177
89.2321
89.0724
89.362
90.0238
91.0871
92.4649
94.2289
96.2707
98.7214
101.433
104.623
108.072
112.126
116.448
121.58
126.993
133.542
140.393
148.899
157.729
169.045
180.744
196.302
212.366
234.33
256.587
286.87
315.621
352.769
383.689
419.765
446.214
465.188
471.855
410.359
342.037
211.274
155.24
153.709
189.38
218.842
243.2
245.956
243.558
230.463
218.569
203.278
191.173
178.505
168.91
159.59
152.562
145.871
140.706
135.795
131.835
127.99
124.635
121.239
118.006
114.662
111.341
107.97
104.628
101.366
98.1853
95.2068
92.3275
89.7136
87.1504
84.856
82.5103
80.4008
78.1133
76.0172
73.6232
71.3774
68.7487
66.2396
63.3262
60.5809
57.6119
37.4826
37.5594
37.8537
38.5969
40.2348
43.4615
48.9982
57.0377
66.7688
76.5056
84.4885
89.7249
92.2064
92.6325
91.8941
90.7923
89.8143
89.229
89.0698
89.36
90.0224
91.0863
92.4645
94.229
96.2711
98.7222
101.434
104.624
108.074
112.128
116.45
121.582
126.995
133.545
140.397
148.903
157.732
169.047
180.746
196.304
212.367
234.332
256.59
286.877
315.633
352.787
383.711
419.792
446.239
465.221
471.896
410.416
342.135
211.367
155.323
153.779
189.431
218.873
243.219
245.97
243.569
230.469
218.573
203.283
191.178
178.51
168.914
159.593
152.565
145.874
140.71
135.799
131.84
127.996
124.641
121.245
118.012
114.667
111.346
107.975
104.633
101.371
98.1904
95.212
92.3328
89.7194
87.1568
84.8632
82.5183
80.4097
78.1229
76.0275
73.6338
71.388
68.759
66.2491
63.3346
60.5878
57.6168
37.4829
37.5601
37.8552
38.5999
40.2405
43.4707
49.0102
57.0496
66.7767
76.5079
84.4863
89.7206
92.2017
92.628
91.8896
90.7877
89.8099
89.225
89.0663
89.3572
90.0203
91.0848
92.4635
94.2284
96.271
98.7223
101.435
104.625
108.075
112.129
116.452
121.584
126.998
133.548
140.4
148.906
157.734
169.049
180.747
196.304
212.367
234.332
256.592
286.882
315.643
352.803
383.732
419.817
446.263
465.253
471.937
410.475
342.24
211.467
155.412
153.855
189.486
218.906
243.24
245.985
243.579
230.475
218.576
203.286
191.183
178.515
168.918
159.595
152.567
145.876
140.713
135.803
131.845
128.001
124.646
121.25
118.017
114.673
111.351
107.98
104.638
101.376
98.1952
95.2169
92.338
89.725
87.163
84.8703
82.5263
80.4186
78.1326
76.0379
73.6445
71.3989
68.7696
66.2591
63.3435
60.5954
57.6224
37.4833
37.561
37.8569
38.6033
40.2468
43.4809
49.0236
57.0628
66.7857
76.5106
84.4838
89.7156
92.1962
92.6224
91.8841
90.7821
89.8044
89.2199
89.0619
89.3535
90.0174
91.0825
92.4619
94.2273
96.2703
98.722
101.435
104.625
108.075
112.13
116.453
121.585
126.999
133.55
140.402
148.908
157.736
169.05
180.746
196.302
212.365
234.33
256.592
286.885
315.651
352.818
383.751
419.841
446.285
465.286
471.98
410.538
342.352
211.574
155.508
153.937
189.546
218.941
243.261
245.999
243.588
230.479
218.578
203.288
191.185
178.518
168.92
159.597
152.568
145.878
140.715
135.806
131.849
128.005
124.651
121.254
118.021
114.677
111.356
107.985
104.642
101.381
98.1998
95.2216
92.3429
89.7303
87.169
84.8771
82.5341
80.4274
78.1423
76.0483
73.6554
71.41
68.7806
66.2695
63.353
60.6036
57.6287
37.4836
37.5618
37.8587
38.6069
40.2536
43.492
49.0382
57.0774
66.7957
76.5136
84.4811
89.71
92.1897
92.6159
91.8775
90.7754
89.7978
89.2139
89.0566
89.3491
90.0137
91.0796
92.4596
94.2256
96.269
98.721
101.434
104.625
108.075
112.13
116.453
121.586
127
133.551
140.403
148.909
157.736
169.049
180.745
196.3
212.362
234.327
256.59
286.887
315.658
352.831
383.768
419.863
446.306
465.318
472.024
410.603
342.472
211.689
155.612
154.024
189.609
218.979
243.284
246.014
243.596
230.483
218.579
203.289
191.187
178.52
168.921
159.597
152.568
145.879
140.717
135.809
131.852
128.009
124.655
121.259
118.026
114.682
111.361
107.989
104.647
101.385
98.2042
95.226
92.3475
89.7354
87.1748
84.8838
82.5417
80.4361
78.1519
76.0588
73.6665
71.4214
68.7919
66.2803
63.3631
60.6124
57.6357
37.484
37.5628
37.8607
38.6109
40.261
43.5041
49.0542
57.0934
66.8066
76.517
84.4782
89.7037
92.1824
92.6083
91.8698
90.7677
89.7903
89.2068
89.0504
89.3437
90.0093
91.076
92.4567
94.2232
96.2671
98.7195
101.433
104.624
108.074
112.13
116.453
121.586
127.001
133.552
140.404
148.909
157.736
169.048
180.742
196.296
212.357
234.323
256.587
286.887
315.663
352.843
383.784
419.884
446.325
465.349
472.07
410.672
342.598
211.812
155.722
154.118
189.677
219.02
243.309
246.029
243.604
230.485
218.578
203.288
191.188
178.521
168.921
159.596
152.567
145.878
140.717
135.81
131.854
128.012
124.658
121.263
118.03
114.686
111.365
107.994
104.651
101.389
98.2082
95.2301
92.3519
89.7402
87.1804
84.8903
82.5493
80.4448
78.1616
76.0694
73.6777
71.433
68.8035
66.2916
63.3736
60.6219
57.6434
37.4844
37.5638
37.8629
38.6152
40.2691
43.5172
49.0715
57.1107
66.8185
76.5207
84.475
89.6968
92.1741
92.5998
91.8611
90.7588
89.7816
89.1988
89.0432
89.3376
90.0042
91.0717
92.4531
94.2203
96.2647
98.7175
101.431
104.622
108.073
112.129
116.452
121.585
127
133.552
140.404
148.909
157.735
169.045
180.738
196.291
212.351
234.317
256.582
286.886
315.666
352.853
383.798
419.903
446.343
465.381
472.117
410.745
342.732
211.942
155.84
154.218
189.75
219.064
243.334
246.044
243.612
230.486
218.576
203.286
191.187
178.521
168.92
159.595
152.566
145.877
140.717
135.811
131.856
128.015
124.662
121.266
118.034
114.69
111.369
107.998
104.655
101.393
98.2121
95.234
92.356
89.7449
87.1858
84.8967
82.5567
80.4533
78.1712
76.0801
73.689
71.4449
68.8155
66.3034
63.3848
60.6321
57.6518
37.4848
37.5649
37.8652
38.6198
40.2777
43.5312
49.0901
57.1293
66.8314
76.5248
84.4716
89.6892
92.165
92.5903
91.8513
90.7489
89.772
89.1898
89.0352
89.3306
89.9982
91.0667
92.4489
94.2167
96.2616
98.7149
101.429
104.62
108.071
112.127
116.451
121.584
127
133.551
140.403
148.907
157.733
169.042
180.733
196.285
212.344
234.309
256.576
286.883
315.668
352.862
383.811
419.921
446.359
465.412
472.165
410.82
342.873
212.08
155.966
154.324
189.827
219.11
243.361
246.059
243.619
230.486
218.573
203.283
191.185
178.519
168.918
159.592
152.563
145.875
140.716
135.812
131.858
128.017
124.665
121.269
118.037
114.693
111.372
108.001
104.659
101.397
98.2157
95.2377
92.3599
89.7493
87.191
84.9028
82.564
80.4619
78.1809
76.0908
73.7005
71.457
68.8278
66.3156
63.3964
60.6429
57.661
37.4853
37.5661
37.8676
38.6247
40.2868
43.5463
49.11
57.1493
66.8453
76.5293
84.4679
89.6809
92.155
92.5798
91.8405
90.738
89.7613
89.1798
89.0263
89.3229
89.9916
91.061
92.4441
94.2125
96.258
98.7117
101.426
104.618
108.069
112.125
116.449
121.582
126.998
133.55
140.401
148.905
157.73
169.037
180.727
196.277
212.335
234.3
256.568
286.879
315.668
352.869
383.821
419.937
446.374
465.444
472.215
410.9
343.022
212.226
156.098
154.437
189.909
219.159
243.389
246.075
243.625
230.486
218.569
203.279
191.182
178.517
168.916
159.588
152.559
145.872
140.714
135.811
131.859
128.019
124.667
121.272
118.04
114.697
111.376
108.005
104.662
101.4
98.219
95.2411
92.3636
89.7535
87.196
84.9089
82.5712
80.4703
78.1905
76.1016
73.7122
71.4694
68.8405
66.3282
63.4087
60.6543
57.6708
37.4857
37.5673
37.8702
38.6299
40.2966
43.5622
49.1311
57.1706
66.8601
76.534
84.464
89.672
92.1442
92.5683
91.8286
90.726
89.7495
89.1689
89.0164
89.3143
89.9841
91.0546
92.4386
94.2078
96.2539
98.7079
101.422
104.615
108.066
112.122
116.446
121.58
126.996
133.547
140.399
148.902
157.726
169.032
180.72
196.268
212.325
234.29
256.559
286.873
315.667
352.875
383.831
419.952
446.388
465.475
472.267
410.983
343.179
212.38
156.239
154.556
189.995
219.211
243.419
246.091
243.632
230.484
218.564
203.274
191.179
178.514
168.912
159.584
152.554
145.868
140.712
135.81
131.859
128.02
124.669
121.275
118.043
114.7
111.379
108.008
104.665
101.403
98.2221
95.2442
92.367
89.7575
87.2008
84.9148
82.5783
80.4788
78.2002
76.1125
73.724
71.482
68.8535
66.3413
63.4214
60.6664
57.6814
37.4862
37.5687
37.8729
38.6354
40.307
43.5791
49.1536
57.1933
66.8759
76.5392
84.4598
89.6625
92.1325
92.5558
91.8158
90.7129
89.7368
89.1569
89.0057
89.3048
89.976
91.0476
92.4325
94.2024
96.2491
98.7036
101.419
104.611
108.063
112.119
116.443
121.577
126.993
133.545
140.396
148.899
157.721
169.025
180.712
196.258
212.313
234.278
256.548
286.866
315.664
352.879
383.839
419.966
446.401
465.506
472.32
411.069
343.344
212.542
156.387
154.682
190.086
219.267
243.451
246.108
243.638
230.482
218.558
203.268
191.174
178.51
168.907
159.578
152.549
145.864
140.709
135.808
131.858
128.021
124.67
121.277
118.045
114.702
111.382
108.011
104.668
101.406
98.225
95.2471
92.3702
89.7612
87.2054
84.9205
82.5853
80.4871
78.2099
76.1235
73.736
71.4949
68.8669
66.3548
63.4348
60.6792
57.6927
37.4868
37.57
37.8758
38.6412
40.3179
43.597
49.1774
57.2173
66.8927
76.5446
84.4553
89.6523
92.1199
92.5424
91.8019
90.6988
89.723
89.144
88.9941
89.2946
89.9671
91.0398
92.4257
94.1964
96.2438
98.6988
101.414
104.607
108.059
112.115
116.439
121.573
126.99
133.541
140.392
148.894
157.715
169.018
180.703
196.247
212.301
234.265
256.536
286.857
315.66
352.882
383.845
419.979
446.412
465.538
472.375
411.16
343.516
212.713
156.544
154.814
190.182
219.325
243.484
246.125
243.643
230.479
218.55
203.26
191.168
178.504
168.901
159.572
152.543
145.858
140.705
135.806
131.858
128.021
124.672
121.279
118.048
114.705
111.385
108.014
104.671
101.409
98.2276
95.2498
92.3732
89.7648
87.2098
84.9261
82.5922
80.4954
78.2196
76.1346
73.7482
71.508
68.8806
66.3688
63.4486
60.6926
57.7047
37.4873
37.5715
37.8789
38.6473
40.3294
43.6159
49.2024
57.2425
66.9104
76.5504
84.4506
89.6414
92.1065
92.528
91.787
90.6837
89.7082
89.1302
88.9815
89.2835
89.9574
91.0314
92.4183
94.1899
96.2379
98.6934
101.409
104.602
108.054
112.11
116.435
121.569
126.986
133.537
140.388
148.889
157.708
169.01
180.692
196.234
212.286
234.25
256.522
286.847
315.655
352.883
383.85
419.99
446.422
465.569
472.432
411.254
343.697
212.892
156.708
154.954
190.284
219.387
243.519
246.142
243.649
230.476
218.542
203.252
191.161
178.498
168.895
159.565
152.536
145.852
140.7
135.803
131.856
128.021
124.672
121.28
118.05
114.707
111.387
108.017
104.674
101.411
98.23
95.2523
92.376
89.7681
87.2141
84.9315
82.5989
80.5037
78.2293
76.1457
73.7605
71.5215
68.8947
66.3833
63.4631
60.7068
57.7174
37.4879
37.573
37.882
38.6537
40.3415
43.6357
49.2287
57.2691
66.929
76.5565
84.4457
89.6299
92.0922
92.5127
91.7711
90.6675
89.6924
89.1153
88.9681
89.2716
89.947
91.0223
92.4103
94.1827
96.2314
98.6874
101.403
104.597
108.049
112.106
116.43
121.564
126.981
133.532
140.382
148.882
157.701
169
180.681
196.221
212.271
234.234
256.506
286.835
315.647
352.883
383.853
420
446.431
465.601
472.49
411.353
343.886
213.079
156.881
155.101
190.39
219.452
243.556
246.161
243.654
230.471
218.533
203.243
191.153
178.491
168.887
159.557
152.528
145.845
140.695
135.8
131.854
128.021
124.673
121.281
118.051
114.709
111.39
108.019
104.676
101.414
98.2322
95.2546
92.3785
89.7713
87.2182
84.9368
82.6056
80.5119
78.239
76.157
73.773
71.5351
68.9091
66.3983
63.4781
60.7216
57.7309
37.4886
37.5746
37.8854
38.6605
40.3542
43.6564
49.2563
57.297
66.9486
76.563
84.4405
89.6178
92.0771
92.4964
91.7542
90.6503
89.6755
89.0995
88.9538
89.2589
89.9358
91.0125
92.4017
94.175
96.2244
98.6809
101.397
104.591
108.043
112.1
116.425
121.559
126.975
133.526
140.377
148.876
157.693
168.99
180.668
196.206
212.254
234.216
256.49
286.821
315.639
352.882
383.855
420.008
446.439
465.633
472.551
411.455
344.083
213.276
157.062
155.255
190.502
219.52
243.595
246.18
243.659
230.467
218.524
203.233
191.144
178.483
168.879
159.548
152.519
145.838
140.689
135.796
131.852
128.02
124.673
121.282
118.053
114.711
111.392
108.021
104.678
101.416
98.2342
95.2566
92.3808
89.7743
87.2221
84.942
82.6122
80.5201
78.2487
76.1683
73.7857
71.5491
68.924
66.4137
63.4937
60.737
57.7451
37.4892
37.5763
37.8889
38.6675
40.3674
43.6781
49.2851
57.3262
66.9691
76.5697
84.435
89.605
92.0612
92.4792
91.7362
90.6321
89.6577
89.0828
88.9386
89.2454
89.9239
91.002
92.3924
94.1666
96.2168
98.6738
101.391
104.584
108.037
112.094
116.419
121.553
126.969
133.52
140.37
148.868
157.683
168.978
180.654
196.19
212.236
234.197
256.471
286.807
315.629
352.879
383.856
420.016
446.445
465.665
472.613
411.562
344.289
213.482
157.252
155.416
190.619
219.593
243.635
246.2
243.665
230.461
218.513
203.222
191.135
178.475
168.87
159.539
152.509
145.829
140.682
135.791
131.849
128.018
124.673
121.283
118.054
114.713
111.393
108.023
104.68
101.418
98.236
95.2584
92.383
89.777
87.2258
84.947
82.6187
80.5283
78.2585
76.1798
73.7985
71.5633
68.9391
66.4296
63.5099
60.7532
57.76
37.4899
37.578
37.8925
38.6749
40.3813
43.7007
49.3152
57.3567
66.9905
76.5768
84.4293
89.5916
92.0444
92.4611
91.7173
90.6129
89.6388
89.065
88.9225
89.2311
89.9113
90.9908
92.3824
94.1576
96.2086
98.6662
101.384
104.577
108.03
112.087
116.412
121.547
126.963
133.513
140.362
148.859
157.673
168.966
180.64
196.172
212.217
234.177
256.452
286.79
315.618
352.875
383.855
420.022
446.451
465.698
472.678
411.674
344.504
213.697
157.451
155.585
190.742
219.668
243.678
246.221
243.67
230.456
218.502
203.21
191.124
178.465
168.86
159.528
152.499
145.82
140.675
135.786
131.845
128.016
124.672
121.283
118.055
114.714
111.395
108.025
104.682
101.419
98.2375
95.26
92.3849
89.7796
87.2294
84.952
82.6252
80.5364
78.2682
76.1913
73.8116
71.5778
68.9547
66.4459
63.5266
60.77
57.7757
37.4906
37.5798
37.8963
38.6825
40.3957
43.7243
49.3465
57.3884
67.0129
76.5842
84.4233
89.5776
92.0268
92.442
91.6974
90.5926
89.619
89.0464
88.9056
89.216
89.8979
90.979
92.3719
94.1481
96.1998
98.658
101.376
104.57
108.023
112.08
116.405
121.539
126.956
133.506
140.354
148.85
157.662
168.953
180.624
196.154
212.196
234.155
256.43
286.773
315.605
352.87
383.853
420.027
446.456
465.73
472.745
411.789
344.728
213.921
157.658
155.762
190.871
219.748
243.724
246.243
243.676
230.449
218.49
203.197
191.113
178.455
168.849
159.517
152.488
145.811
140.667
135.78
131.842
128.014
124.671
121.283
118.055
114.715
111.397
108.027
104.683
101.421
98.2389
95.2614
92.3866
89.782
87.2328
84.9567
82.6315
80.5445
78.2781
76.2029
73.8248
71.5926
68.9706
66.4628
63.544
60.7875
57.7922
37.4913
37.5817
37.9003
38.6905
40.4107
43.7489
49.3791
57.4214
67.0361
76.5919
84.4171
89.5629
92.0083
92.422
91.6766
90.5714
89.5981
89.0267
88.8877
89.2001
89.8838
90.9665
92.3607
94.1379
96.1905
98.6493
101.367
104.562
108.015
112.072
116.398
121.532
126.948
133.497
140.345
148.84
157.65
168.939
180.607
196.134
212.174
234.132
256.408
286.754
315.591
352.864
383.85
420.031
446.46
465.764
472.815
411.91
344.961
214.155
157.875
155.947
191.005
219.832
243.771
246.266
243.681
230.443
218.478
203.184
191.101
178.444
168.838
159.505
152.477
145.8
140.658
135.773
131.837
128.012
124.669
121.282
118.056
114.716
111.398
108.028
104.685
101.422
98.24
95.2627
92.3882
89.7843
87.2361
84.9614
82.6378
80.5526
78.2879
76.2147
73.8382
71.6077
68.9869
66.4801
63.5619
60.8058
57.8094
37.4921
37.5837
37.9044
38.6988
40.4262
43.7743
49.413
57.4557
67.0603
76.5999
84.4106
89.5476
91.9891
92.4011
91.6547
90.5491
89.5763
89.0062
88.869
89.1833
89.869
90.9533
92.3488
94.1272
96.1806
98.64
101.359
104.553
108.007
112.064
116.389
121.523
126.939
133.489
140.336
148.829
157.638
168.923
180.589
196.113
212.15
234.107
256.384
286.733
315.575
352.856
383.845
420.034
446.462
465.798
472.886
412.035
345.203
214.399
158.101
156.14
191.146
219.92
243.821
246.291
243.688
230.437
218.465
203.17
191.089
178.433
168.826
159.493
152.464
145.789
140.649
135.766
131.832
128.008
124.668
121.282
118.056
114.717
111.399
108.029
104.686
101.423
98.241
95.2637
92.3895
89.7863
87.2393
84.966
82.644
80.5607
78.2978
76.2266
73.8517
71.623
69.0035
66.4979
63.5804
60.8247
57.8273
37.4929
37.5857
37.9087
38.7074
40.4424
43.8008
49.4481
57.4912
67.0853
76.6082
84.4039
89.5317
91.969
92.3792
91.6319
90.5258
89.5534
88.9847
88.8494
89.1658
89.8534
90.9394
92.3364
94.1159
96.1701
98.6302
101.349
104.544
107.998
112.055
116.38
121.514
126.93
133.479
140.325
148.817
157.624
168.907
180.57
196.091
212.126
234.081
256.358
286.712
315.558
352.847
383.839
420.036
446.464
465.832
472.96
412.165
345.455
214.653
158.337
156.341
191.293
220.012
243.874
246.316
243.694
230.43
218.451
203.156
191.075
178.42
168.814
159.48
152.451
145.778
140.64
135.759
131.827
128.005
124.666
121.281
118.056
114.718
111.4
108.03
104.687
101.424
98.2418
95.2645
92.3907
89.7882
87.2423
84.9704
82.6501
80.5687
78.3077
76.2385
73.8655
71.6386
69.0206
66.5162
63.5995
60.8443
57.8461
37.4937
37.5878
37.9131
38.7163
40.4591
43.8281
49.4844
57.528
67.1112
76.6168
84.3969
89.5152
91.9481
92.3565
91.6081
90.5016
89.5296
88.9622
88.8289
89.1474
89.8371
90.9248
92.3233
94.1039
96.1591
98.6198
101.339
104.535
107.989
112.046
116.371
121.505
126.92
133.469
140.314
148.805
157.609
168.89
180.549
196.068
212.1
234.054
256.331
286.689
315.54
352.837
383.832
420.037
446.466
465.867
473.037
412.3
345.717
214.917
158.583
156.55
191.446
220.108
243.93
246.344
243.701
230.423
218.437
203.141
191.062
178.407
168.8
159.466
152.438
145.765
140.629
135.751
131.821
128.001
124.663
121.28
118.055
114.718
111.401
108.031
104.688
101.425
98.2424
95.2652
92.3917
89.7899
87.2451
84.9748
82.6562
80.5767
78.3177
76.2506
73.8795
71.6545
69.038
66.535
63.6191
60.8646
57.8656
37.4945
37.59
37.9177
38.7255
40.4765
43.8564
49.5219
57.566
67.138
76.6258
84.3897
89.498
91.9264
92.3328
91.5833
90.4763
89.5048
88.9388
88.8075
89.1283
89.82
90.9096
92.3096
94.0914
96.1475
98.6088
101.329
104.524
107.979
112.036
116.361
121.495
126.91
133.458
140.302
148.791
157.594
168.872
180.528
196.043
212.072
234.025
256.303
286.664
315.521
352.826
383.824
420.037
446.466
465.903
473.116
412.44
345.988
215.191
158.838
156.769
191.606
220.209
243.988
246.372
243.709
230.416
218.423
203.125
191.047
178.394
168.787
159.452
152.424
145.753
140.619
135.743
131.815
127.997
124.661
121.278
118.055
114.718
111.402
108.032
104.689
101.425
98.2428
95.2656
92.3925
89.7915
87.2478
84.979
82.6622
80.5848
78.3277
76.2628
73.8936
71.6708
69.0558
66.5543
63.6394
60.8857
57.8858
37.4954
37.5923
37.9224
38.735
40.4944
43.8856
49.5607
57.6053
67.1657
76.635
84.3822
89.4802
91.9039
92.3083
91.5576
90.4501
89.479
88.9144
88.7853
89.1083
89.8023
90.8937
92.2953
94.0783
96.1354
98.5974
101.318
104.514
107.968
112.025
116.35
121.484
126.899
133.446
140.29
148.777
157.578
168.853
180.506
196.018
212.044
233.995
256.273
286.638
315.5
352.814
383.814
420.036
446.466
465.94
473.199
412.585
346.27
215.476
159.104
156.996
191.772
220.315
244.049
246.402
243.717
230.409
218.409
203.109
191.032
178.38
168.772
159.437
152.409
145.739
140.607
135.734
131.809
127.993
124.658
121.277
118.054
114.718
111.402
108.033
104.689
101.426
98.2431
95.2659
92.3932
89.7929
87.2504
84.9832
82.6681
80.5928
78.3378
76.2752
73.908
71.6873
69.074
66.5741
63.6603
60.9074
57.9068
37.4963
37.5946
37.9273
38.7449
40.5128
43.9158
49.6007
57.6458
67.1943
76.6445
84.3745
89.4619
91.8807
92.2829
91.531
90.4228
89.4522
88.8892
88.7622
89.0876
89.7837
90.8771
92.2803
94.0646
96.1226
98.5853
101.306
104.502
107.957
112.014
116.339
121.472
126.887
133.434
140.277
148.762
157.561
168.833
180.483
195.991
212.014
233.964
256.242
286.611
315.478
352.8
383.804
420.034
446.465
465.977
473.283
412.736
346.561
215.773
159.381
157.232
191.945
220.425
244.113
246.434
243.726
230.403
218.394
203.093
191.017
178.365
168.757
159.422
152.394
145.725
140.596
135.725
131.802
127.988
124.655
121.275
118.053
114.718
111.402
108.033
104.69
101.426
98.2432
95.266
92.3936
89.7942
87.2528
84.9872
82.674
80.6008
78.3479
76.2876
73.9225
71.704
69.0925
66.5944
63.6818
60.9299
57.9286
37.4972
37.597
37.9323
38.755
40.5319
43.9469
49.6418
57.6874
67.2237
76.6543
84.3665
89.4429
91.8566
92.2566
91.5034
90.3946
89.4244
88.8629
88.7382
89.066
89.7645
90.8599
92.2647
94.0503
96.1093
98.5727
101.294
104.491
107.945
112.002
116.328
121.46
126.875
133.421
140.263
148.747
157.543
168.812
180.458
195.963
211.983
233.931
256.21
286.583
315.455
352.786
383.792
420.032
446.463
466.015
473.371
412.892
346.864
216.08
159.668
157.478
192.125
220.54
244.18
246.468
243.736
230.397
218.379
203.076
191.001
178.35
168.742
159.406
152.378
145.711
140.583
135.715
131.795
127.983
124.651
121.273
118.052
114.718
111.403
108.034
104.69
101.426
98.2431
95.266
92.394
89.7953
87.2552
84.9912
82.6798
80.6088
78.3581
76.3002
73.9373
71.7211
69.1115
66.6152
63.7039
60.953
57.9512
37.4982
37.5995
37.9375
38.7655
40.5515
43.9789
49.6842
57.7303
67.2539
76.6643
84.3583
89.4233
91.8317
92.2294
91.4748
90.3655
89.3957
88.8358
88.7133
89.0437
89.7445
90.842
92.2485
94.0354
96.0955
98.5596
101.282
104.478
107.933
111.99
116.315
121.448
126.862
133.407
140.248
148.73
157.524
168.79
180.433
195.934
211.951
233.897
256.176
286.553
315.431
352.77
383.78
420.028
446.461
466.055
473.462
413.054
347.177
216.399
159.966
157.733
192.313
220.66
244.251
246.503
243.747
230.39
218.365
203.06
190.985
178.335
168.726
159.389
152.362
145.696
140.571
135.705
131.787
127.978
124.648
121.27
118.051
114.718
111.403
108.034
104.69
101.426
98.2429
95.2658
92.3941
89.7962
87.2574
84.995
82.6856
80.6168
78.3683
76.3129
73.9522
71.7385
69.1309
66.6365
63.7265
60.9769
57.9746
37.4992
37.602
37.9429
38.7763
40.5718
44.0118
49.7278
57.7744
67.285
76.6747
84.3498
89.4031
91.8061
92.2014
91.4454
90.3353
89.366
88.8077
88.6876
89.0206
89.7238
90.8234
92.2317
94.02
96.0811
98.5459
101.268
104.465
107.92
111.978
116.302
121.435
126.848
133.393
140.233
148.713
157.504
168.767
180.406
195.904
211.918
233.862
256.141
286.522
315.405
352.754
383.766
420.024
446.459
466.095
473.556
413.221
347.5
216.729
160.275
157.998
192.507
220.786
244.324
246.541
243.759
230.385
218.35
203.042
190.968
178.319
168.71
159.372
152.345
145.681
140.557
135.694
131.779
127.972
124.644
121.268
118.05
114.717
111.403
108.034
104.69
101.426
98.2425
95.2654
92.3941
89.7971
87.2595
84.9988
82.6913
80.6248
78.3786
76.3257
73.9674
71.7562
69.1506
66.6583
63.7498
61.0015
57.9987
37.5002
37.6047
37.9484
38.7874
40.5926
44.0457
49.7726
57.8197
67.317
76.6854
84.3411
89.3824
91.7797
92.1725
91.415
90.3042
89.3354
88.7787
88.6611
88.9966
89.7024
90.8041
92.2142
94.0039
96.0661
98.5317
101.255
104.452
107.907
111.964
116.289
121.421
126.834
133.378
140.216
148.695
157.484
168.743
180.379
195.872
211.883
233.825
256.105
286.49
315.379
352.736
383.751
420.019
446.456
466.136
473.653
413.394
347.835
217.071
160.595
158.273
192.709
220.916
244.402
246.58
243.772
230.38
218.335
203.025
190.952
178.303
168.693
159.355
152.328
145.665
140.544
135.683
131.771
127.966
124.64
121.265
118.048
114.716
111.403
108.034
104.69
101.425
98.242
95.2649
92.394
89.7977
87.2614
85.0025
82.697
80.6328
78.3889
76.3387
73.9827
71.7742
69.1708
66.6806
63.7738
61.0269
58.0237
37.5013
37.6074
37.9541
38.7988
40.6139
44.0804
49.8186
57.8662
67.3497
76.6963
84.3321
89.361
91.7525
92.1427
91.3837
90.2722
89.3038
88.7488
88.6336
88.9719
89.6803
90.7842
92.1961
93.9872
96.0505
98.5169
101.241
104.438
107.893
111.95
116.275
121.407