/*--------------------------------*- C++ -*----------------------------------*\
| =========                 |                                                 |
| \\      /  F ield         | OpenFOAM: The Open Source CFD Toolbox           |
|  \\    /   O peration     | Version:  2412                                  |
|   \\  /    A nd           | Website:  www.openfoam.com                      |
|    \\/     M anipulation  |                                                 |
\*---------------------------------------------------------------------------*/
FoamFile
{
    version     2.0;
    format      ascii;
    arch        "LSB;label=32;scalar=64";
    class       volScalarField;
    location    "0.8";
    object      nut;
}
// * * * * * * * * * * * * * * * * * * * * * * * * * * * * * * * * * * * * * //

dimensions      [0 2 -1 0 0 0 0];

internalField   nonuniform List<scalar> 
13068
(
0.335693
0.336876
0.340046
0.347184
0.360979
0.382792
0.409225
0.432696
0.447204
0.450907
0.444913
0.432156
0.416347
0.400978
0.388507
0.380203
0.376087
0.37546
0.377173
0.380287
0.383966
0.387871
0.391638
0.395354
0.398815
0.402307
0.405577
0.409043
0.412298
0.41593
0.419309
0.423281
0.426905
0.431412
0.435407
0.440653
0.445103
0.451278
0.456269
0.463563
0.469029
0.477162
0.482285
0.489962
0.493066
0.498441
0.498268
0.500739
0.499307
0.495397
0.486696
0.437745
0.388317
0.275712
0.231781
0.287316
0.395223
0.440477
0.451117
0.438099
0.425992
0.409493
0.399744
0.389279
0.384655
0.379825
0.378983
0.377505
0.378083
0.377617
0.378105
0.377638
0.377541
0.376563
0.375519
0.373677
0.371614
0.369068
0.366503
0.363948
0.361659
0.359756
0.358196
0.357109
0.356152
0.355521
0.354653
0.35392
0.352593
0.351285
0.349101
0.346905
0.343633
0.340371
0.335928
0.331587
0.326148
0.32121
0.316015
0.335693
0.336876
0.340047
0.347186
0.360982
0.382796
0.409228
0.432698
0.447206
0.45091
0.444919
0.432164
0.416356
0.400986
0.388514
0.380208
0.37609
0.375462
0.377175
0.380289
0.383968
0.387874
0.391642
0.395358
0.398819
0.402311
0.405581
0.409047
0.412303
0.415935
0.419315
0.423288
0.426912
0.431419
0.435414
0.440659
0.445109
0.451284
0.456275
0.463569
0.469036
0.47717
0.482295
0.489973
0.493078
0.498452
0.498278
0.500745
0.499309
0.4954
0.4867
0.437759
0.38835
0.275745
0.231813
0.287354
0.395267
0.440512
0.451145
0.43812
0.426004
0.409498
0.399748
0.389284
0.384661
0.379829
0.378984
0.377505
0.378083
0.377618
0.378107
0.377641
0.377544
0.376566
0.375522
0.373678
0.371616
0.369069
0.366504
0.363949
0.36166
0.359757
0.358198
0.357111
0.356156
0.355526
0.354659
0.353927
0.3526
0.351292
0.349106
0.346908
0.343633
0.340366
0.335917
0.331569
0.326122
0.321175
0.315973
0.335694
0.336877
0.34005
0.347191
0.36099
0.382805
0.409236
0.432702
0.447207
0.45091
0.44492
0.432168
0.416361
0.400991
0.388518
0.38021
0.376092
0.375463
0.377176
0.380291
0.383971
0.387878
0.391645
0.395362
0.398823
0.402316
0.405586
0.409052
0.412308
0.415941
0.419321
0.423294
0.42692
0.431427
0.435422
0.440666
0.445115
0.45129
0.456281
0.463575
0.469043
0.477178
0.482304
0.489984
0.493089
0.498463
0.498287
0.500752
0.499312
0.495405
0.486707
0.437776
0.38839
0.275788
0.231854
0.287393
0.395305
0.440545
0.451171
0.43814
0.426016
0.409504
0.399752
0.38929
0.384668
0.379834
0.378985
0.377504
0.378083
0.37762
0.37811
0.377644
0.377547
0.376569
0.375524
0.37368
0.371617
0.36907
0.366505
0.36395
0.361661
0.359758
0.3582
0.357114
0.356159
0.355531
0.354665
0.353934
0.352608
0.351299
0.349113
0.346913
0.343633
0.340362
0.335908
0.331553
0.326098
0.321143
0.315933
0.335694
0.336879
0.340054
0.347199
0.361001
0.382819
0.409247
0.432708
0.447207
0.450907
0.444917
0.432166
0.416361
0.400991
0.388518
0.38021
0.376091
0.375464
0.377178
0.380293
0.383974
0.387881
0.39165
0.395367
0.398828
0.402321
0.405591
0.409057
0.412313
0.415946
0.419327
0.423301
0.426927
0.431434
0.435429
0.440672
0.445121
0.451295
0.456286
0.463581
0.46905
0.477186
0.482313
0.489994
0.493101
0.498474
0.498296
0.500758
0.499315
0.49541
0.486715
0.437796
0.388437
0.275839
0.231904
0.287435
0.39534
0.440575
0.451197
0.438159
0.426027
0.409509
0.399756
0.389296
0.384675
0.379839
0.378986
0.377504
0.378083
0.377621
0.378112
0.377648
0.377551
0.376573
0.375527
0.373683
0.371619
0.369072
0.366506
0.363951
0.361663
0.35976
0.358202
0.357116
0.356163
0.355536
0.354671
0.353942
0.352616
0.351307
0.34912
0.346918
0.343635
0.34036
0.3359
0.331538
0.326076
0.321113
0.315895
0.335695
0.336881
0.340059
0.347208
0.361017
0.382839
0.409264
0.432715
0.447205
0.450899
0.444908
0.432159
0.416356
0.400988
0.388515
0.380207
0.376089
0.375463
0.377178
0.380296
0.383977
0.387885
0.391654
0.395371
0.398832
0.402325
0.405596
0.409062
0.412318
0.415951
0.419333
0.423307
0.426933
0.431441
0.435435
0.440678
0.445126
0.4513
0.456291
0.463586
0.469056
0.477193
0.482322
0.490005
0.493112
0.498485
0.498305
0.500763
0.499317
0.495416
0.486724
0.437819
0.38849
0.275899
0.231964
0.28748
0.395371
0.440602
0.451221
0.438178
0.426038
0.409514
0.39976
0.389302
0.384682
0.379844
0.378988
0.377503
0.378083
0.377623
0.378116
0.377651
0.377555
0.376576
0.375531
0.373686
0.371621
0.369073
0.366507
0.363952
0.361664
0.359761
0.358204
0.357119
0.356167
0.355541
0.354678
0.35395
0.352625
0.351316
0.349128
0.346924
0.343638
0.340359
0.335893
0.331525
0.326056
0.321085
0.315859
0.335696
0.336884
0.340065
0.347221
0.361038
0.382864
0.409284
0.432724
0.447201
0.450887
0.444894
0.432146
0.416346
0.40098
0.388508
0.380202
0.376086
0.375462
0.377179
0.380298
0.383981
0.387889
0.391658
0.395376
0.398837
0.40233
0.4056
0.409067
0.412323
0.415956
0.419338
0.423313
0.42694
0.431447
0.435441
0.440683
0.44513
0.451303
0.456294
0.46359
0.469061
0.4772
0.48233
0.490014
0.493122
0.498495
0.498313
0.500768
0.499319
0.495422
0.486735
0.437844
0.388549
0.275967
0.232032
0.287527
0.395398
0.440626
0.451243
0.438196
0.426048
0.409519
0.399764
0.389309
0.384689
0.379849
0.378989
0.377503
0.378083
0.377625
0.378119
0.377655
0.377559
0.376581
0.375535
0.373689
0.371623
0.369075
0.366509
0.363953
0.361665
0.359763
0.358205
0.357121
0.35617
0.355546
0.354685
0.353958
0.352634
0.351325
0.349136
0.34693
0.343642
0.340358
0.335888
0.331514
0.326038
0.321059
0.315826
0.335697
0.336887
0.340072
0.347236
0.361062
0.382894
0.409309
0.432734
0.447196
0.450871
0.444874
0.432127
0.41633
0.400967
0.388498
0.380194
0.37608
0.375459
0.377179
0.3803
0.383984
0.387894
0.391663
0.395381
0.398842
0.402334
0.405604
0.409071
0.412327
0.415961
0.419343
0.423318
0.426945
0.431453
0.435446
0.440688
0.445134
0.451306
0.456297
0.463593
0.469065
0.477206
0.482337
0.490023
0.493132
0.498505
0.49832
0.500772
0.499321
0.495429
0.486747
0.437872
0.388614
0.276043
0.23211
0.287577
0.395423
0.440647
0.451264
0.438213
0.426058
0.409523
0.399767
0.389315
0.384697
0.379855
0.378991
0.377503
0.378084
0.377627
0.378122
0.37766
0.377564
0.376585
0.375539
0.373692
0.371626
0.369077
0.36651
0.363954
0.361666
0.359764
0.358207
0.357124
0.356174
0.355552
0.354692
0.353967
0.352643
0.351335
0.349145
0.346938
0.343647
0.34036
0.335885
0.331504
0.326022
0.321035
0.315795
0.335698
0.336891
0.340081
0.347253
0.361091
0.38293
0.409339
0.432746
0.447189
0.450851
0.444848
0.432103
0.416309
0.400949
0.388484
0.380183
0.376073
0.375455
0.377179
0.380303
0.383988
0.387899
0.391668
0.395385
0.398846
0.402339
0.405609
0.409075
0.412331
0.415965
0.419348
0.423323
0.42695
0.431458
0.435451
0.440691
0.445137
0.451309
0.4563
0.463596
0.469069
0.477211
0.482344
0.490032
0.493142
0.498514
0.498326
0.500776
0.499322
0.495436
0.48676
0.437902
0.388686
0.276129
0.232196
0.28763
0.395444
0.440665
0.451283
0.438228
0.426067
0.409527
0.399771
0.389322
0.384705
0.379861
0.378993
0.377503
0.378084
0.377629
0.378126
0.377665
0.377569
0.37659
0.375543
0.373696
0.371629
0.369079
0.366512
0.363956
0.361667
0.359765
0.358209
0.357126
0.356178
0.355557
0.354699
0.353976
0.352653
0.351346
0.349155
0.346946
0.343653
0.340362
0.335883
0.331496
0.326008
0.321014
0.315766
0.335699
0.336895
0.340091
0.347273
0.361124
0.382971
0.409373
0.43276
0.44718
0.450827
0.444817
0.432072
0.416283
0.400927
0.388466
0.380169
0.376064
0.375451
0.377178
0.380305
0.383992
0.387903
0.391673
0.39539
0.398851
0.402343
0.405613
0.409079
0.412335
0.415969
0.419352
0.423327
0.426955
0.431462
0.435455
0.440695
0.445139
0.45131
0.456301
0.463598
0.469072
0.477215
0.48235
0.49004
0.49315
0.498522
0.498332
0.500779
0.499323
0.495443
0.486774
0.437935
0.388765
0.276222
0.232291
0.287686
0.395462
0.440681
0.451301
0.438243
0.426075
0.40953
0.399775
0.389329
0.384714
0.379867
0.378996
0.377503
0.378085
0.377632
0.37813
0.37767
0.377575
0.376596
0.375548
0.3737
0.371632
0.369082
0.366514
0.363957
0.361669
0.359766
0.35821
0.357129
0.356182
0.355563
0.354707
0.353985
0.352664
0.351357
0.349166
0.346956
0.34366
0.340366
0.335882
0.33149
0.325995
0.320995
0.31574
0.335701
0.3369
0.340102
0.347295
0.361162
0.383018
0.409411
0.432775
0.44717
0.450798
0.444781
0.432036
0.416251
0.4009
0.388444
0.380152
0.376053
0.375445
0.377177
0.380307
0.383997
0.387908
0.391678
0.395395
0.398855
0.402347
0.405617
0.409082
0.412339
0.415973
0.419355
0.423331
0.426959
0.431466
0.435458
0.440697
0.445141
0.451311
0.456302
0.463599
0.469074
0.477219
0.482356
0.490047
0.493158
0.498529
0.498336
0.500782
0.499323
0.495451
0.48679
0.43797
0.388849
0.276324
0.232396
0.287746
0.395477
0.440694
0.451317
0.438257
0.426083
0.409533
0.399779
0.389336
0.384722
0.379874
0.378998
0.377503
0.378085
0.377634
0.378135
0.377675
0.37758
0.376602
0.375553
0.373704
0.371636
0.369085
0.366516
0.363959
0.36167
0.359768
0.358212
0.357131
0.356186
0.355569
0.354715
0.353994
0.352675
0.351368
0.349177
0.346966
0.343668
0.340371
0.335883
0.331486
0.325985
0.320978
0.315716
0.335702
0.336905
0.340114
0.347321
0.361203
0.383069
0.409454
0.432792
0.447158
0.450765
0.444739
0.431994
0.416213
0.400869
0.388418
0.380133
0.37604
0.375439
0.377176
0.380309
0.384001
0.387914
0.391684
0.3954
0.39886
0.402351
0.40562
0.409086
0.412342
0.415976
0.419359
0.423335
0.426963
0.43147
0.435461
0.440699
0.445141
0.451311
0.456301
0.463599
0.469075
0.477222
0.482361
0.490054
0.493166
0.498536
0.498341
0.500784
0.499323
0.495459
0.486807
0.438008
0.38894
0.276435
0.23251
0.287809
0.39549
0.440704
0.451332
0.438269
0.42609
0.409535
0.399782
0.389343
0.384731
0.379881
0.379001
0.377504
0.378086
0.377637
0.378139
0.377681
0.377587
0.376608
0.375559
0.373709
0.371639
0.369088
0.366518
0.36396
0.361671
0.359769
0.358214
0.357134
0.35619
0.355575
0.354723
0.354004
0.352686
0.35138
0.349189
0.346977
0.343677
0.340377
0.335885
0.331483
0.325976
0.320963
0.315694
0.335704
0.336911
0.340128
0.347348
0.361249
0.383127
0.409501
0.43281
0.447144
0.450728
0.444691
0.431946
0.41617
0.400833
0.388389
0.380111
0.376025
0.375431
0.377174
0.380312
0.384006
0.387919
0.391689
0.395405
0.398864
0.402355
0.405624
0.409089
0.412345
0.415978
0.419362
0.423338
0.426966
0.431472
0.435463
0.4407
0.445141
0.45131
0.4563
0.463599
0.469076
0.477224
0.482365
0.49006
0.493173
0.498543
0.498344
0.500785
0.499323
0.495468
0.486826
0.438048
0.389038
0.276554
0.232632
0.287875
0.395499
0.440711
0.451345
0.438281
0.426096
0.409537
0.399786
0.389351
0.384741
0.379888
0.379004
0.377504
0.378087
0.37764
0.378144
0.377687
0.377593
0.376614
0.375564
0.373714
0.371643
0.369091
0.36652
0.363962
0.361672
0.35977
0.358215
0.357136
0.356194
0.355581
0.354731
0.354015
0.352698
0.351393
0.349202
0.346989
0.343687
0.340384
0.335889
0.331482
0.32597
0.32095
0.315674
0.335706
0.336917
0.340143
0.347378
0.3613
0.383189
0.409553
0.43283
0.447128
0.450686
0.444637
0.431892
0.416122
0.400792
0.388355
0.380085
0.376008
0.375422
0.377172
0.380314
0.38401
0.387925
0.391695
0.395411
0.398869
0.402359
0.405627
0.409092
0.412347
0.415981
0.419364
0.42334
0.426969
0.431475
0.435465
0.4407
0.44514
0.451308
0.456299
0.463598
0.469076
0.477226
0.482369
0.490065
0.493179
0.498548
0.498347
0.500786
0.499322
0.495478
0.486846
0.438091
0.389141
0.276682
0.232765
0.287944
0.395505
0.440716
0.451357
0.438291
0.426101
0.409539
0.399789
0.389358
0.38475
0.379895
0.379007
0.377505
0.378088
0.377643
0.378149
0.377693
0.3776
0.376621
0.37557
0.373719
0.371648
0.369094
0.366523
0.363964
0.361673
0.359771
0.358217
0.357139
0.356198
0.355587
0.35474
0.354025
0.35271
0.351407
0.349216
0.347002
0.343698
0.340393
0.335894
0.331482
0.325965
0.320939
0.315657
0.335708
0.336924
0.340159
0.347411
0.361354
0.383257
0.409608
0.432851
0.447111
0.45064
0.444578
0.431832
0.416068
0.400746
0.388318
0.380058
0.37599
0.375412
0.377169
0.380316
0.384015
0.387931
0.391701
0.395416
0.398873
0.402363
0.40563
0.409094
0.412349
0.415983
0.419366
0.423342
0.426971
0.431476
0.435466
0.4407
0.445139
0.451306
0.456296
0.463596
0.469075
0.477227
0.482372
0.49007
0.493185
0.498554
0.498349
0.500786
0.499321
0.495487
0.486867
0.438137
0.389252
0.276818
0.232906
0.288017
0.395508
0.440718
0.451367
0.438301
0.426105
0.40954
0.399792
0.389365
0.38476
0.379903
0.37901
0.377506
0.378089
0.377646
0.378154
0.3777
0.377607
0.376628
0.375577
0.373724
0.371652
0.369098
0.366525
0.363965
0.361675
0.359772
0.358218
0.357141
0.356202
0.355593
0.354748
0.354036
0.352723
0.35142
0.34923
0.347015
0.34371
0.340402
0.335901
0.331484
0.325963
0.320931
0.315642
0.335711
0.336931
0.340176
0.347446
0.361413
0.38333
0.409669
0.432874
0.447091
0.45059
0.444514
0.431767
0.416009
0.400696
0.388278
0.380027
0.375969
0.375402
0.377166
0.380319
0.38402
0.387937
0.391706
0.395421
0.398878
0.402366
0.405633
0.409097
0.412351
0.415985
0.419368
0.423344
0.426972
0.431478
0.435466
0.440699
0.445137
0.451303
0.456293
0.463593
0.469073
0.477227
0.482374
0.490075
0.49319
0.498558
0.49835
0.500786
0.49932
0.495498
0.486889
0.438185
0.389369
0.276964
0.233057
0.288094
0.395508
0.440717
0.451375
0.438309
0.426109
0.40954
0.399795
0.389373
0.38477
0.37991
0.379014
0.377506
0.37809
0.377649
0.37816
0.377707
0.377615
0.376635
0.375583
0.37373
0.371657
0.369101
0.366528
0.363967
0.361676
0.359773
0.358219
0.357144
0.356206
0.3556
0.354757
0.354048
0.352736
0.351435
0.349245
0.34703
0.343724
0.340413
0.335909
0.331488
0.325962
0.320925
0.315629
0.335713
0.336939
0.340194
0.347484
0.361476
0.383409
0.409733
0.432898
0.447071
0.450536
0.444444
0.431695
0.415944
0.40064
0.388233
0.379993
0.375947
0.37539
0.377163
0.380321
0.384025
0.387943
0.391713
0.395426
0.398882
0.40237
0.405636
0.409099
0.412353
0.415986
0.419369
0.423345
0.426973
0.431478
0.435466
0.440697
0.445134
0.451299
0.456289
0.463589
0.469071
0.477227
0.482376
0.490079
0.493195
0.498562
0.49835
0.500785
0.499318
0.495509
0.486913
0.438236
0.389492
0.277118
0.233218
0.288173
0.395505
0.440713
0.451381
0.438315
0.426112
0.40954
0.399797
0.38938
0.38478
0.379918
0.379017
0.377507
0.378091
0.377653
0.378165
0.377714
0.377622
0.376643
0.37559
0.373736
0.371662
0.369105
0.366531
0.363969
0.361677
0.359774
0.358221
0.357146
0.356211
0.355606
0.354767
0.35406
0.35275
0.35145
0.34926
0.347045
0.343738
0.340426
0.335918
0.331494
0.325963
0.320921
0.315619
0.335716
0.336947
0.340214
0.347524
0.361543
0.383492
0.409802
0.432924
0.447048
0.450477
0.444368
0.431618
0.415874
0.400581
0.388184
0.379956
0.375922
0.375377
0.377159
0.380323
0.384031
0.387949
0.391719
0.395432
0.398887
0.402373
0.405638
0.4091
0.412354
0.415987
0.41937
0.423346
0.426974
0.431478
0.435465
0.440695
0.44513
0.451294
0.456284
0.463585
0.469068
0.477226
0.482377
0.490082
0.493199
0.498566
0.49835
0.500783
0.499315
0.49552
0.486939
0.43829
0.389622
0.277281
0.233388
0.288257
0.395499
0.440705
0.451386
0.438321
0.426113
0.409539
0.399799
0.389388
0.38479
0.379926
0.379021
0.377508
0.378093
0.377656
0.378171
0.377721
0.37763
0.376651
0.375597
0.373742
0.371667
0.369109
0.366534
0.363971
0.361678
0.359775
0.358222
0.357148
0.356215
0.355613
0.354776
0.354072
0.352764
0.351466
0.349276
0.347061
0.343753
0.340439
0.335929
0.331501
0.325966
0.320919
0.315611
0.335718
0.336956
0.340235
0.347567
0.361614
0.383581
0.409874
0.43295
0.447023
0.450414
0.444286
0.431535
0.415799
0.400516
0.388132
0.379917
0.375896
0.375363
0.377155
0.380325
0.384036
0.387956
0.391725
0.395437
0.398891
0.402377
0.40564
0.409102
0.412355
0.415988
0.41937
0.423346
0.426974
0.431478
0.435463
0.440692
0.445126
0.451289
0.456278
0.46358
0.469064
0.477224
0.482378
0.490085
0.493202
0.498568
0.498349
0.500781
0.499313
0.495532
0.486966
0.438346
0.389759
0.277453
0.233568
0.288344
0.39549
0.440695
0.451388
0.438325
0.426114
0.409538
0.399801
0.389395
0.3848
0.379934
0.379024
0.377509
0.378094
0.37766
0.378177
0.377729
0.377639
0.376659
0.375605
0.373749
0.371672
0.369114
0.366537
0.363973
0.361679
0.359776
0.358223
0.357151
0.356219
0.35562
0.354786
0.354084
0.352779
0.351482
0.349293
0.347078
0.343769
0.340454
0.335941
0.33151
0.325972
0.32092
0.315605
0.335721
0.336965
0.340257
0.347612
0.36169
0.383675
0.409951
0.432979
0.446997
0.450347
0.444199
0.431446
0.415718
0.400447
0.388076
0.379875
0.375868
0.375348
0.37715
0.380327
0.384042
0.387963
0.391732
0.395443
0.398895
0.40238
0.405643
0.409103
0.412356
0.415988
0.41937
0.423346
0.426974
0.431477
0.435461
0.440688
0.445121
0.451283
0.456272
0.463574
0.46906
0.477222
0.482378
0.490088
0.493205
0.498571
0.498348
0.500779
0.49931
0.495544
0.486994
0.438406
0.389902
0.277634
0.233757
0.288435
0.395478
0.440682
0.451388
0.438327
0.426113
0.409535
0.399803
0.389403
0.38481
0.379942
0.379028
0.37751
0.378095
0.377664
0.378183
0.377737
0.377647
0.376668
0.375613
0.373755
0.371678
0.369118
0.36654
0.363975
0.36168
0.359776
0.358224
0.357153
0.356224
0.355627
0.354796
0.354097
0.352794
0.351498
0.349311
0.347096
0.343787
0.34047
0.335955
0.331521
0.325979
0.320922
0.315602
0.335724
0.336975
0.340281
0.34766
0.36177
0.383775
0.410033
0.433008
0.446968
0.450276
0.444107
0.431351
0.415631
0.400373
0.388015
0.379829
0.375838
0.375332
0.377145
0.380329
0.384048
0.38797
0.391739
0.395448
0.3989
0.402383
0.405644
0.409104
0.412357
0.415988
0.41937
0.423345
0.426973
0.431475
0.435459
0.440684
0.445115
0.451276
0.456265
0.463568
0.469055
0.477219
0.482377
0.49009
0.493208
0.498572
0.498345
0.500776
0.499307
0.495557
0.487024
0.438468
0.390053
0.277825
0.233957
0.28853
0.395462
0.440665
0.451387
0.438328
0.426112
0.409532
0.399804
0.38941
0.38482
0.379951
0.379032
0.377511
0.378097
0.377667
0.378189
0.377745
0.377656
0.376676
0.375621
0.373762
0.371684
0.369123
0.366543
0.363977
0.361681
0.359777
0.358225
0.357156
0.356228
0.355634
0.354806
0.35411
0.352809
0.351516
0.349329
0.347115
0.343805
0.340487
0.33597
0.331534
0.325988
0.320927
0.3156
0.335728
0.336985
0.340305
0.34771
0.361854
0.383879
0.410118
0.433039
0.446938
0.4502
0.444009
0.43125
0.415539
0.400294
0.387951
0.379781
0.375806
0.375314
0.377139
0.380331
0.384054
0.387977
0.391745
0.395454
0.398904
0.402386
0.405646
0.409105
0.412357
0.415987
0.419369
0.423344
0.426971
0.431473
0.435455
0.440679
0.445109
0.451269
0.456257
0.46356
0.469049
0.477216
0.482376
0.490091
0.49321
0.498574
0.498343
0.500772
0.499303
0.495571
0.487055
0.438533
0.39021
0.278025
0.234167
0.288629
0.395444
0.440645
0.451383
0.438327
0.426109
0.409528
0.399804
0.389417
0.384831
0.379959
0.379036
0.377512
0.378098
0.377671
0.378196
0.377753
0.377666
0.376685
0.375629
0.37377
0.37169
0.369127
0.366547
0.363979
0.361682
0.359778
0.358226
0.357158
0.356233
0.355642
0.354816
0.354123
0.352825
0.351534
0.349348
0.347135
0.343824
0.340506
0.335987
0.331548
0.325999
0.320934
0.315601
0.335731
0.336996
0.340331
0.347763
0.361942
0.383988
0.410207
0.433071
0.446906
0.45012
0.443905
0.431144
0.415442
0.40021
0.387884
0.37973
0.375772
0.375296
0.377133
0.380333
0.38406
0.387985
0.391752
0.39546
0.398908
0.402388
0.405648
0.409106
0.412356
0.415987
0.419368
0.423343
0.426969
0.43147
0.435451
0.440674
0.445101
0.45126
0.456248
0.463552
0.469042
0.477212
0.482374
0.490092
0.493211
0.498574
0.498339
0.500768
0.4993
0.495585
0.487088
0.438601
0.390374
0.278234
0.234387
0.288731
0.395421
0.440621
0.451376
0.438325
0.426105
0.409523
0.399805
0.389424
0.384841
0.379967
0.379039
0.377513
0.378099
0.377675
0.378202
0.377762
0.377675
0.376695
0.375638
0.373777
0.371696
0.369132
0.36655
0.363981
0.361683
0.359778
0.358227
0.35716
0.356237
0.355649
0.354827
0.354137
0.352841
0.351552
0.349368
0.347155
0.343844
0.340525
0.336005
0.331564
0.326012
0.320944
0.315605
0.335735
0.337007
0.340358
0.347819
0.362034
0.384103
0.4103
0.433105
0.446872
0.450035
0.443795
0.431031
0.415339
0.400122
0.387812
0.379676
0.375735
0.375276
0.377127
0.380335
0.384066
0.387992
0.391759
0.395466
0.398912
0.402391
0.405649
0.409106
0.412356
0.415985
0.419366
0.423341
0.426967
0.431467
0.435447
0.440667
0.445094
0.451252
0.456239
0.463544
0.469035
0.477207
0.482372
0.490093
0.493212
0.498574
0.498335
0.500763
0.499295
0.4956
0.487122
0.438672
0.390545
0.278453
0.234617
0.288838
0.395395
0.440593
0.451367
0.43832
0.426099
0.409518
0.399804
0.38943
0.384851
0.379976
0.379043
0.377514
0.378101
0.377679
0.378209
0.377771
0.377685
0.376705
0.375647
0.373785
0.371703
0.369138
0.366554
0.363983
0.361684
0.359779
0.358228
0.357163
0.356242
0.355657
0.354838
0.354151
0.352858
0.351571
0.349388
0.347176
0.343866
0.340546
0.336025
0.331581
0.326026
0.320955
0.315611
0.335738
0.337019
0.340387
0.347876
0.362131
0.384222
0.410397
0.433139
0.446836
0.449946
0.44368
0.430913
0.41523
0.400029
0.387736
0.379618
0.375697
0.375256
0.37712
0.380337
0.384072
0.388
0.391767
0.395472
0.398917
0.402394
0.40565
0.409106
0.412355
0.415984
0.419365
0.423338
0.426964
0.431463
0.435442
0.440661
0.445085
0.451242
0.456228
0.463534
0.469027
0.477202
0.482369
0.490093
0.493212
0.498574
0.49833
0.500758
0.499291
0.495615
0.487158
0.438746
0.390723
0.278682
0.234857
0.288948
0.395366
0.440562
0.451355
0.438314
0.426092
0.409511
0.399803
0.389436
0.384861
0.379984
0.379047
0.377515
0.378102
0.377683
0.378216
0.37778
0.377695
0.376715
0.375656
0.373793
0.371709
0.369143
0.366558
0.363985
0.361685
0.359779
0.358229
0.357165
0.356247
0.355665
0.354849
0.354165
0.352875
0.351591
0.349409
0.347199
0.343888
0.340568
0.336046
0.3316
0.326043
0.320969
0.315619
0.335742
0.337032
0.340416
0.347937
0.362231
0.384347
0.410498
0.433175
0.446799
0.449853
0.44356
0.430789
0.415116
0.399931
0.387656
0.379558
0.375657
0.375234
0.377112
0.380339
0.384079
0.388008
0.391774
0.395477
0.398921
0.402396
0.405652
0.409106
0.412354
0.415982
0.419362
0.423335
0.42696
0.431459
0.435436
0.440653
0.445076
0.451231
0.456218
0.463524
0.469018
0.477196
0.482366
0.490092
0.493212
0.498573
0.498325
0.500753
0.499287
0.495631
0.487195
0.438824
0.390908
0.27892
0.235108
0.289062
0.395333
0.440526
0.451341
0.438305
0.426084
0.409503
0.399802
0.389442
0.384872
0.379992
0.379051
0.377516
0.378104
0.377687
0.378223
0.377789
0.377705
0.376725
0.375665
0.373801
0.371716
0.369148
0.366561
0.363988
0.361686
0.35978
0.35823
0.357167
0.356251
0.355673
0.35486
0.35418
0.352893
0.351611
0.349431
0.347221
0.343911
0.340591
0.336068
0.331621
0.326062
0.320985
0.315629
0.335746
0.337045
0.340447
0.348
0.362336
0.384476
0.410603
0.433212
0.446759
0.449756
0.443433
0.430658
0.414997
0.399828
0.387573
0.379495
0.375615
0.375211
0.377104
0.38034
0.384086
0.388016
0.391782
0.395483
0.398925
0.402399
0.405652
0.409106
0.412353
0.41598
0.419359
0.423332
0.426957
0.431454
0.43543
0.440645
0.445066
0.45122
0.456206
0.463513
0.469009
0.477189
0.482362
0.490091
0.493212
0.498572
0.498319
0.500747
0.499282
0.495648
0.487234
0.438904
0.3911
0.279169
0.23537
0.289181
0.395296
0.440486
0.451324
0.438294
0.426074
0.409494
0.399799
0.389448
0.384881
0.380001
0.379055
0.377517
0.378105
0.377691
0.37823
0.377798
0.377715
0.376735
0.375675
0.37381
0.371723
0.369154
0.366565
0.36399
0.361687
0.35978
0.358231
0.357169
0.356256
0.355681
0.354872
0.354195
0.352911
0.351631
0.349453
0.347245
0.343936
0.340616
0.336092
0.331644
0.326083
0.321003
0.315642
0.335751
0.337058
0.340479
0.348065
0.362445
0.384611
0.410712
0.43325
0.446717
0.449654
0.443301
0.430522
0.414872
0.399721
0.387485
0.379429
0.375571
0.375186
0.377095
0.380342
0.384092
0.388024
0.391789
0.395489
0.398929
0.402401
0.405653
0.409105
0.412351
0.415977
0.419356
0.423328
0.426952
0.431448
0.435423
0.440636
0.445056
0.451209
0.456194
0.463502
0.468999
0.477182
0.482358
0.49009
0.493211
0.49857
0.498312
0.50074
0.499277
0.495665
0.487275
0.438988
0.3913
0.279427
0.235643
0.289304
0.395255
0.440442
0.451303
0.438281
0.426062
0.409483
0.399796
0.389453
0.384891
0.380009
0.379059
0.377518
0.378106
0.377695
0.378237
0.377808
0.377726
0.376746
0.375684
0.373818
0.371731
0.36916
0.366569
0.363992
0.361688
0.35978
0.358231
0.357172
0.356261
0.355689
0.354884
0.354211
0.35293
0.351652
0.349476
0.34727
0.343961
0.340642
0.336118
0.331668
0.326105
0.321023
0.315657
0.335755
0.337072
0.340512
0.348133
0.362558
0.38475
0.410824
0.433288
0.446673
0.449548
0.443164
0.43038
0.414741
0.399609
0.387393
0.37936
0.375524
0.375161
0.377086
0.380343
0.384099
0.388032
0.391797
0.395495
0.398933
0.402403
0.405654
0.409104
0.412349
0.415975
0.419353
0.423324
0.426947
0.431442
0.435415
0.440627
0.445044
0.451196
0.456181
0.463489
0.468988
0.477174
0.482353
0.490088
0.49321
0.498568
0.498305
0.500733
0.499272
0.495684
0.487317
0.439075
0.391507
0.279696
0.235926
0.289431
0.39521
0.440394
0.45128
0.438266
0.426048
0.409472
0.399792
0.389458
0.3849
0.380017
0.379062
0.377518
0.378107
0.377699
0.378244
0.377817
0.377737
0.376757
0.375694
0.373827
0.371738
0.369166
0.366573
0.363994
0.361689
0.35978
0.358232
0.357174
0.356266
0.355697
0.354896
0.354226
0.352948
0.351674
0.3495
0.347295
0.343987
0.340669
0.336144
0.331694
0.32613
0.321046
0.315674
0.335759
0.337086
0.340547
0.348203
0.362674
0.384894
0.410941
0.433328
0.446627
0.449437
0.443021
0.430233
0.414605
0.399491
0.387298
0.379288
0.375476
0.375134
0.377076
0.380345
0.384106
0.388041
0.391805
0.395502
0.398937
0.402405
0.405654
0.409103
0.412347
0.415971
0.419349
0.42332
0.426942
0.431436
0.435407
0.440617
0.445033
0.451183
0.456167
0.463477
0.468977
0.477166
0.482347
0.490086
0.493208
0.498565
0.498297
0.500726
0.499266
0.495703
0.487361
0.439165
0.391721
0.279975
0.236221
0.289562
0.39516
0.440341
0.451252
0.438248
0.426033
0.409459
0.399787
0.389462
0.38491
0.380025
0.379066
0.377519
0.378108
0.377703
0.378252
0.377827
0.377748
0.376768
0.375705
0.373836
0.371746
0.369172
0.366577
0.363996
0.361689
0.35978
0.358232
0.357176
0.356271
0.355705
0.354908
0.354242
0.352968
0.351696
0.349525
0.347322
0.344014
0.340697
0.336173
0.331722
0.326157
0.32107
0.315693
0.335764
0.337101
0.340582
0.348276
0.362795
0.385043
0.41106
0.433369
0.446579
0.449322
0.442872
0.430079
0.414464
0.399369
0.387198
0.379212
0.375425
0.375106
0.377066
0.380346
0.384113
0.38805
0.391813
0.395508
0.398941
0.402407
0.405654
0.409101
0.412344
0.415968
0.419344
0.423314
0.426936
0.431429
0.435399
0.440607
0.44502
0.451169
0.456153
0.463463
0.468965
0.477157
0.482342
0.490083
0.493206
0.498562
0.498289
0.500718
0.499261
0.495722
0.487407
0.439258
0.391943
0.280264
0.236527
0.289697
0.395107
0.440283
0.451222
0.438227
0.426015
0.409444
0.399782
0.389465
0.384918
0.380032
0.379069
0.377519
0.378109
0.377707
0.378259
0.377837
0.377759
0.376779
0.375715
0.373846
0.371754
0.369178
0.366581
0.363998
0.36169
0.35978
0.358233
0.357178
0.356276
0.355714
0.354921
0.354259
0.352988
0.351719
0.34955
0.347349
0.344043
0.340726
0.336202
0.331751
0.326185
0.321097
0.315715
0.335769
0.337117
0.340619
0.348351
0.36292
0.385196
0.411184
0.433411
0.446529
0.449202
0.442717
0.429919
0.414317
0.399242
0.387095
0.379134
0.375373
0.375077
0.377055
0.380347
0.38412
0.388059
0.391821
0.395514
0.398945
0.402409
0.405654
0.4091
0.412341
0.415964
0.41934
0.423309
0.42693
0.431421
0.435389
0.440595
0.445007
0.451155
0.456138
0.463449
0.468953
0.477148
0.482335
0.49008
0.493203
0.498559
0.49828
0.50071
0.499255
0.495743
0.487454
0.439355
0.392173
0.280564
0.236844
0.289837
0.395049
0.440219
0.451188
0.438204
0.425996
0.409428
0.399775
0.389468
0.384927
0.380039
0.379072
0.377519
0.37811
0.377711
0.378266
0.377847
0.37777
0.376791
0.375726
0.373855
0.371762
0.369184
0.366586
0.364
0.36169
0.35978
0.358233
0.35718
0.35628
0.355723
0.354933
0.354276
0.353008
0.351742
0.349575
0.347377
0.344072
0.340757
0.336233
0.331783
0.326216
0.321126
0.31574
0.335774
0.337133
0.340657
0.348429
0.363049
0.385355
0.411311
0.433453
0.446477
0.449079
0.442557
0.429754
0.414164
0.399111
0.386987
0.379052
0.375318
0.375047
0.377044
0.380348
0.384127
0.388068
0.391829
0.39552
0.398949
0.40241
0.405654
0.409098
0.412338
0.41596
0.419335
0.423303
0.426923
0.431413
0.43538
0.440584
0.444993
0.45114
0.456122
0.463434
0.468939
0.477138
0.482329
0.490077
0.4932
0.498555
0.498271
0.500702
0.499249
0.495764
0.487504
0.439455
0.39241
0.280875
0.237173
0.289981
0.394987
0.440151
0.45115
0.438177
0.425974
0.409411
0.399767
0.389471
0.384935
0.380047
0.379075
0.37752
0.378111
0.377714
0.378273
0.377857
0.377782
0.376802
0.375737
0.373865
0.37177
0.36919
0.36659
0.364003
0.361691
0.35978
0.358233
0.357182
0.356285
0.355731
0.354946
0.354293
0.353028
0.351766
0.349602
0.347405
0.344102
0.340789
0.336266
0.331815
0.326248
0.321158
0.315766
0.335779
0.33715
0.340697
0.348509
0.363182
0.385517
0.411441
0.433497
0.446423
0.44895
0.442391
0.429582
0.414006
0.398974
0.386875
0.378967
0.375261
0.375015
0.377032
0.380349
0.384135
0.388077
0.391838
0.395527
0.398953
0.402412
0.405653
0.409096
0.412335
0.415955
0.419329
0.423297
0.426915
0.431404
0.435369
0.440571
0.444979
0.451124
0.456106
0.463418
0.468926
0.477128
0.482321
0.490073
0.493197
0.498551
0.498261
0.500693
0.499243
0.495786
0.487555
0.439559
0.392655
0.281197
0.237513
0.290129
0.394919
0.440078
0.451108
0.438148
0.42595
0.409392
0.399758
0.389472
0.384942
0.380053
0.379078
0.37752
0.378111
0.377718
0.378281
0.377867
0.377794
0.376814
0.375748
0.373875
0.371778
0.369197
0.366594
0.364005
0.361691
0.35978
0.358234
0.357184
0.35629
0.35574
0.35496
0.35431
0.353049
0.351791
0.349629
0.347435
0.344133
0.340822
0.3363
0.33185
0.326283
0.321191
0.315795
0.335785
0.337167
0.340737
0.348592
0.363319
0.385685