/*--------------------------------*- C++ -*----------------------------------*\
| =========                 |                                                 |
| \\      /  F ield         | OpenFOAM: The Open Source CFD Toolbox           |
|  \\    /   O peration     | Version:  2412                                  |
|   \\  /    A nd           | Website:  www.openfoam.com                      |
|    \\/     M anipulation  |                                                 |
\*---------------------------------------------------------------------------*/
FoamFile
{
    version     2.0;
    format      ascii;
    arch        "LSB;label=32;scalar=64";
    class       volScalarField;
    location    "0.8";
    object      p;
}
// * * * * * * * * * * * * * * * * * * * * * * * * * * * * * * * * * * * * * //

dimensions      [0 2 -2 0 0 0 0];

internalField   nonuniform List<scalar> 
13068
(
104678
104672
104638
104592
104532
104450
104365
104251
104144
103998
103863
103668
103488
103229
103003
102679
102420
102029
101744
101271
100964
100384
100060
99334.9
99005.8
98086
97772.5
96585.1
96321.6
94762.2
94604.8
92521.6
92560.5
89730.6
90109.4
86202.9
87148.9
81672.7
83545.6
75756.1
79126.3
67890.3
73663.7
57236.6
66855.1
42514
58264.8
21699.9
47189.7
-8348.39
32533.1
-50825.6
14792.4
-99785.5
1116.81
-69319.2
6626.42
-35272.4
16285.5
-9188.53
24674.6
9353.81
31740.9
23032.4
38110.3
33585
43921.8
41937.6
49152.9
48655.4
53787.1
54112.2
57828.7
58569.5
61307.5
62227.9
64276.7
65251
66801.9
67773.3
68950
69905.3
70782.1
71737.5
72350.1
73344.1
73693.5
74785.4
74838.7
76111.5
75799.4
77366
76580
78590.1
77178.9
79824.7
77590.3
81110.4
77804
104678
104672
104638
104592
104532
104450
104365
104251
104144
103998
103863
103668
103488
103229
103003
102679
102420
102029
101744
101271
100964
100384
100060
99334.9
99005.9
98086.1
97772.6
96585.2
96321.6
94762.3
94604.8
92521.7
92560.5
89730.7
90109.4
86203
87148.9
81672.8
83545.6
75756.2
79126.3
67890.4
73663.6
57236.6
66855
42514
58264.7
21700
47189.8
-8348.09
32533.4
-50825.9
14792.2
-99788.4
1116.11
-69319.9
6626.34
-35272.3
16285.9
-9187.87
24675.2
9354.47
31741.2
23032.6
38110.3
33584.9
43921.7
41937.5
49152.7
48655.2
53786.9
54112
57828.4
58569.2
61307.2
62227.7
64276.4
65250.8
66801.7
67773.2
68949.9
69905.2
70782.1
71737.5
72350.1
73344.1
73693.6
74785.5
74838.8
76111.6
75799.5
77366.1
76580.1
78590.2
77178.9
79824.7
77590.3
81110.4
77804.1
104678
104672
104638
104592
104532
104450
104365
104251
104144
103998
103863
103668
103488
103229
103003
102679
102420
102029
101744
101271
100964
100384
100060
99335
99005.9
98086.1
97772.6
96585.3
96321.7
94762.4
94604.9
92521.8
92560.6
89730.8
90109.5
86203.2
87149
81673
83545.7
75756.4
79126.3
67890.5
73663.6
57236.7
66854.9
42514.1
58264.6
21700.1
47190
-8347.73
32533.8
-50826.6
14791.8
-99792.6
1115.02
-69321
6626.1
-35272.1
16286.4
-9187.1
24675.9
9355.2
31741.6
23032.8
38110.3
33584.9
43921.5
41937.3
49152.6
48655
53786.7
54111.8
57828.2
58569
61306.9
62227.4
64276.2
65250.6
66801.6
67773
68949.8
69905.2
70782.1
71737.5
72350.2
73344.2
73693.7
74785.7
74839
76111.8
75799.7
77366.2
76580.2
78590.3
77179
79824.8
77590.4
81110.4
77804.1
104678
104672
104638
104592
104532
104450
104365
104251
104145
103998
103863
103668
103488
103229
103004
102679
102420
102029
101744
101271
100964
100384
100060
99335.1
99006
98086.2
97772.7
96585.4
96321.8
94762.5
94605
92521.9
92560.7
89731
90109.6
86203.4
87149.1
81673.2
83545.8
75756.6
79126.4
67890.7
73663.6
57236.9
66854.8
42514.2
58264.5
21700.4
47190.2
-8347.32
32534.1
-50827.5
14791.2
-99798
1113.56
-69322.3
6625.71
-35271.9
16286.8
-9186.25
24676.6
9355.99
31741.9
23033.1
38110.2
33584.9
43921.4
41937.3
49152.4
48654.8
53786.5
54111.6
57828
58568.8
61306.7
62227.2
64276
65250.4
66801.4
67772.9
68949.7
69905.1
70782.1
71737.6
72350.3
73344.3
73693.9
74785.8
74839.1
76111.9
75799.8
77366.3
76580.4
78590.4
77179.1
79824.8
77590.5
81110.4
77804.2
104679
104672
104638
104592
104532
104450
104365
104251
104145
103998
103863
103668
103488
103229
103004
102679
102420
102029
101744
101272
100964
100384
100060
99335.2
99006.1
98086.3
97772.8
96585.5
96321.9
94762.7
94605.1
92522.1
92560.8
89731.2
90109.8
86203.6
87149.3
81673.5
83546
75756.9
79126.5
67891.1
73663.7
57237.1
66854.8
42514.5
58264.5
21700.8
47190.4
-8346.84
32534.4
-50828.7
14790.4
-99804.8
1111.7
-69323.9
6625.17
-35271.7
16287.2
-9185.29
24677.4
9356.85
31742.3
23033.4
38110.2
33584.9
43921.2
41937.2
49152.2
48654.7
53786.3
54111.4
57827.8
58568.6
61306.5
62227.1
64275.8
65250.3
66801.3
67772.8
68949.7
69905.1
70782.1
71737.6
72350.3
73344.4
73694
74785.9
74839.3
76112
75800
77366.4
76580.5
78590.5
77179.2
79824.9
77590.5
81110.4
77804.4
104679
104672
104639
104593
104532
104450
104365
104251
104145
103998
103863
103668
103488
103229
103004
102679
102420
102029
101744
101272
100964
100384
100060
99335.3
99006.2
98086.5
97772.9
96585.7
96322
94762.8
94605.3
92522.3
92561
89731.5
90110
86203.9
87149.5
81673.8
83546.2
75757.3
79126.6
67891.5
73663.7
57237.5
66854.8
42514.9
58264.5
21701.4
47190.7
-8346.28
32534.8
-50830.2
14789.4
-99812.8
1109.47
-69325.8
6624.49
-35271.5
16287.7
-9184.23
24678.1
9357.79
31742.6
23033.8
38110.2
33585
43921.1
41937.2
49152.1
48654.7
53786.1
54111.3
57827.6
58568.5
61306.3
62226.9
64275.6
65250.2
66801.2
67772.8
68949.6
69905.1
70782.1
71737.6
72350.4
73344.5
73694.2
74786
74839.5
76112.1
75800.2
77366.5
76580.7
78590.5
77179.3
79824.9
77590.6
81110.4
77804.5
104679
104673
104639
104593
104532
104451
104366
104252
104145
103998
103863
103668
103489
103229
103004
102679
102420
102029
101744
101272
100964
100384
100060
99335.4
99006.3
98086.6
97773.1
96585.8
96322.2
94763.1
94605.5
92522.6
92561.2
89731.8
90110.2
86204.3
87149.7
81674.2
83546.4
75757.8
79126.8
67891.9
73663.8
57238
66854.8
42515.4
58264.6
21702
47191
-8345.65
32535.1
-50831.9
14788.2
-99822.1
1106.84
-69328
6623.65
-35271.2
16288.1
-9183.06
24678.8
9358.79
31743
23034.2
38110.1
33585.1
43920.9
41937.2
49151.9
48654.6
53785.9
54111.2
57827.4
58568.4
61306.1
62226.8
64275.5
65250.1
66801.1
67772.7
68949.6
69905.1
70782.2
71737.7
72350.5
73344.6
73694.3
74786.1
74839.7
76112.3
75800.4
77366.6
76580.8
78590.6
77179.4
79825
77590.7
81110.4
77804.6
104679
104673
104639
104593
104533
104451
104366
104252
104145
103998
103864
103668
103489
103229
103004
102679
102420
102029
101744
101272
100964
100384
100060
99335.6
99006.5
98086.8
97773.2
96586.1
96322.4
94763.3
94605.7
92522.9
92561.4
89732.2
90110.4
86204.7
87150
81674.7
83546.6
75758.3
79127
67892.5
73664
57238.6
66854.9
42516
58264.6
21702.8
47191.3
-8344.94
32535.4
-50833.9
14786.8
-99832.7
1103.83
-69330.5
6622.67
-35270.8
16288.6
-9181.8
24679.6
9359.86
31743.3
23034.7
38110.1
33585.2
43920.8
41937.2
49151.7
48654.6
53785.8
54111.2
57827.2
58568.3
61306
62226.7
64275.4
65250
66801
67772.7
68949.6
69905.1
70782.2
71737.7
72350.7
73344.7
73694.5
74786.3
74839.9
76112.4
75800.6
77366.7
76581
78590.7
77179.6
79825
77590.9
81110.4
77804.7
104680
104673
104640
104593
104533
104451
104366
104252
104145
103999
103864
103668
103489
103229
103004
102679
102420
102029
101744
101272
100965
100384
100060
99335.8
99006.6
98087
97773.4
96586.3
96322.6
94763.6
94605.9
92523.2
92561.7
89732.6
90110.7
86205.2
87150.3
81675.3
83546.9
75758.9
79127.3
67893.2
73664.2
57239.3
66855
42516.8
58264.7
21703.7
47191.7
-8344.17
32535.7
-50836.2
14785.3
-99844.5
1100.44
-69333.4
6621.54
-35270.4
16289.1
-9180.43
24680.4
9361.01
31743.6
23035.2
38110
33585.4
43920.6
41937.3
49151.6
48654.6
53785.6
54111.1
57827.1
58568.2
61305.8
62226.6
64275.3
65249.9
66800.9
67772.6
68949.5
69905.1
70782.3
71737.8
72350.8
73344.8
73694.7
74786.4
74840.1
76112.5
75800.8
77366.8
76581.3
78590.7
77179.8
79825
77591
81110.3
77804.9
104680
104674
104640
104594
104533
104451
104366
104252
104145
103999
103864
103668
103489
103229
103004
102679
102420
102030
101745
101272
100965
100384
100060
99336
99006.8
98087.3
97773.6
96586.6
96322.8
94763.9
94606.2
92523.6
92562
89733
90111
86205.7
87150.6
81675.9
83547.3
75759.6
79127.6
67893.9
73664.4
57240.1
66855.1
42517.6
58264.9
21704.7
47192.1
-8343.32
32536
-50838.8
14783.5
-99857.7
1096.66
-69336.5
6620.26
-35270
16289.6
-9178.96
24681.2
9362.23
31743.9
23035.8
38110
33585.6
43920.5
41937.3
49151.4
48654.6
53785.5
54111.1
57826.9
58568.2
61305.7
62226.6
64275.2
65249.9
66800.9
67772.6
68949.6
69905.1
70782.3
71737.9
72350.9
73344.9
73694.9
74786.5
74840.3
76112.6
75801.1
77366.9
76581.5
78590.8
77180
79825
77591.2
81110.3
77805
104681
104674
104640
104594
104534
104452
104367
104252
104145
103999
103864
103668
103489
103229
103004
102680
102421
102030
101745
101272
100965
100385
100061
99336.2
99007
98087.5
97773.9
96586.9
96323.1
94764.3
94606.4
92524
92562.3
89733.5
90111.4
86206.3
87151
81676.6
83547.6
75760.4
79127.9
67894.8
73664.6
57240.9
66855.2
42518.5
58265
21705.8
47192.5
-8342.39
32536.3
-50841.6
14781.6
-99872.1
1092.49
-69339.9
6618.83
-35269.5
16290.1
-9177.38
24682
9363.52
31744.3
23036.4
38109.9
33585.8
43920.3
41937.5
49151.3
48654.7
53785.3
54111.1
57826.8
58568.2
61305.6
62226.6
64275.1
65249.9
66800.9
67772.7
68949.6
69905.2
70782.4
71738
72351.1
73345
73695.1
74786.7
74840.6
76112.7
75801.3
77367
76581.7
78590.8
77180.2
79825
77591.3
81110.2
77805.1
104681
104675
104641
104595
104534
104452
104367
104253
104146
103999
103864
103668
103489
103229
103004
102680
102421
102030
101745
101272
100965
100385
100061
99336.4
99007.2
98087.8
97774.1
96587.2
96323.4
94764.6
94606.8
92524.5
92562.6
89734
90111.7
86206.9
87151.4
81677.3
83548
75761.2
79128.3
67895.7
73664.9
57241.9
66855.4
42519.6
58265.2
21707.1
47193
-8341.4
32536.5
-50844.7
14779.5
-99887.8
1087.94
-69343.5
6617.26
-35269
16290.6
-9175.71
24682.9
9364.88
31744.6
23037
38109.8
33586.1
43920.1
41937.6
49151.1
48654.8
53785.2
54111.2
57826.7
58568.2
61305.5
62226.6
64275
65249.9
66800.8
67772.7
68949.6
69905.3
70782.5
71738.1
72351.3
73345.1
73695.3
74786.8
74840.9
76112.9
75801.6
77367.1
76582
78590.8
77180.4
79825
77591.5
81110.2
77805.3
104682
104675
104641
104595
104535
104452
104367
104253
104146
103999
103864
103669
103489
103229
103004
102680
102421
102030
101745
101273
100965
100385
100061
99336.7
99007.5
98088.1
97774.4
96587.5
96323.7
94765.1
94607.1
92524.9
92563
89734.6
90112.1
86207.6
87151.8
81678.1
83548.4
75762.1
79128.7
67896.7
73665.2
57243
66855.6
42520.8
58265.4
21708.4
47193.5
-8340.33
32536.8
-50848
14777.2
-99904.7
1083.01
-69347.5
6615.54
-35268.5
16291.1
-9173.93
24683.7
9366.31
31744.9
23037.7
38109.7
33586.4
43920
41937.8
49151
48654.9
53785.1
54111.3
57826.6
58568.2
61305.5
62226.6
64275
65249.9
66800.8
67772.7
68949.7
69905.3
70782.7
71738.2
72351.4
73345.3
73695.6
74786.9
74841.1
76113
75801.9
77367.1
76582.3
78590.8
77180.6
79825
77591.7
81110.1
77805.5
104682
104676
104642
104596
104535
104453
104368
104253
104146
103999
103864
103669
103489
103229
103004
102680
102421
102030
101745
101273
100965
100385
100061
99336.9
99007.7
98088.4
97774.7
96587.9
96324
94765.5
94607.5
92525.5
92563.4
89735.2
90112.6
86208.3
87152.3
81679
83548.9
75763.1
79129.1
67897.8
73665.5
57244.2
66855.8
42522
58265.7
21709.9
47194.1
-8339.19
32537.1
-50851.7
14774.7
-99923
1077.69
-69351.8
6613.68
-35267.9
16291.7
-9172.04
24684.6
9367.81
31745.2
23038.4
38109.6
33586.8
43919.8
41938
49150.9
48655.1
53785
54111.4
57826.5
58568.3
61305.4
62226.7
64275
65250
66800.9
67772.8
68949.8
69905.4
70782.8
71738.3
72351.6
73345.4
73695.8
74787.1
74841.4
76113.1
75802.2
77367.2
76582.6
78590.9
77180.9
79824.9
77591.9
81110
77805.6
104683
104676
104642
104596
104536
104453
104368
104253
104146
103999
103864
103669
103489
103229
103004
102680
102421
102030
101745
101273
100966
100386
100061
99337.2
99008
98088.8
97775
96588.3
96324.3
94766
94607.8
92526
92563.8
89735.9
90113
86209.1
87152.8
81679.9
83549.4
75764.2
79129.6
67899
73665.9
57245.4
66856.1
42523.4
58266
21711.5
47194.7
-8337.97
32537.4
-50855.6
14772
-99942.5
1071.98
-69356.4
6611.67
-35267.3
16292.2
-9170.06
24685.5
9369.39
31745.5
23039.2
38109.5
33587.1
43919.6
41938.2
49150.7
48655.3
53784.9
54111.5
57826.5
58568.4
61305.4
62226.8
64275
65250.1
66800.9
67772.9
68949.9
69905.5
70783
71738.4
72351.9
73345.5
73696.1
74787.2
74841.8
76113.2
75802.6
77367.3
76582.9
78590.9
77181.2
79824.9
77592.2
81110
77805.8
104684
104677
104643
104597
104536
104454
104368
104254
104147
104000
103865
103669
103489
103230
103005
102680
102421
102031
101746
101273
100966
100386
100062
99337.5
99008.3
98089.1
97775.3
96588.8
96324.7
94766.5
94608.3
92526.6
92564.3
89736.6
90113.5
86210
87153.3
81680.9
83550
75765.3
79130.1
67900.2
73666.3
57246.8
66856.3
42524.9
58266.3
21713.3
47195.3
-8336.68
32537.6
-50859.7
14769.1
-99963.4
1065.89
-69361.2
6609.51
-35266.6
16292.8
-9167.97
24686.4
9371.03
31745.9
23040
38109.4
33587.5
43919.5
41938.5
49150.6
48655.5
53784.8
54111.7
57826.4
58568.6
61305.4
62226.9
64275
65250.2
66801
67773
68950
69905.7
70783.1
71738.6
72352.1
73345.7
73696.4
74787.3
74842.1
76113.3
75802.9
77367.3
76583.2
78590.9
77181.5
79824.8
77592.4
81109.9
77806
104684
104678
104644
104597
104537
104454
104369
104254
104147
104000
103865
103669
103490
103230
103005
102680
102421
102031
101746
101274
100966
100386
100062
99337.9
99008.6
98089.5
97775.7
96589.2
96325.1
94767
94608.7
92527.3
92564.8
89737.4
90114.1
86210.9
87153.8
81681.9
83550.5
75766.5
79130.6
67901.6
73666.7
57248.2
66856.7
42526.5
58266.6
21715.1
47196
-8335.32
32537.9
-50864.2
14766
-99985.5
1059.42
-69366.4
6607.21
-35265.9
16293.4
-9165.78
24687.4
9372.75
31746.2
23040.9
38109.3
33588
43919.3
41938.8
49150.5
48655.7
53784.8
54111.9
57826.4
58568.7
61305.4
62227
64275
65250.3
66801
67773.1
68950.1
69905.8
70783.3
71738.7
72352.3
73345.8
73696.7
74787.5
74842.4
76113.4
75803.3
77367.4
76583.6
78590.9
77181.8
79824.8
77592.6
81109.8
77806.2
104685
104678
104644
104598
104537
104455
104369
104255
104147
104000
103865
103669
103490
103230
103005
102681
102422
102031
101746
101274
100966
100386
100062
99338.2
99009
98089.9
97776
96589.7
96325.5
94767.6
94609.2
92528
92565.3
89738.2
90114.6
86211.8
87154.4
81683
83551.1
75767.8
79131.2
67903
73667.2
57249.8
66857
42528.2
58267
21717.1
47196.7
-8333.88
32538.2
-50868.9
14762.8
-100009
1052.56
-69371.9
6604.76
-35265.1
16294
-9163.49
24688.3
9374.54
31746.5
23041.8
38109.2
33588.5
43919.1
41939.2
49150.3
48656
53784.7
54112.1
57826.4
58568.9
61305.4
62227.2
64275.1
65250.4
66801.1
67773.3
68950.2
69905.9
70783.5
71738.9
72352.6
73346
73697
74787.6
74842.8
76113.5
75803.6
77367.4
76584
78590.9
77182.1
79824.7
77592.9
81109.7
77806.4
104686
104679
104645
104599
104538
104455
104370
104255
104148
104000
103865
103669
103490
103230
103005
102681
102422
102031
101746
101274
100967
100387
100063
99338.6
99009.3
98090.4
97776.4
96590.2
96326
94768.2
94609.7
92528.7
92565.9
89739
90115.2
86212.8
87155.1
81684.2
83551.8
75769.2
79131.8
67904.6
73667.7
57251.5
66857.4
42530.1
58267.4
21719.2
47197.5
-8332.37
32538.4
-50873.9
14759.3
-100034
1045.31
-69377.6
6602.16
-35264.3
16294.6
-9161.1
24689.3
9376.4
31746.8
23042.8
38109
33589
43918.9
41939.5
49150.2
48656.3
53784.6
54112.4
57826.4
58569.1
61305.4
62227.4
64275.2
65250.6
66801.2
67773.4
68950.4
69906.1
70783.7
71739
72352.8
73346.2
73697.3
74787.8
74843.1
76113.7
75804
77367.5
76584.3
78590.8
77182.5
79824.7
77593.2
81109.6
77806.6
104687
104680
104646
104599
104538
104456
104370
104255
104148
104001
103865
103670
103490
103230
103005
102681
102422
102031
101746
101274
100967
100387
100063
99339
99009.7
98090.8
97776.9
96590.8
96326.4
94768.8
94610.2
92529.4
92566.4
89739.9
90115.9
86213.9
87155.8
81685.5
83552.5
75770.6
79132.4
67906.2
73668.2
57253.2
66857.8
42532
58267.8
21721.4
47198.2
-8330.78
32538.7
-50879.1
14755.7
-100059
1037.69
-69383.6
6599.42
-35263.5
16295.2
-9158.61
24690.3
9378.33
31747.1
23043.8
38108.9
33589.5
43918.7
41939.9
49150.1
48656.6
53784.6
54112.7
57826.4
58569.4
61305.5
62227.6
64275.3
65250.8
66801.4
67773.6
68950.6
69906.3
70783.9
71739.2
72353.1
73346.3
73697.6
74787.9
74843.5
76113.8
75804.4
77367.5
76584.8
78590.8
77182.8
79824.6
77593.5
81109.5
77806.8
104688
104681
104647
104600
104539
104456
104371
104256
104148
104001
103866
103670
103490
103230
103005
102681
102422
102032
101747
101275
100967
100387
100063
99339.4
99010.1
98091.3
97777.3
96591.3
96326.9
94769.5
94610.7
92530.2
92567
89740.8
90116.5
86215
87156.5
81686.8
83553.2
75772.2
79133.1
67907.9
73668.8
57255.1
66858.2
42534
58268.3
21723.7
47199.1
-8329.13
32538.9
-50884.7
14751.9
-100087
1029.68
-69389.9
6596.53
-35262.6
16295.8
-9156.01
24691.3
9380.33
31747.4
23044.8
38108.7
33590.1
43918.5
41940.3
49150
48657
53784.6
54113
57826.4
58569.7
61305.6
62227.8
64275.4
65251
66801.5
67773.8
68950.7
69906.4
70784.1
71739.4
72353.4
73346.5
73698
74788.1
74843.9
76113.9
75804.9
77367.6
76585.2
78590.8
77183.2
79824.5
77593.8
81109.4
77807
104689
104682
104648
104601
104540
104457
104371
104256
104149
104001
103866
103670
103490
103231
103006
102681
102422
102032
101747
101275
100967
100388
100064
99339.8
99010.5
98091.8
97777.8
96591.9
96327.5
94770.2
94611.3
92531
92567.7
89741.8
90117.2
86216.2
87157.2
81688.2
83553.9
75773.7
79133.8
67909.6
73669.4
57257
66858.7
42536.2
58268.8
21726.1
47199.9
-8327.39
32539.1
-50890.5
14747.8
-100115
1021.28
-69396.6
6593.49
-35261.7
16296.4
-9153.31
24692.3
9382.4
31747.7
23045.9
38108.6
33590.7
43918.3
41940.8
49149.9
48657.3
53784.5
54113.3
57826.5
58570
61305.7
62228.1
64275.5
65251.2
66801.7
67774
68950.9
69906.6
70784.4
71739.6
72353.7
73346.7
73698.3
74788.2
74844.3
76114
75805.3
77367.6
76585.6
78590.7
77183.6
79824.4
77594.1
81109.2
77807.2
104690
104683
104648
104602
104541
104458
104372
104257
104149
104001
103866
103670
103491
103231
103006
102682
102423
102032
101747
101275
100968
100388
100064
99340.3
99010.9
98092.3
97778.2
96592.5
96328
94770.9
94611.9
92531.9
92568.3
89742.9
90117.9
86217.4
87158
81689.6
83554.7
75775.4
79134.6
67911.5
73670.1
57259.1
66859.2
42538.4
58269.3
21728.7
47200.8
-8325.59
32539.4
-50896.5
14743.6
-100145
1012.5
-69403.5
6590.31
-35260.7
16297.1
-9150.52
24693.3
9384.54
31748
23047
38108.4
33591.3
43918.1
41941.3
49149.8
48657.8
53784.5
54113.7
57826.5
58570.3
61305.8
62228.4
64275.6
65251.5
66801.9
67774.2
68951.2
69906.9
70784.6
71739.8
72354
73346.9
73698.7
74788.4
74844.7
76114.1
75805.8
77367.6
76586.1
78590.7
77184
79824.3
77594.4
81109.1
77807.4
104691
104684
104649
104602
104541
104458
104373
104257
104149
104002
103866
103670
103491
103231
103006
102682
102423
102032
101747
101276
100968
100389
100064
99340.8
99011.4
98092.9
97778.7
96593.2
96328.6
94771.7
94612.5
92532.8
92569
89743.9
90118.7
86218.7
87158.8
81691.1
83555.6
75777.1
79135.4
67913.5
73670.7
57261.2
66859.7
42540.8
58269.9
21731.4
47201.7
-8323.7
32539.6
-50902.8
14739.2
-100176
1003.34
-69410.7
6586.99
-35259.7
16297.7
-9147.62
24694.4
9386.75
31748.2
23048.2
38108.2
33592
43917.9
41941.8
49149.7
48658.2
53784.5
54114.1
57826.6
58570.7
61305.9
62228.7
64275.8
65251.8
66802.1
67774.5
68951.4
69907.1
70784.9
71740
72354.3
73347.1
73699.1
74788.6
74845.2
76114.2
75806.2
77367.7
76586.5
78590.6
77184.5
79824.2
77594.8
81109
77807.7
104692
104685
104650
104603
104542
104459
104373
104258
104150
104002
103866
103671
103491
103231
103006
102682
102423
102033
101748
101276
100968
100389
100065
99341.3
99011.8
98093.5
97779.3
96593.9
96329.1
94772.5
94613.2
92533.8
92569.7
89745
90119.5
86220
87159.6
81692.7
83556.4
75779
79136.2
67915.5
73671.4
57263.5
66860.2
42543.3
58270.4
21734.2
47202.7
-8321.75
32539.8
-50909.4
14734.7
-100209
993.8
-69418.1
6583.51
-35258.7
16298.4
-9144.62
24695.4
9389.03
31748.5
23049.4
38108.1
33592.7
43917.7
41942.3
49149.6
48658.7
53784.5
54114.5
57826.7
58571
61306
62229
64276
65252.1
66802.3
67774.8
68951.6
69907.3
70785.2
71740.2
72354.6
73347.2
73699.5
74788.7
74845.6
76114.3
75806.7
77367.7
76587
78590.6
77184.9
79824.1
77595.2
81108.8
77807.9
104693
104686
104651
104604
104543
104460
104374
104258
104150
104002
103867
103671
103491
103231
103006
102682
102423
102033
101748
101276
100969
100389
100065
99341.8
99012.3
98094.1
97779.8
96594.6
96329.7
94773.3
94613.9
92534.7
92570.5
89746.2
90120.3
86221.4
87160.5
81694.3
83557.3
75780.8
79137
67917.7
73672.2
57265.8
66860.8
42545.9
58271
21737.1
47203.7
-8319.72
32540.1
-50916.3
14729.9
-100242
983.874
-69425.9
6579.89
-35257.6
16299.1
-9141.51
24696.5
9391.38
31748.8
23050.7
38107.9
33593.5
43917.5
41942.9
49149.5
48659.2
53784.6
54115
57826.8
58571.5
61306.2
62229.4
64276.2
65252.4
66802.5
67775
68951.9
69907.6
70785.5
71740.4
72355
73347.4
73699.9
74788.9
74846.1
76114.4
75807.2
77367.7
76587.6
78590.5
77185.4
79823.9
77595.5
81108.7
77808.2
104694
104687
104652
104605
104544
104461
104375
104259
104151
104003
103867
103671
103491
103232
103007
102683
102424
102033
101748
101277
100969
100390
100066
99342.3
99012.8
98094.7
97780.4
96595.3
96330.4
94774.2
94614.6
92535.8
92571.3
89747.4
90121.1
86222.8
87161.4
81696
83558.2
75782.8
79137.9
67919.9
73672.9
57268.2
66861.4
42548.6
58271.7
21740.2
47204.8
-8317.61
32540.3
-50923.4
14724.9
-100277
973.566
-69433.9
6576.13
-35256.5
16299.8
-9138.31
24697.6
9393.8
31749.1
23052
38107.7
33594.2
43917.3
41943.5
49149.4
48659.7
53784.6
54115.5
57826.9
58571.9
61306.4
62229.8
64276.4
65252.7
66802.8
67775.3
68952.2
69907.8
70785.8
71740.6
72355.4
73347.7
73700.3
74789
74846.6
76114.5
75807.7
77367.7
76588.1
78590.4
77185.9
79823.8
77595.9
81108.5
77808.4
104695
104688
104654
104606
104545
104462
104375
104260
104151
104003
103867
103671
103492
103232
103007
102683
102424
102034
101749
101277
100970
100390
100066
99342.9
99013.3
98095.3
97781
96596.1
96331
94775.1
94615.3
92536.8
92572.1
89748.7
90122
86224.3
87162.3
81697.7
83559.2
75784.8
79138.9
67922.2
73673.7
57270.8
66862
42551.4
58272.4
21743.3
47205.8
-8315.43
32540.5
-50930.9
14719.8
-100314
962.876
-69442.3
6572.22
-35255.3
16300.5
-9135.01
24698.7
9396.29
31749.3
23053.3
38107.5
33595.1
43917.1
41944.1
49149.3
48660.3
53784.6
54116
57827.1
58572.4
61306.6
62230.2
64276.6
65253.1
66803
67775.7
68952.5
69908.1
70786.1
71740.9
72355.7
73347.9
73700.7
74789.2
74847.1
76114.6
75808.3
77367.7
76588.6
78590.3
77186.4
79823.6
77596.3
81108.3
77808.7
104697
104689
104655
104607
104546
104462
104376
104260
104152
104003
103868
103672
103492
103232
103007
102683
102424
102034
101749
101277
100970
100391
100067
99343.4
99013.9
98096
97781.6
96596.8
96331.7
94776
94616.1
92537.9
92572.9
89750
90122.9
86225.8
87163.3
81699.6
83560.2
75787
79139.8
67924.6
73674.5
57273.4
66862.7
42554.3
58273.1
21746.6
47207
-8313.17
32540.7
-50938.5
14714.4
-100351
951.804
-69450.9
6568.16
-35254.1
16301.2
-9131.61
24699.9
9398.85
31749.6
23054.7
38107.2
33595.9
43916.9
41944.8
49149.2
48660.9
53784.7
54116.5
57827.2
58572.9
61306.8
62230.6
64276.9
65253.5
66803.3
67776
68952.8
69908.4
70786.5
71741.1
72356.1
73348.1
73701.2
74789.4
74847.6
76114.7
75808.8
77367.7
76589.2
78590.2
77186.9
79823.5
77596.8
81108.1
77808.9
104698
104690
104656
104608
104547
104463
104377
104261
104152
104004
103868
103672
103492
103233
103008
102683
102425
102034
101749
101278
100970
100391
100067
99344
99014.4
98096.7
97782.2
96597.7
96332.4
94777
94616.8
92539.1
92573.8
89751.3
90123.9
86227.4
87164.3
81701.4
83561.2
75789.1
79140.8
67927.1
73675.4
57276.1
66863.4
42557.3
58273.8
21750
47208.1
-8310.84
32540.9
-50946.5
14708.9
-100390
940.351
-69459.8
6563.96
-35252.9
16301.9
-9128.11
24701
9401.48
31749.9
23056.1
38107
33596.8
43916.6
41945.5
49149.1
48661.5
53784.7
54117.1
57827.4
58573.4
61307
62231.1
64277.2
65253.9
66803.6
67776.4
68953.1
69908.7
70786.8
71741.4
72356.5
73348.3
73701.6
74789.5
74848.1
76114.8
75809.4
77367.7
76589.8
78590.1
77187.5
79823.3
77597.2
81108
77809.2
104699
104691
104657
104609
104548
104464
104378
104261
104153
104004
103868
103672
103492
103233
103008
102684
102425
102035
101750
101278
100971
100392
100068
99344.6
99015
98097.4
97782.8
96598.5
96333.1
94778
94617.6
92540.2
92574.7
89752.7
90124.8
86229.1
87165.3
81703.4
83562.3
75791.4
79141.8
67929.6
73676.3
57279
66864.1
42560.4
58274.5
21753.5
47209.3
-8308.44
32541.1
-50954.7
14703.2
-100430
928.516
-69469
6559.61
-35251.6
16302.6
-9124.51
24702.2
9404.18
31750.1
23057.6
38106.8
33597.7
43916.4
41946.2
49149
48662.1
53784.8
54117.7
57827.6
58573.9
61307.3
62231.6
64277.5
65254.3
66803.9
67776.7
68953.4
69909.1
70787.2
71741.7
72356.9
73348.5
73702.1
74789.7
74848.6
76114.9
75810
77367.7
76590.4
78590
77188
79823.2
77597.6
81107.8
77809.5
104700
104693
104658
104610
104549
104465
104379
104262
104153
104005
103869
103672
103493
103233
103008
102684
102425
102035
101750
101279
100971
100392
100068
99345.3
99015.6
98098.2
97783.5
96599.4
96333.9
94779
94618.5
92541.4
92575.6
89754.1
90125.8
86230.8
87166.4
81705.4
83563.4
75793.7
79142.9
67932.3
73677.2
57281.9
66864.8
42563.7
58275.3
21757.2
47210.5
-8305.95
32541.3
-50963.1
14697.2
-100472
916.301
-69478.5
6555.11
-35250.3
16303.3
-9120.81
24703.4
9406.95
31750.4
23059.1
38106.5
33598.6
43916.2
41946.9
49149
48662.8
53784.9
54118.3
57827.8
58574.5
61307.6
62232.1
64277.8
65254.8
66804.3
67777.1
68953.8
69909.4
70787.6
71742
72357.4
73348.8
73702.6
74789.9
74849.2
76115
75810.6
77367.7
76591
78589.9
77188.6
79823
77598.1
81107.6
77809.8
104702
104694
104660
104612
104550
104466
104379
104263
104154
104005
103869
103673
103493
103233
103008
102684
102425
102035
101751
101279
100972
100393
100069
99345.9
99016.2
98098.9
97784.2
96600.3
96334.7
94780
94619.3
92542.7
92576.5
89755.6
90126.9
86232.5
87167.5
81707.5
83564.6
75796.2
79144
67935
73678.2
57284.9
66865.6
42567
58276.1
21761
47211.8
-8303.39
32541.5
-50971.9
14691.1
-100514
903.705
-69488.2
6550.47
-35249
16304.1
-9117.01
24704.6
9409.78
31750.6
23060.7
38106.3
33599.6
43915.9
41947.7
49148.9
48663.5
53785
54119
57828
58575.1
61307.8
62232.7
64278.1
65255.3
66804.6
67777.5
68954.2
69909.7
70788
71742.3
72357.8
73349
73703.1
74790.1
74849.7
76115.1
75811.2
77367.7
76591.6
78589.8
77189.2
79822.8
77598.6
81107.4
77810.1
104703
104695
104661
104613
104551
104467
104380
104263
104154
104005
103869
103673
103493
103234
103009
102685
102426
102036
101751
101280
100972
100394
100069
99346.6
99016.8
98099.7
97784.9
96601.2
96335.5
94781.1
94620.2
92544
92577.5
89757.1
90128
86234.4
87168.7
81709.6
83565.7
75798.6
79145.2
67937.8
73679.2
57288
66866.4
42570.5
58277
21764.8
47213.1
-8300.76
32541.7
-50980.9
14684.8
-100558
890.728
-69498.3
6545.69
-35247.6
16304.8
-9113.11
24705.8
9412.69
31750.9
23062.3
38106
33600.6
43915.7
41948.5
49148.8
48664.2
53785.1
54119.7
57828.2
58575.8
61308.1
62233.2
64278.5
65255.8
66805
67778
68954.6
69910.1
70788.4
71742.6
72358.2
73349.2
73703.6
74790.2
74850.3
76115.1
75811.8
77367.7
76592.3
78589.6
77189.8
79822.6
77599.1
81107.2
77810.4
104705
104697
104662
104614
104552
104468
104381
104264
104155
104006
103870
103673
103494
103234
103009
102685
102426
102036
101751
101280
100973
100394
100070
99347.3
99017.5
98100.5
97785.6
96602.1
96336.3
94782.3
94621.1
92545.3
92578.5
89758.7
90129.1
86236.2
87169.8
81711.8
83567
75801.2
79146.3
67940.7
73680.2
57291.3
66867.2
42574.1
58277.8
21768.8
47214.5
-8298.05
32541.9
-50990.2
14678.4
-100604
877.371
-69508.6
6540.75
-35246.2
16305.6
-9109.12
24707
9415.66
31751.1
23063.9
38105.7
33601.6
43915.5
41949.3
49148.8
48665
53785.2
54120.4
57828.4
58576.4
61308.5
62233.8
64278.8
65256.3
66805.4
67778.4
68955
69910.5
70788.8
71742.9
72358.7
73349.5
73704.1
74790.4
74850.9
76115.2
75812.5
77367.6
76592.9
78589.5
77190.4
79822.4
77599.6
81106.9
77810.7
104706
104698
104664
104615
104554
104469
104382
104265
104156
104006
103870
103674
103494
103234
103009
102685
102427
102037
101752
101281
100973
100395
100070
99348
99018.1
98101.4
97786.4
96603.1
96337.1
94783.4
94622.1
92546.6
92579.6
89760.3
90130.2
86238.1
87171.1
81714.1
83568.2
75803.8
79147.5
67943.7
73681.3
57294.6
66868.1
42577.7
58278.7
21773
47215.8
-8295.26
32542.1
-50999.7
14671.7
-100650
863.635
-69519.2
6535.68
-35244.7
16306.3
-9105.02
24708.2
9418.7
31751.3
23065.6
38105.5
33602.7
43915.2
41950.2
49148.7
48665.8
53785.3
54121.1
57828.7
58577.1
61308.8
62234.4
64279.2
65256.8
66805.8
67778.9
68955.4
69910.9
70789.2
71743.2
72359.2
73349.7
73704.7
74790.6
74851.5
76115.3
75813.1
77367.6
76593.6
78589.4
77191.1
79822.2
77600.1
81106.7
77811
104708
104700
104665
104617
104555
104470
104383
104266
104156
104007
103870
103674
103494
103235
103010
102686
102427
102037
101752
101281
100974
100395
100071
99348.7
99018.8
98102.2
97787.2
96604.1
96338
94784.6
94623
92548
92580.6
89762
90131.3
86240.1
87172.3
81716.4
83569.5
75806.6
79148.8
67946.8
73682.4
57298
66869
42581.5
58279.7
21777.2
47217.3
-8292.39
32542.3
-51009.5
14664.8
-100698
849.518
-69530.1
6530.45
-35243.2
16307.1
-9100.83
24709.5
9421.81
31751.5
23067.3
38105.2
33603.8
43915
41951.1
49148.6
48666.6
53785.4
54121.9
57829
58577.8
61309.2
62235.1
64279.6
65257.4
66806.2
67779.4
68955.8
69911.3
70789.7
71743.5
72359.7
73350
73705.2
74790.8
74852.1
76115.4
75813.8
77367.6
76594.3
78589.2
77191.7
79821.9
77600.6
81106.5
77811.3
104710
104701
104667
104618
104556
104471
104384
104267
104157
104007
103871
103674
103495
103235
103010
102686
102427
102038
101753
101282
100974
100396
100072
99349.5
99019.5
98103.1
97788
96605.1
96338.9
94785.8
94624
92549.5
92581.7
89763.7
90132.5
86242.1
87173.6
81718.8
83570.8
75809.3
79150.1
67950
73683.5
57301.5
66869.9
42585.4
58280.6
21781.6
47218.7
-8289.45
32542.5
-51019.6
14657.7
-100748
835.022
-69541.2
6525.09
-35241.7
16307.9
-9096.54
24710.7
9424.99
31751.8
23069.1
38104.9
33604.9
43914.7
41952
49148.6
48667.4
53785.5
54122.7
57829.2
58578.6
61309.5
62235.8
64280
65258
66806.6
67779.9
68956.3
69911.7
70790.2
71743.9
72360.2
73350.3
73705.8
74791
74852.8
76115.5
75814.5
77367.5
76595
78589
77192.4
79821.7
77601.2
81106.2
77811.6
104711
104703
104668
104619
104557
104472
104385
104267
104158
104008
103871
103675
103495
103235
103010
102687
102428
102038
101753
101282
100975
100397
100072
99350.2
99020.3
98104
97788.8
96606.2
96339.8
94787