/*--------------------------------*- C++ -*----------------------------------*\
| =========                 |                                                 |
| \\      /  F ield         | OpenFOAM: The Open Source CFD Toolbox           |
|  \\    /   O peration     | Version:  2412                                  |
|   \\  /    A nd           | Website:  www.openfoam.com                      |
|    \\/     M anipulation  |                                                 |
\*---------------------------------------------------------------------------*/
FoamFile
{
    version     2.0;
    format      ascii;
    arch        "LSB;label=32;scalar=64";
    class       surfaceScalarField;
    location    "0.8";
    object      phi;
}
// * * * * * * * * * * * * * * * * * * * * * * * * * * * * * * * * * * * * * //

dimensions      [0 3 -1 0 0 0 0];

oriented        oriented;

internalField   nonuniform List<scalar> 
25905
(
0.00747526
0.000201038
0.00738582
0.000179043
0.00730636
0.000159187
0.00723558
0.000141826
0.00717357
0.000123896
0.00712309
9.98534e-05
0.00709117
6.13717e-05
0.00708589
6.96396e-06
0.00711165
-5.54789e-05
0.00716575
-0.000111864
0.00723967
-0.000150865
0.00732268
-0.000168488
0.00740529
-0.000167272
0.00748131
-0.000153829
0.00754792
-0.000134795
0.00760524
-0.000115968
0.00765448
-9.95478e-05
0.00769757
-8.69829e-05
0.00773548
-7.64007e-05
0.00776936
-6.81325e-05
0.00779937
-6.02897e-05
0.00782642
-5.42542e-05
0.00785028
-4.7936e-05
0.0078721
-4.38882e-05
0.00789122
-3.86634e-05
0.00790898
-3.59004e-05
0.00792428
-3.09161e-05
0.00793877
-2.86844e-05
0.00795075
-2.27223e-05
0.00796257
-2.04246e-05
0.00797159
-1.21242e-05
0.00798108
-8.57086e-06
0.00798721
3.63738e-06
0.00799471
8.78312e-06
0.00799811
2.49965e-05
0.00800404
2.96457e-05
0.00800477
4.71674e-05
0.00800981
4.61811e-05
0.00800814
6.06567e-05
0.00801326
4.7658e-05
0.00801023
5.14583e-05
0.00801774
1.54323e-05
0.00801581
-3.85686e-06
0.0080288
-7.32637e-05
0.00803001
-0.000120811
0.00804824
-0.000212104
0.00804731
-0.000238462
0.00805521
-0.000236813
0.00802956
-0.000113223
0.00798249
7.50328e-05
0.00788173
0.000284247
0.007656
0.000644998
0.00730297
0.000748149
0.00736517
-6.85612e-05
0.00760159
-0.000520581
0.00773983
-0.000312432
0.00781031
-0.000163456
0.00787028
-3.49871e-05
0.00788779
7.45529e-05
0.00790183
0.000112688
0.0078917
0.000178653
0.00788895
0.000224078
0.0078752
0.000286712
0.00787215
0.000304958
0.0078639
0.000319689
0.00786512
0.000314709
0.00786287
0.000318382
0.00786725
0.000310411
0.00786847
0.0002987
0.00787377
0.000266693
0.00787601
0.000230271
0.00788006
0.000184351
0.00788083
0.00014328
0.00788157
0.000100436
0.00787893
6.58766e-05
0.00787517
3.45785e-05
0.0078684
1.31931e-05
0.00786018
-3.88251e-06
0.00784985
-1.4629e-05
0.00783841
-2.28966e-05
0.00782587
-2.72235e-05
0.00781264
-2.91982e-05
0.00779934
-2.90054e-05
0.00778568
-2.75931e-05
0.00777282
-2.72031e-05
0.00775963
-2.87947e-05
0.00774786
-3.49827e-05
0.00773562
-4.72791e-05
0.00772543
-6.64364e-05
0.00771443
-9.53846e-05
0.00770608
-0.000132076
0.00769688
-0.0001828
0.00769102
-0.000241631
0.0076849
-0.000317263
0.0076828
-0.000403336
0.00768215
-0.000500888
0.00768621
-0.000619694
0.00769422
-0.000716755
-0.000921533
0.00747526
0.000301534
0.00738582
0.000268484
0.00730637
0.00023864
0.00723559
0.000212603
0.00717358
0.000185904
0.0071231
0.000150332
0.00709118
9.3295e-05
0.0070859
1.22488e-05
0.00711163
-8.12178e-05
0.00716572
-0.000165953
0.00723963
-0.00022477
0.00732264
-0.0002515
0.00740525
-0.000249879
0.00748127
-0.000229849
0.00754788
-0.000201405
0.00760519
-0.000173286
0.00765443
-0.000148784
0.00769752
-0.000130072
0.00773543
-0.000114311
0.00776931
-0.000102011
0.00779933
-9.03069e-05
0.00782637
-8.12982e-05
0.00785023
-7.18003e-05
0.00787205
-6.5704e-05
0.00789118
-5.77911e-05
0.00790893
-5.36551e-05
0.00792424
-4.62207e-05
0.00793873
-4.31752e-05
0.00795071
-3.47017e-05
0.00796253
-3.22474e-05
0.00797154
-2.11372e-05
0.00798103
-1.80607e-05
0.00798717
-2.49583e-06
0.00799467
1.27471e-06
0.00799807
2.16021e-05
0.00800401
2.37059e-05
0.00800474
4.6439e-05
0.00800978
4.11407e-05
0.00800811
6.23269e-05
0.00801323
4.25363e-05
0.0080102
5.44897e-05
0.0080177
7.92653e-06
0.00801577
-1.91909e-06
0.00802875
-8.62486e-05
0.00802996
-0.000122023
0.00804819
-0.000230335
0.00804726
-0.000237533
0.00805517
-0.00024472
0.00802954
-8.75878e-05
0.00798247
0.0001221
0.00788172
0.000384993
0.00765599
0.000870725
0.00730298
0.00110117
0.00736516
-0.000130749
0.00760157
-0.000756985
0.00773979
-0.000450654
0.00781026
-0.000233925
0.00787022
-9.49511e-05
0.00788774
5.70342e-05
0.0079018
9.86325e-05
0.00789167
0.000188777
0.00788893
0.000226826
0.00787517
0.000300467
0.00787212
0.000308012
0.00786387
0.000327934
0.00786509
0.000313496
0.00786284
0.000320631
0.00786722
0.000306025
0.00786843
0.000297489
0.00787374
0.000261389
0.00787598
0.000228028
0.00788002
0.000180306
0.00788079
0.000142513
0.00788153
9.97016e-05
0.00787888
6.85252e-05
0.00787512
3.83391e-05
0.00786835
1.99628e-05
0.00786014
4.32965e-06
0.00784981
-4.29904e-06
0.00783837
-1.14591e-05
0.00782583
-1.46832e-05
0.0078126
-1.5967e-05
0.00779931
-1.57128e-05
0.00778564
-1.39289e-05
0.00777278
-1.43424e-05
0.0077596
-1.56093e-05
0.00774782
-2.32116e-05
0.00773558
-3.50367e-05
0.00772539
-5.62401e-05
0.00771438
-8.43772e-05
0.00770602
-0.000123718
0.0076968
-0.000173581
0.00769093
-0.00023576
0.00768479
-0.000311124
0.00768267
-0.000401217
0.00768201
-0.000500226
0.00768606
-0.000623742
0.00769406
-0.000724758
-0.000938545
0.00747526
0.000402029
0.00738582
0.000357922
0.00730637
0.000318091
0.0072356
0.000283377
0.0071736
0.000247909
0.00712312
0.000200809
0.00709119
0.000125222
0.00708589
1.75461e-05
0.00711161
-0.000106937
0.00716568
-0.000220019
0.00723957
-0.000298656
0.00732257
-0.000334501
0.00740517
-0.000332482
0.00748119
-0.00030587
0.0075478
-0.000268017
0.00760512
-0.000230606
0.00765436
-0.00019802
0.00769745
-0.000173162
0.00773536
-0.000152221
0.00776924
-0.00013589
0.00779925
-0.000120324
0.0078263
-0.000108342
0.00785016
-9.5665e-05
0.00787198
-8.75203e-05
0.00789111
-7.69193e-05
0.00790886
-7.14101e-05
0.00792417
-6.15258e-05
0.00793866
-5.76666e-05
0.00795064
-4.66818e-05
0.00796246
-4.40709e-05
0.00797148
-3.0151e-05
0.00798097
-2.75517e-05
0.0079871
-8.63059e-06
0.00799461
-6.23579e-06
0.00799801
1.82052e-05
0.00800395
1.77634e-05
0.00800468
4.57085e-05
0.00800972
3.60991e-05
0.00800805
6.3997e-05
0.00801318
3.74158e-05
0.00801014
5.75239e-05
0.00801764
4.24792e-07
0.0080157
2.40078e-08
0.00802868
-9.92282e-05
0.00802989
-0.00012323
0.00804812
-0.000248565
0.00804719
-0.000236608
0.00805511
-0.000252636
0.00802949
-6.19654e-05
0.00798244
0.000169151
0.0078817
0.000485729
0.00765599
0.00109644
0.00730299
0.00145417
0.00736517
-0.000192931
0.00760155
-0.000993364
0.00773975
-0.000588855
0.0078102
-0.000304377
0.00787016
-0.000154914
0.00788769
3.95073e-05
0.00790175
8.45674e-05
0.00789164
0.000198895
0.00788889
0.000229571
0.00787514
0.000314221
0.00787208
0.000311068
0.00786383
0.000336181
0.00786505
0.000312284
0.0078628
0.000322881
0.00786718
0.000301639
0.00786839
0.000296277
0.0078737
0.000256087
0.00787594
0.000225788
0.00787998
0.000176265
0.00788074
0.000141748
0.00788148
9.89697e-05
0.00787882
7.1176e-05
0.00787506
4.21008e-05
0.00786829
2.67321e-05
0.00786008
1.25403e-05
0.00784976
6.02865e-06
0.00783832
-2.41591e-08
0.00782578
-2.14526e-06
0.00781255
-2.73786e-06
0.00779926
-2.42196e-06
0.0077856
-2.65748e-07
0.00777274
-1.48224e-06
0.00775955
-2.42352e-06
0.00774778
-1.14389e-05
0.00773554
-2.27907e-05
0.00772533
-4.6038e-05
0.00771432
-7.33611e-05
0.00770595
-0.000115349
0.00769671
-0.000164348
0.00769083
-0.000229874
0.00768467
-0.000304967
0.00768253
-0.000399081
0.00768186
-0.000499548
0.00768589
-0.000627776
0.00769389
-0.000732754
-0.000955558
0.00747526
0.000502523
0.00738583
0.000447358
0.00730638
0.000397537
0.00723561
0.000354146
0.00717361
0.000309909
0.00712314
0.000251284
0.00709121
0.000157153
0.0070859
2.28569e-05
0.00711159
-0.000132633
0.00716563
-0.000274059
0.0072395
-0.00037252
0.00732248
-0.000417488
0.00740508
-0.000415079
0.0074811
-0.00038189
0.00754771
-0.000334631
0.00760504
-0.000287926
0.00765427
-0.000247257
0.00769736
-0.00021625
0.00773527
-0.000190131
0.00776915
-0.000169769
0.00779917
-0.000150341
0.00782621
-0.000135387
0.00785007
-0.00011953
0.00787189
-0.000109337
0.00789102
-9.60477e-05
0.00790877
-8.91656e-05
0.00792408
-7.68313e-05
0.00793857
-7.21585e-05
0.00795055
-5.86623e-05
0.00796238
-5.58951e-05
0.00797139
-3.91657e-05
0.00798088
-3.70438e-05
0.00798702
-1.47669e-05
0.00799453
-1.37484e-05
0.00799793
1.48059e-05
0.00800388
1.18184e-05
0.00800461
4.49759e-05
0.00800965
3.10563e-05
0.00800798
6.56674e-05
0.0080131
3.22969e-05
0.00801006
6.05614e-05
0.00801756
-7.07238e-06
0.00801561
1.97318e-06
0.00802859
-0.000112202
0.00802979
-0.000124433
0.00804802
-0.000266795
0.0080471
-0.000235687
0.00805503
-0.000260565
0.00802942
-3.63575e-05
0.00798239
0.000216182
0.00788167
0.000586449
0.00765597
0.00132213
0.007303
0.00180714
0.00736517
-0.000255105
0.00760152
-0.00122971
0.0077397
-0.000727032
0.00781013
-0.000374811
0.00787009
-0.000214873
0.00788763
2.19736e-05
0.0079017
7.04939e-05
0.00789159
0.000209009
0.00788884
0.000232315
0.00787509
0.000327974
0.00787203
0.000314123
0.00786378
0.000344429
0.00786499
0.000311074
0.00786274
0.000325131
0.00786713
0.000297252
0.00786834
0.000295065
0.00787365
0.000250784
0.00787588
0.00022355
0.00787992
0.000172227
0.00788068
0.000140987
0.00788141
9.82404e-05
0.00787876
7.38288e-05
0.007875
4.58633e-05
0.00786823
3.35012e-05
0.00786002
2.07495e-05
0.0078497
1.63542e-05
0.00783826
1.14084e-05
0.00782573
1.03905e-05
0.0078125
1.04894e-05
0.00779921
1.08675e-05
0.00778555
1.33964e-05
0.00777269
1.13775e-05
0.0077595
1.07628e-05
0.00774773
3.35662e-07
0.00773548
-1.05408e-05
0.00772527
-3.58299e-05
0.00771424
-6.23363e-05
0.00770586
-0.000106968
0.00769662
-0.000155101
0.00769071
-0.000223972
0.00768454
-0.000298793
0.00768238
-0.000396925
0.00768169
-0.000498854
0.00768571
-0.000631792
0.00769369
-0.000740744
-0.000972572
0.00747526
0.000603016
0.00738583
0.00053679
0.00730639
0.000476978
0.00723563
0.000424908
0.00717363
0.000371903
0.00712316
0.000301756
0.00709123
0.000189087
0.0070859
2.8182e-05
0.00711158
-0.000158304
0.00716558
-0.000328069
0.00723942
-0.000446357
0.00732239
-0.000500458
0.00740498
-0.000497668
0.007481
-0.000457909
0.00754762
-0.000401245
0.00760494
-0.000345247
0.00765417
-0.000296492
0.00769726
-0.000259338
0.00773517
-0.000228038
0.00776904
-0.000203646
0.00779906
-0.000180358
0.0078261
-0.00016243
0.00784997
-0.000143394
0.00787178
-0.000131153
0.00789091
-0.000115176
0.00790867
-0.000106921
0.00792397
-9.2137e-05
0.00793847
-8.66506e-05
0.00795045
-7.06433e-05
0.00796227
-6.77198e-05
0.00797129
-4.81811e-05
0.00798078
-4.65369e-05
0.00798692
-2.09046e-05
0.00799443
-2.1263e-05
0.00799783
1.14043e-05
0.00800378
5.87088e-06
0.00800452
4.42416e-05
0.00800956
2.60126e-05
0.00800789
6.73384e-05
0.00801301
2.71799e-05
0.00800996
6.36028e-05
0.00801746
-1.45645e-05
0.0080155
3.92903e-06
0.00802847
-0.00012517
0.00802967
-0.00012563
0.0080479
-0.000285026
0.00804698
-0.000234772
0.00805492
-0.000268508
0.00802933
-1.07664e-05
0.00798233
0.000263189
0.00788163
0.000687148
0.00765596
0.0015478
0.00730302
0.00216008
0.00736518
-0.000317269
0.00760149
-0.00146602
0.00773965
-0.000865185
0.00781006
-0.000445222
0.00787001
-0.000274828
0.00788755
4.43484e-06
0.00790163
5.64132e-05
0.00789152
0.000219118
0.00788878
0.000235056
0.00787503
0.000341727
0.00787197
0.00031718
0.00786372
0.000352679
0.00786493
0.000309866
0.00786268
0.000327382
0.00786707
0.000292863
0.00786828
0.000293851
0.00787358
0.000245482
0.00787582
0.000221313
0.00787986
0.00016819
0.00788062
0.000140228
0.00788134
9.75137e-05
0.00787869
7.64835e-05
0.00787492
4.96266e-05
0.00786816
4.027e-05
0.00785995
2.89574e-05
0.00784962
2.66779e-05
0.00783819
2.28389e-05
0.00782566
2.29243e-05
0.00781244
2.37152e-05
0.00779915
2.41559e-05
0.00778549
2.70579e-05
0.00777263
2.4237e-05
0.00775944
2.39498e-05
0.00774766
1.21121e-05
0.00773541
1.71294e-06
0.00772519
-2.56158e-05
0.00771416
-5.13024e-05
0.00770577
-9.85764e-05
0.00769651
-0.000145839
0.00769059
-0.000218052
0.00768439
-0.0002926
0.00768222
-0.000394749
0.00768151
-0.000498142
0.0076855
-0.000635791
0.00769349
-0.000748724
-0.000989585
0.00747527
0.000703507
0.00738584
0.000626218
0.0073064
0.000556413
0.00723565
0.000495664
0.00717366
0.000433891
0.00712319
0.000352223
0.00709126
0.000221023
0.00708592
3.35219e-05
0.00711156
-0.000183946
0.00716554
-0.000382045
0.00723934
-0.000520165
0.00732229
-0.000583408
0.00740487
-0.000580248
0.00748089
-0.000533925
0.0075475
-0.000467859
0.00760482
-0.000402567
0.00765406
-0.000345725
0.00769714
-0.000302422
0.00773505
-0.000265944
0.00776892
-0.000237522
0.00779894
-0.000210372
0.00782598
-0.000189473
0.00784984
-0.000167258
0.00787166
-0.000152969
0.00789079
-0.000134304
0.00790854
-0.000124677
0.00792385
-0.000107443
0.00793834
-0.000101143
0.00795032
-8.26245e-05
0.00796215
-7.9545e-05
0.00797116
-5.71971e-05
0.00798066
-5.6031e-05
0.0079868
-2.70435e-05
0.00799431
-2.87794e-05
0.00799772
8.00039e-06
0.00800367
-7.8958e-08
0.0080044
4.35056e-05
0.00800945
2.09682e-05
0.00800778
6.90103e-05
0.00801289
2.20651e-05
0.00800985
6.66485e-05
0.00801733
-2.20511e-05
0.00801537
5.89227e-06
0.00802833
-0.000138131
0.00802952
-0.000126822
0.00804775
-0.000303256
0.00804684
-0.000233862
0.0080548
-0.000276466
0.00802923
1.48058e-05
0.00798225
0.000310168
0.00788158
0.00078782
0.00765595
0.00177343
0.00730305
0.00251298
0.0073652
-0.000379421
0.00760147
-0.00170229
0.00773959
-0.00100331
0.00780998
-0.00051561
0.00786993
-0.000334774
0.00788747
-1.31075e-05
0.00790155
4.23263e-05
0.00789145
0.000229225
0.00788871
0.000237797
0.00787495
0.00035548
0.0078719
0.000320237
0.00786365
0.000360931
0.00786485
0.000308659
0.0078626
0.000329632
0.00786699
0.000288474
0.00786821
0.000292636
0.00787351
0.000240179
0.00787575
0.000219077
0.00787978
0.000164156
0.00788054
0.000139471
0.00788126
9.67894e-05
0.00787861
7.91401e-05
0.00787484
5.33909e-05
0.00786807
4.70386e-05
0.00785987
3.71642e-05
0.00784954
3.69998e-05
0.00783812
3.42675e-05
0.00782558
3.54565e-05
0.00781236
3.69396e-05
0.00779907
3.74433e-05
0.00778541
4.07188e-05
0.00777255
3.70964e-05
0.00775936
3.71375e-05
0.00774759
2.38906e-05
0.00773533
1.39707e-05
0.00772511
-1.53955e-05
0.00771406
-4.02593e-05
0.00770566
-9.01724e-05
0.00769638
-0.000136563
0.00769045
-0.000212115
0.00768423
-0.000286388
0.00768204
-0.000392552
0.00768131
-0.000497412
0.00768529
-0.000639772
0.00769326
-0.000756695
-0.0010066
0.00747527
0.000803996
0.00738584
0.000715641
0.00730642
0.000635841
0.00723567
0.000566413
0.00717369
0.00049587
0.00712323
0.000402684
0.00709129
0.00025296
0.00708594
3.88772e-05
0.00711155
-0.000209558
0.00716549
-0.000435983
0.00723926
-0.000593939
0.00732219
-0.000666335
0.00740476
-0.000662818
0.00748077
-0.000609938
0.00754738
-0.000534471
0.0076047
-0.000459885
0.00765393
-0.000394956
0.00769701
-0.000345504
0.00773491
-0.000303847
0.00776879
-0.000271395
0.0077988
-0.000240385
0.00782584
-0.000216514
0.0078497
-0.000191121
0.00787152
-0.000174784
0.00789065
-0.000153432
0.0079084
-0.000142432
0.00792371
-0.000122748
0.0079382
-0.000115635
0.00795018
-9.46057e-05
0.00796201
-9.13705e-05
0.00797102
-6.62136e-05
0.00798052
-6.5526e-05
0.00798666
-3.31837e-05
0.00799418
-3.62977e-05
0.00799758
4.59448e-06
0.00800353
-6.03103e-06
0.00800427
4.27681e-05
0.00800932
1.59232e-05
0.00800764
7.06835e-05
0.00801276
1.69528e-05
0.00800971
6.96992e-05
0.00801719
-2.95316e-05
0.00801521
7.86356e-06
0.00802817
-0.000151085
0.00802935
-0.000128008
0.00804759
-0.000321487
0.00804668
-0.000232958
0.00805466
-0.000284442
0.00802911
4.0357e-05
0.00798216
0.000357115
0.00788152
0.000888462
0.00765593
0.00199902
0.00730308
0.00286583
0.00736521
-0.000441559
0.00760143
-0.00193851
0.00773953
-0.00114141
0.00780989
-0.000585971
0.00786983
-0.000394712
0.00788737
-3.06518e-05
0.00790146
2.82346e-05
0.00789136
0.00023933
0.00788862
0.000240536
0.00787487
0.000369232
0.00787181
0.000323293
0.00786356
0.000369183
0.00786477
0.000307453
0.00786251
0.000331883
0.00786691
0.000284082
0.00786812
0.000291418
0.00787343
0.000234874
0.00787566
0.000216841
0.0078797
0.000160124
0.00788045
0.000138717
0.00788117
9.60673e-05
0.00787851
8.17985e-05
0.00787475
5.7156e-05
0.00786798
5.38071e-05
0.00785978
4.537e-05
0.00784946
4.73203e-05
0.00783803
4.56945e-05
0.0078255
4.79873e-05
0.00781227
5.0163e-05
0.00779899
5.07302e-05
0.00778533
5.43794e-05
0.00777247
4.9956e-05
0.00775928
5.03262e-05
0.0077475
3.56712e-05
0.00773524
2.62326e-05
0.00772501
-5.16886e-06
0.00771396
-2.92068e-05
0.00770554
-8.17565e-05
0.00769625
-0.00012727
0.00769029
-0.00020616
0.00768406
-0.000280156
0.00768184
-0.000390335
0.00768109
-0.000496661
0.00768505
-0.000643732
0.00769301
-0.000764655
-0.00102361
0.00747527
0.000904484
0.00738585
0.000805059
0.00730643
0.000715261
0.00723569
0.000637152
0.00717372
0.000557841
0.00712327
0.000453137
0.00709133
0.000284898
0.00708596
4.42486e-05
0.00711154
-0.000235137
0.00716543
-0.00048988
0.00723917
-0.000667675
0.00732207
-0.000749237
0.00740463
-0.000745374
0.00748064
-0.000685945
0.00754725
-0.000601082
0.00760456
-0.000517201
0.00765379
-0.000444182
0.00769687
-0.000388581
0.00773476
-0.000341745
0.00776863
-0.000305264
0.00779864
-0.000270396
0.00782568
-0.000243554
0.00784955
-0.000214982
0.00787136
-0.000196598
0.00789049
-0.000172559
0.00790824
-0.000160187
0.00792355
-0.000138054
0.00793804
-0.000130127
0.00795002
-0.000106587
0.00796185
-0.000103196
0.00797086
-7.52304e-05
0.00798036
-7.50217e-05
0.0079865
-3.9325e-05
0.00799402
-4.38177e-05
0.00799743
1.18662e-06
0.00800338
-1.19852e-05
0.00800412
4.20295e-05
0.00800917
1.08778e-05
0.00800749
7.23582e-05
0.0080126
1.18434e-05
0.00800954
7.27553e-05
0.00801702
-3.70056e-05
0.00801504
9.84352e-06
0.00802799
-0.000164032
0.00802916
-0.000129188
0.0080474
-0.000339718
0.0080465
-0.000232061
0.00805449
-0.000292437
0.00802897
6.58849e-05
0.00798205
0.000404027
0.00788145
0.000989067
0.00765591
0.00222456
0.00730311
0.00321863
0.00736523
-0.00050368
0.0076014
-0.00217467
0.00773947
-0.00127947
0.0078098
-0.000656303
0.00786972
-0.000454637
0.00788727
-4.81962e-05
0.00790136
1.41389e-05
0.00789126
0.000249433
0.00788852
0.000243275
0.00787477
0.000382984
0.00787171
0.00032635
0.00786346
0.000377436
0.00786466
0.000306247
0.00786241
0.000334132
0.00786681
0.000279688
0.00786803
0.000290198
0.00787333
0.000229568
0.00787557
0.000214606
0.0078796
0.000156092
0.00788035
0.000137966
0.00788107
9.53474e-05
0.00787841
8.44587e-05
0.00787465
6.0922e-05
0.00786788
6.05756e-05
0.00785967
5.35748e-05
0.00784936
5.76395e-05
0.00783793
5.71201e-05
0.0078254
6.0517e-05
0.00781218
6.33857e-05
0.00779889
6.40166e-05
0.00778523
6.80399e-05
0.00777237
6.28158e-05
0.00775918
6.35159e-05
0.0077474
4.7454e-05
0.00773513
3.84987e-05
0.0077249
5.06421e-06
0.00771384
-1.81448e-05
0.00770541
-7.33283e-05
0.0076961
-0.000117962
0.00769013
-0.000200187
0.00768387
-0.000273902
0.00768163
-0.000388095
0.00768086
-0.000495889
0.0076848
-0.000647672
0.00769275
-0.000772602
-0.00104061
0.00747527
0.00100497
0.00738586
0.000894471
0.00730645
0.000794673
0.00723572
0.000707882
0.00717376
0.000619803
0.00712331
0.000503583
0.00709138
0.000316835
0.00708599
4.96366e-05
0.00711153
-0.00026068
0.00716538
-0.000543731
0.00723908
-0.000741369
0.00732195
-0.000832111
0.00740449
-0.000827915
0.00748049
-0.000761947
0.0075471
-0.00066769
0.00760441
-0.000574513
0.00765363
-0.000493404
0.00769671
-0.000431652
0.0077346
-0.000379639
0.00776847
-0.00033913
0.00779847
-0.000300403
0.00782551
-0.000270591
0.00784937
-0.000238841
0.00787118
-0.000218411
0.00789031
-0.000191685
0.00790806
-0.000177941
0.00792337
-0.000153358
0.00793786
-0.000144619
0.00794984
-0.000118568
0.00796167
-0.000115022
0.00797068
-8.42475e-05
0.00798018
-8.45181e-05
0.00798632
-4.54672e-05
0.00799384
-5.13394e-05
0.00799725
-2.22302e-06
0.00800321
-1.79415e-05
0.00800395
4.12898e-05
0.00800899
5.83221e-06
0.00800732
7.40349e-05
0.00801242
6.73727e-06
0.00800936
7.58173e-05
0.00801683
-4.44725e-05
0.00801484
1.18328e-05
0.00802778
-0.000176971
0.00802895
-0.000130361
0.00804718
-0.000357951
0.00804629
-0.000231172
0.00805431
-0.000300452
0.00802881
9.13875e-05
0.00798194
0.000450899
0.00788137
0.00108963
0.00765589
0.00245004
0.00730315
0.00357137
0.00736526
-0.000565782
0.00760136
-0.00241078
0.0077394
-0.0014175
0.0078097
-0.000726604
0.00786961
-0.000514549
0.00788715
-6.57392e-05
0.00790125
4.06108e-08
0.00789115
0.000259536
0.00788841
0.000246013
0.00787466
0.000396736
0.0078716
0.000329406
0.00786335
0.000385689
0.00786455
0.000305042
0.0078623
0.000336381
0.0078667
0.000275291
0.00786792
0.000288975
0.00787323
0.00022426
0.00787547
0.00021237
0.0078795
0.000152062
0.00788025
0.000137215
0.00788097
9.46294e-05
0.0078783
8.71205e-05
0.00787454
6.4689e-05
0.00786777
6.73441e-05
0.00785956
6.1779e-05
0.00784925
6.79577e-05
0.00783782
6.85447e-05
0.00782529
7.3046e-05
0.00781207
7.66079e-05
0.00779878
7.73029e-05
0.00778512
8.17004e-05
0.00777226
7.56761e-05
0.00775907
7.67068e-05
0.00774729
5.92392e-05
0.00773502
5.07691e-05
0.00772478
1.53038e-05
0.0077137
-7.07288e-06
0.00770526
-6.48876e-05
0.00769594
-0.000108638
0.00768995
-0.000194196
0.00768367
-0.000267628
0.00768141
-0.000385832
0.00768062
-0.000495095
0.00768453
-0.000651591
0.00769247
-0.000780536
-0.00105761
0.00747527
0.00110545
0.00738587
0.000983876
0.00730647
0.000874075
0.00723575
0.0007786
0.0071738
0.000681753
0.00712336
0.000554019
0.00709143
0.000348771
0.00708602
5.50419e-05
0.00711153
-0.000286185
0.00716533
-0.000597533
0.00723898
-0.000815019
0.00732182
-0.000914952
0.00740434
-0.00091044
0.00748034
-0.000837942
0.00754694
-0.000734294
0.00760425
-0.000631821
0.00765347
-0.00054262
0.00769653
-0.000474718
0.00773442
-0.000417527
0.00776828
-0.000372992
0.00779829
-0.000330407
0.00782532
-0.000297625
0.00784918
-0.000262699
0.00787099
-0.000240222
0.00789011
-0.00021081
0.00790787
-0.000195694
0.00792317
-0.000168662
0.00793766
-0.000159111
0.00794964
-0.000130549
0.00796147
-0.000126848
0.00797049
-9.32646e-05
0.00797998
-9.4015e-05
0.00798613
-5.16102e-05
0.00799365
-5.88626e-05
0.00799706
-5.63434e-06
0.00800302
-2.38995e-05
0.00800376
4.05492e-05
0.0080088
7.86665e-07
0.00800713
7.57138e-05
0.00801223
1.63467e-06
0.00800916
7.88858e-05
0.00801662
-5.19319e-05
0.00801462
1.38322e-05
0.00802755
-0.000189901
0.00802872
-0.000131528
0.00804695
-0.000376185
0.00804607
-0.00023029
0.00805411
-0.00030849
0.00802863
0.000116862
0.0079818
0.000497727
0.00788129
0.00119015
0.00765587
0.00267546
0.0073032
0.00392404
0.00736528
-0.000627863
0.00760132
-0.00264682
0.00773932
-0.0015555
0.00780959
-0.00079687
0.00786948
-0.000574445
0.00788702
-8.3279e-05
0.00790112
-1.40592e-05
0.00789102
0.00026964
0.00788828
0.000248751
0.00787453
0.000410488
0.00787148
0.000332461
0.00786322
0.000393943
0.00786443
0.000303837
0.00786218
0.000338629
0.00786658
0.000270891
0.00786781
0.000287748
0.00787312
0.00021895
0.00787535
0.000210134
0.00787938
0.000148032
0.00788013
0.000136467
0.00788085
9.39132e-05
0.00787818
8.97841e-05
0.00787442
6.84568e-05
0.00786765
7.41127e-05
0.00785944
6.99826e-05
0.00784913
7.82751e-05
0.0078377
7.99684e-05
0.00782517
8.55746e-05
0.00781195
8.98299e-05
0.00779867
9.05894e-05
0.007785
9.53613e-05
0.00777214
8.85371e-05
0.00775895
8.98989e-05
0.00774716
7.10269e-05
0.00773489
6.3044e-05
0.00772464
2.55501e-05
0.00771356
4.00896e-06
0.00770511
-5.64342e-05
0.00769577
-9.92963e-05
0.00768976
-0.000188185
0.00768346
-0.00026133
0.00768117
-0.000383545
0.00768035
-0.000494278
0.00768425
-0.000655487
0.00769217
-0.000788455
-0.00107461
0.00747528
0.00120593
0.00738588
0.00107327
0.00730649
0.000953466
0.00723578
0.000849307
0.00717384
0.00074369
0.00712342
0.000604445
0.00709148
0.000380705
0.00708606
6.04651e-05
0.00711152
-0.00031165
0.00716527
-0.000651282
0.00723887
-0.000888619
0.00732168
-0.00099776
0.00740419
-0.000992946
0.00748017
-0.000913928
0.00754677
-0.000800893
0.00760408
-0.000689123
0.00765328
-0.000591829
0.00769634
-0.000517776
0.00773423
-0.000455409
0.00776808
-0.000406848
0.00779808
-0.000360407
0.00782511
-0.000324656
0.00784897
-0.000286553
0.00787078
-0.000262032
0.0078899
-0.000229933
0.00790765
-0.000213446
0.00792295
-0.000183965
0.00793745
-0.000173602
0.00794943
-0.000142529
0.00796125
-0.000138673
0.00797027
-0.000102282
0.00797977
-0.000103512
0.00798591
-5.7754e-05
0.00799343
-6.63871e-05
0.00799685
-9.04717e-06
0.00800281
-2.98594e-05
0.00800355
3.9808e-05
0.00800859
-4.25867e-06
0.00800691
7.73953e-05
0.00801201
-3.46408e-06
0.00800894
8.19613e-05
0.00801639
-5.93834e-05
0.00801438
1.58421e-05
0.0080273
-0.000202823
0.00802846
-0.000132686
0.00804669
-0.00039442
0.00804582
-0.000229417
0.00805388
-0.000316552
0.00802844
0.000142308
0.00798166
0.000544508
0.00788119
0.00129062
0.00765584
0.0029008
0.00730325
0.00427663
0.00736531
-0.000689921
0.00760128
-0.00288279
0.00773924
-0.00169346
0.00780947
-0.000867099
0.00786935
-0.000634323
0.00788689
-0.000100814
0.00790099
-2.81592e-05
0.00789088
0.000279744
0.00788814
0.00025149
0.00787439
0.000424239
0.00787134
0.000335516
0.00786308
0.000402197
0.00786429
0.000302631
0.00786204
0.000340875
0.00786645
0.000266488
0.00786768
0.000286517
0.00787299
0.000213637
0.00787523
0.000207897
0.00787926
0.000144003
0.00788
0.00013572
0.00788072
9.31988e-05
0.00787805
9.24492e-05
0.00787429
7.22255e-05
0.00786752
8.08817e-05
0.00785931
7.81858e-05
0.007849
8.8592e-05
0.00783757
9.13917e-05
0.00782505
9.81029e-05
0.00781182
0.000103052
0.00779854
0.000103876
0.00778488
0.000109023
0.00777201
0.000101399
0.00775882
0.000103092
0.00774703
8.28171e-05
0.00773475
7.53234e-05
0.0077245
3.58032e-05
0.0077134
1.5101e-05
0.00770494
-4.79678e-05
0.00769558
-8.99379e-05
0.00768955
-0.000182155
0.00768323
-0.00025501
0.00768092
-0.000381235
0.00768008
-0.000493436
0.00768395
-0.000659359
0.00769185
-0.000796357
-0.0010916
0.00747528
0.00130641
0.00738589
0.00116266
0.00730651
0.00103285
0.00723582
0.000920002
0.00717389
0.000805615
0.00712348
0.000654859
0.00709155
0.000412637
0.0070861
6.59067e-05
0.00711153
-0.000337071
0.00716522
-0.000704974
0.00723877
-0.000962166
0.00732154
-0.00108053
0.00740402
-0.00107543
0.00748
-0.000989906
0.00754659
-0.000867486
0.00760389
-0.000746418
0.00765309
-0.00064103
0.00769614
-0.000560827
0.00773402
-0.000493284
0.00776787
-0.000440699
0.00779786
-0.000390402
0.00782489
-0.000351683
0.00784874
-0.000310405
0.00787055
-0.000283839
0.00788967
-0.000249054
0.00790742
-0.000231196
0.00792272
-0.000199267
0.00793721
-0.000188092
0.00794919
-0.000154509
0.00796102
-0.000150499
0.00797003
-0.000111299
0.00797953
-0.00011301
0.00798567
-6.38984e-05
0.0079932
-7.39131e-05
0.00799662
-1.24614e-05
0.00800258
-3.5821e-05
0.00800332
3.90664e-05
0.00800836
-9.30363e-06
0.00800668
7.90796e-05
0.00801177
-8.5586e-06
0.00800869
8.50443e-05
0.00801613
-6.68263e-05
0.00801411
1.78633e-05
0.00802702
-0.000215736
0.00802818
-0.000133838
0.00804641
-0.000412657
0.00804555
-0.000228554
0.00805364
-0.00032464
0.00802822
0.000167721
0.00798149
0.000591237
0.00788108
0.00139103
0.00765582
0.00312606
0.00730331
0.00462913
0.00736534
-0.000751954
0.00760124
-0.00311869
0.00773916
-0.00183139
0.00780935
-0.000937289
0.00786921
-0.000694181
0.00788674
-0.000118342
0.00790084
-4.22584e-05
0.00789073
0.000289851
0.00788799
0.000254229
0.00787424
0.00043799
0.00787119
0.00033857
0.00786293
0.00041045
0.00786414
0.000301425
0.0078619
0.000343119
0.0078663
0.000262081
0.00786754
0.000285282
0.00787285
0.00020832
0.00787509
0.000205658
0.00787912
0.000139974
0.00787987
0.000134974
0.00788058
9.24859e-05
0.00787791
9.51158e-05
0.00787415
7.59951e-05
0.00786738
8.76509e-05
0.00785917
8.63887e-05
0.00784886
9.89085e-05
0.00783743
0.000102815
0.00782491
0.000110631
0.00781168
0.000116274
0.0077984
0.000117164
0.00778473
0.000122685
0.00777187
0.000114262
0.00775868
0.000116288
0.00774688
9.461e-05
0.0077346
8.76074e-05
0.00772434
4.60631e-05
0.00771324
2.62033e-05
0.00770476
-3.94884e-05
0.00769538
-8.05619e-05
0.00768933
-0.000176105
0.00768299
-0.000248665
0.00768065
-0.000378899
0.00767978
-0.000492568
0.00768363
-0.000663206
0.00769152
-0.000804243
-0.00110858
0.00747528
0.00140688
0.0073859
0.00125205
0.00730653
0.00111221
0.00723585
0.000990682
0.00717394
0.000867525
0.00712354
0.00070526
0.00709161
0.000444565
0.00708615
7.13676e-05
0.00711153
-0.000362447
0.00716516
-0.000758605
0.00723865
-0.00103566
0.00732138
-0.00116326
0.00740385
-0.0011579
0.00747981
-0.00106587
0.0075464
-0.000934074
0.00760369
-0.000803707
0.00765288
-0.000690222
0.00769592
-0.000603868
0.00773379
-0.000531151
0.00776763
-0.000474542
0.00779762
-0.000420392
0.00782465
-0.000378707
0.0078485
-0.000334254
0.0078703
-0.000305643
0.00788942
-0.000268173
0.00790717
-0.000248945
0.00792247
-0.000214568
0.00793696
-0.000202581
0.00794894
-0.000166488
0.00796076
-0.000162324
0.00796978
-0.000120315
0.00797928
-0.000122508
0.00798542
-7.00432e-05
0.00799295
-8.14403e-05
0.00799636
-1.58768e-05
0.00800233
-4.1784e-05
0.00800307
3.83245e-05
0.00800811
-1.4348e-05
0.00800643
8.07672e-05
0.00801152
-1.36486e-05
0.00800842
8.81353e-05
0.00801586
-7.42603e-05
0.00801382
1.98966e-05
0.00802673
-0.000228639
0.00802787
-0.00013498
0.00804611
-0.000430896
0.00804526
-0.0002277
0.00805337
-0.000332755
0.00802799
0.0001931
0.00798132
0.00063791
0.00788097
0.00149138
0.00765579
0.00335124
0.00730337
0.00498155
0.00736538
-0.000813959
0.00760119
-0.00335451
0.00773908
-0.00196927
0.00780923
-0.00100744
0.00786906
-0.000754016
0.00788658
-0.000135862
0.00790068
-5.63553e-05
0.00789057
0.00029996
0.00788783
0.000256969
0.00787408
0.000451741
0.00787102
0.000341622
0.00786277
0.000418703
0.00786398
0.000300218
0.00786174