/*--------------------------------*- C++ -*----------------------------------*\
| =========                 |                                                 |
| \\      /  F ield         | OpenFOAM: The Open Source CFD Toolbox           |
|  \\    /   O peration     | Version:  2412                                  |
|   \\  /    A nd           | Website:  www.openfoam.com                      |
|    \\/     M anipulation  |                                                 |
\*---------------------------------------------------------------------------*/
FoamFile
{
    version     2.0;
    format      ascii;
    arch        "LSB;label=32;scalar=64";
    class       volScalarField;
    location    "1";
    object      epsilon;
}
// * * * * * * * * * * * * * * * * * * * * * * * * * * * * * * * * * * * * * //

dimensions      [0 2 -3 0 0 0 0];

internalField   nonuniform List<scalar> 
13068
(
376.634
376.754
378.571
383.086
392.462
411.978
453.45
537.286
688.49
924.264
1238.58
1596.21
1944.28
2235.71
2444.17
2568.79
2624.26
2634.55
2621.05
2603.19
2591.59
2596.03
2618.72
2665.59
2734.66
2831.77
2952.16
3104.63
3281.99
3499.34
3745.66
4046.51
4383.8
4800.85
5266.93
5856.68
6517.01
7379.75
8352.7
9677.84
11196.7
13364
15884.2
19574.8
23774.5
29749.4
35937.5
43780.9
50688.8
56717.8
60231.3
52531.8
42905.3
24759.7
16843.8
13844.6
13080.6
13602.4
15657.1
16807
17486.4
16877
15946.5
14453.8
13044.6
11554.4
10304.9
9151.23
8230.76
7426.32
6792.47
6247.28
5813.57
5438.45
5130.47
4855.86
4616.18
4391.29
4180.37
3974.36
3772.35
3573.96
3377.9
3189.67
3005.98
2835.71
2671.72
2524.91
2383.3
2259.8
2137.62
2032.4
1923.32
1829.17
1726.28
1636.31
1534.32
1444.7
1345.78
376.635
376.755
378.573
383.09
392.467
411.985
453.457
537.286
688.475
924.221
1238.51
1596.13
1944.23
2235.7
2444.23
2568.91
2624.41
2634.73
2621.23
2603.38
2591.77
2596.21
2618.89
2665.76
2734.84
2831.96
2952.35
3104.83
3282.2
3499.57
3745.91
4046.79
4384.12
4801.21
5267.34
5857.16
6517.56
7380.35
8353.34
9678.52
11197.4
13364.8
15885.2
19576.1
23776.4
29752.2
35941.5
43786.3
50695.2
56724.5
60237.3
52536.6
42909.9
24762.7
16845.7
13845.5
13080.5
13601.6
15656.2
16806.5
17486.5
16877.7
15947.5
14455
13045.8
11555.6
10306.1
9152.28
8231.71
7427.18
6793.26
6248.02
5814.26
5439.1
5131.07
4856.41
4616.68
4391.74
4180.78
3974.74
3772.71
3574.3
3378.24
3190
3006.3
2836.03
2672.04
2525.25
2383.65
2260.17
2138.02
2032.82
1923.76
1829.62
1726.73
1636.76
1534.74
1445.09
1346.12
376.636
376.758
378.578
383.096
392.476
411.998
453.474
537.303
688.479
924.197
1238.45
1596.05
1944.16
2235.68
2444.27
2569.01
2624.56
2634.89
2621.39
2603.53
2591.92
2596.36
2619.04
2665.91
2735
2832.12
2952.53
3105.02
3282.41
3499.8
3746.15
4047.06
4384.43
4801.56
5267.76
5857.63
6518.09
7380.93
8353.96
9679.17
11198.1
13365.6
15886.1
19577.3
23778.1
29754.9
35945.5
43792
50701.8
56731.9
60244.3
52542.8
42916.1
24767.1
16848.6
13847.4
13081.5
13601.8
15656
16806.4
17486.9
16878.6
15948.7
14456.3
13047.1
11556.9
10307.3
9153.37
8232.68
7428.05
6794.06
6248.76
5814.96
5439.75
5131.68
4856.98
4617.2
4392.22
4181.21
3975.14
3773.09
3574.66
3378.59
3190.35
3006.64
2836.37
2672.38
2525.6
2384.02
2260.56
2138.43
2033.26
1924.21
1830.09
1727.2
1637.23
1535.19
1445.51
1346.5
376.638
376.761
378.583
383.104
392.489
412.017
453.501
537.337
688.506
924.194
1238.4
1595.97
1944.08
2235.64
2444.29
2569.09
2624.67
2635.02
2621.52
2603.65
2592.04
2596.47
2619.15
2666.03
2735.13
2832.26
2952.68
3105.18
3282.59
3500
3746.37
4047.31
4384.71
4801.89
5268.14
5858.07
6518.59
7381.47
8354.53
9679.76
11198.7
13366.2
15886.9
19578.4
23779.8
29757.6
35949.5
43797.6
50708.6
56739.5
60251.9
52549.8
42923.7
24772.5
16852.4
13850.1
13083.4
13602.6
15656.3
16806.7
17487.6
16879.7
15949.9
14457.6
13048.3
11558.1
10308.4
9154.41
8233.6
7428.87
6794.82
6249.47
5815.63
5440.38
5132.27
4857.52
4617.7
4392.68
4181.64
3975.54
3773.47
3575.03
3378.95
3190.69
3006.98
2836.71
2672.72
2525.95
2384.38
2260.94
2138.83
2033.69
1924.66
1830.56
1727.69
1637.71
1535.65
1445.95
1346.89
376.64
376.766
378.59
383.115
392.505
412.042
453.54
537.389
688.557
924.217
1238.37
1595.89
1943.99
2235.59
2444.29
2569.14
2624.75
2635.11
2621.6
2603.72
2592.1
2596.53
2619.22
2666.11
2735.22
2832.37
2952.8
3105.32
3282.74
3500.16
3746.56
4047.52
4384.96
4802.18
5268.48
5858.47
6519.03
7381.95
8355.03
9680.26
11199.2
13366.8
15887.5
19579.3
23781.2
29760
35953.3
43803.2
50715.2
56747.2
60259.8
52557.5
42932.4
24778.9
16857
13853.7
13086.1
13604.2
15657.1
16807.4
17488.5
16880.8
15951.2
14458.8
13049.6
11559.3
10309.5
9155.39
8234.46
7429.64
6795.52
6250.13
5816.25
5440.97
5132.82
4858.04
4618.18
4393.13
4182.06
3975.93
3773.84
3575.39
3379.29
3191.03
3007.32
2837.04
2673.05
2526.29
2384.74
2261.32
2139.24
2034.12
1925.12
1831.04
1728.17
1638.19
1536.12
1446.4
1347.3
376.642
376.771
378.599
383.127
392.525
412.074
453.591
537.459
688.632
924.264
1238.36
1595.82
1943.89
2235.51
2444.26
2569.16
2624.8
2635.15
2621.64
2603.75
2592.12
2596.55
2619.25
2666.15
2735.27
2832.43
2952.88
3105.42
3282.86
3500.3
3746.72
4047.7
4385.17
4802.43
5268.77
5858.82
6519.42
7382.37
8355.44
9680.67
11199.6
13367.1
15888
19580
23782.5
29762.3
35956.9
43808.5
50721.7
56755
60268.1
52565.9
42942.3
24786.3
16862.4
13858
13089.7
13606.6
15658.5
16808.4
17489.5
16882
15952.4
14460
13050.7
11560.4
10310.5
9156.29
8235.24
7430.33
6796.15
6250.72
5816.82
5441.52
5133.34
4858.53
4618.64
4393.55
4182.45
3976.31
3774.2
3575.74
3379.63
3191.36
3007.64
2837.36
2673.37
2526.62
2385.08
2261.69
2139.63
2034.55
1925.57
1831.52
1728.66
1638.69
1536.61
1446.87
1347.72
376.645
376.777
378.608
383.142
392.548
412.112
453.653
537.548
688.732
924.337
1238.37
1595.75
1943.79
2235.42
2444.21
2569.15
2624.8
2635.16
2621.63
2603.72
2592.09
2596.52
2619.23
2666.15
2735.28
2832.46
2952.93
3105.49
3282.94
3500.4
3746.84
4047.85
4385.34
4802.64
5269.02
5859.11
6519.75
7382.71
8355.78
9680.97
11199.8
13367.4
15888.3
19580.6
23783.5
29764.3
35960.3
43813.7
50728
56762.8
60276.7
52574.9
42953.3
24794.6
16868.5
13863.1
13094
13609.6
15660.4
16809.7
17490.8
16883.3
15953.6
14461.1
13051.7
11561.3
10311.4
9157.09
8235.94
7430.94
6796.71
6251.25
5817.33
5442.01
5133.82
4858.98
4619.06
4393.95
4182.83
3976.67
3774.55
3576.07
3379.96
3191.68
3007.95
2837.67
2673.68
2526.93
2385.42
2262.05
2140.02
2034.97
1926.02
1831.99
1729.15
1639.19
1537.1
1447.34
1348.16
376.649
376.784
378.62
383.159
392.574
412.156
453.726
537.656
688.857
924.435
1238.39
1595.69
1943.68
2235.3
2444.13
2569.11
2624.78
2635.12
2621.57
2603.65
2592.01
2596.44
2619.16
2666.1
2735.26
2832.46
2952.94
3105.52
3282.99
3500.47
3746.93
4047.95
4385.47
4802.8
5269.23
5859.35
6520.02
7382.99
8356.03
9681.18
11200
13367.5
15888.4
19580.9
23784.3
29766.2
35963.4
43818.6
50734.1
56770.7
60285.6
52584.5
42965.4
24803.9
16875.4
13869
13099.2
13613.3
15662.7
16811.3
17492.2
16884.6
15954.8
14462.2
13052.7
11562.2
10312.2
9157.82
8236.56
7431.48
6797.2
6251.72
5817.79
5442.46
5134.25
4859.4
4619.46
4394.32
4183.19
3977.01
3774.88
3576.39
3380.27
3191.99
3008.25
2837.96
2673.98
2527.24
2385.74
2262.4
2140.41
2035.39
1926.47
1832.47
1729.65
1639.7
1537.6
1447.83
1348.61
376.652
376.792
378.632
383.178
392.605
412.207
453.811
537.782
689.006
924.558
1238.44
1595.63
1943.55
2235.17
2444.03
2569.03
2624.71
2635.04
2621.47
2603.53
2591.87
2596.31
2619.05
2666.01
2735.19
2832.41
2952.92
3105.51
3283
3500.5
3746.98
4048.02
4385.57
4802.93
5269.39
5859.54
6520.23
7383.2
8356.2
9681.29
11200
13367.5
15888.4
19581
23785
29767.8
35966.3
43823.4
50740.1
56778.6
60294.8
52594.8
42978.6
24814.2
16883.1
13875.6
13105.3
13617.6
15665.6
16813.3
17493.8
16886
15956
14463.2
13053.5
11563
10313
9158.45
8237.09
7431.94
6797.62
6252.12
5818.19
5442.86
5134.64
4859.78
4619.83
4394.67
4183.52
3977.33
3775.19
3576.7
3380.57
3192.28
3008.53
2838.24
2674.26
2527.54
2386.05
2262.74
2140.78
2035.8
1926.91
1832.95
1730.15
1640.21
1538.12
1448.33
1349.08
376.657
376.801
378.646
383.2
392.639
412.265
453.908
537.927
689.181
924.707
1238.49
1595.58
1943.42
2235.02
2443.9
2568.93
2624.61
2634.93
2621.32
2603.35
2591.69
2596.14
2618.89
2665.87
2735.08
2832.33
2952.86
3105.47
3282.98
3500.49
3746.99
4048.05
4385.62
4803.01
5269.5
5859.68
6520.38
7383.33
8356.29
9681.29
11199.9
13367.3
15888.1
19581
23785.4
29769.1
35969
43828
50745.9
56786.5
60304.4
52605.7
42992.9
24825.4
16891.6
13883
13112.1
13622.7
15669
16815.6
17495.6
16887.5
15957.2
14464.1
13054.3
11563.7
10313.6
9159
8237.55
7432.32
6797.96
6252.46
5818.53
5443.2
5134.99
4860.13
4620.16
4395
4183.84
3977.64
3775.49
3576.99
3380.86
3192.56
3008.81
2838.51
2674.53
2527.82
2386.35
2263.08
2141.14
2036.21
1927.35
1833.43
1730.65
1640.73
1538.64
1448.85
1349.56
376.661
376.811
378.662
383.223
392.676
412.328
454.016
538.09
689.379
924.881
1238.57
1595.53
1943.28
2234.86
2443.75
2568.8
2624.48
2634.76
2621.12
2603.13
2591.46
2595.91
2618.69
2665.69
2734.93
2832.21
2952.76
3105.4
3282.93
3500.46
3746.97
4048.05
4385.64
4803.04
5269.56
5859.76
6520.47
7383.4
8356.3
9681.2
11199.7
13366.9
15887.8
19580.7
23785.5
29770.3
35971.5
43832.4
50751.5
56794.4
60314.2
52617.3
43008.3
24837.5
16900.8
13891.2
13119.8
13628.5
15672.9
16818.2
17497.6
16889
15958.4
14465
13055
11564.3
10314.1
9159.46
8237.92
7432.63
6798.24
6252.74
5818.82
5443.5
5135.3
4860.44
4620.47
4395.3
4184.13
3977.93
3775.78
3577.27
3381.13
3192.83
3009.07
2838.77
2674.79
2528.09
2386.65
2263.4
2141.5
2036.61
1927.79
1833.91
1731.15
1641.26
1539.17
1449.38
1350.06
376.666
376.821
378.679
383.249
392.717
412.399
454.135
538.272
689.603
925.08
1238.67
1595.49
1943.13
2234.67
2443.57
2568.64
2624.31
2634.56
2620.88
2602.86
2591.18
2595.64
2618.44
2665.47
2734.74
2832.05
2952.63
3105.29
3282.84
3500.38
3746.91
4048.01
4385.61
4803.04
5269.58
5859.8
6520.5
7383.39
8356.22
9681.01
11199.4
13366.5
15887.2
19580.3
23785.5
29771.3
35973.7
43836.6
50757
56802.3
60324.3
52629.5
43024.9
24850.7
16910.8
13900.2
13128.3
13635
15677.2
16821.1
17499.7
16890.6
15959.5
14465.8
13055.6
11564.8
10314.6
9159.84
8238.21
7432.87
6798.45
6252.95
5819.05
5443.76
5135.57
4860.72
4620.75
4395.58
4184.41
3978.2
3776.05
3577.54
3381.4
3193.08
3009.32
2839.01
2675.04
2528.35
2386.93
2263.71
2141.85
2037.01
1928.23
1834.38
1731.66
1641.79
1539.7
1449.92
1350.57
376.671
376.833
378.697
383.277
392.762
412.475
454.266
538.472
689.851
925.304
1238.78
1595.45
1942.97
2234.46
2443.37
2568.44
2624.1
2634.32
2620.59
2602.54
2590.85
2595.32
2618.14
2665.21
2734.51
2831.85
2952.46
3105.15
3282.72
3500.27
3746.82
4047.92
4385.55
4802.99
5269.55
5859.77
6520.47
7383.32
8356.06
9680.71
11198.9
13365.8
15886.5
19579.6
23785.3
29772
35975.7
43840.6
50762.3
56810.3
60334.8
52642.3
43042.6
24864.8
16921.7
13909.9
13137.6
13642.2
15682.1
16824.4
17502
16892.3
15960.6
14466.5
13056.1
11565.2
10314.9
9160.13
8238.42
7433.03
6798.59
6253.1
5819.22
5443.96
5135.8
4860.96
4621
4395.83
4184.66
3978.46
3776.3
3577.8
3381.65
3193.33
3009.55
2839.25
2675.27
2528.59
2387.19
2264.01
2142.2
2037.4
1928.66
1834.86
1732.17
1642.33
1540.25
1450.47
1351.1
376.677
376.845
378.716
383.307
392.81
412.558
454.409
538.691
690.123
925.554
1238.91
1595.41
1942.81
2234.24
2443.14
2568.22
2623.86
2634.04
2620.26
2602.17
2590.46
2594.95
2617.8
2664.9
2734.24
2831.62
2952.26
3104.97
3282.56
3500.13
3746.69
4047.81
4385.44
4802.9
5269.47
5859.7
6520.39
7383.17
8355.82
9680.32
11198.3
13365.1
15885.6
19578.8
23784.8
29772.5
35977.5
43844.5
50767.4
56818.4
60345.5
52655.9
43061.6
24879.9
16933.3
13920.5
13147.8
13650.1
15687.6
16828
17504.6
16894.1
15961.8
14467.2
13056.6
11565.6
10315.2
9160.34
8238.56
7433.11
6798.66
6253.19
5819.34
5444.12
5135.99
4861.17
4621.22
4396.06
4184.9
3978.69
3776.54
3578.04
3381.89
3193.56
3009.78
2839.47
2675.5
2528.83
2387.45
2264.31
2142.53
2037.78
1929.09
1835.34
1732.68
1642.87
1540.81
1451.03
1351.64
376.683
376.858
378.738
383.339
392.862
412.648
454.563
538.928
690.42
925.827
1239.06
1595.38
1942.63
2234
2442.89
2567.97
2623.59
2633.71
2619.88
2601.75
2590.03
2594.53
2617.41
2664.55
2733.93
2831.34
2952.02
3104.75
3282.37
3499.95
3746.52
4047.65
4385.3
4802.76
5269.35
5859.57
6520.24
7382.96
8355.49
9679.83
11197.6
13364.2
15884.5
19577.8
23784.1
29772.8
35979.1
43848.1
50772.4
56826.5
60356.6
52670.1
43081.7
24896
16945.8
13931.9
13158.8
13658.7
15693.5
16831.9
17507.3
16895.9
15962.9
14467.9
13056.9
11565.8
10315.4
9160.47
8238.61
7433.12
6798.66
6253.21
5819.41
5444.23
5136.13
4861.34
4621.42
4396.27
4185.11
3978.92
3776.77
3578.27
3382.11
3193.78
3009.99
2839.67
2675.71
2529.05
2387.7
2264.59
2142.86
2038.16
1929.52
1835.82
1733.2
1643.43
1541.38
1451.61
1352.19
376.69
376.872
378.76
383.373
392.918
412.744
454.728
539.184
690.741
926.126
1239.22
1595.35
1942.45
2233.74
2442.62
2567.69
2623.28
2633.35
2619.46
2601.29
2589.56
2594.06
2616.97
2664.15
2733.58
2831.03
2951.74
3104.5
3282.14
3499.74
3746.32
4047.46
4385.11
4802.59
5269.18
5859.39
6520.03
7382.67
8355.08
9679.23
11196.8
13363.1
15883.3
19576.6
23783.3
29772.9
35980.5
43851.6
50777.2
56834.6
60368.1
52685
43102.9
24913.2
16959.1
13944
13170.7
13668
15700
16836.2
17510.2
16897.8
15964.1
14468.4
13057.2
11566
10315.5
9160.52
8238.59
7433.06
6798.59
6253.18
5819.42
5444.29
5136.24
4861.48
4621.58
4396.45
4185.31
3979.12
3776.99
3578.48
3382.33
3193.99
3010.19
2839.87
2675.91
2529.27
2387.94
2264.87
2143.18
2038.53
1929.94
1836.3
1733.72
1643.99
1541.95
1452.2
1352.76
376.697
376.887
378.784
383.41
392.977
412.846
454.905
539.458
691.087
926.449
1239.4
1595.33
1942.25
2233.46
2442.32
2567.38
2622.94
2632.95
2618.99
2600.77
2589.03
2593.55
2616.49
2663.72
2733.19
2830.69
2951.43
3104.22
3281.88
3499.49
3746.09
4047.23
4384.89
4802.37
5268.96
5859.16
6519.76
7382.32
8354.59
9678.54
11195.9
13361.9
15881.9
19575.1
23782.2
29772.8
35981.6
43854.9
50781.9
56842.8
60379.9
52700.6
43125.4
24931.3
16973.2
13957
13183.4
13678
15707
16840.8
17513.3
16899.8
15965.2
14469
13057.4
11566.1
10315.5
9160.49
8238.5
7432.93
6798.46
6253.09
5819.38
5444.31
5136.31
4861.59
4621.72
4396.61
4185.48
3979.31
3777.19
3578.69
3382.53
3194.18
3010.38
2840.05
2676.09
2529.47
2388.17
2265.14
2143.49
2038.9
1930.36
1836.78
1734.24
1644.55
1542.54
1452.8
1353.35
376.705
376.903
378.809
383.449
393.04
412.955
455.094
539.75
691.456
926.797
1239.6
1595.31
1942.05
2233.16
2441.99
2567.04
2622.56
2632.5
2618.48
2600.21
2588.45
2592.99
2615.97
2663.24
2732.76
2830.3
2951.08
3103.9
3281.58
3499.21
3745.81
4046.96
4384.63
4802.1
5268.69
5858.88
6519.43
7381.89
8354.02
9677.75
11194.8
13360.5
15880.3
19573.5
23780.9
29772.4
35982.5
43858
50786.4
56851
60392
52716.9
43149.2
24950.6
16988.2
13970.9
13197
13688.8
15714.6
16845.8
17516.6
16901.9
15966.4
14469.5
13057.6
11566.1
10315.5
9160.38
8238.33
7432.74
6798.27
6252.93
5819.28
5444.28
5136.33
4861.67
4621.83
4396.75
4185.64
3979.49
3777.37
3578.88
3382.72
3194.37
3010.56
2840.23
2676.27
2529.66
2388.38
2265.39
2143.8
2039.27
1930.78
1837.26
1734.77
1645.12
1543.14
1453.42
1353.95
376.713
376.92
378.836
383.49
393.107
413.071
455.294
540.061
691.85
927.169
1239.81
1595.3
1941.84
2232.85
2441.65
2566.68
2622.15
2632.02
2617.92
2599.6
2587.82
2592.38
2615.4
2662.72
2732.29
2829.88
2950.7
3103.55
3281.25
3498.89
3745.51
4046.66
4384.33
4801.8
5268.38
5858.54
6519.04
7381.4
8353.36
9676.86
11193.7
13359.1
15878.6
19571.7
23779.4
29771.9
35983.2
43860.9
50790.7
56859.3
60404.5
52733.9
43174.1
24970.9
17004.1
13985.6
13211.5
13700.3
15722.7
16851.2
17520.2
16904.1
15967.5
14470
13057.7
11566
10315.3
9160.2
8238.09
7432.47
6798.01
6252.72
5819.14
5444.2
5136.32
4861.71
4621.91
4396.86
4185.78
3979.65
3777.54
3579.06
3382.9
3194.54
3010.73
2840.39
2676.43
2529.84
2388.59
2265.64
2144.09
2039.62
1931.2
1837.74
1735.29
1645.7
1543.74
1454.05
1354.57
376.721
376.938
378.865
383.533
393.177
413.192
455.506
540.39
692.267
927.565
1240.05
1595.28
1941.62
2232.51
2441.28
2566.29
2621.71
2631.5
2617.32
2598.95
2587.15
2591.72
2614.78
2662.15
2731.78
2829.42
2950.28
3103.16
3280.89
3498.54
3745.16
4046.32
4383.98
4801.45
5268.02
5858.15
6518.59
7380.83
8352.62
9675.87
11192.4
13357.4
15876.6
19569.8
23777.7
29771.1
35983.8
43863.7
50795
56867.7
60417.4
52751.6
43200.3
24992.2
17020.9
14001.1
13226.8
13712.6
15731.3
16856.9
17523.9
16906.4
15968.7
14470.4
13057.7
11565.9
10315.1
9159.94
8237.78
7432.13
6797.69
6252.45
5818.94
5444.08
5136.28
4861.72
4621.96
4396.95
4185.9
3979.79
3777.7
3579.23
3383.07
3194.71
3010.88
2840.54
2676.59
2530.01
2388.79
2265.88
2144.39
2039.98
1931.61
1838.22
1735.83
1646.29
1544.36
1454.69
1355.2
376.73
376.956
378.894
383.579
393.251
413.321
455.729
540.737
692.709
927.985
1240.29
1595.28
1941.39
2232.16
2440.88
2565.87
2621.24
2630.94
2616.68
2598.24
2586.43
2591.01
2614.12
2661.55
2731.23
2828.92
2949.83
3102.74
3280.49
3498.16
3744.78
4045.94
4383.6
4801.06
5267.62
5857.71
6518.08
7380.2
8351.8
9674.78
11191
13355.7
15874.6
19567.6
23775.7
29770.1
35984.1
43866.3
50799
56876.1
60430.6
52770.1
43227.8
25014.7
17038.5
14017.5
13243.1
13725.7
15740.5
16863
17527.9
16908.9
15969.9
14470.9
13057.7
11565.7
10314.9
9159.62
8237.4
7431.74
6797.3
6252.13
5818.69
5443.92
5136.19
4861.7
4621.99
4397.02
4186
3979.92
3777.85
3579.38
3383.23
3194.86
3011.03
2840.68
2676.73
2530.16
2388.98
2266.11
2144.67
2040.33
1932.03
1838.7
1736.36
1646.88
1544.98
1455.35
1355.85
376.739
376.976
378.926
383.627
393.328
413.456
455.963
541.103
693.174
928.43
1240.56
1595.27
1941.15
2231.8
2440.47
2565.42
2620.73
2630.35
2615.99
2597.49
2585.66
2590.26
2613.41
2660.9
2730.64
2828.38
2949.34
3102.28
3280.05
3497.74
3744.37
4045.52
4383.18
4800.62
5267.16
5857.21
6517.51
7379.49
8350.9
9673.59
11189.4
13353.7
15872.3
19565.2
23773.6
29769
35984.1
43868.7
50803
56884.6
60444.2
52789.3
43256.6
25038.2
17057.1
14034.8
13260.3
13739.5
15750.3
16869.5
17532.2
16911.4
15971.2
14471.2
13057.6
11565.4
10314.5
9159.22
8236.96
7431.27
6796.86
6251.75
5818.4
5443.72
5136.07
4861.64
4621.99
4397.06
4186.08
3980.03
3777.98
3579.53
3383.37
3195
3011.16
2840.81
2676.86
2530.31
2389.15
2266.34
2144.95
2040.67
1932.44
1839.18
1736.9
1647.48
1545.62
1456.02
1356.51
376.748
376.996
378.958
383.677
393.41
413.597
456.21
541.487
693.663
928.898
1240.84
1595.27
1940.91
2231.41
2440.03
2564.95
2620.19
2629.71
2615.26
2596.7
2584.84
2589.46
2612.66
2660.21
2730.01
2827.81
2948.81
3101.79
3279.58
3497.28
3743.92
4045.07
4382.72
4800.15
5266.66
5856.66
6516.88
7378.72
8349.91
9672.3
11187.8
13351.7
15869.9
19562.7
23771.3
29767.6
35984
43871
50806.8
56893.2
60458.2
52809.3
43286.7
25062.9
17076.6
14053
13278.4
13754.1
15760.7
16876.4
17536.6
16914.1
15972.5
14471.6
13057.4
11565.1
10314.1
9158.76
8236.44
7430.74
6796.36
6251.31
5818.05
5443.47
5135.91
4861.56
4621.97
4397.09
4186.15
3980.13
3778.1
3579.66
3383.51
3195.13
3011.28
2840.93
2676.98
2530.45
2389.32
2266.55
2145.22
2041.01
1932.84
1839.67
1737.45
1648.09
1546.27
1456.7
1357.19
376.758
377.017
378.992
383.729
393.495
413.746
456.467
541.888
694.176
929.39
1241.14
1595.27
1940.65
2231.01
2439.57
2564.45
2619.62
2629.04
2614.49
2595.85
2583.98
2588.62
2611.87
2659.47
2729.35
2827.2
2948.25
3101.26
3279.08
3496.79
3743.44
4044.58
4382.22
4799.63
5266.12
5856.06
6516.19
7377.87
8348.84
9670.91
11186
13349.5
15867.3
19559.9
23768.8
29766
35983.7
43873.1
50810.4
56901.9
60472.6
52830
43318.1
25088.8
17097.1
14072.1
13297.4
13769.4
15771.7
16883.7
17541.3
16916.9
15973.8
14472
13057.3
11564.7
10313.6
9158.23
8235.87
7430.16
6795.79
6250.82
5817.65
5443.18
5135.71
4861.44
4621.92
4397.09
4186.2
3980.21
3778.21
3579.78
3383.63
3195.25
3011.4
2841.03
2677.09
2530.58
2389.48
2266.76
2145.49
2041.35
1933.25
1840.15
1738
1648.7
1546.92
1457.4
1357.89
376.769
377.039
379.028
383.784
393.583
413.9
456.737
542.309
694.713
929.906
1241.45
1595.28
1940.39
2230.59
2439.09
2563.92
2619.02
2628.34
2613.67
2594.96
2583.06
2587.73
2611.03
2658.7
2728.64
2826.55
2947.65
3100.7
3278.55
3496.27
3742.92
4044.05
4381.68
4799.06
5265.52
5855.4
6515.44
7376.96
8347.69
9669.43
11184.1
13347.1
15864.6
19557
23766
29764.2
35983.2
43875.1
50814
56910.7
60487.4
52851.6
43350.9
25115.8
17118.5
14092.2
13317.4
13785.6
15783.3
16891.4
17546.3
16919.8
15975.2
14472.3
13057
11564.2
10313
9157.63
8235.23
7429.51
6795.17
6250.28
5817.21
5442.84
5135.48
4861.3
4621.84
4397.08
4186.23
3980.28
3778.31
3579.89
3383.75
3195.36
3011.5
2841.13
2677.19
2530.69
2389.63
2266.96
2145.74
2041.68
1933.65
1840.64
1738.55
1649.32
1547.59
1458.11
1358.6
376.78
377.063
379.065
383.841
393.676
414.062
457.018
542.747
695.273
930.445
1241.78
1595.29
1940.11
2230.15
2438.58
2563.37
2618.39
2627.59
2612.82
2594.03
2582.1
2586.79
2610.14
2657.88
2727.89
2825.87
2947.02
3100.11
3277.98
3495.71
3742.36
4043.48
4381.11
4798.46
5264.88
5854.69
6514.63
7375.97
8346.46
9667.84
11182.1
13344.6
15861.7
19553.9
23763.1
29762.2
35982.5
43876.8
50817.4
56919.6
60502.7
52873.9
43385.1
25144
17140.9
14113.2
13338.4
13802.6
15795.5
16899.5
17551.6
16922.9
15976.7
14472.7
13056.8
11563.7
10312.4
9156.98
8234.53
7428.8
6794.5
6249.69
5816.72
5442.47
5135.21
4861.12
4621.74
4397.04
4186.24
3980.34
3778.39
3579.99
3383.86
3195.46
3011.59
2841.21
2677.28
2530.8
2389.77
2267.15
2146
2042.01
1934.06
1841.12
1739.1
1649.95
1548.26
1458.84
1359.33
376.791
377.087
379.103
383.9
393.772
414.23
457.31
543.203
695.856
931.007
1242.12
1595.3
1939.83
2229.7
2438.06
2562.79
2617.73
2626.81
2611.92
2593.05
2581.1
2585.8
2609.21
2657.02
2727.11
2825.15
2946.35
3099.48
3277.37
3495.11
3741.77
4042.88
4380.49
4797.81
5264.19
5853.93
6513.76
7374.91
8345.15
9666.16
11180
13342
15858.6
19550.6
23759.9
29760.1
35981.6
43878.5
50820.7
56928.6
60518.3
52897.1
43420.6
25173.4
17164.4
14135.2
13360.3
13820.5
15808.3
16908.1
17557.1
16926.1
15978.2
14473
13056.5
11563.2
10311.8
9156.27
8233.77
7428.03
6793.77
6249.04
5816.19
5442.06
5134.91
4860.92
4621.62
4396.98
4186.24
3980.38
3778.47
3580.08
3383.95
3195.55
3011.67
2841.29
2677.36
2530.9
2389.9
2267.33
2146.24
2042.33
1934.46
1841.61
1739.66
1650.59
1548.95
1459.58
1360.07
376.803
377.112
379.144
383.962
393.872
414.404
457.614
543.678
696.463
931.593
1242.48
1595.32
1939.54
2229.23
2437.51
2562.19
2617.04
2626
2610.98
2592.03
2580.04
2584.77
2608.24
2656.12
2726.28
2824.39
2945.65
3098.81
3276.73
3494.48
3741.14
4042.24
4379.83
4797.12
5263.46
5853.12
6512.83
7373.79
8343.75
9664.38
11177.8
13339.2
15855.4
19547.1
23756.6
29757.7
35980.5
43880
50823.9
56937.6
60534.4
52921
43457.5
25204
17188.8
14158.2
13383.2
13839.2
15821.8
16917.1
17562.9
16929.5
15979.7
14473.4
13056.2
11562.5
10311
9155.49
8232.95
7427.21
6792.98
6248.35
5815.61
5441.61
5134.57
4860.69
4621.47
4396.91
4186.22
3980.41
3778.53
3580.17
3384.04
3195.63
3011.74
2841.35
2677.43
2530.98
2390.02
2267.51
2146.48
2042.65
1934.85
1842.1
1740.22
1651.23
1549.65
1460.33
1360.83
376.815
377.138
379.185
384.025
393.976
414.585
457.93
544.17
697.093
932.203
1242.86
1595.34
1939.24
2228.74
2436.94
2561.56
2616.32
2625.15
2610
2590.96
2578.94
2583.69
2607.22
2655.18
2725.42
2823.6
2944.91
3098.11
3276.06
3493.82
3740.48
4041.56
4379.13
4796.38
5262.68
5852.25
6511.84
7372.59
8342.27
9662.5
11175.4
13336.3
15852
19543.4
23753
29755.1
35979.2
43881.3
50826.9
56946.8
60550.9
52945.8
43495.9
25235.9
17214.4
14182.2
13407.2
13858.7
15835.9
16926.6
17569
16933
15981.4
14473.8
13055.8
11561.9
10310.3
9154.67
8232.08
7426.34
6792.15
6247.61
5814.99
5441.11
5134.2
4860.42
4621.3
4396.81
4186.19
3980.42
3778.58
3580.24
3384.11
3195.7
3011.81
2841.41
2677.49
2531.06
2390.14
2267.68
2146.72
2042.97
1935.25
1842.59
1740.79
1651.88
1550.36
1461.1
1361.61
376.828
377.164
379.228
384.092
394.084
414.773
458.257
544.681
697.746
932.835
1243.25
1595.36
1938.93
2228.24
2436.35
2560.91
2615.57
2624.27
2608.98
2589.84
2577.8
2582.57
2606.16
2654.19
2724.52
2822.76
2944.14
3097.38
3275.35
3493.12
3739.78
4040.85
4378.4
4795.61
5261.85
5851.33
6510.8
7371.33
8340.71
9660.52
11172.9
13333.3
15848.4
19539.5
23749.3
29752.3
35977.7
43882.5
50829.9
56956.2
60567.9
52971.5
43535.7
25269
17241
14207.2
13432.2
13879.1
15850.7
16936.5
17575.4
16936.8
15983.1
14474.2
13055.4
11561.2
10309.4
9153.79
8231.15
7425.41
6791.26
6246.81
5814.32
5440.58
5133.8
4860.13
4621.1
4396.69
4186.14
3980.43
3778.62
3580.3
3384.18
3195.77
3011.86
2841.45
2677.54
2531.13
2390.24
2267.84
2146.95
2043.28
1935.65
1843.08
1741.36
1652.54
1551.08
1461.88
1362.4
376.841
377.192
379.273
384.16
394.195
414.968
458.595
545.209
698.423
933.49
1243.66
1595.39
1938.62
2227.72
2435.74
2560.24
2614.8
2623.35
2607.92
2588.69
2576.61
2581.4
2605.05
2653.17
2723.57
2821.9
2943.33
3096.61
3274.61
3492.39
3739.05
4040.1
4377.62
4794.78
5260.97
5850.36
6509.69
7369.99
8339.07
9658.45
11170.3
13330.1
15844.7
19535.5
23745.4
29749.4
35976
43883.6
50832.8
56965.6
60585.3
52998
43577.1
25303.5
17268.6
14233.3
13458.2
13900.5
15866.2
16946.9
17582.1
16940.7
15984.9
14474.6
13055.1
11560.5
10308.6
9152.86
8230.17
7424.43
6790.32
6245.98
5813.61
5440.02
5133.37
4859.82
4620.89
4396.56
4186.07
3980.42
3778.65
3580.35
3384.24
3195.82
3011.9
2841.49
2677.57
2531.19
2390.34
2267.99
2147.17
2043.59
1936.04
1843.57
1741.94
1653.21
1551.81
1462.67
1363.22
376.854
377.221
379.319
384.231
394.311
415.169
458.946
545.756
699.122
934.168
1244.08
1595.42
1938.29
2227.18
2435.11
2559.54
2613.99
2622.39
2606.82
2587.49
2575.37
2580.19
2603.9
2652.1
2722.59
2820.99
2942.49
3095.81
3273.84
3491.62
3738.28
4039.31
4376.8
4793.92
5260.05
5849.33
6508.51
7368.59
8337.35
9656.27
11167.6
13326.8
15840.8
19531.3
23741.2
29746.2
35974.1
43884.5
50835.5
56975.2
60603.2
53025.4
43619.9
25339.2
17297.5
14260.4
13485.3
13922.7
15882.3
16957.8
17589.1
16944.8
15986.8
14475
13054.7
11559.7
10307.7
9151.88
8229.14
7423.4
6789.34
6245.1
5812.86
5439.41
5132.9
4859.47
4620.65
4396.41
4185.99
3980.39
3778.67
3580.39
3384.29
3195.86
3011.93
2841.51
2677.6
2531.23
2390.42
2268.14
2147.38
2043.9
1936.43
1844.07
1742.52
1653.88
1552.55
1463.48
1364.04
376.868
377.251
379.366
384.304
394.43
415.377
459.308
546.32
699.845
934.869
1244.52
1595.45
1937.96
2226.63
2434.46
2558.82
2613.16
2621.41
2605.68
2586.24
2574.09
2578.93
2602.71
2651
2721.58
2820.05
2941.61
3094.98
3273.03
3490.82
3737.47
4038.48
4375.95
4793.01
5259.07
5848.26
6507.28
7367.12
8335.54
9654
11164.8
13323.3
15836.7
19526.9
23736.9
29742.9
35972.1
43885.3
50838.2
56984.9
60621.6
53053.7
43664.2
25376.3
17327.4
14288.7
13513.5
13945.8
15899.2
16969.1
17596.5
16949.1
15988.9
14475.5
13054.3
11558.9
10306.7
9150.86
8228.07
7422.32
6788.31
6244.17
5812.07
5438.77
5132.4
4859.11
4620.38
4396.24
4185.9
3980.36
3778.68
3580.42
3384.33
3195.9
3011.96
2841.53
2677.62
2531.27
2390.5
2268.28
2147.6
2044.2
1936.82
1844.56
1743.1
1654.56
1553.3
1464.31
1364.89
376.883
377.281
379.415
384.38
394.553
415.592
459.682
546.902
700.59
935.592
1244.98
1595.49
1937.62
2226.06
2433.79
2558.07
2612.3
2620.39
2604.51
2584.95
2572.76
2577.63
2601.48
2649.85
2720.52
2819.07
2940.69
3094.11
3272.19
3489.99
3736.63
4037.62
4375.05
4792.07
5258.06
5847.12
6505.99
7365.57
8333.65
9651.63
11161.9
13319.7
15832.5
19522.3
23732.4
29739.3
35969.8
43885.9
50840.7
56994.8
60640.4
53082.9
43710.1
25414.8
17358.6
14318
13542.9
13969.9
15916.8
16981
17604.2
16953.6
15991
14476
13053.9
11558.1
10305.7
9149.79
8226.95
7421.2
6787.23
6243.2
5811.24
5438.1
5131.88
4858.71
4620.1
4396.05
4185.79
3980.32
3778.68
3580.45
3384.36
3195.92
3011.97
2841.54
2677.63
2531.3
2390.57
2268.41
2147.8
2044.5
1937.21
1845.06
1743.69
1655.25
1554.06
1465.14
1365.75
376.898
377.313
379.466
384.458
394.68
415.814
460.067
547.502
701.358
936.338
1245.44
1595.53
1937.27
2225.48
2433.1
2557.31
2611.42
2619.34
2603.29
2583.62
2571.39
2576.28
2600.2
2648.66
2719.42
2818.06
2939.75
3093.2
3271.31
3489.12
3735.76
4036.72
4374.12
4791.07
5256.99
5845.94
6504.64
7363.96
8331.69
9649.17
11158.8
13316
15828.1
19517.5
23727.7
29735.6
35967.4
43886.4
50843.2
57004.8
60659.8
53113
43757.6
25454.7
17390.9
14348.5
13573.3
13994.9
15935.1
16993.4
17612.3
16958.4
15993.2
14476.6
13053.5
11557.3
10304.7
9148.68
8225.78
7420.03
6786.1
6242.19
5810.37
5437.39
5131.32
4858.29
4619.79
4395.84
4185.67
3980.26
3778.67
3580.46
3384.38
3195.94
3011.98
2841.54
2677.63
2531.33
2390.63
2268.53
2148
2044.79
1937.6
1845.56
1744.29
1655.95
1554.83
1466
1366.63
376.913
377.346
379.518
384.538
394.811
416.042
460.464
548.121
702.148
937.106
1245.93
1595.57
1936.91
2224.88
2432.39
2556.52
2610.51
2618.26
2602.04
2582.25
2569.97
2574.89
2598.88
2647.43
2718.29
2817
2938.76
3092.26
3270.4
3488.21
3734.85
4035.78
4373.14
4790.04
5255.88
5844.7
6503.23
7362.27
8329.64
9646.61
11155.6
13312.1
15823.6
19512.5
23722.8
29731.7
35964.8
43886.8
50845.6
57015
60679.6
53144.1
43806.6
25496
17424.4
14380.2
13604.9
14020.9
15954.1
17006.4
17620.7
16963.3
15995.6
14477.3
13053.1
11556.4
10303.6
9147.53
8224.57
7418.81
6784.94
6241.13
5809.46
5436.65
5130.73
4857.84
4619.47
4395.62
4185.53
3980.19
3778.65
3580.47
3384.4
3195.95
3011.98
2841.52
2677.63
2531.34
2390.69
2268.65
2148.19
2045.08
1937.99
1846.06
1744.88
1656.66
1555.62
1466.86
1367.52
376.929
377.379
379.572
384.621
394.946
416.278
460.873
548.757
702.962
937.896
1246.43
1595.62
1936.55
2224.26
2431.66
2555.71
2609.57
2617.14
2600.75
2580.83
2568.51
2573.45
2597.51
2646.16
2717.12
2815.92
2937.74
3091.29
3269.46
3487.28
3733.9
4034.81
4372.13
4788.96
5254.72
5843.41
6501.76
7360.52
8327.51
9643.95
11152.3
13308.1
15818.9
19507.4
23717.7
29727.6
35962.1
43887.1
50847.9
57025.3
60700
53176.1
43857.3
25538.8
17459.2
14413
13637.6
14047.9
15973.9
17019.9
17629.5
16968.5
15998.1
14477.9
13052.7
11555.5
10302.5
9146.35
8223.32
7417.56
6783.73
6240.04
5808.51
5435.87
5130.11
4857.37
4619.12
4395.38
4185.38
3980.11
3778.62
3580.47
3384.4
3195.95
3011.97
2841.5
2677.61
2531.34
2390.73
2268.76
2148.38
2045.37
1938.38
1846.56
1745.49
1657.37
1556.41
1467.75
1368.43
376.945
377.414
379.627
384.706
395.085
416.52
461.293
549.41
703.798
938.708
1246.94
1595.67
1936.17
2223.64
2430.92
2554.88
2608.61
2616
2599.42
2579.38
2567.01
2571.97
2596.11
2644.85
2715.91
2814.79
2936.69
3090.28
3268.48
3486.3
3732.92
4033.79
4371.08
4787.84
5253.51
5842.06
6500.23