/*--------------------------------*- C++ -*----------------------------------*\
| =========                 |                                                 |
| \\      /  F ield         | OpenFOAM: The Open Source CFD Toolbox           |
|  \\    /   O peration     | Version:  2412                                  |
|   \\  /    A nd           | Website:  www.openfoam.com                      |
|    \\/     M anipulation  |                                                 |
\*---------------------------------------------------------------------------*/
FoamFile
{
    version     2.0;
    format      ascii;
    arch        "LSB;label=32;scalar=64";
    class       volScalarField;
    location    "1";
    object      k;
}
// * * * * * * * * * * * * * * * * * * * * * * * * * * * * * * * * * * * * * //

dimensions      [0 2 -2 0 0 0 0];

internalField   nonuniform List<scalar> 
13068
(
37.4755
37.5234
37.7209
38.1797
39.1198
40.9627
44.3943
50.1881
58.7378
69.5782
81.3178
92.1456
100.58
105.998
108.587
109.091
108.371
107.247
106.246
105.721
105.74
106.363
107.492
109.177
111.299
113.969
117.034
120.692
124.73
129.477
134.611
140.659
147.121
154.83
163.002
172.957
183.447
196.584
210.386
228.274
247.104
272.334
298.717
334.342
369.949
416.156
457.512
505.883
542.946
571.521
582.789
517.912
440.295
285.791
213.614
199.988
226.576
254.616
283.191
291.89
293.757
282.434
269.945
252.567
237.339
221.218
208.037
195.397
185.313
175.993
168.528
161.699
156.124
150.988
146.603
142.425
138.591
134.781
131.059
127.302
123.544
119.809
116.086
112.5
108.96
105.662
102.405
99.4534
96.4788
93.8294
91.0417
88.5699
85.8206
83.3654
80.501
77.9099
74.8187
72.0357
68.8998
37.4755
37.5235
37.7211
38.18
39.1202
40.9633
44.3947
50.1882
58.7372
69.5766
81.3156
92.1436
100.58
105.999
108.59
109.094
108.375
107.251
106.251
105.725
105.744
106.367
107.496
109.181
111.303
113.973
117.038
120.697
124.735
129.482
134.617
140.665
147.127
154.837
163.009
172.965
183.456
196.593
210.395
228.283
247.114
272.344
298.728
334.355
369.966
416.18
457.541
505.918
542.981
571.556
582.82
517.942
440.333
285.821
213.637
200.009
226.596
254.629
283.199
291.897
293.766
282.444
269.957
252.58
237.353
221.232
208.05
195.409
185.324
176.004
168.538
161.709
156.133
150.997
146.612
142.433
138.599
134.788
131.066
127.308
123.55
119.815
116.092
112.506
108.966
105.668
102.412
99.4611
96.4871
93.8384
91.0514
88.5802
85.8312
83.3762
80.5114
77.9197
74.8275
72.043
68.9053
37.4756
37.5237
37.7214
38.1804
39.1209
40.9643
44.396
50.1893
58.7376
69.5757
81.3135
92.1412
100.578
105.999
108.591
109.097
108.379
107.254
106.254
105.729
105.747
106.37
107.499
109.185
111.307
113.977
117.042
120.701
124.739
129.487
134.622
140.671
147.134
154.844
163.017
172.973
183.465
196.602
210.404
228.292
247.123
272.353
298.739
334.369
369.984
416.204
457.572
505.954
543.019
571.595
582.857
517.981
440.382
285.863
213.672
200.041
226.624
254.647
283.211
291.907
293.777
282.457
269.97
252.594
237.367
221.246
208.063
195.421
185.335
176.014
168.548
161.719
156.143
151.007
146.621
142.442
138.607
134.795
131.073
127.315
123.556
119.822
116.098
112.513
108.973
105.675
102.419
99.469
96.4957
93.8478
91.0615
88.5909
85.8423
83.3875
80.5226
77.9303
74.8371
72.0513
68.9119
37.4757
37.524
37.7218
38.1811
39.1219
40.9658
44.398
50.1915
58.739
69.5756
81.3116
92.1383
100.575
105.998
108.592
109.099
108.381
107.257
106.256
105.731
105.75
106.373
107.502
109.188
111.31
113.981
117.046
120.705
124.744
129.491
134.627
140.676
147.14
154.851
163.024
172.981
183.473
196.611
210.412
228.3
247.131
272.362
298.748
334.381
370.001
416.227
457.601
505.99
543.057
571.636
582.898
518.025
440.442
285.917
213.717
200.081
226.659
254.671
283.226
291.919
293.789
282.47
269.983
252.607
237.38
221.259
208.076
195.432
185.345
176.024
168.558
161.729
156.153
151.016
146.63
142.45
138.615
134.803
131.079
127.322
123.562
119.828
116.105
112.519
108.979
105.682
102.426
99.477
96.5044
93.8572
91.0716
88.6017
85.8536
83.3991
80.5341
77.9414
74.8473
72.0604
68.9192
37.4758
37.5243
37.7224
38.1819
39.1233
40.9679
44.4009
50.1948
58.7416
69.5763
81.3099
92.135
100.572
105.996
108.591
109.099
108.382
107.258
106.258
105.732
105.751
106.374
107.504
109.19
111.312
113.983
117.049
120.708
124.747
129.495
134.631
140.68
147.145
154.856
163.03
172.988
183.48
196.618
210.419
228.307
247.137
272.369
298.757
334.392
370.016
416.248
457.629
506.026
543.094
571.678
582.941
518.074
440.512
285.98
213.771
200.131
226.701
254.699
283.244
291.933
293.803
282.483
269.995
252.619
237.393
221.272
208.088
195.443
185.355
176.033
168.567
161.738
156.162
151.025
146.638
142.458
138.622
134.81
131.086
127.328
123.569
119.834
116.111
112.526
108.986
105.689
102.434
99.4848
96.5129
93.8665
91.0817
88.6126
85.865
83.4109
80.5459
77.9529
74.8581
72.07
68.9272
37.476
37.5247
37.723
38.1829
39.1249
40.9705
44.4047
50.1992
58.7454
69.5778
81.3085
92.1314
100.568
105.992
108.589
109.099
108.382
107.258
106.258
105.732
105.751
106.375
107.505
109.191
111.314
113.985
117.051
120.711
124.75
129.498
134.634
140.684
147.149
154.861
163.036
172.994
183.486
196.624
210.425
228.312
247.143
272.374
298.763
334.401
370.029
416.268
457.656
506.059
543.13
571.72
582.988
518.129
440.591
286.052
213.834
200.189
226.75
254.732
283.266
291.949
293.817
282.496
270.007
252.631
237.405
221.284
208.099
195.453
185.364
176.041
168.575
161.746
156.17
151.033
146.646
142.466
138.63
134.817
131.093
127.334
123.575
119.84
116.117
112.532
108.992
105.696
102.441
99.4924
96.5213
93.8758
91.0918
88.6235
85.8765
83.4229
80.5579
77.9648
74.8693
72.0802
68.9359
37.4762
37.5251
37.7238
38.1842
39.1269
40.9736
44.4093
50.2048
58.7504
69.5802
81.3074
92.1274
100.563
105.988
108.586
109.097
108.381
107.257
106.257
105.731
105.751
106.375
107.505
109.192
111.315
113.987
117.053
120.713
124.752
129.501
134.637
140.688
147.153
154.866
163.041
172.999
183.492
196.629
210.43
228.316
247.146
272.378
298.767
334.408
370.041
416.286
457.681
506.092
543.166
571.763
583.036
518.188
440.679
286.135
213.906
200.255
226.806
254.77
283.29
291.967
293.832
282.509
270.019
252.642
237.416
221.295
208.109
195.462
185.371
176.048
168.582
161.754
156.178
151.041
146.654
142.473
138.637
134.823
131.099
127.34
123.581
119.846
116.123
112.538
108.998
105.702
102.447
99.4999
96.5295
93.8849
91.1018
88.6344
85.8881
83.435
80.5702
77.977
74.881
72.091
68.9452
37.4764
37.5256
37.7246
38.1856
39.1292
40.9774
44.4147
50.2114
58.7565
69.5836
81.3065
92.123
100.557
105.982
108.582
109.093
108.378
107.255
106.254
105.729
105.749
106.373
107.504
109.192
111.315
113.987
117.054
120.714
124.754
129.503
134.64
140.69
147.156
154.869
163.045
173.004
183.496
196.633
210.433
228.319
247.148
272.38
298.77
334.413
370.05
416.303
457.705
506.123
543.2
571.807
583.087
518.252
440.776
286.227
213.988
200.33
226.868
254.812
283.317
291.986
293.847
282.521
270.03
252.653
237.426
221.305
208.118
195.47
185.378
176.055
168.588
161.76
156.185
151.048
146.661
142.48
138.643
134.829
131.105
127.346
123.586
119.852
116.128
112.544
109.004
105.708
102.454
99.5071
96.5375
93.8938
91.1117
88.6453
85.8997
83.4473
80.5828
77.9896
74.8931
72.1024
68.9552
37.4767
37.5262
37.7256
38.1871
39.1318
40.9816
44.421
50.2193
58.7639
69.5878
81.306
92.1182
100.55
105.976
108.576
109.089
108.374
107.251
106.25
105.726
105.746
106.371
107.502
109.19
111.315
113.987
117.054
120.715
124.755
129.504
134.641
140.692
147.158
154.872
163.048
173.007
183.499
196.636
210.436
228.32
247.149
272.38
298.771
334.417
370.058
416.317
457.726
506.153
543.233
571.85
583.14
518.321
440.883
286.328
214.078
200.413
226.937
254.859
283.348
292.006
293.863
282.534
270.04
252.662
237.436
221.314
208.126
195.477
185.384
176.06
168.594
161.766
156.191
151.054
146.668
142.487
138.649
134.835
131.11
127.351
123.592
119.857
116.134
112.549
109.01
105.714
102.46
99.5142
96.5454
93.9027
91.1215
88.6561
85.9114
83.4597
80.5956
78.0025
74.9056
72.1143
68.9658
37.477
37.5268
37.7267
38.1889
39.1348
40.9864
44.4282
50.2282
58.7724
69.5928
81.3056
92.1131
100.542
105.968
108.569
109.083
108.369
107.246
106.245
105.721
105.742
106.367
107.499
109.188
111.313
113.986
117.053
120.715
124.755
129.505
134.642
140.693
147.16
154.874
163.05
173.01
183.502
196.638
210.437
228.321
247.148
272.378
298.77
334.418
370.064
416.33
457.746
506.182
543.265
571.895
583.195
518.395
440.998
286.44
214.178
200.505
227.012
254.911
283.381
292.029
293.879
282.547
270.05
252.671
237.444
221.322
208.133
195.483
185.389
176.065
168.599
161.771
156.197
151.06
146.674
142.493
138.655
134.841
131.116
127.357
123.597
119.862
116.139
112.554
109.015
105.72
102.467
99.521
96.553
93.9114
91.1312
88.667
85.9231
83.4723
80.6086
78.0158
74.9186
72.1267
68.977
37.4773
37.5275
37.7278
38.1909
39.1381
40.9918
44.4362
50.2383
58.7821
69.5988
81.3056
92.1075
100.534
105.959
108.561
109.076
108.363
107.239
106.239
105.715
105.736
106.363
107.496
109.186
111.311
113.985
117.052
120.714
124.755
129.504
134.642
140.693
147.16
154.875
163.052
173.011
183.503
196.639
210.437
228.319
247.146
272.375
298.768
334.418
370.068
416.342
457.764
506.209
543.297
571.939
583.253
518.474
441.124
286.561
214.288
200.606
227.094
254.968
283.417
292.052
293.896
282.559
270.059
252.678
237.451
221.329
208.14
195.488
185.393
176.068
168.602
161.776
156.201
151.066
146.679
142.498
138.661
134.846
131.121
127.362
123.602
119.867
116.144
112.559
109.02
105.725
102.473
99.5276
96.5605
93.9199
91.1409
88.6778
85.9349
83.485
80.6219
78.0294
74.9321
72.1398
68.9889
37.4776
37.5283
37.7291
38.193
39.1416
40.9977
44.4451
50.2495
58.793
69.6056
81.3058
92.1015
100.524
105.948
108.552
109.068
108.355
107.232
106.232
105.708
105.73
106.358
107.491
109.182
111.308
113.982
117.05
120.712
124.753
129.503
134.641
140.693
147.16
154.875
163.052
173.012
183.504
196.639
210.435
228.316
247.142
272.371
298.763
334.416
370.07
416.351
457.781
506.235
543.327
571.984
583.313
518.557
441.258
286.692
214.406
200.715
227.183
255.029
283.457
292.078
293.914
282.572
270.068
252.685
237.458
221.335
208.145
195.492
185.396
176.071
168.605
161.779
156.206
151.07
146.684
142.503
138.666
134.851
131.126
127.366
123.606
119.872
116.149
112.564
109.025
105.731
102.478
99.534
96.5679
93.9284
91.1505
88.6886
85.9468
83.4979
80.6354
78.0433
74.946
72.1534
69.0014
37.478
37.5291
37.7306
38.1953
39.1455
41.0041
44.4548
50.2619
58.8051
69.6132
81.3063
92.0952
100.514
105.937
108.541
109.058
108.346
107.223
106.223
105.7
105.723
106.351
107.486
109.177
111.304
113.979
117.048
120.71
124.752
129.502
134.64
140.692
147.16
154.875
163.052
173.012
183.503
196.638
210.433
228.312
247.136
272.364
298.757
334.412
370.07
416.359
457.796
506.26
543.356
572.03
583.376
518.646
441.402
286.832
214.534
200.833
227.279
255.096
283.499
292.105
293.932
282.584
270.076
252.691
237.463
221.341
208.15
195.495
185.399
176.073
168.608
161.782
156.209
151.074
146.688
142.508
138.67
134.856
131.13
127.371
123.611
119.876
116.153
112.569
109.03
105.736
102.484
99.5403
96.575
93.9367
91.16
88.6994
85.9587
83.511
80.6491
78.0577
74.9603
72.1676
69.0146
37.4784
37.53
37.7321
38.1979
39.1498
41.0111
44.4654
50.2753
58.8183
69.6217
81.307
92.0884
100.503
105.925
108.529
109.047
108.336
107.213
106.213
105.69
105.714
106.344
107.48
109.172
111.3
113.975
117.044
120.707
124.749
129.5
134.638
140.69
147.158
154.874
163.051
173.011
183.502
196.635
210.429
228.307
247.129
272.356
298.749
334.406
370.069
416.365
457.809
506.283
543.384
572.076
583.441
518.739
441.556
286.983
214.672
200.96
227.382
255.167
283.545
292.134
293.951
282.596
270.084
252.697
237.468
221.345
208.153
195.498
185.4
176.074
168.609
161.784
156.212
151.078
146.692
142.512
138.675
134.86
131.135
127.375
123.615
119.881
116.157
112.573
109.034
105.74
102.489
99.5463
96.582
93.9449
91.1694
88.7102
85.9707
83.5241
80.6631
78.0723
74.9752
72.1823
69.0284
37.4788
37.5309
37.7337
38.2006
39.1543
41.0187
44.4768
50.2899
58.8327
69.6311
81.308
92.0813
100.491
105.911
108.516
109.035
108.324
107.202
106.202
105.68
105.704
106.335
107.472
109.166
111.294
113.971
117.04
120.704
124.746
129.497
134.635
140.688
147.156
154.872
163.049
173.009
183.499
196.632
210.424
228.3
247.121
272.346
298.739
334.398
370.065
416.369
457.821
506.305
543.411
572.123
583.508
518.838
441.719
287.144
214.819
201.095
227.491
255.243
283.593
292.165
293.971
282.609
270.091
252.701
237.472
221.349
208.156
195.499
185.4
176.074
168.609
161.785
156.214
151.081
146.696
142.516
138.678
134.864
131.139
127.379
123.619
119.885
116.162
112.577
109.039
105.745
102.494
99.5521
96.5888
93.9529
91.1787
88.721
85.9827
83.5375
80.6773
78.0874
74.9904
72.1976
69.0429
37.4793
37.5319
37.7354
38.2034
39.1592
41.0267
44.4891
50.3056
58.8482
69.6413
81.3092
92.0737
100.478
105.896
108.502
109.022
108.311
107.189
106.19
105.668
105.694
106.326
107.464
109.159
111.288
113.965
117.036
120.7
124.742
129.493
134.632
140.685
147.153
154.869
163.047
173.006
183.496
196.627
210.418
228.292
247.11
272.335
298.727
334.389
370.06
416.372
457.831
506.326
543.437
572.17
583.578
518.941
441.892
287.315
214.975
201.24
227.608
255.323
283.645
292.198
293.992
282.621
270.098
252.705
237.474
221.351
208.157
195.5
185.4
176.074
168.609
161.786
156.215
151.083
146.699
142.519
138.682
134.868
131.142
127.383
123.623
119.888
116.165
112.581
109.043
105.749
102.499
99.5578
96.5955
93.9608
91.188
88.7318
85.9948
83.551
80.6918
78.1027
75.0061
72.2135
69.058
37.4798
37.533
37.7373
38.2065
39.1644
41.0354
44.5022
50.3224
58.8649
69.6523
81.3106
92.0658
100.464
105.881
108.487
109.008
108.297
107.175
106.176
105.655
105.682
106.315
107.455
109.151
111.281
113.959
117.03
120.695
124.737
129.489
134.628
140.681
147.149
154.865
163.043
173.002
183.491
196.621
210.41
228.282
247.099
272.322
298.714
334.377
370.053
416.373
457.839
506.346
543.462
572.217
583.651
519.05
442.075
287.496
215.142
201.393
227.731
255.409
283.7
292.232
294.013
282.634
270.104
252.709
237.477
221.353
208.158
195.5
185.399
176.072
168.608
161.786
156.216
151.085
146.701
142.522
138.685
134.871
131.146
127.387
123.627
119.892
116.169
112.585
109.046
105.753
102.504
99.5632
96.602
93.9687
91.1972
88.7425
86.007
83.5647
80.7066
78.1185
75.0223
72.2299
69.0738
37.4803
37.5342
37.7393
38.2098
39.1699
41.0446
44.5162
50.3403
58.8827
69.6641
81.3123
92.0574
100.449
105.864
108.47
108.992
108.282
107.16
106.161
105.641
105.669
106.304
107.445
109.142
111.274
113.952
117.024
120.689
124.732
129.484
134.623
140.676
147.145
154.861
163.039
172.997
183.486
196.614
210.401
228.271
247.086
272.307
298.699
334.364
370.044
416.372
457.846
506.364
543.486
572.266
583.726
519.164
442.268
287.687
215.318
201.555
227.862
255.5
283.759
292.268
294.036
282.646
270.11
252.711
237.478
221.354
208.158
195.498
185.396
176.07
168.606
161.785
156.216
151.086
146.703
142.525
138.688
134.874
131.149
127.39
123.63
119.896
116.173
112.588
109.05
105.757
102.508
99.5685
96.6083
93.9763
91.2064
88.7533
86.0193
83.5785
80.7215
78.1346
75.039
72.247
69.0903
37.4808
37.5354
37.7414
38.2132
39.1758
41.0543
44.531
50.3593
58.9017
69.6768
81.3142
92.0486
100.433
105.846
108.452
108.975
108.266
107.144
106.145
105.626
105.655
106.291
107.434
109.133
111.265
113.945
117.017
120.683
124.726
129.478
134.618
140.671
147.14
154.856
163.034
172.992
183.48
196.606
210.391
228.259
247.071
272.291
298.682
334.349
370.034
416.37
457.851
506.381
543.509
572.315
583.804
519.284
442.471
287.889
215.504
201.727
228
255.597
283.821
292.306
294.059
282.659
270.115
252.713
237.478
221.354
208.158
195.497
185.393
176.066
168.603
161.783
156.216
151.087
146.705
142.527
138.691
134.877
131.152
127.393
123.633
119.899
116.176
112.592
109.054
105.761
102.512
99.5736
96.6145
93.9839
91.2154
88.7641
86.0316
83.5925
80.7368
78.151
75.0561
72.2646
69.1074
37.4814
37.5367
37.7435
38.2169
39.1819
41.0646
44.5467
50.3795
58.9218
69.6903
81.3163
92.0394
100.417
105.826
108.433
108.957
108.248
107.126
106.128
105.609
105.64
106.278
107.422
109.122
111.256
113.937
117.01
120.676
124.72
129.472
134.612
140.665
147.134
154.85
163.028
172.985
183.472
196.597
210.38
228.246
247.055
272.273
298.663
334.332
370.021
416.366
457.855
506.397
543.531
572.364
583.885
519.409
442.684
288.102
215.701
201.907
228.145
255.698
283.886
292.347
294.083
282.672
270.121
252.714
237.478
221.353
208.156
195.494
185.39
176.062
168.6
161.781
156.215
151.087
146.706
142.528
138.693
134.879
131.155
127.396
123.636
119.902
116.179
112.595
109.057
105.764
102.516
99.5785
96.6206
93.9914
91.2244
88.7748
86.044
83.6066
80.7523
78.1679
75.0736
72.2828
69.1251
37.482
37.538
37.7459
38.2207
39.1884
41.0754
44.5632
50.4007
58.943
69.7046
81.3186
92.0298
100.399
105.806
108.413
108.937
108.229
107.107
106.11
105.592
105.624
106.264
107.41
109.111
111.246
113.928
117.002
120.668
124.712
129.465
134.605
140.658
147.127
154.843
163.021
172.978
183.464
196.587
210.368
228.231
247.037
272.253
298.643
334.314
370.007
416.36
457.857
506.412
543.552
572.415
583.968
519.539
442.907
288.325
215.907
202.097
228.297
255.804
283.954
292.389
294.108
282.685
270.126
252.715
237.477
221.352
208.154
195.49
185.385
176.057
168.595
161.777
156.213
151.086
146.706
142.53
138.695
134.882
131.157
127.399
123.639
119.905
116.182
112.597
109.06
105.768
102.52
99.5832
96.6265
93.9987
91.2334
88.7856
86.0564
83.6209
80.768
78.1851
75.0917
72.3016
69.1436
37.4826
37.5394
37.7483
38.2248
39.1953
41.0868
44.5805
50.423
58.9654
69.7197
81.3212
92.0197
100.381
105.785
108.391
108.917
108.209
107.087
106.09
105.573
105.607
106.248
107.396
109.099
111.235
113.918
116.993
120.66
124.704
129.457
134.597
140.651
147.12
154.836
163.013
172.97
183.454
196.576
210.355
228.214
247.018
272.232
298.62
334.294
369.991
416.353
457.857
506.425
543.573
572.466
584.054
519.675
443.14
288.559
216.124
202.297
228.457
255.916
284.026
292.433
294.134
282.698
270.13
252.715
237.476
221.349
208.15
195.486
185.38
176.052
168.59
161.774
156.21
151.085
146.706
142.531
138.696
134.883
131.16
127.401
123.642
119.907
116.184
112.6
109.062
105.771
102.524
99.5877
96.6322
94.006
91.2423
88.7964
86.069
83.6354
80.784
78.2026
75.1102
72.321
69.1627
37.4833
37.5409
37.7508
38.229
39.2024
41.0987
44.5987
50.4464
58.9889
69.7356
81.324
92.0093
100.362
105.762
108.369
108.895
108.188
107.066
106.069
105.553
105.589
106.232
107.381
109.086
111.224
113.908
116.983
120.651
124.696
129.449
134.589
140.643
147.112
154.828
163.005
172.96
183.444
196.564
210.34
228.196
246.998
272.209
298.596
334.271
369.973
416.344
457.856
506.438
543.593
572.518
584.143
519.816
443.384
288.804
216.351
202.506
228.624
256.034
284.102
292.479
294.161
282.712
270.135
252.715
237.473
221.346
208.146
195.481
185.373
176.046
168.585
161.769
156.207
151.083
146.706
142.531
138.697
134.885
131.162
127.403
123.644
119.91
116.187
112.603
109.065
105.774
102.527
99.5921
96.6378
94.0131
91.2511
88.8072
86.0816
83.65
80.8003
78.2206
75.1291
72.341
69.1825
37.4839
37.5424
37.7535
38.2334
39.2099
41.1111
44.6177
50.4709
59.0135
69.7524
81.3269
91.9984
100.342
105.738
108.345
108.872
108.165
107.044
106.047
105.532
105.569
106.214
107.366
109.072
111.212
113.896
116.973
120.641
124.686
129.44
134.58
140.634
147.103
154.819
162.996
172.95
183.433
196.55
210.324
228.177
246.975
272.184
298.571
334.248
369.954
416.334
457.853
506.449
543.611
572.57
584.234
519.963
443.639
289.061
216.589
202.724
228.799
256.156
284.181
292.528
294.189
282.725
270.139
252.714
237.47
221.343
208.142
195.475
185.366
176.038
168.578
161.764
156.204
151.081
146.705
142.531
138.698
134.887
131.163
127.405
123.646
119.912
116.189
112.605
109.067
105.776
102.531
99.5963
96.6432
94.0202
91.2599
88.8179
86.0943
83.6649
80.8168
78.2389
75.1486
72.3615
69.2029
37.4847
37.544
37.7562
38.238
39.2177
41.1242
44.6376
50.4965
59.0392
69.7698
81.3301
91.9871
100.321
105.713
108.32
108.848
108.141
107.02
106.024
105.51
105.549
106.196
107.35
109.058
111.199
113.884
116.962
120.63
124.676
129.43
134.571
140.624
147.093
154.809
162.985
172.939
183.42
196.536
210.307
228.157
246.952
272.158
298.543
334.222
369.933
416.322
457.849
506.459
543.629
572.624
584.329
520.116
443.904
289.328
216.837
202.953
228.981
256.285
284.264
292.578
294.218
282.74
270.143
252.713
237.467
221.338
208.136
195.468
185.359
176.031
168.571
161.758
156.2
151.079
146.704
142.531
138.699
134.888
131.165
127.407
123.648
119.914
116.191
112.607
109.07
105.779
102.534
99.6003
96.6485
94.0271
91.2686
88.8287
86.1071
83.6798
80.8336
78.2575
75.1685
72.3827
69.2241
37.4854
37.5457
37.7591
38.2428
39.2258
41.1377
44.6583
50.5231
59.0659
69.7881
81.3335
91.9754
100.299
105.688
108.294
108.822
108.117
106.995
105.999
105.487
105.527
106.177
107.332
109.042
111.185
113.872
116.95
120.619
124.666
129.419
134.56
140.614
147.083
154.798
162.974
172.927
183.407
196.52
210.288
228.135
246.927
272.13
298.514
334.195
369.91
416.308
457.844
506.468
543.647
572.678
584.427
520.274
444.18
289.607
217.097
203.191
229.172
256.419
284.351
292.631
294.248
282.754
270.147
252.711
237.463
221.333
208.13
195.461
185.35
176.022
168.563
161.752
156.195
151.075
146.702
142.53
138.699
134.888
131.166
127.409
123.65
119.916
116.193
112.609
109.072
105.781
102.537
99.6041
96.6537
94.0339
91.2772
88.8396
86.1199
83.695
80.8506
78.2766
75.1889
72.4044
69.2459
37.4862
37.5474
37.7621
38.2478
39.2343
41.1518
44.6798
50.5509
59.0938
69.8071
81.337
91.9632
100.276
105.661
108.267
108.796
108.091
106.969
105.974
105.462
105.505
106.156
107.314
109.026
111.17
113.858
116.938
120.608
124.655
129.408
134.549
140.603
147.072
154.787
162.963
172.915
183.393
196.504
210.269
228.112
246.9
272.1
298.483
334.165
369.885
416.293
457.837
506.476
543.663
572.733
584.527
520.438
444.467
289.897
217.367
203.439
229.37
256.559
284.442
292.687
294.28
282.77
270.152
252.709
237.458
221.327
208.123
195.453
185.341
176.013
168.555
161.745
156.189
151.072
146.7
142.529
138.699
134.889
131.167
127.41
123.652
119.918
116.195
112.611
109.073
105.783
102.539
99.6078
96.6587
94.0406
91.2859
88.8504
86.1328
83.7103
80.8679
78.296
75.2098
72.4268
69.2684
37.487
37.5492
37.7652
38.2529
39.243
41.1665
44.7021
50.5796
59.1228
69.8269
81.3408
91.9506
100.253
105.632
108.238
108.768
108.063
106.942
105.947
105.437
105.481
106.135
107.295
109.009
111.155
113.844
116.925
120.595
124.642
129.397
134.538
140.591
147.06
154.775
162.95
172.901
183.378
196.486
210.248
228.088
246.872
272.069
298.45
334.134
369.859
416.276
457.828
506.483
543.679
572.79
584.631
520.609
444.765
290.199
217.649
203.698
229.576
256.704
284.536
292.744
294.313
282.785
270.156
252.707
237.453
221.321
208.116
195.444
185.331
176.003
168.545
161.737
156.183
151.068
146.697
142.528
138.698
134.889
131.168
127.412
123.653
119.919
116.196
112.612
109.075
105.785
102.542
99.6113
96.6636
94.0473
91.2944
88.8612
86.1459
83.7258
80.8855
78.3158
75.2312
72.4498
69.2916
37.4878
37.5511
37.7684
38.2583
39.2522
41.1817
44.7253
50.6095
59.1528
69.8475
81.3447
91.9376
100.228
105.603
108.208
108.739
108.035
106.914
105.919
105.41
105.457
106.113
107.275
108.991
111.139
113.83
116.911
120.582
124.63
129.384
134.525
140.579
147.048
154.762
162.936
172.886
183.361
196.467
210.226
228.062
246.842
272.037
298.416
334.102
369.831
416.258
457.818
506.489
543.694
572.847
584.738
520.785
445.074
290.513
217.942
203.967
229.791
256.856
284.635
292.805
294.347
282.802
270.16
252.705
237.447
221.314
208.108
195.434
185.321
175.992
168.535
161.728
156.177
151.063
146.694
142.526
138.697
134.889
131.169
127.413
123.655
119.921
116.198
112.613
109.076
105.787
102.544
99.6147
96.6683
94.0538
91.3029
88.8721
86.159
83.7415
80.9033
78.336
75.253
72.4733
69.3155
37.4887
37.5531
37.7718
38.2639
39.2616
41.1975
44.7494
50.6404
59.1839
69.8688
81.3488
91.9241
100.203
105.573
108.178
108.709
108.005
106.884
105.89
105.382
105.431
106.09
107.255
108.973
111.122
113.814
116.896
120.568
124.616
129.371
134.512
140.566
147.034
154.748
162.922
172.871
183.344
196.447
210.203
228.035
246.811
272.002
298.38
334.067
369.801
416.238
457.807
506.494
543.709
572.905
584.848
520.968
445.395
290.839
218.247
204.246
230.013
257.013
284.737
292.867
294.383
282.819
270.164
252.702
237.441
221.307
208.099
195.424
185.309
175.981
168.525
161.719
156.17
151.058
146.69
142.524
138.696
134.889
131.169
127.414
123.656
119.922
116.199
112.615
109.078
105.788
102.546
99.6179
96.6729
94.0603
91.3114
88.883
86.1722
83.7573
80.9214
78.3565
75.2753
72.4975
69.34
37.4896
37.5551
37.7752
38.2696
39.2714
41.2138
44.7742
50.6724
59.216
69.8908
81.3531
91.9103
100.177
105.542
108.146
108.678
107.974
106.854
105.86
105.353
105.404
106.065
107.233
108.953
111.104
113.798
116.881
120.554
124.602
129.357
134.499
140.552
147.02
154.734
162.907
172.854
183.326
196.427
210.179
228.006
246.779
271.966
298.342
334.031
369.769
416.217
457.794
506.498
543.722
572.964
584.961
521.157
445.727
291.178
218.563
204.536
230.244
257.177
284.844
292.933
294.42
282.836
270.168
252.699
237.435
221.299
208.089
195.414
185.298
175.969
168.514
161.71
156.162
151.052
146.686
142.522
138.695
134.889
131.17
127.414
123.657
119.923
116.2
112.616
109.079
105.79
102.548
99.6209
96.6774
94.0666
91.3199
88.8939
86.1854
83.7734
80.9397
78.3775
75.2981
72.5223
69.3653
37.4905
37.5571
37.7788
38.2756
39.2815
41.2306
44.7999
50.7054
59.2493
69.9136
81.3575
91.8959
100.15
105.509
108.112
108.646
107.943
106.822
105.828
105.323
105.376
106.04
107.21
108.933
111.086
113.781
116.865
120.538
124.588
129.343
134.484
140.537
147.006
154.718
162.891
172.837
183.307
196.405
210.153
227.977
246.745
271.929
298.303
333.993
369.736
416.194
457.78
506.5
543.736
573.024
585.077
521.352
446.071
291.529
218.891
204.836
230.484
257.346
284.955
293.001
294.458
282.854
270.173
252.695
237.428
221.29
208.08
195.402
185.285
175.956
168.502
161.7
156.154
151.046
146.682
142.519
138.694
134.888
131.17
127.415
123.658
119.924
116.201
112.616
109.08
105.791
102.55
99.6238
96.6818
94.0729
91.3282
88.9048
86.1988
83.7896
80.9584
78.3988
75.3214
72.5477
69.3913
37.4915
37.5593
37.7825
38.2818
39.2919
41.248
44.8264
50.7395
59.2835
69.9371
81.3621
91.8812
100.122
105.476
108.078
108.612
107.91
106.789
105.796
105.292
105.347
106.014
107.187
108.912
111.066
113.763
116.848
120.523
124.572
129.327
134.469
140.522
146.99
154.702
162.874
172.819
183.287
196.381
210.126
227.946
246.709
271.889
298.261
333.954
369.701
416.17
457.764
506.502
543.748
573.085
585.197
521.553
446.427
291.892
219.232
205.148
230.732
257.522
285.07
293.071
294.499
282.873
270.177
252.692
237.42
221.281
208.069
195.39
185.272
175.943
168.489
161.689
156.145
151.039
146.677
142.516
138.692
134.887
131.169
127.415
123.658
119.925
116.202
112.617
109.08
105.792
102.552
99.6266
96.686
94.0791
91.3366
88.9157
86.2123
83.806
80.9773
78.4205
75.3452
72.5737
69.4179
37.4924
37.5615
37.7863
38.2881
39.3027
41.266
44.8537
50.7746
59.3188
69.9613
81.3668
91.866
100.093
105.441
108.043
108.578
107.875
106.755
105.762
105.26
105.317
105.987
107.162
108.89
111.046
113.745
116.831
120.506
124.556
129.312
134.453
140.506
146.974
154.685
162.856
172.8
183.265
196.357
210.098
227.913
246.672
271.849
298.218
333.913
369.665
416.144
457.747
506.503
543.76
573.148
585.32
521.761
446.795
292.268
219.584
205.47
230.988
257.705
285.189
293.145
294.54
282.893
270.182
252.688
237.413
221.272
208.058
195.378
185.258
175.929
168.476
161.678
156.136
151.032
146.672
142.512
138.689
134.886
131.169
127.416
123.659
119.925
116.202
112.618
109.081
105.793
102.553
99.6291
96.6901
94.0851
91.3449
88.9267
86.2258
83.8225
80.9965
78.4426
75.3695
72.6003
69.4453
37.4935
37.5638
37.7902
38.2947
39.3138
41.2845
44.8818
50.8107
59.3551
69.9862
81.3717
91.8503
100.063
105.405
108.006
108.542
107.84
106.719
105.727
105.226
105.286
105.959
107.137
108.867
111.026
113.725
116.813
120.489
124.54
129.295
134.437
140.489
146.957
154.668
162.838
172.78
183.243
196.332
210.069
227.879
246.634
271.806
298.174
333.87
369.626
416.117
457.729
506.503
543.772
573.212
585.447
521.976
447.174
292.657
219.949
205.804
231.254
257.894
285.313
293.221
294.584
282.914
270.187
252.685
237.405
221.262
208.047
195.365
185.244
175.914
168.463
161.666
156.126
151.025
146.667
142.508
138.687
134.885
131.169
127.416
123.659
119.926
116.203
112.618
109.081
105.793
102.554
99.6316
96.6941
94.0911
91.3532
88.9377
86.2395
83.8393
81.0159
78.4651
75.3942
72.6275
69.4734
37.4945
37.5661
37.7943
38.3014
39.3253
41.3035
44.9108
50.8479
59.3925
70.0119
81.3768
91.8343
100.033
105.368
107.969
108.505
107.804
106.683
105.691
105.192
105.254
105.93
107.111
108.843
111.004
113.706
116.794
120.471
124.522
129.278
134.42
140.472
146.939
154.649
162.819
172.759
183.22
196.306
210.039
227.844
246.594
271.762
298.128
333.825
369.587
416.088
457.709
506.502
543.783
573.276
585.577
522.197
447.567
293.06
220.327
206.149
231.528
258.089
285.442
293.3
294.629
282.936
270.193
252.681
237.396
221.252
208.035
195.351
185.229
175.899
168.448
161.653
156.116
151.017
146.661
142.504
138.684
134.883
131.168
127.415
123.659
119.926
116.203
112.618
109.081
105.794
102.556
99.6338
96.6979
94.0971
91.3614
88.9487
86.2532
83.8562
81.0356
78.488
75.4195
72.6554
69.5021
37.4956
37.5686
37.7984
38.3084
39.337
41.3231
44.9406
50.8861
59.4308
70.0382
81.382
91.8178
100.001
105.33
107.93
108.467
107.766
106.645
105.654
105.156
105.221
105.9
107.084
108.819
110.982
113.685
116.775
120.452
124.504
129.26
134.402
140.454
146.921
154.63
162.798
172.737
183.196
196.278
210.007
227.808
246.552
271.717
298.08
333.779
369.545
416.058
457.689
506.501
543.793
573.342
585.711
522.425
447.971
293.475
220.717
206.506
231.812
258.291
285.575
293.383
294.676
282.958
270.199
252.677
237.388
221.241
208.022
195.337
185.214
175.884
168.434
161.64
156.105
151.009
146.655
142.5
138.681
134.881
131.167
127.415
123.659
119.926
116.203
112.618
109.081
105.794
102.557
99.636
96.7017
94.1029
91.3696
88.9597
86.267
83.8733
81.0556
78.5112
75.4453
72.6838
69.5316
37.4967
37.5711
37.8027
38.3155
39.3492
41.3433
44.9712
50.9253
59.4702
70.0652
81.3873
91.8008
99.969
105.292
107.89
108.428
107.728
106.607
105.616
105.12
105.187
105.869
107.056