/*--------------------------------*- C++ -*----------------------------------*\
| =========                 |                                                 |
| \\      /  F ield         | OpenFOAM: The Open Source CFD Toolbox           |
|  \\    /   O peration     | Version:  2412                                  |
|   \\  /    A nd           | Website:  www.openfoam.com                      |
|    \\/     M anipulation  |                                                 |
\*---------------------------------------------------------------------------*/
FoamFile
{
    version     2.0;
    format      ascii;
    arch        "LSB;label=32;scalar=64";
    class       volScalarField;
    location    "1";
    object      nut;
}
// * * * * * * * * * * * * * * * * * * * * * * * * * * * * * * * * * * * * * //

dimensions      [0 2 -1 0 0 0 0];

internalField   nonuniform List<scalar> 
13068
(
0.335596
0.336349
0.338268
0.342461
0.350944
0.366561
0.391171
0.421928
0.451004
0.471404
0.480496
0.478741
0.468284
0.452299
0.434179
0.416955
0.402777
0.392918
0.387612
0.386422
0.38829
0.392207
0.397105
0.402453
0.407681
0.412817
0.417565
0.422273
0.426627
0.431163
0.435389
0.440045
0.444367
0.449404
0.454013
0.459691
0.464745
0.471301
0.476923
0.484592
0.490811
0.499469
0.505586
0.513955
0.518099
0.523935
0.524202
0.526088
0.523411
0.518308
0.507509
0.459551
0.406649
0.296888
0.243815
0.259997
0.353216
0.428943
0.460989
0.456235
0.444138
0.425382
0.41127
0.397204
0.388645
0.381185
0.377988
0.375491
0.375505
0.375371
0.37632
0.376675
0.377344
0.377269
0.377025
0.375965
0.374483
0.372312
0.369797
0.366985
0.364142
0.361473
0.35905
0.357112
0.355457
0.354337
0.353257
0.352562
0.351502
0.350631
0.348974
0.34738
0.344647
0.341949
0.337857
0.333857
0.328358
0.323265
0.317471
0.335596
0.33635
0.338269
0.342462
0.350947
0.366564
0.391174
0.42193
0.451005
0.471404
0.480497
0.478745
0.46829
0.452307
0.434188
0.416963
0.402783
0.392923
0.387614
0.386424
0.388292
0.392209
0.397107
0.402456
0.407684
0.412821
0.417569
0.422277
0.426631
0.431168
0.435395
0.440051
0.444373
0.449411
0.45402
0.459698
0.464751
0.471307
0.476929
0.484597
0.490817
0.499476
0.505594
0.513964
0.51811
0.523946
0.524212
0.526095
0.523414
0.51831
0.507512
0.459561
0.406674
0.296915
0.243841
0.260037
0.353281
0.429009
0.46104
0.456272
0.444163
0.425398
0.41128
0.397212
0.388652
0.381192
0.377992
0.375493
0.375505
0.375372
0.376322
0.376677
0.377346
0.377271
0.377027
0.375967
0.374484
0.372312
0.369797
0.366985
0.364143
0.361474
0.359051
0.357114
0.35546
0.354341
0.353263
0.352569
0.35151
0.350641
0.348983
0.347389
0.344654
0.341953
0.337857
0.333851
0.328345
0.323244
0.317441
0.335597
0.33635
0.33827
0.342465
0.350952
0.366571
0.391181
0.421935
0.451007
0.471404
0.480496
0.478744
0.468292
0.452311
0.434193
0.416967
0.402787
0.392925
0.387615
0.386425
0.388293
0.39221
0.397109
0.402459
0.407688
0.412825
0.417573
0.422281
0.426636
0.431173
0.4354
0.440057
0.44438
0.449418
0.454028
0.459705
0.464757
0.471312
0.476934
0.484602
0.490822
0.499482
0.505602
0.513974
0.518121
0.523957
0.524222
0.526103
0.523418
0.518314
0.507517
0.459575
0.406707
0.296951
0.243878
0.260083
0.353343
0.429067
0.461086
0.456306
0.444186
0.425412
0.411289
0.397219
0.388659
0.381198
0.377996
0.375494
0.375505
0.375372
0.376323
0.376679
0.377348
0.377274
0.377029
0.375969
0.374485
0.372313
0.369798
0.366986
0.364144
0.361475
0.359053
0.357116
0.355463
0.354345
0.353269
0.352577
0.35152
0.350651
0.348994
0.347399
0.344662
0.341958
0.337858
0.333846
0.328333
0.323225
0.317414
0.335597
0.336352
0.338273
0.34247
0.350959
0.366581
0.391193
0.421945
0.451012
0.471403
0.480491
0.478738
0.468287
0.452309
0.434193
0.416968
0.402787
0.392924
0.387615
0.386424
0.388293
0.392212
0.397112
0.402463
0.407692
0.412829
0.417578
0.422286
0.426641
0.431178
0.435405
0.440063
0.444386
0.449424
0.454034
0.459711
0.464763
0.471317
0.476938
0.484607
0.490827
0.499489
0.50561
0.513984
0.518132
0.523968
0.524232
0.52611
0.523422
0.518318
0.507524
0.459592
0.406746
0.296997
0.243925
0.260137
0.353403
0.429118
0.461126
0.456336
0.444207
0.425425
0.411296
0.397226
0.388666
0.381204
0.378
0.375495
0.375505
0.375372
0.376324
0.376682
0.377351
0.377277
0.377032
0.375971
0.374487
0.372314
0.369798
0.366986
0.364145
0.361476
0.359055
0.357119
0.355467
0.35435
0.353275
0.352585
0.351529
0.350662
0.349005
0.34741
0.344671
0.341964
0.33786
0.333844
0.328324
0.323208
0.317389
0.335598
0.336353
0.338276
0.342475
0.350968
0.366596
0.391211
0.42196
0.451019
0.471401
0.480483
0.478728
0.468278
0.452302
0.434188
0.416964
0.402783
0.392921
0.387612
0.386423
0.388293
0.392214
0.397115
0.402467
0.407696
0.412834
0.417582
0.422291
0.426646
0.431183
0.435411
0.440068
0.444392
0.449431
0.454041
0.459717
0.464768
0.471321
0.476942
0.48461
0.490832
0.499494
0.505617
0.513992
0.518142
0.523979
0.524242
0.526117
0.523425
0.518324
0.507533
0.459613
0.406791
0.297051
0.243982
0.260199
0.35346
0.429163
0.461161
0.456362
0.444225
0.425435
0.411303
0.397232
0.388672
0.38121
0.378004
0.375496
0.375505
0.375372
0.376325
0.376684
0.377354
0.37728
0.377035
0.375973
0.374489
0.372316
0.3698
0.366987
0.364145
0.361477
0.359056
0.357121
0.35547
0.354354
0.353281
0.352593
0.351539
0.350673
0.349016
0.347421
0.344681
0.341972
0.337864
0.333843
0.328317
0.323194
0.317366
0.335599
0.336355
0.33828
0.342483
0.350981
0.366615
0.391233
0.421979
0.451028
0.471398
0.48047
0.478711
0.468262
0.452288
0.434178
0.416956
0.402776
0.392914
0.387606
0.38642
0.388293
0.392216
0.397119
0.402471
0.407701
0.412839
0.417587
0.422296
0.426651
0.431188
0.435415
0.440073
0.444397
0.449436
0.454046
0.459722
0.464773
0.471325
0.476945
0.484613
0.490836
0.499499
0.505623
0.514001
0.518152
0.523989
0.524251
0.526123
0.523429
0.518329
0.507544
0.459636
0.406844
0.297113
0.244049
0.260268
0.353517
0.429202
0.461191
0.456385
0.44424
0.425444
0.411308
0.397236
0.388678
0.381216
0.378008
0.375498
0.375505
0.375372
0.376326
0.376687
0.377358
0.377284
0.377038
0.375977
0.374491
0.372318
0.369801
0.366988
0.364147
0.361478
0.359058
0.357123
0.355473
0.354359
0.353287
0.352601
0.351549
0.350684
0.349029
0.347434
0.344693
0.341981
0.33787
0.333844
0.328312
0.323182
0.317346
0.3356
0.336358
0.338284
0.342491
0.350995
0.366637
0.391261
0.422002
0.451038
0.471394
0.480455
0.47869
0.46824
0.452269
0.434162
0.416943
0.402764
0.392905
0.387599
0.386415
0.388291
0.392217
0.397122
0.402476
0.407706
0.412844
0.417592
0.4223
0.426655
0.431192
0.43542
0.440078
0.444402
0.449442
0.454051
0.459727
0.464776
0.471328
0.476947
0.484616
0.490838
0.499503
0.505629
0.514009
0.518161
0.523999
0.524259
0.526129
0.523431
0.518336
0.507555
0.459663
0.406903
0.297184
0.244125
0.260345
0.353571
0.429234
0.461215
0.456403
0.444252
0.425451
0.411312
0.39724
0.388683
0.381221
0.378011
0.375499
0.375504
0.375372
0.376328
0.376689
0.377361
0.377288
0.377042
0.37598
0.374494
0.37232
0.369803
0.36699
0.364148
0.361479
0.359059
0.357125
0.355476
0.354363
0.353293
0.352609
0.351559
0.350696
0.349042
0.347447
0.344705
0.341991
0.337877
0.333846
0.328309
0.323172
0.317329
0.335601
0.336361
0.33829
0.342501
0.351013
0.366664
0.391293
0.42203
0.451051
0.471389
0.480435
0.478663
0.468212
0.452244
0.434141
0.416925
0.402749
0.392892
0.38759
0.38641
0.38829
0.392219
0.397126
0.402481
0.407711
0.412849
0.417597
0.422305
0.426659
0.431196
0.435424
0.440083
0.444407
0.449446
0.454056
0.459731
0.46478
0.47133
0.476949
0.484617
0.490841
0.499507
0.505635
0.514016
0.51817
0.524008
0.524267
0.526134
0.523434
0.518343
0.507569
0.459692
0.406968
0.297264
0.244211
0.260429
0.353624
0.429261
0.461234
0.456419
0.444262
0.425456
0.411314
0.397243
0.388688
0.381227
0.378015
0.3755
0.375504
0.375372
0.376329
0.376692
0.377365
0.377292
0.377046
0.375984
0.374497
0.372322
0.369805
0.366991
0.364149
0.361481
0.359061
0.357127
0.355479
0.354368
0.3533
0.352618
0.35157
0.350709
0.349056
0.347461
0.344718
0.342003
0.337885
0.33385
0.328308
0.323164
0.317314
0.335602
0.336364
0.338296
0.342512
0.351033
0.366695
0.391331
0.422063
0.451066
0.471383
0.480412
0.47863
0.468178
0.452213
0.434114
0.416902
0.40273
0.392876
0.387578
0.386403
0.388287
0.39222
0.39713
0.402486
0.407717
0.412855
0.417602
0.422309
0.426664
0.4312
0.435428
0.440086
0.444411
0.449451
0.45406
0.459734
0.464782
0.471331
0.476949
0.484618
0.490842
0.49951
0.505639
0.514023
0.518179
0.524017
0.524274
0.526139
0.523437
0.51835
0.507584
0.459725
0.40704
0.297352
0.244307
0.260522
0.353676
0.429281
0.461249
0.45643
0.44427
0.425458
0.411315
0.397246
0.388693
0.381232
0.378018
0.375501
0.375504
0.375373
0.376331
0.376696
0.37737
0.377297
0.377051
0.375988
0.374501
0.372325
0.369807
0.366993
0.36415
0.361482
0.359062
0.357129
0.355482
0.354372
0.353306
0.352627
0.351581
0.350722
0.34907
0.347476
0.344732
0.342015
0.337895
0.333856
0.328309
0.323159
0.317302
0.335603
0.336367
0.338303
0.342525
0.351055
0.36673
0.391374
0.4221
0.451083
0.471376
0.480385
0.478593
0.468138
0.452176
0.434082
0.416874
0.402706
0.392857
0.387564
0.386394
0.388285
0.392222
0.397134
0.402492
0.407723
0.412861
0.417607
0.422314
0.426668
0.431204
0.435431
0.44009
0.444415
0.449454
0.454063
0.459737
0.464783
0.471331
0.476949
0.484617
0.490842
0.499512
0.505643
0.514029
0.518186
0.524025
0.52428
0.526144
0.523439
0.518358
0.5076
0.45976
0.407118
0.297449
0.244413
0.260622
0.353727
0.429296
0.461258
0.456438
0.444274
0.425459
0.411314
0.397247
0.388697
0.381237
0.378021
0.375502
0.375503
0.375373
0.376333
0.376699
0.377374
0.377302
0.377056
0.375993
0.374505
0.372328
0.369809
0.366995
0.364152
0.361483
0.359064
0.357131
0.355485
0.354377
0.353313
0.352636
0.351592
0.350736
0.349085
0.347491
0.344747
0.342029
0.337906
0.333864
0.328312
0.323156
0.317292
0.335605
0.336371
0.33831
0.342539
0.35108
0.366769
0.391423
0.422141
0.451102
0.471367
0.480355
0.478549
0.468091
0.452133
0.434044
0.416842
0.402679
0.392835
0.387548
0.386385
0.388281
0.392223
0.397139
0.402498
0.407729
0.412866
0.417612
0.422318
0.426671
0.431207
0.435435
0.440093
0.444418
0.449457
0.454066
0.459739
0.464784
0.471331
0.476948
0.484616
0.490842
0.499513
0.505646
0.514035
0.518194
0.524033
0.524286
0.526148
0.52344
0.518366
0.507618
0.459798
0.407203
0.297555
0.244529
0.26073
0.353776
0.429304
0.461262
0.456442
0.444276
0.425458
0.411313
0.397248
0.3887
0.381242
0.378025
0.375502
0.375503
0.375373
0.376334
0.376703
0.377379
0.377307
0.377062
0.375998
0.374509
0.372332
0.369812
0.366997
0.364154
0.361485
0.359065
0.357133
0.355487
0.354381
0.35332
0.352645
0.351604
0.35075
0.3491
0.347508
0.344764
0.342044
0.337919
0.333874
0.328317
0.323155
0.317284
0.335606
0.336375
0.338318
0.342554
0.351108
0.366812
0.391476
0.422187
0.451123
0.471358
0.48032
0.478501
0.468039
0.452084
0.434001
0.416805
0.402648
0.392809
0.387529
0.386374
0.388277
0.392224
0.397144
0.402504
0.407736
0.412872
0.417618
0.422323
0.426675
0.431211
0.435438
0.440096
0.444421
0.44946
0.454068
0.45974
0.464785
0.47133
0.476946
0.484615
0.490841
0.499513
0.505649
0.51404
0.5182
0.52404
0.524292
0.526151
0.523442
0.518375
0.507637
0.45984
0.407294
0.29767
0.244654
0.260845
0.353824
0.429307
0.461261
0.456442
0.444275
0.425455
0.41131
0.397247
0.388703
0.381246
0.378028
0.375503
0.375502
0.375373
0.376336
0.376706
0.377384
0.377313
0.377068
0.376003
0.374513
0.372336
0.369815
0.366999
0.364155
0.361486
0.359066
0.357134
0.35549
0.354386
0.353326
0.352654
0.351616
0.350764
0.349117
0.347525
0.344781
0.342061
0.337934
0.333885
0.328323
0.323157
0.31728
0.335608
0.33638
0.338327
0.342571
0.351138
0.366859
0.391534
0.422237
0.451145
0.471347
0.480282
0.478447
0.467981
0.452029
0.433953
0.416763
0.402612
0.392781
0.387508
0.386361
0.388272
0.392226
0.397148
0.40251
0.407743
0.412879
0.417623
0.422327
0.426679
0.431214
0.43544
0.440098
0.444423
0.449462
0.45407
0.459741
0.464784
0.471328
0.476944
0.484612
0.490839
0.499513
0.505651
0.514044
0.518206
0.524047
0.524296
0.526154
0.523443
0.518385
0.507658
0.459885
0.407392
0.297793
0.244789
0.260968
0.353871
0.429304
0.461254
0.456439
0.444272
0.42545
0.411305
0.397246
0.388706
0.38125
0.378031
0.375504
0.375501
0.375373
0.376338
0.37671
0.37739
0.377319
0.377074
0.376009
0.374518
0.37234
0.369818
0.367002
0.364157
0.361487
0.359068
0.357136
0.355493
0.35439
0.353333
0.352664
0.351629
0.350779
0.349134
0.347543
0.344799
0.342079
0.337949
0.333898
0.328332
0.32316
0.317277
0.33561
0.336385
0.338337
0.342589
0.351171
0.366911
0.391598
0.422292
0.45117
0.471336
0.48024
0.478387
0.467916
0.451968
0.433899
0.416717
0.402573
0.392749
0.387485
0.386347
0.388267
0.392227
0.397154
0.402517
0.40775
0.412885
0.417628
0.422331
0.426682
0.431216
0.435442
0.4401
0.444425
0.449464
0.454071
0.459741
0.464783
0.471326
0.47694
0.484608
0.490836
0.499512
0.505652
0.514048
0.518212
0.524053
0.524301
0.526157
0.523444
0.518395
0.507681
0.459932
0.407497
0.297925
0.244934
0.261099
0.353917
0.429295
0.461243
0.456432
0.444265
0.425443
0.411299
0.397244
0.388708
0.381254
0.378033
0.375504
0.375501
0.375373
0.37634
0.376714
0.377395
0.377326
0.37708
0.376015
0.374523
0.372344
0.369821
0.367004
0.364159
0.361489
0.359069
0.357138
0.355496
0.354395
0.35334
0.352674
0.351641
0.350795
0.349151
0.347562
0.344819
0.342097
0.337966
0.333912
0.328343
0.323167
0.317277
0.335612
0.33639
0.338347
0.342609
0.351206
0.366966
0.391666
0.422351
0.451197
0.471323
0.480195
0.478322
0.467846
0.451901
0.433839
0.416666
0.40253
0.392714
0.38746
0.386332
0.388261
0.392228
0.397159
0.402524
0.407757
0.412891
0.417634
0.422335
0.426685
0.431219
0.435444
0.440102
0.444426
0.449465
0.454072
0.45974
0.464781
0.471323
0.476936
0.484604
0.490833
0.499511
0.505653
0.514052
0.518217
0.524059
0.524304
0.526159
0.523445
0.518406
0.507705
0.459983
0.407608
0.298065
0.24509
0.261238
0.353961
0.42928
0.461227
0.456421
0.444257
0.425434
0.411292
0.397241
0.388709
0.381258
0.378036
0.375505
0.3755
0.375373
0.376342
0.376719
0.377401
0.377333
0.377087
0.376021
0.374529
0.372349
0.369825
0.367007
0.364161
0.36149
0.35907
0.357139
0.355499
0.354399
0.353347
0.352684
0.351655
0.350811
0.34917
0.347582
0.344839
0.342118
0.337985
0.333929
0.328356
0.323175
0.31728
0.335614
0.336396
0.338359
0.34263
0.351244
0.367025
0.39174
0.422414
0.451225
0.471309
0.480145
0.478252
0.467769
0.451828
0.433775
0.41661
0.402482
0.392676
0.387432
0.386315
0.388254
0.392229
0.397164
0.402532
0.407764
0.412898
0.417639
0.42234
0.426688
0.431221
0.435446
0.440103
0.444427
0.449465
0.454072
0.459739
0.464778
0.471319
0.476931
0.484599
0.490829
0.499508
0.505653
0.514054
0.518222
0.524064
0.524307
0.52616
0.523445
0.518417
0.507731
0.460037
0.407726
0.298215
0.245255
0.261385
0.354004
0.429259
0.461205
0.456406
0.444245
0.425423
0.411283
0.397237
0.38871
0.381261
0.378039
0.375505
0.375499
0.375373
0.376344
0.376723
0.377407
0.37734
0.377095
0.376028
0.374535
0.372354
0.369829
0.36701
0.364163
0.361492
0.359071
0.357141
0.355501
0.354404
0.353354
0.352694
0.351668
0.350827
0.349188
0.347603
0.34486
0.342139
0.338005
0.333947
0.328371
0.323186
0.317285
0.335617
0.336402
0.338371
0.342653
0.351284
0.367089
0.391818
0.422482
0.451256
0.471294
0.480092
0.478176
0.467686
0.451749
0.433704
0.416549
0.402431
0.392634
0.387402
0.386297
0.388247
0.392229
0.39717
0.40254
0.407772
0.412905
0.417645
0.422344
0.426691
0.431223
0.435447
0.440104
0.444428
0.449465
0.454071
0.459737
0.464775
0.471314
0.476925
0.484593
0.490824
0.499505
0.505652
0.514057
0.518226
0.524069
0.52431
0.526162
0.523446
0.518429
0.507758
0.460094
0.407851
0.298373
0.24543
0.26154
0.354047
0.429232
0.461178
0.456388
0.444231
0.42541
0.411273
0.397232
0.388711
0.381264
0.378041
0.375505
0.375498
0.375373
0.376346
0.376728
0.377414
0.377348
0.377102
0.376035
0.374541
0.372359
0.369833
0.367013
0.364165
0.361493
0.359072
0.357143
0.355504
0.354408
0.353362
0.352705
0.351682
0.350844
0.349208
0.347624
0.344883
0.342161
0.338027
0.333966
0.328388
0.323199
0.317292
0.335619
0.336408
0.338383
0.342676
0.351327
0.367156
0.391902
0.422553
0.451288
0.471277
0.480035
0.478095
0.467598
0.451665
0.433629
0.416483
0.402375
0.39259
0.38737
0.386278
0.388239
0.39223
0.397176
0.402548
0.40778
0.412912
0.41765
0.422348
0.426694
0.431224
0.435448
0.440104
0.444428
0.449465
0.45407
0.459735
0.464771
0.471308
0.476919
0.484586
0.490818
0.499501
0.505651
0.514058
0.518229
0.524073
0.524312
0.526162
0.523445
0.518442
0.507787
0.460154
0.407982
0.298541
0.245615
0.261702
0.354088
0.4292
0.461147
0.456366
0.444213
0.425395
0.411261
0.397226
0.38871
0.381267
0.378043
0.375505
0.375497
0.375372
0.376348
0.376733
0.377421
0.377355
0.37711
0.376043
0.374548
0.372364
0.369838
0.367016
0.364167
0.361494
0.359074
0.357144
0.355506
0.354413
0.353369
0.352715
0.351696
0.350862
0.349228
0.347647
0.344906
0.342185
0.33805
0.333988
0.328406
0.323214
0.317302
0.335622
0.336415
0.338396
0.342702
0.351372
0.367228
0.391991
0.42263
0.451322
0.47126
0.479975
0.478008
0.467503
0.451574
0.433547
0.416413
0.402316
0.392542
0.387335
0.386257
0.38823
0.392231
0.397182
0.402556
0.407789
0.412919
0.417656
0.422351
0.426696
0.431226
0.435448
0.440104
0.444427
0.449464
0.454068
0.459731
0.464766
0.471302
0.476911
0.484579
0.490811
0.499497
0.505649
0.51406
0.518233
0.524077
0.524313
0.526163
0.523445
0.518455
0.507817
0.460217
0.40812
0.298717
0.24581
0.261872
0.354128
0.429162
0.461109
0.45634
0.444193
0.425377
0.411248
0.397219
0.38871
0.38127
0.378045
0.375505
0.375495
0.375372
0.376351
0.376737
0.377428
0.377363
0.377118
0.37605
0.374555
0.37237
0.369842
0.36702
0.364169
0.361496
0.359075
0.357145
0.355509
0.354418
0.353377
0.352726
0.351711
0.35088
0.349249
0.34767
0.34493
0.34221
0.338074
0.334011
0.328427
0.323232
0.317315
0.335625
0.336422
0.338411
0.342728
0.35142
0.367303
0.392084
0.42271
0.451358
0.471241
0.47991
0.477916
0.467402
0.451477
0.433461
0.416337
0.402252
0.392491
0.387298
0.386234
0.388221
0.392231
0.397188
0.402565
0.407797
0.412927
0.417661
0.422355
0.426698
0.431227
0.435449
0.440103
0.444426
0.449462
0.454065
0.459728
0.464761
0.471295
0.476903
0.484571
0.490804
0.499492
0.505647
0.51406
0.518235
0.524081
0.524314
0.526162
0.523444
0.518468
0.507849
0.460283
0.408265
0.298903
0.246016
0.26205
0.354166
0.429117
0.461067
0.45631
0.44417
0.425358
0.411233
0.397211
0.388708
0.381272
0.378047
0.375505
0.375494
0.375372
0.376353
0.376742
0.377435
0.377372
0.377127
0.376059
0.374562
0.372376
0.369847
0.367023
0.364172
0.361497
0.359076
0.357147
0.355511
0.354422
0.353384
0.352738
0.351726
0.350898
0.34927
0.347694
0.344956
0.342236
0.3381
0.334036
0.32845
0.323252
0.31733
0.335628
0.336429
0.338425
0.342756
0.35147
0.367383
0.392182
0.422794
0.451395
0.471221
0.479842
0.477819
0.467295
0.451374
0.433368
0.416257
0.402184
0.392437
0.387259
0.38621
0.388211
0.392231
0.397195
0.402574
0.407806
0.412934
0.417667
0.422359
0.426701
0.431227
0.435448
0.440103
0.444425
0.44946
0.454062
0.459723
0.464754
0.471287
0.476894
0.484562
0.490796
0.499486
0.505643
0.514061
0.518237
0.524083
0.524314
0.526162
0.523444
0.518483
0.507882
0.460353
0.408417
0.299098
0.246232
0.262236
0.354204
0.429067
0.46102
0.456277
0.444145
0.425336
0.411217
0.397202
0.388706
0.381273
0.378048
0.375504
0.375493
0.375372
0.376355
0.376748
0.377442
0.377381
0.377136
0.376067
0.37457
0.372383
0.369852
0.367027
0.364174
0.361499
0.359077
0.357148
0.355514
0.354427
0.353392
0.352749
0.351741
0.350917
0.349292
0.347718
0.344982
0.342264
0.338127
0.334063
0.328475
0.323274
0.317347
0.335631
0.336437
0.338441
0.342786
0.351523
0.367466
0.392286
0.422883
0.451435
0.4712
0.47977
0.477716
0.467182
0.451266
0.433271
0.416172
0.402112
0.392379
0.387217
0.386185
0.3882
0.392231
0.397201
0.402583
0.407816
0.412942
0.417673
0.422363
0.426703
0.431228
0.435448
0.440101
0.444423
0.449457
0.454059
0.459718
0.464748
0.471278
0.476884
0.484552
0.490787
0.499479
0.50564
0.51406
0.518239
0.524086
0.524314
0.526161
0.523443
0.518498
0.507918
0.460426
0.408575
0.299302
0.246458
0.26243
0.35424
0.429011
0.460967
0.456239
0.444116
0.425313
0.411199
0.397192
0.388703
0.381274
0.378049
0.375504
0.375491
0.375371
0.376357
0.376753
0.37745
0.37739
0.377145
0.376076
0.374578
0.372389
0.369858
0.367031
0.364177
0.3615
0.359077
0.357149
0.355516
0.354431
0.3534
0.352761
0.351756
0.350937
0.349315
0.347744
0.345009
0.342293
0.338156
0.334091
0.328501
0.323298
0.317367
0.335634
0.336445
0.338457
0.342817
0.351579
0.367553
0.392394
0.422976
0.451475
0.471177
0.479694
0.477608
0.467063
0.451151
0.433168
0.416082
0.402036
0.392318
0.387173
0.386158
0.388188
0.392231
0.397208
0.402592
0.407825
0.41295
0.417678
0.422366
0.426704
0.431228
0.435447
0.4401
0.444421
0.449454
0.454054
0.459712
0.46474
0.471269
0.476874
0.484541
0.490777
0.499472
0.505635
0.514059
0.51824
0.524088
0.524313
0.526159
0.523441
0.518513
0.507955
0.460502
0.408741
0.299515
0.246694
0.262632
0.354276
0.428949
0.460908
0.456197
0.444084
0.425287
0.411179
0.39718
0.3887
0.381275
0.37805
0.375503
0.375489
0.375371
0.376359
0.376758
0.377458
0.377399
0.377155
0.376085
0.374586
0.372396
0.369863
0.367035
0.364179
0.361501
0.359078
0.35715
0.355519
0.354436
0.353408
0.352772
0.351772
0.350957
0.349339
0.34777
0.345038
0.342323
0.338187
0.334122
0.32853
0.323325
0.31739
0.335637
0.336454
0.338474
0.342849
0.351637
0.367645
0.392507
0.423073
0.451518
0.471153
0.479614
0.477494
0.466938
0.45103
0.433059
0.415988
0.401956
0.392254
0.387126
0.386129
0.388176
0.392231
0.397215
0.402602
0.407835
0.412958
0.417684
0.42237
0.426706
0.431228
0.435446
0.440098
0.444418
0.449451
0.45405
0.459706
0.464732
0.471259
0.476862
0.48453
0.490766
0.499464
0.50563
0.514058
0.518241
0.524089
0.524311
0.526157
0.52344
0.518529
0.507993
0.460581
0.408913
0.299737
0.246941
0.262841
0.35431
0.428881
0.460845
0.456151
0.44405
0.425258
0.411158
0.397168
0.388696
0.381276
0.378051
0.375502
0.375487
0.37537
0.376362
0.376764
0.377466
0.377408
0.377165
0.376095
0.374594
0.372404
0.369869
0.367039
0.364182
0.361503
0.359079
0.357151
0.355521
0.354441
0.353416
0.352784
0.351789
0.350977
0.349363
0.347797
0.345067
0.342354
0.338218
0.334153
0.328561
0.323354
0.317415
0.335641
0.336463
0.338492
0.342883
0.351698
0.36774
0.392625
0.423173
0.451562
0.471128
0.47953
0.477375
0.466806
0.450904
0.432945
0.415888
0.401872
0.392186
0.387077
0.386099
0.388163
0.392231
0.397222
0.402612
0.407844
0.412966
0.41769
0.422373
0.426707
0.431228
0.435445
0.440095
0.444414
0.449446
0.454044
0.459699
0.464723
0.471248
0.47685
0.484517
0.490755
0.499455
0.505625
0.514056
0.518241
0.52409
0.52431
0.526155
0.523438
0.518546
0.508033
0.460664
0.409093
0.299969
0.247198
0.263059
0.354342
0.428806
0.460775
0.456101
0.444012
0.425228
0.411135
0.397154
0.388691
0.381275
0.378051
0.375501
0.375485
0.375369
0.376364
0.376769
0.377474
0.377418
0.377175
0.376104
0.374603
0.372411
0.369875
0.367043
0.364185
0.361504
0.35908
0.357152
0.355523
0.354445
0.353424
0.352797
0.351805
0.350998
0.349387
0.347825
0.345097
0.342386
0.338251
0.334187
0.328594
0.323386
0.317442
0.335644
0.336472
0.33851
0.342918
0.351761
0.367839
0.392747
0.423278
0.451608
0.471102
0.479443
0.47725
0.466669
0.450771
0.432825
0.415784
0.401784
0.392115
0.387025
0.386068
0.388149
0.39223
0.397229
0.402622
0.407855
0.412974
0.417696
0.422377
0.426709
0.431228
0.435443
0.440092
0.444411
0.449442
0.454038
0.459691
0.464713
0.471237
0.476838
0.484504
0.490743
0.499446
0.505618
0.514054
0.518241
0.524091
0.524307
0.526152
0.523436
0.518564
0.508075
0.46075
0.40928
0.300211
0.247466
0.263284
0.354374
0.428726
0.460701
0.456047
0.443971
0.425195
0.411111
0.39714
0.388685
0.381275
0.378051
0.375499
0.375483
0.375368
0.376366
0.376775
0.377482
0.377428
0.377186
0.376115
0.374612
0.372419
0.369881
0.367048
0.364187
0.361506
0.359081
0.357153
0.355525
0.35445
0.353432
0.352809
0.351822
0.351019
0.349412
0.347854
0.345129
0.34242
0.338286
0.334222
0.328628
0.323419
0.317472
0.335648
0.336482
0.33853
0.342954
0.351826
0.367942
0.392875
0.423387
0.451655
0.471074
0.479352
0.47712
0.466526
0.450632
0.4327
0.415675
0.401691
0.392041
0.386971
0.386035
0.388135
0.392229
0.397236
0.402632
0.407865
0.412983
0.417702
0.42238
0.42671
0.431227
0.435441
0.440089
0.444407
0.449436
0.454032
0.459683
0.464703
0.471224
0.476824
0.484491
0.490731
0.499436
0.505611
0.514051
0.51824
0.524091
0.524304
0.526149
0.523434
0.518582
0.508119
0.46084
0.409473
0.300462
0.247744
0.263518
0.354405
0.428639
0.46062
0.455988
0.443927
0.425159
0.411084
0.397124
0.388679
0.381274
0.378051
0.375497
0.37548
0.375367
0.376368
0.37678
0.377491
0.377439
0.377196
0.376125
0.374622
0.372427
0.369887
0.367052
0.36419
0.361507
0.359081
0.357154
0.355527
0.354455
0.35344
0.352822
0.351839
0.351041
0.349438
0.347884
0.345161
0.342454
0.338322
0.334259
0.328665
0.323455
0.317505
0.335652
0.336492
0.33855
0.342992
0.351895
0.368049
0.393007
0.423499
0.451704
0.471045
0.479257
0.476984
0.466376
0.450488
0.432569
0.415561
0.401595
0.391963
0.386915
0.386
0.38812
0.392228
0.397243
0.402643
0.407876
0.412991
0.417708
0.422383
0.426711
0.431226
0.435438
0.440085
0.444402
0.449431
0.454025
0.459674
0.464692
0.471211
0.47681
0.484476
0.490717
0.499425
0.505604
0.514048
0.518239
0.524091
0.524301
0.526146
0.523432
0.518601
0.508164
0.460932
0.409674
0.300723
0.248033
0.263759
0.354434
0.428546
0.460534
0.455926
0.443879
0.425121
0.411056
0.397107
0.388671
0.381272
0.37805
0.375495
0.375478
0.375366
0.37637
0.376786
0.3775
0.377449
0.377208
0.376136
0.374631
0.372435
0.369894
0.367057
0.364193
0.361508
0.359082
0.357154
0.355529
0.354459
0.353448
0.352834
0.351857
0.351064
0.349465
0.347914
0.345194
0.34249
0.338359
0.334298
0.328704
0.323494
0.31754
0.335656
0.336503
0.33857
0.343032
0.351965
0.36816
0.393144
0.423616
0.451754
0.471014
0.479158
0.476843
0.466221
0.450337
0.432433
0.415442
0.401494
0.391882
0.386856
0.385964
0.388103
0.392227
0.397251
0.402654
0.407886
0.413
0.417714
0.422387
0.426712
0.431225
0.435436
0.440081
0.444397
0.449424
0.454017
0.459664
0.46468
0.471198
0.476794
0.484461
0.490703
0.499414
0.505596
0.514044
0.518237
0.52409
0.524297
0.526142
0.523429
0.51862
0.508211
0.461029
0.409882
0.300993
0.248333
0.264009
0.354461
0.428447
0.460442
0.455858
0.443828
0.425081
0.411026
0.397088
0.388663
0.38127
0.378049
0.375493
0.375475
0.375365
0.376372
0.376792
0.377508
0.37746
0.377219
0.376147
0.374641
0.372444
0.369901
0.367062
0.364196
0.36151
0.359082
0.357155
0.355531
0.354464
0.353457
0.352847
0.351875
0.351086
0.349492
0.347945
0.345228
0.342527
0.338398
0.334339
0.328744
0.323534
0.317577
0.33566
0.336513
0.338592
0.343072
0.352038
0.368275
0.393285
0.423736
0.451806
0.470982
0.479055
0.476697
0.466059
0.450181
0.432291
0.415318
0.401389
0.391798
0.386794
0.385926
0.388087
0.392226
0.397259
0.402665
0.407897
0.413009
0.41772
0.42239
0.426712
0.431223
0.435432
0.440077
0.444391
0.449417
0.454009
0.459654
0.464668
0.471183
0.476779
0.484445
0.490688
0.499402
0.505587
0.514039
0.518235
0.524089
0.524293
0.526137
0.523427
0.518641
0.50826
0.461128
0.410098
0.301273
0.248644
0.264266
0.354488
0.428341
0.460344
0.455786
0.443774
0.425038
0.410994
0.397068
0.388654
0.381267
0.378048
0.37549
0.375472
0.375363
0.376374
0.376798
0.377517
0.377471
0.37723
0.376158
0.374651
0.372453
0.369908
0.367067
0.364199
0.361511
0.359082
0.357155
0.355533
0.354469
0.353465
0.352861
0.351893
0.35111
0.34952
0.347977
0.345263
0.342566
0.338438
0.334381
0.328787
0.323577
0.317617
0.335665
0.336525
0.338614
0.343114
0.352114
0.368394
0.393431
0.42386
0.451859
0.470948
0.478948
0.476545
0.465891
0.450018
0.432144
0.415189
0.401279
0.39171
0.38673
0.385886
0.388069
0.392224
0.397266
0.402677
0.407909
0.413018
0.417726
0.422393
0.426713
0.431221
0.435429
0.440072
0.444385
0.44941
0.454
0.459643
0.464655
0.471168
0.476762
0.484428
0.490672
0.499389
0.505578
0.514035
0.518233
0.524088
0.524288
0.526133
0.523424
0.518662
0.50831
0.461232
0.41032
0.301564
0.248965
0.264531
0.354513
0.428229
0.460239
0.45571
0.443717
0.424993
0.41096
0.397047
0.388644
0.381263
0.378046
0.375487
0.375468
0.375362
0.376376
0.376804
0.377526
0.377482
0.377242
0.376169
0.374662
0.372462
0.369915
0.367072
0.364202
0.361512
0.359083
0.357156
0.355535
0.354473
0.353474
0.352874
0.351912
0.351133
0.349548
0.34801
0.3453
0.342605
0.33848
0.334425
0.328832
0.323622
0.31766
0.335669
0.336536
0.338637
0.343158
0.352192
0.368517
0.393582
0.423988
0.451913
0.470913
0.478837
0.476387
0.465717
0.449849
0.431991
0.415055
0.401166
0.391619
0.386664
0.385845
0.38805
0.392222
0.397274
0.402688
0.40792
0.413027
0.417732
0.422396
0.426713
0.431219
0.435425
0.440067
0.444379
0.449402
0.45399
0.459632
0.464641
0.471152
0.476744
0.484411
0.490656
0.499376
0.505568
0.514029
0.51823
0.524086
0.524283
0.526128
0.523421
0.518683
0.508363
0.461339
0.41055
0.301864
0.249297
0.264804
0.354536
0.428111
0.460129
0.455629
0.443655
0.424944
0.410925
0.397024
0.388632
0.381259
0.378043
0.375484
0.375465
0.37536
0.376378
0.376809
0.377536
0.377493
0.377254
0.376181
0.374673
0.372471
0.369922
0.367077
0.364205
0.361513
0.359083
0.357156
0.355537
0.354478
0.353483
0.352888
0.351931
0.351158
0.349577
0.348044
0.345337
0.342646
0.338523
0.33447
0.328878
0.32367
0.317705
0.335674
0.336548
0.338661
0.343203
0.352273
0.368643
0.393737
0.424119
0.451969
0.470877
0.478723
0.476224
0.465537
0.449675
0.431833
0.414917
0.401048
0.391524
0.386594
0.385802
0.388031
0.39222
0.397282
0.4027
0.407932
0.413036
0.417738
0.422398
0.426713
0.431217
0.435421
0.440061
0.444372
0.449394
0.45398
0.45962
0.464627
0.471135
0.476726
0.484392
0.490639
0.499362
0.505558
0.514024
0.518227
0.524084
0.524277
0.526122
0.523418
0.518706
0.508417
0.461449
0.410788
0.302174
0.249641
0.265085
0.354558
0.427985
0.460013
0.455543
0.443591
0.424894
0.410887
0.397
0.38862
0.381254
0.37804
0.37548
0.375461
0.375358
0.376379
0.376815
0.377545
0.377505
0.377267
0.376193
0.374684
0.37248
0.36993
0.367082
0.364208
0.361515
0.359083
0.357156
0.355539
0.354482
0.353491
0.352902
0.35195
0.351182
0.349607
0.348078
0.345375
0.342688
0.338568
0.334517
0.328927
0.32372
0.317753
0.335679
0.336561
0.338685
0.343249