/*--------------------------------*- C++ -*----------------------------------*\
| =========                 |                                                 |
| \\      /  F ield         | OpenFOAM: The Open Source CFD Toolbox           |
|  \\    /   O peration     | Version:  2412                                  |
|   \\  /    A nd           | Website:  www.openfoam.com                      |
|    \\/     M anipulation  |                                                 |
\*---------------------------------------------------------------------------*/
FoamFile
{
    version     2.0;
    format      ascii;
    arch        "LSB;label=32;scalar=64";
    class       volScalarField;
    location    "1";
    object      p;
}
// * * * * * * * * * * * * * * * * * * * * * * * * * * * * * * * * * * * * * //

dimensions      [0 2 -2 0 0 0 0];

internalField   nonuniform List<scalar> 
13068
(
103874
103867
103831
103782
103716
103628
103535
103411
103292
103134
102991
102795
102621
102369
102150
101827
101564
101167
100871
100391
100072
99490.1
99155.3
98433.8
98093.4
97181.6
96855.5
95682.1
95404.2
93866.8
93692.6
91642.3
91660.6
88878.2
89230.6
85390.1
86300.8
80912.9
82736.5
75059.4
78358
67254.8
72919.8
56630.7
66078.4
41858
57340.2
20894.7
45993.2
-9260.22
31139
-51446.9
13444.8
-99765.4
-510.948
-69618.8
5354.2
-35662
15323
-9221.46
24474.9
9774.83
31942.7
23499.6
38295.7
33838.3
43924.2
41927.6
48959.6
48424.5
53442.6
53734.8
57396.2
58119.8
60843.1
61760.8
63818.3
64799.1
66371.3
67354.3
68559.7
69528.4
70439.4
71406.9
72058.2
73060.3
73452.7
74547.7
74647.4
75919.6
75653.8
77221.6
76472
78497.6
77093.3
79793.3
77503.4
81157.5
77683.3
103874
103867
103831
103782
103716
103628
103535
103411
103293
103134
102991
102795
102621
102369
102150
101827
101564
101167
100871
100391
100072
99490.1
99155.3
98433.8
98093.5
97181.6
96855.6
95682.1
95404.3
93866.9
93692.6
91642.4
91660.7
88878.3
89230.7
85390.2
86300.9
80913
82736.6
75059.5
78358
67255
72919.8
56630.8
66078.3
41858
57340.1
20894.7
45993.1
-9260.16
31139.1
-51447.3
13444.5
-99768
-511.752
-69619.4
5353.96
-35662.1
15323
-9221.13
24475.3
9775.43
31943.2
23500.1
38295.9
33838.5
43924.2
41927.5
48959.4
48424.3
53442.4
53734.5
57395.9
58119.6
60842.9
61760.6
63818.1
64799
66371.2
67354.2
68559.6
69528.4
70439.3
71406.9
72058.1
73060.3
73452.7
74547.7
74647.4
75919.7
75653.8
77221.6
76472
78497.7
77093.3
79793.4
77503.3
81157.6
77683.2
103874
103867
103831
103782
103716
103628
103535
103411
103293
103134
102991
102795
102621
102369
102150
101827
101564
101167
100871
100391
100072
99490.2
99155.3
98433.9
98093.5
97181.7
96855.6
95682.2
95404.3
93866.9
93692.7
91642.5
91660.8
88878.5
89230.8
85390.4
86301
80913.2
82736.7
75059.7
78358.1
67255.2
72919.8
56631
66078.3
41858.1
57340
20894.8
45993.1
-9260.05
31139.1
-51447.9
13444
-99771.9
-512.937
-69620.3
5353.54
-35662.2
15323.1
-9220.71
24475.7
9776.12
31943.7
23500.6
38296.2
33838.7
43924.1
41927.5
48959.3
48424.2
53442.2
53734.4
57395.7
58119.4
60842.7
61760.4
63817.9
64798.8
66371.1
67354.1
68559.6
69528.3
70439.3
71406.8
72058.1
73060.3
73452.8
74547.8
74647.5
75919.7
75653.8
77221.7
76472.1
78497.7
77093.3
79793.4
77503.3
81157.7
77683.1
103874
103867
103831
103782
103717
103629
103536
103412
103293
103134
102991
102795
102621
102369
102150
101827
101564
101167
100871
100391
100072
99490.2
99155.4
98433.9
98093.6
97181.8
96855.7
95682.3
95404.4
93867.1
93692.8
91642.6
91660.9
88878.6
89230.9
85390.6
86301.1
80913.4
82736.8
75060
78358.2
67255.5
72919.9
56631.3
66078.3
41858.3
57339.9
20895
45993.1
-9259.89
31139.1
-51448.9
13443.3
-99777
-514.504
-69621.5
5352.97
-35662.2
15323.1
-9220.19
24476.2
9776.88
31944.2
23501.2
38296.4
33838.9
43924.1
41927.5
48959.1
48424.1
53442
53734.2
57395.5
58119.2
60842.5
61760.3
63817.8
64798.7
66371
67354
68559.5
69528.3
70439.3
71406.8
72058.1
73060.3
73452.8
74547.8
74647.5
75919.7
75653.9
77221.7
76472.1
78497.8
77093.4
79793.5
77503.3
81157.8
77683.1
103874
103868
103831
103782
103717
103629
103536
103412
103293
103134
102991
102795
102621
102369
102150
101827
101564
101167
100871
100391
100073
99490.3
99155.5
98434
98093.6
97181.9
96855.8
95682.4
95404.5
93867.2
93692.9
91642.8
91661
88878.8
89231.1
85390.9
86301.3
80913.7
82737
75060.4
78358.4
67255.9
72920
56631.7
66078.4
41858.7
57339.9
20895.4
45993.1
-9259.68
31139.1
-51450.2
13442.4
-99783.4
-516.455
-69622.9
5352.22
-35662.3
15323.2
-9219.59
24476.7
9777.73
31944.8
23501.9
38296.6
33839.1
43924.1
41927.5
48959
48424
53441.9
53734.1
57395.4
58119.1
60842.3
61760.1
63817.6
64798.6
66370.9
67354
68559.5
69528.3
70439.3
71406.8
72058.2
73060.3
73452.8
74547.8
74647.5
75919.7
75654
77221.7
76472.2
78497.8
77093.4
79793.5
77503.3
81157.8
77683.1
103875
103868
103832
103782
103717
103629
103536
103412
103293
103134
102992
102795
102621
102369
102150
101827
101564
101167
100871
100391
100073
99490.4
99155.5
98434.1
98093.7
97182
96855.9
95682.5
95404.6
93867.4
93693.1
91643
91661.2
88879.1
89231.2
85391.2
86301.5
80914.1
82737.2
75060.8
78358.6
67256.3
72920.2
56632.1
66078.4
41859.2
57339.9
20895.8
45993.1
-9259.41
31139.1
-51451.7
13441.3
-99791.1
-518.79
-69624.7
5351.32
-35662.4
15323.2
-9218.89
24477.2
9778.66
31945.3
23502.6
38296.9
33839.4
43924
41927.5
48958.8
48423.9
53441.7
53734
57395.2
58119
60842.2
61760
63817.5
64798.6
66370.8
67354
68559.5
69528.2
70439.3
71406.8
72058.2
73060.3
73452.9
74547.8
74647.6
75919.7
75654.1
77221.7
76472.3
78497.8
77093.5
79793.6
77503.3
81157.9
77683.1
103875
103868
103832
103783
103717
103629
103536
103412
103293
103134
102992
102795
102621
102369
102150
101827
101564
101167
100871
100392
100073
99490.5
99155.6
98434.2
98093.9
97182.2
96856.1
95682.7
95404.8
93867.6
93693.2
91643.3
91661.4
88879.4
89231.5
85391.5
86301.7
80914.5
82737.4
75061.3
78358.8
67256.9
72920.4
56632.7
66078.6
41859.7
57340
20896.4
45993.2
-9259.09
31139.1
-51453.5
13440
-99800.1
-521.511
-69626.7
5350.25
-35662.5
15323.2
-9218.09
24477.7
9779.68
31945.9
23503.3
38297.1
33839.8
43924
41927.6
48958.7
48423.9
53441.5
53733.9
57395
58118.9
60842
61760
63817.4
64798.5
66370.8
67353.9
68559.4
69528.2
70439.3
71406.8
72058.2
73060.3
73452.9
74547.8
74647.7
75919.8
75654.1
77221.7
76472.4
78497.8
77093.6
79793.6
77503.4
81157.9
77683.1
103875
103868
103832
103783
103718
103629
103536
103412
103293
103135
102992
102795
102621
102369
102150
101827
101564
101167
100871
100392
100073
99490.6
99155.8
98434.4
98094
97182.3
96856.2
95682.9
95405
93867.8
93693.4
91643.6
91661.6
88879.7
89231.7
85391.9
86302
80915
82737.7
75061.9
78359.1
67257.6
72920.6
56633.4
66078.7
41860.4
57340.1
20897
45993.3
-9258.7
31139
-51455.6
13438.5
-99810.3
-524.615
-69629
5349.01
-35662.5
15323.2
-9217.21
24478.2
9780.78
31946.4
23504.1
38297.3
33840.1
43924
41927.7
48958.5
48423.9
53441.3
53733.8
57394.9
58118.8
60841.9
61759.9
63817.4
64798.5
66370.8
67353.9
68559.5
69528.3
70439.3
71406.9
72058.3
73060.4
73453
74547.8
74647.8
75919.8
75654.3
77221.7
76472.5
78497.8
77093.7
79793.6
77503.5
81157.9
77683.1
103876
103869
103833
103783
103718
103630
103537
103412
103293
103135
102992
102795
102621
102369
102150
101828
101564
101167
100871
100392
100073
99490.8
99155.9
98434.5
98094.2
97182.5
96856.4
95683.1
95405.2
93868.1
93693.6
91643.9
91661.8
88880.1
89232
85392.4
86302.3
80915.6
82738
75062.5
78359.4
67258.3
72920.9
56634.2
66078.9
41861.3
57340.2
20897.8
45993.4
-9258.26
31138.9
-51458
13436.8
-99821.8
-528.105
-69631.6
5347.62
-35662.6
15323.1
-9216.23
24478.8
9781.96
31947
23505
38297.6
33840.5
43923.9
41927.8
48958.4
48423.9
53441.2
53733.8
57394.7
58118.8
60841.8
61759.9
63817.3
64798.5
66370.7
67354
68559.5
69528.3
70439.4
71406.9
72058.4
73060.4
73453.1
74547.8
74647.9
75919.8
75654.4
77221.7
76472.7
78497.8
77093.8
79793.6
77503.6
81157.9
77683.1
103876
103869
103833
103784
103718
103630
103537
103413
103294
103135
102992
102795
102621
102369
102150
101828
101565
101167
100871
100392
100073
99490.9
99156
98434.7
98094.3
97182.7
96856.6
95683.4
95405.4
93868.4
93693.9
91644.2
91662.1
88880.5
89232.3
85392.9
86302.6
80916.2
82738.4
75063.3
78359.8
67259.1
72921.2
56635.1
66079.2
41862.2
57340.4
20898.7
45993.6
-9257.77
31138.8
-51460.7
13434.9
-99834.6
-531.978
-69634.4
5346.06
-35662.7
15323.1
-9215.16
24479.4
9783.24
31947.6
23505.9
38297.8
33841
43923.9
41927.9
48958.2
48423.9
53441
53733.8
57394.6
58118.7
60841.7
61759.9
63817.3
64798.5
66370.7
67354
68559.5
69528.3
70439.4
71406.9
72058.4
73060.4
73453.2
74547.8
74648
75919.8
75654.5
77221.7
76472.8
78497.8
77094
79793.5
77503.7
81157.9
77683.2
103877
103870
103833
103784
103719
103630
103537
103413
103294
103135
102992
102795
102621
102369
102150
101828
101565
101167
100871
100392
100073
99491.1
99156.2
98434.9
98094.5
97183
96856.8
95683.7
95405.6
93868.7
93694.1
91644.6
91662.4
88881
89232.6
85393.5
86303
80916.9
82738.8
75064.1
78360.2
67260.1
72921.6
56636.2
66079.4
41863.2
57340.6
20899.7
45993.8
-9257.21
31138.7
-51463.6
13432.8
-99848.7
-536.236
-69637.6
5344.33
-35662.8
15323.1
-9213.99
24480
9784.59
31948.2
23506.9
38298.1
33841.5
43923.8
41928.1
48958.1
48423.9
53440.9
53733.8
57394.5
58118.7
60841.6
61759.9
63817.2
64798.5
66370.8
67354
68559.6
69528.4
70439.5
71407
72058.5
73060.5
73453.3
74547.9
74648.2
75919.8
75654.7
77221.7
76473
78497.8
77094.2
79793.5
77503.9
81157.8
77683.3
103877
103870
103834
103785
103719
103631
103537
103413
103294
103135
102992
102795
102621
102369
102150
101828
101565
101167
100871
100392
100073
99491.2
99156.4
98435.1
98094.7
97183.2
96857
95684
95405.9
93869.1
93694.4
91645.1
91662.7
88881.5
89233
85394.1
86303.4
80917.6
82739.2
75065
78360.6
67261.1
72922
56637.3
66079.8
41864.4
57340.8
20900.9
45994
-9256.6
31138.6
-51466.8
13430.5
-99864
-540.879
-69641
5342.45
-35662.9
15323
-9212.73
24480.7
9786.03
31948.8
23507.9
38298.3
33842
43923.8
41928.3
48958
48424
53440.7
53733.8
57394.4
58118.8
60841.6
61759.9
63817.2
64798.6
66370.8
67354.1
68559.6
69528.5
70439.6
71407
72058.6
73060.5
73453.4
74547.9
74648.3
75919.8
75654.9
77221.7
76473.2
78497.7
77094.4
79793.4
77504
81157.8
77683.4
103878
103871
103834
103785
103719
103631
103538
103414
103294
103135
102992
102795
102621
102369
102150
101828
101565
101167
100871
100392
100073
99491.4
99156.5
98435.4
98094.9
97183.5
96857.3
95684.3
95406.1
93869.5
93694.8
91645.5
91663.1
88882.1
89233.4
85394.8
86303.8
80918.4
82739.7
75065.9
78361.1
67262.2
72922.4
56638.5
66080.1
41865.7
57341.1
20902.1
45994.3
-9255.94
31138.4
-51470.4
13428
-99880.6
-545.906
-69644.7
5340.4
-35663
15322.9
-9211.38
24481.3
9787.56
31949.5
23509
38298.6
33842.5
43923.8
41928.6
48957.8
48424.1
53440.6
53733.9
57394.3
58118.8
60841.5
61760
63817.2
64798.7
66370.8
67354.2
68559.7
69528.5
70439.7
71407.1
72058.7
73060.5
73453.6
74547.9
74648.5
75919.8
75655.1
77221.7
76473.4
78497.7
77094.6
79793.4
77504.2
81157.7
77683.5
103878
103871
103835
103786
103720
103632
103538
103414
103295
103136
102993
102796
102621
102369
102150
101828
101565
101167
100871
100392
100074
99491.6
99156.7
98435.6
98095.2
97183.8
96857.5
95684.7
95406.4
93869.9
93695.1
91646
91663.5
88882.7
89233.8
85395.5
86304.3
80919.3
82740.2
75067
78361.6
67263.4
72922.9
56639.8
66080.5
41867.1
57341.4
20903.5
45994.6
-9255.21
31138.2
-51474.2
13425.4
-99898.5
-551.317
-69648.6
5338.19
-35663.1
15322.9
-9209.93
24482
9789.17
31950.1
23510.2
38298.8
33843.1
43923.7
41928.8
48957.7
48424.2
53440.5
53734
57394.2
58118.9
60841.5
61760.1
63817.2
64798.8
66370.9
67354.3
68559.8
69528.6
70439.8
71407.2
72058.9
73060.6
73453.7
74547.9
74648.6
75919.8
75655.3
77221.6
76473.7
78497.6
77094.9
79793.3
77504.4
81157.6
77683.6
103879
103872
103836
103786
103721
103632
103539
103414
103295
103136
102993
102796
102621
102369
102151
101828
101565
101168
100872
100393
100074
99491.9
99157
98435.9
98095.4
97184.1
96857.8
95685
95406.8
93870.3
93695.5
91646.6
91663.9
88883.3
89234.2
85396.3
86304.8
80920.2
82740.7
75068.1
78362.1
67264.7
72923.4
56641.2
66080.9
41868.6
57341.7
20905
45994.9
-9254.43
31138.1
-51478.2
13422.5
-99917.7
-557.112
-69652.9
5335.82
-35663.2
15322.8
-9208.39
24482.7
9790.87
31950.8
23511.4
38299.1
33843.8
43923.7
41929.1
48957.5
48424.4
53440.3
53734.1
57394.1
58119
60841.5
61760.2
63817.3
64798.9
66371
67354.4
68559.9
69528.7
70439.9
71407.3
72059
73060.6
73453.9
74547.9
74648.8
75919.7
75655.5
77221.6
76474
78497.5
77095.1
79793.2
77504.7
81157.5
77683.8
103880
103873
103836
103787
103721
103633
103539
103415
103295
103136
102993
102796
102621
102369
102151
101828
101565
101168
100872
100393
100074
99492.1
99157.2
98436.2
98095.7
97184.5
96858.1
95685.4
95407.1
93870.8
93695.8
91647.1
91664.3
88884
89234.7
85397.1
86305.3
80921.2
82741.3
75069.3
78362.7
67266
72923.9
56642.8
66081.4
41870.2
57342.1
20906.6
45995.2
-9253.59
31137.8
-51482.6
13419.4
-99938.1
-563.291
-69657.4
5333.28
-35663.3
15322.7
-9206.76
24483.5
9792.65
31951.5
23512.6
38299.3
33844.4
43923.6
41929.4
48957.4
48424.6
53440.2
53734.2
57394
58119.1
60841.5
61760.3
63817.3
64799
66371.1
67354.5
68560
69528.9
70440.1
71407.3
72059.2
73060.7
73454
74548
74649
75919.7
75655.8
77221.5
76474.2
78497.4
77095.4
79793.1
77504.9
81157.4
77683.9
103881
103873
103837
103787
103722
103633
103540
103415
103296
103136
102993
102796
102622
102369
102151
101828
101565
101168
100872
100393
100074
99492.3
99157.4
98436.5
98096
97184.8
96858.4
95685.9
95407.5
93871.3
93696.3
91647.7
91664.8
88884.8
89235.2
85398
86305.8
80922.3
82741.9
75070.5
78363.3
67267.5
72924.5
56644.4
66081.9
41871.9
57342.5
20908.3
45995.6
-9252.7
31137.6
-51487.3
13416.1
-99959.8
-569.854
-69662.2
5330.59
-35663.4
15322.5
-9205.03
24484.3
9794.51
31952.2
23514
38299.6
33845.1
43923.6
41929.8
48957.3
48424.8
53440.1
53734.3
57394
58119.2
60841.5
61760.5
63817.4
64799.2
66371.2
67354.7
68560.2
69529
70440.2
71407.4
72059.3
73060.7
73454.2
74548
74649.3
75919.7
75656
77221.5
76474.5
78497.4
77095.7
79793
77505.2
81157.3
77684.1
103881
103874
103838
103788
103722
103634
103540
103416
103296
103137
102993
102796
102622
102370
102151
101828
101565
101168
100872
100393
100074
99492.6
99157.7
98436.8
98096.3
97185.2
96858.8
95686.3
95407.9
93871.9
93696.7
91648.4
91665.2
88885.5
89235.8
85398.9
86306.4
80923.4
82742.5
75071.9
78364
67269.1
72925.1
56646.1
66082.4
41873.8
57342.9
20910.1
45996
-9251.74
31137.4
-51492.2
13412.6
-99982.8
-576.8
-69667.3
5327.73
-35663.5
15322.4
-9203.22
24485.1
9796.46
31952.9
23515.3
38299.8
33845.9
43923.5
41930.2
48957.1
48425
53440
53734.5
57393.9
58119.4
60841.5
61760.6
63817.5
64799.3
66371.3
67354.9
68560.3
69529.1
70440.4
71407.6
72059.5
73060.8
73454.4
74548
74649.5
75919.7
75656.3
77221.4
76474.9
78497.2
77096.1
79792.8
77505.5
81157.1
77684.3
103882
103875
103839
103789
103723
103634
103541
103416
103296
103137
102994
102796
102622
102370
102151
101828
101566
101168
100872
100393
100075
99492.9
99158
98437.1
98096.6
97185.6
96859.1
95686.8
95408.3
93872.4
93697.2
91649.1
91665.8
88886.4
89236.3
85399.9
86307.1
80924.6
82743.2
75073.3
78364.7
67270.7
72925.8
56648
66083
41875.7
57343.4
20912.1
45996.4
-9250.73
31137.1
-51497.4
13409
-100007
-584.13
-69672.7
5324.71
-35663.6
15322.3
-9201.3
24485.9
9798.5
31953.6
23516.8
38300.1
33846.7
43923.4
41930.6
48957
48425.2
53439.9
53734.7
57393.9
58119.6
60841.6
61760.8
63817.6
64799.5
66371.5
67355.1
68560.5
69529.3
70440.6
71407.7
72059.7
73060.9
73454.6
74548
74649.7
75919.7
75656.6
77221.4
76475.2
78497.1
77096.4
79792.7
77505.8
81156.9
77684.5
103883
103876
103839
103790
103724
103635
103541
103417
103297
103137
102994
102796
102622
102370
102151
101829
101566
101168
100872
100394
100075
99493.2
99158.3
98437.5
98096.9
97186
96859.5
95687.3
95408.7
93873
93697.6
91649.8
91666.3
88887.2
89236.9
85401
86307.7
80925.9
82743.9
75074.8
78365.4
67272.4
72926.5
56649.9
66083.6
41877.8
57343.9
20914.1
45996.9
-9249.66
31136.8
-51502.9
13405.1
-100033
-591.843
-69678.3
5321.53
-35663.7
15322.1
-9199.3
24486.7
9800.62
31954.3
23518.3
38300.4
33847.5
43923.4
41931
48956.8
48425.5
53439.8
53734.9
57393.9
58119.8
60841.6
61761
63817.7
64799.8
66371.6
67355.3
68560.7
69529.5
70440.8
71407.8
72059.9
73061
73454.8
74548
74650
75919.7
75656.9
77221.3
76475.6
78497
77096.8
79792.5
77506.2
81156.8
77684.7
103884
103877
103840
103790
103724
103636
103542
103417
103297
103138
102994
102797
102622
102370
102151
101829
101566
101169
100873
100394
100075
99493.5
99158.6
98437.9
98097.3
97186.5
96859.9
95687.8
95409.2
93873.7
93698.2
91650.5
91666.9
88888.1
89237.6
85402.1
86308.4
80927.2
82744.6
75076.3
78366.2
67274.3
72927.2
56652
66084.2
41880
57344.5
20916.3
45997.4
-9248.54
31136.5
-51508.7
13401
-100060
-599.94
-69684.3
5318.19
-35663.8
15321.9
-9197.2
24487.6
9802.82
31955.1
23519.8
38300.6
33848.3
43923.3
41931.5
48956.7
48425.8
53439.7
53735.2
57393.9
58120
60841.7
61761.3
63817.8
64800
66371.8
67355.5
68560.9
69529.7
70441
71407.9
72060.1
73061
73455.1
74548.1
74650.3
75919.6
75657.3
77221.2
76476
78496.9
77097.2
79792.3
77506.5
81156.6
77685
103885
103878
103841
103791
103725
103636
103543
103418
103298
103138
102994
102797
102622
102370
102151
101829
101566
101169
100873
100394
100075
99493.8
99158.9
98438.3
98097.6
97186.9
96860.4
95688.4
95409.6
93874.3
93698.7
91651.3
91667.5
88889.1
89238.2
85403.2
86309.2
80928.6
82745.4
75078
78367
67276.2
72928
56654.1
66084.9
41882.3
57345
20918.6
45997.9
-9247.35
31136.2
-51514.7
13396.8
-100088
-608.42
-69690.5
5314.69
-35663.9
15321.8
-9195.01
24488.5
9805.11
31955.9
23521.4
38300.9
33849.2
43923.3
41932
48956.6
48426.1
53439.6
53735.4
57393.8
58120.3
60841.8
61761.6
63818
64800.3
66372
67355.7
68561.1
69529.9
70441.2
71408.1
72060.3
73061.1
73455.3
74548.1
74650.5
75919.6
75657.6
77221.1
76476.4
78496.7
77097.7
79792.2
77506.9
81156.4
77685.2
103886
103879
103842
103792
103726
103637
103543
103418
103298
103138
102995
102797
102622
102370
102151
101829
101566
101169
100873
100394
100076
99494.1
99159.2
98438.7
98098
97187.4
96860.8
95689
95410.1
93875
93699.2
91652.2
91668.1
88890.1
89238.9
85404.4
86309.9
80930
82746.2
75079.7
78367.8
67278.2
72928.8
56656.4
66085.6
41884.7
57345.7
20921
45998.5
-9246.11
31135.9
-51521.1
13392.3
-100117
-617.282
-69696.9
5311.03
-35664
15321.6
-9192.72
24489.4
9807.48
31956.6
23523.1
38301.1
33850.2
43923.2
41932.5
48956.4
48426.5
53439.5
53735.7
57393.9
58120.6
60841.9
61761.8
63818.1
64800.6
66372.2
67356
68561.3
69530.1
70441.4
71408.2
72060.5
73061.2
73455.6
74548.1
74650.8
75919.6
75658
77221
76476.8
78496.6
77098.1
79791.9
77507.3
81156.1
77685.5
103887
103880
103843
103793
103727
103638
103544
103419
103299
103139
102995
102797
102623
102370
102152
101829
101566
101169
100873
100395
100076
99494.5
99159.5
98439.1
98098.4
97187.9
96861.3
95689.6
95410.7
93875.7
93699.8
91653
91668.8
88891.1
89239.7
85405.7
86310.7
80931.5
82747.1
75081.5
78368.7
67280.3
72929.7
56658.7
66086.4
41887.2
57346.3
20923.5
45999.1
-9244.81
31135.5
-51527.7
13387.7
-100148
-626.527
-69703.7
5307.21
-35664.1
15321.4
-9190.35
24490.4
9809.94
31957.4
23524.8
38301.4
33851.1
43923.1
41933
48956.3
48426.8
53439.4
53736
57393.9
58120.9
60842
61762.2
63818.3
64800.9
66372.4
67356.3
68561.6
69530.3
70441.7
71408.4
72060.8
73061.3
73455.8
74548.2
74651.2
75919.5
75658.3
77220.9
76477.2
78496.4
77098.6
79791.7
77507.7
81155.9
77685.8
103889
103881
103844
103794
103728
103639
103545
103419
103299
103139
102995
102797
102623
102370
102152
101829
101567
101169
100874
100395
100076
99494.9
99159.9
98439.5
98098.8
97188.5
96861.7
95690.2
95411.2
93876.5
93700.4
91653.9
91669.4
88892.2
89240.4
85407
86311.5
80933.1
82748
75083.3
78369.6
67282.5
72930.6
56661.2
66087.2
41889.9
57347
20926.2
45999.7
-9243.45
31135.1
-51534.6
13382.8
-100180
-636.154
-69710.7
5303.23
-35664.2
15321.1
-9187.88
24491.4
9812.48
31958.2
23526.6
38301.7
33852.1
43923.1
41933.6
48956.2
48427.2
53439.4
53736.4
57393.9
58121.2
60842.1
61762.5
63818.5
64801.2
66372.7
67356.6
68561.8
69530.5
70441.9
71408.6
72061
73061.4
73456.1
74548.2
74651.5
75919.5
75658.7
77220.8
76477.7
78496.2
77099.1
79791.5
77508.2
81155.6
77686.1
103890
103882
103845
103795
103729
103639
103545
103420
103300
103140
102995
102798
102623
102371
102152
101830
101567
101170
100874
100395
100076
99495.2
99160.3
98440
98099.3
97189
96862.2
95690.8
95411.8
93877.3
93701.1
91654.8
91670.1
88893.3
89241.2
85408.3
86312.4
80934.7
82748.9
75085.3
78370.6
67284.7
72931.5
56663.7
66088
41892.6
57347.7
20928.9
46000.4
-9242.03
31134.8
-51541.8
13377.8
-100213
-646.164
-69718
5299.09
-35664.3
15320.9
-9185.31
24492.4
9815.11
31959.1
23528.4
38301.9
33853.2
43923
41934.2
48956
48427.6
53439.3
53736.7
57393.9
58121.6
60842.2
61762.8
63818.7
64801.5
66372.9
67356.9
68562.1
69530.8
70442.2
71408.7
72061.3
73061.5
73456.4
74548.2
74651.8
75919.4
75659.1
77220.7
76478.2
78496
77099.6
79791.2
77508.7
81155.4
77686.4
103891
103883
103846
103796
103730
103640
103546
103421
103300
103140
102996
102798
102623
102371
102152
101830
101567
101170
100874
100396
100077
99495.6
99160.7
98440.5
98099.7
97189.6
96862.7
95691.5
95412.3
93878.1
93701.7
91655.8
91670.9
88894.5
89242
85409.7
86313.3
80936.4
82749.9
75087.3
78371.6
67287.1
72932.5
56666.4
66088.9
41895.5
57348.5
20931.8
46001.1
-9240.55
31134.3
-51549.2
13372.5
-100248
-656.556
-69725.5
5294.79
-35664.4
15320.7
-9182.66
24493.4
9817.82
31959.9
23530.3
38302.2
33854.3
43922.9
41934.8
48955.9
48428.1
53439.2
53737.1
57394
58122
60842.4
61763.2
63819
64801.9
66373.2
67357.2
68562.4
69531.1
70442.5
71408.9
72061.6
73061.6
73456.7
74548.2
74652.2
75919.4
75659.6
77220.6
76478.7
78495.8
77100.1
79791
77509.2
81155.1
77686.8
103892
103884
103848
103797
103731
103641
103547
103421
103301
103140
102996
102798
102623
102371
102152
101830
101567
101170
100874
100396
100077
99496
99161.1
98441
98100.2
97190.2
96863.3
95692.2
95413
93878.9
93702.4
91656.8
91671.6
88895.7
89242.9
85411.2
86314.2
80938.1
82750.9
75089.4
78372.6
67289.5
72933.5
56669.2
66089.8
41898.5
57349.3
20934.8
46001.8
-9239.02
31133.9
-51557
13367.1
-100283
-667.33
-69733.4
5290.33
-35664.5
15320.4
-9179.91
24494.4
9820.62
31960.7
23532.2
38302.5
33855.4
43922.9
41935.5
48955.8
48428.5
53439.2
53737.5
57394.1
58122.4
60842.6
61763.6
63819.2
64802.3
66373.5
67357.5
68562.7
69531.3
70442.8
71409.1
72061.9
73061.7
73457
74548.3
74652.5
75919.3
75660
77220.4
76479.2
78495.6
77100.7
79790.7
77509.7
81154.8
77687.1
103894
103886
103849
103798
103732
103642
103548
103422
103302
103141
102996
102798
102623
102371
102152
101830
101567
101170
100875
100396
100077
99496.5
99161.5
98441.5
98100.7
97190.8
96863.8
95693
95413.6
93879.8
93703.1
91657.9
91672.4
88896.9
89243.7
85412.7
86315.2
80940
82751.9
75091.6
78373.7
67292.1
72934.5
56672.1
66090.7
41901.6
57350.1
20937.9
46002.5
-9237.42
31133.5
-51565
13361.4
-100320
-678.485
-69741.5
5285.71
-35664.6
15320.2
-9177.07
24495.5
9823.49
31961.6
23534.2
38302.7
33856.5
43922.8
41936.1
48955.6
48429
53439.1
53737.9
57394.1
58122.8
60842.7
61764
63819.5
64802.7
66373.8
67357.9
68563
69531.6
70443.1
71409.3
72062.2
73061.8
73457.3
74548.3
74652.9
75919.3
75660.5
77220.3
76479.7
78495.4
77101.3
79790.4
77510.2
81154.4
77687.5
103895
103887
103850
103799
103733
103643
103549
103423
103302
103141
102997
102799
102624
102371
102153
101830
101568
101171
100875
100397
100078
99496.9
99161.9
98442
98101.2
97191.4
96864.4
95693.7
95414.2
93880.7
93703.8
91658.9
91673.2
88898.2
89244.6
85414.2
86316.2
80941.8
82753
75093.8
78374.8
67294.7
72935.6
56675
66091.7
41904.8
57350.9
20941.1
46003.3
-9235.77
31133
-51573.3
13355.6
-100359
-690.021
-69749.9
5280.94
-35664.7
15319.9
-9174.14
24496.6
9826.46
31962.5
23536.3
38303
33857.7
43922.7
41936.8
48955.5
48429.5
53439.1
53738.4
57394.2
58123.2
60842.9
61764.5
63819.8
64803.1
66374.1
67358.3
68563.3
69531.9
70443.4
71409.5
72062.5
73062
73457.7
74548.3
74653.3
75919.2
75660.9
77220.1
76480.3
78495.1
77101.9
79790.1
77510.8
81154.1
77687.9
103896
103888
103851
103800
103734
103644
103550
103424
103303
103142
102997
102799
102624
102371
102153
101831
101568
101171
100875
100397
100078
99497.4
99162.4
98442.6
98101.7
97192.1
96865
95694.5
95414.9
93881.6
93704.6
91660
91674.1
88899.6
89245.6
85415.9
86317.2
80943.8
82754.1
75096.2
78376
67297.4
72936.8
56678.1
66092.7
41908.2
57351.8
20944.4
46004.1
-9234.06
31132.6
-51581.9
13349.5
-100399
-701.939
-69758.5
5276
-35664.8
15319.6
-9171.11
24497.7
9829.5
31963.4
23538.4
38303.3
33858.9
43922.6
41937.6
48955.4
48430.1
53439
53738.9
57394.3
58123.7
60843.2
61765
63820.1
64803.6
66374.5
67358.7
68563.7
69532.2
70443.8
71409.8
72062.8
73062.1
73458
74548.4
74653.7
75919.2
75661.4
77220
76480.9
78494.9
77102.5
79789.8
77511.4
81153.7
77688.3
103898
103890
103853
103802
103735
103645
103551
103424
103303
103142
102997
102799
102624
102372
102153
101831
101568
101171
100875
100397
100079
99497.8
99162.8
98443.2
98102.3
97192.8
96865.6
95695.3
95415.6
93882.6
93705.4
91661.2
91674.9
88900.9
89246.5
85417.5
86318.3
80945.8
82755.2
75098.6
78377.1
67300.3
72937.9
56681.3
66093.8
41911.6
57352.8
20947.8
46005
-9232.28
31132.1
-51590.7
13343.3
-100440
-714.238
-69767.4
5270.91
-35664.9
15319.3
-9168
24498.9
9832.63
31964.3
23540.6
38303.6
33860.2
43922.5
41938.3
48955.2
48430.6
53439
53739.4
57394.4
58124.2
60843.4
61765.5
63820.4
64804
66374.8
67359.1
68564.1
69532.6
70444.1
71410
72063.2
73062.2
73458.4
74548.4
74654.1
75919.1
75661.9
77219.8
76481.5
78494.6
77103.2
79789.5
77512
81153.4
77688.7
103899
103891
103854
103803
103736
103646
103552
103425
103304
103143
102998
102799
102624
102372
102153
101831
101568
101172
100876
100398
100079
99498.3
99163.3
98443.8
98102.8
97193.5
96866.2
95696.1
95416.3
93883.6
93706.2
91662.4
91675.8
88902.4
89247.5
85419.2
86319.4
80947.9
82756.4
75101
78378.4
67303.2
72939.1
56684.6
66094.9
41915.2
57353.7
20951.4
46005.8
-9230.45
31131.6
-51599.8
13336.9
-100482
-726.917
-69776.6
5265.66
-35665
15318.9
-9164.79
24500
9835.85
31965.2
23542.8
38303.8
33861.5
43922.5
41939.1
48955.1
48431.2
53439
53739.9
57394.5
58124.7
60843.6
61766
63820.7
64804.5
66375.2
67359.5
68564.4
69532.9
70444.5
71410.2
72063.5
73062.3
73458.7
74548.4
74654.6
75919.1
75662.5
77219.7
76482.1
78494.4
77103.8
79789.1
77512.6
81153
77689.2
103901
103893
103855
103804
103738
103647
103552
103426
103305
103143
102998
102800
102624
102372
102153
101831
101569
101172
100876
100398
100079
99498.8
99163.8
98444.4
98103.4
97194.2
96866.9
95697
95417
93884.6
93707
91663.6
91676.8
88903.8
89248.6
85421
86320.5
80950
82757.6
75103.6
78379.6
67306.2
72940.4
56688
66096
41918.9
57354.7
20955.1
46006.7
-9228.55
31131.1
-51609.3
13330.2
-100525
-739.977
-69786.1
5260.26
-35665.1
15318.6
-9161.49
24501.2
9839.14
31966.1
23545.1
38304.1
33862.8
43922.4
41940
48955
48431.8
53439
53740.4
57394.6
58125.3
60843.9
61766.5
63821.1
64805
66375.6
67360
68564.8
69533.3
70444.8
71410.5
72063.9
73062.5
73459.1
74548.5
74655
75919
75663
77219.5
76482.7
78494.1
77104.5
79788.7
77513.2
81152.6
77689.6
103902
103894
103857
103806
103739
103648
103554
103427
103306
103144
102999
102800
102625
102372
102154
101832
101569
101172
100876
100399
100080
99499.3
99164.3
98445
98104
97195
96867.6
95697.9
95417.8
93885.6
93707.8
91664.9
91677.7
88905.3
89249.6
85422.8
86321.7
80952.2
82758.9
75106.2
78380.9
67309.2
72941.6
56691.5
66097.1
41922.6
57355.8
20958.9
46007.7
-9226.6
31130.5
-51618.9
13323.4
-100570
-753.418
-69795.8
5254.7
-35665.2
15318.3
-9158.1
24502.4
9842.52
31967.1
23547.4
38304.4
33864.2
43922.3
41940.8
48954.9
48432.4
53438.9
53741
57394.8
58125.8
60844.1
61767.1
63821.4
64805.5
66376
67360.4
68565.2
69533.6
70445.2
71410.7
72064.3
73062.6
73459.5
74548.5
74655.5
75918.9
75663.6
77219.3
76483.4
78493.8
77105.3
79788.4
77513.9
81152.2
77690.1
103904
103896
103858
103807
103740
103649
103555
103428
103306
103145
102999
102800
102625
102372
102154
101832
101569
101173
100877
100399
100080
99499.9
99164.8
98445.6
98104.6
97195.7
96868.3
95698.8
95418.6
93886.7
93708.7
91666.2
91678.7
88906.9
89250.7
85424.7
86322.9
80954.5
82760.2
75108.9
78382.3
67312.4
72943
56695.1
66098.3
41926.5
57356.8
20962.8
46008.6
-9224.59
31130
-51628.9
13316.4
-100617
-767.238
-69805.8
5248.98
-35665.3
15317.9
-9154.62
24503.7
9845.99
31968
23549.8
38304.7
33865.6
43922.2
41941.7
48954.7
48433.1
53438.9
53741.6
57394.9
58126.4
60844.4
61767.7
63821.8
64806.1
66376.4
67360.9
68565.6
69534
70445.6
71411
72064.7
73062.8
73459.9
74548.5
74655.9
75918.9
75664.1
77219.1
76484.1
78493.5
77106
79788
77514.6
81151.7
77690.6
103906
103897
103860
103808
103741
103651
103556
103429
103307
103145
103000
102801
102625
102373
102154
101832
101569
101173
100877
100399
100081
99500.4
99165.4
98446.3
98105.2
97196.5
96869
95699.7
95419.4
93887.8
93709.6
91667.5
91679.7
88908.5
89251.8
85426.6
86324.1
80956.8
82761.5
75111.7
78383.7
67315.7
72944.3
56698.8
66099.6
41930.6
57357.9
20966.8
46009.6
-9222.51
31129.4
-51639.1
13309.1
-100664
-781.438
-69816.1
5243.1
-35665.4
15317.5
-9151.05
24504.9
9849.53
31969
23552.2
38304.9
33867
43922.1
41942.6
48954.6
48433.8
53438.9
53742.2
57395.1
58127
60844.7
61768.3
63822.2
64806.7
66376.9
67361.4
68566.1
69534.4
70446
71411.3
72065.1
73062.9
73460.4
74548.6
74656.4
75918.8
75664.7
77218.9
76484.8
78493.2
77106.8
79787.6
77515.3
81151.3
77691.1
103908
103899
103862
103810
103743
103652
103557
103430
103308
103146
103000
102801
102625
102373
102154
101832
101570
101173
100877
100400
100081
99501
99165.9
98447
98105.8
97197.3
96869.7
95700.7
95420.2
93889
93710.5
91668.8
91680.7
88910.1
89253
85428.6
86325.3
80959.2
82762.9
75114.5
78385.1
67319
72945.7
56702.6
66100.8
41934.7
57359.1
20970.9
46010.7
-9220.38
31128.9
-51649.7
13301.7
-100713
-796.018
-69826.6
5237.07
-35665.5
15317.1
-9147.38
24506.2
9853.16
31970
23554.7
38305.2
33868.5
43922
41943.5
48954.5
48434.5
53438.9
53742.8
57395.2
58127.7
60845
61768.9
63822.6
64807.3
66377.3
67361.9
68566.5
69534.8
70446.5
71411.6
72065.5
73063.1
73460.8
74548.6
74656.9
75918.7
75665.3
77218.8
76485.5
78492.9
77107.5
79787.1
77516.1
81150.8
77691.6
103909
103901
103863
103811
103744
103653
103558
103431
103309
103146
103000
102801
102626
102373
102154