/*--------------------------------*- C++ -*----------------------------------*\
| =========                 |                                                 |
| \\      /  F ield         | OpenFOAM: The Open Source CFD Toolbox           |
|  \\    /   O peration     | Version:  2412                                  |
|   \\  /    A nd           | Website:  www.openfoam.com                      |
|    \\/     M anipulation  |                                                 |
\*---------------------------------------------------------------------------*/
FoamFile
{
    version     2.0;
    format      ascii;
    arch        "LSB;label=32;scalar=64";
    class       surfaceScalarField;
    location    "1";
    object      phi;
}
// * * * * * * * * * * * * * * * * * * * * * * * * * * * * * * * * * * * * * //

dimensions      [0 3 -1 0 0 0 0];

oriented        oriented;

internalField   nonuniform List<scalar> 
25905
(
0.00747574
0.000200058
0.00738781
0.000175934
0.007311
0.00015378
0.00724377
0.000134707
0.00718487
0.000118087
0.00713324
0.000103439
0.00709
8.60919e-05
0.00705936
5.985e-05
0.00704815
1.97714e-05
0.00706205
-3.13032e-05
0.00710217
-8.40279e-05
0.00716431
-0.00012779
0.00724067
-0.00015573
0.00732276
-0.00016668
0.00740325
-0.000163077
0.00747736
-0.000150025
0.00754256
-0.000131998
0.00759896
-0.00011418
0.00764742
-9.81225e-05
0.00768987
-8.5853e-05
0.00772724
-7.54977e-05
0.0077608
-6.77216e-05
0.00779052
-5.99343e-05
0.00781753
-5.45037e-05
0.00784131
-4.81481e-05
0.00786322
-4.45005e-05
0.00788235
-3.90646e-05
0.00790033
-3.66648e-05
0.00791563
-3.0994e-05
0.00793053
-2.92386e-05
0.00794256
-2.19552e-05
0.00795486
-1.96451e-05
0.0079638
-9.01103e-06
0.00797387
-5.1953e-06
0.00797985
1.02719e-05
0.00798802
1.54922e-05
0.00799099
3.51977e-05
0.00799772
3.80496e-05
0.00799767
5.8392e-05
0.0080035
5.27353e-05
0.00800082
6.70577e-05
0.00800729
4.29158e-05
0.00800368
3.90363e-05
0.00801347
-1.7523e-05
0.00801122
-5.18636e-05
0.00802564
-0.000143623
0.00802218
-0.000183945
0.00802977
-0.000227357
0.00800599
-0.000146187
0.00796419
-5.46702e-06
0.00786952
0.00020504
0.00765266
0.000573752
0.00730987
0.000766639
0.00739183
-8.29002e-05
0.00764137
-0.000485638
0.00777071
-0.000267181
0.00782435
-0.000130485
0.00788016
-5.10383e-05
0.00790552
3.83807e-05
0.00792907
5.29319e-05
0.00792689
8.8963e-05
0.00792814
0.000104027
0.0079155
0.000175892
0.00791035
0.00022461
0.00789862
0.000285604
0.00789517
0.00031083
0.00788856
0.000337783
0.00788874
0.000344206
0.00788671
0.000349964
0.00788942
0.000336565
0.00789023
0.000316288
0.00789377
0.000282109
0.00789523
0.000246926
0.00789757
0.00020704
0.00789743
0.00017085
0.00789673
0.000134951
0.00789337
0.000105435
0.00788861
7.94781e-05
0.00788156
5.94639e-05
0.00787302
4.246e-05
0.00786287
2.92438e-05
0.00785143
1.82799e-05
0.00783929
9.67938e-06
0.00782616
2.99215e-06
0.00781329
-3.04126e-06
0.00779958
-9.04271e-06
0.007787
-1.68075e-05
0.00777356
-2.81316e-05
0.00776215
-4.28698e-05
0.00774949
-6.50381e-05
0.00773968
-8.98657e-05
0.00772816
-0.000127877
0.0077203
-0.000164809
0.0077105
-0.000223892
0.00770499
-0.000275156
0.00769802
-0.000360063
0.00769577
-0.00042921
0.00769316
-0.0005336
-0.000668398
0.00747574
0.000300074
0.00738782
0.00026386
0.00731101
0.00023059
0.00724378
0.000201936
0.00718488
0.000176979
0.00713325
0.000155074
0.00709001
0.00012933
0.00705937
9.04878e-05
0.00704817
3.09802e-05
0.00706205
-4.51859e-05
0.00710216
-0.000124137
0.00716428
-0.000189913
0.00724063
-0.000232082
0.00732272
-0.000248768
0.00740321
-0.000243566
0.00747732
-0.000224134
0.00754252
-0.0001972
0.00759891
-0.000170574
0.00764738
-0.000146588
0.00768982
-0.000128298
0.00772719
-0.000112865
0.00776076
-0.00010129
0.00779047
-8.96479e-05
0.00781748
-8.15151e-05
0.00784127
-7.19292e-05
0.00786318
-6.64115e-05
0.0078823
-5.819e-05
0.00790028
-5.46454e-05
0.00791558
-4.62924e-05
0.00793049
-4.41439e-05
0.00794252
-3.3986e-05
0.00795482
-3.19438e-05
0.00796376
-1.79526e-05
0.00797383
-1.52667e-05
0.00797981
4.29033e-06
0.00798798
7.32207e-06
0.00799095
3.22271e-05
0.00799769
3.13138e-05
0.00799763
5.84454e-05
0.00800347
4.69028e-05
0.00800079
6.97328e-05
0.00800725
3.64542e-05
0.00800364
4.2648e-05
0.00801343
-2.73083e-05
0.00801117
-4.96113e-05
0.00802559
-0.000158039
0.00802213
-0.00018049
0.00802973
-0.00023495
0.00800596
-0.000122416
0.00796417
3.63152e-05
0.00786951
0.000299707
0.00765266
0.000790603
0.00730988
0.00110942
0.00739182
-0.000164847
0.00764134
-0.000735153
0.00777066
-0.000396498
0.00782428
-0.00018411
0.0078801
-0.000106856
0.00790546
1.30148e-05
0.00792903
2.9368e-05
0.00792685
9.11368e-05
0.00792811
0.000102771
0.00791548
0.000188527
0.00791033
0.00022976
0.00789859
0.000297335
0.00789515
0.000314277
0.00788853
0.000344397
0.00788871
0.000344031
0.00788668
0.000351991
0.00788939
0.000333859
0.0078902
0.000315476
0.00789373
0.000278579
0.00789519
0.000245465
0.00789753
0.000204703
0.00789738
0.000170993
0.00789668
0.00013566
0.00789332
0.000108792
0.00788856
8.42412e-05
0.0078815
6.6515e-05
0.00787297
5.0993e-05
0.00786282
3.93941e-05
0.00785138
2.97187e-05
0.00783924
2.18171e-05
0.00782611
1.61262e-05
0.00781324
9.827e-06
0.00779954
4.65955e-06
0.00778696
-4.22852e-06
0.00777352
-1.46863e-05
0.00776211
-3.1462e-05
0.00774943
-5.23644e-05
0.00773962
-8.00494e-05
0.00772809
-0.00011635
0.00772022
-0.000156938
0.00771041
-0.000214079
0.00770489
-0.000269635
0.0076979
-0.000353076
0.00769563
-0.000426943
0.00769301
-0.000530976
-0.000673286
0.00747574
0.00040009
0.00738782
0.000351783
0.00731101
0.000307397
0.00724379
0.00026916
0.0071849
0.000235865
0.00713327
0.000206704
0.00709004
0.000172564
0.0070594
0.000121126
0.00704818
4.21967e-05
0.00706205
-5.90527e-05
0.00710214
-0.000164224
0.00716424
-0.000252014
0.00724057
-0.000308416
0.00732265
-0.000330846
0.00740313
-0.000324051
0.00747724
-0.000298244
0.00754245
-0.000262403
0.00759884
-0.00022697
0.00764731
-0.000195054
0.00768976
-0.000170744
0.00772712
-0.000150232
0.00776069
-0.000134859
0.0077904
-0.000119361
0.00781742
-0.000108527
0.0078412
-9.57106e-05
0.00786311
-8.83228e-05
0.00788223
-7.73157e-05
0.00790022
-7.26263e-05
0.00791551
-6.15912e-05
0.00793042
-5.90497e-05
0.00794245
-4.60174e-05
0.00795475
-4.42433e-05
0.00796369
-2.68951e-05
0.00797377
-2.53395e-05
0.00797975
-1.6931e-06
0.00798792
-8.50398e-07
0.0079909
2.9254e-05
0.00799763
2.45758e-05
0.00799758
5.84974e-05
0.00800341
4.10698e-05
0.00800074
7.24091e-05
0.0080072
2.99949e-05
0.00800358
4.62638e-05
0.00801336
-3.70888e-05
0.0080111
-4.73538e-05
0.00802552
-0.000172451
0.00802206
-0.000177035
0.00802966
-0.00024255
0.0080059
-9.86565e-05
0.00796414
7.80798e-05
0.00786949
0.000394358
0.00765265
0.00100744
0.00730989
0.00145218
0.00739183
-0.000246781
0.00764131
-0.000984635
0.0077706
-0.000525791
0.00782421
-0.000237722
0.00788003
-0.00016267
0.0079054
-1.23561e-05
0.00792897
5.79362e-06
0.00792681
9.33003e-05
0.00792807
0.000101505
0.00791544
0.000201157
0.00791029
0.000234909
0.00789856
0.000309067
0.00789511
0.000317726
0.0078885
0.000351014
0.00788867
0.000343858
0.00788664
0.000354019
0.00788935
0.000331154
0.00789016
0.000314665
0.00789368
0.000275053
0.00789514
0.000244007
0.00789747
0.00020237
0.00789733
0.00017114
0.00789662
0.000136372
0.00789326
0.000112152
0.00788849
8.90046e-05
0.00788144
7.35653e-05
0.00787291
5.95244e-05
0.00786276
4.95424e-05
0.00785133
4.11554e-05
0.00783919
3.39531e-05
0.00782606
2.9259e-05
0.00781319
2.26944e-05
0.00779949
1.83616e-05
0.00778691
8.35093e-06
0.00777346
-1.23941e-06
0.00776205
-2.00515e-05
0.00774937
-3.96861e-05
0.00773955
-7.02267e-05
0.00772801
-0.000104814
0.00772013
-0.000149057
0.00771031
-0.000204253
0.00770477
-0.000264098
0.00769776
-0.000346072
0.00769548
-0.000424658
0.00769284
-0.000528337
-0.000678161
0.00747574
0.000500105
0.00738782
0.000439703
0.00731102
0.000384199
0.0072438
0.000336379
0.00718492
0.000294746
0.0071333
0.000258328
0.00709007
0.000215794
0.00705943
0.000151764
0.0070482
5.34214e-05
0.00706205
-7.29009e-05
0.00710211
-0.000204286
0.00716419
-0.000314088
0.0072405
-0.000384729
0.00732257
-0.000412911
0.00740305
-0.000404531
0.00747716
-0.000372353
0.00754236
-0.000327609
0.00759876
-0.000283367
0.00764723
-0.000243521
0.00768967
-0.000213189
0.00772704
-0.000187598
0.0077606
-0.000168427
0.00779032
-0.000149075
0.00781733
-0.000135538
0.00784111
-0.000119492
0.00786302
-0.000110234
0.00788215
-9.64415e-05
0.00790013
-9.06074e-05
0.00791543
-7.68903e-05
0.00793033
-7.39559e-05
0.00794237
-5.80493e-05
0.00795467
-5.65434e-05
0.00796361
-3.58385e-05
0.00797368
-3.54137e-05
0.00797967
-7.67823e-06
0.00798784
-9.02518e-06
0.00799082
2.62787e-05
0.00799756
1.78355e-05
0.00799751
5.85482e-05
0.00800334
3.52366e-05
0.00800066
7.50868e-05
0.00800712
2.35383e-05
0.0080035
4.98843e-05
0.00801328
-4.6864e-05
0.00801101
-4.50906e-05
0.00802542
-0.000186861
0.00802197
-0.000173581
0.00802958
-0.000250159
0.00800583
-7.49102e-05
0.00796409
0.000119823
0.00786946
0.000488987
0.00765265
0.00122424
0.00730991
0.00179492
0.00739183
-0.000328701
0.00764127
-0.00123408
0.00777054
-0.000655059
0.00782414
-0.000291317
0.00787995
-0.000218481
0.00790532
-3.77304e-05
0.00792891
-1.77901e-05
0.00792675
9.54544e-05
0.00792802
0.000100233
0.0079154
0.000213784
0.00791025
0.000240057
0.00789852
0.000320801
0.00789506
0.000321178
0.00788844
0.000357634
0.00788862
0.000343686
0.00788659
0.000356047
0.00788929
0.00032845
0.0078901
0.000313855
0.00789363
0.00027153
0.00789508
0.000242553
0.00789741
0.00020004
0.00789726
0.00017129
0.00789654
0.000137086
0.00789318
0.000115512
0.00788842
9.37684e-05
0.00788137
8.06149e-05
0.00787284
6.80542e-05
0.00786269
5.96888e-05
0.00785126
5.25902e-05
0.00783912
4.60875e-05
0.00782599
4.23906e-05
0.00781313
3.55613e-05
0.00779942
3.20636e-05
0.00778684
2.0931e-05
0.0077734
1.22092e-05
0.00776198
-8.63808e-06
0.0077493
-2.70028e-05
0.00773947
-6.03976e-05
0.00772792
-9.32685e-05
0.00772003
-0.000141165
0.00771019
-0.000194412
0.00770464
-0.000258545
0.00769762
-0.00033905
0.00769531
-0.000422355
0.00769266
-0.000525681
-0.000683025
0.00747574
0.000600118
0.00738783
0.00052762
0.00731103
0.000460996
0.00724382
0.000403591
0.00718495
0.000353619
0.00713333
0.000309944
0.00709011
0.000259018
0.00705947
0.000182401
0.00704823
6.46548e-05
0.00706206
-8.67285e-05
0.00710209
-0.000244318
0.00716414
-0.000376132
0.00724043
-0.000461017
0.00732247
-0.00049496
0.00740295
-0.000485004
0.00747706
-0.000446461
0.00754226
-0.000392816
0.00759866
-0.000339766
0.00764713
-0.000291987
0.00768957
-0.000255633
0.00772694
-0.000224962
0.0077605
-0.000201994
0.00779021
-0.000178787
0.00781723
-0.000162549
0.00784101
-0.000143273
0.00786292
-0.000132145
0.00788204
-0.000115567
0.00790002
-0.000108589
0.00791532
-9.21894e-05
0.00793023
-8.88624e-05
0.00794226
-7.00814e-05
0.00795456
-6.88442e-05
0.00796351
-4.47827e-05
0.00797358
-4.54891e-05
0.00797957
-1.3665e-05
0.00798775
-1.72022e-05
0.00799072
2.33012e-05
0.00799747
1.10931e-05
0.00799742
5.85981e-05
0.00800325
2.94033e-05
0.00800057
7.77663e-05
0.00800702
1.70847e-05
0.0080034
5.351e-05
0.00801317
-5.66336e-05
0.0080109
-4.28211e-05
0.0080253
-0.000201268
0.00802185
-0.000170129
0.00802947
-0.000257777
0.00800574
-5.11796e-05
0.00796402
0.000161539
0.00786942
0.000583589
0.00765265
0.00144102
0.00730994
0.00213762
0.00739184
-0.000410604
0.00764124
-0.00148347
0.00777048
-0.0007843
0.00782406
-0.000344897
0.00787986
-0.000274284
0.00790524
-6.31063e-05
0.00792883
-4.1382e-05
0.00792668
9.76e-05
0.00792796
9.89538e-05
0.00791534
0.000226406
0.00791019
0.000245204
0.00789846
0.000332537
0.007895
0.000324633
0.00788838
0.000364257
0.00788855
0.000343516
0.00788652
0.000358075
0.00788923
0.000325746
0.00789003
0.000313047
0.00789356
0.000268008
0.00789501
0.000241102
0.00789733
0.000197714
0.00789718
0.000171443
0.00789646
0.000137803
0.0078931
0.000118875
0.00788834
9.85324e-05
0.00788129
8.76638e-05
0.00787276
7.65826e-05
0.00786261
6.98336e-05
0.00785118
6.40235e-05
0.00783905
5.82207e-05
0.00782592
5.55214e-05
0.00781305
4.84277e-05
0.00779935
4.57657e-05
0.00778677
3.35119e-05
0.00777332
2.56596e-05
0.0077619
2.77831e-06
0.00774921
-1.43146e-05
0.00773938
-5.05617e-05
0.00772782
-8.17135e-05
0.00771992
-0.000133261
0.00771006
-0.000184556
0.00770449
-0.000252976
0.00769745
-0.000332009
0.00769513
-0.000420034
0.00769246
-0.000523008
-0.000687875
0.00747575
0.000700131
0.00738783
0.000615533
0.00731104
0.000537787
0.00724384
0.000470795
0.00718497
0.000412482
0.00713337
0.000361552
0.00709015
0.000302234
0.00705951
0.000213037
0.00704827
7.58972e-05
0.00706208
-0.000100533
0.00710208
-0.000284316
0.00716408
-0.00043814
0.00724034
-0.000537275
0.00732237
-0.00057699
0.00740284
-0.000565469
0.00747694
-0.000520567
0.00754215
-0.000458023
0.00759855
-0.000396164
0.00764701
-0.000340453
0.00768946
-0.000298074
0.00772682
-0.000262325
0.00776038
-0.000235559
0.00779009
-0.000208498
0.0078171
-0.000189559
0.00784088
-0.000167053
0.00786279
-0.000154056
0.00788192
-0.000134692
0.0078999
-0.000126569
0.0079152
-0.000107488
0.00793011
-0.000103769
0.00794214
-8.21138e-05
0.00795444
-8.11454e-05
0.00796338
-5.37275e-05
0.00797346
-5.55657e-05
0.00797945
-1.96532e-05
0.00798763
-2.53813e-05
0.00799061
2.03216e-05
0.00799735
4.34882e-06
0.0079973
5.86472e-05
0.00800314
2.35701e-05
0.00800045
8.0448e-05
0.0080069
1.06346e-05
0.00800327
5.71416e-05
0.00801304
-6.63969e-05
0.00801076
-4.05449e-05
0.00802516
-0.000215672
0.00802171
-0.000166677
0.00802934
-0.000265407
0.00800563
-2.74668e-05
0.00796394
0.000203226
0.00786937
0.000678159
0.00765264
0.00165775
0.00730998
0.00248029
0.00739186
-0.000492487
0.0076412
-0.00173281
0.00777041
-0.000913513
0.00782397
-0.000398459
0.00787977
-0.000330079
0.00790514
-8.84822e-05
0.00792874
-6.49808e-05
0.0079266
9.97383e-05
0.00792789
9.76687e-05
0.00791527
0.000239026
0.00791012
0.00025035
0.00789838
0.000344275
0.00789493
0.00032809
0.0078883
0.000370882
0.00788847
0.000343347
0.00788644
0.000360104
0.00788915
0.000323042
0.00788995
0.000312239
0.00789347
0.000264489
0.00789492
0.000239654
0.00789725
0.000195391
0.00789709
0.000171599
0.00789637
0.000138523
0.00789301
0.000122239
0.00788824
0.000103297
0.00788119
9.47121e-05
0.00787267
8.51098e-05
0.00786252
7.99769e-05
0.00785109
7.54553e-05
0.00783896
7.03529e-05
0.00782583
6.86516e-05
0.00781296
6.12941e-05
0.00779926
5.94683e-05
0.00778668
4.60938e-05
0.00777323
3.9112e-05
0.00776181
1.41978e-05
0.00774911
-1.62127e-06
0.00773927
-4.07191e-05
0.00772771
-7.01485e-05
0.00771979
-0.000125345
0.00770992
-0.000174685
0.00770433
-0.000247391
0.00769727
-0.00032495
0.00769493
-0.000417693
0.00769224
-0.000520317
-0.000692712
0.00747575
0.000800141
0.00738784
0.000703441
0.00731106
0.00061457
0.00724386
0.000537989
0.00718501
0.000471336
0.00713341
0.00041315
0.0070902
0.000345442
0.00705957
0.000243669
0.00704832
8.71488e-05
0.0070621
-0.000114312
0.00710206
-0.000324278
0.00716403
-0.000500107
0.00724025
-0.0006135
0.00732226
-0.000658998
0.00740271
-0.000645922
0.00747682
-0.000594671
0.00754202
-0.000523231
0.00759842
-0.000452563
0.00764689
-0.000388916
0.00768933
-0.000340513
0.00772668
-0.000299684
0.00776025
-0.000269122
0.00778996
-0.000238207
0.00781696
-0.000216567
0.00784074
-0.000190832
0.00786265
-0.000175966
0.00788178
-0.000153817
0.00789976
-0.00014455
0.00791506
-0.000122787
0.00792996
-0.000118675
0.007942
-9.41462e-05
0.0079543
-9.3447e-05
0.00796324
-6.26729e-05
0.00797332
-6.56434e-05
0.00797931
-2.56429e-05
0.00798749
-3.35624e-05
0.00799047
1.73401e-05
0.00799722
-2.39736e-06
0.00799717
5.86958e-05
0.008003
1.77373e-05
0.00800032
8.31324e-05
0.00800677
4.18833e-06
0.00800313
6.07795e-05
0.00801288
-7.61538e-05
0.0080106
-3.82615e-05
0.008025
-0.000230073
0.00802155
-0.000163228
0.0080292
-0.000273051
0.0080055
-3.77401e-06
0.00796385
0.000244879
0.00786932
0.000772693
0.00765263
0.00187443
0.00731002
0.00282291
0.00739188
-0.000574348
0.00764115
-0.00198208
0.00777034
-0.0010427
0.00782388
-0.000452003
0.00787967
-0.000385864
0.00790504
-0.000113856
0.00792864
-8.85854e-05
0.00792651
0.00010187
0.0079278
9.63784e-05
0.00791518
0.000251643
0.00791004
0.000255496
0.0078983
0.000356014
0.00789484
0.000331551
0.00788821
0.000377509
0.00788838
0.000343178
0.00788635
0.000362132
0.00788906
0.000320337
0.00788986
0.000311431
0.00789338
0.00026097
0.00789483
0.000238208
0.00789715
0.000193071
0.00789699
0.000171759
0.00789627
0.000139245
0.0078929
0.000125604
0.00788814
0.000108062
0.00788109
0.00010176
0.00787256
9.36359e-05
0.00786242
9.0119e-05
0.00785099
8.6886e-05
0.00783886
8.24843e-05
0.00782573
8.17814e-05
0.00781286
7.41606e-05
0.00779916
7.31714e-05
0.00778658
5.86769e-05
0.00777312
5.25666e-05
0.0077617
2.56206e-05
0.007749
1.10774e-05
0.00773915
-3.08696e-05
0.00772758
-5.85734e-05
0.00771965
-0.000117418
0.00770976
-0.000164798
0.00770416
-0.000241789
0.00769708
-0.00031787
0.00769472
-0.000415333
0.00769201
-0.000517606
-0.000697535
0.00747575
0.000900149
0.00738785
0.000791344
0.00731107
0.000691344
0.00724389
0.000605174
0.00718505
0.000530178
0.00713346
0.000464736
0.00709026
0.000388641
0.00705963
0.000274298
0.00704837
9.84098e-05
0.00706212
-0.000128065
0.00710204
-0.000364198
0.00716397
-0.00056203
0.00724015
-0.000689687
0.00732214
-0.000740982
0.00740258
-0.000726364
0.00747668
-0.000668771
0.00754189
-0.000588438
0.00759828
-0.00050896
0.00764674
-0.000437377
0.00768918
-0.000382949
0.00772654
-0.00033704
0.0077601
-0.000302682
0.0077898
-0.000267913
0.00781681
-0.000243573
0.00784059
-0.000214609
0.0078625
-0.000197874
0.00788162
-0.000172941
0.0078996
-0.00016253
0.0079149
-0.000138085
0.0079298
-0.000133582
0.00794184
-0.000106179
0.00795414
-0.000105749
0.00796308
-7.16187e-05
0.00797316
-7.5722e-05
0.00797915
-3.16338e-05
0.00798734
-4.17455e-05
0.00799032
1.43568e-05
0.00799707
-9.14524e-06
0.00799702
5.8744e-05
0.00800285
1.19052e-05
0.00800016
8.58197e-05
0.00800661
-2.25377e-06
0.00800296
6.44244e-05
0.00801271
-8.59037e-05
0.00801042
-3.59706e-05
0.00802482
-0.000244471
0.00802137
-0.00015978
0.00802903
-0.000280708
0.00800536
1.98967e-05
0.00796374
0.000286493
0.00786925
0.000867183
0.00765263
0.00209106
0.00731006
0.00316547
0.0073919
-0.000656183
0.00764111
-0.00223129
0.00777026
-0.00117185
0.00782378
-0.000505527
0.00787956
-0.000441637
0.00790493
-0.000139227
0.00792854
-0.000112195
0.00792641
0.000103996
0.0079277
9.50837e-05
0.00791509
0.000264259
0.00790994
0.000260642
0.0078982
0.000367756
0.00789474
0.000335014
0.00788811
0.000384139
0.00788827
0.000343011
0.00788625
0.00036416
0.00788895
0.000317631
0.00788976
0.000310624
0.00789328
0.000257453
0.00789472
0.000236764
0.00789704
0.000190753
0.00789688
0.00017192
0.00789615
0.000139968
0.00789279
0.00012897
0.00788802
0.000112827
0.00788097
0.000108808
0.00787245
0.000102161
0.00786231
0.00010026
0.00785088
9.83158e-05
0.00783875
9.46153e-05
0.00782562
9.4911e-05
0.00781275
8.70274e-05
0.00779905
8.68753e-05
0.00778646
7.12613e-05
0.007773
6.60234e-05
0.00776158
3.70468e-05
0.00774887
2.37814e-05
0.00773902
-2.1013e-05
0.00772743
-4.69879e-05
0.00771949
-0.000109479
0.00770959
-0.000154895
0.00770397
-0.00023617
0.00769687
-0.00031077
0.00769449
-0.000412952
0.00769176
-0.000514876
-0.000702343
0.00747575
0.00100016
0.00738785
0.000879241
0.00731109
0.00076811
0.00724392
0.000672346
0.00718509
0.000589007
0.00713351
0.00051631
0.00709033
0.000431828
0.0070597
0.000304922
0.00704843
0.000109681
0.00706215
-0.000141788
0.00710203
-0.000404073
0.0071639
-0.000623904
0.00724005
-0.000765832
0.007322
-0.000822938
0.00740243
-0.000806792
0.00747653
-0.000742866
0.00754173
-0.000653645
0.00759813
-0.000565356
0.00764659
-0.000485835
0.00768902
-0.00042538
0.00772637
-0.000374392
0.00775993
-0.000336238
0.00778963
-0.000297617
0.00781664
-0.000270578
0.00784041
-0.000238385
0.00786232
-0.000219781
0.00788144
-0.000192063
0.00789942
-0.000180509
0.00791472
-0.000153383
0.00792962
-0.000148488
0.00794166
-0.000118211
0.00795396
-0.000118051
0.0079629
-8.05647e-05
0.00797298
-8.58016e-05
0.00797898
-3.76258e-05
0.00798716
-4.99304e-05
0.00799015
1.13719e-05
0.0079969
-1.58948e-05
0.00799685
5.87921e-05
0.00800268
6.07372e-06
0.00799999
8.85103e-05
0.00800643
-8.69136e-06
0.00800277
6.80768e-05
0.00801252
-9.56462e-05
0.00801022
-3.36715e-05
0.00802461
-0.000258867
0.00802117
-0.000156335
0.00802884
-0.000288382
0.00800519
4.35432e-05
0.00796362
0.000328065
0.00786918
0.000961627
0.00765262
0.00230762
0.00731012
0.00350797
0.00739192
-0.000737989
0.00764106
-0.00248043
0.00777018
-0.00130096
0.00782368
-0.00055903
0.00787944
-0.000497396
0.0079048
-0.000164592
0.00792842
-0.000135807
0.00792629
0.000106119
0.00792759
9.37854e-05
0.00791498
0.000276873
0.00790983
0.000265789
0.00789809
0.0003795
0.00789462
0.00033848
0.00788799
0.000390771
0.00788816
0.000342844
0.00788613
0.000366186
0.00788884
0.000314924
0.00788964
0.000309816
0.00789316
0.000253937
0.0078946
0.000235322
0.00789692
0.000188438
0.00789675
0.000172085
0.00789603
0.000140694
0.00789266
0.000132338
0.00788789
0.000117592
0.00788085
0.000115855
0.00787232
0.000110686
0.00786218
0.0001104
0.00785075
0.000109745
0.00783862
0.000106746
0.00782549
0.000108041
0.00781262
9.98949e-05
0.00779892
0.00010058
0.00778633
8.38473e-05
0.00777287
7.94827e-05
0.00776144
4.84765e-05
0.00774874
3.64909e-05
0.00773887
-1.11493e-05
0.00772728
-3.53918e-05
0.00771932
-0.000101527
0.0077094
-0.000144975
0.00770377
-0.000230533
0.00769664
-0.000303648
0.00769424
-0.00041055
0.00769149
-0.000512124
-0.000707137
0.00747575
0.00110016
0.00738786
0.000967132
0.00731111
0.000844865
0.00724395
0.000739506
0.00718513
0.000647822
0.00713357
0.000567869
0.0070904
0.000475003
0.00705978
0.00033554
0.0070485
0.000120961
0.00706219
-0.000155479
0.00710202
-0.000443899
0.00716384
-0.000685724
0.00723994
-0.000841932
0.00732186
-0.000904863
0.00740227
-0.000887205
0.00747637
-0.000816957
0.00754157
-0.00071885
0.00759796
-0.000621751
0.00764642
-0.000534289
0.00768884
-0.000467806
0.00772619
-0.000411739
0.00775974
-0.00036979
0.00778944
-0.000327318
0.00781645
-0.000297579
0.00784022
-0.000262158
0.00786212
-0.000241687
0.00788125
-0.000211185
0.00789922
-0.000198487
0.00791452
-0.00016868
0.00792943
-0.000163393
0.00794146
-0.000130242
0.00795376
-0.000130353
0.00796271
-8.95109e-05
0.00797279
-9.58819e-05
0.00797878
-4.36189e-05
0.00798697
-5.81171e-05
0.00798995
8.38549e-06
0.0079967
-2.26457e-05
0.00799666
5.88402e-05
0.00800249
2.43328e-07
0.00799979
9.12046e-05
0.00800622
-1.5124e-05
0.00800256
7.17372e-05
0.0080123
-0.000105381
0.00800999
-3.1364e-05
0.00802438
-0.000273261
0.00802094
-0.000152893
0.00802863
-0.000296074
0.00800501
6.71633e-05
0.00796349
0.00036959
0.0078691
0.00105602
0.00765261
0.00252411
0.00731018
0.0038504
0.00739195
-0.000819765
0.007641
-0.00272948
0.00777009
-0.00143005
0.00782357
-0.000612512
0.00787931
-0.000553139
0.00790467
-0.00018995
0.00792829
-0.000159422
0.00792617
0.000108237
0.00792747
9.24842e-05
0.00791485
0.000289486
0.00790971
0.000270936
0.00789796
0.000391246
0.00789449
0.000341948
0.00788786
0.000397405
0.00788802
0.000342678
0.007886
0.000368212
0.00788871
0.000312216
0.00788952
0.000309007
0.00789303
0.000250421
0.00789447
0.000233882
0.00789679
0.000186125
0.00789662
0.000172252
0.00789589
0.000141422
0.00789252
0.000135708
0.00788776
0.000122358
0.00788071
0.000122902
0.00787218
0.000119209
0.00786204
0.00012054
0.00785062
0.000121173
0.00783849
0.000118877
0.00782536
0.000121171
0.00781249
0.000112763
0.00779878
0.000114286
0.00778619
9.64351e-05
0.00777273
9.29444e-05
0.0077613
5.99099e-05
0.00774858
4.92062e-05
0.00773871
-1.27814e-06
0.0077271
-2.37848e-05
0.00771914
-9.35631e-05
0.0077092
-0.000135037
0.00770355
-0.000224878
0.0076964
-0.000296504
0.00769398
-0.000408127
0.00769121
-0.00050935
-0.000711914
0.00747576
0.00120016
0.00738787
0.00105502
0.00731113
0.000921609
0.00724398
0.000806652
0.00718518
0.000706621
0.00713364
0.000619413
0.00709048
0.000518165
0.00705987
0.000366152
0.00704858
0.000132253
0.00706223
-0.000169136
0.00710201
-0.000483672
0.00716377
-0.000747486
0.00723982
-0.000917982
0.00732171
-0.000986755
0.00740211
-0.000967601
0.00747619
-0.000891041
0.00754139
-0.000784053
0.00759778
-0.000678143
0.00764623
-0.000582739
0.00768865
-0.000510227
0.007726
-0.00044908
0.00775954
-0.000403337
0.00778924
-0.000357014
0.00781624
-0.000324578
0.00784001
-0.000285929
0.00786191
-0.000263591
0.00788103
-0.000230304
0.00789901
-0.000216464
0.0079143
-0.000183975
0.00792921
-0.000178298
0.00794124
-0.000142273
0.00795354
-0.000142655
0.00796249
-9.84571e-05
0.00797257
-0.000105963
0.00797856
-4.96128e-05
0.00798675
-6.63055e-05
0.00798974
5.39776e-06
0.00799649
-2.93981e-05
0.00799644
5.88887e-05
0.00800227
-5.58588e-06
0.00799957
9.3903e-05
0.008006
-2.15514e-05
0.00800233
7.54062e-05
0.00801206
-0.000115107
0.00800974
-2.90474e-05
0.00802413
-0.000287652
0.0080207
-0.000149455
0.00802841
-0.000303784
0.00800481
9.07548e-05
0.00796334
0.000411065
0.00786901
0.00115035
0.0076526
0.00274052
0.00731025
0.00419275
0.00739199
-0.000901507
0.00764095
-0.00297844
0.00776999
-0.00155909
0.00782345
-0.000665972
0.00787918
-0.000608864
0.00790453
-0.000215299
0.00792814
-0.000183037
0.00792603
0.000110354
0.00792733
9.1181e-05
0.00791472
0.0003021
0.00790957
0.000276084
0.00789782
0.000402995
0.00789435
0.00034542
0.00788771
0.000404042
0.00788788
0.000342512
0.00788585
0.000370237
0.00788857
0.000309505
0.00788938
0.000308196
0.00789289
0.000246904
0.00789433
0.000232443
0.00789664
0.000183814
0.00789647
0.00017242
0.00789574
0.000142152
0.00789237
0.000139078
0.00788761
0.000127125
0.00788056
0.000129949
0.00787204
0.000127733
0.0078619
0.00013068
0.00785047
0.000132602
0.00783834
0.000131008
0.00782521
0.000134302
0.00781234
0.000125633
0.00779863
0.000127993
0.00778604
0.000109025
0.00777258
0.000106409
0.00776114
7.1347e-05
0.00774842
6.19272e-05
0.00773854
8.60044e-06
0.00772692
-1.21667e-05
0.00771894
-8.55864e-05
0.00770899
-0.000125082
0.00770332
-0.000219204
0.00769615
-0.000289337
0.0076937
-0.000405682
0.00769091
-0.000506552
-0.000716675
0.00747576
0.00130016
0.00738788
0.00114289
0.00731115
0.000998341
0.00724402
0.000873782
0.00718524
0.000765404
0.00713371
0.000670941
0.00709056
0.000561311
0.00705996
0.000396757
0.00704866
0.000143554
0.00706228
-0.000182758
0.007102
-0.000523389
0.0071637
-0.000809184
0.00723969
-0.000993979
0.00732155
-0.00106861
0.00740192
-0.00104798
0.007476
-0.000965118
0.0075412
-0.000849253
0.00759759
-0.000734531
0.00764604
-0.000631183
0.00768845
-0.00055264
0.00772578
-0.000486415
0.00775933
-0.000436879
0.00778902
-0.000386706
0.00781601
-0.000351573
0.00783978
-0.000309697
0.00786168
-0.000285492
0.0078808
-0.000249422
0.00789878
-0.00023444
0.00791407
-0.00019927
0.00792897
-0.000193202
0.007941
-0.000154304
0.00795331
-0.000154956
0.00796225
-0.000107403
0.00797233
-0.000116045
0.00797833
-5.56076e-05
0.00798652
-7.44955e-05
0.00798951
2.40884e-06
0.00799626
-3.61517e-05
0.00799621
5.89377e-05
0.00800204
-1.14136e-05
0.00799934
9.66058e-05
0.00800576
-2.79731e-05
0.00800208
7.90844e-05
0.0080118
-0.000124825
0.00800947
-2.67214e-05
0.00802386
-0.00030204
0.00802043
-0.00014602
0.00802816
-0.000311515
0.0080046
0.000114316
0.00796318
0.000452485
0.00786891
0.00124462
0.00765259
0.00295684
0.00731032
0.00453502
0.00739202
-0.000983213
0.00764089
-0.0032273
0.0077699
-0.0016881
0.00782333
-0.000719408
0.00787904
-0.00066457
0.00790438
-0.000240638
0.00792799
-0.000206652
0.00792588
0.000112469
0.00792718
8.98765e-05
0.00791457
0.000314714
0.00790942
0.000281234
0.00789767
0.000414746
0.00789419
0.000348894
0.00788756
0.00041068
0.00788772
0.000342345
0.0078857
0.00037226
0.00788841
0.000306792
0.00788922
0.000307384
0.00789274
0.000243388
0.00789418
0.000231005
0.00789649
0.000181504
0.00789632
0.000172591
0.00789559
0.000142883
0.00789221
0.00014245
0.00788745
0.000131892
0.0078804
0.000136996
0.00787188
0.000136256
0.00786174
0.000140819
0.00785031
0.00014403
0.00783818
0.00014314
0.00782505
0.000147433
0.00781217
0.000138504
0.00779847
0.000141702
0.00778587
0.000121617
0.00777241
0.000119876
0.00776097
8.27881e-05
0.00774824
7.46542e-05
0.00773835
1.84866e-05
0.00772672
-5.37343e-07
0.00771873
-7.75967e-05
0.00770876
-0.000115109
0.00770307
-0.000213512
0.00769588
-0.000282146
0.00769341
-0.000403214
0.00769059
-0.000503731
-0.00072142
0.00747576
0.00140015
0.0073879
0.00123076
0.00731118
0.00107506
0.00724406
0.000940896
0.0071853
0.000824168
0.00713379
0.00072245
0.00709066
0.000604442
0.00706006
0.000427353
0.00704875
0.000154867
0.00706233
-0.000196342
0.00710199
-0.000563045
0.00716362
-0.000870816
0.00723956
-0.00106992
0.00732138
-0.00115043
0.00740173
-0.00112833
0.0074758
-0.00103919
0.007541
-0.000914451
0.00759738
-0.000790917
0.00764582
-0.000679621
0.00768823
-0.000595047
0.00772556
-0.000523742
0.00775909
-0.000470415
0.00778878
-0.000416393
0.00781577
-0.000378564
0.00783954
-0.000333462
0.00786143
-0.000307391
0.00788055
-0.000268538
0.00789852
-0.000252413
0.00791382
-0.000214563
0.00792872
-0.000208105
0.00794075
-0.000166333
0.00795305
-0.000167258
0.007962
-0.000116349
0.00797208
-0.000126127
0.00797807
-6.16029e-05
0.00798627
-8.26869e-05
0.00798926
-5.81172e-07
0.00799601
-4.29063e-05
0.00799596
5.89875e-05
0.00800179
-1.72398e-05
0.00799908
9.93134e-05
0.0080055
-3.43889e-05
0.00800181
8.27723e-05
0.00801152
-0.000134534
0.00800918
-2.43854e-05
0.00802357
-0.000316426
0.00802014
-0.000142589
0.00802789
-0.000319268
0.00800436
0.000137844
0.007963
0.000493846
0.0078688
0.00133882
0.00765257
0.00317307
0.0073104
0.00487719
0.00739207
-0.00106488
0.00764083
-0.00347606
0.00776979
-0.00181707
0.00782321
-0.000772819
0.00787889
-0.000720255
0.00790422
-0.000265964
0.00792783
-0.000230265
0.00792572
0.000114584
0.00792702
8.85716e-05
0.00791441
0.000327328
0.00790925
0.000286385
0.0078975
0.000426501
0.00789402
0.00035237
0.00788738
0.00041732
0.00788755
0.000342179
0.00788553
0.000374281