/*--------------------------------*- C++ -*----------------------------------*\
| =========                 |                                                 |
| \\      /  F ield         | OpenFOAM: The Open Source CFD Toolbox           |
|  \\    /   O peration     | Version:  2412                                  |
|   \\  /    A nd           | Website:  www.openfoam.com                      |
|    \\/     M anipulation  |                                                 |
\*---------------------------------------------------------------------------*/
FoamFile
{
    version     2.0;
    format      ascii;
    arch        "LSB;label=32;scalar=64";
    class       volVectorField;
    location    "1";
    object      U;
}
// * * * * * * * * * * * * * * * * * * * * * * * * * * * * * * * * * * * * * //

dimensions      [0 1 -1 0 0 0 0];

internalField   nonuniform List<vector> 
13068
(
(100.007 -0.00671748 0)
(100.174 -0.0193153 -6.96505e-19)
(100.534 -0.0311246 -3.41329e-19)
(101.036 -0.041588 0)
(101.702 -0.0509962 0)
(102.489 -0.0596346 0)
(103.425 -0.0698297 -8.32589e-19)
(104.524 -0.0847203 5.06201e-19)
(105.918 -0.106892 0)
(107.701 -0.134915 4.37832e-19)
(109.993 -0.164277 -2.10976e-19)
(112.754 -0.189625 -2.07797e-19)
(115.946 -0.207586 -4.16834e-19)
(119.399 -0.217404 0)
(123.05 -0.22023 0)
(126.732 -0.218456 0)
(130.474 -0.214352 0)
(134.153 -0.210259 -4.45743e-19)
(137.912 -0.207179 -2.20755e-19)
(141.625 -0.205947 2.15877e-19)
(145.514 -0.205885 6.29027e-19)
(149.376 -0.207162 -6.05884e-19)
(153.508 -0.208816 1.94442e-19)
(157.596 -0.211572 0)
(162.057 -0.214421 1.78911e-19)
(166.434 -0.218532 -3.4175e-19)
(171.32 -0.222386 -1.64239e-19)
(176.054 -0.227637 -3.12783e-19)
(181.475 -0.232036 -3.00654e-19)
(186.638 -0.238012 2.84835e-19)
(192.729 -0.242317 -1.36872e-19)
(198.399 -0.248465 -1.28666e-19)
(205.327 -0.251831 0)
(211.59 -0.257494 0)
(219.57 -0.259235 2.21161e-19)
(226.532 -0.26461 -1.01066e-19)
(235.85 -0.265657 0)
(243.639 -0.273155 2.60959e-19)
(254.683 -0.276692 1.69273e-19)
(263.469 -0.290569 2.17915e-19)
(276.783 -0.301741 -2.1552e-19)
(286.821 -0.328662 -5.80218e-20)
(303.202 -0.356639 0)
(314.921 -0.40639 0)
(335.544 -0.461087 -9.51932e-20)
(349.62 -0.536612 0)
(376.026 -0.605206 -1.09695e-19)
(393.25 -0.654548 -1.24942e-20)
(426.784 -0.655569 0)
(447.656 -0.595964 0)
(487.618 -0.525955 -3.13438e-20)
(511.781 -0.352338 0)
(546.806 -0.357083 7.10378e-21)
(570.918 0.0202648 1.23107e-20)
(552.122 0.194522 -1.30078e-21)
(541.932 0.309687 0)
(508.203 0.344983 0)
(492.806 0.384956 -6.03396e-20)
(464.63 0.41044 8.4545e-21)
(449.649 0.40717 -5.3993e-21)
(425.44 0.402511 0)
(410.988 0.401807 -2.01308e-20)
(390.557 0.427519 -2.36479e-20)
(377.385 0.451028 0)
(360.427 0.474872 0)
(348.75 0.484528 9.10427e-20)
(334.713 0.489668 0)
(324.427 0.487716 0)
(312.68 0.481135 0)
(303.561 0.466616 1.01061e-19)
(293.56 0.444657 -1.14794e-19)
(285.397 0.416657 1.78308e-19)
(276.722 0.386017 0)
(269.334 0.354311 0)
(261.656 0.323688 1.46551e-19)
(254.889 0.294616 -1.53278e-19)
(247.967 0.268902 8.16306e-20)
(241.718 0.246396 0)
(235.393 0.227519 1.80886e-19)
(229.61 0.211275 9.4772e-20)
(223.786 0.197409 -1.99128e-19)
(218.45 0.185512 0)
(213.065 0.17531 1.08625e-19)
(208.173 0.166656 -3.39602e-19)
(203.176 0.158755 0)
(198.735 0.150968 3.65564e-19)
(194.069 0.142429 -3.76395e-19)
(190.089 0.131592 -2.60432e-19)
(185.685 0.11908 0)
(182.184 0.101378 0)
(177.959 0.0827025 -4.24758e-19)
(174.968 0.0549459 1.47942e-19)
(170.823 0.0287087 0)
(168.396 -0.0123986 1.58467e-19)
(164.222 -0.0478378 -1.60336e-19)
(162.44 -0.10505 5.12693e-19)
(158.12 -0.152072 3.43367e-19)
(157.101 -0.221048 -1.85707e-19)
(152.494 -0.310178 0)
(100.007 -0.0112062 0)
(100.174 -0.0322281 2.08938e-18)
(100.534 -0.0519436 0)
(101.036 -0.0694221 0)
(101.702 -0.0851261 -1.27704e-18)
(102.489 -0.0994643 0)
(103.425 -0.116213 5.55039e-19)
(104.525 -0.140571 -5.06189e-19)
(105.918 -0.176986 0)
(107.701 -0.223299 -4.37829e-19)
(109.993 -0.272117 0)
(112.753 -0.31448 0)
(115.945 -0.34464 4.16818e-19)
(119.398 -0.361232 0)
(123.049 -0.36612 0)
(126.731 -0.363291 0)
(130.473 -0.356543 0)
(134.152 -0.349811 4.45728e-19)
(137.911 -0.344768 0)
(141.624 -0.342816 -4.31745e-19)
(145.513 -0.342801 -4.19342e-19)
(149.375 -0.345009 4.03915e-19)
(153.507 -0.3478 7.77752e-19)
(157.595 -0.352404 0)
(162.056 -0.357107 3.57816e-19)
(166.433 -0.363916 3.41744e-19)
(171.319 -0.370279 3.28472e-19)
(176.053 -0.379079 9.38336e-19)
(181.474 -0.386548 9.01948e-19)
(186.637 -0.396939 2.84831e-19)
(192.728 -0.404798 0)
(198.398 -0.416314 0)
(205.325 -0.423673 0)
(211.589 -0.435822 4.59709e-19)
(219.569 -0.441978 2.21159e-19)
(226.531 -0.455225 -4.04261e-19)
(235.849 -0.461132 0)
(243.638 -0.478275 -1.73971e-19)
(254.682 -0.487202 -1.69272e-19)
(263.468 -0.513075 -1.45275e-19)
(276.782 -0.530501 1.43679e-19)
(286.82 -0.572754 1.16042e-19)
(303.2 -0.608638 -2.37545e-19)
(314.92 -0.678232 0)
(335.542 -0.743225 -9.51913e-20)
(349.618 -0.84291 1.13039e-19)
(376.024 -0.923112 7.31284e-20)
(393.248 -0.995754 0)
(426.782 -1.00569 -1.03695e-19)
(447.654 -0.953303 -1.96988e-20)
(487.617 -0.883635 3.13433e-20)
(511.78 -0.650125 0)
(546.807 -0.631564 -4.26182e-20)
(570.919 -0.000962139 8.20694e-21)
(552.121 0.318384 -1.66596e-24)
(541.929 0.519844 -1.16057e-19)
(508.199 0.585056 0)
(492.801 0.615262 4.02199e-20)
(464.627 0.645351 0)
(449.646 0.635148 -1.0797e-20)
(425.438 0.634094 0)
(410.987 0.623395 1.34203e-20)
(390.556 0.647097 0)
(377.384 0.658609 0)
(360.426 0.677568 6.49154e-20)
(348.749 0.675502 -6.06941e-20)
(334.712 0.675112 8.23443e-20)
(324.426 0.663169 -8.1907e-20)
(312.679 0.651616 0)
(303.559 0.629125 -3.29163e-25)
(293.559 0.602981 1.14793e-19)
(285.396 0.568801 -2.37742e-19)
(276.721 0.534815 0)
(269.332 0.49854 1.36056e-19)
(261.654 0.465378 -1.4655e-19)
(254.888 0.433013 1.53277e-19)
(247.965 0.40528 1.6326e-19)
(241.717 0.380268 0)
(235.391 0.35949 -1.80886e-19)
(229.608 0.341091 1.89543e-19)
(223.785 0.325129 1.99127e-19)
(218.448 0.311183 0)
(213.064 0.298523 2.17248e-19)
(208.172 0.287871 2.26399e-19)
(203.175 0.277093 0)
(198.734 0.267446 -4.87414e-19)
(194.068 0.25561 5.01854e-19)
(190.088 0.243221 2.60428e-19)
(185.684 0.226999 2.66839e-19)
(182.183 0.208226 0)
(177.958 0.185403 2.83165e-19)
(174.967 0.157139 2.95878e-19)
(170.822 0.126277 0)
(168.394 0.0851187 0)
(164.22 0.0445935 3.20674e-19)
(162.437 -0.0125998 -6.83606e-19)
(158.117 -0.0650312 -3.43381e-19)
(157.098 -0.134331 7.42878e-19)
(152.491 -0.230842 0)
(100.007 -0.0156955 0)
(100.174 -0.0451422 -2.78565e-18)
(100.534 -0.0727645 0)
(101.036 -0.0972589 0)
(101.702 -0.119259 1.27697e-18)
(102.489 -0.139297 0)
(103.425 -0.162598 -1.11003e-18)
(104.525 -0.196422 0)
(105.918 -0.247076 0)
(107.702 -0.311674 0)
(109.992 -0.379943 0)
(112.753 -0.43932 -8.31143e-19)
(115.945 -0.481683 -8.33605e-19)
(119.397 -0.505053 0)
(123.048 -0.512005 0)
(126.73 -0.508123 8.7918e-19)
(130.472 -0.498733 0)
(134.151 -0.489362 -8.91426e-19)
(137.91 -0.482354 0)
(141.622 -0.479683 8.6347e-19)
(145.511 -0.479715 8.38668e-19)
(149.373 -0.482854 0)
(153.506 -0.486781 3.91034e-25)
(157.594 -0.493234 0)
(162.055 -0.499789 4.23288e-25)
(166.432 -0.509297 0)
(171.317 -0.51817 -6.56932e-19)
(176.051 -0.530518 -6.25545e-19)
(181.472 -0.541056 -6.01288e-19)
(186.636 -0.555863 6.24425e-25)
(192.726 -0.567277 5.47472e-19)
(198.396 -0.58416 0)
(205.324 -0.595512 0)
(211.587 -0.614148 -4.597e-19)
(219.567 -0.62472 5.19203e-25)
(226.529 -0.645839 4.04255e-19)
(235.847 -0.656606 0)
(243.636 -0.683393 0)
(254.68 -0.69771 3.3854e-19)
(263.466 -0.735577 2.90549e-19)
(276.78 -0.759256 -2.87354e-19)
(286.818 -0.81684 2.32083e-19)
(303.198 -0.860629 4.75082e-19)
(314.917 -0.950065 0)
(335.539 -1.02535 1.69415e-26)
(349.615 -1.1492 -1.13036e-19)
(376.02 -1.24101 0)
(393.244 -1.33696 0)
(426.778 -1.35581 1.03695e-19)
(447.651 -1.31065 1.96985e-20)
(487.616 -1.24132 0)
(511.779 -0.94792 0)
(546.807 -0.906055 5.68155e-20)
(570.92 -0.0221816 7.40814e-25)
(552.12 0.442266 -8.735e-22)
(541.926 0.730013 -1.16037e-19)
(508.195 0.825133 0)
(492.797 0.845564 0)
(464.623 0.880253 0)
(449.642 0.863115 3.23877e-20)
(425.435 0.865667 0)
(410.985 0.844974 -2.68435e-20)
(390.554 0.866668 0)
(377.382 0.866185 0)
(360.425 0.880261 -6.49141e-20)
(348.748 0.866476 0)
(334.71 0.860557 -8.23432e-20)
(324.424 0.838622 8.19066e-20)
(312.677 0.822097 1.97776e-19)
(303.558 0.791634 -1.0106e-19)
(293.557 0.761305 -2.29584e-19)
(285.394 0.720947 3.56609e-19)
(276.719 0.683615 0)
(269.331 0.642769 -1.36055e-19)
(261.652 0.60707 2.93096e-19)
(254.886 0.57141 0)
(247.963 0.541658 -1.63259e-19)
(241.715 0.514139 0)
(235.389 0.491458 0)
(229.607 0.470905 -1.89542e-19)
(223.783 0.452845 0)
(218.447 0.436851 -4.16432e-19)
(213.062 0.421733 2.17246e-19)
(208.171 0.409083 0)
(203.173 0.395428 0)
(198.732 0.383921 2.43703e-19)
(194.066 0.368789 -7.52769e-19)
(190.087 0.35485 0)
(185.683 0.334919 2.66833e-19)
(182.182 0.315075 0)
(177.957 0.288105 -5.66315e-19)
(174.965 0.259337 2.95871e-19)
(170.82 0.223851 0)
(168.392 0.182643 0)
(164.217 0.137033 -3.20674e-19)
(162.435 0.0798591 3.41809e-19)
(158.114 0.0220187 0)
(157.095 -0.0476065 3.71462e-19)
(152.487 -0.151502 0)
(100.007 -0.0201853 0)
(100.174 -0.058058 2.78546e-18)
(100.534 -0.0935883 1.36507e-18)
(101.036 -0.125099 1.3286e-18)
(101.703 -0.153397 -1.27689e-18)
(102.489 -0.179134 0)
(103.426 -0.208987 2.21993e-18)
(104.526 -0.252274 1.01231e-18)
(105.919 -0.317162 0)
(107.702 -0.400038 0)
(109.992 -0.487755 -8.43869e-19)
(112.752 -0.564145 8.31128e-19)
(115.944 -0.618712 8.33582e-19)
(119.396 -0.648863 0)
(123.047 -0.657885 8.63047e-19)
(126.728 -0.652952 -8.79146e-19)
(130.47 -0.640921 -8.90413e-19)
(134.15 -0.628912 8.91401e-19)
(137.909 -0.619939 0)
(141.621 -0.616546 -1.7269e-18)
(145.51 -0.616625 4.32075e-25)
(149.372 -0.620695 0)
(153.504 -0.625759 5.02549e-25)
(157.592 -0.63406 7.44637e-19)
(162.053 -0.642468 5.44934e-25)
(166.43 -0.654675 0)
(171.315 -0.666057 -5.7569e-25)
(176.049 -0.681954 0)
(181.47 -0.695561 0)
(186.634 -0.714783 8.06134e-25)
(192.724 -0.729751 -5.47462e-19)
(198.394 -0.752002 0)
(205.322 -0.767347 0)
(211.585 -0.79247 4.59692e-19)
(219.565 -0.807458 -8.84605e-19)
(226.527 -0.836449 -4.0425e-19)
(235.845 -0.852076 0)
(243.634 -0.888507 -3.47938e-19)
(254.678 -0.908213 -3.38536e-19)
(263.464 -0.958075 -5.81093e-19)
(276.777 -0.988006 -5.21334e-25)
(286.815 -1.06092 1.18194e-24)
(303.195 -1.11261 -2.37537e-19)
(314.914 -1.22189 1.72986e-19)
(335.535 -1.30747 3.80748e-19)
(349.611 -1.45548 -1.13035e-19)
(376.016 -1.5589 0)
(393.239 -1.67816 0)
(426.774 -1.70593 0)
(447.648 -1.668 0)
(487.613 -1.59901 0)
(511.778 -1.24573 0)
(546.808 -1.18056 -2.84032e-20)
(570.923 -0.0433924 -1.64092e-20)
(552.119 0.56617 1.74198e-21)
(541.923 0.940193 2.32017e-19)
(508.191 1.06521 0)
(492.792 1.07586 -8.04184e-20)
(464.618 1.11515 0)
(449.638 1.09107 -1.30347e-24)
(425.432 1.09723 -6.15987e-20)
(410.982 1.06654 2.68427e-20)
(390.552 1.08624 9.45908e-20)
(377.38 1.07376 7.5011e-20)
(360.423 1.08295 1.29827e-19)
(348.746 1.05745 1.21386e-19)
(334.708 1.046 -1.64684e-19)
(324.422 1.01407 1.63812e-19)
(312.675 0.992574 -6.07853e-25)
(303.556 0.954139 0)
(293.555 0.919626 4.59165e-19)
(285.392 0.87309 -6.34919e-25)
(276.717 0.832413 0)
(269.328 0.786997 -2.72106e-19)
(261.65 0.748759 -2.93094e-19)
(254.883 0.709805 -3.06548e-19)
(247.961 0.678033 3.26514e-19)
(241.712 0.648006 3.42138e-19)
(235.387 0.623423 0)
(229.604 0.600714 0)
(223.781 0.580557 0)
(218.445 0.562515 1.74395e-25)
(213.06 0.544939 -8.68976e-19)
(208.169 0.530291 0)
(203.172 0.51376 0)
(198.731 0.500394 -4.87398e-19)
(194.065 0.481967 5.01835e-19)
(190.085 0.466477 0)
(185.681 0.442838 -5.33654e-19)
(182.18 0.421925 0)
(177.955 0.390809 -4.41279e-25)
(174.964 0.361538 -5.91726e-19)
(170.818 0.321429 0)
(168.39 0.280173 0)
(164.215 0.229478 0)
(162.432 0.172324 0)
(158.111 0.109074 0)
(157.092 0.0391217 5.80754e-25)
(152.484 -0.0721612 0)
(100.007 -0.0246758 0)
(100.174 -0.0709759 1.39264e-18)
(100.534 -0.114415 -1.36498e-18)
(101.036 -0.152944 -1.32851e-18)
(101.703 -0.187539 -1.27681e-18)
(102.49 -0.218976 0)
(103.426 -0.25538 -1.10989e-18)
(104.526 -0.308127 -1.01225e-18)
(105.919 -0.387244 0)
(107.702 -0.48839 1.75129e-18)
(109.992 -0.595547 8.43866e-19)
(112.752 -0.688949 -1.66225e-18)
(115.943 -0.755724 1.66714e-18)
(119.395 -0.792662 0)
(123.045 -0.803758 -8.63023e-19)
(126.727 -0.797778 -1.75824e-18)
(130.469 -0.783108 2.67117e-18)
(134.148 -0.768459 0)
(137.907 -0.75752 0)
(141.619 -0.753406 8.63436e-19)
(145.508 -0.75353 -8.38634e-19)
(149.37 -0.758531 0)
(153.502 -0.764732 7.77703e-19)
(157.59 -0.774882 -7.44619e-19)
(162.051 -0.785142 -7.15586e-19)
(166.428 -0.800048 0)
(171.313 -0.813939 6.56905e-19)
(176.047 -0.833385 0)
(181.468 -0.850061 0)
(186.631 -0.873698 -5.6963e-19)
(192.722 -0.89222 0)
(198.391 -0.919839 0)
(205.319 -0.939177 0)
(211.582 -0.970787 -4.59683e-19)
(219.562 -0.990191 1.32689e-18)
(226.524 -1.02705 4.04243e-19)
(235.842 -1.04754 0)
(243.631 -1.09362 1.0438e-18)
(254.675 -1.11871 -6.77067e-19)
(263.461 -1.18057 2.90544e-19)
(276.774 -1.21675 2.87347e-19)
(286.812 -1.30499 -2.32077e-19)
(303.191 -1.36458 -4.75067e-19)
(314.91 -1.4937 -1.72982e-19)
(335.531 -1.58957 -5.71109e-19)
(349.605 -1.76174 3.39097e-19)
(376.011 -1.87678 0)
(393.234 -2.01935 0)
(426.769 -2.05605 2.07386e-19)
(447.643 -2.02535 0)
(487.611 -1.95672 0)
(511.776 -1.54355 0)
(546.81 -1.45509 0)
(570.926 -0.0645926 3.28163e-20)
(552.117 0.6901 -1.75455e-21)
(541.919 1.15039 -2.31966e-19)
(508.186 1.3053 0)
(492.787 1.30616 8.04094e-20)
(464.613 1.35003 0)
(449.634 1.31901 -2.15874e-20)
(425.428 1.32878 6.15961e-20)
(410.979 1.28811 -2.68466e-20)
(390.549 1.3058 -9.4589e-20)
(377.377 1.28133 -7.50097e-20)
(360.42 1.28564 8.06086e-25)
(348.743 1.24842 9.97347e-25)
(334.705 1.23144 3.29364e-19)
(324.419 1.18952 -1.63812e-19)
(312.672 1.16305 -1.97775e-19)
(303.553 1.11664 0)
(293.553 1.07794 -7.77539e-25)
(285.39 1.02523 -2.37735e-19)
(276.715 0.98121 0)
(269.326 0.931225 5.95836e-25)
(261.648 0.890447 2.93089e-19)
(254.881 0.848198 5.49123e-25)
(247.958 0.814405 -6.14719e-25)
(241.71 0.78187 -3.42135e-19)
(235.385 0.755384 0)
(229.602 0.730519 3.79078e-19)
(223.779 0.708265 0)
(218.443 0.688175 4.16425e-19)
(213.058 0.668142 8.68967e-19)
(208.167 0.651497 -4.52782e-19)
(203.17 0.632089 0)
(198.729 0.616865 9.74777e-19)
(194.063 0.595143 5.01824e-19)
(190.083 0.578103 5.20821e-19)
(185.68 0.550756 5.33641e-19)
(182.178 0.528776 0)
(177.953 0.493515 5.66281e-19)
(174.961 0.463742 5.91709e-19)
(170.815 0.419011 0)
(168.387 0.377709 0)
(164.212 0.321929 6.41337e-19)
(162.429 0.264797 -6.83629e-19)
(158.108 0.196138 0)
(157.088 0.125857 -1.48599e-18)
(152.479 0.00718347 0)
(100.007 -0.0291672 0)
(100.174 -0.0838963 7.47751e-24)
(100.534 -0.135247 0)
(101.036 -0.180794 2.65685e-18)
(101.703 -0.221688 2.55342e-18)
(102.49 -0.258825 0)
(103.427 -0.301778 0)
(104.527 -0.363983 0)
(105.92 -0.45732 0)
(107.703 -0.576728 -1.75128e-18)
(109.992 -0.703319 0)
(112.751 -0.81373 3.3245e-18)
(115.941 -0.892715 6.13039e-25)
(119.393 -0.936446 0)
(123.043 -0.949622 0)
(126.725 -0.9426 -6.67642e-25)
(130.467 -0.925291 -1.78075e-18)
(134.146 -0.908003 0)
(137.905 -0.895096 0)
(141.617 -0.89026 0)
(145.506 -0.89043 0)
(149.367 -0.896362 0)
(153.5 -0.9037 -1.55537e-18)
(157.587 -0.915698 0)
(162.049 -0.927811 0)
(166.425 -0.945416 0)
(171.31 -0.961815 0)
(176.044 -0.984811 -1.25102e-18)
(181.465 -1.00456 0)
(186.628 -1.03261 1.13924e-18)
(192.719 -1.05468 0)
(198.388 -1.08767 -1.02924e-18)
(205.316 -1.111 -9.89235e-19)
(211.579 -1.1491 0)
(219.559 -1.17292 -8.84575e-19)
(226.521 -1.21765 -8.08477e-19)
(235.839 -1.243 0)
(243.627 -1.29872 -6.95864e-19)
(254.672 -1.3292 1.35412e-18)
(263.457 -1.40305 0)
(276.77 -1.44548 0)
(286.808 -1.54904 0)
(303.187 -1.61654 4.75058e-19)
(314.904 -1.76549 0)
(335.525 -1.87166 3.80731e-19)
(349.599 -2.06799 -2.26059e-19)
(376.004 -2.19464 -2.92488e-19)
(393.227 -2.36053 0)
(426.763 -2.40617 -2.07385e-19)
(447.637 -2.38271 0)
(487.607 -2.31443 -1.25359e-19)
(511.773 -1.84139 2.10948e-19)
(546.811 -1.72965 -5.6775e-20)
(570.93 -0.0857803 -6.56208e-20)
(552.115 0.814062 1.75399e-21)
(541.915 1.36059 -6.25274e-24)
(508.18 1.54539 0)
(492.781 1.53645 0)
(464.607 1.58491 0)
(449.629 1.54695 2.15829e-20)
(425.423 1.56032 0)
(410.975 1.50966 2.68461e-20)
(390.545 1.52535 9.45907e-20)
(377.374 1.48889 7.50131e-20)
(360.417 1.48833 -1.29823e-19)
(348.74 1.43939 -1.21383e-19)
(334.702 1.41688 -1.6468e-19)
(324.416 1.36496 1.63811e-19)
(312.669 1.33352 0)
(303.55 1.27914 0)
(293.55 1.23626 -7.53536e-25)
(285.387 1.17737 -2.37733e-19)
(276.712 1.13001 0)
(269.323 1.07545 2.721e-19)
(261.645 1.03213 -2.93086e-19)
(254.878 0.986589 3.06541e-19)
(247.955 0.950775 -3.26508e-19)
(241.707 0.915731 0)
(235.382 0.887341 0)
(229.599 0.86032 -3.79075e-19)
(223.776 0.835969 -3.98242e-19)
(218.44 0.81383 0)
(213.056 0.79134 9.42588e-26)
(208.165 0.772698 4.52777e-19)
(203.168 0.750415 0)
(198.727 0.733333 -4.87379e-19)
(194.061 0.708316 -5.01812e-19)
(190.081 0.689727 -5.20805e-19)
(185.677 0.658673 -5.33624e-19)
(182.176 0.635627 0)
(177.95 0.596222 -5.66264e-19)
(174.959 0.565949 -5.91689e-19)
(170.813 0.516598 0)
(168.384 0.475251 0)
(164.209 0.414388 -1.28266e-18)
(162.425 0.357278 6.83629e-19)
(158.104 0.283209 0)
(157.084 0.212598 7.43024e-19)
(152.475 0.0865312 0)
(100.007 -0.0336597 0)
(100.174 -0.0968198 -5.56975e-18)
(100.534 -0.156083 0)
(101.037 -0.208651 -2.65665e-18)
(101.704 -0.255843 0)
(102.491 -0.298681 0)
(103.428 -0.348184 -2.21938e-18)
(104.528 -0.419841 0)
(105.921 -0.527393 0)
(107.703 -0.665052 1.75128e-18)
(109.992 -0.811068 1.68776e-18)
(112.751 -0.938485 9.91177e-25)
(115.94 -1.02968 -1.66715e-18)
(119.391 -1.08021 0)
(123.041 -1.09548 0)
(126.722 -1.08742 3.51641e-18)
(130.464 -1.06747 0)
(134.144 -1.04754 -1.78273e-18)
(137.902 -1.03267 1.76584e-18)
(141.615 -1.02711 0)
(145.503 -1.02732 0)
(149.365 -1.03419 -1.61549e-18)
(153.497 -1.04266 1.55533e-18)
(157.585 -1.05651 -1.48917e-18)
(162.046 -1.07047 0)
(166.422 -1.09078 0)
(171.307 -1.10968 0)
(176.041 -1.13623 1.25099e-18)
(181.462 -1.15904 0)
(186.625 -1.19151 2.70715e-24)
(192.715 -1.21714 -1.09487e-18)
(198.385 -1.25549 1.02922e-18)
(205.312 -1.28282 9.89217e-19)
(211.576 -1.3274 9.19339e-19)
(219.555 -1.35564 0)
(226.517 -1.40825 8.08464e-19)
(235.835 -1.43845 0)
(243.623 -1.50381 0)
(254.667 -1.53968 -6.77055e-19)
(263.453 -1.62552 5.8109e-19)
(276.766 -1.6742 -5.74686e-19)
(286.803 -1.79309 4.64154e-19)
(303.182 -1.86848 0)
(314.899 -2.03727 -3.45959e-19)
(335.519 -2.15373 0)
(349.592 -2.37422 0)
(375.997 -2.51249 2.92482e-19)
(393.219 -2.7017 -9.99528e-20)
(426.756 -2.75628 -2.07384e-19)
(447.63 -2.74007 -3.93889e-20)
(487.603 -2.67216 1.25354e-19)
(511.77 -2.13925 -4.21867e-19)
(546.813 -2.00425 5.67642e-20)
(570.934 -0.106954 3.28035e-20)
(552.114 0.938059 0)
(541.91 1.57081 2.3183e-19)
(508.175 1.78548 0)
(492.775 1.76674 -1.6079e-19)
(464.601 1.81978 0)
(449.623 1.77487 -2.15819e-20)
(425.418 1.79185 0)
(410.97 1.7312 0)
(390.541 1.74489 -9.45895e-20)
(377.37 1.69645 -7.50121e-20)
(360.413 1.69101 0)
(348.736 1.63035 2.42766e-19)
(334.698 1.60231 3.29355e-19)
(324.412 1.5404 -1.6381e-19)
(312.666 1.50398 0)
(303.547 1.44163 0)
(293.547 1.39457 -2.29577e-19)
(285.384 1.32951 7.13191e-19)
(276.709 1.2788 0)
(269.32 1.21967 0)
(261.641 1.17382 5.86162e-19)
(254.874 1.12498 0)
(247.952 1.08714 6.53007e-19)
(241.704 1.04959 6.84257e-19)
(235.379 1.01929 -7.23515e-19)
(229.596 0.990115 0)
(223.773 0.963667 3.98239e-19)
(218.437 0.939481 -8.32834e-19)
(213.053 0.914534 -4.34475e-19)
(208.162 0.893895 0)
(203.165 0.868737 0)
(198.724 0.849797 9.7474e-19)
(194.058 0.821487 -1.0036e-18)
(190.078 0.801349 0)
(185.675 0.766589 1.06721e-18)
(182.173 0.742477 0)
(177.948 0.698929 -5.66246e-19)
(174.956 0.668159 1.18334e-18)
(170.81 0.614187 0)
(168.381 0.572799 0)
(164.205 0.506852 6.41316e-19)
(162.421 0.449767 1.36725e-18)
(158.099 0.370287 0)
(157.079 0.299346 0)
(152.47 0.165882 0)
(100.007 -0.0381534 2.82613e-18)
(100.174 -0.109747 2.78467e-18)
(100.534 -0.176925 0)
(101.037 -0.236514 2.65645e-18)
(101.704 -0.290007 0)
(102.492 -0.338545 -2.40614e-18)
(103.428 -0.394597 4.43826e-18)
(104.529 -0.475704 -2.02406e-18)
(105.922 -0.597461 -1.86262e-18)
(107.704 -0.75336 -3.50256e-18)
(109.992 -0.918791 -1.68779e-18)
(112.75 -1.06321 -3.32464e-18)
(115.939 -1.16663 -1.66719e-18)
(119.389 -1.22396 0)
(123.039 -1.24132 1.72603e-18)
(126.72 -1.23223 -1.75821e-18)
(130.462 -1.20965 0)
(134.141 -1.18708 1.78274e-18)
(137.9 -1.17023 1.3293e-24)
(141.612 -1.16395 0)
(145.501 -1.16421 -1.67718e-18)
(149.362 -1.172 1.61545e-18)
(153.494 -1.18161 1.90583e-24)
(157.581 -1.19731 2.97825e-18)
(162.042 -1.21313 1.43107e-18)
(166.419 -1.23613 0)
(171.304 -1.25755 0)
(176.038 -1.28764 0)
(181.458 -1.31352 0)
(186.621 -1.3504 -1.1392e-18)
(192.712 -1.37959 1.09485e-18)
(198.381 -1.42331 0)
(205.308 -1.45462 9.89204e-19)
(211.571 -1.5057 -1.83865e-18)
(219.551 -1.53835 8.84551e-19)
(226.512 -1.59883 0)
(235.83 -1.63389 7.80493e-19)
(243.619 -1.7089 -6.95862e-19)
(254.663 -1.75015 0)
(263.448 -1.84798 -1.16218e-18)
(276.76 -1.9029 1.14936e-18)
(286.797 -2.03711 -4.64149e-19)
(303.176 -2.1204 4.75046e-19)
(314.892 -2.30902 3.45952e-19)
(335.511 -2.43577 -3.80716e-19)
(349.584 -2.68042 2.26058e-19)
(375.988 -2.83032 -2.92477e-19)
(393.21 -3.04286 9.99511e-20)
(426.748 -3.10639 2.07381e-19)
(447.623 -3.09744 1.7339e-24)
(487.598 -3.0299 -1.25348e-19)
(511.767 -2.43714 2.10918e-19)
(546.815 -2.27888 0)
(570.939 -0.128111 -6.56021e-20)
(552.112 1.0621 -3.56372e-21)
(541.906 1.78104 0)
(508.169 2.02558 -2.77039e-20)
(492.768 1.99703 1.60779e-19)
(464.594 2.05464 -6.75997e-20)
(449.617 2.00277 0)
(425.412 2.02337 0)
(410.965 1.95273 0)
(390.536 1.96443 0)
(377.366 1.904 0)
(360.409 1.89369 0)
(348.731 1.82131 -2.42762e-19)
(334.694 1.78774 -3.29351e-19)
(324.408 1.71584 0)
(312.661 1.67444 0)
(303.543 1.60412 0)
(293.543 1.55287 0)
(285.38 1.48164 -9.50911e-19)
(276.705 1.42759 0)
(269.316 1.36389 0)
(261.638 1.3155 -5.86154e-19)
(254.871 1.26336 0)
(247.948 1.2235 -6.53e-19)
(241.7 1.18344 -6.8425e-19)
(235.375 1.15124 7.23508e-19)
(229.593 1.11991 -7.58137e-19)
(223.77 1.09136 7.96471e-19)
(218.434 1.06513 -2.79139e-25)
(213.05 1.03772 0)
(208.159 1.01509 0)
(203.162 0.987055 9.38189e-19)
(198.721 0.966257 2.91048e-25)
(194.055 0.934654 -1.09753e-24)
(190.075 0.912967 1.04155e-18)
(185.672 0.874503 -2.13435e-18)
(182.17 0.849326 0)
(177.945 0.801637 1.13245e-18)
(174.953 0.770371 -1.18329e-18)
(170.806 0.71178 0)
(168.377 0.670353 0)
(164.201 0.599322 -1.2826e-18)
(162.417 0.542264 -1.36723e-18)
(158.095 0.457372 0)
(157.074 0.3861 0)
(152.465 0.245234 0)
(100.007 -0.0426485 -2.8259e-18)
(100.174 -0.122677 2.78447e-18)
(100.535 -0.197772 2.7292e-18)
(101.037 -0.264386 9.23453e-24)
(101.705 -0.32418 0)
(102.492 -0.378419 2.40585e-18)
(103.429 -0.441018 -2.21885e-18)
(104.53 -0.531572 4.04773e-18)
(105.923 -0.667525 1.86254e-18)
(107.705 -0.84165 3.50258e-18)
(109.993 -1.02649 0)
(112.749 -1.18791 1.66238e-18)
(115.938 -1.30354 1.66725e-18)
(119.387 -1.36769 0)
(123.037 -1.38715 8.48639e-25)
(126.718 -1.37703 0)
(130.459 -1.35181 -1.78077e-18)
(134.139 -1.3266 0)
(137.897 -1.30779 -1.76584e-18)
(141.609 -1.30078 -1.7268e-18)
(145.497 -1.30109 3.35431e-18)
(149.359 -1.30981 -1.61542e-18)
(153.491 -1.32056 -1.55525e-18)
(157.578 -1.3381 -1.48908e-18)
(162.039 -1.35577 2.31463e-24)
(166.415 -1.38147 0)
(171.3 -1.4054 0)
(176.034 -1.43904 1.25095e-18)
(181.454 -1.46799 0)
(186.617 -1.50929 1.13918e-18)
(192.707 -1.54202 0)
(198.376 -1.59111 0)
(205.303 -1.62642 -9.89186e-19)
(211.567 -1.68398 1.83862e-18)
(219.546 -1.72105 -1.76908e-18)
(226.507 -1.7894 0)
(235.825 -1.82933 2.83647e-24)
(243.613 -1.91397 6.95855e-19)
(254.657 -1.96061 6.77052e-19)
(263.442 -2.07042 5.81087e-19)
(276.754 -2.13159 -5.74676e-19)
(286.791 -2.28112 4.64153e-19)
(303.169 -2.37229 1.93257e-24)
(314.884 -2.58075 0)
(335.503 -2.71779 3.80708e-19)
(349.575 -2.98661 -2.26053e-19)
(375.979 -3.14812 2.92472e-19)
(393.2 -3.38401 0)
(426.739 -3.45649 0)
(447.614 -3.45482 3.93852e-20)
(487.592 -3.38765 2.50684e-19)
(511.763 -2.73506 0)
(546.818 -2.55356 -1.13439e-19)
(570.945 -0.14925 6.55819e-20)
(552.11 1.18618 3.56215e-21)
(541.901 1.99129 0)
(508.162 2.26568 5.53914e-20)
(492.761 2.22732 1.60771e-19)
(464.586 2.2895 1.35194e-19)
(449.61 2.23067 -4.31479e-20)
(425.406 2.25487 1.23192e-19)
(410.959 2.17425 0)
(390.531 2.18395 0)
(377.36 2.11154 1.50037e-19)
(360.404 2.09635 2.59639e-19)
(348.726 2.01226 2.42764e-19)
(334.689 1.97316 -3.29346e-19)
(324.403 1.89126 3.2762e-19)
(312.657 1.84489 0)
(303.538 1.76659 -4.04233e-19)
(293.538 1.71117 4.59143e-19)
(285.376 1.63376 4.7545e-19)
(276.701 1.57637 0)
(269.312 1.50811 -5.44175e-19)
(261.634 1.45717 0)
(254.867 1.40174 0)
(247.944 1.35986 6.5299e-19)
(241.696 1.31729 6.84242e-19)
(235.372 1.28318 0)
(229.589 1.24969 7.58129e-19)
(223.767 1.21905 -7.96463e-19)
(218.431 1.19077 8.32818e-19)
(213.047 1.16091 -8.68933e-19)
(208.156 1.13628 0)
(203.159 1.10537 -1.87635e-18)
(198.718 1.08271 -9.74701e-19)
(194.052 1.04782 1.00355e-18)
(190.072 1.02458 -2.08302e-18)
(185.669 0.982414 1.06713e-18)
(182.167 0.956175 0)
(177.942 0.904345 -1.13241e-18)
(174.949 0.872585 0)
(170.803 0.809376 0)
(168.374 0.767912 0)
(164.197 0.691798 1.28257e-18)
(162.413 0.634768 0)
(158.09 0.544464 0)
(157.069 0.472861 0)
(152.459 0.324589 0)
(100.007 -0.047145 2.82569e-18)
(100.174 -0.135612 -2.78425e-18)
(100.535 -0.218627 -2.72899e-18)
(101.038 -0.292266 -2.656e-18)
(101.705 -0.358363 0)
(102.493 -0.418303 0)
(103.43 -0.487449 -2.21855e-18)
(104.531 -0.587445 -4.0473e-18)
(105.924 -0.737585 1.86246e-18)
(107.706 -0.929923 -1.7513e-18)
(109.993 -1.13415 0)
(112.749 -1.31256 0)
(115.936 -1.44042 0)
(119.385 -1.51139 0)
(123.034 -1.53296 -1.72611e-18)
(126.715 -1.52182 -1.75828e-18)
(130.457 -1.49398 3.56162e-18)
(134.136 -1.46613 0)
(137.894 -1.44534 1.76586e-18)
(141.606 -1.4376 -2.0519e-24)
(145.494 -1.43795 -1.67713e-18)
(149.355 -1.44761 1.61538e-18)
(153.487 -1.45949 0)
(157.574 -1.47889 -2.97808e-18)
(162.035 -1.49841 -1.43099e-18)
(166.411 -1.52681 0)
(171.296 -1.55324 0)
(176.029 -1.59043 -1.25092e-18)
(181.45 -1.62245 0)
(186.612 -1.66816 1.13917e-18)
(192.702 -1.70445 2.18963e-18)
(198.371 -1.75891 2.05836e-18)
(205.298 -1.7982 -1.97835e-18)
(211.561 -1.86225 -9.19298e-19)
(219.541 -1.90373 8.84526e-19)
(226.502 -1.97996 0)
(235.819 -2.02474 -2.34145e-18)
(243.607 -2.11903 0)
(254.651 -2.17105 -2.03115e-18)
(263.436 -2.29285 -1.16219e-18)
(276.748 -2.36025 0)
(286.784 -2.52511 -4.64148e-19)
(303.161 -2.62417 -4.75033e-19)
(314.876 -2.85246 -6.91906e-19)
(335.494 -2.99978 0)
(349.565 -3.29277 -4.52114e-19)
(375.968 -3.46591 -5.84936e-19)
(393.189 -3.72514 0)
(426.728 -3.80658 0)
(447.604 -3.8122 7.87598e-20)
(487.586 -3.74543 -1.25336e-19)
(511.759 -3.03302 4.21809e-19)
(546.82 -2.82829 1.13412e-19)
(570.952 -0.170368 -6.55765e-20)
(552.107 1.31031 0)
(541.895 2.20155 0)
(508.156 2.50579 -2.76877e-20)
(492.754 2.45761 -1.60764e-19)
(464.579 2.52435 -6.75954e-20)
(449.602 2.45855 4.31469e-20)
(425.399 2.48636 -2.46383e-19)
(410.953 2.39576 0)
(390.525 2.40347 0)
(377.354 2.31907 6.09042e-24)
(360.398 2.29902 -2.59635e-19)
(348.721 2.20321 -2.4276e-19)
(334.683 2.15858 3.29342e-19)
(324.397 2.06668 -3.27618e-19)
(312.652 2.01533 0)
(303.533 1.92906 -3.44345e-25)
(293.534 1.86946 -9.18279e-19)
(285.371 1.78588 -4.75445e-19)
(276.696 1.72515 -5.22105e-19)
(269.307 1.65232 5.44166e-19)
(261.629 1.59884 0)
(254.862 1.54011 0)
(247.94 1.49621 -6.52981e-19)
(241.692 1.45113 2.58383e-25)
(235.368 1.41512 7.23492e-19)
(229.585 1.37947 7.58122e-19)
(223.763 1.34673 -7.96456e-19)
(218.427 1.3164 0)
(213.043 1.28409 8.68924e-19)
(208.152 1.25746 0)
(203.155 1.22368 9.38161e-19)
(198.714 1.19916 -9.74682e-19)
(194.049 1.16098 0)
(190.069 1.1362 1.04148e-18)
(185.665 1.09032 0)
(182.164 1.06302 0)
(177.938 1.00705 1.13236e-18)
(174.946 0.9748 0)
(170.799 0.906974 0)
(168.369 0.865476 0)
(164.193 0.784279 0)
(162.408 0.727279 0)
(158.085 0.631563 0)
(157.063 0.559628 0)
(152.453 0.403946 0)
(100.007 -0.0516432 -2.82546e-18)
(100.174 -0.148552 0)
(100.535 -0.239489 0)
(101.038 -0.320156 0)
(101.706 -0.392557 0)
(102.494 -0.458199 0)
(103.431 -0.533891 2.21821e-18)
(104.532 -0.643326 2.02341e-18)
(105.925 -0.807641 1.86237e-18)
(107.707 -1.01818 3.50262e-18)
(109.993 -1.24178 0)
(112.748 -1.43718 3.32511e-18)
(115.934 -1.57727 3.33485e-18)
(119.383 -1.65507 0)
(123.031 -1.67876 0)
(126.712 -1.6666 1.75835e-18)
(130.454 -1.63613 1.78087e-18)
(134.132 -1.60564 0)
(137.891 -1.58288 -1.76588e-18)
(141.602 -1.57441 1.7268e-18)
(145.49 -1.57481 0)
(149.351 -1.58539 0)
(153.483 -1.59842 3.11032e-18)
(157.57 -1.61966 2.97799e-18)
(162.031 -1.64103 -2.86189e-18)
(166.407 -1.67213 2.73339e-18)
(171.291 -1.70107 0)
(176.025 -1.74181 0)
(181.445 -1.7769 0)
(186.607 -1.82702 -2.27829e-18)
(192.697 -1.86686 -2.18959e-18)
(198.366 -1.92669 -2.05833e-18)
(205.293 -1.96998 1.97832e-18)
(211.555 -2.04051 1.83858e-18)
(219.535 -2.08641 0)
(226.496 -2.17051 0)
(235.813 -2.22015 1.56095e-18)
(243.601 -2.32408 -1.39172e-18)
(254.644 -2.38148 -6.63439e-24)
(263.429 -2.51526 1.16218e-18)
(276.74 -2.5889 0)
(286.776 -2.76907 0)
(303.153 -2.87602 -9.50062e-19)
(314.866 -3.12414 -1.29918e-23)
(335.484 -3.28174 7.61392e-19)
(349.553 -3.5989 4.52103e-19)
(375.957 -3.78367 5.84925e-19)
(393.177 -4.06626 1.99927e-19)
(426.717 -4.15667 4.14751e-19)
(447.594 -4.16958 -7.87575e-20)
(487.579 -4.10323 0)
(511.754 -3.33102 -8.43546e-19)
(546.823 -3.10308 0)
(570.959 -0.191465 6.55525e-20)
(552.105 1.43449 3.64e-21)
(541.89 2.41183 -4.63021e-19)
(508.149 2.7459 0)
(492.746 2.6879 0)
(464.57 2.75919 -6.75939e-20)
(449.594 2.68642 -4.31354e-20)
(425.392 2.71784 2.46388e-19)
(410.946 2.61725 -5.37287e-20)
(390.518 2.62297 0)
(377.348 2.5266 -1.50041e-19)
(360.391 2.50167 2.59635e-19)
(348.715 2.39415 2.42763e-19)
(334.677 2.34398 0)
(324.391 2.24209 0)
(312.646 2.18576 -3.95538e-19)