/*--------------------------------*- C++ -*----------------------------------*\
| =========                 |                                                 |
| \\      /  F ield         | OpenFOAM: The Open Source CFD Toolbox           |
|  \\    /   O peration     | Version:  2412                                  |
|   \\  /    A nd           | Website:  www.openfoam.com                      |
|    \\/     M anipulation  |                                                 |
\*---------------------------------------------------------------------------*/
FoamFile
{
    version     2.0;
    format      ascii;
    arch        "LSB;label=32;scalar=64";
    class       volScalarField;
    location    "0.7";
    object      epsilon;
}
// * * * * * * * * * * * * * * * * * * * * * * * * * * * * * * * * * * * * * //

dimensions      [0 2 -3 0 0 0 0];

internalField   nonuniform List<scalar> 
78408
(
4.35942e+06
4.76353e+06
3.58355e+06
2.88927e+06
2.59042e+06
2.46126e+06
2.41429e+06
2.41494e+06
2.44891e+06
2.50415e+06
2.57211e+06
2.64387e+06
2.71609e+06
2.78579e+06
2.85517e+06
2.92414e+06
2.99901e+06
3.07881e+06
3.171e+06
3.27229e+06
3.39206e+06
3.52288e+06
3.68038e+06
3.84938e+06
4.05512e+06
4.27287e+06
4.54407e+06
4.82587e+06
5.19055e+06
5.55881e+06
6.05717e+06
6.54477e+06
7.23274e+06
7.89469e+06
8.87357e+06
9.78474e+06
1.1223e+07
1.24935e+07
1.46784e+07
1.64861e+07
1.99462e+07
2.25703e+07
2.82977e+07
3.21477e+07
4.20262e+07
4.75077e+07
6.51408e+07
7.29765e+07
1.07433e+08
1.22264e+08
2.04432e+08
2.3994e+08
6.42844e+08
7.45841e+08
4.4563e+08
2.78364e+08
2.01394e+08
1.54875e+08
1.24457e+08
1.01812e+08
8.52979e+07
7.19011e+07
6.19022e+07
5.33474e+07
4.68252e+07
4.0932e+07
3.62341e+07
3.18947e+07
2.83611e+07
2.51573e+07
2.25565e+07
2.02594e+07
1.83947e+07
1.67329e+07
1.53196e+07
1.40108e+07
1.28303e+07
1.17238e+07
1.07072e+07
9.76997e+06
8.91717e+06
8.15127e+06
7.4609e+06
6.85318e+06
6.30752e+06
5.83929e+06
5.42557e+06
5.09726e+06
4.82715e+06
4.66563e+06
4.54949e+06
4.51823e+06
4.44135e+06
4.39893e+06
4.23917e+06
4.14124e+06
3.90134e+06
3.79964e+06
3.54165e+06
1.69728e+07
9.53998e+06
3.54259e+06
1.62508e+06
968474
729568
650117
643084
669647
714959
767971
825815
883677
941848
996519
1.04946e+06
1.09612e+06
1.14209e+06
1.18241e+06
1.22641e+06
1.26696e+06
1.31726e+06
1.36388e+06
1.42801e+06
1.48597e+06
1.57076e+06
1.64417e+06
1.75867e+06
1.85107e+06
2.00957e+06
2.12753e+06
2.35065e+06
2.51727e+06
2.83708e+06
3.06593e+06
3.53469e+06
3.84879e+06
4.56084e+06
4.99667e+06
6.11556e+06
6.73006e+06
8.55928e+06
9.44977e+06
1.25731e+07
1.39073e+07
1.94452e+07
2.15038e+07
3.14304e+07
3.52386e+07
5.37159e+07
6.41022e+07
9.56031e+07
1.2922e+08
3.48785e+08
3.15252e+08
1.89392e+08
1.11759e+08
8.08069e+07
5.9884e+07
4.88903e+07
3.89206e+07
3.32164e+07
2.75808e+07
2.40454e+07
2.0513e+07
1.8058e+07
1.56421e+07
1.3828e+07
1.21011e+07
1.07588e+07
9.54388e+06
8.58318e+06
7.75537e+06
7.05972e+06
6.46393e+06
5.92215e+06
5.42667e+06
4.96025e+06
4.52751e+06
4.12815e+06
3.76587e+06
3.44082e+06
3.15189e+06
2.89676e+06
2.67226e+06
2.47663e+06
2.30846e+06
2.16979e+06
2.06329e+06
1.99174e+06
1.94936e+06
1.92373e+06
1.8946e+06
1.85248e+06
1.79093e+06
1.71549e+06
1.64878e+06
1.55782e+06
1.50065e+06
2.14374e+06
2.49967e+06
1.22006e+06
659431
411440
299285
251643
237888
242289
257673
278976
304178
331174
359690
388377
417533
445472
473305
499235
525586
550370
577317
603125
633635
663352
700914
737466
786213
832615
897982
958369
1.04818e+06
1.12838e+06
1.25615e+06
1.36444e+06
1.55104e+06
1.69755e+06
1.97869e+06
2.17916e+06
2.61788e+06
2.89534e+06
3.60944e+06
4.0027e+06
5.22601e+06
5.8085e+06
8.02413e+06
8.94857e+06
1.31205e+07
1.48637e+07
2.30557e+07
2.66961e+07
4.17465e+07
3.93159e+07
1.16002e+08
1.84331e+08
1.35047e+08
8.5079e+07
5.82073e+07
4.31433e+07
3.37403e+07
2.70952e+07
2.25561e+07
1.89736e+07
1.63315e+07
1.40932e+07
1.23197e+07
1.07596e+07
9.47189e+06
8.33683e+06
7.39611e+06
6.59062e+06
5.92861e+06
5.37535e+06
4.90222e+06
4.4914e+06
4.11278e+06
3.75932e+06
3.42334e+06
3.10881e+06
2.81847e+06
2.55591e+06
2.32175e+06
2.11594e+06
1.93575e+06
1.77975e+06
1.64472e+06
1.53103e+06
1.4376e+06
1.36901e+06
1.32317e+06
1.29954e+06
1.28263e+06
1.26493e+06
1.23112e+06
1.1887e+06
1.12927e+06
1.07617e+06
1.00992e+06
957616
272075
522835
374471
274981
210561
170880
148849
139282
137949
142321
150214
160573
172348
185333
198923
213289
227674
242613
257084
272154
286543
302114
316874
334014
350270
370654
389885
415808
439637
474227
504720
552459
591587
659290
711292
810022
878815
1.02739e+06
1.11852e+06
1.3497e+06
1.4704e+06
1.84488e+06
2.00706e+06
2.64679e+06
2.87751e+06
4.04792e+06
4.42801e+06
6.72595e+06
7.53787e+06
1.22502e+07
1.3579e+07
2.22419e+07
1.76061e+07
4.66709e+07
1.11395e+08
1.04951e+08
7.20814e+07
4.91085e+07
3.62556e+07
2.77698e+07
2.22627e+07
1.83098e+07
1.54515e+07
1.32354e+07
1.14765e+07
1.00163e+07
8.78468e+06
7.73023e+06
6.82682e+06
6.0592e+06
5.41572e+06
4.87908e+06
4.43442e+06
4.05048e+06
3.71193e+06
3.39591e+06
3.09671e+06
2.81036e+06
2.54108e+06
2.29261e+06
2.0685e+06
1.86955e+06
1.69584e+06
1.54482e+06
1.41524e+06
1.30398e+06
1.21136e+06
1.13598e+06
1.08184e+06
1.04639e+06
1.02915e+06
1.01585e+06
1.00132e+06
971949
936122
885662
839075
783918
737367
61002.9
139842
145715
142637
132247
119977
110032
104013
101693
102480
105445
110008
115558
121909
128717
136053
143548
151508
159406
167813
175990
184928
193423
203273
212470
223995
234567
249024
261795
281073
297128
323994
344127
382618
409222
465688
500235
585915
630217
764343
819964
1.03787e+06
1.10702e+06
1.48019e+06
1.57144e+06
2.26242e+06
2.42092e+06
3.83669e+06
4.24318e+06
7.23016e+06
7.76122e+06
1.29567e+07
1.03182e+07
2.28487e+07
6.69308e+07
8.21936e+07
6.26468e+07
4.38086e+07
3.24289e+07
2.46372e+07
1.96901e+07
1.60949e+07
1.35857e+07
1.16155e+07
1.00954e+07
8.81256e+06
7.74892e+06
6.82424e+06
6.04091e+06
5.36823e+06
4.80926e+06
4.33997e+06
3.95132e+06
3.61298e+06
3.31056e+06
3.02511e+06
2.75229e+06
2.49016e+06
2.24328e+06
2.01582e+06
1.81122e+06
1.63031e+06
1.47305e+06
1.33707e+06
1.22104e+06
1.12206e+06
1.0402e+06
974173
927243
896960
882222
870229
856382
829338
796626
751745
709487
660875
618767
25156.5
62548
80531.3
90961.9
94255.9
92498.5
88853.1
85625.5
83751.1
83489.4
84564.9
86714.4
89578.2
93014
96794.2
100935
105224
109834
114473
119466
124381
129766
134899
140803
146265
153032
159123
167440
174589
185586
194395
209773
220681
242904
257199
290160
308526
359130
382111
462214
489674
621003
652246
879018
916040
1.3427e+06
1.41278e+06
2.32428e+06
2.5481e+06
4.49354e+06
4.81186e+06
8.06519e+06
7.15007e+06
1.36065e+07
4.03909e+07
6.35466e+07
5.4284e+07
3.97465e+07
2.97607e+07
2.26269e+07
1.80582e+07
1.47257e+07
1.24281e+07
1.06228e+07
9.24717e+06
8.08021e+06
7.11928e+06
6.27796e+06
5.56836e+06
4.95584e+06
4.44863e+06
4.02095e+06
3.66558e+06
3.3536e+06
3.07133e+06
2.8024e+06
2.54374e+06
2.29481e+06
2.06049e+06
1.84514e+06
1.65201e+06
1.48188e+06
1.33451e+06
1.20764e+06
1.09979e+06
1.00826e+06
932884
872507
829784
802374
788562
776768
762690
736932
706057
665055
626016
581998
543380
15792.3
39691.9
55067.5
66224.8
72880.8
75268.2
74969
73724.3
72607.9
72188.3
72535.5
73596.6
75181.8
77202
79503
82080.5
84794.3
87744.5
90748
93994.2
97211.1
100715
104051
107826
111283
115478
119191
124197
128403
134907
139970
149023
155223
168346
176402
196012
206311
236670
249361
297872
312497
392834
408227
548541
564821
833978
869597
1.46605e+06
1.61458e+06
2.8999e+06
3.21908e+06
5.4196e+06
5.52509e+06
9.53012e+06
2.53475e+07
4.85032e+07
4.64449e+07
3.60824e+07
2.75546e+07
2.11125e+07
1.68722e+07
1.37656e+07
1.1623e+07
9.94356e+06
8.66915e+06
7.58678e+06
6.69713e+06
5.91529e+06
5.25653e+06
4.68618e+06
4.21416e+06
3.81461e+06
3.48069e+06
3.18492e+06
2.9143e+06
2.65453e+06
2.40367e+06
2.1623e+06
1.93554e+06
1.7278e+06
1.54214e+06
1.37917e+06
1.23846e+06
1.11775e+06
1.01544e+06
928966
857957
801376
761372
735657
722014
709878
695236
670268
640714
602681
566245
525799
490055
11922.3
29816.1
42297.8
52267.4
59480.9
63503.4
64998.5
65096.6
64703.9
64445.4
64557.5
65119.8
66059.7
67338.7
68856.1
70604.5
72484.6
74554.9
76685.8
78989.7
81277
83737.9
86066.3
88641.1
90966.2
93715.2
96099.1
99257.1
101849
105857
108895
114427
118113
126137
130901
142940
149043
167743
175231
205230
213726
263690
272313
360413
369239
541502
565546
959297
1.08755e+06
1.96631e+06
2.32634e+06
3.94998e+06
4.5955e+06
7.45448e+06
1.70733e+07
3.68388e+07
3.91738e+07
3.25524e+07
2.55267e+07
1.98239e+07
1.59107e+07
1.302e+07
1.10097e+07
9.43688e+06
8.24234e+06
7.22759e+06
6.39252e+06
5.65678e+06
5.03627e+06
4.49783e+06
4.05161e+06
3.67228e+06
3.35288e+06
3.0673e+06
2.8033e+06
2.5484e+06
2.30168e+06
2.06469e+06
1.84271e+06
1.64014e+06
1.45975e+06
1.30198e+06
1.16616e+06
1.05002e+06
951828
869094
801300
747484
709378
684689
670830
658107
642833
618452
590018
554440
520247
482759
449475
9899.32
24440.8
34742.9
43419.2
50380.7
54987
57442
58430
58637.1
58639.6
58739.2
59092.2
59706.1
60584.4
61667.9
62953.4
64367.7
65944.9
67583.4
69348.7
71096.2
72943.2
74670.6
76528.2
78173
80058.8
81652
83721
85368.4
87925
89802.3
93303.3
95568
100659
103596
111273
115080
127029
131740
150906
156299
188232
193835
250404
256824
369222
391025
656957
785659
1.42231e+06
1.80531e+06
3.09655e+06
4.02127e+06
6.25983e+06
1.24676e+07
2.81238e+07
3.26575e+07
2.91199e+07
2.35666e+07
1.86359e+07
1.50646e+07
1.23919e+07
1.05064e+07
9.03116e+06
7.90565e+06
6.94899e+06
6.15908e+06
5.46155e+06
4.87188e+06
4.35908e+06
3.9329e+06
3.5688e+06
3.25948e+06
2.98023e+06
2.71964e+06
2.46694e+06
2.22215e+06
1.98768e+06
1.76888e+06
1.57008e+06
1.39371e+06
1.24002e+06
1.1081e+06
995620
900722
820972
755726
704064
667369
643314
629053
615673
599833
575995
548625
515198
483017
448082
416982
8651.72
21030.3
29741.6
37323.2
43814.7
48545.3
51500
53069.3
53745.6
54020.9
54208.2
54503
54965.1
55631.3
56473.9
57497
58645.6
59938
61288.8
62732.4
64150.9
65616.8
66965.2
68368.2
69578.8
70918.1
72010.2
73398.9
74458.5
76123
77291.3
79562.1
80973
84305.6
86165.7
91244
93718.7
101661
104796
117531
121231
142402
146529
184074
189807
265489
288069
476334
608187
1.10058e+06
1.48665e+06
2.57401e+06
3.64623e+06
5.50745e+06
9.78508e+06
2.17839e+07
2.705e+07
2.5836e+07
2.16456e+07
1.7492e+07
1.42781e+07
1.18292e+07
1.0068e+07
8.68675e+06
7.62492e+06
6.72093e+06
5.97071e+06
5.30654e+06
4.74312e+06
4.25195e+06
3.84207e+06
3.48983e+06
3.1876e+06
2.91208e+06
2.65275e+06
2.40053e+06
2.15631e+06
1.92326e+06
1.70672e+06
1.51088e+06
1.33784e+06
1.18759e+06
1.059e+06
949645
857563
780346
717248
667364
631784
608131
593403
579404
563142
539886
513586
482120
451789
419120
389993
7781.25
18623.1
26154.5
32856.2
38851
43501.8
46696.1
48638.8
49671
50196.6
50512.6
50829.6
51240.2
51805.2
52521.7
53400.8
54400.8
55529.6
56710.6
57957.5
59168.5
60387.6
61485.5
62585.9
63504.5
64479.2
65235.7
66176
66848.2
67934.5
68644.1
70131
70998.1
73225.8
74412.4
77875.4
79529.1
85004.6
87184.1
95989.4
98688.7
113307
116617
142564
148106
201338
225158
367081
499914
903759
1.28256e+06
2.23678e+06
3.39108e+06
5.0024e+06
8.12917e+06
1.72401e+07
2.23849e+07
2.27712e+07
1.97734e+07
1.63711e+07
1.35234e+07
1.13036e+07
9.66888e+06
8.38054e+06
7.37991e+06
6.52549e+06
5.81169e+06
5.17784e+06
4.63776e+06
4.16555e+06
3.76939e+06
3.42666e+06
3.12938e+06
2.85577e+06
2.59625e+06
2.3434e+06
2.09894e+06
1.86667e+06
1.65189e+06
1.45859e+06
1.28848e+06
1.14134e+06
1.01574e+06
909210
819664
744711
683517
635179
600531
577154
561976
547466
530960
508368
483170
453532
424925
394300
366967
7116.51
16789.4
23423.4
29423.6
34957.2
39440.6
42725.7
44901.8
46198.3
46940.2
47396.4
47777.7
48195.7
48728.1
49390
50199.2
51123.4
52163
53246.6
54372.8
55450.4
56504.7
57431
58321.6
59035.3
59755.5
60276.8
60907.3
61311.2
62004.9
62402.2
63365.8
63868.1
65369.2
66111.4
68525.6
69644.5
73537.7
75101.9
81415.6
83478
93981.7
96781.7
115500
120969
160351
185168
299203
431229
778509
1.14654e+06
2.00943e+06
3.21222e+06
4.64763e+06
7.04791e+06
1.39962e+07
1.86093e+07
1.99845e+07
1.79754e+07
1.5271e+07
1.27883e+07
1.07998e+07
9.29415e+06
8.09863e+06
7.15816e+06
6.35152e+06
5.67218e+06
5.06669e+06
4.54799e+06
4.0929e+06
3.70864e+06
3.3737e+06
3.07982e+06
2.80681e+06
2.54612e+06
2.29196e+06
2.04678e+06
1.81498e+06
1.60173e+06
1.41076e+06
1.24341e+06
1.09919e+06
976429
872549
785380
712531
653095
606157
572334
549181
533623
518753
502195
480361
456300
428389
401400
372638
346940
6574.75
15312.1
21246.9
26685
31809.5
36093.4
39383.5
41698.7
43188.1
44110.6
44703.6
45169.7
45630
46172.8
46826.4
47614
48509.6
49508.1
50540.6
51594.7
52586.4
53528.4
54333.8
55074.1
55638.8
56174.8
56524.6
56932.7
57143
57559
57734.2
58333.9
58580.3
59583.5
60018.4
61723.5
62476.7
65313.4
66459.7
71131.8
72762.3
80590.7
83041.4
97121.9
102543
133221
158760
255614
386168
695910
1.05298e+06
1.85078e+06
3.08405e+06
4.39011e+06
6.30695e+06
1.16683e+07
1.5614e+07
1.75107e+07
1.62794e+07
1.41989e+07
1.20696e+07
1.03104e+07
8.93532e+06
7.83257e+06
6.95186e+06
6.19188e+06
5.54577e+06
4.96732e+06
4.46871e+06
4.02939e+06
3.65568e+06
3.32723e+06
3.0356e+06
2.76227e+06
2.49974e+06
2.24387e+06
1.99778e+06
1.76634e+06
1.55455e+06
1.36587e+06
1.20123e+06
1.05986e+06
939861
838552
753676
682841
625076
579452
546398
523466
507638
492581
476160
455176
432278
406004
380535
353481
329278
6112.33
14071.9
19449.5
24433
29201
33279.8
36526.3
38916.7
40544.1
41614.1
42333.6
42892.7
43415.2
43995.6
44671.6
45469.7
46368.4
47357.7
48369.8
49384
50321.3
51185.8
51904.3
52534.2
52987.5
53386.1
53606.9
53849.9
53915.8
54128.4
54140
54477.4
54537.5
55187.1
55401.7
56608.9
57101.1
59205.8
60055.1
63605.3
64927.7
70954.5
73151.7
84162.9
89549.7
114635
140738
226744
355869
639906
987115
1.73706e+06
2.99071e+06
4.19865e+06
5.77873e+06
9.97793e+06
1.32666e+07
1.5359e+07
1.47087e+07
1.31657e+07
1.13691e+07
9.83245e+06
8.58784e+06
7.57734e+06
6.75607e+06
6.04194e+06
5.42821e+06
4.87588e+06
4.3964e+06
3.97187e+06
3.60768e+06
3.28471e+06
2.99447e+06
2.72016e+06
2.4554e+06
2.19763e+06
1.95059e+06
1.71957e+06
1.5093e+06
1.32295e+06
1.16105e+06
1.02253e+06
905284
806517
723895
655026
598885
554525
522220
499544
483578
468514
452406
432349
410627
385906
361864
336380
313543
5704.78
12999
17923.4
22534.9
26993.9
30875
34051
36473.3
38196.9
39385.5
40218.3
40871.1
41466.5
42101.7
42820.3
43650.7
44574
45575.8
46588.3
47584.5
48488.8
49300
49955
50502.1
50870.3
51163.8
51285
51402.1
51357.1
51416.5
51303.8
51446.5
51366.4
51757
51808.7
52654.7
52953.8
54534.6
55164.5
57921.9
59015.4
63788.8
65795.7
74716.3
80088.4
101505
128115
207156
335208
601220
940016
1.65387e+06
2.92191e+06
4.05374e+06
5.39e+06
8.73139e+06
1.14369e+07
1.35179e+07
1.32787e+07
1.21827e+07
1.06909e+07
9.36596e+06
8.24962e+06
7.33003e+06
6.56771e+06
5.89867e+06
5.31668e+06
4.78975e+06
4.32868e+06
3.91815e+06
3.56266e+06
3.2444e+06
2.95489e+06
2.67916e+06
2.41196e+06
2.15228e+06
1.90439e+06
1.67392e+06
1.46532e+06
1.28141e+06
1.12233e+06
986708
872225
775999
695621
628695
574154
531033
499481
477122
461164
446269
430626
411557
391008
367756
345050
321010
299421
5337.72
12050.2
16598.8
20902.2
25093.5
28790.2
31881.5
34306.6
36094.7
37377.1
38309.2
39052.5
39725.6
40425.9
41200.2
42077.7
43040.5
44069.7
45097
46090.1
46976.5
47751.2
48359.6
48843.5
49145.4
49356.9
49399.6
49418.6
49286.4
49227.6
49018.2
49012.6
48824.3
49020.1
48947.3
49524.3
49676.2
50870.9
51333.4
53513.8
54431.5
58307.5
60169
67629.6
73011
91987.8
119110
193663
321085
574251
906050
1.59209e+06
2.87067e+06
3.94261e+06
5.09652e+06
7.79626e+06
1.00106e+07
1.19617e+07
1.19961e+07
1.12595e+07
1.00397e+07
8.91228e+06
7.92009e+06
7.08915e+06
6.38491e+06
5.76011e+06
5.20929e+06
4.70711e+06
4.26387e+06
3.86668e+06
3.51925e+06
3.20506e+06
2.9158e+06
2.63838e+06
2.36869e+06
2.10719e+06
1.85866e+06
1.62894e+06
1.4222e+06
1.24089e+06
1.08472e+06
952068
840392
746724
668592
603601
550649
508760
477984
456018
440215
425652
410603
392560
373166
351298
329838
307128
286679
5002.38
11198.1
15429.4
19474.1
23432.7
26960
29960.4
32368.9
34197.5
35553.1
36571
37399.2
38151
38922.1
39760.5
40695.1
41707.2
42774.1
43826
44826.6
45705.7
46456
47029.8
47465
47714.6
47861
47840.9
47781.8
47580
47428.1
47141.7
47020.8
46747.1
46792.9
46622.7
46994.7
47031.3
47934.4
48265.3
50014.9
50793.7
54010.9
55761.1
62181.2
67598.4
84944.3
112615
184325
311545
555469
881517
1.54568e+06
2.83215e+06
3.85652e+06
4.87033e+06
7.08258e+06
8.89393e+06
1.06574e+07
1.08602e+07
1.04029e+07
9.42034e+06
8.47346e+06
7.59956e+06
6.85408e+06
6.20661e+06
5.62504e+06
5.10475e+06
4.62673e+06
4.20078e+06
3.81638e+06
3.47644e+06
3.16582e+06
2.87648e+06
2.59723e+06
2.32511e+06
2.062e+06
1.81309e+06
1.58439e+06
1.37973e+06
1.20118e+06
1.04805e+06
918439
809617
718529
642652
579595
528228
487573
457604
436117
420613
406525
392170
375172
356901
336331
316030
294542
275134
4693.19
10424.2
14383.2
18207.7
21962.6
25335.5
28244
30623
32474
33885.7
34976.9
35883.3
36712.3
37556.8
38464.4
39462.2
40530.4
41641.7
42724.9
43740.2
44619.5
45354.3
45902.7
46299.9
46507.6
46601.7
46530.5
46408.7
46150.2
45923.9
45575.3
45363
45020.6
44948.9
44700.8
44913.1
44857.4
45535.3
45760.3
47180.6
47847.5
50570.7
52236.2
57904.3
63384
79649.5
107916
177914
305303
542557
863897
1.51051e+06
2.80286e+06
3.78928e+06
4.69302e+06
6.52894e+06
8.01362e+06
9.56979e+06
9.86501e+06
9.61684e+06
8.8365e+06
8.05171e+06
7.28877e+06
6.62473e+06
6.03227e+06
5.49269e+06
5.00224e+06
4.54775e+06
4.13859e+06
3.76646e+06
3.43354e+06
3.12611e+06
2.83646e+06
2.55535e+06
2.28096e+06
2.01651e+06
1.76753e+06
1.54015e+06
1.33781e+06
1.16219e+06
1.01222e+06
885733
779809
691325
617711
556587
506805
467391
438268
417347
402272
388781
375195
359239
342050
322691
303465
283098
264641
4406.5
9715.81
13437.3
17071.8
20647.5
23879.9
26698
29039.3
30899.2
32352.8
33506.1
34483.6
35387
36305.2
37284.4
38349.2
39477.6
40637.7
41756.5
42791.5
43676.3
44402
44931.7
45299.2
45473
45524.8
45411.6
45238.6
44933.5
44646.9
44247.4
43961.6
43563.2
43397.6
43086
43172
43040.9
43541.4
43679.3
44843
45417.9
47764.2
49366.9
54486.9
60054.8
75625.8
104538
173621
301484
533942
851421
1.48369e+06
2.78024e+06
3.73641e+06
4.55206e+06
6.09292e+06
7.31368e+06
8.66503e+06
8.99998e+06
8.90239e+06
8.29086e+06
7.64905e+06
6.9887e+06
6.40137e+06
5.8617e+06
5.36268e+06
4.90124e+06
4.46962e+06
4.07674e+06
3.7164e+06
3.39009e+06
3.0855e+06
2.79543e+06
2.51253e+06
2.23612e+06
1.97065e+06
1.72196e+06
1.49619e+06
1.29641e+06
1.12391e+06
977216
853919
750935
665071
593724
534530
486331
448166
419930
399659
385129
372330
359561
344632
328473
310239
292006
272669
255080
4139.76
9064.02
12575.3
16043.3
19459.9
22564.8
25295.6
27594.1
29452.6
30936.6
32141.9
33183.7
34157.4
35148.2
36199.7
37333.4
38524.1
39735.6
40892.7
41950.7
42844.7
43566
44082
44426.2
44572.6
44589.6
44441.7
44226.7
43882.9
43546.9
43105.1
42759.7
42314.8
42073.5
41709.4
41693.6
41499.8
41858.2
41923
42883.1
43381.3
45436.3
46994.4
51714.7
57394.6
72549
102152
170895
299472
528517
842812
1.46311e+06
2.76237e+06
3.69455e+06
4.43864e+06
5.7448e+06
6.75197e+06
7.91242e+06
8.25219e+06
8.25822e+06
7.78489e+06
7.26711e+06
6.70026e+06
6.18439e+06
5.69497e+06
5.2348e+06
4.80143e+06
4.39196e+06
4.01485e+06
3.66581e+06
3.34574e+06
3.04377e+06
2.75323e+06
2.46867e+06
2.19055e+06
1.92443e+06
1.6764e+06
1.45256e+06
1.25558e+06
1.08635e+06
943046
823004
722990
639756
570675
513402
466781
429873
402562
383016
369130
357092
345167
331232
316047
298855
281539
263146
246349
3891.12
8462.15
11784.9
15105
18379.2
21367.8
24015.3
26268.1
28117.5
29622.6
30871.1
31970.2
33010.1
34071.3
35194.5
36397.4
37651.2
38915.3
40112
41194.8
42100.5
42820.9
43327.2
43652.9
43776.8
43765.4
43588.5
43338.7
42962.6
42585.8
42108.9
41714.4
41230.7
40927.4
40519.2
40420.5
40173.6
40416.5
40418.8
41215
41648.5
43476.1
45005.2
49436.6
55250.3
70192.8
100525
169351
298820
525482
837124
1.44721e+06
2.74779e+06
3.66116e+06
4.34638e+06
5.4634e+06
6.29691e+06
7.28534e+06
7.60801e+06
7.68121e+06
7.31891e+06
6.90703e+06
6.4243e+06
5.97424e+06
5.53222e+06
5.10902e+06
4.70266e+06
4.31456e+06
3.95265e+06
3.61446e+06
3.3003e+06
3.00075e+06
2.70976e+06
2.42377e+06
2.14429e+06
1.87792e+06
1.63093e+06
1.40932e+06
1.21538e+06
1.04958e+06
909757
793018
695993
615388
548560
493196
448143
412495
386142
367388
354220
342993
331916
318934
304663
288432
271960
254433
238360
3659.16
7905.06
11056.7
14243.5
17389.1
20271.4
22839.8
25045.5
26880.2
28398.6
29682.5
30832.6
31934
33062.8
34256.1
35527.6
36844.2
38160.7
39397.5
40506.2
41425.1
42147
42646.5
42957.7
43063.3
43028.2
42827.3
42548.5
42145.3
41734.8
41228.2
40793.1
40276.8
39922.2
39476.6
39309.3
39017
39164.5
39112.6
39774.9
40153.5
41802.4
43316.4
47543.6
53510.8
68395
99487.4
168706
299193
524242
833638
1.43481e+06
2.73536e+06
3.63426e+06
4.27061e+06
5.23338e+06
5.92481e+06
6.76132e+06
7.05414e+06
7.16701e+06
6.89229e+06
6.56945e+06
6.16143e+06
5.77138e+06
5.37364e+06
4.98538e+06
4.60487e+06
4.23728e+06
3.89001e+06
3.5622e+06
3.25366e+06
2.95639e+06
2.66505e+06
2.37788e+06
2.09743e+06
1.83123e+06
1.58566e+06
1.36659e+06
1.17589e+06
1.01367e+06
877402
764001
669970
591982
527388
473910
430409
396021
370653
352742
340350
329957
319718
307641
294221
278874
263179
246446
231037
3442.71
7388.69
10383.4
13448.4
16477
19261.7
21755.1
23913.3
25728.9
27254.3
28567
29762.2
30920.4
32113.4
33374.6
34713
36091.3
37459.6
38735.9
39870.8
40803.7
41528.9
42023.9
42323.5
42414.1
42359.6
42138.4
41835.6
41409.6
40970.9
40439.4
39970.6
39426.4
39029.2
38551.4
38326.9
37994.9
38062.7
37963
38514.8
38846.5
40355.1
41866.4
45955.5
52093.6
67036.6
98910.9
168752
300336
524347
831802
1.42502e+06
2.72419e+06
3.6123e+06
4.20778e+06
5.04342e+06
5.61782e+06
6.32177e+06
6.57814e+06
6.71053e+06
6.50362e+06
6.25452e+06
5.91208e+06
5.57616e+06
5.21946e+06
4.86399e+06
4.50806e+06
4.16008e+06
3.82684e+06
3.50896e+06
3.20576e+06
2.91068e+06
2.61913e+06
2.3311e+06
2.0501e+06
1.78449e+06
1.54071e+06
1.32447e+06
1.13722e+06
978689
846043
735997
644953
569557
507167
455545
413574
380439
356076
339045
327465
317911
308488
297260
284631
270096
255116
239112
224311
3240.76
6909.68
9759.25
12711.6
15632.5
18327.2
20749.6
22860.4
24653.9
26181.2
27516.8
28751.6
29962.1
31215.7
32542
33945.2
35383.2
36801.9
38116.7
39277.4
40224.7
40954.2
41446.3
41736.9
41815.1
41744.5
41506.4
41183.7
40738.5
40276.4
39723.8
39226.8
38658.9
38225.8
37720.1
37447.4
37080.4
37080.7
36938.3
37397.8
37689.5
39088.3
40608.4
44612
50936.5
66028.3
98698.1
169329
302051
525446
831181
1.41712e+06
2.7136e+06
3.59402e+06
4.15517e+06
4.88509e+06
5.36239e+06
5.95145e+06
6.16884e+06
6.30639e+06
6.15092e+06
5.96199e+06
5.67648e+06
5.38889e+06
5.06988e+06
4.74497e+06
4.41228e+06
4.08296e+06
3.76311e+06
3.4547e+06
3.1566e+06
2.86368e+06
2.5721e+06
2.28354e+06
2.00243e+06
1.73785e+06
1.49623e+06
1.28308e+06
1.09947e+06
944721
815737
709049
620969
548131
487905
438102
397633
365738
342387
326259
315508
306784
298141
287707
275809
262018
247696
232362
218120
3052.41
6465.15
9179.44
12026.5
14847.6
17458.6
19813.9
21877.9
23646.8
25171.8
26525.2
27794.6
29052.8
30363.4
31751.6
33216.9
34712.3
36179.4
37531.3
38717
39678.5
40413
40903.5
41187
41255.1
41171.2
40919.1
40579.7
40118.5
39636.8
39066.4
38545.8
37957.6
37494.2
36964.1
36650.2
36251.9
36194.5
36013.5
36395.4
36653
37967.1
39506.6
43467.3
49991.4
65301.8
98772.8
170311
304179
527263
831428
1.41055e+06
2.70303e+06
3.57844e+06
4.11067e+06
4.75194e+06
5.14812e+06
5.63797e+06
5.81636e+06
5.94918e+06
5.83185e+06
5.69124e+06
5.45461e+06
5.20976e+06
4.92507e+06
4.62845e+06
4.31761e+06
4.00596e+06
3.69885e+06
3.39945e+06
3.10623e+06
2.81545e+06
2.52407e+06
2.23536e+06
1.95459e+06
1.69144e+06
1.45234e+06
1.24254e+06
1.06271e+06
911836
786538
683193
598042
527714
469605
421576
382573
351898
329560
314343
304421
296503
288600
278902
267677
254570
240854
226135
212409
2876.84
6052.57
8640.04
11387.7
14115.5
16648.4
18940.1
20957.8
22700.5
24219.6
25586.5
26886
28187.7
29551.3
30998
32522.3
34072.5
35585.7
36972.8
38182.2
39157.5
39897.4
40387.1
40665.1
40724.9
40630.1
40366.3
40013.2
39538.6
39040.7
38455.2
37914.9
37309.1
36820
36268.3
35918.9
35492.3
35384.9
35168.5
35484.8
35713.9
36964.1
38532.8
42485.8
49221
64803.8
99074
171599
306592
529576
832264
1.40487e+06
2.69203e+06
3.56473e+06
4.07259e+06
4.63902e+06
4.96701e+06
5.37128e+06
5.51215e+06
5.63368e+06
5.54388e+06
5.44142e+06
5.24629e+06
5.03883e+06
4.78516e+06
4.51455e+06
4.22413e+06
3.92912e+06
3.6341e+06
3.34325e+06
3.05472e+06
2.7661e+06
2.47517e+06
2.1867e+06
1.90672e+06
1.64543e+06
1.40918e+06
1.20295e+06
1.02705e+06
880098
758491
658459
576187
508314
452264
405958
368381
338899
317564
303251
294145
286999
279789
270770
260165
247684
234528
220376
207128
2713.24
5669.69
8137.66
10790.8
13430.7
15890.1
18121.3
20093.6
21808.9
23319.3
24695.9
26021.1
27362.2
28775
30276.7
31856.8
33458.7
35015.3
36435.4
37667.3
38655.5
39400.8
39890.3
40164
40217
40113.4
39839.9
39475.6
38989.8
38478.7
37880.5
37323.6
36702.7
36191.6
35620.6
35240.4
34787.6
34636.5
34387.6
34648
34853.7
36057.8
37665.3
41639.5
48595.2
64491.7
99552.3
173113
309185
532206
833461
1.39972e+06
2.68026e+06
3.55223e+06
4.03962e+06
4.54248e+06
4.81278e+06
5.14324e+06
5.2489e+06
5.35503e+06
5.28439e+06
5.21144e+06
5.05116e+06
4.87612e+06
4.65024e+06
4.40338e+06
4.13192e+06
3.85252e+06
3.56891e+06
3.28617e+06
3.00216e+06
2.71575e+06
2.42555e+06
2.13773e+06
1.85899e+06
1.59995e+06
1.36685e+06
1.16441e+06
992541
849558
731629
634866
555413
489928
435874
391234
355037
326714
306361
292936
284619
278202
271638
263243
253207
241300
228662
215035
202230
2560.9
5314.42
7669.41
10231.9
12788.5
15178.5
17351.9
19279.7
20966.6
22466
23848.8
25196.1
26572.7
28030.8
29583.8
31216.3
32866.6
34463.7
35914.6
37167.1
38167.4
38917.8
39407.5
39677.8
39725.4
39614.6
39333.3
38959.9
38465
37942.9
37334.1
36763.3
36129.3
35599.3
35010.9
34603.6
34126.6
33936.9
33657.6
33870.5
34057.6
35231.3
36886.3
40906.4
48090.2
64331.5
100167
174785
311871
535004
834830
1.39479e+06
2.66745e+06
3.54038e+06
4.01064e+06
4.45925e+06
4.68049e+06
4.94722e+06
5.02037e+06
5.10877e+06
5.05075e+06
5.0001e+06
4.86872e+06
4.72151e+06
4.52032e+06
4.29501e+06
4.04108e+06
3.77624e+06
3.50336e+06
3.22829e+06
2.94865e+06
2.66454e+06
2.37536e+06
2.08858e+06
1.81153e+06
1.55513e+06
1.32548e+06
1.127e+06
959256
820255
705975
612423
535717
472547
420419
377383
342514
315312
295914
283347
275784
270049
264080
256256
246743
235364
223206
210066
197675
2419.09
4984.87
7232.71
9708.03
12185
14509
16627
18511.2
20169.1
21655.5
23041.7
24407.6
25815.8
27315.6
28916.1
30597.3
32292.6
33927.3
35406.4
36677.8
37688.9
38444.1
38934.1
39201.8
39245
39128.5
38840.9
38460.3
37958
37427.1
36809.4
36227.1
35581.6
35035.3
34431
33999.7
33499.9
33275.6
32968
33140.6
33314
34470.8
36182
40268.6
47686.3
64294.9
100884
176560
314577
537847
836215
1.38986e+06
2.65338e+06
3.52874e+06
3.98479e+06
4.38689e+06
4.56622e+06
4.77785e+06
4.82129e+06
4.89086e+06
4.84044e+06
4.80613e+06
4.69842e+06
4.57483e+06
4.39541e+06
4.1895e+06
3.95166e+06
3.70035e+06
3.43752e+06
3.16971e+06
2.8943e+06
2.61258e+06
2.32475e+06
2.03943e+06
1.76449e+06
1.51108e+06
1.28515e+06
1.09079e+06
927237
792218
681540
591128
517091
456155
405878
364380
330785
304659
286179
274433
267580
262475
257052
249750
240718
229824
218114
205426
193422
2287.14
4679.24
6825.27
9216.29
11617
13877.8
15942.4
17784
19412.3
20884.1
22271
23652.3
25088.8
26626.5
28270.9
29997
31733.9
33402.9
34907.6
36195.9
37216.7
37976
38466.5
38732.1
38771.7
38650.8
38358.1
37972
37463.8
36925.8
36300.9
35709
35053.4
34493
33874
33421.1
32899.7
32644.2
32310
32448.5
32613.1
33765.5
35540.9
39711.5
47367.1
64358.5
101674
178391
317240
540633
837487
1.38473e+06
2.63788e+06
3.51693e+06
3.96133e+06
4.32345e+06
4.4668e+06
4.63071e+06
4.64723e+06
4.69772e+06
4.65104e+06
4.62823e+06
4.53962e+06
4.43585e+06
4.27544e+06
4.08688e+06
3.86373e+06
3.62492e+06
3.37149e+06
3.11054e+06
2.83924e+06
2.56004e+06
2.27386e+06
1.99041e+06
1.71799e+06
1.46792e+06
1.24594e+06
1.05583e+06
896516
765459
658325
570972
499515
440727
392224
352195
319815
294716
277113
266143
259950
255423
250498
243670
235081
224636
213343
201077
189438
2164.41
4395.86
6445.01
8754.3
11081.6
13281.6
15294.6
17094.2
18692.8
20148.5
21534
22927.7
24389.1
25961.2
27645.7
29413.1
31187.9
32888
34415.5
35718.7
36747.8
37510.7
38001.4
38265.4
38302.2
38177.8
37881.4
37491
36978.2
36434.9
35803.9
35204.1
34539.7
33966.8
33334.2
32861.6
32319.4
32035.5
31676.5
31786.6
31947.4
33106.6
34953.7
39223.2
47119.1
64502.8
102512
180237
319808
543276
838537
1.37923e+06
2.62082e+06
3.50462e+06
3.93966e+06
4.26731e+06
4.37968e+06
4.50219e+06
4.49442e+06
4.52616e+06
4.48035e+06
4.4651e+06
4.39163e+06
4.30429e+06
4.16032e+06
3.98717e+06
3.77734e+06
3.55003e+06
3.30535e+06
3.05086e+06
2.78359e+06
2.50703e+06
2.22284e+06
1.94164e+06
1.67215e+06
1.42573e+06
1.20792e+06
1.02216e+06
867112
739981
636318
551934
482963
426235
379424
340793
309568
285445
268670
258424
252839
248837
244362
237968
229785
219755
208855
196983
185689
2050.29
4133.17
6090.04
8319.95
10576.2
12717.5
14680.5
16438.9
18007.4
19445.9
20827.9
22231.4
23714.5
25317.4
27038.4
28843.4
30652.4
32380.4
33928
35244
36279.9
37045.6
37536.3
37798.9
37833.5
37706.6
37407.4
37014
36497.9
35950.4
35314.6
34708.3
34036.1
33452.1
32806.6
32315.9
31753.5
31443.6
31061.3
31148.5
31310.4
32487
34413
38793.7
46930.7
64710.9
103378
182064
322238
545704
839274
1.37324e+06
2.60213e+06
3.49158e+06
3.91928e+06
4.21715e+06
4.30278e+06
4.3893e+06
4.35969e+06
4.3734e+06
4.32632e+06
4.31548e+06
4.25376e+06
4.17981e+06
4.04993e+06
3.89035e+06
3.69253e+06
3.47575e+06
3.23918e+06
2.99079e+06
2.72747e+06
2.45369e+06
2.17181e+06
1.89326e+06
1.62706e+06
1.38458e+06
1.17112e+06
989809
839028
715773
615498
533986
467404
412642
367441
330137
300005
276802
260805
251229
246196
242665
238597
232596
224789
215145
204614
193113
182147
1944.18
3889.69
5758.62
7911.32
10098.7
12183.1
14097.3
15815.2
17353.5
18773.7
20150.3
21561.3
23063
24693.5
26447.2
28286
30125.8
31878.3
33443.2
34769.8
35811.1
36578.8
37069.2
37330.6
37363.4
37234.8
36933.6
36538.3
36019.8
35469.4
34829.8