/*--------------------------------*- C++ -*----------------------------------*\
| =========                 |                                                 |
| \\      /  F ield         | OpenFOAM: The Open Source CFD Toolbox           |
|  \\    /   O peration     | Version:  2412                                  |
|   \\  /    A nd           | Website:  www.openfoam.com                      |
|    \\/     M anipulation  |                                                 |
\*---------------------------------------------------------------------------*/
FoamFile
{
    version     2.0;
    format      ascii;
    arch        "LSB;label=32;scalar=64";
    class       volScalarField;
    location    "0.7";
    object      k;
}
// * * * * * * * * * * * * * * * * * * * * * * * * * * * * * * * * * * * * * //

dimensions      [0 2 -2 0 0 0 0];

internalField   nonuniform List<scalar> 
78408
(
249.457
262.069
214.628
184.048
169.369
161.975
158.199
156.505
156.214
156.761
157.741
158.77
159.703
160.428
161.032
161.512
162.094
162.735
163.677
164.782
166.336
168.052
170.387
172.82
176.05
179.288
183.626
187.8
193.597
198.891
206.576
213.218
223.251
231.67
244.962
255.52
273.385
286.459
310.813
326.915
360.879
380.507
428.951
452.104
522.33
546.709
649.347
672.453
833.027
866.461
1160.55
1222.54
2207.84
2460.78
1760.83
1335.93
1117.89
972.129
868.968
784.745
718.998
660.553
614.731
571.836
537.937
504.185
476.12
447.544
423.201
399.215
379.028
360.034
344.266
329.425
316.43
303.596
291.407
279.184
267.265
255.591
244.371
233.787
223.77
214.61
206.026
198.488
191.624
186.293
182.004
180.185
179.403
180.817
181.007
182.108
179.867
179.23
174.274
173.216
167.154
854.143
640.58
323.671
191.604
136.055
112.391
103.907
103.425
106.864
112.008
117.499
122.865
127.792
132.312
136.265
139.772
142.593
145.035
146.891
148.656
150.038
151.703
153.033
155.018
156.629
159.267
161.346
164.976
167.629
172.665
176.1
183.016
187.902
197.509
203.898
217.1
225.081
243.441
253.19
279.009
290.576
327.571
341.008
395.299
410.63
491.832
509.107
628.879
654.259
830.405
884.54
1106.75
1117.39
2245.39
2655.06
2117.76
1699.04
1415.38
1261.29
1113.27
1024.43
933.05
878.349
817.334
778.263
731.245
697.114
657.005
625.737
591.96
565.55
538.794
517.525
495.193
475.191
453.172
431.336
408.177
385.5
363.247
342.514
323.373
306.169
290.874
277.405
265.888
256.258
249.164
244.936
244.451
246.595
250.374
252.442
252.701
249.084
244.301
237.073
230.967
221.813
195.055
262.219
170.634
120.312
96.1731
86.5609
84.5895
86.2311
89.3509
92.8185
96.1487
99.1537
101.868
104.355
106.714
108.988
111.191
113.271
115.236
117.032
118.711
120.254
121.754
123.165
124.696
126.227
128.051
129.976
132.386
134.952
138.266
141.753
146.035
150.954
156.516
163.444
170.523
180.206
189.121
202.733
213.783
233.244
246.919
275.635
293.059
337.259
361.572
432.021
473.943
588.016
652.483
826.464
766.871
1231.61
2239.72
2138.4
1872.99
1558.06
1415.79
1236.33
1154.05
1044.93
997.086
927.368
893.118
840.537
807.856
762.818
730.691
692.607
664.386
634.138
610.163
584.241
559.748
532.513
504.779
475.446
446.545
418.371
392.185
368.187
346.776
327.892
311.475
297.572
286.239
278.109
273.827
274.117
277.818
282.984
286.085
286.203
282.02
275.702
266.09
258.26
245.535
76.2453
104.842
99.8
95.6821
93.8736
93.9322
95.0351
96.5691
98.1994
99.6006
100.674
101.379
101.827
102.113
102.387
102.73
103.227
103.847
104.604
105.405
106.24
107.027
107.793
108.471
109.17
109.842
110.639
111.529
112.669
114.039
115.79
117.945
120.359
123.62
126.91
131.762
136.078
143.118
148.595
158.704
165.429
180
188.194
209.739
220.347
253.945
271.067
328.002
366.645
465.375
526.395
687.987
689.456
825.141
1820.33
2087.38
1962.31
1667.49
1524.39
1336.59
1249.33
1135.44
1085.53
1014.17
978.853
924.906
890.465
843.389
808.923
768.555
737.932
705.396
678.706
649.869
621.707
590.412
558.171
524.268
490.83
458.419
428.354
400.927
376.533
355.102
336.57
320.957
308.389
299.54
295.229
296.098
300.82
306.837
310.437
310.342
305.638
298.294
287.634
278.281
264.448
64.9828
82.0697
95.6451
103.328
107.245
109.083
109.985
110.471
110.748
110.725
110.395
109.741
108.869
107.863
106.871
105.973
105.278
104.769
104.481
104.312
104.25
104.178
104.109
103.944
103.768
103.523
103.327
103.174
103.157
103.344
103.738
104.57
105.467
107.218
108.77
111.833
114.134
119.038
122.124
129.608
133.432
144.631
149.219
166.179
172.281
199.46
211.897
261.219
299.479
389.91
456.827
609.179
697.223
701.611
1466.88
1972.78
1990.35
1742.93
1604.09
1416.72
1324.63
1209.68
1157.02
1085.68
1048.7
994.327
957.969
909.613
872.961
830.927
798.131
763.697
734.516
703.035
671.592
636.744
600.643
562.92
525.766
489.947
456.802
426.678
399.948
376.53
356.344
339.398
325.877
316.506
312.224
313.593
319.076
325.649
329.466
329.089
323.892
315.753
304.381
293.895
279.484
66.785
88.6456
104.882
113.739
119
121.589
122.516
122.514
122.029
121.152
119.969
118.507
116.877
115.161
113.491
111.937
110.605
109.471
108.569
107.786
107.112
106.406
105.696
104.848
103.97
102.96
101.976
100.949
100.036
99.214
98.5802
98.2397
98.0146
98.3993
98.7004
100.131
101.043
103.965
105.503
110.542
112.635
120.745
123.385
136.289
140.245
161.966
173.164
216.235
259.02
342.747
422.934
571.026
731.46
705.159
1217.31
1823.37
1969.93
1787.09
1660.46
1479.66
1384.98
1271.15
1216.48
1145.98
1107.66
1053.31
1015.34
966.11
927.615
884.262
849.566
813.439
781.932
747.938
713.419
675.292
635.708
594.616
554.255
515.55
479.835
447.488
418.846
393.809
372.279
354.26
339.982
330.233
326.036
327.862
333.945
340.882
344.75
344.053
338.401
329.62
317.709
306.364
291.587
71.6618
97.2546
113.42
122.255
128.069
131.226
132.443
132.378
131.555
130.197
128.488
126.515
124.416
122.279
120.232
118.334
116.677
115.225
113.997
112.864
111.813
110.688
109.528
108.185
106.787
105.206
103.635
101.953
100.383
98.8059
97.4352
96.2034
95.1793
94.5046
93.9334
94.0677
94.0372
95.3283
95.8675
98.8233
99.9057
105.321
107.025
116.382
119.731
136.798
149.397
187.548
238.42
317.828
412.806
561.852
773.971
754.07
1073.47
1668.78
1913.93
1803.61
1696.61
1527.52
1432.97
1322.05
1266.44
1197.43
1158.27
1104.3
1065.1
1015.31
975.304
930.886
894.518
856.825
823.099
786.654
749.175
707.944
665.133
620.99
577.789
536.58
498.67
464.45
434.211
407.831
385.192
366.294
351.415
341.398
337.335
339.59
346.163
353.334
357.15
356.125
350.068
340.766
328.438
316.429
301.411
75.6215
104.368
120.226
128.966
135.131
138.761
140.358
140.446
139.541
137.943
135.919
133.623
131.224
128.831
126.569
124.493
122.678
121.074
119.677
118.346
117.056
115.647
114.162
112.454
110.663
108.652
106.637
104.469
102.412
100.285
98.3816
96.5114
94.919
93.4885
92.3123
91.5172
90.8506
90.9485
90.8453
92.2284
92.7319
96.0482
97.3914
103.941
107.601
121.117
136.832
172.054
232.212
310.464
417.468
570.484
818.359
813.348
1010.11
1530.55
1835.66
1796.99
1715.1
1561.96
1470.27
1363.86
1308.42
1241.53
1202.06
1148.8
1108.74
1058.64
1017.44
972.16
934.303
895.125
859.239
820.371
780.004
735.794
689.954
643.014
597.267
553.859
514.056
478.244
446.663
419.162
395.604
375.987
360.632
350.44
346.554
349.218
356.2
363.517
367.225
365.886
359.482
349.762
337.113
324.59
309.421
78.8699
110.04
125.586
134.293
140.746
144.781
146.766
147.102
146.26
144.578
142.384
139.893
137.311
134.768
132.395
130.24
128.364
126.701
125.224
123.779
122.328
120.713
118.979
116.986
114.88
112.531
110.162
107.619
105.183
102.644
100.339
98.0063
95.995
94.0321
92.4236
90.9873
89.8809
89.162
88.6369
88.9357
89.1082
90.9578
92.2456
96.8378
101.288
112.578
132.166
166.779
235.33
315.085
430.386
588.552
862.191
871.886
996.09
1419.72
1747.63
1772.37
1718.47
1584.5
1498.11
1397.67
1343.5
1279.29
1240.05
1187.79
1147.22
1097.06
1054.93
1008.95
969.75
929.138
891.125
849.842
806.637
759.549
710.85
661.329
613.288
567.943
526.506
489.34
456.632
428.198
403.882
383.68
367.959
357.671
353.999
357.06
364.394
371.8
375.377
373.757
367.066
357.019
344.131
331.21
315.953
81.4665
114.486
129.799
138.556
145.282
149.673
152.025
152.643
151.942
150.276
148.016
145.425
142.746
140.132
137.718
135.552
133.678
132.013
130.508
128.998
127.432
125.657
123.719
121.49
119.12
116.491
113.827
110.979
108.233
105.371
102.746
100.064
97.728
95.3789
93.4462
91.5632
90.1383
88.8696
88.0553
87.6418
87.623
88.5302
89.9135
93.3179
98.7578
109.094
132.583
168.52
243.798
326.647
447.476
611.056
904.532
926.934
1008.27
1338.79
1660.29
1735.14
1709.41
1596.61
1517.6
1424.37
1372.48
1311.5
1272.96
1221.99
1181.23
1131.23
1088.39
1041.86
1001.42
959.405
919.278
875.581
829.578
779.707
728.304
676.399
626.291
579.242
536.397
498.089
464.441
435.24
410.307
389.638
373.645
363.332
359.908
363.36
371.008
378.474
381.92
380.062
373.146
362.853
349.792
336.567
321.269
83.4703
117.903
133.086
141.977
148.978
153.695
156.386
157.289
156.771
155.184
152.929
150.311
147.601
144.977
142.578
140.45
138.622
136.994
135.494
133.948
132.296
130.388
128.275
125.842
123.243
120.372
117.452
114.345
111.336
108.207
105.316
102.358
99.7583
97.1166
94.9278
92.7228
91.0548
89.4108
88.3877
87.5143
87.3846
87.7257
89.2809
92.0864
98.5769
108.95
136.021
174.485
255.054
341.741
466.464
635.378
945.042
978.153
1033.18
1284.93
1580.84
1690.44
1690.67
1599.82
1529.76
1444.77
1396.04
1338.76
1301.37
1251.94
1211.27
1161.61
1118.27
1071.3
1029.72
986.317
944.077
897.963
849.205
796.642
742.684
688.582
636.617
588.078
544.031
504.768
470.351
440.528
415.104
394.075
377.895
367.618
364.476
368.318
376.26
383.778
387.111
385.064
377.982
367.513
354.335
340.881
325.581
84.956
120.455
135.606
144.709
152
157.021
160.027
161.207
160.887
159.42
157.221
154.629
151.942
149.357
147.018
144.967
143.217
141.653
140.181
138.618
136.897
134.875
132.607
129.992
127.187
124.1
120.954
117.621
114.38
111.024
107.904
104.717
101.896
99.022
96.6223
94.1751
92.3126
90.4049
89.224
88.0544
87.864
87.8909
89.6626
92.2785
99.8252
110.898
141.165
182.744
267.653
358.435
486.154
660.179
983.617
1025.82
1063.84
1253.01
1513.35
1642.77
1664.99
1595.65
1535.6
1459.59
1414.77
1361.58
1325.73
1278.07
1237.74
1188.6
1144.93
1097.62
1054.96
1010.17
965.81
917.281
865.815
810.656
754.291
698.172
644.549
594.719
549.659
509.614
474.58
444.269
418.466
397.171
380.881
370.699
367.869
372.109
380.338
387.916
391.168
388.984
381.789
371.203
357.954
344.331
329.058
85.9969
122.273
137.478
146.864
154.462
159.778
163.076
164.52
164.404
163.078
160.972
158.448
155.826
153.319
151.076
149.133
147.487
146.007
144.579
143.013
141.234
139.112
136.702
133.922
130.928
127.647
124.294
120.759
117.311
113.756
110.434
107.053
104.037
100.973
98.3941
95.7574
93.7335
91.6345
90.3302
88.9708
88.7542
88.633
90.6534
93.3529
101.944
114.118
147.247
192.157
280.826
375.719
505.921
684.767
1020.25
1070.33
1096.75
1237.55
1459.25
1595.71
1634.93
1585.66
1536.09
1469.52
1429.19
1380.43
1346.44
1300.74
1260.97
1212.49
1168.63
1121.07
1077.37
1031.19
984.71
933.773
879.654
822.002
763.38
705.42
650.329
599.394
553.498
512.83
477.318
446.64
420.562
399.087
382.757
372.722
370.237
374.886
383.407
391.068
394.276
392.005
384.745
374.09
360.808
347.064
331.84
86.6582
123.464
138.796
148.526
156.449
162.055
165.63
167.322
167.408
166.236
164.247
161.823
159.301
156.906
154.788
152.979
151.457
150.076
148.702
147.142
145.314
143.1
140.559
137.627
134.459
130.998
127.457
123.738
120.103
116.369
112.866
109.315
106.128
102.903
100.167
97.3773
95.2158
92.9744
91.5715
90.093
89.8767
89.7193
92.0156
94.9807
104.602
118.099
153.828
202.103
294.171
393.076
525.437
708.779
1054.96
1112.02
1130.14
1233.87
1418.14
1551.85
1602.77
1571.31
1532.2
1475.25
1439.83
1395.72
1363.85
1320.26
1281.24
1233.53
1189.61
1141.85
1097.16
1049.57
1000.97
947.644
890.937
830.902
770.176
710.549
654.174
602.311
555.743
514.599
478.739
447.803
421.542
399.967
383.661
373.822
371.713
376.789
385.618
393.39
396.594
394.282
386.998
376.314
363.028
349.201
334.041
86.9971
124.119
139.635
149.761
158.026
163.923
167.761
169.687
169.969
168.957
167.102
164.802
162.406
160.151
158.185
156.53
155.148
153.878
152.566
151.017
149.147
146.847
144.185
141.11
137.779
134.153
130.438
126.551
122.743
118.848
115.18
111.478
108.138
104.774
101.898
98.9815
96.7009
94.351
92.8689
91.3206
91.1268
91.0112
93.609
96.9628
107.598
122.533
160.662
212.25
307.473
410.239
544.524
732.019
1087.8
1151.2
1163.13
1238.29
1388.55
1512.78
1570.36
1553.97
1524.85
1477.4
1447.14
1407.81
1378.27
1336.9
1298.77
1251.95
1208.06
1160.14
1114.48
1065.48
1014.76
959.074
899.856
837.558
774.884
713.762
656.279
603.657
556.572
515.087
478.996
447.905
421.547
399.942
383.718
374.121
372.419
377.945
387.104
395.02
398.259
395.947
388.672
377.989
364.721
350.842
335.758
87.0634
124.314
140.06
150.623
159.246
165.434
169.527
171.675
172.144
171.294
169.583
167.426
165.179
163.085
161.29
159.807
158.579
157.427
156.184
154.65
152.741
150.363
147.585
144.376
140.893
137.114
133.236
129.194
125.227
121.186
117.367
113.53
110.05
106.563
103.562
100.539
98.1538
95.7207
94.1754
92.5932
92.442
92.4258
95.3495
99.1778
110.811
127.235
167.607
222.422
320.613
427.064
563.082
754.376
1118.79
1188.1
1195.26
1248.17
1368.6
1479.31
1539.16
1534.85
1514.9
1476.59
1451.58
1417.05
1389.97
1350.91
1313.79
1267.93
1224.14
1176.11
1129.48
1079.06
1026.24
968.23
906.59
842.155
777.692
715.245
656.826
603.604
556.147
514.449
478.236
447.08
420.703
399.133
383.044
373.732
372.468
378.469
387.982
396.078
399.388
397.11
389.869
379.211
365.979
352.071
337.07
86.9006
124.118
140.123
151.154
160.149
166.631
170.973
173.33
173.979
173.289
171.73
169.728
167.647
165.734
164.128
162.831
161.766
160.739
159.567
158.051
156.107
153.653
150.767
147.432
143.807
139.883
135.854
131.668
127.555
123.379
119.422
115.462
111.855
108.26
105.145
102.031
99.5541
97.0571
95.4626
93.8744
93.7846
93.9127
97.1856
101.55
114.164
132.089
174.578
232.52
333.52
443.471
581.051
775.787
1147.98
1222.9
1226.32
1261.62
1356.4
1451.59
1510.19
1514.98
1503.12
1473.37
1453.55
1423.79
1399.24
1362.52
1326.48
1281.63
1238.02
1189.88
1142.3
1090.46
1035.55
975.265
911.304
844.867
778.777
715.174
655.985
602.314
554.621
512.826
476.592
445.455
419.128
397.652
381.746
372.758
371.963
378.464
388.359
396.668
400.08
397.862
390.674
380.058
366.874
352.955
338.042
86.5464
123.59
139.873
151.394
160.771
167.551
172.135
174.693
175.512
174.979
173.577
171.739
169.838
168.121
166.717
165.617
164.722
163.825
162.726
161.23
159.252
156.728
153.738
150.284
146.525
142.466
138.296
133.978
129.728
125.428
121.343
117.273
113.549
109.857
106.64
103.448
100.889
98.3442
96.7133
95.1419
95.1319
95.4409
99.0855
104.03
117.606
137.022
181.522
242.487
346.148
459.41
598.392
796.214
1175.4
1255.75
1256.18
1277.35
1350.27
1429.41
1484.09
1495.21
1490.19
1468.28
1453.45
1428.3
1406.3
1371.91
1337.02
1293.22
1249.81
1201.58
1153.06
1099.78
1042.81
980.326
914.155
845.859
778.307
713.713
653.913
599.939
552.136
510.353
474.188
443.147
416.932
395.602
379.923
371.294
370.996
378.024
388.327
396.876
400.415
398.277
391.156
380.592
367.466
353.551
338.728
86.0334
122.782
139.351
151.375
161.14
168.222
173.045
175.793
176.775
176.396
175.15
173.485
171.774
170.264
169.074
168.179
167.46
166.694
165.671
164.194
162.185
159.593
156.505
152.939
149.053
144.868
140.567
136.125
131.748
127.336
123.133
118.961
115.13
111.352
108.041
104.782
102.152
99.5725
97.9173
96.3821
96.4701
96.9918
101.029
106.585
121.102
141.988
188.405
252.287
358.466
474.851
615.08
815.634
1201.08
1286.77
1284.81
1294.47
1348.8
1412.25
1461.21
1476.16
1476.68
1461.76
1451.63
1430.88
1411.38
1379.3
1345.57
1302.84
1259.66
1211.33
1161.86
1107.16
1048.17
983.552
915.294
845.287
776.438
711.018
650.762
596.621
548.827
507.155
471.141
440.263
414.217
393.08
377.665
369.428
369.653
377.23
387.963
396.775
400.461
398.415
391.369
380.866
367.803
353.904
339.173
85.3898
121.739
138.595
151.127
161.284
168.669
173.726
176.658
177.794
177.564
176.476
174.988
173.475
172.182
171.214
170.53
169.991
169.357
168.408
166.951
164.912
162.255
159.074
155.401
151.396
147.094
142.67
138.114
133.62
129.103
124.791
120.527
116.598
112.742
109.347
106.031
103.339
100.736
99.0686
97.5872
97.7916
98.5539
103.003
109.195
124.629
146.953
195.203
261.895
370.448
489.767
631.095
834.032
1225.05
1316.04
1312.2
1312.34
1350.85
1399.52
1441.6
1458.29
1463.08
1454.23
1448.4
1431.78
1414.68
1384.84
1352.28
1310.6
1267.67
1219.23
1168.81
1112.69
1051.73
985.077
914.865
843.301
773.322
707.235
646.671
592.491
544.816
503.346
467.558
436.904
411.076
390.172
375.054
367.236
368.006
376.153
387.334
396.425
400.268
398.323
391.357
380.919
367.925
354.05
339.412
84.64
120.503
137.638
150.676
161.225
168.913
174.202
177.31
178.593
178.506
177.575
176.267
174.959
173.888
173.149
172.68
172.322
171.821
170.945
169.508
167.44
164.72
161.45
157.677
153.561
149.149
144.61
139.948
135.346
130.733
126.321
121.973
117.954
114.029
110.558
107.193
104.448
101.833
100.164
98.7529
99.092
100.121
105
111.843
128.169
151.896
201.897
271.291
382.073
504.141
646.421
851.4
1247.34
1343.66
1338.34
1330.54
1355.52
1390.58
1425.17
1441.9
1449.74
1446.03
1444.04
1431.24
1416.41
1388.7
1357.29
1316.64
1273.94
1225.38
1174.02
1116.49
1053.63
985.031
913.005
840.044
769.101
702.503
641.772
587.675
540.221
499.035
463.539
433.161
407.593
386.957
372.165
364.789
366.123
374.853
386.493
395.872
399.879
398.037
391.153
380.782
367.86
354.018
339.473
83.8048
119.109
136.509
150.044
160.982
168.973
174.489
177.768
179.191
179.242
178.466
177.34
176.24
175.398
174.891
174.64
174.463
174.093
173.288
171.87
169.773
166.994
163.639
159.772
155.55
151.036
146.391
141.632
136.929
132.228
127.724
123.3
119.199
115.213
111.673
108.267
105.477
102.86
101.202
99.877
100.37
101.688
107.012
114.516
131.707
156.797
208.471
280.457
393.322
517.955
661.044
867.732
1267.98
1369.68
1363.25
1348.77
1362.12
1384.82
1411.69
1427.16
1436.94
1437.44
1438.81
1429.45
1416.73
1391.03
1360.72
1321.06
1278.58
1229.88
1177.58
1118.67
1053.97
983.54
909.848
835.651
763.909
696.952
636.189
582.288
535.147
494.319
459.174
429.119
403.847
383.507
369.064
362.148
364.058
373.38
385.483
395.152
399.324
397.584
390.782
380.479
367.633
353.829
339.38
82.902
117.588
135.235
149.254
160.574
168.867
174.606
178.047
179.604
179.789
179.166
178.222
177.333
176.722
176.45
176.418
176.421
176.179
175.444
174.042
171.918
169.081
165.645
161.689
157.369
152.76
148.016
143.168
138.372
133.591
129.003
124.511
120.335
116.295
112.692
109.254
106.427
103.818
102.183
100.959
101.624
103.254
109.037
117.206
135.233
161.645
214.914
289.38
404.178
531.194
674.954
883.025
1287
1394.16
1386.96
1366.81
1370.11
1381.69
1400.9
1414.11
1424.88
1428.7
1432.9
1426.6
1415.79
1391.96
1362.69
1323.96
1281.69
1232.82
1179.58
1119.31
1052.86
980.723
905.52
830.251
757.873
690.704
630.036
576.437
529.694
489.29
454.546
424.852
399.907
379.887
365.81
359.365
361.859
371.773
384.336
394.291
398.623
396.983
390.262
380.027
367.261
353.501
339.15
81.9468
115.968
133.841
148.324
160.018
168.609
174.565
178.164
179.848
180.161
179.688
178.927
178.25
177.872
177.835
178.021
178.202
178.085
177.416
176.03
173.878
170.985
167.473
163.434
159.022
154.326
149.49
144.56
139.679
134.826
130.161
125.607
121.363
117.275
113.619
110.154
107.299
104.707
103.107
102.001
102.856
104.819
111.07
119.905
138.737
166.428
221.213
298.045
414.625
543.844
688.14
897.279
1304.42
1417.14
1409.49
1384.49
1379.07
1380.69
1392.48
1402.74
1413.67
1419.99
1426.51
1422.86
1413.75
1391.62
1363.31
1325.45
1283.34
1234.28
1180.11
1118.53
1050.42
976.697
900.141
823.965
751.111
683.872
623.421
570.22
523.951
484.028
449.728
420.428
395.832
376.15
362.452
356.487
359.563
370.064
383.077
393.306
397.793
396.247
389.605
379.44
366.757
353.047
338.795
80.9522
114.272
132.347
147.273
159.329
168.211
174.38
178.13
179.935
180.372
180.046
179.466
179.001
178.856
179.055
179.456
179.812
179.816
179.21
177.838
175.657
172.712
169.128
165.01
160.513
155.735
150.816
145.811
140.852
135.934
131.199
126.59
122.285
118.157
114.452
110.969
108.094
105.529
103.976
103.002
104.068
106.381
113.11
122.607
142.212
171.137
227.359
306.439
424.647
555.893
700.593
910.495
1320.29
1438.68
1430.85
1401.72
1388.67
1381.41
1386.13
1392.96
1403.37
1411.45
1419.77
1418.37
1410.72
1390.13
1362.68
1325.61
1283.63
1234.35
1179.25
1116.41
1046.74
971.572
893.827
816.909
743.736
676.562
616.44
563.725
517.998
478.607
444.787
415.905
391.678
372.347
359.034
353.549
357.202
368.274
381.72
392.21
396.841
395.384
388.82
378.725
366.128
352.475
338.325
79.9292
112.521
130.773
146.116
158.52
167.688
174.063
177.958
179.877
180.432
180.25
179.849
179.596
179.684
180.116
180.73
181.256
181.377
180.83
179.469
177.261
174.265
170.612
166.421
161.845
156.993
151.997
146.924
141.895
136.917
132.119
127.463
123.103
118.94
115.195
111.701
108.813
106.285
104.792
103.966
105.26
107.943
115.153
125.305
145.651
175.762
233.34
314.548
434.23
567.328
712.306
922.676
1334.62
1458.8
1451.09
1418.41
1398.66
1383.48
1381.54
1384.67
1394
1403.16
1412.81
1413.26
1406.83
1387.58
1360.9
1324.54
1282.64
1233.11
1177.1
1113.05
1041.92
965.454
886.686
809.189
735.849
668.869
609.183
557.035
511.909
473.09
439.779
411.335
387.489
368.516
355.592
350.583
354.798
366.419
380.274
391.006
395.77
394.396
387.91
377.886
365.381
351.79
337.747
78.8871
110.733
129.136
144.868
157.604
167.049
173.623
177.656
179.684
180.353
180.312
180.088
180.045
180.364
181.025
181.848
182.539
182.771
182.28
180.929
178.693
175.648
171.931
167.672
163.022
158.102
153.037
147.902
142.81
137.78
132.925
128.227
123.819
119.628
115.848
112.349
109.458
106.976
105.557
104.895
106.436
109.504
117.198
127.994
149.047
180.297
239.147
322.361
443.363
578.141
723.272
933.826
1347.46
1477.54
1470.21
1434.49
1408.84
1386.6
1378.43
1377.72
1385.54
1395.2
1405.71
1407.62
1402.16
1384.07
1358.04
1322.3
1280.43
1230.63
1173.74
1108.54
1036.07
958.445
878.82
800.906
727.546
660.883
601.728
550.219
505.745
467.534
434.754
406.762
383.305
364.694
352.155
347.61
352.367
364.508
378.743
389.695
394.581
393.285
386.876
376.926
364.519
350.996
337.064
77.8338
108.923
127.45
143.542
156.593
166.305
173.07
177.235
179.366
180.144
180.239
180.19
180.355
180.901
181.789
182.816
183.665
184.004
183.564
182.22
179.957
176.865
173.087
168.765
164.048
159.067
153.938
148.749
143.599
138.524
133.619
128.884
124.435
120.221
116.413
112.917
110.031
107.605
106.274
105.792
107.598
111.064
119.243
130.669
152.395
184.735
244.772
329.866
452.032
588.322
733.488
943.952
1358.85
1494.94
1488.25
1449.93
1419.05
1390.52
1376.56
1371.97
1377.93
1387.59
1398.55
1401.54
1396.82
1379.69
1354.19
1318.97
1277.09
1226.98
1169.24
1102.96
1029.27
950.639
870.324
792.152
718.914
652.682
594.148
543.342
499.564
461.986
429.753
402.222
379.157
360.905
348.745
344.648
349.92
362.544
377.126
388.275
393.271
392.048
385.718
375.845
363.541
350.094
336.279
76.7759
107.104
125.73
142.151
155.498
165.466
172.414
176.702
178.93
179.812
180.041
180.163
180.533
181.303
182.413
183.637
184.64
185.079
184.685
183.346
181.056
177.92
174.084
169.704
164.926
159.889
154.703
149.466
144.266
139.151
134.202
129.438
124.952
120.722
116.893
113.405
110.533
108.175
106.945
106.66
108.749
112.625
121.285
133.326
155.69
189.068
250.206
337.052
460.229
597.863
742.949
953.062
1368.81
1511.04
1505.23
1464.69
1429.17
1395.01
1375.69
1367.26
1371.13
1380.35
1391.38
1395.1
1390.87
1374.51
1349.42
1314.63
1272.68
1222.24
1163.67
1096.39
1021.61
942.127
861.288
783.011
710.03
644.338
586.505
536.457
493.41
456.486
424.81
397.743
375.069
357.173
345.379
341.709
347.46
360.526
375.42
386.74
391.834
390.681
384.433
374.642
362.447
349.084
335.391
75.7189
105.287
123.986
140.704
154.328
164.539
171.661
176.066
178.385
179.366
179.724
180.015
180.586
181.576
182.902
184.317
185.466
185.999
185.648
184.312
181.994
178.815
174.926
170.492
165.659
160.572
155.336
150.057
144.813
139.665
134.678
129.889
125.373
121.132
117.288
113.817
110.968
108.688
107.574
107.502
109.889
114.186
123.322
135.96
158.926
193.292
255.441
343.909
467.944
606.758
751.654
961.165
1377.39
1525.87
1521.17
1478.75
1439.09
1399.91
1375.63
1363.45
1365.04
1373.48
1384.22
1388.35
1384.38
1368.59
1343.79
1309.33
1267.26
1216.48
1157.12
1088.91
1013.18
932.992
851.792
773.561
700.966
635.912
578.854
529.612
487.323
451.068
419.953
393.349
371.062
353.512
342.069
338.799
344.99
358.452
373.616
385.084
390.265
389.179
383.016
373.312
361.236
347.963
334.4
74.6676
103.481
122.23
139.213
153.092
163.535
170.82
175.333
177.737
178.813
179.297
179.752
180.52
181.725
183.261
184.86
186.148
186.769
186.456
185.12
182.775
179.555
175.616
171.134
166.25
161.12
155.84
150.525
145.243
140.066
135.047
130.239
125.7
121.454
117.601
114.154
111.337
109.146
108.165
108.322
111.023
115.748
125.351
138.568
162.101
197.4
260.47
350.428
475.168
615.002
759.602
968.272
1384.64
1539.45
1536.09
1492.09
1448.74
1405.06
1376.21
1360.41
1359.59
1366.94
1377.11
1381.34
1377.41
1362.01
1337.37
1303.14
1260.91
1209.77
1149.65
1080.6
1004.04
923.313
841.912
763.872
691.784
627.461
571.241
522.844
481.335
445.756
415.202
389.056
367.148
349.933
338.823
335.921
342.507
356.313
371.708
383.297
388.556
387.536
381.463
371.853
359.903
346.729
333.303
73.6256
101.695
120.469
137.686
151.8
162.458
169.896
174.511
176.993
178.159
178.764
179.38
180.341
181.754
183.494
185.27
186.689
187.392
187.112
185.774
183.402
180.144
176.158
171.632
166.703
161.535
156.217
150.872
145.558
140.359
135.314
130.492
125.934
121.688
117.835
114.418
111.644
109.554
108.72
109.122
112.151
117.311
127.37
141.145
165.208
201.387
265.286
356.602
481.898
622.593
766.794
974.396
1390.58
1551.84
1550.03
1504.72
1458.04
1410.34
1377.25
1357.98
1354.7
1360.73
1370.04
1374.1
1370
1354.82
1330.22
1296.12
1253.67
1202.15
1141.33
1071.54
994.286
913.162
831.717
754.006
682.539
619.03
563.704
516.184
475.47
440.569
410.573
384.878
363.338
346.443
335.643
333.075
340.006
354.103
369.685
381.371
386.699
385.746
379.769
370.259
358.445
345.378
332.098
72.5961
99.9333
118.711
136.131
150.458
161.318
168.898
173.604
176.159
177.409
178.132
178.905
180.053
181.67
183.606
185.55
187.093
187.871
187.62
186.278
183.879
180.584
176.556
171.99
167.022
161.821
156.47
151.101
145.76
140.544
135.478
130.649
126.077
121.838
117.99
114.612
111.89
109.914
109.243
109.907
113.276
118.873
129.377
143.688
168.245
205.248
269.884
362.424
488.127
629.529
773.232
979.551
1395.27
1563.05
1563
1516.61
1466.95
1415.63
1378.65
1356.07
1350.28
1354.8
1363.03
1366.67
1362.2
1347.05
1322.37
1288.32
1245.6
1193.71
1132.22
1061.78
983.971
902.607
821.268
744.019
673.278
610.66
556.276
509.659
469.747
435.522
406.075
380.82
359.636
343.044
332.53
330.257
337.48
351.811
367.537
379.297
384.687
383.802
377.929
368.527
356.858
343.908
330.78
71.5819
98.2022
116.963
134.556
149.074
160.12
167.83
172.62
175.24
176.571
177.407
178.331
179.662
181.475
183.6
185.705
187.364
188.21
187.983
186.635
184.208
180.879
176.812
172.211
167.208
161.981
156.602
151.215
145.853
140.626
135.544
130.711
126.133
121.906
118.07
114.738
112.08
110.23
109.739
110.679
114.399
120.434
131.368
146.192
171.208
208.978
274.258
367.887
493.852
635.809
778.921
983.753
1398.76
1573.13
1575.03
1527.77
1475.43
1420.85
1380.26
1354.56
1346.25
1349.11
1356.07
1359.06
1354.04
1338.77
1313.89
1279.79
1236.77
1184.48
1122.39
1051.39
973.164
891.707
810.622
733.959
664.043
602.383
548.982
503.284
464.178
430.623
401.714
376.885
356.042
339.737
329.482
327.461
334.921
349.429
365.256
377.066
382.512
381.699
375.935
366.652
355.137
342.313
329.347
70.5848
96.5054
115.23
132.966
147.654
158.871
166.699
171.563
174.243
175.648
176.593
177.664
179.172
181.175
183.48
185.737
187.504
188.412
188.205
186.849
184.395
181.033
176.93
172.299
167.266
162.017
156.617
151.216
145.839
140.605
135.513
130.682
126.102
121.893
118.077
114.8
112.217
110.505
110.21
111.442
115.521
121.993
133.341
148.656
174.094
212.574
278.404
372.988
499.072
641.436
783.865
987.019
1401.1
1582.11
1586.14
1538.19
1483.43
1425.93
1382.01
1353.34
1342.54
1343.63
1349.14
1351.29
1345.54
1330
1304.82
1270.58
1227.21
1174.54
1111.89
1040.44
961.924
880.52
799.827
723.869
654.868
594.225
541.84
497.074
458.771
425.875
397.491
373.074
352.557
336.518
326.494
324.682
332.321
346.945
362.831
374.67
380.167
379.429
373.785
364.628
353.279
340.589
327.794
69.6067
94.8463
113.517
131.368
146.204
157.575
165.509
170.439
173.171
174.647
175.695
176.909
178.587
180.772
183.25
185.65
187.517
188.48
188.289
186.922
184.442
181.05
176.914
172.256
167.199
161.933
156.517
151.107
145.72
140.485
135.388
130.564
125.988
121.803
118.013
114.799
112.303
110.744
110.662
112.199
116.644
123.549
135.294
151.075
176.899
216.032
282.318
377.723
503.787
646.412
788.071
989.369
1402.32
1590.04
1596.35
1547.89
1490.94
1430.79
1383.79
1352.34
1339.08
1338.31
1342.23
1343.36
1336.74
1320.78
1295.19
1260.74
1216.98
1163.93
1100.79
1028.97
950.307
869.095
788.928
713.783
645.78
586.207
534.863
491.035
453.528
421.278
393.404
369.383
349.175
333.382
323.559
321.913
329.671
344.352
360.255
372.102
377.646
376.987
371.471
362.451
351.278
338.733
326.118
68.6489
93.2271
111.828
129.766
144.73
156.239
164.266
169.252
172.031
173.57
174.718
176.069
177.911
180.271
182.913
185.447
187.406
188.418
188.238
186.86
184.353
180.932
176.767
172.087
167.01
161.732
156.305
150.892
145.499
140.267
135.17
130.359
125.792
121.637
117.882
114.74
112.343
110.951
111.097
112.952
117.767
125.1
137.224
153.447
179.622
219.349
285.997
382.09
507.997
650.741
791.548
990.821
1402.5
1596.95
1605.7
1556.87
1497.92
1435.4
1385.54
1351.46
1335.8
1333.11
1335.33
1335.28
1327.66
1311.14
1285.05
1250.3
1206.13
1152.7
1089.13
1017.05
938.363
857.477
777.962
703.734
636.801
578.343
528.059
485.17
448.449
416.83
389.448
365.807
345.891
330.322
320.671
319.143
326.962
341.641
357.519
369.355
374.942
374.368
368.99
360.117
349.13
336.739
324.313
67.7124
91.6495
110.165
128.166
143.237
154.867
162.975
168.007
170.825
172.424
173.666
175.149
177.149
179.676
182.472
185.132
187.174
188.229
188.057
186.664
184.132
180.684
176.494
171.795
166.702
161.417
155.984