/*--------------------------------*- C++ -*----------------------------------*\
| =========                 |                                                 |
| \\      /  F ield         | OpenFOAM: The Open Source CFD Toolbox           |
|  \\    /   O peration     | Version:  2412                                  |
|   \\  /    A nd           | Website:  www.openfoam.com                      |
|    \\/     M anipulation  |                                                 |
\*---------------------------------------------------------------------------*/
FoamFile
{
    version     2.0;
    format      ascii;
    arch        "LSB;label=32;scalar=64";
    class       volScalarField;
    location    "0.7";
    object      nut;
}
// * * * * * * * * * * * * * * * * * * * * * * * * * * * * * * * * * * * * * //

dimensions      [0 2 -1 0 0 0 0];

internalField   nonuniform List<scalar> 
78408
(
0.00128471
0.00129762
0.00115692
0.00105515
0.000996651
0.000959353
0.000932955
0.000912834
0.000896833
0.000883198
0.000870653
0.000858102
0.000845137
0.000831484
0.000817405
0.000802886
0.00078849
0.000774141
0.000760364
0.000746813
0.000734096
0.000721494
0.000709938
0.000698299
0.000687874
0.000677059
0.000667831
0.000657746
0.000649873
0.000640461
0.000634064
0.000625167
0.000620195
0.000611855
0.000608615
0.000600542
0.000599354
0.00059113
0.00059233
0.000583437
0.000587633
0.000577337
0.000585204
0.000572227
0.000584269
0.000566228
0.000582563
0.000557678
0.000581332
0.000552642
0.000592959
0.000560621
0.000682449
0.000730705
0.000626182
0.000577024
0.000558464
0.000549173
0.000546049
0.00054438
0.000545456
0.000546163
0.000549423
0.000551661
0.000556193
0.000558933
0.000563063
0.00056519
0.000568345
0.000570153
0.000573208
0.00057584
0.000579881
0.000583693
0.000588235
0.000592068
0.00059567
0.000598351
0.000600409
0.000601784
0.000602716
0.000603471
0.000604026
0.000604853
0.000605658
0.000607225
0.000609113
0.000612769
0.000617608
0.000626282
0.000636706
0.000651259
0.000663926
0.000678505
0.000686853
0.000698124
0.000700641
0.000710679
0.000710018
0.00386858
0.00387117
0.00266151
0.00203319
0.00172022
0.00155826
0.00149466
0.00149702
0.00153484
0.00157929
0.00161797
0.00164518
0.00166324
0.00167286
0.00167697
0.00167539
0.00166947
0.00165762
0.00164235
0.0016217
0.00159913
0.00157239
0.00154538
0.00151453
0.00148586
0.00145341
0.001425
0.00139283
0.00136622
0.0013352
0.00131185
0.00128242
0.00126234
0.0012375
0.00122041
0.00120008
0.00118467
0.00116946
0.00115467
0.00114562
0.00112913
0.00112828
0.00110752
0.00111854
0.00109119
0.0011196
0.00108479
0.00113247
0.00109326
0.00115537
0.00109851
0.00115312
0.000869609
0.00130097
0.00201249
0.00213126
0.00232471
0.00223122
0.00239089
0.00228152
0.00242675
0.00235885
0.0025175
0.0025004
0.00265746
0.00266501
0.00279612
0.00280944
0.00291207
0.00293131
0.00301619
0.00304397
0.00310816
0.00312611
0.00314399
0.00312096
0.00308561
0.00302298
0.00295415
0.00287667
0.00280372
0.00273518
0.00267667
0.00262869
0.00259175
0.00256908
0.00256021
0.00257511
0.0026169
0.00270018
0.00280749
0.00293277
0.00302724
0.00310244
0.00311786
0.00313116
0.00306793
0.00308194
0.0029508
0.00159729
0.00247564
0.00214779
0.00197558
0.00202322
0.00225321
0.00255913
0.00281318
0.00296557
0.00300914
0.00298238
0.00290893
0.00282006
0.00272482
0.00263894
0.00256042
0.0024978
0.0024397
0.00239394
0.00234534
0.00230447
0.00225437
0.00221207
0.00215466
0.00210961
0.00204589
0.00200109
0.00193388
0.00189444
0.00182529
0.00179531
0.00172533
0.001701
0.00163264
0.00161586
0.0015501
0.00154165
0.00147709
0.00147718
0.001413
0.00142065
0.00135651
0.00137088
0.0013084
0.00133072
0.00127577
0.00131486
0.00128027
0.00136008
0.00134972
0.00143526
0.00147255
0.00134623
0.00117684
0.00244924
0.00304744
0.003711
0.00375347
0.00418145
0.00407718
0.00442386
0.00435665
0.00471582
0.00473938
0.00509391
0.00516127
0.00545902
0.00552902
0.0057638
0.00583732
0.00602777
0.0061046
0.00623344
0.00626662
0.00627836
0.00620536
0.00610008
0.00594285
0.00577269
0.00558923
0.005416
0.0052549
0.00511489
0.00499866
0.00490602
0.00484547
0.00481632
0.00484209
0.00492932
0.00511089
0.0053453
0.00561905
0.00582325
0.00598813
0.00602186
0.00605791
0.0059213
0.0059439
0.00566604
0.00192301
0.00189213
0.00239379
0.00299641
0.00376661
0.00464708
0.0054609
0.00602594
0.0062913
0.00627332
0.00607245
0.00576059
0.00541457
0.00506352
0.00474297
0.00445319
0.00421222
0.00400054
0.00383058
0.00367407
0.00354508
0.0034124
0.00330015
0.0031703
0.00306231
0.00292964
0.00282565
0.00269232
0.0025987
0.00246808
0.00239075
0.00226621
0.00220385
0.00208616
0.00203792
0.00192898
0.00189636
0.0017943
0.00177667
0.0016795
0.00167506
0.00158058
0.00158816
0.00149583
0.00151859
0.0014338
0.00149344
0.0014396
0.00160504
0.00159113
0.00183653
0.00191527
0.00242993
0.00131296
0.00267719
0.00373648
0.00480789
0.0050958
0.00576848
0.00578987
0.00630988
0.00633703
0.00686363
0.00699404
0.00751393
0.00768653
0.00812363
0.00828145
0.00862656
0.00877358
0.00904938
0.00917846
0.00934908
0.00938401
0.0093716
0.00923839
0.00905474
0.00880212
0.00853272
0.00824969
0.00798351
0.00773813
0.00752427
0.00734637
0.00720383
0.00710991
0.00706588
0.00710855
0.00725098
0.00754082
0.00791369
0.00834118
0.00866196
0.00891827
0.00898099
0.00904198
0.00887405
0.0088908
0.00853572
0.00623002
0.00433481
0.00565019
0.00673672
0.00782724
0.00892598
0.00989442
0.0105596
0.0108549
0.010767
0.0104019
0.0098526
0.00923097
0.00858918
0.00798603
0.00742898
0.00694894
0.00652041
0.0061633
0.00583556
0.00555785
0.00528188
0.00504327
0.00478364
0.00456115
0.004306
0.00409639
0.00384715
0.00365828
0.00341978
0.00325965
0.00303753
0.00290911
0.00270405
0.00260197
0.00241707
0.00234368
0.00217661
0.00212987
0.00197797
0.00195418
0.00181392
0.00181025
0.0016791
0.0016999
0.00158263
0.0016692
0.00160064
0.00190233
0.00189244
0.00242001
0.00257773
0.00424017
0.00193898
0.00289336
0.00426148
0.00569117
0.00624087
0.00714114
0.00733195
0.00802013
0.00818269
0.00886837
0.00913282
0.00980448
0.0100972
0.0106587
0.0109119
0.0113535
0.0115754
0.011921
0.0120948
0.0122886
0.0123121
0.0122617
0.0120623
0.0117972
0.0114527
0.0110903
0.0107174
0.0103688
0.0100502
0.00977311
0.00954307
0.00935948
0.00923947
0.00918823
0.00925488
0.00946199
0.00986739
0.0103861
0.0109675
0.0114077
0.0117527
0.0118519
0.0119362
0.0117526
0.0117628
0.0113613
0.015957
0.0113069
0.0122936
0.0127997
0.0135217
0.0143845
0.015204
0.0157764
0.0160022
0.0158223
0.0153176
0.014576
0.0137247
0.0128322
0.0119761
0.0111725
0.0104635
0.00981982
0.00926724
0.00875229
0.00830169
0.00785267
0.00745329
0.00702664
0.0066515
0.00623449
0.00588178
0.00547754
0.00515864
0.00477358
0.00449922
0.00414063
0.00391795
0.00358749
0.00340888
0.00310989
0.00297829
0.00270874
0.00262168
0.00237934
0.00233174
0.00211295
0.00210067
0.00190181
0.00193243
0.00175837
0.00191022
0.00181054
0.0023697
0.00235289
0.00334561
0.00363864
0.00673463
0.00328905
0.00330187
0.00470867
0.00643386
0.00723162
0.00833787
0.00870843
0.00955988
0.00987556
0.0107164
0.0111264
0.0119411
0.0123576
0.0130326
0.0133806
0.0139075
0.0141999
0.0146019
0.0148103
0.015012
0.0150128
0.0149144
0.0146452
0.0142983
0.0138666
0.0134181
0.0129645
0.0125433
0.0121616
0.0118312
0.0115578
0.0113415
0.0112024
0.0111514
0.011249
0.0115294
0.0120572
0.0127279
0.0134636
0.014025
0.0144566
0.0145971
0.0147032
0.0145116
0.0145143
0.0140823
0.0292667
0.0214467
0.0210244
0.020312
0.0202542
0.0205907
0.0210582
0.0213925
0.0214524
0.0211338
0.020484
0.0195736
0.0185304
0.0174309
0.0163644
0.0153541
0.0144493
0.0136181
0.0128881
0.012197
0.0115747
0.0109484
0.0103763
0.00976904
0.00922259
0.00862628
0.00810984
0.00753241
0.00706298
0.00651289
0.00610435
0.00558948
0.00525258
0.00477469
0.00450173
0.00406294
0.00385762
0.00345576
0.00331708
0.00295075
0.0028746
0.00254137
0.00252527
0.0022223
0.00228424
0.00201953
0.00230998
0.00215933
0.00316861
0.00313504
0.00476435
0.00524227
0.00975782
0.00536992
0.00409154
0.0051674
0.00709837
0.00811392
0.00940185
0.0099466
0.0109534
0.0114274
0.0124191
0.0129778
0.0139279
0.0144664
0.0152453
0.0156841
0.0162864
0.0166424
0.0170887
0.0173212
0.0175179
0.0174869
0.017333
0.0169923
0.0165647
0.0160508
0.0155232
0.0149974
0.0145126
0.0140768
0.0137014
0.0133924
0.0131505
0.0129988
0.0129544
0.0130897
0.0134514
0.0141084
0.0149368
0.0158282
0.0165125
0.0170294
0.0172141
0.0173407
0.0171452
0.0171386
0.0166847
0.0431692
0.0328796
0.0307552
0.0286394
0.0276297
0.0272887
0.0272782
0.0272712
0.0270844
0.0265736
0.0257546
0.0246768
0.0234603
0.0221828
0.0209389
0.019756
0.0186866
0.0176956
0.0168092
0.015958
0.0151726
0.0143744
0.0136287
0.0128398
0.0121162
0.0113373
0.0106496
0.00989592
0.00926801
0.00855056
0.00799946
0.00732605
0.00686516
0.00623617
0.00585891
0.00527345
0.00498411
0.00443801
0.00423875
0.0037302
0.00362113
0.00314868
0.00313483
0.00269784
0.00282209
0.00243811
0.00297954
0.00277726
0.00446234
0.00441177
0.00674241
0.00741538
0.0131159
0.00798689
0.00537848
0.00572308
0.00774163
0.00892792
0.0103712
0.0110763
0.0122278
0.0128579
0.0139946
0.0147003
0.0157777
0.0164337
0.0173073
0.0178308
0.0184991
0.018911
0.0193905
0.0196369
0.0198177
0.0197473
0.0195329
0.01912
0.018614
0.0180231
0.0174229
0.0168329
0.0162925
0.0158103
0.0153973
0.0150595
0.0147981
0.0146393
0.0146075
0.0147866
0.0152372
0.0160303
0.0170223
0.0180715
0.0188803
0.0194818
0.019712
0.0198578
0.01966
0.0196419
0.0191706
0.0565536
0.0445891
0.0408564
0.0373825
0.0353876
0.034309
0.0337493
0.0333306
0.0328337
0.0320814
0.0310626
0.0298061
0.0284208
0.026981
0.0255815
0.0242501
0.023039
0.021909
0.0208822
0.0198837
0.018943
0.0179791
0.0170621
0.0160948
0.0151941
0.0142358
0.0133764
0.0124505
0.0116636
0.0107845
0.01009
0.00926518
0.00867815
0.00790573
0.00742104
0.00669598
0.00631797
0.00563248
0.00536726
0.00471723
0.00457217
0.00395576
0.00395095
0.00337047
0.00359516
0.00308931
0.0040205
0.00381054
0.00634403
0.00628207
0.00923432
0.0100678
0.0166374
0.0109295
0.00716237
0.00645022
0.00841701
0.00970873
0.011278
0.0121249
0.0134084
0.0141877
0.015462
0.0163095
0.0175058
0.0182726
0.0192318
0.0198331
0.0205584
0.0210179
0.0215203
0.0217711
0.0219266
0.0218107
0.0215321
0.0210473
0.0204657
0.019803
0.0191369
0.0184898
0.017901
0.0173794
0.0169354
0.0165744
0.016299
0.0161381
0.0161242
0.016353
0.0168997
0.0178362
0.0189976
0.0202074
0.021142
0.0218274
0.0221032
0.0222665
0.0220662
0.0220339
0.0215461
0.0690396
0.0560919
0.0509828
0.0462929
0.0433555
0.0415321
0.0403892
0.039514
0.0386595
0.0376236
0.0363742
0.0349222
0.0333644
0.0317685
0.0302258
0.0287615
0.0274239
0.0261683
0.0250114
0.0238735
0.0227823
0.0216571
0.0205714
0.0194297
0.0183543
0.0172215
0.0161934
0.0151019
0.0141594
0.013127
0.0122924
0.0113264
0.0106155
0.0097116
0.00912076
0.00826951
0.00780253
0.0069919
0.006659
0.00588183
0.00569987
0.00495347
0.00496556
0.00425774
0.00462459
0.00403455
0.00549189
0.00536579
0.00879559
0.00872529
0.012122
0.0130555
0.0201951
0.0140407
0.00935038
0.00740511
0.00917156
0.0104879
0.0121496
0.0131161
0.0145174
0.015436
0.0168389
0.0178206
0.0191266
0.0199963
0.0210322
0.0217035
0.0224773
0.0229758
0.0234916
0.0237379
0.0238601
0.0236936
0.0233486
0.0227929
0.0221389
0.0214097
0.0206839
0.0199863
0.0193558
0.0188013
0.0183319
0.0179531
0.0176683
0.0175097
0.0175183
0.0178027
0.0184526
0.0195397
0.0208766
0.0222501
0.0233114
0.0240796
0.0243998
0.0245781
0.024374
0.0243247
0.023819
0.0805856
0.0671801
0.0609482
0.0552152
0.0514147
0.0488712
0.0471365
0.0457781
0.0445317
0.043178
0.04167
0.0400043
0.0382659
0.0365145
0.0348346
0.0332461
0.0317908
0.0304173
0.0291353
0.0278617
0.0266222
0.0253379
0.0240853
0.0227729
0.0215259
0.0202242
0.0190317
0.0177819
0.0166887
0.0155119
0.0145421
0.0134454
0.0126152
0.0115922
0.0108989
0.00993608
0.00938258
0.00846408
0.00806471
0.00718087
0.00696378
0.0061128
0.00615173
0.00535331
0.005905
0.00530603
0.00739545
0.0074644
0.0117115
0.0116301
0.0152687
0.0162436
0.0237032
0.0172138
0.0118182
0.00861915
0.0100476
0.0112943
0.01301
0.0140703
0.0155742
0.0166197
0.0181411
0.0192475
0.0206535
0.0216171
0.0227207
0.023454
0.0242677
0.0247968
0.0253171
0.0255508
0.025633
0.0254119
0.0249989
0.0243737
0.0236511
0.0228605
0.0220809
0.0213394
0.0206734
0.0200915
0.0196021
0.0192099
0.01892
0.0187678
0.0188033
0.0191487
0.0199088
0.0211542
0.0226726
0.0242128
0.0254011
0.0262501
0.0266125
0.0268028
0.0265924
0.0265229
0.0259976
0.0912775
0.0777786
0.0706558
0.0640525
0.059483
0.0562621
0.0539434
0.0520891
0.0504268
0.0487282
0.0469374
0.0450403
0.0431115
0.0412014
0.0393861
0.0376775
0.0361086
0.0346201
0.0332145
0.0318055
0.0304175
0.028975
0.0275567
0.0260765
0.0246612
0.0231959
0.021844
0.0204428
0.0192045
0.0178917
0.0167926
0.0155749
0.0146308
0.0135
0.0127093
0.0116483
0.0110123
0.0100027
0.00954014
0.00857111
0.00832325
0.00739753
0.00747605
0.00663528
0.00741393
0.00690273
0.00968574
0.0100453
0.0149513
0.0148525
0.0185524
0.0195205
0.0271075
0.0203777
0.0144523
0.0100957
0.0110762
0.0121536
0.0138799
0.0150055
0.0165952
0.0177536
0.0193821
0.0206025
0.022098
0.0231459
0.0243082
0.0250952
0.0259406
0.0264921
0.0270085
0.0272221
0.0272584
0.0269795
0.026498
0.0258053
0.0250178
0.024171
0.0233435
0.0225639
0.0218682
0.0212644
0.0207596
0.0203584
0.020067
0.0199248
0.0199915
0.0204032
0.0212804
0.0226917
0.0243976
0.026107
0.0274219
0.028349
0.0287501
0.0289486
0.028729
0.0286357
0.0280888
0.101235
0.0878762
0.0800594
0.0727453
0.0675037
0.0636571
0.0607726
0.0584191
0.0563252
0.0542611
0.0521673
0.0500228
0.0478932
0.0458195
0.0438675
0.0420393
0.0403574
0.0387537
0.0372229
0.0356768
0.0341387
0.0325376
0.0309543
0.0293088
0.0277287
0.0261047
0.0245984
0.0230525
0.021675
0.0202338
0.0190113
0.0176814
0.0166291
0.0154003
0.0145176
0.0133702
0.0126565
0.0115707
0.0110497
0.0100155
0.00974347
0.00877302
0.00890668
0.00807572
0.00912147
0.00879787
0.0122912
0.0130008
0.0183798
0.0182565
0.021877
0.0228021
0.0303761
0.0234856
0.0171647
0.0118131
0.0122741
0.0130873
0.0147776
0.015937
0.0175946
0.0188504
0.0205738
0.0218962
0.0234703
0.0245924
0.0258043
0.0266365
0.0275053
0.0280715
0.0285763
0.0287629
0.0287485
0.0284093
0.0278593
0.0271014
0.0262529
0.025355
0.0244852
0.0236733
0.0229534
0.0223328
0.021817
0.0214106
0.0211211
0.0209922
0.0210938
0.0215772
0.0225784
0.0241631
0.0260621
0.0279428
0.0293825
0.0303841
0.0308195
0.0310217
0.0307893
0.0306686
0.0300979
0.110575
0.0974926
0.0891427
0.081259
0.0754379
0.071021
0.0675948
0.0647458
0.0622108
0.0597655
0.0573522
0.0549464
0.0526061
0.050363
0.0482711
0.0463215
0.0445246
0.0428031
0.0411438
0.0394573
0.0377665
0.0360057
0.0342578
0.0324494
0.0307076
0.0289299
0.0272741
0.0255898
0.0240787
0.0225162
0.0211763
0.0197417
0.0185871
0.0172688
0.0162993
0.0150755
0.0142895
0.0131403
0.0125665
0.011485
0.0111971
0.0102102
0.010417
0.009647
0.0109966
0.0109501
0.0151322
0.0162125
0.0218853
0.021731
0.0251719
0.0260286
0.033492
0.0265071
0.0198917
0.0137322
0.0136434
0.0141117
0.0157184
0.016878
0.0185843
0.0199209
0.021726
0.0231377
0.0247789
0.0259648
0.0272172
0.0280861
0.0289704
0.0295435
0.0300297
0.0301832
0.0301138
0.0297125
0.0290947
0.028274
0.0273688
0.0264248
0.0255184
0.0246797
0.0239408
0.0233079
0.0227853
0.0223771
0.0220927
0.0219802
0.0221204
0.0226804
0.0238125
0.0255779
0.0276752
0.0297281
0.03129
0.032361
0.0328256
0.0330264
0.0327775
0.0326258
0.0320292
0.119402
0.106661
0.097907
0.0895749
0.0832599
0.0783273
0.0743867
0.0710503
0.0680695
0.0652317
0.0624858
0.0598069
0.0572469
0.054828
0.0525922
0.0505178
0.0486021
0.0467584
0.0449658
0.0431348
0.0412884
0.0393667
0.0374544
0.0354852
0.033585
0.031658
0.0298578
0.0280408
0.0264018
0.0247244
0.0232728
0.0217404
0.020489
0.0190887
0.0180372
0.0167461
0.015893
0.0146914
0.0140709
0.012958
0.012664
0.0116866
0.0119862
0.011325
0.0130102
0.0133126
0.018133
0.0195722
0.025383
0.0251932
0.0283884
0.0291599
0.0364478
0.0294233
0.0225895
0.0158054
0.0151724
0.0152366
0.0167142
0.0178395
0.0195742
0.0209742
0.0228471
0.0243345
0.0260312
0.0272702
0.0285539
0.0294513
0.0303432
0.030916
0.0313768
0.0314918
0.031364
0.0308993
0.0302147
0.0293342
0.0283765
0.0273915
0.0264538
0.0255937
0.0248408
0.0242
0.0236744
0.0232676
0.0229912
0.0228979
0.0230801
0.0237217
0.0249912
0.0269445
0.0292443
0.0314691
0.0331492
0.0342837
0.0347715
0.0349656
0.0346963
0.0345101
0.0338855
0.127808
0.115422
0.106363
0.0976856
0.090953
0.085555
0.0811303
0.0773174
0.0738893
0.0706512
0.0675625
0.0646008
0.061813
0.0592124
0.0568277
0.054624
0.0525846
0.0506131
0.0486819
0.0467018
0.0446965
0.0426125
0.0405363
0.0384084
0.0363531
0.0342812
0.0323415
0.0303973
0.0286359
0.0268495
0.0252916
0.0236675
0.0223247
0.0208488
0.0197203
0.0183693
0.0174546
0.01621
0.0155495
0.014419
0.0141296
0.0131858
0.013599
0.0130899
0.0151364
0.0158389
0.0212266
0.0229906
0.0288128
0.0285842
0.0314944
0.03217
0.0392425
0.032223
0.0252287
0.0179847
0.0168397
0.0164652
0.0177733
0.0188302
0.0205725
0.0220177
0.0239438
0.025493
0.0272333
0.0285146
0.0298204
0.0307381
0.0316303
0.0321957
0.032625
0.0326965
0.0325075
0.0319788
0.0312289
0.0302917
0.0292859
0.0282649
0.0273013
0.0264249
0.0256627
0.0250184
0.0244932
0.0240909
0.0238249
0.0237535
0.0239808
0.0247087
0.0261221
0.0282697
0.0307752
0.0331704
0.0349632
0.0361542
0.0366588
0.0368408
0.0365472
0.0363232
0.0356687
0.135866
0.123814
0.114528
0.10559
0.0985075
0.0926908
0.0878112
0.0835342
0.07966
0.0760164
0.0725772
0.0693247
0.0663024
0.0635143
0.0609757
0.0586373
0.0564684
0.0543632
0.0522875
0.0501535
0.0479862
0.0457388
0.0434992
0.0412147
0.0390077
0.0367951
0.0347206
0.0326545
0.0307759
0.0288861
0.0272272
0.025517
0.0240878
0.0225421
0.0213414
0.019937
0.0189659
0.0176868
0.0169931
0.0158576
0.0155846
0.0146964
0.0152446
0.0149259
0.0173526
0.0184859
0.0243572
0.0263984
0.032134
0.0318649
0.0344699
0.0350436
0.0418789
0.0349004
0.0277901
0.020226
0.0186176
0.0177944
0.0189001
0.0198566
0.0215855
0.0230573
0.0250217
0.0266185
0.0283903
0.029703
0.0310218
0.0319519
0.0328372
0.0333885
0.0337808
0.0338045
0.0335521
0.0329593
0.0321459
0.0311553
0.0301058
0.0290538
0.0280696
0.027182
0.0264151
0.0257711
0.0252497
0.0248546
0.0246014
0.0245541
0.0248296
0.0256482
0.0272115
0.0295589
0.0322722
0.0348344
0.0367334
0.0379732
0.0384879
0.0386522
0.0383308
0.0380658
0.0373801
0.143639
0.131876
0.122421
0.113293
0.105918
0.0997256
0.0944186
0.0896903
0.0853727
0.0813206
0.0775252
0.0739759
0.0707133
0.0677324
0.0650346
0.062556
0.0602513
0.0580059
0.0557798
0.0534874
0.0511552
0.0487434
0.0463412
0.0439024
0.041547
0.039198
0.0369934
0.0348104
0.0328196
0.0308316
0.0290767
0.0272856
0.0257748
0.0241645
0.0228963
0.0214443
0.0204221
0.0191158
0.0183961
0.0172672
0.017023
0.0162111
0.0169157
0.0168208
0.019639
0.0212149
0.02748
0.0297448
0.0353212
0.0350105
0.0373038
0.0377726
0.044362
0.0374535
0.0302618
0.0224916
0.0204765
0.0192155
0.0200941
0.0209225
0.0226175
0.0240975
0.0260849
0.027715
0.0295063
0.0308398
0.0321627
0.0330973
0.0339688
0.0344998
0.0348499
0.034822
0.0345047
0.033848
0.0329734
0.0319329
0.0308444
0.0297664
0.0287667
0.0278727
0.0271056
0.0264656
0.0259511
0.0255655
0.0253272
0.0253062
0.0256326
0.026546
0.0282646
0.0308165
0.0337379
0.0364625
0.0384598
0.0397401
0.040258
0.0403995
0.0400469
0.0397384
0.0390201
0.151176
0.139647
0.130063
0.120802
0.113184
0.106653
0.100944
0.0957771
0.0910199
0.0865578
0.0824024
0.0785515
0.0750439
0.0718655
0.0690033
0.0663786
0.0639318
0.0615396
0.0591574
0.0567021
0.0542025
0.0516257
0.0490621
0.0464715
0.0439712
0.0414899
0.0391598
0.0368646
0.0347666
0.0326852
0.0308392
0.0289718
0.0273842
0.0257139
0.0243828
0.0228883
0.0218202
0.0204936
0.0197554
0.0186441
0.0184417
0.017726
0.018608
0.0187649
0.0219786
0.0239924
0.0305602
0.0329938
0.0383595
0.0380069
0.0399909
0.0403543
0.0466985
0.039883
0.0326373
0.0247513
0.0223873
0.0207155
0.0213514
0.0220293
0.023671
0.0251413
0.0271367
0.0287858
0.0305847
0.0319283
0.0332468
0.0341784
0.0350296
0.0355342
0.0358376
0.0357549
0.0353717
0.0346518
0.0337186
0.0326319
0.0315089
0.03041
0.0293998
0.0285042
0.027741
0.0271086
0.0266037
0.02623
0.0260084
0.0260155
0.0263951
0.027407
0.0292855
0.0320453
0.0351736
0.0380542
0.0401411
0.0414533
0.0419678
0.0420814
0.0416948
0.0413407
0.0405891
0.158519
0.147158
0.137474
0.128125
0.120305
0.11347
0.107381
0.101788
0.0965951
0.0917228
0.0872049
0.0830491
0.0792927
0.0759125
0.0728809
0.0701043
0.0675088
0.0649635
0.0624195
0.0597974
0.0571285
0.0543865
0.0516628
0.048923
0.0462813
0.0436718
0.0412208
0.0388181
0.0366176
0.0344475
0.0325149
0.0305758
0.0289157
0.02719
0.0258003
0.0242682
0.0231594
0.021819
0.0210699
0.0199867
0.0198401
0.0192392
0.0203188
0.0207508
0.0243563
0.0267898
0.0335713
0.0361215
0.041242
0.0408473
0.0425306
0.042789
0.0488953
0.0421912
0.0349133
0.0269811
0.0243235
0.0222788
0.0226654
0.0231763
0.0247471
0.0261907
0.028179
0.0298333
0.0316279
0.0329717
0.0342773
0.0351985
0.0360232
0.036496
0.0367486
0.0366084
0.0361587
0.0353769
0.0343878
0.0332587
0.032106
0.0309911
0.0299754
0.0290827
0.0283276
0.027706
0.0272133
0.0268534
0.02665
0.0266867
0.0271217
0.0282353
0.0302776
0.0332471
0.0365793
0.039608
0.0417749
0.0431103
0.0436151
0.0436965
0.0432736
0.0428721
0.0420868
0.165699
0.15444
0.144674
0.135272
0.127285
0.120173
0.113726
0.107716
0.102093
0.0968111
0.0919294
0.0874664
0.0834581
0.0798723
0.0766666
0.0737322
0.0709818
0.0682771
0.0655663
0.062774
0.059934
0.057027
0.0541449
0.0512587
0.0484794
0.0457459
0.0431783
0.0406727
0.0383743
0.0361198
0.0341052
0.0320985
0.0303703
0.0285932
0.0271494
0.0255842
0.0244399
0.0230918
0.0223399
0.0212955
0.0212188
0.020751
0.0220473
0.0227724
0.0267592
0.0295828
0.0364943
0.0391133
0.0439668
0.04353
0.0449245
0.0450795
0.0509599
0.0443816
0.037089
0.0291633
0.026262
0.0238883
0.0240272
0.0243604
0.0258449
0.0272461
0.029213
0.030859
0.0326378
0.0339721
0.0352569
0.0361608
0.0369532
0.037389
0.0375873
0.0373874
0.0368711
0.0360289
0.034987
0.0338196
0.0326419
0.0315158
0.0304995
0.0296142
0.0288708
0.0282632
0.027785
0.0274406
0.0272567
0.0273243
0.0278162
0.029034
0.0312427
0.0344223
0.0379535
0.0411213
0.0433582
0.0447083
0.0451977
0.045243
0.0447821
0.0443322
0.0435131
0.172742
0.161521
0.151683
0.142254
0.134128
0.126764
0.119974
0.113558
0.107508
0.101818
0.0965726
0.091801
0.0875386
0.0837439
0.0803596
0.0772619
0.0743503
0.0714805
0.0685983
0.0656327
0.0626207
0.0595493
0.0565108
0.0534813
0.050568
0.0477146
0.0450349
0.0424307
0.0400388
0.0377043
0.0356119
0.0335417
0.0317495
0.0299249
0.0284313
0.0268373
0.0256629
0.0243132
0.023567
0.0225717
0.02258
0.0222628
0.0237934
0.0248247
0.0291756
0.0323516
0.0393157
0.0419609
0.0465359
0.0460569
0.0471766
0.0472301
0.0528996
0.0464585
0.0391655
0.031285
0.0281839
0.025527
0.0254261
0.0255769
0.0269623
0.028307
0.0302389
0.0318638
0.033616
0.0349315
0.0361879
0.0370679
0.0378225
0.0382166
0.0383575
0.0380963
0.0375139
0.0366131
0.0355216
0.0343201
0.033122
0.0319897
0.0309775
0.0301039
0.0293758
0.0287848
0.0283232
0.0279956
0.0278321
0.0279315
0.0284817
0.0298054
0.0321822
0.0355702
0.0392941
0.0425905
0.0448874
0.0462441
0.046713
0.0467191
0.046219
0.0457201
0.0448677
0.179668
0.168424
0.158519
0.149081
0.140837
0.133241
0.126124
0.119309
0.112838
0.106742
0.101132
0.096051
0.0915329
0.0875264
0.0839592
0.0806929
0.0776144
0.0745741
0.0715163
0.0683751
0.0651904
0.0619555
0.0587631
0.0555933
0.05255
0.0495808
0.0467934
0.0440948
0.0416139
0.0392034
0.0370374
0.0349074
0.0330552
0.031187
0.0296478
0.0280293
0.0268302
0.0254852
0.0247535
0.0238182
0.0239267
0.0237771
0.0255577
0.0269034
0.0315953
0.0350798
0.042027
0.0446613
0.0489531
0.0484317
0.0492914
0.0492457
0.0547216
0.0484266
0.041145
0.0333373
0.0300736
0.0271785
0.0268507
0.0268195
0.0280959
0.0293719
0.0312562
0.0328482
0.0345633
0.0358513
0.0370722
0.037922
0.0386338
0.0389821
0.0390628
0.0387392
0.0380914
0.0371343
0.0359968
0.0347653
0.0335516
0.0324179
0.0314143
0.0305563
0.029847
0.0292751
0.0288317
0.028522
0.0283797
0.0285114
0.0291206
0.0305513
0.0330962
0.0366894
0.0405977
0.0440118
0.0463586
0.0477145
0.0481584
0.0481231
0.0475834
0.0470353
0.0461504
0.186492
0.175171
0.165197
0.155764
0.147418
0.139607
0.132174
0.124968
0.118078
0.111577
0.105605
0.100215
0.0954397
0.0912188
0.0874648
0.0840248
0.0807739
0.0775582
0.0743213
0.0710026
0.0676452
0.0642484
0.0609044
0.0575978
0.0544284
0.0513475
0.0484567
0.045668
0.0431022
0.0406198
0.0383841
0.0361982
0.03429
0.0323818
0.0308012
0.0291625
0.0279443
0.0266102
0.0259024
0.0250381
0.0252629
0.0252972
0.0273414
0.0290047
0.0340095
0.0377543
0.0446228
0.0472146
0.0512239
0.0506598
0.0512743
0.0511318
0.0564329
0.0502909
0.0430304
0.0353144
0.0319195
0.028828
0.0282891
0.028081
0.0292413
0.0304386
0.0322637
0.0338118
0.0354804
0.0367327
0.0379115
0.0387253
0.0393895
0.0396883
0.0397068
0.0393201
0.038608
0.037597
0.0364171
0.03516
0.0339354
0.0328049
0.0318144
0.0309758
0.0302882
0.0297377
0.0293139
0.0290229
0.0289021
0.0290663
0.0297346
0.0312723
0.0339841
0.0377774
0.0418605
0.0453807
0.0477678
0.0491162
0.0495318
0.0494534
0.0488741
0.0482773
0.0473609
0.193222
0.18178
0.171733
0.162311
0.153877
0.145862
0.138123
0.130531
0.123226
0.116323
0.109989
0.10429
0.0992578
0.0948204
0.0908758
0.0872574
0.0838291
0.0804337
0.0770146
0.0735172
0.0699875
0.0664305
0.0629379
0.059498
0.0562064
0.0530179
0.050028
0.0471533
0.0445068
0.0419563
0.0396549
0.0374166
0.0354563
0.0335117
0.0318941
0.0302394
0.0290079
0.0276914
0.0270174
0.0262355
0.0265928
0.0268266
0.0291456
0.031125
0.03641
0.0403648
0.0471008
0.0496235
0.0533542
0.0527469
0.0531311
0.0528943
0.0580401
0.0520565
0.0448251
0.037213
0.0337125
0.0304625
0.0297303
0.0293538
0.0303934
0.031504
0.0332596
0.0347542
0.0363674
0.0375766
0.038707
0.0394794
0.040092
0.0403378
0.0402924
0.0398423
0.0390676
0.0380054
0.0367869
0.0355084
0.0342777
0.0331549
0.0321817
0.0313661
0.0307029
0.0301756
0.0297725
0.0295007
0.0294014
0.029598
0.0303249
0.0319688
0.0348447
0.0388312
0.0430781
0.0466928
0.049111
0.0504462
0.0508309
0.0507087
0.0500904
0.0494459
0.0484995
0.199866
0.188266
0.17814
0.168733
0.160219
0.15201
0.14397
0.135997
0.12828
0.120977
0.114283
0.108277
0.102986
0.0983303
0.0941918
0.0903905
0.0867803
0.0832013
0.0795978
0.0759209
0.0722197
0.0685046
0.0648665
0.0612969
0.0578872
0.0545953
0.0515104
0.0485538
0.0458307
0.0432158
0.0408526
0.0385655
0.0365568
0.0345794
0.0329291
0.0312629
0.0300242
0.0287321
0.0281024
0.0274148
0.0279212
0.0283694
0.0309716
0.0332609
0.0387899
0.0429035
0.0494608
0.051892
0.0553505
0.0546995
0.0548673
0.0545386
0.0595497
0.0537286
0.0465327
0.0390316
0.0354463
0.0320709
0.0311636
0.0306297
0.0315467
0.0325647
0.0342419
0.0356744
0.0372244
0.0383835
0.03946
0.040186
0.0407431
0.0409332
0.0408226
0.0403094
0.0394738
0.0383633
0.0371103
0.0358148
0.0345824
0.0334717
0.0325198
0.0317305
0.031094
0.0305915
0.0302098
0.0299573
0.0298793
0.0301075
0.0308922
0.0326402
0.0356759
0.039847
0.044246
0.0479434
0.0503846
0.051702
0.0520541
0.051888
0.0512319
0.0505411
0.0495663
0.206426
0.194643
0.184432
0.175039
0.166448
0.158053
0.149716
0.141366
0.133238
0.125538
0.118486
0.112172
0.106624
0.101748
0.0974122
0.0934242
0.0896279
0.0858621
0.0820722
0.0782156
0.0743442
0.0704735
0.0666933
0.0629978
0.0594741
0.0560829
0.0529073
0.0498727
0.0470768
0.0444013
0.0419801
0.0396476
0.0375943
0.0355878
0.0339092
0.032236
0.0309965
0.029736
0.0291618
0.028581
0.0292533
0.0299295
0.0328205
0.035409
0.0411429
0.0453645
0.0517038
0.0540253
0.0572192
0.0565237
0.0564886
0.0560705
0.0609677
0.0553122
0.0481573
0.0407703
0.0371167
0.0336441
0.0325796
0.0319009
0.0326952
0.0336169
0.0352084
0.0365712
0.0380509
0.0391538
0.0401712
0.0408466
0.0413448
0.0414767
0.0413001
0.0407243
0.03983
0.0386745
0.0373909
0.0360827
0.0348531
0.0337588
0.0328318
0.0320717
0.0314641
0.0309875
0.0306276
0.0303943
0.0303369
0.0305958
0.0314367
0.0332859
0.0364754
0.0408209
0.0453594
0.0491283
0.0515851
0.0528811
0.0531999
0.0529905
0.0522983
0.0515629
0.0505616
0.212905
0.200922
0.190617
0.181235
0.172571
0.163993
0.155361
0.146635
0.1381
0.130003
0.122595
0.115977
0.11017
0.105072
0.100537
0.0963583
0.0923723
0.088417
0.0844395
0.0804035
0.0763637
0.0723401
0.0684212
0.0646037
0.0609702
0.0574838
0.0542215
0.0511129
0.0482483
0.0455157
0.0430401
0.0406657
0.0385717
0.0365396
0.0348372
0.0331618
0.0319284
0.0307072
0.0302002
0.0297392
0.0305942
0.031511
0.0346932
0.0375661
0.0434637
0.0477437
0.0538323
0.0560289
0.0589667
0.0582258
0.0580003
0.0574953
0.0623
0.0568124
0.0497028
0.0424299
0.038721
0.0351749
0.0339701
0.03316
0.0338332
0.0346567
0.0361564
0.0374434
0.0388466
0.0398879
0.0408417
0.0414623
0.0418988
0.0419706
0.0417276
0.0410901
0.0401396
0.0389423
0.0376322
0.0363156
0.0350931
0.0340191
0.0331205
0.0323922
0.0318152
0.0313652
0.0310273
0.0308126
0.0307749
0.0310632
0.031958
0.0339043
0.0372404
0.0417488
0.0464139
0.0502435
0.0527097
0.0539817
0.0542672
0.0540159
0.0532896
0.0525118
0.0514862
0.219301
0.20711
0.196707
0.18733
0.178592
0.169832
0.160906
0.151806
0.142864
0.134373
0.126611
0.119688
0.113624
0.108304
0.103566
0.0991931
0.0950143
0.0908672
0.0867014
0.0824868
0.0782807
0.0741072
0.0700534
0.0661178
0.0623786
0.0588011
0.0554564
0.0522775
0.049348
0.0465619
0.0440356
0.0416227
0.0394917
0.0374378
0.0357163
0.0340436
0.0328234
0.0316499
0.0312228
0.030895
0.0319494
0.0331178
0.0365902
0.0397289
0.0457476
0.0500384
0.0558493
0.0579085
0.0605988
0.0598118
0.0594077
0.0588183
0.0635523
0.0582339
0.051173
0.0440124
0.040258
0.0366578
0.0353283
0.0344002
0.0349553
0.0356801
0.0370835
0.0382894
0.039611
0.0405859
0.041472
0.0420344
0.0424067
0.0424168
0.0421075
0.0414095
0.0404054
0.0391699
0.0378373
0.0365166
0.0353054
0.0342555
0.0333884
0.032694
0.0321489
0.0317261
0.0314098
0.0312129
0.0311938
0.0315097
0.0324555
0.0344939
0.0379677
0.0426265
0.0474049
0.0512853
0.0537559
0.0550023
0.0552554
0.054964
0.0542061
0.0533883
0.0523407
0.22561
0.213215
0.202708
0.193331
0.184516
0.175574
0.166354
0.156879
0.14753
0.138646
0.130532
0.123307