/*--------------------------------*- C++ -*----------------------------------*\
| =========                 |                                                 |
| \\      /  F ield         | OpenFOAM: The Open Source CFD Toolbox           |
|  \\    /   O peration     | Version:  2412                                  |
|   \\  /    A nd           | Website:  www.openfoam.com                      |
|    \\/     M anipulation  |                                                 |
\*---------------------------------------------------------------------------*/
FoamFile
{
    version     2.0;
    format      ascii;
    arch        "LSB;label=32;scalar=64";
    class       surfaceScalarField;
    location    "0.7";
    object      phi;
}
// * * * * * * * * * * * * * * * * * * * * * * * * * * * * * * * * * * * * * //

dimensions      [0 3 -1 0 0 0 0];

oriented        oriented;

internalField   nonuniform List<scalar> 
155925
(
0.00839081
-0.000815053
0.00770116
0.000689655
0.0084488
-0.000747641
0.00868084
-0.000232039
0.00868231
-1.47718e-06
0.00859434
8.79727e-05
0.00846305
0.000131297
0.00830685
0.000156198
0.00815816
0.000148688
0.0080001
0.000158061
0.00784171
0.00015839
0.00767036
0.000171347
0.00749915
0.000171218
0.00732018
0.000178971
0.00714888
0.000171296
0.00697678
0.000172098
0.00682325
0.000153535
0.00666865
0.0001546
0.00653796
0.000130685
0.00640157
0.000136392
0.00629135
0.000110226
0.00616741
0.000123939
0.0060771
9.03118e-05
0.00595883
0.000118268
0.0058867
7.21322e-05
0.00577137
0.000115333
0.00571843
5.29384e-05
0.0056023
0.000116127
0.00557413
2.81761e-05
0.0054499
0.00012423
0.00545274
-2.84094e-06
0.0053108
0.000141939
0.00535207
-4.12689e-05
0.00518414
0.000167936
0.00527665
-9.2512e-05
0.00506898
0.000207671
0.00522936
-0.000160385
0.00496094
0.000268424
0.00521116
-0.000250218
0.00485865
0.000352515
0.00522438
-0.000365742
0.00475785
0.000466534
0.00526689
-0.000509044
0.00464588
0.000621012
0.00532194
-0.000676057
0.00449138
0.000830559
0.00536928
-0.000877906
0.00430487
0.00106441
0.00545873
-0.00115386
0.00422966
0.00122907
0.00571823
-0.00148856
0.00474886
0.000969368
0.00753728
-0.00278842
0.00414196
0.00339532
0.00448885
-0.000346886
0.00322916
0.00125969
0.00400345
-0.000774285
0.00325713
0.000746318
0.0039568
-0.000699672
0.00336082
0.000595983
0.00391216
-0.000551337
0.0034467
0.000465461
0.00384917
-0.000402475
0.00350554
0.000343631
0.00378966
-0.000284121
0.00354711
0.000242548
0.0037394
-0.000192287
0.0035705
0.000168906
0.00369646
-0.000125962
0.00358339
0.000113071
0.00366824
-8.48527e-05
0.00360628
6.19688e-05
0.00367854
-7.22576e-05
0.00366982
8.72349e-06
0.00374859
-7.87705e-05
0.00378502
-3.64276e-05
0.00387214
-8.71218e-05
0.00393316
-6.10158e-05
0.00401379
-8.06349e-05
0.00407474
-6.09477e-05
0.00413705
-6.23121e-05
0.0041874
-5.03442e-05
0.00422937
-4.19793e-05
0.00426992
-4.05489e-05
0.00429643
-2.65086e-05
0.00433446
-3.80322e-05
0.00435449
-2.00336e-05
0.00440205
-4.75561e-05
0.00442423
-2.21829e-05
0.00450253
-7.83045e-05
0.00453984
-3.73157e-05
0.0046663
-0.000126458
0.00470709
-4.07976e-05
0.00487703
-0.000169935
0.00488197
-4.94175e-06
0.00509151
-0.000209547
0.00500697
8.45416e-05
0.00530797
-0.000301007
0.000210256
0.0110388
-0.00427812
0.00999158
0.0017369
0.0099403
-0.000696359
0.00989485
-0.000186584
0.00984556
4.78129e-05
0.00979383
0.000139697
0.00971596
0.000209172
0.0095989
0.000273254
0.00946211
0.000285477
0.0093028
0.000317376
0.00913348
0.000327707
0.00894966
0.000355166
0.00876101
0.000359869
0.00856333
0.000376657
0.00836757
0.000367054
0.00816947
0.000370202
0.00798435
0.000338656
0.00780125
0.000337693
0.00763789
0.000294049
0.00747583
0.000298448
0.00733585
0.000250212
0.0071915
0.000268286
0.00707378
0.000208031
0.00694181
0.000250242
0.00684315
0.000170793
0.00671989
0.000238596
0.00663975
0.000133081
0.00652163
0.000234243
0.00646322
8.65917e-05
0.00634585
0.000241593
0.00631261
3.03998e-05
0.00619388
0.000260677
0.0061919
-3.92948e-05
0.00606361
0.000296233
0.00609885
-0.000127758
0.00595251
0.000354015
0.00603504
-0.000242914
0.00585825
0.00044521
0.00600017
-0.00039214
0.00577959
0.000573095
0.00599512
-0.00058127
0.00571347
0.000748182
0.00601571
-0.000811289
0.00564776
0.000988962
0.00604093
-0.00106923
0.00555067
0.00132082
0.0060397
-0.00136694
0.00542525
0.00167886
0.00605738
-0.00178598
0.00541233
0.00187412
0.00623136
-0.00230759
0.00601982
0.00118091
0.00814003
-0.00490864
0.00591783
0.00561751
0.00514367
0.000427277
0.00418932
0.00221405
0.00440411
-0.000989082
0.00408037
0.00107006
0.00433816
-0.000957466
0.00411271
0.000821438
0.00431692
-0.000755551
0.00413799
0.000644388
0.00427554
-0.000540023
0.00413844
0.000480738
0.00422824
-0.000373923
0.00412882
0.000341968
0.00418379
-0.000247258
0.00411111
0.00024159
0.00414242
-0.000157278
0.00409226
0.000163232
0.00411455
-0.000107144
0.00409406
8.24695e-05
0.00412958
-0.000107785
0.00415104
-1.27271e-05
0.00421628
-0.000144019
0.00427795
-9.80895e-05
0.00436547
-0.000174644
0.00444716
-0.000142703
0.00453541
-0.000168889
0.00461281
-0.000138346
0.0046857
-0.000135206
0.00474829
-0.00011293
0.00480197
-9.56596e-05
0.0048503
-8.88754e-05
0.00488896
-6.51756e-05
0.00493007
-7.91412e-05
0.00496296
-5.29291e-05
0.00500822
-9.28105e-05
0.00504651
-6.04788e-05
0.00511522
-0.000147009
0.00517625
-9.8356e-05
0.00528342
-0.000233625
0.00536207
-0.000119443
0.0054971
-0.000304966
0.00556345
-7.13018e-05
0.00571993
-0.00036602
0.00574253
6.19366e-05
0.00594806
-0.000506541
0.000245244
0.00899296
-0.00569532
0.00972969
0.00100017
0.0103041
-0.00127079
0.0103458
-0.000228288
0.0102656
0.000128053
0.0101725
0.000232772
0.0100713
0.000310392
0.00995398
0.000390568
0.00982897
0.000410487
0.0096889
0.00045745
0.00953913
0.000477476
0.00937526
0.000519038
0.00920357
0.000531554
0.00902138
0.000558854
0.00883681
0.000551615
0.0086478
0.000559217
0.00846629
0.00052016
0.00828561
0.000518377
0.00811949
0.000460174
0.00795543
0.000462506
0.00780902
0.000396619
0.0076615
0.000415812
0.00753559
0.000333938
0.00740152
0.000384318
0.00729409
0.00027822
0.00717072
0.00036197
0.00708125
0.000222551
0.00696564
0.000349848
0.00689638
0.00015585
0.00678477
0.000353212
0.00673815
7.70145e-05
0.0066279
0.000370933
0.00660917
-2.05699e-05
0.00649454
0.000410867
0.00650832
-0.000141544
0.00638202
0.000480319
0.00643639
-0.000297279
0.00628808
0.000593518
0.00639301
-0.00049707
0.0062116
0.000754506
0.00637904
-0.00074871
0.00614987
0.00097735
0.00639036
-0.00105178
0.00609094
0.00128837
0.00640559
-0.00138387
0.00600322
0.00172318
0.00639088
-0.00175461
0.00589061
0.00217914
0.00638601
-0.00228138
0.00589552
0.00236461
0.00653007
-0.00294214
0.00653808
0.0011729
0.00840582
-0.00677638
0.00657669
0.00744663
0.00562725
0.00137672
0.0046705
0.0031708
0.00469469
-0.00101327
0.00445009
0.00131466
0.00458095
-0.00108833
0.00444294
0.000959448
0.0045515
-0.000864109
0.00444387
0.000752023
0.00450904
-0.000605193
0.00442306
0.000566715
0.00445939
-0.000410254
0.00439452
0.000406838
0.00441127
-0.000264012
0.00436118
0.000291684
0.00436596
-0.000162058
0.00433044
0.000198757
0.00433589
-0.000112597
0.00432611
9.22523e-05
0.00435377
-0.000135445
0.00438509
-4.40444e-05
0.00444937
-0.000208303
0.0045207
-0.000169412
0.00461119
-0.000265135
0.00470133
-0.00023285
0.0047943
-0.000261853
0.00487887
-0.000222916
0.00495721
-0.000213545
0.00502577
-0.000181494
0.00508528
-0.000155169
0.00513827
-0.000141864
0.00518288
-0.000109789
0.00522706
-0.000123317
0.0052659
-9.17771e-05
0.00531231
-0.000139215
0.00535737
-0.000105546
0.00542467
-0.000214312
0.00549425
-0.000167932
0.00559601
-0.000335386
0.00568619
-0.00020962
0.00580968
-0.000428457
0.00589455
-0.000156181
0.00602914
-0.000500609
0.00608536
5.71833e-06
0.0062521
-0.000673286
0.00023021
0.00890883
-0.0070284
0.00947553
0.000433476
0.0101019
-0.00189721
0.0102361
-0.00036245
0.0102299
0.000134293
0.010175
0.000287627
0.0100966
0.000388789
0.0100011
0.0004861
0.00989686
0.00051471
0.0097793
0.000575005
0.00965128
0.000605497
0.00950965
0.000660669
0.00935857
0.000682637
0.00919669
0.000720734
0.00902998
0.000718319
0.00885779
0.00073141
0.00868924
0.000688711
0.00852033
0.000687287
0.00836144
0.000619068
0.00820423
0.000619714
0.00806044
0.000540408
0.00791687
0.000559384
0.00779063
0.00046018
0.00765981
0.000515133
0.0075506
0.000387437
0.00743103
0.000481539
0.0073389
0.000314676
0.00722833
0.000460423
0.00715521
0.000228968
0.00705031
0.000458116
0.00699807
0.000129245
0.00689607
0.000472934
0.0068693
6.2064e-06
0.00676537
0.000514798
0.0067683
-0.000144473
0.00665571
0.000592907
0.00669553
-0.000337104
0.00656476
0.000724291
0.00665064
-0.000582952
0.0064914
0.000913749
0.00663456
-0.000891873
0.00643317
0.00117875
0.00664351
-0.00126213
0.00637854
0.00155334
0.00665656
-0.00166188
0.00629699
0.00208275
0.00663824
-0.00209585
0.00619504
0.00262234
0.00661935
-0.00270569
0.00621211
0.00277185
0.00672868
-0.00345872
0.00685634
0.00104524
0.00849062
-0.00841065
0.00701753
0.00891972
0.00603819
0.00235607
0.0050435
0.00416549
0.00495107
-0.000920845
0.0047136
0.00155214
0.00478012
-0.00115485
0.00466897
0.00107061
0.0047337
-0.000928838
0.00465107
0.000834645
0.00468424
-0.000638363
0.00461623
0.000634725
0.00462897
-0.000422994
0.00457568
0.000460127
0.00457544
-0.000263766
0.00453246
0.000334659
0.00452538
-0.000154977
0.00449446
0.000229679
0.00449287
-0.000111007
0.00448745
9.7679e-05
0.00451304
-0.000161043
0.00454972
-8.0714e-05
0.00461549
-0.000274078
0.00469248
-0.000246401
0.00478588
-0.000358538
0.00488087
-0.000327833
0.00497698
-0.000357965
0.00506555
-0.000311489
0.00514714
-0.000295137
0.0052192
-0.000253554
0.0052822
-0.00021817
0.00533827
-0.000197932
0.00538656
-0.000158076
0.00543324
-0.00017
0.00547586
-0.000134396
0.00552412
-0.000187472
0.00557355
-0.000154977
0.00564177
-0.000282537
0.00571618
-0.000242341
0.00581627
-0.00043548
0.00591112
-0.000304465
0.00602899
-0.000546328
0.00612063
-0.000247827
0.00624477
-0.000624747
0.00631456
-6.40706e-05
0.00646302
-0.000821748
0.000192306
0.00893963
-0.00839227
0.00949831
-0.000125207
0.00992466
-0.00232355
0.0100616
-0.000499348
0.0101026
9.3283e-05
0.010087
0.000303164
0.0100385
0.000437361
0.00996707
0.000557486
0.00988181
0.000599971
0.00978141
0.000675403
0.00966856
0.000718344
0.00954167
0.000787565
0.00940406
0.000820242
0.00925561
0.000869188
0.00910111
0.000872823
0.00894108
0.000891435
0.00878274
0.00084705
0.00862402
0.000846005
0.00847264
0.000770456
0.00832321
0.00076914
0.00818426
0.000679361
0.00804676
0.000696886
0.00792322
0.000583716
0.00779794
0.000640414
0.00769008
0.000495291
0.00757634
0.000595286
0.00748466
0.000406354
0.00738081
0.000564269
0.00730699
0.000302792
0.00721021
0.000554894
0.00715571
0.00018375
0.00706327
0.00056537
0.00703193
3.75545e-05
0.00693946
0.000607261
0.00693523
-0.000140245
0.0068364
0.000691745
0.00686585
-0.000366559
0.00675155
0.00083859
0.00682332
-0.000654715
0.00668362
0.00105345
0.00680859
-0.00101684
0.00663029
0.00135705
0.00681816
-0.00145
0.00658069
0.00179082
0.00683178
-0.00191298
0.00650645
0.00240808
0.00681295
-0.00240235
0.00641816
0.00301712
0.00678083
-0.00306836
0.00644457
0.00310811
0.00685005
-0.00386419
0.00706186
0.000833434
0.00846474
-0.00981354
0.00735568
0.0100288
0.00636855
0.0033432
0.00536116
0.00517288
0.00518425
-0.000743935
0.00493299
0.00180339
0.00495508
-0.00117693
0.00485095
0.00117473
0.00488864
-0.00096652
0.00481592
0.000907364
0.00483045
-0.000652893
0.00476988
0.000695291
0.00476907
-0.000422184
0.0047203
0.000508896
0.00471023
-0.000253695
0.00466974
0.000375145
0.00465581
-0.000141042
0.0046266
0.000258892
0.00462136
-0.000105767
0.00461849
0.000100549
0.00464398
-0.000186531
0.00468456
-0.000121298
0.00475245
-0.000341966
0.00483355
-0.000327497
0.00492947
-0.000454465
0.00502768
-0.00042604
0.00512597
-0.000456251
0.00521702
-0.000402537
0.00530066
-0.000378778
0.00537491
-0.000327806
0.00544016
-0.000283418
0.00549834
-0.000256114
0.00554913
-0.000208863
0.00559779
-0.000218663
0.00564314
-0.00017975
0.00569328
-0.000237616
0.0057461
-0.000207792
0.00581598
-0.000352414
0.00589384
-0.000320202
0.00599342
-0.000535067
0.00609039
-0.000401437
0.0062045
-0.000660438
0.00629864
-0.000341962
0.00641615
-0.000742261
0.00649215
-0.000140072
0.00662954
-0.00095914
0.000142237
0.00873558
-0.0095521
0.00946107
-0.000850699
0.00979662
-0.00265909
0.00992697
-0.000629702
0.00998762
3.26324e-05
0.00999426
0.000296526
0.0099668
0.00046482
0.00991421
0.000610076
0.00984417
0.000670012
0.00975696
0.000762616
0.00965527
0.000820035
0.00953857
0.000904261
0.00940991
0.0009489
0.00927003
0.00100907
0.00912317
0.00101968
0.00897075
0.00104385
0.00881891
0.000998893
0.00866692
0.000997995
0.0085208
0.000916578
0.00837717
0.000912774
0.00824227
0.000814256
0.00810994
0.000829217
0.00798935
0.000704312
0.00786916
0.000760595
0.00776339
0.000601062
0.00765509
0.000703585
0.00756477
0.000496682
0.00746717
0.000661868
0.00739373
0.000376232
0.00730451
0.000644111
0.00724904
0.000239219
0.00716576
0.000648649
0.0071314
7.19161e-05
0.00705014
0.000688528
0.00704038
-0.000130487
0.00695525
0.000776877
0.00697599
-0.000387298
0.00687835
0.000936229
0.00693762
-0.000713984
0.00681772
0.00117335
0.00692611
-0.00112523
0.00677093
0.00151222
0.00693806
-0.00161714
0.00672765
0.00200123
0.00695367
-0.002139
0.00666243
0.00269932
0.00693489
-0.00267482
0.00658985
0.00336217
0.00688703
-0.00336554
0.00661927
0.00337587
0.0069184
-0.00416332
0.00719501
0.000556824
0.0084076
-0.0110261
0.00759423
0.0108422
0.00662057
0.00431686
0.00563679
0.00615667
0.00539905
-0.000506197
0.00512797
0.00207447
0.00511473
-0.0011637
0.00500926
0.0012802
0.00502712
-0.000984381
0.00495786
0.000976629
0.00495955
-0.000654582
0.00490207
0.000752763
0.00489213
-0.000412245
0.00484509
0.000555944
0.00482838
-0.000236987
0.00478862
0.000414903
0.00477008
-0.000122506
0.00474154
0.000287434
0.0047342
-9.84257e-05
0.00473326
0.00010149
0.00475949
-0.000212762
0.00480337
-0.00016517
0.00487351
-0.000412109
0.00495789
-0.000411875
0.00505595
-0.000552532
0.00515648
-0.000526563
0.00525629
-0.000556061
0.00534893
-0.000495179
0.00543387
-0.000463723
0.00550953
-0.000403468
0.00557628
-0.000350162
0.00563595
-0.000315786
0.00568854
-0.000261452
0.00573878
-0.000268901
0.00578625
-0.000227229
0.00583817
-0.000289534
0.00589382
-0.000263442
0.00596553
-0.000424123
0.00604606
-0.000400735
0.00614545
-0.000634452
0.00624325
-0.000499237
0.00635426
-0.000771456
0.00644891
-0.000436607
0.00656143
-0.000854787
0.00664034
-0.000218979
0.00676986
-0.00108866
8.50614e-05
0.00862127
-0.0105976
0.00939665
-0.00162608
0.00969216
-0.00295461
0.00981999
-0.000757529
0.0098903
-3.76776e-05
0.00990963
0.000277192
0.00989639
0.00047806
0.00985783
0.000648635
0.0097999
0.000727942
0.00972328
0.00083924
0.00963046
0.000912855
0.00952155
0.00101318
0.00939948
0.00107096
0.00926561
0.00114295
0.00912394
0.00116134
0.00897654
0.00119125
0.00882895
0.00114648
0.0086814
0.00114555
0.00853887
0.00105911
0.0083993
0.00105234
0.00826749
0.000946071
0.0081391
0.000957605
0.00802104
0.00082237
0.00790493
0.000876707
0.00780118
0.000704815
0.00769726
0.000807503
0.00760841
0.000585535
0.0075158
0.000754473
0.00744304
0.000448997
0.00735988
0.000727268
0.00730397
0.000295137
0.00722822
0.000724395
0.00719167
0.000108468
0.00711996
0.000760235
0.00710565
-0.000116173
0.00703281
0.00084972
0.00704581
-0.000400304
0.00696395
0.00101809
0.00701145
-0.000761479
0.00691134
0.00127346
0.00700325
-0.00121715
0.00687228
0.0016432
0.0070178
-0.00176266
0.00683682
0.00218221
0.00703532
-0.0023375
0.00678267
0.00295197
0.007015
-0.00290715
0.00672502
0.00365215
0.00694998
-0.0035905
0.00674843
0.00357742
0.00695539
-0.00437028
0.00728131
0.000230902
0.00836069
-0.0121055
0.00774972
0.0114531
0.00680362
0.00526295
0.00587484
0.00708545
0.00559667
-0.000228025
0.00530623
0.00236491
0.00526326
-0.00112072
0.00515259
0.00139087
0.00515441
-0.000986203
0.00508543
0.00104561
0.00507729
-0.000646434
0.00502081
0.000809234
0.00500408
-0.000395507
0.00495746
0.000602557
0.00493583
-0.000215353
0.00489603
0.000454704
0.00487412
-0.000100597
0.00484584
0.000315711
0.00483727
-8.98498e-05
0.00483801
0.000100751
0.00486542
-0.000240171
0.00491222
-0.000211974
0.0049846
-0.000484484
0.00507171
-0.00049899
0.00517158
-0.000652395
0.00527381
-0.000628796
0.00537466
-0.000656915
0.00546831
-0.000588828
0.00555405
-0.000549463
0.0056306
-0.000480018
0.00569834
-0.000417905
0.00575908
-0.000376518
0.005813
-0.000315374
0.0058645
-0.0003204
0.00591369
-0.000276426
0.00596724
-0.000343075
0.00602533
-0.000321536
0.00609883
-0.000497621
0.00618145
-0.000483362
0.0062806
-0.000733599
0.00637841
-0.000597048
0.00648656
-0.000879611
0.00658065
-0.000530698
0.00668902
-0.000963148
0.00676913
-0.000299097
0.00689247
-0.001212
2.34295e-05
0.00854713
-0.011569
0.00932491
-0.00240386
0.0096015
-0.0032312
0.00972989
-0.000885912
0.00980599
-0.000113778
0.00983339
0.000249791
0.00983015
0.000481303
0.00980224
0.000676538
0.00975408
0.000776106
0.00968619
0.000907133
0.00960073
0.000998311
0.00949815
0.00111575
0.00938132
0.00118779
0.00925203
0.00127224
0.00911421
0.00129916
0.0089704
0.00133507
0.00882583
0.00129105
0.00868141
0.00128998
0.00854151
0.001199
0.00840496
0.0011889
0.00827559
0.00107544
0.00815029
0.0010829
0.00803442
0.000938233
0.00792156
0.000989571
0.00781968
0.000806692
0.00771924
0.000907948
0.00763184
0.000672935
0.00754311
0.000843202
0.00747116
0.000520949
0.00739263
0.000805794
0.0073366
0.000351166
0.00726664
0.000794353
0.00722856
0.000146555
0.00716435
0.000824443
0.00714643
-9.82521e-05
0.0070836
0.00091255
0.00709004
-0.000406751
0.00702175
0.00108638
0.00705862
-0.000798349
0.00697665
0.00135543
0.00705274
-0.00129324
0.00694551
0.00175044
0.00706886
-0.00188601
0.00691881
0.00233225
0.00708693
-0.00250562
0.00687692
0.00316199
0.00706275
-0.00309298
0.00683
0.00388489
0.00698403
-0.00374452
0.0068401
0.00372135
0.00697678
-0.00450696
0.0073377
-0.000130022
0.00832938
-0.0130972
0.00784817
0.0119343
0.00693426
0.00617687
0.00607803
0.00794167
0.00577692
7.30883e-05
0.00547098
0.00267085
0.00540268
-0.00105243
0.00528518
0.00150837
0.00527331
-0.00097434
0.00520297
0.00111595
0.00518679
-0.000630246
0.00513022
0.000865796
0.0051081
-0.000373382
0.00506128
0.000649373
0.00503577
-0.00018984
0.00499558
0.000494894
0.00497107
-7.60918e-05
0.00494291
0.000343876
0.00493365
-8.0586e-05
0.00493597
9.84332e-05
0.00496479
-0.000268995
0.00501428
-0.000261465
0.00508879
-0.000558994
0.00517823
-0.000588432
0.00527959
-0.000753749
0.00538307
-0.000732276
0.0054846
-0.000758444
0.00557882
-0.000683056
0.00566499
-0.000635626
0.00574205
-0.000557083
0.00581043
-0.000486288
0.00587191
-0.000437993
0.00592683
-0.000370296
0.00597935
-0.000372916
0.00602996
-0.00032704
0.00608496
-0.000398077
0.00614519
-0.000381762
0.00622031
-0.000572748
0.00630453
-0.000567584
0.00640325
-0.000832316
0.00650047
-0.000694267
0.00660582
-0.00098496
0.00669872
-0.000623604
0.0068034
-0.00106783
0.00688378
-0.000379474
0.00700195
-0.00133017
-4.10921e-05
0.00848944
-0.0124827
0.00925372
-0.00316814
0.00952003
-0.00349751
0.00965059
-0.00101648
0.00973088
-0.000194059
0.00976406
0.00021661
0.00976828
0.00047708
0.00974873
0.000696089
0.00970856
0.000816271
0.009648
0.000967699
0.0095688
0.00107751
0.00947154
0.00121301
0.00935907
0.00130027
0.00923347
0.00139784
0.00909868
0.00143395
0.00895761
0.00147614
0.00881535
0.0014333
0.00867331
0.00143202
0.0085355
0.00133681
0.00840134
0.00132305
0.00827405
0.00120273
0.00815131
0.00120565
0.00803743
0.00105211
0.00792728
0.00109972
0.00782717
0.000906801
0.00772958
0.00100554
0.00764361
0.000758904
0.00755798
0.000928831
0.00748694
0.000591991
0.007412
0.000880728
0.00735615
0.000407024
0.0072906
0.000859902
0.00725156
0.000185598
0.00719306
0.000882941
0.00717248
-7.76742e-05
0.0071174
0.00096763
0.00711866
-0.000408008
0.00706123
0.00114381
0.00708921
-0.00082633
0.00702249
0.00142214
0.00708457
-0.00135531
0.00699859
0.00183641
0.00710101
-0.00198843
0.00698058
0.00245269
0.00711806
-0.0026431
0.00695037
0.00332968
0.00708912
-0.00323173
0.00690844
0.00406557
0.00700265
-0.00383874
0.00690294
0.00382106
0.00699102
-0.00459504
0.0073755
-0.000514501
0.00830874
-0.0140304
0.00791066
0.0123324
0.00702903
0.0070585
0.00624932
0.00872138
0.00593932
0.000383086
0.00562349
0.00298668
0.00553395
-0.000962888
0.00540925
0.00163308
0.00538543
-0.000950527
0.00531289
0.0011885
0.00528988
-0.00060724
0.00523265
0.000923022
0.0052061
-0.000346824
0.00515877
0.000696703
0.00513009
-0.000161169
0.00508937
0.000535621
0.00506281
-4.95318e-05
0.00503472
0.00037196
0.00502516
-7.10194e-05
0.00502901
9.45801e-05
0.00505938
-0.000299364
0.00511136
-0.000313438
0.00518786
-0.000635499
0.00527928
-0.000679852
0.00538184
-0.000856308
0.00548621
-0.00083664
0.0055881
-0.000860335
0.00568258
-0.000777534
0.00576887
-0.00072192
0.00584616
-0.000634372
0.00591491
-0.000555038
0.00597688
-0.000499965
0.00603254
-0.000425959
0.00608587
-0.000426248
0.00613766
-0.00037883
0.00619397
-0.000454379
0.00625604
-0.000443839
0.00633258
-0.000649282
0.00641793
-0.000652935
0.00651595
-0.000930336
0.0066121
-0.000790426
0.00671465
-0.0010875
0.00680597
-0.000714929
0.00690729
-0.00116914
0.00698736
-0.000459547
0.00710105
-0.00144386
-0.000107554
0.00844046
-0.0133474
0.00918509
-0.00391276
0.00944506
-0.00375748
0.00957866
-0.00115007
0.00966244
-0.000277846
0.00970024
0.000178815
0.00971039
0.000466929
0.0096976
0.000708875
0.00966411
0.000849759
0.00960977
0.00102204
0.00953594
0.00115135
0.00944325
0.0013057
0.00933447
0.00140905
0.00921194
0.00152037
0.00907963
0.00156626
0.00894076
0.00161501
0.00880037
0.00157369
0.00866026
0.00157214
0.00852421
0.00147286
0.0083921
0.00145516
0.00826667
0.00132816
0.00814617
0.00132615
0.00803414
0.00116414
0.00792637
0.00120749
0.00782797
0.00100521
0.00773283
0.00110068
0.00764829
0.000843444
0.00756524
0.00101188
0.0074952
0.000662034
0.00742316
0.000952771
0.00736771
0.000462475
0.0073056
0.000922004
0.00726608
0.000225122
0.00721196
0.000937057
0.00718955
-5.52659e-05
0.0071404
0.00101679
0.00713778
-0.000405386
0.00708875
0.00119283
0.00710975
-0.000847328
0.00705521
0.00147669
0.00710573
-0.00140584
0.00703745
0.00190469
0.00712176
-0.00207274
0.00702723
0.00254722
0.00713696
-0.00275283
0.00700666
0.00345998
0.00710419
-0.00332926
0.00696487
0.00420489
0.00701421
-0.00388808
0.00694567
0.0038896
0.00700185
-0.00465122
0.00740178
-0.000914439
0.0082944
-0.014923
0.00795126
0.0126755
0.00709971
0.00791005
0.00639216
0.00942894
0.0060838
0.000691449
0.00576427
0.00330621
0.00565747
-0.000856087
0.00552602
0.00176453
0.00549171
-0.000916221
0.00541661
0.00126359
0.00538772
-0.000578344
0.00532955
0.000981187
0.00529927
-0.000316539
0.00525129
0.000744679
0.00522
-0.000129875
0.0051787
0.00057692
0.0051505
-2.13281e-05
0.00512252
0.000399934
0.00511294
-6.14351e-05
0.00511831
8.92128e-05
0.00515028
-0.000331342
0.00520456
-0.00036771
0.0052829
-0.000713839
0.00537599
-0.000772943
0.00547948
-0.000959801
0.00558441
-0.000941571
0.0056864
-0.000962323
0.00578086
-0.00087199
0.00586704
-0.000808108
0.00594433
-0.00071166
0.00601323
-0.000623938
0.0060755
-0.000562237
0.0061317
-0.00048216
0.00618568
-0.000480224
0.00623845
-0.000431598
0.00629589
-0.000511822
0.00635955
-0.000507495
0.00643722
-0.000726958
0.00652326
-0.000738978
0.0066203
-0.00102737
0.00671502
-0.000885144
0.00681473
-0.00118721
0.00690422
-0.000804427
0.00700242
-0.00126734
0.00708185
-0.00053898
0.00719157
-0.00155358
-0.000175307
0.00839687
-0.0141685
0.00911925
-0.00463514
0.00937498
-0.00401321
0.00951205
-0.00128714
0.00959905
-0.000364849
0.00964084
0.000137029
0.00965596
0.000451809
0.00964883
0.000716005
0.009621
0.000877583
0.00957201
0.00107103
0.00950282
0.00122054
0.00941407
0.00139445
0.00930846
0.00151466
0.00918853
0.0016403
0.0090583
0.00169649
0.00892126
0.00175205
0.00878244
0.00171251
0.00864397
0.0017106
0.00850949
0.00160734
0.0083792
0.00158545
0.00825552
0.00145185
0.00813706
0.0014446
0.00802681
0.00127439
0.0079212
0.0013131
0.00782446
0.00110195
0.00773151
0.00119362
0.0076484
0.000926556
0.00756761
0.00109267
0.00749863
0.000731013
0.00742902
0.00102238
0.00737415
0.000517342
0.00731485
0.00098131
0.0072752
0.000264767
0.00722455
0.000987713
0.00720096
-3.16799e-05
0.0071564
0.00106135
0.00715098
-0.000399964
0.00710844
0.00123537
0.00712415
-0.000863037
0.00707909
0.00152175
0.00712056
-0.00144731
0.0070664
0.00195885
0.00713603
-0.00214237
0.00706274
0.00262051
0.00714948
-0.00283957
0.00704933
0.00356013
0.00711433
-0.00339426
0.00700482
0.0043144
0.00702255
-0.0039058
0.00697523
0.00393692
0.00701077
-0.00468676
0.00742081
-0.00132448
0.00828377
-0.015786
0.00797866
0.0129807
0.0071538
0.0087349
0.00651034
0.0100724
0.00621081
0.000990974
0.00589352
0.0036235
0.00577337
-0.000735933
0.00563617
0.00190173
0.00559272
-0.000872772
0.00551505
0.00134126
0.00548104
-0.000544334
0.00542186
0.00104037
0.00538841
-0.000283098
0.00533977
0.000793324
0.00530628
-9.63872e-05
0.00526444
0.000618764
0.00523492
8.18836e-06
0.00520711
0.000427743
0.00519773
-5.20541e-05
0.00520461
8.23398e-05
0.00523821
-0.000364945
0.0052946
-0.0004241
0.00537459
-0.000793832
0.00546907
-0.000867419
0.00557325
-0.00106398
0.00567846
-0.00104678
0.00578031
-0.00106417
0.00587451
-0.000966189
0.00596039
-0.000893988
0.00603749
-0.000788759
0.00610636
-0.000692811
0.00616877
-0.000624646
0.00622534
-0.00053873
0.00627981
-0.000534696
0.00633338
-0.000485168
0.0063918
-0.000570242
0.00645678
-0.000572474
0.00653531
-0.000805491
0.00662163
-0.000825293
0.00671738
-0.00112313
0.00681036
-0.000978115
0.00690721
-0.00128407
0.00699474
-0.000891948
0.00709001
-0.00136262
0.0071686
-0.000617566
0.00727475
-0.00165973
-0.000243923
0.00835698
-0.0149497
0.00905609
-0.00533425
0.00930875
-0.00426587
0.0094495
-0.0014279
0.0095396
-0.000454942
0.00958505
9.1581e-05
0.00960451
0.000432348
0.00960224
0.000718267
0.00957931
0.000900519
0.00953494
0.0011154
0.0094698
0.00128568
0.00938446
0.00147978
0.00928159
0.00161753
0.00916388
0.00175801
0.00903542
0.00182495
0.00889992
0.00188754
0.00876246
0.00184997
0.00862545
0.00184762
0.00849241
0.00174037
0.00836381
0.00171405
0.00824178
0.00157388
0.00812525
0.00156114
0.00801673
0.00138291
0.00791313
0.0014167
0.00781803
0.00119705
0.00772711
0.00128453
0.00764543
0.00100824
0.00756666
0.00117144
0.00749881
0.000798871
0.00743132
0.00108987
0.00737717
0.000571488
0.00732023
0.00103825
0.00728074
0.000304264
0.00723291
0.00103554
0.00720863
-7.40829e-06
0.00716772
0.00110227
0.00716034
-0.000392586
0.00712288
0.00127282
0.00713467
-0.000874828
0.007097
0.00155942
0.00713156
-0.00148188
0.0070885
0.00200191
0.00714668
-0.00220055
0.00709024
0.00267696
0.00715896
-0.0029083
0.00708179
0.0036373
0.00712247
-0.00343494
0.00703336
0.00440351
0.00702919
-0.00390163
0.00699635
0.00396976
0.00701845
-0.00470886
0.00743512
-0.00174114
0.00827535
-0.0166262
0.00799797
0.013258
0.0071962
0.00953668
0.00660776
0.0106608
0.00632138
0.00127736
0.00601142
0.00393345
0.00588166
-0.000606175
0.00574007
0.00204332
0.0056888
-0.000821494
0.00560877
0.00142128
0.00557035
-0.000505913
0.00551019
0.00110054
0.00547408
-0.00024699
0.00542482
0.000842588
0.0053895
-6.10668e-05
0.00534718
0.000661081
0.00531663
3.87374e-05
0.00528906
0.000455309
0.00528007
-4.30547e-05
0.00528843
7.39761e-05
0.00532364
-0.000400152
0.00538197
-0.000482428
0.00546342
-0.000875287
0.00555901
-0.000963007
0.00566362
-0.00116859
0.00576886
-0.00115203
0.00587036
-0.00116566
0.0059641
-0.00105993
0.0060495
-0.000979388
0.00612624
-0.000865501
0.00619493
-0.000761506
0.00625734
-0.000687055
0.00631414
-0.000595525
0.00636898
-0.000589535
0.00642319
-0.000539386
0.00648243
-0.00062948
0.00654848
-0.000638519
0.00662756
-0.000884575
0.00671375
-0.000911483
0.00680795
-0.00121734
0.00689893
-0.0010691
0.00699294
-0.00137808
0.00707841
-0.000977421
0.00717095
-0.00145515
0.00724857
-0.000695186
0.00735147
-0.00176263
-0.000313083
0.00831987
-0.0156938
0.00899541
-0.00600979
0.0092457
-0.00451615
0.00939021
-0.00157241
0.00948333
-0.000548059
0.00953225
4.26659e-05
0.00955564
0.000408955
0.00955767
0.000716239
0.00953901
0.000919175
0.00949869
0.00115572
0.00943706
0.00134731
0.0093547
0.00156214
0.00925419
0.00171804
0.00913838
0.00187382
0.00901142
0.00195192
0.00887727
0.0020217
0.00874101
0.00198623
0.00860531
0.00198332
0.00847363
0.00187205
0.00834663
0.00184106
0.00822622
0.00169429
0.00811153
0.00167583
0.0080047
0.00148973
0.00790304
0.00151836
0.00780955
0.00129054
0.00772054
0.00137355
0.00764029
0.00108849
0.0075634
0.00124833
0.0074967
0.000865572
0.00743113
0.00115544
0.0073778
0.000624817
0.00732293
0.00109313
0.00728378
0.000343411
0.00723834
0.00108098
0.00721374
1.71844e-05
0.00717582
0.00114019
0.00716711
-0.000383876
0.00713372
0.00130622
0.00714264
-0.00088375
0.00711081
0.00159125
0.00714015
-0.00151122
0.00710584
0.00203622
0.00715526
-0.00224997
0.00711204
0.00272018
0.00716704
-0.0029633
0.00710692
0.00369742
0.00712966
-0.00345769
0.00705427
0.0044789
0.00703476
-0.00388212
0.00701199
0.00399253
0.00702526
-0.00472214
0.00744624
-0.00216212
0.0082683
-0.0174483
0.00801218
0.0135141
0.00723028
0.0103186
0.00668811
0.011203
0.00641691
0.00154855
0.00611828
0.00423209
0.00598238
-0.000470281
0.00583797
0.00218774
0.00578016
-0.000763689
0.00569817
0.00150328
0.00565599
-0.00046374
0.005595
0.00116153
0.00555666
-0.000208652
0.00550688
0.000892373
0.00547004
-2.42327e-05
0.00542734
0.000703778
0.00539601
7.00738e-05
0.00536877
0.000482548
0.00536029
-3.45753e-05
0.00537013
6.41407e-05
0.0054069
-0.000436923
0.00546698
-0.000542513
0.0055497
-0.000958003
0.00564614
-0.00105945
0.00575095
-0.0012734
0.00585598
-0.00125706
0.00595691
-0.0012666
0.00605002
-0.00115304
0.00613478
-0.00106415
0.00621103
-0.000941751
0.00627942
-0.000829893
0.00634171
-0.000749342
0.0063986
-0.000652422
0.00645369
-0.000644621
0.00650841
-0.000594106
0.0065683
-0.000689371