/*--------------------------------*- C++ -*----------------------------------*\
| =========                 |                                                 |
| \\      /  F ield         | OpenFOAM: The Open Source CFD Toolbox           |
|  \\    /   O peration     | Version:  2412                                  |
|   \\  /    A nd           | Website:  www.openfoam.com                      |
|    \\/     M anipulation  |                                                 |
\*---------------------------------------------------------------------------*/
FoamFile
{
    version     2.0;
    format      ascii;
    arch        "LSB;label=32;scalar=64";
    class       volVectorField;
    location    "0.7";
    object      U;
}
// * * * * * * * * * * * * * * * * * * * * * * * * * * * * * * * * * * * * * //

dimensions      [0 1 -1 0 0 0 0];

internalField   nonuniform List<vector> 
78408
(
(79.1804 -82.4456 -1.56318e-14)
(101.181 -24.8559 -4.62349e-17)
(113.045 14.7424 0)
(119.185 28.7602 0)
(122.831 33.0028 -2.08189e-14)
(124.021 34.2307 -1.13407e-18)
(124.143 34.5745 0)
(123.912 34.7139 4.2562e-14)
(123.695 34.8671 4.2687e-14)
(123.432 35.023 0)
(123.136 35.1766 0)
(122.681 35.2829 2.15112e-14)
(122.149 35.3542 -2.16475e-14)
(121.493 35.3787 5.55203e-19)
(120.873 35.3851 0)
(120.23 35.3765 2.21984e-14)
(119.809 35.4048 0)
(119.448 35.439 -2.25972e-14)
(119.405 35.5379 5.10609e-19)
(119.402 35.6566 0)
(119.771 35.8528 0)
(120.072 36.0639 -2.3216e-14)
(120.86 36.3824 0)
(121.427 36.676 -2.33963e-14)
(122.617 37.1056 0)
(123.416 37.4847 0)
(125.083 38.0375 0)
(126.088 38.5043 0)
(128.378 39.2221 -2.34588e-14)
(129.564 39.7697 0)
(132.619 40.6878 0)
(133.955 41.3355 -1.21115e-18)
(137.864 42.4676 -2.26804e-14)
(139.372 43.2368 -2.21204e-14)
(144.465 44.6562 2.19184e-14)
(146.043 45.5556 2.11674e-14)
(152.768 47.3685 0)
(154.212 48.3734 0)
(163.144 50.7208 -1.95834e-14)
(164.202 51.8261 -1.81925e-14)
(176.213 54.9019 1.79867e-14)
(176.444 56.0661 -1.60444e-14)
(192.709 60.1449 0)
(191.266 61.2778 0)
(213.249 66.719 0)
(208.394 67.4879 9.99228e-15)
(237.95 74.7307 0)
(228.233 74.8551 0)
(269.762 84.9106 9.34667e-15)
(257.335 85.055 0)
(321.672 100.866 0)
(310.195 101.296 -1.47061e-14)
(474.974 152.125 3.52778e-18)
(482.666 10.9196 1.80853e-15)
(309.341 -68.9097 2.0193e-15)
(253.335 -58.6278 0)
(234.086 -53.2274 0)
(227.93 -49.5386 1.9018e-15)
(211.881 -47.6766 6.01337e-19)
(207.667 -45.0369 0)
(195.293 -43.6659 4.69386e-19)
(190.566 -41.4139 0)
(180.094 -40.1451 2.18721e-15)
(175.13 -38.1903 3.19742e-19)
(166.526 -37.0146 -2.73934e-15)
(161.824 -35.3793 2.64457e-15)
(154.681 -34.2897 6.5444e-15)
(150.164 -32.8901 3.32775e-15)
(144.128 -31.8679 3.78987e-15)
(139.933 -30.6811 -3.92408e-15)
(134.903 -29.7751 -4.27486e-15)
(131.37 -28.8208 -2.40448e-19)
(127.568 -28.1038 -9.43101e-15)
(125.182 -27.4617 2.29462e-19)
(122.788 -26.9942 -5.14052e-15)
(121.489 -26.6266 5.35352e-15)
(120.23 -26.3722 5.59112e-15)
(119.536 -26.1533 -2.04803e-19)
(118.688 -25.9742 0)
(117.922 -25.7737 -6.31857e-15)
(116.87 -25.5434 0)
(115.759 -25.2826 0)
(114.369 -24.9803 -7.02753e-15)
(112.957 -24.6664 0)
(111.345 -24.3156 -7.44097e-15)
(109.834 -23.9865 -7.61638e-15)
(108.214 -23.6221 7.77072e-15)
(106.894 -23.341 0)
(105.478 -23.0302 -7.94268e-15)
(104.697 -22.8603 0)
(103.868 -22.667 -7.87423e-15)
(103.993 -22.692 -7.77088e-15)
(103.723 -22.6073 -7.72946e-15)
(104.493 -22.7753 0)
(104.127 -22.6488 7.73113e-15)
(105.171 -22.8902 -7.72881e-15)
(103.849 -22.5454 0)
(105.171 -22.8824 -7.86163e-15)
(103.639 -22.3715 0)
(129.35 45.2833 1.06081e-14)
(138.396 49.9401 -2.18354e-14)
(136.523 43.6054 0)
(137.063 40.0491 0)
(139.014 39.328 1.50169e-14)
(140.682 39.806 -2.98612e-14)
(141.934 40.4096 0)
(142.794 40.9157 -1.42744e-14)
(143.225 41.2694 -1.40147e-14)
(143.369 41.5254 0)
(143.279 41.705 -1.37674e-14)
(143.013 41.8318 -7.52634e-19)
(142.586 41.9005 0)
(142.039 41.9339 1.38629e-14)
(141.42 41.9221 0)
(140.774 41.9109 1.4036e-14)
(140.209 41.9052 0)
(139.772 41.939 0)
(139.529 42.0039 5.94654e-19)
(139.479 42.1502 -1.43377e-14)
(139.677 42.3305 0)
(140.039 42.6147 1.44341e-14)
(140.68 42.9339 0)
(141.462 43.3511 0)
(142.52 43.7849 1.45526e-14)
(143.689 44.3458 0)
(145.201 44.8944 0)
(146.763 45.6137 0)
(148.807 46.3016 0)
(150.821 47.1951 0)
(153.488 48.0413 0)
(155.996 49.1632 -1.40489e-14)
(159.569 50.2392 2.80298e-14)
(162.558 51.5988 1.36108e-14)
(167.248 52.9383 0)
(170.708 54.5801 -1.29837e-14)
(176.884 56.271 1.27993e-14)
(180.799 58.2238 -1.21369e-14)
(188.924 60.3826 2.27121e-18)
(193.238 62.7091 1.10469e-14)
(204.053 65.4964 0)
(208.6 68.2342 9.67173e-15)
(223.106 71.892 9.65673e-15)
(227.398 75.0451 -7.96133e-15)
(246.811 79.8747 8.29328e-15)
(249.523 83.1552 0)
(275.33 89.5391 0)
(275.056 92.6271 0)
(311.646 101.766 0)
(310.336 105.283 3.0618e-16)
(370.084 121.11 0)
(368.089 124.357 8.12498e-15)
(535.578 182.122 9.64194e-16)
(597.536 -5.65146 -1.03986e-15)
(387.83 -83.4759 0)
(312.078 -67.0869 0)
(275.497 -60.3057 -9.07311e-17)
(267.962 -57.0132 -7.62434e-16)
(245.232 -53.6426 7.93691e-16)
(241.756 -51.431 0)
(224.656 -48.9706 6.23568e-16)
(220.55 -46.9966 3.32599e-16)
(206.399 -44.8802 0)
(201.539 -43.0405 7.05653e-16)
(190.081 -41.234 1.03317e-15)
(185.145 -39.6157 0)
(175.856 -38.0663 -2.44305e-15)
(170.958 -36.6342 -2.41883e-19)
(163.306 -35.2768 0)
(158.66 -34.0366 2.91194e-15)
(152.445 -32.8961 1.57823e-15)
(148.452 -31.8828 -1.64271e-15)
(143.916 -31.0382 1.74261e-15)
(141.132 -30.3497 1.82156e-15)
(138.465 -29.8589 1.92119e-15)
(137.021 -29.4961 -2.02249e-15)
(135.706 -29.2586 0)
(134.995 -29.0605 -1.81192e-19)
(134.155 -28.9019 0)
(133.397 -28.7146 2.54227e-15)
(132.346 -28.4893 0)
(131.214 -28.2296 2.82769e-15)
(129.786 -27.9171 2.96592e-15)
(128.307 -27.5939 0)
(126.609 -27.2201 6.43934e-15)
(124.983 -26.8764 3.32753e-15)
(123.234 -26.4788 -3.42026e-15)
(121.759 -26.1878 0)
(120.187 -25.8358 1.48296e-19)
(119.224 -25.6641 0)
(118.237 -25.4277 3.44438e-15)
(118.186 -25.4725 3.37808e-15)
(117.797 -25.3333 6.70802e-15)
(118.421 -25.5453 0)
(117.999 -25.3348 -6.76971e-15)
(118.887 -25.6596 3.40959e-15)
(118.035 -25.279 3.51951e-15)
(118.923 -25.7211 3.54209e-15)
(118.345 -25.2174 3.69372e-15)
(96.4176 37.6885 0)
(131.739 40.8279 -1.19999e-17)
(140.973 38.5514 -1.23344e-14)
(143.602 39.3047 0)
(145.318 40.5278 0)
(146.377 41.4123 1.13509e-14)
(147.236 41.9768 0)
(148.017 42.4552 -9.86191e-15)
(148.656 42.8623 9.50193e-15)
(149.144 43.2293 0)
(149.468 43.5406 9.35879e-15)
(149.621 43.8051 -9.45738e-15)
(149.614 44.0084 0)
(149.456 44.1715 0)
(149.205 44.2779 0)
(148.874 44.3743 -2.03077e-14)
(148.587 44.4598 0)
(148.359 44.5689 -1.04401e-14)
(148.302 44.694 1.05543e-14)
(148.374 44.8915 1.06352e-14)
(148.703 45.1139 -1.07159e-14)
(149.149 45.4408 1.07685e-14)
(149.917 45.8007 0)
(150.772 46.2618 0)
(151.992 46.7437 -1.09488e-14)
(153.245 47.3594 0)
(154.97 47.9673 0)
(156.629 48.7546 0)
(158.954 49.5159 0)
(161.063 50.4884 0)
(164.096 51.4237 0)
(166.682 52.6373 0)
(170.671 53.8029 -1.03429e-18)
(173.772 55.2891 -1.07004e-14)
(178.954 56.722 -1.06476e-14)
(182.552 58.5309 1.03133e-14)
(189.312 60.316 -2.03676e-14)
(193.387 62.4841 9.73561e-15)
(202.218 64.7397 9.56013e-15)
(206.719 67.3458 0)
(218.394 70.2307 0)
(223.173 73.3313 7.89583e-15)
(238.73 77.0912 -2.27386e-18)
(243.334 80.7134 6.55816e-15)
(264.028 85.6574 -6.7643e-15)
(267.178 89.5212 0)
(294.495 96.0485 0)
(294.851 99.8273 2.7843e-15)
(333.111 109.188 0)
(332.831 113.517 -2.45761e-16)
(394.451 129.863 0)
(394.248 134.029 -6.22862e-15)
(560.222 192.99 0)
(637.805 -10.0985 9.07652e-16)
(433.674 -91.1063 0)
(345.097 -72.5582 0)
(300.012 -65.0303 1.14795e-16)
(288.1 -60.7801 4.6915e-16)
(263.117 -57.0772 -2.37707e-16)
(257.937 -54.4849 -8.20088e-17)
(239.733 -51.8615 0)
(234.57 -49.6276 -1.92653e-16)
(219.64 -47.3942 0)
(213.919 -45.3473 4.0117e-16)
(201.796 -43.4409 -5.83045e-16)
(196.129 -41.6543 -5.59869e-16)
(186.281 -40.0174 6.80961e-16)
(180.782 -38.4516 -6.8996e-16)
(172.668 -37.0205 0)
(167.539 -35.6792 -1.60417e-15)
(160.968 -34.4851 -1.27616e-19)
(156.635 -33.4097 0)
(151.884 -32.5432 0)
(148.933 -31.8364 0)
(146.178 -31.3503 0)
(144.692 -30.9944 1.14933e-19)
(143.362 -30.7696 0)
(142.647 -30.5788 -1.27648e-15)
(141.805 -30.4258 1.36339e-15)
(141.043 -30.2386 0)
(139.986 -30.0107 0)
(138.842 -29.7469 -1.64285e-15)
(137.399 -29.4271 0)
(135.895 -29.0985 0)
(134.17 -28.7144 -1.9065e-15)
(132.499 -28.3658 0)
(130.708 -27.9555 0)
(129.167 -27.6624 0)
(127.544 -27.2961 2.09721e-15)
(126.498 -27.1298 -2.07583e-15)
(125.458 -26.878 0)
(125.302 -26.9338 0)
(124.854 -26.7643 -1.97056e-15)
(125.341 -26.9881 0)
(124.878 -26.7243 3.98106e-15)
(125.609 -27.0806 0)
(124.735 -26.6085 -2.09136e-15)
(125.527 -27.1549 0)
(124.86 -26.489 -2.22405e-15)
(99.006 17.5208 0)
(127.179 30.0771 2.47367e-14)
(137.015 36.0122 2.08696e-14)
(141.452 39.2352 0)
(144.471 40.6468 0)
(146.223 41.4544 7.61626e-15)
(147.473 42.0661 -6.82715e-15)
(148.566 42.638 6.3194e-15)
(149.528 43.1392 -1.21139e-14)
(150.363 43.6102 5.98021e-15)
(151.054 44.029 0)
(151.583 44.4076 0)
(151.957 44.7252 0)
(152.178 45.0051 0)
(152.299 45.2239 0)
(152.323 45.4309 7.07185e-15)
(152.366 45.6154 7.28673e-15)
(152.432 45.8172 7.47591e-15)
(152.633 46.0178 -7.64082e-15)
(152.925 46.2863 0)
(153.442 46.5627 3.1922e-19)
(154.052 46.9463 -3.68332e-19)
(154.971 47.348 0)
(155.968 47.8623 -8.21175e-15)
(157.334 48.3824 8.32437e-15)
(158.734 49.0574 -8.41478e-15)
(160.621 49.7049 0)
(162.446 50.563 0)
(164.956 51.3661 0)
(167.253 52.4235 8.77201e-15)
(170.498 53.4006 -8.88664e-15)
(173.294 54.7175 8.85769e-15)
(177.503 55.9141 -7.84593e-19)
(180.85 57.532 0)
(186.273 58.9829 8.87125e-15)
(190.165 60.9623 8.67431e-15)
(197.184 62.7444 1.05446e-18)
(201.611 65.1335 0)
(210.721 67.3562 0)
(215.651 70.2524 0)
(227.626 73.0621 -7.63419e-15)
(232.946 76.5466 -6.95775e-15)
(248.829 80.1779 -1.37842e-14)
(254.138 84.3133 5.84798e-15)
(275.192 89.0668 5.99737e-15)
(279.292 93.6155 4.38234e-15)
(306.997 99.8866 0)
(308.657 104.548 -2.50204e-15)
(347.193 113.585 0)
(348.709 118.949 0)
(409.87 134.852 0)
(412.311 140.024 -4.12652e-18)
(570.504 197.394 0)
(660.654 -9.11146 -7.89946e-16)
(468.39 -96.6558 0)
(372.517 -77.4904 9.06494e-16)
(320.013 -68.9855 -4.44014e-17)
(303.826 -63.752 -3.50301e-16)
(276.62 -59.7555 -1.74263e-16)
(269.853 -56.756 5.8973e-17)
(250.652 -54.013 -2.59654e-16)
(244.615 -51.5319 -1.35425e-16)
(229.052 -49.2243 -3.35953e-16)
(222.685 -47.0001 -2.78664e-16)
(210.055 -45.0306 0)
(203.86 -43.1079 3.85305e-16)
(193.594 -41.4133 0)
(187.666 -39.7428 -4.7187e-16)
(179.213 -38.2619 0)
(173.747 -36.8444 7.83738e-20)
(166.925 -35.617 -1.18357e-15)
(162.371 -34.5 0)
(157.486 -33.6268 6.53587e-16)
(154.443 -32.9129 6.85144e-16)
(151.646 -32.4382 0)
(150.139 -32.0888 7.73517e-16)
(148.799 -31.8738 0)
(148.068 -31.6835 0)
(147.209 -31.5285 -1.89813e-15)
(146.422 -31.3333 0)
(145.34 -31.0963 0)
(144.167 -30.8218 0)
(142.699 -30.4913 -1.2221e-15)
(141.165 -30.1538 0)
(139.415 -29.7599 0)
(137.711 -29.4054 -1.4042e-15)
(135.892 -28.9868 1.44968e-15)
(134.312 -28.692 0)
(132.666 -28.3212 0)
(131.577 -28.162 1.46785e-15)
(130.516 -27.9083 0)
(130.292 -27.9718 -1.39933e-15)
(129.797 -27.7851 0)
(130.166 -28.0062 0)
(129.646 -27.7053 -2.78788e-15)
(130.236 -28.0648 1.41335e-15)
(129.323 -27.5348 0)
(130.002 -28.1294 -1.487e-15)
(129.266 -27.3567 0)
(103.847 22.5954 0)
(126.972 34.1278 -1.6018e-14)
(134.701 36.1526 -6.54163e-15)
(138.877 38.4532 -6.10292e-15)
(142.371 39.9615 0)
(144.709 40.9914 -4.92056e-15)
(146.445 41.7667 4.48165e-15)
(147.911 42.4497 -4.19071e-15)
(149.176 43.0356 4.03687e-15)
(150.277 43.586 -2.53e-19)
(151.215 44.0788 0)
(151.982 44.5314 0)
(152.589 44.9206 0)
(153.042 45.2733 0)
(153.392 45.5625 0)
(153.646 45.8406 4.87572e-15)
(153.91 46.0912 -1.8469e-19)
(154.189 46.3588 -5.24001e-15)
(154.586 46.6162 5.39869e-15)
(155.061 46.9417 0)
(155.743 47.2642 5.67258e-15)
(156.509 47.6981 -2.77228e-19)
(157.569 48.1378 5.91865e-15)
(158.711 48.7013 1.20806e-14)
(160.212 49.2556 -6.17153e-15)
(161.763 49.9849 6.29945e-15)
(163.792 50.6663 0)
(165.785 51.5887 0)
(168.45 52.4254 -6.72678e-15)
(170.939 53.5613 -1.36825e-14)
(174.354 54.5692 6.99838e-15)
(177.371 55.9837 -7.07028e-15)
(181.751 57.1999 -7.22828e-15)
(185.354 58.9404 0)
(190.951 60.3942 0)
(195.145 62.5322 -1.45184e-14)
(202.334 64.2909 7.28877e-15)
(207.121 66.8869 7.1296e-15)
(216.392 69.0468 -7.08947e-15)
(221.757 72.2163 0)
(233.875 74.9077 6.71371e-15)
(239.735 78.7564 0)
(255.735 82.1973 1.45502e-18)
(261.744 86.8249 -5.28469e-15)
(282.885 91.303 -1.72837e-18)
(287.946 96.5213 -7.99783e-15)
(315.705 102.431 4.4515e-15)
(318.74 107.976 0)
(357.084 116.557 0)
(360.395 122.906 0)
(420.147 138.074 0)
(424.713 143.986 -3.26954e-18)
(575.435 199.234 0)
(672.064 -8.16898 -5.7871e-16)
(494.397 -100.757 5.60341e-16)
(396.13 -81.6356 -7.90344e-16)
(337.717 -72.4277 0)
(317.495 -66.3025 0)
(288.138 -62.0297 1.41594e-16)
(279.809 -58.6331 -4.71642e-17)
(259.684 -55.7846 2.05948e-16)
(252.836 -53.0734 2.11723e-16)
(236.728 -50.7072 2.62432e-16)
(229.804 -48.3277 2.1542e-16)
(216.759 -46.3112 3.12581e-16)
(210.127 -44.2735 -2.96133e-16)
(199.523 -42.5353 -3.60144e-16)
(193.244 -40.778 6.31628e-20)
(184.519 -39.2592 0)
(178.782 -37.7805 4.18463e-16)
(171.767 -36.5303 5.3019e-20)
(167.046 -35.384 0)
(162.069 -34.5119 -1.00397e-15)
(158.966 -33.7982 -5.27126e-16)
(156.145 -33.3378 0)
(154.623 -32.9958 0)
(153.27 -32.7887 0)
(152.516 -32.5958 0)
(151.625 -32.4351 4.98049e-20)
(150.799 -32.2278 0)
(149.677 -31.978 0)
(148.462 -31.6895 0)
(146.958 -31.3459 1.91177e-15)
(145.387 -30.9971 0)
(143.608 -30.5926 0)
(141.871 -30.2311 4.40244e-20)
(140.027 -29.8053 -1.1363e-15)
(138.415 -29.509 0)
(136.755 -29.1372 -1.16215e-15)
(135.642 -28.9861 0)
(134.573 -28.7358 0)
(134.299 -28.8056 3.02639e-20)
(133.759 -28.6066 0)
(134.021 -28.8195 0)
(133.434 -28.488 4.8197e-20)
(133.894 -28.8405 -1.09449e-15)
(132.928 -28.2658 0)
(133.498 -28.8866 -4.00511e-21)
(132.683 -28.0311 0)
(103.63 22.5865 0)
(125.853 33.9211 8.60279e-15)
(133.068 35.2769 0)
(137.005 37.7919 3.8114e-15)
(140.595 39.3989 0)
(143.214 40.5152 3.36644e-15)
(145.263 41.3857 0)
(147.008 42.1549 3.00348e-15)
(148.511 42.8125 -2.91664e-15)
(149.814 43.4273 -2.89356e-15)
(150.932 43.9769 -2.92415e-15)
(151.86 44.4831 0)
(152.618 44.9213 0)
(153.214 45.3213 0)
(153.702 45.6543 0)
(154.091 45.9755 -3.50815e-15)
(154.487 46.2651 -3.64654e-15)
(154.895 46.5722 3.77815e-15)
(155.415 46.864 3.89996e-15)
(156.01 47.2258 0)
(156.805 47.5785 0)
(157.685 48.0469 -8.46211e-15)
(158.851 48.5137 -8.67963e-15)
(160.105 49.1131 -4.45383e-15)
(161.712 49.693 0)
(163.382 50.463 4.70083e-15)
(165.524 51.17 0)
(167.651 52.1414 0)
(170.438 53.0035 5.12573e-15)
(173.083 54.2007 5.26432e-15)
(176.63 55.232 -5.42381e-15)
(179.834 56.725 0)
(184.349 57.9569 0)
(188.171 59.7981 0)
(193.905 61.2532 0)
(198.363 63.5245 5.95487e-15)
(205.684 65.2607 0)
(210.792 68.0344 -5.9965e-15)
(220.179 70.1344 8.5323e-19)
(225.936 73.5424 5.85225e-15)
(238.142 76.119 -5.81742e-15)
(244.49 80.2891 0)
(260.536 83.5423 5.43799e-15)
(267.173 88.6077 0)
(288.311 92.8121 -1.47158e-18)
(294.235 98.631 3.63815e-15)
(321.939 104.19 -3.94879e-15)
(326.265 110.532 0)
(364.165 118.653 2.55724e-15)
(368.996 125.799 0)
(426.99 140.179 1.32455e-15)
(432.948 146.473 1.41721e-15)
(578.156 199.778 -1.78064e-16)
(676.512 -7.72008 3.89191e-16)
(512.874 -103.312 -2.78275e-18)
(416.314 -85.0062 0)
(353.737 -75.4577 0)
(329.912 -68.5684 0)
(298.509 -64.0383 0)
(288.653 -60.2709 3.98746e-17)
(267.649 -57.3198 1.73376e-16)
(260.027 -54.3983 -1.76181e-16)
(243.426 -51.9776 0)
(235.998 -49.4615 -3.555e-16)
(222.593 -47.4042 -2.58008e-16)
(215.576 -45.2682 4.86474e-16)
(204.685 -43.493 2.96091e-16)
(198.101 -41.662 5.18679e-20)
(189.144 -40.1116 0)
(183.176 -38.5825 -3.42804e-16)
(176.001 -37.3156 3.72127e-16)
(171.145 -36.1487 0)
(166.1 -35.2822 4.19366e-20)
(162.954 -34.5734 0)
(160.12 -34.1288 0)
(158.583 -33.7946 -4.95234e-16)
(157.213 -33.5938 0)
(156.427 -33.3965 0)
(155.496 -33.2275 6.14619e-16)
(154.62 -33.0059 0)
(153.449 -32.7411 0)
(152.183 -32.4367 0)
(150.635 -32.0786 -7.96526e-16)
(149.022 -31.7172 0)
(147.208 -31.3015 0)
(145.437 -30.9323 9.17305e-16)
(143.567 -30.4997 9.46352e-16)
(141.928 -30.2019 0)
(140.257 -29.8308 9.64603e-16)
(139.127 -29.6883 0)
(138.054 -29.4431 0)
(137.737 -29.5179 8.94622e-16)
(137.15 -29.3076 0)
(137.31 -29.5098 0)
(136.649 -29.1502 8.85778e-16)
(136.989 -29.492 0)
(135.961 -28.8789 0)
(136.429 -29.5165 9.47116e-16)
(135.528 -28.5906 0)
(103.56 21.6603 0)
(124.696 33.2376 -2.55485e-15)
(131.643 34.6003 0)
(135.53 37.2518 0)
(139.147 38.8914 0)
(141.9 40.0593 -2.50996e-19)
(144.137 40.9954 2.37537e-15)
(146.08 41.8307 2.29764e-15)
(147.764 42.5473 2.25087e-15)
(149.227 43.2162 0)
(150.485 43.8133 2.26149e-15)
(151.536 44.3628 0)
(152.403 44.8388 0)
(153.097 45.2734 2.47173e-15)
(153.676 45.6367 2.56767e-15)
(154.151 45.9861 0)
(154.629 46.2998 0)
(155.115 46.6305 0)
(155.713 46.9424 -2.94466e-15)
(156.385 47.326 0)
(157.255 47.6971 0)
(158.213 48.1876 6.39067e-15)
(159.455 48.6717 6.56475e-15)
(160.79 49.2953 0)
(162.477 49.8924 0)
(164.234 50.6904 -2.37198e-19)
(166.461 51.4148 0)
(168.687 52.4203 0)
(171.565 53.2996 0)
(174.324 54.5403 0)
(177.971 55.5871 4.21727e-15)
(181.312 57.1371 0)
(185.93 58.3795 0)
(189.917 60.2958 4.59301e-15)
(195.756 61.7506 0)
(200.419 64.1244 0)
(207.84 65.8413 0)
(213.206 68.7564 4.93814e-15)
(222.68 70.8058 9.95642e-15)
(228.764 74.4091 -4.93203e-15)
(241.029 76.887 4.92144e-15)
(247.794 81.3264 0)
(263.857 84.4149 0)
(271.038 89.8528 0)
(292.137 93.8151 -1.23407e-18)
(298.826 100.15 0)
(326.409 105.404 3.3612e-15)
(331.905 112.424 -1.7292e-15)
(369.147 120.089 -3.98882e-15)
(375.108 127.797 0)
(431.455 141.468 -9.74566e-16)
(438.294 147.88 0)
(579.799 199.629 1.27795e-16)
(677.893 -7.33221 2.59696e-16)
(525.175 -104.529 -3.95654e-16)
(433.196 -87.6822 0)
(368.224 -78.1225 -2.96756e-17)
(341.377 -70.6109 0)
(308.083 -65.8544 0)
(296.761 -61.7448 0)
(274.916 -58.6949 -7.47075e-20)
(266.552 -55.5795 1.52607e-16)
(249.493 -53.1069 -1.88799e-16)
(241.597 -50.468 3.05702e-16)
(227.87 -48.374 2.21851e-16)
(220.505 -46.1513 -4.16851e-16)
(209.359 -44.3434 -2.53873e-16)
(202.502 -42.4483 5.07355e-16)
(193.34 -40.8704 0)
(187.168 -39.2986 3.99561e-20)
(179.856 -38.0191 0)
(174.887 -36.8378 -3.31384e-16)
(169.79 -35.98 3.5498e-16)
(166.611 -35.2792 -3.73996e-16)
(163.766 -34.8507 -4.01051e-16)
(162.213 -34.5241 3.79086e-20)
(160.822 -34.3281 0)
(159.996 -34.1248 4.95418e-16)
(159.017 -33.9455 0)
(158.085 -33.708 0)
(156.856 -33.4267 0)
(155.535 -33.1052 0)
(153.937 -32.7316 0)
(152.278 -32.3567 0)
(150.426 -31.9294 0)
(148.618 -31.5519 0)
(146.72 -31.1127 -8.20255e-16)
(145.055 -30.8135 0)
(143.374 -30.4439 0)
(142.233 -30.3101 0)
(141.154 -30.0702 0)
(140.795 -30.1484 0)
(140.156 -29.9264 0)
(140.218 -30.1159 0)
(139.479 -29.7295 0)
(139.704 -30.0587 0)
(138.611 -29.4112 0)
(138.984 -30.0606 0)
(137.995 -29.0724 0)
(103.467 20.9281 0)
(123.631 32.493 -1.73873e-15)
(130.378 33.9972 0)
(134.286 36.7527 0)
(137.914 38.4215 1.93602e-15)
(140.74 39.6309 -3.83545e-15)
(143.099 40.6156 -1.88016e-15)
(145.182 41.5024 -1.52315e-19)
(147.007 42.268 0)
(148.6 42.9833 0)
(149.972 43.6215 -1.83558e-15)
(151.122 44.208 -1.8729e-15)
(152.074 44.7158 1.92529e-15)
(152.841 45.1781 -1.98823e-15)
(153.485 45.5645 -2.05693e-15)
(154.018 45.9341 0)
(154.551 46.2635 0)
(155.09 46.6093 0)
(155.739 46.9333 0)
(156.463 47.3302 0)
(157.387 47.7125 0)
(158.401 48.2173 -1.27704e-19)
(159.701 48.7124 -2.58121e-15)
(161.096 49.3523 0)
(162.843 49.9607 -2.73586e-15)
(164.667 50.7779 -5.64609e-15)
(166.958 51.5137 -2.91638e-15)
(169.257 52.5427 -3.01526e-15)
(172.204 53.4327 -3.12028e-15)
(175.047 54.7035 3.22736e-15)
(178.767 55.7597 -3.34228e-15)
(182.206 57.3496 -3.45102e-15)
(186.902 58.5974 -3.5724e-15)
(191.008 60.5676 -7.34286e-15)
(196.925 62.0197 0)
(201.736 64.4686 3.873e-15)
(209.233 66.1682 0)
(214.79 69.1899 -4.0261e-15)
(224.331 71.1975 -4.07318e-15)
(230.664 74.9526 0)
(242.974 77.3495 4.08131e-15)
(250.068 82.0043 0)
(266.138 84.9569 0)
(273.764 90.6995 0)
(294.815 94.4612 -3.5598e-15)
(302.156 101.224 0)
(329.579 106.223 -5.44531e-15)
(336.048 113.778 1.85316e-18)
(372.546 121.011 2.97548e-15)
(379.241 129.065 -7.96807e-17)
(434.347 142.192 0)
(441.81 148.579 -7.51058e-16)
(580.85 199.111 9.65604e-17)
(678.168 -6.97335 -1.84358e-16)
(533.005 -104.856 -3.05259e-16)
(446.986 -89.7362 0)
(381.186 -80.436 2.72629e-17)
(351.998 -72.4547 0)
(317.016 -67.513 0)
(304.318 -63.0922 3.17114e-17)
(281.673 -59.9499 -2.723e-16)
(272.6 -56.6552 -6.30077e-20)
(255.11 -54.1336 5.29083e-20)
(246.775 -51.383 -1.35231e-16)
(232.755 -49.2554 -1.9631e-16)
(225.07 -46.9551 1.83877e-16)
(213.693 -45.1178 4.48267e-16)
(206.587 -43.1656 -4.00904e-20)
(197.24 -41.5635 0)
(190.884 -39.9549 2.58779e-16)
(183.453 -38.6661 2.81664e-16)
(178.387 -37.4749 5.8588e-16)
(173.247 -36.628 -3.14397e-16)
(170.04 -35.9371 3.3187e-16)
(167.187 -35.5246 3.28997e-20)
(165.614 -35.205 3.81326e-16)
(164.197 -35.012 0)
(163.326 -34.8013 -8.8451e-16)
(162.292 -34.6101 0)
(161.297 -34.3554 5.11235e-16)
(160.006 -34.0564 0)
(158.624 -33.7169 0)
(156.973 -33.3271 -6.1762e-16)
(155.264 -32.9382 0)
(153.371 -32.4988 0)
(151.525 -32.1129 7.09739e-16)
(149.599 -31.6671 -7.30812e-16)
(147.908 -31.3665 0)
(146.217 -30.9987 -7.38752e-16)
(145.064 -30.8732 0)
(143.977 -30.6381 0)
(143.574 -30.7178 0)
(142.878 -30.4831 0)
(142.841 -30.6583 0)
(142.021 -30.2462 6.64565e-16)
(142.138 -30.5617 6.76016e-16)
(140.978 -29.883 0)
(141.261 -30.5409 -7.11312e-16)
(140.185 -29.4968 0)
(103.351 20.2388 0)
(122.653 31.7062 2.61333e-15)
(129.23 33.4255 0)
(133.185 36.2807 0)
(136.824 37.9809 -1.53985e-15)
(139.698 39.2274 1.55277e-15)
(142.142 40.2503 -1.54447e-15)
(144.33 41.1787 -1.28162e-19)
(146.266 41.9856 0)
(147.965 42.7413 0)
(149.432 43.4159 1.54285e-15)
(150.663 44.0352 1.57244e-15)
(151.685 44.5707 -1.61249e-15)
(152.51 45.0567 0)
(153.203 45.462 -1.71071e-15)
(153.779 45.8469 0)
(154.351 46.1875 0)
(154.927 46.5432 0)
(155.613 46.8747 0)
(156.375 47.2801 -1.95339e-15)
(157.34 47.6695 0)
(158.398 48.1837 -4.10179e-15)
(159.742 48.6859 -2.10516e-15)
(161.186 49.3373 2.16476e-15)
(162.982 49.9532 2.22988e-15)
(164.858 50.784 2.30016e-15)
(167.201 51.5273 4.75179e-15)
(169.558 52.5728 2.45574e-15)
(172.558 53.4695 5.08127e-15)
(175.465 54.7615 -2.62707e-15)
(179.242 55.8228 5.43934e-15)
(182.755 57.4408 2.80809e-15)
(187.511 58.6903 2.67718e-19)
(191.702 60.699 2.98811e-15)
(197.68 62.1464 -3.08576e-15)
(202.597 64.6495 -6.31307e-15)
(210.153 66.3332 0)
(215.845 69.4335 0)
(225.439 71.4058 3.33622e-15)
(231.951 75.2756 3.35774e-15)
(244.299 77.6066 -3.36199e-15)
(251.635 82.428 -3.29087e-15)
(267.715 85.2713 0)
(275.682 91.2547 0)
(296.693 94.8572 0)
(304.556 101.96 0)
(331.817 106.75 2.11924e-15)
(338.998 114.689 1.07606e-15)
(374.831 121.549 -1.09472e-15)
(381.96 129.799 1.15897e-16)
(436.255 142.547 0)
(444.227 148.84 1.12958e-15)
(581.55 198.39 -1.54134e-16)
(678.052 -6.66079 1.37512e-16)
(537.989 -104.694 1.51631e-18)
(458.03 -91.2498 0)
(392.614 -82.4059 0)
(361.801 -74.1087 0)
(325.378 -69.0306 -9.01229e-17)
(311.419 -64.3328 -2.90069e-17)
(288.02 -61.1067 1.24348e-16)
(278.277 -57.647 -1.23161e-16)
(260.38 -55.0796 4.68529e-20)
(251.635 -52.2268 0)
(237.343 -50.0686 -1.77175e-16)
(229.362 -47.6982 -1.65572e-16)
(217.773 -45.8342 -2.02044e-16)
(210.438 -43.8307 -2.01342e-16)
(200.923 -42.207 2.27677e-16)
(194.4 -40.5665 0)
(186.863 -39.2712 -5.08392e-16)
(181.711 -38.0737 -5.29261e-16)
(176.535 -37.2393 2.84606e-16)
(173.305 -36.5594 0)
(170.441 -36.1625 3.23992e-16)
(168.846 -35.8489 0)
(167.395 -35.6574 0)
(166.473 -35.4377 2.99953e-20)
(165.379 -35.2331 0)
(164.317 -34.9602 -2.86993e-20)
(162.96 -34.6426 0)
(161.513 -34.2844 -5.31382e-16)
(159.805 -33.8779 5.63028e-16)
(158.044 -33.4747 -5.933e-16)
(156.108 -33.0231 0)
(154.224 -32.6285 -6.45936e-16)
(152.268 -32.176 2.70776e-20)
(150.551 -31.8741 0)
(148.848 -31.5083 1.33693e-15)
(147.682 -31.3906 -6.50806e-16)
(146.582 -31.1591 0)
(146.131 -31.2381 -6.05931e-16)
(145.373 -30.9895 -5.93318e-16)
(145.238 -31.1493 0)
(144.335 -30.712 -5.95113e-16)
(144.348 -31.0136 -4.27379e-21)
(143.122 -30.3061 0)
(143.322 -30.9706 6.37315e-16)
(142.16 -29.8757 -6.62144e-16)
(103.229 19.5665 0)
(121.739 30.9127 -3.54813e-19)
(128.167 32.8766 0)
(132.181 35.8295 0)
(135.834 37.5624 0)
(138.745 38.8439 0)
(141.254 39.8991 1.20402e-19)
(143.524 40.8623 -1.30549e-15)
(145.55 41.7047 -1.30659e-15)
(147.337 42.4961 0)
(148.884 43.2035 0)
(150.184 43.8525 0)
(151.263 44.4129 -1.38756e-15)
(152.135 44.9196 1.42458e-15)
(152.867 45.3409 1.46406e-15)
(153.475 45.7384 0)
(154.076 46.0873 0)
(154.679 46.4499 0)
(155.393 46.7861 0)
(156.186 47.1969 7.17575e-20)
(157.184 47.5908 1.68605e-15)
(158.278 48.1115 3.453e-15)
(159.66 48.6186 8.89019e-20)
(161.145 49.2782 -3.63935e-15)
(162.983 49.8994 1.87332e-15)
(164.903 50.7401 0)
(167.29 51.4885 -3.987e-15)
(169.693 52.5459 2.05832e-15)
(172.739 53.4467 -1.5213e-19)
(175.696 54.7541 0)
(179.521 55.8179 -2.27292e-15)
(183.089 57.4561 0)
(187.895 58.7051 2.42196e-15)
(192.15 60.7415 -2.48668e-15)
(198.179 62.1832 2.56653e-15)
(203.172 64.7259 2.62061e-15)
(210.777 66.3944 0)
(216.566 69.553 0)
(226.205 71.4949 -5.53076e-15)
(232.844 75.4507 -2.78061e-15)
(245.227 77.7273 2.78252e-15)
(252.737 82.6757 9.6876e-19)
(268.832 85.4316 2.68274e-15)
(277.049 91.6008 0)
(298.04 95.0796 2.36057e-15)
(306.297 102.443 1.83341e-15)
(333.418 107.063 -1.62055e-15)
(341.061 115.255 0)
(376.386 121.825 0)
(383.769 130.178 -8.46454e-17)
(437.562 142.671 0)
(445.982 148.834 -8.83245e-16)
(582.025 197.551 6.39544e-17)
(677.79 -6.38598 -1.08998e-16)
(541.301 -104.294 1.83087e-16)
(466.755 -92.3153 0)
(402.532 -84.0468 0)
(370.781 -75.5768 0)
(333.196 -70.415 8.37947e-17)
(318.113 -65.4769 0)
(294.018 -62.1782 1.14913e-16)
(283.647 -58.5677 1.13237e-16)
(265.369 -55.9585 1.39948e-16)
(256.239 -53.0123 0)
(241.695 -50.8263 1.62396e-16)
(233.439 -48.3921 1.515e-16)
(221.655 -46.5041 0)
(214.106 -44.4541 1.84159e-16)
(204.438 -42.8113 -2.87934e-20)
(197.76 -41.1428 0)
(190.128 -39.8434 2.71709e-20)
(184.9 -38.6427 4.85978e-16)
(179.694 -37.8219 2.61802e-16)
(176.441 -37.1538 -2.77233e-16)
(173.565 -36.7715 0)
(171.942 -36.463 0)
(170.453 -36.2713 0)
(169.474 -36.0413 3.73353e-16)
(168.316 -35.822 0)
(167.181 -35.5299 -4.32064e-16)
(165.754 -35.1929 -4.6227e-16)
(164.24 -34.8158 4.92086e-16)
(162.473 -34.3922 0)
(160.659 -33.9744 5.4892e-16)
(158.678 -33.5103 0)
(156.753 -33.1069 5.96753e-16)
(154.766 -32.6479 6.13005e-16)
(153.022 -32.3445 -6.19986e-16)
(151.306 -31.9808 -6.1386e-16)
(150.125 -31.8699 5.95737e-16)
(149.007 -31.6408 -5.72081e-16)
(148.503 -31.7169 5.51953e-16)
(147.678 -31.4531 5.39727e-16)
(147.444 -31.5964 0)
(146.458 -31.1349 0)
(146.373 -31.4225 -5.50612e-16)
(145.081 -30.6885 0)
(145.203 -31.3581 0)
(143.957 -30.2171 6.01195e-16)
(103.108 18.9159 0)
(120.876 30.132 -1.76175e-15)
(127.169 32.3469 0)
(131.247 35.394 0)
(134.917 37.1608 0)
(137.862 38.4764 0)
(140.423 39.5603 2.25559e-15)
(142.761 40.5536 0)
(144.861 41.4273 8.62834e-20)
(146.722 42.2507 0)
(148.336 42.9879 0)
(149.695 43.664 0)
(150.822 44.2472 1.21906e-15)
(151.732 44.7726 -1.24921e-15)
(152.495 45.208 1.28067e-15)
(153.129 45.6159 1.31179e-15)
(153.752 45.9711 0)
(154.376 46.3386 0)
(155.113 46.6777 0)
(155.931 47.0922 1.42629e-15)
(156.957 47.4889 -1.45689e-15)
(158.083 48.0143 -2.98073e-15)
(159.499 48.5247 3.05546e-15)
(161.019 49.1906 1.56873e-15)
(162.895 49.8156 -3.22827e-15)
(164.853 50.6638 0)
(167.278 51.4158 3.43009e-15)
(169.722 52.4822 -1.76891e-15)
(172.808 53.3855 -1.82701e-15)
(175.807 54.7042 0)
(179.673 55.769 -1.94574e-15)
(183.287 57.4222 0)
(188.135 58.6692 2.06612e-15)
(192.441 60.7264 2.11688e-15)
(198.512 62.1615 0)
(203.565 64.7338 0)
(211.212 66.388 2.27151e-15)
(217.073 69.5905 0)
(226.752 71.5057 2.33124e-15)
(233.483 75.5266 -2.33258e-15)
(245.9 77.7576 -4.66597e-15)
(253.535 82.8029 2.27075e-15)
(269.653 85.4881 -2.22729e-15)
(278.052 91.7999 2.02488e-15)
(299.041 95.1827 -1.91052e-15)
(307.587 102.742 -1.45243e-15)
(334.6 107.225 1.24604e-15)
(342.518 115.576 0)
(377.478 121.93 0)
(385.016 130.334 6.36696e-17)
(438.497 142.651 0)
(447.327 148.662 3.58044e-16)
(582.349 196.637 5.44229e-17)
(677.469 -6.13765 0)
(543.647 -103.782 0)
(473.609 -93.0267 4.02088e-16)
(411.02 -85.383 2.06723e-17)
(378.935 -76.8633 0)
(340.478 -71.6708 7.8256e-17)
(324.427 -66.5308 -2.52334e-17)
(299.699 -63.1722 -2.14458e-16)
(288.748 -59.4256 -5.26152e-17)
(270.115 -56.7792 1.29985e-16)
(260.627 -53.7479 0)
(245.85 -51.5371 0)
(237.338 -49.045 -1.40218e-16)
(225.375 -47.1352 1.71366e-16)
(217.627 -45.0431 -1.70589e-16)
(207.816 -43.3834 -1.93319e-16)
(200.997 -41.6904 -1.98018e-16)
(193.279 -40.3889 2.16541e-16)
(187.982 -39.1874 -4.51912e-16)
(182.749 -38.381 -2.43926e-16)
(179.474 -37.725 2.58713e-16)
(176.582 -37.3566 0)
(174.926 -37.0519 0)
(173.394 -36.8583 0)
(172.353 -36.6167 3.49929e-16)
(171.124 -36.3814 0)
(169.914 -36.0693 0)
(168.414 -35.7125 4.33346e-16)
(166.831 -35.3159 4.61068e-16)
(165.002 -34.8751 0)
(163.133 -34.4426 0)
(161.106 -33.966 0)
(159.141 -33.5537 -1.11558e-15)
(157.12 -33.0881 -5.72191e-16)
(155.349 -32.7832 1.15516e-15)
(153.618 -32.4213 0)
(152.419 -32.3164 5.51448e-16)
(151.276 -32.088 5.27948e-16)
(150.714 -32.1591 0)
(149.816 -31.879 0)
(149.486 -32.0052 0)
(148.417 -31.5203 0)
(148.237 -31.7941 0)
(146.881 -31.0356 0)
(146.932 -31.7094 0)
(145.605 -30.5261 5.52386e-16)
(102.99 18.2902 0)
(120.054 29.3709 1.5274e-15)
(126.223 31.8335 0)
(130.367 34.9705 8.9172e-16)
(134.056 36.7722 -9.40005e-16)
(137.034 38.1217 0)
(139.642 39.2322 -9.28623e-20)
(142.036 40.2525 0)
(144.198 41.1543 7.72379e-20)
(146.122 42.0067 -1.02806e-15)
(147.794 42.7712 -1.04447e-15)
(149.202 43.4724 0)
(150.37 44.0765 1.08832e-15)
(151.312 44.619 0)
(152.1 45.067 -1.13976e-15)
(152.754 45.4839 -1.16501e-15)
(153.394 45.8441 -1.18901e-15)