/*--------------------------------*- C++ -*----------------------------------*\
| =========                 |                                                 |
| \\      /  F ield         | OpenFOAM: The Open Source CFD Toolbox           |
|  \\    /   O peration     | Version:  2412                                  |
|   \\  /    A nd           | Website:  www.openfoam.com                      |
|    \\/     M anipulation  |                                                 |
\*---------------------------------------------------------------------------*/
FoamFile
{
    version     2.0;
    format      ascii;
    arch        "LSB;label=32;scalar=64";
    class       volScalarField;
    location    "0.5";
    object      k;
}
// * * * * * * * * * * * * * * * * * * * * * * * * * * * * * * * * * * * * * //

dimensions      [0 2 -2 0 0 0 0];

internalField   nonuniform List<scalar> 
13156
(
249.451
262.07
214.684
184.245
169.824
162.834
159.326
157.561
156.786
156.492
156.424
156.346
156.25
156.101
156.04
156.043
156.305
156.705
157.451
158.34
159.679
161.141
163.252
165.445
168.526
171.618
175.969
180.149
186.184
191.656
199.714
206.795
217.502
226.563
240.843
252.173
271.416
285.27
311.548
328.127
364.887
383.782
436.336
456.129
535.503
564.273
693.357
735.9
919.255
967.317
1266.29
1335.97
2320.13
2537.96
1814.08
1387.16
1172.3
1040.85
949.011
873.482
808.129
747.519
696.565
651.2
618.229
590.583
572.263
552.036
531.938
505.87
478.461
449.417
422.086
396.522
373.814
353.556
335.806
320.241
306.879
296.057
288.669
285.869
287.343
291.144
293.892
294.222
291.155
286.084
278.783
271.279
262.514
254.756
245.832
238.793
229.945
224.115
215.035
210.832
201.398
854.114
640.53
323.514
191.43
135.984
112.329
103.936
103.702
107.574
113.283
119.293
124.91
129.612
133.373
136.082
138.077
139.314
140.318
140.93
141.709
142.268
143.309
144.088
145.691
146.939
149.404
151.283
154.949
157.553
162.816
166.67
174.107
179.446
189.796
196.714
211.03
219.614
239.644
249.969
278.357
290.301
331.765
345.936
410.406
439.865
554.551
615.171
762.054
797.822
963.491
1006.29
1219.48
1238.51
2317.22
2717.61
2174.78
1745.45
1470.63
1327.95
1198.95
1116.79
1028.64
970.236
909.937
878.502
846.937
832.384
801.982
768.557
716.798
664.529
608.784
559.946
515.232
478.251
446.071
419.703
397.305
379.73
367.242
362.145
365.602
375.944
387.305
394.021
393.966
387.585
377.071
363.793
349.675
334.831
320.744
306.66
293.877
281.648
270.455
260.401
250.805
242.022
195.045
262.175
170.583
120.333
96.3314
86.876
84.8507
86.1623
88.8025
91.8396
94.9204
97.8855
100.685
103.253
105.545
107.511
109.132
110.394
111.379
112.113
112.73
113.265
113.861
114.506
115.415
116.49
118.006
119.778
122.166
124.816
128.206
132.086
136.606
142.141
148.037
155.794
163.284
174.073
183.457
198.629
210.279
232.443
248.542
286.357
328.929
416.626
509.371
613.774
685.294
773.516
840.16
983.6
980.075
1341.14
2305.18
2192.42
1911.04
1604.04
1471.65
1313.27
1241.86
1138.14
1089.78
1023.72
1002.14
971.577
961.623
927.709
885.734
821.621
754.837
685.49
624.286
569.471
524.063
485.326
453.703
427.437
407.232
393.814
390.015
397.361
413.338
430.252
440.988
442.849
436.556
424.642
409.092
392.034
374.079
356.633
339.303
323.332
307.423
293.653
279.209
268.024
254.16
76.2347
104.83
99.9588
96.0876
94.4782
94.549
95.3434
96.2753
97.1436
97.8092
98.333
98.7703
99.2394
99.7628
100.358
100.944
101.468
101.811
101.979
101.914
101.702
101.347
100.977
100.598
100.368
100.288
100.497
101.01
101.91
103.25
104.942
107.36
109.911
113.691
117.229
122.827
127.441
135.471
141.271
152.755
159.996
177.046
188.492
220.554
265.096
352.114
457.711
558.886
647.911
720.403
795.932
921.069
977.392
1014.79
1914.14
2144.63
1994.35
1706.46
1572.49
1408.38
1334.08
1227.97
1179.2
1114.13
1094.79
1066.88
1056.66
1019.65
969.813
896.469
819.248
740.553
670.853
609.182
557.982
514.712
479.39
450.376
428.299
414.279
411.558
421.882
441.981
462.868
476.467
479.782
473.679
460.944
443.912
424.908
404.808
385.063
365.466
347.227
329.177
313.224
296.776
283.549
268.153
64.9677
82.1436
95.9595
103.909
107.985
109.698
110.133
109.885
109.316
108.519
107.639
106.749
105.974
105.333
104.847
104.419
103.997
103.432
102.716
101.758
100.637
99.3284
97.968
96.544
95.217
93.9851
92.9729
92.2251
91.7653
91.7552
91.9732
92.9307
93.8804
96.035
97.7826
101.514
104.074
109.912
113.283
122.099
126.497
140.281
149.297
179.035
228.59
318.548
437.616
542.973
647.661
718.839
802.726
922.443
1032.97
960.857
1615.53
2045.01
2021.5
1777.13
1646.76
1484.96
1407.38
1302.05
1251.81
1188.9
1170.42
1144.71
1132.87
1092.35
1035.26
954.154
868.617
782.787
706.723
639.993
584.521
537.895
499.813
468.748
445.31
430.986
429.373
442.336
465.861
489.899
505.693
510.095
504.11
490.733
472.547
452.038
430.265
408.734
387.365
367.351
347.67
330.012
312.146
297.28
280.909
66.7654
88.7646
105.276
114.409
119.79
122.139
122.47
121.631
120.259
118.638
117
115.444
114.079
112.898
111.89
110.927
109.943
108.777
107.423
105.784
103.951
101.884
99.7428
97.4873
95.3083
93.1585
91.2118
89.4394
87.9473
86.786
85.8851
85.5424
85.2914
85.9616
86.411
88.402
89.5513
93.3222
95.1644
101.497
104.365
115.293
124.189
152.917
211.114
305.475
437.955
549.069
665.525
739.418
829.353
949.568
1098.17
1003.68
1428.51
1924.04
2008.27
1820.35
1700.77
1546.24
1467.13
1364.06
1312.78
1252.38
1234.46
1210.33
1196.14
1151.71
1087.76
999.836
907.407
815.936
734.965
664.411
605.715
556.552
516.371
483.75
459.338
444.967
444.57
460.044
486.611
513.292
530.829
536.039
530.076
516.122
496.953
475.187
452.019
429.008
406.167
384.681
363.651
344.601
325.584
309.397
292.219
71.6385
97.4067
113.88
123.002
128.885
131.703
132.2
131.203
129.466
127.418
125.381
123.493
121.86
120.447
119.205
117.972
116.663
115.109
113.31
111.175
108.808
106.171
103.44
100.563
97.7515
94.9269
92.3017
89.7825
87.5544
85.545
83.8493
82.5239
81.4232
80.9347
80.4757
81.0565
81.2499
83.2772
84.1684
88.3546
90.5422
99.1328
109.644
138.919
207.316
307.374
450.722
567.494
691.663
769.234
863.036
986.384
1162.06
1072.63
1334.98
1807.61
1969.25
1841.48
1738.65
1594.99
1516.39
1416.57
1364.94
1307.19
1289.73
1266.59
1249.49
1200.8
1130.3
1036.31
938.102
842.148
757.398
683.965
622.843
571.763
529.979
496.183
471.099
456.903
457.849
475.789
505.151
534.111
553.054
558.846
552.812
538.304
518.254
495.388
471.01
446.723
422.616
399.866
377.675
357.447
337.446
320.158
302.268
75.5948
104.551
120.751
129.79
135.972
139.164
139.919
138.985
137.146
134.924
132.713
130.696
128.974
127.494
126.166
124.801
123.292
121.471
119.34
116.825
114.04
110.958
107.764
104.408
101.111
97.7803
94.6484
91.5857
88.8244
86.2113
83.9514
81.9321
80.2386
78.9286
77.8467
77.4114
76.97
77.7044
78.0261
80.594
82.6509
89.6968
102.945
134.462
212.41
318.831
470.209
592.093
721.173
802.394
898.645
1026.01
1222.23
1144.51
1303.76
1710.95
1917.5
1846.14
1763.78
1633.51
1557.24
1461.4
1410.09
1355.05
1337.94
1315.22
1294.73
1241.48
1164.74
1065.34
962.326
862.866
775.265
699.719
636.808
584.299
541.301
506.628
481.112
467.282
469.693
490.086
522.058
553.008
573.083
579.27
573.079
558.019
537.156
513.301
487.849
462.434
437.212
413.353
390.14
368.89
348.026
329.794
311.266
78.84
110.254
126.176
135.193
141.613
145.107
146.13
145.358
143.569
141.337
139.107
137.096
135.403
133.956
132.629
131.207
129.567
127.547
125.152
122.328
119.197
115.749
112.175
108.432
104.742
101.013
97.4825
94.0063
90.8387
87.783
85.1055
82.5937
80.4739
78.595
77.0782
75.9501
75.0858
74.9435
74.9414
76.4434
78.7202
85.1154
101.609
136.609
222.575
335.488
492.941
619.385
751.687
836.25
934.096
1065.65
1278.36
1212.98
1308.47
1639.62
1863.39
1839.77
1779.2
1663.75
1591.23
1499.91
1449.46
1397.11
1380.21
1357.35
1333.06
1275.04
1192.37
1088.22
981.26
879.147
789.49
712.47
648.287
594.74
550.837
515.523
489.771
476.463
480.446
503.282
537.702
570.396
591.372
597.795
591.373
575.761
554.134
529.374
502.95
476.523
450.306
425.458
401.335
379.182
357.546
338.496
319.392
81.4335
114.73
130.456
139.533
146.173
149.919
151.189
150.618
148.963
146.828
144.688
142.78
141.2
139.853
138.582
137.15
135.422
133.242
130.627
127.54
124.113
120.352
116.453
112.383
108.362
104.304
100.445
96.6383
93.1447
89.7484
86.7451
83.8697
81.4274
79.1457
77.3116
75.7138
74.5595
73.8494
73.6779
74.5672
77.2832
83.8045
103.606
142.691
235.343
354.634
517.014
647.545
782.066
869.612
968.53
1104.15
1330.62
1276.72
1332.16
1592.82
1813.99
1827.12
1787.58
1687.37
1619.6
1533.16
1483.96
1434.23
1417.33
1393.81
1365.34
1302.42
1214.19
1105.92
995.824
891.824
800.795
722.837
657.809
603.538
558.973
523.204
497.372
484.715
490.357
515.613
552.325
586.544
608.222
614.749
608.034
591.866
569.515
543.919
516.609
489.265
462.15
436.414
411.472
388.515
366.184
346.413
326.79
83.4343
118.178
133.809
143.029
149.891
153.854
155.345
154.982
153.509
151.54
149.566
147.834
146.428
145.23
144.052
142.64
140.851
138.54
135.734
132.416
128.728
124.693
120.508
116.154
111.846
107.508
103.369
99.2863
95.5201
91.8494
88.5801
85.4235
82.725
80.1464
78.0691
76.1456
74.7848
73.7149
73.4734
74.077
77.3738
84.5835
107.544
150.866
249.335
374.798
541.423
675.638
811.749
901.946
1001.59
1141.02
1379.28
1335.77
1365.31
1566.69
1773.2
1811.98
1791.2
1705.82
1643.36
1561.95
1514.29
1467.03
1449.89
1425.21
1392.23
1324.37
1230.99
1119.24
1006.77
901.571
809.766
731.32
665.791
611.045
566.01
529.932
504.142
492.239
499.602
527.237
566.086
601.626
623.837
630.355
623.299
606.576
583.538
557.165
529.041
500.861
472.932
446.393
420.712
397.032
374.075
353.663
333.571
84.9169
120.76
136.396
145.837
152.93
157.086
158.774
158.615
157.347
155.588
153.835
152.332
151.145
150.132
149.074
147.702
145.87
143.448
140.472
136.948
133.026
128.746
124.307
119.701
115.14
110.557
106.173
101.855
97.8541
93.9543
90.4602
87.077
84.167
81.3601
79.0884
76.9321
75.42
74.1265
73.8838
74.4278
78.403
86.663
112.57
160.071
263.823
395.218
565.629
703.179
840.457
933.01
1033.15
1176.05
1424.55
1390.52
1402.79
1556.54
1742.45
1797.08
1791.93
1720.3
1663.34
1586.96
1540.98
1496
1478.34
1452.01
1414.3
1341.53
1243.46
1128.86
1014.73
908.953
816.883
738.318
672.565
617.539
572.183
535.907
510.255
499.183
508.302
538.254
579.081
615.758
638.353
644.773
637.338
620.066
596.375
569.279
540.407
511.463
482.795
455.527
429.177
404.846
381.324
360.337
339.823
85.9547
122.608
138.335
148.066
155.404
159.74
161.603
161.638
160.585
159.065
157.571
156.336
155.403
154.599
153.679
152.362
150.5
147.981
144.852
141.142
137.008
132.507
127.84
123.01
118.222
113.422
108.821
104.297
100.09
95.9944
92.3058
88.7344
85.6443
82.656
80.2243
77.8969
76.2722
74.8468
74.655
75.2972
80.0225
89.5474
118.192
169.739
278.42
415.487
589.33
729.905
868.044
962.699
1063.15
1209.17
1466.65
1441.35
1441.86
1558.11
1721.5
1784.15
1791.17
1731.79
1680.22
1608.73
1564.47
1521.52
1503.03
1474.63
1432
1354.45
1252.17
1135.36
1020.25
914.44
822.538
744.157
678.396
623.238
577.671
541.283
515.841
505.654
516.54
548.725
591.367
629.011
651.864
658.113
650.275
632.465
608.156
580.387
550.829
521.186
491.845
463.916
436.961
412.041
388.01
366.507
345.614
86.6129
123.829
139.721
149.801
157.397
161.905
163.927
164.145
163.309
162.046
160.837
159.899
159.242
158.667
157.897
156.643
154.762
152.157
148.889
145.009
140.683
135.982
131.107
126.075
121.084
116.09
111.295
106.588
102.2
97.9334
94.0739
90.3427
87.0965
83.9605
81.3943
78.9391
77.2314
75.7387
75.6412
76.4961
82.0254
92.9326
124.128
179.568
292.91
435.379
612.344
755.668
894.428
990.967
1091.58
1240.35
1505.7
1488.62
1481.02
1567.92
1709.23
1774.12
1789.96
1741.1
1694.55
1627.7
1585.1
1543.91
1524.28
1493.41
1445.75
1363.6
1257.66
1139.26
1023.79
918.429
827.057
749.097
683.492
628.31
582.615
546.176
520.994
511.726
524.365
558.682
602.975
641.428
664.431
670.455
662.201
643.867
618.978
590.587
560.398
530.118
500.167
471.638
444.138
418.685
394.198
372.23
350.999
86.9487
124.512
140.627
151.106
158.974
163.649
165.819
166.207
165.589
164.593
163.685
163.062
162.7
162.364
161.751
160.568
158.673
155.991
152.597
148.563
144.06
139.178
134.115
128.9
123.724
118.557
113.588
108.72
104.168
99.7521
95.741
91.8723
88.4892
85.2309
82.5506
79.9996
78.2334
76.7218
76.7571
77.9121
84.2857
96.6298
130.212
189.39
307.158
454.753
634.555
780.376
919.564
1017.8
1118.46
1269.59
1541.84
1532.61
1519.46
1583.36
1704.18
1767.35
1788.96
1748.81
1706.77
1644.21
1603.16
1563.41
1542.32
1508.63
1455.92
1369.44
1260.39
1141.02
1025.75
921.251
830.7
753.342
688.013
632.886
587.118
550.672
525.783
517.45
531.805
568.134
613.913
653.033
676.097
681.854
673.181
654.346
628.915
599.95
569.187
538.327
507.825
478.753
450.762
424.83
399.935
377.548
356.017
87.0119
124.736
141.118
152.033
160.185
165.026
167.333
167.883
167.478
166.754
166.159
165.864
165.806
165.715
165.265
164.154
162.251
159.499
155.989
151.813
147.15
142.102
136.869
131.489
126.148
120.825
115.699
110.686
105.988
101.44
97.2941
93.3063
89.8026
86.4422
83.665
81.0435
79.2401
77.7487
77.9525
79.4773
86.7234
100.519
136.343
199.106
321.072
473.511
655.877
803.968
943.421
1043.18
1143.78
1296.9
1575.14
1573.55
1556.7
1602.51
1704.89
1763.76
1788.57
1755.39
1717.23
1658.57
1618.87
1580.24
1557.37
1520.58
1462.85
1372.35
1260.77
1141.01
1026.46
923.177
833.677
757.054
692.082
637.059
591.258
554.831
530.256
522.853
538.868
577.076
624.178
663.837
686.887
692.35
683.264
663.955
638.023
608.534
577.25
545.865
514.868
485.307
456.878
430.515
405.257
382.496
360.701
86.846
124.568
141.246
152.627
161.071
166.078
168.514
169.218
169.023
168.571
168.296
168.335
168.586
168.743
168.454
167.418
165.509
162.694
159.078
154.772
149.962
144.765
139.376
133.849
128.357
122.895
117.628
112.487
107.658
102.993
98.7266
94.6352
91.0252
87.5794
84.7205
82.0495
80.2287
78.7908
79.1972
81.1492
89.2855
104.521
142.453
208.65
334.583
491.581
676.246
826.402
965.976
1067.11
1167.56
1322.29
1605.69
1611.6
1592.48
1623.99
1710.04
1763.07
1788.98
1761.14
1726.21
1671
1632.42
1594.57
1569.63
1529.5
1466.86
1372.72
1259.19
1139.59
1026.2
924.428
836.151
760.351
695.789
640.899
595.086
558.696
534.442
527.951
545.55
585.493
633.759
673.839
696.817
701.972
692.485
672.735
646.345
616.38
584.629
552.773
521.334
491.337
462.517
435.77
410.194
387.098
365.071
86.4886
124.066
141.059
152.925
161.667
166.839
169.399
170.248
170.258
170.079
170.125
170.501
171.062
171.465
171.336
170.373
168.46
165.588
161.873
157.449
152.506
147.174
141.645
135.985
130.358
124.771
119.378
114.123
109.176
104.409
100.035
95.8538
92.1501
88.6338
85.707
83.0048
81.1856
79.8312
80.4731
82.9004
91.9344
108.58
148.496
217.973
347.634
508.902
695.611
847.641
987.213
1089.6
1189.8
1345.78
1633.53
1646.92
1626.62
1646.81
1718.51
1764.88
1790.23
1766.28
1733.9
1681.68
1643.96
1606.55
1579.27
1535.63
1468.24
1370.87
1255.98
1137.06
1025.23
925.178
838.246
763.322
699.195
644.454
598.641
562.294
538.357
532.746
551.837
593.363
642.639
683.037
705.896
710.736
700.871
680.714
653.911
623.522
591.356
559.082
527.253
496.867
467.706
440.617
414.765
391.371
369.145
85.9724
123.283
140.598
152.959
162.001
167.338
170.016
171.005
171.216
171.307
171.673
172.385
173.252
173.898
173.925
173.032
171.117
168.19
164.386
159.854
154.79
149.336
143.682
137.903
132.156
126.458
120.952
115.596
110.545
105.687
101.218
96.9593
93.1739
89.6002
86.6184
83.9019
82.103
80.86
81.7694
84.7122
94.6423
112.656
154.437
227.036
360.175
525.424
713.928
867.658
1007.12
1110.63
1210.52
1367.36
1658.73
1679.6
1659.04
1670.26
1729.38
1768.74
1792.25
1770.94
1740.45
1690.76
1653.62
1616.32
1586.45
1539.17
1467.28
1367.12
1251.43
1133.65
1023.71
925.56
840.05
766.027
702.343
647.753
601.943
565.639
542.008
537.233
557.71
600.66
650.798
691.422
714.127
718.657
708.439
687.916
660.747
629.983
597.453
564.812
532.644
501.919
472.461
445.073
418.984
395.328
372.935
85.3256
122.265
139.9
152.758
162.098
167.598
170.391
171.514
171.92
172.279
172.962
174.006
175.175
176.056
176.231
175.406
173.488
170.512
166.625
161.995
156.822
151.259
145.494
139.609
133.755
127.96
122.354
116.909
111.765
106.829
102.276
97.9508
94.0946
90.4756
87.4515
84.7366
82.9767
81.872
83.0796
86.5711
97.3874
116.719
160.248
235.804
372.162
541.101
731.159
886.429
1025.67
1130.2
1229.7
1387.05
1681.32
1709.75
1689.68
1693.81
1741.89
1774.21
1794.93
1775.18
1745.97
1698.36
1661.51
1623.99
1591.32
1540.34
1464.21
1361.72
1245.79
1129.58
1021.8
925.672
841.626
768.505
705.258
650.812
605.003
568.737
545.393
541.398
563.146
607.358
658.215
698.983
721.511
725.741
715.203
694.355
666.87
635.781
602.94
569.982
537.524
506.505
476.795
449.147
422.861
398.977
376.446
84.5726
121.052
138.997
152.346
161.98
167.641
170.544
171.797
172.395
173.015
174.012
175.381
176.843
177.95
178.268
177.505
175.585
172.563
168.6
163.881
158.61
152.951
147.086
141.109
135.161
129.28
123.586
118.064
112.839
107.835
103.208
98.8281
94.9116
91.2588
88.2046
85.5066
83.8049
82.8647
84.3998
88.4669
100.151
120.745
165.905
244.247
383.556
555.894
747.273
903.933
1042.87
1148.32
1247.36
1404.87
1701.34
1737.45
1718.52
1717.07
1755.45
1780.86
1798.11
1779.02
1750.54
1704.56
1667.7
1629.65
1594.01
1539.33
1459.28
1354.95
1239.29
1125.02
1019.61
925.583
843.01
770.777
707.95
653.638
607.823
571.587
548.506
545.227
568.119
613.43
664.87
705.711
728.044
731.993
721.171
700.043
672.291
640.928
607.828
574.603
541.902
510.634
480.716
452.847
426.4
402.32
379.683
83.7341
119.68
137.92
151.748
161.668
167.486
170.494
171.872
172.657
173.535
174.838
176.524
178.269
179.593
180.044
179.339
177.414
174.35
170.317
165.519
160.161
154.417
148.465
142.407
136.377
130.423
124.653
119.065
113.769
108.708
104.018
99.5917
95.625
91.9494
88.8774
86.2117
84.5875
83.8376
85.7277
90.3909
102.919
124.713
171.386
252.337
394.322
569.767
762.242
920.153
1058.71
1164.98
1263.49
1420.81
1718.85
1762.74
1745.54
1739.76
1769.57
1788.34
1801.63
1782.46
1754.18
1709.43
1672.27
1633.4
1594.65
1536.32
1452.7
1347
1232.1
1120.1
1017.23
925.336
844.223
772.849
710.42
656.228
610.399
574.182
551.336
548.701
572.604
618.849
670.744
711.595
733.725
737.415
726.349
704.989
677.019
645.434
612.125
578.682
545.786
514.313
484.227
456.175
429.604
405.36
382.644
82.8279
118.179
136.695
150.983
161.178
167.147
170.256
171.756
172.723
173.854
175.455
177.449
179.466
180.995
181.57
180.916
178.986
175.881
171.786
166.917
161.482
155.664
149.637
143.511
137.41
131.394
125.558
119.914
114.558
109.449
104.705
100.243
96.2356
92.5479
89.4704
86.8522
85.3257
84.7915
87.062
92.3356
105.677
128.606
176.674
260.048
404.429
582.69
776.043
935.074
1073.17
1180.17
1278.09
1434.88
1733.88
1785.7
1770.72
1761.66
1783.87
1796.32
1805.31
1785.47
1756.94
1713.01
1675.29
1635.34
1593.37
1531.48
1444.67
1338.09
1224.39
1114.93
1014.7
924.953
845.268
774.717
712.661
658.575
612.724
576.514
553.869
551.8
576.575
623.591
675.819
716.624
738.549
742.009
730.74
709.196
681.06
649.305
615.837
582.223
549.179
517.543
487.33
459.131
432.471
408.093
385.328
81.8694
116.577
135.345
150.071
160.527
166.64
169.846
171.462
172.607
173.984
175.876
178.166
180.442
182.164
182.853
182.245
180.308
177.165
173.013
168.081
162.579
156.698
150.607
144.423
138.263
132.196
126.305
120.615
115.208
110.06
105.271
100.782
96.7446
93.0552
89.9849
87.4298
86.0215
85.7281
88.4017
94.2938
108.414
132.41
181.752
267.358
413.848
594.636
788.658
948.685
1086.25
1193.9
1291.17
1447.11
1746.48
1806.38
1794.09
1782.59
1798.04
1804.5
1808.99
1787.99
1758.82
1715.36
1676.8
1635.53
1590.28
1524.97
1435.37
1328.36
1216.27
1109.57
1012.06
924.44
846.139
776.37
714.66
660.667
614.786
578.569
556.091
554.505
580.009
627.634
680.079
720.79
742.513
745.773
734.346
712.668
684.418
652.543
618.966
585.23
552.081
520.325
490.024
461.713
434.999
410.516
387.73
80.8714
114.898
133.892
149.029
159.729
165.978
169.275
171.004
172.323
173.939
176.112
178.687
181.208
183.109
183.902
183.334
181.388
178.21
174.006
169.019
163.46
157.525
151.38
145.15
138.941
132.832
126.896
121.17
115.722
110.544
105.719
101.213
97.1533
93.4729
90.4225
87.9465
86.6775
86.6494
89.7458
96.2589
111.117
136.111
186.605
274.244
422.557
605.584
800.071
960.977
1097.95
1206.16
1302.73
1457.5
1756.69
1824.82
1815.64
1802.44
1811.82
1812.64
1812.53
1789.98
1759.82
1716.5
1676.86
1634.05
1585.5
1516.93
1424.96
1317.97
1207.84
1104.07
1009.32
923.79
846.82
777.792
716.403
662.489
616.572
580.336
557.986
556.797
582.884
630.959
683.511
724.088
745.615
748.709
737.169
715.407
687.095
655.15
621.513
587.701
554.493
522.656
492.307
463.918
437.183
412.623
389.845
79.845
113.162
132.355
147.873
158.799
165.174
168.555
170.392
171.88
173.728
176.173
179.019
181.772
183.839
184.724
184.189
182.233
179.021
174.771
169.737
164.129
158.152
151.964
145.697
139.449
133.309
127.337
121.584
116.102
110.903
106.051
101.535
97.4637
93.8028
90.7855
88.4051
87.2968
87.5577
91.0934
98.2242
113.778
139.698
191.22
280.69
430.534
615.515
810.272
971.945
1108.27
1216.96
1312.76
1466.06
1764.56
1841.07
1835.38
1821.09
1825.02
1820.54
1815.77
1791.39
1759.94
1716.45
1675.51
1630.97
1579.13
1507.51
1413.57
1307.03
1199.18
1098.47
1006.49
922.985
847.289
778.96
717.869
664.025
618.066
581.799
559.541
558.657
585.181
633.55
686.106
726.51
747.852
750.816
739.21
717.414
689.091
657.126
623.479
589.636
556.412
524.534
494.173
465.74
439.016
414.407
391.664
78.7995
111.387
130.75
146.616
157.749
164.239
167.697
169.638
171.288
173.362
176.067
179.172
182.141
184.36
185.328
184.819
182.851
179.608
175.316
170.242
164.594
158.583
152.361
146.068
139.791
133.628
127.63
121.858
116.351
111.139
106.268
101.751
97.6778
94.047
91.0767
88.8088
87.8831
88.4556
92.4432
100.183
116.387
143.16
195.584
286.678
437.765
624.416
819.255
981.586
1117.2
1226.3
1321.29
1472.82
1770.14
1855.19
1853.33
1838.47
1837.48
1828.01
1818.59
1792.15
1759.16
1715.24
1672.79
1626.37
1571.27
1496.83
1401.34
1295.64
1190.34
1092.78
1003.53
922.003
847.521
779.853
719.04
665.26
619.256
582.946
560.739
560.071
586.885
635.396
687.857
728.056
749.226
752.095
740.47
718.691
690.407
658.473
624.862
591.033
557.836
525.956
495.62
467.176
440.494
415.863
393.18
77.7427
109.589
129.092
145.274
156.591
163.184
166.712
168.75
170.558
172.849
175.804
179.153
182.324
184.68
185.719
185.231
183.249
179.976
175.648
170.54
164.861
158.825
152.579
146.268
139.971
133.795
127.778
121.996
116.473
111.256
106.374
101.864
97.798
94.2083
91.2992
89.1613
88.4402
89.3453
93.7935
102.129
118.935
146.488
199.688
292.196
444.238
632.279
827.017
989.901
1124.76
1234.18
1328.3
1477.79
1773.5
1867.21
1869.51
1854.52
1849.05
1834.91
1820.89
1792.21
1757.47
1712.88
1668.74
1620.32
1562.03
1485.01
1388.38
1283.88
1181.34
1087
1000.44
920.815
847.489
780.447
719.897
666.176
620.126
583.763
561.568
561.023
587.983
636.487
688.76
728.724
749.736
752.547
740.951
719.238
691.045
659.189
625.662
591.89
558.761
526.917
496.641
468.217
441.609
416.982
394.385
76.6813
107.78
127.395
143.856
155.335
162.018
165.607
167.738
169.698
172.197
175.39
178.969
182.326
184.806
185.906
185.432
183.433
180.133
175.773
170.639
164.936
158.884
152.623
146.302
139.995
133.813
127.787
122.001
116.47
111.255
106.37
101.876
97.8268
94.2895
91.4567
89.4668
88.972
90.2292
95.1425
104.057
121.415
149.674
203.522
297.233
449.943
639.098
833.558
996.893
1130.95
1240.61
1333.82
1481.01
1774.69
1877.19
1883.95
1869.19
1859.63
1841.11
1822.56
1791.53
1754.86
1709.38
1663.4
1612.86
1551.48
1472.16
1374.77
1271.81
1172.22
1081.11
997.185
919.39
847.165
780.718
720.419
666.757
620.663
584.238
562.017
561.504
588.464
636.818
688.814
728.516
749.386
752.177
740.655
719.057
691.003
659.274
625.877
592.206
559.184
527.413
497.232
468.86
442.354
417.756
395.272
75.6208
105.971
125.669
142.375
153.993
160.75
164.393
166.609
168.715
171.414
174.832
178.626
182.154
184.744
185.895
185.429
183.412
180.086
175.699
170.545
164.826
158.765
152.497
146.176
139.866
133.686
127.658
121.878
116.345
111.14
106.26
101.79
97.7672
94.2941
91.5531
89.7298
89.4828
91.109
96.4878
105.959
123.819
152.71
207.08
301.781
454.877
644.873
838.884
1002.57
1135.77
1245.61
1337.86
1482.48
1773.77
1885.18
1896.65
1882.44
1869.13
1846.49
1823.52
1790.07
1751.33
1704.77
1656.8
1604.08
1539.72
1458.37
1360.61
1259.47
1162.97
1075.09
993.732
917.695
846.521
780.644
720.588
666.989
620.854
584.36
562.075
561.503
588.324
636.389
688.021
727.436
748.18
750.987
739.584
718.15
690.285
658.729
625.506
591.977
559.102
527.44
497.388
469.097
442.723
418.18
395.832
74.5658
104.172
123.927
140.841
152.572
159.391
163.077
165.373
167.616
170.506
174.138
178.132
181.815
184.502
185.692
185.228
183.192
179.842
175.432
170.264
164.536
158.475
152.208
145.894
139.589
133.42
127.397
121.628
116.102
110.913
106.046
101.608
97.6226
94.2257
91.5928
89.9549
89.9765
91.9864
97.8266
107.829
126.142
155.589
210.355
305.833
459.039
649.606
843.003
1006.94
1139.24
1249.18
1340.42
1482.25
1770.82
1891.23
1907.67
1894.26
1877.49
1850.98
1823.7
1787.78
1746.86
1699.06
1648.99
1594.04
1526.84
1443.73
1345.96
1246.91
1153.6
1068.92
990.05
915.699
845.529
780.202
720.388
666.858
620.689
584.119
561.734
561.015
587.559
635.201
686.388
725.492
746.125
748.983
737.745
716.522
688.891
657.555
624.549
591.203
558.514
526.995
497.105
468.924
442.709
418.245
396.058
73.5201
102.39
122.175
139.263
151.084
157.947
161.667
164.035
166.41
169.48
173.312
177.491
181.314
184.084
185.305
184.838
182.78
179.407
174.98
169.802
164.072
158.018
151.76
145.461
139.168
133.017
127.006
121.257
115.743
110.578
105.731
101.334
97.3965
94.0885
91.5808
90.1475
90.4572
92.8623
99.156
109.663
128.376
158.307
213.343
309.388
462.431
653.305
845.926
1010.02
1141.38
1251.34
1341.53
1480.35
1765.91
1895.41
1917.01
1904.63
1884.65
1854.51
1823.04
1784.63
1741.44
1692.27
1640
1582.8
1512.91
1428.33
1330.87
1234.13
1144.09
1062.56
986.103
913.371
844.165
779.374
719.803
666.353
620.157
583.508
560.987
560.036
586.172
633.259
683.922
722.693
743.229
746.174
735.142
714.175
686.826
655.753
623.007
589.884
557.417
526.076
496.379
468.337
442.308
417.946
395.944
72.4869
100.631
120.423
137.649
149.535
156.428
160.171
162.604
165.101
168.342
172.361
176.711
180.658
183.498
184.74
184.263
182.184
178.79
174.348
169.168
163.442
157.402
151.159
144.882
138.609
132.482
126.491
120.767
115.273
110.138
105.32
100.972
97.0928
93.8872
91.5222
90.3126
90.9287
93.7373
100.473
111.454
130.518
160.858
216.043
312.445
465.059
655.979
847.668
1011.82
1142.19
1252.11
1341.21
1476.8
1759.11
1897.77
1924.72
1913.54
1890.56
1857
1821.49
1780.6
1735.08
1684.42
1629.88
1570.41
1498.01
1412.23
1315.4
1221.17
1134.43
1056
981.859
910.682
842.406
778.143
718.82
665.462
619.251
582.52
559.832
558.565
584.165
630.573
680.635
719.051
739.504
742.567
731.783
711.118
684.093
653.327
620.882
588.021
555.812
524.681
495.207
467.333
441.515
417.279
395.484
71.4688
98.902
118.676
136.007
147.934
154.841
158.597
161.086
163.698
167.098
171.291
175.795
179.853
182.749
184.003
183.513
181.41
177.997
173.545
168.367
162.651
156.631
150.411
144.163
137.916
131.819
125.854
120.161
114.694
109.597
104.814
100.525
96.7161
93.6267
91.4228
90.4558
91.3943
94.6115
101.773
113.197
132.562
163.238
218.451
315.007
466.933
657.644
848.249
1012.36
1141.71
1251.5
1339.47
1471.65
1750.51
1898.37
1930.83
1920.99
1895.2
1858.43
1819.01
1775.68
1727.78
1675.52
1618.67
1556.95
1482.21
1395.5
1299.58
1208.01
1124.58
1049.19
977.285
907.606
840.233
776.492
717.428
664.177
617.964
581.15
558.265
556.605
581.546
627.156
676.543
714.579
734.962
738.175
727.678
707.355
680.699
650.281
618.177
585.614
553.698
522.81
493.589
465.908
440.327
416.239
394.672
70.4679
97.2053
116.94
134.344
146.289
153.193
156.951
159.488
162.205
165.754
170.107
174.751
178.904
181.844
183.102
182.593
180.465
177.035
172.576
167.405
161.706
155.713
149.521
143.307
137.093
131.033
125.1
119.445
114.011
108.958
104.219
99.997
96.2711
93.3125
91.2883
90.5824
91.8572
95.4843
103.054
114.887
134.504
165.446
220.57
317.077
468.066
658.316
847.689
1011.66
1139.95
1249.54
1336.35
1464.95
1740.19
1897.28
1935.39
1926.97
1898.55
1858.75
1815.58
1769.83
1719.54
1665.61
1606.4
1542.48
1465.57
1378.2
1283.43
1194.66
1114.55
1042.1
972.353
904.119
837.627
774.41
715.619
662.493
616.292
579.397
556.286
554.16
578.327
623.022
671.662
709.295
729.618
733.009
722.837
702.898
676.651
646.621
614.896
582.668
551.078
520.464
491.523
464.063
438.743
414.823
393.507
69.4859
95.5448
115.221
132.665
144.606
151.491
155.24
157.816
160.629
164.314
168.813
173.582
177.816
180.789
182.041
181.51
179.356
175.911
171.449
166.29
160.613
154.651
148.495
142.322
136.146
130.128
124.234
118.622
113.227
108.225
103.538
99.3933
95.763
92.9506
91.1249
90.6978
92.32
96.3548
104.31
116.519
136.34
167.478
222.4
318.663
468.472
658.017
846.014
1009.75
1136.93
1246.26
1331.86
1456.72
1728.24
1894.57
1938.42
1931.52
1900.59
1857.94
1811.17
1763.06
1710.37
1654.7
1593.14
1527.04
1448.17
1360.38
1267
1181.11
1104.28
1034.7
967.037
900.202
834.574
771.887
713.384
660.403
614.231
577.258
553.898
551.236
574.519
618.191
666.012
703.219
723.49
727.086
717.273
697.756
671.958
642.355
611.046
579.186
547.955
517.644
489.012
461.797
436.76
413.031
391.985
68.524
93.9229
113.521
130.978
142.891
149.742
153.471
156.077
158.976
162.786
167.417
172.295
176.596
179.59
180.829
180.27
178.09
174.632
170.17
165.028
159.378
153.454
147.338
141.211
135.079
129.109
123.259
117.696
112.347
107.402
102.777
98.7186
95.1977
92.5472
90.9392
90.807
92.7847
97.2214
105.54
118.09
138.068
169.334
223.944
319.773
468.171
656.771
843.25
1006.65
1132.69
1241.68
1326.05
1447.02
1714.76
1890.31
1939.98
1934.62
1901.32
1855.98
1805.78
1755.37
1700.28
1642.84
1578.91
1510.72
1430.05
1342.08
1250.28
1167.36
1093.78
1026.98
961.314
895.838
831.063
768.914
710.719
657.906
611.78
574.735
551.103
547.843
570.141
612.683
659.618
696.372
716.596
720.421
711
691.942
666.63
637.491
606.634
575.177
544.334
514.356
486.058
459.112
434.38
410.863
390.105
67.5834
92.3412
111.845
129.286
141.152
147.953
151.65
154.276
157.25
161.173
165.922
170.895
175.248
178.253
179.472
178.882
176.675
173.204
168.746
163.625
158.007
152.126
146.056
139.98
133.898
127.981