/*--------------------------------*- C++ -*----------------------------------*\
| =========                 |                                                 |
| \\      /  F ield         | OpenFOAM: The Open Source CFD Toolbox           |
|  \\    /   O peration     | Version:  2412                                  |
|   \\  /    A nd           | Website:  www.openfoam.com                      |
|    \\/     M anipulation  |                                                 |
\*---------------------------------------------------------------------------*/
FoamFile
{
    version     2.0;
    format      ascii;
    arch        "LSB;label=32;scalar=64";
    class       volScalarField;
    location    "0.5";
    object      p;
}
// * * * * * * * * * * * * * * * * * * * * * * * * * * * * * * * * * * * * * //

dimensions      [0 2 -2 0 0 0 0];

internalField   nonuniform List<scalar> 
13156
(
120743
112700
111712
111015
110165
109523
108995
108507
108109
107763
107487
107243
107041
106836
106646
106425
106208
105936
105678
105349
105046
104648
104298
103802
103402
102783
102324
101542
101026
100009
99450.7
98104.4
97528.4
95698.8
95174.5
92626.3
92288
88624.5
88750.5
83313.5
84414.5
76084.7
79236.7
66120.9
73584.2
52411.3
68007.7
33040.5
61275.4
2472.74
49167.1
-53496.9
16605.8
-275747
-33226.3
-68037.9
7170.3
-32269.7
16557.4
-7662.16
23970.2
11018.6
31629.3
25442.9
38954.7
36761.3
45862.9
45722.6
51771.3
52370.5
56358.8
57277.6
59997.4
61021
62946.4
63943.9
65369.7
66305.9
67426
68315.4
69281.6
70160.5
71047
71920.3
72711.4
73539.1
74202
74963.4
75481.7
76202.4
76562.2
77272.5
77464.3
78223.7
78211.3
79115.7
78807.4
80033.7
79217
118790
112129
111585
110986
110151
109511
108984
108498
108100
107756
107481
107238
107036
106833
106642
106421
106203
105932
105674
105344
105041
104642
104292
103796
103395
102776
102317
101534
101017
99999.5
99441.1
98093.7
97517.3
95686.4
95161.5
92611.8
92272.7
88607.6
88732.3
83293.5
84392.5
76061.3
79210
66094.3
73552.9
52382.6
67970.8
33007.6
61226.4
2427.15
49091
-53581.8
16558.3
-274590
-33089.6
-68170.6
7135.51
-32281.5
16539.1
-7673.01
23955.4
11008.2
31616.9
25433.1
38944
36752
45853
45713.7
51762.5
52362.8
56351.6
57271.2
59991.5
61015.5
62941.4
63939.3
65365.4
66301.7
67422.1
68311.5
69277.8
70156.7
71043.1
71916.4
72707.5
73535.3
74198.3
74960.1
75478.5
76199.5
76559.2
77270
77461.6
78221.6
78208.5
79114
78804.4
80032.4
79213.8
118438
112262
111629
110986
110141
109501
108976
108491
108094
107751
107477
107234
107033
106829
106639
106418
106200
105928
105670
105340
105037
104637
104287
103790
103390
102770
102311
101527
101010
99990.9
99432.6
98083.6
97507.4
95674.5
95149.9
92597.6
92258.9
88590.6
88715.6
83273.2
84372.1
76037.1
79184.9
66066.3
73522.6
52351.8
67932.2
32970.6
61171.5
2374.5
49003.3
-53684.8
16525.1
-273219
-32970.5
-68330.7
7100.38
-32298
16514.7
-7687.22
23935.9
10994.7
31600.6
25420.6
38929.9
36739.8
45839.7
45701.7
51750.7
52352.7
56342.3
57263.1
59984.4
61009.1
62935.8
63934
65360.7
66297.2
67418
68307.4
69273.7
70152.6
71038.9
71912.2
72703.2
73531.3
74194.3
74956.7
75474.9
76196.6
76556
77267.7
77458.5
78219.9
78205.2
79113.2
78800.5
80032.6
79209.3
118378
112353
111626
110966
110127
109491
108968
108484
108089
107746
107473
107231
107030
106826
106636
106414
106197
105924
105666
105336
105033
104633
104283
103785
103384
102764
102305
101520
101003
99982.9
99425
98074.1
97498.7
95663.4
95139.8
92584.3
92247.1
88574.9
88701.5
83254.3
84354.9
76014.6
79164
66040.4
73497.8
52323.3
67899.6
32936.8
61122.5
2326.53
48922.7
-53780.9
16495.1
-271924
-32833.2
-68476.4
7075.16
-32313
16494.6
-7700.07
23919.4
10982.6
31586.9
25409.5
38917.9
36728.9
45828.1
45690.8
51740.2
52343.4
56334
57255.7
59978.1
61003.2
62930.7
63929.2
65356.4
66293
67414.3
68303.7
69270.2
70149.2
71035.4
71908.7
72699.5
73527.8
74190.7
74953.8
75471.7
76194.1
76553
77265.8
77455.5
78218.5
78202
79112.8
78796.4
80033.6
79204.1
118048
112320
111604
110947
110116
109481
108959
108476
108082
107741
107468
107227
107027
106823
106633
106411
106193
105921
105662
105332
105029
104628
104278
103779
103379
102758
102299
101513
100997
99974.7
99417.6
98064.5
97490.2
95652
95130.2
92570.8
92235.9
88558.8
88688.4
83234.9
84339.2
75991.4
79145.1
66013.4
73475.3
52293.7
67869.1
32901.6
61074.9
2276.89
48842.5
-53880.2
16444.9
-270628
-32654.4
-68620.5
7055.12
-32327
16478.2
-7712.13
23905.6
10971.4
31575.4
25399.4
38907.8
36719
45817.9
45680.8
51730.8
52334.8
56326.5
57248.8
59972.3
60997.7
62926.1
63924.7
65352.5
66289.1
67410.8
68300.3
69267
70146.1
71032.3
71905.6
72696.3
73524.8
74187.5
74951.2
75468.7
76191.9
76550.2
77264
77452.6
78217.4
78198.7
79112.6
78792.2
80035
79198.6
117732
112293
111598
110926
110102
109470
108950
108467
108075
107735
107464
107223
107023
106820
106630
106408
106190
105917
105658
105327
105024
104623
104273
103774
103374
102751
102293
101505
100990
99966.2
99410
98054.4
97481.7
95640.2
95120.6
92556.8
92225
88542
88675.7
83214.7
84324.3
75967
79127.3
65984.6
73453.3
52261.6
67838.1
32863.5
61025.8
2223.28
48759.3
-53986.3
16382.2
-269308
-32450.7
-68768.7
7037.04
-32341
16463.4
-7724.34
23892.7
10960.2
31564.7
25389.3
38898.2
36709.1
45808.1
45670.9
51721.7
52326.3
56319.2
57242.1
59966.7
60992.3
62921.6
63920.3
65348.7
66285.3
67407.5
68296.9
69264
70143.2
71029.4
71902.8
72693.3
73522
74184.4
74948.7
75465.8
76189.7
76547.4
77262.4
77449.8
78216.3
78195.3
79112.5
78787.9
80036.6
79192.8
117467
112265
111594
110901
110088
109458
108940
108459
108068
107729
107459
107219
107020
106817
106627
106404
106186
105913
105654
105323
105020
104618
104268
103768
103368
102745
102287
101497
100983
99957.4
99402.2
98044.1
97473
95628.1
95111
92542.3
92214.2
88524.7
88663.3
83193.7
84309.8
75941.5
79110.1
65954.3
73431
52227.2
67806.1
32823
60975.7
2166.88
48674.5
-54096.2
16318.4
-267982
-32235.4
-68917.9
7020.5
-32355.3
16449.6
-7736.82
23880.4
10948.7
31554.2
25379
38888.6
36698.9
45798.3
45660.9
51712.7
52317.8
56312.1
57235.3
59961.1
60987
62917.2
63915.9
65344.9
66281.5
67404.2
68293.6
69261
70140.3
71026.7
71900.1
72690.4
73519.3
74181.5
74946.2
75462.9
76187.6
76544.6
77260.7
77446.8
78215.3
78191.9
79112.5
78783.5
80038.4
79186.6
117213
112230
111588
110876
110074
109447
108930
108450
108061
107723
107454
107215
107016
106813
106624
106401
106183
105909
105650
105318
105016
104613
104263
103762
103362
102738
102280
101490
100976
99948.4
99394.4
98033.4
97464.3
95615.5
95101.3
92527.3
92203.4
88506.8
88651
83172
84295.6
75915
79093.1
65922.4
73407.9
52190.6
67773.4
32780.8
60925.3
2108.95
48589.5
-54207.2
16257.4
-266660
-32013.1
-69065.5
7005.49
-32369.7
16436.8
-7749.51
23868.5
10937
31543.9
25368.6
38879.2
36688.6
45788.6
45650.7
51703.8
52309.4
56305.1
57228.6
59955.7
60981.6
62912.9
63911.5
65341.2
66277.7
67400.9
68290.4
69258.1
70137.6
71024.1
71897.6
72687.6
73516.6
74178.5
74943.9
75460.1
76185.6
76541.8
77259.2
77443.9
78214.3
78188.4
79112.6
78778.9
80040.4
79180.3
116965
112192
111580
110850
110059
109435
108919
108441
108054
107717
107449
107211
107013
106810
106621
106398
106179
105905
105646
105314
105011
104607
104258
103756
103357
102731
102274
101482
100969
99939.2
99386.5
98022.6
97455.5
95602.7
95091.5
92512
92192.5
88488.4
88638.7
83149.6
84281.5
75887.6
79075.7
65888.7
73384
52152.2
67740.5
32737.5
60875.1
2050.2
48504.9
-54317.5
16199.4
-265344
-31785.7
-69210.4
6991.93
-32384.4
16424.8
-7762.39
23857
10925.1
31533.9
25357.9
38869.8
36678.1
45778.8
45640.5
51695
52301
56298.2
57221.9
59950.4
60976.3
62908.6
63907.1
65337.5
66273.9
67397.7
68287.2
69255.3
70135
71021.6
71895.1
72684.9
73514.1
74175.7
74941.6
75457.3
76183.5
76539
77257.6
77440.9
78213.4
78184.9
79112.7
78774.3
80042.5
79173.7
116727
112154
111570
110824
110045
109423
108909
108432
108047
107711
107444
107206
107009
106807
106618
106394
106176
105901
105643
105310
105007
104602
104253
103750
103351
102724
102268
101474
100962
99930.1
99378.6
98011.7
97446.7
95589.8
95081.7
92496.4
92181.6
88469.6
88626.4
83126.6
84267.3
75859.1
79057.9
65853.2
73359.6
52112.5
67707.6
32693.5
60825.3
1991.11
48421.1
-54426.4
16144.7
-264034
-31554.8
-69352.4
6979.75
-32399.3
16413.7
-7775.47
23845.9
10913
31524
25347
38860.4
36667.3
45769
45630.3
51686.4
52292.6
56291.4
57215.3
59945.2
60971
62904.4
63902.8
65333.9
66270.1
67394.5
68284
69252.5
70132.5
71019.1
71892.7
72682.3
73511.6
74172.8
74939.3
75454.4
76181.5
76536.2
77256.1
77438
78212.5
78181.4
79112.9
78769.6
80044.7
79167
116501
112117
111560
110798
110030
109411
108899
108423
108039
107705
107440
107202
107006
106804
106615
106391
106173
105898
105639
105305
105002
104597
104248
103745
103346
102718
102262
101466
100955
99920.9
99370.8
98000.8
97437.9
95576.7
95071.9
92480.7
92170.7
88450.5
88614.1
83103.1
84253.1
75829.7
79039.5
65816.3
73335
52072
67675
32649.3
60776.1
1932.02
48338.1
-54533.2
16093.4
-262730
-31321.8
-69491.5
6968.86
-32414.4
16403.2
-7788.78
23835.1
10900.7
31514.3
25335.9
38851
36656.3
45759.2
45619.9
51677.8
52284.2
56284.8
57208.7
59940.1
60965.8
62900.3
63898.4
65330.3
66266.4
67391.3
68280.8
69249.8
70129.9
71016.7
71890.3
72679.7
73509.1
74170
74937
75451.6
76179.5
76533.4
77254.5
77435
78211.6
78177.8
79113.2
78764.8
80047
79160
116284
112080
111548
110772
110015
109398
108888
108414
108032
107699
107435
107198
107003
106801
106612
106388
106169
105894
105635
105301
104998
104592
104243
103739
103340
102711
102256
101458
100948
99911.7
99363.1
97989.9
97429.2
95563.6
95062.2
92464.8
92159.9
88431.2
88601.9
83079.2
84238.8
75799.6
79020.8
65778.5
73310.5
52031.1
67643
32605
60727.6
1873.22
48256.1
-54637.4
16045.8
-261435
-31087.7
-69627.9
6959.14
-32429.6
16393.3
-7802.32
23824.5
10888.2
31504.6
25324.6
38841.6
36645.1
45749.3
45609.5
51669.3
52275.9
56278.2
57202.2
59935.1
60960.6
62896.2
63894.2
65326.7
66262.6
67388.1
68277.7
69247.1
70127.5
71014.3
71887.9
72677
73506.6
74167.1
74934.7
75448.8
76177.5
76530.5
77253
77431.9
78210.7
78174.1
79113.4
78759.9
80049.5
79152.9
116076
112044
111534
110746
110001
109386
108877
108405
108025
107692
107430
107194
106999
106797
106609
106384
106166
105890
105631
105297
104994
104587
104238
103733
103335
102704
102250
101450
100941
99902.6
99355.4
97979
97420.6
95550.6
95052.7
92448.9
92149.2
88411.7
88589.8
83055.1
84224.4
75768.7
79001.9
65740
73286.4
51990.1
67611.6
32560.9
60679.9
1814.88
48175.1
-54738.9
16001.7
-260146
-30853.3
-69761.7
6950.44
-32445
16383.9
-7816.11
23814.1
10875.4
31495
25313
38832
36633.7
45739.4
45599
51660.8
52267.6
56271.8
57195.7
59930.2
60955.5
62892.2
63889.9
65323.2
66258.9
67385
68274.5
69244.4
70125
71012
71885.5
72674.4
73504.1
74164.3
74932.4
75446
76175.5
76527.7
77251.5
77428.9
78209.9
78170.4
79113.7
78755
80052
79145.7
115877
112008
111519
110720
109986
109373
108867
108396
108017
107686
107425
107190
106996
106794
106606
106381
106163
105886
105628
105292
104990
104582
104234
103728
103329
102698
102244
101443
100935
99893.5
99347.8
97968.1
97412.1
95537.5
95043.2
92432.9
92138.7
88392.2
88577.7
83030.6
84210.1
75737.4
78983
65701.2
73262.8
51949.2
67580.8
32517.1
60633.1
1757.13
48095.2
-54837.4
15961.1
-258866
-30619.3
-69893.3
6942.59
-32460.6
16374.9
-7830.17
23803.9
10862.4
31485.5
25301.1
38822.4
36622.1
45729.6
45588.5
51652.5
52259.4
56265.5
57189.4
59925.4
60950.4
62888.2
63885.6
65319.6
66255.1
67381.9
68271.4
69241.8
70122.5
71009.6
71883.1
72671.7
73501.5
74161.4
74930.1
75443.1
76173.5
76524.8
77250
77425.8
78209
78166.7
79114
78750
80054.5
79138.4
115685
111972
111503
110695
109971
109360
108856
108387
108010
107680
107420
107186
106993
106791
106603
106378
106159
105883
105624
105288
104986
104577
104229
103722
103324
102691
102238
101435
100928
99884.5
99340.3
97957.2
97403.7
95524.4
95033.8
92417
92128.2
88372.6
88565.9
83006
84195.8
75705.7
78964.1
65662.3
73239.7
51908.5
67550.8
32473.7
60587
1700.05
48016.5
-54932.8
15923.8
-257594
-30385.9
-70023
6935.43
-32476.4
16366.2
-7844.52
23793.7
10849.1
31475.9
25289.1
38812.8
36610.3
45719.6
45578
51644.3
52251.3
56259.4
57183
59920.6
60945.3
62884.3
63881.4
65316.1
66251.4
67378.7
68268.3
69239.1
70120
71007.1
71880.7
72669
73499
74158.5
74927.8
75440.2
76171.5
76522
77248.5
77422.7
78208.2
78163
79114.3
78744.9
80057.2
79130.9
115500
111937
111486
110669
109957
109348
108845
108377
108002
107674
107415
107182
106989
106788
106600
106375
106156
105879
105620
105284
104982
104573
104224
103717
103319
102685
102232
101427
100921
99875.6
99333
97946.5
97395.4
95511.4
95024.6
92401.1
92117.9
88353
88554.1
82981.3
84181.6
75673.6
78945.5
65623.4
73217.2
51868.1
67521.4
32430.6
60541.8
1643.69
47938.8
-55025.2
15889.8
-256330
-30153.5
-70150.9
6928.82
-32492.5
16357.8
-7859.17
23783.7
10835.5
31466.3
25276.7
38803
36598.3
45709.7
45567.4
51636.1
52243.2
56253.3
57176.7
59916
60940.3
62880.4
63877.1
65312.6
66247.6
67375.6
68265.1
69236.4
70117.5
71004.6
71878.2
72666.2
73496.4
74155.6
74925.5
75437.4
76169.5
76519.1
77247
77419.5
78207.4
78159.2
79114.7
78739.8
80059.9
79123.4
115322
111901
111468
110643
109942
109335
108835
108368
107995
107667
107410
107178
106986
106785
106597
106372
106153
105876
105617
105280
104978
104568
104220
103711
103314
102678
102226
101420
100915
99866.7
99325.6
97935.7
97387.2
95498.5
95015.5
92385.2
92107.7
88333.3
88542.4
82956.4
84167.4
75641.3
78927.1
65584.6
73195.3
51827.9
67492.7
32388
60497.4
1588.06
47862.3
-55114.5
15858.8
-255074
-29922.3
-70277.1
6922.6
-32508.8
16349.5
-7874.15
23773.6
10821.7
31456.7
25264.2
38793.2
36586.1
45699.8
45556.7
51628.1
52235.1
56247.3
57170.5
59911.4
60935.3
62876.5
63872.9
65309.1
66243.8
67372.5
68262
69233.7
70114.9
71002.1
71875.6
72663.4
73493.8
74152.6
74923.2
75434.4
76167.5
76516.1
77245.5
77416.4
78206.6
78155.3
79115
78734.6
80062.7
79115.7
115150
111866
111449
110618
109927
109322
108824
108359
107987
107661
107405
107174
106983
106782
106595
106369
106150
105872
105613
105276
104974
104563
104215
103706
103309
102672
102220
101412
100908
99857.8
99318.4
97925.1
97379.2
95485.5
95006.5
92369.3
92097.7
88313.7
88530.9
82931.4
84153.2
75608.9
78909
65546.1
73173.9
51788.1
67464.6
32345.9
60453.7
1533.2
47786.8
-55200.7
15830.9
-253827
-29692.5
-70401.9
6916.66
-32525.4
16341.3
-7889.45
23763.6
10807.6
31447
25251.3
38783.3
36573.7
45689.8
45546.1
51620.2
52227.2
56241.5
57164.4
59906.8
60930.3
62872.7
63868.6
65305.7
66240
67369.3
68258.8
69231
70112.3
70999.5
71873
72660.6
73491.2
74149.7
74920.8
75431.5
76165.5
76513.2
77244
77413.2
78205.7
78151.5
79115.4
78729.4
80065.5
79107.9
114984
111831
111429
110592
109913
109309
108813
108349
107980
107655
107401
107170
106980
106779
106592
106366
106147
105869
105610
105272
104970
104559
104211
103700
103304
102666
102215
101405
100902
99849.1
99311.3
97914.5
97371.2
95472.7
94997.6
92353.5
92087.7
88294
88519.4
82906.3
84139.1
75576.4
78891.2
65507.7
73153.1
51748.7
67437.2
32304.2
60410.8
1479.08
47712.4
-55283.9
15805.8
-252588
-29464
-70525.3
6910.91
-32542.4
16333.2
-7905.11
23753.6
10793.2
31437.3
25238.2
38773.3
36561.2
45679.9
45535.5
51612.3
52219.2
56235.8
57158.3
59902.4
60925.3
62868.9
63864.4
65302.2
66236.3
67366.2
68255.6
69228.2
70109.6
70996.8
71870.4
72657.7
73488.5
74146.7
74918.5
75428.6
76163.5
76510.2
77242.5
77410
78204.9
78147.6
79115.8
78724.1
80068.3
79100
114824
111796
111408
110567
109898
109296
108802
108340
107972
107649
107396
107166
106977
106777
106589
106363
106144
105865
105606
105268
104966
104554
104206
103695
103299
102660
102209
101398
100896
99840.3
99304.2
97903.9
97363.2
95459.9
94988.8
92337.7
92077.9
88274.3
88508
82881.1
84125.1
75543.8
78873.7
65469.7
73132.7
51709.5
67410.3
32262.9
60368.6
1425.72
47639
-55364.2
15783.4
-251358
-29236.9
-70647.4
6905.27
-32559.8
16325
-7921.12
23743.5
10778.5
31427.5
25224.9
38763.2
36548.5
45670
45524.8
51604.6
52211.4
56230.1
57152.2
59898
60920.4
62865.1
63860.1
65298.7
66232.4
67363
68252.3
69225.4
70106.9
70994.1
71867.6
72654.7
73485.8
74143.6
74916.1
75425.6
76161.4
76507.3
77241
77406.8
78204.1
78143.7
79116.2
78718.7
80071.2
79092.1
114670
111762
111386
110541
109883
109283
108792
108331
107965
107643
107391
107162
106974
106774
106587
106360
106141
105862
105603
105264
104962
104549
104202
103690
103294
102654
102204
101390
100890
99831.7
99297.3
97893.4
97355.4
95447.1
94980.1
92321.9
92068.1
88254.6
88496.8
82855.8
84111.1
75511.2
78856.6
65431.9
73112.9
51670.7
67384
32222.1
60327.1
1373.1
47566.6
-55441.6
15763.5
-250136
-29011.2
-70768.1
6899.68
-32577.6
16316.8
-7937.49
23733.3
10763.5
31417.6
25211.4
38753
36535.7
45660
45514.2
51597
52203.6
56224.6
57146.2
59893.6
60915.5
62861.4
63855.9
65295.2
66228.6
67359.8
68249
69222.6
70104.1
70991.2
71864.8
72651.7
73483
74140.6
74913.7
75422.6
76159.4
76504.3
77239.5
77403.6
78203.3
78139.7
79116.6
78713.4
80074.2
79084.1
114520
111727
111364
110516
109868
109269
108781
108322
107958
107637
107386
107159
106971
106771
106584
106357
106138
105859
105600
105260
104958
104545
104198
103685
103289
102647
102198
101383
100884
99823.1
99290.4
97883
97347.7
95434.4
94971.4
92306.2
92058.5
88234.9
88485.5
82830.4
84097.3
75478.7
78839.7
65394.4
73093.5
51632.2
67358.2
32181.7
60286.3
1321.21
47495.2
-55516.1
15746.1
-248922
-28787
-70887.6
6894.12
-32595.8
16308.6
-7954.22
23723
10748.3
31407.7
25197.6
38742.8
36522.7
45650.2
45503.5
51589.4
52195.9
56219.1
57140.2
59889.3
60910.5
62857.6
63851.6
65291.7
66224.7
67356.5
68245.7
69219.6
70101.2
70988.3
71862
72648.6
73480.2
74137.5
74911.2
75419.6
76157.4
76501.3
77238
77400.3
78202.5
78135.7
79117
78708
80077.2
79076
114376
111692
111341
110491
109853
109256
108770
108312
107950
107631
107382
107155
106968
106768
106582
106355
106135
105856
105596
105256
104955
104540
104193
103679
103284
102641
102193
101376
100877
99814.5
99283.6
97872.6
97340
95421.7
94962.9
92290.5
92048.9
88215.2
88474.3
82805
84083.5
75446.2
78823.3
65357.2
73074.5
51594
67332.9
32141.7
60246.1
1270.03
47424.8
-55587.9
15731.1
-247718
-28564.3
-71005.7
6888.57
-32614.4
16300.2
-7971.31
23712.7
10732.7
31397.7
25183.5
38732.5
36509.6
45640.3
45492.8
51582
52188.2
56213.8
57134.3
59885
60905.6
62853.8
63847.4
65288.2
66220.9
67353.3
68242.3
69216.7
70098.2
70985.4
71859
72645.5
73477.4
74134.3
74908.8
75416.6
76155.3
76498.3
77236.5
77397.1
78201.7
78131.7
79117.4
78702.5
80080.2
79067.8
114236
111658
111317
110466
109838
109243
108759
108303
107943
107625
107377
107151
106965
106766
106579
106352
106133
105852
105593
105253
104951
104536
104189
103674
103280
102635
102188
101369
100872
99806
99276.8
97862.3
97332.5
95409.1
94954.5
92274.8
92039.4
88195.4
88463.2
82779.5
84069.8
75413.8
78807.1
65320.2
73055.9
51556.2
67308.1
32102.2
60206.6
1219.55
47355.3
-55656.9
15718.2
-246521
-28342.9
-71122.6
6882.99
-32633.5
16291.8
-7988.77
23702.2
10716.9
31387.6
25169.3
38722.1
36496.4
45630.4
45482.2
51574.6
52180.6
56208.5
57128.4
59880.7
60900.7
62850.1
63843.1
65284.7
66217
67350
68238.9
69213.6
70095.2
70982.3
71856
72642.3
73474.6
74131.2
74906.3
75413.6
76153.2
76495.3
77235
77393.8
78200.9
78127.7
79117.8
78697
80083.2
79059.6
114101
111623
111292
110441
109823
109229
108748
108294
107936
107619
107373
107147
106962
106763
106577
106349
106130
105849
105590
105249
104947
104532
104185
103669
103275
102629
102182
101362
100866
99797.6
99270.1
97852
97325
95396.5
94946.1
92259.1
92030
88175.6
88452.1
82753.9
84056.2
75381.5
78791.2
65283.5
73037.6
51518.6
67283.7
32063
60167.6
1169.75
47286.7
-55723.4
15707.5
-245334
-28123
-71238.2
6877.41
-32652.9
16283.2
-8006.57
23691.7
10700.8
31377.4
25154.8
38711.6
36483.1
45620.6
45471.6
51567.4
52173
56203.2
57122.5
59876.5
60895.8
62846.4
63838.8
65281.2
66213
67346.7
68235.5
69210.5
70092
70979.2
71852.9
72639.1
73471.7
74128
74903.9
75410.5
76151.2
76492.2
77233.4
77390.5
78200.1
78123.7
79118.2
78691.5
80086.3
79051.3
113971
111589
111267
110416
109808
109216
108737
108284
107928
107613
107368
107144
106959
106760
106575
106346
106127
105846
105587
105245
104944
104527
104181
103664
103270
102624
102177
101355
100860
99789.2
99263.5
97841.8
97317.5
95384
94937.8
92243.5
92020.6
88155.8
88441.1
82728.3
84042.7
75349.4
78775.7
65247
73019.8
51481.2
67259.8
32024.3
60129.3
1120.61
47218.9
-55787.2
15698.8
-244155
-27904.5
-71352.5
6871.8
-32672.7
16274.5
-8024.72
23681
10684.4
31367.1
25140.2
38701.2
36469.7
45610.8
45460.9
51560.2
52165.5
56198.1
57116.6
59872.3
60890.8
62842.6
63834.5
65277.6
66209.1
67343.3
68232
69207.3
70088.9
70976
71849.8
72635.8
73468.7
74124.7
74901.4
75407.4
76149.1
76489.2
77231.9
77387.2
78199.3
78119.6
79118.6
78685.9
80089.3
79042.9
113844
111554
111242
110392
109793
109202
108727
108275
107921
107607
107364
107140
106957
106758
106572
106344
106125
105843
105584
105242
104940
104523
104177
103659
103266
102618
102172
101348
100854
99780.8
99256.9
97831.6
97310.2
95371.4
94929.5
92227.8
92011.2
88136
88430
82702.6
84029.3
75317.3
78760.4
65210.8
73002.2
51444.2
67236.3
31985.9
60091.5
1072.12
47152.1
-55848.6
15692
-242984
-27687.3
-71465.5
6866.19
-32692.9
16265.7
-8043.21
23670.2
10667.8
31356.7
25125.3
38690.6
36456.2
45601.1
45450.3
51553.1
52158
56193
57110.7
59868.1
60885.9
62838.9
63830.1
65274.1
66205.1
67340
68228.4
69204.1
70085.6
70972.7
71846.6
72632.5
73465.7
74121.5
74898.8
75404.3
76147
76486.1
77230.4
77383.9
78198.6
78115.5
79119.1
78680.3
80092.4
79034.5
113722
111520
111216
110367
109778
109189
108716
108266
107914
107601
107359
107137
106954
106755
106570
106341
106122
105840
105581
105238
104937
104519
104173
103655
103261
102612
102167
101341
100848
99772.5
99250.4
97821.4
97302.8
95358.9
94921.4
92212.2
92001.9
88116
88419
82676.8
84016.1
75285.4
78745.4
65174.8
72985
51407.4
67213.2
31947.9
60054.2
1024.27
47086.1
-55907.5
15687.1
-241822
-27471.6
-71577.1
6860.57
-32713.5
16256.7
-8062.02
23659.3
10650.9
31346.3
25110.2
38680
36442.6
45591.4
45439.7
51546
52150.5
56187.9
57104.9
59863.9
60881
62835.1
63825.8
65270.5
66201.1
67336.6
68224.8
69200.8
70082.2
70969.3
71843.3
72629.1
73462.7
74118.2
74896.3
75401.2
76144.9
76483
77228.9
77380.5
78197.8
78111.4
79119.5
78674.7
80095.6
79026.1
113603
111486
111189
110343
109763
109176
108705
108257
107907
107595
107355
107133
106951
106753
106568
106339
106119
105837
105578
105234
104933
104515
104169
103650
103257
102606
102162
101334
100842
99764.3
99244
97811.3
97295.6
95346.5
94913.2
92196.6
91992.6
88096.1
88407.9
82651.1
84002.9
75253.7
78730.6
65139
72968.1
51370.9
67190.5
31910.3
60017.5
977.046
47020.9
-55964.1
15683.9
-240668
-27257.2
-71687.4
6854.97
-32734.4
16247.6
-8081.15
23648.3
10633.8
31335.8
25095
38669.4
36428.9
45581.7
45429
51539
52143
56182.9
57099
59859.7
60876
62831.4
63821.5
65267
66197.1
67333.1
68221.2
69197.5
70078.8
70965.9
71840
72625.7
73459.7
74114.9
74893.7
75398.1
76142.8
76479.9
77227.4
77377.2
78197
78107.3
79119.9
78669
80098.7
79017.6
113488
111452
111162
110319
109748
109162
108694
108248
107900
107589
107351
107130
106949
106751
106566
106336
106117
105834
105575
105231
104930
104511
104165
103645
103252
102600
102157
101327
100837
99756.1
99237.6
97801.3
97288.4
95334
94905.1
92180.9
91983.4
88076
88396.9
82625.3
83989.9
75222.1
78716.1
65103.4
72951.4
51334.6
67168.2
31873
59981.2
930.425
46956.5
-56018.3
15682.3
-239523
-27044.1
-71796.3
6849.4
-32755.6
16238.5
-8100.57
23637.1
10616.4
31325.2
25079.6
38658.8
36415.1
45572.1
45418.4
51532.1
52135.6
56177.9
57093.2
59855.6
60871.1
62827.6
63817.1
65263.4
66193.1
67329.6
68217.5
69194
70075.3
70962.4
71836.6
72622.2
73456.6
74111.6
74891.2
75395
76140.7
76476.8
77225.9
77373.8
78196.2
78103.2
79120.3
78663.3
80101.8
79009
113377
111417
111135
110294
109733
109148
108684
108239
107892
107584
107346
107127
106946
106748
106564
106334
106114
105831
105572
105227
104927
104507
104161
103640
103248
102595
102152
101320
100831
99747.9
99231.3
97791.2
97281.3
95321.6
94897.1
92165.2
91974.1
88056
88385.9
82599.5
83977.1
75190.6
78701.8
65068.1
72935
51298.5
67146.2
31836.1
59945.5
884.4
46892.9
-56070.2
15682.4
-238387
-26832.4
-71903.8
6843.87
-32777.1
16229.2
-8120.28
23625.9
10598.8
31314.5
25064
38648.2
36401.3
45562.5
45407.8
51525.3
52128.2
56172.9
57087.3
59851.4
60866.1
62823.9
63812.7
65259.8
66189
67326.1
68213.7
69190.5
70071.7
70958.8
71833.2
72618.7
73453.5
74108.2
74888.6
75391.8
76138.6
76473.7
77224.4
77370.5
78195.4
78099
79120.8
78657.6
80105
79000.4
113269
111383
111107
110270
109717
109135
108673
108229
107885
107578
107342
107123
106944
106746
106561
106332
106112
105828
105569
105224
104923
104503
104158
103635
103244
102589
102147
101314
100826
99739.8
99225
97781.2
97274.2
95309.2
94889
92149.5
91964.9
88035.8
88374.9
82573.7
83964.3
75159.3
78687.7
65032.9
72918.8
51262.7
67124.5
31799.5
59910.2
838.959
46830
-56119.9
15683.9
-237259
-26622
-72009.9
6838.39
-32798.8
16219.8
-8140.26
23614.6
10580.9
31303.8
25048.3
38637.5
36387.3
45552.9
45397.2
51518.5
52120.8
56168
57081.5
59847.3
60861.1
62820.1
63808.3
65256.2
66185
67322.6
68209.9
69187
70068.1
70955.2
71829.7
72615.1
73450.4
74104.9
74886
75388.7
76136.5
76470.6
77222.8
77367.1
78194.6
78094.8
79121.2
78651.8
80108.2
78991.8
113164
111350
111080
110247
109702
109121
108662
108220
107878
107573
107338
107120
106941
106744
106559
106329
106110
105826
105566
105221
104920
104499
104154
103631
103239
102584
102142
101307
100820
99731.7
99218.7
97771.2
97267.1
95296.8
94881
92133.8
91955.6
88015.5
88363.9
82547.9
83951.7
75128.2
78673.8
64997.9
72902.9
51227.2
67103.2
31763.2
59875.4
794.089
46768
-56167.5
15686.8
-236140
-26412.9
-72114.6
6832.99
-32820.8
16210.4
-8160.49
23603.1
10562.9
31293
25032.4
38626.8
36373.4
45543.4
45386.5
51511.7
52113.4
56163
57075.6
59843.1
60856.1
62816.4
63804
65252.6
66180.9
67319.1
68206.1
69183.4
70064.4
70951.5
71826.1
72611.5
73447.2
74101.4
74883.4
75385.5
76134.4
76467.5
77221.3
77363.7
78193.9
78090.7
79121.6
78646
80111.3
78983.1
113063
111316
111051
110223
109687
109108
108651
108211
107871
107567
107334
107117
106939
106742
106558
106327
106107
105823
105564
105217
104917
104495
104150
103626
103235
102578
102138
101300
100815
99723.6
99212.5
97761.3
97260.1
95284.4
94873
92118
91946.3
87995.2
88352.9
82522.1
83939.3
75097.2
78660.2
64963.1
72887.2
51191.8
67082.2
31727.3
59841.1
749.78
46706.6
-56212.9
15691
-235029
-26205.1
-72217.9
6827.68
-32843
16200.9
-8180.97
23591.6
10544.7
31282.2
25016.4
38616.1
36359.4
45533.9
45375.9
51504.9
52106
56158.1
57069.7
59838.9
60851.1
62812.6
63799.6
65249
66176.7
67315.5
68202.2
69179.7
70060.6
70947.7
71822.5
72607.8
73444
74098
74880.7
75382.3
76132.3
76464.3
77219.8
77360.3
78193.1
78086.5
79122
78640.2
80114.5
78974.4
112965
111282
111023
110199
109671
109094
108641
108202
107865
107561
107330
107114
106937
106740
106556
106325
106105
105820
105561
105214
104914
104491
104146
103621
103231
102573
102133
101294
100809
99715.6
99206.4
97751.4
97253.1
95272
94865.1
92102.2
91937
87974.8
88341.9
82496.3
83926.9
75066.3
78646.7
64928.5
72871.8
51156.7
67061.4
31691.7
59807.2
706.022
46646
-56256.3
15696.5
-233926
-25998.7
-72319.7
6822.47
-32865.4
16191.3
-8201.68
23580
10526.2
31271.3
25000.2
38605.4
36345.3
45524.5
45365.2
51498.2
52098.6
56153.2
57063.8
59834.8
60846.1
62808.8
63795.1
65245.3
66172.6
67311.9
68198.3
69176
70056.8
70943.9
71818.8
72604.1
73440.7
74094.6
74878.1
75379.1
76130.1
76461.2
77218.3
77356.9
78192.3
78082.3
79122.5
78634.4
80117.7
78965.6
112870
111248
110995
110176
109656
109081
108630
108193
107858
107556
107326
107111
106934
106738
106554
106323
106103
105817
105558
105211
104911
104487
104143
103617
103227
102567
102128
101287
100804
99707.6
99200.3
97741.5
97246.1
95259.6
94857.1
92086.3
91927.6
87954.4
88330.9
82470.5
83914.8
75035.6
78633.3
64894
72856.5
51121.7
67041
31656.5
59773.8
662.804
46586.1
-56297.6
15703.1
-232832
-25793.4
-72420
6817.38
-32888
16181.7
-8222.61
23568.4
10507.6
31260.4
24983.9
38594.8
36331.2
45515.1
45354.5
51491.5
52091.1
56148.3
57057.9
59830.6
60841.1
62805.1
63790.7
65241.7
66168.5
67308.2
68194.3
69172.3
70052.9
70940
71815.1
72600.4
73437.5
74091.1
74875.4
75375.9
76128
76458
77216.8
77353.5
78191.5
78078
79122.9
78628.5
80120.9
78956.8
112777
111215
110966
110152
109640
109067
108619
108185
107851
107551
107322
107108
106932
106736
106552
106320
106101
105815
105555
105208
104908
104483
104139
103612
103223
102562
102123
101280
100799
99699.6
99194.2
97731.6
97239.1
95247.1
94849.1
92070.3
91918.2
87933.8
88319.9
82444.8
83902.7
75005
78620.2
64859.7
72841.4
51087
67020.9
31621.5
59740.8
620.116
46526.9
-56337
15710.9
-231747
-25589.5
-72518.9
6812.42
-32910.7
16172.1
-8243.74
23556.6
10488.8
31249.5
24967.5
38584.1
36317
45505.8
45343.8
51484.9
52083.7
56143.4
57052
59826.5
60836.1
62801.3
63786.3
65238.1
66164.3
67304.6
68190.3
69168.4
70049
70936.1
71811.4
72596.6
73434.2
74087.6
74872.7
75372.6
76125.9
76454.9
77215.3
77350.1
78190.8
78073.8
79123.3
78622.7
80124.1
78948
112687
111182
110937
110129
109625
109053
108609
108176
107844
107545
107318
107105
106930
106734
106550
106318
106098
105812
105553
105204
104904
104479
104136
103608
103219
102556
102119
101274
100793
99691.7
99188.1
97721.7
97232.2
95234.7
94841
92054.3
91908.8
87913.2
88308.9
82419.2
83890.7
74974.6
78607.1
64825.6
72826.4
51052.5
67001
31586.9
59708.2
577.95
46468.4
-56374.5
15719.6
-230669
-25386.9
-72616.3
6807.61
-32933.5
16162.5
-8265.06
23544.8
10469.8
31238.6
24951
38573.5
36302.8
45496.4
45333.1
51478.2
52076.2
56138.5
57046.1
59822.3
60831.1
62797.6
63781.9
65234.5
66160.1
67300.9
68186.3
69164.6
70045
70932.1
71807.6
72592.8
73430.9
74084.1
74870
75369.4
76123.7
76451.7
77213.7
77346.6
78190
78069.6
79123.7
78616.7
80127.3
78939.1
112600
111148
110908
110106
109609
109040
108598
108167
107837
107540
107315
107102
106928
106732
106548
106316
106096
105809
105550
105201
104901
104475
104132
103603
103215
102551
102114
101267
100788
99683.7
99182.1
97711.8
97225.3
95222.2
94833
92038.1
91899.2
87892.5
88298
82393.6
83878.9
74944.3
78594.3
64791.6
72811.7
51018.2
66981.4
31552.5
59676
536.295
46410.6
-56410
15729.3
-229601
-25185.5
-72712.2
6802.97
-32956.5
16152.8