/*--------------------------------*- C++ -*----------------------------------*\
| =========                 |                                                 |
| \\      /  F ield         | OpenFOAM: The Open Source CFD Toolbox           |
|  \\    /   O peration     | Version:  2412                                  |
|   \\  /    A nd           | Website:  www.openfoam.com                      |
|    \\/     M anipulation  |                                                 |
\*---------------------------------------------------------------------------*/
FoamFile
{
    version     2.0;
    format      ascii;
    arch        "LSB;label=32;scalar=64";
    class       volScalarField;
    location    "0.2";
    object      epsilon;
}
// * * * * * * * * * * * * * * * * * * * * * * * * * * * * * * * * * * * * * //

dimensions      [0 2 -3 0 0 0 0];

internalField   nonuniform List<scalar> 
13068
(
437.581
590.627
726.031
753.406
710.194
652.677
605.247
575.335
560.349
554.269
552.652
553.541
555.916
559.648
564.325
570.226
576.927
584.963
593.745
604.154
615.285
628.527
642.43
659.167
676.419
697.604
718.97
745.957
772.535
807.427
840.954
887.059
930.047
992.522
1049.64
1137.76
1217.09
1347.3
1464.58
1664.44
1836.41
2131.06
2352.26
2730.89
2937.16
3332.55
3513.11
4122.89
4581.82
5289.21
5849.73
5130.47
6934.67
4481.68
3144.02
3105.37
3133.14
2734.05
2497.91
2147.45
1974.79
1731.82
1604.89
1432.66
1349.2
1240.03
1194.5
1124.11
1095.78
1048.65
1024.4
983.592
954.437
914.176
879.939
839.91
805.776
771.823
743.912
718.21
697.12
678.8
662.987
648.887
635.187
622.699
609.305
597.026
583.277
570.838
557.005
544.442
531.311
518.793
507.696
495.995
488.965
482.548
464.613
436.589
587.427
721.597
749.797
708.225
652.042
605.399
575.84
560.96
554.879
553.226
554.074
556.414
560.118
564.773
570.661
577.352
585.387
594.17
604.587
615.728
628.986
642.908
659.671
676.95
698.172
719.576
746.613
773.243
808.201
841.798
887.998
931.089
993.702
1050.98
1139.3
1218.83
1349.31
1466.8
1666.89
1839.01
2133.79
2355.09
2733.81
2940.71
3336.72
3518.56
4126.63
4584.13
5282.58
5837.3
5107.73
6901.78
4477.07
3151.38
3106.69
3128.68
2730.21
2495.5
2146.63
1974.88
1732.23
1605.35
1433.47
1350.13
1241.08
1195.51
1125.03
1096.56
1049.29
1024.92
984.071
954.891
914.652
880.451
840.453
806.34
772.385
744.459
718.726
697.591
679.215
663.345
649.186
635.431
622.888
609.449
597.119
583.329
570.83
556.95
544.31
531.115
518.505
507.316
495.517
488.351
481.821
463.957
435.608
584.26
717.21
746.232
706.291
651.431
605.563
576.354
561.576
555.492
553.804
554.612
556.916
560.591
565.226
571.099
577.782
585.814
594.599
605.023
616.175
629.449
643.389
660.177
677.484
698.742
720.185
747.271
773.952
808.975
842.642
888.935
932.128
994.878
1052.3
1140.83
1220.57
1351.3
1469
1669.31
1841.58
2136.47
2357.87
2736.67
2944.16
3340.77
3523.8
4130.1
4586
5275.39
5823.91
5083.23
6863.25
4467.86
3155.45
3105.21
3122.09
2724.99
2492.18
2145.22
1974.54
1732.33
1605.57
1434.08
1350.91
1242.01
1196.43
1125.87
1097.27
1049.87
1025.38
984.501
955.303
915.092
880.932
840.971
806.879
772.925
744.987
719.225
698.048
679.617
663.693
649.477
635.669
623.071
609.588
597.207
583.378
570.819
556.892
544.177
530.919
518.218
506.939
495.045
487.746
481.106
463.312
434.639
581.131
712.872
742.708
704.384
650.835
605.734
576.868
562.192
556.105
554.382
555.149
557.417
561.064
565.677
571.536
578.21
586.24
595.026
605.458
616.619
629.909
643.867
660.68
678.013
699.307
720.787
747.921
774.652
809.739
843.473
889.859
933.15
996.036
1053.61
1142.33
1222.26
1353.25
1471.15
1671.68
1844.08
2139.08
2360.54
2739.4
2947.44
3344.6
3528.74
4133.21
4587.33
5267.54
5809.44
5056.92
6818.91
4453.83
3156.05
3100.82
3113.29
2718.34
2487.93
2143.18
1973.75
1732.08
1605.51
1434.47
1351.51
1242.8
1197.24
1126.61
1097.9
1050.37
1025.78
984.866
955.66
915.483
881.37
841.449
807.384
773.433
745.486
719.698
698.483
680
664.024
649.752
635.893
623.242
609.717
597.286
583.418
570.801
556.828
544.038
530.719
517.929
506.56
494.574
487.145
480.398
462.675
433.683
578.042
708.583
739.223
702.502
650.249
605.906
577.381
562.806
556.716
554.957
555.684
557.916
561.535
566.127
571.971
578.636
586.662
595.449
605.888
617.059
630.363
644.339
661.175
678.535
699.862
721.379
748.56
775.34
810.489
844.288
890.762
934.15
997.166
1054.88
1143.79
1223.92
1355.14
1473.24
1673.98
1846.49
2141.58
2363.09
2741.99
2950.52
3348.2
3533.34
4135.91
4588.07
5258.99
5793.88
5028.79
6768.69
4434.84
3153.04
3093.46
3102.28
2710.26
2482.74
2140.51
1972.49
1731.47
1605.17
1434.63
1351.93
1243.43
1197.91
1127.25
1098.43
1050.79
1026.09
985.162
955.954
915.818
881.759
841.883
807.848
773.905
745.951
720.143
698.892
680.361
664.334
650.009
636.101
623.399
609.832
597.353
583.447
570.772
556.754
543.891
530.51
517.633
506.177
494.1
486.545
479.694
462.043
432.74
574.991
704.342
735.776
700.642
649.672
606.08
577.892
563.416
557.323
555.528
556.215
558.413
562.003
566.572
572.402
579.057
587.08
595.868
606.312
617.492
630.811
644.803
661.662
679.047
700.407
721.959
749.185
776.011
811.22
845.082
891.642
935.122
998.266
1056.11
1145.21
1225.52
1356.98
1475.26
1676.19
1848.8
2143.97
2365.49
2744.4
2953.38
3351.54
3537.58
4138.21
4588.23
5249.75
5777.25
4998.91
6712.6
4410.78
3146.33
3083.08
3089.06
2700.77
2476.64
2137.22
1970.77
1730.52
1604.55
1434.56
1352.16
1243.92
1198.46
1127.77
1098.86
1051.12
1026.33
985.384
956.184
916.096
882.096
842.27
808.269
774.337
746.382
720.555
699.273
680.696
664.622
650.247
636.29
623.539
609.932
597.405
583.463
570.731
556.669
543.733
530.293
517.329
505.786
493.621
485.944
478.992
461.414
431.81
571.978
700.148
732.366
698.804
649.104
606.254
578.4
564.023
557.927
556.097
556.744
558.905
562.467
567.015
572.829
579.474
587.493
596.281
606.731
617.919
631.251
645.259
662.14
679.548
700.94
722.525
749.796
776.666
811.933
845.854
892.497
936.065
999.333
1057.31
1146.59
1227.07
1358.76
1477.19
1678.31
1851
2146.23
2367.74
2746.65
2956.02
3354.61
3541.47
4140.1
4587.81
5239.86
5759.59
4967.35
6650.7
4381.58
3135.81
3069.67
3073.64
2689.91
2469.64
2133.33
1968.61
1729.22
1603.66
1434.27
1352.2
1244.25
1198.88
1128.19
1099.2
1051.36
1026.49
985.534
956.348
916.315
882.379
842.609
808.646
774.729
746.775
720.935
699.625
681.005
664.887
650.463
636.461
623.662
610.016
597.443
583.465
570.677
556.571
543.565
530.064
517.016
505.388
493.137
485.339
478.29
460.786
430.893
569.001
696
728.992
696.987
648.545
606.429
578.905
564.626
558.527
556.661
557.268
559.394
562.927
567.453
573.251
579.887
587.902
596.689
607.143
618.339
631.684
645.706
662.608
680.038
701.461
723.077
750.39
777.303
812.625
846.603
893.326
936.977
1000.36
1058.47
1147.91
1228.57
1360.46
1479.05
1680.34
1853.09
2148.36
2369.83
2748.71
2958.42
3357.42
3545
4141.58
4586.83
5229.33
5740.97
4934.21
6583.11
4347.21
3121.44
3053.22
3056.07
2677.73
2461.78
2128.86
1966.01
1727.58
1602.51
1433.76
1352.07
1244.44
1199.18
1128.51
1099.44
1051.52
1026.56
985.611
956.448
916.474
882.609
842.898
808.978
775.079
747.132
721.281
699.947
681.289
665.129
650.659
636.613
623.767
610.084
597.466
583.453
570.61
556.461
543.384
529.824
516.692
504.981
492.645
484.729
477.584
460.156
429.987
566.061
691.898
725.655
695.191
647.994
606.605
579.408
565.225
559.123
557.223
557.79
559.88
563.384
567.887
573.67
580.295
588.304
597.09
607.549
618.751
632.108
646.143
663.065
680.517
701.968
723.615
750.968
777.921
813.297
847.328
894.127
937.858
1001.36
1059.58
1149.19
1230
1362.1
1480.83
1682.28
1855.06
2150.36
2371.76
2750.59
2960.6
3359.97
3548.18
4142.67
4585.3
5218.23
5721.44
4899.59
6509.99
4307.69
3103.18
3033.74
3036.4
2664.27
2453.11
2123.84
1963.01
1725.63
1601.1
1433.03
1351.77
1244.47
1199.35
1128.71
1099.6
1051.59
1026.56
985.616
956.483
916.575
882.786
843.138
809.265
775.389
747.45
721.594
700.241
681.546
665.347
650.833
636.746
623.855
610.136
597.474
583.426
570.529
556.337
543.19
529.572
516.357
504.563
492.144
484.112
476.874
459.524
429.094
563.155
687.839
722.353
693.417
647.451
606.782
579.908
565.821
559.715
557.78
558.307
560.361
563.836
568.317
574.083
580.697
588.701
597.486
607.947
619.155
632.523
646.571
663.512
680.983
702.462
724.137
751.529
778.52
813.946
848.027
894.899
938.706
1002.32
1060.65
1150.42
1231.37
1363.67
1482.52
1684.12
1856.92
2152.23
2373.53
2752.3
2962.55
3362.26
3551.02
4143.39
4583.25
5206.58
5701.08
4863.6
6431.54
4263.07
3081.01
3011.29
3014.69
2649.6
2443.67
2118.3
1959.61
1723.37
1599.45
1432.11
1351.3
1244.37
1199.4
1128.82
1099.65
1051.58
1026.49
985.552
956.456
916.617
882.909
843.329
809.508
775.657
747.732
721.874
700.504
681.777
665.541
650.986
636.859
623.925
610.171
597.466
583.384
570.434
556.199
542.983
529.307
516.01
504.134
491.633
483.486
476.158
458.886
428.212
560.284
683.825
719.086
691.663
646.917
606.959
580.405
566.413
560.304
558.333
558.821
560.839
564.285
568.742
574.492
581.094
589.092
597.875
608.339
619.552
632.93
646.989
663.948
681.437
702.942
724.644
752.072
779.098
814.573
848.701
895.642
939.52
1003.24
1061.68
1151.6
1232.69
1365.17
1484.13
1685.85
1858.65
2153.97
2375.14
2753.82
2964.27
3364.3
3553.52
4143.75
4580.71
5194.44
5679.96
4826.37
6348
4213.42
3054.95
2985.92
2991.04
2633.78
2433.51
2112.27
1955.85
1720.83
1597.58
1430.99
1350.67
1244.13
1199.34
1128.82
1099.63
1051.48
1026.34
985.419
956.367
916.602
882.98
843.471
809.705
775.884
747.976
722.121
700.739
681.981
665.712
651.118
636.953
623.977
610.189
597.442
583.327
570.324
556.047
542.763
529.028
515.651
503.692
491.11
482.851
475.433
458.241
427.341
557.446
679.853
715.855
689.93
646.392
607.137
580.899
567.001
560.889
558.883
559.33
561.313
564.729
569.163
574.896
581.486
589.478
598.257
608.723
619.94
633.327
647.397
664.372
681.878
703.408
725.134
752.598
779.657
815.177
849.35
896.356
940.3
1004.12
1062.66
1152.72
1233.94
1366.6
1485.65
1687.49
1860.27
2155.57
2376.59
2755.17
2965.77
3366.1
3555.7
4143.76
4577.71
5181.85
5658.15
4788.03
6259.67
4158.86
3025.04
2957.7
2965.52
2616.9
2422.69
2105.79
1951.75
1718.03
1595.5
1429.69
1349.89
1243.76
1199.17
1128.73
1099.51
1051.31
1026.12
985.221
956.219
916.533
883.001
843.567
809.86
776.071
748.184
722.335
700.944
682.16
665.86
651.229
637.028
624.011
610.191
597.403
583.255
570.2
555.881
542.529
528.736
515.278
503.237
490.576
482.206
474.699
457.589
426.481
554.641
675.924
712.657
688.218
645.874
607.316
581.392
567.586
561.469
559.429
559.836
561.783
565.169
569.58
575.295
581.873
589.857
598.632
609.1
620.32
633.716
647.795
664.785
682.307
703.86
725.609
753.105
780.195
815.759
849.972
897.04
941.046
1004.96
1063.59
1153.79
1235.13
1367.95
1487.08
1689.03
1861.77
2157.04
2377.88
2756.34
2967.06
3367.66
3557.57
4143.45
4574.28
5168.86
5635.73
4748.7
6166.86
4099.55
2991.34
2926.72
2938.24
2599.03
2411.25
2098.9
1947.34
1714.98
1593.22
1428.23
1348.98
1243.27
1198.89
1128.54
1099.32
1051.07
1025.83
984.961
956.014
916.409
882.971
843.616
809.971
776.218
748.357
722.517
701.122
682.314
665.985
651.319
637.084
624.028
610.176
597.348
583.168
570.061
555.7
542.281
528.429
514.892
502.769
490.029
481.548
473.955
456.928
425.632
551.868
672.036
709.494
686.526
645.366
607.496
581.881
568.167
562.046
559.971
560.338
562.248
565.605
569.991
575.689
582.254
590.23
599.001
609.469
620.692
634.095
648.183
665.186
682.722
704.297
726.068
753.594
780.713
816.317
850.568
897.694
941.758
1005.76
1064.48
1154.81
1236.25
1369.23
1488.43
1690.48
1863.15
2158.38
2379.02
2757.35
2968.14
3369
3559.14
4142.84
4570.45
5155.52
5612.79
4708.53
6069.94
4035.68
2953.94
2893.1
2909.31
2580.25
2399.25
2091.62
1942.64
1711.7
1590.77
1426.6
1347.93
1242.66
1198.51
1128.27
1099.05
1050.76
1025.48
984.641
955.755
916.235
882.894
843.62
810.042
776.328
748.494
722.667
701.271
682.443
666.088
651.389
637.122
624.028
610.146
597.278
583.066
569.908
555.505
542.019
528.108
514.492
502.287
489.47
480.879
473.199
456.256
424.794
549.127
668.19
706.365
684.854
644.865
607.677
582.368
568.744
562.619
560.508
560.836
562.71
566.036
570.398
576.078
582.629
590.597
599.363
609.831
621.055
634.465
648.56
665.576
683.125
704.72
726.51
754.066
781.21
816.853
851.138
898.318
942.436
1006.53
1065.33
1155.78
1237.32
1370.44
1489.69
1691.82
1864.42
2159.59
2380
2758.19
2969.02
3370.13
3560.44
4141.94
4566.26
5141.89
5589.41
4667.66
5969.3
3967.46
2912.95
2856.98
2878.86
2560.66
2386.77
2084.02
1937.69
1708.22
1588.15
1424.84
1346.76
1241.95
1198.04
1127.92
1098.71
1050.38
1025.07
984.265
955.446
916.012
882.772
843.581
810.073
776.401
748.598
722.788
701.394
682.548
666.169
651.44
637.141
624.011
610.099
597.192
582.95
569.741
555.296
541.743
527.773
514.078
501.791
488.896
480.196
472.431
455.574
423.966
546.417
664.384
703.268
683.201
644.373
607.859
582.852
569.317
563.187
561.042
561.33
563.167
566.463
570.801
576.462
582.998
590.958
599.718
610.185
621.41
634.825
648.927
665.955
683.515
705.128
726.936
754.519
781.688
817.366
851.682
898.913
943.08
1007.25
1066.13
1156.7
1238.33
1371.58
1490.87
1693.07
1865.57
2160.67
2380.84
2758.88
2969.71
3371.05
3561.47
4140.79
4561.73
5128.02
5565.67
4626.23
5865.35
3895.15
2868.51
2818.49
2847.02
2540.34
2373.85
2076.12
1932.51
1704.56
1585.4
1422.94
1345.48
1241.14
1197.49
1127.49
1098.3
1049.94
1024.61
983.837
955.088
915.742
882.606
843.502
810.065
776.438
748.669
722.88
701.492
682.631
666.23
651.471
637.144
623.978
610.038
597.093
582.819
569.56
555.073
541.454
527.424
513.651
501.281
488.309
479.5
471.651
454.88
423.148
543.737
660.618
700.205
681.569
643.888
608.041
583.334
569.886
563.752
561.571
561.819
563.62
566.885
571.198
576.84
583.362
591.313
600.067
610.532
621.757
635.176
649.283
666.322
683.892
705.522
727.346
754.954
782.145
817.856
852.201
899.48
943.691
1007.94
1066.88
1157.56
1239.27
1372.65
1491.97
1694.23
1866.62
2161.63
2381.54
2759.41
2970.22
3371.78
3562.25
4139.4
4556.92
5113.95
5541.65
4584.4
5758.54
3819.03
2820.78
2777.8
2813.93
2519.4
2360.57
2067.96
1927.13
1700.74
1582.51
1420.93
1344.11
1240.24
1196.86
1127
1097.83
1049.45
1024.09
983.36
954.685
915.43
882.399
843.384
810.022
776.442
748.71
722.944
701.565
682.691
666.271
651.486
637.13
623.93
609.962
596.979
582.674
569.365
554.836
541.151
527.062
513.21
500.757
487.709
478.791
470.857
454.174
422.341
541.088
656.891
697.174
679.955
643.412
608.224
583.812
570.452
564.312
562.097
562.304
564.068
567.303
571.59
577.213
583.721
591.661
600.408
610.871
622.096
635.518
649.629
666.677
684.257
705.902
727.741
755.372
782.582
818.324
852.695
900.017
944.27
1008.59
1067.6
1158.38
1240.16
1373.65
1492.99
1695.29
1867.55
2162.48
2382.1
2759.81
2970.55
3372.34
3562.81
4137.8
4551.85
5099.74
5517.43
4542.29
5649.32
3739.4
2769.95
2735.08
2779.74
2497.92
2346.98
2059.6
1921.59
1696.78
1579.53
1418.82
1342.65
1239.26
1196.15
1126.43
1097.3
1048.9
1023.53
982.84
954.242
915.078
882.155
843.229
809.945
776.414
748.722
722.982
701.615
682.731
666.294
651.483
637.101
623.868
609.872
596.852
582.517
569.158
554.587
540.835
526.686
512.755
500.219
487.095
478.069
470.051
453.455
421.543
538.469
653.204
694.176
678.361
642.943
608.408
584.288
571.013
564.868
562.618
562.785
564.512
567.716
571.978
577.581
584.073
592.003
600.743
611.202
622.426
635.851
649.966
667.022
684.609
706.269
728.12
755.773
783
818.771
853.164
900.528
944.817
1009.21
1068.27
1159.15
1240.99
1374.59
1493.94
1696.27
1868.39
2163.21
2382.53
2760.07
2970.73
3372.73
3563.16
4136.01
4546.55
5085.43
5493.09
4500.06
5538.16
3656.61
2716.23
2690.54
2744.6
2476.01
2333.14
2051.07
1915.92
1692.72
1576.45
1416.62
1341.11
1238.21
1195.38
1125.82
1096.73
1048.31
1022.93
982.279
953.762
914.689
881.875
843.041
809.836
776.356
748.707
722.995
701.643
682.751
666.299
651.464
637.057
623.792
609.769
596.713
582.347
568.939
554.325
540.507
526.297
512.288
499.669
486.468
477.333
469.231
452.725
420.755
535.879
649.556
691.21
676.786
642.482
608.592
584.762
571.571
565.42
563.134
563.262
564.952
568.124
572.361
577.944
584.42
592.339
601.071
611.527
622.748
636.176
650.292
667.356
684.949
706.622
728.485
756.157
783.4
819.197
853.611
901.011
945.335
1009.79
1068.91
1159.88
1241.77
1375.47
1494.81
1697.17
1869.14
2163.84
2382.85
2760.2
2970.76
3372.97
3563.32
4134.05
4541.08
5071.09
5468.71
4457.84
5425.54
3571.01
2659.84
2644.36
2708.66
2453.76
2319.13
2042.41
1910.14
1688.56
1573.31
1414.36
1339.51
1237.09
1194.56
1125.15
1096.11
1047.68
1022.29
981.684
953.249
914.267
881.563
842.822
809.699
776.272
748.667
722.986
701.651
682.754
666.287
651.43
637
623.703
609.654
596.562
582.166
568.708
554.051
540.168
525.896
511.809
499.105
485.829
476.585
468.398
451.982
419.976
533.318
645.947
688.275
675.229
642.028
608.777
585.232
572.124
565.967
563.647
563.734
565.387
568.528
572.739
578.302
584.762
592.669
601.392
611.844
623.062
636.491
650.609
667.679
685.278
706.962
728.835
756.525
783.782
819.603
854.034
901.469
945.823
1010.34
1069.5
1160.56
1242.5
1376.28
1495.62
1697.99
1869.79
2164.37
2383.05
2760.22
2970.66
3373.08
3563.31
4131.96
4535.45
5056.74
5444.36
4415.76
5311.95
3482.98
2601.03
2596.76
2672.08
2431.28
2305
2033.67
1904.28
1684.34
1570.11
1412.03
1337.86
1235.93
1193.69
1124.44
1095.45
1047.01
1021.62
981.057
952.706
913.816
881.222
842.575
809.534
776.162
748.603
722.956
701.641
682.739
666.261
651.383
636.929
623.602
609.527
596.4
581.973
568.467
553.766
539.818
525.483
511.319
498.53
485.177
475.825
467.553
451.227
419.207
530.786
642.376
685.372
673.691
641.582
608.962
585.699
572.673
566.51
564.154
564.201
565.818
568.927
573.112
578.654
585.097
592.993
601.707
612.154
623.369
636.798
650.917
667.992
685.595
707.29
729.171
756.878
784.147
819.99
854.436
901.903
946.284
1010.86
1070.06
1161.2
1243.18
1377.05
1496.35
1698.74
1870.36
2164.81
2383.16
2760.13
2970.43
3373.07
3563.16
4129.74
4529.71
5042.44
5420.11
4373.96
5197.85
3392.9
2540.07
2547.97
2635.03
2408.64
2290.81
2024.88
1898.38
1680.08
1566.88
1409.66
1336.17
1234.72
1192.78
1123.69
1094.76
1046.31
1020.92
980.405
952.139
913.339
880.856
842.303
809.346
776.029
748.518
722.906
701.613
682.71
666.221
651.323
636.848
623.491
609.391
596.228
581.771
568.216
553.471
539.457
525.06
510.818
497.943
484.514
475.053
466.697
450.462
418.447
528.283
638.843
682.501
672.171
641.143
609.148
586.163
573.218
567.049
564.658
564.665
566.244
569.322
573.48
579.001
585.428
593.312
602.016
612.457
623.668
637.097
651.216
668.296
685.902
707.605
729.494
757.216
784.495
820.359
854.818
902.313
946.718
1011.34
1070.59
1161.8
1243.82
1377.76
1497.03
1699.41
1870.85
2165.17
2383.16
2759.95
2970.1
3372.95
3562.87
4127.43
4523.89
5028.22
5396.03
4332.55
5083.73
3301.18
2477.24
2498.2
2597.66
2385.95
2276.61
2016.08
1892.45
1675.79
1563.64
1407.27
1334.46
1233.48
1191.84
1122.91
1094.04
1045.59
1020.2
979.73
951.55
912.84
880.468
842.009
809.137
775.877
748.415
722.84
701.571
682.667
666.168
651.252
636.756
623.37
609.245
596.047
581.56
567.955
553.167
539.087
524.627
510.307
497.346
483.841
474.271
465.829
449.685
417.696
525.808
635.348
679.66
670.669
640.711
609.333
586.624
573.758
567.582
565.157
565.123
566.665
569.712
573.843
579.343
585.753
593.624
602.318
612.754
623.959
637.388
651.506
668.59
686.198
707.91
729.804
757.54
784.827
820.71
855.18
902.702
947.128
1011.8
1071.09
1162.36
1244.41
1378.42
1497.66
1700.02
1871.27
2165.44
2383.09
2759.69
2969.67
3372.75
3562.47
4125.04
4518.01
5014.14
5372.17
4291.65
4970.03
3208.24
2412.84
2447.69
2560.13
2363.29
2262.47
2007.3
1886.53
1671.49
1560.38
1404.86
1332.72
1232.21
1190.87
1122.1
1093.3
1044.86
1019.47
979.039
950.945
912.322
880.06
841.695
808.91
775.707
748.295
722.758
701.514
682.612
666.105
651.171
636.655
623.24
609.09
595.857
581.34
567.687
552.855
538.709
524.185
509.787
496.739
483.158
473.479
464.952
448.899
416.955
523.362
631.89
676.85
669.185
640.285
609.519
587.082
574.294
568.112
565.651
565.578
567.083
570.097
574.202
579.681
586.072
593.931
602.615
613.044
624.244
637.672
651.788
668.874
686.485
708.203
730.103
757.851
785.146
821.045
855.525
903.07
947.515
1012.24
1071.55
1162.89
1244.97
1379.03
1498.23
1700.58
1871.62
2165.65
2382.94
2759.35
2969.17
3372.46
3561.99
4122.6
4512.13
5000.22
5348.61
4251.37
4857.2
3114.47
2347.17
2396.66
2522.59
2340.75
2248.43
1998.59
1880.64
1667.22
1557.15
1402.44
1330.97
1230.93
1189.89
1121.28
1092.55
1044.1
1018.72
978.335
950.327
911.79
879.637
841.366
808.666
775.521
748.161
722.664
701.447
682.547
666.032
651.081
636.546
623.103
608.929
595.661
581.114
567.412
552.535
538.324
523.735
509.259
496.124
482.467
472.679
464.066
448.104
416.223
520.943
628.469
674.07
667.719
639.867
609.705
587.537
574.826
568.636
566.14
566.027
567.495
570.477
574.556
580.013
586.387
594.232
602.906
613.328
624.523
637.948
652.062
669.151
686.762
708.487
730.39
758.149
785.45
821.365
855.852
903.42
947.881
1012.65
1071.99
1163.39
1245.49
1379.61
1498.76
1701.08
1871.92
2165.79
2382.72
2758.95
2968.59
3372.12
3561.43
4120.13
4506.25
4986.49
5325.39
4211.8
4745.65
3020.31
2280.54
2345.35
2485.2
2318.42
2234.54
1989.97
1874.8
1662.97
1553.94
1400.04
1329.23
1229.64
1188.89
1120.45
1091.79
1043.34
1017.97
977.622
949.7
911.247
879.202
841.024
808.41
775.323
748.014
722.558
701.369
682.473
665.952
650.985
636.43
622.959
608.761
595.459
580.881
567.13
552.209
537.932
523.279
508.724
495.502
481.768
471.871
463.172
447.301
415.499
518.552
625.086
671.321
666.27
639.455
609.89
587.988
575.353
569.156
566.625
566.472
567.903
570.853
574.905
580.34
586.696
594.528
603.191
613.606
624.794
638.217
652.329
669.419
687.03
708.76
730.667
758.436
785.742
821.671
856.164
903.752
948.227
1013.04
1072.4
1163.86
1245.98
1380.14
1499.24
1701.54
1872.16
2165.88
2382.45
2758.49
2967.95
3371.72
3560.81
4117.64
4500.41
4973
5302.55
4173.04
4635.78
2926.16
2213.27
2293.98
2448.08
2296.35
2220.85
1981.47
1869.04
1658.78
1550.77
1397.65
1327.5
1228.36
1187.89
1119.61
1091.02
1042.57
1017.21
976.906
949.068
910.696
878.758
840.672
808.144
775.115
747.858
722.443
701.283
682.391
665.864
650.882
636.309
622.81
608.588
595.252
580.643
566.843
551.877
537.535
522.816
508.183
494.873
481.063
471.057
462.271
446.491
414.785
516.189
621.74
668.602
664.839
639.05
610.075
588.435
575.875
569.671
567.105
566.913
568.306
571.225
575.249
580.663
587.001
594.819
603.47
613.878
625.06
638.48
652.589
669.68
687.29
709.025
730.934
758.712
786.022
821.964
856.462
904.067
948.556
1013.4
1072.8
1164.3
1246.44
1380.65
1499.68
1701.95
1872.36
2165.92
2382.14
2757.99
2967.27
3371.29
3560.16
4115.15
4494.63
4959.76
5280.15
4135.16
4527.94
2832.41
2145.67
2242.77
2411.39
2274.64
2207.4
1973.12
1863.37
1654.66
1547.65
1395.3
1325.79
1227.08
1186.9
1118.77
1090.25
1041.81
1016.46
976.189
948.433
910.14
878.307
840.312
807.869
774.898
747.693
722.32
701.19
682.304
665.771
650.774
636.183
622.657
608.411
595.04
580.4
566.553
551.541
537.133
522.349
507.638
494.24
480.353
470.238
461.365
445.675
414.079
513.854
618.43
665.913
663.425
638.65
610.26
588.879
576.393
570.181
567.581
567.348
568.705
571.592
575.589
580.981
587.301
595.105
603.745
614.145
625.32
638.737
652.842
669.934
687.543
709.282
731.192
758.978
786.291
822.245
856.746
904.369
948.869
1013.75
1073.17
1164.73
1246.87
1381.12
1500.1
1702.32
1872.52
2165.92
2381.78
2757.46
2966.56
3370.84
3559.48
4112.68
4488.94
4946.8
5258.22
4098.24
4422.45
2739.46
2078.07
2191.93
2375.24
2253.33
2194.23
1964.95
1857.82
1650.61
1544.6
1392.99
1324.1
1225.81
1185.91
1117.94
1089.49
1041.05
1015.71
975.475
947.801
909.584
877.853
839.948
807.59
774.676
747.523
722.192
701.093
682.212
665.675
650.662
636.054
622.501
608.23
594.825
580.155
566.259
551.202
536.728
521.878
507.089
493.602
479.64
469.415
460.455
444.855
413.382
511.546
615.158
663.255
662.028
638.258
610.445
589.32
576.906
570.687
568.051
567.78
569.1
571.955
575.925
581.295
587.596
595.387
604.014
614.406
625.575
638.988
653.089
670.181
687.788
709.53
731.441
759.236
786.55
822.515
857.019
904.657
949.167
1014.09
1073.52
1165.13
1247.28
1381.57
1500.48
1702.67
1872.65
2165.89
2381.4
2756.9
2965.83
3370.37
3558.8
4110.25
4483.36
4934.14
5236.8
4062.33
4319.62
2647.67
2010.76
2141.67
2339.74
2232.49
2181.36
1956.97
1852.39
1646.66
1541.63
1390.72
1322.45
1224.57
1184.94
1117.12
1088.74
1040.3
1014.97
974.769
947.174
909.03
877.399
839.582
807.308
774.451
747.349
722.06
700.992
682.117
665.575
650.548
635.923
622.343
608.048
594.609
579.907
565.962
550.86
536.321
521.404
506.537
492.962
478.923
468.589
459.542
444.032
412.694
509.265
611.922
660.626
660.647
637.871
610.629
589.757
577.415
571.187
568.517
568.206
569.489
572.313
576.256
581.604
587.887
595.663
604.279
614.663
625.824
639.234
653.331
670.422
688.027
709.772
731.684
759.485
786.801
822.776
857.282
904.933
949.453
1014.41
1073.86
1165.51
1247.67
1381.99
1500.85
1702.98
1872.76
2165.83
2380.99
2756.32
2965.09
3369.9
3558.13
4107.86
4477.9
4921.81
5215.91
4027.48
4219.7
2557.39
1944.04
2092.17
2305.01
2212.17
2168.84
1949.21
1847.11
1642.82
1538.74
1388.52
1320.85
1223.36
1183.99
1116.31
1088
1039.56
1014.25
974.073
946.554
908.48
876.947
839.216
807.025
774.224
747.173
721.926
700.889
682.021
665.474
650.433
635.79
622.183
607.864
594.391
579.658
565.664
550.516
535.912
520.929
505.984
492.32
478.205
467.763
458.629
443.207
412.014
507.011
608.722
658.027
659.284
637.49
610.812
590.19
577.919
571.683
568.979
568.628
569.875
572.667
576.583
581.909
588.174
595.936
604.54
614.915
626.069
639.474
653.567
670.657
688.26
710.008
731.919
759.726
787.043
823.028
857.535
905.2
949.728
1014.72
1074.19
1165.88
1248.04
1382.4
1501.19
1703.28
1872.84
2165.75
2380.57
2755.74
2964.35
3369.44
3557.47
4105.54
4472.58
4909.81
5195.58
3993.74
4122.9
2468.94
1878.2
2043.6
2271.14
2192.42
2156.68
1941.68
1841.98
1639.09
1535.94
1386.38
1319.29
1222.19
1183.07
1115.52
1087.28
1038.84
1013.53
973.39
945.945
907.938
876.499
838.854
806.743
773.998
746.997
721.791
700.785
681.924
665.373
650.317
635.657
622.023
607.68
594.172
579.408
565.366
550.172
535.502
520.452
505.43
491.677
477.487
466.936
457.715
442.382
411.343
504.785
605.559
655.457
657.938
637.115
610.995
590.619
578.418
572.173
569.435
569.046
570.256
573.016
576.906
582.21
588.456
596.204
604.796
615.162
626.308
639.71
653.798
670.887
688.488
710.237
732.148
759.961
787.279
823.273
857.78
905.457
949.993
1015.01
1074.5
1166.24
1248.41
1382.79
1501.51
1703.56
1872.91
2165.66
2380.15
2755.16
2963.62
3368.99
3556.85
4103.28
4467.42
4898.16
5175.82
3961.14
4029.42
2382.62
1813.51
1996.14
2238.22
2173.27
2144.92
1934.4
1837.02
1635.49
1533.23
1384.32
1317.78
1221.05
1182.17
1114.76
1086.58
1038.14
1012.84
972.724
945.35
907.405
876.059
838.496
806.465
773.774
746.822
721.658
700.682
681.828
665.272
650.202
635.525
621.864
607.497
593.954
579.159
565.068
549.828
535.093
519.976
504.876
491.036
476.769
466.111
456.803
441.557
410.681
502.585
602.432
652.917
656.608
636.746
611.176
591.045
578.912
572.659
569.887
569.459
570.633
573.362
577.224
582.506
588.734
596.468
605.048
615.406
626.544
639.941
654.024
671.113
688.71
710.462
732.372
760.19
787.508
823.51
858.018
905.707
950.25
1015.3
1074.81
1166.58
1248.76
1383.16
1501.83
1703.82
1872.97
2165.55
2379.73
2754.58
2962.91
3368.57
3556.26
4101.11
4462.44
4886.87
5156.66
3929.7
3939.39
2298.69
1750.2
1949.91
2206.31
2154.77
2133.56
1927.38
1832.23
1632.01
1530.64
1382.33
1316.34
1219.95
1181.3
1114.02
1085.9
1037.46
1012.17
972.076
944.769
906.885
875.627
838.145
806.193
773.554
746.65
721.526
700.581
681.733
665.173
650.089
635.394
621.707
607.315
593.738
578.91
564.771
549.484
534.684
519.502
504.324
490.395
476.054
465.289
455.893
440.734
410.027
500.413
599.342
650.406
655.294
636.383
611.358
591.466
579.401
573.14
570.334
569.867
571.005
573.703
577.539
582.799
589.009
596.728
605.296
615.645
626.776
640.168
654.247
671.334
688.929
710.682
732.59
760.414
787.732
823.742
858.25
905.95
950.501
1015.58
1075.11
1166.92
1249.1
1383.53
1502.14
1704.08
1873.03
2165.45
2379.32
2754.02
2962.22
3368.19
3555.73
4099.03
4457.63
4875.95
5138.1
3899.43
3852.92
2217.37
1688.51
1905.04
2175.48
2136.92
2122.62
1920.62
1827.63
1628.67
1528.15
1380.42
1314.95
1218.9
1180.47
1113.31
1085.25
1036.81
1011.52
971.449
944.206
906.378
875.207
837.803
805.927
773.34
746.483
721.398
700.483
681.642
665.076
649.978
635.266
621.551
607.135
593.523
578.663
564.476
549.143
534.278
519.029
503.774
489.757
475.341
464.47
454.988
439.914
409.382
498.267
596.288
647.925
653.997
636.025
611.538
591.884
579.885
573.616
570.776
570.271
571.373
574.04
577.85
583.088
589.279
596.984
605.54
615.881
627.004
640.392
654.465
671.551
689.143
710.897
732.805
760.633
787.951
823.969
858.477
906.188
950.747
1015.86
1075.4
1167.25
1249.43
1383.89
1502.44
1704.33
1873.08
2165.35
2378.92
2753.48
2961.56
3367.84
3555.25
4097.04
4453
4865.4
5120.14
3870.34
3770.08
2138.88
1628.64
1861.64
2145.78
2119.77
2112.11
1914.15
1823.21
1625.48
1525.77
1378.59
1313.63
1217.9
1179.68
1112.63
1084.63
1036.18
1010.9
970.844
943.663
905.887
874.798
837.47
805.669
773.132
746.32
721.274
700.389
681.554
664.983
649.87
635.14
621.399
606.957
593.31
578.419
564.183
548.804
533.874
518.558
503.228
489.123
474.632
463.656
454.088
439.098
408.745
496.148
593.269
645.474
652.717
635.674
611.717
592.298
580.365
574.087
571.213
570.671
571.737
574.373
578.157
583.373
589.546
597.237
605.781
616.113
627.228
640.612
654.68
671.765
689.353
711.109
733.015
760.848
788.167
824.192
858.7
906.422
950.988
1016.13
1075.69
1167.57
1249.76
1384.25
1502.74
1704.58
1873.14
2165.26
2378.53
2752.96
2960.94
3367.54
3554.84
4095.15
4448.57
4855.21
5102.79
3842.44
3690.93
2063.36
1570.75
1819.81
2117.24
2103.31
2102.04
1907.95
1818.98
1622.43
1523.51
1376.86
1312.38
1216.95
1178.93
1111.99
1084.03
1035.58
1010.31
970.263
943.139
905.413
874.403
837.15
805.421
772.932
746.165
721.156
700.3
681.47
664.893
649.765
635.018
621.249
606.783
593.101
578.177
563.893
548.468
533.474
518.091
502.685
488.493
473.928
462.847
453.194
438.288
408.117
494.055
590.287
643.051
651.453
635.327
611.895
592.708
580.84
574.552
571.646
571.066
572.097
574.702
578.46
583.655
589.81
597.487
606.018
616.342
627.45
640.828
654.892
671.975
689.56
711.317