/*--------------------------------*- C++ -*----------------------------------*\
| =========                 |                                                 |
| \\      /  F ield         | OpenFOAM: The Open Source CFD Toolbox           |
|  \\    /   O peration     | Version:  2412                                  |
|   \\  /    A nd           | Website:  www.openfoam.com                      |
|    \\/     M anipulation  |                                                 |
\*---------------------------------------------------------------------------*/
FoamFile
{
    version     2.0;
    format      ascii;
    arch        "LSB;label=32;scalar=64";
    class       volScalarField;
    location    "0.2";
    object      k;
}
// * * * * * * * * * * * * * * * * * * * * * * * * * * * * * * * * * * * * * //

dimensions      [0 2 -2 0 0 0 0];

internalField   nonuniform List<scalar> 
13068
(
41.2842
49.0489
54.0361
53.7103
51.1657
48.871
47.3456
46.5198
46.1639
46.0497
46.0491
46.1235
46.2491
46.43
46.6489
46.9212
47.225
47.5871
47.9769
48.4371
48.9212
49.4955
50.0867
50.797
51.5118
52.3889
53.248
54.3342
55.3665
56.7259
57.9769
59.7055
61.2342
63.4722
65.393
68.3761
70.8667
74.9737
78.3598
84.1071
88.5554
96.1288
101.122
109.763
113.687
121.928
125.026
136.922
144.578
156.356
164.381
150.273
172.993
128.009
105.751
109.151
111.967
104.849
101.275
93.4913
90.0378
83.7792
80.7797
75.927
73.7786
70.4855
69.2684
66.9938
66.2217
64.6317
63.886
62.4549
61.4764
60.0279
58.812
57.3319
56.0834
54.8069
53.7588
52.7697
51.9554
51.2374
50.6044
50.0344
49.4641
48.9462
48.3689
47.847
47.2388
46.6993
46.0764
45.5185
44.9224
44.3506
43.8548
43.3082
43.0237
42.742
41.7952
41.2311
48.9073
53.8741
53.605
51.1289
48.8769
47.3701
46.5495
46.1933
46.077
46.0743
46.1468
46.2708
46.4505
46.6686
46.9401
47.2436
47.6056
47.9954
48.4559
48.9403
49.5151
50.1069
50.8181
51.5338
52.4122
53.2725
54.3603
55.3942
56.7556
58.0087
59.7401
61.2717
63.5136
65.4385
68.4265
70.9222
75.0344
78.4243
84.174
88.6231
96.1946
101.187
109.826
113.763
122.011
125.134
136.986
144.616
156.238
164.183
149.873
172.437
127.826
105.782
109.091
111.831
104.758
101.221
93.4761
90.0425
83.7903
80.7927
75.9516
73.8068
70.5187
69.3001
67.023
66.2464
64.6522
63.903
62.4711
61.4922
60.045
58.8306
57.3521
56.1045
54.8283
53.7799
52.7898
51.9739
51.2537
50.6186
50.0463
49.4738
48.9537
48.3745
47.8505
47.2406
46.6982
46.0733
45.5117
44.9127
44.3363
43.836
43.2846
42.9932
42.7064
41.764
41.1783
48.7665
53.7133
53.5008
51.093
48.8834
47.3949
46.5794
46.2228
46.1045
46.0997
46.1702
46.2927
46.4712
46.6883
46.9593
47.2624
47.6242
48.014
48.4747
48.9595
49.5348
50.1272
50.8393
51.556
52.4355
53.297
54.3864
55.4219
56.7853
58.0404
59.7746
61.3091
63.5547
65.4836
68.4767
70.9772
75.0946
78.488
84.2401
88.6899
96.2594
101.251
109.887
113.836
122.092
125.238
137.046
144.647
156.111
163.97
149.443
171.801
127.563
105.748
108.977
111.658
104.643
101.151
93.449
90.038
83.794
80.7996
75.9711
73.8309
70.5485
69.329
67.0498
66.269
64.6707
63.9181
62.4857
61.5065
60.0609
58.8482
57.3713
56.1248
54.8489
53.8002
52.8093
51.9918
51.2696
50.6324
50.0579
49.4832
48.9609
48.38
47.8537
47.2422
46.6971
46.0702
45.5049
44.9029
44.3221
43.8173
43.2613
42.9631
42.6712
41.7333
41.126
48.6268
53.5535
53.3973
51.0576
48.89
47.4196
46.6093
46.2522
46.132
46.1249
46.1936
46.3146
46.4918
46.708
46.9784
47.2811
47.6427
48.0325
48.4935
48.9785
49.5544
50.1474
50.8603
51.5779
52.4586
53.3213
54.4122
55.4493
56.8146
58.0717
59.8085
61.3458
63.5951
65.5279
68.5258
71.0311
75.1535
78.5503
84.3046
88.7547
96.3222
101.313
109.946
113.906
122.169
125.335
137.099
144.668
155.974
163.741
148.983
171.082
127.218
105.644
108.809
111.446
104.503
101.063
93.4092
90.0233
83.7896
80.7997
75.9848
73.8501
70.5742
69.3545
67.0736
66.2888
64.6866
63.931
62.4983
61.5191
60.0751
58.8642
57.3891
56.1438
54.8682
53.8194
52.8277
52.0089
51.2847
50.6455
50.0688
49.4921
48.9676
48.385
47.8566
47.2435
46.6957
46.0667
45.4978
44.8929
44.3077
43.7985
43.2379
42.9332
42.6364
41.7029
41.0742
48.4882
53.3949
53.2946
51.0225
48.8967
47.4442
46.6389
46.2815
46.1592
46.1501
46.2169
46.3363
46.5123
46.7276
46.9973
47.2996
47.6611
48.0509
48.512
48.9974
49.5737
50.1673
50.881
51.5994
52.4812
53.3452
54.4376
55.4761
56.8433
58.1022
59.8417
61.3817
63.6346
65.5711
68.5737
71.0835
75.2108
78.6106
84.3669
88.817
96.3822
101.371
110.001
113.971
122.24
125.426
137.145
144.679
155.825
163.495
148.491
170.279
126.787
105.468
108.585
111.195
104.338
100.957
93.3567
89.9985
83.7768
80.7928
75.9923
73.8643
70.5955
69.3762
67.0941
66.3057
64.6999
63.9413
62.5085
61.5295
60.0875
58.8786
57.4054
56.1613
54.8862
53.8374
52.8451
52.0249
51.2989
50.6578
50.079
49.5003
48.9737
48.3895
47.859
47.2443
46.6938
46.0628
45.4904
44.8826
44.293
43.7795
43.2144
42.9033
42.6017
41.6727
41.0229
48.3507
53.2372
53.1925
50.9877
48.9033
47.4687
46.6684
46.3106
46.1863
46.1751
46.24
46.3579
46.5327
46.7471
47.0161
47.318
47.6793
48.069
48.5303
49.0159
49.5928
50.1869
50.9013
51.6205
52.5035
53.3685
54.4623
55.5022
56.8712
58.132
59.8739
61.4165
63.6729
65.6131
68.6202
71.1342
75.2661
78.6688
84.4268
88.8765
96.4393
101.426
110.052
114.032
122.307
125.51
137.183
144.68
155.666
163.233
147.97
169.392
126.268
105.22
108.304
110.904
104.147
100.834
93.2915
89.9635
83.7557
80.7789
75.9938
73.8734
70.6124
69.3942
67.1114
66.3196
64.7103
63.949
62.5163
61.5378
60.0978
58.8911
57.42
56.1773
54.9028
53.854
52.8612
52.0399
51.3121
50.6692
50.0884
49.5078
48.9792
48.3933
47.8608
47.2445
46.6914
46.0584
45.4825
44.8718
44.278
43.7601
43.1907
42.8733
42.567
41.6426
40.9721
48.2144
53.0806
53.0911
50.9531
48.9099
47.493
46.6977
46.3395
46.2133
46.1999
46.263
46.3793
46.5529
46.7663
47.0347
47.3361
47.6972
48.0869
48.5483
49.0342
49.6115
50.2061
50.9212
51.6412
52.5252
53.3912
54.4865
55.5277
56.8984
58.1609
59.9052
61.4503
63.71
65.6536
68.6651
71.1831
75.3195
78.7246
84.4843
88.9331
96.4933
101.477
110.1
114.088
122.368
125.587
137.214
144.671
155.496
162.955
147.421
168.422
125.66
104.896
107.967
110.576
103.933
100.694
93.2141
89.9187
83.7266
80.7583
75.9892
73.8775
70.6249
69.4084
67.1253
66.3305
64.718
63.954
62.5216
61.5439
60.1062
58.9018
57.4328
56.1916
54.9178
53.8693
52.8761
52.0538
51.3244
50.6797
50.0969
49.5145
48.9839
48.3965
47.8619
47.2442
46.6884
46.0535
45.4741
44.8606
44.2625
43.7404
43.1668
42.8431
42.5323
41.6124
40.9217
48.0791
52.925
52.9903
50.9188
48.9165
47.5171
46.7268
46.3682
46.24
46.2246
46.2858
46.4005
46.5729
46.7854
47.0531
47.354
47.7149
48.1045
48.566
49.0521
49.6298
50.2249
50.9407
51.6614
52.5463
53.4134
54.5099
55.5524
56.9248
58.1889
59.9355
61.4829
63.7459
65.6927
68.7084
71.2302
75.3708
78.778
84.5391
88.9867
96.5441
101.525
110.143
114.138
122.424
125.656
137.238
144.652
155.315
162.661
146.844
167.369
124.962
104.498
107.574
110.21
103.696
100.539
93.125
89.8644
83.6896
80.731
75.9787
73.8766
70.633
69.4188
67.136
66.3383
64.7229
63.9565
62.5246
61.5478
60.1125
58.9106
57.4439
56.2042
54.9313
53.8831
52.8897
52.0665
51.3355
50.6892
50.1046
49.5205
48.9879
48.399
47.8625
47.2432
46.6849
46.048
45.4651
44.8489
44.2466
43.7203
43.1424
42.8127
42.4974
41.5822
40.8719
47.9448
52.7704
52.8901
50.8848
48.9231
47.5411
46.7556
46.3967
46.2666
46.249
46.3084
46.4216
46.5927
46.8042
47.0713
47.3717
47.7323
48.1218
48.5834
49.0697
49.6477
50.2432
50.9597
51.681
52.5669
53.4349
54.5327
55.5764
56.9504
58.216
59.9648
61.5143
63.7804
65.7303
68.7501
71.2753
75.42
78.829
84.5912
89.0372
96.5915
101.568
110.183
114.184
122.474
125.719
137.254
144.624
155.126
162.354
146.241
166.237
124.176
104.023
107.126
109.808
103.437
100.368
93.0246
89.801
83.6451
80.6975
75.9626
73.871
70.6369
69.4256
67.1433
66.3432
64.725
63.9565
62.5252
61.5495
60.1167
58.9175
57.4532
56.2153
54.9432
53.8955
52.902
52.078
51.3457
50.6978
50.1115
49.5256
48.9912
48.4008
47.8623
47.2416
46.6807
46.0419
45.4556
44.8365
44.2301
43.6996
43.1176
42.7819
42.4622
41.5518
40.8225
47.8115
52.6167
52.7905
50.851
48.9296
47.5649
46.7843
46.425
46.2929
46.2733
46.3308
46.4424
46.6123
46.8229
47.0892
47.3891
47.7495
48.1388
48.6005
49.0869
49.6653
50.2612
50.9783
51.7002
52.587
53.4558
54.5548
55.5996
56.9751
58.242
59.9929
61.5446
63.8136
65.7664
68.79
71.3185
75.4669
78.8774
84.6406
89.0845
96.6357
101.608
110.219
114.225
122.52
125.775
137.264
144.586
154.928
162.034
145.615
165.028
123.3
103.473
106.623
109.371
103.156
100.183
92.9137
89.7292
83.5936
80.658
75.941
73.8608
70.6367
69.4289
67.1476
66.3453
64.7245
63.954
62.5234
61.5492
60.119
58.9225
57.4607
56.2246
54.9536
53.9064
52.913
52.0884
51.3548
50.7055
50.1174
49.53
48.9937
48.4019
47.8616
47.2394
46.6759
46.0352
45.4456
44.8236
44.2131
43.6784
43.0923
42.7507
42.4267
41.521
40.7735
47.6792
52.464
52.6915
50.8174
48.9361
47.5885
46.8127
46.453
46.3191
46.2974
46.353
46.4631
46.6317
46.8413
47.1069
47.4063
47.7663
48.1555
48.6172
49.1038
49.6825
50.2787
50.9963
51.7188
52.6064
53.4761
54.5762
55.622
56.9989
58.2671
60.02
61.5735
63.8455
65.8009
68.8282
71.3596
75.5117
78.9233
84.6873
89.1286
96.6766
101.644
110.25
114.261
122.56
125.824
137.267
144.541
154.722
161.702
144.967
163.744
122.337
102.849
106.067
108.901
102.856
99.9843
92.7929
89.6493
83.5353
80.6129
75.9143
73.8463
70.6325
69.4287
67.1487
66.3446
64.7214
63.9491
62.5194
61.5467
60.1192
58.9257
57.4665
56.2324
54.9625
53.916
52.9227
52.0977
51.3628
50.7122
50.1226
49.5336
48.9955
48.4024
47.8601
47.2365
46.6705
46.0279
45.4349
44.8101
44.1955
43.6567
43.0665
42.719
42.3908
41.4899
40.725
47.5479
52.3122
52.5932
50.7841
48.9426
47.612
46.841
46.4809
46.345
46.3213
46.375
46.4836
46.651
46.8595
47.1244
47.4232
47.7829
48.1719
48.6337
49.1202
49.6992
50.2957
51.0139
51.7369
52.6253
53.4956
54.5969
55.6436
57.0218
58.2912
60.0459
61.6013
63.8759
65.8339
68.8647
71.3988
75.5542
78.9666
84.7312
89.1696
96.7141
101.676
110.278
114.292
122.595
125.866
137.265
144.487
154.509
161.359
144.3
162.392
121.289
102.15
105.459
108.4
102.538
99.7738
92.663
89.5619
83.4709
80.5626
75.8828
73.8277
70.6246
69.4252
67.1469
66.3412
64.7158
63.9419
62.5132
61.5423
60.1176
58.9271
57.4706
56.2385
54.9698
53.9242
52.9312
52.1058
51.3699
50.718
50.1268
49.5364
48.9966
48.4021
47.858
47.233
46.6645
46.0199
45.4235
44.796
44.1773
43.6343
43.0401
42.6868
42.3544
41.4584
40.6769
47.4175
52.1614
52.4955
50.7511
48.9491
47.6353
46.869
46.5086
46.3708
46.345
46.3969
46.5038
46.67
46.8775
47.1416
47.4399
47.7993
48.188
48.6497
49.1364
49.7156
50.3123
51.031
51.7544
52.6435
53.5145
54.6168
55.6643
57.0438
58.3143
60.0708
61.6278
63.905
65.8653
68.8994
71.436
75.5945
79.0074
84.7723
89.2074
96.7484
101.705
110.302
114.319
122.626
125.903
137.256
144.425
154.289
161.007
143.616
160.973
120.158
101.379
104.803
107.869
102.204
99.5521
92.5247
89.4677
83.4006
80.5075
75.8467
73.8052
70.613
69.4186
67.1423
66.3353
64.7079
63.9326
62.5049
61.5359
60.1141
58.9268
57.473
56.2431
54.9757
53.931
52.9384
52.1129
51.3759
50.7229
50.1303
49.5384
48.997
48.4011
47.8552
47.2288
46.6579
46.0113
45.4116
44.7812
44.1584
43.6113
43.0131
42.654
42.3175
41.4264
40.6292
47.288
52.0114
52.3983
50.7183
48.9555
47.6585
46.8969
46.5361
46.3964
46.3685
46.4185
46.5239
46.6888
46.8953
47.1586
47.4563
47.8153
48.2038
48.6655
49.1521
49.7315
50.3285
51.0475
51.7714
52.6611
53.5328
54.636
55.6843
57.0649
58.3364
60.0945
61.653
63.9327
65.8951
68.9324
71.4711
75.6326
79.0456
84.8106
89.2421
96.7794
101.729
110.322
114.341
122.652
125.934
137.242
144.357
154.065
160.647
142.916
159.495
118.946
100.538
104.1
107.31
101.854
99.3204
92.3788
89.3673
83.3251
80.448
75.8063
73.7791
70.5981
69.4091
67.135
66.327
64.6977
63.9211
62.4946
61.5277
60.1088
58.9248
57.4738
56.2461
54.9801
53.9365
52.9445
52.1188
51.381
50.7269
50.1329
49.5396
48.9966
48.3995
47.8518
47.224
46.6506
46.0021
45.399
44.7657
44.1389
43.5876
42.9854
42.6206
42.2799
41.3939
40.582
47.1595
51.8624
52.3018
50.6857
48.962
47.6815
46.9246
46.5633
46.4217
46.3918
46.44
46.5438
46.7073
46.9128
47.1754
47.4725
47.8311
48.2193
48.6809
49.1675
49.7471
50.3442
51.0636
51.7878
52.6782
53.5504
54.6544
55.7034
57.0851
58.3575
60.1171
61.677
63.959
65.9234
68.9636
71.5043
75.6684
79.0813
84.8463
89.2737
96.8073
101.751
110.339
114.359
122.674
125.959
137.223
144.283
153.835
160.279
142.204
157.961
117.658
99.6294
103.353
106.727
101.49
99.08
92.2262
89.2613
83.2449
80.3845
75.7622
73.7497
70.5801
69.3968
67.1252
66.3165
64.6854
63.9077
62.4825
61.5178
60.1018
58.9211
57.4731
56.2477
54.9832
53.9407
52.9494
52.1237
51.3851
50.73
50.1347
49.5402
48.9956
48.3972
47.8477
47.2185
46.6427
45.9922
45.3858
44.7496
44.1188
43.5632
42.9571
42.5866
42.2418
41.3608
40.5352
47.0318
51.7142
52.2059
50.6534
48.9684
47.7044
46.952
46.5904
46.4469
46.4149
46.4612
46.5635
46.7257
46.9301
47.1919
47.4883
47.8465
48.2345
48.6959
49.1825
49.7622
50.3594
51.0792
51.8037
52.6946
53.5673
54.6721
55.7217
57.1044
58.3776
60.1386
61.6997
63.9839
65.9501
68.9931
71.5355
75.7022
79.1146
84.8794
89.3024
96.8321
101.768
110.352
114.372
122.692
125.979
137.2
144.202
153.602
159.906
141.482
156.378
116.298
98.656
102.564
106.121
101.115
98.8318
92.0678
89.1504
83.1604
80.3176
75.7145
73.7172
70.5592
69.382
67.113
66.3039
64.6711
63.8926
62.4686
61.5062
60.0932
58.9159
57.4708
56.2479
54.9849
53.9436
52.9531
52.1276
51.3884
50.7323
50.1358
49.54
48.9939
48.3942
47.843
47.2124
46.6342
45.9817
45.372
44.7328
44.0981
43.5382
42.9282
42.5519
42.203
41.3272
40.4888
46.9051
51.567
52.1106
50.6213
48.9748
47.7271
46.9793
46.6172
46.4718
46.4378
46.4823
46.5829
46.7439
46.9472
47.2081
47.504
47.8617
48.2493
48.7107
49.1971
49.7769
50.3742
51.0943
51.819
52.7104
53.5835
54.6891
55.7392
57.1229
58.3967
60.159
61.7213
64.0076
65.9754
69.021
71.5648
75.7338
79.1455
84.9099
89.3281
96.854
101.783
110.362
114.382
122.707
125.994
137.172
144.117
153.366
159.529
140.752
154.752
114.871
97.6212
101.738
105.496
100.73
98.5773
91.9043
89.0353
83.0723
80.2475
75.6637
73.6821
70.5356
69.3648
67.0987
66.2893
64.6551
63.8757
62.453
61.4932
60.0831
58.9093
57.4672
56.2467
54.9854
53.9454
52.9558
52.1306
51.3907
50.7338
50.1362
49.5392
48.9915
48.3907
47.8378
47.2058
46.6251
45.9706
45.3576
44.7155
44.0767
43.5125
42.8986
42.5165
42.1635
41.2929
40.4427
46.7793
51.4207
52.0158
50.5895
48.9812
47.7497
47.0063
46.6439
46.4966
46.4605
46.5031
46.6022
46.7618
46.9641
47.2242
47.5193
47.8766
48.2639
48.725
49.2114
49.7912
50.3886
51.1089
51.8338
52.7257
53.5991
54.7054
55.756
57.1405
58.4149
60.1784
61.7416
64.0299
65.9992
69.0472
71.5923
75.7634
79.1741
84.9379
89.3511
96.873
101.794
110.369
114.389
122.717
126.005
137.141
144.027
153.127
159.148
140.016
153.09
113.38
96.5288
100.878
104.853
100.336
98.3176
91.7367
88.9166
82.981
80.1749
75.6102
73.6446
70.5096
69.3455
67.0825
66.273
64.6374
63.8574
62.436
61.4787
60.0716
58.9013
57.4622
56.2443
54.9846
53.9461
52.9575
52.1326
51.3922
50.7346
50.1358
49.5377
48.9886
48.3866
47.8319
47.1985
46.6154
45.959
45.3426
44.6975
44.0547
43.4862
42.8683
42.4805
42.1234
41.258
40.3971
46.6543
51.2752
51.9217
50.5579
48.9875
47.7721
47.0332
46.6703
46.5211
46.483
46.5238
46.6212
46.7795
46.9807
47.24
47.5344
47.8912
48.2781
48.7391
49.2253
49.8051
50.4025
51.123
51.8481
52.7403
53.6141
54.721
55.772
57.1573
58.4322
60.1967
61.7609
64.051
66.0215
69.0719
71.618
75.791
79.2004
84.9636
89.3715
96.8893
101.802
110.373
114.391
122.725
126.011
137.106
143.934
152.887
158.765
139.278
151.398
111.833
95.3829
99.9867
104.196
99.9356
98.0538
91.5657
88.795
82.8872
80.1001
75.5543
73.605
70.4815
69.3243
67.0644
66.2551
64.6182
63.8377
62.4176
61.4629
60.0588
58.8921
57.456
56.2408
54.9828
53.9458
52.9583
52.1338
51.393
50.7346
50.1349
49.5356
48.985
48.3819
47.8256
47.1908
46.6052
45.9467
45.3271
44.6789
44.0321
43.4593
42.8374
42.4439
42.0826
41.2225
40.3519
46.5302
51.1307
51.8282
50.5266
48.9939
47.7944
47.0599
46.6965
46.5455
46.5053
46.5442
46.6401
46.7971
46.9972
47.2555
47.5492
47.9056
48.2921
48.7528
49.2388
49.8186
50.416
51.1367
51.8618
52.7545
53.6285
54.7359
55.7872
57.1732
58.4485
60.2141
61.779
64.0709
66.0426
69.0951
71.642
75.8167
79.2247
84.987
89.3893
96.9031
101.808
110.375
114.391
122.73
126.014
137.069
143.837
152.647
158.382
138.539
149.682
110.234
94.188
99.0688
103.527
99.5304
97.7872
91.3923
88.6712
82.7913
80.0236
75.4965
73.5636
70.4516
69.3014
67.0448
66.2358
64.5978
63.8168
62.398
61.4461
60.0448
58.8817
57.4487
56.2361
54.9799
53.9445
52.9581
52.1343
51.393
50.734
50.1333
49.5329
48.981
48.3767
47.8187
47.1825
46.5945
45.934
45.311
44.6597
44.0089
43.4317
42.8059
42.4066
42.0412
41.1864
40.307
46.407
50.9871
51.7353
50.4955
49.0002
47.8165
47.0863
46.7225
46.5696
46.5274
46.5644
46.6587
46.8144
47.0133
47.2708
47.5638
47.9196
48.3057
48.7662
49.252
49.8318
50.4291
51.1499
51.8751
52.768
53.6423
54.7502
55.8018
57.1884
58.464
60.2305
61.7961
64.0896
66.0623
69.1168
71.6644
75.8407
79.247
85.0082
89.4048
96.9145
101.811
110.374
114.388
122.732
126.013
137.029
143.738
152.407
157.998
137.802
147.95
108.59
92.9489
98.1281
102.85
99.1221
97.5188
91.2173
88.5457
82.6939
79.9459
75.4371
73.5208
70.4201
69.2771
67.0238
66.2153
64.5762
63.7948
62.3774
61.4282
60.0298
58.8703
57.4403
56.2305
54.9761
53.9423
52.9572
52.1339
51.3924
50.7328
50.1311
49.5298
48.9764
48.371
47.8113
47.1737
46.5834
45.9207
45.2945
44.64
43.9852
43.4035
42.7738
42.3687
41.9992
41.1497
40.2625
46.2847
50.8443
51.643
50.4647
49.0065
47.8385
47.1126
46.7483
46.5935
46.5493
46.5845
46.6771
46.8314
47.0293
47.2859
47.5782
47.9334
48.319
48.7793
49.2648
49.8445
50.4418
51.1627
51.8879
52.7811
53.6555
54.7638
55.8156
57.2029
58.4787
60.246
61.8122
64.1072
66.0808
69.1372
71.6853
75.863
79.2673
85.0275
89.4181
96.9237
101.811
110.37
114.383
122.732
126.01
136.987
143.636
152.168
157.616
137.068
146.209
106.907
91.6706
97.1687
102.166
98.7122
97.2498
91.0413
88.4193
82.5955
79.8673
75.3765
73.4769
70.3873
69.2515
67.0016
66.1938
64.5536
63.772
62.3559
61.4094
60.0138
58.8579
57.4311
56.224
54.9714
53.9393
52.9555
52.133
51.3912
50.7311
50.1285
49.5261
48.9714
48.3649
47.8036
47.1646
46.5718
45.907
45.2774
44.6199
43.961
43.3749
42.7412
42.3303
41.9565
41.1124
40.2185
46.1633
50.7025
51.5514
50.4341
49.0128
47.8603
47.1386
46.7739
46.6172
46.5709
46.6043
46.6954
46.8483
47.045
47.3007
47.5922
47.9469
48.3321
48.792
49.2773
49.857
50.4541
51.1751
51.9003
52.7937
53.6682
54.7769
55.8289
57.2166
58.4926
60.2607
61.8274
64.1238
66.0982
69.1564
71.7048
75.8836
79.286
85.0449
89.4294
96.9309
101.809
110.365
114.375
122.729
126.004
136.943
143.534
151.93
157.237
136.341
144.464
105.193
90.3585
96.1947
101.479
98.3024
96.9813
90.8653
88.2924
82.4966
79.7883
75.315
73.4321
70.3534
69.225
66.9785
66.1715
64.5303
63.7485
62.3336
61.3899
59.997
58.8448
57.421
56.2167
54.966
53.9356
52.9532
52.1314
51.3895
50.7288
50.1254
49.5221
48.966
48.3584
47.7954
47.155
46.5598
45.8929
45.26
44.5992
43.9363
43.3457
42.7081
42.2913
41.9134
41.0746
40.1748
46.0428
50.5617
51.4603
50.4037
49.019
47.8819
47.1644
46.7992
46.6407
46.5924
46.6239
46.7134
46.865
47.0605
47.3153
47.6061
47.9602
48.3449
48.8045
49.2895
49.869
50.466
51.187
51.9122
52.8058
53.6803
54.7894
55.8415
57.2297
58.5058
60.2746
61.8416
64.1395
66.1145
69.1743
71.7229
75.9029
79.303
85.0606
89.4388
96.9362
101.806
110.358
114.365
122.725
125.996
136.898
143.43
151.694
156.861
135.622
142.723
103.452
89.0182
95.2103
100.792
97.8942
96.7143
90.69
88.1657
82.3977
79.7093
75.2531
73.3868
70.3188
69.1977
66.9546
66.1485
64.5064
63.7245
62.3107
61.3699
59.9796
58.831
57.4102
56.2087
54.9598
53.9313
52.9502
52.1293
51.3872
50.7261
50.1219
49.5176
48.9603
48.3515
47.7869
47.145
46.5474
45.8784
45.2422
44.5782
43.9112
43.316
42.6744
42.2519
41.8697
41.0363
40.1315
45.9232
50.4217
51.3698
50.3735
49.0252
47.9034
47.19
46.8244
46.664
46.6136
46.6433
46.7312
46.8814
47.0758
47.3297
47.6197
47.9732
48.3574
48.8167
49.3014
49.8808
50.4776
51.1986
51.9237
52.8174
53.692
54.8014
55.8535
57.2422
58.5184
60.2877
61.8551
64.1542
66.1298
69.1911
71.7397
75.9207
79.3185
85.0747
89.4465
96.9399
101.801
110.35
114.353
122.72
125.986
136.852
143.326
151.461
156.489
134.912
140.992
101.693
87.6553
94.2196
100.107
97.4891
96.4496
90.5159
88.0397
82.2991
79.6307
75.191
73.3412
70.2837
69.1699
66.9302
66.125
64.482
63.7
62.2874
61.3493
59.9616
58.8166
57.3988
56.2001
54.9531
53.9263
52.9468
52.1267
51.3846
50.7231
50.118
49.5129
48.9542
48.3443
47.7781
47.1348
46.5348
45.8636
45.224
44.5567
43.8857
43.286
42.6404
42.212
41.8255
40.9975
40.0885
45.8044
50.2827
51.28
50.3436
49.0314
47.9247
47.2154
46.8493
46.687
46.6347
46.6625
46.7487
46.8976
47.0909
47.3438
47.6331
47.986
48.3697
48.8286
49.3131
49.8922
50.4889
51.2099
51.9349
52.8287
53.7033
54.8129
55.865
57.254
58.5302
60.3001
61.8678
64.1681
66.1442
69.2069
71.7555
75.9374
79.3327
85.0873
89.4528
96.942
101.794
110.34
114.34
122.714
125.975
136.806
143.222
151.232
156.122
134.214
139.277
99.923
86.2755
93.2268
99.4268
97.0884
96.1883
90.3438
87.9149
82.2014
79.5527
75.1291
73.2957
70.2483
69.1418
66.9054
66.1012
64.4573
63.6753
62.2638
61.3285
59.9432
58.8017
57.3869
56.1911
54.946
53.921
52.9429
52.1238
51.3816
50.7197
50.1138
49.5078
48.9479
48.3369
47.769
47.1243
46.5218
45.8485
45.2056
44.535
43.8599
43.2556
42.606
42.1717
41.781
40.9584
40.046
45.6866
50.1446
51.1908
50.314
49.0375
47.9458
47.2406
46.8739
46.7098
46.6555
46.6815
46.7661
46.9136
47.1058
47.3577
47.6462
47.9985
48.3817
48.8403
49.3244
49.9034
50.4998
51.2208
51.9456
52.8395
53.7141
54.824
55.876
57.2654
58.5415
60.3119
61.8798
64.1813
66.1578
69.2218
71.7703
75.9529
79.3457
85.0988
89.4577
96.9429
101.786
110.329
114.326
122.706
125.962
136.759
143.12
151.006
155.761
133.529
137.584
98.1476
84.8847
92.2357
98.7534
96.6934
95.931
90.1743
87.7917
82.1049
79.4758
75.0677
73.2504
70.2129
69.1135
66.8803
66.0773
64.4325
63.6506
62.24
61.3074
59.9245
58.7865
57.3746
56.1816
54.9384
53.9152
52.9386
52.1205
51.3783
50.716
50.1094
49.5025
48.9413
48.3292
47.7597
47.1135
46.5087
45.8331
45.1869
44.513
43.8339
43.2249
42.5714
42.1312
41.7361
40.9189
40.0038
45.5696
50.0075
51.1022
50.2845
49.0436
47.9668
47.2655
46.8984
46.7324
46.6761
46.7003
46.7833
46.9295
47.1205
47.3715
47.6591
48.0108
48.3935
48.8517
49.3355
49.9143
50.5104
51.2313
51.9561
52.85
53.7245
54.8346
55.8866
57.2763
58.5523
60.3231
61.8912
64.1937
66.1706
69.2359
71.7841
75.9674
79.3577
85.1091
89.4615
96.9427
101.777
110.317
114.311
122.698
125.949
136.713
143.018
150.785
155.407
132.858
135.917
96.3741
83.4887
91.2502
98.0893
96.3052
95.6786
90.0078
87.6707
82.01
79.4002
75.0071
73.2057
70.1777
69.0853
66.8553
66.0533
64.4077
63.6258
62.2161
61.2863
59.9057
58.7711
57.3621
56.1719
54.9305
53.9092
52.9341
52.117
51.3747
50.7121
50.1048
49.4971
48.9346
48.3214
47.7502
47.1026
46.4953
45.8176
45.168
44.4907
43.8076
43.194
42.5364
42.0904
41.6909
40.8791
39.962
45.4536
49.8713
51.0143
50.2553
49.0497
47.9875
47.2903
46.9226
46.7548
46.6965
46.7188
46.8003
46.9451
47.1349
47.385
47.6718
48.0229
48.4051
48.8629
49.3463
49.9249
50.5208
51.2416
51.9662
52.8602
53.7345
54.8448
55.8967
57.2867
58.5626
60.3337
61.902
64.2056
66.1828
69.2492
71.7971
75.981
79.3687
85.1184
89.4643
96.9416
101.767
110.304
114.296
122.689
125.936
136.667
142.917
150.568
155.06
132.204
134.282
94.6091
82.0933
90.274
97.4366
95.925
95.4317
89.8449
87.5521
81.917
79.3263
74.9475
73.1617
70.1428
69.0573
66.8304
66.0296
64.3831
63.6013
62.1924
61.2651
59.8867
58.7555
57.3494
56.1619
54.9224
53.9029
52.9293
52.1133
51.371
50.7081
50.1
49.4915
48.9277
48.3134
47.7406
47.0915
46.4818
45.8018
45.1489
44.4683
43.7811
43.1628
42.5013
42.0494
41.6456
40.8391
39.9206
45.3385
49.7361
50.927
50.2264
49.0557
48.0081
47.3148
46.9465
46.7769
46.7166
46.7372
46.8171
46.9605
47.1492
47.3983
47.6844
48.0348
48.4164
48.8738
49.3569
49.9352
50.5309
51.2516
51.976
52.87
53.7443
54.8547
55.9065
57.2967
58.5725
60.3439
61.9123
64.2169
66.1944
69.2619
71.8095
75.9939
79.3789
85.1269
89.4664
96.9397
101.757
110.292
114.28
122.681
125.922
136.622
142.819
150.357
154.72
131.565
132.683
92.8587
80.7041
89.3106
96.7971
95.5537
95.191
89.6861
87.4363
81.8262
79.2542
74.8891
73.1186
70.1086
69.0297
66.8058
66.0061
64.3588
63.577
62.1689
61.2442
59.8678
58.7399
57.3366
56.1519
54.9141
53.8964
52.9244
52.1094
51.3672
50.7039
50.0952
49.4858
48.9207
48.3054
47.7309
47.0803
46.4682
45.786
45.1297
44.4457
43.7545
43.1315
42.466
42.0082
41.6001
40.7989
39.8796
45.2243
49.6019
50.8403
50.1976
49.0616
48.0285
47.339
46.9703
46.7988
46.7366
46.7554
46.8336
46.9757
47.1633
47.4114
47.6967
48.0465
48.4276
48.8846
49.3672
49.9454
50.5408
51.2614
51.9855
52.8796
53.7537
54.8642
55.9159
57.3063
58.5819
60.3537
61.9221
64.2277
66.2054
69.274
71.8212
76.0061
79.3884
85.1346
89.4678
96.9372
101.746
110.278
114.264
122.672
125.908
136.577
142.722
150.15
154.389
130.945
131.123
91.1292
79.3265
88.3631
96.1726
95.192
94.9568
89.5316
87.3236
81.7379
79.1842
74.8323
73.0766
70.0751
69.0026
66.7816
65.983
64.3349
63.5532
62.1457
61.2234
59.849
58.7243
57.3238
56.1418
54.9058
53.8899
52.9194
52.1054
51.3633
50.6997
50.0903
49.48
48.9137
48.2972
47.7211
47.069
46.4546
45.7701
45.1105
44.4231
43.7278
43.1002
42.4306
41.967
41.5545
40.7586
39.8389
45.111
49.4686
50.7543
50.1691
49.0675
48.0488
47.3631
46.9938
46.8205
46.7564
46.7733
46.85
46.9908
47.1772
47.4244
47.7088
48.058
48.4385
48.8951
49.3774
49.9553
50.5504
51.2709
51.9949
52.8889
53.7629
54.8735
55.9251
57.3156
58.5911
60.3631
61.9316
64.2381
66.216
69.2856
71.8325
76.0178
79.3974
85.1419
89.4687
96.9343
101.735
110.265
114.247
122.664
125.895
136.534
142.629
149.949
154.065
130.343
129.607
89.426
77.9657
87.4345
95.5645
94.8408
94.7298
89.3818
87.2143
81.6523
79.1164
74.7771
73.0359
70.0425
68.9763
66.758
65.9605
64.3115
63.5298
62.1229
61.2031
59.8304
58.7089
57.311
56.1317
54.8975
53.8833
52.9144
52.1015
51.3594
50.6954
50.0853
49.4742
48.9067
48.2891
47.7113
47.0578
46.4409
45.7541
45.0912
44.4004
43.7011
43.0688
42.3953
41.9258
41.5088
40.7183
39.7986
44.9987
49.3364
50.669
50.1409
49.0734
48.0688
47.3869
47.017
46.842
46.7759
46.7911
46.8662
47.0056
47.1909
47.4371
47.7208
48.0693
48.4493
48.9055
49.3874
49.965
50.5599
51.2802
52.004
52.898
53.7718
54.8825
55.9339
57.3247
58.5999
60.3722
61.9408
64.2481
66.2263
69.2969
71.8433
76.029
79.406
85.1487
89.4693
96.9311
101.724
110.252
114.232
122.656
125.883
136.492
142.537
149.754
153.751
129.76
128.137
87.7545
76.6266
86.5275
94.9741
94.5006
94.5101
89.2371
87.1086
81.5697
79.0512
74.7237
72.9966
70.011
68.9507
66.7351
65.9386
64.2887
63.5071
62.1006
61.1831
59.8122
58.6937
57.2985
56.1218
54.8893
53.8769
52.9094
52.0975
51.3555
50.6912
50.0804
49.4685
48.8997
48.281
47.7016
47.0465
46.4272
45.7382
45.0719
44.3777
43.6743
43.0374
42.3599
41.8846
41.4633
40.678
39.7588
44.8873
49.2052
50.5843
50.1129
49.0792
48.0886
47.4104
47.0401
46.8632
46.7952
46.8086
46.8822
47.0203
47.2044
47.4497
47.7325
48.0805
48.4598
48.9157
49.3971
49.9746
50.5691
51.2893
52.0128
52.9068
53.7805
54.8913
55.9425
57.3334
58.6085
60.3811
61.9497
64.2579
66.2362
69.3078
71.8538
76.0398
79.4143
85.1552
89.4697
96.9278
101.713
110.239
114.216
122.648
125.871
136.452
142.449
149.565
153.445
129.196
126.715
86.1195
75.3138
85.6445
94.4026
94.1719
94.2983
89.0975
87.0067
81.4901
78.9885
74.6724
72.9589
69.9807
68.9261
66.7129
65.9174
64.2667
63.485
62.079
61.1636
59.7943
58.6788
57.2861
56.112
54.8812
53.8705
52.9045
52.0936
51.3517
50.6871
50.0755
49.4628
48.8928
48.2729
47.6919
47.0353
46.4136
45.7223
45.0527
44.3551
43.6477
43.0061
42.3246
41.8436
41.4179
40.6378
39.7193
44.7768
49.075
50.5003
50.0851
49.0849
48.1083
47.4338
47.0629
46.8843
46.8143
46.826
46.898
47.0347
47.2177
47.4621
47.7441
48.0914
48.4703
48.9257
49.4068
49.9839
50.5782
51.2983
52.0216
52.9155
53.789
54.8999
55.951
57.342
58.6168
60.3897
61.9583
64.2674
66.246
69.3184
71.864
76.0504
79.4223
85.1614
89.47
96.9244
101.702
110.226
114.201
122.641
125.86
136.413
142.364
149.382
153.149
128.653
125.343
84.5252
74.0314
84.7874
93.8508
93.8552
94.0943
88.9634
86.9087
81.4137
78.9285
74.6231
72.9229
69.9516
68.9025
66.6916
65.897
64.2454
63.4637
62.058
61.1447
59.7769
58.6643
57.2741
56.1025
54.8733
53.8642
52.8997
52.0899
51.348
50.683
50.0708
49.4572
48.8859
48.2649
47.6822
47.0241
46.4
45.7064
45.0336
44.3325
43.6211
42.9748
42.2895
41.8027
41.3726
40.5977
39.6802
44.6674
48.9458
50.417
50.0576
49.0906
48.1278
47.4569
47.0854
46.9051
46.8332
46.8431
46.9136
47.049
47.2309
47.4743
47.7556
48.1022
48.4805
48.9355
49.4162
49.9931
50.5871
51.3071
52.0301
52.924
53.7973
54.9083
55.9592
57.3504
58.625
60.3981
61.9668
64.2768
66.2555
69.3289
71.8741
76.0607
79.4303
85.1676
89.4704
96.9212
101.692
110.214
114.187
122.635
125.851
136.376
142.282
149.204
152.861
128.129
124.022
82.9756
72.7831
83.958
93.3194
93.5507
93.8986
88.8348
86.8147
81.3406
78.8713
74.5761
72.8886
69.9239
68.88
66.6712
65.8775
64.225
63.4433
62.0377
61.1264
59.76
58.6502
57.2624
56.0933
54.8657
53.8582
52.895
52.0863
51.3444
50.6791
50.0661
49.4518
48.8792
48.2571
47.6727
47.013
46.3865
45.6907
45.0146
44.3101
43.5947
42.9438
42.2545
41.762
41.3276
40.5578
39.6415
44.5588
48.8177
50.3343
50.0303
49.0963
48.147
47.4797
47.1077
46.9256
46.8519
46.8601
46.929
47.0632
47.2439
47.4864
47.7669
48.1129
48.4906
48.9452
49.4255
50.0022
50.5959
51.3157
52.0385
52.9324
53.8055
54.9165
55.9673
57.3587
58.633
60.4064
61.9751
64.286
66.2649
69.3392
71.8841
76.071
79.4382
85.1738
89.471
96.9182
101.682
110.202
114.174
122.63
125.842
136.341
142.204
149.033
152.583
127.624
122.753
81.4737
71.5723
83.1577
92.8089
93.2585
93.711
88.7118
86.7249
81.271
78.8169
74.5314
72.8561
69.8977
68.8586
66.6519
65.859
64.2055
63.4237
62.0182
61.1088
59.7436
58.6366
57.2511
56.0844
54.8583
53.8524
52.8906
52.0828
51.341
50.6753
50.0617
49.4465
48.8726
48.2493
47.6633
47.0021
46.3732
45.6751
44.9957
44.2878
43.5685
42.9129
42.2198
41.7216
41.2828
40.5181
39.6031
44.4513
48.6906
50.2524
50.0032
49.1019
48.1661
47.5023
47.1298
46.946
46.8704
46.8768
46.9443
47.0771
47.2567
47.4983
47.778
48.1234
48.5006
48.9548
49.4347
50.0111
50.6045
51.3242
52.0468
52.9406
53.8136
54.9247