/*--------------------------------*- C++ -*----------------------------------*\
| =========                 |                                                 |
| \\      /  F ield         | OpenFOAM: The Open Source CFD Toolbox           |
|  \\    /   O peration     | Version:  2412                                  |
|   \\  /    A nd           | Website:  www.openfoam.com                      |
|    \\/     M anipulation  |                                                 |
\*---------------------------------------------------------------------------*/
FoamFile
{
    version     2.0;
    format      ascii;
    arch        "LSB;label=32;scalar=64";
    class       volScalarField;
    location    "0.2";
    object      nut;
}
// * * * * * * * * * * * * * * * * * * * * * * * * * * * * * * * * * * * * * //

dimensions      [0 2 -1 0 0 0 0];

internalField   nonuniform List<scalar> 
13068
(
0.350552
0.366597
0.361956
0.34461
0.331759
0.329341
0.333326
0.33853
0.342286
0.34433
0.345329
0.345889
0.34629
0.346677
0.347054
0.347482
0.34791
0.348412
0.348905
0.349504
0.350075
0.350792
0.351448
0.352308
0.353054
0.354089
0.354927
0.356185
0.357124
0.358676
0.359733
0.361676
0.362849
0.365317
0.366661
0.369828
0.371369
0.375487
0.377325
0.382508
0.384329
0.390259
0.391242
0.397054
0.396036
0.401486
0.400453
0.409248
0.410592
0.415986
0.415728
0.396137
0.388397
0.329067
0.320127
0.34529
0.360117
0.361878
0.369548
0.366321
0.369463
0.364764
0.365934
0.362152
0.3631
0.360588
0.361516
0.359339
0.360181
0.358513
0.358581
0.356911
0.356379
0.354747
0.35377
0.352211
0.351315
0.350264
0.349639
0.348948
0.348495
0.348076
0.347627
0.347226
0.346674
0.34626
0.345573
0.345111
0.344323
0.343834
0.343037
0.342505
0.341838
0.34123
0.340936
0.340335
0.340706
0.340731
0.338379
0.350445
0.366468
0.362
0.344913
0.332204
0.329742
0.333587
0.338665
0.342348
0.344361
0.345349
0.345905
0.346305
0.346692
0.34707
0.347499
0.347927
0.34843
0.348924
0.349523
0.350095
0.350813
0.35147
0.352331
0.353078
0.354115
0.354954
0.356214
0.357154
0.358708
0.359766
0.361712
0.362887
0.365358
0.366704
0.369874
0.371418
0.375537
0.377374
0.382553
0.384372
0.390295
0.391277
0.397084
0.396086
0.401534
0.400524
0.409262
0.410602
0.415881
0.415611
0.395786
0.387743
0.328464
0.31957
0.344762
0.359757
0.361761
0.369513
0.366342
0.369485
0.364773
0.365946
0.362184
0.363127
0.360622
0.36154
0.359358
0.360193
0.35852
0.358588
0.356923
0.356392
0.354764
0.353789
0.352231
0.351334
0.350282
0.349656
0.348963
0.348507
0.348086
0.347635
0.34723
0.346676
0.346261
0.345572
0.345107
0.344318
0.343825
0.343025
0.342486
0.341815
0.341199
0.340899
0.340291
0.340651
0.340676
0.338352
0.350336
0.366336
0.362043
0.345214
0.332646
0.330138
0.333845
0.338799
0.34241
0.344391
0.345368
0.345921
0.34632
0.346708
0.347086
0.347516
0.347944
0.348448
0.348943
0.349543
0.350116
0.350835
0.351493
0.352355
0.353103
0.354141
0.354981
0.356242
0.357184
0.35874
0.3598
0.361748
0.362925
0.365399
0.366748
0.369921
0.371466
0.375586
0.377422
0.382598
0.384414
0.39033
0.391312
0.397113
0.396134
0.40158
0.400591
0.409274
0.410608
0.415772
0.415489
0.395416
0.387048
0.32779
0.31895
0.34421
0.3594
0.361659
0.369489
0.366371
0.369511
0.364785
0.365959
0.362216
0.363155
0.360656
0.361563
0.359377
0.360204
0.358527
0.358596
0.356934
0.356405
0.354782
0.353807
0.35225
0.351353
0.3503
0.349673
0.348978
0.348519
0.348095
0.347642
0.347235
0.346679
0.346261
0.345571
0.345103
0.344313
0.343815
0.343013
0.342467
0.341793
0.341169
0.340861
0.340248
0.340596
0.340621
0.338325
0.350225
0.366201
0.362082
0.345512
0.333084
0.330531
0.3341
0.33893
0.34247
0.344421
0.345387
0.345937
0.346336
0.346723
0.347102
0.347532
0.347962
0.348466
0.348962
0.349563
0.350136
0.350856
0.351515
0.352378
0.353127
0.354167
0.355007
0.356271
0.357213
0.358771
0.359832
0.361782
0.362962
0.365439
0.36679
0.369966
0.371513
0.375633
0.377468
0.38264
0.384454
0.390362
0.391344
0.39714
0.396178
0.401623
0.400655
0.409283
0.410609
0.41566
0.41536
0.395028
0.386311
0.327043
0.318263
0.343633
0.359046
0.361573
0.369475
0.366407
0.369539
0.3648
0.365973
0.362247
0.363183
0.36069
0.361586
0.359395
0.360215
0.358533
0.358602
0.356945
0.356417
0.354798
0.353824
0.352269
0.351371
0.350317
0.349689
0.348992
0.348531
0.348104
0.347649
0.347239
0.346681
0.346261
0.34557
0.345099
0.344308
0.343804
0.343001
0.342448
0.34177
0.341138
0.340823
0.340205
0.340542
0.340566
0.338297
0.350113
0.366063
0.362118
0.345807
0.333517
0.330919
0.334352
0.33906
0.34253
0.34445
0.345405
0.345953
0.346351
0.346738
0.347118
0.347549
0.347978
0.348484
0.34898
0.349582
0.350156
0.350877
0.351536
0.352401
0.35315
0.354192
0.355033
0.356298
0.357241
0.358801
0.359863
0.361816
0.362998
0.365478
0.366831
0.370009
0.371558
0.375679
0.377512
0.382681
0.384491
0.390393
0.391373
0.397164
0.396219
0.401663
0.400714
0.409288
0.410606
0.415543
0.415225
0.394622
0.385532
0.32622
0.31751
0.343033
0.358697
0.361504
0.369473
0.366451
0.369571
0.364816
0.365988
0.362278
0.363211
0.360722
0.361608
0.359412
0.360224
0.358537
0.358607
0.356954
0.356429
0.354814
0.35384
0.352287
0.351388
0.350334
0.349704
0.349006
0.348543
0.348113
0.347655
0.347243
0.346683
0.34626
0.345569
0.345095
0.344302
0.343794
0.342989
0.342429
0.341747
0.341107
0.340786
0.340162
0.340487
0.340511
0.33827
0.35
0.365921
0.362151
0.346097
0.333947
0.331303
0.334601
0.339189
0.34259
0.344479
0.345423
0.345968
0.346365
0.346753
0.347133
0.347565
0.347995
0.348501
0.348998
0.3496
0.350175
0.350897
0.351557
0.352423
0.353173
0.354216
0.355058
0.356324
0.357269
0.35883
0.359894
0.361849
0.363032
0.365515
0.36687
0.370051
0.371601
0.375723
0.377555
0.382719
0.384526
0.39042
0.3914
0.397186
0.396256
0.401699
0.400768
0.409289
0.410597
0.415422
0.415085
0.3942
0.384714
0.325321
0.316689
0.342412
0.358356
0.361453
0.369482
0.366503
0.369606
0.364834
0.366003
0.362309
0.363238
0.360754
0.36163
0.359429
0.360233
0.358541
0.35861
0.356963
0.356439
0.354829
0.353856
0.352304
0.351405
0.350349
0.349718
0.349019
0.348553
0.348121
0.347661
0.347246
0.346685
0.34626
0.345567
0.34509
0.344296
0.343783
0.342976
0.342409
0.341724
0.341076
0.340747
0.340118
0.340432
0.340456
0.338241
0.349885
0.365777
0.36218
0.346384
0.334371
0.331682
0.334847
0.339317
0.342648
0.344508
0.345442
0.345983
0.34638
0.346768
0.347148
0.34758
0.348011
0.348518
0.349015
0.349619
0.350194
0.350917
0.351578
0.352444
0.353195
0.354239
0.355083
0.35635
0.357295
0.358858
0.359923
0.361881
0.363065
0.365551
0.366908
0.370091
0.371643
0.375765
0.377594
0.382756
0.384559
0.390446
0.391423
0.397204
0.39629
0.401732
0.400817
0.409287
0.410582
0.415297
0.414939
0.393762
0.383858
0.324343
0.315801
0.341771
0.358024
0.361421
0.369503
0.366562
0.369643
0.364855
0.366019
0.362339
0.363265
0.360786
0.361651
0.359444
0.360239
0.358543
0.358613
0.35697
0.356448
0.354843
0.35387
0.35232
0.35142
0.350364
0.349731
0.349032
0.348563
0.348128
0.347666
0.347249
0.346686
0.346258
0.345564
0.345085
0.34429
0.343772
0.342963
0.342389
0.3417
0.341044
0.340709
0.340074
0.340377
0.3404
0.338213
0.349769
0.365629
0.362206
0.346666
0.334792
0.332058
0.335091
0.339443
0.342706
0.344536
0.345459
0.345997
0.346394
0.346782
0.347163
0.347595
0.348027
0.348534
0.349032
0.349636
0.350212
0.350936
0.351597
0.352465
0.353217
0.354261
0.355106
0.356375
0.357321
0.358885
0.359951
0.361911
0.363097
0.365585
0.366944
0.370129
0.371682
0.375804
0.377632
0.382789
0.384588
0.390469
0.391444
0.39722
0.39632
0.401762
0.400862
0.409282
0.410563
0.41517
0.414788
0.39331
0.382968
0.323289
0.314848
0.341115
0.357704
0.36141
0.369537
0.366629
0.369684
0.364877
0.366036
0.362369
0.363292
0.360816
0.36167
0.359459
0.360245
0.358544
0.358614
0.356976
0.356456
0.354855
0.353884
0.352335
0.351434
0.350377
0.349744
0.349043
0.348573
0.348135
0.347671
0.347252
0.346686
0.346256
0.345562
0.345079
0.344283
0.34376
0.342949
0.342368
0.341675
0.341012
0.340669
0.34003
0.340321
0.340343
0.338183
0.349652
0.365479
0.362228
0.346945
0.335208
0.332429
0.335332
0.339567
0.342764
0.344564
0.345477
0.346012
0.346407
0.346796
0.347177
0.34761
0.348042
0.34855
0.349048
0.349653
0.35023
0.350954
0.351616
0.352484
0.353237
0.354283
0.355128
0.356399
0.357345
0.358911
0.359977
0.361939
0.363127
0.365618
0.366978
0.370166
0.371719
0.375842
0.377667
0.382821
0.384615
0.390489
0.391461
0.397233
0.396346
0.401788
0.400901
0.409273
0.410539
0.415039
0.414633
0.392846
0.382047
0.32216
0.313832
0.340447
0.3574
0.361421
0.369584
0.366704
0.369729
0.364902
0.366053
0.362398
0.363319
0.360845
0.361689
0.359472
0.360249
0.358543
0.358614
0.356981
0.356463
0.354867
0.353896
0.352348
0.351447
0.35039
0.349756
0.349054
0.348581
0.348141
0.347675
0.347254
0.346686
0.346254
0.345558
0.345073
0.344276
0.343748
0.342935
0.342347
0.34165
0.340979
0.34063
0.339985
0.340265
0.340286
0.338153
0.349533
0.365325
0.362246
0.34722
0.335619
0.332797
0.33557
0.339691
0.34282
0.344591
0.345494
0.346026
0.346421
0.346809
0.347191
0.347624
0.348057
0.348565
0.349064
0.34967
0.350247
0.350972
0.351634
0.352504
0.353257
0.354304
0.35515
0.356421
0.357368
0.358936
0.360003
0.361967
0.363155
0.365649
0.36701
0.3702
0.371754
0.375877
0.3777
0.38285
0.38464
0.390507
0.391476
0.397243
0.396368
0.401811
0.400937
0.409261
0.41051
0.414906
0.414474
0.392371
0.381102
0.320958
0.312757
0.339772
0.357114
0.361455
0.369644
0.366787
0.369777
0.364929
0.366072
0.362426
0.363345
0.360872
0.361707
0.359484
0.360252
0.358541
0.358612
0.356984
0.356469
0.354877
0.353907
0.352361
0.351459
0.350401
0.349766
0.349064
0.348589
0.348146
0.347678
0.347255
0.346686
0.346251
0.345554
0.345067
0.344268
0.343735
0.34292
0.342325
0.341625
0.340946
0.340589
0.339939
0.340208
0.340229
0.338122
0.349414
0.365167
0.36226
0.347491
0.336026
0.33316
0.335805
0.339812
0.342876
0.344618
0.345511
0.346039
0.346434
0.346823
0.347204
0.347638
0.348071
0.34858
0.349079
0.349686
0.350263
0.350989
0.351652
0.352522
0.353276
0.354324
0.35517
0.356443
0.357391
0.358959
0.360027
0.361993
0.363182
0.365678
0.367041
0.370233
0.371787
0.37591
0.37773
0.382877
0.384661
0.390522
0.391487
0.397251
0.396387
0.401832
0.400967
0.409246
0.410477
0.414771
0.414312
0.391888
0.380136
0.319688
0.311627
0.339095
0.356851
0.361515
0.36972
0.366878
0.369828
0.364959
0.366091
0.362454
0.363371
0.360899
0.361724
0.359495
0.360254
0.358538
0.35861
0.356986
0.356474
0.354886
0.353917
0.352372
0.35147
0.350411
0.349776
0.349073
0.348597
0.348151
0.347681
0.347256
0.346684
0.346248
0.34555
0.345059
0.34426
0.343721
0.342904
0.342303
0.341598
0.340912
0.340548
0.339893
0.340151
0.340171
0.338091
0.349293
0.365007
0.362271
0.347758
0.336429
0.333519
0.336038
0.339933
0.342932
0.344645
0.345527
0.346053
0.346446
0.346835
0.347217
0.347652
0.348085
0.348595
0.349094
0.349701
0.350279
0.351005
0.351669
0.35254
0.353294
0.354343
0.35519
0.356464
0.357412
0.358981
0.36005
0.362017
0.363208
0.365706
0.36707
0.370264
0.371818
0.375941
0.377758
0.382901
0.38468
0.390535
0.391496
0.397257
0.396403
0.401849
0.400994
0.409228
0.41044
0.414634
0.414148
0.391399
0.379156
0.318354
0.310447
0.338422
0.356614
0.3616
0.36981
0.366978
0.369883
0.364991
0.366112
0.362482
0.363397
0.360925
0.36174
0.359506
0.360255
0.358534
0.358606
0.356987
0.356478
0.354893
0.353926
0.352383
0.35148
0.350421
0.349785
0.349082
0.348603
0.348156
0.347683
0.347256
0.346683
0.346244
0.345545
0.345052
0.344251
0.343707
0.342888
0.34228
0.341571
0.340878
0.340507
0.339846
0.340093
0.340111
0.338059
0.349171
0.364844
0.362279
0.348021
0.336827
0.333875
0.336268
0.340052
0.342987
0.344672
0.345543
0.346066
0.346459
0.346848
0.34723
0.347665
0.348098
0.348609
0.349109
0.349716
0.350294
0.351021
0.351685
0.352557
0.353311
0.354361
0.355209
0.356483
0.357432
0.359003
0.360071
0.362041
0.363232
0.365732
0.367097
0.370293
0.371847
0.37597
0.377783
0.382923
0.384696
0.390546
0.391502
0.39726
0.396415
0.401864
0.401016
0.409208
0.4104
0.414496
0.413982
0.390905
0.378169
0.316963
0.309224
0.33776
0.356407
0.361713
0.369915
0.367085
0.369942
0.365026
0.366133
0.362509
0.363423
0.36095
0.361756
0.359515
0.360254
0.358529
0.358601
0.356987
0.35648
0.3549
0.353933
0.352392
0.351488
0.350429
0.349792
0.34909
0.348609
0.348159
0.347685
0.347255
0.34668
0.34624
0.34554
0.345043
0.344241
0.343693
0.342872
0.342256
0.341544
0.340842
0.340464
0.339798
0.340034
0.340051
0.338026
0.349048
0.364678
0.362282
0.34828
0.337221
0.334226
0.336496
0.34017
0.343041
0.344698
0.345559
0.346079
0.346471
0.34686
0.347242
0.347677
0.348111
0.348622
0.349122
0.34973
0.350309
0.351036
0.3517
0.352573
0.353328
0.354378
0.355226
0.356502
0.357451
0.359023
0.360092
0.362062
0.363255
0.365757
0.367123
0.37032
0.371874
0.375997
0.377807
0.382943
0.38471
0.390554
0.391505
0.397261
0.396424
0.401877
0.401034
0.409186
0.410355
0.414358
0.413815
0.390409
0.377181
0.31552
0.307966
0.337115
0.356234
0.361854
0.370036
0.367201
0.370005
0.365063
0.366156
0.362536
0.363448
0.360973
0.36177
0.359523
0.360253
0.358523
0.358595
0.356985
0.356482
0.354905
0.35394
0.3524
0.351496
0.350436
0.349799
0.349097
0.348614
0.348162
0.347686
0.347255
0.346678
0.346235
0.345534
0.345035
0.344231
0.343678
0.342854
0.342232
0.341515
0.340806
0.340421
0.33975
0.339974
0.339991
0.337992
0.348924
0.364508
0.362283
0.348535
0.33761
0.334573
0.336721
0.340287
0.343095
0.344723
0.345575
0.346091
0.346483
0.346872
0.347254
0.34769
0.348124
0.348635
0.349136
0.349744
0.350323
0.351051
0.351715
0.352588
0.353343
0.354395
0.355243
0.35652
0.357468
0.359041
0.360111
0.362083
0.363276
0.36578
0.367146
0.370345
0.371899
0.376021
0.377827
0.382961
0.384721
0.39056
0.391506
0.397259
0.396431
0.401887
0.401049
0.409162
0.410308
0.41422
0.413648
0.389912
0.3762
0.314033
0.30668
0.336494
0.3561
0.362025
0.370172
0.367325
0.370071
0.365102
0.366181
0.362562
0.363473
0.360996
0.361784
0.35953
0.36025
0.358516
0.358588
0.356982
0.356482
0.354909
0.353945
0.352407
0.351502
0.350442
0.349805
0.349103
0.348619
0.348164
0.347686
0.347253
0.346674
0.346229
0.345527
0.345025
0.34422
0.343662
0.342836
0.342208
0.341486
0.34077
0.340377
0.3397
0.339914
0.339929
0.337958
0.348799
0.364336
0.36228
0.348787
0.337995
0.334917
0.336943
0.340402
0.343148
0.344749
0.34559
0.346103
0.346494
0.346883
0.347266
0.347701
0.348136
0.348648
0.349148
0.349757
0.350336
0.351065
0.351729
0.352603
0.353358
0.35441
0.355259
0.356537
0.357485
0.359059
0.360128
0.362102
0.363296
0.365802
0.367168
0.370369
0.371921
0.376044
0.377846
0.382976
0.38473
0.390565
0.391505
0.397256
0.396434
0.401895
0.40106
0.409135
0.410258
0.414082
0.413481
0.389417
0.375233
0.312511
0.305375
0.335906
0.356006
0.362227
0.370325
0.367457
0.370142
0.365145
0.366206
0.362588
0.363498
0.361018
0.361796
0.359536
0.360247
0.358508
0.35858
0.356979
0.356482
0.354912
0.353949
0.352412
0.351508
0.350447
0.34981
0.349108
0.348623
0.348166
0.347686
0.347251
0.346671
0.346223
0.34552
0.345015
0.344209
0.343646
0.342818
0.342182
0.341457
0.340733
0.340332
0.33965
0.339853
0.339866
0.337923
0.348673
0.364161
0.362273
0.349035
0.338376
0.335257
0.337163
0.340517
0.3432
0.344774
0.345605
0.346115
0.346505
0.346894
0.347277
0.347713
0.348148
0.34866
0.349161
0.34977
0.350349
0.351078
0.351743
0.352617
0.353373
0.354425
0.355274
0.356552
0.357501
0.359076
0.360145
0.36212
0.363314
0.365822
0.367189
0.37039
0.371942
0.376065
0.377863
0.38299
0.384737
0.390567
0.391501
0.397251
0.396435
0.401901
0.401068
0.409108
0.410206
0.413944
0.413315
0.388926
0.374287
0.310963
0.304062
0.335359
0.355959
0.36246
0.370493
0.367596
0.370216
0.365189
0.366234
0.362614
0.363523
0.361038
0.361809
0.359541
0.360243
0.358499
0.358571
0.356974
0.356481
0.354913
0.353953
0.352417
0.351512
0.350452
0.349815
0.349113
0.348626
0.348167
0.347686
0.347248
0.346666
0.346217
0.345512
0.345005
0.344197
0.343629
0.342798
0.342156
0.341426
0.340695
0.340286
0.3396
0.339791
0.339803
0.337887
0.348546
0.363983
0.362263
0.349279
0.338753
0.335592
0.337381
0.340629
0.343252
0.344799
0.34562
0.346127
0.346516
0.346905
0.347288
0.347724
0.348159
0.348671
0.349173
0.349782
0.350361
0.351091
0.351756
0.35263
0.353386
0.354439
0.355288
0.356567
0.357516
0.359092
0.360161
0.362137
0.363331
0.365841
0.367208
0.370411
0.371961
0.376084
0.377877
0.383002
0.384742
0.390568
0.391495
0.397245
0.396433
0.401906
0.401073
0.409079
0.410152
0.413808
0.41315
0.38844
0.373371
0.309397
0.30275
0.33486
0.35596
0.362724
0.370677
0.367744
0.370294
0.365237
0.366262
0.36264
0.363548
0.361058
0.36182
0.359546
0.360238
0.358489
0.358562
0.356968
0.356478
0.354914
0.353955
0.352421
0.351515
0.350455
0.349818
0.349117
0.348629
0.348167
0.347684
0.347245
0.346661
0.34621
0.345504
0.344994
0.344184
0.343612
0.342779
0.34213
0.341395
0.340656
0.34024
0.339548
0.339728
0.339739
0.337851
0.348418
0.363802
0.36225
0.349519
0.339125
0.335924
0.337595
0.340741
0.343303
0.344823
0.345635
0.346138
0.346527
0.346915
0.347298
0.347735
0.34817
0.348682
0.349184
0.349794
0.350373
0.351103
0.351768
0.352643
0.353399
0.354453
0.355302
0.356582
0.35753
0.359106
0.360175
0.362152
0.363347
0.365859
0.367225
0.370429
0.371979
0.376101
0.37789
0.383012
0.384744
0.390567
0.391487
0.397237
0.39643
0.401909
0.401075
0.409049
0.410096
0.413673
0.412987
0.387961
0.372491
0.307824
0.301452
0.334417
0.356013
0.36302
0.370877
0.367898
0.370376
0.365286
0.366292
0.362666
0.363573
0.361077
0.361831
0.35955
0.360233
0.358478
0.358551
0.356962
0.356475
0.354913
0.353956
0.352423
0.351518
0.350457
0.349821
0.34912
0.348631
0.348167
0.347682
0.347242
0.346656
0.346202
0.345496
0.344983
0.344171
0.343594
0.342758
0.342103
0.341363
0.340617
0.340193
0.339496
0.339665
0.339674
0.337814
0.34829
0.363619
0.362234
0.349756
0.339494
0.336253
0.337808
0.340851
0.343354
0.344847
0.345649
0.346149
0.346537
0.346926
0.347309
0.347745
0.348181
0.348693
0.349195
0.349805
0.350385
0.351115
0.35178
0.352655
0.353411
0.354465
0.355315
0.356595
0.357543
0.35912
0.360188
0.362167
0.363361
0.365875
0.367241
0.370447
0.371994
0.376117
0.3779
0.38302
0.384745
0.390564
0.391477
0.397228
0.396424
0.401911
0.401075
0.409018
0.410038
0.41354
0.412826
0.387491
0.371655
0.306255
0.300178
0.334038
0.356121
0.363347
0.371091
0.36806
0.370461
0.365338
0.366324
0.362692
0.363598
0.361095
0.361841
0.359553
0.360227
0.358467
0.35854
0.356954
0.356471
0.354911
0.353956
0.352425
0.35152
0.350459
0.349823
0.349123
0.348632
0.348167
0.34768
0.347238
0.34665
0.346194
0.345487
0.344971
0.344158
0.343576
0.342737
0.342075
0.34133
0.340577
0.340145
0.339443
0.339601
0.339608
0.337776
0.34816
0.363433
0.362214
0.349989
0.339858
0.336577
0.338018
0.340961
0.343404
0.344871
0.345663
0.34616
0.346547
0.346935
0.347319
0.347755
0.348191
0.348704
0.349206
0.349816
0.350396
0.351126
0.351791
0.352667
0.353422
0.354477
0.355327
0.356607
0.357555
0.359133
0.360201
0.36218
0.363375
0.36589
0.367256
0.370462
0.372008
0.376131
0.377909
0.383027
0.384744
0.39056
0.391466
0.397218
0.396417
0.401912
0.401072
0.408987
0.40998
0.41341
0.412668
0.387031
0.370869
0.3047
0.298941
0.333732
0.356286
0.363705
0.37132
0.368227
0.37055
0.365393
0.366356
0.362717
0.363623
0.361112
0.361851
0.359555
0.36022
0.358456
0.358529
0.356946
0.356467
0.354909
0.353956
0.352426
0.351521
0.35046
0.349824
0.349125
0.348633
0.348166
0.347677
0.347233
0.346644
0.346186
0.345477
0.344958
0.344144
0.343557
0.342716
0.342047
0.341297
0.340536
0.340096
0.33939
0.339536
0.339542
0.337738
0.34803
0.363244
0.362192
0.350219
0.340217
0.336898
0.338226
0.341068
0.343454
0.344894
0.345677
0.346171
0.346557
0.346945
0.347328
0.347765
0.348201
0.348714
0.349216
0.349826
0.350406
0.351136
0.351802
0.352677
0.353433
0.354489
0.355338
0.356619
0.357567
0.359145
0.360212
0.362193
0.363387
0.365904
0.367269
0.370477
0.372021
0.376143
0.377917
0.383032
0.384741
0.390555
0.391454
0.397207
0.396408
0.401911
0.401068
0.408955
0.409921
0.413281
0.412513
0.386583
0.370139
0.303171
0.297754
0.333505
0.356509
0.364093
0.371563
0.368401
0.370641
0.365449
0.36639
0.362743
0.363648
0.361129
0.36186
0.359557
0.360213
0.358444
0.358517
0.356937
0.356461
0.354905
0.353955
0.352426
0.351521
0.35046
0.349825
0.349126
0.348634
0.348164
0.347674
0.347228
0.346638
0.346177
0.345467
0.344946
0.34413
0.343538
0.342694
0.342018
0.341263
0.340495
0.340047
0.339336
0.339471
0.339474
0.3377
0.347899
0.363053
0.362166
0.350445
0.340573
0.337215
0.338431
0.341175
0.343503
0.344917
0.34569
0.346181
0.346566
0.346954
0.347338
0.347775
0.34821
0.348724
0.349226
0.349836
0.350416
0.351147
0.351812
0.352688
0.353444
0.354499
0.355348
0.35663
0.357577
0.359156
0.360223
0.362204
0.363399
0.365917
0.367281
0.37049
0.372032
0.376155
0.377923
0.383037
0.384737
0.390549
0.39144
0.397195
0.396398
0.401911
0.401062
0.408923
0.409862
0.413156
0.412361
0.386146
0.369471
0.301678
0.296628
0.333364
0.356792
0.36451
0.371818
0.36858
0.370736
0.365507
0.366426
0.362768
0.363672
0.361145
0.361869
0.359559
0.360206
0.358432
0.358505
0.356928
0.356455
0.354901
0.353953
0.352425
0.351521
0.350459
0.349825
0.349128
0.348634
0.348162
0.347671
0.347223
0.346631
0.346168
0.345457
0.344933
0.344115
0.343518
0.342671
0.341989
0.341229
0.340454
0.339998
0.339281
0.339405
0.339407
0.337661
0.347767
0.36286
0.362138
0.350667
0.340925
0.337528
0.338634
0.341281
0.343551
0.34494
0.345703
0.346192
0.346576
0.346964
0.347347
0.347784
0.348219
0.348733
0.349235
0.349846
0.350426
0.351156
0.351821
0.352698
0.353453
0.354509
0.355358
0.35664
0.357587
0.359166
0.360233
0.362215
0.363409
0.365929
0.367293
0.370503
0.372043
0.376165
0.377928
0.38304
0.384732
0.390542
0.391425
0.397183
0.396387
0.401909
0.401055
0.408891
0.409803
0.413033
0.412213
0.385723
0.36887
0.300232
0.295578
0.333315
0.357136
0.364955
0.372084
0.368764
0.370833
0.365567
0.366462
0.362793
0.363697
0.361161
0.361878
0.35956
0.360198
0.358419
0.358493
0.356918
0.356449
0.354896
0.35395
0.352424
0.35152
0.350458
0.349825
0.349128
0.348634
0.34816
0.347667
0.347218
0.346623
0.346159
0.345447
0.344919
0.3441
0.343498
0.342648
0.34196
0.341194
0.340412
0.339947
0.339226
0.339339
0.339339
0.337622
0.347635
0.362664
0.362106
0.350887
0.341272
0.337838
0.338834
0.341385
0.343599
0.344962
0.345716
0.346202
0.346585
0.346972
0.347356
0.347793
0.348228
0.348742
0.349244
0.349855
0.350435
0.351166
0.351831
0.352707
0.353463
0.354519
0.355368
0.35665
0.357597
0.359176
0.360242
0.362225
0.363419
0.365941
0.367303
0.370514
0.372052
0.376174
0.377932
0.383042
0.384726
0.390535
0.39141
0.39717
0.396375
0.401908
0.401046
0.408859
0.409744
0.412913
0.412069
0.385314
0.368338
0.298844
0.294615
0.333364
0.357541
0.365426
0.372361
0.368951
0.370932
0.365629
0.366499
0.362819
0.363722
0.361175
0.361886
0.359561
0.360191
0.358407
0.35848
0.356907
0.356442
0.354891
0.353947
0.352422
0.351518
0.350456
0.349824
0.349128
0.348633
0.348157
0.347663
0.347212
0.346616
0.346149
0.345436
0.344906
0.344084
0.343478
0.342625
0.34193
0.341159
0.34037
0.339897
0.339171
0.339272
0.33927
0.337582
0.347502
0.362466
0.362072
0.351102
0.341616
0.338144
0.339032
0.341488
0.343646
0.344985
0.345729
0.346211
0.346594
0.346981
0.347364
0.347801
0.348237
0.348751
0.349253
0.349864
0.350444
0.351175
0.35184
0.352716
0.353471
0.354528
0.355377
0.356659
0.357605
0.359185
0.36025
0.362234
0.363428
0.365951
0.367313
0.370525
0.37206
0.376182
0.377935
0.383043
0.384719
0.390526
0.391394
0.397157
0.396362
0.401906
0.401037
0.408828
0.409685
0.412796
0.411928
0.384919
0.36788
0.297524
0.293751
0.333516
0.358004
0.36592
0.372648
0.369142
0.371032
0.365692
0.366538
0.362844
0.363747
0.36119
0.361894
0.359561
0.360183
0.358394
0.358468
0.356896
0.356435
0.354884
0.353943
0.352419
0.351516
0.350454
0.349823
0.349128
0.348633
0.348154
0.347658
0.347206
0.346608
0.346139
0.345425
0.344892
0.344068
0.343458
0.342601
0.3419
0.341124
0.340327
0.339846
0.339115
0.339205
0.339202
0.337543
0.347368
0.362266
0.362035
0.351314
0.341955
0.338446
0.339228
0.34159
0.343693
0.345007
0.345742
0.346221
0.346602
0.346989
0.347373
0.34781
0.348246
0.348759
0.349261
0.349873
0.350452
0.351184
0.351848
0.352725
0.35348
0.354537
0.355385
0.356668
0.357614
0.359194
0.360258
0.362242
0.363436
0.365961
0.367321
0.370534
0.372067
0.37619
0.377936
0.383043
0.384711
0.390518
0.391377
0.397144
0.396349
0.401904
0.401028
0.408797
0.409627
0.412682
0.411792
0.384539
0.367496
0.296281
0.293
0.333773
0.358526
0.366435
0.372942
0.369335
0.371134
0.365756
0.366577
0.362869
0.363772
0.361204
0.361902
0.359561
0.360175
0.358381
0.358455
0.356885
0.356428
0.354878
0.353939
0.352416
0.351514
0.350452
0.349821
0.349128
0.348632
0.348151
0.347654
0.3472
0.346601
0.346129
0.345413
0.344878
0.344052
0.343437
0.342577
0.341869
0.341088
0.340284
0.339795
0.339059
0.339138
0.339133
0.337503
0.347234
0.362063
0.361996
0.351523
0.342291
0.338745
0.339422
0.341691
0.343739
0.345028
0.345754
0.34623
0.346611
0.346998
0.347381
0.347818
0.348254
0.348768
0.34927
0.349881
0.35046
0.351192
0.351856
0.352733
0.353488
0.354545
0.355393
0.356677
0.357621
0.359202
0.360265
0.36225
0.363443
0.36597
0.367329
0.370543
0.372074
0.376197
0.377938
0.383043
0.384703
0.390509
0.39136
0.397131
0.396336
0.401902
0.401017
0.408766
0.40957
0.412571
0.411659
0.384174
0.367188
0.295126
0.292371
0.334138
0.359103
0.36697
0.373243
0.36953
0.371237
0.36582
0.366616
0.362894
0.363797
0.361217
0.361909
0.359561
0.360167
0.358369
0.358442
0.356874
0.35642
0.35487
0.353935
0.352413
0.351511
0.350449
0.349819
0.349127
0.34863
0.348148
0.347649
0.347193
0.346592
0.346119
0.345402
0.344863
0.344036
0.343416
0.342553
0.341839
0.341052
0.340241
0.339743
0.339003
0.339071
0.339064
0.337464
0.347099
0.361859
0.361953
0.351729
0.342622
0.339041
0.339613
0.34179
0.343785
0.34505
0.345767
0.34624
0.346619
0.347006
0.347389
0.347826
0.348262
0.348776
0.349278
0.349889
0.350468
0.3512
0.351864
0.352741
0.353496
0.354553
0.355401
0.356684
0.357629
0.35921
0.360272
0.362258
0.363451
0.365978
0.367337
0.370552
0.37208
0.376203
0.377938
0.383043
0.384694
0.390499
0.391343
0.397119
0.396323
0.401901
0.401007
0.408737
0.409513
0.412464
0.41153
0.383824
0.366955
0.294065
0.291876
0.334611
0.359733
0.36752
0.373549
0.369725
0.37134
0.365885
0.366657
0.362919
0.363821
0.36123
0.361916
0.359561
0.36016
0.358356
0.35843
0.356863
0.356412
0.354863
0.35393
0.35241
0.351508
0.350446
0.349817
0.349126
0.348629
0.348145
0.347644
0.347187
0.346584
0.346108
0.34539
0.344849
0.34402
0.343395
0.342529
0.341808
0.341016
0.340198
0.339692
0.338947
0.339004
0.338995
0.337424
0.346964
0.361653
0.361909
0.351931
0.342949
0.339332
0.339802
0.341889
0.34383
0.345071
0.345779
0.346249
0.346627
0.347014
0.347396
0.347834
0.348269
0.348783
0.349285
0.349897
0.350476
0.351208
0.351872
0.352749
0.353503
0.354561
0.355408
0.356692
0.357636
0.359217
0.360279
0.362265
0.363457
0.365986
0.367344
0.37056
0.372085
0.376208
0.377938
0.383042
0.384685
0.39049
0.391326
0.397106
0.396309
0.401899
0.400997
0.408708
0.409458
0.41236
0.411406
0.383488
0.366796
0.293106
0.291524
0.335194
0.360412
0.368084
0.373858
0.369921
0.371444
0.36595
0.366697
0.362943
0.363846
0.361243
0.361923
0.35956
0.360152
0.358344
0.358417
0.356851
0.356404
0.354855
0.353925
0.352406
0.351505
0.350443
0.349815
0.349125
0.348627
0.348141
0.347639
0.34718
0.346576
0.346098
0.345378
0.344834
0.344003
0.343374
0.342505
0.341778
0.340979
0.340154
0.33964
0.338891
0.338937
0.338926
0.337385
0.346829
0.361445
0.361862
0.35213
0.343273
0.33962
0.339988
0.341986
0.343875
0.345092
0.345791
0.346258
0.346635
0.347021
0.347404
0.347841
0.348277
0.348791
0.349293
0.349904
0.350484
0.351215
0.351879
0.352757
0.35351
0.354568
0.355415
0.356699
0.357642
0.359224
0.360285
0.362271
0.363464
0.365994
0.367351
0.370567
0.37209
0.376213
0.377938
0.383041
0.384676
0.390481
0.391309
0.397094
0.396296
0.401899
0.400986
0.40868
0.409404
0.412259
0.411285
0.383166
0.366708
0.292254
0.291322
0.335883
0.361137
0.368659
0.374169
0.370115
0.371547
0.366016
0.366737
0.362968
0.36387
0.361256
0.36193
0.35956
0.360145
0.358331
0.358405
0.35684
0.356396
0.354847
0.35392
0.352402
0.351502
0.350439
0.349813
0.349124
0.348626
0.348138
0.347633
0.347173
0.346568
0.346088
0.345367
0.344819
0.343987
0.343353
0.34248
0.341747
0.340943
0.340111
0.339588
0.338834
0.33887
0.338857
0.337345
0.346693
0.361235
0.361812
0.352326
0.343592
0.339905
0.340173
0.342082
0.343919
0.345112
0.345802
0.346266
0.346643
0.347029
0.347412
0.347849
0.348284
0.348799
0.3493
0.349912
0.350491
0.351223
0.351886
0.352764
0.353517
0.354575
0.355422
0.356706
0.357649
0.359231
0.360291
0.362278
0.36347
0.366002
0.367357
0.370575
0.372095
0.376218
0.377938
0.38304
0.384666
0.390472
0.391293
0.397082
0.396283
0.401898
0.400976
0.408653
0.409352
0.412161
0.411167
0.382859
0.366688
0.291514
0.291278
0.336676
0.361902
0.36924
0.37448
0.370308
0.371649
0.366081
0.366778
0.362991
0.363894
0.361268
0.361937
0.359559
0.360137
0.358319
0.358393
0.356828
0.356388
0.354838
0.353915
0.352398
0.351499
0.350436
0.34981
0.349123
0.348624
0.348134
0.347628
0.347167
0.34656
0.346077
0.345355
0.344805
0.34397
0.343331
0.342456
0.341716
0.340906
0.340068
0.339537
0.338779
0.338803
0.338788
0.337306
0.346557
0.361024
0.36176
0.352519
0.343908
0.340186
0.340355
0.342177
0.343963
0.345133
0.345814
0.346275
0.346651
0.347036
0.347419
0.347856
0.348292
0.348806
0.349308
0.349919
0.350498
0.35123
0.351893
0.352771
0.353524
0.354582
0.355428
0.356713
0.357655
0.359238
0.360297
0.362284
0.363476
0.366009
0.367363
0.370582
0.3721
0.376223
0.377937
0.383038
0.384657
0.390463
0.391276
0.397071
0.396271
0.401899
0.400967
0.408627
0.409301
0.412067
0.411053
0.382564
0.366731
0.290888
0.291396
0.337568
0.362702
0.369826
0.374791
0.370499
0.37175
0.366145
0.366818
0.363015
0.363918
0.361279
0.361944
0.359559
0.360131
0.358308
0.358381
0.356817
0.35638
0.35483
0.35391
0.352393
0.351495
0.350432
0.349808
0.349122
0.348623
0.34813
0.347623
0.34716
0.346551
0.346066
0.345343
0.34479
0.343953
0.34331
0.342431
0.341685
0.34087
0.340025
0.339485
0.338723
0.338736
0.33872
0.337268
0.34642
0.360811
0.361706
0.352708
0.344219
0.340464
0.340534
0.342271