/*--------------------------------*- C++ -*----------------------------------*\
| =========                 |                                                 |
| \\      /  F ield         | OpenFOAM: The Open Source CFD Toolbox           |
|  \\    /   O peration     | Version:  2412                                  |
|   \\  /    A nd           | Website:  www.openfoam.com                      |
|    \\/     M anipulation  |                                                 |
\*---------------------------------------------------------------------------*/
FoamFile
{
    version     2.0;
    format      ascii;
    arch        "LSB;label=32;scalar=64";
    class       volScalarField;
    location    "0.2";
    object      p;
}
// * * * * * * * * * * * * * * * * * * * * * * * * * * * * * * * * * * * * * //

dimensions      [0 2 -2 0 0 0 0];

internalField   nonuniform List<scalar> 
13068
(
112513
112494
112466
112408
112359
112269
112183
112053
111940
111770
111629
111412
111240
110966
110765
110420
110191
109753
109503
108943
108682
107961
107709
106772
106561
105331
105214
103579
103643
101440
101816
98810.5
99700.6
95551.6
97264
91477.4
94476.6
86339.3
91318.6
79802.6
87775.2
71391.3
83767.9
60308.3
78938.3
44987.1
72212.4
22480.8
61646.1
-10752
46036.9
-57877.3
26444.9
-114060
14732.2
-76430.1
12956.2
-43653.9
19189.8
-15372.8
27434.1
5293.5
34685.6
20711.7
41160.5
32511.2
46724.3
41489.2
51325.3
48282.4
55108.8
53474.4
58279.6
57562.3
61042.2
60941.4
63553.6
63857.8
65861.6
66405.9
67945.8
68619.7
69786.5
70532.9
71389.8
72196.3
72784.7
73673.9
74010.4
75031.6
75104.7
76329.7
76096.7
77617.8
77004.6
78927.9
77836.8
80260
78595
112509
112490
112463
112405
112356
112265
112180
112050
111937
111767
111626
111409
111237
110963
110762
110417
110188
109750
109500
108939
108679
107958
107706
106768
106558
105327
105211
103575
103639
101436
101813
98805.5
99698
95546.3
97261.8
91471.8
94474.9
86333.5
91317.5
79796.5
87773.9
71383.8
83764.7
60297.1
78930.3
44969.5
72198.8
22461.7
61634.2
-10760.7
46034
-57839.4
26476.9
-113884
14762.2
-76406.9
12977.6
-43647.6
19199.4
-15382.5
27434.6
5283.88
34685.2
20703.2
41158.3
32502.4
46720.8
41480.7
51321.6
48275.1
55105.9
53469
58277.9
57558.9
61041.4
60939.2
63552.8
63855.7
65860.2
66403.4
67943.5
68616.8
69783.7
70529.9
71386.9
72193.7
72782.1
73671.9
74008.4
75030.4
75103.4
76329.1
76096.5
77617.4
77005.5
78927.1
77839.1
80257.9
78598.7
112505
112487
112460
112402
112353
112262
112177
112047
111934
111764
111623
111406
111234
110960
110759
110413
110185
109746
109496
108936
108676
107954
107702
106764
106555
105323
105208
103571
103636
101431
101810
98800.6
99695.3
95541.1
97259.5
91466.3
94473.2
86327.8
91316.3
79790.3
87772.6
71376.4
83761.6
60285.9
78922.5
44952.1
72185.5
22442.8
61622.6
-10769.3
46031.4
-57801.6
26509
-113711
14792.1
-76383.7
12998.7
-43641.5
19208.8
-15392.1
27435.2
5274.31
34684.8
20694.7
41156.2
32493.7
46717.3
41472.2
51318.1
48267.9
55103.1
53463.7
58276.2
57555.5
61040.7
60937
63552.1
63853.6
65858.8
66400.9
67941.3
68614
69781
70527
71384.1
72191.1
72779.5
73669.9
74006.4
75029.1
75102.2
76328.4
76096.1
77617
77006.3
78926.2
77841.1
80255.7
78602.1
112501
112483
112456
112399
112350
112259
112174
112044
111932
111761
111620
111403
111232
110957
110756
110410
110182
109743
109493
108932
108672
107950
107699
106761
106551
105319
105205
103566
103633
101426
101807
98795.7
99692.7
95535.8
97257.3
91460.8
94471.5
86322
91315
79784.2
87771.2
71368.9
83758.4
60274.7
78914.7
44934.9
72172.5
22424.1
61611.1
-10777.7
46028.9
-57763.7
26541.1
-113538
14821.5
-76360.6
13019.4
-43635.5
19218
-15401.7
27435.8
5264.8
34684.4
20686.3
41154.2
32485.1
46713.9
41463.9
51314.6
48260.9
55100.3
53458.5
58274.5
57552.1
61039.9
60934.8
63551.3
63851.6
65857.3
66398.4
67939.1
68611.1
69778.3
70524.1
71381.2
72188.5
72777
73668
74004.3
75027.8
75100.9
76327.8
76095.7
77616.6
77007
78925.2
77843.1
80253.3
78605.4
112497
112479
112453
112395
112346
112256
112171
112041
111929
111759
111617
111400
111229
110954
110753
110407
110179
109740
109490
108929
108669
107947
107696
106757
106548
105315
105202
103562
103630
101422
101804
98790.9
99690.1
95530.7
97255.1
91455.3
94469.8
86316.3
91313.8
79778.1
87769.8
71361.5
83755.2
60263.7
78907.1
44917.9
72159.6
22405.6
61599.9
-10786.1
46026.5
-57726
26573.2
-113367
14850.6
-76337.7
13040
-43629.6
19227.1
-15411.1
27436.4
5255.38
34684
20678
41152.1
32476.6
46710.5
41455.7
51311.1
48253.9
55097.6
53453.3
58272.9
57548.8
61039.1
60932.7
63550.6
63849.5
65855.9
66396
67936.9
68608.3
69775.6
70521.2
71378.5
72186
72774.4
73666
74002.3
75026.5
75099.6
76327
76095.3
77616
77007.6
78924.2
77845
80251
78608.7
112493
112476
112449
112392
112343
112253
112168
112038
111926
111756
111615
111397
111226
110951
110750
110404
110176
109736
109487
108926
108666
107943
107693
106753
106545
105311
105198
103558
103627
101417
101801
98786.1
99687.5
95525.5
97252.9
91449.9
94468.1
86310.6
91312.5
79772
87768.4
71354.1
83752
60252.7
78899.5
44901
72146.8
22387.3
61588.7
-10794.2
46024.2
-57688.5
26605.3
-113198
14879.4
-76314.9
13060.4
-43623.6
19236.3
-15420.4
27437
5246.03
34683.5
20669.7
41150.1
32468.1
46707.2
41447.5
51307.7
48246.9
55094.9
53448.1
58271.3
57545.5
61038.3
60930.5
63549.8
63847.4
65854.5
66393.5
67934.7
68605.5
69772.9
70518.4
71375.7
72183.4
72771.9
73664
74000.3
75025.3
75098.3
76326.3
76094.9
77615.5
77008.3
78923.2
77846.9
80248.6
78611.9
112489
112472
112445
112389
112340
112250
112165
112035
111923
111753
111612
111394
111223
110948
110747
110401
110173
109733
109484
108922
108663
107939
107689
106749
106542
105307
105195
103554
103624
101413
101798
98781.3
99684.9
95520.4
97250.7
91444.5
94466.4
86305
91311.3
79766
87767.1
71346.7
83748.9
60241.8
78892
44884.3
72134.2
22369.2
61577.6
-10802.3
46022
-57651
26637.3
-113030
14907.7
-76292.3
13080.6
-43617.7
19245.4
-15429.6
27437.7
5236.77
34683.1
20661.5
41148
32459.6
46703.9
41439.3
51304.3
48240
55092.2
53443
58269.7
57542.2
61037.6
60928.3
63549
63845.4
65853.1
66391.1
67932.5
68602.7
69770.2
70515.5
71372.9
72180.9
72769.4
73662.1
73998.3
75024
75097
76325.6
76094.5
77615
77009
78922.1
77848.8
80246.2
78615.2
112485
112468
112442
112386
112337
112248
112162
112033
111920
111750
111609
111391
111220
110946
110745
110398
110170
109730
109481
108919
108660
107936
107686
106746
106538
105303
105192
103550
103621
101408
101795
98776.6
99682.4
95515.4
97248.6
91439.2
94464.8
86299.4
91310.1
79760
87765.7
71339.4
83745.7
60231
78884.5
44867.7
72121.8
22351.3
61566.7
-10810.2
46019.9
-57613.8
26669.2
-112864
14935.6
-76269.8
13100.6
-43611.8
19254.4
-15438.6
27438.3
5227.57
34682.7
20653.3
41146
32451.3
46700.6
41431.3
51300.9
48233.1
55089.5
53437.9
58268
57538.9
61036.8
60926.1
63548.3
63843.3
65851.6
66388.7
67930.3
68599.9
69767.5
70512.7
71370.1
72178.3
72766.9
73660.1
73996.3
75022.7
75095.7
76324.9
76094.1
77614.4
77009.6
78921.1
77850.7
80243.9
78618.4
112482
112465
112438
112382
112334
112245
112160
112030
111918
111748
111606
111389
111218
110943
110742
110395
110167
109727
109478
108916
108656
107932
107683
106742
106535
105299
105189
103546
103618
101404
101793
98771.9
99679.9
95510.4
97246.4
91433.9
94463.1
86293.9
91308.9
79754.1
87764.3
71332.2
83742.6
60220.2
78877.1
44851.3
72109.4
22333.5
61555.9
-10818.1
46017.8
-57576.6
26701.1
-112700
14963.2
-76247.5
13120.5
-43605.9
19263.4
-15447.6
27438.9
5218.46
34682.2
20645.2
41144
32443
46697.3
41423.3
51297.5
48226.3
55086.8
53432.9
58266.4
57535.6
61036
60924
63547.5
63841.3
65850.2
66386.2
67928.2
68597.1
69764.9
70509.9
71367.4
72175.8
72764.4
73658.1
73994.4
75021.3
75094.5
76324.1
76093.7
77613.8
77010.2
78920
77852.6
80241.5
78621.5
112478
112461
112435
112379
112331
112242
112157
112027
111915
111745
111604
111386
111215
110940
110739
110392
110164
109724
109475
108912
108653
107929
107680
106738
106532
105295
105186
103541
103615
101400
101790
98767.2
99677.3
95505.4
97244.3
91428.6
94461.5
86288.4
91307.6
79748.2
87763
71325
83739.6
60209.6
78869.8
44835
72097.2
22315.9
61545.3
-10825.8
46015.9
-57539.7
26732.8
-112537
14990.4
-76225.3
13140.3
-43600
19272.4
-15456.5
27439.6
5209.42
34681.8
20637.2
41142
32434.8
46694.1
41415.3
51294.1
48219.6
55084.2
53427.9
58264.8
57532.4
61035.2
60921.8
63546.7
63839.2
65848.8
66383.8
67926
68594.3
69762.2
70507
71364.6
72173.3
72761.9
73656.2
73992.4
75020
75093.2
76323.3
76093.3
77613.2
77010.9
78918.9
77854.5
80239.1
78624.7
112474
112458
112432
112376
112328
112239
112154
112025
111912
111742
111601
111383
111212
110937
110736
110389
110161
109721
109472
108909
108650
107925
107677
106735
106529
105291
105183
103537
103612
101395
101787
98762.6
99674.9
95500.4
97242.2
91423.4
94459.8
86282.9
91306.4
79742.4
87761.6
71317.9
83736.5
60199
78862.6
44818.9
72085.1
22298.5
61534.7
-10833.4
46014
-57502.9
26764.4
-112375
15017.2
-76203.3
13159.9
-43594.1
19281.3
-15465.3
27440.2
5200.47
34681.4
20629.2
41140.1
32426.6
46690.8
41407.4
51290.8
48212.8
55081.6
53422.9
58263.2
57529.2
61034.4
60919.6
63545.9
63837.2
65847.4
66381.4
67923.8
68591.6
69759.6
70504.2
71361.9
72170.8
72759.4
73654.2
73990.4
75018.7
75091.9
76322.5
76092.8
77612.6
77011.5
78917.8
77856.3
80236.8
78627.8
112470
112454
112428
112373
112325
112236
112151
112022
111910
111740
111599
111381
111209
110934
110733
110386
110158
109718
109469
108906
108647
107922
107674
106731
106526
105288
105180
103533
103609
101391
101784
98758
99672.4
95495.6
97240.1
91418.2
94458.2
86277.5
91305.3
79736.6
87760.3
71310.8
83733.5
60188.5
78855.4
44802.9
72073.2
22281.2
61524.3
-10840.9
46012.2
-57466.3
26795.9
-112216
15043.7
-76181.3
13179.5
-43588.1
19290.2
-15473.9
27440.9
5191.59
34680.9
20621.3
41138.1
32418.5
46687.6
41399.6
51287.5
48206.2
55079
53418
58261.6
57525.9
61033.6
60917.5
63545.1
63835.2
65846
66379
67921.7
68588.9
69757
70501.4
71359.2
72168.3
72756.9
73652.2
73988.4
75017.4
75090.6
76321.7
76092.4
77611.9
77012.1
78916.6
77858.1
80234.4
78630.9
112467
112451
112425
112370
112322
112233
112149
112019
111907
111737
111596
111378
111207
110931
110731
110383
110155
109715
109466
108902
108644
107919
107671
106728
106523
105284
105177
103529
103607
101387
101782
98753.5
99669.9
95490.7
97238
91413.1
94456.6
86272.2
91304.1
79730.8
87759
71303.8
83730.4
60178.1
78848.2
44787.1
72061.4
22264.1
61514
-10848.2
46010.5
-57429.9
26827.1
-112057
15069.9
-76159.5
13198.9
-43582.2
19299.1
-15482.5
27441.5
5182.78
34680.5
20613.5
41136.1
32410.5
46684.5
41391.8
51284.2
48199.6
55076.4
53413
58260
57522.7
61032.8
60915.4
63544.3
63833.2
65844.6
66376.7
67919.6
68586.1
69754.4
70498.7
71356.5
72165.8
72754.4
73650.3
73986.4
75016
75089.3
76320.9
76091.9
77611.3
77012.7
78915.5
77859.9
80232.1
78634
112463
112447
112421
112367
112319
112231
112146
112017
111905
111735
111593
111375
111204
110929
110728
110380
110152
109712
109463
108899
108641
107915
107668
106724
106520
105280
105174
103526
103604
101383
101779
98749
99667.5
95485.9
97235.9
91408
94455
86266.8
91302.9
79725.1
87757.6
71296.8
83727.4
60167.8
78841.2
44771.4
72049.7
22247.2
61503.8
-10855.5
46008.9
-57393.8
26858.2
-111901
15095.7
-76137.8
13218.2
-43576.2
19308
-15490.9
27442.2
5174.06
34680
20605.7
41134.2
32402.5
46681.3
41384.1
51281
48193
55073.8
53408.2
58258.5
57519.6
61032
60913.2
63543.5
63831.2
65843.2
66374.3
67917.4
68583.4
69751.8
70495.9
71353.8
72163.3
72752
73648.3
73984.4
75014.7
75088
76320.1
76091.5
77610.6
77013.3
78914.4
77861.7
80229.7
78637.1
112459
112444
112418
112364
112316
112228
112143
112014
111902
111732
111591
111373
111202
110926
110725
110377
110150
109709
109460
108896
108638
107912
107665
106720
106517
105277
105171
103522
103601
101379
101776
98744.5
99665.1
95481.1
97233.9
91403
94453.4
86261.6
91301.7
79719.4
87756.3
71289.9
83724.5
60157.5
78834.2
44755.8
72038.1
22230.4
61493.8
-10862.7
46007.3
-57357.8
26889
-111746
15121.2
-76116.1
13237.5
-43570.2
19316.8
-15499.3
27442.9
5165.42
34679.6
20597.9
41132.2
32394.6
46678.2
41376.5
51277.7
48186.5
55071.2
53403.3
58256.9
57516.4
61031.1
60911.1
63542.7
63829.2
65841.8
66371.9
67915.3
68580.7
69749.2
70493.1
71351.1
72160.8
72749.5
73646.3
73982.4
75013.3
75086.7
76319.2
76091
77609.9
77013.8
78913.2
77863.5
80227.4
78640.1
112456
112441
112415
112361
112313
112225
112141
112012
111899
111729
111588
111370
111199
110923
110722
110375
110147
109706
109457
108893
108635
107909
107662
106717
106514
105273
105168
103518
103598
101374
101774
98740.1
99662.7
95476.4
97231.9
91398
94451.8
86256.3
91300.6
79713.8
87755
71283
83721.5
60147.4
78827.3
44740.4
72026.6
22213.8
61483.8
-10869.8
46005.7
-57322.1
26919.6
-111592
15146.4
-76094.4
13256.7
-43564.1
19325.6
-15507.5
27443.6
5156.85
34679.2
20590.3
41130.3
32386.7
46675
41368.9
51274.5
48180
55068.7
53398.5
58255.3
57513.3
61030.3
60909
63541.9
63827.2
65840.4
66369.6
67913.2
68578
69746.6
70490.4
71348.4
72158.3
72747.1
73644.4
73980.5
75012
75085.3
76318.4
76090.6
77609.2
77014.4
78912
77865.2
80225
78643.2
112452
112437
112411
112358
112310
112222
112138
112009
111897
111727
111586
111368
111196
110921
110720
110372
110144
109703
109454
108890
108632
107905
107659
106714
106511
105269
105165
103514
103595
101370
101771
98735.7
99660.4
95471.7
97229.9
91393.1
94450.3
86251.2
91299.4
79708.2
87753.7
71276.2
83718.6
60137.3
78820.4
44725.2
72015.3
22197.4
61474
-10876.8
46004.3
-57286.6
26949.8
-111440
15171.4
-76072.8
13275.9
-43558
19334.4
-15515.7
27444.3
5148.36
34678.7
20582.7
41128.4
32378.9
46672
41361.4
51271.3
48173.6
55066.1
53393.8
58253.7
57510.1
61029.5
60906.9
63541.1
63825.2
65839
66367.2
67911.1
68575.4
69744
70487.7
71345.7
72155.9
72744.6
73642.4
73978.5
75010.6
75084
76317.5
76090.1
77608.5
77014.9
78910.8
77867
80222.7
78646.2
112449
112434
112408
112355
112307
112220
112135
112007
111894
111724
111583
111365
111194
110918
110717
110369
110141
109700
109451
108887
108630
107902
107656
106710
106508
105266
105163
103510
103593
101366
101769
98731.4
99658
95467.1
97227.9
91388.2
94448.7
86246
91298.2
79702.7
87752.4
71269.4
83715.7
60127.3
78813.6
44710
72004.1
22181.2
61464.3
-10883.7
46002.8
-57251.4
26979.7
-111289
15196.1
-76051.1
13295.1
-43551.9
19343.2
-15523.7
27445
5139.95
34678.3
20575.1
41126.5
32371.2
46668.9
41353.9
51268.2
48167.3
55063.6
53389
58252.2
57507
61028.7
60904.8
63540.3
63823.2
65837.6
66364.9
67909
68572.7
69741.5
70484.9
71343
72153.4
72742.2
73640.4
73976.5
75009.2
75082.7
76316.6
76089.6
77607.7
77015.5
78909.6
77868.7
80220.4
78649.2
112445
112431
112405
112352
112305
112217
112133
112004
111892
111722
111581
111362
111191
110915
110715
110366
110139
109697
109449
108884
108627
107899
107653
106707
106505
105262
105160
103506
103590
101362
101766
98727.1
99655.7
95462.5
97225.9
91383.3
94447.2
86240.9
91297.1
79697.2
87751.1
71262.7
83712.8
60117.4
78806.9
44695
71993.1
22165.1
61454.7
-10890.5
46001.5
-57216.4
27009.2
-111140
15220.6
-76029.5
13314.2
-43545.8
19351.9
-15531.6
27445.7
5131.62
34677.9
20567.6
41124.6
32363.5
46665.8
41346.5
51265
48160.9
55061.1
53384.3
58250.6
57503.9
61027.8
60902.7
63539.5
63821.2
65836.2
66362.6
67906.9
68570.1
69738.9
70482.2
71340.4
72151
72739.7
73638.5
73974.5
75007.8
75081.4
76315.7
76089.1
77607
77016
78908.4
77870.4
80218
78652.1
112442
112427
112402
112349
112302
112214
112130
112002
111889
111719
111578
111360
111189
110913
110712
110364
110136
109694
109446
108881
108624
107896
107650
106703
106502
105259
105157
103503
103587
101358
101763
98722.8
99653.4
95457.9
97223.9
91378.5
94445.7
86235.9
91296
79691.8
87749.8
71256
83709.9
60107.5
78800.2
44680.2
71982.1
22149.1
61445.2
-10897.2
46000.1
-57181.7
27038.4
-110993
15244.8
-76007.8
13333.3
-43539.6
19360.6
-15539.5
27446.4
5123.37
34677.4
20560.2
41122.7
32355.9
46662.8
41339.2
51261.9
48154.7
55058.6
53379.6
58249.1
57500.9
61027
60900.6
63538.7
63819.2
65834.8
66360.3
67904.8
68567.4
69736.4
70479.5
71337.8
72148.5
72737.3
73636.5
73972.6
75006.5
75080.1
76314.8
76088.6
77606.2
77016.5
78907.2
77872.1
80215.7
78655
112439
112424
112399
112346
112299
112212
112128
111999
111887
111717
111576
111358
111186
110910
110709
110361
110133
109691
109443
108878
108621
107893
107647
106700
106500
105255
105154
103499
103584
101354
101761
98718.6
99651.1
95453.4
97222
91373.7
94444.2
86230.9
91294.9
79686.4
87748.6
71249.4
83707.1
60097.8
78793.6
44665.5
71971.3
22133.4
61435.8
-10903.9
45998.8
-57147.3
27067.1
-110847
15268.9
-75986.1
13352.4
-43533.4
19369.3
-15547.2
27447.1
5115.19
34677
20552.8
41120.9
32348.4
46659.8
41331.9
51258.8
48148.5
55056.1
53375
58247.5
57497.8
61026.2
60898.5
63537.8
63817.3
65833.4
66358
67902.8
68564.8
69733.9
70476.8
71335.1
72146.1
72734.9
73634.5
73970.6
75005.1
75078.8
76313.9
76088.1
77605.4
77017
78905.9
77873.8
80213.4
78658
112435
112421
112396
112343
112296
112209
112125
111997
111885
111715
111573
111355
111184
110908
110707
110358
110131
109688
109440
108875
108618
107889
107644
106697
106497
105252
105151
103495
103582
101350
101758
98714.4
99648.8
95449
97220.1
91369
94442.7
86225.9
91293.7
79681
87747.3
71242.8
83704.2
60088.1
78787.1
44650.9
71960.6
22117.8
61426.6
-10910.4
45997.6
-57113.2
27095.3
-110702
15292.8
-75964.3
13371.6
-43527.1
19377.9
-15554.9
27447.8
5107.09
34676.5
20545.5
41119
32340.9
46656.8
41324.7
51255.7
48142.3
55053.7
53370.4
58246
57494.8
61025.3
60896.4
63537
63815.3
65832
66355.7
67900.7
68562.2
69731.4
70474.2
71332.5
72143.6
72732.5
73632.6
73968.6
75003.7
75077.4
76312.9
76087.6
77604.6
77017.5
78904.7
77875.4
80211.1
78660.9
112432
112418
112392
112341
112294
112207
112123
111994
111882
111712
111571
111353
111181
110905
110704
110356
110128
109685
109438
108872
108615
107886
107642
106694
106494
105248
105149
103492
103579
101347
101756
98710.3
99646.6
95444.5
97218.2
91364.3
94441.2
86221
91292.6
79675.7
87746
71236.3
83701.4
60078.5
78780.6
44636.5
71950
22102.3
61417.4
-10916.9
45996.3
-57079.3
27123.1
-110559
15316.6
-75942.4
13390.7
-43520.8
19386.5
-15562.4
27448.5
5099.07
34676.1
20538.3
41117.2
32333.5
46653.9
41317.5
51252.7
48136.2
55051.2
53365.8
58244.5
57491.8
61024.5
60894.4
63536.2
63813.4
65830.6
66353.4
67898.7
68559.6
69728.9
70471.5
71329.9
72141.2
72730
73630.6
73966.7
75002.3
75076.1
76312
76087.1
77603.8
77018
78903.4
77877.1
80208.7
78663.7
112428
112415
112389
112338
112291
112204
112120
111992
111880
111710
111569
111350
111179
110903
110702
110353
110125
109683
109435
108869
108613
107883
107639
106690
106491
105245
105146
103488
103577
101343
101753
98706.1
99644.4
95440.1
97216.3
91359.7
94439.7
86216.1
91291.5
79670.5
87744.8
71229.9
83698.6
60069
78774.2
44622.2
71939.6
22087
61408.4
-10923.3
45995.1
-57045.8
27150.3
-110417
15340.3
-75920.4
13409.9
-43514.5
19395.1
-15569.9
27449.3
5091.12
34675.7
20531.1
41115.3
32326.1
46650.9
41310.4
51249.6
48130.1
55048.8
53361.3
58242.9
57488.8
61023.7
60892.3
63535.3
63811.4
65829.2
66351.1
67896.6
68557
69726.4
70468.8
71327.3
72138.8
72727.6
73628.7
73964.7
75000.8
75074.8
76311
76086.6
77602.9
77018.4
78902.1
77878.7
80206.4
78666.6
112425
112412
112386
112335
112288
112202
112118
111990
111877
111708
111566
111348
111177
110900
110699
110350
110123
109680
109432
108866
108610
107880
107636
106687
106489
105241
105143
103485
103574
101339
101751
98702.1
99642.2
95435.8
97214.4
91355.1
94438.3
86211.3
91290.4
79665.3
87743.5
71223.5
83695.9
60059.6
78767.8
44608.1
71929.2
22071.9
61399.4
-10929.6
45994
-57012.6
27177.1
-110277
15363.9
-75898.3
13429.1
-43508.1
19403.6
-15577.2
27450
5083.25
34675.2
20524
41113.5
32318.8
46648
41303.4
51246.6
48124.1
55046.4
53356.8
58241.4
57485.8
61022.8
60890.3
63534.5
63809.5
65827.8
66348.9
67894.6
68554.4
69723.9
70466.2
71324.7
72136.4
72725.2
73626.7
73962.7
74999.4
75073.4
76310
76086
77602.1
77018.9
78900.8
77880.3
80204.1
78669.4
112422
112409
112383
112332
112286
112199
112115
111987
111875
111705
111564
111345
111174
110898
110697
110348
110120
109677
109430
108863
108607
107877
107633
106684
106486
105238
105141
103481
103571
101335
101749
98698
99640
95431.5
97212.5
91350.5
94436.8
86206.5
91289.4
79660.1
87742.3
71217.1
83693.1
60050.2
78761.6
44594.1
71919
22056.9
61390.6
-10935.9
45992.8
-56979.7
27203.3
-110138
15387.4
-75876.1
13448.3
-43501.8
19412.1
-15584.5
27450.7
5075.45
34674.8
20516.9
41111.7
32311.6
46645.1
41296.4
51243.6
48118.2
55044
53352.3
58239.9
57482.8
61022
60888.2
63533.7
63807.5
65826.4
66346.6
67892.5
68551.8
69721.4
70463.6
71322.1
72134
72722.9
73624.7
73960.8
74998
75072.1
76309
76085.5
77601.2
77019.3
78899.6
77881.9
80201.8
78672.2
112419
112405
112380
112330
112283
112197
112113
111985
111873
111703
111562
111343
111172
110895
110694
110345
110118
109675
109427
108860
108605
107874
107631
106681
106483
105235
105138
103477
103569
101331
101746
98694
99637.8
95427.2
97210.7
91346
94435.4
86201.8
91288.3
79655
87741.1
71210.8
83690.4
60041
78755.3
44580.2
71908.9
22042.1
61381.8
-10942
45991.7
-56947.1
27229
-110001
15410.9
-75853.8
13467.6
-43495.4
19420.5
-15591.7
27451.5
5067.73
34674.3
20509.9
41109.9
32304.4
46642.2
41289.4
51240.7
48112.2
55041.6
53347.9
58238.4
57479.9
61021.1
60886.2
63532.8
63805.6
65825
66344.4
67890.5
68549.3
69719
70460.9
71319.5
72131.6
72720.5
73622.8
73958.8
74996.5
75070.8
76308
76084.9
77600.3
77019.7
78898.2
77883.4
80199.5
78675
112415
112402
112377
112327
112280
112194
112111
111983
111870
111701
111559
111341
111170
110893
110692
110343
110115
109672
109424
108857
108602
107871
107628
106678
106481
105232
105135
103474
103566
101328
101744
98690.1
99635.7
95423
97208.9
91341.5
94434
86197.1
91287.2
79649.9
87739.8
71204.6
83687.7
60031.8
78749.2
44566.5
71898.9
22027.4
61373.2
-10948.1
45990.7
-56914.8
27254.2
-109865
15434.4
-75831.3
13486.8
-43489
19428.9
-15598.8
27452.2
5060.09
34673.9
20503
41108.1
32297.3
46639.4
41282.6
51237.7
48106.4
55039.3
53343.5
58236.9
57477
61020.3
60884.2
63532
63803.7
65823.6
66342.1
67888.5
68546.7
69716.5
70458.3
71317
72129.2
72718.1
73620.8
73956.9
74995.1
75069.4
76307
76084.4
77599.4
77020.2
78896.9
77885
80197.2
78677.8
112412
112399
112375
112324
112278
112192
112108
111980
111868
111698
111557
111338
111167
110890
110690
110340
110113
109669
109422
108855
108599
107868
107625
106675
106478
105228
105133
103471
103564
101324
101742
98686.2
99633.5
95418.8
97207.1
91337.1
94432.6
86192.4
91286.2
79644.8
87738.6
71198.4
83685.1
60022.7
78743.1
44552.9
71889.1
22012.9
61364.6
-10954.2
45989.6
-56882.9
27278.8
-109731
15457.9
-75808.8
13506
-43482.6
19437.3
-15605.8
27452.9
5052.51
34673.4
20496.1
41106.3
32290.2
46636.5
41275.8
51234.8
48100.6
55036.9
53339.2
58235.4
57474.1
61019.4
60882.1
63531.1
63801.8
65822.2
66339.9
67886.5
68544.2
69714.1
70455.7
71314.4
72126.8
72715.7
73618.8
73954.9
74993.6
75068.1
76306
76083.8
77598.5
77020.6
78895.6
77886.5
80194.9
78680.5
112409
112396
112372
112322
112275
112190
112106
111978
111866
111696
111555
111336
111165
110888
110687
110338
110110
109667
109419
108852
108597
107865
107623
106672
106475
105225
105130
103467
103561
101321
101739
98682.3
99631.4
95414.7
97205.3
91332.7
94431.2
86187.8
91285.1
79639.8
87737.4
71192.2
83682.4
60013.6
78737.1
44539.5
71879.3
21998.6
61356.2
-10960.1
45988.6
-56851.3
27302.9
-109598
15481.4
-75786.1
13525.3
-43476.3
19445.6
-15612.8
27453.7
5045.01
34673
20489.3
41104.5
32283.3
46633.7
41269
51231.9
48094.8
55034.6
53334.9
58233.9
57471.2
61018.6
60880.1
63530.2
63799.9
65820.9
66337.7
67884.5
68541.7
69711.6
70453.1
71311.9
72124.4
72713.4
73616.9
73953
74992.2
75066.7
76305
76083.3
77597.6
77021
78894.3
77888.1
80192.6
78683.2
112406
112394
112369
112319
112273
112187
112104
111976
111864
111694
111553
111334
111163
110886
110685
110335
110108
109664
109417
108849
108594
107863
107620
106669
106473
105222
105128
103464
103559
101317
101737
98678.4
99629.3
95410.6
97203.5
91328.4
94429.8
86183.2
91284.1
79634.9
87736.2
71186.1
83679.8
60004.7
78731.1
44526.2
71869.7
21984.4
61347.9
-10966
45987.6
-56819.9
27326.4
-109467
15504.9
-75763.3
13544.5
-43469.9
19453.8
-15619.7
27454.4
5037.58
34672.5
20482.5
41102.8
32276.3
46630.9
41262.3
51229
48089.1
55032.3
53330.6
58232.4
57468.3
61017.7
60878.1
63529.4
63798
65819.5
66335.5
67882.5
68539.2
69709.2
70450.6
71309.3
72122
72711
73614.9
73951
74990.7
75065.4
76303.9
76082.7
77596.6
77021.3
78892.9
77889.6
80190.4
78685.9
112403
112391
112366
112317
112270
112185
112101
111974
111862
111692
111550
111332
111160
110883
110683
110333
110106
109661
109414
108847
108592
107860
107618
106666
106470
105219
105125
103461
103557
101313
101735
98674.6
99627.3
95406.5
97201.8
91324.1
94428.5
86178.7
91283
79630
87735
71180.1
83677.2
59995.8
78725.2
44513
71860.1
21970.3
61339.6
-10971.8
45986.7
-56789
27349.5
-109337
15528.5
-75740.4
13563.7
-43463.6
19461.9
-15626.5
27455.1
5030.23
34672.1
20475.8
41101
32269.5
46628.2
41255.7
51226.2
48083.4
55030
53326.3
58231
57465.5
61016.9
60876.1
63528.5
63796.1
65818.1
66333.3
67880.5
68536.7
69706.8
70448
71306.8
72119.6
72708.6
73612.9
73949.1
74989.3
75064
76302.8
76082.1
77595.7
77021.7
78891.6
77891.1
80188.1
78688.6
112400
112388
112363
112314
112268
112183
112099
111972
111859
111690
111548
111330
111158
110881
110680
110330
110103
109659
109412
108844
108589
107857
107615
106663
106468
105216
105123
103457
103554
101310
101732
98670.9
99625.2
95402.5
97200
91319.8
94427.1
86174.2
91282
79625.1
87733.8
71174.1
83674.6
59987.1
78719.3
44499.9
71850.7
21956.4
61331.5
-10977.5
45985.7
-56758.3
27372
-109208
15552.2
-75717.5
13582.8
-43457.3
19470
-15633.2
27455.8
5022.94
34671.6
20469.2
41099.3
32262.7
46625.4
41249.1
51223.3
48077.8
55027.7
53322.1
58229.5
57462.6
61016
60874.2
63527.7
63794.2
65816.7
66331.1
67878.5
68534.2
69704.4
70445.4
71304.3
72117.3
72706.3
73611
73947.1
74987.8
75062.7
76301.8
76081.5
77594.7
77022.1
78890.2
77892.5
80185.8
78691.3
112397
112385
112360
112312
112265
112180
112097
111969
111857
111687
111546
111327
111156
110879
110678
110328
110101
109656
109410
108841
108587
107854
107613
106660
106465
105213
105120
103454
103552
101306
101730
98667.1
99623.2
95398.5
97198.3
91315.6
94425.7
86169.8
91281
79620.3
87732.7
71168.2
83672
59978.4
78713.5
44487
71841.4
21942.7
61323.5
-10983.2
45984.8
-56728
27394.1
-109081
15575.9
-75694.5
13601.9
-43451.1
19478
-15639.9
27456.5
5015.72
34671.2
20462.6
41097.5
32255.9
46622.7
41242.6
51220.5
48072.3
55025.5
53317.9
58228
57459.8
61015.1
60872.2
63526.8
63792.3
65815.4
66329
67876.5
68531.7
69702
70442.9
71301.8
72114.9
72703.9
73609
73945.2
74986.3
75061.3
76300.7
76080.9
77593.7
77022.4
78888.8
77894
80183.6
78693.9
112394
112382
112358
112309
112263
112178
112095
111967
111855
111685
111544
111325
111154
110877
110676
110326
110099
109654
109407
108839
108584
107851
107610
106657
106463
105210
105118
103451
103549
101303
101728
98663.5
99621.2
95394.6
97196.6
91311.4
94424.4
86165.4
91279.9
79615.5
87731.5
71162.3
83669.5
59969.8
78707.8
44474.3
71832.2
21929.1
61315.5
-10988.8
45983.9
-56698
27415.7
-108955
15599.6
-75671.4
13620.9
-43444.9
19485.9
-15646.5
27457.2
5008.58
34670.7
20456.1
41095.8
32249.3
46620
41236.2
51217.7
48066.7
55023.2
53313.8
58226.6
57457
61014.3
60870.2
63525.9
63790.5
65814
66326.8
67874.6
68529.3
69699.6
70440.3
71299.3
72112.6
72701.6
73607.1
73943.2
74984.8
75059.9
76299.6
76080.3
77592.7
77022.7
78887.4
77895.4
80181.3
78696.6
112391
112379
112355
112307
112261
112176
112093
111965
111853
111683
111542
111323
111152
110874
110674
110323
110096
109651
109405
108836
108582
107849
107608
106654
106460
105207
105115
103448
103547
101300
101726
98659.8
99619.2
95390.7
97194.9
91307.3
94423.1
86161.1
91278.9
79610.8
87730.3
71156.4
83666.9
59961.2
78702.2
44461.6
71823.1
21915.6
61307.7
-10994.3
45983.1
-56668.3
27436.9
-108831
15623.5
-75648.4
13639.8
-43438.8
19493.7
-15653
27457.8
5001.5
34670.2
20449.7
41094.1
32242.6
46617.3
41229.8
51215
48061.3
55021
53309.7
58225.1
57454.3
61013.4
60868.3
63525
63788.6
65812.6
66324.6
67872.6
68526.8
69697.3
70437.8
71296.8
72110.2
72699.3
73605.1
73941.3
74983.3
75058.6
76298.5
76079.7
77591.7
77023.1
78886.1
77896.8
80179.1
78699.2
112388
112376
112352
112304
112258
112174
112090
111963
111851
111681
111540
111321
111150
110872
110672
110321
110094
109649
109402
108833
108579
107846
107605
106651
106458
105204
105113
103444
103545
101296
101724
98656.2
99617.3
95386.8
97193.2
91303.2
94421.8
86156.8
91277.9
79606.1
87729.2
71150.7
83664.4
59952.8
78696.6
44449.1
71814.2
21902.3
61299.9
-10999.8
45982.2
-56638.9
27457.7
-108708
15647.4
-75625.4
13658.6
-43432.7
19501.5
-15659.5
27458.5
4994.5
34669.8
20443.3
41092.4
32236.1
46614.6
41223.5
51212.2
48055.9
55018.8
53305.6
58223.7
57451.5
61012.6
60866.3
63524.2
63786.7
65811.3
66322.5
67870.6
68524.4
69694.9
70435.3
71294.3
72107.9
72697
73603.1
73939.4
74981.8
75057.2
76297.3
76079.1
77590.7
77023.4
78884.7
77898.2
80176.8
78701.7
112385
112374
112350
112302
112256
112172
112088
111961
111849
111679
111538
111319
111148
110870
110669
110319
110092
109647
109400
108831
108577
107843
107603
106648
106455
105201
105111
103441
103543
101293
101721
98652.6
99615.3
95383
97191.6
91299.2
94420.5
86152.5
91276.9
79601.5
87728
71144.9
83661.9
59944.4
78691
44436.8
71805.3
21889.2
61292.3
-11005.2
45981.4
-56609.8
27478.1
-108587
15671.3
-75602.4
13677.2
-43426.8
19509.1
-15665.9
27459.1
4987.56
34669.3
20436.9
41090.7
32229.6
46612
41217.2
51209.5
48050.5
55016.6
53301.5
58222.3
57448.8
61011.7
60864.4
63523.3
63784.9
65809.9
66320.4
67868.7
68522
69692.5
70432.8
71291.8
72105.5
72694.6
73601.2
73937.4
74980.3
75055.8
76296.2
76078.4
77589.6
77023.7
78883.3
77899.6
80174.6
78704.3
112382
112371
112347
112299
112254
112169
112086
111959
111847
111677
111536
111317
111145
110868
110667
110317
110090
109644
109398
108828
108575
107841
107600
106646
106453
105198
105108
103438
103540
101290
101719
98649.1
99613.4
95379.2
97189.9
91295.2
94419.2
86148.3
91275.9
79596.9
87726.9
71139.3
83659.5
59936.1
78685.5
44424.6
71796.6
21876.2
61284.7
-11010.5
45980.7
-56581.1
27498.1
-108467
15695.3
-75579.5
13695.7
-43420.9
19516.7
-15672.2
27459.8
4980.69