/*--------------------------------*- C++ -*----------------------------------*\
| =========                 |                                                 |
| \\      /  F ield         | OpenFOAM: The Open Source CFD Toolbox           |
|  \\    /   O peration     | Version:  2412                                  |
|   \\  /    A nd           | Website:  www.openfoam.com                      |
|    \\/     M anipulation  |                                                 |
\*---------------------------------------------------------------------------*/
FoamFile
{
    version     2.0;
    format      ascii;
    arch        "LSB;label=32;scalar=64";
    class       surfaceScalarField;
    location    "0.2";
    object      phi;
}
// * * * * * * * * * * * * * * * * * * * * * * * * * * * * * * * * * * * * * //

dimensions      [0 3 -1 0 0 0 0];

oriented        oriented;

internalField   nonuniform List<scalar> 
25905
(
0.0074758
-0.0130926
0.00740763
-0.00888456
0.00738735
-0.00182634
0.00741179
0.00487332
0.0074632
0.00844012
0.0075189
0.00870825
0.00756655
0.007488
0.00760538
0.00622372
0.00763826
0.00531407
0.00766692
0.00463093
0.007692
0.00404372
0.00771396
0.00353166
0.00773302
0.00306695
0.00774964
0.00267441
0.00776393
0.00230902
0.00777631
0.00200989
0.00778663
0.00170331
0.00779551
0.00148028
0.00780258
0.00122368
0.00780861
0.00106487
0.00781301
0.00084185
0.00781677
0.000742107
0.00781889
0.000524481
0.00782089
0.000496478
0.0078212
0.00027839
0.00782194
0.000321047
0.00782081
8.94314e-05
0.00782077
0.000215614
0.00781847
-5.74473e-05
0.00781818
0.000186107
0.00781505
-0.000151974
0.00781498
0.000228718
0.00781123
-0.000195865
0.00781196
0.000376666
0.00780809
-0.000148279
0.00781066
0.000665796
0.00780767
2.30439e-05
0.00781394
0.00117918
0.00781416
0.00042111
0.00782764
0.00199785
0.00783473
0.0010694
0.00785889
0.00300299
0.00787367
0.00158777
0.00790578
0.0034848
0.00791901
0.000962528
0.00794275
0.00222247
0.0079332
-0.00177524
0.00793207
-0.00115074
0.00790197
-0.00537034
0.00786961
-0.00761993
0.00780121
-0.0135356
0.00763256
-0.0297964
0.00734846
-0.0466724
0.00738673
0.0030189
0.00758974
0.0317675
0.00768598
0.0177856
0.00769918
0.00642957
0.00771169
0.00459725
0.00770477
0.000905866
0.00771388
0.00215399
0.00770866
-7.99662e-05
0.00771665
0.00151901
0.00771349
5.34028e-05
0.0077233
0.00156482
0.00772372
0.000224405
0.00773346
0.00124366
0.00773275
-0.000179176
0.00773723
0.000400778
0.0077314
-0.000911239
0.00772778
-0.000605805
0.0077154
-0.00165986
0.00770448
-0.0014586
0.00768797
-0.00216582
0.00767354
-0.00192494
0.00765694
-0.00225879
0.00764359
-0.00192731
0.00763043
-0.00199558
0.00762037
-0.00167871
0.00761093
-0.0016628
0.00760353
-0.00145397
0.00759628
-0.0014792
0.00758962
-0.00141648
0.00758248
-0.00149449
0.00757508
-0.00152894
0.00756734
-0.0016084
0.00755929
-0.00164981
0.00755164
-0.00167076
0.00754419
-0.00161952
0.00753836
-0.00150987
0.00753352
-0.0012753
0.00753169
-0.000991067
0.00753228
-0.000423399
0.00753749
8.7453e-05
0.00754771
0.0011873
0.00756434
0.00196646
0.00759128
0.00385736
0.00762696
0.00497451
0.00768171
0.00782852
0.0101207
0.00747577
-0.0129926
0.00740763
-0.00881642
0.00738753
-0.00180624
0.00741229
0.00484856
0.00746398
0.00838842
0.00751989
0.00865234
0.00756773
0.00744016
0.00760675
0.0061847
0.0076398
0.00528102
0.00766862
0.00460212
0.00769383
0.00401851
0.0077159
0.00350959
0.00773506
0.0030478
0.00775177
0.0026577
0.00776612
0.00229466
0.00777857
0.00199745
0.00778895
0.00169293
0.00779788
0.00147135
0.007805
0.00121655
0.00781107
0.00105879
0.00781552
0.000837403
0.00781932
0.000738307
0.00782148
0.000522322
0.00782352
0.000494438
0.00782387
0.000278045
0.00782464
0.000320275
0.00782355
9.05179e-05
0.00782354
0.000215624
0.00782129
-5.51914e-05
0.00782103
0.000186365
0.00781794
-0.000148884
0.00781791
0.000228746
0.0078142
-0.000192155
0.00781498
0.000375892
0.00781116
-0.000144467
0.00781378
0.000663176
0.00781087
2.59586e-05
0.00781721
0.00117284
0.0078175
0.000420817
0.00783105
0.0019843
0.00783819
0.00106226
0.00786236
0.00297882
0.00787712
0.00157301
0.00790914
0.00345277
0.00792228
0.000949396
0.0079459
0.00219885
0.0079363
-0.00176563
0.00793501
-0.00114946
0.00790469
-0.00534001
0.00787173
-0.00758697
0.00780253
-0.0134664
0.00763249
-0.0296264
0.00734669
-0.0463866
0.00738488
0.0029807
0.00758899
0.0315634
0.00768603
0.0176886
0.0076999
0.0064157
0.00771279
0.00458436
0.00770604
0.000912619
0.00771525
0.00214478
0.00771004
-7.47573e-05
0.00771805
0.001511
0.00771491
5.6538e-05
0.00772473
0.001555
0.00772515
0.000223988
0.00773488
0.00123393
0.00773415
-0.000178441
0.00773861
0.000396315
0.00773278
-0.000905409
0.00772917
-0.0006022
0.00771682
-0.00164751
0.00770594
-0.00144771
0.00768948
-0.00214937
0.0076751
-0.00191055
0.00765852
-0.00224221
0.00764519
-0.00191397
0.00763202
-0.00198241
0.00762195
-0.00166863
0.00761248
-0.00165332
0.00760505
-0.00144653
0.00759775
-0.00147191
0.00759108
-0.0014098
0.00758391
-0.00148733
0.00757651
-0.00152154
0.00756878
-0.00160067
0.00756076
-0.00164178
0.00755313
-0.00166313
0.00754574
-0.00161213
0.00753997
-0.0015041
0.00753523
-0.00127055
0.0075335
-0.000989344
0.00753424
-0.000424133
0.00753961
8.20845e-05
0.00755005
0.00117686
0.00756691
0.0019496
0.00759413
0.00383014
0.00763011
0.00493853
0.00768515
0.00777348
0.0100488
0.00747573
-0.0128925
0.00740761
-0.0087483
0.0073877
-0.00178633
0.00741275
0.00482351
0.00746472
0.00833645
0.00752085
0.00859622
0.00756888
0.00739212
0.00760809
0.00614549
0.00764132
0.00524779
0.0076703
0.00457314
0.00769564
0.00399317
0.00771782
0.00348741
0.00773708
0.00302854
0.00775387
0.0026409
0.0077683
0.00228023
0.00778082
0.00198493
0.00779126
0.00168248
0.00780024
0.00146237
0.00780741
0.00120938
0.00781353
0.00105268
0.00781802
0.000832911
0.00782186
0.000734466
0.00782407
0.000520122
0.00782614
0.000492358
0.00782653
0.000277659
0.00782734
0.000319465
0.00782629
9.15648e-05
0.00782632
0.000215598
0.0078241
-5.29748e-05
0.00782388
0.000186589
0.00782083
-0.000145834
0.00782084
0.000228738
0.00781717
-0.00018849
0.00781799
0.000375077
0.00781423
-0.00014071
0.00781691
0.000660501
0.00781406
2.88016e-05
0.00782047
0.00116644
0.00782084
0.000420445
0.00783445
0.00197069
0.00784164
0.00105507
0.00786582
0.00295464
0.00788055
0.00155828
0.0079125
0.00342082
0.00792554
0.000936354
0.00794904
0.00217534
0.00793938
-0.00175597
0.00793795
-0.00114804
0.00790739
-0.00530945
0.00787383
-0.00755342
0.00780382
-0.0133964
0.00763237
-0.0294549
0.00734489
-0.0460991
0.007383
0.00294259
0.00758819
0.0313583
0.00768603
0.0175907
0.00770059
0.00640114
0.00771386
0.00457108
0.0077073
0.000919189
0.0077166
0.00213547
0.00771141
-6.95655e-05
0.00771943
0.00150298
0.00771634
5.96354e-05
0.00772617
0.00154516
0.0077266
0.000223567
0.0077363
0.00122422
0.00773556
-0.000177688
0.00774
0.000391867
0.00773417
-0.00089958
0.00773058
-0.000598606
0.00771826
-0.00163519
0.00770742
-0.00143687
0.00769101
-0.00213296
0.00767667
-0.00189622
0.00766013
-0.00222567
0.00764681
-0.00190065
0.00763364
-0.00196925
0.00762355
-0.00165854
0.00761404
-0.00164382
0.00760658
-0.00143907
0.00759925
-0.00146458
0.00759254
-0.0014031
0.00758536
-0.00148015
0.00757795
-0.00151413
0.00757023
-0.00159296
0.00756223
-0.00163378
0.00755464
-0.00165555
0.00754731
-0.00160479
0.0075416
-0.00149839
0.00753694
-0.0012659
0.00753532
-0.000987721
0.0075362
-0.000425012
0.00754172
7.65613e-05
0.00755238
0.0011662
0.00756946
0.00193252
0.00759697
0.00380263
0.00763324
0.00490227
0.00768857
0.00771815
0.00997655
0.00747569
-0.0127925
0.00740759
-0.0086802
0.00738785
-0.00176659
0.0074132
0.00479816
0.00746545
0.0082842
0.00752179
0.00853988
0.00757003
0.00734388
0.00760943
0.00610609
0.00764284
0.00521438
0.00767197
0.00454402
0.00769744
0.00396769
0.00771974
0.00346511
0.00773909
0.00300919
0.00775597
0.00262402
0.00777048
0.00226573
0.00778306
0.00197236
0.00779356
0.00167198
0.00780259
0.00145334
0.00780982
0.00120215
0.00781598
0.00104651
0.00782052
0.000828375
0.0078244
0.000730582
0.00782665
0.00051788
0.00782876
0.000490239
0.00782919
0.000277233
0.00783004
0.000318617
0.00782903
9.2572e-05
0.00782909
0.000215535
0.00782692
-5.07982e-05
0.00782673
0.000186777
0.00782372
-0.000142825
0.00782376
0.000228693
0.00782014
-0.000184869
0.007821
0.000374219
0.0078173
-0.000137008
0.00782003
0.000657773
0.00781726
3.1574e-05
0.00782373
0.00115996
0.00782418
0.000419995
0.00783785
0.00195702
0.00784509
0.00104784
0.00786927
0.00293046
0.00788398
0.00154358
0.00791584
0.00338896
0.00792879
0.000923405
0.00795218
0.00215195
0.00794245
-0.00174624
0.00794087
-0.00114646
0.00791006
-0.00527863
0.0078759
-0.00751926
0.00780508
-0.0133255
0.00763221
-0.029282
0.00734305
-0.0458099
0.00738107
0.00290456
0.00758734
0.031152
0.00768597
0.0174921
0.00770123
0.00638588
0.0077149
0.0045574
0.00770853
0.000925568
0.00771794
0.00212605
0.00771277
-6.43948e-05
0.00772082
0.00149493
0.00771776
6.26898e-05
0.00772761
0.00153531
0.00772805
0.000223139
0.00773774
0.00121452
0.00773698
-0.00017692
0.00774141
0.000387435
0.00773558
-0.000893751
0.00773199
-0.000595021
0.00771971
-0.00162291
0.00770891
-0.00142607
0.00769255
-0.0021166
0.00767825
-0.00188192
0.00766174
-0.00220916
0.00764844
-0.00188735
0.00763526
-0.00195607
0.00762515
-0.00164843
0.00761562
-0.00163428
0.00760811
-0.00143157
0.00760075
-0.00145722
0.00759402
-0.00139637
0.00758682
-0.00147295
0.00757941
-0.00150671
0.0075717
-0.00158524
0.00756372
-0.0016258
0.00755616
-0.00164799
0.00754888
-0.00159751
0.00754323
-0.00149275
0.00753867
-0.00126133
0.00753714
-0.000986196
0.00753816
-0.000426034
0.00754384
7.08852e-05
0.00755471
0.00115533
0.00757202
0.00191521
0.0075998
0.00377484
0.00763635
0.00486571
0.00769197
0.00766253
0.00990401
0.00747566
-0.0126924
0.00740757
-0.00861211
0.007388
-0.00174702
0.00741365
0.00477252
0.00746618
0.00823167
0.00752274
0.00848332
0.00757117
0.00729545
0.00761077
0.0060665
0.00764435
0.0051808
0.00767363
0.00451474
0.00769924
0.00394208
0.00772165
0.00344271
0.0077411
0.00298973
0.00775807
0.00260705
0.00777265
0.00225115
0.00778529
0.00195971
0.00779586
0.00166142
0.00780494
0.00144426
0.00781222
0.00119488
0.00781843
0.0010403
0.00782301
0.000823794
0.00782694
0.000726656
0.00782922
0.000515596
0.00783138
0.00048808
0.00783185
0.000276767
0.00783273
0.000317731
0.00783176
9.35391e-05
0.00783186
0.000215435
0.00782973
-4.86613e-05
0.00782958
0.000186929
0.00782661
-0.000139855
0.00782669
0.000228613
0.00782311
-0.000181294
0.00782401
0.00037332
0.00782036
-0.000133363
0.00782315
0.000654991
0.00782044
3.42757e-05
0.00782699
0.00115342
0.00782751
0.000419468
0.00784124
0.0019433
0.00784853
0.00104055
0.00787272
0.00290627
0.0078874
0.00152889
0.00791918
0.00335718
0.00793203
0.000910548
0.0079553
0.00212868
0.00794551
-0.00173644
0.00794378
-0.00114473
0.00791272
-0.00524757
0.00787796
-0.0074845
0.00780631
-0.0132539
0.007632
-0.0291077
0.00734118
-0.0455191
0.0073791
0.00286664
0.00758644
0.0309447
0.00768587
0.0173926
0.00770182
0.00636993
0.00771591
0.00454332
0.00770974
0.000931745
0.00771927
0.00211652
0.00771412
-5.92487e-05
0.00772219
0.00148685
0.00771919
6.56969e-05
0.00772906
0.00152544
0.0077295
0.0002227
0.00773919
0.00120484
0.0077384
-0.000176136
0.00774282
0.000383017
0.00773699
-0.000887922
0.00773342
-0.000591448
0.00772117
-0.00161066
0.00771041
-0.00141531
0.0076941
-0.00210029
0.00767985
-0.00186767
0.00766337
-0.00219268
0.00765008
-0.00187405
0.0076369
-0.00194289
0.00762677
-0.0016383
0.0076172
-0.00162471
0.00760966
-0.00142403
0.00760227
-0.00144982
0.00759551
-0.00138961
0.00758829
-0.00146573
0.00758087
-0.00149929
0.00757317
-0.00157754
0.00756521
-0.00161785
0.00755769
-0.00164047
0.00755046
-0.00159027
0.00754487
-0.00148716
0.00754039
-0.00125686
0.00753897
-0.000984769
0.00754013
-0.0004272
0.00754596
6.50575e-05
0.00755704
0.00114425
0.00757457
0.00189769
0.00760263
0.00374678
0.00763947
0.00482888
0.00769537
0.00760662
0.00983119
0.00747563
-0.0125923
0.00740756
-0.00854403
0.00738815
-0.00172762
0.00741409
0.00474658
0.00746689
0.00817886
0.00752367
0.00842654
0.00757231
0.00724681
0.0076121
0.00602671
0.00764585
0.00514704
0.00767529
0.0044853
0.00770103
0.00391634
0.00772355
0.00342018
0.0077431
0.00297018
0.00776015
0.00259
0.00777481
0.00223649
0.00778752
0.001947
0.00779814
0.0016508
0.00780728
0.00143512
0.00781461
0.00118755
0.00782087
0.00103404
0.00782549
0.000819168
0.00782946
0.000722687
0.00783179
0.000513271
0.00783399
0.000485882
0.00783449
0.00027626
0.00783542
0.000316806
0.00783449
9.44665e-05
0.00783463
0.000215297
0.00783253
-4.65644e-05
0.00783242
0.000187045
0.00782949
-0.000136926
0.0078296
0.000228496
0.00782607
-0.000177763
0.00782702
0.000372379
0.00782343
-0.000129772
0.00782626
0.000652156
0.00782363
3.69072e-05
0.00783024
0.00114681
0.00783084
0.000418864
0.00784463
0.00192951
0.00785196
0.00103322
0.00787615
0.00288207
0.00789081
0.00151424
0.00792251
0.00332548
0.00793527
0.000897786
0.00795842
0.00210554
0.00794856
-0.00172658
0.00794667
-0.00114285
0.00791536
-0.00521625
0.00787999
-0.00744913
0.00780752
-0.0131814
0.00763176
-0.028932
0.00733928
-0.0452266
0.0073771
0.00282882
0.00758548
0.0307363
0.00768572
0.0172924
0.00770238
0.00635327
0.00771689
0.0045288
0.00771093
0.000937713
0.00772058
0.00210687
0.00771546
-5.41303e-05
0.00772357
0.00147875
0.00772061
6.86524e-05
0.00773051
0.00151554
0.00773096
0.000222248
0.00774064
0.00119516
0.00773984
-0.000175337
0.00774425
0.000378613
0.00773842
-0.000882093
0.00773485
-0.000587886
0.00772264
-0.00159845
0.00771192
-0.00140458
0.00769566
-0.00208403
0.00768146
-0.00185347
0.00766501
-0.00217624
0.00765173
-0.00186077
0.00763854
-0.00192971
0.00762839
-0.00162816
0.0076188
-0.00161512
0.00761123
-0.00141646
0.00760379
-0.00144239
0.00759701
-0.00138282
0.00758977
-0.0014585
0.00758235
-0.00149187
0.00757465
-0.00156984
0.00756672
-0.00160991
0.00755923
-0.00163298
0.00755204
-0.00158309
0.00754652
-0.00148163
0.00754213
-0.00125247
0.0075408
-0.00098344
0.0075421
-0.000428506
0.00754808
5.90792e-05
0.00755938
0.00113295
0.00757712
0.00187995
0.00760546
0.00371844
0.00764257
0.00479177
0.00769875
0.00755044
0.00975807
0.00747561
-0.0124921
0.00740755
-0.00847597
0.00738831
-0.00170837
0.00741453
0.00472036
0.00746761
0.00812578
0.00752461
0.00836954
0.00757344
0.00719797
0.00761342
0.00598673
0.00764735
0.00511311
0.00767694
0.00445572
0.00770281
0.00389047
0.00772545
0.00339755
0.0077451
0.00295053
0.00776223
0.00257286
0.00777696
0.00222176
0.00778974
0.00193422
0.00780042
0.00164011
0.00780962
0.00142592
0.007817
0.00118017
0.0078233
0.00102774
0.00782797
0.000814496
0.00783198
0.000718676
0.00783435
0.000510903
0.00783659
0.000483643
0.00783714
0.000275713
0.0078381
0.000315844
0.00783721
9.53532e-05
0.00783739
0.000215122
0.00783533
-4.45079e-05
0.00783525
0.000187124
0.00783237
-0.000134038
0.00783252
0.000228342
0.00782903
-0.000174277
0.00783002
0.000371395
0.00782648
-0.000126237
0.00782937
0.000649268
0.00782681
3.94686e-05
0.00783349
0.00114013
0.00783417
0.000418184
0.00784801
0.00191567
0.00785538
0.00102585
0.00787958
0.00285787
0.00789421
0.00149961
0.00792583
0.00329386
0.0079385
0.000885119
0.00796152
0.00208251
0.00795159
-0.00171665
0.00794955
-0.00114081
0.00791797
-0.00518467
0.00788199
-0.00741316
0.0078087
-0.0131081
0.00763148
-0.0287548
0.00733735
-0.0449325
0.00737505
0.00279112
0.00758448
0.0305269
0.00768552
0.0171913
0.00770289
0.00633589
0.00771784
0.00451385
0.0077121
0.000943462
0.00772187
0.00209709
0.00771679
-4.90421e-05
0.00772493
0.0014706
0.00772203
7.15519e-05
0.00773196
0.0015056
0.00773243
0.000221779
0.0077421
0.00118549
0.00774129
-0.000174523
0.00774568
0.000374224
0.00773985
-0.000876264
0.0077363
-0.000584335
0.00772412
-0.00158627
0.00771344
-0.00139391
0.00769723
-0.00206782
0.00768307
-0.00183931
0.00766665
-0.00215982
0.00765339
-0.0018475
0.0076402
-0.00191652
0.00763003
-0.00161799
0.0076204
-0.00160549
0.0076128
-0.00140885
0.00760533
-0.00143492
0.00759852
-0.00137601
0.00759126
-0.00145125
0.00758383
-0.00148443
0.00757614
-0.00156215
0.00756823
-0.001602
0.00756077
-0.00162552
0.00755364
-0.00157596
0.00754817
-0.00147617
0.00754387
-0.00124817
0.00754263
-0.000982206
0.00754408
-0.000429953
0.00755021
5.29514e-05
0.00756171
0.00112145
0.00757967
0.00186198
0.00760828
0.00368984
0.00764567
0.00475438
0.00770213
0.00749399
0.00968467
0.00747558
-0.0123919
0.00740754
-0.00840793
0.00738845
-0.00168929
0.00741496
0.00469386
0.00746832
0.00807242
0.00752554
0.00831232
0.00757457
0.00714894
0.00761474
0.00594656
0.00764885
0.005079
0.00767859
0.00442598
0.00770459
0.00386447
0.00772734
0.0033748
0.00774708
0.00293079
0.00776431
0.00255564
0.00777911
0.00220696
0.00779196
0.00192138
0.0078027
0.00162937
0.00781195
0.00141667
0.00781937
0.00117275
0.00782573
0.00102139
0.00783044
0.000809779
0.0078345
0.000714622
0.00783691
0.000508492
0.00783919
0.000481365
0.00783978
0.000275125
0.00784078
0.000314842
0.00783993
9.61996e-05
0.00784014
0.000214909
0.00783813
-4.24916e-05
0.00783808
0.000187168
0.00783524
-0.00013119
0.00783543
0.000228152
0.00783199
-0.000170837
0.00783301
0.000370369
0.00782953
-0.000122758
0.00783248
0.000646325
0.00782998
4.1961e-05
0.00783673
0.00113339
0.00783748
0.000417428
0.00785138
0.00190177
0.0078588
0.00101843
0.00788301
0.00283367
0.00789761
0.00148501
0.00792914
0.00326233
0.00794171
0.000872549
0.00796462
0.0020596
0.00795461
-0.00170664
0.00795242
-0.00113862
0.00792057
-0.00515282
0.00788398
-0.00737657
0.00780986
-0.013034
0.00763117
-0.0285761
0.00733539
-0.0446367
0.00737297
0.00275354
0.00758343
0.0303164
0.00768527
0.0170895
0.00770336
0.0063178
0.00771877
0.00449844
0.00771324
0.000948985
0.00772316
0.00208717
0.0077181
-4.39872e-05
0.00772629
0.00146241
0.00772345
7.43918e-05
0.00773342
0.00149564
0.00773391
0.000221292
0.00774357
0.00117582
0.00774275
-0.000173696
0.00774712
0.000369848
0.00774129
-0.000870433
0.00773775
-0.000580796
0.00772561
-0.00157412
0.00771497
-0.00138327
0.00769881
-0.00205166
0.0076847
-0.0018252
0.00766831
-0.00214343
0.00765505
-0.00183425
0.00764186
-0.00190332
0.00763167
-0.0016078
0.00762202
-0.00159584
0.00761437
-0.00140121
0.00760687
-0.00142742
0.00760003
-0.00136917
0.00759276
-0.00144398
0.00758532
-0.001477
0.00757764
-0.00155447
0.00756975
-0.00159411
0.00756232
-0.0016181
0.00755524
-0.00156888
0.00754983
-0.00147076
0.00754561
-0.00124395
0.00754447
-0.000981068
0.00754606
-0.000431538
0.00755233
4.66753e-05
0.00756405
0.00110973
0.00758222
0.00184381
0.0076111
0.00366096
0.00764877
0.00471671
0.00770549
0.00743726
0.009611
0.00747556
-0.0122917
0.00740753
-0.0083399
0.0073886
-0.00167036
0.00741539
0.00466707
0.00746902
0.00801879
0.00752646
0.00825487
0.0075757
0.0070997
0.00761606
0.0059062
0.00765034
0.00504473
0.00768022
0.00439609
0.00770636
0.00383834
0.00772922
0.00335194
0.00774906
0.00291094
0.00776637
0.00253833
0.00778125
0.00219208
0.00779416
0.00190847
0.00780496
0.00161857
0.00781427
0.00140737
0.00782175
0.00116527
0.00782815
0.00101499
0.00783291
0.000805017
0.00783701
0.000710525
0.00783946
0.00050604
0.00784178
0.000479045
0.00784241
0.000274495
0.00784345
0.000313802
0.00784264
9.70057e-05
0.00784289
0.000214658
0.00784092
-4.05159e-05
0.00784091
0.000187174
0.0078381
-0.000128383
0.00783833
0.000227924
0.00783493
-0.000167441
0.007836
0.0003693
0.00783258
-0.000119334
0.00783558
0.000643329
0.00783315
4.43836e-05
0.00783996
0.00112658
0.00784079
0.000416598
0.00785475
0.00188781
0.00786221
0.00101096
0.00788642
0.00280946
0.00790099
0.00147044
0.00793245
0.00323088
0.00794492
0.000860077
0.00796771
0.00203681
0.00795762
-0.00169655
0.00795526
-0.00113627
0.00792314
-0.0051207
0.00788594
-0.00733937
0.00781099
-0.0129591
0.00763083
-0.0283959
0.00733341
-0.0443393
0.00737085
0.0027161
0.00758233
0.030105
0.00768498
0.0169868
0.0077038
0.00629898
0.00771966
0.00448258
0.00771437
0.000954274
0.00772443
0.00207712
0.00771941
-3.89701e-05
0.00772764
0.00145418
0.00772487
7.71681e-05
0.00773487
0.00148563
0.00773538
0.000220782
0.00774505
0.00116616
0.00774421
-0.000172856
0.00774857
0.000365486
0.00774274
-0.000864602
0.00773921
-0.000577268
0.0077271
-0.00156202
0.00771651
-0.00137268
0.0077004
-0.00203555
0.00768633
-0.00181113
0.00766997
-0.00212707
0.00765673
-0.00182101
0.00764353
-0.00189012
0.00763332
-0.00159759
0.00762364
-0.00158615
0.00761596
-0.00139353
0.00760842
-0.00141988
0.00760155
-0.0013623
0.00759427
-0.00143669
0.00758682
-0.00146955
0.00757914
-0.00154679
0.00757127
-0.00158623
0.00756387
-0.0016107
0.00755684
-0.00156185
0.00755149
-0.0014654
0.00754736
-0.00123982
0.00754631
-0.000980024
0.00754804
-0.000433262
0.00755446
4.02518e-05
0.00756638
0.00109781
0.00758477
0.00182542
0.00761391
0.00363181
0.00765185
0.00467877
0.00770885
0.00738026
0.00953705
0.00747554
-0.0121915
0.00740752
-0.00827188
0.00738875
-0.00165158
0.00741581
0.00464001
0.00746972
0.00796489
0.00752738
0.00819721
0.00757682
0.00705027
0.00761737
0.00586565
0.00765182
0.00501028
0.00768186
0.00436605
0.00770812
0.00381208
0.00773109
0.00332896
0.00775104
0.002891
0.00776843
0.00252094
0.00778338
0.00217712
0.00779636
0.00189549
0.00780722
0.00160771
0.00781658
0.00139801
0.00782411
0.00115774
0.00783056
0.00100854
0.00783536
0.000800209
0.0078395
0.000706385
0.007842
0.000503544
0.00784436
0.000476686
0.00784503
0.000273825
0.00784611
0.000312723
0.00784534
9.77712e-05
0.00784563
0.00021437
0.0078437
-3.85809e-05
0.00784373
0.000187143
0.00784096
-0.000125616
0.00784123
0.00022766
0.00783788
-0.00016409
0.00783899
0.000368189
0.00783562
-0.000115965
0.00783867
0.00064028
0.00783631
4.67378e-05
0.00784319
0.00111971
0.00784409
0.000415694
0.00785811
0.0018738
0.00786561
0.00100346
0.00788983
0.00278524
0.00790437
0.0014559
0.00793574
0.00319951
0.00794811
0.000847703
0.00797078
0.00201414
0.00796061
-0.00168637
0.0079581
-0.00113375
0.0079257
-0.0050883
0.00788789
-0.00730156
0.0078121
-0.0128833
0.00763046
-0.0282143
0.00733141
-0.0440402
0.0073687
0.0026788
0.00758118
0.0298925
0.00768464
0.0168834
0.0077042
0.00627943
0.00772053
0.00446624
0.00771548
0.000959322
0.00772568
0.00206693
0.0077207
-3.39936e-05
0.00772899
0.00144589
0.00772628
7.98777e-05
0.00773633
0.00147558
0.00773686
0.000220248
0.00774653
0.0011565
0.00774568
-0.000172003
0.00775002
0.000361136
0.00774419
-0.000858768
0.00774068
-0.000573753
0.0077286
-0.00154994
0.00771805
-0.00136213
0.00770199
-0.00201948
0.00768796
-0.0017971
0.00767164
-0.00211075
0.00765841
-0.00180777
0.0076452
-0.00187692
0.00763498
-0.00158737
0.00762526
-0.00157644
0.00761755
-0.00138582
0.00760998
-0.00141231
0.00760308
-0.0013554
0.00759578
-0.00142939
0.00758833
-0.0014621
0.00758065
-0.00153911
0.0075728
-0.00157838
0.00756543
-0.00160333
0.00755845
-0.00155486
0.00755315
-0.00146011
0.0075491
-0.00123578
0.00754815
-0.000979074
0.00755001
-0.000435122
0.00755658
3.36821e-05
0.00756871
0.00108569
0.00758731
0.00180681
0.00761672
0.0036024
0.00765493
0.00464057
0.00771219
0.007323
0.00946282
0.00747552
-0.0120913
0.00740752
-0.00820388
0.0073889
-0.00163296
0.00741624
0.00461267
0.00747041
0.00791071
0.0075283
0.00813933
0.00757793
0.00700063
0.00761867
0.00582491
0.0076533
0.00497566
0.00768348
0.00433587
0.00770987
0.00378568
0.00773296
0.00330588
0.007753
0.00287096
0.00777048
0.00250346
0.00778551
0.00216209
0.00779855
0.00188245
0.00780947
0.00159679
0.00781888
0.0013886
0.00782646
0.00115016
0.00783296
0.00100205
0.00783781
0.000795356
0.00784199
0.000702201
0.00784453
0.000501006
0.00784693
0.000474286
0.00784764
0.000273114
0.00784876
0.000311605
0.00784804
9.84961e-05
0.00784836
0.000214043
0.00784647
-3.66864e-05
0.00784654
0.000187076
0.00784381
-0.000122891
0.00784411
0.000227359
0.00784081
-0.000160785
0.00784196
0.000367034
0.00783865
-0.000112652
0.00784175
0.000637176
0.00783947
4.90231e-05
0.00784641
0.00111277
0.00784738
0.000414717
0.00786145
0.00185973
0.007869
0.000995905
0.00789322
0.00276102
0.00790773
0.00144138
0.00793902
0.00316822
0.0079513
0.00083543
0.00797384
0.00199159
0.00796359
-0.00167612
0.00796091
-0.00113107
0.00792823
-0.00505562
0.00788981
-0.00726314
0.00781319
-0.0128067
0.00763007
-0.0280312
0.00732938
-0.0437396
0.00736651
0.00264167
0.00758
0.029679
0.00768427
0.0167791
0.00770456
0.00625914
0.00772137
0.00444943
0.00771658
0.000964122
0.00772692
0.00205659
0.00772199
-2.90607e-05
0.00773033
0.00143755
0.00772769
8.25167e-05
0.00773779
0.00146548
0.00773835
0.000219688
0.00774801
0.00114683
0.00774715
-0.000171139
0.00775148
0.000356799
0.00774565
-0.000852933
0.00774215
-0.00057025
0.00773011
-0.00153791
0.0077196
-0.00135162
0.00770359
-0.00200347
0.00768961
-0.00178312
0.00767331
-0.00209445
0.00766009
-0.00179456
0.00764688
-0.00186371
0.00763664
-0.00157713
0.0076269
-0.0015667
0.00761915
-0.00137807
0.00761154
-0.00140471
0.00760462
-0.00134848
0.00759729
-0.00142206
0.00758984
-0.00145464
0.00758216
-0.00153144
0.00757433
-0.00157055
0.00756699
-0.00159599
0.00756005
-0.00154792
0.00755481
-0.00145487
0.00755085
-0.00123182
0.00755
-0.000978217
0.00755199
-0.000437119
0.00755871
2.69667e-05
0.00757103
0.00107336
0.00758985
0.001788
0.00761952
0.00357273
0.007658
0.00460209
0.00771553
0.00726548
0.00938832
0.0074755
-0.011991
0.00740751
-0.0081359
0.00738904
-0.00161448
0.00741665
0.00458506
0.0074711
0.00785627
0.00752921
0.00808122
0.00757905
0.00695079
0.00761998
0.00578398
0.00765477
0.00494087
0.0076851
0.00430553
0.00771162
0.00375916
0.00773482
0.00328268
0.00775495
0.00285083
0.00777251
0.0024859
0.00778762
0.00214699
0.00780073
0.00186934
0.00781171
0.0015858
0.00782118
0.00137913
0.00782881
0.00114253
0.00783535
0.000995505
0.00784025
0.000790457
0.00784448
0.000697974
0.00784706
0.000498426
0.0078495
0.000471844
0.00785025
0.000272362
0.00785141
0.000310448
0.00785072
9.91801e-05
0.00785109
0.000213678
0.00784923
-3.48326e-05
0.00784934
0.000186971
0.00784665
-0.000120207
0.00784699
0.00022702
0.00784373
-0.000157524
0.00784493
0.000365838
0.00784167
-0.000109393
0.00784483
0.00063402
0.00784261
5.12402e-05
0.00784961
0.00110577
0.00785066
0.000413667
0.00786479
0.0018456
0.00787238
0.000988313
0.0078966
0.0027368
0.00791109
0.0014269
0.00794229
0.00313701
0.00795447
0.000823256
0.0079769
0.00196917
0.00796655
-0.00166577
0.00796371
-0.00112823
0.00793074
-0.00502265
0.00789171
-0.0072241
0.00781426
-0.0127292
0.00762965
-0.0278465
0.00732734
-0.0434372
0.0073643
0.00260471
0.00757876
0.0294646
0.00768386
0.016674
0.00770489
0.00623811
0.0077222
0.00443212
0.00771765
0.000968668
0.00772815
0.00204609
0.00772326
-2.41741e-05
0.00773167
0.00142914
0.0077291
8.50834e-05
0.00773925
0.00145534
0.00773983
0.0002191
0.0077495
0.00113717
0.00774862
-0.000170263
0.00775295
0.000352475
0.00774711
-0.000847096
0.00774362
-0.000566759
0.00773162
-0.00152591
0.00772116
-0.00134116
0.00770519
-0.0019875
0.00769125
-0.00176918
0.00767498
-0.00207818
0.00766178
-0.00178135
0.00764856
-0.00185049
0.0076383
-0.00156687
0.00762853
-0.00155693
0.00762075
-0.00137029
0.00761311
-0.00139707
0.00760616
-0.00134153
0.00759881
-0.00141472
0.00759135
-0.00144717
0.00758368
-0.00152377
0.00757587
-0.00156274
0.00756856
-0.00158868
0.00756167
-0.00154103
0.00755648
-0.00144968
0.0075526
-0.00122794
0.00755184
-0.000977451
0.00755397
-0.000439251
0.00756083
2.01074e-05
0.00757336
0.00106083
0.00759238
0.00176897
0.00762232
0.00354279
0.00766106
0.00456334
0.00771885
0.00720769
0.00931355
0.00747548
-0.0118908
0.00740751
-0.00806792
0.00738918
-0.00159616
0.00741707
0.00455717
0.00747179
0.00780155
0.00753011
0.00802289
0.00758015
0.00690076
0.00762127
0.00574286
0.00765623
0.00490591
0.00768671
0.00427505
0.00771336
0.00373252
0.00773667
0.00325937
0.0077569
0.00283059
0.00777454
0.00246826
0.00778972
0.00213181
0.0078029
0.00185617
0.00781394
0.00157476
0.00782346
0.00136961
0.00783114
0.00113485
0.00783773
0.000988916
0.00784268
0.000785512
0.00784695
0.000693705
0.00784957
0.000495803
0.00785205
0.000469363
0.00785284
0.000271569
0.00785404
0.000309252
0.0078534
9.98236e-05
0.0078538
0.000213274
0.00785199
-3.30199e-05
0.00785213
0.000186829
0.00784949
-0.000117563
0.00784986
0.000226644
0.00784665
-0.000154309
0.00784789
0.000364598
0.00784468
-0.00010619
0.00784789
0.00063081
0.00784574
5.33895e-05
0.00785281
0.0010987
0.00785393
0.000412544
0.00786811
0.00183142
0.00787575
0.000980681
0.00789997
0.00271257
0.00791442
0.00141245
0.00794555
0.00310589
0.00795762
0.000811184
0.00797993
0.00194686
0.0079695
-0.00165534
0.00796649
-0.00112523
0.00793323
-0.00498939
0.00789359
-0.00718446
0.00781531
-0.0126509
0.00762921
-0.0276605
0.00732529
-0.0431333
0.00736205
0.00256795
0.00757749
0.0292491
0.00768341
0.0165681
0.00770519
0.00621632
0.00772299
0.00441432
0.00771871
0.000972954
0.00772936
0.00203544
0.00772452
-1.93382e-05
0.00773299
0.00142067
0.0077305
8.75745e-05
0.0077407
0.00144514
0.00774132
0.000218482
0.00775099
0.0011275
0.0077501
-0.000169376
0.00775441
0.000348162
0.00774857
-0.000841257
0.0077451
-0.000563281
0.00773313
-0.00151394
0.00772271
-0.00133074
0.0077068
-0.00197159
0.0076929
-0.00175529
0.00767666
-0.00206194
0.00766347
-0.00176815
0.00765024
-0.00183727
0.00763996
-0.00155659
0.00763017
-0.00154714
0.00762235
-0.00136248
0.00761468
-0.00138939
0.0076077
-0.00133455
0.00760034
-0.00140735
0.00759286
-0.0014397
0.0075852
-0.0015161
0.0075774
-0.00155494
0.00757012
-0.0015814
0.00756328
-0.00153419
0.00755815
-0.00144455
0.00755435
-0.00122415
0.00755368
-0.000976778
0.00755594
-0.000441517
0.00756295
1.31043e-05
0.00757568
0.0010481
0.00759491
0.00174974
0.0076251
0.0035126
0.00766411
0.00452433
0.00772216
0.00714965
0.00923852
0.00747547
-0.0117905
0.00740751
-0.00799996
0.00738932
-0.00157797
0.00741748
0.00452902
0.00747247
0.00774656
0.00753102
0.00796434
0.00758125
0.00685052
0.00762256
0.00570156
0.00765768
0.00487078
0.00768831
0.00424442
0.00771509
0.00370574
0.00773851
0.00323596
0.00775883
0.00281026
0.00777656
0.00245053
0.00779182
0.00211656
0.00780506
0.00184293
0.00781616