/*--------------------------------*- C++ -*----------------------------------*\
| =========                 |                                                 |
| \\      /  F ield         | OpenFOAM: The Open Source CFD Toolbox           |
|  \\    /   O peration     | Version:  2412                                  |
|   \\  /    A nd           | Website:  www.openfoam.com                      |
|    \\/     M anipulation  |                                                 |
\*---------------------------------------------------------------------------*/
FoamFile
{
    version     2.0;
    format      ascii;
    arch        "LSB;label=32;scalar=64";
    class       volVectorField;
    location    "0.2";
    object      U;
}
// * * * * * * * * * * * * * * * * * * * * * * * * * * * * * * * * * * * * * //

dimensions      [0 1 -1 0 0 0 0];

internalField   nonuniform List<vector> 
13068
(
(99.984 0.523847 0)
(100.198 3.37896 -4.38288e-17)
(101.047 8.18559 -4.39854e-17)
(102.623 12.8275 0)
(104.813 15.4468 0)
(107.282 15.9057 0)
(109.76 15.3739 0)
(112.162 14.8067 8.65511e-17)
(114.555 14.4787 0)
(116.947 14.3008 -4.11512e-17)
(119.393 14.196 0)
(121.853 14.142 0)
(124.397 14.1309 0)
(126.954 14.1705 0)
(129.634 14.2409 0)
(132.319 14.3603 3.63085e-17)
(135.175 14.497 -3.55129e-17)
(138.017 14.6859 3.46403e-17)
(141.091 14.8789 3.38328e-17)
(144.117 15.1335 3.29217e-17)
(147.46 15.3771 3.21096e-17)
(150.701 15.6994 -1.09225e-21)
(154.374 15.9906 3.03425e-17)
(157.86 16.3867 -2.93292e-17)
(161.939 16.7239 -9.0469e-22)
(165.704 17.2042 0)
(170.287 17.5869 0)
(174.366 18.1658 2.55162e-17)
(179.576 18.5938 -2.48013e-17)
(184.007 19.2903 0)
(190.004 19.7664 2.28827e-17)
(194.828 20.609 0)
(201.821 21.1427 0)
(207.085 22.1679 1.93184e-17)
(215.349 22.7763 -3.7936e-17)
(221.122 24.0312 0)
(231.029 24.748 1.69864e-17)
(237.422 26.3036 -1.48013e-17)
(249.491 27.1983 1.9009e-22)
(256.725 29.141 -1.24262e-17)
(271.704 30.255 2.61037e-17)
(280.142 32.5833 1.00076e-17)
(298.998 33.8126 -4.20681e-22)
(309.018 36.3205 7.56799e-18)
(332.761 37.3605 9.44207e-18)
(344.447 39.6369 5.03231e-18)
(373.767 40.3417 -7.64996e-18)
(386.921 42.3811 2.19409e-18)
(423.194 43.7526 -5.616e-18)
(439.838 44.2848 9.07657e-19)
(484.353 45.4899 3.58006e-18)
(506.316 37.1772 4.36158e-18)
(549.431 34.7331 2.24161e-21)
(574.153 -2.17802 -5.41322e-19)
(548.129 -16.3456 0)
(538.549 -26.5624 -6.10926e-18)
(500.101 -31.1246 0)
(484.84 -31.2399 0)
(452.149 -31.3442 0)
(438.863 -29.5868 0)
(412.51 -29.1781 0)
(400.861 -27.3165 0)
(379.334 -26.7545 3.67674e-18)
(368.988 -25.0356 0)
(351.404 -24.671 -2.46586e-22)
(342.054 -23.3429 3.93932e-18)
(327.432 -23.2413 -5.84367e-18)
(318.672 -22.2428 1.1177e-21)
(306.215 -22.2151 6.89833e-18)
(297.874 -21.4321 -1.02009e-21)
(287.025 -21.355 -7.92979e-18)
(279.088 -20.6637 -7.9738e-18)
(269.561 -20.4539 2.68685e-22)
(262.147 -19.7724 9.15015e-18)
(253.788 -19.4005 0)
(247.016 -18.7051 1.03062e-17)
(239.726 -18.2349 1.23394e-22)
(233.638 -17.5923 -1.14389e-17)
(227.256 -17.1348 -1.21168e-17)
(221.775 -16.6121 0)
(216.107 -16.2284 4.34461e-22)
(211.131 -15.8358 1.36221e-17)
(206 -15.5245 0)
(201.436 -15.2247 -6.17182e-22)
(196.72 -14.9436 1.5209e-17)
(192.536 -14.6752 -1.57309e-17)
(188.17 -14.3755 0)
(184.373 -14.0786 -1.67834e-17)
(180.319 -13.7205 0)
(176.939 -13.3285 -2.98188e-22)
(173.176 -12.8767 3.09873e-22)
(170.259 -12.2999 0)
(166.781 -11.72 -8.07875e-23)
(164.391 -10.8327 0)
(161.226 -10.0954 -2.02537e-17)
(159.447 -8.73806 0)
(156.707 -7.81411 0)
(155.649 -5.87297 0)
(153.554 -4.22616 0)
(99.9838 0.519331 -4.62676e-17)
(100.197 3.35288 4.38488e-17)
(101.048 8.12698 -4.39811e-17)
(102.628 12.7382 0)
(104.823 15.3382 0)
(107.295 15.7924 0)
(109.776 15.2641 0)
(112.181 14.7009 -4.3262e-17)
(114.577 14.3751 0)
(116.972 14.1982 4.11512e-17)
(119.421 14.0938 0)
(121.882 14.0399 -3.95152e-17)
(124.429 14.0287 3.87405e-17)
(126.988 14.0678 3.79307e-17)
(129.67 14.1376 0)
(132.357 14.256 -3.63097e-17)
(135.214 14.3917 0)
(138.058 14.5791 -6.92814e-17)
(141.134 14.7707 -3.38337e-17)
(144.162 15.0235 -3.29225e-17)
(147.507 15.2653 -3.21083e-17)
(150.75 15.5853 -6.23027e-17)
(154.425 15.8744 -6.06851e-17)
(157.913 16.2676 2.93274e-17)
(161.994 16.6025 -2.85338e-17)
(165.761 17.0793 0)
(170.346 17.4594 2.66849e-17)
(174.428 18.034 0)
(179.64 18.4592 2.47999e-17)
(184.073 19.1505 0)
(190.074 19.6235 -2.28812e-17)
(194.9 20.4598 0)
(201.897 20.9902 0)
(207.165 22.0078 0)
(215.433 22.6124 1.89672e-17)
(221.21 23.858 0)
(231.122 24.5703 -1.69851e-17)
(237.521 26.1145 1.48008e-17)
(249.595 27.003 1.5e-17)
(256.837 28.931 9.55987e-22)
(271.822 30.0366 -1.30516e-17)
(280.268 32.3466 -2.00145e-17)
(299.128 33.5659 -1.11925e-17)
(309.154 36.0535 0)
(332.898 37.0853 -1.88827e-17)
(344.59 39.3444 5.0283e-18)
(373.909 40.0455 7.64652e-18)
(387.075 42.0683 2.19048e-18)
(423.341 43.4263 5.61646e-18)
(439.988 43.9448 -9.07983e-19)
(484.453 45.1289 0)
(506.384 36.8597 -4.36597e-18)
(549.356 34.4082 -1.84243e-18)
(573.957 -2.16957 5.42315e-19)
(548.045 -16.1882 0)
(538.525 -26.3312 0)
(500.131 -30.8649 0)
(484.902 -30.9902 0)
(452.22 -31.1 0)
(438.939 -29.3606 0)
(412.585 -28.9568 0)
(400.931 -27.1097 0)
(379.405 -26.5521 -3.67677e-18)
(369.056 -24.8471 -2.3175e-18)
(351.47 -24.4857 -4.76096e-18)
(342.117 -23.1685 -3.93911e-18)
(327.492 -23.0678 -5.84264e-18)
(318.729 -22.0773 5.4119e-18)
(306.27 -22.0494 0)
(297.927 -21.2723 -1.00714e-21)
(287.078 -21.1952 -7.92913e-18)
(279.14 -20.5093 7.97387e-18)
(269.613 -20.3009 8.95797e-18)
(262.199 -19.6248 -9.1501e-18)
(253.84 -19.256 0)
(247.068 -18.5664 -1.0306e-17)
(239.776 -18.1001 1.10603e-17)
(233.687 -17.4628 0)
(227.302 -17.009 1.21162e-17)
(221.82 -16.4904 0)
(216.149 -16.1096 1.31616e-17)
(211.172 -15.7201 -2.7244e-17)
(206.039 -15.4111 0)
(201.474 -15.1135 -2.9362e-17)
(196.757 -14.8347 -1.52095e-17)
(192.573 -14.5684 0)
(188.207 -14.2713 0)
(184.41 -13.9766 0)
(180.357 -13.6218 0)
(176.977 -13.2323 -1.7851e-17)
(173.217 -12.7847 1.82584e-17)
(170.301 -12.2111 0)
(166.827 -11.6364 -3.85538e-17)
(164.439 -10.7538 0)
(161.28 -10.0229 2.02568e-17)
(159.502 -8.67328 0)
(156.771 -7.75713 0)
(155.714 -5.82905 0)
(153.628 -4.19503 0)
(99.9837 0.514835 4.62879e-17)
(100.196 3.32672 0)
(101.048 8.06808 8.79569e-17)
(102.632 12.6484 -4.5333e-17)
(104.831 15.2292 0)
(107.307 15.6789 -4.5782e-17)
(109.791 15.1542 0)
(112.199 14.595 -4.32471e-17)
(114.598 14.2713 0)
(116.996 14.0953 0)
(119.448 13.9914 0)
(121.912 13.9376 7.90322e-17)
(124.461 13.9263 -3.87419e-17)
(127.022 13.965 -3.7932e-17)
(129.706 14.0341 0)
(132.395 14.1516 0)
(135.254 14.2862 0)
(138.1 14.4722 6.9281e-17)
(141.177 14.6624 0)
(144.207 14.9133 0)
(147.554 15.1534 9.68533e-22)
(150.798 15.471 3.11513e-17)
(154.475 15.7581 9.33288e-22)
(157.965 16.1484 -2.93277e-17)
(162.049 16.481 -2.85323e-17)
(165.818 16.9542 -2.74484e-17)
(170.406 17.3318 -2.66849e-17)
(174.489 17.9022 0)
(179.705 18.3244 -2.47998e-17)
(184.14 19.0106 0)
(190.143 19.4804 2.2881e-17)
(194.973 20.3105 0)
(201.973 20.8374 0)
(207.244 21.8476 0)
(215.516 22.4483 0)
(221.298 23.6847 0)
(231.215 24.3924 1.69843e-17)
(237.62 25.9251 0)
(249.7 26.8076 1.4999e-17)
(256.949 28.7207 9.60555e-22)
(271.94 29.818 0)
(280.393 32.1095 1.00068e-17)
(299.257 33.319 0)
(309.289 35.7863 0)
(333.034 36.8099 9.25756e-22)
(344.732 39.0518 -5.02821e-18)
(374.051 39.7491 -7.64595e-18)
(387.229 41.7553 -2.19062e-18)
(423.488 43.0997 -5.61479e-18)
(440.136 43.6047 9.09766e-19)
(484.552 44.768 0)
(506.45 36.5429 0)
(549.276 34.0841 1.85048e-18)
(573.759 -2.16103 -5.4177e-19)
(547.957 -16.0314 0)
(538.499 -26.1003 0)
(500.158 -30.6054 0)
(484.963 -30.7405 3.7211e-18)
(452.29 -30.8558 0)
(439.014 -29.1343 -1.42923e-18)
(412.66 -28.7354 0)
(401.001 -26.9029 0)
(379.475 -26.3496 0)
(369.124 -24.6585 2.31739e-18)
(351.536 -24.3004 0)
(342.18 -22.9941 0)
(327.552 -22.8943 4.29171e-22)
(318.786 -21.9117 5.40963e-18)
(306.325 -21.8838 0)
(297.981 -21.1124 -6.73982e-18)
(287.13 -21.0355 7.92929e-18)
(279.193 -20.3548 0)
(269.666 -20.148 0)
(262.252 -19.4773 0)
(253.892 -19.1115 0)
(247.12 -18.4276 0)
(239.827 -17.9653 0)
(233.736 -17.3332 0)
(227.349 -16.8831 -1.21162e-17)
(221.865 -16.3687 0)
(216.192 -15.9909 0)
(211.213 -15.6043 1.36219e-17)
(206.078 -15.2976 0)
(201.513 -15.0023 1.46811e-17)
(196.795 -14.7258 0)
(192.611 -14.4615 -1.57304e-17)
(188.244 -14.1671 0)
(184.447 -13.8746 0)
(180.395 -13.5231 0)
(177.016 -13.1362 0)
(173.258 -12.6927 0)
(170.343 -12.1224 0)
(166.873 -11.5529 1.92789e-17)
(164.486 -10.675 0)
(161.333 -9.95042 0)
(159.556 -8.60863 2.11526e-17)
(156.834 -7.70028 0)
(155.778 -5.78526 -2.21868e-17)
(153.702 -4.16402 0)
(99.9835 0.510375 0)
(100.196 3.30065 0)
(101.048 8.00926 -4.3976e-17)
(102.636 12.5587 4.52976e-17)
(104.84 15.1201 0)
(107.319 15.5652 4.57335e-17)
(109.806 15.044 4.45559e-17)
(112.218 14.4889 4.32347e-17)
(114.62 14.1673 0)
(117.021 13.9923 0)
(119.475 13.8889 -4.03227e-17)
(121.941 13.8353 -3.9517e-17)
(124.492 13.8238 0)
(127.056 13.862 0)
(129.742 13.9305 0)
(132.433 14.047 -3.63088e-17)
(135.293 14.1806 0)
(138.141 14.3652 -1.0331e-21)
(141.22 14.554 0)
(144.252 14.803 -3.29207e-17)
(147.601 15.0414 9.56389e-22)
(150.847 15.3566 0)
(154.526 15.6417 3.03419e-17)
(158.018 16.0291 0)
(162.104 16.3594 2.85325e-17)
(165.875 16.8291 2.74485e-17)
(170.465 17.204 0)
(174.55 17.7701 2.5512e-17)
(179.769 18.1895 0)
(184.207 18.8706 0)
(190.213 19.3372 -2.28795e-17)
(195.045 20.1611 0)
(202.049 20.6845 -2.09337e-17)
(207.324 21.6872 0)
(215.599 22.284 0)
(221.386 23.5112 -1.70961e-17)
(231.307 24.2143 -1.6983e-17)
(237.719 25.7355 0)
(249.804 26.6119 -1.49984e-17)
(257.061 28.5102 2.48459e-17)
(272.057 29.5991 1.30505e-17)
(280.518 31.8722 -1.00048e-17)
(299.386 33.0718 1.11914e-17)
(309.425 35.5189 0)
(333.171 36.5344 9.13557e-22)
(344.874 38.7589 -5.02432e-18)
(374.193 39.4524 0)
(387.382 41.442 0)
(423.633 42.773 5.61532e-18)
(440.283 43.2646 -9.10101e-19)
(484.649 44.4074 0)
(506.512 36.2265 4.36676e-18)
(549.194 33.7608 -1.85425e-18)
(573.558 -2.15248 5.43008e-19)
(547.865 -15.8751 0)
(538.469 -25.8696 0)
(500.182 -30.3461 -1.05609e-18)
(485.021 -30.4909 -3.72212e-18)
(452.358 -30.6115 0)
(439.088 -28.908 2.85916e-18)
(412.733 -28.5138 0)
(401.071 -26.6959 5.42983e-19)
(379.545 -26.1471 0)
(369.192 -24.4699 2.3154e-18)
(351.603 -24.115 0)
(342.243 -22.8197 3.93555e-18)
(327.613 -22.7207 5.8419e-18)
(318.844 -21.7461 -5.40956e-18)
(306.38 -21.7181 6.89655e-18)
(298.035 -20.9526 0)
(287.183 -20.8758 7.92867e-18)
(279.246 -20.2003 -7.97166e-18)
(269.719 -19.995 0)
(262.306 -19.3297 0)
(253.945 -18.967 0)
(247.173 -18.2888 -1.03046e-17)
(239.878 -17.8305 0)
(233.786 -17.2036 0)
(227.397 -16.7571 0)
(221.91 -16.2469 0)
(216.235 -15.8721 0)
(211.254 -15.4885 0)
(206.118 -15.1842 0)
(201.551 -14.8911 0)
(196.833 -14.6169 0)
(192.648 -14.3547 5.57609e-22)
(188.281 -14.0629 1.62237e-17)
(184.485 -13.7726 0)
(180.434 -13.4245 0)
(177.055 -13.0401 0)
(173.299 -12.6008 0)
(170.385 -12.0337 0)
(166.919 -11.4694 0)
(164.533 -10.5962 0)
(161.387 -9.87803 0)
(159.611 -8.54406 -2.11563e-17)
(156.898 -7.64349 -2.11932e-17)
(155.842 -5.74152 6.52945e-22)
(153.775 -4.13304 0)
(99.9834 0.505935 0)
(100.195 3.27454 4.39049e-17)
(101.049 7.95027 0)
(102.64 12.4686 0)
(104.849 15.0107 0)
(107.331 15.4514 4.56832e-17)
(109.822 14.9336 -4.45274e-17)
(112.236 14.3826 0)
(114.641 14.0632 0)
(117.045 13.8892 -4.11471e-17)
(119.502 13.7863 4.03239e-17)
(121.971 13.7328 -3.95164e-17)
(124.524 13.7212 0)
(127.089 13.759 0)
(129.777 13.8268 0)
(132.47 13.9423 3.63099e-17)
(135.333 14.0749 0)
(138.182 14.2581 -3.46407e-17)
(141.263 14.4455 0)
(144.297 14.6926 3.29214e-17)
(147.647 14.9293 6.42154e-17)
(150.895 15.2422 0)
(154.576 15.5252 0)
(158.07 15.9097 0)
(162.158 16.2376 0)
(165.931 16.7038 0)
(170.524 17.0761 2.66827e-17)
(174.612 17.638 -2.5512e-17)
(179.833 18.0544 -2.47975e-17)
(184.273 18.7304 -2.35129e-17)
(190.283 19.1938 2.28793e-17)
(195.118 20.0115 -2.14485e-17)
(202.125 20.5315 2.09333e-17)
(207.403 21.5266 1.93112e-17)
(215.683 22.1195 1.89637e-17)
(221.474 23.3375 1.02578e-21)
(231.4 24.036 1.69823e-17)
(237.817 25.5457 1.47951e-17)
(249.909 26.4159 1.49975e-17)
(257.173 28.2995 -1.24223e-17)
(272.175 29.38 -2.04595e-22)
(280.643 31.6347 1.00049e-17)
(299.516 32.8245 -2.23828e-17)
(309.56 35.2512 7.56187e-18)
(333.307 36.2586 9.43851e-18)
(345.016 38.4658 5.0243e-18)
(374.334 39.1555 -7.64092e-18)
(387.534 41.1285 0)
(423.778 42.4461 -5.61385e-18)
(440.428 42.9245 -9.11855e-19)
(484.746 44.0471 3.58487e-18)
(506.573 35.9108 -4.37174e-18)
(549.108 33.4385 0)
(573.356 -2.14387 5.4274e-19)
(547.769 -15.7194 0)
(538.436 -25.6394 0)
(500.202 -30.0869 1.05715e-18)
(485.078 -30.2413 0)
(452.425 -30.3672 0)
(439.161 -28.6815 -2.86065e-18)
(412.806 -28.2921 0)
(401.141 -26.4889 -5.42979e-19)
(379.615 -25.9445 0)
(369.261 -24.2812 -4.62965e-18)
(351.669 -23.9295 0)
(342.308 -22.6451 -3.93534e-18)
(327.674 -22.5471 0)
(318.903 -21.5804 0)
(306.436 -21.5524 -6.89663e-18)
(298.089 -20.7927 0)
(287.237 -20.716 -1.58574e-17)
(279.3 -20.0459 7.97176e-18)
(269.772 -19.842 0)
(262.36 -19.1822 0)
(253.999 -18.8225 0)
(247.226 -18.15 1.03045e-17)
(239.929 -17.6956 1.10594e-17)
(233.836 -17.0739 0)
(227.444 -16.6311 0)
(221.956 -16.125 0)
(216.279 -15.7532 0)
(211.296 -15.3726 1.36206e-17)
(206.158 -15.0707 -1.41886e-17)
(201.59 -14.7799 0)
(196.871 -14.5079 1.52086e-17)
(192.686 -14.2478 3.14617e-17)
(188.319 -13.9587 -1.62244e-17)
(184.523 -13.6706 0)
(180.472 -13.3258 0)
(177.094 -12.944 0)
(173.34 -12.5088 0)
(170.427 -11.9451 0)
(166.964 -11.386 0)
(164.58 -10.5176 -2.00566e-17)
(161.44 -9.80573 2.02668e-17)
(159.666 -8.47962 0)
(156.961 -7.58682 4.23958e-17)
(155.906 -5.6979 2.21959e-17)
(153.848 -4.10216 0)
(99.9833 0.501517 0)
(100.194 3.24841 -8.78511e-17)
(101.049 7.89115 0)
(102.644 12.3784 -4.52245e-17)
(104.857 14.9012 0)
(107.343 15.3374 -4.56359e-17)
(109.837 14.8231 0)
(112.254 14.2762 0)
(114.663 13.9589 4.20929e-17)
(117.069 13.7859 8.22934e-17)
(119.529 13.6835 4.03231e-17)
(122 13.6301 3.95179e-17)
(124.555 13.6185 -3.87422e-17)
(127.123 13.6558 3.79319e-17)
(129.813 13.723 0)
(132.507 13.8376 0)
(135.372 13.9691 0)
(138.223 14.1508 0)
(141.306 14.3368 3.3832e-17)
(144.341 14.5821 0)
(147.694 14.817 -3.21079e-17)
(150.943 15.1276 0)
(154.627 15.4085 3.03401e-17)
(158.122 15.7902 -2.93246e-17)
(162.213 16.1158 0)
(165.988 16.5784 0)
(170.583 16.9481 -7.97941e-22)
(174.673 17.5057 2.551e-17)
(179.897 17.9192 2.47976e-17)
(184.34 18.59 2.35128e-17)
(190.352 19.0503 2.28779e-17)
(195.19 19.8617 2.14482e-17)
(202.201 20.3783 2.0932e-17)
(207.483 21.3659 -1.93108e-17)
(215.766 21.9549 -1.89633e-17)
(221.562 23.1636 1.01741e-21)
(231.492 23.8574 0)
(237.916 25.3556 -2.95883e-17)
(250.013 26.2198 -2.04717e-22)
(257.284 28.0885 0)
(272.292 29.1606 -1.30502e-17)
(280.768 31.397 -1.0003e-17)
(299.644 32.5769 1.11914e-17)
(309.694 34.9834 -7.56218e-18)
(333.442 35.9826 0)
(345.157 38.1725 -5.02055e-18)
(374.475 38.8584 7.64059e-18)
(387.685 40.8147 0)
(423.923 42.1191 1.1228e-17)
(440.572 42.5844 1.82511e-18)
(484.842 43.6871 -3.58645e-18)
(506.631 35.5957 0)
(549.019 33.1171 0)
(573.152 -2.13519 -1.08768e-18)
(547.669 -15.5642 -1.2069e-18)
(538.399 -25.4094 0)
(500.219 -29.828 0)
(485.132 -29.9918 -3.72211e-18)
(452.489 -30.1228 -1.68084e-18)
(439.234 -28.4551 1.43061e-18)
(412.878 -28.0703 0)
(401.21 -26.2818 0)
(379.685 -25.7419 -3.67651e-18)
(369.329 -24.0924 2.31426e-18)
(351.736 -23.7441 0)
(342.372 -22.4706 3.93309e-18)
(327.735 -22.3734 -5.84036e-18)
(318.961 -21.4147 0)
(306.493 -21.3866 0)
(298.144 -20.6328 0)
(287.291 -20.5563 1.5857e-17)
(279.354 -19.8914 0)
(269.826 -19.6891 0)
(262.414 -19.0346 -9.14725e-18)
(254.052 -18.6779 -9.99959e-18)
(247.279 -18.0112 -1.03037e-17)
(239.981 -17.5607 -1.10594e-17)
(233.887 -16.9442 0)
(227.492 -16.505 -1.2115e-17)
(222.002 -16.0031 0)
(216.322 -15.6343 0)
(211.338 -15.2567 -2.72411e-17)
(206.198 -14.9571 5.44356e-22)
(201.63 -14.6686 -1.46799e-17)
(196.909 -14.399 -1.52091e-17)
(192.724 -14.1409 -1.57312e-17)
(188.357 -13.8545 0)
(184.56 -13.5686 1.6785e-17)
(180.511 -13.2271 0)
(177.134 -12.848 -1.78543e-17)
(173.381 -12.4169 -1.8262e-17)
(170.469 -11.8565 -1.89495e-17)
(167.011 -11.3026 0)
(164.627 -10.439 1.4269e-22)
(161.494 -9.73351 1.65014e-22)
(159.72 -8.4153 0)
(157.024 -7.53026 -4.24058e-17)
(155.97 -5.65438 -2.21996e-17)
(153.92 -4.07138 0)
(99.9832 0.497118 0)
(100.194 3.22229 8.78917e-17)
(101.049 7.83193 0)
(102.647 12.2879 4.51907e-17)
(104.865 14.7914 4.59698e-17)
(107.355 15.2232 -4.5587e-17)
(109.852 14.7125 0)
(112.272 14.1696 0)
(114.684 13.8545 -1.03139e-21)
(117.093 13.6825 -4.11463e-17)
(119.556 13.5806 -9.86278e-22)
(122.029 13.5274 -3.95174e-17)
(124.587 13.5157 7.74863e-17)
(127.156 13.5525 -3.79333e-17)
(129.848 13.6191 0)
(132.545 13.7327 -3.63091e-17)
(135.411 13.8632 0)
(138.264 14.0435 0)
(141.349 14.2281 -6.76646e-17)
(144.386 14.4715 -3.29198e-17)
(147.74 14.7047 0)
(150.992 15.0128 0)
(154.677 15.2918 -3.03406e-17)
(158.174 15.6705 2.9325e-17)
(162.267 15.9938 0)
(166.044 16.4529 0)
(170.642 16.8199 -2.66822e-17)
(174.734 17.3733 -1.02565e-21)
(179.961 17.7839 0)
(184.406 18.4496 2.35108e-17)
(190.422 18.9067 -2.28779e-17)
(195.263 19.7119 0)
(202.277 20.2249 -4.1863e-17)
(207.562 21.205 -1.93084e-17)
(215.849 21.79 -1.8962e-17)
(221.649 22.9895 1.00917e-21)
(231.585 23.6787 -1.69803e-17)
(238.014 25.1654 1.47933e-17)
(250.117 26.0233 -1.49966e-17)
(257.395 27.8772 1.24192e-17)
(272.409 28.941 0)
(280.892 31.159 1.00033e-17)
(299.773 32.329 1.11909e-17)
(309.829 34.7154 0)
(333.578 35.7065 0)
(345.297 37.879 1.00393e-17)
(374.615 38.5611 0)
(387.836 40.5007 0)
(424.067 41.792 -5.61422e-18)
(440.713 42.2442 -9.13258e-19)
(484.936 43.3273 0)
(506.687 35.2812 0)
(548.927 32.7967 0)
(572.946 -2.12646 5.45075e-19)
(547.565 -15.4095 1.81671e-18)
(538.36 -25.1798 0)
(500.232 -29.5692 -1.06414e-18)
(485.184 -29.7424 3.72257e-18)
(452.553 -29.8783 1.6808e-18)
(439.306 -28.2285 0)
(412.949 -27.8484 0)
(401.278 -26.0746 0)
(379.754 -25.5392 4.51086e-23)
(369.398 -23.9036 0)
(351.803 -23.5585 4.75862e-18)
(342.437 -22.296 -7.8648e-18)
(327.797 -22.1997 5.84025e-18)
(319.02 -21.2489 -5.40517e-18)
(306.55 -21.2208 -6.89548e-18)
(298.199 -20.4728 -6.73565e-18)
(287.345 -20.3965 -1.58567e-17)
(279.408 -19.7369 0)
(269.88 -19.5361 0)
(262.469 -18.887 1.8294e-17)
(254.106 -18.5334 9.99958e-18)
(247.333 -17.8724 2.0607e-17)
(240.033 -17.4257 1.10591e-17)
(233.937 -16.8145 0)
(227.541 -16.3789 1.2115e-17)
(222.049 -15.8812 -1.25422e-17)
(216.366 -15.5154 1.31595e-17)
(211.38 -15.1408 1.36205e-17)
(206.239 -14.8436 1.41887e-17)
(201.669 -14.5573 2.93602e-17)
(196.947 -14.29 1.52085e-17)
(192.762 -14.034 0)
(188.395 -13.7503 -1.62241e-17)
(184.599 -13.4667 -1.67859e-17)
(180.55 -13.1285 -1.7242e-17)
(177.173 -12.7519 3.57108e-17)
(173.423 -12.3251 3.65264e-17)
(170.512 -11.768 1.89513e-17)
(167.057 -11.2192 1.92865e-17)
(164.674 -10.3605 4.01233e-17)
(161.547 -9.66139 -2.02733e-17)
(159.775 -8.3511 -2.11663e-17)
(157.087 -7.47381 2.12077e-17)
(156.034 -5.61097 2.22045e-17)
(153.993 -4.04069 2.2242e-17)
(99.9832 0.492738 0)
(100.193 3.19615 -8.7933e-17)
(101.05 7.7726 0)
(102.651 12.1973 0)
(104.874 14.6815 -4.59174e-17)
(107.367 15.1088 4.5541e-17)
(109.867 14.6017 0)
(112.291 14.0628 0)
(114.705 13.7499 -4.20852e-17)
(117.117 13.5789 0)
(119.582 13.4775 -8.06482e-17)
(122.058 13.4245 3.95188e-17)
(124.618 13.4127 -3.87441e-17)
(127.19 13.4491 3.79327e-17)
(129.884 13.5151 0)
(132.582 13.6277 7.26195e-17)
(135.45 13.7571 0)
(138.305 13.936 -3.46395e-17)
(141.391 14.1192 9.44924e-22)
(144.43 14.3607 3.29206e-17)
(147.786 14.5922 0)
(151.04 14.898 3.11478e-17)
(154.727 15.1749 3.03394e-17)
(158.226 15.5507 0)
(162.321 15.8716 0)
(166.1 16.3272 2.74444e-17)
(170.7 16.6916 0)
(174.795 17.2407 -2.55092e-17)
(180.024 17.6484 0)
(184.472 18.309 -2.35108e-17)
(190.491 18.7628 0)
(195.335 19.5618 0)
(202.352 20.0713 2.09311e-17)
(207.641 21.0439 1.93081e-17)
(215.932 21.625 3.7923e-17)
(221.737 22.8153 1.70912e-17)
(231.677 23.4998 1.69799e-17)
(238.113 24.9749 0)
(250.22 25.8267 0)
(257.506 27.6657 -9.31805e-22)
(272.526 28.7211 0)
(281.016 30.9207 1.00016e-17)
(299.901 32.081 -2.23823e-17)
(309.963 34.4471 0)
(333.713 35.4301 0)
(345.437 37.5853 -1.84273e-21)
(374.755 38.2635 0)
(387.985 40.1864 0)
(424.21 41.4647 5.61301e-18)
(440.854 41.9041 -9.14976e-19)
(485.03 42.9678 3.58922e-18)
(506.74 34.9673 0)
(548.833 32.4773 -1.88277e-18)
(572.739 -2.11766 0)
(547.457 -15.2553 -6.08215e-19)
(538.317 -24.9505 -6.17135e-18)
(500.242 -29.3108 2.13187e-18)
(485.235 -29.4931 0)
(452.615 -29.6339 0)
(439.377 -28.002 -1.43274e-18)
(413.02 -27.6264 2.64031e-18)
(401.347 -25.8673 0)
(379.823 -25.3364 3.67641e-18)
(369.466 -23.7148 0)
(351.87 -23.3729 -9.51666e-18)
(342.502 -22.1213 1.00548e-21)
(327.859 -22.0259 5.83932e-18)
(319.08 -21.0831 1.04637e-21)
(306.607 -21.055 6.89563e-18)
(298.255 -20.3129 1.34708e-17)
(287.399 -20.2367 7.92846e-18)
(279.463 -19.5824 0)
(269.934 -19.3832 8.95675e-18)
(262.524 -18.7395 -9.14677e-18)
(254.161 -18.3888 -9.99935e-18)
(247.387 -17.7335 -1.03033e-17)
(240.085 -17.2907 -1.1059e-17)
(233.988 -16.6847 0)
(227.589 -16.2527 -1.21145e-17)
(222.095 -15.7591 2.50841e-17)
(216.411 -15.3963 -1.31596e-17)
(211.423 -15.0248 -1.36196e-17)
(206.279 -14.7299 -1.41879e-17)
(201.709 -14.446 -1.46802e-17)
(196.986 -14.181 -3.04175e-17)
(192.8 -13.9271 0)
(188.433 -13.646 1.62249e-17)
(184.637 -13.3647 -1.67859e-17)
(180.589 -13.0298 4.70195e-22)
(177.213 -12.6559 -3.57127e-17)
(173.464 -12.2332 -1.82644e-17)
(170.554 -11.6796 -1.89527e-17)
(167.103 -11.136 -3.8577e-17)
(164.722 -10.2821 -1.52401e-22)
(161.601 -9.58934 0)
(159.83 -8.28701 2.117e-17)
(157.15 -7.41745 0)
(156.097 -5.56766 -2.22082e-17)
(154.065 -4.01009 -2.22455e-17)
(99.9831 0.488375 0)
(100.192 3.17002 4.39883e-17)
(101.05 7.71317 0)
(102.655 12.1065 0)
(104.882 14.5714 0)
(107.379 14.9943 4.54934e-17)
(109.882 14.4907 -4.44119e-17)
(112.309 13.9559 4.3169e-17)
(114.726 13.6451 4.20799e-17)
(117.141 13.4752 0)
(119.609 13.3743 4.03248e-17)
(122.087 13.3215 0)
(124.649 13.3096 0)
(127.223 13.3455 -3.79341e-17)
(129.919 13.4109 0)
(132.619 13.5226 -3.63105e-17)
(135.489 13.651 0)
(138.345 13.8284 9.91805e-22)
(141.434 14.0102 3.38327e-17)
(144.474 14.2499 0)
(147.833 14.4796 3.21063e-17)
(151.088 14.7831 -3.11485e-17)
(154.777 15.0579 -8.85916e-22)
(158.278 15.4308 0)
(162.375 15.7494 0)
(166.156 16.2015 -1.00763e-21)
(170.759 16.5632 -2.66804e-17)
(174.856 17.108 0)
(180.088 17.5128 2.47952e-17)
(184.538 18.1682 0)
(190.56 18.6189 0)
(195.407 19.4116 0)
(202.427 19.9176 2.09299e-17)
(207.72 20.8827 0)
(216.015 21.4598 -1.89611e-17)
(221.824 22.6408 0)
(231.769 23.3206 0)
(238.211 24.7842 -1.47898e-17)
(250.324 25.6298 -1.49956e-17)
(257.617 27.454 -1.24183e-17)
(272.642 28.501 1.30497e-17)
(281.14 30.6822 -1.0002e-17)
(300.029 31.8327 4.09709e-22)
(310.096 34.1786 0)
(333.848 35.1535 0)
(345.576 37.2913 -1.82647e-21)
(374.895 37.9657 0)
(388.134 39.8719 0)
(424.352 41.1373 -5.61387e-18)
(440.992 41.5639 9.15351e-19)
(485.123 42.6086 -1.57507e-22)
(506.792 34.6542 0)
(548.737 32.1589 -2.25723e-21)
(572.529 -2.10879 5.46371e-19)
(547.345 -15.1017 -6.12512e-19)
(538.271 -24.7216 6.18375e-18)
(500.25 -29.0526 1.60521e-21)
(485.284 -29.2439 0)
(452.675 -29.3894 0)
(439.448 -27.7754 1.4325e-18)
(413.089 -27.4043 5.85452e-23)
(401.415 -25.66 0)
(379.892 -25.1336 0)
(369.535 -23.5259 0)
(351.937 -23.1873 9.51585e-18)
(342.567 -21.9466 9.97815e-22)
(327.922 -21.8521 -5.83922e-18)
(319.14 -20.9172 5.4041e-18)
(306.664 -20.8891 0)
(298.311 -20.1529 -6.73519e-18)
(287.454 -20.0769 7.92799e-18)
(279.518 -19.4279 7.96859e-18)
(269.988 -19.2302 -2.51838e-22)
(262.579 -18.5919 0)
(254.215 -18.2442 9.9994e-18)
(247.441 -17.5945 0)
(240.138 -17.1557 0)
(234.039 -16.5549 0)
(227.638 -16.1265 2.42289e-17)
(222.142 -15.6371 -1.25419e-17)
(216.455 -15.2773 0)
(211.466 -14.9087 2.72393e-17)
(206.32 -14.6163 5.37291e-22)
(201.749 -14.3346 0)
(197.025 -14.0719 1.5209e-17)
(192.839 -13.8202 0)
(188.471 -13.5418 -1.62245e-17)
(184.675 -13.2627 4.50383e-22)
(180.628 -12.9312 4.6962e-22)
(177.252 -12.5599 3.57146e-17)
(173.506 -12.1414 0)
(170.596 -11.5912 1.94815e-22)
(167.149 -11.0527 3.8581e-17)
(164.769 -10.2038 -4.01335e-17)
(161.654 -9.51737 -2.02801e-17)
(159.884 -8.22304 0)
(157.213 -7.3612 0)
(156.161 -5.52445 6.5183e-22)
(154.137 -3.97958 0)
(99.9831 0.484027 0)
(100.192 3.14387 -4.40083e-17)
(101.05 7.65364 0)
(102.659 12.0154 0)
(104.89 14.461 0)
(107.39 14.8796 -1.15358e-21)
(109.897 14.3796 4.43854e-17)
(112.327 13.8488 -4.31576e-17)
(114.747 13.5402 -1.00547e-21)
(117.165 13.3713 4.11428e-17)
(119.635 13.271 0)
(122.116 13.2184 0)
(124.68 13.2064 0)
(127.256 13.2419 0)
(129.954 13.3067 0)
(132.656 13.4173 -3.63097e-17)
(135.528 13.5447 -3.55125e-17)
(138.386 13.7208 9.83597e-22)
(141.476 13.9012 -3.38317e-17)
(144.519 14.1389 3.29192e-17)
(147.879 14.3669 -3.2107e-17)
(151.135 14.668 -3.11472e-17)
(154.827 14.9408 -8.78666e-22)
(158.33 15.3108 0)
(162.429 15.627 2.85288e-17)
(166.212 16.0755 -2.74441e-17)
(170.817 16.4346 5.33607e-17)
(174.917 16.9752 -2.55067e-17)
(180.151 17.3771 -4.95902e-17)
(184.604 18.0273 0)
(190.629 18.4747 2.28757e-17)
(195.479 19.2612 0)
(202.503 19.7638 -4.18594e-17)
(207.799 20.7212 1.93048e-17)
(216.098 21.2944 -1.89601e-17)
(221.911 22.4661 -1.70877e-17)
(231.861 23.1412 0)
(238.308 24.5932 2.95784e-17)
(250.427 25.4327 1.49955e-17)
(257.727 27.242 1.24166e-17)
(272.758 28.2806 -1.305e-17)
(281.263 30.4435 0)
(300.157 31.5842 1.11916e-17)
(310.229 33.9099 0)
(333.982 34.8768 -9.43387e-18)
(345.715 36.9972 -5.01546e-18)
(375.035 37.6677 0)
(388.281 39.5571 0)
(424.494 40.8098 0)
(441.13 41.2238 0)
(485.214 42.2497 -1.5129e-22)
(506.842 34.3417 0)
(548.638 31.8416 1.89475e-18)
(572.319 -2.09984 -7.90719e-22)
(547.23 -14.9487 -1.12853e-21)
(538.223 -24.4931 0)
(500.254 -28.7946 -1.07019e-18)
(485.33 -28.9949 0)
(452.734 -29.145 1.68359e-18)
(439.517 -27.5487 1.43386e-18)
(413.158 -27.1821 -2.63991e-18)
(401.482 -25.4526 -5.37239e-19)
(379.96 -24.9307 0)
(369.603 -23.337 -2.30932e-18)
(352.005 -23.0016 -4.75764e-18)
(342.633 -21.7718 3.92939e-18)
(327.984 -21.6782 0)
(319.2 -20.7513 0)
(306.721 -20.7232 0)
(298.367 -19.9928 0)
(287.509 -19.9171 -1.58563e-17)
(279.573 -19.2734 -7.96882e-18)
(270.043 -19.0772 -1.79135e-17)
(262.634 -18.4443 -9.14538e-18)
(254.27 -18.0996 0)
(247.495 -17.4556 0)
(240.19 -17.0206 1.10587e-17)
(234.09 -16.4249 1.14349e-17)
(227.687 -16.0002 -1.21144e-17)
(222.189 -15.5149 0)
(216.5 -15.1582 0)
(211.509 -14.7926 -1.36197e-17)
(206.361 -14.5026 1.41881e-17)
(201.789 -14.2232 0)
(197.064 -13.9629 0)
(192.877 -13.7133 1.57312e-17)
(188.509 -13.4376 3.245e-17)
(184.714 -13.1607 4.50289e-22)
(180.667 -12.8325 1.7244e-17)
(177.292 -12.4639 -1.78585e-17)
(173.547 -12.0495 0)
(170.639 -11.5028 1.89561e-17)
(167.195 -10.9695 -1.92926e-17)
(164.816 -10.1256 1.61816e-22)
(161.707 -9.44547 2.02834e-17)
(159.938 -8.15917 0)
(157.276 -7.30505 -2.12233e-17)
(156.224 -5.48133 2.22176e-17)
(154.208 -3.94914 0)
(99.9831 0.479694 -4.64424e-17)
(100.191 3.11772 4.40316e-17)
(101.051 7.59401 0)
(102.662 11.9242 4.50548e-17)
(104.898 14.3505 0)
(107.402 14.7647 -1.14252e-21)
(109.911 14.2683 4.43571e-17)
(112.345 13.7416 0)
(114.768 13.4352 -4.20726e-17)
(117.189 13.2673 -9.69895e-22)
(119.662 13.1675 0)
(122.145 13.1151 0)
(124.711 13.103 0)
(127.289 13.1381 0)
(129.989 13.2023 0)
(132.692 13.312 7.26209e-17)
(135.566 13.4383 3.55136e-17)
(138.426 13.613 6.92801e-17)
(141.518 13.792 3.38327e-17)
(144.562 14.0278 -3.29201e-17)
(147.924 14.2541 3.2106e-17)
(151.183 14.5528 3.11479e-17)
(154.876 14.8236 -3.03395e-17)
(158.381 15.1907 2.93221e-17)
(162.483 15.5045 -2.85293e-17)
(166.268 15.9495 -2.74426e-17)
(170.876 16.3059 -2.66804e-17)
(174.977 16.8422 2.55071e-17)
(180.214 17.2412 2.47951e-17)
(184.67 17.8862 0)
(190.698 18.3305 -6.17604e-22)
(195.55 19.1107 0)
(202.578 19.6097 2.09295e-17)
(207.877 20.5596 -3.86084e-17)
(216.18 21.1288 1.896e-17)
(221.998 22.2913 3.41741e-17)
(231.953 22.9616 1.6978e-17)
(238.406 24.4021 -1.47887e-17)
(250.53 25.2353 1.49952e-17)
(257.838 27.0298 -9.10958e-22)
(272.874 28.06 0)
(281.386 30.2045 0)
(300.284 31.3354 1.11914e-17)
(310.362 33.641 0)
(334.116 34.5998 9.43424e-18)
(345.853 36.7028 0)
(375.173 37.3694 0)
(388.428 39.2421 0)
(424.635 40.4821 0)
(441.265 40.8837 0)
(485.305 41.8912 -3.5941e-18)
(506.89 34.03 0)
(548.539 31.5254 0)
(572.107 -2.09081 -5.49814e-19)
(547.111 -14.7961 6.18049e-19)
(538.171 -24.265 0)
(500.256 -28.537 0)
(485.375 -28.746 3.71963e-18)
(452.791 -28.9005 -1.68331e-18)
(439.586 -27.322 -1.43356e-18)
(413.226 -26.9598 2.63977e-18)
(401.55 -25.2451 9.17679e-22)
(380.029 -24.7278 3.67606e-18)
(369.672 -23.148 2.30923e-18)
(352.072 -22.8159 0)
(342.699 -21.597 -3.92727e-18)
(328.047 -21.5042 0)
(319.26 -20.5853 0)
(306.779 -20.5572 0)
(298.423 -19.8327 -6.73294e-18)
(287.564 -19.7573 1.58562e-17)
(279.629 -19.1188 -7.96758e-18)
(270.098 -18.9242 2.50036e-22)
(262.69 -18.2966 9.1455e-18)
(254.325 -17.9549 -9.9992e-18)
(247.55 -17.3166 0)
(240.243 -16.8854 -2.21175e-17)
(234.142 -16.295 -1.1435e-17)
(227.736 -15.8739 1.2114e-17)
(222.237 -15.3927 1.25408e-17)
(216.545 -15.039 0)
(211.552 -14.6765 0)
(206.403 -14.3888 -1.41875e-17)
(201.829 -14.1118 0)
(197.103 -13.8538 1.52085e-17)
(192.916 -13.6063 -1.5732e-17)
(188.548 -13.3333 -1.62255e-17)
(184.752 -13.0588 3.35753e-17)
(180.706 -12.7339 -1.72441e-17)
(177.332 -12.368 0)
(173.589 -11.9578 -1.82674e-17)
(170.681 -11.4145 -1.89576e-17)
(167.241 -10.8864 0)
(164.863 -10.0474 2.0072e-17)
(161.761 -9.37366 0)
(159.993 -8.09541 2.11803e-17)
(157.338 -7.249 2.1228e-17)
(156.287 -5.4383 -2.22214e-17)
(154.28 -3.9188 2.22596e-17)
(99.983 0.475373 4.64642e-17)
(100.191 3.09157 0)
(101.051 7.53427 0)
(102.666 11.8328 -9.00464e-17)
(104.906 14.2397 0)
(107.414 14.6496 -9.07168e-17)
(109.926 14.1568 -4.43313e-17)
(112.362 13.6342 0)
(114.789 13.33 0)
(117.213 13.1632 -4.11422e-17)
(119.688 13.064 0)
(122.173 13.0117 0)