/*--------------------------------*- C++ -*----------------------------------*\
| =========                 |                                                 |
| \\      /  F ield         | OpenFOAM: The Open Source CFD Toolbox           |
|  \\    /   O peration     | Version:  2412                                  |
|   \\  /    A nd           | Website:  www.openfoam.com                      |
|    \\/     M anipulation  |                                                 |
\*---------------------------------------------------------------------------*/
FoamFile
{
    version     2.0;
    format      ascii;
    arch        "LSB;label=32;scalar=64";
    class       volScalarField;
    location    "0.1";
    object      epsilon;
}
// * * * * * * * * * * * * * * * * * * * * * * * * * * * * * * * * * * * * * //

dimensions      [0 2 -3 0 0 0 0];

internalField   nonuniform List<scalar> 
78408
(
4.34274e+06
4.77226e+06
3.59437e+06
2.84752e+06
2.4336e+06
2.1749e+06
2.01098e+06
1.91201e+06
1.85691e+06
1.82907e+06
1.81867e+06
1.82047e+06
1.83336e+06
1.85787e+06
1.89538e+06
1.94769e+06
2.01845e+06
2.11352e+06
2.24529e+06
2.43283e+06
2.69954e+06
3.07202e+06
3.57216e+06
4.20805e+06
5.00725e+06
5.96932e+06
7.18081e+06
8.58971e+06
1.04261e+07
1.2489e+07
1.52982e+07
1.83987e+07
2.28755e+07
2.78955e+07
3.60914e+07
4.74048e+07
7.17922e+07
1.12503e+08
1.7938e+08
2.4208e+08
2.96244e+08
3.11395e+08
3.16199e+08
2.92921e+08
3.09595e+08
3.75504e+08
5.35088e+08
6.02846e+08
6.92587e+08
7.73427e+08
9.72602e+08
1.41084e+09
2.41258e+09
2.11588e+09
1.58543e+09
1.23571e+09
1.05932e+09
1.03217e+09
1.03831e+09
9.84414e+08
8.71132e+08
7.38485e+08
6.20048e+08
5.22577e+08
4.43349e+08
3.75135e+08
3.16904e+08
2.6821e+08
2.31687e+08
2.08799e+08
2.0301e+08
2.14084e+08
2.44196e+08
2.8234e+08
3.13122e+08
3.24786e+08
3.18451e+08
2.98193e+08
2.70007e+08
2.38617e+08
2.07338e+08
1.78232e+08
1.52198e+08
1.29854e+08
1.10984e+08
9.54004e+07
8.24312e+07
7.17813e+07
6.28354e+07
5.54713e+07
4.91736e+07
4.39636e+07
3.93594e+07
3.55416e+07
3.19636e+07
2.90818e+07
2.6085e+07
2.4036e+07
2.13132e+07
1.68387e+07
9.52679e+06
3.58601e+06
1.65604e+06
1.0108e+06
778524
692038
661145
648565
642943
639527
638605
640060
644975
653970
668000
687532
714401
751129
805010
889759
1.01283e+06
1.17666e+06
1.38656e+06
1.64417e+06
1.96577e+06
2.35472e+06
2.83773e+06
3.42994e+06
4.15436e+06
5.06755e+06
6.19891e+06
7.65156e+06
9.54275e+06
1.22384e+07
1.65388e+07
2.50664e+07
4.07715e+07
6.57975e+07
9.12954e+07
1.11008e+08
1.18442e+08
1.17004e+08
1.10103e+08
1.11273e+08
1.39488e+08
1.96672e+08
2.29049e+08
2.53226e+08
2.86874e+08
3.38313e+08
5.04594e+08
7.93627e+08
7.5489e+08
6.27033e+08
5.13527e+08
4.31658e+08
3.97927e+08
3.82199e+08
3.64695e+08
3.2298e+08
2.78533e+08
2.33038e+08
1.98548e+08
1.67696e+08
1.43343e+08
1.20708e+08
1.02814e+08
8.83935e+07
7.96465e+07
7.71757e+07
8.15459e+07
9.34039e+07
1.08967e+08
1.21966e+08
1.27558e+08
1.25797e+08
1.18227e+08
1.07222e+08
9.47204e+07
8.21356e+07
7.03357e+07
5.97615e+07
5.06538e+07
4.29812e+07
3.66343e+07
3.13872e+07
2.70728e+07
2.34923e+07
2.0534e+07
1.80525e+07
1.59798e+07
1.42086e+07
1.27017e+07
1.14121e+07
1.02578e+07
9.33649e+06
8.41894e+06
7.72305e+06
2.12037e+06
2.48854e+06
1.2331e+06
679253
431259
315999
264077
243383
236635
236033
237402
239625
242340
246004
251079
258241
268187
282588
304564
339519
393695
471957
575208
706129
865383
1.06432e+06
1.30405e+06
1.60649e+06
1.97427e+06
2.43524e+06
3.01069e+06
3.73642e+06
4.67235e+06
5.91252e+06
7.70255e+06
1.06775e+07
1.67117e+07
2.82473e+07
4.64462e+07
6.51945e+07
7.90803e+07
8.42754e+07
8.25061e+07
7.69706e+07
7.70866e+07
9.83401e+07
1.39812e+08
1.63242e+08
1.76392e+08
1.96544e+08
2.24852e+08
3.40702e+08
5.21675e+08
5.11756e+08
4.58658e+08
3.77191e+08
3.06595e+08
2.73362e+08
2.61742e+08
2.51408e+08
2.25104e+08
1.94713e+08
1.64258e+08
1.40217e+08
1.19467e+08
1.02298e+08
8.66151e+07
7.36636e+07
6.33327e+07
5.68947e+07
5.50644e+07
5.82819e+07
6.70979e+07
7.88639e+07
8.89265e+07
9.36322e+07
9.28177e+07
8.75774e+07
7.96145e+07
7.04011e+07
6.10221e+07
5.21583e+07
4.4177e+07
3.727e+07
3.14395e+07
2.6603e+07
2.2608e+07
1.93208e+07
1.66041e+07
1.43613e+07
1.24949e+07
1.09395e+07
9.62882e+06
8.5189e+06
7.57823e+06
6.76127e+06
6.09227e+06
5.48177e+06
4.99607e+06
273368
520809
377150
282106
218341
177356
153367
140519
133821
130385
128327
126972
126057
125791
126471
128601
132921
141106
156256
182989
225583
287157
367997
469899
594419
749821
938913
1.17797e+06
1.47077e+06
1.84027e+06
2.3033e+06
2.89079e+06
3.65555e+06
4.67514e+06
6.17334e+06
8.72293e+06
1.4016e+07
2.43137e+07
4.03899e+07
5.68999e+07
6.87702e+07
7.31175e+07
7.11853e+07
6.60143e+07
6.59322e+07
8.52534e+07
1.21619e+08
1.41458e+08
1.5036e+08
1.65113e+08
1.85871e+08
2.85573e+08
4.35712e+08
4.36956e+08
4.04869e+08
3.29772e+08
2.5993e+08
2.28228e+08
2.20108e+08
2.1251e+08
1.91466e+08
1.65938e+08
1.40923e+08
1.20674e+08
1.03537e+08
8.88425e+07
7.5482e+07
6.41334e+07
5.51131e+07
4.94091e+07
4.7771e+07
5.06057e+07
5.84465e+07
6.9001e+07
7.81402e+07
8.26279e+07
8.22022e+07
7.77998e+07
7.08816e+07
6.27676e+07
5.44373e+07
4.65162e+07
3.93536e+07
3.3132e+07
2.78684e+07
2.34929e+07
1.98774e+07
1.69017e+07
1.44466e+07
1.24225e+07
1.0744e+07
9.34976e+06
8.18161e+06
7.19912e+06
6.36931e+06
5.66251e+06
5.07649e+06
4.5681e+06
4.15759e+06
62801.1
140166
145674
145693
138744
128183
118307
110515
104485
99693.9
95589.4
91971.1
88784.6
86200.6
84477.9
84065
85734.7
91101
102964
125116
160928
212763
281298
368230
475786
610618
776734
986996
1.24702e+06
1.57607e+06
1.99091e+06
2.51922e+06
3.21226e+06
4.14049e+06
5.52306e+06
7.91647e+06
1.29698e+07
2.28928e+07
3.82213e+07
5.38666e+07
6.48354e+07
6.87546e+07
6.66207e+07
6.15264e+07
6.13944e+07
8.02596e+07
1.14531e+08
1.32456e+08
1.38972e+08
1.50872e+08
1.68207e+08
2.6193e+08
4.01367e+08
4.08514e+08
3.84805e+08
3.0878e+08
2.37152e+08
2.07188e+08
2.01577e+08
1.95209e+08
1.76462e+08
1.53199e+08
1.30826e+08
1.12432e+08
9.69993e+07
8.34043e+07
7.10182e+07
6.03044e+07
5.17951e+07
4.63739e+07
4.48132e+07
4.75086e+07
5.49931e+07
6.51137e+07
7.39354e+07
7.84067e+07
7.82031e+07
7.41902e+07
6.77189e+07
6.00504e+07
5.21263e+07
4.45551e+07
3.76855e+07
3.17014e+07
2.66297e+07
2.24073e+07
1.89171e+07
1.60442e+07
1.36761e+07
1.1726e+07
1.01117e+07
8.77424e+06
7.65666e+06
6.72126e+06
5.93274e+06
5.26816e+06
4.71446e+06
4.24773e+06
3.86957e+06
26545.4
62811.5
79847.9
92842.7
100685
102609
100752
97054.4
92573.7
87875.5
83180.1
78667.3
74486.2
70858.3
68059.7
66531.4
67060
71186.7
81439.1
101017
132745
178668
239858
318202
416430
540381
694856
890735
1.13513e+06
1.44496e+06
1.83784e+06
2.33974e+06
3.00193e+06
3.89267e+06
5.23231e+06
7.58218e+06
1.25999e+07
2.25041e+07
3.76553e+07
5.30273e+07
6.35612e+07
6.72258e+07
6.48509e+07
5.97035e+07
5.95579e+07
7.85498e+07
1.11919e+08
1.28634e+08
1.33506e+08
1.4364e+08
1.59128e+08
2.51066e+08
3.87424e+08
3.9817e+08
3.78418e+08
2.98458e+08
2.24358e+08
1.9625e+08
1.92469e+08
1.86649e+08
1.69013e+08
1.46989e+08
1.26131e+08
1.08799e+08
9.42892e+07
8.1225e+07
6.92643e+07
5.87902e+07
5.04706e+07
4.51528e+07
4.3629e+07
4.62932e+07
5.36813e+07
6.36946e+07
7.2454e+07
7.69937e+07
7.69429e+07
7.31314e+07
6.68571e+07
5.93615e+07
5.15766e+07
4.41095e+07
3.73158e+07
3.13848e+07
2.63517e+07
2.21569e+07
1.86886e+07
1.58339e+07
1.34821e+07
1.15471e+07
9.94693e+06
8.62314e+06
7.51826e+06
6.59607e+06
5.81928e+06
5.16822e+06
4.62478e+06
4.17442e+06
3.80966e+06
16847.9
39517.1
54148.4
67693.8
79215.1
86322.5
89036.1
88430.7
85659.6
81673.9
77101.1
72386.8
67849
63785.3
60512.5
58492.2
58540.1
62172
71722.4
89953.5
119287
161611
218309
291539
384433
502448
650948
839669
1.07691e+06
1.37814e+06
1.76204e+06
2.25388e+06
2.9055e+06
3.78566e+06
5.11821e+06
7.4798e+06
1.25575e+07
2.26108e+07
3.78596e+07
5.32585e+07
6.35923e+07
6.70888e+07
6.44462e+07
5.91798e+07
5.90263e+07
7.83933e+07
1.11389e+08
1.27239e+08
1.30835e+08
1.39768e+08
1.54136e+08
2.46302e+08
3.83021e+08
3.96157e+08
3.78338e+08
2.93021e+08
2.16447e+08
1.90288e+08
1.87846e+08
1.82212e+08
1.65131e+08
1.43885e+08
1.24011e+08
1.07363e+08
9.3396e+07
8.05869e+07
6.87885e+07
5.83671e+07
5.00874e+07
4.47915e+07
4.32888e+07
4.59772e+07
5.33941e+07
6.34565e+07
7.22761e+07
7.69232e+07
7.69899e+07
7.32869e+07
6.70882e+07
5.96343e+07
5.18611e+07
4.43813e+07
3.75613e+07
3.15976e+07
2.65321e+07
2.23075e+07
1.88143e+07
1.59392e+07
1.35718e+07
1.16249e+07
1.00158e+07
8.68537e+06
7.57523e+06
6.64958e+06
5.86983e+06
5.21779e+06
4.67323e+06
4.22628e+06
3.86515e+06
12767.5
29272.6
41189.1
53505.7
65651
74890.1
80154.9
81721.3
80465.4
77375.4
73247.8
68684.7
64125.7
59940.4
56493.5
54285.2
54183.5
57712.7
67055.6
84627.9
112550
152635
206527
276656
366487
481325
626969
812514
1.0472e+06
1.34568e+06
1.72767e+06
2.21837e+06
2.87042e+06
3.75466e+06
5.09908e+06
7.50077e+06
1.2683e+07
2.29626e+07
3.84439e+07
5.40322e+07
6.42956e+07
6.76727e+07
6.47488e+07
5.93312e+07
5.91652e+07
7.89953e+07
1.1184e+08
1.27007e+08
1.29541e+08
1.37608e+08
1.51217e+08
2.44606e+08
3.83306e+08
3.98148e+08
3.81131e+08
2.89823e+08
2.11088e+08
1.86942e+08
1.85453e+08
1.79801e+08
1.63007e+08
1.42334e+08
1.23178e+08
1.07024e+08
9.33986e+07
8.07035e+07
6.89337e+07
5.84746e+07
5.01627e+07
4.48523e+07
4.33649e+07
4.61064e+07
5.36126e+07
6.37988e+07
7.27366e+07
7.75066e+07
7.76696e+07
7.4026e+07
6.78412e+07
6.0364e+07
5.25405e+07
4.49926e+07
3.80987e+07
3.20628e+07
2.69337e+07
2.26542e+07
1.9116e+07
1.62043e+07
1.38077e+07
1.18374e+07
1.02092e+07
8.86293e+06
7.73905e+06
6.80155e+06
6.01129e+06
5.35047e+06
4.79864e+06
4.34781e+06
3.98495e+06
10590.7
23580.2
33437
44458.2
56321.5
66335.9
72968.6
75982.4
75942.3
73731.5
70175.9
65947.9
61561.9
57443.4
54003.1
51790.9
51740
55391.1
64787.8
82063.6
109122
147758
199840
268055
356143
469388
613933
798556
1.03325e+06
1.33226e+06
1.71623e+06
2.21078e+06
2.86923e+06
3.76555e+06
5.13152e+06
7.58666e+06
1.28886e+07
2.34197e+07
3.91895e+07
5.50521e+07
6.5319e+07
6.86077e+07
6.54009e+07
5.98215e+07
5.9635e+07
7.99263e+07
1.12681e+08
1.27262e+08
1.28876e+08
1.3629e+08
1.4932e+08
2.44353e+08
3.85714e+08
4.01887e+08
3.84918e+08
2.87481e+08
2.07054e+08
1.84941e+08
1.84088e+08
1.78308e+08
1.61683e+08
1.41509e+08
1.22944e+08
1.07192e+08
9.3803e+07
8.11532e+07
6.9347e+07
5.88118e+07
5.04375e+07
4.50993e+07
4.36261e+07
4.64337e+07
5.40533e+07
6.43912e+07
7.34683e+07
7.8362e+07
7.86066e+07
7.49964e+07
6.8796e+07
6.12667e+07
5.33673e+07
4.57296e+07
3.87447e+07
3.26239e+07
2.74218e+07
2.30807e+07
1.94927e+07
1.65406e+07
1.41119e+07
1.21153e+07
1.04654e+07
9.1003e+06
7.95966e+06
7.00673e+06
6.2026e+06
5.52905e+06
4.96687e+06
4.50812e+06
4.14058e+06
9218.62
19886.1
28225.9
38150.8
49464.9
59611.6
66906.3
70832.5
71709.6
70277.4
67318
63515.5
59419
55491.5
52183.6
50098.4
50234.3
54136.5
63710.7
80860.4
107343
144973
195822
262805
349889
462411
606791
791699
1.0277e+06
1.32899e+06
1.71689e+06
2.21783e+06
2.88555e+06
3.79778e+06
5.18917e+06
7.70145e+06
1.31197e+07
2.38933e+07
3.99564e+07
5.61283e+07
6.64397e+07
6.96627e+07
6.61834e+07
6.0447e+07
6.02313e+07
8.09265e+07
1.13556e+08
1.27605e+08
1.28404e+08
1.35307e+08
1.47834e+08
2.44574e+08
3.88719e+08
4.06049e+08
3.88563e+08
2.85201e+08
2.03622e+08
1.83522e+08
1.83038e+08
1.77082e+08
1.60599e+08
1.40927e+08
1.22903e+08
1.07518e+08
9.43142e+07
8.16839e+07
6.98171e+07
5.91989e+07
5.07564e+07
4.53909e+07
4.39327e+07
4.68085e+07
5.45422e+07
6.50302e+07
7.42436e+07
7.92515e+07
7.9566e+07
7.59763e+07
6.97504e+07
6.21623e+07
5.41836e+07
4.64557e+07
3.93817e+07
3.31797e+07
2.79093e+07
2.35116e+07
1.98786e+07
1.68903e+07
1.44331e+07
1.2413e+07
1.07436e+07
9.36069e+06
8.20389e+06
7.23516e+06
6.41661e+06
5.72899e+06
5.1555e+06
4.68695e+06
4.31345e+06
8240.99
17221.1
24419.2
33446.9
44148.9
54106.7
61633
66086.8
67620.9
66839
64447.1
61104.5
57365.9
53714.4
50632.7
48774.2
49190.6
53409.7
63199
80278.4
106314
143168
193088
259188
345626
457824
602425
788126
1.02591e+06
1.33014e+06
1.72261e+06
2.23082e+06
2.90852e+06
3.83761e+06
5.2542e+06
7.82054e+06
1.33387e+07
2.43215e+07
4.06467e+07
5.7127e+07
6.7503e+07
7.068e+07
6.69495e+07
6.1073e+07
6.08209e+07
8.18266e+07
1.14239e+08
1.27782e+08
1.27853e+08
1.34342e+08
1.46381e+08
2.44648e+08
3.91342e+08
4.0979e+08
3.91334e+08
2.82505e+08
2.00335e+08
1.8219e+08
1.81852e+08
1.75717e+08
1.59402e+08
1.40281e+08
1.22793e+08
1.07776e+08
9.47423e+07
8.21332e+07
7.02084e+07
5.952e+07
5.10192e+07
4.5635e+07
4.41934e+07
4.71315e+07
5.49637e+07
6.55794e+07
7.49092e+07
8.00142e+07
8.03881e+07
7.68146e+07
7.05658e+07
6.29266e+07
5.48801e+07
4.70757e+07
3.99274e+07
3.36591e+07
2.83345e+07
2.38929e+07
2.02263e+07
1.72113e+07
1.47338e+07
1.26969e+07
1.10134e+07
9.61685e+06
8.44709e+06
7.46458e+06
6.63318e+06
5.93213e+06
5.34797e+06
4.86939e+06
4.48981e+06
7480.81
15152.8
21463
29749.2
39841.9
49444
56934.6
61642.8
63621.4
63360.6
61482.1
58600.6
55256.4
51938.6
49153.8
47597.5
48354.3
52909.9
62896.7
79891.1
105511
141675
190786
256128
342007
453951
598768
785266
1.0247e+06
1.33177e+06
1.72847e+06
2.24358e+06
2.93037e+06
3.87509e+06
5.31361e+06
7.92592e+06
1.3518e+07
2.46591e+07
4.11882e+07
5.79484e+07
6.83953e+07
7.15452e+07
6.75955e+07
6.16053e+07
6.1312e+07
8.25112e+07
1.14578e+08
1.27628e+08
1.27046e+08
1.33187e+08
1.44716e+08
2.44152e+08
3.92928e+08
4.1254e+08
3.92749e+08
2.79103e+08
1.96895e+08
1.80611e+08
1.80236e+08
1.73949e+08
1.57867e+08
1.39369e+08
1.22444e+08
1.07818e+08
9.49594e+07
8.23922e+07
7.04296e+07
5.96975e+07
5.11585e+07
4.57692e+07
4.43455e+07
4.73339e+07
5.52372e+07
6.59436e+07
7.53574e+07
8.05366e+07
8.09595e+07
7.74033e+07
7.11426e+07
6.34701e+07
5.53775e+07
4.75202e+07
4.03215e+07
3.40095e+07
2.86515e+07
2.41843e+07
2.04998e+07
1.74716e+07
1.49852e+07
1.29408e+07
1.12511e+07
9.84712e+06
8.66962e+06
7.67721e+06
6.8362e+06
6.12398e+06
5.53111e+06
5.04359e+06
4.65877e+06
6852.82
13463.9
19060.1
26718.3
36222.8
45380.7
52667.9
57438.6
59694
59837.1
58408.7
55970
53034.7
50087.8
47651.6
46450.8
47578.5
52456
62587.4
79438.9
104609
140075
188372
252916
338132
449648
594386
781308
1.02181e+06
1.33103e+06
1.73087e+06
2.25154e+06
2.94529e+06
3.90269e+06
5.35753e+06
8.00386e+06
1.36374e+07
2.48723e+07
4.15265e+07
5.85164e+07
6.90304e+07
7.21733e+07
6.8046e+07
6.1976e+07
6.16397e+07
8.29012e+07
1.14474e+08
1.27033e+08
1.2587e+08
1.31705e+08
1.42679e+08
2.42795e+08
3.93028e+08
4.13902e+08
3.92491e+08
2.74826e+08
1.931e+08
1.78556e+08
1.77998e+08
1.71612e+08
1.55848e+08
1.38059e+08
1.21737e+08
1.07538e+08
9.48787e+07
8.23867e+07
7.04189e+07
5.96783e+07
5.11283e+07
4.57505e+07
4.43457e+07
4.73675e+07
5.53057e+07
6.6055e+07
7.55113e+07
8.07369e+07
8.11986e+07
7.76644e+07
7.14088e+07
6.37277e+07
5.56181e+07
4.77383e+07
4.05195e+07
3.4192e+07
2.88258e+07
2.43551e+07
2.06715e+07
1.76461e+07
1.51643e+07
1.31237e+07
1.14374e+07
1.00339e+07
8.85536e+06
7.85843e+06
7.01243e+06
6.29261e+06
5.69408e+06
5.19982e+06
4.8114e+06
6312.39
12035.6
17039
24149.6
33089
41755.9
48734.7
53434.6
55838.5
56285
55242.6
53217.6
50690.7
48135.8
46082.5
45269.6
46773.4
51933.7
62134.9
78760.4
103407
138103
185488
249082
333388
444122
588267
774953
1.01557e+06
1.32578e+06
1.7271e+06
2.25125e+06
2.94882e+06
3.91464e+06
5.37834e+06
8.04389e+06
1.36816e+07
2.49366e+07
4.16221e+07
5.87736e+07
6.93435e+07
7.25011e+07
6.82456e+07
6.2136e+07
6.17582e+07
8.29432e+07
1.13865e+08
1.2593e+08
1.24253e+08
1.29808e+08
1.40171e+08
2.40384e+08
3.91348e+08
4.13602e+08
3.90367e+08
2.69585e+08
1.88822e+08
1.75873e+08
1.75022e+08
1.68605e+08
1.53257e+08
1.36268e+08
1.20597e+08
1.06871e+08
9.44423e+07
8.20676e+07
7.01356e+07
5.94277e+07
5.08981e+07
4.55499e+07
4.41642e+07
4.7199e+07
5.51296e+07
6.58665e+07
7.53169e+07
8.05581e+07
8.10479e+07
7.75432e+07
7.13137e+07
6.36536e+07
5.55608e+07
4.76941e+07
4.04895e+07
3.41784e+07
2.88323e+07
2.43824e+07
2.07207e+07
1.77155e+07
1.52533e+07
1.3229e+07
1.15569e+07
1.01629e+07
8.9912e+06
7.99627e+06
7.15096e+06
6.42823e+06
5.82797e+06
5.3301e+06
4.94038e+06
5834.74
10798.8
15295.5
21914.4
30308.5
38460.9
45066.9
49605.4
52061.7
52728.3
52011.9
50366.3
48236.9
46081.8
44430
44017.8
45882.3
51269.6
61454.6
77757.5
101780
135593
181908
244316
327364
436833
579711
765285
1.00482e+06
1.31451e+06
1.71519e+06
2.24012e+06
2.93767e+06
3.90654e+06
5.3703e+06
8.03818e+06
1.36403e+07
2.48358e+07
4.14479e+07
5.86788e+07
6.9288e+07
7.24831e+07
6.81555e+07
6.20509e+07
6.16361e+07
8.26041e+07
1.12716e+08
1.24282e+08
1.22157e+08
1.27444e+08
1.37137e+08
2.36802e+08
3.8771e+08
4.11458e+08
3.86283e+08
2.63352e+08
1.83982e+08
1.72467e+08
1.71248e+08
1.64879e+08
1.50049e+08
1.33946e+08
1.18979e+08
1.05773e+08
9.36144e+07
8.14045e+07
6.95549e+07
5.89243e+07
5.04492e+07
4.51495e+07
4.37822e+07
4.6807e+07
5.46835e+07
6.53475e+07
7.47394e+07
7.9963e+07
8.04705e+07
7.70042e+07
7.08247e+07
6.32184e+07
5.51798e+07
4.73645e+07
4.02113e+07
3.39505e+07
2.86543e+07
2.42509e+07
2.06328e+07
1.76663e+07
1.52393e+07
1.32444e+07
1.15979e+07
1.02231e+07
9.06683e+06
8.08128e+06
7.24313e+06
6.52301e+06
5.92564e+06
5.42804e+06
5.03983e+06
5405.48
9711.18
13763.5
19929
27793.6
35421.5
41617.2
45934.4
48372.9
49192.7
48748.5
47446
45695.9
43937.4
42691
42675.1
44868.9
50417.5
60496.3
76375.6
99661.6
132450
177497
238431
319808
427438
568266
751699
988767
1.29615e+06
1.69378e+06
2.21636e+06
2.90949e+06
3.8753e+06
5.32936e+06
7.98134e+06
1.35069e+07
2.45608e+07
4.09885e+07
5.82061e+07
6.88329e+07
7.20892e+07
6.775e+07
6.1698e+07
6.12535e+07
8.1867e+07
1.11013e+08
1.22076e+08
1.19568e+08
1.2459e+08
1.33555e+08
2.31992e+08
3.82026e+08
4.07362e+08
3.80218e+08
2.56142e+08
1.78545e+08
1.68293e+08
1.66663e+08
1.60422e+08
1.46211e+08
1.31073e+08
1.16861e+08
1.04223e+08
9.2377e+07
8.03823e+07
6.86648e+07
5.81577e+07
4.97723e+07
4.45401e+07
4.31901e+07
4.61804e+07
5.39537e+07
6.44819e+07
7.37603e+07
7.89321e+07
7.94469e+07
7.60293e+07
6.99253e+07
6.24074e+07
5.44619e+07
4.67381e+07
3.96745e+07
3.34989e+07
2.82829e+07
2.39519e+07
2.03994e+07
1.749e+07
1.51138e+07
1.31616e+07
1.15523e+07
1.02067e+07
9.07477e+06
8.10646e+06
7.28246e+06
6.5711e+06
5.9817e+06
5.4888e+06
5.10531e+06
5015.92
8745.36
12399.4
18137.6
25485
32586.8
38353
42411.6
44782.4
45702.5
45483.3
44487.9
43093.6
41719.1
40869.2
41230.8
43710.8
49351
59235.6
74591.9
97024.2
128635
172195
231339
310591
415758
553687
733858
966959
1.27009e+06
1.66205e+06
2.17886e+06
2.86285e+06
3.81896e+06
5.25305e+06
7.87027e+06
1.3279e+07
2.41092e+07
4.02399e+07
5.73437e+07
6.79626e+07
7.13032e+07
6.70157e+07
6.1065e+07
6.06006e+07
8.07285e+07
1.08764e+08
1.19319e+08
1.16491e+08
1.21244e+08
1.2943e+08
2.25948e+08
3.74288e+08
4.01273e+08
3.72219e+08
2.48004e+08
1.72507e+08
1.63346e+08
1.61287e+08
1.55257e+08
1.41758e+08
1.27654e+08
1.14241e+08
1.02217e+08
9.07267e+07
7.89983e+07
6.74638e+07
5.71266e+07
4.88665e+07
4.37202e+07
4.23857e+07
4.53167e+07
5.29373e+07
6.32662e+07
7.23755e+07
7.74613e+07
7.79733e+07
7.46155e+07
6.86134e+07
6.12192e+07
5.34064e+07
4.58143e+07
3.88786e+07
3.28226e+07
2.77166e+07
2.34834e+07
2.00177e+07
1.71832e+07
1.4873e+07
1.29763e+07
1.14154e+07
1.0109e+07
9.01036e+06
8.06734e+06
7.26467e+06
6.56855e+06
5.99248e+06
5.50908e+06
5.13376e+06
4660.52
7882.94
11173.8
16502.6
23342.4
29922.2
35252.1
39030.8
41299.7
42279.2
42244.3
41520.9
40455.4
39444.6
38971.5
39680.1
42396.2
48058.5
57667
72408
93873.3
124153
166003
223028
299692
401754
535913
711661
939253
1.2361e+06
1.61972e+06
2.12716e+06
2.79718e+06
3.73672e+06
5.14043e+06
7.70401e+06
1.29573e+07
2.34851e+07
3.92079e+07
5.60934e+07
6.66752e+07
7.01217e+07
6.59492e+07
6.01487e+07
5.96758e+07
7.91968e+07
1.05991e+08
1.16033e+08
1.12947e+08
1.17424e+08
1.24791e+08
2.18709e+08
3.64554e+08
3.93205e+08
3.62379e+08
2.39012e+08
1.65896e+08
1.57653e+08
1.55173e+08
1.49432e+08
1.36729e+08
1.2371e+08
1.11134e+08
9.97646e+07
8.86724e+07
7.72606e+07
6.59598e+07
5.58378e+07
4.77373e+07
4.26948e+07
4.13738e+07
4.42208e+07
5.16403e+07
6.17079e+07
7.05939e+07
7.55604e+07
7.60605e+07
7.2774e+07
6.69002e+07
5.96649e+07
5.20235e+07
4.46025e+07
3.78317e+07
3.19283e+07
2.69607e+07
2.28492e+07
1.94903e+07
1.67475e+07
1.45173e+07
1.26883e+07
1.11862e+07
9.9284e+06
8.87172e+06
7.96192e+06
7.18769e+06
6.51336e+06
5.95603e+06
5.48709e+06
5.12351e+06
4335.58
7110.84
10066.5
14998.1
21338.9
27404.3
32300
35789.2
37933.9
38941.2
39055.7
38570.8
37804.6
37131.1
37005.9
38022.7
40921.2
46540.1
55799.7
69843.8
90238.5
119040
158964
213556
287178
385506
515040
685218
905780
1.19433e+06
1.56695e+06
2.06145e+06
2.71272e+06
3.62882e+06
4.99198e+06
7.48364e+06
1.25459e+07
2.26981e+07
3.79078e+07
5.44695e+07
6.49817e+07
6.85527e+07
6.45567e+07
5.89537e+07
5.84848e+07
7.729e+07
1.02728e+08
1.12253e+08
1.08971e+08
1.13161e+08
1.19681e+08
2.10353e+08
3.52935e+08
3.83223e+08
3.50838e+08
2.2926e+08
1.58759e+08
1.5127e+08
1.48396e+08
1.43014e+08
1.31176e+08
1.1928e+08
1.0757e+08
9.68881e+07
8.62338e+07
7.51862e+07
6.41678e+07
5.43042e+07
4.63965e+07
4.14745e+07
4.01649e+07
4.29048e+07
5.00771e+07
5.98246e+07
6.84356e+07
7.32517e+07
7.37316e+07
7.05282e+07
6.48085e+07
5.77659e+07
5.03333e+07
4.31208e+07
3.65498e+07
3.08299e+07
2.60268e+07
2.20589e+07
1.8825e+07
1.6189e+07
1.40515e+07
1.23009e+07
1.08672e+07
9.66657e+06
8.65973e+06
7.79057e+06
7.05153e+06
6.40536e+06
5.87202e+06
5.42245e+06
5.07418e+06
4038.41
6419.22
9062.75
13606.5
19456.1
25017.8
29487.3
32685.7
34692.6
35703.8
35937.9
35659.7
35161.6
34794.1
34981.6
36262.1
39288.9
44804.7
53653.8
66933.1
86168.4
113364
151166
203032
273194
367197
491302
654820
866913
1.14523e+06
1.50432e+06
1.98243e+06
2.61043e+06
3.49651e+06
4.80952e+06
7.21208e+06
1.20516e+07
2.17628e+07
3.63631e+07
5.24977e+07
6.29045e+07
6.66145e+07
6.28528e+07
5.74918e+07
5.70395e+07
7.5034e+07
9.90199e+07
1.08026e+08
1.04605e+08
1.085e+08
1.14159e+08
2.00991e+08
3.39586e+08
3.71439e+08
3.37766e+08
2.18853e+08
1.51162e+08
1.44273e+08
1.41048e+08
1.36087e+08
1.25168e+08
1.14414e+08
1.03587e+08
9.36198e+07
8.34391e+07
7.27996e+07
6.21095e+07
5.25445e+07
4.48603e+07
4.00745e+07
3.87747e+07
4.1386e+07
4.82687e+07
5.76422e+07
6.59308e+07
7.0568e+07
7.10208e+07
6.7912e+07
6.23712e+07
5.55534e+07
4.83644e+07
4.13949e+07
3.50557e+07
2.95472e+07
2.49319e+07
2.11269e+07
1.80338e+07
1.55178e+07
1.34838e+07
1.18209e+07
1.04638e+07
9.32781e+06
8.37773e+06
7.55592e+06
6.8582e+06
6.24613e+06
5.74165e+06
5.31614e+06
4.9866e+06
3766.92
5800.26
8151.86
12315.8
17682.6
22753.4
26808.9
29720.9
31582.7
32579.6
32907.4
32806.3
32544.4
32448.2
32908.3
34405.2
37507.8
42868.6
51258.1
63720.2
81725.9
107208
142722
191609
257939
347091
465045
620913
823230
1.08953e+06
1.43279e+06
1.89132e+06
2.49192e+06
3.34186e+06
4.59602e+06
6.89392e+06
1.14838e+07
2.06977e+07
3.46041e+07
5.02133e+07
6.04762e+07
6.43344e+07
6.08591e+07
5.57805e+07
5.53572e+07
7.24614e+07
9.49192e+07
1.03406e+08
9.99017e+07
1.03494e+08
1.08292e+08
1.90755e+08
3.247e+08
3.58003e+08
3.23358e+08
2.07909e+08
1.43187e+08
1.36759e+08
1.33238e+08
1.28746e+08
1.18782e+08
1.09172e+08
9.92364e+07
9.00004e+07
8.03236e+07
7.01315e+07
5.98116e+07
5.05818e+07
4.31492e+07
3.8514e+07
3.72227e+07
3.96867e+07
4.62422e+07
5.51936e+07
6.31177e+07
6.7551e+07
6.79711e+07
6.49685e+07
5.96295e+07
5.3066e+07
4.61522e+07
3.94569e+07
3.33775e+07
2.81047e+07
2.36974e+07
2.00718e+07
1.71328e+07
1.47475e+07
1.28259e+07
1.12583e+07
9.98413e+06
8.91897e+06
8.03137e+06
7.26261e+06
6.61146e+06
6.03877e+06
5.56753e+06
5.17034e+06
4.8627e+06
3519.35
5247.41
7325.56
11117.6
16010.8
20605.6
24262.1
26895.9
28610
29578.8
29978.1
30026
29968.2
30106.8
30796.8
32461.8
35591.3
40753.5
48647.1
60256.7
76983
100672
133768
179469
241660
325516
436701
584061
775470
1.0282e+06
1.35361e+06
1.78972e+06
2.35932e+06
3.16772e+06
4.35545e+06
6.5351e+06
1.08534e+07
1.95246e+07
3.26661e+07
4.76596e+07
5.7738e+07
6.17473e+07
5.86032e+07
5.38428e+07
5.34597e+07
6.961e+07
9.0485e+07
9.84519e+07
9.49174e+07
9.82046e+07
1.02156e+08
1.79803e+08
3.08496e+08
3.43097e+08
3.07829e+08
1.96549e+08
1.34922e+08
1.28832e+08
1.25077e+08
1.2109e+08
1.12102e+08
1.0362e+08
9.45729e+07
8.60765e+07
7.69285e+07
6.72173e+07
5.73051e+07
4.84426e+07
4.12869e+07
3.68151e+07
3.55316e+07
3.78327e+07
4.4029e+07
5.25173e+07
6.00409e+07
6.42494e+07
6.46328e+07
6.17471e+07
5.66309e+07
5.0348e+07
4.37372e+07
3.73431e+07
3.15477e+07
2.65311e+07
2.23482e+07
1.89152e+07
1.61406e+07
1.38945e+07
1.20919e+07
1.06252e+07
9.43879e+06
8.44898e+06
7.62819e+06
6.91698e+06
6.31663e+06
5.78776e+06
5.35341e+06
4.98826e+06
4.70534e+06
3294.09
4754.9
6577.25
10006
14436.7
18571.8
21846.6
24213
25779.6
26709.7
27161.1
27331.9
27446.7
27782.8
28659.2
30445
33556.7
38485.3
45859
56597.5
72017.1
93864.1
124451
166816
224632
302842
406764
544919
724495
962338
1.26826e+06
1.67956e+06
2.21519e+06
2.97747e+06
4.09257e+06
6.14267e+06
1.01729e+07
1.82672e+07
3.05881e+07
4.4886e+07
5.47374e+07
5.88942e+07
5.61175e+07
5.17053e+07
5.1372e+07
6.65212e+07
8.578e+07
9.32288e+07
8.97126e+07
9.26958e+07
9.58273e+07
1.683e+08
2.91214e+08
3.2693e+08
2.91402e+08
1.84894e+08
1.26461e+08
1.20606e+08
1.16684e+08
1.13225e+08
1.05214e+08
9.78297e+07
8.96575e+07
8.18998e+07
7.32988e+07
6.40959e+07
5.46235e+07
4.61561e+07
3.92989e+07
3.50019e+07
3.37265e+07
3.58523e+07
4.16636e+07
4.96557e+07
5.67497e+07
6.07167e+07
6.10609e+07
5.83023e+07
5.34274e+07
4.74477e+07
4.11635e+07
3.50931e+07
2.96014e+07
2.48571e+07
2.09113e+07
1.76807e+07
1.5078e+07
1.2977e+07
1.12978e+07
9.9356e+06
8.83996e+06
7.92845e+06
7.17725e+06
6.52678e+06
5.98027e+06
5.49864e+06
5.10407e+06
4.77398e+06
4.51814e+06
3089.67
4317.52
5901.39
8977.16
12958.1
16651.6
19563.1
21674.4
23095.9
23979.4
24465.9
24735.4
24992.4
25489
26509
28370.6
31424.8
36092.8
42934.4
52798.8
66907.3
86894.1
114926
153862
207148
279463
375765
504190
671238
893189
1.17836e+06
1.56296e+06
2.06235e+06
2.77491e+06
3.81262e+06
5.72442e+06
9.45558e+06
1.695e+07
2.84109e+07
4.19454e+07
5.15267e+07
5.58204e+07
5.34379e+07
4.93978e+07
4.9122e+07
6.32388e+07
8.08691e+07
8.78028e+07
8.4349e+07
8.70346e+07
8.93862e+07
1.56423e+08
2.73105e+08
3.09728e+08
2.74306e+08
1.73067e+08
1.17898e+08
1.12195e+08
1.08175e+08
1.05254e+08
9.82054e+07
9.18744e+07
8.45533e+07
7.75243e+07
6.94823e+07
6.08086e+07
5.18026e+07
4.37528e+07
3.72124e+07
3.31e+07
3.18336e+07
3.37754e+07
3.91825e+07
4.66534e+07
5.32958e+07
5.70093e+07
5.73134e+07
5.46911e+07
5.00731e+07
4.44154e+07
3.84768e+07
3.27478e+07
2.75747e+07
2.31147e+07
1.94149e+07
1.63932e+07
1.3967e+07
1.20142e+07
1.04607e+07
9.20474e+06
8.20099e+06
7.36907e+06
6.68871e+06
6.10076e+06
5.60988e+06
5.17781e+06
4.825e+06
4.53221e+06
4.30532e+06
2904.64
3930.43
5293.08
8028.01
11574.3
14845.9
17413.4
19283
20563.3
21393.9
21900.7
22246.8
22617.1
23238.6
24361.3
26256.8
29219
33607.1
39914.4
48916.3
61731
79870.5
105344
140819
189499
255780
344244
462599
616663
822024
1.08559e+06
1.44215e+06
1.90377e+06
2.56404e+06
3.52119e+06
5.28853e+06
8.71485e+06
1.5598e+07
2.61754e+07
3.88924e+07
4.81607e+07
5.25741e+07
5.06028e+07
4.69521e+07
4.67392e+07
5.9808e+07
7.58175e+07
8.22406e+07
7.88884e+07
8.1288e+07
8.29099e+07
1.44348e+08
2.54424e+08
2.91729e+08
2.56767e+08
1.61183e+08
1.09328e+08
1.03713e+08
9.96638e+07
9.72773e+07
9.11615e+07
8.58264e+07
7.9324e+07
7.30057e+07
6.55279e+07
5.73977e+07
4.88786e+07
4.12641e+07
3.5055e+07
3.11353e+07
2.98798e+07
3.16325e+07
3.66228e+07
4.35559e+07
4.97323e+07
5.31844e+07
5.34491e+07
5.0971e+07
4.66226e+07
4.13014e+07
3.57228e+07
3.0348e+07
2.55038e+07
2.13357e+07
1.78869e+07
1.50774e+07
1.28295e+07
1.1026e+07
9.59814e+06
8.44824e+06
7.53582e+06
6.78318e+06
6.1734e+06
5.64831e+06
5.21355e+06
4.83219e+06
4.52221e+06
4.26811e+06
4.07146e+06
2737.64
3589.09
4747.8
7156.21
10285.4
13156.1
15400
17041.8
18185.7
18958.9
19473.2
19875.6
20332.3
21045.4
22232.5
24124.2
26965.2
31060.1
36839.9
45003.6
56561.2
72895.2
95850.2
127889
171967
232180
312728
420855
561720
750110
991634
1.31938e+06
1.74241e+06
2.34888e+06
3.22386e+06
4.84329e+06
7.96406e+06
1.42349e+07
2.3921e+07
3.57812e+07
4.4695e+07
4.92048e+07
4.76515e+07
4.44009e+07
4.42543e+07
5.62736e+07
7.0689e+07
7.6608e+07
7.3391e+07
7.55211e+07
7.64723e+07
1.32246e+08
2.35424e+08
2.73174e+08
2.39006e+08
1.49355e+08
1.00838e+08
9.52677e+07
9.12547e+07
8.93881e+07
8.41625e+07
7.97561e+07
7.40323e+07
6.83989e+07
6.14845e+07
5.39053e+07
4.5888e+07
3.87211e+07
3.28541e+07
2.91334e+07
2.78915e+07
2.94534e+07
3.40211e+07
4.04079e+07
4.61109e+07
4.92986e+07
4.95257e+07
4.71985e+07
4.3129e+07
3.81547e+07
3.29456e+07
2.7933e+07
2.34233e+07
1.95506e+07
1.63543e+07
1.37572e+07
1.16869e+07
1.00313e+07
8.7273e+06
7.68158e+06
6.85837e+06
6.18322e+06
5.6423e+06
5.17908e+06
4.7997e+06
4.46902e+06
4.20197e+06
3.98708e+06
3.82138e+06
2587.3
3289.2
4261.24
6359.64
9091.76
11584.4
13525.6
14953.9
15967.2
16679.8
17190.6
17631.4
18149.7
18923.6
20140.4
21994.9
24690.4
28484.6
33750.4
41110.6
51464.4
66060.7
86574.1
115258
154813
209023
281711
379631
507310
678654
898095
1.19678e+06
1.58115e+06
2.13335e+06
2.92605e+06
4.39673e+06
7.21584e+06
1.28832e+07
2.16847e+07
3.26637e+07
4.11843e+07
4.57617e+07
4.46235e+07
4.17769e+07
4.16976e+07
5.26795e+07
6.55449e+07
7.0968e+07
6.7914e+07
6.97954e+07
7.01419e+07
1.20281e+08
2.16351e+08
2.54303e+08
2.21231e+08
1.37685e+08
9.25072e+07
8.696e+07
8.30436e+07
8.16718e+07
7.72826e+07
7.37296e+07
6.87384e+07
6.37576e+07
5.73995e+07
5.03726e+07
4.2866e+07
3.61538e+07
3.06361e+07
2.71189e+07
2.58938e+07
2.72666e+07
3.14122e+07
3.72523e+07
4.24816e+07
4.54057e+07
4.5598e+07
4.34269e+07
3.96424e+07
3.5021e+07
3.01861e+07
2.5539e+07
2.13653e+07
1.77876e+07
1.48422e+07
1.2455e+07
1.05589e+07
9.04806e+06
7.86437e+06
6.91949e+06
6.18199e+06
5.58125e+06
5.10624e+06
4.70261e+06
4.37668e+06
4.09554e+06
3.87061e+06
3.69458e+06
3.55992e+06
2452.32
3026.71
3829.19
5636.18
7993.86
10132.7
11793
13022.8
13911.7
14562.1
15060.2
15523.6
16081.3
16888.1
18103.8
19892.3
22422.9
25913.5
30683.9
37283
46499.5
59447.5
77630.1
103088
138266
186634
251640
339534
454254
608762
806447
1.07635e+06
1.42262e+06
1.92106e+06
2.63279e+06
3.95636e+06
6.48179e+06
1.15632e+07
1.94994e+07
2.95877e+07
3.76803e+07
4.22924e+07
4.1557e+07
3.91123e+07
3.90994e+07
4.90675e+07
6.04423e+07
6.53799e+07
6.25107e+07
6.41674e+07
6.398e+07
1.08601e+08