/*--------------------------------*- C++ -*----------------------------------*\
| =========                 |                                                 |
| \\      /  F ield         | OpenFOAM: The Open Source CFD Toolbox           |
|  \\    /   O peration     | Version:  2412                                  |
|   \\  /    A nd           | Website:  www.openfoam.com                      |
|    \\/     M anipulation  |                                                 |
\*---------------------------------------------------------------------------*/
FoamFile
{
    version     2.0;
    format      ascii;
    arch        "LSB;label=32;scalar=64";
    class       volScalarField;
    location    "0.1";
    object      k;
}
// * * * * * * * * * * * * * * * * * * * * * * * * * * * * * * * * * * * * * //

dimensions      [0 2 -2 0 0 0 0];

internalField   nonuniform List<scalar> 
78408
(
248.81
262.382
215.096
182.38
162.635
149.359
140.265
134.16
130.116
127.359
125.41
124.007
123.077
122.624
122.682
123.292
124.551
126.618
129.851
134.808
142.07
152.206
165.473
181.502
200.453
221.558
246.332
272.651
304.637
337.184
378.565
419.619
475.168
530.707
615.988
720.947
926.514
1217.64
1621.06
1930.83
2152.65
2164.58
2123.52
1955.35
1959.38
2142.44
2608.04
2714.23
2854.44
2932.48
3251.26
3934
5274.71
4889.55
4055.71
3566.46
3343.38
3403.69
3534.9
3524.24
3351.3
3091.76
2829.85
2593.04
2383.91
2185.9
2000.57
1831.72
1698.68
1618.64
1620.88
1712.12
1904.86
2138.55
2335
2437.46
2449.5
2385.9
2271.48
2126.82
1968.29
1807.87
1652.62
1509.29
1379.55
1265.4
1164.41
1076.75
998.942
931.757
871.276
819.16
770.662
729.039
687.608
653.421
614.854
588.971
549.704
848.777
640.127
327.237
194.781
140.003
117.495
108.749
105.82
104.793
104.125
103.278
102.296
101.305
100.5
100.048
100.124
100.896
102.752
106.398
113.128
124.495
140.991
161.841
186.33
213.978
245.24
280.429
319.875
365.366
415.093
474.75
539.766
621.184
714.212
847.013
1042.07
1409.97
1983.65
2725.25
3313.48
3645.73
3634.52
3447.9
3123.94
3055.67
3528.21
4384.78
4604
4608.17
4673.34
4845.16
6054.16
7442.23
6967.19
6790.35
5987.9
5347.87
5217.37
5453.07
5518.74
5321.77
4907.37
4512.73
4128.76
3826.33
3508.8
3225.74
2942.68
2731.01
2605.29
2642.2
2846.11
3247.98
3721.96
4114.58
4314.19
4334.79
4205.87
3978.48
3692.34
3380.34
3064.93
2760.96
2480.57
2228.02
2005.52
1809.58
1639
1489.11
1359.36
1244.9
1146.04
1057.69
981.263
912.003
852.3
799.129
754.574
711.937
193.925
261.639
171.89
121.334
95.2418
82.7047
77.7331
76.4712
76.4954
76.5558
76.2056
75.463
74.5378
73.6852
73.1655
73.2714
74.4226
77.4103
83.6514
94.8857
112.058
134.994
162.51
193.798
228.591
267.516
311.117
359.985
415.852
477.522
550.594
630.953
731.245
846.99
1013.03
1263.05
1735.7
2479.67
3418.86
4162.91
4563.52
4545.06
4295.03
3880.71
3796.77
4439.81
5517.93
5775.15
5715.23
5764.28
5925.78
7453.7
9157.7
8639.05
8492.63
7380.29
6445.54
6310.37
6697.61
6830.35
6600.47
6083.02
5601.06
5128.73
4764.51
4371.85
4020.58
3664.64
3396.71
3240.9
3288.98
3553.35
4068.16
4675.03
5174.5
5430.76
5458.21
5297.19
5009.52
4646.81
4250.28
3848.55
3460.84
3102.37
2779.14
2493.59
2242.02
2022.48
1829.8
1662.68
1515.81
1388.78
1276.17
1178.85
1091.17
1016.87
948.975
896.331
844.481
78.1055
105.625
98.3114
91.0121
85.8514
82.9619
81.583
80.6183
79.3989
77.6285
75.3663
72.8174
70.2635
67.9925
66.3164
65.6377
66.6062
70.3619
78.6193
93.0145
114.001
140.878
172.435
208.018
247.653
292.001
341.806
397.674
461.403
532.176
615.432
707.908
822.39
956.279
1147.18
1440.13
1991.76
2864.01
3946.85
4804.16
5250.99
5230.78
4929.93
4457.68
4360.39
5139.85
6368.18
6646.67
6531.71
6578.41
6737.26
8515.44
10499.7
9996.05
9784.83
8391.69
7226.75
7129.44
7644.32
7827.34
7558.85
6969.25
6418.45
5887.36
5472.99
5027.32
4620.41
4211.23
3898.5
3720.3
3775.77
4084.41
4681.2
5384.57
5960.54
6257.94
6290.62
6107
5776.11
5358.21
4900.5
4436.01
3987.3
3571.86
3197.07
2865.51
2573.44
2318.33
2094.68
1900.62
1730.48
1583.32
1453.43
1341.28
1241.06
1156.07
1079.45
1019.96
964.462
67.83
83.039
91.7916
95.5281
96.7986
96.7452
95.7284
93.7051
90.7822
87.1033
82.9794
78.7213
74.6614
71.1177
68.4587
67.1983
68.1812
72.7434
82.5837
99.0111
122.176
151.291
185.337
223.863
267.091
315.67
370.455
432.036
502.264
580.626
672.39
775.145
901.55
1050.93
1262.87
1592.61
2211.1
3191.09
4392.09
5342.18
5824.46
5802.54
5456.88
4938.3
4830.86
5727.54
7072.55
7361.1
7194.88
7242.73
7400.29
9394.31
11627.5
11141.9
10859.4
9197.27
7839.22
7804.07
8432.12
8653.05
8346.7
7699.23
7092.53
6516.16
6060.23
5571.39
5117.17
4663.9
4313.6
4117.27
4179.34
4525.16
5189.67
5972.32
6610.26
6941.07
6977.99
6776.08
6410.02
5947.12
5439.44
4923.6
4424.93
3962.83
3545.9
3176.8
2851.78
2567.82
2319.18
2103.44
1914.69
1751.45
1607.83
1483.86
1373.75
1280.26
1197.02
1132.06
1074.07
70.5541
88.7786
99.3133
104.474
107.806
109.208
108.536
105.956
101.96
97.0002
91.5817
86.1192
81.0041
76.5994
73.3365
71.8317
73.07
78.4668
89.5954
107.475
132.09
162.716
198.566
239.387
285.547
337.683
396.717
463.23
539.115
624.117
723.354
835.208
972.123
1135.28
1365.86
1728.35
2405.7
3479.98
4782.94
5813.26
6324.65
6300.67
5913.86
5355.42
5239.88
6239.85
7678.93
7969.86
7754.95
7806.06
7962.23
10148.7
12607.3
12135.3
11783.6
9859.31
8337.3
8382.25
9112.5
9362.44
9019.82
8324.02
7670.74
7057.58
6566.11
6040.21
5544.51
5053.03
4670.25
4458.81
4527.28
4905.98
5629.21
6480.09
7170.71
7529.87
7570.34
7352.74
6956.63
6455.25
5904.85
5345.03
4803.6
4301.61
3848.77
3447.77
3094.88
2786.6
2517.01
2283.17
2078.93
1902.34
1747.32
1613.52
1495.18
1394.57
1305.9
1236.36
1176.4
76.0911
96.3985
106.321
111.748
116.195
118.653
118.481
115.797
111.262
105.537
99.2841
93.0188
87.1986
82.2413
78.6445
77.1159
78.7432
84.9663
97.2134
116.264
141.999
173.801
211.108
253.859
302.536
357.776
420.545
491.43
572.359
663.302
769.246
889.31
1035.67
1211.31
1458.65
1850.64
2580.23
3737.95
5130.38
6232.08
6768.29
6742.11
6317.1
5723.56
5601.11
6692.17
8207.15
8494.85
8233.72
8290.17
8444.11
10803.6
13467.2
13004.6
12585.5
10405.7
8746.3
8884.84
9707.21
9979.39
9602.48
8866.14
8173.76
7530.2
7007.73
6449.43
5916.81
5391.78
4980.58
4756.49
4831.27
5239.58
6014.54
6925.08
7661.26
8044.82
8088.25
7856.93
7434.63
6899.79
6312.25
5714.17
5135.6
4599.04
4115.24
3686.83
3310.14
2981.19
2693.9
2444.84
2227.65
2039.87
1875.31
1733.2
1607.92
1501.2
1407.94
1334.45
1272.9
80.6113
102.447
111.578
117.16
122.4
125.629
125.919
123.321
118.563
112.424
105.674
98.9099
92.6511
87.3722
83.6346
82.2276
84.317
91.3394
104.574
124.6
151.238
183.996
222.53
266.948
317.824
375.806
441.889
516.683
602.136
698.431
810.429
937.938
1092.82
1279.8
1542.2
1960.71
2736.27
3967.51
5438.55
6604.57
7162.5
7134.38
6674.01
6049.5
5920.82
7091.21
8665.97
8946.34
8641.73
8705.61
8856
11370.1
14219
13763.6
13277.3
10851.3
9079.78
9321.42
10225.9
10515
10106.2
9336.43
8611.41
7942.81
7393.18
6806.41
6240.84
5686.36
5250.31
5015.71
5096.64
5531.62
6352.16
7314.84
8090.44
8494.97
8540.83
8297.4
7852.24
7288.2
6668.33
6036.95
5426.13
4859.68
4349.26
3897.42
3500.55
3154.17
2852.11
2590.39
2362.49
2165.43
1992.97
1843.88
1712.75
1600.79
1503.65
1426.73
1363.88
84.3228
106.954
115.311
121.063
126.924
130.697
131.327
128.856
124.036
117.711
110.707
103.677
97.1918
91.7755
88.0485
86.8708
89.4667
97.2465
111.34
132.161
159.512
193.042
232.604
278.459
331.25
391.644
460.653
538.928
628.417
729.518
846.947
981.176
1143.69
1340.92
1616.7
2058.75
2873.99
4169.04
5708.48
6932.6
7509.95
7480.55
6987.93
6336.44
6201.87
7439.82
9059.38
9329.44
8984.45
9057.75
9202.87
11852.7
14867.4
14419.6
13864.6
11204.7
9345.62
9696.18
10672.6
10974.5
10536.7
9740.31
8988.54
8299.71
7726.39
7114.74
6519.95
5939.82
5482.22
5239.03
5325.86
5784.6
6644.85
7652.58
8461.89
8884.23
8931.97
8677.89
8212.86
7623.56
6975.77
6315.66
5677.15
5085.15
4552.19
4080.65
3666.99
3306.24
2992.14
2720.16
2483.67
2279.12
2100.28
1945.44
1809.49
1693.09
1592.73
1512.88
1449.02
87.2996
110.137
117.801
123.751
130.112
134.245
135.08
132.707
127.902
121.532
114.446
107.331
100.789
95.387
91.7947
90.931
94.0579
102.537
117.35
138.786
166.668
200.79
241.189
288.251
342.677
405.157
476.709
558.042
651.077
756.439
878.667
1018.89
1188.13
1394.47
1681.91
2144.43
2992.9
4341.91
5939.69
7216.06
7811.1
7781.5
7260.15
6585.73
6445.5
7739.08
9389.21
9646.93
9265.02
9349.62
9487.37
12253.4
15413.8
14976.4
14350.4
11472.2
9548.69
10010.7
11048.8
11360.4
10896.8
10080.6
9307.58
8603
8009.27
7376.21
6755.79
6153.72
5677.7
5427.68
5519.99
5999.5
6893.62
7939.43
8776.93
9214
9263.06
8999.68
8517.62
7906.78
7235.29
6550.83
5888.99
5275.63
4724.06
4236.42
3809.24
3437.06
3113.56
2833.64
2590.6
2380.29
2196.56
2037.17
1897.44
1777.38
1674.47
1592.18
1527.6
89.61
112.202
119.262
125.432
132.191
136.536
137.453
135.127
130.364
124.037
116.994
109.931
103.468
98.2043
94.8492
94.3656
98.0292
107.132
122.516
144.384
172.613
207.147
248.183
296.216
351.987
416.217
489.918
573.87
669.941
779.002
905.364
1050.81
1225.82
1440.11
1737.39
2217.17
3092.23
4485.13
6131.08
7453.91
8065.29
8037.03
7490.96
6797.83
6652.14
7989.35
9656.4
9900.5
9485.45
9583.02
9711.1
12572.6
15858.2
15436.2
14736
11658.6
9692.24
10265.1
11355.1
11673.9
11188.4
10358.7
9569.8
8853.77
8242.82
7591.75
6949.3
6328.9
5837.49
5582.23
5679.45
6176.55
7098.65
8175.55
9035.78
9484.51
9534.29
9262.92
8766.56
8137.79
7446.69
6742.16
6061.27
5430.66
4864.3
4364.07
3926.57
3545.82
3215.49
2929.89
2682.29
2467.92
2280.77
2118.05
1975.56
1852.67
1747.88
1663.69
1598.74
91.3348
113.329
119.857
126.253
133.32
137.755
138.651
136.32
131.605
125.376
118.463
111.554
105.279
100.255
97.2203
97.1644
101.352
110.985
126.783
148.9
177.295
212.055
253.519
302.27
359.081
424.707
500.142
586.252
684.823
796.987
926.775
1076.64
1256.41
1477.37
1782.6
2276.31
3171.17
4597.65
6281.39
7644.74
8271.47
8246.48
7680.23
6972.78
6821.91
8190.73
9861.66
10091.5
9647.31
9759.19
9875.19
12810.6
16200.6
15800.4
15023.2
11768.2
9778.71
10459.4
11591.5
11915.8
11412.4
10575.7
9775.99
9052.65
8427.66
7762.01
7101.1
6465.95
5962.09
5703.03
5804.42
6315.76
7259.81
8360.77
9238.24
9695.59
9745.46
9467.34
8959.36
8316.2
7609.49
6889.11
6193.37
5549.54
4972.15
4462.77
4018.07
3631.53
3296.88
3007.79
2757.59
2540.84
2351.75
2186.91
2042.73
1917.88
1811.94
1726.44
1661.47
92.5535
113.668
119.714
126.323
133.613
138.038
138.834
136.453
131.783
125.688
118.965
112.291
106.288
101.584
98.9325
99.3335
104.013
114.071
130.122
152.309
180.689
215.483
257.151
306.354
363.883
430.531
507.266
595.046
695.549
810.183
942.646
1096.08
1279.52
1505.83
1817.01
2321.2
3229
4678.58
6389.5
7787.2
8428.53
8409.14
7827.7
7110.52
6954.89
8343.46
10005.8
10221.2
9752.14
9879.27
9980.78
12967.5
16441
16070.2
15213.7
11805
9810.2
10593.4
11758.6
12087.2
11570
10732.6
9926.89
9200.25
8564.39
7887.57
7211.78
6565.41
6051.94
5790.39
5895.07
6417.13
7376.99
8494.93
9384.14
9847.06
9896.38
9612.73
9095.75
8441.66
7723.31
6991.21
6284.76
5631.67
5046.93
4531.75
4082.86
3693.26
3356.7
3066.27
2815.38
2597.9
2408.33
2242.62
2097.84
1971.95
1865.63
1779.47
1714.88
93.3381
113.347
118.938
125.731
133.16
137.493
138.128
135.665
131.037
125.099
118.613
112.231
106.564
102.24
100.019
100.888
106.01
116.38
132.525
154.608
182.792
217.424
259.064
308.436
366.347
433.625
511.204
600.142
701.979
818.418
952.764
1108.85
1294.84
1525.08
1840.17
2351.33
3265.21
4727.34
6454.66
7880.24
8535.62
8524.46
7933.26
7211.07
7051.25
8448.03
10090.1
10291.2
9801.62
9944.52
10029.3
13044.1
16580.5
16247.2
15310
11773.5
9788.79
10667.4
11857
12189.1
11662.6
10830.3
10023.4
9297.33
8653.75
7969.2
7282.11
6627.97
6107.66
5844.76
5951.69
6480.82
7450.29
8578.12
9473.6
9939.05
9987.15
9699.17
9175.78
8514.18
7788.05
7048.31
6335.2
5676.72
5088.21
4570.47
4120.32
3730.25
3394.12
3104.39
2854.65
2638.06
2449.47
2284.17
2139.91
2013.95
1908.06
1821.93
1758.19
93.7528
112.477
117.619
124.55
132.035
136.209
136.639
134.074
129.489
123.726
117.51
111.463
106.178
102.279
100.517
101.846
107.35
117.912
133.998
155.812
183.625
217.895
259.267
308.517
366.46
433.96
511.914
601.474
704.027
821.573
956.977
1114.77
1302.13
1534.85
1851.73
2366.33
3279.59
4743.79
6476.64
7923.35
8592.31
8592.27
7997.02
7274.64
7111.39
8505.29
10116.2
10303.5
9797.72
9956.52
10022.6
13042
16620.9
16333
15315.5
11677.8
9716.71
10682.3
11888.4
12223.4
11692
10870.4
10066.6
9344.92
8696.78
8007.9
7313.06
6654.52
6130
5866.79
5974.83
6507.31
7480.16
8610.86
9507.17
9972.16
10018.4
9727.27
9199.99
8534.24
7804.12
7060.71
6344.9
5684.78
5095.94
4578.76
4130.13
3742.06
3408.58
3121.52
2874.69
2660.56
2474.37
2310.74
2168.14
2043.12
1938.5
1853.18
1790.74
93.8552
111.16
115.837
122.844
130.304
134.262
134.461
131.785
127.247
121.675
115.753
110.072
105.202
101.756
100.464
102.232
108.045
118.682
134.567
155.956
183.228
216.936
257.796
306.626
364.247
431.554
509.399
599.033
701.669
819.604
955.222
1113.74
1301.28
1534.97
1851.54
2366.06
3272.22
4728.24
6455.81
7916.62
8598.74
8612.83
8019.46
7301.74
7135.97
8516.5
10086
10260.2
9742.73
9917.16
9962.79
12963.3
16565.1
16330.2
15234.1
11522.8
9596.53
10639.4
11854.9
12192.5
11660.4
10854.6
10058.2
9344.44
8694.82
8004.98
7305.87
6646.19
6120.02
5857.38
5965.31
6497.39
7467.47
8594.12
9485.94
9947.57
9991.33
9698.24
9169.56
8502.92
7772.51
7029.3
6314.6
5656.44
5070.55
4556.89
4112.4
3728.66
3399.89
3117.33
2875.09
2664.91
2482.51
2321.8
2182
2058.96
1956.46
1872.73
1812.11
93.6969
109.484
113.667
120.675
128.028
131.724
131.675
128.89
124.409
119.042
113.431
108.136
103.703
100.723
99.8978
102.069
108.115
118.716
134.268
155.091
181.659
214.611
254.716
302.828
359.769
426.465
503.72
592.873
694.954
812.547
947.531
1105.78
1292.3
1525.44
1839.6
2350.63
3243.53
4681.52
6393.19
7860.84
8555.65
8586.91
8001.42
7293.17
7125.94
8483.34
10002.2
10164.3
9639.32
9828.74
9852.7
12811.3
16416.7
16241.6
15070.7
11313.2
9431.16
10541.1
11759.4
12099.3
11570.7
10785.3
10000.1
9297.68
8649.6
7962.07
7262.11
6604.43
6079.01
5817.73
5924.28
6452.26
7413.55
8529.45
9411.64
9867.12
9907.83
9613.96
9086.31
8421.96
7694.83
6955.54
6245.61
5592.83
5012.98
4505.59
4067.69
3690.44
3368.28
3091.91
2855.78
2650.97
2473.67
2317.1
2181.21
2061.19
1961.66
1880.34
1822.05
93.324
107.529
111.175
118.099
125.265
128.659
128.356
125.471
121.061
115.913
110.628
105.731
101.742
99.2305
98.8568
101.387
107.587
118.048
133.153
153.281
178.995
211.002
250.115
297.217
353.129
418.801
494.987
583.11
684.007
800.531
934.039
1091.03
1275.35
1506.43
1816.15
2320.37
3194.32
4604.96
6290.5
7757.59
8464.48
8515.85
7944.17
7250.08
7082.58
8407.91
9867.94
10018.6
9490.49
9693.98
9695.46
12589.8
16180.5
16071.1
14830.8
11054.1
9223.95
10390.2
11605.5
11947.5
11426.2
10665.3
9894.79
9206.82
8563.19
7881.15
7183.64
6530.92
6008.55
5749.32
5853.2
6373.49
7320.19
8418.94
9286.59
9733.31
9770.46
9476.99
8952.74
8293.75
7573.33
6841.51
6139.8
5495.63
4924.69
4426.12
3997.02
3628.22
3314.39
3045.75
2817.13
2618.97
2447.97
2296.7
2165.78
2049.81
1954.09
1875.99
1820.57
92.7775
105.37
108.427
115.171
122.071
125.131
124.575
121.605
117.284
112.368
107.417
102.925
99.3814
97.3279
97.3785
100.215
106.494
116.725
131.281
150.603
175.327
206.212
244.108
289.921
344.465
408.715
483.37
569.927
669.027
783.772
914.991
1069.75
1250.73
1478.29
1781.63
2275.9
3125.69
4500.37
6150.08
7609.13
8327.3
8401.51
7849.39
7173.96
7007.44
8292.69
9686.6
9826.84
9299.56
9516
9494.67
12303.5
15862
15823.1
14520.6
10750.7
8978.62
10190.4
11397.4
11741.1
11230.6
10497.8
9745.16
9074.45
8438.05
7764.5
7072.59
6427.66
5910.47
5653.92
5753.87
6263.03
7189.66
8265.22
9113.74
9549.26
9582.45
9290.57
8772.01
8121.32
7410.87
6689.87
5999.63
5367.04
4807.65
4320.2
3901.92
3543.3
3239.32
2979.74
2759.84
2569.49
2405.9
2260.99
2136.04
2025.09
1933.98
1859.91
1807.86
92.0935
103.07
105.481
111.946
118.502
121.201
120.399
117.364
113.149
108.478
103.869
99.7809
96.6752
95.0614
95.5009
98.5886
104.875
114.797
128.724
147.145
170.757
200.361
236.832
281.093
333.951
396.401
469.087
553.567
650.289
762.574
890.733
1042.33
1218.89
1441.54
1736.66
2218.07
3039.07
4370.01
5974.9
7418.49
8146.84
8246.28
7719.16
7066.64
6902.36
8140.5
9462.08
9592.74
9070.15
9298.27
9254.3
11958.1
15467.8
15502.7
14146.7
10408.5
8699.23
9945.76
11139.8
11484.9
10988.4
10286.5
9554.43
8903.5
8276.93
7614.71
6931.39
6296.87
5786.86
5533.54
5628.37
6123.2
7024.64
8071.42
8896.58
9318.71
9347.64
9058.53
8547.88
7908.29
7210.88
6503.85
5828.06
5209.75
4664.28
4190.01
3784.29
3437.37
3144.53
2895.17
2685.03
2503.47
2348.23
2210.65
2092.57
1987.56
1901.8
1832.5
1784.33
91.3042
100.688
102.393
108.477
114.613
116.928
115.892
112.813
108.725
104.311
100.046
96.3579
93.6765
92.4768
93.2636
96.5459
102.775
112.324
125.557
143.003
165.402
193.584
228.442
270.912
321.792
382.092
452.401
534.329
628.133
737.322
861.704
1009.27
1180.43
1396.84
1682.09
2147.97
2936.17
4216.51
5768.44
7189.28
7926.39
8053.03
7555.9
6930.21
6769.46
7954.44
9198.56
9320.4
8806.13
9044.55
8978.61
11559.5
15004.7
15115.7
13716
10032.7
8390.15
9661.1
10838
11184
10704
10035.3
9326.2
8697.23
8082.88
7434.62
6762.69
6141
5640.02
5390.43
5479.04
5956.62
6828.21
7841.14
8639.12
9045.94
9070.41
8785.25
8284.62
7658.78
6977.26
6287.08
5628.47
5026.9
4497.43
4038.12
3646.46
3312.51
3031.89
2793.68
2594.13
2422.17
2276.08
2146.65
2036.21
1937.97
1858.22
1794.4
1750.59
90.4374
98.2746
99.2174
104.815
110.459
112.372
111.114
108.016
104.074
99.927
96.0081
92.7118
90.4361
89.6191
90.708
94.1292
100.245
109.37
121.863
138.278
159.381
186.024
219.107
259.575
308.216
366.051
433.616
512.56
602.957
708.467
828.427
971.156
1136.03
1345.02
1618.91
2066.88
2818.9
4042.82
5534.61
6925.69
7669.77
7825.07
7362.38
6767.07
6611.03
7737.89
8900.49
9014.14
8511.52
8758.9
8672.11
11114.4
14480.4
14668.5
13235.8
9628.69
8055.93
9341.45
10497.6
10843.6
10382.3
9748.47
9064.35
8459.15
7859.2
7227.29
6569.31
5962.67
5472.4
5227.03
5308.44
5766.17
6603.74
7578.34
8345.77
8735.64
8755.58
8475.55
7986.95
7377.3
6714.31
6043.61
5404.6
4821.92
4310.27
3867.42
3491.07
3171.11
2903.53
2677.2
2488.88
2327.14
2190.81
2070.2
1968.04
1877.27
1804.12
1746.4
1707.37
89.5176
95.8737
96.0024
101.013
106.097
107.591
106.128
103.034
99.2564
95.386
91.8117
88.8956
87.0034
86.5341
87.8779
91.3849
97.3388
106.005
117.727
133.075
152.823
177.833
209.007
247.294
293.471
348.565
413.064
488.641
575.201
676.518
791.49
928.677
1086.49
1287.01
1548.28
1976.25
2689.39
3852.1
5277.65
6632.35
7381.21
7566.04
7141.61
6579.81
6429.6
7494.38
8572.47
8678.42
8190.49
8445.52
8339.44
10630
13902.7
14167.9
12713.6
9201.87
7701.24
8992.15
10124.3
10469.6
10028.6
9430.62
8772.96
8192.98
7609.36
6995.93
6354.26
5764.66
5286.62
5045.91
5119.3
5554.93
6354.89
7287.25
8021.28
8392.85
8408.3
8134.57
7659.87
7068.69
6426.6
5777.73
5160.47
4598.52
4106.2
3681.06
3320.98
3015.8
2761.89
2547.93
2371.25
2220.17
2094.01
1982.71
1889.32
1806.61
1740.53
1689.44
1655.58
88.5658
93.5231
92.7936
97.1215
101.581
102.645
100.993
97.9263
94.3305
90.7437
87.5107
84.9613
83.4278
83.269
84.8202
88.3634
94.1156
102.297
113.235
127.498
145.856
169.167
198.328
234.29
277.816
329.939
391.098
462.983
545.342
642.022
751.53
882.567
1032.69
1223.84
1471.42
1877.66
2549.84
3647.66
5001.98
6314.2
7065.27
7279.87
6896.83
6371.19
6227.8
7227.58
8219.22
8317.82
7847.27
8108.74
7985.32
10113.4
13279.9
13621.1
12156.8
8757.36
7330.8
8618.72
9724.02
10067.4
9648
9086.34
8456.27
7902.58
7336.96
6743.88
6120.61
5549.81
5085.38
4849.75
4914.46
5326.12
6085.43
6972.32
7670.59
8022.84
8033.98
7767.65
7308.6
6737.92
6118.86
5493.88
4900.21
4360.54
3888.79
3482.31
3139.24
2849.4
2609.52
2408.25
2243.41
2103.21
1987.45
1885.78
1801.48
1727.25
1668.61
1624.56
1596.21
87.5997
91.2541
89.6325
93.1892
96.9669
97.5915
95.7688
92.7514
89.3533
86.0552
83.1586
80.9603
79.7589
79.8725
81.5848
85.1192
90.6372
98.3212
108.475
121.654
138.607
160.179
187.258
220.787
261.518
310.484
368.084
436.01
513.871
605.552
709.212
833.601
975.522
1156.59
1389.66
1772.78
2402.54
3432.86
4712.11
5976.36
6726.72
6970.69
6631.41
6144.11
6008.38
6941.21
7845.49
7936.92
7486.09
7752.92
7614.44
9572.12
12620.4
13035.3
11572.7
8300.15
6949.23
8226.67
9302.56
9643
9245.71
8720.31
8118.58
7591.9
7045.69
6474.53
5871.5
5321.02
4871.39
4641.25
4696.8
5083.01
5799.27
6638.11
7298.79
7630.98
7638.08
7380.26
6938.43
6390.08
5795.89
5196.55
4628
4111.87
3661.64
3274.55
2948.96
2674.79
2449.12
2260.63
2107.65
1978.36
1873.03
1781.12
1706.05
1640.59
1589.6
1552.9
1530.32
86.6345
89.0919
86.5559
89.2641
92.3105
92.4907
90.5154
87.5684
84.3816
81.3757
78.8088
76.9449
76.0479
76.3957
78.2249
81.7099
86.9683
94.1498
103.531
115.642
131.198
151.021
175.979
207.005
244.84
290.513
344.386
408.148
481.286
567.686
665.212
782.571
915.924
1086.36
1304.33
1663.29
2249.78
3211
4412.53
5624.01
6370.44
6642.74
6348.81
5901.53
5774.15
6639
7455.98
7540.29
7111.11
7382.4
7231.38
9013.47
11932.5
12418.2
10968.5
7835
6561.01
7821.45
8865.71
9201.84
8826.9
8337.2
7764.2
7264.87
6739.23
6191.29
5610.07
5081.17
4647.4
4423.13
4469.21
4828.88
5500.28
6289.16
6910.94
7222.65
7226.08
6977.78
6554.59
6030.15
5462.4
4890.16
4347.96
3856.35
3428.34
3061.09
2753.26
2494.88
2283.4
2107.61
1966.31
1847.79
1752.72
1670.51
1604.65
1548.06
1504.83
1475.66
1459.03
85.6826
87.0563
83.5962
85.3916
87.6667
87.4023
85.2938
82.4371
79.4734
76.7611
74.5157
72.9682
72.3472
72.8916
74.7961
78.1957
83.1751
89.8562
98.4855
109.559
123.746
141.835
164.666
193.158
228.038
270.329
320.364
379.819
448.078
528.997
620.198
730.257
854.813
1014.24
1216.79
1550.9
2093.81
2985.3
4107.55
5262.27
6001.32
6300.28
6052.5
5646.42
5527.89
6324.61
7055.28
7132.38
6726.4
7001.38
6840.59
8444.67
11224.4
11777
10351.2
7366.4
6170.41
7408.28
8418.97
8749.38
8396.55
7941.55
7397.34
6925.41
6421.23
5897.5
5339.4
4833.12
4416.07
4198.03
4234.51
4566.95
5192.3
5929.94
6512.02
6803.11
6803.33
6565.5
6162.17
5662.97
5122.94
4578.95
4064.05
3597.66
3192.31
2845.16
2555.14
2312.51
2115.02
1951.68
1821.73
1713.66
1628.51
1555.78
1498.93
1451.14
1415.65
1394.04
1383.48
84.7543
85.1617
80.7806
81.6145
83.0896
82.3865
80.1661
77.4185
74.6876
72.2685
70.335
69.0844
68.7106
69.4151
71.3562
74.6389
79.3244
85.5127
93.4182
103.497
116.36
132.753
153.483
179.447
211.355
250.223
296.361
351.423
414.716
490.035
574.81
677.416
793.076
941.316
1128.31
1437.25
1936.77
2758.84
3801.26
4896.02
5624.13
5947.52
5745.92
5381.7
5272.4
6001.6
6647.81
6717.51
6335.86
6613.91
6446.24
7872.59
10504.2
11119.1
9727.14
6898.52
5781.38
6992.11
7967.53
8290.73
7959.4
7537.74
7022.09
6577.28
6095.21
5596.4
5062.47
4579.59
4179.98
3968.51
3995.42
4300.3
4878.98
5564.76
6106.8
6377.38
6374.92
6148.42
5765.99
5293.1
4781.79
4266.93
3779.98
3339.26
2956.79
2629.78
2357.46
2130.36
1946.54
1795.27
1676.19
1578.1
1502.39
1438.74
1390.53
1351.31
1323.39
1309.26
1304.79
83.8577
83.4179
78.1311
77.9719
78.6321
77.5036
75.1948
72.5746
70.0846
67.9564
66.323
65.3482
65.1921
66.0211
67.9634
71.102
75.4829
81.189
88.4042
97.5364
109.135
123.893
142.577
166.053
195.014
230.464
272.696
323.339
381.643
451.314
529.65
624.755
731.545
868.571
1040.13
1323.89
1780.68
2534.42
3497.41
4529.9
5243.45
5588.54
5432.41
5110.22
5010.36
5673.39
6237.75
6299.77
5943.16
6223.82
6052.22
7303.69
9779.53
10451.4
9102.56
6435.24
5397.57
6577.51
7516.19
7830.65
7519.88
7129.91
6642.34
6224.12
5764.55
5291.12
4782.13
4323.2
3941.57
3736.97
3754.5
4031.86
4563.82
5197.67
5699.8
5950.23
5945.65
5731.24
5370.53
4924.76
4442.89
3957.73
3499.13
3084.28
2724.71
2417.74
2162.85
1950.93
1780.32
1640.62
1531.84
1443.15
1376.26
1321.13
1281.06
1250.03
1229.37
1222.5
1224.05
82.999
81.8303
75.6643
74.4987
74.3445
72.8129
70.4427
67.9677
65.7248
63.8827
62.5352
61.8133
61.8443
62.7637
64.6748
67.646
71.7151
76.952
83.513
91.7529
102.157
115.36
132.078
153.139
179.216
211.296
249.661
295.91
349.259
413.309
485.269
572.921
670.978
796.922
953.346
1212.26
1627.37
2314.54
3199.38
4168.09
4863.59
5227.24
5115.16
4834.7
4744.36
5343.19
5829
5883.02
5551.75
5834.64
5662.1
6743.89
9057.55
9780.34
8483
5980.09
5022.24
6168.61
7069.29
7373.48
7082.07
6721.9
6261.69
5869.32
5432.44
4984.57
4501.05
4066.39
3703.1
3505.66
3514.13
3764.31
4250
4832.44
5295.19
5526.02
5519.92
5318.22
4979.85
4561.76
4109.75
3654.6
3224.5
2835.51
2498.7
2211.48
1973.63
1776.44
1618.5
1489.8
1390.65
1310.69
1251.89
1204.63
1172.05
1148.66
1134.85
1134.89
1142.3
82.1829
80.401
73.3916
71.2246
70.2734
68.3713
65.9704
63.6582
61.6663
60.1026
59.0238
58.5291
58.7159
59.6927
61.5439
64.3285
68.0814
72.8634
78.8065
86.2111
95.4991
107.241
122.094
140.844
164.135
192.932
227.514
269.444
317.927
376.438
442.153
522.491
612.047
727.181
868.958
1103.65
1478.48
2101.42
2910.09
3814.34
4488.48
4867.23
4797.16
4557.7
4476.84
5013.96
5425.13
5470.82
5164.79
5449.59
5279.04
6198.51
8344.96
9112.11
7873.51
5536.24
4658.26
5769.05
6630.67
6923.1
6649.65
6317.21
5883.49
5516.02
5101.82
4679.44
4221.67
3811.38
3466.67
3276.6
3276.46
3500.09
3940.46
4472.47
4896.72
5108.68
5101.65
4913.18
4597.55
4207.42
3785.45
3360.36
2958.67
2595.34
2280.97
2013.11
1791.82
1608.83
1462.95
1344.63
1254.39
1182.44
1130.93
1090.76
1064.93
1048.52
1041.03
1047.5
1060.53
81.4127
79.1286
71.319
68.1733
66.46
64.2309
61.8336
59.701
57.9611
56.6644
55.8333
55.5374
55.8481
56.8514
58.6177
61.2009
64.6361
68.9784
74.3388
80.966
89.22
99.6036
112.713
129.279
149.914
175.555
206.478
244.207
287.957
341.068
400.726
473.96
555.331
660.04
787.81
999.167
1335.43
1896.92
2632.05
3471.95
4121.66
4511.85
4481.2
4281.57
4210.07
4688.42
5029.36
5066.39
4785.13
5071.57
4905.83
5672.16
7647.86
8452.25
7278.53
5106.54
4308.12
5381.95
6203.61
6482.87
6225.84
5918.99
5510.73
5167.08
4775.35
4378.2
3946.22
3560.2
3234.14
3051.62
3043.4
3241.38
3637.76
4120.78
4507.74
4701.68
4694.3
4519.43
4226.71
3864.59
3472.57
3077.34
2703.76
2365.73
2073.34
1824.36
1619.07
1449.69
1315.22
1206.61
1124.56
1059.85
1014.81
980.909
961.003
950.806
949
961.321
979.612
80.6903
78.0096
69.4481
65.3617
62.9382
60.4356
58.079
56.1408
54.6499
53.6044
52.9961
52.8683
53.2712
54.273
55.934
58.3057
61.4252
65.3437
70.1553
76.0618
83.3652
92.5007
103.999
118.529
136.666
159.308
186.732
220.418
259.611
307.506
361.342
427.741
501.305
596.073
710.596
899.733
1199.38
1702.58
2367.26
3143.68
3766.21
4164.05
4169.79
4008.45
3946.11
4368.99
4644.52
4672.62
4415.3
4703.09
4544.82
5168.75
6971.7
7805.71
6701.91
4693.45
3973.9
5009.89
5790.86
6055.66
5813.44
5529.97
5146.04
4825.04
4455.43
4083.04
3676.68
3314.63
3007.14
2832.31
2816.62
2990.04
3344.14
3779.97
4131.1
4307.99
4300.8
4139.74
3869.92
3535.61
3173.2
2807.41
2461.44
2148.18
1877.22
1646.53
1456.63
1300.24
1176.54
1076.98
1002.4
944.179
904.765
876.272
861.42
856.576
859.747
877.238
900.363
80.0166
77.038
67.7762
62.7999
59.7325
57.0181
54.7397
53.0072
51.7574
50.9424
50.5284
50.5371
51.0021
51.9782
53.5188
55.674
58.4833
61.9956
66.2914
71.5319
77.9667
85.966
95.9934
108.651
124.47
144.299
168.419
198.253
233.098
275.997
324.283
384.163
450.347
535.725
637.857
806.074
1071.29
1519.61
2117.31
2831.7
3424.73
3826.45
3865.17
3740.27
3686.82
4057.83
4273.06
4292.01
4057.53
4346.32
4197.97
4691.42
6321.27
7176.88
6146.85
4299.09
3657.28
4654.89
5394.59
5643.79
5414.77
5152.5
4791.71
4492.11
4144.1
3795.84
3414.75
3076.21
2787.07
2620.02
2597.53
2747.67
3061.49
3452.24
3769.2
3930.07
3923.57
3776.39
3529.22
3222.29
2888.95
2551.96
2232.94
1943.78
1693.6
1480.57
1305.41
1161.38
1047.78
956.635
888.818
836.37
801.778
777.842
767.159
766.764
774.139
796.043
823.486
79.3916
76.2065
66.297
60.491
56.8571
53.9968
51.8314
50.3102
49.2882
48.6788
48.4285
48.5426
49.0428
49.9741
51.3848
53.3239
55.8328
58.9587
62.7711
67.3981
73.0436
80.0174
88.7176
99.6746
113.373
130.598
151.635
177.84
208.578
246.732
289.768
343.477
402.736
479.325
569.979
718.719
951.85
1348.87
1883.34
2537.63
3099.32
3501.26
3569.31
3478.67
3433.83
3756.74
3917.02
3926.69
3713.67
4003.04
3866.81
4242.54
5700.62
6569.51
5615.97
3925.23
3359.53
4318.46
5016.44
5249.1
5031.72
4788.53
4449.64
4170.16
3843.15
3518.25
3161.88
2846.24
2575.1
2415.87
2387.28
2515.56
2791.34
3139.37
3423.99
3569.89
3564.49
3431.12
3206.17
2925.99
2620.95
2311.95
2019.06
1753.22
1523.07
1327.01
1165.93
1033.61
929.498
846.142
784.453
737.104
706.584
686.389
679.013
682.143
692.917
718.419
749.588
78.8146
75.5066
65.0015
58.4317
54.3144
51.3738
49.3502
48.0395
47.2263
46.7949
46.6775
46.8684
47.3813
48.2543
49.5316
51.2604
53.4829
56.2446
59.6066
63.6705
68.6023
74.6576
82.1724
91.6051
103.388
118.236
136.434
159.26
186.157
219.843
257.948
305.855
358.662
427.085
507.208
638.007
841.511
1190.93
1666.11
2262.59
2791.61
3190.29
3283.85
3225.09
3188.54
3467.26
3578.1
3578.44
3385.28
3674.68
3552.48
3823.76
5113.1
5986.78
5111.31
3573.32
3081.55
4001.57
4657.55
4872.94
4665.72
4439.6
4121.37
3860.74
3554.01
3251.59
2919.24
2625.77
2372.19
2220.76
2186.79
2294.72
2534.87
2842.73
3096.94
3228.94
3224.99
3105.21
2901.88
2647.6
2369.92
2087.93
1820.21
1576.81
1365.89
1186.07
1038.38
917.145
821.903
745.765
689.624
646.774
619.659
602.455
597.574
603.326
616.683
644.934
679.176
78.284
74.929
63.8784
56.6127
52.0963
49.1354
47.2741
46.1659
45.5387
45.2564
45.243
45.4861
45.9944
46.8013
47.9469
49.4761
51.4304
53.8531
56.7985
60.3484
64.6379
69.8758
76.3416
84.4239
94.501
107.21
122.831
142.547
165.892
195.406
228.914
271.4
318.231
379.117
449.657
564.099
740.516
1046.1
1466
2007.25
2502.75
2894.97
3010.19
2980.7
2952.1
3190.61
3257.53
3248.61
3073.6
3362.34
3255.77
3436
4561.36
5431.3
4634.37
3244.44
2823.84
3704.69
4318.55
4516.19
4317.82
4106.88
3808.07
3565.05
3277.82
2996.92
2687.77
2415.61
2179.05
2035.36
1996.74
2085.89
2292.97
2563.32
2789.13
2908.27
2906.02
2799.48
2616.99
2387.61
2136.19
1880.1
1636.47
1414.52
1221.97
1057.62
922.646
811.866
724.925
655.476
604.372
565.499
541.216
526.349
523.233
530.755
545.898
576.04
612.656
77.7981
74.4636
62.9152
55.0206
50.1849
47.2546
45.5662
44.6465
44.1803
44.0195
44.0846
44.3599
44.8518
45.5896
46.6096
47.9536
49.6611
51.7729
54.3369
57.421
61.1356
65.6502
71.1953
78.0937
86.6716
97.4823
110.797
127.69
147.789
173.447
202.702
240.153