/*--------------------------------*- C++ -*----------------------------------*\
| =========                 |                                                 |
| \\      /  F ield         | OpenFOAM: The Open Source CFD Toolbox           |
|  \\    /   O peration     | Version:  2412                                  |
|   \\  /    A nd           | Website:  www.openfoam.com                      |
|    \\/     M anipulation  |                                                 |
\*---------------------------------------------------------------------------*/
FoamFile
{
    version     2.0;
    format      ascii;
    arch        "LSB;label=32;scalar=64";
    class       volScalarField;
    location    "0.1";
    object      nut;
}
// * * * * * * * * * * * * * * * * * * * * * * * * * * * * * * * * * * * * * //

dimensions      [0 2 -1 0 0 0 0];

internalField   nonuniform List<scalar> 
78408
(
0.00128297
0.00129833
0.00115847
0.00105131
0.00097819
0.000923135
0.000880508
0.00084722
0.000820564
0.000798129
0.000778306
0.000760237
0.000743617
0.000728415
0.000714678
0.00070241
0.000691698
0.000682692
0.000675865
0.0006723
0.000672915
0.000678705
0.000689867
0.000704572
0.00072222
0.000740103
0.000760521
0.000778893
0.000801098
0.000819315
0.000843108
0.00086132
0.000888316
0.000908694
0.000946202
0.000986794
0.00107614
0.00118607
0.00131845
0.00138603
0.00140779
0.00135419
0.0012835
0.00117474
0.00111606
0.00110013
0.00114405
0.00109984
0.00105879
0.00100068
0.00097816
0.000987264
0.00103791
0.00101693
0.00093375
0.000926402
0.000949704
0.00101016
0.0010831
0.00113552
0.00116034
0.00116496
0.00116237
0.00115801
0.00115366
0.00114634
0.00113664
0.00112586
0.0011209
0.00112931
0.00116473
0.00123233
0.00133731
0.00145784
0.00156712
0.00164635
0.00169573
0.0017181
0.00171983
0.0017061
0.00168168
0.00165041
0.00161502
0.00157882
0.00154332
0.00151059
0.00148034
0.00145366
0.00142928
0.00140857
0.00138938
0.00137368
0.00135807
0.00134588
0.00133128
0.00132132
0.00130435
0.00129888
0.001276
0.00385054
0.00387105
0.00268754
0.00206188
0.00174523
0.0015959
0.00153802
0.00152433
0.00152389
0.00151768
0.00150106
0.00147477
0.00144307
0.00140941
0.00137754
0.00135066
0.0013326
0.00133009
0.00135643
0.00143082
0.00156773
0.00176641
0.00200341
0.00225357
0.00250631
0.00275354
0.00300574
0.00324513
0.00350277
0.00373276
0.0040029
0.00422997
0.00453871
0.00481087
0.00527593
0.00590924
0.00713793
0.00868596
0.0101589
0.0108234
0.010776
0.0100376
0.00914434
0.00797718
0.00755212
0.00803186
0.00879819
0.00832883
0.00754729
0.00685181
0.00624511
0.00653745
0.00628106
0.00578727
0.00661816
0.00628388
0.00596299
0.00615663
0.00700221
0.00751611
0.00789185
0.00778152
0.00786492
0.00772711
0.00785751
0.00773005
0.00775824
0.00758015
0.00759397
0.00766988
0.00814127
0.00894015
0.0101649
0.0114417
0.0124927
0.0131321
0.0134434
0.013466
0.013286
0.012954
0.0125208
0.0120201
0.01148
0.0109329
0.0103945
0.00988113
0.0093896
0.00893032
0.00849512
0.0080991
0.00772632
0.00739725
0.00708607
0.00682261
0.0065595
0.00637343
0.00615592
0.00608679
0.00590659
0.00159624
0.00247572
0.00215648
0.00195064
0.00189304
0.00194812
0.00205932
0.00216246
0.00222553
0.00223473
0.00220157
0.00213884
0.00206334
0.00198637
0.00191886
0.00187106
0.00185872
0.00190848
0.00206781
0.0023866
0.00287057
0.00347512
0.00413218
0.00478694
0.00543439
0.0060516
0.00668029
0.00725995
0.00788341
0.00842728
0.0090623
0.00958915
0.0102999
0.0109201
0.011991
0.0134466
0.0162244
0.0195909
0.0226493
0.0239235
0.0237014
0.0220607
0.0201229
0.0176092
0.0168303
0.0180401
0.0195998
0.0183881
0.016666
0.015215
0.0140552
0.0146761
0.0144682
0.0131254
0.0141526
0.0129966
0.0121954
0.0131103
0.0154244
0.0167013
0.0174184
0.0171036
0.0171893
0.0168834
0.0171013
0.0168154
0.0167968
0.0164079
0.0163957
0.0166151
0.0176804
0.0194978
0.0221988
0.0249421
0.0270987
0.0283491
0.0288877
0.0288364
0.0283689
0.0276041
0.0266435
0.0255572
0.0244011
0.0232419
0.0221099
0.0210359
0.0200106
0.019054
0.0181482
0.0173247
0.01655
0.0158676
0.0152225
0.0146816
0.0141403
0.0137639
0.0133037
0.0131904
0.0128468
0.00200844
0.00192794
0.00230641
0.00264258
0.00303809
0.00349263
0.0039058
0.00416269
0.00423982
0.00415964
0.00398364
0.00375843
0.0035248
0.0033076
0.00312962
0.00301511
0.00300385
0.00315771
0.00356011
0.00425519
0.00518502
0.00622025
0.00727189
0.0082878
0.00928618
0.0102342
0.0111989
0.0120827
0.0130274
0.0138507
0.0147997
0.015602
0.0166512
0.0176042
0.019186
0.0213986
0.0254738
0.0303628
0.0347113
0.0365061
0.0360849
0.0336785
0.030728
0.0270909
0.0259535
0.0278889
0.0300104
0.0281076
0.0255367
0.0235886
0.0219785
0.0228528
0.0227718
0.0205808
0.0212831
0.0192189
0.018083
0.020044
0.0238937
0.0259473
0.0268572
0.0263433
0.02631
0.0258505
0.0260373
0.0256033
0.0254542
0.0248872
0.0248189
0.025211
0.0268589
0.0296689
0.0337441
0.0378172
0.0409203
0.0426559
0.0433257
0.043144
0.0423623
0.0411668
0.0397032
0.0380736
0.0363594
0.0346563
0.0330091
0.0314565
0.0299856
0.0286195
0.0273346
0.026171
0.0250849
0.0241312
0.0232377
0.0224905
0.0217637
0.0212425
0.0206576
0.0204961
0.0201359
0.00659355
0.00442755
0.00520554
0.00563721
0.00607807
0.00657161
0.00697132
0.00715069
0.00709885
0.00684925
0.00648296
0.00606423
0.00565064
0.00528064
0.00499294
0.00483441
0.00487995
0.00522764
0.00596138
0.00705177
0.00834799
0.00968212
0.0109901
0.0122486
0.0134942
0.0146872
0.0159016
0.0170203
0.0182067
0.0192513
0.0204378
0.0214656
0.0227726
0.024007
0.0259884
0.0288355
0.0339253
0.0400332
0.0454235
0.0476825
0.0470914
0.0440735
0.0402274
0.0356727
0.0342107
0.0367859
0.0393072
0.0368177
0.0335245
0.0312924
0.029302
0.030324
0.0303162
0.0273496
0.0275812
0.0246554
0.0233218
0.0264557
0.031745
0.0345208
0.035532
0.0348242
0.0346059
0.0339887
0.0340763
0.0334951
0.0331844
0.0324632
0.0323321
0.0328993
0.0350794
0.0387916
0.0440772
0.049301
0.0531896
0.0553022
0.0560376
0.0556997
0.0546073
0.0530078
0.0510851
0.0489678
0.0467607
0.0445835
0.0424941
0.0405351
0.0386921
0.0369873
0.0353956
0.033959
0.0326298
0.0314651
0.0303865
0.0294835
0.0286287
0.0280014
0.0273535
0.0271535
0.0268316
0.0168771
0.0112933
0.0111172
0.0105806
0.0103889
0.0104609
0.010523
0.0104107
0.0101069
0.00963652
0.00907488
0.00848493
0.00792832
0.0074525
0.00711201
0.00697988
0.00716568
0.00778422
0.00887118
0.010291
0.0118294
0.013337
0.0147945
0.0162084
0.017622
0.0189916
0.0203849
0.0216814
0.0230441
0.0242616
0.0256234
0.0268327
0.0283325
0.029799
0.0320896
0.0354576
0.0413391
0.0484323
0.0546772
0.0573565
0.0566401
0.0531471
0.0485365
0.0432345
0.0414903
0.0446115
0.0474176
0.0444414
0.0405414
0.0381797
0.0358564
0.0369213
0.0369235
0.033287
0.0330241
0.0293125
0.0278837
0.032222
0.0388291
0.0422663
0.0433231
0.0424252
0.0419852
0.0412029
0.0411526
0.0404257
0.0399447
0.0390879
0.0388941
0.0396275
0.0422808
0.0467926
0.0531269
0.0593338
0.0638712
0.0662769
0.0670355
0.0665331
0.0651467
0.0631778
0.0608426
0.0582923
0.0556525
0.0530621
0.0505916
0.0482846
0.0461268
0.044137
0.0422914
0.0406298
0.0391052
0.0377706
0.0365486
0.0355229
0.034575
0.0338674
0.0331872
0.0329562
0.0326941
0.030929
0.021164
0.0187888
0.0166026
0.0153396
0.0146782
0.0141897
0.0136468
0.0130065
0.0122735
0.0115064
0.0107578
0.010086
0.00954338
0.00919887
0.00915024
0.00953267
0.0104506
0.0118588
0.0135243
0.0152132
0.0168219
0.018373
0.0198945
0.0214277
0.0229285
0.0244524
0.0258856
0.027378
0.0287323
0.0302244
0.0315805
0.0332252
0.0348828
0.0374135
0.0412096
0.0477151
0.0556153
0.0625699
0.0656327
0.0648329
0.0609796
0.0557289
0.0498197
0.047835
0.0514159
0.0544233
0.0510428
0.0466349
0.0442549
0.0416339
0.0426493
0.042616
0.0384209
0.0376791
0.0332576
0.0318083
0.0373362
0.0451471
0.0491897
0.0502552
0.0491694
0.0484871
0.0475334
0.0473226
0.0464538
0.0458038
0.0448269
0.0445732
0.045459
0.0485277
0.0537393
0.0609753
0.0680168
0.0730884
0.0757211
0.0764748
0.0758091
0.0741507
0.0718485
0.0691463
0.0662137
0.0631951
0.0602453
0.0574461
0.0548399
0.052414
0.0501826
0.0481248
0.0462759
0.0445916
0.043118
0.0417823
0.0406582
0.039641
0.0388716
0.0381763
0.037922
0.0377278
0.0458065
0.0322684
0.0272031
0.0230888
0.0205383
0.018967
0.017803
0.0167487
0.0157227
0.0147014
0.0137209
0.0128192
0.0120479
0.0114622
0.0111434
0.0112097
0.0118088
0.0130103
0.0146776
0.0165107
0.0182902
0.0199621
0.0215796
0.0231823
0.0248061
0.0264078
0.02803
0.0295706
0.0311602
0.0326247
0.0342147
0.0356908
0.0374453
0.0392607
0.0419792
0.0461281
0.0531299
0.0616961
0.0692439
0.0726572
0.0718109
0.0676927
0.0619135
0.0555135
0.053326
0.0572904
0.0604337
0.0567161
0.0518844
0.0495675
0.0466783
0.0475666
0.0474716
0.0428216
0.0416279
0.0365653
0.0351503
0.0418312
0.0507468
0.0553436
0.0563911
0.0551185
0.0541825
0.0530532
0.0526702
0.0516638
0.0508507
0.0497672
0.0494574
0.0504804
0.0539104
0.0597291
0.0677358
0.0754815
0.0809904
0.0837969
0.0845263
0.0837033
0.0817968
0.0791964
0.0761698
0.0729015
0.0695526
0.0662912
0.0632089
0.0603461
0.0576925
0.0552567
0.0530219
0.0510172
0.0492031
0.0476161
0.0461907
0.0449882
0.0439198
0.0431039
0.0424049
0.0421364
0.0420118
0.0604239
0.0436609
0.0357898
0.0296697
0.0257427
0.0231753
0.0212723
0.019667
0.018233
0.0169131
0.0157182
0.0146693
0.0138099
0.0131964
0.0129201
0.013114
0.0139232
0.0153656
0.0172207
0.0191558
0.0209854
0.0226984
0.0243667
0.026034
0.0277286
0.0294099
0.0311078
0.0327339
0.0343981
0.0359521
0.0376166
0.0391913
0.0410296
0.0429753
0.0458411
0.0502806
0.0576775
0.0667931
0.0748366
0.0785706
0.0777101
0.0734069
0.0671979
0.0604054
0.0580479
0.0623271
0.0655527
0.0615537
0.0563706
0.0541775
0.051047
0.0517443
0.051576
0.0465636
0.0449461
0.0393038
0.0379642
0.0457522
0.055687
0.0607911
0.0617993
0.0603397
0.0591443
0.0578372
0.0572768
0.0561377
0.05517
0.0539913
0.0536292
0.054774
0.0585161
0.064857
0.0735175
0.0818525
0.0877157
0.0906519
0.0913436
0.0903714
0.0882406
0.0853756
0.0820639
0.0785023
0.0748671
0.0713368
0.0680123
0.064931
0.0620854
0.0594785
0.0570981
0.0549662
0.0530484
0.0513713
0.0498771
0.048614
0.0475099
0.0466608
0.045967
0.0456939
0.0456382
0.0744049
0.0548981
0.0442476
0.0361276
0.0308018
0.0272087
0.0245446
0.0223768
0.0205314
0.018915
0.0175112
0.0163236
0.0153867
0.0147569
0.0145326
0.014854
0.0158501
0.0174788
0.0194535
0.0214387
0.0232901
0.0250287
0.0267359
0.0284546
0.0302051
0.0319494
0.0337063
0.035401
0.0371227
0.0387499
0.0404715
0.0421274
0.0440293
0.0460823
0.0490626
0.0537396
0.0614473
0.0710113
0.0794665
0.0834952
0.0826492
0.0782292
0.0716778
0.0645767
0.0620774
0.0666087
0.0698701
0.0656376
0.0601665
0.0581447
0.0547974
0.0552516
0.055008
0.0497142
0.0476987
0.0415324
0.0403
0.0491451
0.060025
0.0655922
0.0665429
0.064896
0.0634387
0.0619531
0.0612141
0.0599477
0.0588346
0.057571
0.0571606
0.0584119
0.062421
0.0692066
0.078416
0.0872381
0.0933833
0.0964121
0.0970562
0.0959442
0.0936122
0.0905138
0.0869533
0.0831373
0.0792556
0.0754952
0.0719654
0.0687002
0.0656952
0.0629477
0.0604503
0.0582176
0.0562203
0.0544745
0.0529307
0.0516237
0.0504978
0.0496279
0.0489469
0.0486784
0.0486899
0.0876951
0.0657932
0.0524218
0.0423355
0.0356227
0.0310088
0.027589
0.0248664
0.0226191
0.0207166
0.0191147
0.0177994
0.0167957
0.0161589
0.0159911
0.0164316
0.0175821
0.01934
0.0213754
0.0233711
0.0252231
0.0269746
0.02871
0.0304681
0.0322619
0.0340553
0.035858
0.0376074
0.0393737
0.0410603
0.0428254
0.0445479
0.0464972
0.0486375
0.0517048
0.0565723
0.0645171
0.0744393
0.0832322
0.0875326
0.086728
0.0822503
0.0754346
0.068098
0.0654806
0.0702054
0.0734616
0.0690376
0.0633354
0.0615228
0.0579821
0.0581505
0.0578355
0.0523313
0.0499409
0.0433023
0.042202
0.0520531
0.0638122
0.0698006
0.0706775
0.0688424
0.0671232
0.0654598
0.0645432
0.063155
0.0619065
0.060567
0.0601121
0.0614554
0.0656898
0.072849
0.0825122
0.0917295
0.0980931
0.101182
0.101772
0.10053
0.0980183
0.0947156
0.0909397
0.0869049
0.082813
0.078858
0.0751567
0.0717392
0.0686047
0.0657448
0.0631571
0.0608479
0.0587939
0.0569997
0.0554242
0.054089
0.0529543
0.0520749
0.0514137
0.0511581
0.0512352
0.100361
0.0762837
0.0602389
0.0482225
0.0401507
0.0345416
0.0303888
0.027132
0.0245009
0.0223283
0.0205426
0.0191123
0.0180528
0.0174168
0.0173061
0.0178514
0.0191192
0.0209524
0.0230003
0.0249766
0.0268127
0.028566
0.030319
0.0321053
0.0339307
0.0357613
0.0375985
0.0393908
0.0411909
0.0429254
0.0447227
0.046499
0.0484822
0.0506921
0.053822
0.0588375
0.0669526
0.0771503
0.0862148
0.0907667
0.0900288
0.085546
0.0785367
0.0710292
0.068314
0.0731771
0.0763909
0.0718136
0.0659315
0.0643589
0.0606479
0.060495
0.0601159
0.0544643
0.0517194
0.0446577
0.0437091
0.0545146
0.0670939
0.073463
0.074251
0.0722268
0.0702471
0.0684076
0.0673161
0.0658119
0.0644375
0.0630306
0.0625347
0.0639559
0.0683771
0.075844
0.0858739
0.095403
0.101928
0.10505
0.105579
0.104217
0.101547
0.098067
0.0941067
0.0898858
0.085617
0.0814997
0.0776577
0.074117
0.0708806
0.0679344
0.0652809
0.0629184
0.0608287
0.059005
0.057415
0.0560663
0.054935
0.0540568
0.0534218
0.053187
0.0533279
0.112502
0.0863672
0.0676716
0.0537528
0.0443566
0.0377894
0.0329372
0.0291747
0.0261835
0.0237605
0.0218075
0.0202758
0.0191712
0.018542
0.018486
0.0191179
0.0204646
0.0223255
0.0243477
0.0262822
0.028089
0.0298337
0.031594
0.0333974
0.0352436
0.0371004
0.0389624
0.040787
0.0426117
0.0443836
0.0462037
0.0480223
0.0500276
0.0522911
0.0554617
0.0605853
0.0688092
0.0792054
0.0884812
0.0932668
0.0926203
0.0881797
0.0810418
0.0734213
0.0706256
0.0755744
0.0787121
0.0740167
0.0680018
0.0666946
0.0628363
0.0623324
0.0618979
0.0561551
0.0530742
0.0456374
0.0448555
0.056564
0.0699094
0.0766201
0.0773048
0.0750904
0.0728529
0.0708399
0.0695772
0.0679629
0.066472
0.0650055
0.0644719
0.0659573
0.0705291
0.0782426
0.0885586
0.0983232
0.104959
0.108089
0.108554
0.107081
0.104272
0.10064
0.0965236
0.0921468
0.0877316
0.0834818
0.0795273
0.0758902
0.0725771
0.0695687
0.0668723
0.0644774
0.0623718
0.0605364
0.0589477
0.0575995
0.0564831
0.0556163
0.0550137
0.0548067
0.0550098
0.124213
0.0960712
0.0747199
0.0589138
0.0482287
0.0407463
0.0352344
0.0309995
0.0276754
0.0250239
0.022921
0.0213018
0.0201619
0.0195441
0.0195377
0.0202354
0.0216241
0.0234718
0.025439
0.0273147
0.0290809
0.0308072
0.0325643
0.0343741
0.0362309
0.0381038
0.0399813
0.0418288
0.0436697
0.0454695
0.0473038
0.0491545
0.0511712
0.0534733
0.0566642
0.0618589
0.0701338
0.0806563
0.0900878
0.095091
0.0945598
0.0902053
0.0829987
0.0753179
0.072457
0.0774413
0.0804721
0.0756915
0.0695875
0.0685661
0.0645841
0.0637038
0.063223
0.0574401
0.0540408
0.046276
0.0456717
0.0582322
0.0722939
0.0793077
0.0798754
0.0774696
0.0749777
0.0727945
0.071365
0.0696467
0.0680485
0.0665296
0.0659614
0.0674976
0.072186
0.0800886
0.0906158
0.100546
0.107246
0.110363
0.11076
0.109186
0.106256
0.102496
0.0982497
0.0937448
0.0892114
0.0848564
0.0808151
0.077106
0.0737395
0.0706908
0.0679722
0.0655645
0.063461
0.0616304
0.0600578
0.0587233
0.0576326
0.0567867
0.0562223
0.0560497
0.0563136
0.135578
0.105438
0.081401
0.0637084
0.0517672
0.0434144
0.0372852
0.0326141
0.028986
0.0261288
0.0238939
0.0222006
0.0210346
0.020431
0.0204665
0.0212082
0.0226048
0.0244061
0.0262959
0.0280996
0.0298156
0.0315137
0.0332573
0.035063
0.0369203
0.0387996
0.040684
0.0425454
0.0443948
0.0462139
0.0480545
0.0499275
0.0519457
0.0542726
0.0574646
0.0626953
0.0709672
0.0815482
0.0910836
0.0962895
0.095897
0.0916689
0.0844498
0.076757
0.0738442
0.0788168
0.0817127
0.0768778
0.0707251
0.0700063
0.0659243
0.0646463
0.0641279
0.0583513
0.054651
0.0466048
0.0461854
0.0595474
0.0742786
0.0815579
0.0819951
0.0793968
0.0766545
0.0743051
0.0727137
0.0708976
0.069201
0.0676366
0.0670363
0.0686105
0.073383
0.0814207
0.0920892
0.102119
0.108842
0.111926
0.112254
0.110589
0.107556
0.103688
0.099337
0.0947298
0.0901041
0.0856689
0.0815644
0.0778056
0.0744066
0.0713376
0.0686156
0.0662126
0.0641276
0.0623169
0.060774
0.0594654
0.0584107
0.0575948
0.0570741
0.0569422
0.0572656
0.146664
0.114516
0.0877426
0.0681499
0.0549812
0.045802
0.0390986
0.0340281
0.0301257
0.0270859
0.0247368
0.0229823
0.021798
0.0212094
0.0212777
0.0220413
0.0234157
0.0251439
0.0269396
0.0286611
0.0303178
0.0319783
0.0336982
0.0354894
0.0373375
0.0392138
0.0410968
0.0429636
0.044814
0.0466441
0.0484837
0.0503697
0.0523803
0.0547187
0.0578939
0.0631276
0.071346
0.0819219
0.0915127
0.0969065
0.0966753
0.0926113
0.0854325
0.0777721
0.0748199
0.0797363
0.0824717
0.0776116
0.0714479
0.0710448
0.0668875
0.0651934
0.0646451
0.0589173
0.0549342
0.0466527
0.046422
0.0605354
0.0758927
0.0834001
0.0836937
0.0809016
0.0779133
0.0754023
0.0736546
0.0717469
0.0699605
0.0683568
0.0677268
0.0693263
0.0741524
0.0822741
0.0930183
0.103088
0.109794
0.11283
0.113087
0.111339
0.10822
0.104266
0.0998328
0.0951472
0.090453
0.0859604
0.0818141
0.0780258
0.0746132
0.0715418
0.0688331
0.0664506
0.0643987
0.0626215
0.0611208
0.0598494
0.0588402
0.058063
0.0575914
0.0575061
0.0578882
0.157523
0.123357
0.0937801
0.0722596
0.0578856
0.0479214
0.0406862
0.0352528
0.0311056
0.0279062
0.0254598
0.0236562
0.02246
0.0218858
0.0219765
0.022741
0.0240674
0.0257019
0.0273909
0.0290217
0.0306111
0.0322245
0.0339104
0.0356768
0.0375061
0.0393703
0.0412435
0.0431076
0.0449518
0.046785
0.0486165
0.050507
0.0525013
0.0548387
0.0579801
0.0631859
0.0713042
0.0818153
0.0914158
0.0969828
0.0969345
0.0930695
0.0859805
0.0783939
0.0754137
0.0802324
0.0827845
0.0779263
0.0717866
0.0717094
0.0675021
0.0653763
0.0648045
0.0591646
0.0549176
0.0464465
0.0464051
0.0612214
0.0771637
0.0848622
0.0849991
0.0820117
0.0787823
0.0761146
0.0742163
0.0722233
0.0703554
0.0687186
0.0680609
0.0696735
0.0745237
0.0826815
0.0934401
0.103494
0.110149
0.11312
0.113306
0.111485
0.108295
0.104275
0.099781
0.0950393
0.0902986
0.0857696
0.0816008
0.077801
0.0743916
0.0713336
0.0686531
0.0663047
0.0642989
0.0625672
0.0611199
0.0598963
0.0589414
0.0582113
0.0577939
0.057761
0.0582009
0.168188
0.13201
0.0995539
0.0760646
0.0605003
0.0497888
0.0420619
0.0363011
0.0319379
0.0286008
0.0260736
0.0242317
0.0230288
0.022467
0.0225688
0.0233147
0.0245719
0.0260971
0.0276703
0.0292032
0.0307174
0.0322744
0.0339162
0.0356477
0.0374484
0.0392915
0.0411468
0.0430002
0.0448312
0.04666
0.0484767
0.0503634
0.0523333
0.0546577
0.0577495
0.0628984
0.0708738
0.0812648
0.0908321
0.096557
0.0967116
0.0930777
0.0861252
0.0786505
0.0756531
0.0803362
0.0826846
0.0778535
0.0717701
0.0720262
0.0677948
0.0652246
0.0646341
0.0591175
0.0546274
0.0460117
0.0461574
0.0616293
0.0781182
0.085971
0.0859378
0.0827533
0.0792882
0.076469
0.0744261
0.0723542
0.0704129
0.0687485
0.068065
0.0696789
0.0745255
0.0826741
0.0933895
0.103375
0.109948
0.112842
0.112957
0.111073
0.107827
0.103759
0.099224
0.0944468
0.0896799
0.0851336
0.0809598
0.0771645
0.0737731
0.0707423
0.0681027
0.0658004
0.0638516
0.0621761
0.0607921
0.0596257
0.0587332
0.0580583
0.0576998
0.0577249
0.0582223
0.178682
0.140525
0.105108
0.0795968
0.062849
0.0514229
0.0432418
0.0371874
0.0326356
0.029182
0.0265891
0.0247187
0.0235131
0.0229604
0.023062
0.0237719
0.0249429
0.0263475
0.0277981
0.0292268
0.0306582
0.0321496
0.0337371
0.0354234
0.0371861
0.0389989
0.0408283
0.0426631
0.0444741
0.046291
0.0480864
0.0499615
0.0518994
0.0541998
0.0572271
0.0622924
0.0700863
0.0803064
0.0898
0.0956664
0.0960417
0.0926685
0.0858961
0.0785687
0.0755646
0.0800774
0.0822044
0.0774235
0.0714262
0.0720203
0.0677917
0.0647668
0.0641603
0.0587995
0.0540886
0.0453724
0.0457009
0.0617831
0.0787825
0.0867526
0.0865359
0.0831521
0.0794568
0.0764914
0.0743103
0.0721658
0.0701589
0.0684723
0.0677645
0.0693683
0.0741849
0.0822821
0.0929009
0.102771
0.109233
0.112038
0.112084
0.110145
0.106859
0.10276
0.0982031
0.0934097
0.0886353
0.084089
0.0799257
0.0761493
0.0727888
0.0697971
0.067209
0.0649627
0.0630804
0.0614699
0.0601578
0.0590569
0.0582343
0.057622
0.057327
0.0574155
0.0579704
0.189012
0.148945
0.110491
0.0828922
0.0649587
0.0528452
0.044244
0.0379274
0.033213
0.0296627
0.0270183
0.0251281
0.0239223
0.0233747
0.0234649
0.0241236
0.0251953
0.0264715
0.0277944
0.0291135
0.0304546
0.031871
0.0333941
0.035025
0.0367399
0.0385135
0.0403088
0.0421174
0.0439015
0.0456997
0.0474677
0.0493237
0.0512226
0.0534884
0.0564378
0.0613948
0.0689729
0.0789756
0.0883575
0.0943481
0.0949596
0.0918734
0.0853213
0.078174
0.0751731
0.0794852
0.0813754
0.0766654
0.0707814
0.0717162
0.067518
0.0640308
0.0634088
0.0582331
0.0533254
0.0445515
0.0450568
0.0617067
0.0791825
0.087233
0.0868187
0.0832332
0.0793133
0.0762073
0.0738944
0.0716837
0.0696187
0.0679148
0.0671842
0.0687671
0.0735291
0.0815353
0.0920078
0.101719
0.108044
0.110751
0.110729
0.108746
0.105433
0.10132
0.0967593
0.0919678
0.0872031
0.0826725
0.0785338
0.0747885
0.07147
0.0685274
0.0659997
0.0638174
0.0620089
0.0604709
0.0592377
0.0582099
0.0574635
0.056921
0.0566936
0.0568506
0.0574632
0.199176
0.157308
0.115752
0.0859909
0.0668597
0.0540798
0.0450887
0.038539
0.033686
0.0300575
0.0273745
0.0254718
0.0242677
0.0237201
0.0237882
0.024383
0.0253454
0.0264879
0.0276797
0.0288838
0.0301274
0.0314596
0.0329081
0.0344733
0.0361307
0.0378559
0.0396091
0.0413838
0.0431345
0.0449072
0.0466419
0.0484719
0.0503254
0.0525469
0.0554063
0.0602326
0.0675645
0.0773082
0.0865431
0.0926391
0.0934993
0.0907232
0.0844286
0.0774913
0.0745033
0.0785878
0.0802284
0.0756079
0.0698618
0.0711378
0.0669982
0.0630439
0.0624046
0.05744
0.0523614
0.0435712
0.0442464
0.0614243
0.0793447
0.0874382
0.0868118
0.0830214
0.0788826
0.0756415
0.0732035
0.0709328
0.068817
0.0671006
0.0663483
0.0679003
0.0725845
0.0804632
0.0907438
0.100257
0.106422
0.109023
0.108936
0.106917
0.103592
0.0994822
0.0949336
0.0901608
0.0854218
0.0809213
0.0768193
0.0731161
0.0698488
0.0669633
0.064503
0.062391
0.0606619
0.0592021
0.0580536
0.0571049
0.0564404
0.055974
0.0558181
0.0560484
0.0567194
0.209159
0.165646
0.120942
0.0889369
0.0685858
0.0551537
0.0457988
0.0390422
0.0340728
0.0303828
0.0276729
0.0257641
0.0245621
0.0240093
0.0240452
0.0245651
0.0254112
0.0264166
0.0274745
0.0285589
0.0296977
0.0309364
0.0323001
0.0337892
0.0353793
0.0370469
0.0387498
0.040483
0.0421939
0.0439346
0.0456306
0.0474281
0.0492305
0.051399
0.0541573
0.0588327
0.0658927
0.0753404
0.0843956
0.090577
0.0916949
0.0892485
0.0832449
0.0765449
0.0735792
0.0774135
0.0787941
0.0742791
0.0686927
0.0703088
0.0662567
0.0618333
0.0611719
0.0564415
0.0512194
0.0424528
0.0432903
0.0609603
0.0792953
0.0873943
0.0865405
0.0825416
0.0781896
0.0748189
0.0722623
0.0699378
0.0677781
0.0660537
0.065281
0.0667925
0.0713776
0.0790952
0.0891424
0.098421
0.104407
0.106896
0.106748
0.104704
0.10138
0.0972873
0.0927671
0.0880289
0.0833302
0.0788727
0.0748184
0.0711664
0.0679579
0.0651361
0.0627483
0.0607111
0.0590654
0.0576879
0.0566281
0.0557635
0.0551854
0.0548006
0.0547197
0.0550277
0.0557581
0.21894
0.17398
0.126114
0.0917779
0.0701745
0.0560974
0.0464003
0.03946
0.0343941
0.0306579
0.0279313
0.0260216
0.0248213
0.0242573
0.0242514
0.0246874
0.0254118
0.0262783
0.0272001
0.0281601
0.0291868
0.0303227
0.0315912
0.0329937
0.0345064
0.0361072
0.0377515
0.0394358
0.0411005
0.042803
0.0444554
0.0462144
0.0479608
0.0500682
0.0527161
0.0572227
0.0639887
0.0731083
0.081954
0.0881996
0.0895804
0.0874797
0.081797
0.0753587
0.0724243
0.0759897
0.0771024
0.0727066
0.0672991
0.0692525
0.0653172
0.060426
0.0597348
0.0552586
0.0499215
0.0412165
0.0422094
0.0603396
0.0790612
0.0871276
0.0860303
0.0818187
0.0772588
0.0737639
0.0710954
0.0687231
0.0665262
0.0647979
0.0640058
0.0654682
0.0699348
0.077461
0.0872371
0.09625
0.102039
0.104413
0.104207
0.102147
0.0988374
0.0947774
0.0903009
0.085612
0.0809672
0.0765645
0.0725674
0.0689744
0.065831
0.0630777
0.060766
0.0588064
0.0572462
0.0559534
0.0549849
0.0542079
0.0537196
0.0534213
0.0534182
0.0538078
0.0545988
0.228488
0.182325
0.131318
0.0945658
0.0716679
0.0569456
0.0469234
0.0398194
0.0346746
0.0309056
0.0281711
0.0262643
0.0250643
0.0244825
0.0244257
0.0247696
0.0253684
0.0260945
0.0268783
0.0277094
0.0286167
0.0296402
0.0308031
0.0321083
0.0335334
0.0350578
0.0366352
0.038263
0.0398752
0.0415336
0.0431377
0.0448529
0.0465392
0.0485787
0.0511082
0.0554302
0.0618841
0.0706483
0.0792574
0.0855451
0.0871902
0.0854471
0.080111
0.0739564
0.0710618
0.0743438
0.0751832
0.0709175
0.0657052
0.0679919
0.0642032
0.0588487
0.058117
0.0539118
0.0484892
0.0398818
0.0410239
0.0595876
0.0786693
0.0866644
0.0853064
0.0808771
0.0761149
0.0725008
0.0697269
0.0673127
0.0650849
0.0633566
0.0625462
0.0639518
0.0682822
0.0755897
0.0850615
0.0937809
0.099359
0.101614
0.101356
0.0992901
0.0960079
0.0919945
0.0875759
0.0829502
0.0783718
0.0740345
0.070103
0.0665757
0.0635021
0.060821
0.0585872
0.0567066
0.0552323
0.0540251
0.0531487
0.0524616
0.0520652
0.0518572
0.0519341
0.0524087
0.0532617
0.237769
0.190681
0.136604
0.0973566
0.073113
0.057738
0.0474031
0.0401522
0.0349439
0.0311535
0.0284183
0.0265167
0.0253142
0.0247073
0.0245901
0.0248345
0.025304
0.0258885
0.0265321
0.0272295
0.0280097
0.0289114
0.0299579
0.0311549
0.0324817
0.03392
0.0354217
0.0369854
0.0385392
0.0401477
0.0416993
0.0433658
0.0449887
0.0469545
0.0493591
0.053483
0.0596105
0.0679964
0.076345
0.0826517
0.0845584
0.0831806
0.0782132
0.0723612
0.0695146
0.0725027
0.0730656
0.0689383
0.063935
0.0665498
0.0629378
0.0571279
0.0563417
0.0524213
0.0469432
0.0384676
0.0397543
0.0587299
0.0781466
0.0860311
0.0843941
0.0797417
0.0747823
0.0710537
0.068181
0.0657302
0.0634778
0.0617531
0.0609255
0.0622673
0.0664459
0.0735107
0.0826489
0.091051
0.0964065
0.0985415
0.098236
0.0961749
0.0929327
0.0889795
0.0846325
0.0800832
0.0755828
0.0713206
0.0674621
0.0640059
0.0610058
0.058399
0.056244
0.0544422
0.0530527
0.0519304
0.0511454
0.0505487
0.0502451
0.0501299
0.0502885
0.0508506
0.0517673
0.246745
0.199037
0.142018
0.10021
0.0745632
0.058521
0.0478813
0.040497
0.0352378
0.0314353
0.0287049
0.026809
0.0255995
0.0249587
0.0247711
0.024908
0.0252442
0.025685
0.0261857
0.026744
0.0273891
0.0281591
0.0290784
0.0301557
0.0313734
0.0327152
0.0341325
0.0356243
0.0371133
0.0386664
0.0401617
0.0417753
0.0433321
0.0452195
0.0474945
0.051409
0.057199
0.0651881
0.0732551
0.0795574
0.0817189
0.0807103
0.076129
0.0705961
0.0678052
0.0704925
0.0707783
0.0667951
0.0620118
0.0649485
0.0615433
0.0552896
0.0544318
0.0508065
0.0453034
0.0369914
0.0384204
0.0577924
0.0775201
0.0852536
0.0833184
0.0784366
0.0732849
0.0694463
0.0664811
0.063999
0.0617277
0.0600099
0.0591661
0.0604381
0.0644514
0.0712525
0.0800321
0.0880971
0.0932209
0.095236
0.0948895
0.0928429
0.089653
0.085773
0.0815103
0.0770497
0.0726381
0.0684599
0.064681
0.0613005
0.0583765
0.0558452
0.0537685
0.0520441
0.050737
0.0496972
0.0490014
0.0484943
0.0482827
0.0482618
0.0485028
0.0491543
0.0501362
0.255377
0.207373
0.147598
0.103191
0.0760788
0.0593494
0.0484084
0.0409008
0.0356007
0.0317931
0.0290703
0.0271782
0.0259547
0.0252693
0.0249996
0.02502
0.0252174
0.0255111
0.0258647
0.0262778
0.0267794
0.0274072
0.0281879
0.0291338
0.0302308
0.0314654
0.0327889
0.0342006
0.0356185
0.0371108
0.0385461
0.0401032
0.0415921
0.0433976
0.0455397
0.0492357
0.0546802
0.0622581
0.0700255
0.0762997
0.0787054
0.0780655
0.0738837
0.0686834
0.0659554
0.0683389
0.068349
0.0645133
0.0599582
0.0632096
0.0600416
0.0533595
0.0524096
0.0490867
0.0435888
0.0354704
0.037042
0.0568012
0.0768164
0.0843577
0.0821038
0.0769859
0.0716464
0.067702
0.0646503
0.0621418
0.059857
0.0581492
0.0572903
0.0584874
0.0623237
0.0688436
0.0772437
0.0849552
0.0898407
0.0917374
0.0913564
0.0893343
0.0862085
0.0824141
0.078248
0.0738876
0.0695749
0.0654887
0.0617952
0.0584943
0.0556483
0.0531929
0.0511929
0.0495435
0.048315
0.0473543
0.0467438
0.0463237
0.0462022
0.0462753
0.0465986
0.0473403
0.048389
0.263626
0.215655
0.153373
0.106363
0.0777284
0.0602875
0.0490453
0.0414217
0.0360876
0.0322788
0.0295635
0.02767
0.0264222
0.0256785
0.0253126
0.0252051
0.025256
0.0253967
0.0255974
0.0258574
0.0262059
0.0266806
0.0273107
0.0281128
0.029077
0.030193
0.0314126
0.0327355
0.0340758
0.0355017
0.0368736
0.0383708
0.0397908
0.0415119
0.0435195
0.0469903
0.0520841
0.0592403
0.0666925
0.0729152
0.0755507
0.0752752
0.0715018
0.0666451
0.0639866
0.0660667
0.065805
0.0621176
0.0577961
0.0613543
0.0584535
0.0513624
0.0502972
0.0472803
0.0418175
0.0339204
0.0356385
0.0557823
0.0760617
0.0833683
0.0807742
0.0754128
0.0698901
0.0658433
0.0627111
0.0601806
0.0578874
0.0561923
0.0553195
0.0564374
0.060087
0.0663112
0.074315
0.0816605
0.0863033
0.0880841
0.0876757
0.0856879
0.0826375
0.0789406
0.0748825
0.070633
0.0664286
0.062442
0.0588392
0.0556212
0.0528543
0.0504745
0.0485491
0.0469715
0.0458169
0.0449302
0.0443998
0.0440627
0.0440277
0.0441933
0.0445977
0.0454293
0.0465462
0.271457
0.22384
0.159364
0.109796
0.0795891
0.0614122
0.0498667
0.0421311
0.0367669
0.0329571
0.030245
0.0283402
0.0270533
0.0262333
0.0257536
0.0255033
0.0253966
0.0253753
0.0254141
0.0255113
0.0256956
0.0260052
0.0264719
0.027117
0.0279355
0.0289205
0.0300255
0.0312504
0.0325059
0.0338595
0.0351646
0.036599
0.0379495
0.0395849
0.041458
0.0446991
0.0494394
0.0561671
0.0632909
0.0694393
0.072287
0.0723673
0.0690072
0.0645021
0.0619194
0.0636998
0.0631722
0.0596318
0.0555467
0.0594028
0.0567992
0.0493224
0.0481156
0.045405
0.0400066
0.0323568
0.0342288
0.0547619
0.0752813
0.0823094
0.0793527
0.07374
0.0680381
0.0638922
0.0606853
0.0581368
0.0558399
0.0541599
0.0532743
0.0543097
0.0577649
0.0636818
0.0712764
0.0782469
0.0826448
0.0843133
0.0838846
0.0819408
0.0789767
0.0753883
0.0714489
0.0673204
0.0632329
0.0593529
0.0558457
0.0527136
0.0500268
0.0477218
0.0458683
0.0443585
0.0432722
0.0424538
0.0419968
0.0417373
0.0417835
0.0420384
0.0425216
0.0434417
0.0446278
0.27884
0.231879
0.165574
0.113556
0.0817476
0.062814
0.0509628
0.043117
0.0377229
0.0339075
0.0311887
0.0292567
0.0279097
0.0269899
0.0263738
0.0259615
0.0256814
0.0254847
0.0253487
0.0252704
0.0252775
0.0254082
0.0256978
0.0261716
0.0268305
0.0276714
0.0286501
0.0297665
0.0309295
0.0322044
0.0334391
0.0348079
0.0360888
0.0376382
0.0393781
0.0423875
0.0467737
0.053069
0.0598536
0.0659053
0.0689449
0.069369
0.0664226
0.0622747
0.0597735
0.061261
0.0604754
0.0570789
0.0532301
0.0573746
0.0550975
0.0472626
0.0458855