/*--------------------------------*- C++ -*----------------------------------*\
| =========                 |                                                 |
| \\      /  F ield         | OpenFOAM: The Open Source CFD Toolbox           |
|  \\    /   O peration     | Version:  2412                                  |
|   \\  /    A nd           | Website:  www.openfoam.com                      |
|    \\/     M anipulation  |                                                 |
\*---------------------------------------------------------------------------*/
FoamFile
{
    version     2.0;
    format      ascii;
    arch        "LSB;label=32;scalar=64";
    class       surfaceScalarField;
    location    "0.1";
    object      phi;
}
// * * * * * * * * * * * * * * * * * * * * * * * * * * * * * * * * * * * * * //

dimensions      [0 3 -1 0 0 0 0];

oriented        oriented;

internalField   nonuniform List<scalar> 
155925
(
0.00842285
-0.000847117
0.00774657
0.000676231
0.00838374
-0.000637234
0.00838448
-8.12938e-07
0.00811421
0.000270204
0.00781218
0.000301941
0.00753606
0.000276028
0.00728625
0.000249716
0.00707509
0.000211052
0.00688238
0.000192593
0.00671033
0.000171936
0.00655168
0.000158513
0.00641068
0.000140875
0.00628425
0.000126289
0.00617341
0.000110697
0.00607697
9.62839e-05
0.00599747
7.93613e-05
0.00593615
6.11651e-05
0.00590301
3.3004e-05
0.00589866
4.19749e-06
0.00592526
-2.67377e-05
0.00597808
-5.29754e-05
0.00605963
-8.16848e-05
0.00613898
-7.94917e-05
0.00625328
-0.000114437
0.00632142
-6.82704e-05
0.00646664
-0.000145343
0.00649984
-3.33366e-05
0.00667889
-0.000179164
0.00667326
5.50476e-06
0.00687963
-0.000206469
0.00683649
4.30354e-05
0.00708603
-0.00024963
0.00699746
8.84748e-05
0.00732033
-0.000322941
0.00721167
0.000108584
0.00761086
-0.000399244
0.007506
0.000104793
0.00792323
-0.000417278
0.00774971
0.000173465
0.00805933
-0.000309658
0.00756844
0.00049081
0.00770525
-0.000136865
0.0069019
0.000803296
0.00706101
-0.00015913
0.00617809
0.000882907
0.00650695
-0.000328863
0.00587331
0.000633589
0.00657311
-0.000699829
0.00603641
0.000536566
0.00691567
-0.000879321
0.00675146
0.000164118
0.00771366
-0.000961968
0.00552323
0.00219015
0.00539234
0.000131218
0.00512362
0.000268503
0.00645914
-0.00133544
0.00656659
-0.000107416
0.00732827
-0.000761523
0.00694417
0.000384047
0.00734711
-0.000402709
0.00692777
0.000419308
0.00725124
-0.000323455
0.00684308
0.000408152
0.00706247
-0.000219312
0.00669815
0.000364337
0.00687012
-0.000171941
0.00662781
0.000242377
0.00682579
-0.000198002
0.006769
5.68085e-05
0.00703541
-0.000266311
0.00717754
-0.000142144
0.00752883
-0.000351248
0.007788
-0.00025914
0.00814412
-0.000356062
0.00838292
-0.000238774
0.00863779
-0.000254814
0.00880559
-0.000167754
0.00895638
-0.000150714
0.00907038
-0.000113964
0.00916613
-9.56956e-05
0.00925749
-9.13073e-05
0.0093357
-7.81378e-05
0.00942784
-9.20951e-05
0.00951173
-8.38204e-05
0.00962075
-0.000108961
0.00971665
-9.58306e-05
0.00984012
-0.000123416
0.00993434
-9.41612e-05
0.010062
-0.000127622
0.0101369
-7.48543e-05
0.0102578
-0.000120749
0.0102896
-3.17499e-05
0.0103913
-0.000101672
0.010339
5.22402e-05
0.0104198
-8.05441e-05
0.0102055
0.000214206
0.0103635
-0.000157929
0.0004697
0.0110647
-0.00433607
0.0100299
0.001711
0.00987472
-0.000482133
0.00965439
0.000219466
0.00941678
0.000507756
0.00916385
0.000554798
0.00889769
0.000542117
0.00862375
0.000523577
0.00836493
0.0004698
0.00812117
0.000436265
0.00789969
0.000393321
0.00769782
0.000360288
0.0075179
0.000320691
0.00735764
0.000286446
0.00721657
0.000251651
0.00709271
0.000220032
0.00698672
0.000185239
0.00689829
0.000149482
0.00683364
9.75516e-05
0.00679854
3.91856e-05
0.00679579
-2.40842e-05
0.00681919
-7.647e-05
0.00686799
-0.000130571
0.00692542
-0.000137011
0.00700639
-0.00019548
0.0070719
-0.000133859
0.00717403
-0.000247544
0.00723014
-8.95225e-05
0.00734877
-0.000297857
0.00739184
-3.76289e-05
0.00752151
-0.000336191
0.00755461
9.88088e-06
0.00769836
-0.000393422
0.00772031
6.64727e-05
0.00788947
-0.000492133
0.00791201
8.60004e-05
0.00809919
-0.000586443
0.00813735
6.65987e-05
0.00835454
-0.000634485
0.00837684
0.000151137
0.00847124
-0.000404073
0.00821313
0.000748884
0.00806016
1.60836e-05
0.00757142
0.00129201
0.00731228
0.000100006
0.00675929
0.00143588
0.00668874
-0.000258314
0.00649444
0.00082787
0.00679852
-0.00100392
0.00676465
0.000570375
0.00715781
-0.0012725
0.00750351
-0.000181629
0.00785853
-0.00131688
0.00634446
0.00370409
0.00562188
0.000853937
0.00587807
1.22143e-05
0.00688817
-0.0023455
0.00733011
-0.000549336
0.0077139
-0.00114525
0.00760612
0.000491801
0.00771528
-0.00051177
0.00756952
0.000565059
0.00763343
-0.000387356
0.00745431
0.000587265
0.00744459
-0.00020956
0.00726637
0.000542566
0.0072627
-0.000168257
0.00717491
0.000330193
0.00725218
-0.000275281
0.00730469
4.30855e-06
0.00749815
-0.000459727
0.00770464
-0.000348643
0.00801176
-0.000658345
0.00831398
-0.00056135
0.00863992
-0.000681974
0.00890974
-0.00050858
0.00915
-0.000495053
0.00933392
-0.000351653
0.00948642
-0.000303184
0.0096105
-0.000238028
0.00971855
-0.000203719
0.00982131
-0.000194038
0.00992073
-0.000177532
0.0100296
-0.000200962
0.010143
-0.000197159
0.0102729
-0.000238823
0.0104046
-0.000227555
0.0105496
-0.000268301
0.0106846
-0.000229131
0.0108293
-0.000272375
0.0109493
-0.000194759
0.0110773
-0.000248692
0.0111597
-0.000114115
0.0112543
-0.000196323
0.0112689
3.76456e-05
0.0113129
-0.00012441
0.0112203
0.000306703
0.0112367
-0.000174314
0.000679549
0.0090199
-0.00578024
0.00977313
0.000957719
0.0102605
-0.000969513
0.0101336
0.000346319
0.00986261
0.000778665
0.00958354
0.000833815
0.00930953
0.000816077
0.00903757
0.00079548
0.00878118
0.000726136
0.00853998
0.000677398
0.0083205
0.000612739
0.00812139
0.000559324
0.00794442
0.000497581
0.00778726
0.000443526
0.00764869
0.000390145
0.00752612
0.000342513
0.00741886
0.000292421
0.00732525
0.000243005
0.00724874
0.000173989
0.00719393
9.39262e-05
0.0071668
2.97768e-06
0.00716791
-7.76356e-05
0.00719639
-0.000159101
0.00724061
-0.00018128
0.0073042
-0.000259123
0.00736586
-0.000195567
0.00744828
-0.000330001
0.00751066
-0.000151942
0.00760505
-0.000392283
0.00766265
-9.52603e-05
0.00776406
-0.00043763
0.00781878
-4.48742e-05
0.00792795
-0.000502614
0.0079803
1.40969e-05
0.00810405
-0.000615906
0.00815717
3.28594e-05
0.00828338
-0.000712666
0.00835023
-2.71009e-07
0.00851763
-0.00080189
0.00858179
8.69559e-05
0.00861418
-0.000436468
0.00839938
0.00096366
0.00816606
0.00024939
0.00774476
0.0017133
0.00737908
0.00046569
0.00689888
0.00191607
0.00675694
-0.00011637
0.00667389
0.000910909
0.00690368
-0.00123371
0.00698378
0.000490238
0.00727218
-0.00156092
0.0077221
-0.000631572
0.00788252
-0.00147725
0.00653293
0.00505361
0.00576541
0.00162153
0.00618229
-0.000404723
0.00711995
-0.00328313
0.00759974
-0.00102912
0.00786192
-0.00140739
0.00780492
0.000548793
0.00784894
-0.000555734
0.00776551
0.000648486
0.00776971
-0.000391557
0.00763969
0.000717282
0.00757622
-0.000146073
0.00744058
0.000678219
0.00740034
-0.000128017
0.00735232
0.000378232
0.00740855
-0.000331519
0.00749065
-7.77815e-05
0.00767129
-0.00064034
0.00789408
-0.000571441
0.00819125
-0.000955501
0.00850215
-0.000872247
0.00881862
-0.000998422
0.0090924
-0.000782354
0.00932585
-0.000728494
0.0095108
-0.00053659
0.00966163
-0.00045399
0.00978701
-0.000363403
0.00989768
-0.000314372
0.010004
-0.000300322
0.0101104
-0.000283956
0.0102264
-0.000316918
0.0103508
-0.000321558
0.0104901
-0.000378102
0.0106352
-0.000372662
0.0107897
-0.000422748
0.0109392
-0.000378594
0.0110916
-0.000424766
0.0112265
-0.000329641
0.0113579
-0.000380116
0.011456
-0.000212178
0.0115454
-0.000285669
0.0115794
3.65926e-06
0.0116012
-0.000146216
0.0115439
0.000364041
0.0114948
-0.000125167
0.000830606
0.0089398
-0.0071443
0.00952759
0.000369892
0.0100721
-0.00151408
0.0100493
0.00036911
0.00984967
0.000978256
0.00960124
0.0010822
0.00934468
0.0010726
0.00909222
0.00104789
0.00885626
0.000962063
0.00863623
0.000897376
0.00843631
0.000812615
0.00825537
0.000740204
0.0080945
0.000658391
0.00795155
0.000586416
0.00782462
0.000517014
0.00771037
0.000456697
0.00760684
0.000395894
0.00751248
0.000337293
0.00743204
0.000254379
0.00737277
0.000153146
0.00734169
3.40116e-05
0.00733972
-7.57045e-05
0.00736403
-0.000183456
0.00740533
-0.000222619
0.00746267
-0.000316498
0.0075232
-0.000256133
0.0075972
-0.000404033
0.00766206
-0.000216828
0.00774597
-0.000476221
0.00780916
-0.000158482
0.00789874
-0.000527239
0.00796145
-0.000107609
0.00805671
-0.000597895
0.00812016
-4.9371e-05
0.00822602
-0.000721778
0.00828822
-2.93651e-05
0.00838829
-0.00081275
0.0084621
-7.40921e-05
0.00861018
-0.000949975
0.00868616
1.0959e-05
0.00869022
-0.000440533
0.00848386
0.00117001
0.00821691
0.000516327
0.00781594
0.00211426
0.00740808
0.000873548
0.00695499
0.00236915
0.00679952
3.91002e-05
0.00676467
0.000945753
0.00697573
-0.00144478
0.00709442
0.00037152
0.00734706
-0.00181357
0.00782573
-0.00111026
0.00789206
-0.00154353
0.00661259
0.00633303
0.00587924
0.00235495
0.00637837
-0.000903906
0.00728104
-0.00418578
0.00774524
-0.00149331
0.00794386
-0.00160598
0.00789966
0.000592978
0.0079218
-0.000577824
0.00786148
0.000708796
0.00784367
-0.000373744
0.00772999
0.000830963
0.00764663
-6.26997e-05
0.00752693
0.000797925
0.00747573
-7.68202e-05
0.00744457
0.000409415
0.00749622
-0.000383174
0.00759129
-0.000172854
0.00776906
-0.000818086
0.00799841
-0.000800796
0.00829148
-0.00124856
0.00860401
-0.00118478
0.00891465
-0.00130904
0.00918664
-0.00105434
0.00941474
-0.000956576
0.00959733
-0.000719176
0.00974555
-0.000602191
0.00986992
-0.000487763
0.00998072
-0.000425163
0.0100882
-0.000407812
0.0101979
-0.000393633
0.0103179
-0.000436879
0.0104482
-0.000451875
0.010593
-0.000522917
0.0107451
-0.000524707
0.0109049
-0.000582555
0.0110613
-0.000534939
0.0112176
-0.000581095
0.0113588
-0.000470785
0.0114916
-0.000512889
0.0115952
-0.000315749
0.0116812
-0.000371669
0.0117212
-3.63205e-05
0.0117318
-0.00015679
0.0116858
0.000410024
0.0116055
-4.48772e-05
0.000958645
0.00896336
-0.00853191
0.00954441
-0.000211185
0.00988573
-0.00185542
0.0098545
0.000400319
0.00969148
0.00114125
0.0094764
0.00129725
0.00924848
0.00130049
0.00902259
0.00127376
0.00880995
0.00117467
0.00861142
0.00109586
0.00843054
0.000993461
0.00826679
0.000903916
0.00812098
0.000804163
0.00799118
0.00071617
0.00787505
0.000633095
0.00776897
0.000562724
0.00767108
0.000493738
0.00758182
0.000426512
0.0075078
0.000328358
0.0074567
0.000204217
0.0074334
5.72753e-05
0.00743724
-7.95719e-05
0.0074642
-0.000210447
0.00750676
-0.000265206
0.00756246
-0.000372224
0.00762307
-0.000316772
0.0076932
-0.000474186
0.00775924
-0.000282885
0.0078378
-0.000554807
0.00790347
-0.000224175
0.00798694
-0.000610727
0.00805302
-0.000173704
0.00814123
-0.000686122
0.00820939
-0.000117552
0.0083062
-0.000818593
0.00837104
-9.42181e-05
0.00845601
-0.000897735
0.00853039
-0.000148479
0.00866738
-0.00108697
0.00874617
-6.78452e-05
0.00873235
-0.000426718
0.00852589
0.00137645
0.00824069
0.000801515
0.00784791
0.00250703
0.00741907
0.00130239
0.00698192
0.0028063
0.00682938
0.000191644
0.00682359
0.00095153
0.00702991
-0.00165111
0.00716449
0.000236911
0.00740098
-0.00205006
0.00788727
-0.00159657
0.00789402
-0.00155024
0.00665955
0.00756745
0.00597865
0.00303591
0.00653029
-0.00145559
0.00740419
-0.00505966
0.00783818
-0.0019273
0.00799377
-0.00176154
0.00795301
0.000633731
0.00796598
-0.000590756
0.00791728
0.000757484
0.00788869
-0.000345149
0.00778234
0.000937315
0.00768957
3.008e-05
0.00757839
0.000909116
0.0075237
-2.213e-05
0.00750233
0.000430797
0.00755354
-0.000434393
0.007656
-0.000275306
0.00783294
-0.000995011
0.0080652
-0.00103306
0.00835507
-0.00153843
0.00866637
-0.00149607
0.00897149
-0.00161415
0.00923945
-0.00132231
0.00946211
-0.00117922
0.00964096
-0.00089802
0.00978588
-0.000747102
0.00990814
-0.000610016
0.0100179
-0.000534943
0.0101255
-0.00051539
0.0102369
-0.000504984
0.0103594
-0.000559389
0.0104935
-0.000585961
0.010642
-0.00067143
0.0107984
-0.000681026
0.0109615
-0.000745708
0.0111217
-0.000695105
0.0112802
-0.000739576
0.0114243
-0.000614834
0.0115573
-0.000645897
0.0116627
-0.000421155
0.0117459
-0.000454856
0.0117873
-7.77082e-05
0.0117906
-0.000160064
0.011748
0.000452668
0.0116493
5.37853e-05
0.00107884
0.00876687
-0.00972303
0.00950139
-0.000945719
0.00974194
-0.00209598
0.00968813
0.000454109
0.00953212
0.00129724
0.009333
0.00149635
0.00912549
0.00150798
0.00892118
0.00147804
0.00872835
0.00136748
0.008548
0.00127618
0.00838319
0.00115825
0.00823377
0.0010533
0.00810044
0.00093746
0.00798144
0.000835137
0.00787424
0.000740251
0.00777549
0.000661431
0.00768441
0.000584782
0.00760358
0.000507303
0.00754046
0.000391457
0.00750141
0.000243228
0.00748872
6.99432e-05
0.0075002
-9.10791e-05
0.0075314
-0.00024167
0.00757616
-0.000309996
0.00763174
-0.000427828
0.00769262
-0.000377671
0.00776059
-0.000542186
0.00782703
-0.000349341
0.00790224
-0.000630044
0.00796889
-0.00029084
0.0080484
-0.000690259
0.00811578
-0.000241106
0.00819949
-0.000769846
0.00826961
-0.000187689
0.00836068
-0.000909672
0.00842556
-0.000159114
0.0084997
-0.000971884
0.00857183
-0.000220619
0.00870019
-0.00121534
0.00877812
-0.000145786
0.00875114
-0.000399746
0.0085427
0.00158488
0.00824658
0.00109763
0.00785868
0.00289492
0.00741875
0.00174231
0.00699464
0.00323041
0.00685118
0.000335097
0.00686637
0.000936337
0.00707192
-0.00185666
0.00721318
9.56264e-05
0.00744058
-0.00227746
0.00792682
-0.00208283
0.00789094
-0.00151432
0.00669457
0.00876377
0.00607003
0.00366051
0.00665742
-0.00204301
0.00750187
-0.0059041
0.00790084
-0.00232626
0.00802346
-0.00188413
0.00798349
0.000673687
0.00799222
-0.000599448
0.00795068
0.000799015
0.00791582
-0.000310286
0.00781374
0.00103939
0.00771602
0.000127815
0.00761072
0.00101442
0.00755538
3.32111e-05
0.00754083
0.000445366
0.00759271
-0.000486276
0.00769979
-0.000382389
0.00787599
-0.00117119
0.00810903
-0.0012661
0.00839536
-0.00182475
0.00870355
-0.00180425
0.00900264
-0.00191323
0.0092652
-0.00158486
0.00948194
-0.00139596
0.00965618
-0.00107224
0.0097972
-0.000888113
0.00991662
-0.000729424
0.0100246
-0.00064295
0.0101316
-0.00062231
0.0102436
-0.000617056
0.0103678
-0.000683511
0.0105044
-0.000722557
0.0106554
-0.000822466
0.0108145
-0.000840098
0.0109798
-0.000910953
0.0111421
-0.00085744
0.0113017
-0.000899094
0.011447
-0.000760136
0.0115795
-0.000778437
0.0116852
-0.000526778
0.0117658
-0.000535452
0.0118068
-0.000118783
0.0118046
-0.000157812
0.0117624
0.000494872
0.0116513
0.000164905
0.00119535
0.00865614
-0.0108034
0.00943054
-0.00172012
0.0096185
-0.00228396
0.00954661
0.000525988
0.00938831
0.00145553
0.00919545
0.0016892
0.00900082
0.00170259
0.00881262
0.00166623
0.00863585
0.00154422
0.00847081
0.0014412
0.00831983
0.00130919
0.00818287
0.00119023
0.00806047
0.00105983
0.00795097
0.000944604
0.00785188
0.00083931
0.00776045
0.000752821
0.00767728
0.000667926
0.00760653
0.000578021
0.00755546
0.000442503
0.00752864
0.000270028
0.00752609
7.24683e-05
0.00754464
-0.000109648
0.00757981
-0.000276861
0.00762656
-0.000356771
0.00768229
-0.000483575
0.00774318
-0.00043858
0.00780957
-0.000608598
0.00787577
-0.000415561
0.00794838
-0.000702674
0.00801504
-0.000357513
0.00809142
-0.000766655
0.00815891
-0.000308615
0.00823909
-0.000850041
0.00830962
-0.000258235
0.00839631
-0.000996372
0.0084599
-0.000222713
0.00852508
-0.00103708
0.0085932
-0.000288742
0.00871344
-0.00133559
0.00878862
-0.000220978
0.0087514
-0.000362525
0.00854124
0.00179502
0.00823879
0.00140007
0.0078553
0.0032784
0.00741036
0.00218726
0.00699887
0.0036419
0.00686728
0.00046668
0.00689899
0.000904619
0.00710472
-0.00206239
0.00724801
-4.76878e-05
0.00746935
-0.00249882
0.00795215
-0.00256564
0.00788477
-0.00144691
0.00672545
0.00992304
0.0061566
0.00422941
0.00676765
-0.0026541
0.00758029
-0.00671673
0.00794265
-0.00268862
0.00803851
-0.00197997
0.00799864
0.000713543
0.00800546
-0.000606229
0.00796891
0.000835563
0.00793008
-0.000271454
0.00783111
0.00113835
0.00773086
0.000228084
0.00763034
0.00111494
0.00757565
8.79007e-05
0.00756626
0.000454772
0.00761893
-0.000538956
0.00772888
-0.000492333
0.00790382
-0.00134611
0.00813603
-0.00149832
0.00841806
-0.00210677
0.00872165
-0.00210784
0.00901394
-0.0022055
0.00927002
-0.00184093
0.0094803
-0.00160623
0.00964923
-0.00124117
0.0097858
-0.00102467
0.00990176
-0.000845384
0.0100074
-0.000748586
0.0101131
-0.000727987
0.0102252
-0.000729167
0.0103502
-0.000808525
0.0104884
-0.000860757
0.0106411
-0.000975125
0.0108019
-0.00100085
0.0109683
-0.00107736
0.0111317
-0.00102083
0.0112915
-0.00105885
0.011437
-0.000905673
0.0115686
-0.000910042
0.0116737
-0.000631806
0.0117518
-0.000613601
0.0117919
-0.000158815
0.0117852
-0.000151122
0.0117423
0.000537833
0.0116219
0.000285332
0.00131207
0.00858366
-0.0118113
0.00935131
-0.00248778
0.00950659
-0.00243924
0.00942048
0.000612079
0.00925708
0.00161893
0.00906627
0.00187999
0.00888008
0.00188877
0.00870403
0.00184226
0.00854039
0.00170785
0.00838836
0.00159321
0.00824954
0.00144799
0.00812372
0.00131602
0.00801129
0.00117224
0.00791065
0.00104522
0.00781947
0.000930459
0.00773581
0.000836451
0.00766152
0.000742188
0.00760163
0.000637891
0.00756252
0.000481583
0.00754692
0.00028561
0.00755319
6.61738e-05
0.0075776
-0.000134083
0.00761594
-0.000315223
0.0076641
-0.000404947
0.00771977
-0.000539266
0.00778026
-0.000499091
0.00784512
-0.000673481
0.00791052
-0.000480978
0.00798074
-0.000772912
0.00804666
-0.000423453
0.00812015
-0.000840165
0.00818692
-0.000375394
0.00826388
-0.000927021
0.00833379
-0.000328157
0.00841664
-0.00107923
0.00847811
-0.000284199
0.00853523
-0.0010942
0.00859795
-0.000351477
0.00870981
-0.00144744
0.00878113
-0.000292308
0.00873588
-0.000317279
0.00852511
0.00200577
0.00821981
0.00170536
0.00784133
0.00365687
0.0073958
0.00263279
0.00699736
0.00404033
0.00687897
0.000585069
0.00692427
0.000859312
0.00712997
-0.00226809
0.00727258
-0.000190321
0.00748931
-0.00271555
0.007967
-0.00304335
0.00787687
-0.00135674
0.00675576
0.0110441
0.00624002
0.0047452
0.00686492
-0.00327903
0.00764302
-0.00749482
0.00796857
-0.00301416
0.00804206
-0.00205344
0.00800227
0.000753332
0.00800841
-0.00061234
0.00797561
0.000868355
0.0079342
-0.000230039
0.00783795
0.0012346
0.00773672
0.000329329
0.00764047
0.00121119
0.0075871
0.000141282
0.00758177
0.000460115
0.00763501
-0.000592202
0.00774646
-0.000603778
0.0079194
-0.00151904
0.00814942
-0.00172834
0.00842625
-0.00238359
0.00872393
-0.00240552
0.00900857
-0.00249012
0.00925726
-0.00208962
0.00946052
-0.00180949
0.00962355
-0.00140419
0.00975515
-0.00115626
0.00986715
-0.000957375
0.00996991
-0.000851343
0.0100739
-0.000831923
0.0101854
-0.000840737
0.0103107
-0.000933811
0.0104498
-0.00099981
0.0106033
-0.00112865
0.0107649
-0.00116243
0.0109317
-0.00124414
0.0110953
-0.00118445
0.0112547
-0.00121818
0.0113998
-0.00105074
0.0115301
-0.00104036
0.0116341
-0.000735776
0.0117099
-0.000689438
0.0117487
-0.000197592
0.0117384
-0.000140733
0.0116943
0.000581899
0.0115667
0.000412895
0.00142912
0.00852678
-0.0127624
0.00927141
-0.00323241
0.00940202
-0.00256986
0.00930399
0.000710098
0.00913487
0.00178804
0.00894453
0.00207032
0.00876436
0.00206893
0.00859787
0.00200873
0.00844513
0.00186058
0.00830433
0.00173398
0.00817631
0.00157599
0.00806063
0.00143168
0.00795748
0.00127536
0.00786533
0.00113734
0.00778214
0.00101362
0.00770679
0.000911769
0.00764212
0.00080684
0.00759331
0.000686669
0.00756555
0.000509327
0.00755986
0.000291275
0.00757349
5.25324e-05
0.0076025
-0.000163114
0.00764311
-0.000355859
0.00769201
-0.000453861
0.00774724
-0.000594513
0.00780687
-0.000558739
0.00787003
-0.000736664
0.00793411
-0.000545072
0.00800187
-0.000840694
0.00806644
-0.00048804
0.00813702
-0.000910763
0.00820237
-0.00044076
0.00827613
-0.00100079
0.00834462
-0.000396658
0.00842378
-0.0011584
0.00848258
-0.000343017
0.00853208
-0.00114371
0.00858825
-0.000407659
0.00869111
-0.0015503
0.00875783
-0.000359045
0.00870645
-0.0002659
0.00849658
0.00221563
0.00819126
0.00201068
0.00781886
0.00402925
0.0073763
0.00307535
0.00699167
0.00442496
0.00688706
0.00068968
0.00694377
0.000802598
0.00714877
-0.0024731
0.00728898
-0.000330549
0.00750176
-0.00292834
0.00797353
-0.00351512
0.0078682
-0.00125139
0.00678732
0.012125
0.00632123
0.00521134
0.00695151
-0.00390935
0.00769246
-0.00823575
0.00798167
-0.00330337
0.00803621
-0.00210796
0.00799666
0.000792878
0.00800284
-0.000618492
0.00797301
0.000898179
0.00792995
-0.000186977
0.00783633
0.00132822
0.00773523
0.000430443
0.00764303
0.00130339
0.0075913
0.000193011
0.00758921
0.000462218
0.00764264
-0.000645637
0.00775446
-0.0007156
0.00792464
-0.0016892
0.00815122
-0.00195493
0.00842192
-0.00265428
0.0087125
-0.0026961
0.00898863
-0.00276624
0.00922913
-0.00233012
0.00942483
-0.00200518
0.00958143
-0.00156079
0.00970761
-0.00128242
0.00981519
-0.00106495
0.00991463
-0.000950777
0.0100164
-0.000933671
0.0101269
-0.000951265
0.0102519
-0.00105882
0.0103912
-0.00113906
0.0105449
-0.00128236
0.0107066
-0.00132409
0.0108731
-0.00141062
0.0110362
-0.00134758
0.0111946
-0.00137655
0.0113387
-0.0011948
0.0114674
-0.00116911
0.0115701
-0.000838414
0.0116438
-0.000763122
0.0116813
-0.000235063
0.0116678
-0.000127281
0.0116226
0.000627155
0.0114894
0.000546154
0.00154836
0.00847799
-0.0136646
0.00919288
-0.00394731
0.00930242
-0.0026794
0.00919387
0.000818643
0.00901929
0.00196261
0.00882902
0.00226057
0.00865364
0.00224429
0.00849504
0.00216731
0.00835159
0.00200401
0.00822061
0.00186494
0.00810227
0.00169431
0.00799588
0.00153804
0.00790147
0.00136974
0.00781757
0.00122122
0.00774252
0.00108865
0.00767597
0.000978285
0.00762136
0.000861435
0.00758352
0.000724484
0.00756623
0.000526597
0.00756912
0.000288366
0.0075887
3.29287e-05
0.00762114
-0.000195579
0.00766319
-0.000397922
0.00771218
-0.000502875
0.00776653
-0.000648881
0.00782484
-0.000617072
0.00788604
-0.000797881
0.0079483
-0.000607352
0.00801343
-0.000905841
0.0080761
-0.00055072
0.00814361
-0.000978297
0.00820697
-0.000504131
0.00827737
-0.0010712
0.00834378
-0.000463081
0.00841921
-0.00123385
0.00847496
-0.000398773
0.00851708
-0.00118584
0.00856568
-0.000456264
0.00865878
-0.00164341
0.00872042
-0.000420692
0.00866459
-0.000210075
0.00845723
0.00242298
0.00815434
0.00231356
0.00778929
0.00439429
0.00735274
0.00351191
0.00698273
0.00479497
0.00689204
0.000780367
0.00695839
0.000736241
0.00716188
-0.00267659
0.00729853
-0.000467222
0.00750769
-0.0031375
0.00797314
-0.0039806
0.00785946
-0.00113767
0.00682114
0.0131633
0.00640081
0.00563172
0.00702898
-0.00453756
0.00773037
-0.00893712
0.00798409
-0.00355708
0.00802243
-0.00214628
0.00798336
0.000831947
0.00798999
-0.000625095
0.00796258
0.000925584
0.00791856
-0.000142957
0.00782765
0.00141913
0.00772752
0.000530584
0.00763923
0.00139168
0.00758933
0.000242915
0.00758981
0.00046175
0.00764301
-0.000698832
0.00775424
-0.000826831
0.00792086
-0.0018558
0.0081429
-0.00217697
0.00840655
-0.00291793
0.00868894
-0.00297849
0.00895575
-0.00303304
0.00918733
-0.0025617
0.00937496
-0.0021928
0.00952469
-0.00171051
0.00964504
-0.00140276
0.0097478
-0.0011677
0.00984353
-0.0010465
0.00994271
-0.00103284
0.0100518
-0.0010603
0.010176
-0.00118303
0.0103148
-0.0012779
0.0104681
-0.00143563
0.0106292
-0.00148517
0.0107948
-0.00157617
0.0109568
-0.00150959
0.0111137
-0.00153344
0.0112563
-0.00133739
0.0113833
-0.00129606
0.0114844
-0.000939551
0.0115561
-0.000834793
0.0115924
-0.000271352
0.0115764
-0.000111279
0.0115301
0.000673419
0.0113925
0.000683824
0.00166912
0.00843407
-0.0145229
0.00911608
-0.00462933
0.00920638
-0.00276971
0.00908827
0.000936747
0.0089088
0.00214207
0.00871876
0.00245061
0.00854763
0.00241541
0.00839587
0.00231905
0.00826054
0.00213933
0.00813827
0.00198719
0.00802869
0.00180388
0.00793089
0.00163582
0.00784475
0.00145586
0.00776892
0.00129702
0.00770216
0.0011554
0.00764476
0.00103566
0.00760036
0.000905812
0.00757309
0.000751738
0.00756528
0.000534382
0.00757546
0.00027817
0.00759976
8.6082e-06
0.00763462
-0.000230458
0.00767733
-0.000440654
0.00772585
-0.000551407
0.00777888
-0.000701935
0.00783544
-0.00067365
0.00789436
-0.00085682
0.00795437
-0.000667377
0.00801662
-0.000968105
0.00807688
-0.000610998
0.00814112
-0.00104255
0.00820196
-0.000564986
0.00826878
-0.00113804
0.00833254
-0.000526857
0.00840412
-0.00130544
0.00845652
-0.000451179
0.00849144
-0.00122077
0.00853158
-0.000496417
0.00861413
-0.00172598
0.00867031
-0.000476875
0.00861158
-0.000151349
0.00840838
0.00262616
0.00811009
0.00261184
0.00775368
0.00475069
0.00732578
0.0039398
0.00697119
0.00514956
0.00689428
0.000857273
0.00696878
0.000661736
0.00716986
-0.00287768
0.00730216
-0.000599552
0.00750777
-0.00334312
0.00796681
-0.00443964
0.0078511
-0.00102194
0.00685771
0.0141566
0.00647905
0.00601042
0.00709844
-0.00515698
0.00775818
-0.00959685
0.00797746
-0.00377637
0.00800193
-0.00217072
0.00796355
0.000870325
0.00797086
-0.000632377
0.00794545
0.000950992
0.007901
-9.85031e-05
0.00781294
0.00150719
0.00771444
0.000629088
0.00763001
0.00147612
0.00758201
0.00029092
0.0075845
0.000459271
0.00763703
-0.000751356
0.00774681
-0.000936615
0.00790915
-0.00201813
0.00812566
-0.00239348
0.00838138
-0.00317364
0.0086546
-0.0032517
0.00891132
-0.00328974
0.00913336
-0.00278374
0.00931247
-0.00237189
0.00945492
-0.00185296
0.00956907
-0.0015169
0.00966667
-0.00126529
0.00975836
-0.00113818
0.00985462
-0.00112909
0.00996175
-0.00116742
0.0100847
-0.00130597
0.0102226
-0.00141578
0.0103749
-0.00158789
0.0105348
-0.00164505
0.0106988
-0.00174023
0.0108592
-0.00166993
0.0110142
-0.00168842
0.0111549
-0.00147812
0.0112799
-0.00142103
0.0113794
-0.00103908
0.0114492
-0.0009046
0.0114845
-0.000306584
0.0114664
-9.32116e-05
0.0114193
0.000720516
0.0112782
0.000824987
0.00179266
0.00839339
-0.0153405
0.00904097
-0.0052769
0.00911307
-0.00284182
0.00898613
0.00106369
0.00880246
0.00232573
0.00861307
0.00263999
0.00844602
0.00258245
0.00830046
0.00246459
0.0081724
0.00226738
0.00805798
0.00210159
0.0079564
0.00190544
0.00786657
0.00172562
0.0077883
0.0015341
0.00772039
0.00136491
0.007662
0.00121377
0.00761391
0.00108372
0.00757965
0.000940057
0.00756234
0.000769021
0.00756301
0.000533699
0.00757929
0.000261863
0.00760722
-1.93433e-05
0.00764363
-0.000266887
0.00768637
-0.000483408
0.00773389
-0.000598947
0.00778521
-0.000753273
0.00783962
-0.000728082
0.00789595
-0.000913166
0.00795329
-0.000724744
0.0080124
-0.00102723
0.00806981
-0.000668427
0.00813052
-0.00110327
0.00818838
-0.000622867
0.00825138
-0.00120104
0.00831199
-0.000587482
0.00837954
-0.001373
0.00842838
-0.000500034
0.00845626
-0.00124866
0.00848722
-0.000527386
0.00855846
-0.00179722
0.00860886
-0.000527285
0.00854862
-9.11206e-05
0.00835116
0.00282362
0.00805938
0.00290361
0.00771288
0.00509718
0.00729599
0.00435669
0.00695753
0.00548801
0.00689409
0.000920719
0.00697543
0.00058038
0.00717326
-0.0030755
0.00730069
-0.000727001
0.00750271
-0.00354516
0.00795532
-0.00489226
0.00784344
-0.000910027
0.00689723
0.0151028
0.00655616
0.00635154
0.00716083
-0.00576168
0.00777715
-0.0102132
0.00796317
-0.00396238
0.00797574
-0.00218327
0.00793822
0.000907837
0.00794631
-0.00064044
0.00792256
0.000974745
0.00787809
-5.40307e-05
0.00779303
0.00159225
0.0076967
0.000725423
0.0076161
0.00155673
0.00757001
0.000337009
0.00757403
0.000455263
0.00762548
-0.000802808
0.00773308
-0.00104422
0.00789048
-0.00217551
0.00810056
-0.00260356
0.00834754
-0.00342062
0.00861071
-0.00351486
0.00885665
-0.00353567
0.0090686
-0.00299569
0.00923878
-0.00254207
0.00937362
-0.00198779
0.00948128
-0.00162455
0.00957344
-0.00135744
0.00966079
-0.00122552
0.00975381
-0.0012221
0.00985867
-0.00127227
0.00997991
-0.0014272
0.0101163
-0.00155218
0.010267
-0.00173857
0.0104252
-0.00180318
0.0105872
-0.00190225
0.0107454
-0.00182809
0.010898
-0.00184105
0.0110365
-0.00161664
0.0111594
-0.00154383
0.0112572
-0.00113691
0.0113253
-0.000972678
0.0113597
-0.000340966
0.01134
-7.34816e-05
0.0112923
0.000768153
0.0111486
0.000968692
0.0019181
0.00835507
-0.0161199
0.00896748
-0.00588932
0.00902202
-0.00289636
0.00888683
0.00119887
0.00869967
0.00251288
0.00851145
0.0028282
0.00834853
0.00274535
0.00820879
0.00260432
0.00808741
0.00238874
0.00798015
0.00220884
0.00788594
0.00199963
0.00780357
0.00180796
0.00773281
0.00160484
0.00767264
0.00142505
0.00762262
0.00126376
0.00758384
0.00112247
0.00755941
0.000964469
0.00755136
0.000777045
0.00755949
0.000525556
0.00758082
0.000240508
0.00761146
-5.00008e-05
0.00764869
-0.000304137
0.00769091
-0.000525641
0.007737
-0.000645062
0.00778625
-0.000802535
0.00783816
-0.00078001
0.0078916
-0.000966625
0.00794593
-0.000779091
0.00800163
-0.00108294
0.0080558
-0.000722612
0.00811272
-0.00116021
0.0081672
-0.000677354
0.00822611
-0.00125997
0.00828312
-0.000644504
0.00834644
-0.00143633
0.0083916
-0.000545201
0.00841264
-0.00126971
0.00843384
-0.000548592
0.00849304
-0.00185643
0.0085374
-0.000571647
0.0084769
-3.06327e-05
0.00828661
0.0030139
0.00800305
0.00318717
0.00766765
0.00543257
0.00726383
0.00476051
0.00694213
0.00580971
0.00689169
0.000971162
0.00697875
0.000493316
0.00717254
-0.0032693
0.00729476
-0.000849243
0.00749312
-0.00374353
0.00793941
-0.00533856
0.00783674
-0.000807324
0.00693973
0.0159998
0.00663232
0.00665899
0.00721699
-0.00634638
0.00778842
-0.0107846
0.00794238
-0.00411633
0.00794476
-0.00218563
0.00790822
0.000944368
0.00791711
-0.0006493
0.00789471
0.000997147
0.00785054
-9.86283e-06
0.00776863
0.00167417
0.0076749
0.000819163
0.00759809
0.00163354
0.00755391
0.000381192
0.00755904
0.000450138
0.00760906
-0.00085283
0.00771385
-0.001149
0.00786571
-0.00232735
0.00806859
-0.00280645
0.00830612
-0.00365814
0.00855846
-0.0037672
0.008793
-0.0037702
0.00899439
-0.00319707
0.00915532
-0.00270299
0.00928227
-0.00211473
0.0093832
-0.00172546
0.00946968
-0.00144392
0.00955247
-0.0013083
0.00964199
-0.00131162
0.00974422
-0.00137449
0.00986335
-0.00154632
0.0099978
-0.00168662
0.0101464
-0.00188719
0.0103023
-0.00195902
0.0104618
-0.00206176
0.0106173
-0.0019836
0.0107672