/*--------------------------------*- C++ -*----------------------------------*\
| =========                 |                                                 |
| \\      /  F ield         | OpenFOAM: The Open Source CFD Toolbox           |
|  \\    /   O peration     | Version:  2412                                  |
|   \\  /    A nd           | Website:  www.openfoam.com                      |
|    \\/     M anipulation  |                                                 |
\*---------------------------------------------------------------------------*/
FoamFile
{
    version     2.0;
    format      ascii;
    arch        "LSB;label=32;scalar=64";
    class       volScalarField;
    location    "0.5";
    object      epsilon;
}
// * * * * * * * * * * * * * * * * * * * * * * * * * * * * * * * * * * * * * //

dimensions      [0 2 -3 0 0 0 0];

internalField   nonuniform List<scalar> 
13068
(
377.042
379.29
389.076
417.534
482.835
600.129
761.628
930.049
1062.39
1138.47
1164.62
1160.13
1142.72
1124.14
1109.43
1101.1
1099.06
1104.02
1114.83
1132.37
1155.07
1184.64
1219.04
1261.26
1308.4
1365.37
1427.65
1503.15
1584.62
1684.84
1791.95
1926.86
2070.05
2256.33
2453.18
2718.81
2998.85
3392.84
3810.52
4422.58
5074.07
6047.32
7056.32
8530.91
9934.24
11846.5
13412
15375.9
16983
18156.4
18785.9
14688.2
10594.7
4800.5
2672.15
2861.29
4472.57
5642.76
6465.62
6291.47
6030.55
5392.59
4913.2
4333.93
3936.37
3529.47
3260.04
2994.82
2813.82
2633.19
2502.33
2369.97
2265.17
2156.11
2059.43
1956.94
1859.51
1759.5
1664.58
1572.81
1488.16
1410.77
1340.78
1278.8
1221.94
1171.58
1123.04
1078.91
1033.52
990.752
944.562
899.763
850.614
802.223
750.058
699.023
646.405
597.157
549.94
377.042
379.293
389.083
417.547
482.85
600.138
761.632
930.067
1062.44
1138.56
1164.74
1160.27
1142.85
1124.27
1109.55
1101.22
1099.18
1104.14
1114.95
1132.49
1155.2
1184.77
1219.17
1261.4
1308.54
1365.52
1427.81
1503.32
1584.81
1685.05
1792.18
1927.12
2070.35
2256.66
2453.53
2719.2
2999.27
3393.3
3811.04
4423.19
5074.79
6048.23
7057.49
8532.47
9936.26
11849
13414.9
15379
16985.7
18159.1
18788.3
14690.7
10598.1
4802.56
2673.46
2861.98
4472.98
5643.18
6466.51
6292.56
6031.51
5393.36
4913.92
4334.65
3937.07
3530.06
3260.53
2995.25
2814.23
2633.59
2502.71
2370.34
2265.53
2156.46
2059.77
1957.26
1859.81
1759.78
1664.85
1573.06
1488.39
1410.99
1340.99
1279.01
1222.14
1171.79
1123.24
1079.12
1033.72
990.949
944.744
899.92
850.739
802.305
750.096
699.008
646.34
597.042
549.792
377.044
379.298
389.095
417.572
482.888
600.178
761.665
930.105
1062.51
1138.66
1164.86
1160.4
1142.98
1124.4
1109.67
1101.34
1099.29
1104.25
1115.06
1132.61
1155.32
1184.89
1219.3
1261.54
1308.69
1365.67
1427.97
1503.5
1584.99
1685.26
1792.41
1927.38
2070.65
2256.99
2453.9
2719.59
2999.69
3393.77
3811.56
4423.79
5075.51
6049.15
7058.67
8534.05
9938.31
11851.6
13417.9
15382.1
16988.5
18161.9
18790.8
14693.4
10601.6
4804.82
2674.88
2862.65
4473.3
5643.46
6467.24
6293.51
6032.34
5394.01
4914.55
4335.32
3937.72
3530.62
3260.98
2995.66
2814.63
2633.98
2503.09
2370.71
2265.88
2156.81
2060.1
1957.57
1860.11
1760.07
1665.12
1573.32
1488.64
1411.22
1341.21
1279.22
1222.35
1172
1123.46
1079.33
1033.94
991.155
944.936
900.088
850.877
802.401
750.148
699.008
646.29
596.945
549.66
377.046
379.305
389.114
417.613
482.952
600.25
761.729
930.164
1062.58
1138.76
1164.98
1160.51
1143.1
1124.51
1109.78
1101.44
1099.39
1104.36
1115.17
1132.72
1155.43
1185.01
1219.42
1261.67
1308.83
1365.82
1428.13
1503.66
1585.18
1685.46
1792.64
1927.64
2070.94
2257.31
2454.25
2719.97
3000.1
3394.21
3812.05
4424.36
5076.19
6050.01
7059.79
8535.58
9940.3
11854.2
13420.7
15385.1
16991.1
18164.6
18793.2
14696
10605.3
4807.21
2676.38
2863.28
4473.5
5643.56
6467.77
6294.25
6032.97
5394.48
4915.04
4335.86
3938.28
3531.11
3261.38
2996.01
2814.97
2634.33
2503.43
2371.05
2266.22
2157.14
2060.42
1957.88
1860.4
1760.35
1665.39
1573.57
1488.87
1411.44
1341.42
1279.43
1222.56
1172.2
1123.67
1079.55
1034.15
991.363
945.131
900.26
851.021
802.505
750.21
699.019
646.253
596.86
549.54
377.048
379.314
389.139
417.668
483.043
600.357
761.824
930.245
1062.66
1138.85
1165.08
1160.62
1143.19
1124.6
1109.87
1101.53
1099.48
1104.45
1115.26
1132.82
1155.54
1185.12
1219.54
1261.79
1308.96
1365.96
1428.27
1503.82
1585.35
1685.65
1792.85
1927.88
2071.21
2257.62
2454.58
2720.32
3000.47
3394.61
3812.49
4424.87
5076.8
6050.8
7060.83
8537.01
9942.18
11856.5
13423.4
15387.8
16993.5
18167
18795.4
14698.4
10609
4809.69
2677.92
2863.85
4473.57
5643.45
6468.06
6294.74
6033.37
5394.76
4915.36
4336.28
3938.73
3531.5
3261.69
2996.29
2815.26
2634.62
2503.73
2371.35
2266.52
2157.45
2060.72
1958.17
1860.68
1760.61
1665.64
1573.81
1489.1
1411.65
1341.62
1279.62
1222.75
1172.4
1123.87
1079.76
1034.36
991.57
945.328
900.436
851.17
802.614
750.279
699.039
646.226
596.787
549.433
377.051
379.325
389.171
417.738
483.16
600.498
761.953
930.347
1062.75
1138.94
1165.17
1160.7
1143.27
1124.67
1109.93
1101.6
1099.55
1104.52
1115.34
1132.91
1155.63
1185.22
1219.64
1261.9
1309.07
1366.08
1428.41
1503.97
1585.51
1685.82
1793.05
1928.11
2071.47
2257.9
2454.88
2720.64
3000.81
3394.97
3812.88
4425.32
5077.35
6051.52
7061.78
8538.33
9943.92
11858.8
13425.9
15390.4
16995.5
18169.2
18797.4
14700.7
10612.8
4812.24
2679.51
2864.38
4473.51
5643.14
6468.1
6294.99
6033.52
5394.83
4915.51
4336.56
3939.06
3531.79
3261.92
2996.49
2815.48
2634.86
2503.98
2371.61
2266.79
2157.72
2060.99
1958.43
1860.93
1760.86
1665.87
1574.03
1489.31
1411.85
1341.81
1279.8
1222.94
1172.59
1124.07
1079.96
1034.57
991.775
945.524
900.613
851.321
802.729
750.355
699.066
646.208
596.724
549.336
377.054
379.338
389.209
417.824
483.304
600.674
762.114
930.471
1062.85
1139.03
1165.25
1160.77
1143.33
1124.72
1109.98
1101.65
1099.6
1104.58
1115.41
1132.98
1155.71
1185.3
1219.73
1262
1309.18
1366.2
1428.53
1504.1
1585.65
1685.98
1793.23
1928.32
2071.7
2258.16
2455.16
2720.93
3001.11
3395.29
3813.23
4425.72
5077.82
6052.14
7062.63
8539.54
9945.53
11860.8
13428.2
15392.7
16997.2
18171.1
18799.1
14702.8
10616.6
4814.87
2681.14
2864.86
4473.32
5642.63
6467.9
6294.98
6033.44
5394.68
4915.48
4336.69
3939.28
3531.99
3262.06
2996.62
2815.63
2635.05
2504.19
2371.83
2267.03
2157.96
2061.24
1958.67
1861.17
1761.09
1666.09
1574.24
1489.5
1412.03
1341.98
1279.98
1223.11
1172.77
1124.26
1080.16
1034.77
991.978
945.72
900.791
851.476
802.849
750.438
699.102
646.2
596.672
549.249
377.058
379.353
389.253
417.924
483.475
600.886
762.307
930.615
1062.96
1139.12
1165.32
1160.82
1143.36
1124.75
1110.01
1101.68
1099.64
1104.62
1115.46
1133.03
1155.77
1185.38
1219.81
1262.08
1309.27
1366.3
1428.64
1504.22
1585.78
1686.13
1793.4
1928.51
2071.92
2258.4
2455.41
2721.19
3001.37
3395.57
3813.52
4426.05
5078.22
6052.68
7063.39
8540.64
9947.01
11862.7
13430.3
15394.7
16998.7
18172.7
18800.6
14704.8
10620.4
4817.58
2682.82
2865.29
4473.01
5641.91
6467.46
6294.72
6033.12
5394.32
4915.28
4336.68
3939.37
3532.08
3262.11
2996.68
2815.72
2635.18
2504.34
2372.01
2267.23
2158.18
2061.45
1958.89
1861.38
1761.3
1666.29
1574.42
1489.68
1412.2
1342.14
1280.13
1223.27
1172.95
1124.44
1080.35
1034.97
992.179
945.915
900.971
851.633
802.973
750.526
699.146
646.2
596.631
549.174
377.062
379.371
389.304
418.04
483.672
601.131
762.534
930.782
1063.07
1139.2
1165.38
1160.86
1143.38
1124.75
1110.01
1101.69
1099.66
1104.65
1115.49
1133.08
1155.82
1185.43
1219.88
1262.16
1309.35
1366.38
1428.74
1504.32
1585.9
1686.26
1793.55
1928.68
2072.12
2258.61
2455.64
2721.42
3001.6
3395.8
3813.75
4426.31
5078.55
6053.14
7064.04
8541.62
9948.34
11864.5
13432.1
15396.5
16999.8
18174.1
18801.9
14706.6
10624.3
4820.37
2684.55
2865.68
4472.59
5641
6466.78
6294.22
6032.56
5393.76
4914.9
4336.53
3939.36
3532.08
3262.08
2996.66
2815.75
2635.25
2504.45
2372.15
2267.39
2158.36
2061.64
1959.08
1861.57
1761.48
1666.47
1574.6
1489.84
1412.35
1342.29
1280.28
1223.43
1173.11
1124.62
1080.54
1035.17
992.377
946.109
901.151
851.793
803.102
750.621
699.197
646.21
596.6
549.109
377.067
379.391
389.361
418.17
483.897
601.412
762.792
930.969
1063.19
1139.28
1165.42
1160.87
1143.38
1124.74
1110
1101.68
1099.66
1104.66
1115.51
1133.11
1155.86
1185.48
1219.93
1262.22
1309.42
1366.46
1428.82
1504.41
1586
1686.38
1793.68
1928.83
2072.29
2258.81
2455.83
2721.62
3001.79
3395.98
3813.94
4426.52
5078.8
6053.51
7064.6
8542.5
9949.55
11866
13433.8
15398.1
17000.6
18175.2
18802.9
14708.2
10628.2
4823.25
2686.34
2866.05
4472.05
5639.91
6465.88
6293.48
6031.77
5393
4914.36
4336.25
3939.23
3531.98
3261.96
2996.57
2815.71
2635.27
2504.51
2372.25
2267.52
2158.51
2061.8
1959.25
1861.75
1761.66
1666.64
1574.75
1489.99
1412.49
1342.42
1280.42
1223.57
1173.26
1124.78
1080.72
1035.36
992.573
946.302
901.333
851.957
803.236
750.722
699.257
646.23
596.58
549.055
377.073
379.413
389.425
418.316
484.148
601.727
763.083
931.178
1063.32
1139.35
1165.45
1160.87
1143.36
1124.71
1109.97
1101.65
1099.64
1104.65
1115.52
1133.12
1155.88
1185.51
1219.97
1262.27
1309.48
1366.52
1428.89
1504.49
1586.09
1686.48
1793.8
1928.97
2072.44
2258.97
2456
2721.78
3001.94
3396.12
3814.07
4426.66
5078.98
6053.8
7065.06
8543.26
9950.62
11867.4
13435.2
15399.4
17001.1
18176
18803.7
14709.7
10632.1
4826.23
2688.19
2866.39
4471.42
5638.65
6464.76
6292.51
6030.76
5392.03
4913.65
4335.83
3938.98
3531.78
3261.77
2996.4
2815.61
2635.23
2504.53
2372.31
2267.62
2158.63
2061.94
1959.39
1861.9
1761.81
1666.79
1574.9
1490.12
1412.62
1342.54
1280.54
1223.7
1173.41
1124.95
1080.9
1035.55
992.767
946.496
901.516
852.123
803.374
750.83
699.324
646.259
596.57
549.011
377.079
379.437
389.495
418.477
484.425
602.077
763.406
931.408
1063.46
1139.42
1165.47
1160.86
1143.31
1124.65
1109.91
1101.61
1099.61
1104.63
1115.51
1133.12
1155.9
1185.54
1220
1262.3
1309.52
1366.57
1428.95
1504.56
1586.17
1686.56
1793.9
1929.08
2072.58
2259.12
2456.15
2721.91
3002.06
3396.22
3814.15
4426.74
5079.09
6054
7065.43
8543.91
9951.56
11868.7
13436.4
15400.5
17001.3
18176.6
18804.4
14711.1
10636.2
4829.31
2690.12
2866.72
4470.7
5637.22
6463.42
6291.32
6029.53
5390.88
4912.78
4335.28
3938.63
3531.49
3261.49
2996.17
2815.44
2635.14
2504.5
2372.33
2267.68
2158.72
2062.05
1959.52
1862.03
1761.94
1666.92
1575.02
1490.24
1412.73
1342.65
1280.65
1223.82
1173.55
1125.1
1081.07
1035.73
992.959
946.689
901.701
852.292
803.518
750.945
699.399
646.297
596.572
548.979
377.086
379.463
389.572
418.652
484.73
602.461
763.761
931.659
1063.61
1139.49
1165.48
1160.82
1143.25
1124.58
1109.84
1101.54
1099.55
1104.59
1115.48
1133.11
1155.89
1185.54
1220.02
1262.33
1309.55
1366.61
1428.99
1504.61
1586.23
1686.63
1793.98
1929.18
2072.69
2259.24
2456.27
2722.02
3002.13
3396.27
3814.18
4426.76
5079.13
6054.13
7065.7
8544.46
9952.38
11869.8
13437.5
15401.3
17001.3
18176.9
18804.8
14712.4
10640.3
4832.51
2692.13
2867.04
4469.9
5635.63
6461.89
6289.91
6028.09
5389.54
4911.75
4334.6
3938.17
3531.12
3261.13
2995.87
2815.22
2635
2504.43
2372.32
2267.71
2158.79
2062.13
1959.62
1862.14
1762.06
1667.04
1575.13
1490.34
1412.83
1342.75
1280.75
1223.94
1173.68
1125.25
1081.23
1035.91
993.15
946.881
901.887
852.465
803.667
751.066
699.483
646.345
596.584
548.957
377.093
379.492
389.655
418.843
485.06
602.879
764.148
931.931
1063.76
1139.55
1165.48
1160.77
1143.17
1124.48
1109.75
1101.46
1099.48
1104.53
1115.44
1133.08
1155.88
1185.54
1220.02
1262.34
1309.57
1366.63
1429.02
1504.65
1586.27
1686.69
1794.05
1929.26
2072.79
2259.34
2456.36
2722.09
3002.18
3396.28
3814.16
4426.72
5079.1
6054.17
7065.88
8544.9
9953.07
11870.8
13438.3
15401.9
17000.9
18177.1
18805.1
14713.6
10644.6
4835.84
2694.23
2867.38
4469.05
5633.91
6460.17
6288.3
6026.45
5388.02
4910.57
4333.8
3937.61
3530.66
3260.7
2995.5
2814.93
2634.8
2504.31
2372.26
2267.71
2158.82
2062.2
1959.7
1862.23
1762.16
1667.14
1575.23
1490.43
1412.91
1342.83
1280.84
1224.04
1173.8
1125.39
1081.39
1036.09
993.338
947.074
902.075
852.642
803.821
751.194
699.576
646.403
596.607
548.947
377.1
379.522
389.744
419.049
485.418
603.332
764.567
932.224
1063.92
1139.61
1165.47
1160.7
1143.06
1124.37
1109.63
1101.35
1099.4
1104.46
1115.39
1133.04
1155.85
1185.52
1220.02
1262.34
1309.58
1366.65
1429.04
1504.67
1586.3
1686.73
1794.1
1929.33
2072.86
2259.41
2456.42
2722.13
3002.18
3396.25
3814.09
4426.62
5079
6054.13
7065.97
8545.24
9953.64
11871.6
13439
15402.3
17000.3
18177
18805.3
14714.7
10649
4839.31
2696.43
2867.73
4468.14
5632.06
6458.28
6286.5
6024.61
5386.33
4909.24
4332.88
3936.95
3530.11
3260.19
2995.06
2814.59
2634.56
2504.15
2372.18
2267.68
2158.83
2062.23
1959.76
1862.31
1762.25
1667.22
1575.31
1490.5
1412.98
1342.9
1280.92
1224.13
1173.91
1125.52
1081.55
1036.26
993.525
947.267
902.265
852.821
803.98
751.329
699.677
646.47
596.642
548.948
377.108
379.555
389.84
419.27
485.802
603.819
765.018
932.538
1064.09
1139.67
1165.44
1160.62
1142.94
1124.23
1109.5
1101.23
1099.29
1104.38
1115.32
1132.99
1155.81
1185.49
1220
1262.33
1309.57
1366.65
1429.05
1504.68
1586.32
1686.75
1794.14
1929.37
2072.91
2259.46
2456.46
2722.14
3002.16
3396.18
3813.97
4426.46
5078.83
6054.01
7065.97
8545.48
9954.09
11872.2
13439.5
15402.5
16999.5
18176.7
18805.2
14715.8
10653.5
4842.92
2698.75
2868.12
4467.19
5630.1
6456.22
6284.51
6022.6
5384.47
4907.78
4331.85
3936.2
3529.48
3259.62
2994.56
2814.19
2634.27
2503.95
2372.06
2267.62
2158.81
2062.25
1959.79
1862.37
1762.32
1667.29
1575.38
1490.56
1413.04
1342.96
1280.99
1224.22
1174.02
1125.65
1081.7
1036.44
993.711
947.46
902.457
853.005
804.145
751.472
699.786
646.548
596.687
548.96
377.117
379.59
389.942
419.506
486.212
604.34
765.5
932.873
1064.27
1139.73
1165.41
1160.52
1142.8
1124.08
1109.34
1101.09
1099.17
1104.27
1115.23
1132.92
1155.76
1185.45
1219.96
1262.3
1309.55
1366.64
1429.04
1504.68
1586.33
1686.76
1794.15
1929.4
2072.95
2259.49
2456.47
2722.12
3002.09
3396.06
3813.8
4426.25
5078.59
6053.81
7065.88
8545.62
9954.42
11872.8
13439.7
15402.5
16998.4
18176.2
18805.1
14716.9
10658.2
4846.7
2701.19
2868.56
4466.23
5628.05
6454.01
6282.35
6020.4
5382.45
4906.18
4330.7
3935.35
3528.77
3258.97
2994
2813.74
2633.93
2503.71
2371.9
2267.53
2158.77
2062.24
1959.81
1862.41
1762.37
1667.35
1575.43
1490.61
1413.09
1343.01
1281.05
1224.3
1174.12
1125.78
1081.85
1036.6
993.895
947.653
902.651
853.193
804.316
751.622
699.905
646.636
596.745
548.984
377.126
379.627
390.051
419.757
486.649
604.895
766.014
933.229
1064.46
1139.78
1165.36
1160.4
1142.64
1123.9
1109.17
1100.93
1099.03
1104.15
1115.13
1132.84
1155.69
1185.39
1219.92
1262.27
1309.52
1366.61
1429.02
1504.67
1586.32
1686.76
1794.16
1929.41
2072.96
2259.5
2456.46
2722.07
3001.99
3395.9
3813.57
4425.97
5078.29
6053.54
7065.71
8545.66
9954.64
11873.2
13439.9
15402.3
16997
18175.6
18804.9
14717.9
10663.1
4850.65
2703.77
2869.06
4465.26
5625.91
6451.67
6280.03
6018.04
5380.29
4904.46
4329.45
3934.42
3527.99
3258.26
2993.39
2813.24
2633.55
2503.43
2371.71
2267.41
2158.71
2062.21
1959.81
1862.43
1762.41
1667.39
1575.47
1490.65
1413.12
1343.05
1281.1
1224.36
1174.21
1125.89
1081.99
1036.77
994.079
947.848
902.848
853.385
804.493
751.779
700.032
646.734
596.813
549.019
377.136
379.667
390.167
420.023
487.113
605.484
766.56
933.607
1064.65
1139.83
1165.31
1160.27
1142.46
1123.7
1108.98
1100.75
1098.87
1104.02
1115.02
1132.74
1155.61
1185.32
1219.86
1262.22
1309.48
1366.57
1428.99
1504.64
1586.29
1686.74
1794.14
1929.4
2072.95
2259.48
2456.42
2721.99
3001.86
3395.7
3813.3
4425.64
5077.92
6053.19
7065.45
8545.61
9954.75
11873.4
13439.8
15401.9
16995.4
18174.7
18804.6
14718.9
10668.2
4854.8
2706.49
2869.64
4464.3
5623.7
6449.2
6277.56
6015.53
5377.98
4902.61
4328.1
3933.4
3527.13
3257.49
2992.71
2812.69
2633.13
2503.12
2371.49
2267.26
2158.62
2062.16
1959.8
1862.44
1762.43
1667.42
1575.5
1490.67
1413.14
1343.08
1281.14
1224.42
1174.29
1126.01
1082.13
1036.93
994.262
948.043
903.047
853.58
804.676
751.944
700.169
646.843
596.894
549.065
377.146
379.708
390.289
420.304
487.603
606.107
767.137
934.005
1064.86
1139.88
1165.24
1160.12
1142.27
1123.49
1108.76
1100.56
1098.7
1103.87
1114.89
1132.63
1155.51
1185.24
1219.79
1262.16
1309.43
1366.53
1428.95
1504.6
1586.25
1686.7
1794.11
1929.37
2072.93
2259.45
2456.36
2721.88
3001.69
3395.46
3812.99
4425.25
5077.48
6052.77
7065.11
8545.47
9954.75
11873.6
13439.6
15401.3
16993.6
18173.8
18804.2
14720
10673.6
4859.15
2709.38
2870.31
4463.37
5621.44
6446.63
6274.96
6012.87
5375.54
4900.65
4326.66
3932.3
3526.21
3256.65
2991.99
2812.09
2632.66
2502.77
2371.25
2267.09
2158.5
2062.09
1959.76
1862.43
1762.45
1667.44
1575.51
1490.68
1413.15
1343.09
1281.17
1224.48
1174.37
1126.11
1082.27
1037.09
994.444
948.238
903.249
853.781
804.864
752.117
700.314
646.962
596.986
549.124
377.157
379.752
390.417
420.6
488.119
606.764
767.746
934.423
1065.07
1139.93
1165.16
1159.95
1142.05
1123.25
1108.53
1100.34
1098.51
1103.7
1114.74
1132.51
1155.41
1185.15
1219.71
1262.08
1309.36
1366.46
1428.89
1504.54
1586.2
1686.65
1794.07
1929.33
2072.88
2259.39
2456.27
2721.74
3001.49
3395.18
3812.62
4424.8
5076.98
6052.28
7064.69
8545.24
9954.65
11873.6
13439.2
15400.5
16991.6
18172.7
18803.7
14721.1
10679.2
4863.72
2712.45
2871.09
4462.48
5619.16
6443.97
6272.23
6010.08
5372.97
4898.58
4325.13
3931.12
3525.22
3255.76
2991.21
2811.44
2632.15
2502.39
2370.97
2266.9
2158.37
2062
1959.71
1862.41
1762.44
1667.45
1575.52
1490.68
1413.15
1343.1
1281.19
1224.52
1174.44
1126.22
1082.4
1037.25
994.626
948.435
903.454
853.986
805.06
752.297
700.47
647.092
597.09
549.195
377.169
379.798
390.552
420.911
488.662
607.455
768.386
934.863
1065.29
1139.97
1165.08
1159.77
1141.81
1122.99
1108.28
1100.11
1098.3
1103.52
1114.59
1132.37
1155.29
1185.05
1219.62
1262
1309.28
1366.39
1428.82
1504.48
1586.14
1686.59
1794.01
1929.27
2072.82
2259.3
2456.15
2721.58
3001.25
3394.86
3812.21
4424.3
5076.42
6051.71
7064.19
8544.92
9954.45
11873.5
13438.7
15399.6
16989.4
18171.4
18803.3
14722.2
10685.1
4868.52
2715.71
2872
4461.66
5616.86
6441.23
6269.39
6007.17
5370.3
4896.41
4323.51
3929.88
3524.17
3254.81
2990.38
2810.75
2631.61
2501.97
2370.66
2266.68
2158.22
2061.89
1959.65
1862.38
1762.43
1667.44
1575.51
1490.67
1413.15
1343.1
1281.21
1224.56
1174.51
1126.31
1082.53
1037.41
994.808
948.634
903.662
854.195
805.262
752.486
700.635
647.233
597.206
549.277
377.181
379.846
390.693
421.238
489.231
608.179
769.058
935.324
1065.52
1140.02
1164.98
1159.58
1141.56
1122.72
1108.01
1099.86
1098.07
1103.32
1114.41
1132.22
1155.15
1184.93
1219.51
1261.9
1309.19
1366.3
1428.74
1504.4
1586.06
1686.51
1793.93
1929.19
2072.73
2259.2
2456.01
2721.38
3000.98
3394.5
3811.75
4423.75
5075.8
6051.08
7063.62
8544.52
9954.16
11873.3
13438.1
15398.5
16987
18170.1
18802.8
14723.5
10691.2
4873.58
2719.18
2873.05
4460.93
5614.57
6438.44
6266.46
6004.15
5367.51
4894.15
4321.82
3928.56
3523.06
3253.81
2989.51
2810.02
2631.03
2501.52
2370.34
2266.44
2158.04
2061.77
1959.57
1862.33
1762.41
1667.42
1575.49
1490.65
1413.13
1343.09
1281.21
1224.59
1174.57
1126.41
1082.66
1037.57
994.989
948.834
903.873
854.41
805.47
752.683
700.81
647.385
597.335
549.372
377.193
379.897
390.841
421.579
489.827
608.938
769.761
935.806
1065.76
1140.06
1164.87
1159.37
1141.29
1122.42
1107.72
1099.59
1097.83
1103.11
1114.23
1132.05
1155.01
1184.8
1219.39
1261.79
1309.09
1366.21
1428.64
1504.3
1585.97
1686.42
1793.84
1929.09
2072.63
2259.07
2455.85
2721.15
3000.68
3394.1
3811.25
4423.14
5075.11
6050.38
7062.97
8544.05
9953.77
11872.9
13437.3
15397.2
16984.4
18168.6
18802.3
14724.8
10697.7
4878.91
2722.88
2874.27
4460.29
5612.3
6435.6
6263.45
6001.03
5364.63
4891.8
4320.05
3927.19
3521.9
3252.77
2988.59
2809.24
2630.41
2501.05
2369.98
2266.18
2157.85
2061.63
1959.47
1862.27
1762.37
1667.39
1575.46
1490.62
1413.1
1343.07
1281.21
1224.61
1174.63
1126.5
1082.78
1037.72
995.171
949.035
904.088
854.629
805.685
752.889
700.994
647.549
597.476
549.479
377.206
379.949
390.996
421.936
490.449
609.73
770.495
936.309
1066
1140.1
1164.76
1159.14
1141
1122.11
1107.41
1099.3
1097.57
1102.88
1114.02
1131.87
1154.85
1184.66
1219.26
1261.67
1308.98
1366.1
1428.54
1504.2
1585.86
1686.31
1793.73
1928.98
2072.51
2258.93
2455.66
2720.9
3000.34
3393.66
3810.7
4422.49
5074.37
6049.61
7062.25
8543.49
9953.3
11872.5
13436.3
15395.8
16981.7
18167.1
18801.9
14726.3
10704.6
4884.53
2726.81
2875.67
4459.78
5610.07
6432.74
6260.37
5997.82
5361.66
4889.37
4318.22
3925.76
3520.69
3251.68
2987.63
2808.44
2629.76
2500.55
2369.6
2265.9
2157.64
2061.48
1959.37
1862.2
1762.32
1667.36
1575.43
1490.58
1413.06
1343.04
1281.2
1224.63
1174.68
1126.58
1082.9
1037.88
995.353
949.238
904.306
854.854
805.908
753.104
701.189
647.724
597.63
549.599
377.22
380.004
391.157
422.308
491.097
610.556
771.261
936.833
1066.26
1140.14
1164.64
1158.9
1140.69
1121.77
1107.08
1098.99
1097.3
1102.63
1113.81
1131.68
1154.68
1184.5
1219.12
1261.54
1308.85
1365.98
1428.42
1504.08
1585.75
1686.19
1793.61
1928.85
2072.36
2258.76
2455.45
2720.62
2999.97
3393.19
3810.11
4421.78
5073.57
6048.78
7061.46
8542.86
9952.74
11872
13435.3
15394.3
16978.8
18165.5
18801.5
14727.9
10711.9
4890.46
2731
2877.26
4459.41
5607.91
6429.87
6257.24
5994.53
5358.62
4886.88
4316.32
3924.27
3519.43
3250.55
2986.63
2807.59
2629.09
2500.02
2369.21
2265.6
2157.42
2061.31
1959.25
1862.12
1762.27
1667.31
1575.38
1490.54
1413.01
1343
1281.18
1224.64
1174.72
1126.67
1083.02
1038.03
995.536
949.444
904.528
855.084
806.137
753.327
701.394
647.91
597.796
549.732
377.234
380.061
391.325
422.695
491.772
611.415
772.058
937.378
1066.52
1140.18
1164.5
1158.64
1140.36
1121.42
1106.73
1098.67
1097
1102.37
1113.58
1131.48
1154.5
1184.33
1218.97
1261.39
1308.72
1365.84
1428.29
1503.95
1585.61
1686.06
1793.47
1928.7
2072.2
2258.57
2455.21
2720.31
2999.57
3392.67
3809.47
4421.02
5072.71
6047.89
7060.6
8542.16
9952.1
11871.4
13434.1
15392.6
16975.8
18163.8
18801.2
14729.8
10719.5
4896.71
2735.47
2879.08
4459.2
5605.83
6427.02
6254.07
5991.19
5355.51
4884.32
4314.37
3922.74
3518.14
3249.38
2985.6
2806.72
2628.38
2499.46
2368.79
2265.28
2157.18
2061.13
1959.12
1862.03
1762.2
1667.25
1575.32
1490.48
1412.96
1342.96
1281.16
1224.65
1174.77
1126.75
1083.14
1038.18
995.72
949.651
904.754
855.32
806.374
753.559
701.61
648.108
597.975
549.877
377.248
380.121
391.499
423.097
492.474
612.308
772.886
937.943
1066.8
1140.21
1164.36
1158.37
1140.02
1121.05
1106.37
1098.33
1096.69
1102.1
1113.33
1131.26
1154.3
1184.15
1218.8
1261.24
1308.57
1365.7
1428.14
1503.8
1585.47
1685.91
1793.32
1928.54
2072.02
2258.36
2454.95
2719.97
2999.14
3392.12
3808.79
4420.21
5071.8
6046.93
7059.67
8541.38
9951.39
11870.7
13432.8
15390.8
16972.6
18162.2
18801
14731.8
10727.6
4903.3
2740.23
2881.14
4459.18
5603.85
6424.19
6250.88
5987.79
5352.34
4881.71
4312.38
3921.16
3516.8
3248.17
2984.54
2805.81
2627.65
2498.89
2368.35
2264.95
2156.93
2060.94
1958.98
1861.93
1762.13
1667.19
1575.26
1490.41
1412.9
1342.91
1281.13
1224.65
1174.8
1126.82
1083.25
1038.33
995.904
949.861
904.984
855.561
806.619
753.8
701.836
648.318
598.168
550.035
377.264
380.182
391.68
423.515
493.201
613.235
773.745
938.531
1067.08
1140.25
1164.21
1158.09
1139.65
1120.66
1105.98
1097.97
1096.37
1101.8
1113.07
1131.03
1154.09
1183.96
1218.62
1261.07
1308.4
1365.54
1427.99
1503.65
1585.31
1685.74
1793.15
1928.36
2071.83
2258.12
2454.67
2719.61
2998.68
3391.54
3808.07
4419.35
5070.83
6045.91
7058.68
8540.55
9950.6
11869.9
13431.4
15388.8
16969.3
18160.4
18800.9
14734
10736.1
4910.26
2745.31
2883.45
4459.36
5601.99
6421.42
6247.69
5984.36
5349.12
4879.05
4310.34
3919.55
3515.42
3246.93
2983.45
2804.88
2626.89
2498.29
2367.89
2264.6
2156.67
2060.74
1958.83
1861.83
1762.05
1667.12
1575.19
1490.34
1412.83
1342.85
1281.09
1224.64
1174.84
1126.9
1083.37
1038.48
996.09
950.074
905.218
855.808
806.871
754.05
702.073
648.54
598.373
550.206
377.279
380.246
391.868
423.948
493.955
614.195
774.635
939.139
1067.37
1140.29
1164.05
1157.79
1139.27
1120.25
1105.58
1097.59
1096.02
1101.5
1112.8
1130.78
1153.87
1183.76
1218.43
1260.89
1308.23
1365.37
1427.82
1503.48
1585.14
1685.57
1792.96
1928.16
2071.61
2257.87
2454.36
2719.22
2998.18
3390.91
3807.31
4418.44
5069.81
6044.84
7057.63
8539.65
9949.74
11869.1
13429.9
15386.8
16965.9
18158.7
18800.9
14736.5
10745.2
4917.61
2750.71
2886.05
4459.77
5600.28
6418.7
6244.5
5980.9
5345.87
4876.35
4308.26
3917.9
3514.02
3245.67
2982.33
2803.92
2626.11
2497.68
2367.42
2264.24
2156.39
2060.53
1958.68
1861.71
1761.96
1667.04
1575.11
1490.26
1412.75
1342.79
1281.05
1224.64
1174.87
1126.97
1083.48
1038.63
996.277
950.289
905.457
856.062
807.131
754.31
702.321
648.775
598.592
550.391
377.296
380.312
392.062
424.396
494.736
615.189
775.557
939.768
1067.68
1140.32
1163.88
1157.48
1138.87
1119.82
1105.15
1097.19
1095.66
1101.17
1112.51
1130.52
1153.63
1183.54
1218.23
1260.7
1308.05
1365.19
1427.64
1503.29
1584.96
1685.38
1792.76
1927.94
2071.38
2257.6
2454.03
2718.8
2997.66
3390.26
3806.51
4417.49
5068.73
6043.71
7056.52
8538.69
9948.82
11868.2
13428.3
15384.6
16962.4
18157
18801.1
14739.3
10754.7
4925.36
2756.47
2888.95
4460.42
5598.73
6416.07
6241.33
5977.43
5342.59
4873.62
4306.15
3916.22
3512.59
3244.38
2981.18
2802.94
2625.31
2497.04
2366.94
2263.87
2156.1
2060.31
1958.51
1861.59
1761.87
1666.96
1575.03
1490.18
1412.67
1342.72
1281.01
1224.62
1174.9
1127.04
1083.59
1038.79
996.466
950.508
905.7
856.321
807.399
754.58
702.58
649.022
598.825
550.589
377.312
380.381
392.263
424.86
495.543
616.216
776.51
940.419
1067.99
1140.36
1163.7
1157.15
1138.46
1119.37
1104.71
1096.78
1095.29
1100.84
1112.21
1130.25
1153.38
1183.31
1218.02
1260.49
1307.85
1364.99
1427.45
1503.1
1584.76
1685.17
1792.55
1927.71
2071.12
2257.31
2453.68
2718.36
2997.1
3389.56
3805.66
4416.49
5067.61
6042.52
7055.35
8537.67
9947.84
11867.2
13426.6
15382.4
16958.8
18155.3
18801.4
14742.3
10764.8
4933.54
2762.59
2892.16
4461.35
5597.36
6413.54
6238.2
5973.95
5339.29
4870.86
4304.02
3914.52
3511.14
3243.06
2980.01
2801.93
2624.49
2496.4
2366.44
2263.49
2155.81
2060.08
1958.34
1861.47
1761.77
1666.87
1574.94
1490.09
1412.58
1342.64
1280.95
1224.61
1174.92
1127.11
1083.7
1038.94
996.656
950.729
905.948
856.587
807.675
754.859
702.85
649.281
599.071
550.8
377.33
380.452
392.471
425.338
496.376
617.277
777.494
941.091
1068.31
1140.39
1163.52
1156.81
1138.03
1118.9
1104.25
1096.35
1094.89
1100.48
1111.89
1129.96
1153.12
1183.07
1217.79
1260.28
1307.64
1364.79
1427.25
1502.89
1584.55
1684.95
1792.32
1927.47
2070.85
2256.99
2453.3
2717.89
2996.52
3388.84
3804.78
4415.45
5066.43
6041.28
7054.13
8536.6
9946.81
11866.1
13424.9
15380.1
16955.1
18153.7
18801.9
14745.7
10775.5
4942.16
2769.11
2895.72
4462.56
5596.2
6411.13
6235.12
5970.49
5335.98
4868.09
4301.87
3912.8
3509.66
3241.73
2978.83
2800.91
2623.65
2495.73
2365.93
2263.09
2155.51
2059.84
1958.17
1861.34
1761.67
1666.77
1574.84
1489.99
1412.49
1342.56
1280.9
1224.58
1174.94
1127.17
1083.81
1039.09
996.848
950.954
906.201
856.859
807.959
755.149
703.132
649.553
599.331
551.025
377.348
380.525
392.686
425.833
497.236
618.372
778.509
941.785
1068.64
1140.43
1163.33
1156.46
1137.58
1118.41
1103.77
1095.9
1094.49
1100.11
1111.56
1129.66
1152.85
1182.82
1217.56
1260.05
1307.42
1364.57
1427.03
1502.67
1584.33
1684.72
1792.08
1927.2
2070.56
2256.66
2452.9
2717.4
2995.91
3388.08
3803.86
4414.36
5065.21
6039.99
7052.85
8535.47
9945.72
11865
13423
15377.7
16951.3
18152.1
18802.7
14749.4
10786.7
4951.25
2776.03
2899.65
4464.08
5595.27
6408.86
6232.11
5967.05
5332.68
4865.31
4299.7
3911.06
3508.18
3240.39
2977.63
2799.88
2622.8
2495.06
2365.42
2262.7
2155.2
2059.6
1957.99
1861.21
1761.56
1666.68
1574.74
1489.89
1412.39
1342.48
1280.84
1224.56
1174.96
1127.24
1083.92
1039.24
997.043
951.182
906.459
857.139
808.252
755.448
703.425
649.838
599.605
551.264
377.366
380.6
392.907
426.343
498.123
619.5
779.555
942.5
1068.99
1140.46
1163.13
1156.09
1137.11
1117.91
1103.27
1095.43
1094.06
1099.73
1111.21
1129.35
1152.57
1182.55
1217.31
1259.81
1307.19
1364.34
1426.8
1502.44
1584.09
1684.47
1791.82
1926.92
2070.26
2256.3
2452.48
2716.88
2995.27
3387.28
3802.9
4413.23
5063.93
6038.65
7051.52
8534.3
9944.58
11863.9
13421.1
15375.2
16947.5
18150.6
18803.7
14753.5
10798.6
4960.84
2783.39
2903.96
4465.93
5594.57
6406.74
6229.18
5963.65
5329.38
4862.52
4297.53
3909.31
3506.68
3239.03
2976.42
2798.82
2621.94
2494.37
2364.89
2262.29
2154.88
2059.36
1957.81
1861.07
1761.45
1666.57
1574.64
1489.78
1412.29
1342.39
1280.77
1224.53
1174.98
1127.3
1084.03
1039.4
997.24
951.414
906.722
857.424
808.553
755.757
703.73
650.136
599.894
551.517
377.385
380.678
393.135
426.868
499.036
620.661
780.633
943.237
1069.34
1140.5
1162.92
1155.71
1136.63
1117.39
1102.76
1094.95
1093.62
1099.33
1110.85
1129.02
1152.27
1182.28
1217.05
1259.56
1306.95
1364.1
1426.56
1502.2
1583.84
1684.21
1791.54
1926.63
2069.93
2255.93
2452.04
2716.34
2994.6
3386.46
3801.9
4412.06
5062.62
6037.25
7050.14
8533.08
9943.39
11862.7
13419.1
15372.7
16943.7
18149.2
18805
14757.9
10811.1
4970.94
2791.2
2908.67
4468.14
5594.15
6404.79
6226.35
5960.29
5326.11
4859.75
4295.35
3907.56
3505.17
3237.66
2975.19
2797.76
2621.07
2493.68
2364.35
2261.88
2154.56
2059.11
1957.62
1860.93
1761.34
1666.47
1574.53
1489.67
1412.18
1342.29
1280.71
1224.5
1174.99
1127.36
1084.14
1039.55
997.439
951.65
906.991
857.717
808.863
756.077
704.046
650.447
600.196
551.784
377.405
380.758
393.37
427.409
499.976
621.856
781.742
943.996
1069.7
1140.53
1162.71
1155.31
1136.13
1116.85
1102.22
1094.45
1093.16
1098.92
1110.48
1128.69
1151.96
1181.99
1216.77
1259.3
1306.7
1363.85
1426.31
1501.94
1583.58
1683.94
1791.26
1926.32
2069.59
2255.54
2451.58
2715.77
2993.9
3385.6
3800.87
4410.84
5061.25
6035.82
7048.72
8531.82
9942.16
11861.4
13417.1
15370.1
16939.8
18147.8
18806.5
14762.8
10824.4
4981.58
2799.48
2913.81
4470.71
5594
6403.04
6223.62
5956.99
5322.86
4856.98
4293.18
3905.81
3503.66
3236.28
2973.96
2796.69
2620.18
2492.98
2363.81
2261.46
2154.24
2058.86
1957.44
1860.79
1761.23
1666.36
1574.42
1489.56
1412.07
1342.19
1280.64
1224.47
1175.01
1127.42
1084.26
1039.71
997.641
951.89
907.265
858.017
809.182
756.407
704.375
650.771
600.513
552.065
377.425
380.84
393.612
427.965
500.942
623.085
782.882
944.776
1070.08
1140.57
1162.48
1154.91
1135.61
1116.29
1101.67
1093.93
1092.68
1098.49
1110.09
1128.33
1151.63
1181.69
1216.49
1259.03
1306.43
1363.59
1426.05
1501.68
1583.31