/*--------------------------------*- C++ -*----------------------------------*\
| =========                 |                                                 |
| \\      /  F ield         | OpenFOAM: The Open Source CFD Toolbox           |
|  \\    /   O peration     | Version:  2412                                  |
|   \\  /    A nd           | Website:  www.openfoam.com                      |
|    \\/     M anipulation  |                                                 |
\*---------------------------------------------------------------------------*/
FoamFile
{
    version     2.0;
    format      ascii;
    arch        "LSB;label=32;scalar=64";
    class       volScalarField;
    location    "0.5";
    object      k;
}
// * * * * * * * * * * * * * * * * * * * * * * * * * * * * * * * * * * * * * //

dimensions      [0 2 -2 0 0 0 0];

internalField   nonuniform List<scalar> 
13068
(
37.5322
37.8307
38.7653
40.9798
45.1798
51.4188
58.4976
64.5152
68.2063
69.5643
69.3837
68.5694
67.707
67.0695
66.6948
66.5842
66.6854
67.0089
67.5028
68.2023
69.0443
70.0947
71.2697
72.6787
74.2006
76.0076
77.9171
80.1955
82.562
85.429
88.3607
91.9966
95.6626
100.352
105.014
111.18
117.228
125.527
133.612
145.064
156.086
171.817
186.289
206.398
223.088
245.039
260.559
280.311
294.708
304.038
307.402
257.157
208.317
116.063
87.0487
106.85
143.004
162.157
173.404
168.296
163.646
152.638
145.163
135.185
128.797
121.439
116.837
111.689
108.318
104.556
101.918
98.9854
96.6845
94.0976
91.7839
89.2016
86.729
84.1213
81.636
79.1901
76.9137
74.7964
72.8433
71.0767
69.4017
67.8821
66.3539
64.9303
63.3989
61.9241
60.2655
58.6252
56.7614
54.8918
52.815
50.7485
48.5668
46.5058
44.4913
37.5323
37.8309
38.7658
40.9808
45.1808
51.4195
58.4981
64.5163
68.2087
69.5679
69.388
68.5738
67.7112
67.0736
66.6988
66.5881
66.6893
67.0127
67.5067
68.2062
69.0483
70.0989
71.274
72.683
74.2051
76.0123
77.9219
80.2006
82.5675
85.4348
88.3671
92.0037
95.6703
100.36
105.023
111.189
117.237
125.537
133.622
145.076
156.099
171.831
186.307
206.42
223.113
245.068
260.59
280.341
294.733
304.063
307.424
257.186
208.362
116.096
87.0709
106.862
143.012
162.165
173.419
168.313
163.659
152.649
145.174
135.197
128.809
121.45
116.846
111.697
108.327
104.565
101.927
98.9936
96.6927
94.1056
91.7917
89.2091
86.7361
84.1282
81.6426
79.1966
76.92
74.8026
72.8493
71.0827
69.4079
67.8884
66.3604
64.9369
63.4055
61.9304
60.2712
58.6299
56.7648
54.8935
52.8149
50.7461
48.5622
46.4991
44.4832
37.5324
37.8313
38.7669
40.9826
45.1832
51.4216
58.4996
64.5179
68.2112
69.5715
69.392
68.578
67.7153
67.0775
66.7026
66.5919
66.693
67.0165
67.5106
68.2102
69.0524
70.1031
71.2783
72.6875
74.2098
76.0171
77.927
80.2059
82.5731
85.4409
88.3737
92.0109
95.6782
100.369
105.032
111.198
117.246
125.547
133.633
145.087
156.111
171.846
186.325
206.442
223.14
245.098
260.621
280.371
294.758
304.089
307.447
257.215
208.41
116.132
87.0947
106.874
143.02
162.173
173.433
168.328
163.671
152.659
145.185
135.209
128.82
121.459
116.854
111.705
108.335
104.573
101.935
99.0017
96.7009
94.1138
91.7996
89.2167
86.7435
84.1353
81.6495
79.2033
76.9264
74.8089
72.8555
71.0889
69.4142
67.8949
66.3671
64.9438
63.4124
61.937
60.2773
58.635
56.7688
54.8957
52.8153
50.7443
48.5583
46.4931
44.4758
37.5326
37.832
38.7685
40.9855
45.1871
51.4252
58.5022
64.52
68.2136
69.5746
69.3956
68.5816
67.7188
67.0809
66.7059
66.5952
66.6964
67.02
67.5141
68.2139
69.0562
70.107
71.2824
72.6918
74.2142
76.0217
77.9318
80.211
82.5785
85.4467
88.3801
92.018
95.6859
100.377
105.04
111.206
117.255
125.556
133.642
145.098
156.123
171.861
186.342
206.463
223.165
245.127
260.651
280.399
294.781
304.114
307.469
257.245
208.461
116.171
87.1193
106.886
143.027
162.179
173.445
168.341
163.681
152.667
145.194
135.219
128.83
121.468
116.861
111.712
108.342
104.581
101.942
99.0094
96.7086
94.1215
91.8071
89.224
86.7506
84.1422
81.6562
79.2098
76.9327
74.815
72.8615
71.0949
69.4203
67.9013
66.3738
64.9506
63.4193
61.9437
60.2835
58.6403
56.773
54.8983
52.8162
50.7431
48.555
46.4877
44.4691
37.5328
37.8328
38.7705
40.9895
45.1924
51.4303
58.5058
64.5224
68.2159
69.5773
69.3986
68.5846
67.7216
67.0836
66.7086
66.598
66.6994
67.023
67.5173
68.2172
69.0597
70.1107
71.2862
72.6957
74.2183
76.026
77.9363
80.2157
82.5836
85.4522
88.3862
92.0246
95.6931
100.385
105.048
111.214
117.263
125.564
133.651
145.107
156.134
171.874
186.358
206.483
223.189
245.154
260.679
280.426
294.802
304.136
307.49
257.273
208.514
116.212
87.1446
106.897
143.032
162.182
173.454
168.351
163.688
152.672
145.2
135.228
128.839
121.475
116.866
111.718
108.348
104.587
101.949
99.0163
96.7157
94.1287
91.8142
89.2309
86.7573
84.1488
81.6625
79.2159
76.9387
74.8208
72.8672
71.1007
69.4263
67.9075
66.3803
64.9574
63.4262
61.9504
60.2898
58.6458
56.7774
54.9011
52.8174
50.7422
48.5521
46.4829
44.4629
37.533
37.8338
38.7731
40.9944
45.1993
51.4371
58.5106
64.5253
68.218
69.5794
69.4008
68.5868
67.7237
67.0857
66.7108
66.6003
66.7018
67.0256
67.5201
68.2202
69.0628
70.1139
71.2896
72.6993
74.2221
76.03
77.9405
80.2201
82.5883
85.4573
88.3918
92.0308
95.6998
100.392
105.055
111.221
117.27
125.572
133.659
145.116
156.144
171.885
186.373
206.501
223.211
245.179
260.705
280.45
294.82
304.157
307.509
257.3
208.568
116.255
87.1705
106.906
143.036
162.184
173.461
168.358
163.692
152.674
145.204
135.234
128.846
121.48
116.871
111.722
108.353
104.593
101.955
99.0224
96.7221
94.1353
91.8207
89.2373
86.7635
84.1549
81.6685
79.2217
76.9442
74.8262
72.8725
71.1061
69.432
67.9135
66.3867
64.964
63.433
61.9571
60.2962
58.6514
56.782
54.9042
52.8189
50.7417
48.5497
46.4786
44.4572
37.5334
37.835
38.7763
41.0004
45.2077
51.4454
58.5164
64.5285
68.22
69.5811
69.4024
68.5882
67.7251
67.0871
66.7123
66.602
66.7037
67.0277
67.5224
68.2227
69.0655
70.1168
71.2927
72.7025
74.2255
76.0335
77.9442
80.2241
82.5926
85.462
88.3969
92.0365
95.706
100.398
105.062
111.228
117.277
125.578
133.666
145.123
156.152
171.896
186.386
206.518
223.231
245.203
260.728
280.471
294.836
304.175
307.527
257.326
208.624
116.3
87.197
106.916
143.038
162.183
173.464
168.362
163.693
152.674
145.206
135.238
128.851
121.484
116.873
111.725
108.357
104.597
101.96
99.0277
96.7278
94.1412
91.8266
89.2432
86.7693
84.1605
81.674
79.227
76.9494
74.8312
72.8775
71.1112
69.4373
67.9193
66.3928
64.9705
63.4397
61.9638
60.3025
58.657
56.7867
54.9075
52.8207
50.7416
48.5477
46.4748
44.452
37.5337
37.8364
38.7799
41.0074
45.2176
51.4553
58.5234
64.5321
68.2217
69.5822
69.4033
68.5889
67.7257
67.0878
66.7131
66.6031
66.705
67.0293
67.5243
68.2247
69.0678
70.1193
71.2954
72.7054
74.2285
76.0367
77.9476
80.2277
82.5965
85.4662
88.4016
92.0416
95.7117
100.404
105.068
111.234
117.282
125.584
133.671
145.129
156.16
171.905
186.397
206.533
223.25
245.224
260.749
280.49
294.848
304.191
307.542
257.35
208.682
116.348
87.2243
106.924
143.04
162.18
173.466
168.364
163.691
152.671
145.206
135.241
128.854
121.486
116.874
111.726
108.359
104.6
101.964
99.0322
96.7327
94.1464
91.8319
89.2485
86.7746
84.1658
81.679
79.2319
76.9541
74.8358
72.8822
71.116
69.4424
67.9248
66.3988
64.9769
63.4463
61.9704
60.3089
58.6628
56.7916
54.9111
52.8229
50.7418
48.5462
46.4715
44.4474
37.5341
37.8381
38.7841
41.0155
45.229
51.4667
58.5314
64.5362
68.2233
69.5827
69.4034
68.5889
67.7256
67.0877
66.7134
66.6036
66.7058
67.0304
67.5257
68.2264
69.0697
70.1214
71.2977
72.7079
74.2311
76.0395
77.9506
80.2309
82.6
85.47
88.4058
92.0463
95.7167
100.409
105.073
111.239
117.287
125.588
133.676
145.134
156.165
171.912
186.408
206.547
223.266
245.243
260.768
280.507
294.857
304.205
307.556
257.373
208.742
116.398
87.2524
106.932
143.04
162.174
173.464
168.362
163.686
152.665
145.203
135.241
128.855
121.487
116.874
111.726
108.36
104.603
101.967
99.0358
96.737
94.151
91.8367
89.2533
86.7794
84.1705
81.6837
79.2364
76.9584
74.8401
72.8864
71.1205
69.4472
67.9301
66.4046
64.9831
63.4528
61.977
60.3154
58.6687
56.7967
54.9149
52.8253
50.7425
48.5451
46.4687
44.4432
37.5346
37.8399
38.7888
41.0246
45.242
51.4798
58.5406
64.5406
68.2247
69.5828
69.4029
68.5881
67.7247
67.087
66.7129
66.6035
66.7061
67.0311
67.5266
68.2276
69.0712
70.1231
71.2996
72.7099
74.2334
76.0419
77.9532
80.2337
82.603
85.4733
88.4096
92.0505
95.7213
100.414
105.077
111.243
117.291
125.592
133.68
145.138
156.17
171.919
186.416
206.559
223.281
245.261
260.784
280.52
294.863
304.217
307.568
257.396
208.803
116.45
87.2816
106.94
143.039
162.167
173.46
168.358
163.678
152.656
145.198
135.239
128.855
121.486
116.872
111.725
108.36
104.604
101.969
99.0387
96.7405
94.1549
91.8408
89.2576
86.7837
84.1749
81.6879
79.2404
76.9624
74.8439
72.8904
71.1246
69.4518
67.9351
66.4101
64.9892
63.4593
61.9835
60.3218
58.6746
56.8019
54.9189
52.828
50.7435
48.5444
46.4664
44.4396
37.5351
37.8419
38.794
41.0347
45.2564
51.4944
58.5508
64.5454
68.2259
69.5823
69.4017
68.5865
67.7231
67.0856
66.7119
66.6028
66.7059
67.0312
67.5271
68.2284
69.0723
70.1244
71.3011
72.7116
74.2353
76.044
77.9554
80.2361
82.6057
85.4763
88.4129
92.0542
95.7253
100.418
105.081
111.247
117.294
125.595
133.682
145.141
156.173
171.924
186.423
206.57
223.295
245.276
260.798
280.532
294.867
304.226
307.579
257.417
208.867
116.505
87.3119
106.947
143.037
162.158
173.454
168.35
163.668
152.645
145.19
135.235
128.852
121.483
116.869
111.723
108.359
104.604
101.97
99.0407
96.7432
94.1583
91.8444
89.2613
86.7876
84.1788
81.6917
79.2441
76.9659
74.8474
72.8939
71.1284
69.456
67.9399
66.4155
64.9951
63.4656
61.9901
60.3283
58.6807
56.8073
54.9232
52.8311
50.7448
48.5442
46.4647
44.4365
37.5356
37.8441
38.7997
41.0459
45.2724
51.5105
58.5621
64.5505
68.2269
69.5812
69.3997
68.5842
67.7208
67.0835
66.7102
66.6016
66.7051
67.0308
67.5271
68.2287
69.0729
70.1253
71.3022
72.7129
74.2368
76.0456
77.9573
80.2381
82.6079
85.4787
88.4157
92.0574
95.7288
100.421
105.085
111.249
117.297
125.597
133.684
145.142
156.175
171.927
186.429
206.579
223.306
245.29
260.809
280.541
294.867
304.233
307.588
257.437
208.933
116.562
87.3435
106.954
143.034
162.148
173.446
168.341
163.655
152.632
145.181
135.23
128.849
121.479
116.864
111.719
108.357
104.603
101.97
99.042
96.7454
94.1609
91.8474
89.2646
86.791
84.1822
81.6951
79.2474
76.9691
74.8505
72.8971
71.1319
69.46
67.9445
66.4207
65.0009
63.4719
61.9966
60.3348
58.6868
56.8128
54.9277
52.8344
50.7466
48.5445
46.4635
44.434
37.5362
37.8465
38.806
41.0581
45.2898
51.5282
58.5744
64.5561
68.2277
69.5797
69.3971
68.5811
67.7177
67.0807
66.7078
66.5998
66.7037
67.03
67.5266
68.2287
69.0732
70.1258
71.303
72.7139
74.2379
76.0469
77.9587
80.2397
82.6097
85.4808
88.4181
92.0601
95.7317
100.424
105.087
111.251
117.298
125.597
133.684
145.143
156.176
171.929
186.434
206.586
223.316
245.301
260.819
280.547
294.865
304.239
307.596
257.457
209.001
116.622
87.3766
106.962
143.031
162.135
173.435
168.328
163.639
152.616
145.169
135.222
128.843
121.473
116.858
111.714
108.353
104.601
101.969
99.0425
96.7468
94.163
91.8498
89.2673
86.794
84.1853
81.6981
79.2502
76.9718
74.8533
72.9
71.1351
69.4637
67.9488
66.4257
65.0065
63.478
62.0031
60.3414
58.6931
56.8186
54.9325
52.8381
50.7488
48.5452
46.4628
44.432
37.5369
37.8491
38.8127
41.0713
45.3088
51.5474
58.5878
64.562
68.2284
69.5777
69.3939
68.5773
67.7138
67.0772
66.7048
66.5974
66.7019
67.0286
67.5257
68.2282
69.073
70.1259
71.3033
72.7144
74.2386
76.0478
77.9597
80.2409
82.6111
85.4824
88.42
92.0622
95.7341
100.427
105.089
111.253
117.299
125.597
133.684
145.142
156.176
171.93
186.437
206.593
223.324
245.311
260.826
280.552
294.86
304.242
307.603
257.476
209.072
116.686
87.4115
106.97
143.028
162.121
173.422
168.314
163.621
152.598
145.155
135.213
128.836
121.466
116.851
111.707
108.349
104.598
101.968
99.0423
96.7476
94.1645
91.8517
89.2696
86.7965
84.188
81.7007
79.2527
76.9742
74.8557
72.9026
71.138
69.4672
67.9529
66.4306
65.0121
63.4842
62.0096
60.348
58.6995
56.8245
54.9375
52.8421
50.7513
48.5464
46.4626
44.4305
37.5376
37.8519
38.82
41.0855
45.3292
51.5682
58.6023
64.5683
68.2288
69.5751
69.3899
68.5728
67.7093
67.073
66.7012
66.5944
66.6995
67.0268
67.5244
68.2272
69.0724
70.1256
71.3033
72.7146
74.239
76.0483
77.9604
80.2417
82.6121
85.4836
88.4215
92.0639
95.7359
100.428
105.09
111.253
117.299
125.596
133.682
145.14
156.174
171.93
186.438
206.597
223.331
245.319
260.831
280.554
294.853
304.244
307.609
257.495
209.146
116.752
87.4484
106.978
143.024
162.106
173.407
168.297
163.6
152.577
145.14
135.202
128.827
121.457
116.842
111.7
108.343
104.594
101.966
99.0414
96.7477
94.1654
91.8531
89.2714
86.7986
84.1902
81.7029
79.2548
76.9763
74.8577
72.9048
71.1406
69.4704
67.9569
66.4353
65.0175
63.4902
62.016
60.3546
58.706
56.8306
54.9428
52.8465
50.7543
48.548
46.4629
44.4295
37.5383
37.8549
38.8279
41.1008
45.3512
51.5905
58.6178
64.575
68.2291
69.5721
69.3853
68.5675
67.704
67.0682
66.697
66.5908
66.6966
67.0244
67.5226
68.2259
69.0714
70.125
71.3029
72.7144
74.239
76.0484
77.9607
80.2421
82.6127
85.4843
88.4225
92.0651
95.7372
100.429
105.091
111.253
117.298
125.595
133.679
145.137
156.171
171.928
186.439
206.601
223.336
245.326
260.833
280.554
294.843
304.244
307.614
257.514
209.223
116.822
87.4874
106.987
143.02
162.09
173.391
168.277
163.577
152.554
145.122
135.189
128.817
121.447
116.832
111.691
108.336
104.589
101.962
99.0398
96.7472
94.1658
91.8541
89.2728
86.8003
84.1921
81.7048
79.2566
76.9779
74.8595
72.9067
71.143
69.4734
67.9606
66.4398
65.0228
63.4962
62.0225
60.3613
58.7126
56.8369
54.9483
52.8512
50.7576
48.5502
46.4638
44.4291
37.5391
37.8581
38.8362
41.1171
45.3746
51.6143
58.6344
64.582
68.2293
69.5685
69.38
68.5615
67.698
67.0626
66.6921
66.5866
66.6931
67.0216
67.5203
68.2241
69.07
70.1239
71.3021
72.7138
74.2386
76.0482
77.9606
80.2421
82.6128
85.4847
88.423
92.0658
95.738
100.43
105.091
111.252
117.296
125.592
133.676
145.133
156.167
171.926
186.438
206.603
223.34
245.33
260.834
280.551
294.831
304.242
307.618
257.533
209.303
116.895
87.5289
106.997
143.016
162.073
173.373
168.256
163.552
152.53
145.103
135.175
128.806
121.436
116.821
111.682
108.328
104.584
101.959
99.0375
96.7462
94.1656
91.8545
89.2738
86.8017
84.1937
81.7063
79.258
76.9793
74.8608
72.9083
71.145
69.4761
67.9641
66.4442
65.028
63.5021
62.029
60.3681
58.7193
56.8434
54.9541
52.8562
50.7614
48.5528
46.4653
44.4292
37.5399
37.8615
38.8451
41.1344
45.3995
51.6397
58.652
64.5895
68.2292
69.5645
69.374
68.5548
67.6913
67.0564
66.6866
66.5819
66.6892
67.0183
67.5176
68.2219
69.0683
70.1225
71.3009
72.7129
74.2378
76.0475
77.9601
80.2418
82.6126
85.4846
88.4231
92.0661
95.7382
100.43
105.09
111.251
117.293
125.588
133.671
145.128
156.162
171.921
186.435
206.603
223.342
245.334
260.833
280.547
294.817
304.239
307.621
257.553
209.387
116.973
87.5731
107.009
143.013
162.055
173.353
168.233
163.525
152.503
145.081
135.159
128.793
121.424
116.809
111.671
108.32
104.577
101.954
99.0345
96.7445
94.1649
91.8544
89.2743
86.8026
84.1948
81.7074
79.2591
76.9803
74.8619
72.9096
71.1468
69.4786
67.9675
66.4485
65.0331
63.508
62.0354
60.3749
58.7262
56.8501
54.9602
52.8616
50.7656
48.5558
46.4673
44.4299
37.5408
37.8651
38.8544
41.1528
45.4259
51.6665
58.6707
64.5972
68.229
69.5599
69.3674
68.5474
67.6839
67.0495
66.6804
66.5766
66.6846
67.0145
67.5144
68.2192
69.0661
70.1206
71.2994
72.7116
74.2367
76.0465
77.9592
80.241
82.612
85.4841
88.4228
92.0658
95.738
100.429
105.089
111.249
117.29
125.584
133.666
145.122
156.156
171.916
186.432
206.603
223.343
245.335
260.83
280.541
294.8
304.235
307.625
257.572
209.475
117.054
87.6203
107.022
143.01
162.037
173.332
168.208
163.496
152.474
145.059
135.142
128.779
121.41
116.795
111.659
108.31
104.57
101.949
99.031
96.7423
94.1637
91.8539
89.2744
86.8032
84.1957
81.7083
79.2598
76.981
74.8627
72.9107
71.1484
69.4809
67.9707
66.4526
65.0381
63.5139
62.0419
60.3818
58.7332
56.857
54.9666
52.8673
50.7702
48.5594
46.4698
44.4312
37.5418
37.8689
38.8643
41.1721
45.4537
51.6949
58.6903
64.6054
68.2286
69.5549
69.3602
68.5393
67.6757
67.0419
66.6737
66.5707
66.6796
67.0102
67.5108
68.2162
69.0635
70.1184
71.2975
72.7099
74.2352
76.0452
77.958
80.2399
82.611
85.4831
88.422
92.0651
95.7372
100.428
105.087
111.246
117.286
125.578
133.659
145.115
156.149
171.91
186.427
206.601
223.342
245.335
260.825
280.532
294.782
304.23
307.627
257.593
209.566
117.14
87.6707
107.037
143.008
162.018
173.31
168.181
163.465
152.444
145.034
135.124
128.763
121.395
116.781
111.646
108.299
104.562
101.942
99.0268
96.7396
94.162
91.853
89.2742
86.8035
84.1962
81.7088
79.2602
76.9813
74.8631
72.9114
71.1497
69.483
67.9737
66.4566
65.0431
63.5197
62.0484
60.3888
58.7404
56.8641
54.9732
52.8733
50.7752
48.5635
46.4729
44.433
37.5428
37.8728
38.8748
41.1925
45.483
51.7247
58.7111
64.6139
68.2281
69.5494
69.3523
68.5304
67.6669
67.0336
66.6663
66.5643
66.6741
67.0055
67.5068
68.2127
69.0605
70.1158
71.2952
72.7078
74.2333
76.0434
77.9564
80.2383
82.6095
85.4818
88.4207
92.0639
95.7359
100.426
105.085
111.242
117.281
125.572
133.652
145.106
156.14
171.902
186.421
206.598
223.34
245.334
260.818
280.522
294.761
304.223
307.63
257.614
209.662
117.23
87.7247
107.053
143.007
161.999
173.287
168.153
163.432
152.412
145.008
135.104
128.747
121.379
116.766
111.632
108.288
104.553
101.936
99.022
96.7363
94.1599
91.8517
89.2736
86.8034
84.1964
81.709
79.2604
76.9814
74.8633
72.9119
71.1508
69.4849
67.9765
66.4604
65.0479
63.5254
62.055
60.3959
58.7477
56.8714
54.9802
52.8798
50.7807
48.568
46.4766
44.4354
37.5438
37.877
38.8857
41.2139
45.5138
51.7561
58.7328
64.6228
68.2274
69.5434
69.3437
68.5208
67.6573
67.0247
66.6583
66.5573
66.668
67.0002
67.5023
68.2088
69.0571
70.1128
71.2925
72.7054
74.2311
76.0413
77.9544
80.2364
82.6077
85.48
88.4191
92.0622
95.734
100.424
105.081
111.238
117.275
125.565
133.643
145.097
156.13
171.893
186.414
206.594
223.337
245.331
260.81
280.511
294.738
304.216
307.633
257.637
209.762
117.325
87.7826
107.073
143.008
161.98
173.263
168.124
163.398
152.378
144.981
135.082
128.729
121.362
116.749
111.617
108.275
104.543
101.928
99.0168
96.7326
94.1573
91.85
89.2726
86.803
84.1963
81.7089
79.2602
76.9812
74.8632
72.9122
71.1516
69.4866
67.9792
66.4642
65.0527
63.5312
62.0615
60.403
58.7552
56.8789
54.9874
52.8866
50.7866
48.5731
46.4808
44.4383
37.5449
37.8814
38.8972
41.2363
45.5461
51.7889
58.7555
64.632
68.2265
69.5369
69.3345
68.5106
67.647
67.0151
66.6497
66.5497
66.6614
66.9945
67.4973
68.2044
69.0533
70.1094
71.2894
72.7026
74.2285
76.0388
77.952
80.2341
82.6055
85.4778
88.4169
92.06
95.7317
100.421
105.078
111.233
117.269
125.557
133.634
145.087
156.12
171.884
186.406
206.588
223.333
245.327
260.8
280.497
294.714
304.208
307.637
257.661
209.868
117.426
87.8447
107.094
143.01
161.961
173.239
168.093
163.362
152.343
144.952
135.06
128.71
121.344
116.732
111.602
108.262
104.532
101.92
99.0109
96.7284
94.1543
91.8479
89.2714
86.8023
84.196
81.7086
79.2598
76.9807
74.8629
72.9121
71.1522
69.4881
67.9818
66.4678
65.0575
63.5369
62.0681
60.4102
58.7628
56.8867
54.995
52.8938
50.7929
48.5787
46.4856
44.4418
37.546
37.886
38.9092
41.2597
45.5798
51.8232
58.7793
64.6416
68.2255
69.53
69.3247
68.4996
67.636
67.0048
66.6404
66.5415
66.6543
66.9883
67.4919
68.1997
69.0491
70.1056
71.286
72.6994
74.2255
76.036
77.9493
80.2314
82.6029
85.4752
88.4144
92.0574
95.7289
100.418
105.073
111.227
117.262
125.549
133.624
145.075
156.108
171.873
186.396
206.582
223.327
245.321
260.788
280.482
294.688
304.199
307.64
257.686
209.978
117.531
87.9113
107.119
143.013
161.943
173.214
168.061
163.325
152.307
144.922
135.037
128.69
121.326
116.714
111.585
108.248
104.521
101.912
99.0046
96.7238
94.151
91.8455
89.2698
86.8014
84.1953
81.708
79.2591
76.98
74.8622
72.9119
71.1527
69.4894
67.9842
66.4714
65.0622
63.5427
62.0748
60.4176
58.7706
56.8947
55.0028
52.9013
50.7997
48.5847
46.491
44.446
37.5472
37.8908
38.9217
41.2841
45.6149
51.859
58.8041
64.6516
68.2243
69.5225
69.3142
68.4879
67.6243
66.9938
66.6305
66.5328
66.6466
66.9816
67.486
68.1945
69.0445
70.1015
71.2822
72.6959
74.2222
76.0328
77.9462
80.2284
82.5999
85.4722
88.4114
92.0543
95.7255
100.414
105.068
111.221
117.254
125.539
133.613
145.063
156.095
171.861
186.386
206.575
223.32
245.315
260.775
280.465
294.66
304.189
307.645
257.714
210.094
117.643
87.9827
107.147
143.019
161.926
173.188
168.029
163.287
152.269
144.892
135.012
128.669
121.306
116.694
111.568
108.234
104.51
101.903
98.9979
96.7188
94.1473
91.8428
89.268
86.8002
84.1945
81.7071
79.2581
76.979
74.8614
72.9114
71.1529
69.4906
67.9865
66.4748
65.0668
63.5484
62.0815
60.425
58.7786
56.9029
55.011
52.9093
50.807
48.5914
46.497
44.4507
37.5484
37.8958
38.9347
41.3096
45.6515
51.8963
58.8298
64.6619
68.2229
69.5147
69.3032
68.4756
67.612
66.9822
66.62
66.5235
66.6385
66.9745
67.4797
68.189
69.0395
70.097
71.2781
72.6919
74.2185
76.0292
77.9428
80.225
82.5965
85.4688
88.408
92.0507
95.7217
100.409
105.063
111.214
117.245
125.529
133.601
145.05
156.082
171.848
186.375
206.566
223.312
245.307
260.76
280.447
294.631
304.18
307.65
257.743
210.215
117.76
88.0593
107.179
143.028
161.909
173.163
167.996
163.248
152.231
144.86
134.987
128.648
121.285
116.675
111.55
108.219
104.497
101.893
98.9907
96.7134
94.1432
91.8397
89.2658
86.7987
84.1934
81.706
79.2569
76.9778
74.8603
72.9108
71.1529
69.4916
67.9887
66.4782
65.0714
63.5541
62.0882
60.4326
58.7867
56.9114
55.0195
52.9176
50.8147
48.5985
46.5036
44.456
37.5497
37.901
38.9482
41.336
45.6895
51.935
58.8566
64.6726
68.2214
69.5063
69.2915
68.4625
67.5989
66.9699
66.6089
66.5137
66.6298
66.9669
67.473
68.183
69.0341
70.092
71.2735
72.6877
74.2144
76.0253
77.9389
80.2212
82.5928
85.465
88.4041
92.0467
95.7173
100.404
105.057
111.206
117.236
125.518
133.588
145.036
156.067
171.834
186.362
206.557
223.303
245.298
260.744
280.428
294.601
304.17
307.656
257.775
210.342
117.884
88.1415
107.215
143.038
161.894
173.138
167.962
163.208
152.191
144.827
134.961
128.625
121.264
116.654
111.531
108.203
104.484
101.883
98.9831
96.7077
94.1389
91.8364
89.2635
86.7971
84.192
81.7047
79.2555
76.9763
74.859
72.9099
71.1528
69.4925
67.9907
66.4815
65.0759
63.5598
62.095
60.4402
58.7951
56.9202
55.0283
52.9264
50.8229
48.6062
46.5108
44.4619
37.5511
37.9063
38.9623
41.3635
45.7289
51.9751
58.8844
64.6836
68.2198
69.4975
69.2791
68.4488
67.5851
66.957
66.5972
66.5032
66.6206
66.9587
67.4658
68.1765
69.0283
70.0867
71.2686
72.6831
74.21
76.021
77.9347
80.217
82.5886
85.4608
88.3999
92.0422
95.7125
100.399
105.05
111.198
117.226
125.506
133.574
145.021
156.051
171.819
186.349
206.546
223.293
245.288
260.727
280.407
294.569
304.16
307.664
257.81
210.476
118.014
88.2295
107.255
143.052
161.88
173.113
167.928
163.168
152.151
144.793
134.934
128.602
121.242
116.633
111.512
108.186
104.471
101.873
98.9751
96.7016
94.1342
91.8328
89.2609
86.7952
84.1905
81.7032
79.2539
76.9746
74.8575
72.9088
71.1525
69.4932
67.9927
66.4848
65.0805
63.5656
62.1019
60.448
58.8036
56.9292
55.0375
52.9355
50.8315
48.6144
46.5185
44.4684
37.5524
37.9119
38.9768
41.392
45.7698
52.0168
58.9131
64.695
68.218
69.4883
69.2662
68.4344
67.5706
66.9434
66.5849
66.4923
66.6109
66.9502
67.4582
68.1697
69.0221
70.0811
71.2634
72.6781
74.2052
76.0163
77.9302
80.2124
82.5841
85.4562
88.3952
92.0373
95.7072
100.393
105.043
111.189
117.215
125.493
133.56
145.005
156.035
171.803
186.334
206.535
223.282
245.277
260.708
280.385
294.536
304.15
307.673
257.847
210.616
118.151
88.3238
107.299
143.069
161.868
173.089
167.893
163.127
152.11
144.759
134.906
128.579
121.22
116.612
111.492
108.169
104.457
101.862
98.9668
96.6952
94.1293
91.8291
89.2581
86.7932
84.1888
81.7015
79.2521
76.9728
74.8558
72.9076
71.152
69.4939
67.9946
66.4879
65.085
63.5713
62.1089
60.4559
58.8123
56.9384
55.047
52.9451
50.8407
48.6232
46.5269
44.4755
37.5539
37.9177
38.9919
41.4214
45.8121
52.0598
58.9428
64.7067
68.2161
69.4786
69.2527
68.4193
67.5555
66.9291
66.572
66.4807
66.6007
66.9411
67.4501
68.1625
69.0156
70.075
71.2577
72.6727
74.2001
76.0113
77.9253
80.2075
82.5792
85.4512
88.3901
92.0319
95.7014
100.386
105.035
111.18
117.204
125.48
133.545
144.988
156.017
171.786
186.319
206.523
223.271
245.265
260.688
280.362
294.503
304.14
307.683
257.888
210.763
118.296
88.4247
107.348
143.089
161.858
173.066
167.859
163.085
152.068
144.724
134.878
128.555
121.197
116.589
111.472
108.152
104.443
101.85
98.9582
96.6886
94.1241
91.8251
89.2552
86.791
84.187
81.6996
79.2501
76.9707
74.8539
72.9061
71.1514
69.4944
67.9963
66.4911
65.0895
63.5771
62.1159
60.464
58.8212
56.9479
55.0568
52.9551
50.8503
48.6326
46.536
44.4832
37.5553
37.9237
39.0076
41.4519
45.8559
52.1043
58.9735
64.7188
68.214
69.4685
69.2385
68.4035
67.5397
66.9142
66.5584
66.4686
66.5899
66.9316
67.4416
68.1548
69.0086
70.0686
71.2517
72.667
74.1946
76.006
77.92
80.2023
82.5739
85.4458
88.3846
92.0261
95.6951
100.379
105.027
111.17
117.192
125.466
133.528
144.971
155.999
171.769
186.303
206.51
223.258
245.253
260.668
280.338
294.468
304.131
307.695
257.931
210.918
118.448
88.5326
107.403
143.113
161.85
173.043
167.824
163.043
152.026
144.689
134.849
128.53
121.174
116.567
111.451
108.134
104.428
101.839
98.9492
96.6817
94.1188
91.8209
89.2521
86.7886
84.185
81.6976
79.2479
76.9685
74.8518
72.9045
71.1507
69.4947
67.9981
66.4942
65.094
63.583
62.123
60.4721
58.8303
56.9577
55.067
52.9655
50.8604
48.6424
46.5456
44.4916
37.5569
37.9299
39.0237
41.4834
45.901
52.1502
59.0052
64.7313
68.2118
69.4579
69.2238
68.387
67.5231
66.8986
66.5443
66.456
66.5787
66.9216
67.4327
68.1468
69.0013
70.0618
71.2454
72.6609
74.1888
76.0003
77.9144
80.1966
82.5683
85.44
88.3786
92.0198
95.6884
100.371
105.018
111.159
117.179
125.451
133.511
144.952
155.979
171.75
186.286
206.496
223.245
245.239
260.646
280.313
294.433
304.122
307.71
257.979
211.079
118.607
88.6477
107.463
143.141
161.844
173.022
167.79
163.001
151.984
144.653
134.82
128.505
121.15
116.544
111.43
108.115
104.413
101.827
98.9401
96.6746
94.1132
91.8165
89.2488
86.7861
84.1828
81.6954
79.2456
76.9661
74.8496
72.9028
71.1498
69.495
67.9997
66.4972
65.0985
63.5888
62.1302
60.4805
58.8397
56.9678
55.0776
52.9763
50.871
48.6529
46.5559
44.5006
37.5584
37.9362
39.0404
41.5158
45.9475
52.1975
59.0379
64.7441
68.2094
69.4469
69.2085
68.3699
67.5059
66.8824
66.5295
66.4428
66.5669
66.9111
67.4233
68.1383
68.9935
70.0546
71.2386
72.6545
74.1826
75.9942
77.9084
80.1906
82.5622
85.4339
88.3723
92.0131
95.6812
100.363
105.008
111.148
117.166
125.435
133.494
144.933
155.959
171.731
186.269
206.482
223.231
245.225
260.623
280.287
294.397
304.114
307.726
258.03
211.249
118.775
88.7706
107.528
143.173
161.841
173.001
167.757
162.959
151.941
144.617
134.791
128.479
121.125
116.52
111.408
108.096
104.397
101.814
98.9307
96.6673
94.1075
91.812
89.2455
86.7835
84.1806
81.6931
79.2431
76.9636
74.8473
72.901
71.1488
69.4952
68.0013
66.5003
65.103
63.5948
62.1376
60.489
58.8492
56.9781
55.0885
52.9875
50.8822
48.6639
46.5668
44.5102
37.5601
37.9428
39.0575
41.5493
45.9955
52.2463
59.0715
64.7573
68.2069
69.4354
69.1925
68.3521
67.4881
66.8655
66.5141
66.429
66.5547
66.9002
67.4135
68.1294
68.9854
70.0471
71.2315
72.6477
74.1761
75.9878
77.902
80.1843
82.5558
85.4273
88.3655
92.006
95.6735
100.354
104.998
111.136
117.152
125.419
133.475
144.913
155.938
171.711
186.25
206.467
223.216
245.21
260.599
280.261
294.36
304.106
307.745
258.085
211.427
118.952
88.9015
107.6
143.209
161.841
172.983
167.724
162.917
151.899
144.58
134.761
128.453
121.101
116.496
111.386
108.077
104.382
101.802
98.9211
96.6598
94.1016
91.8074
89.242
86.7808
84.1782
81.6907
79.2405
76.9609
74.8448
72.899
71.1477
69.4954
68.0028
66.5033
65.1075
63.6007
62.145
60.4976
58.859
56.9888
55.0997
52.9992
50.8938
48.6756
46.5784
44.5205
37.5618
37.9496
39.0752
41.5838
46.0449
52.2964
59.1061
64.7708
68.2043
69.4235
69.176
68.3337
67.4695
66.848
66.4982
66.4147
66.5419
66.8888
67.4033
68.1201
68.9769
70.0392
71.2241
72.6406
74.1692
75.981
77.8954
80.1776
82.5491
85.4204
88.3584
91.9984
95.6653
100.345
104.988
111.123
117.137
125.402
133.456
144.892
155.917
171.69
186.231
206.451
223.201
245.194
260.575
280.233
294.323
304.1
307.766
258.145
211.613
119.138
89.0409
107.679
143.25
161.844
172.966
167.692
162.875
151.856
144.544
134.731
128.427
121.076
116.472
111.364
108.058
104.366
101.789
98.9113
96.6522
94.0957
91.8028
89.2385
86.7781
84.1758
81.6881
79.2378
76.9581
74.8422
72.8969
71.1465
69.4954
68.0043
66.5063
65.1121
63.6068
62.1525
60.5064
58.869
56.9997
55.1113
53.0114
50.9059
48.6878
46.5906
44.5314
37.5635
37.9566
39.0935
41.6192
46.0956
52.3479
59.1416
64.7847
68.2015
69.4112
69.1589
68.3146
67.4503
66.8299
66.4816
66.3998
66.5287
66.8769
67.3926
68.1104
68.968
70.0309
71.2163
72.6331
74.1619
75.9739
77.8883
80.1705
82.542
85.413
88.3509
91.9905
95.6567
100.335
104.976
111.11
117.122
125.385
133.436
144.871
155.894
171.668
186.211
206.435
223.185
245.178
260.549
280.206
294.285
304.094
307.79
258.209
211.807
119.332
89.189
107.764
143.296
161.85
172.951
167.66
162.834
151.814
144.508
134.701
128.401
121.051
116.448
111.342
108.038
104.349
101.776
98.9014
96.6445
94.0896
91.798
89.2349
86.7753
84.1733
81.6855
79.235
76.9552
74.8394
72.8946
71.1452
69.4954
68.0058
66.5093
65.1167
63.6129
62.1601
60.5153
58.8792
57.0109
55.1234
53.024
50.9186
48.7005
46.6034
44.5429
37.5653
37.9638
39.1122
41.6557
46.1477
52.4009
59.1781
64.7989
68.1987
69.3985
69.1412
68.2949
67.4304
66.8111
66.4645
66.3844
66.5149
66.8646
67.3815
68.1003
68.9587
70.0223
71.2081
72.6253
74.1544
75.9664
77.8809
80.1631
82.5345
85.4053
88.3429
91.982
95.6477
100.325
104.965
111.097
117.106
125.366
133.416
144.848
155.871
171.646
186.19
206.418
223.168
245.162
260.523
280.177
294.248
304.09
307.817
258.278
212.011
119.537
89.3463
107.856
143.348
161.859
172.937
167.63
162.793
151.771
144.471
134.672
128.375
121.026
116.424
111.319
108.018
104.333
101.763
98.8913
96.6367
94.0835
91.7932
89.2313
86.7724
84.1708
81.6829
79.2322
76.9522
74.8366
72.8923
71.1439
69.4953
68.0072
66.5123
65.1213
63.6191
62.1679
60.5245
58.8896
57.0225
55.1357
53.037
50.9318
48.7139
46.617
44.5551
37.5671
37.9712
39.1315
41.6931
46.2012
52.4552
59.2156
64.8135
68.1957
69.3854
69.123
68.2745
67.4099
66.7916
66.4467
66.3684
66.5006
66.8518
67.37
68.0898
68.9491
70.0132
71.1996
72.6171
74.1464