/*--------------------------------*- C++ -*----------------------------------*\
| =========                 |                                                 |
| \\      /  F ield         | OpenFOAM: The Open Source CFD Toolbox           |
|  \\    /   O peration     | Version:  2412                                  |
|   \\  /    A nd           | Website:  www.openfoam.com                      |
|    \\/     M anipulation  |                                                 |
\*---------------------------------------------------------------------------*/
FoamFile
{
    version     2.0;
    format      ascii;
    arch        "LSB;label=32;scalar=64";
    class       volScalarField;
    location    "0.5";
    object      nut;
}
// * * * * * * * * * * * * * * * * * * * * * * * * * * * * * * * * * * * * * //

dimensions      [0 2 -1 0 0 0 0];

internalField   nonuniform List<scalar> 
13068
(
0.33625
0.339593
0.347611
0.361985
0.38048
0.396499
0.404367
0.402773
0.3941
0.382555
0.372026
0.36475
0.361053
0.36014
0.36085
0.362374
0.364153
0.366041
0.367856
0.369701
0.37144
0.373273
0.375004
0.376922
0.378719
0.380808
0.382724
0.38507
0.387149
0.389846
0.392133
0.395308
0.397874
0.401693
0.404587
0.409181
0.412429
0.41798
0.421648
0.428241
0.432129
0.439349
0.44263
0.449428
0.450878
0.456167
0.455577
0.459921
0.460268
0.458215
0.452714
0.405202
0.368641
0.252549
0.255215
0.35911
0.41151
0.419393
0.418554
0.405173
0.399664
0.388841
0.386
0.379503
0.379275
0.376055
0.37686
0.374879
0.375273
0.373646
0.373597
0.372084
0.371412
0.369596
0.368152
0.365941
0.36406
0.361964
0.36033
0.358847
0.357767
0.356902
0.356177
0.355544
0.354759
0.353981
0.352843
0.351683
0.350016
0.348335
0.346059
0.343782
0.340891
0.338036
0.334705
0.331587
0.32841
0.325963
0.323949
0.33625
0.339595
0.347615
0.361991
0.380486
0.396503
0.404371
0.40278
0.394109
0.382564
0.372033
0.364755
0.361056
0.360143
0.360853
0.362377
0.364156
0.366044
0.367859
0.369705
0.371444
0.373277
0.375009
0.376927
0.378724
0.380814
0.38273
0.385076
0.387155
0.389852
0.392141
0.395316
0.397882
0.4017
0.404594
0.409188
0.412436
0.417987
0.421656
0.428249
0.432138
0.439359
0.442641
0.44944
0.45089
0.456177
0.455585
0.459926
0.460272
0.458221
0.452721
0.405221
0.368683
0.252582
0.255221
0.359108
0.411521
0.419407
0.418569
0.405182
0.399666
0.388843
0.386006
0.37951
0.37928
0.376055
0.376859
0.374881
0.375277
0.37365
0.373601
0.372087
0.371416
0.3696
0.368155
0.365943
0.364061
0.361966
0.360332
0.358848
0.357769
0.356904
0.356179
0.355547
0.354762
0.353985
0.352847
0.351687
0.350019
0.348336
0.346057
0.343777
0.340882
0.338022
0.334686
0.331563
0.328381
0.325932
0.323919
0.336251
0.339599
0.347623
0.362002
0.380496
0.39651
0.404375
0.402783
0.394114
0.38257
0.372038
0.364759
0.361058
0.360144
0.360855
0.362379
0.364159
0.366048
0.367863
0.369709
0.371448
0.373282
0.375014
0.376931
0.378729
0.380819
0.382735
0.385081
0.387161
0.389859
0.392148
0.395324
0.39789
0.401708
0.404601
0.409195
0.412442
0.417994
0.421663
0.428258
0.432147
0.439369
0.442653
0.449452
0.450903
0.456188
0.455594
0.459931
0.460275
0.458228
0.452728
0.405242
0.368729
0.25262
0.255224
0.359105
0.411537
0.419425
0.418588
0.405194
0.399669
0.388846
0.386013
0.379519
0.379285
0.376056
0.376859
0.374883
0.375281
0.373654
0.373604
0.372092
0.37142
0.369604
0.368158
0.365946
0.364063
0.361967
0.360333
0.35885
0.357771
0.356906
0.356182
0.35555
0.354766
0.353989
0.352852
0.351692
0.350023
0.348338
0.346057
0.343773
0.340874
0.338009
0.334669
0.33154
0.328354
0.325901
0.32389
0.336252
0.339604
0.347634
0.362018
0.38051
0.396517
0.404377
0.402783
0.394115
0.382572
0.37204
0.36476
0.361059
0.360146
0.360856
0.362382
0.364162
0.366051
0.367867
0.369713
0.371453
0.373286
0.375018
0.376936
0.378734
0.380824
0.382741
0.385087
0.387167
0.389866
0.392156
0.395332
0.397898
0.401715
0.404608
0.409202
0.412449
0.418001
0.42167
0.428265
0.432156
0.439379
0.442664
0.449464
0.450915
0.456199
0.455602
0.459936
0.460278
0.458236
0.452736
0.405263
0.368781
0.252663
0.255226
0.359104
0.411556
0.419448
0.418611
0.405209
0.399675
0.38885
0.386021
0.379528
0.379292
0.376058
0.376859
0.374886
0.375285
0.373658
0.373609
0.372096
0.371425
0.369608
0.368162
0.365948
0.364066
0.361969
0.360335
0.358851
0.357772
0.356908
0.356184
0.355553
0.35477
0.353994
0.352857
0.351696
0.350027
0.34834
0.346057
0.343769
0.340867
0.337996
0.334652
0.331518
0.328328
0.325872
0.323861
0.336254
0.33961
0.347649
0.362039
0.380529
0.396526
0.404376
0.402779
0.39411
0.382569
0.372038
0.364759
0.361059
0.360146
0.360858
0.362384
0.364165
0.366055
0.367871
0.369717
0.371457
0.373291
0.375023
0.376941
0.378739
0.380829
0.382746
0.385092
0.387173
0.389872
0.392162
0.395339
0.397905
0.401722
0.404614
0.409207
0.412455
0.418007
0.421677
0.428272
0.432164
0.439388
0.442674
0.449475
0.450926
0.456208
0.455609
0.45994
0.460281
0.458243
0.452745
0.405285
0.368838
0.252712
0.255227
0.359103
0.41158
0.419474
0.418637
0.405225
0.399682
0.388856
0.386031
0.379539
0.379298
0.37606
0.376859
0.374888
0.375289
0.373663
0.373613
0.372101
0.371429
0.369613
0.368165
0.365951
0.364068
0.361971
0.360336
0.358852
0.357774
0.35691
0.356187
0.355557
0.354774
0.353999
0.352862
0.351701
0.350032
0.348343
0.346057
0.343766
0.340861
0.337985
0.334636
0.331497
0.328303
0.325844
0.323834
0.336256
0.339619
0.347667
0.362066
0.380553
0.396537
0.404374
0.40277
0.394101
0.382562
0.372033
0.364755
0.361057
0.360146
0.360859
0.362386
0.364168
0.366058
0.367875
0.369721
0.371461
0.373295
0.375027
0.376945
0.378743
0.380833
0.38275
0.385097
0.387178
0.389878
0.392169
0.395346
0.397912
0.401728
0.404619
0.409212
0.41246
0.418012
0.421682
0.428279
0.432171
0.439396
0.442683
0.449485
0.450936
0.456216
0.455614
0.459943
0.460282
0.458251
0.452754
0.405307
0.3689
0.252765
0.255227
0.359103
0.411608
0.419504
0.418665
0.405244
0.399691
0.388863
0.386042
0.37955
0.379306
0.376062
0.37686
0.374891
0.375294
0.373668
0.373618
0.372106
0.371434
0.369617
0.368169
0.365954
0.364071
0.361973
0.360338
0.358854
0.357775
0.356911
0.356189
0.35556
0.354779
0.354004
0.352868
0.351707
0.350036
0.348346
0.346058
0.343764
0.340855
0.337975
0.334622
0.331477
0.328279
0.325818
0.323809
0.336259
0.339629
0.34769
0.362097
0.380581
0.396549
0.40437
0.402757
0.394087
0.38255
0.372024
0.364749
0.361053
0.360145
0.36086
0.362389
0.364171
0.366062
0.367879
0.369725
0.371465
0.373299
0.375031
0.376949
0.378747
0.380838
0.382755
0.385102
0.387183
0.389883
0.392175
0.395352
0.397918
0.401734
0.404624
0.409216
0.412464
0.418016
0.421687
0.428284
0.432178
0.439404
0.442692
0.449494
0.450945
0.456223
0.455619
0.459945
0.460282
0.458258
0.452763
0.40533
0.368966
0.252825
0.255227
0.359105
0.41164
0.419537
0.418697
0.405265
0.399702
0.388872
0.386054
0.379563
0.379314
0.376065
0.376861
0.374894
0.375299
0.373673
0.373623
0.372111
0.371439
0.369622
0.368173
0.365958
0.364073
0.361975
0.360339
0.358855
0.357777
0.356913
0.356192
0.355563
0.354783
0.354009
0.352873
0.351712
0.350041
0.34835
0.34606
0.343763
0.34085
0.337966
0.334608
0.331459
0.328257
0.325793
0.323784
0.336262
0.33964
0.347715
0.362134
0.380613
0.396562
0.404363
0.40274
0.394068
0.382534
0.372012
0.364741
0.361048
0.360143
0.36086
0.362391
0.364174
0.366065
0.367882
0.369729
0.371469
0.373303
0.375035
0.376953
0.378751
0.380842
0.382759
0.385106
0.387188
0.389888
0.39218
0.395357
0.397923
0.401738
0.404628
0.40922
0.412467
0.418019
0.421691
0.428289
0.432183
0.43941
0.4427
0.449503
0.450953
0.45623
0.455622
0.459946
0.460282
0.458265
0.452773
0.405353
0.369038
0.252889
0.255227
0.359108
0.411676
0.419575
0.418731
0.405287
0.399713
0.388881
0.386067
0.379576
0.379323
0.376068
0.376862
0.374898
0.375304
0.373679
0.373628
0.372116
0.371445
0.369627
0.368177
0.365961
0.364076
0.361977
0.360341
0.358856
0.357778
0.356915
0.356194
0.355567
0.354788
0.354015
0.352879
0.351718
0.350047
0.348354
0.346062
0.343762
0.340846
0.337957
0.334596
0.331442
0.328235
0.325769
0.323761
0.336265
0.339653
0.347745
0.362177
0.38065
0.396576
0.404354
0.402718
0.394044
0.382513
0.371996
0.364729
0.361041
0.36014
0.36086
0.362393
0.364177
0.366069
0.367886
0.369733
0.371473
0.373307
0.375039
0.376957
0.378755
0.380845
0.382763
0.38511
0.387192
0.389893
0.392185
0.395362
0.397928
0.401743
0.404632
0.409223
0.41247
0.418022
0.421694
0.428292
0.432188
0.439416
0.442707
0.449511
0.45096
0.456235
0.455624
0.459946
0.46028
0.458272
0.452783
0.405377
0.369115
0.252959
0.255227
0.359113
0.411716
0.419615
0.418768
0.405312
0.399727
0.388892
0.386081
0.37959
0.379332
0.376071
0.376864
0.374901
0.375309
0.373685
0.373633
0.372122
0.37145
0.369632
0.368181
0.365964
0.364079
0.361979
0.360342
0.358857
0.35778
0.356917
0.356197
0.355571
0.354793
0.35402
0.352885
0.351725
0.350053
0.348359
0.346065
0.343761
0.340843
0.33795
0.334584
0.331425
0.328216
0.325747
0.323739
0.336269
0.339668
0.347778
0.362224
0.380691
0.396592
0.404343
0.402692
0.394015
0.382487
0.371976
0.364716
0.361033
0.360136
0.36086
0.362395
0.36418
0.366072
0.36789
0.369737
0.371476
0.37331
0.375042
0.37696
0.378758
0.380848
0.382766
0.385113
0.387195
0.389897
0.392189
0.395367
0.397932
0.401746
0.404634
0.409225
0.412471
0.418024
0.421696
0.428295
0.432192
0.439421
0.442713
0.449517
0.450966
0.456239
0.455624
0.459945
0.460278
0.458279
0.452794
0.405401
0.369197
0.253035
0.255227
0.359118
0.41176
0.419659
0.418808
0.405338
0.399741
0.388904
0.386097
0.379605
0.379343
0.376075
0.376865
0.374904
0.375314
0.373691
0.373639
0.372128
0.371456
0.369637
0.368185
0.365968
0.364082
0.361981
0.360343
0.358859
0.357781
0.356919
0.3562
0.355574
0.354798
0.354026
0.352892
0.351731
0.350059
0.348364
0.346068
0.343762
0.34084
0.337943
0.334574
0.33141
0.328197
0.325726
0.323719
0.336273
0.339685
0.347814
0.362277
0.380737
0.396609
0.40433
0.402661
0.39398
0.382457
0.371953
0.364699
0.361023
0.360132
0.36086
0.362396
0.364183
0.366076
0.367894
0.36974
0.37148
0.373314
0.375045
0.376963
0.378761
0.380851
0.382769
0.385116
0.387199
0.3899
0.392193
0.395371
0.397936
0.401749
0.404636
0.409226
0.412472
0.418025
0.421697
0.428297
0.432195
0.439425
0.442718
0.449523
0.450971
0.456242
0.455624
0.459943
0.460274
0.458286
0.452805
0.405427
0.369284
0.253117
0.255228
0.359125
0.411808
0.419707
0.418851
0.405366
0.399757
0.388918
0.386113
0.379621
0.379353
0.376079
0.376867
0.374908
0.37532
0.373697
0.373645
0.372134
0.371461
0.369642
0.36819
0.365972
0.364084
0.361983
0.360345
0.35886
0.357782
0.356921
0.356202
0.355578
0.354803
0.354032
0.352898
0.351738
0.350065
0.348369
0.346072
0.343763
0.340838
0.337937
0.334564
0.331397
0.32818
0.325707
0.323699
0.336277
0.339703
0.347854
0.362335
0.380787
0.396627
0.404315
0.402626
0.393941
0.382422
0.371925
0.36468
0.361012
0.360127
0.360859
0.362398
0.364186
0.366079
0.367897
0.369744
0.371483
0.373317
0.375048
0.376966
0.378764
0.380854
0.382771
0.385119
0.387201
0.389903
0.392196
0.395374
0.397939
0.401751
0.404637
0.409226
0.412472
0.418025
0.421698
0.428298
0.432197
0.439429
0.442723
0.449529
0.450975
0.456244
0.455622
0.45994
0.46027
0.458293
0.452817
0.405452
0.369377
0.253205
0.25523
0.359133
0.411859
0.419757
0.418896
0.405396
0.399775
0.388932
0.386131
0.379638
0.379364
0.376084
0.376869
0.374912
0.375326
0.373703
0.373651
0.37214
0.371467
0.369647
0.368194
0.365975
0.364087
0.361986
0.360346
0.35886
0.357783
0.356922
0.356205
0.355582
0.354808
0.354038
0.352905
0.351745
0.350072
0.348375
0.346076
0.343765
0.340837
0.337932
0.334556
0.331384
0.328164
0.325689
0.323681
0.336282
0.339722
0.347898
0.362398
0.380842
0.396647
0.404297
0.402587
0.393897
0.382383
0.371895
0.364659
0.360999
0.36012
0.360857
0.3624
0.364189
0.366083
0.367901
0.369747
0.371486
0.37332
0.375051
0.376968
0.378766
0.380856
0.382774
0.385121
0.387204
0.389905
0.392199
0.395377
0.397941
0.401753
0.404638
0.409226
0.412472
0.418024
0.421698
0.428299
0.432198
0.439431
0.442727
0.449533
0.450979
0.456245
0.455619
0.459936
0.460265
0.4583
0.45283
0.405479
0.369475
0.253299
0.255233
0.359143
0.411914
0.419811
0.418943
0.405427
0.399793
0.388947
0.386149
0.379655
0.379376
0.376088
0.376871
0.374916
0.375331
0.373709
0.373657
0.372146
0.371473
0.369652
0.368198
0.365979
0.36409
0.361988
0.360347
0.358861
0.357784
0.356924
0.356208
0.355586
0.354813
0.354045
0.352912
0.351752
0.350079
0.348381
0.346081
0.343767
0.340837
0.337928
0.334549
0.331372
0.328149
0.325672
0.323664
0.336287
0.339744
0.347946
0.362466
0.380901
0.396667
0.404278
0.402544
0.393847
0.382339
0.37186
0.364634
0.360984
0.360113
0.360856
0.362401
0.364192
0.366086
0.367904
0.36975
0.371489
0.373322
0.375054
0.376971
0.378768
0.380858
0.382775
0.385123
0.387206
0.389908
0.392202
0.395379
0.397943
0.401753
0.404638
0.409225
0.41247
0.418023
0.421696
0.428298
0.432198
0.439433
0.44273
0.449537
0.450981
0.456245
0.455615
0.459932
0.46026
0.458308
0.452843
0.405507
0.369578
0.253399
0.255238
0.359153
0.411972
0.419868
0.418993
0.40546
0.399813
0.388964
0.386169
0.379674
0.379388
0.376094
0.376873
0.37492
0.375337
0.373716
0.373664
0.372153
0.37148
0.369658
0.368203
0.365983
0.364094
0.36199
0.360348
0.358862
0.357785
0.356926
0.35621
0.35559
0.354818
0.354051
0.35292
0.35176
0.350087
0.348388
0.346086
0.34377
0.340837
0.337925
0.334542
0.331362
0.328136
0.325657
0.323649
0.336293
0.339766
0.347997
0.36254
0.380964
0.396689
0.404256
0.402496
0.393793
0.38229
0.371822
0.364608
0.360968
0.360106
0.360854
0.362402
0.364195
0.36609
0.367908
0.369753
0.371492
0.373325
0.375056
0.376973
0.37877
0.380859
0.382777
0.385124
0.387207
0.389909
0.392203
0.395381
0.397944
0.401754
0.404637
0.409223
0.412468
0.41802
0.421694
0.428297
0.432198
0.439434
0.442732
0.44954
0.450982
0.456245
0.45561
0.459926
0.460253
0.458315
0.452857
0.405536
0.369687
0.253506
0.255244
0.359165
0.412034
0.419927
0.419044
0.405494
0.399834
0.388981
0.386189
0.379693
0.379401
0.376099
0.376876
0.374924
0.375343
0.373723
0.373671
0.372159
0.371486
0.369663
0.368208
0.365987
0.364097
0.361992
0.360349
0.358863
0.357786
0.356927
0.356213
0.355594
0.354824
0.354058
0.352927
0.351768
0.350095
0.348395
0.346092
0.343774
0.340839
0.337923
0.334537
0.331353
0.328124
0.325643
0.323634
0.336299
0.339791
0.348051
0.362618
0.381031
0.396712
0.404232
0.402443
0.393734
0.382237
0.37178
0.364578
0.36095
0.360097
0.360851
0.362403
0.364198
0.366093
0.367911
0.369757
0.371495
0.373327
0.375058
0.376974
0.378771
0.380861
0.382778
0.385125
0.387208
0.38991
0.392205
0.395382
0.397945
0.401753
0.404635
0.409221
0.412465
0.418017
0.421691
0.428295
0.432197
0.439435
0.442733
0.449542
0.450983
0.456243
0.455604
0.45992
0.460246
0.458322
0.452871
0.405565
0.369801
0.25362
0.255253
0.359177
0.412099
0.41999
0.419098
0.40553
0.399856
0.389
0.386211
0.379712
0.379414
0.376105
0.376879
0.374928
0.37535
0.37373
0.373678
0.372166
0.371492
0.369669
0.368213
0.365991
0.3641
0.361994
0.36035
0.358863
0.357787
0.356929
0.356216
0.355598
0.35483
0.354065
0.352935
0.351776
0.350103
0.348402
0.346098
0.343778
0.340841
0.337922
0.334533
0.331345
0.328113
0.325631
0.323621
0.336305
0.339817
0.348109
0.362702
0.381103
0.396736
0.404205
0.402386
0.393669
0.382179
0.371735
0.364546
0.36093
0.360087
0.360849
0.362405
0.3642
0.366097
0.367914
0.36976
0.371498
0.37333
0.37506
0.376976
0.378772
0.380862
0.382779
0.385126
0.387209
0.389911
0.392205
0.395383
0.397945
0.401752
0.404633
0.409218
0.412461
0.418014
0.421688
0.428292
0.432195
0.439435
0.442734
0.449543
0.450982
0.45624
0.455597
0.459913
0.460238
0.458329
0.452887
0.405596
0.369922
0.253741
0.255264
0.35919
0.412166
0.420054
0.419154
0.405567
0.399879
0.389019
0.386233
0.379733
0.379428
0.376111
0.376882
0.374932
0.375356
0.373737
0.373685
0.372173
0.371499
0.369675
0.368217
0.365995
0.364103
0.361996
0.360351
0.358864
0.357788
0.35693
0.356219
0.355603
0.354835
0.354072
0.352943
0.351785
0.350111
0.34841
0.346105
0.343783
0.340843
0.337922
0.33453
0.331338
0.328103
0.32562
0.323609
0.336312
0.339844
0.348171
0.36279
0.381179
0.396762
0.404177
0.402325
0.3936
0.382117
0.371685
0.364512
0.360909
0.360077
0.360845
0.362405
0.364203
0.3661
0.367917
0.369762
0.3715
0.373331
0.375061
0.376977
0.378773
0.380862
0.382779
0.385126
0.387209
0.389911
0.392206
0.395383
0.397945
0.401751
0.40463
0.409214
0.412457
0.418009
0.421683
0.428288
0.432193
0.439433
0.442734
0.449544
0.450981
0.456237
0.455589
0.459905
0.46023
0.458337
0.452903
0.405629
0.370048
0.25387
0.255279
0.359204
0.412236
0.420121
0.419211
0.405605
0.399903
0.389039
0.386256
0.379754
0.379442
0.376117
0.376885
0.374937
0.375362
0.373744
0.373692
0.372181
0.371506
0.369681
0.368222
0.365999
0.364106
0.361998
0.360352
0.358864
0.357788
0.356932
0.356221
0.355607
0.354841
0.354079
0.352951
0.351793
0.35012
0.348419
0.346112
0.343789
0.340847
0.337922
0.334528
0.331332
0.328095
0.32561
0.323599
0.33632
0.339874
0.348236
0.362884
0.381259
0.396788
0.404146
0.40226
0.393525
0.382049
0.371632
0.364474
0.360886
0.360066
0.360842
0.362406
0.364206
0.366103
0.367921
0.369765
0.371502
0.373333
0.375063
0.376978
0.378774
0.380862
0.382779
0.385126
0.387209
0.389911
0.392206
0.395382
0.397944
0.401748
0.404627
0.409209
0.412451
0.418004
0.421678
0.428284
0.432189
0.439432
0.442733
0.449544
0.450979
0.456233
0.455579
0.459896
0.46022
0.458345
0.45292
0.405663
0.37018
0.254007
0.255296
0.359219
0.412309
0.42019
0.41927
0.405644
0.399928
0.389059
0.38628
0.379775
0.379457
0.376123
0.376888
0.374941
0.375369
0.373752
0.3737
0.372188
0.371512
0.369687
0.368227
0.366004
0.36411
0.362
0.360353
0.358865
0.357789
0.356933
0.356224
0.355611
0.354847
0.354086
0.35296
0.351802
0.350129
0.348427
0.34612
0.343795
0.340852
0.337924
0.334527
0.331327
0.328088
0.325602
0.323589
0.336327
0.339905
0.348305
0.362982
0.381343
0.396815
0.404113
0.40219
0.393446
0.381978
0.371576
0.364435
0.360862
0.360054
0.360838
0.362407
0.364209
0.366107
0.367924
0.369768
0.371505
0.373335
0.375064
0.376978
0.378774
0.380862
0.382779
0.385126
0.387209
0.38991
0.392205
0.395382
0.397942
0.401746
0.404623
0.409204
0.412446
0.417998
0.421672
0.428279
0.432185
0.439429
0.442732
0.449543
0.450977
0.456228
0.455569
0.459887
0.460211
0.458353
0.452938
0.405698
0.370318
0.254151
0.255318
0.359234
0.412384
0.420261
0.419331
0.405683
0.399953
0.389081
0.386304
0.379797
0.379472
0.37613
0.376891
0.374945
0.375375
0.373759
0.373707
0.372196
0.371519
0.369693
0.368232
0.366008
0.364113
0.362003
0.360354
0.358865
0.35779
0.356935
0.356227
0.355616
0.354854
0.354094
0.352968
0.351812
0.350139
0.348437
0.346129
0.343802
0.340857
0.337927
0.334527
0.331324
0.328082
0.325595
0.323581
0.336335
0.339937
0.348377
0.363086
0.381431
0.396844
0.404077
0.402115
0.393361
0.381901
0.371515
0.364392
0.360836
0.36004
0.360833
0.362407
0.364211
0.36611
0.367927
0.369771
0.371507
0.373336
0.375065
0.376979
0.378774
0.380862
0.382778
0.385125
0.387208
0.389909
0.392204
0.39538
0.39794
0.401742
0.404618
0.409198
0.412439
0.417991
0.421666
0.428273
0.432181
0.439426
0.44273
0.449542
0.450973
0.456222
0.455558
0.459877
0.4602
0.458362
0.452957
0.405736
0.370463
0.254304
0.255343
0.359249
0.41246
0.420334
0.419392
0.405724
0.399979
0.389103
0.386329
0.379819
0.379487
0.376137
0.376894
0.37495
0.375382
0.373767
0.373715
0.372204
0.371527
0.369699
0.368238
0.366013
0.364117
0.362005
0.360355
0.358865
0.35779
0.356936
0.35623
0.355621
0.35486
0.354102
0.352977
0.351821
0.350149
0.348446
0.346138
0.34381
0.340863
0.33793
0.334528
0.331322
0.328078
0.32559
0.323574
0.336344
0.339971
0.348453
0.363194
0.381523
0.396873
0.40404
0.402037
0.393272
0.38182
0.371451
0.364347
0.360808
0.360026
0.360829
0.362408
0.364214
0.366113
0.36793
0.369773
0.371509
0.373338
0.375065
0.376979
0.378774
0.380861
0.382778
0.385124
0.387206
0.389908
0.392202
0.395378
0.397937
0.401738
0.404613
0.409192
0.412432
0.417984
0.421658
0.428267
0.432175
0.439423
0.442728
0.449541
0.450969
0.456215
0.455546
0.459867
0.46019
0.458371
0.452977
0.405775
0.370614
0.254466
0.255373
0.359265
0.412539
0.420408
0.419455
0.405765
0.400005
0.389126
0.386355
0.379842
0.379502
0.376144
0.376898
0.374954
0.375388
0.373775
0.373723
0.372211
0.371534
0.369705
0.368243
0.366017
0.36412
0.362007
0.360356
0.358866
0.357791
0.356938
0.356233
0.355625
0.354866
0.35411
0.352986
0.351831
0.350159
0.348456
0.346147
0.343818
0.340869
0.337934
0.33453
0.331321
0.328075
0.325586
0.323568
0.336353
0.340007
0.348532
0.363308
0.381619
0.396903
0.404
0.401954
0.393177
0.381735
0.371384
0.364299
0.360779
0.360012
0.360823
0.362408
0.364217
0.366116
0.367933
0.369776
0.37151
0.373339
0.375066
0.376979
0.378773
0.380861
0.382776
0.385122
0.387205
0.389906
0.3922
0.395376
0.397934
0.401734
0.404607
0.409184
0.412424
0.417975
0.42165
0.42826
0.432169
0.439419
0.442725
0.449538
0.450964
0.456208
0.455533
0.459855
0.460179
0.458381
0.452998
0.405816
0.370771
0.254636
0.255408
0.35928
0.412618
0.420483
0.419519
0.405807
0.400032
0.389149
0.386381
0.379866
0.379518
0.376151
0.376901
0.374959
0.375395
0.373783
0.373732
0.37222
0.371541
0.369712
0.368248
0.366022
0.364124
0.362009
0.360357
0.358866
0.357791
0.356939
0.356236
0.35563
0.354873
0.354118
0.352996
0.351841
0.35017
0.348467
0.346157
0.343827
0.340877
0.33794
0.334533
0.331321
0.328073
0.325583
0.323564
0.336362
0.340044
0.348615
0.363426
0.381719
0.396934
0.403957
0.401866
0.393077
0.381644
0.371312
0.364249
0.360748
0.359996
0.360818
0.362408
0.364219
0.366119
0.367936
0.369778
0.371512
0.37334
0.375066
0.376979
0.378772
0.380859
0.382775
0.38512
0.387203
0.389904
0.392198
0.395373
0.39793
0.401729
0.4046
0.409177
0.412415
0.417967
0.421642
0.428252
0.432163
0.439414
0.442721
0.449535
0.450959
0.4562
0.455519
0.459844
0.460167
0.458391
0.45302
0.405859
0.370935
0.254816
0.255449
0.359295
0.412699
0.420559
0.419583
0.405849
0.40006
0.389172
0.386407
0.379889
0.379534
0.376158
0.376905
0.374963
0.375402
0.373791
0.37374
0.372228
0.371549
0.369718
0.368254
0.366026
0.364127
0.362011
0.360357
0.358866
0.357791
0.356941
0.356239
0.355635
0.35488
0.354126
0.353005
0.351852
0.35018
0.348478
0.346168
0.343837
0.340885
0.337946
0.334537
0.331322
0.328073
0.325582
0.323561
0.336371
0.340082
0.348701
0.363549
0.381823
0.396966
0.403912
0.401774
0.392972
0.38155
0.371237
0.364195
0.360715
0.359979
0.360812
0.362408
0.364222
0.366123
0.367939
0.36978
0.371513
0.37334
0.375066
0.376978
0.378771
0.380858
0.382773
0.385118
0.3872
0.389901
0.392195
0.395369
0.397926
0.401723
0.404593
0.409168
0.412406
0.417957
0.421632
0.428244
0.432156
0.439409
0.442717
0.449532
0.450953
0.456191
0.455505
0.459831
0.460155
0.458401
0.453043
0.405905
0.371106
0.255006
0.255495
0.359309
0.41278
0.420636
0.419647
0.405891
0.400087
0.389196
0.386434
0.379913
0.37955
0.376165
0.376908
0.374968
0.375408
0.373799
0.373749
0.372236
0.371556
0.369724
0.368259
0.366031
0.364131
0.362013
0.360358
0.358866
0.357792
0.356942
0.356242
0.35564
0.354887
0.354135
0.353015
0.351862
0.350192
0.348489
0.346179
0.343847
0.340894
0.337953
0.334543
0.331325
0.328073
0.325582
0.323558
0.336381
0.340123
0.34879
0.363676
0.381931
0.396999
0.403865
0.401677
0.392863
0.38145
0.371158
0.36414
0.360681
0.359961
0.360805
0.362407
0.364224
0.366126
0.367942
0.369782
0.371515
0.373341
0.375066
0.376977
0.37877
0.380856
0.382771
0.385116
0.387197
0.389898
0.392191
0.395365
0.397921
0.401717
0.404586
0.409159
0.412396
0.417947
0.421622
0.428235
0.432148
0.439403
0.442712
0.449528
0.450946
0.456182
0.455489
0.459818
0.460143
0.458412
0.453068
0.405952
0.371283
0.255205
0.255547
0.359322
0.412861
0.420713
0.419712
0.405934
0.400115
0.38922
0.386461
0.379937
0.379567
0.376173
0.376912
0.374972
0.375415
0.373807
0.373757
0.372245
0.371564
0.369731
0.368265
0.366036
0.364134
0.362015
0.360358
0.358866
0.357792
0.356943
0.356245
0.355645
0.354894
0.354144
0.353025
0.351873
0.350203
0.348501
0.346191
0.343858
0.340904
0.337961
0.334549
0.331328
0.328076
0.325583
0.323558
0.336392
0.340165
0.348883
0.363809
0.382042
0.397033
0.403816
0.401576
0.392748
0.381346
0.371075
0.364081
0.360644
0.359943
0.360798
0.362407
0.364226
0.366129
0.367945
0.369784
0.371516
0.373341
0.375066
0.376976
0.378769
0.380854
0.382768
0.385113
0.387194
0.389894
0.392188
0.395361
0.397916
0.40171
0.404577
0.40915
0.412386
0.417937
0.421612
0.428225
0.43214
0.439397
0.442707
0.449524
0.450939
0.456172
0.455473
0.459805
0.46013
0.458424
0.453094
0.406003
0.371468
0.255415
0.255606
0.359334
0.412943
0.42079
0.419777
0.405976
0.400143
0.389244
0.386489
0.379962
0.379583
0.37618
0.376915
0.374977
0.375422
0.373815
0.373766
0.372253
0.371572
0.369737
0.36827
0.366041
0.364138
0.362017
0.360359
0.358865
0.357792
0.356944
0.356248
0.35565
0.354901
0.354153
0.353035
0.351885
0.350215
0.348513
0.346203
0.34387
0.340915
0.33797
0.334557
0.331333
0.328079
0.325586
0.323558
0.336403
0.340208
0.34898
0.363946
0.382157
0.397067
0.403764
0.401471
0.392628
0.381237
0.370989
0.36402
0.360607
0.359923
0.360791
0.362406
0.364229
0.366132
0.367947
0.369786
0.371517
0.373342
0.375065
0.376975
0.378767
0.380852
0.382766
0.38511
0.387191
0.389891
0.392183
0.395356
0.39791
0.401703
0.404569
0.40914
0.412375
0.417925
0.4216
0.428215
0.432131
0.43939
0.442702
0.449519
0.450931
0.456162
0.455456
0.459791
0.460118
0.458437
0.453122
0.406056
0.37166
0.255635
0.255672
0.359344
0.413024
0.420867
0.419842
0.406018
0.40017
0.389268
0.386516
0.379986
0.3796
0.376188
0.376919
0.374981
0.375428
0.373824
0.373775
0.372262
0.371579
0.369744
0.368276
0.366045
0.364141
0.362019
0.360359
0.358865
0.357792
0.356946
0.356251
0.355655
0.354908
0.354162
0.353046
0.351896
0.350227
0.348526
0.346215
0.343882
0.340927
0.33798
0.334565
0.331339
0.328084
0.325591
0.32356
0.336414
0.340253
0.34908
0.364088
0.382276
0.397102
0.403709
0.401361
0.392503
0.381123
0.370898
0.363956
0.360567
0.359903
0.360783
0.362406
0.364231
0.366135
0.36795
0.369788
0.371518
0.373342
0.375064
0.376974
0.378765
0.380849
0.382762
0.385106
0.387187
0.389886
0.392179
0.395351
0.397904
0.401696
0.40456
0.409129
0.412363
0.417913
0.421589
0.428205
0.432121
0.439383
0.442696
0.449514
0.450923
0.456151
0.455439
0.459777
0.460105
0.45845
0.453151
0.406112
0.371859
0.255867
0.255745
0.359353
0.413104
0.420944
0.419906
0.406059
0.400198
0.389292
0.386544
0.38001
0.379616
0.376195
0.376923
0.374985
0.375435
0.373832
0.373784
0.372271
0.371587
0.369751
0.368282
0.36605
0.364145
0.362021
0.360359
0.358865
0.357792
0.356947
0.356254
0.355661
0.354916
0.354171
0.353056
0.351908
0.35024
0.348539
0.346228
0.343895
0.340939
0.337991
0.334575
0.331347
0.32809
0.325596
0.323563
0.336425
0.3403
0.349183
0.364234
0.382398
0.397138
0.403652
0.401247
0.392373
0.381005
0.370804
0.363889
0.360526
0.359882
0.360775
0.362405
0.364233
0.366138
0.367953
0.36979
0.371519
0.373342
0.375064
0.376972
0.378762
0.380846
0.382759
0.385102
0.387183
0.389882
0.392174
0.395345
0.397897
0.401688
0.40455
0.409118
0.412351
0.417901
0.421576
0.428194
0.432112
0.439375
0.442689
0.449509
0.450914
0.456139
0.455421
0.459763
0.460092
0.458464
0.453181
0.406171
0.372066
0.256109
0.255826
0.359359
0.413183
0.421019
0.419969
0.4061
0.400225
0.389316
0.386571
0.380035
0.379633
0.376203
0.376926
0.374989
0.375442
0.37384
0.373793
0.37228
0.371595
0.369758
0.368287
0.366055
0.364149
0.362022
0.36036
0.358864
0.357792
0.356948
0.356257
0.355666
0.354924
0.35418
0.353067
0.35192
0.350253
0.348552
0.346242
0.343908
0.340952
0.338003
0.334586
0.331355
0.328097
0.325603
0.323567
0.336437
0.340348
0.349289
0.364385
0.382524
0.397174
0.403593
0.401128
0.392238
0.380882
0.370706
0.36382
0.360483
0.359859
0.360767
0.362404
0.364236
0.366141
0.367956
0.369792
0.37152
0.373341
0.375062
0.37697
0.37876
0.380843
0.382756
0.385098
0.387178
0.389877
0.392168
0.395339
0.39789
0.401679
0.40454
0.409107
0.412338
0.417888
0.421564
0.428182
0.432101
0.439367
0.442683
0.449503
0.450905
0.456127
0.455402
0.459748
0.460079
0.458479
0.453213
0.406233
0.37228
0.256364
0.255915
0.359363
0.41326
0.421094
0.420032
0.40614
0.400251
0.38934
0.386599
0.380059
0.37965
0.37621
0.376929
0.374993
0.375448
0.373849
0.373802
0.372289
0.371603
0.369765
0.368293
0.36606
0.364152
0.362024
0.36036
0.358864
0.357792
0.356949
0.35626
0.355672
0.354931
0.35419
0.353078
0.351932
0.350266
0.348566
0.346256
0.343923
0.340966
0.338016
0.334598
0.331365
0.328106
0.325612
0.323572
0.33645
0.340398
0.349399
0.36454
0.382653
0.397211
0.403531
0.401005
0.392097
0.380754
0.370605
0.363747
0.360438
0.359836
0.360757
0.362402
0.364238
0.366144
0.367958
0.369794
0.371521
0.373341
0.375061
0.376968
0.378757
0.380839
0.382752
0.385094
0.387174
0.389871
0.392163
0.395333
0.397883
0.40167
0.404529
0.409094
0.412325
0.417875
0.42155
0.42817
0.432091
0.439359
0.442676
0.449497
0.450896
0.456115
0.455383
0.459732
0.460066
0.458494
0.453247
0.406298
0.372502
0.25663
0.256013
0.359363
0.413335
0.421167
0.420093
0.406179
0.400277
0.389363
0.386626
0.380084
0.379666
0.376218
0.376933
0.374997
0.375455
0.373857
0.373811
0.372298
0.371612
0.369771
0.368299
0.366065
0.364156
0.362026
0.36036
0.358863
0.357792
0.35695
0.356263
0.355677
0.354939
0.3542
0.35309
0.351945
0.350279
0.348581
0.346271
0.343938
0.340981
0.33803
0.33461
0.331376
0.328116
0.325622
0.323579
0.336463
0.340449
0.349512
0.3647
0.382786
0.397248
0.403466
0.400877
0.391952
0.380622
0.370499
0.363673
0.360391
0.359812
0.360748
0.362401
0.36424
0.366147
0.367961
0.369795
0.371521
0.373341
0.37506
0.376966
0.378754
0.380836
0.382747
0.385089
0.387168
0.389866
0.392156
0.395326
0.397875
0.40166
0.404518
0.409082
0.412311
0.417861
0.421536
0.428157
0.432079
0.43935
0.442668
0.449491
0.450886
0.456102
0.455363
0.459717
0.460053
0.458511
0.453282
0.406366
0.372732
0.256909
0.256119
0.359361
0.413408
0.421238
0.420153
0.406217
0.400302
0.389386
0.386653
0.380108
0.379682
0.376225
0.376936
0.375001
0.375461
0.373866
0.373821
0.372307
0.37162
0.369778
0.368305
0.36607
0.364159
0.362028
0.36036
0.358863
0.357791
0.356952
0.356266
0.355683
0.354947
0.35421
0.353101
0.351958
0.350293
0.348595
0.346286
0.343953
0.340996
0.338045
0.334624
0.331388
0.328127
0.325633
0.323586
0.336476
0.340502
0.349629
0.364864
0.382922