/*--------------------------------*- C++ -*----------------------------------*\
| =========                 |                                                 |
| \\      /  F ield         | OpenFOAM: The Open Source CFD Toolbox           |
|  \\    /   O peration     | Version:  2412                                  |
|   \\  /    A nd           | Website:  www.openfoam.com                      |
|    \\/     M anipulation  |                                                 |
\*---------------------------------------------------------------------------*/
FoamFile
{
    version     2.0;
    format      ascii;
    arch        "LSB;label=32;scalar=64";
    class       volScalarField;
    location    "0.5";
    object      p;
}
// * * * * * * * * * * * * * * * * * * * * * * * * * * * * * * * * * * * * * //

dimensions      [0 2 -2 0 0 0 0];

internalField   nonuniform List<scalar> 
13068
(
107403
107397
107370
107330
107283
107215
107149
107048
106949
106795
106650
106438
106258
105994
105786
105464
105230
104835
104578
104088
103813
103199
102916
102137
101861
100857
100617
99305.2
99146.2
97405.2
97399.9
95056
95319.7
92119.5
92833.5
88405.4
89854.7
83648.4
86281.1
77476
81997.3
69353.9
76869.4
58482.3
70694
43558.1
62994.2
22335.3
52655.8
-8713.18
37949
-52498.4
19716.3
-101969
6390.54
-69982.4
10582.8
-36129
17782.4
-11115.7
24758.7
7695.76
31842.6
22300.7
38657.7
33732.9
44916.9
42720.1
50433.2
49747.6
55103.4
55205.7
58966
59460.8
62147.6
62829.9
64793.8
65565.3
67036.3
67857.2
68978.9
69839.9
70691.4
71599.6
72211
73186.6
73552.6
74632.9
74721.4
75966
75722.7
77216.1
76564.1
78415.5
77254.8
79595.2
77802.3
80782.8
78208.1
107403
107397
107370
107330
107283
107215
107149
107049
106950
106795
106650
106438
106258
105994
105786
105464
105230
104835
104578
104088
103813
103199
102916
102137
101861
100857
100617
99305.3
99146.3
97405.3
97400
95056.1
95319.7
92119.6
92833.6
88405.4
89854.7
83648.4
86281.1
77476
81997.2
69353.9
76869.3
58482.2
70693.9
43558.2
62994.4
22335.8
52656.6
-8712.69
37949.5
-52499.4
19715.9
-101973
6390.16
-69982.8
10583.2
-36128.4
17783.3
-11115.2
24758.9
7695.6
31842.4
22300.4
38657.3
33732.5
44916.4
42719.6
50432.7
49747.2
55103
55205.4
58965.8
59460.6
62147.5
62829.9
64793.8
65565.3
67036.3
67857.2
68978.9
69839.9
70691.3
71599.5
72210.9
73186.5
73552.4
74632.6
74721.1
75965.6
75722.4
77215.6
76563.8
78415
77254.5
79594.7
77802.4
80782.3
78208.6
107403
107397
107370
107330
107283
107215
107149
107049
106950
106795
106650
106438
106258
105994
105786
105464
105230
104835
104578
104088
103813
103199
102916
102137
101861
100857
100617
99305.4
99146.4
97405.4
97400.1
95056.2
95319.8
92119.7
92833.6
88405.6
89854.7
83648.5
86281
77476.1
81997.1
69353.9
76869.1
58482.2
70693.9
43558.4
62994.8
22336.4
52657.4
-8712.14
37950.1
-52500.6
19715.4
-101977
6389.41
-69983.5
10583.6
-36127.7
17784.2
-11114.7
24759
7695.49
31842.1
22300.2
38657
33732.2
44915.9
42719.2
50432.2
49746.9
55102.7
55205.2
58965.5
59460.6
62147.4
62829.8
64793.8
65565.3
67036.4
67857.2
68978.9
69839.9
70691.3
71599.5
72210.8
73186.3
73552.2
74632.4
74720.9
75965.3
75722
77215.2
76563.4
78414.6
77254.3
79594.3
77802.4
80781.7
78209.2
107403
107397
107370
107330
107283
107215
107149
107049
106950
106795
106650
106438
106258
105994
105786
105464
105230
104835
104578
104088
103813
103200
102916
102137
101861
100858
100618
99305.5
99146.5
97405.5
97400.2
95056.4
95319.9
92119.9
92833.7
88405.7
89854.8
83648.7
86281
77476.2
81997.1
69353.9
76869
58482.3
70693.8
43558.7
62995.1
22337.1
52658.3
-8711.52
37950.6
-52502.1
19714.6
-101983
6388.27
-69984.4
10583.9
-36127
17785
-11114
24759.1
7695.42
31841.9
22300
38656.6
33731.9
44915.4
42718.8
50431.7
49746.6
55102.4
55205
58965.4
59460.5
62147.4
62829.9
64793.8
65565.4
67036.4
67857.3
68978.9
69839.9
70691.3
71599.4
72210.8
73186.2
73552
74632.1
74720.6
75964.9
75721.7
77214.8
76563.1
78414.1
77254.1
79593.8
77802.5
80781.2
78209.7
107403
107397
107370
107331
107283
107215
107150
107049
106950
106795
106650
106438
106258
105995
105786
105464
105230
104835
104578
104088
103813
103200
102916
102137
101861
100858
100618
99305.6
99146.6
97405.7
97400.3
95056.6
95320
92120.1
92833.9
88405.9
89854.9
83648.9
86281.1
77476.4
81997
69354.1
76868.9
58482.5
70693.8
43559.1
62995.5
22337.9
52659.2
-8710.83
37951.2
-52503.9
19713.7
-101991
6386.76
-69985.6
10584.2
-36126.2
17785.9
-11113.3
24759.2
7695.4
31841.6
22299.8
38656.2
33731.6
44914.9
42718.5
50431.3
49746.4
55102.1
55204.9
58965.2
59460.5
62147.3
62829.9
64793.8
65565.4
67036.4
67857.3
68979
69839.9
70691.3
71599.4
72210.7
73186.1
73551.9
74631.9
74720.4
75964.6
75721.4
77214.4
76562.8
78413.7
77253.9
79593.3
77802.6
80780.7
78210.2
107403
107398
107370
107331
107283
107215
107150
107049
106950
106795
106650
106438
106258
105995
105786
105464
105230
104835
104578
104088
103813
103200
102916
102137
101861
100858
100618
99305.8
99146.7
97405.9
97400.5
95056.8
95320.2
92120.4
92834
88406.2
89855
83649.2
86281.2
77476.7
81997
69354.3
76868.8
58482.8
70693.8
43559.7
62996
22338.9
52660.3
-8710.06
37951.7
-52506
19712.7
-101999
6384.88
-69987
10584.4
-36125.3
17786.7
-11112.6
24759.2
7695.42
31841.3
22299.7
38655.9
33731.4
44914.4
42718.3
50430.9
49746.2
55101.8
55204.9
58965.1
59460.5
62147.3
62830
64793.8
65565.5
67036.5
67857.4
68979
69839.9
70691.3
71599.3
72210.6
73185.9
73551.8
74631.7
74720.2
75964.3
75721.1
77214
76562.5
78413.2
77253.7
79592.8
77802.6
80780.2
78210.7
107404
107398
107370
107331
107283
107215
107150
107049
106950
106795
106650
106438
106258
105995
105786
105465
105231
104835
104578
104089
103813
103200
102916
102137
101861
100858
100618
99306
99146.9
97406.2
97400.7
95057.1
95320.4
92120.7
92834.2
88406.6
89855.2
83649.5
86281.2
77477
81997
69354.7
76868.8
58483.2
70693.9
43560.3
62996.5
22340.1
52661.4
-8709.21
37952.4
-52508.4
19711.4
-102009
6382.62
-69988.7
10584.6
-36124.3
17787.6
-11111.8
24759.2
7695.48
31841
22299.6
38655.5
33731.2
44914
42718
50430.5
49746.1
55101.6
55204.9
58965
59460.6
62147.3
62830.1
64793.9
65565.6
67036.5
67857.4
68979
69839.9
70691.3
71599.3
72210.6
73185.8
73551.6
74631.5
74720
75964
75720.9
77213.6
76562.3
78412.7
77253.6
79592.3
77802.7
80779.7
78211.2
107404
107398
107371
107331
107284
107216
107150
107049
106950
106795
106650
106439
106258
105995
105786
105465
105231
104835
104578
104089
103814
103200
102916
102137
101862
100858
100618
99306.3
99147.1
97406.4
97400.9
95057.4
95320.6
92121
92834.4
88406.9
89855.3
83649.9
86281.4
77477.4
81997
69355
76868.7
58483.6
70693.9
43561.1
62997.1
22341.4
52662.7
-8708.27
37953
-52511.1
19710
-102020
6379.99
-69990.6
10584.7
-36123.2
17788.4
-11110.9
24759.2
7695.58
31840.7
22299.6
38655.1
33731.1
44913.5
42717.9
50430.1
49746
55101.4
55204.9
58964.9
59460.7
62147.3
62830.2
64794
65565.7
67036.6
67857.5
68979.1
69840
70691.3
71599.2
72210.5
73185.7
73551.5
74631.2
74719.8
75963.6
75720.6
77213.2
76562
78412.3
77253.4
79591.9
77802.8
80779.2
78211.7
107404
107398
107371
107332
107284
107216
107150
107049
106950
106795
106650
106439
106258
105995
105787
105465
105231
104836
104578
104089
103814
103200
102917
102138
101862
100858
100618
99306.6
99147.4
97406.7
97401.1
95057.7
95320.9
92121.4
92834.7
88407.4
89855.6
83650.4
86281.5
77477.9
81997.1
69355.5
76868.7
58484.2
70694
43562
62997.7
22342.8
52664
-8707.26
37953.6
-52514
19708.3
-102033
6376.98
-69992.8
10584.7
-36122.1
17789.3
-11109.9
24759.1
7695.72
31840.3
22299.6
38654.7
33731
44913.1
42717.7
50429.7
49746
55101.2
55205
58964.9
59460.8
62147.4
62830.3
64794.1
65565.9
67036.7
67857.6
68979.1
69840
70691.3
71599.2
72210.5
73185.6
73551.4
74631
74719.6
75963.3
75720.4
77212.8
76561.7
78411.8
77253.2
79591.4
77802.8
80778.7
78212.1
107405
107399
107371
107332
107284
107216
107150
107049
106950
106795
106650
106439
106258
105995
105787
105465
105231
104836
104579
104089
103814
103201
102917
102138
101862
100859
100619
99306.9
99147.6
97407.1
97401.4
95058.1
95321.2
92121.9
92834.9
88407.9
89855.8
83650.9
86281.7
77478.4
81997.1
69356.1
76868.6
58484.8
70694.1
43563
62998.3
22344.4
52665.4
-8706.17
37954.3
-52517.3
19706.5
-102047
6373.6
-69995.3
10584.7
-36120.8
17790.1
-11108.9
24759.1
7695.9
31840
22299.6
38654.3
33731
44912.6
42717.7
50429.4
49746
55101
55205.1
58964.9
59461
62147.4
62830.5
64794.2
65566
67036.8
67857.7
68979.2
69840
70691.3
71599.1
72210.4
73185.5
73551.3
74630.8
74719.4
75963
75720.1
77212.3
76561.5
78411.4
77253
79590.9
77802.9
80778.3
78212.6
107405
107399
107372
107332
107284
107216
107151
107050
106950
106795
106650
106439
106258
105995
105787
105465
105231
104836
104579
104089
103814
103201
102917
102138
101862
100859
100619
99307.2
99147.9
97407.5
97401.7
95058.6
95321.5
92122.4
92835.2
88408.4
89856.1
83651.5
86281.9
77479
81997.2
69356.7
76868.6
58485.6
70694.3
43564.1
62999.1
22346.1
52666.8
-8705
37955
-52520.8
19704.5
-102062
6369.85
-69998
10584.6
-36119.5
17790.9
-11107.9
24759
7696.13
31839.6
22299.7
38653.9
33731
44912.2
42717.6
50429
49746
55100.9
55205.2
58964.9
59461.2
62147.5
62830.7
64794.3
65566.2
67036.9
67857.8
68979.2
69840.1
70691.3
71599.1
72210.4
73185.3
73551.2
74630.6
74719.2
75962.7
75719.9
77211.9
76561.3
78410.9
77252.9
79590.5
77803
80777.8
78213.1
107405
107400
107372
107333
107285
107217
107151
107050
106951
106796
106651
106439
106259
105995
105787
105465
105231
104836
104579
104090
103814
103201
102917
102138
101863
100859
100619
99307.6
99148.2
97407.9
97402
95059.1
95321.8
92122.9
92835.6
88409
89856.4
83652.2
86282.1
77479.7
81997.3
69357.4
76868.6
58486.4
70694.4
43565.3
62999.8
22347.9
52668.4
-8703.75
37955.7
-52524.6
19702.3
-102078
6365.73
-70000.9
10584.5
-36118.1
17791.8
-11106.8
24758.8
7696.4
31839.2
22299.8
38653.4
33731.1
44911.7
42717.7
50428.7
49746.2
55100.8
55205.5
58964.9
59461.4
62147.6
62831
64794.4
65566.4
67037
67857.9
68979.3
69840.1
70691.3
71599.1
72210.4
73185.2
73551.1
74630.4
74719.1
75962.3
75719.7
77211.5
76561
78410.4
77252.7
79590
77803
80777.3
78213.5
107406
107400
107372
107333
107285
107217
107151
107050
106951
106796
106651
106439
106259
105996
105787
105465
105231
104836
104579
104090
103815
103201
102918
102139
101863
100860
100619
99308
99148.6
97408.4
97402.4
95059.6
95322.2
92123.5
92835.9
88409.7
89856.7
83652.9
86282.3
77480.5
81997.4
69358.2
76868.7
58487.3
70694.6
43566.7
63000.7
22349.9
52670
-8702.41
37956.5
-52528.7
19700
-102096
6361.23
-70004.1
10584.3
-36116.6
17792.6
-11105.6
24758.7
7696.7
31838.7
22300
38653
33731.1
44911.3
42717.7
50428.5
49746.3
55100.7
55205.7
58965
59461.7
62147.8
62831.2
64794.6
65566.6
67037.1
67858.1
68979.4
69840.2
70691.4
71599.1
72210.3
73185.1
73551
74630.2
74718.9
75962
75719.5
77211.1
76560.8
78410
77252.6
79589.5
77803.1
80776.9
78214
107406
107401
107373
107333
107286
107217
107151
107050
106951
106796
106651
106439
106259
105996
105787
105466
105232
104837
104579
104090
103815
103202
102918
102139
101863
100860
100620
99308.4
99148.9
97408.9
97402.8
95060.2
95322.6
92124.2
92836.3
88410.4
89857.1
83653.7
86282.6
77481.3
81997.6
69359
76868.7
58488.3
70694.8
43568.2
63001.5
22352
52671.7
-8701
37957.3
-52533.1
19697.4
-102115
6356.37
-70007.6
10584.1
-36115.1
17793.4
-11104.3
24758.5
7697.05
31838.3
22300.2
38652.5
33731.3
44910.9
42717.8
50428.2
49746.6
55100.7
55206
58965.1
59462
62147.9
62831.5
64794.7
65566.8
67037.3
67858.2
68979.5
69840.2
70691.4
71599
72210.3
73185
73551
74630
74718.8
75961.7
75719.3
77210.7
76560.6
78409.5
77252.5
79589.1
77803.2
80776.4
78214.4
107407
107401
107373
107334
107286
107218
107152
107051
106951
106796
106651
106440
106259
105996
105788
105466
105232
104837
104580
104090
103815
103202
102918
102139
101864
100861
100620
99308.9
99149.3
97409.4
97403.2
95060.8
95323
92124.9
92836.8
88411.2
89857.4
83654.5
86282.9
77482.2
81997.7
69359.9
76868.8
58489.4
70695
43569.7
63002.5
22354.3
52673.5
-8699.51
37958.1
-52537.8
19694.7
-102136
6351.13
-70011.3
10583.8
-36113.4
17794.3
-11103
24758.3
7697.44
31837.8
22300.4
38652.1
33731.4
44910.4
42718
50427.9
49746.8
55100.7
55206.4
58965.2
59462.4
62148.1
62831.8
64794.9
65567.1
67037.4
67858.3
68979.6
69840.3
70691.4
71599
72210.3
73184.9
73550.9
74629.7
74718.7
75961.4
75719.1
77210.3
76560.4
78409.1
77252.3
79588.6
77803.3
80776
78214.9
107407
107402
107374
107334
107286
107218
107152
107051
106952
106796
106651
106440
106259
105996
105788
105466
105232
104837
104580
104091
103815
103202
102918
102140
101864
100861
100621
99309.4
99149.7
97410
97403.7
95061.4
95323.5
92125.6
92837.2
88412
89857.9
83655.4
86283.2
77483.1
81997.9
69361
76868.8
58490.6
70695.3
43571.4
63003.4
22356.7
52675.4
-8697.94
37958.9
-52542.7
19691.8
-102158
6345.53
-70015.3
10583.5
-36111.7
17795.1
-11101.6
24758
7697.87
31837.3
22300.7
38651.6
33731.7
44910
42718.2
50427.7
49747.1
55100.7
55206.8
58965.4
59462.8
62148.3
62832.2
64795.1
65567.3
67037.6
67858.5
68979.6
69840.3
70691.5
71599
72210.3
73184.8
73550.8
74629.5
74718.5
75961.1
75718.9
77209.9
76560.2
78408.6
77252.2
79588.2
77803.3
80775.5
78215.3
107408
107402
107374
107335
107287
107218
107152
107051
106952
106797
106652
106440
106260
105996
105788
105466
105232
104837
104580
104091
103816
103203
102919
102140
101864
100861
100621
99309.9
99150.2
97410.6
97404.1
95062.1
95324
92126.4
92837.7
88412.9
89858.3
83656.4
86283.6
77484.1
81998.1
69362
76868.9
58491.8
70695.5
43573.2
63004.5
22359.3
52677.3
-8696.29
37959.7
-52548
19688.6
-102181
6339.55
-70019.5
10583.1
-36109.9
17795.9
-11100.2
24757.7
7698.34
31836.8
22301.1
38651.1
33731.9
44909.6
42718.5
50427.5
49747.5
55100.7
55207.2
58965.5
59463.2
62148.6
62832.6
64795.3
65567.6
67037.7
67858.7
68979.7
69840.4
70691.5
71599
72210.3
73184.7
73550.8
74629.3
74718.4
75960.8
75718.8
77209.5
76560
78408.1
77252.1
79587.7
77803.4
80775.1
78215.7
107409
107403
107375
107335
107287
107219
107153
107051
106952
106797
106652
106440
106260
105997
105788
105467
105233
104838
104581
104091
103816
103203
102919
102141
101865
100862
100621
99310.5
99150.7
97411.2
97404.6
95062.8
95324.5
92127.2
92838.2
88413.8
89858.8
83657.4
86284
77485.2
81998.4
69363.2
76869
58493.2
70695.8
43575.2
63005.6
22362
52679.4
-8694.55
37960.6
-52553.5
19685.3
-102205
6333.21
-70024
10582.6
-36108
17796.7
-11098.7
24757.4
7698.86
31836.2
22301.4
38650.7
33732.2
44909.2
42718.8
50427.3
49747.9
55100.8
55207.7
58965.7
59463.7
62148.8
62833
64795.6
65567.9
67037.9
67858.8
68979.9
69840.5
70691.6
71598.9
72210.3
73184.6
73550.8
74629.1
74718.3
75960.4
75718.6
77209.1
76559.9
78407.7
77252
79587.3
77803.5
80774.7
78216.1
107409
107403
107376
107336
107288
107219
107153
107052
106952
106797
106652
106441
106260
105997
105789
105467
105233
104838
104581
104092
103816
103203
102920
102141
101865
100862
100622
99311.1
99151.2
97411.9
97405.2
95063.6
95325
92128.1
92838.8
88414.8
89859.3
83658.5
86284.4
77486.4
81998.6
69364.4
76869.2
58494.6
70696.2
43577.2
63006.7
22364.8
52681.5
-8692.74
37961.5
-52559.4
19681.9
-102231
6326.5
-70028.7
10582.1
-36106
17797.5
-11097.2
24757.1
7699.41
31835.6
22301.8
38650.2
33732.6
44908.8
42719.1
50427.2
49748.4
55100.8
55208.2
58966
59464.2
62149.1
62833.4
64795.8
65568.2
67038.1
67859
68980
69840.5
70691.6
71598.9
72210.4
73184.5
73550.7
74628.9
74718.3
75960.1
75718.5
77208.7
76559.7
78407.2
77251.9
79586.8
77803.5
80774.2
78216.6
107410
107404
107376
107337
107289
107220
107154
107052
106953
106797
106652
106441
106260
105997
105789
105467
105233
104838
104581
104092
103817
103204
102920
102142
101866
100863
100622
99311.7
99151.7
97412.6
97405.7
95064.4
95325.6
92129
92839.4
88415.8
89859.8
83659.6
86284.8
77487.6
81998.9
69365.7
76869.3
58496.2
70696.5
43579.3
63007.9
22367.8
52683.7
-8690.85
37962.4
-52565.5
19678.2
-102258
6319.42
-70033.7
10581.6
-36104
17798.3
-11095.6
24756.7
7700
31835
22302.3
38649.7
33733
44908.4
42719.5
50427
49748.9
55101
55208.8
58966.2
59464.7
62149.4
62833.8
64796.1
65568.5
67038.3
67859.2
68980.1
69840.6
70691.7
71598.9
72210.4
73184.4
73550.7
74628.7
74718.2
75959.8
75718.4
77208.2
76559.5
78406.8
77251.8
79586.4
77803.6
80773.8
78217
107411
107405
107377
107337
107289
107220
107154
107052
106953
106798
106653
106441
106261
105997
105789
105468
105234
104839
104582
104092
103817
103204
102920
102142
101866
100864
100623
99312.4
99152.3
97413.4
97406.3
95065.3
95326.2
92130
92840
88416.9
89860.4
83660.8
86285.3
77488.9
81999.2
69367.1
76869.5
58497.8
70696.9
43581.6
63009.1
22370.9
52686
-8688.87
37963.3
-52571.9
19674.3
-102286
6311.98
-70038.9
10581
-36101.8
17799.1
-11093.9
24756.3
7700.63
31834.4
22302.8
38649.1
33733.4
44908
42720
50426.9
49749.5
55101.1
55209.4
58966.5
59465.3
62149.7
62834.3
64796.4
65568.9
67038.5
67859.4
68980.2
69840.7
70691.8
71598.9
72210.4
73184.3
73550.7
74628.5
74718.1
75959.5
75718.2
77207.8
76559.4
78406.3
77251.7
79585.9
77803.7
80773.4
78217.3
107412
107406
107378
107338
107290
107221
107154
107053
106953
106798
106653
106441
106261
105998
105789
105468
105234
104839
104582
104093
103818
103205
102921
102143
101867
100864
100623
99313.1
99152.8
97414.2
97406.9
95066.2
95326.9
92131
92840.6
88418.1
89861
83662.1
86285.8
77490.3
81999.5
69368.6
76869.6
58499.5
70697.2
43584
63010.4
22374.1
52688.4
-8686.82
37964.3
-52578.6
19670.3
-102316
6304.18
-70044.4
10580.3
-36099.6
17799.9
-11092.2
24755.9
7701.3
31833.8
22303.3
38648.6
33733.9
44907.6
42720.4
50426.8
49750.1
55101.3
55210.1
58966.8
59465.9
62150
62834.8
64796.7
65569.2
67038.7
67859.6
68980.3
69840.8
70691.8
71598.9
72210.5
73184.2
73550.7
74628.4
74718.1
75959.2
75718.1
77207.4
76559.3
78405.8
77251.6
79585.5
77803.7
80773
78217.7
107413
107406
107379
107339
107290
107221
107155
107053
106954
106798
106653
106442
106261
105998
105790
105468
105234
104839
104582
104093
103818
103205
102921
102143
101867
100865
100624
99313.8
99153.4
97415
97407.6
95067.1
95327.6
92132.1
92841.3
88419.3
89861.6
83663.4
86286.3
77491.7
81999.8
69370.1
76869.8
58501.3
70697.6
43586.5
63011.8
22377.5
52690.8
-8684.69
37965.2
-52585.6
19666.1
-102347
6296
-70050.2
10579.5
-36097.3
17800.7
-11090.4
24755.4
7702.01
31833.1
22303.9
38648.1
33734.4
44907.2
42721
50426.7
49750.8
55101.5
55210.8
58967.2
59466.6
62150.4
62835.4
64797
65569.6
67038.9
67859.8
68980.5
69840.9
70691.9
71598.9
72210.5
73184.1
73550.7
74628.2
74718
75958.9
75718
77207
76559.2
78405.4
77251.5
79585
77803.8
80772.6
78218.1
107413
107407
107379
107339
107291
107222
107155
107054
106954
106799
106654
106442
106261
105998
105790
105469
105235
104840
104583
104094
103818
103206
102922
102144
101868
100865
100625
99314.5
99154.1
97415.9
97408.3
95068.1
95328.3
92133.2
92842
88420.6
89862.3
83664.8
86286.8
77493.2
82000.1
69371.8
76870
58503.2
70698.1
43589.1
63013.2
22381.1
52693.3
-8682.47
37966.2
-52592.8
19661.6
-102379
6287.47
-70056.2
10578.7
-36095
17801.5
-11088.5
24754.9
7702.77
31832.5
22304.5
38647.5
33734.9
44906.9
42721.6
50426.6
49751.5
55101.7
55211.6
58967.5
59467.3
62150.8
62835.9
64797.3
65570
67039.1
67860.1
68980.6
69841
70692
71598.9
72210.5
73184
73550.7
74628
74718
75958.6
75718
77206.6
76559
78404.9
77251.4
79584.6
77803.9
80772.2
78218.5
107414
107408
107380
107340
107292
107223
107156
107054
106955
106799
106654
106442
106262
105999
105790
105469
105235
104840
104583
104094
103819
103206
102922
102144
101868
100866
100625
99315.3
99154.7
97416.7
97409
95069.1
95329
92134.4
92842.7
88421.9
89862.9
83666.3
86287.4
77494.8
82000.5
69373.5
76870.2
58505.2
70698.5
43591.8
63014.6
22384.7
52696
-8680.18
37967.3
-52600.4
19657
-102413
6278.57
-70062.4
10577.9
-36092.5
17802.2
-11086.6
24754.4
7703.55
31831.8
22305.2
38647
33735.5
44906.5
42722.2
50426.6
49752.3
55101.9
55212.4
58967.9
59468
62151.2
62836.5
64797.6
65570.4
67039.4
67860.3
68980.7
69841.1
70692.1
71598.9
72210.6
73183.9
73550.8
74627.8
74718
75958.3
75717.9
77206.2
76558.9
78404.4
77251.3
79584.2
77804
80771.9
78218.8
107415
107409
107381
107341
107293
107223
107156
107055
106955
106800
106654
106443
106262
105999
105791
105469
105235
104841
104584
104095
103819
103207
102923
102145
101869
100867
100626
99316.1
99155.4
97417.7
97409.7
95070.2
95329.7
92135.6
92843.5
88423.2
89863.7
83667.8
86287.9
77496.4
82000.9
69375.2
76870.5
58507.2
70699
43594.6
63016.1
22388.5
52698.7
-8677.8
37968.3
-52608.3
19652.2
-102448
6269.31
-70068.9
10577
-36090
17803
-11084.7
24753.8
7704.38
31831
22305.9
38646.4
33736.2
44906.1
42722.9
50426.5
49753.1
55102.2
55213.2
58968.3
59468.8
62151.6
62837.1
64798
65570.9
67039.6
67860.6
68980.9
69841.2
70692.2
71598.9
72210.7
73183.9
73550.8
74627.6
74718
75958
75717.8
77205.8
76558.8
78404
77251.3
79583.7
77804
80771.5
78219.2
107416
107410
107382
107342
107293
107224
107157
107055
106955
106800
106655
106443
106262
105999
105791
105470
105236
104841
104584
104095
103820
103207
102923
102146
101869
100868
100626
99317
99156.1
97418.7
97410.5
95071.3
95330.5
92136.8
92844.3
88424.7
89864.4
83669.4
86288.6
77498.2
82001.3
69377.1
76870.7
58509.4
70699.5
43597.6
63017.6
22392.5
52701.4
-8675.34
37969.4
-52616.4
19647.2
-102484
6259.69
-70075.7
10576
-36087.4
17803.7
-11082.7
24753.2
7705.25
31830.3
22306.6
38645.9
33736.9
44905.8
42723.6
50426.5
49754
55102.5
55214.1
58968.8
59469.6
62152.1
62837.8
64798.4
65571.3
67039.9
67860.8
68981.1
69841.3
70692.3
71598.9
72210.7
73183.8
73550.9
74627.4
74718
75957.7
75717.8
77205.4
76558.8
78403.5
77251.2
79583.3
77804.1
80771.1
78219.5
107417
107411
107383
107342
107294
107225
107158
107055
106956
106800
106655
106443
106263
106000
105792
105470
105236
104842
104584
104096
103820
103208
102924
102146
101870
100868
100627
99317.9
99156.9
97419.7
97411.2
95072.5
95331.4
92138.2
92845.1
88426.1
89865.2
83671
86289.2
77499.9
82001.7
69379
76871
58511.7
70700
43600.6
63019.2
22396.6
52704.3
-8672.81
37970.5
-52624.9
19642
-102522
6249.71
-70082.7
10575
-36084.7
17804.5
-11080.6
24752.6
7706.15
31829.5
22307.4
38645.3
33737.6
44905.4
42724.4
50426.5
49754.9
55102.8
55215.1
58969.2
59470.4
62152.5
62838.5
64798.8
65571.8
67040.2
67861.1
68981.2
69841.4
70692.4
71598.9
72210.8
73183.7
73550.9
74627.2
74718
75957.4
75717.7
77204.9
76558.7
78403
77251.2
79582.8
77804.2
80770.8
78219.9
107418
107412
107384
107343
107295
107225
107158
107056
106956
106801
106656
106444
106263
106000
105792
105471
105237
104842
104585
104096
103821
103209
102925
102147
101871
100869
100628
99318.8
99157.7
97420.7
97412.1
95073.7
95332.2
92139.5
92845.9
88427.7
89866
83672.7
86289.9
77501.8
82002.2
69381
76871.2
58514
70700.5
43603.8
63020.9
22400.8
52707.2
-8670.19
37971.6
-52633.6
19636.6
-102561
6239.36
-70089.9
10573.9
-36081.9
17805.2
-11078.5
24752
7707.1
31828.7
22308.2
38644.7
33738.4
44905
42725.2
50426.5
49755.8
55103.2
55216
58969.7
59471.3
62153
62839.2
64799.2
65572.3
67040.5
67861.4
68981.4
69841.5
70692.5
71598.9
72210.9
73183.6
73551
74627.1
74718
75957.1
75717.7
77204.5
76558.6
78402.6
77251.1
79582.4
77804.2
80770.4
78220.2
107419
107413
107385
107344
107296
107226
107159
107056
106957
106801
106656
106444
106264
106001
105792
105471
105237
104843
104585
104097
103822
103209
102925
102148
101871
100870
100629
99319.7
99158.4
97421.8
97412.9
95074.9
95333.1
92140.9
92846.8
88429.3
89866.8
83674.5
86290.6
77503.7
82002.7
69383.1
76871.5
58516.4
70701.1
43607.1
63022.6
22405.2
52710.3
-8667.49
37972.8
-52642.6
19631.1
-102601
6228.66
-70097.4
10572.7
-36079.1
17806
-11076.3
24751.3
7708.08
31827.9
22309.1
38644.1
33739.2
44904.7
42726.1
50426.6
49756.9
55103.6
55217.1
58970.2
59472.2
62153.5
62839.9
64799.6
65572.8
67040.7
67861.7
68981.6
69841.6
70692.6
71598.9
72211
73183.6
73551
74626.9
74718.1
75956.8
75717.7
77204.1
76558.6
78402.1
77251.1
79582
77804.3
80770.1
78220.5
107420
107414
107386
107345
107297
107227
107159
107057
106957
106802
106656
106445
106264
106001
105793
105472
105238
104843
104586
104097
103822
103210
102926
102149
101872
100871
100629
99320.7
99159.3
97422.9
97413.8
95076.2
95334
92142.4
92847.7
88430.9
89867.6
83676.3
86291.3
77505.7
82003.2
69385.2
76871.8
58518.9
70701.7
43610.5
63024.3
22409.7
52713.4
-8664.71
37973.9
-52651.9
19625.3
-102643
6217.6
-70105.2
10571.5
-36076.2
17806.7
-11074
24750.6
7709.1
31827
22310
38643.5
33740
44904.4
42727
50426.7
49757.9
55104
55218.2
58970.8
59473.1
62154.1
62840.6
64800.1
65573.3
67041.1
67862
68981.7
69841.7
70692.7
71599
72211.1
73183.5
73551.1
74626.7
74718.1
75956.5
75717.7
77203.7
76558.5
78401.6
77251
79581.5
77804.3
80769.7
78220.8
107422
107415
107387
107346
107298
107227
107160
107058
106958
106802
106657
106445
106264
106002
105793
105472
105238
104844
104587
104098
103823
103211
102926
102149
101873
100872
100630
99321.7
99160.1
97424
97414.7
95077.5
95334.9
92143.9
92848.7
88432.6
89868.5
83678.2
86292
77507.7
82003.7
69387.4
76872.2
58521.5
70702.3
43614
63026.1
22414.4
52716.6
-8661.85
37975.1
-52661.5
19619.3
-102686
6206.17
-70113.2
10570.2
-36073.2
17807.4
-11071.7
24749.8
7710.15
31826.2
22310.9
38642.8
33740.9
44904
42728
50426.7
49759
55104.4
55219.3
58971.4
59474.1
62154.6
62841.4
64800.5
65573.9
67041.4
67862.3
68981.9
69841.9
70692.8
71599
72211.2
73183.4
73551.2
74626.5
74718.2
75956.2
75717.7
77203.3
76558.5
78401.2
77251
79581.1
77804.4
80769.4
78221.2
107423
107416
107388
107347
107298
107228
107161
107058
106958
106803
106657
106446
106265
106002
105794
105473
105239
104844
104587
104099
103823
103211
102927
102150
101873
100873
100631
99322.8
99161
97425.2
97415.6
95078.8
95335.9
92145.4
92849.7
88434.4
89869.4
83680.1
86292.8
77509.9
82004.2
69389.8
76872.5
58524.2
70702.9
43617.6
63028
22419.2
52719.8
-8658.9
37976.3
-52671.4
19613.2
-102730
6194.39
-70121.5
10568.8
-36070.1
17808.1
-11069.4
24749
7711.25
31825.3
22311.9
38642.2
33741.9
44903.7
42729
50426.8
49760.2
55104.9
55220.5
58972
59475.2
62155.2
62842.2
64801
65574.4
67041.7
67862.6
68982.1
69842
70692.9
71599
72211.3
73183.3
73551.3
74626.4
74718.2
75955.9
75717.7
77202.9
76558.5
78400.7
77251
79580.7
77804.5
80769.1
78221.5
107424
107417
107389
107348
107299
107229
107162
107059
106959
106803
106658
106446
106265
106002
105794
105473
105239
104845
104588
104099
103824
103212
102928
102151
101874
100874
100632
99323.8
99161.9
97426.5
97416.6
95080.2
95336.9
92147
92850.7
88436.2
89870.4
83682.1
86293.6
77512.1
82004.7
69392.1
76872.8
58527
70703.5
43621.3
63029.9
22424.1
52723.2
-8655.88
37977.6
-52681.6
19606.8
-102775
6182.26
-70130
10567.4
-36067
17808.8
-11067
24748.2
7712.38
31824.4
22312.9
38641.6
33742.8
44903.3
42730
50427
49761.4
55105.4
55221.7
58972.6
59476.2
62155.8
62843.1
64801.5
65575
67042
67862.9
68982.3
69842.2
70693.1
71599
72211.4
73183.3
73551.4
74626.2
74718.3
75955.6
75717.7
77202.5
76558.4
78400.2
77250.9
79580.3
77804.5
80768.7
78221.7
107425
107418
107390
107349
107300
107230
107162
107059
106959
106804
106658
106446
106266
106003
105795
105474
105240
104845
104588
104100
103825
103213
102929
102152
101875
100875
100633
99324.9
99162.8
97427.7
97417.6
95081.7
95337.9
92148.7
92851.7
88438
89871.4
83684.2
86294.4
77514.3
82005.3
69394.6
76873.2
58529.8
70704.2
43625.2
63031.8
22429.2
52726.6
-8652.77
37978.9
-52692.1
19600.3
-102822
6169.76
-70138.8
10565.9
-36063.8
17809.4
-11064.5
24747.3
7713.54
31823.4
22313.9
38640.9
33743.9
44903
42731.1
50427.1
49762.7
55105.9
55222.9
58973.2
59477.3
62156.5
62843.9
64802
65575.6
67042.4
67863.2
68982.5
69842.3
70693.2
71599
72211.5
73183.2
73551.5
74626
74718.4
75955.3
75717.8
77202
76558.4
78399.7
77250.9
79579.8
77804.6
80768.4
78222
107427
107420
107391
107350
107301
107231
107163
107060
106960
106804
106659
106447
106266
106003
105795
105474
105240
104846
104589
104101
103825
103214
102929
102153
101876
100876
100634
99326.1
99163.8
97429
97418.6
95083.2
95339
92150.3
92852.8
88439.9
89872.4
83686.3
86295.2
77516.6
82005.9
69397.1
76873.6
58532.8
70704.8
43629.2
63033.8
22434.4
52730.1
-8649.58
37980.1
-52702.8
19593.5
-102871
6156.91
-70147.8
10564.4
-36060.5
17810.1
-11062
24746.4
7714.75
31822.4
22315
38640.2
33744.9
44902.7
42732.3
50427.3
49764
55106.5
55224.2
58973.9
59478.5
62157.1
62844.8
64802.5
65576.2
67042.7
67863.6
68982.7
69842.4
70693.3
71599.1
72211.6
73183.2
73551.7
74625.9
74718.5
75955
75717.8
77201.6
76558.4
78399.3
77250.9
79579.4
77804.7
80768.1
78222.3
107428
107421
107393
107351
107302
107232
107164
107061
106960
106805
106659
106447
106267
106004
105796
105475
105241
104847
104589
104101
103826
103214
102930
102154
101877
100877
100634
99327.2
99164.8
97430.4
97419.6
95084.7
95340.1
92152.1
92853.8
88441.9
89873.4
83688.5
86296.1
77519
82006.5
69399.7
76874
58535.8
70705.5
43633.2
63035.9
22439.8
52733.7
-8646.31
37981.5
-52713.9
19586.6
-102920
6143.7
-70157.1
10562.7
-36057.1
17810.7
-11059.5
24745.5
7715.98
31821.5
22316.1
38639.6
33746
44902.4
42733.5
50427.4
49765.4
55107
55225.6
58974.6
59479.6
62157.8
62845.7
64803.1
65576.8
67043.1
67863.9
68982.9
69842.6
70693.5
71599.1
72211.8
73183.1
73551.8
74625.7
74718.6
75954.7
75717.9
77201.2
76558.4
78398.8
77250.9
79579
77804.7
80767.8
78222.6
107429
107422
107394
107353
107304
107233
107165
107061
106961
106805
106660
106448
106267
106005
105796
105475
105241
104847
104590
104102
103827
103215
102931
102154
101877
100878
100635
99328.4
99165.8
97431.7
97420.7
95086.3
95341.2
92153.9
92855
88443.9
89874.5
83690.8
86297
77521.5
82007.1
69402.4
76874.4
58539
70706.3
43637.4
63038
22445.3
52737.4
-8642.96
37982.8
-52725.2
19579.4
-102971
6130.13
-70166.7
10561
-36053.7
17811.3
-11056.8
24744.5
7717.26
31820.4
22317.3
38638.9
33747.2
44902.1
42734.7
50427.6
49766.8
55107.6
55227
58975.4
59480.9
62158.5
62846.7
64803.6
65577.5
67043.4
67864.3
68983.2
69842.7
70693.6
71599.1
72211.9
73183
73551.9
74625.5
74718.7
75954.4
75718
77200.8
76558.5
78398.3
77250.9
79578.6
77804.8
80767.5
78222.8
107431
107423
107395
107354
107305
107233
107165
107062
106962
106806
106660
106449
106268
106005
105797
105476
105242
104848
104591
104103
103827
103216
102932
102155
101878
100879
100636
99329.7
99166.8
97433.1
97421.8
95087.9
95342.4
92155.7
92856.1
88446
89875.5
83693.1
86297.9
77524
82007.8
69405.2
76874.8
58542.2
70707
43641.7
63040.1
22450.9
52741.2
-8639.52
37984.2
-52736.9
19572.1
-103024
6116.21
-70176.5