/*--------------------------------*- C++ -*----------------------------------*\
| =========                 |                                                 |
| \\      /  F ield         | OpenFOAM: The Open Source CFD Toolbox           |
|  \\    /   O peration     | Version:  2412                                  |
|   \\  /    A nd           | Website:  www.openfoam.com                      |
|    \\/     M anipulation  |                                                 |
\*---------------------------------------------------------------------------*/
FoamFile
{
    version     2.0;
    format      ascii;
    arch        "LSB;label=32;scalar=64";
    class       surfaceScalarField;
    location    "0.5";
    object      phi;
}
// * * * * * * * * * * * * * * * * * * * * * * * * * * * * * * * * * * * * * //

dimensions      [0 3 -1 0 0 0 0];

oriented        oriented;

internalField   nonuniform List<scalar> 
25905
(
0.00747422
0.000203165
0.00738199
0.000184316
0.0073003
0.000162128
0.00723517
0.000127109
0.00719841
6.87552e-05
0.00720025
-8.75956e-06
0.00724124
-8.62437e-05
0.00731042
-0.000141564
0.00739187
-0.000165527
0.00747215
-0.000162964
0.00754386
-0.000145731
0.00760537
-0.000125089
0.00765794
-0.000106875
0.00770363
-9.27642e-05
0.00774371
-8.13422e-05
0.00777922
-7.19788e-05
0.00781046
-6.33283e-05
0.00783827
-5.63205e-05
0.00786276
-4.95878e-05
0.00788474
-4.4502e-05
0.00790405
-3.92528e-05
0.00792153
-3.56525e-05
0.00793662
-3.10702e-05
0.0079505
-2.85845e-05
0.00796213
-2.40429e-05
0.00797302
-2.19291e-05
0.00798167
-1.66165e-05
0.00799009
-1.42492e-05
0.00799604
-7.02368e-06
0.00800247
-3.88194e-06
0.008006
6.51953e-06
0.00801082
1.0995e-05
0.0080121
2.43867e-05
0.00801586
2.74462e-05
0.00801531
4.03522e-05
0.0080188
3.7428e-05
0.00801693
4.61494e-05
0.00802142
3.24438e-05
0.00801936
3.22246e-05
0.00802681
8.85469e-07
0.00802684
-1.70727e-05
0.00804033
-7.44462e-05
0.00804521
-0.000114348
0.00806624
-0.000191699
0.00807484
-0.00023761
0.00809712
-0.000288251
0.00809681
-0.000243445
0.00809767
-0.000136789
0.0080634
5.94015e-05
0.00800205
0.000270663
0.00788964
0.000422768
0.00764863
0.000667547
0.00727685
0.000663496
0.00731173
-0.000123201
0.00755357
-0.000570447
0.00771635
-0.000333246
0.00779109
-7.01569e-05
0.0078369
0.000103789
0.00783807
0.000256287
0.00784395
0.000290152
0.00783227
0.000334987
0.0078346
0.000307795
0.0078278
0.000305194
0.00783395
0.00025716
0.00783352
0.000260301
0.00784236
0.000228524
0.00784512
0.000226638
0.00785325
0.000172479
0.00785542
0.000131189
0.00786002
6.12849e-05
0.00785899
1.88976e-05
0.0078582
-3.15082e-05
0.00785232
-5.69374e-05
0.00784563
-8.1626e-05
0.00783493
-8.35302e-05
0.00782346
-8.1639e-05
0.00780958
-6.68683e-05
0.00779555
-5.31107e-05
0.00778076
-3.50717e-05
0.00776657
-1.88896e-05
0.00775275
-2.28831e-06
0.00773979
1.14436e-05
0.00772777
2.03378e-05
0.00771641
2.3278e-05
0.00770614
1.45388e-05
0.00769614
-2.81935e-06
0.00768729
-3.75714e-05
0.00767854
-8.02867e-05
0.00767137
-0.000146256
0.00766455
-0.000213825
0.00766005
-0.000313482
0.00765705
-0.000399274
0.00765747
-0.000534479
0.0076617
-0.000621955
0.00767069
-0.000793375
0.00768723
-0.000848805
0.00771018
-0.00105425
0.00774476
-0.00102544
-0.00126963
0.00747422
0.000304705
0.00738199
0.000276544
0.0073003
0.000243818
0.00723517
0.000192241
0.0071984
0.00010552
0.00720023
-1.05887e-05
0.00724121
-0.000127224
0.00731037
-0.000210724
0.00739182
-0.000246976
0.0074721
-0.000243238
0.00754381
-0.000217446
0.00760532
-0.0001866
0.00765789
-0.000159445
0.00770358
-0.000138446
0.00774366
-0.000121431
0.00777917
-0.000107481
0.00781041
-9.4571e-05
0.00783823
-8.41365e-05
0.00786271
-7.4076e-05
0.00788469
-6.64827e-05
0.00790401
-5.85642e-05
0.00792149
-5.31326e-05
0.00793658
-4.61618e-05
0.00795045
-4.24571e-05
0.00796208
-3.56719e-05
0.00797298
-3.28262e-05
0.00798163
-2.52673e-05
0.00799005
-2.26714e-05
0.007996
-1.29694e-05
0.00800243
-1.03146e-05
0.00800596
2.98618e-06
0.00801078
6.17675e-06
0.00801206
2.31017e-05
0.00801583
2.36834e-05
0.00801527
4.09057e-05
0.00801877
3.39287e-05
0.0080169
4.80204e-05
0.00802139
2.79569e-05
0.00801933
3.42874e-05
0.00802678
-6.56528e-06
0.0080268
-1.70992e-05
0.00804028
-8.79276e-05
0.00804516
-0.000119224
0.00806619
-0.000212727
0.00807479
-0.000246212
0.00809708
-0.000310537
0.00809678
-0.000243145
0.00809765
-0.00013766
0.00806338
9.36685e-05
0.00800203
0.000332008
0.00788962
0.000535185
0.0076486
0.000908561
0.00727685
0.00103525
0.00731174
-0.000158086
0.00755355
-0.000812261
0.00771631
-0.000496005
0.00779104
-0.000144892
0.00783686
5.79742e-05
0.00783804
0.000255109
0.00784391
0.000284275
0.00783223
0.000346669
0.00783457
0.000305458
0.00782777
0.000311997
0.00783392
0.000251007
0.00783349
0.000260734
0.00784233
0.000219685
0.00784509
0.000223874
0.00785322
0.000164346
0.00785539
0.000129024
0.00785999
5.66836e-05
0.00785896
1.99342e-05
0.00785817
-3.07239e-05
0.00785229
-5.10587e-05
0.0078456
-7.49368e-05
0.0078349
-7.2829e-05
0.00782343
-7.01687e-05
0.00780955
-5.29892e-05
0.00779553
-3.90851e-05
0.00778073
-2.02781e-05
0.00776654
-4.69986e-06
0.00775272
1.15341e-05
0.00773976
2.4402e-05
0.00772774
3.23577e-05
0.00771638
3.46434e-05
0.00770611
2.48042e-05
0.0076961
7.18849e-06
0.00768725
-2.87154e-05
0.00767849
-7.15264e-05
0.0076713
-0.00013907
0.00766447
-0.000206992
0.00765995
-0.000308967
0.00765694
-0.000396261
0.00765735
-0.000534887
0.00766158
-0.000626187
0.00767057
-0.000802362
0.00768711
-0.000865351
0.00771009
-0.00107723
0.0077447
-0.00106006
-0.00131776
0.00747422
0.000406244
0.00738199
0.000368771
0.0073003
0.000325508
0.00723517
0.000257376
0.00719839
0.000142295
0.0072002
-1.23986e-05
0.00724116
-0.000168181
0.0073103
-0.000279865
0.00739174
-0.000328416
0.00747201
-0.000323511
0.00754373
-0.000289163
0.00760524
-0.000248114
0.00765781
-0.000212016
0.0077035
-0.000184129
0.00774359
-0.000161521
0.00777909
-0.000142984
0.00781033
-0.000125814
0.00783815
-0.000111953
0.00786264
-9.85651e-05
0.00788462
-8.84642e-05
0.00790393
-7.78764e-05
0.00792142
-7.06136e-05
0.00793651
-6.12542e-05
0.00795038
-5.63307e-05
0.00796201
-4.73018e-05
0.00797291
-4.37241e-05
0.00798156
-3.39189e-05
0.00798998
-3.10944e-05
0.00799593
-1.89162e-05
0.00800236
-1.67484e-05
0.0080059
-5.48915e-07
0.00801072
1.35621e-06
0.00801201
2.18138e-05
0.00801577
1.99178e-05
0.00801522
4.14569e-05
0.00801872
3.04283e-05
0.00801685
4.98917e-05
0.00802134
2.34717e-05
0.00801927
3.6353e-05
0.00802672
-1.40121e-05
0.00802674
-1.71206e-05
0.00804022
-0.000101404
0.00804509
-0.000124095
0.00806611
-0.000233753
0.00807472
-0.000254815
0.00809701
-0.000332829
0.00809672
-0.000242855
0.0080976
-0.000138542
0.00806334
0.00012793
0.008002
0.000393348
0.00788958
0.000647605
0.00764857
0.00114957
0.00727686
0.00140696
0.00731175
-0.000192978
0.00755353
-0.00105404
0.00771626
-0.000658735
0.00779099
-0.000219618
0.00783681
1.21497e-05
0.007838
0.000253927
0.00784387
0.0002784
0.00783219
0.000358352
0.00783453
0.000303117
0.00782773
0.000318796
0.00783388
0.000244853
0.00783345
0.000261169
0.00784229
0.000210846
0.00784505
0.000221107
0.00785319
0.00015621
0.00785536
0.000126859
0.00785996
5.20822e-05
0.00785892
2.09708e-05
0.00785814
-2.99398e-05
0.00785226
-4.51803e-05
0.00784557
-6.82479e-05
0.00783487
-6.21286e-05
0.0078234
-5.86998e-05
0.00780952
-3.91118e-05
0.0077955
-2.50608e-05
0.0077807
-5.48487e-06
0.00776651
9.49024e-06
0.00775269
2.53576e-05
0.00773973
3.7362e-05
0.00772771
4.43794e-05
0.00771634
4.60113e-05
0.00770607
3.50734e-05
0.00769606
1.72019e-05
0.00768719
-1.98513e-05
0.00767842
-6.27559e-05
0.00767122
-0.000131871
0.00766438
-0.000200146
0.00765985
-0.000304436
0.00765682
-0.000393236
0.00765722
-0.000535281
0.00766144
-0.000630413
0.00767042
-0.000811344
0.00768698
-0.000881906
0.00770997
-0.00110021
0.00774461
-0.0010947
-0.00136592
0.00747422
0.000507783
0.00738199
0.000460997
0.0073003
0.000407197
0.00723517
0.000322512
0.00719838
0.00017908
0.00720017
-1.41882e-05
0.0072411
-0.000209112
0.00731022
-0.000348984
0.00739165
-0.000409843
0.00747192
-0.00040378
0.00754364
-0.00036088
0.00760515
-0.000309629
0.00765772
-0.000264588
0.00770341
-0.000229811
0.0077435
-0.000201611
0.007779
-0.000178487
0.00781024
-0.000157058
0.00783806
-0.000139771
0.00786255
-0.000123055
0.00788453
-0.000110446
0.00790385
-9.71895e-05
0.00792133
-8.80955e-05
0.00793642
-7.63476e-05
0.00795029
-7.02051e-05
0.00796193
-5.89326e-05
0.00797282
-5.46228e-05
0.00798148
-4.25714e-05
0.0079899
-3.95183e-05
0.00799585
-2.48641e-05
0.00800228
-2.31835e-05
0.00800582
-4.08579e-06
0.00801064
-3.46664e-06
0.00801193
2.05229e-05
0.0080157
1.61493e-05
0.00801515
4.2006e-05
0.00801866
2.6927e-05
0.00801678
5.17635e-05
0.00802127
1.89883e-05
0.0080192
3.8422e-05
0.00802664
-2.14544e-05
0.00802666
-1.71362e-05
0.00804013
-0.000114875
0.00804499
-0.000128961
0.00806602
-0.000254776
0.00807462
-0.000263418
0.00809692
-0.000355128
0.00809664
-0.000242575
0.00809753
-0.000139438
0.00806328
0.000162184
0.00800195
0.000454679
0.00788953
0.000760023
0.00764854
0.00139056
0.00727687
0.00177863
0.00731177
-0.000227877
0.00755351
-0.00129579
0.00771621
-0.000821435
0.00779092
-0.000294332
0.00783676
-3.36821e-05
0.00783794
0.000252743
0.00784381
0.000272529
0.00783213
0.000370035
0.00783447
0.000300771
0.00782768
0.000325591
0.00783383
0.000238698
0.0078334
0.000261605
0.00784224
0.000202006
0.00784501
0.000218337
0.00785315
0.000148071
0.00785532
0.000124691
0.00785992
4.74802e-05
0.00785888
2.20071e-05
0.0078581
-2.9156e-05
0.00785222
-3.93021e-05
0.00784553
-6.15592e-05
0.00783483
-5.1429e-05
0.00782336
-4.72322e-05
0.00780949
-2.52359e-05
0.00779546
-1.10374e-05
0.00778067
9.30816e-06
0.00776648
2.36811e-05
0.00775265
3.91824e-05
0.00773969
5.03235e-05
0.00772767
5.64031e-05
0.0077163
5.73817e-05
0.00770603
4.53465e-05
0.00769601
2.7221e-05
0.00768713
-1.09791e-05
0.00767835
-5.39751e-05
0.00767114
-0.00012466
0.00766428
-0.000193285
0.00765973
-0.00029989
0.00765669
-0.000390196
0.00765707
-0.000535661
0.00766129
-0.000634632
0.00767027
-0.00082032
0.00768683
-0.000898468
0.00770983
-0.00112321
0.0077445
-0.00112938
-0.00141413
0.00747422
0.00060932
0.007382
0.000553221
0.00730031
0.000488884
0.00723517
0.000387649
0.00719838
0.000215874
0.00720015
-1.59568e-05
0.00724105
-0.000250014
0.00731014
-0.000418078
0.00739156
-0.000491255
0.00747182
-0.000484044
0.00754353
-0.000432596
0.00760505
-0.000371143
0.00765762
-0.000317159
0.0077033
-0.000275493
0.00774339
-0.000241699
0.00777889
-0.000213989
0.00781014
-0.000188301
0.00783795
-0.000167588
0.00786244
-0.000147544
0.00788443
-0.000132429
0.00790374
-0.000116503
0.00792122
-0.000105578
0.00793632
-9.14416e-05
0.00795019
-8.40801e-05
0.00796182
-7.0564e-05
0.00797272
-6.55221e-05
0.00798138
-5.12245e-05
0.0079898
-4.79429e-05
0.00799575
-3.08128e-05
0.00800219
-2.96197e-05
0.00800572
-7.62428e-06
0.00801055
-8.29171e-06
0.00801184
1.92294e-05
0.00801561
1.23781e-05
0.00801507
4.25531e-05
0.00801857
2.34251e-05
0.0080167
5.36362e-05
0.00802118
1.45071e-05
0.0080191
4.04949e-05
0.00802654
-2.88916e-05
0.00802655
-1.71452e-05
0.00804001
-0.000128339
0.00804487
-0.00013382
0.00806589
-0.000275797
0.0080745
-0.000272023
0.00809681
-0.000377435
0.00809654
-0.000242306
0.00809745
-0.000140348
0.0080632
0.00019643
0.00800188
0.000515998
0.00788947
0.000872435
0.0076485
0.00163153
0.00727688
0.00215025
0.00731178
-0.000262781
0.00755349
-0.00153749
0.00771615
-0.000984099
0.00779085
-0.000369031
0.00783669
-7.95194e-05
0.00783787
0.000251557
0.00784374
0.000266661
0.00783206
0.000381717
0.00783441
0.000298418
0.00782762
0.000332381
0.00783378
0.000232542
0.00783334
0.000262042
0.00784218
0.000193165
0.00784496
0.000215562
0.0078531
0.000139928
0.00785527
0.00012252
0.00785987
4.28774e-05
0.00785884
2.30427e-05
0.00785805
-2.83725e-05
0.00785218
-3.34241e-05
0.00784549
-5.48706e-05
0.00783479
-4.07301e-05
0.00782332
-3.57657e-05
0.00780945
-1.13611e-05
0.00779542
2.98544e-06
0.00778063
2.41014e-05
0.00776644
3.78728e-05
0.00775261
5.30085e-05
0.00773965
6.32868e-05
0.00772762
6.84287e-05
0.00771625
6.87547e-05
0.00770597
5.56234e-05
0.00769595
3.72458e-05
0.00768707
-2.09867e-06
0.00767828
-4.51837e-05
0.00767105
-0.000117434
0.00766417
-0.000186409
0.00765961
-0.000295327
0.00765656
-0.000387142
0.00765692
-0.000536026
0.00766113
-0.000638842
0.0076701
-0.000829289
0.00768667
-0.000915036
0.00770967
-0.00114622
0.00774438
-0.00116408
-0.00146237
0.00747422
0.000710857
0.007382
0.000645443
0.00730031
0.000570569
0.00723518
0.000452787
0.00719837
0.000252675
0.00720012
-1.7704e-05
0.00724099
-0.000290886
0.00731006
-0.000487143
0.00739145
-0.00057265
0.00747171
-0.000564299
0.00754342
-0.00050431
0.00760494
-0.000432657
0.00765751
-0.000369729
0.00770319
-0.000321172
0.00774327
-0.000281786
0.00777877
-0.000249489
0.00781002
-0.000219544
0.00783783
-0.000195404
0.00786232
-0.000172034
0.0078843
-0.000154411
0.00790362
-0.000135817
0.0079211
-0.000123061
0.0079362
-0.000106536
0.00795007
-9.79557e-05
0.0079617
-8.21961e-05
0.0079726
-7.64221e-05
0.00798126
-5.98784e-05
0.00798968
-5.63683e-05
0.00799563
-3.67625e-05
0.00800207
-3.60571e-05
0.00800561
-1.11644e-05
0.00801044
-1.31189e-05
0.00801173
1.79332e-05
0.00801551
8.60435e-06
0.00801496
4.30986e-05
0.00801846
1.99227e-05
0.00801659
5.55102e-05
0.00802107
1.00287e-05
0.00801899
4.25724e-05
0.00802642
-3.63233e-05
0.00802642
-1.71469e-05
0.00803988
-0.000141797
0.00804473
-0.000138674
0.00806575
-0.000296815
0.00807436
-0.000280628
0.00809667
-0.000399749
0.00809642
-0.000242049
0.00809734
-0.000141275
0.00806311
0.000230666
0.0080018
0.000577303
0.0078894
0.000984837
0.00764846
0.00187247
0.0072769
0.00252181
0.0073118
-0.000297689
0.00755346
-0.00177914
0.00771608
-0.00114673
0.00779076
-0.000443712
0.0078366
-0.00012536
0.00783779
0.000250371
0.00784366
0.000260796
0.00783197
0.000393399
0.00783433
0.000296057
0.00782755
0.000339164
0.00783371
0.000226384
0.00783327
0.000262479
0.00784211
0.000184323
0.00784489
0.000212783
0.00785304
0.000131779
0.00785522
0.000120347
0.00785982
3.82731e-05
0.00785879
2.40775e-05
0.007858
-2.75895e-05
0.00785213
-2.75463e-05
0.00784544
-4.8182e-05
0.00783474
-3.00316e-05
0.00782327
-2.43e-05
0.0078094
2.51281e-06
0.00779538
1.70081e-05
0.00778058
3.88951e-05
0.00776639
5.20657e-05
0.00775256
6.68363e-05
0.0077396
7.62519e-05
0.00772757
8.04563e-05
0.00771619
8.01302e-05
0.00770591
6.59042e-05
0.00769588
4.72764e-05
0.00768699
6.79007e-06
0.00767819
-3.63815e-05
0.00767095
-0.000110196
0.00766406
-0.000179519
0.00765948
-0.000290746
0.00765641
-0.000384072
0.00765676
-0.000536375
0.00766096
-0.000643042
0.00766992
-0.000838249
0.00768649
-0.000931608
0.0077095
-0.00116923
0.00774423
-0.00119881
-0.00151066
0.00747422
0.000812393
0.007382
0.000737664
0.00730032
0.000652253
0.00723518
0.000517922
0.00719837
0.000289482
0.0072001
-1.94295e-05
0.00724094
-0.000331726
0.00730997
-0.000556178
0.00739135
-0.000654024
0.0074716
-0.000644545
0.00754331
-0.00057602
0.00760482
-0.000494167
0.00765738
-0.000422294
0.00770306
-0.000366848
0.00774314
-0.00032187
0.00777864
-0.000284987
0.00780988
-0.000250784
0.00783769
-0.00022322
0.00786218
-0.000196523
0.00788417
-0.000176394
0.00790348
-0.000155131
0.00792096
-0.000140544
0.00793606
-0.000121631
0.00794993
-0.000111832
0.00796157
-9.38285e-05
0.00797247
-8.73225e-05
0.00798112
-6.85327e-05
0.00798955
-6.47943e-05
0.0079955
-4.27129e-05
0.00800194
-4.24955e-05
0.00800548
-1.4706e-05
0.00801031
-1.79483e-05
0.00801161
1.66344e-05
0.00801538
4.82815e-06
0.00801484
4.36425e-05
0.00801834
1.64202e-05
0.00801646
5.73859e-05
0.00802094
5.55317e-06
0.00801886
4.4655e-05
0.00802628
-4.37489e-05
0.00802628
-1.71406e-05
0.00803973
-0.000155247
0.00804457
-0.00014352
0.00806559
-0.00031783
0.00807419
-0.000289234
0.00809652
-0.000422072
0.00809627
-0.000241805
0.00809722
-0.000142219
0.00806299
0.00026489
0.00800171
0.000638589
0.00788932
0.00109723
0.00764841
0.00211338
0.00727691
0.0028933
0.00731183
-0.000332602
0.00755343
-0.00202074
0.00771601
-0.00130931
0.00779067
-0.00051837
0.00783651
-0.000171203
0.0078377
0.000249185
0.00784356
0.000254935
0.00783188
0.000405079
0.00783425
0.000293688
0.00782747
0.00034594
0.00783363
0.000220223
0.00783319
0.000262916
0.00784204
0.000175477
0.00784483
0.000209998
0.00785298
0.000123625
0.00785516
0.00011817
0.00785976
3.3667e-05
0.00785873
2.51114e-05
0.00785795
-2.6807e-05
0.00785207
-2.16686e-05
0.00784538
-4.14933e-05
0.00783468
-1.93334e-05
0.00782322
-1.28349e-05
0.00780934
1.63862e-05
0.00779532
3.10308e-05
0.00778053
5.36897e-05
0.00776633
6.62601e-05
0.0077525
8.06658e-05
0.00773953
8.92189e-05
0.0077275
9.24859e-05
0.00771613
9.15081e-05
0.00770584
7.61888e-05
0.00769581
5.73127e-05
0.00768691
1.56872e-05
0.0076781
-2.75685e-05
0.00767084
-0.000102943
0.00766394
-0.000172612
0.00765934
-0.000286148
0.00765625
-0.000380985
0.00765658
-0.000536706
0.00766077
-0.000647231
0.00766972
-0.000847198
0.0076863
-0.000948182
0.00770932
-0.00119225
0.00774407
-0.00123357
-0.00155897
0.00747422
0.000913928
0.007382
0.000829882
0.00730032
0.000733933
0.00723519
0.000583056
0.00719838
0.000326296
0.00720008
-2.11331e-05
0.00724089
-0.000372531
0.00730989
-0.00062518
0.00739124
-0.000735376
0.00747147
-0.00072478
0.00754318
-0.000647724
0.00760468
-0.000555673
0.00765725
-0.000474856
0.00770292
-0.000412519
0.007743
-0.000361949
0.00777849
-0.000320482
0.00780973
-0.000282022
0.00783754
-0.000251033
0.00786203
-0.00022101
0.00788401
-0.000198375
0.00790332
-0.000174444
0.00792081
-0.000158027
0.0079359
-0.000136726
0.00794978
-0.000125708
0.00796141
-0.000105461
0.00797231
-9.82233e-05
0.00798097
-7.71875e-05
0.00798939
-7.32208e-05
0.00799534
-4.8664e-05
0.00800178
-4.89348e-05
0.00800533
-1.82489e-05
0.00801016
-2.27796e-05
0.00801146
1.53333e-05
0.00801524
1.04959e-06
0.0080147
4.41851e-05
0.0080182
1.29176e-05
0.00801632
5.92635e-05
0.00802079
1.08104e-06
0.0080187
4.67432e-05
0.00802612
-5.11678e-05
0.00802611
-1.71256e-05
0.00803955
-0.000168689
0.00804439
-0.000148358
0.0080654
-0.000338842
0.00807401
-0.000297841
0.00809634
-0.000444405
0.00809611
-0.000241574
0.00809707
-0.000143182
0.00806286
0.000299102
0.0080016
0.000699855
0.00788923
0.0012096
0.00764835
0.00235426
0.00727693
0.00326472
0.00731185
-0.000367519
0.00755339
-0.00226227
0.00771593
-0.00147185
0.00779056
-0.000593002
0.0078364
-0.000217044
0.00783759
0.000248001
0.00784345
0.000249076
0.00783177
0.000416757
0.00783415
0.000291309
0.00782738
0.000352708
0.00783354
0.000214058
0.00783311
0.000263352
0.00784196
0.000166628
0.00784475
0.000207207
0.00785291
0.000115464
0.00785509
0.000115989
0.0078597
2.90586e-05
0.00785867
2.6144e-05
0.00785788
-2.6025e-05
0.00785201
-1.57908e-05
0.00784532
-3.48044e-05
0.00783462
-8.63545e-06
0.00782316
-1.37021e-06
0.00780928
3.02594e-05
0.00779526
4.5054e-05
0.00778046
6.84855e-05
0.00776627
8.04561e-05
0.00775243
9.44972e-05
0.00773947
0.000102188
0.00772743
0.000104517
0.00771605
0.000102889
0.00770576
8.64773e-05
0.00769572
6.73548e-05
0.00768682
2.45928e-05
0.00767799
-1.87442e-05
0.00767073
-9.56761e-05
0.0076638
-0.00016569
0.00765919
-0.000281532
0.00765608
-0.00037788
0.0076564
-0.00053702
0.00766057
-0.000651407
0.00766951
-0.000856136
0.00768609
-0.000964757
0.00770911
-0.00121527
0.00774389
-0.00126835
-0.00160733
0.00747422
0.00101546
0.00738201
0.000922098
0.00730033
0.00081561
0.0072352
0.000648186
0.00719838
0.000363114
0.00720006
-2.28141e-05
0.00724083
-0.0004133
0.0073098
-0.000694145
0.00739112
-0.000816703
0.00747135
-0.000805001
0.00754304
-0.00071942
0.00760454
-0.000617173
0.0076571
-0.000527411
0.00770276
-0.000458185
0.00774284
-0.000402024
0.00777833
-0.000355973
0.00780956
-0.000313257
0.00783738
-0.000278844
0.00786186
-0.000245496
0.00788384
-0.000220355
0.00790315
-0.000193756
0.00792064
-0.000175509
0.00793573
-0.00015182
0.00794961
-0.000139584
0.00796124
-0.000117094
0.00797214
-0.000109124
0.0079808
-8.58426e-05
0.00798922
-8.16477e-05
0.00799517
-5.46157e-05
0.00800162
-5.53751e-05
0.00800516
-2.17932e-05
0.00800999
-2.76129e-05
0.0080113
1.403e-05
0.00801508
-2.73119e-06
0.00801454
4.47268e-05
0.00801804
9.41516e-06
0.00801616
6.11436e-05
0.00802063
-3.38741e-06
0.00801853
4.88377e-05
0.00802594
-5.85796e-05
0.00802592
-1.71011e-05
0.00803935
-0.000182123
0.00804418
-0.000153188
0.00806519
-0.000359851
0.0080738
-0.000306449
0.00809614
-0.000466747
0.00809592
-0.000241357
0.00809691
-0.000144167
0.00806271
0.000333299
0.00800147
0.000761096
0.00788912
0.00132194
0.0076483
0.00259508
0.00727696
0.00363606
0.00731188
-0.000402438
0.00755335
-0.00250375
0.00771584
-0.00163434
0.00779045
-0.000667604
0.00783629
-0.000262884
0.00783747
0.00024682
0.00784332
0.000243222
0.00783165
0.000428432
0.00783404
0.000288919
0.00782728
0.000359467
0.00783345
0.000207889
0.00783301
0.000263786
0.00784187
0.000157775
0.00784466
0.00020441
0.00785283
0.000107297
0.00785502
0.000113804
0.00785963
2.44476e-05
0.0078586
2.71752e-05
0.00785782
-2.52437e-05
0.00785194
-9.91309e-06
0.00784525
-2.81153e-05
0.00783455
2.06253e-06
0.00782309
1.00943e-05
0.00780921
4.41326e-05
0.00779519
5.9078e-05
0.00778039
8.32827e-05
0.00776619
9.46541e-05
0.00775236
0.000108331
0.00773939
0.000115159
0.00772735
0.000116551
0.00771597
0.000114271
0.00770568
9.67695e-05
0.00769563
7.74026e-05
0.00768672
3.3507e-05
0.00767788
-9.90869e-06
0.0076706
-8.83947e-05
0.00766366
-0.000158751
0.00765903
-0.000276896
0.0076559
-0.000374758
0.0076562
-0.000537314
0.00766036
-0.000655569
0.00766929
-0.000865062
0.00768586
-0.000981332
0.00770889
-0.0012383
0.00774369
-0.00130314
-0.00165572
0.00747423
0.00111699
0.00738201
0.00101431
0.00730034
0.000897283
0.00723521
0.000713312
0.00719839
0.000399936
0.00720005
-2.44724e-05
0.00724078
-0.00045403
0.00730971
-0.000763071
0.00739101
-0.000898002
0.00747121
-0.000885207
0.0075429
-0.000791108
0.00760439
-0.000678666
0.00765694
-0.000579959
0.0077026
-0.000503843
0.00774267
-0.000442092
0.00777815
-0.000391459
0.00780938
-0.000344488
0.00783719
-0.000306653
0.00786168
-0.000269979
0.00788365
-0.000242334
0.00790297
-0.000213068
0.00792045
-0.000192991
0.00793554
-0.000166915
0.00794942
-0.00015346
0.00796105
-0.000128727
0.00797195
-0.000120025
0.00798061
-9.44978e-05
0.00798903
-9.0075e-05
0.00799499
-6.05679e-05
0.00800143
-6.18163e-05
0.00800497
-2.53386e-05
0.00800981
-3.2448e-05
0.00801111
1.27247e-05
0.0080149
-6.51408e-06
0.00801436
4.52676e-05
0.00801786
5.91318e-06
0.00801598
6.30264e-05
0.00802044
-7.85177e-06
0.00801834
5.09389e-05
0.00802574
-6.59838e-05
0.00802571
-1.70666e-05
0.00803913
-0.000195548
0.00804395
-0.000158009
0.00806496
-0.000380857
0.00807357
-0.000315058
0.00809592
-0.0004891
0.00809572
-0.000241154
0.00809673
-0.000145173
0.00806254
0.000367481
0.00800133
0.00082231
0.00788901
0.00143426
0.00764823
0.00283586
0.00727698
0.00400731
0.0073119
-0.000437359
0.00755331
-0.00274516
0.00771575
-0.00179678
0.00779032
-0.000742173
0.00783616
-0.000308718
0.00783733
0.000245643
0.00784318
0.00023737
0.00783151
0.000440103
0.00783391
0.000286517
0.00782716
0.000366216
0.00783334
0.000201714
0.00783291
0.000264217
0.00784177
0.000148917
0.00784457
0.000201605
0.00785275
9.91217e-05
0.00785494
0.000111613
0.00785955
1.98335e-05
0.00785852
2.82048e-05
0.00785774
-2.4463e-05
0.00785186
-4.03522e-06
0.00784517
-2.14257e-05
0.00783448
1.27607e-05
0.00782301
2.15589e-05
0.00780914
5.80062e-05
0.00779511
7.31032e-05
0.00778031
9.80817e-05
0.00776611
0.000108854
0.00775228
0.000122166
0.0077393
0.000128132
0.00772727
0.000128587
0.00771588
0.000125657
0.00770559
0.000107066
0.00769553
8.74564e-05
0.00768661
4.24299e-05
0.00767776
-1.06166e-06
0.00767047
-8.10986e-05
0.00766351
-0.000151795
0.00765886
-0.000272241
0.00765571
-0.000371616
0.00765599
-0.000537588
0.00766013
-0.000659716
0.00766905
-0.000873973
0.00768562
-0.000997904
0.00770865
-0.00126133
0.00774347
-0.00133797
-0.00170414
0.00747423
0.00121853
0.00738202
0.00110652
0.00730035
0.000978951
0.00723523
0.000778433
0.0071984
0.000436761
0.00720004
-2.61073e-05
0.00724073
-0.000494719
0.00730961
-0.000831955
0.00739088
-0.000979272
0.00747107
-0.000965396
0.00754275
-0.000862785
0.00760423
-0.00074015
0.00765677
-0.000632498
0.00770242
-0.000549494
0.00774248
-0.000482154
0.00777796
-0.00042694
0.00780919
-0.000375714
0.00783699
-0.000334457
0.00786148
-0.00029446
0.00788345
-0.00026431
0.00790276
-0.000232378
0.00792024
-0.000210472
0.00793534
-0.000182008
0.00794921
-0.000167335
0.00796084
-0.00014036
0.00797175
-0.000130926
0.0079804
-0.000103153
0.00798883
-9.85025e-05
0.00799478
-6.65204e-05
0.00800122
-6.82582e-05
0.00800477
-2.8885e-05
0.00800961
-3.72849e-05
0.00801091
1.14174e-05
0.0080147
-1.02989e-05
0.00801416
4.58078e-05
0.00801766
2.41182e-06
0.00801577
6.49123e-05
0.00802023
-1.23117e-05
0.00801813
5.30474e-05
0.00802552
-7.33798e-05
0.00802548
-1.70211e-05
0.00803889
-0.000208964
0.0080437
-0.00016282
0.00806471
-0.000401859
0.00807331
-0.000323668
0.00809568
-0.000511463
0.00809549
-0.000240968
0.00809652
-0.000146203
0.00806236
0.000401645
0.00800117
0.000883493
0.00788889
0.00154655
0.00764817
0.00307658
0.00727701
0.00437846
0.00731194
-0.000472282
0.00755327
-0.0029865
0.00771565
-0.00195916
0.00779019
-0.000816705
0.00783601
-0.000354546
0.00783718
0.000244471
0.00784303
0.000231523
0.00783136
0.000451771
0.00783378
0.000284102
0.00782704
0.000372954
0.00783322
0.000195533
0.00783279
0.000264646
0.00784166
0.000140054
0.00784447
0.000198793
0.00785265
9.09382e-05
0.00785485
0.000109416
0.00785947
1.52159e-05
0.00785844
2.92325e-05
0.00785766
-2.36831e-05
0.00785178
1.84281e-06
0.00784509
-1.47357e-05
0.00783439
2.34591e-05
0.00782293
3.30238e-05
0.00780905
7.18806e-05
0.00779503
8.71298e-05
0.00778023
0.000112883
0.00776602
0.000123057
0.00775219
0.000136005
0.00773921
0.000141107
0.00772717
0.000140625
0.00771578
0.000137045
0.00770548
0.000117366
0.00769542
9.75161e-05
0.00768649
5.13615e-05
0.00767763
7.79712e-06
0.00767032
-7.37875e-05
0.00766335
-0.000144822
0.00765867
-0.000267567
0.00765551
-0.000368453
0.00765577
-0.000537842
0.0076599
-0.000663847
0.00766879
-0.000882869
0.00768536
-0.00101447
0.00770839
-0.00128436
0.00774323
-0.00137281
-0.0017526
0.00747423
0.00132005
0.00738202
0.00119873
0.00730036
0.00106061
0.00723524
0.000843547
0.00719842
0.000473588
0.00720003
-2.77186e-05
0.00724067
-0.000535365
0.00730951
-0.000900794
0.00739075
-0.00106051
0.00747092
-0.00104557
0.00754259
-0.000934451
0.00760406
-0.000801624
0.00765659
-0.000685027
0.00770223
-0.000595135
0.00774228
-0.000522208
0.00777776
-0.000462413
0.00780898
-0.000406936
0.00783678
-0.000362258
0.00786126
-0.000318938
0.00788323
-0.000286285
0.00790254
-0.000251686
0.00792002
-0.000227951
0.00793511
-0.000197101
0.00794899
-0.000181211
0.00796062
-0.000151992
0.00797152
-0.000141827
0.00798018
-0.000111808
0.00798861
-0.00010693
0.00799456
-7.24733e-05
0.008001
-7.47008e-05
0.00800455
-3.24325e-05
0.00800939
-4.21235e-05
0.0080107
1.01083e-05
0.00801448
-1.40855e-05
0.00801394
4.63477e-05
0.00801744
-1.08871e-06
0.00801555
6.68018e-05
0.00802001
-1.67669e-05
0.00801789
5.51638e-05
0.00802528
-8.07671e-05
0.00802522
-1.69642e-05
0.00803863
-0.000222369
0.00804343
-0.000167621
0.00806443
-0.000422858
0.00807304
-0.000332278
0.00809541
-0.000533839
0.00809524
-0.000240798
0.0080963
-0.000147258
0.00806215
0.000435791
0.008001
0.000944643
0.00788875
0.0016588
0.00764809
0.00331723
0.00727704
0.00474951
0.00731197
-0.000507205
0.00755323
-0.00322775
0.00771555
-0.00212148
0.00779004
-0.000891196
0.00783586
-0.000400365
0.00783702
0.000243306
0.00784287
0.000225679
0.0078312
0.000463434
0.00783363
0.000281673
0.00782691
0.000379681
0.00783309
0.000189345
0.00783267
0.000265071
0.00784154
0.000131186
0.00784436
0.000195972
0.00785255
8.2746e-05
0.00785476
0.000107213
0.00785938
1.05944e-05
0.00785835
3.02583e-05
0.00785757
-2.29038e-05
0.00785169
7.72109e-06
0.007845
-8.04506e-06
0.0078343
3.41581e-05
0.00782284
4.44892e-05
0.00780896
8.57559e-05
0.00779493
0.000101158
0.00778013
0.000127686
0.00776593
0.000137262
0.00775209
0.000149845
0.00773911
0.000154084
0.00772707
0.000152665
0.00771568
0.000148435
0.00770537
0.000127669
0.00769531
0.000107582
0.00768637
6.0302e-05
0.0076775
1.66678e-05
0.00767017
-6.6461e-05
0.00766318
-0.00013783
0.00765848
-0.000262871
0.0076553
-0.00036527
0.00765553
-0.000538073
0.00765965
-0.00066796
0.00766852
-0.000891748
0.00768509
-0.00103104
0.00770812
-0.00130739
0.00774297
-0.00140766
-0.00180109
0.00747423
0.00142158
0.00738203
0.00129093
0.00730037
0.00114227
0.00723526
0.000908653
0.00719843
0.000510415
0.00720002
-2.93055e-05
0.00724062
-0.000575966
0.00730941
-0.000969585
0.00739062
-0.00114171
0.00747076
-0.00112571
0.00754242
-0.0010061
0.00760388
-0.000863087
0.0076564
-0.000737546
0.00770203
-0.000640766
0.00774207
-0.000562252
0.00777754
-0.00049788
0.00780876
-0.000438151
0.00783655
-0.000390054
0.00786103
-0.000343412
0.007883
-0.000308257
0.0079023
-0.000270993
0.00791978
-0.00024543
0.00793487
-0.000212193
0.00794875
-0.000195085
0.00796038
-0.000163623
0.00797128
-0.000152728
0.00797994
-0.000120463
0.00798836
-0.000115358
0.00799432
-7.84262e-05
0.00800076
-8.11439e-05
0.00800431
-3.59808e-05
0.00800915
-4.69636e-05
0.00801046
8.7976e-06
0.00801425
-1.78738e-05
0.00801371
4.68874e-05
0.00801721
-4.58816e-06
0.00801531
6.8695e-05
0.00801976
-2.12169e-05
0.00801764
5.72886e-05
0.00802502
-8.81452e-05
0.00802495
-1.6895e-05
0.00803834
-0.000235764
0.00804313
-0.000172412
0.00806413
-0.000443853
0.00807274
-0.00034089
0.00809513
-0.000556227
0.00809497
-0.000240645
0.00809606
-0.00014834
0.00806193
0.000469916
0.00800082
0.00100576
0.0078886
0.00177102
0.00764802
0.00355782
0.00727708
0.00512045
0.007312
-0.000542129
0.00755318
-0.00346893
0.00771544
-0.00228374
0.00778989
-0.000965643
0.00783569
-0.000446173
0.00783685
0.000242149
0.00784269
0.000219839
0.00783103
0.000475093
0.00783348
0.000279229
0.00782676
0.000386395
0.00783296
0.000183149
0.00783254