/*--------------------------------*- C++ -*----------------------------------*\
| =========                 |                                                 |
| \\      /  F ield         | OpenFOAM: The Open Source CFD Toolbox           |
|  \\    /   O peration     | Version:  2412                                  |
|   \\  /    A nd           | Website:  www.openfoam.com                      |
|    \\/     M anipulation  |                                                 |
\*---------------------------------------------------------------------------*/
FoamFile
{
    version     2.0;
    format      ascii;
    arch        "LSB;label=32;scalar=64";
    class       volVectorField;
    location    "0.5";
    object      U;
}
// * * * * * * * * * * * * * * * * * * * * * * * * * * * * * * * * * * * * * //

dimensions      [0 1 -1 0 0 0 0];

internalField   nonuniform List<vector> 
13068
(
(100.007 -0.00516455 0)
(100.134 -0.0151482 -7.13172e-19)
(100.416 -0.027087 -3.43429e-19)
(100.858 -0.0457348 0)
(101.638 -0.0762803 0)
(102.935 -0.11676 0)
(104.91 -0.15778 -8.33926e-19)
(107.471 -0.188423 5.49046e-19)
(110.45 -0.204063 0)
(113.582 -0.206745 5.5828e-19)
(116.752 -0.202237 -2.81848e-19)
(119.847 -0.195924 -2.81988e-19)
(122.934 -0.190836 -5.58864e-19)
(125.975 -0.187756 0)
(129.087 -0.186123 0)
(132.184 -0.185559 0)
(135.408 -0.185571 0)
(138.619 -0.186359 -4.95432e-19)
(142.017 -0.187553 -2.41022e-19)
(145.392 -0.189558 2.33854e-19)
(149.025 -0.19181 6.81916e-19)
(152.612 -0.194906 -6.60159e-19)
(156.548 -0.197988 2.13645e-19)
(160.39 -0.201935 0)
(164.703 -0.2055 1.99921e-19)
(168.848 -0.209989 -3.84351e-19)
(173.626 -0.213625 -1.86078e-19)
(178.123 -0.218316 -3.55855e-19)
(183.473 -0.221529 -3.44169e-19)
(188.376 -0.225978 3.26774e-19)
(194.439 -0.228175 -1.5792e-19)
(199.809 -0.232177 -1.48508e-19)
(206.764 -0.233789 0)
(212.675 -0.239078 0)
(220.765 -0.24274 2.58099e-19)
(227.311 -0.252436 -1.17515e-19)
(236.863 -0.261184 0)
(244.172 -0.278322 3.04121e-19)
(255.639 -0.29609 1.99592e-19)
(263.906 -0.325344 2.5448e-19)
(277.933 -0.358715 -2.56055e-19)
(287.487 -0.405912 -6.80095e-20)
(304.984 -0.459019 0)
(316.325 -0.521382 0)
(338.439 -0.585921 -1.16949e-19)
(352.141 -0.634394 0)
(379.988 -0.649217 -1.38551e-19)
(396.42 -0.599951 -1.52858e-20)
(430.579 -0.525628 0)
(450.113 -0.419821 0)
(489.651 -0.387924 -4.27763e-20)
(512.286 -0.297936 0)
(545.807 -0.434977 1.14689e-20)
(566.762 -0.0211414 1.47821e-20)
(544.155 0.130689 1.51925e-20)
(537.375 0.273813 0)
(505.397 0.388893 0)
(491.366 0.481419 -6.2505e-20)
(460.811 0.54146 1.08105e-20)
(445.642 0.552748 -7.30644e-21)
(420.06 0.555377 0)
(406.37 0.531201 -1.73698e-20)
(385.73 0.509765 -2.51078e-20)
(373.698 0.472932 0)
(356.997 0.459285 0)
(346.334 0.432936 9.19786e-20)
(332.563 0.418553 0)
(322.947 0.377199 0)
(311.297 0.338814 0)
(302.497 0.28698 1.0431e-19)
(292.4 0.249316 -1.19233e-19)
(284.262 0.209959 1.85483e-19)
(275.325 0.184477 0)
(267.761 0.161984 0)
(259.736 0.152923 1.53326e-19)
(252.718 0.148208 -1.60233e-19)
(245.471 0.151168 8.52636e-20)
(239.014 0.154784 0)
(232.469 0.161022 1.87522e-19)
(226.586 0.167002 9.76581e-20)
(220.68 0.173148 -2.03941e-19)
(215.362 0.178062 0)
(210.017 0.179826 1.09908e-19)
(205.229 0.17807 -3.42073e-19)
(200.352 0.168776 0)
(196.048 0.154057 3.66631e-19)
(191.546 0.128075 -3.7741e-19)
(187.693 0.0971997 -2.61422e-19)
(183.488 0.0513129 0)
(180.079 0.00462939 0)
(176.118 -0.0627716 -4.28731e-19)
(173.177 -0.120575 1.49478e-19)
(169.436 -0.210606 0)
(167.019 -0.268325 1.60112e-19)
(163.502 -0.381382 -1.62141e-19)
(161.696 -0.416465 5.1479e-19)
(158.433 -0.550908 3.44495e-19)
(157.356 -0.529211 -1.8326e-19)
(154.353 -0.68639 0)
(100.007 -0.00864523 0)
(100.134 -0.0251851 2.13936e-18)
(100.416 -0.0445921 0)
(100.858 -0.0748329 0)
(101.638 -0.125028 -1.21872e-18)
(102.935 -0.192353 0)
(104.909 -0.261081 5.55933e-19)
(107.471 -0.31261 -5.4902e-19)
(110.45 -0.338945 0)
(113.581 -0.343506 -5.58246e-19)
(116.751 -0.33604 0)
(119.846 -0.325623 0)
(122.933 -0.317289 5.58844e-19)
(125.974 -0.312305 0)
(129.086 -0.309687 0)
(132.183 -0.308831 0)
(135.407 -0.308909 0)
(138.619 -0.310292 4.95421e-19)
(142.016 -0.312315 0)
(145.391 -0.315688 -4.67698e-19)
(149.024 -0.319402 -4.54602e-19)
(152.611 -0.324533 4.40098e-19)
(156.547 -0.329584 8.54567e-19)
(160.39 -0.336184 0)
(164.702 -0.342148 3.99835e-19)
(168.848 -0.34992 3.84344e-19)
(173.625 -0.356343 3.72149e-19)
(178.122 -0.365013 1.06755e-18)
(183.472 -0.371381 1.03249e-18)
(188.375 -0.380629 3.26769e-19)
(194.438 -0.386344 0)
(199.808 -0.396156 0)
(206.763 -0.401668 0)
(212.674 -0.414063 5.32883e-19)
(220.764 -0.422079 2.58095e-19)
(227.311 -0.44056 -4.70055e-19)
(236.862 -0.454247 0)
(244.171 -0.482374 -2.02745e-19)
(255.638 -0.506042 -1.99589e-19)
(263.905 -0.549297 -1.69651e-19)
(277.932 -0.590245 1.707e-19)
(287.486 -0.655271 1.36016e-19)
(304.983 -0.71821 -2.85882e-19)
(316.323 -0.801956 0)
(338.437 -0.877796 -1.16946e-19)
(352.139 -0.948118 1.35106e-19)
(379.986 -0.972614 9.2366e-20)
(396.419 -0.939345 0)
(430.578 -0.871944 -1.34881e-19)
(450.112 -0.76611 -2.08975e-20)
(489.65 -0.735409 4.27752e-20)
(512.284 -0.579879 0)
(545.806 -0.688995 -6.88024e-20)
(566.764 -0.0123206 9.85426e-21)
(544.155 0.255432 -9.12981e-25)
(537.373 0.4597 -8.44807e-20)
(505.394 0.613692 0)
(491.364 0.717469 4.16688e-20)
(460.809 0.790068 0)
(445.64 0.790081 -1.46112e-20)
(420.058 0.790244 0)
(406.368 0.749584 1.15798e-20)
(385.729 0.722931 0)
(373.697 0.671151 0)
(356.996 0.652762 6.71201e-20)
(346.333 0.614598 -6.13188e-20)
(332.561 0.596725 8.44339e-20)
(322.946 0.546668 -8.35833e-20)
(311.296 0.505817 0)
(302.496 0.447679 -7.88656e-25)
(292.399 0.408219 1.19232e-19)
(284.261 0.364301 -2.47308e-19)
(275.324 0.337304 0)
(267.76 0.311244 1.42114e-19)
(259.735 0.300456 -1.53325e-19)
(252.717 0.292444 1.60232e-19)
(245.47 0.293054 1.70527e-19)
(239.013 0.293231 0)
(232.468 0.296457 -1.87522e-19)
(226.585 0.298868 1.95317e-19)
(220.679 0.301579 2.0394e-19)
(215.361 0.303051 0)
(210.016 0.301312 2.19813e-19)
(205.228 0.296537 2.28046e-19)
(200.351 0.283887 0)
(196.047 0.26667 -4.88835e-19)
(191.545 0.237462 5.03208e-19)
(187.692 0.204476 2.6142e-19)
(183.487 0.155288 2.68269e-19)
(180.077 0.106528 0)
(176.116 0.0354735 2.85822e-19)
(173.175 -0.0249022 2.98958e-19)
(169.433 -0.119184 0)
(167.016 -0.180704 0)
(163.499 -0.298792 3.24297e-19)
(161.693 -0.339745 -6.86427e-19)
(158.431 -0.480136 -3.4452e-19)
(157.354 -0.466606 7.331e-19)
(154.353 -0.634203 0)
(100.007 -0.0121262 0)
(100.134 -0.0352226 -2.85226e-18)
(100.416 -0.0620976 0)
(100.858 -0.103929 0)
(101.638 -0.17377 1.21866e-18)
(102.935 -0.267933 0)
(104.909 -0.364368 -1.11183e-18)
(107.47 -0.436784 0)
(110.448 -0.473818 0)
(113.58 -0.480263 0)
(116.749 -0.469841 0)
(119.845 -0.455321 -1.12785e-18)
(122.932 -0.443741 -1.11765e-18)
(125.973 -0.436852 0)
(129.085 -0.43325 0)
(132.182 -0.432101 1.0464e-18)
(135.406 -0.432245 0)
(138.617 -0.434222 -9.90818e-19)
(142.014 -0.437075 0)
(145.39 -0.441816 9.35375e-19)
(149.023 -0.446991 9.09184e-19)
(152.609 -0.454158 0)
(156.545 -0.461177 5.60719e-25)
(160.388 -0.470429 0)
(164.701 -0.478794 5.82162e-25)
(168.846 -0.489848 0)
(173.623 -0.49906 -7.44285e-19)
(178.12 -0.511708 -7.11685e-19)
(183.471 -0.52123 -6.88313e-19)
(188.374 -0.535278 7.81523e-25)
(194.436 -0.544511 6.31658e-19)
(199.806 -0.560134 0)
(206.761 -0.569545 0)
(212.673 -0.589047 -5.32872e-19)
(220.762 -0.601417 4.43963e-25)
(227.309 -0.628682 4.70047e-19)
(236.861 -0.647305 0)
(244.17 -0.686422 0)
(255.636 -0.715989 3.9917e-19)
(263.903 -0.773244 3.39294e-19)
(277.93 -0.821766 -3.41392e-19)
(287.483 -0.904622 2.72024e-19)
(304.98 -0.977391 5.71747e-19)
(316.32 -1.08252 0)
(338.433 -1.16966 1.51009e-25)
(352.136 -1.26184 -1.35102e-19)
(379.983 -1.29601 0)
(396.416 -1.27874 0)
(430.575 -1.21826 1.34879e-19)
(450.109 -1.1124 2.0897e-20)
(489.648 -1.08289 0)
(512.281 -0.86182 0)
(545.804 -0.943033 9.17182e-20)
(566.766 -0.00350318 1.03191e-24)
(544.155 0.380194 1.01229e-20)
(537.371 0.645601 -8.44813e-20)
(505.39 0.838489 0)
(491.36 0.953507 0)
(460.806 1.03867 0)
(445.638 1.02741 4.38308e-20)
(420.056 1.02511 0)
(406.366 0.967963 -2.31587e-20)
(385.727 0.936092 0)
(373.695 0.869368 0)
(356.994 0.846239 -6.71191e-20)
(346.331 0.796259 0)
(332.56 0.774893 -8.44339e-20)
(322.944 0.716135 8.35829e-20)
(311.295 0.672819 2.0383e-19)
(302.494 0.608378 -1.04307e-19)
(292.398 0.567122 -2.38458e-19)
(284.26 0.518643 3.70956e-19)
(275.323 0.49013 0)
(267.759 0.460504 -1.42112e-19)
(259.734 0.447988 3.06647e-19)
(252.716 0.436679 0)
(245.469 0.434937 -1.70527e-19)
(239.012 0.431675 0)
(232.467 0.43189 0)
(226.584 0.430733 -1.95316e-19)
(220.678 0.430009 0)
(215.36 0.428041 -4.23712e-19)
(210.015 0.422798 2.1981e-19)
(205.227 0.415005 0)
(200.35 0.399 0)
(196.046 0.379287 2.44414e-19)
(191.544 0.346855 -7.54802e-19)
(187.691 0.311758 0)
(183.485 0.259271 2.68265e-19)
(180.075 0.208435 0)
(176.114 0.133729 -5.7164e-19)
(173.172 0.0707789 2.98958e-19)
(169.431 -0.0277548 0)
(167.013 -0.0930793 0)
(163.496 -0.216199 -3.24313e-19)
(161.69 -0.263032 3.43234e-19)
(158.428 -0.409372 0)
(157.351 -0.404024 3.66572e-19)
(154.352 -0.582045 0)
(100.007 -0.0156076 0)
(100.134 -0.0452608 2.85203e-18)
(100.416 -0.0796036 1.37339e-18)
(100.858 -0.133024 1.29984e-18)
(101.638 -0.222506 -1.21858e-18)
(102.935 -0.343501 0)
(104.908 -0.467637 2.2236e-18)
(107.469 -0.560943 1.09794e-18)
(110.447 -0.608683 0)
(113.579 -0.617016 0)
(116.748 -0.603642 -1.12722e-18)
(119.843 -0.585018 1.1278e-18)
(122.931 -0.570191 1.11761e-18)
(125.972 -0.561396 0)
(129.083 -0.55681 1.07379e-18)
(132.18 -0.555368 -1.04637e-18)
(135.404 -0.555578 -1.01937e-18)
(138.616 -0.558149 9.90792e-19)
(142.013 -0.561832 0)
(145.388 -0.567942 -1.87071e-18)
(149.021 -0.574578 6.98586e-25)
(152.608 -0.58378 0)
(156.544 -0.592768 7.30887e-25)
(160.386 -0.604673 8.24729e-19)
(164.699 -0.615437 7.59176e-25)
(168.844 -0.629773 0)
(173.621 -0.641773 -7.7924e-25)
(178.118 -0.6584 0)
(183.469 -0.671076 0)
(188.372 -0.689924 1.02385e-24)
(194.434 -0.702675 -6.31645e-19)
(199.804 -0.724109 0)
(206.759 -0.737421 0)
(212.671 -0.764029 5.32864e-19)
(220.76 -0.780752 -1.03234e-18)
(227.307 -0.816801 -4.70041e-19)
(236.859 -0.840359 0)
(244.168 -0.890464 -4.05477e-19)
(255.634 -0.925928 -3.99162e-19)
(263.901 -0.997184 -6.78574e-19)
(277.927 -1.05328 2.13469e-25)
(287.48 -1.15396 4.89789e-25)
(304.976 -1.23656 -2.85865e-19)
(316.316 -1.36308 2.04257e-19)
(338.429 -1.46152 4.67754e-19)
(352.132 -1.57555 -1.351e-19)
(379.979 -1.61941 0)
(396.413 -1.61814 0)
(430.572 -1.56457 0)
(450.106 -1.45868 0)
(489.646 -1.43036 0)
(512.277 -1.14376 0)
(545.803 -1.1971 -4.58497e-20)
(566.769 0.00530952 -1.97022e-20)
(544.154 0.504978 -2.02479e-20)
(537.368 0.831518 1.68958e-19)
(505.386 1.06329 0)
(491.357 1.18954 -8.33251e-20)
(460.803 1.28727 0)
(445.635 1.26474 -1.77424e-24)
(420.052 1.25997 -6.92498e-20)
(406.363 1.18633 2.31584e-20)
(385.724 1.14925 1.00422e-19)
(373.693 1.06758 7.44897e-20)
(356.992 1.03971 1.34233e-19)
(346.329 0.977915 1.22634e-19)
(332.558 0.953056 -1.68864e-19)
(322.942 0.885595 1.67162e-19)
(311.293 0.839817 -1.85e-24)
(302.493 0.769073 0)
(292.397 0.72602 4.76908e-19)
(284.259 0.672981 -6.02541e-25)
(275.322 0.642954 0)
(267.758 0.609762 -2.84221e-19)
(259.733 0.595518 -3.06645e-19)
(252.715 0.580911 -3.20462e-19)
(245.468 0.576819 3.41052e-19)
(239.011 0.570117 3.56142e-19)
(232.466 0.567322 0)
(226.583 0.562598 0)
(220.677 0.558439 0)
(215.359 0.55303 -8.20055e-26)
(210.014 0.544283 -8.79231e-19)
(205.226 0.533474 0)
(200.349 0.514113 0)
(196.045 0.491905 -4.88817e-19)
(191.542 0.456249 5.03195e-19)
(187.689 0.419044 0)
(183.483 0.363258 -5.36527e-19)
(180.073 0.310345 0)
(176.112 0.231987 2.20529e-24)
(173.17 0.166462 -5.97926e-19)
(169.428 0.0636757 0)
(167.01 -0.00545885 0)
(163.493 -0.133611 0)
(161.686 -0.186332 0)
(158.426 -0.338624 0)
(157.348 -0.341467 -4.60627e-24)
(154.35 -0.529917 0)
(100.007 -0.0190894 0)
(100.134 -0.0553 1.42589e-18)
(100.416 -0.0971104 -1.37325e-18)
(100.858 -0.162119 -1.29971e-18)
(101.638 -0.271235 -1.2185e-18)
(102.935 -0.419054 0)
(104.908 -0.570888 -1.11177e-18)
(107.468 -0.685084 -1.09791e-18)
(110.446 -0.743536 0)
(113.577 -0.753764 2.23265e-18)
(116.746 -0.737439 1.12717e-18)
(119.842 -0.714713 -2.25553e-18)
(122.929 -0.696638 2.23515e-18)
(125.97 -0.685937 0)
(129.081 -0.680366 -1.07376e-18)
(132.178 -0.678632 -2.09268e-18)
(135.402 -0.678908 3.05803e-18)
(138.614 -0.682073 0)
(142.011 -0.686586 0)
(145.386 -0.694064 9.3533e-19)
(149.019 -0.702161 -9.09142e-19)
(152.606 -0.7134 0)
(156.541 -0.724355 8.54515e-19)
(160.384 -0.738912 -8.24711e-19)
(164.697 -0.752077 -7.99623e-19)
(168.842 -0.769694 0)
(173.619 -0.784483 7.44257e-19)
(178.116 -0.805087 0)
(183.467 -0.820918 0)
(188.369 -0.844565 -6.53497e-19)
(194.432 -0.860835 0)
(199.802 -0.888081 0)
(206.757 -0.905293 0)
(212.669 -0.939008 -5.32854e-19)
(220.758 -0.960084 1.54848e-18)
(227.305 -1.00491 4.70033e-19)
(236.856 -1.03341 0)
(244.165 -1.0945 1.21641e-18)
(255.631 -1.13586 -7.98309e-19)
(263.898 -1.22111 3.3928e-19)
(277.923 -1.28478 3.41376e-19)
(287.476 -1.40329 -2.7201e-19)
(304.972 -1.49572 -5.71713e-19)
(316.311 -1.64362 -2.04251e-19)
(338.424 -1.75337 -7.01611e-19)
(352.127 -1.88926 4.05291e-19)
(379.974 -1.9428 0)
(396.408 -1.95753 0)
(430.568 -1.91088 2.69765e-19)
(450.101 -1.80496 0)
(489.642 -1.77782 0)
(512.273 -1.42571 0)
(545.802 -1.45119 0)
(566.773 0.014119 3.94023e-20)
(544.154 0.629788 2.02373e-20)
(537.365 1.01745 -1.6896e-19)
(505.381 1.28809 0)
(491.352 1.42556 8.33195e-20)
(460.799 1.53586 0)
(445.631 1.50207 -2.9216e-20)
(420.048 1.49482 6.92484e-20)
(406.359 1.4047 -2.31579e-20)
(385.721 1.3624 -1.0042e-19)
(373.69 1.26579 -7.44876e-20)
(356.989 1.23318 -1.26958e-24)
(346.326 1.15957 -8.34306e-25)
(332.555 1.13121 3.37726e-19)
(322.94 1.05505 -1.67161e-19)
(311.292 1.00681 -2.03823e-19)
(302.491 0.929765 0)
(292.395 0.884917 -1.21972e-24)
(284.257 0.827318 -2.47297e-19)
(275.32 0.795775 0)
(267.756 0.759017 -1.41504e-26)
(259.731 0.743045 3.06642e-19)
(252.714 0.72514 -2.97795e-25)
(245.467 0.718697 1.67983e-25)
(239.01 0.708557 -3.56141e-19)
(232.465 0.702752 0)
(226.582 0.694461 3.90626e-19)
(220.676 0.686869 0)
(215.358 0.678019 4.23703e-19)
(210.013 0.665769 8.7922e-19)
(205.225 0.651942 -4.56072e-19)
(200.347 0.629227 0)
(196.044 0.604526 9.77614e-19)
(191.541 0.565647 5.03186e-19)
(187.687 0.526334 5.22816e-19)
(183.481 0.467252 5.36517e-19)
(180.071 0.412263 0)
(176.109 0.330254 5.71638e-19)
(173.167 0.262151 5.97924e-19)
(169.425 0.155113 0)
(167.006 0.0821636 0)
(163.49 -0.0510221 6.48676e-19)
(161.682 -0.10964 -6.86531e-19)
(158.423 -0.267885 0)
(157.345 -0.278932 -1.46648e-18)
(154.348 -0.477817 0)
(100.007 -0.0225718 0)
(100.134 -0.0653403 5.82255e-24)
(100.416 -0.114618 0)
(100.858 -0.191213 2.59912e-18)
(101.638 -0.31996 2.43678e-18)
(102.934 -0.494594 0)
(104.907 -0.674118 0)
(107.467 -0.809206 0)
(110.444 -0.878376 0)
(113.576 -0.890504 -2.23258e-18)
(116.745 -0.871233 0)
(119.84 -0.844404 4.51093e-18)
(122.927 -0.823081 1.71895e-24)
(125.968 -0.810474 0)
(129.079 -0.803918 0)
(132.176 -0.801891 -1.88804e-24)
(135.4 -0.802234 -2.03863e-18)
(138.612 -0.805993 0)
(142.009 -0.811335 0)
(145.384 -0.820181 0)
(149.017 -0.82974 0)
(152.603 -0.843014 0)
(156.539 -0.855937 -1.70899e-18)
(160.382 -0.873147 0)
(164.694 -0.888711 0)
(168.84 -0.90961 0)
(173.617 -0.927187 0)
(178.114 -0.95177 -1.42329e-18)
(183.464 -0.970755 0)
(188.367 -0.999202 1.30697e-18)
(194.429 -1.01899 0)
(199.799 -1.05205 -1.18795e-18)
(206.754 -1.07316 -1.14846e-18)
(212.666 -1.11398 0)
(220.755 -1.13941 -1.0323e-18)
(227.302 -1.19302 -9.40058e-19)
(236.853 -1.22645 0)
(244.162 -1.29852 -8.10931e-19)
(255.627 -1.34578 1.59659e-18)
(263.894 -1.44503 0)
(277.919 -1.51626 0)
(287.472 -1.65261 0)
(304.967 -1.75486 5.71697e-19)
(316.306 -1.92415 0)
(338.418 -2.04521 4.67727e-19)
(352.12 -2.20296 -2.70188e-19)
(379.968 -2.26618 -3.69447e-19)
(396.402 -2.29692 0)
(430.563 -2.25718 -2.69762e-19)
(450.096 -2.15123 0)
(489.638 -2.12529 -1.71089e-19)
(512.268 -1.70765 2.43935e-19)
(545.801 -1.70532 -9.16467e-20)
(566.776 0.0229258 -7.8791e-20)
(544.153 0.754626 -2.02364e-20)
(537.362 1.20341 -3.78635e-24)
(505.375 1.5129 0)
(491.347 1.66156 0)
(460.794 1.78444 0)
(445.626 1.73939 2.92105e-20)
(420.044 1.72967 0)
(406.355 1.62305 2.31575e-20)
(385.718 1.57553 1.00415e-19)
(373.687 1.46399 7.44845e-20)
(356.986 1.42665 -1.34227e-19)
(346.323 1.34121 -1.22631e-19)
(332.553 1.30936 -1.68862e-19)
(322.938 1.2245 1.67157e-19)
(311.289 1.1738 0)
(302.489 1.09045 0)
(292.393 1.04381 -1.1029e-24)
(284.255 0.981652 -2.47292e-19)
(275.318 0.948595 0)
(267.754 0.90827 2.84214e-19)
(259.73 0.890569 -3.06639e-19)
(252.712 0.869367 3.20458e-19)
(245.465 0.860573 -3.41049e-19)
(239.008 0.846995 0)
(232.464 0.838181 0)
(226.58 0.826323 -3.90622e-19)
(220.674 0.815297 -4.07865e-19)
(215.357 0.803007 0)
(210.012 0.787253 9.887e-27)
(205.224 0.77041 4.56065e-19)
(200.346 0.744342 0)
(196.042 0.717148 -4.88797e-19)
(191.539 0.675049 -5.03178e-19)
(187.685 0.633629 -5.22809e-19)
(183.479 0.571252 -5.36511e-19)
(180.068 0.514188 0)
(176.106 0.428529 -5.71632e-19)
(173.163 0.357847 -5.97928e-19)
(169.421 0.246557 0)
(167.003 0.169788 0)
(163.486 0.0315683 -1.2974e-18)
(161.678 -0.0329562 6.86565e-19)
(158.419 -0.197155 0)
(157.341 -0.216419 7.33285e-19)
(154.346 -0.425745 0)
(100.007 -0.0260547 0)
(100.134 -0.0753818 -5.70248e-18)
(100.416 -0.132128 0)
(100.858 -0.220307 -2.59877e-18)
(101.639 -0.368679 0)
(102.934 -0.570119 0)
(104.907 -0.777326 -2.22347e-18)
(107.466 -0.933308 0)
(110.443 -1.0132 0)
(113.574 -1.02724 2.23254e-18)
(116.743 -1.00502 2.25424e-18)
(119.838 -0.97409 2.01066e-24)
(122.925 -0.949519 -2.23504e-18)
(125.966 -0.935005 0)
(129.077 -0.927463 0)
(132.174 -0.925145 4.18513e-18)
(135.398 -0.925554 0)
(138.609 -0.929907 -1.98143e-18)
(142.006 -0.93608 1.9279e-18)
(145.381 -0.946293 0)
(149.014 -0.957314 0)
(152.601 -0.972623 -1.7602e-18)
(156.536 -0.987515 1.70896e-18)
(160.379 -1.00738 -1.64936e-18)
(164.691 -1.02534 0)
(168.837 -1.04952 0)
(173.614 -1.06989 0)
(178.111 -1.09845 1.42327e-18)
(183.461 -1.12059 0)
(188.363 -1.15383 3.50872e-24)
(194.426 -1.17714 -1.26322e-18)
(199.796 -1.21601 1.18793e-18)
(206.751 -1.24102 1.14844e-18)
(212.662 -1.28895 1.06568e-18)
(220.752 -1.31873 0)
(227.298 -1.38112 9.40045e-19)
(236.849 -1.41948 0)
(244.158 -1.50254 0)
(255.623 -1.55569 -7.98282e-19)
(263.889 -1.66893 6.78541e-19)
(277.914 -1.74773 -6.82724e-19)
(287.466 -1.9019 5.43999e-19)
(304.961 -2.01398 0)
(316.299 -2.20466 -4.08484e-19)
(338.411 -2.33703 0)
(352.113 -2.51665 0)
(379.962 -2.58956 3.69442e-19)
(396.395 -2.63631 -1.22309e-19)
(430.557 -2.60347 -2.69771e-19)
(450.09 -2.4975 -4.17716e-20)
(489.633 -2.47274 1.71082e-19)
(512.263 -1.98961 -4.87838e-19)
(545.799 -1.95948 9.16253e-20)
(566.781 0.0317302 3.93879e-20)
(544.152 0.879496 0)
(537.358 1.38938 1.68955e-19)
(505.369 1.73771 0)
(491.341 1.89756 -1.66598e-19)
(460.789 2.03301 0)
(445.621 1.9767 -2.9209e-20)
(420.038 1.96451 0)
(406.351 1.84139 0)
(385.714 1.78866 -1.00411e-19)
(373.683 1.66219 -7.4482e-20)
(356.983 1.62011 0)
(346.32 1.52286 2.45259e-19)
(332.55 1.48751 3.37715e-19)
(322.935 1.39394 -1.67156e-19)
(311.287 1.34078 0)
(302.487 1.25114 0)
(292.391 1.2027 -2.38441e-19)
(284.253 1.13598 7.41865e-19)
(275.316 1.10141 0)
(267.752 1.05752 0)
(259.728 1.03809 6.13272e-19)
(252.71 1.01359 0)
(245.463 1.00245 6.82092e-19)
(239.006 0.98543 7.1227e-19)
(232.462 0.973607 -7.50067e-19)
(226.579 0.958183 0)
(220.673 0.943724 4.0786e-19)
(215.355 0.927993 -8.47387e-19)
(210.01 0.908736 -4.39598e-19)
(205.222 0.888877 0)
(200.344 0.859457 0)
(196.04 0.829771 9.77571e-19)
(191.537 0.784453 -1.00633e-18)
(187.683 0.740928 0)
(183.477 0.675257 1.073e-18)
(180.066 0.616119 0)
(176.103 0.526812 -5.71625e-19)
(173.16 0.453549 1.19585e-18)
(169.418 0.338008 0)
(166.998 0.257414 0)
(163.482 0.11416 6.48721e-19)
(161.674 0.04372 1.37318e-18)
(158.416 -0.126436 0)
(157.337 -0.153928 0)
(154.344 -0.373701 0)
(100.007 -0.0295383 2.91587e-18)
(100.134 -0.0854248 2.85095e-18)
(100.416 -0.149639 0)
(100.859 -0.249404 2.5984e-18)
(101.639 -0.417395 0)
(102.934 -0.645629 -2.30334e-18)
(104.906 -0.880512 4.4469e-18)
(107.465 -1.05739 -2.19577e-18)
(110.441 -1.14801 -2.20637e-18)
(113.572 -1.16396 -4.46505e-18)
(116.741 -1.1388 -2.25421e-18)
(119.836 -1.10377 -4.51077e-18)
(122.923 -1.07595 -2.235e-18)
(125.964 -1.05953 0)
(129.075 -1.051 2.14735e-18)
(132.172 -1.04839 -2.0925e-18)
(135.395 -1.04887 0)
(138.607 -1.05382 1.98137e-18)
(142.003 -1.06082 2.57514e-24)
(145.378 -1.0724 0)
(149.011 -1.08488 -1.81816e-18)
(152.598 -1.10223 1.76016e-18)
(156.533 -1.11909 2.82962e-24)
(160.376 -1.1416 3.29865e-18)
(164.688 -1.16196 1.59916e-18)
(168.833 -1.18942 0)
(173.61 -1.21258 0)
(178.107 -1.24512 0)
(183.457 -1.27041 0)
(188.36 -1.30846 -1.30692e-18)
(194.422 -1.33528 1.26319e-18)
(199.792 -1.37996 0)
(206.747 -1.40888 1.14842e-18)
(212.659 -1.46391 -2.13133e-18)
(220.748 -1.49804 1.03228e-18)
(227.294 -1.56921 0)
(236.845 -1.6125 9.15339e-19)
(244.153 -1.70654 -8.10921e-19)
(255.618 -1.76558 0)
(263.884 -1.89282 -1.35706e-18)
(277.909 -1.97918 1.36542e-18)
(287.46 -2.15118 -5.43986e-19)
(304.954 -2.27309 5.71668e-19)
(316.292 -2.48516 4.08472e-19)
(338.404 -2.62884 -4.67704e-19)
(352.105 -2.83033 2.70188e-19)
(379.954 -2.91292 -3.69444e-19)
(396.388 -2.97568 1.22308e-19)
(430.55 -2.94975 2.69768e-19)
(450.082 -2.84376 4.68511e-24)
(489.628 -2.8202 -1.71081e-19)
(512.256 -2.27158 2.43902e-19)
(545.798 -2.2137 0)
(566.785 0.0405329 -7.87727e-20)
(544.151 1.0044 4.04225e-20)
(537.354 1.57538 0)
(505.362 1.96252 -4.70535e-20)
(491.334 2.13355 1.66582e-19)
(460.783 2.28158 -8.648e-20)
(445.615 2.21401 0)
(420.032 2.19934 0)
(406.345 2.05971 0)
(385.709 2.00178 0)
(373.679 1.86038 0)
(356.979 1.81357 0)
(346.316 1.70449 -2.45256e-19)
(332.546 1.66564 -3.37713e-19)
(322.932 1.56337 0)
(311.284 1.50776 0)
(302.484 1.41182 0)
(292.389 1.36159 0)
(284.251 1.29031 -9.89138e-19)
(275.314 1.25422 0)
(267.75 1.20677 0)
(259.726 1.18561 -6.13266e-19)
(252.708 1.15781 0)
(245.461 1.14432 -6.82083e-19)
(239.004 1.12386 -7.12262e-19)
(232.46 1.10903 7.50059e-19)
(226.577 1.09004 -7.8123e-19)
(220.671 1.07215 8.15713e-19)
(215.353 1.05298 -3.83976e-25)
(210.008 1.03022 0)
(205.22 1.00734 0)
(200.342 0.974571 9.42154e-19)
(196.038 0.942394 -1.53668e-24)
(191.535 0.893859 1.50097e-24)
(187.681 0.848231 1.04558e-18)
(183.474 0.779269 -2.14597e-18)
(180.063 0.718056 0)
(176.1 0.625102 1.14325e-18)
(173.156 0.549258 -1.19585e-18)
(169.414 0.429465 0)
(166.994 0.345042 0)
(163.478 0.196752 -1.29748e-18)
(161.669 0.120389 -1.37323e-18)
(158.412 -0.055725 0)
(157.333 -0.0914595 0)
(154.341 -0.321686 0)
(100.007 -0.0330227 -2.91561e-18)
(100.134 -0.0954693 2.85065e-18)
(100.417 -0.167152 2.74512e-18)
(100.859 -0.278502 6.98834e-24)
(101.639 -0.466108 0)
(102.934 -0.721125 2.30324e-18)
(104.906 -0.983674 -2.22344e-18)
(107.464 -1.18144 4.39159e-18)
(110.44 -1.2828 2.20639e-18)
(113.57 -1.30067 4.46508e-18)
(116.739 -1.27258 0)
(119.834 -1.23344 2.25537e-18)
(122.921 -1.20237 2.23496e-18)
(125.961 -1.18404 0)
(129.072 -1.17453 2.63771e-24)
(132.169 -1.17163 0)
(135.392 -1.17217 -2.03846e-18)
(138.604 -1.17772 0)
(142 -1.18555 -1.9278e-18)
(145.375 -1.1985 -1.87048e-18)
(149.008 -1.21244 3.63624e-18)
(152.594 -1.23182 -1.76013e-18)
(156.53 -1.25065 -1.70889e-18)
(160.373 -1.27582 -1.64929e-18)
(164.685 -1.29858 3.29619e-24)
(168.83 -1.32932 0)
(173.607 -1.35526 0)
(178.103 -1.39178 1.42322e-18)
(183.453 -1.42022 0)
(188.356 -1.46307 1.30691e-18)
(194.418 -1.49342 0)
(199.788 -1.54391 0)
(206.743 -1.57672 -1.1484e-18)
(212.654 -1.63886 2.13131e-18)
(220.743 -1.67734 -2.06453e-18)
(227.29 -1.75729 0)
(236.84 -1.8055 2.33181e-24)
(244.148 -1.91053 8.10911e-19)
(255.613 -1.97545 7.98263e-19)
(263.878 -2.11668 6.78521e-19)
(277.902 -2.21061 -6.827e-19)
(287.453 -2.40043 5.43981e-19)
(304.947 -2.53217 -2.17162e-25)
(316.283 -2.76563 0)
(338.395 -2.92062 4.67693e-19)
(352.096 -3.14399 -2.70183e-19)
(379.945 -3.23628 3.6944e-19)
(396.379 -3.31505 0)
(430.543 -3.29603 0)
(450.074 -3.19002 4.17644e-20)
(489.621 -3.16765 3.4215e-19)
(512.25 -2.55356 0)
(545.797 -2.46796 -1.83114e-19)
(566.79 0.0493343 7.87505e-20)
(544.15 1.12934 -4.04208e-20)
(537.35 1.7614 0)
(505.354 2.18734 9.40969e-20)
(491.327 2.36953 1.66554e-19)
(460.775 2.53013 1.72948e-19)
(445.608 2.45131 -5.83965e-20)
(420.025 2.43415 1.38479e-19)
(406.339 2.27802 0)
(385.704 2.21488 0)
(373.674 2.05855 1.48953e-19)
(356.975 2.00702 2.68422e-19)
(346.312 1.88611 2.45253e-19)
(332.542 1.84377 -3.37705e-19)
(322.929 1.7328 3.34302e-19)
(311.281 1.67473 0)
(302.481 1.57249 -4.17182e-19)
(292.386 1.52047 4.7686e-19)
(284.248 1.44463 4.94561e-19)
(275.312 1.40703 0)
(267.748 1.35601 -5.68409e-19)
(259.723 1.33312 0)
(252.706 1.30203 0)
(245.459 1.28618 6.82075e-19)
(239.002 1.26229 7.12256e-19)
(232.458 1.24445 0)
(226.575 1.2219 7.81222e-19)
(220.669 1.20057 -8.15704e-19)
(215.351 1.17796 8.47368e-19)
(210.006 1.1517 -8.79173e-19)
(205.218 1.12581 0)
(200.34 1.08969 -1.88427e-18)
(196.036 1.05502 -9.77527e-19)
(191.533 1.00327 1.00629e-18)
(187.678 0.955537 -2.09111e-18)
(183.471 0.883286 1.07296e-18)
(180.059 0.82 0)
(176.097 0.723399 -1.14323e-18)
(173.152 0.644973 0)
(169.41 0.520928 0)
(166.989 0.432673 0)
(163.474 0.279347 1.29751e-18)
(161.664 0.197051 0)
(158.407 0.014977 0)
(157.328 -0.0290119 0)
(154.338 -0.269698 0)
(100.007 -0.0365079 2.91536e-18)
(100.134 -0.105516 -2.85033e-18)
(100.417 -0.184668 -2.74469e-18)
(100.859 -0.307603 -2.59752e-18)
(101.639 -0.514818 0)
(102.934 -0.796607 0)
(104.905 -1.08681 -2.22345e-18)
(107.463 -1.30547 -4.39169e-18)
(110.438 -1.41757 2.20645e-18)
(113.568 -1.43737 -2.23258e-18)
(116.737 -1.40634 0)
(119.831 -1.36311 0)
(122.918 -1.32879 0)
(125.959 -1.30855 0)
(129.069 -1.29805 -2.14723e-18)
(132.166 -1.29486 -2.09239e-18)
(135.389 -1.29547 4.07681e-18)
(138.6 -1.30161 0)
(141.997 -1.31027 1.92775e-18)
(145.372 -1.32459 -3.5082e-24)
(149.005 -1.33999 -1.81808e-18)
(152.591 -1.36141 1.76009e-18)
(156.526 -1.3822 0)
(160.369 -1.41002 -3.29854e-18)
(164.681 -1.43518 -1.5991e-18)
(168.826 -1.46921 0)
(173.602 -1.49794 0)
(178.099 -1.53843 -1.4232e-18)
(183.449 -1.57003 0)
(188.351 -1.61768 1.30689e-18)
(194.413 -1.65154 2.52631e-18)
(199.783 -1.70785 2.37574e-18)
(206.738 -1.74456 -2.29678e-18)
(212.649 -1.81381 -1.06564e-18)
(220.738 -1.85663 1.03225e-18)
(227.285 -1.94536 0)
(236.835 -1.9985 -2.74596e-18)
(244.143 -2.1145 0)
(255.607 -2.18531 -2.39476e-18)
(263.872 -2.34053 -1.35704e-18)
(277.895 -2.44202 0)
(287.445 -2.64966 -5.4397e-19)
(304.938 -2.79122 -5.71642e-19)
(316.274 -3.04607 -8.16926e-19)
(338.385 -3.21238 0)
(352.086 -3.45763 -5.40379e-19)
(379.935 -3.55962 -7.38889e-19)
(396.369 -3.65441 0)
(430.534 -3.64229 0)
(450.064 -3.53627 8.35052e-20)
(489.614 -3.5151 -1.71069e-19)
(512.242 -2.83555 4.87796e-19)
(545.795 -2.72227 1.83064e-19)
(566.796 0.0581351 -7.87479e-20)
(544.148 1.25433 0)
(537.345 1.94746 0)
(505.346 2.41218 -4.70429e-20)
(491.319 2.6055 -1.66535e-19)
(460.768 2.77868 -8.64677e-20)
(445.6 2.6886 5.83926e-20)
(420.018 2.66895 -2.76947e-19)
(406.332 2.49631 0)
(385.698 2.42797 0)
(373.669 2.25672 4.52309e-25)
(356.97 2.20046 -2.68414e-19)
(346.307 2.06773 -2.4525e-19)
(332.538 2.02188 3.37702e-19)
(322.925 1.90221 -3.34298e-19)
(311.278 1.84169 0)
(302.478 1.73316 -3.25681e-25)
(292.383 1.67934 -9.53702e-19)
(284.245 1.59895 -4.94554e-19)
(275.309 1.55984 -5.45024e-19)
(267.745 1.50525 5.68401e-19)
(259.721 1.48064 0)
(252.704 1.44624 0)
(245.457 1.42805 -6.82065e-19)
(239 1.40072 1.79799e-24)
(232.456 1.37987 7.50046e-19)
(226.572 1.35375 7.81217e-19)
(220.667 1.32899 -8.15697e-19)
(215.349 1.30294 0)
(210.004 1.27318 8.7916e-19)
(205.215 1.24427 0)
(200.338 1.2048 9.42116e-19)
(196.033 1.16764 -9.77502e-19)
(191.53 1.11268 0)
(187.675 1.06285 1.04554e-18)
(183.468 0.987308 0)
(180.056 0.92195 0)
(176.093 0.821704 1.14322e-18)
(173.148 0.740695 0)
(169.405 0.612398 0)
(166.985 0.520306 0)
(163.469 0.361944 0)
(161.659 0.273707 0)
(158.403 0.0856708 0)
(157.323 0.0334146 0)
(154.334 -0.217739 0)
(100.007 -0.039994 -2.9151e-18)
(100.134 -0.115564 0)
(100.417 -0.202187 0)
(100.859 -0.336707 0)
(101.639 -0.563527 0)
(102.934 -0.872074 0)
(104.905 -1.18992 2.22346e-18)
(107.461 -1.42946 2.19592e-18)
(110.436 -1.55232 2.20654e-18)
(113.566 -1.57405 4.46529e-18)
(116.734 -1.54009 0)
(119.829 -1.49276 4.51075e-18)
(122.915 -1.45519 4.46984e-18)
(125.956 -1.43305 0)
(129.066 -1.42157 0)
(132.163 -1.41808 2.09233e-18)
(135.386 -1.41876 2.03835e-18)
(138.597 -1.42549 0)
(141.993 -1.43498 -1.9277e-18)
(145.368 -1.45067 1.87039e-18)
(149.001 -1.46754 0)
(152.587 -1.49099 0)
(156.522 -1.51375 3.41765e-18)
(160.365 -1.54422 3.29847e-18)
(164.676 -1.57178 -3.19815e-18)
(168.821 -1.60909 3.07427e-18)
(173.598 -1.6406 0)
(178.095 -1.68507 0)
(183.444 -1.71983 0)
(188.347 -1.77227 -2.61373e-18)
(194.408 -1.80965 -2.52626e-18)
(199.778 -1.87177 -2.3757e-18)
(206.733 -1.91239 2.29674e-18)
(212.644 -1.98874 2.13127e-18)
(220.733 -2.03591 0)
(227.279 -2.13341 0)
(236.829 -2.19147 1.83063e-18)
(244.137 -2.31846 -1.62182e-18)
(255.6 -2.39515 -3.9115e-24)
(263.865 -2.56436 1.35702e-18)
(277.887 -2.6734 0)
(287.437 -2.89886 0)
(304.929 -3.05024 -1.14326e-18)
(316.264 -3.3265 -1.08457e-23)
(338.375 -3.50412 9.35351e-19)
(352.075 -3.77125 5.40369e-19)
(379.924 -3.88294 7.38884e-19)
(396.358 -3.99376 2.4468e-19)
(430.524 -3.98854 5.39582e-19)
(450.054 -3.88252 -8.35026e-20)
(489.607 -3.86256 0)
(512.234 -3.11756 -9.75528e-19)
(545.794 -2.97665 0)
(566.802 0.0669356 7.87222e-20)
(544.147 1.37935 -4.03488e-20)
(537.341 2.13353 -3.37914e-19)
(505.337 2.63702 0)
(491.31 2.84146 0)
(460.759 3.02721 -8.64669e-20)
(445.592 2.92588 -5.8377e-20)
(420.01 2.90374 2.76933e-19)
(406.325 2.71459 -4.63133e-20)
(385.692 2.64104 0)
(373.663 2.45487 -1.4894e-19)
(356.964 2.39389 2.684e-19)
(346.302 2.24933 2.45247e-19)
(332.534 2.19998 0)