/*--------------------------------*- C++ -*----------------------------------*\
| =========                 |                                                 |
| \\      /  F ield         | OpenFOAM: The Open Source CFD Toolbox           |
|  \\    /   O peration     | Version:  2412                                  |
|   \\  /    A nd           | Website:  www.openfoam.com                      |
|    \\/     M anipulation  |                                                 |
\*---------------------------------------------------------------------------*/
FoamFile
{
    version     2.0;
    format      ascii;
    arch        "LSB;label=32;scalar=64";
    class       volScalarField;
    location    "0.4";
    object      epsilon;
}
// * * * * * * * * * * * * * * * * * * * * * * * * * * * * * * * * * * * * * //

dimensions      [0 2 -3 0 0 0 0];

internalField   nonuniform List<scalar> 
13068
(
377.581
382.505
400.745
448.458
541.32
672.83
806.502
903.08
949.48
957.648
946.439
930.209
915.73
905.806
900.528
900.326
904.322
913.029
925.286
942.152
962.162
987.212
1015.26
1049.41
1086.59
1131.72
1179.97
1239.19
1301.64
1379.85
1461.37
1566.46
1675.04
1820.17
1969.03
2175.69
2386.82
2692.5
3006.02
3476.42
3957.21
4685.96
5399.7
6453.49
7379.89
8669.9
9633.99
10950.1
12025.9
12796.7
13209.5
10020.6
7072.11
2957.87
1695.43
2248.58
3594.22
4365.47
4824.38
4576.41
4356.86
3877.54
3552.8
3147.4
2894.09
2618.69
2451.22
2270.37
2154.22
2026.97
1938.96
1842.2
1767.04
1683.46
1609.71
1528.98
1453.85
1377.04
1306.67
1239.76
1180.07
1126.21
1078.27
1035.6
996.091
960.239
924.787
891.417
856.317
822.162
785.116
748.324
708.542
668.853
627.332
586.712
546.623
509.757
476.004
377.582
382.511
400.757
448.476
541.337
672.844
806.532
903.144
949.578
957.766
946.562
930.33
915.845
905.917
900.636
900.433
904.427
913.135
925.394
942.262
962.275
987.329
1015.38
1049.54
1086.72
1131.86
1180.12
1239.35
1301.81
1380.05
1461.59
1566.71
1675.32
1820.48
1969.36
2176.05
2387.21
2692.94
3006.52
3477.01
3957.92
4686.86
5400.83
6454.96
7381.73
8672.1
9636.4
10952.5
12028.1
12799
13211.5
10022.8
7074.92
2959.43
1696.2
2248.85
3594.43
4365.85
4825.22
4577.29
4357.56
3878.1
3553.39
3148
2894.64
2619.14
2451.6
2270.73
2154.58
2027.31
1939.28
1842.51
1767.35
1683.77
1610
1529.26
1454.11
1377.28
1306.89
1239.97
1180.27
1126.39
1078.45
1035.77
996.259
960.406
924.954
891.581
856.474
822.305
785.239
748.418
708.603
668.871
627.31
586.646
546.517
509.617
475.85
377.585
382.52
400.781
448.517
541.383
672.888
806.583
903.221
949.682
957.885
946.683
930.447
915.958
906.026
900.742
900.538
904.533
913.242
925.503
942.374
962.391
987.449
1015.51
1049.67
1086.86
1132.01
1180.28
1239.51
1301.99
1380.25
1461.82
1566.97
1675.6
1820.79
1969.69
2176.41
2387.61
2693.39
3007.03
3477.61
3958.64
4687.76
5401.98
6456.45
7383.58
8674.31
9638.8
10954.9
12030.2
12801.2
13213.4
10024.9
7077.74
2961.03
1696.91
2248.93
3594.4
4365.98
4825.83
4577.95
4358.08
3878.53
3553.88
3148.52
2895.14
2619.55
2451.93
2271.05
2154.91
2027.64
1939.6
1842.82
1767.66
1684.07
1610.28
1529.53
1454.37
1377.52
1307.12
1240.18
1180.47
1126.58
1078.63
1035.94
996.43
960.578
925.126
891.75
856.638
822.456
785.371
748.521
708.673
668.901
627.3
586.591
546.423
509.49
475.708
377.588
382.533
400.817
448.581
541.463
672.962
806.655
903.306
949.786
957.998
946.795
930.554
916.06
906.124
900.839
900.635
904.631
913.342
925.606
942.48
962.501
987.564
1015.63
1049.8
1086.99
1132.15
1180.43
1239.67
1302.17
1380.44
1462.04
1567.22
1675.88
1821.09
1970.02
2176.76
2387.98
2693.81
3007.5
3478.17
3959.31
4688.62
5403.07
6457.87
7385.35
8676.42
9641.06
10957.1
12032
12803.2
13215.1
10026.7
7080.45
2962.61
1697.52
2248.8
3594.1
4365.79
4826.13
4578.35
4358.36
3878.76
3554.21
3148.92
2895.53
2619.86
2452.2
2271.32
2155.19
2027.92
1939.87
1843.09
1767.94
1684.34
1610.55
1529.78
1454.61
1377.75
1307.34
1240.38
1180.66
1126.76
1078.8
1036.11
996.596
960.745
925.295
891.918
856.801
822.607
785.505
748.627
708.749
668.937
627.297
586.545
546.339
509.372
475.576
377.592
382.551
400.865
448.67
541.575
673.068
806.747
903.399
949.886
958.102
946.895
930.647
916.147
906.209
900.924
900.721
904.719
913.433
925.7
942.578
962.604
987.672
1015.74
1049.92
1087.12
1132.28
1180.57
1239.83
1302.33
1380.63
1462.25
1567.45
1676.14
1821.38
1970.32
2177.08
2388.33
2694.2
3007.94
3478.68
3959.93
4689.41
5404.08
6459.2
7387
8678.38
9643.13
10959.1
12033.6
12804.9
13216.4
10028.2
7083.02
2964.15
1698.03
2248.47
3593.53
4365.29
4826.12
4578.45
4358.38
3878.78
3554.37
3149.18
2895.81
2620.09
2452.38
2271.51
2155.41
2028.15
1940.1
1843.33
1768.18
1684.59
1610.79
1530.02
1454.83
1377.97
1307.54
1240.57
1180.84
1126.92
1078.96
1036.27
996.754
960.906
925.459
892.082
856.962
822.758
785.64
748.735
708.827
668.976
627.299
586.505
546.261
509.262
475.451
377.597
382.573
400.925
448.783
541.722
673.206
806.86
903.499
949.984
958.194
946.979
930.724
916.219
906.28
900.995
900.794
904.795
913.513
925.784
942.667
962.697
987.77
1015.84
1050.03
1087.23
1132.4
1180.7
1239.97
1302.49
1380.8
1462.44
1567.67
1676.39
1821.64
1970.6
2177.38
2388.65
2694.54
3008.32
3479.13
3960.48
4690.12
5405
6460.42
7388.51
8680.17
9644.97
10960.8
12034.8
12806.2
13217.4
10029.5
7085.43
2965.64
1698.43
2247.94
3592.67
4364.46
4825.78
4578.26
4358.15
3878.59
3554.36
3149.31
2895.98
2620.21
2452.47
2271.63
2155.56
2028.32
1940.29
1843.53
1768.39
1684.81
1611.01
1530.23
1455.04
1378.16
1307.72
1240.74
1181
1127.07
1079.1
1036.41
996.902
961.058
925.616
892.241
857.119
822.906
785.773
748.844
708.908
669.02
627.306
586.472
546.191
509.161
475.335
377.603
382.599
400.997
448.921
541.902
673.377
806.994
903.606
950.077
958.276
947.049
930.784
916.275
906.335
901.053
900.855
904.86
913.582
925.858
942.746
962.781
987.859
1015.94
1050.13
1087.34
1132.51
1180.82
1240.1
1302.63
1380.96
1462.62
1567.88
1676.61
1821.89
1970.86
2177.65
2388.93
2694.85
3008.66
3479.53
3960.96
4690.76
5405.82
6461.52
7389.89
8681.78
9646.59
10962.3
12035.7
12807.2
13218
10030.3
7087.69
2967.07
1698.73
2247.21
3591.55
4363.31
4825.12
4577.77
4357.64
3878.18
3554.18
3149.3
2896.03
2620.24
2452.48
2271.67
2155.65
2028.44
1940.42
1843.68
1768.56
1684.99
1611.19
1530.41
1455.22
1378.33
1307.89
1240.9
1181.14
1127.21
1079.24
1036.55
997.041
961.202
925.766
892.394
857.272
823.051
785.905
748.953
708.99
669.066
627.318
586.443
546.127
509.067
475.227
377.609
382.63
401.082
449.083
542.117
673.58
807.148
903.719
950.166
958.346
947.104
930.829
916.316
906.376
901.096
900.902
904.913
913.64
925.922
942.815
962.855
987.938
1016.02
1050.22
1087.43
1132.62
1180.93
1240.22
1302.77
1381.11
1462.79
1568.07
1676.82
1822.11
1971.09
2177.89
2389.18
2695.12
3008.95
3479.87
3961.38
4691.31
5406.56
6462.52
7391.12
8683.22
9647.98
10963.4
12036.2
12807.9
13218.2
10030.9
7089.79
2968.47
1698.94
2246.28
3590.16
4361.85
4824.14
4576.98
4356.88
3877.55
3553.82
3149.14
2895.96
2620.16
2452.4
2271.64
2155.67
2028.5
1940.51
1843.8
1768.7
1685.14
1611.35
1530.57
1455.37
1378.49
1308.03
1241.03
1181.27
1127.33
1079.36
1036.67
997.169
961.338
925.909
892.542
857.421
823.194
786.037
749.063
709.074
669.116
627.334
586.421
546.07
508.982
475.126
377.617
382.665
401.18
449.27
542.365
673.814
807.323
903.84
950.251
958.406
947.144
930.857
916.34
906.401
901.125
900.937
904.953
913.687
925.974
942.873
962.919
988.008
1016.1
1050.3
1087.52
1132.71
1181.03
1240.33
1302.89
1381.24
1462.94
1568.24
1677.01
1822.31
1971.29
2178.1
2389.39
2695.34
3009.2
3480.15
3961.73
4691.78
5407.19
6463.4
7392.21
8684.49
9649.14
10964.4
12036.4
12808.3
13218.1
10031.2
7091.76
2969.82
1699.05
2245.17
3588.51
4360.08
4822.85
4575.91
4355.86
3876.71
3553.28
3148.85
2895.78
2619.99
2452.23
2271.53
2155.63
2028.51
1940.55
1843.87
1768.8
1685.26
1611.47
1530.7
1455.51
1378.62
1308.16
1241.15
1181.38
1127.44
1079.46
1036.78
997.287
961.465
926.045
892.684
857.566
823.335
786.167
749.173
709.161
669.169
627.354
586.404
546.02
508.904
475.033
377.626
382.705
401.289
449.482
542.647
674.081
807.518
903.968
950.332
958.454
947.17
930.87
916.348
906.411
901.14
900.959
904.982
913.722
926.016
942.921
962.974
988.068
1016.16
1050.37
1087.6
1132.79
1181.12
1240.42
1302.99
1381.36
1463.08
1568.39
1677.18
1822.49
1971.47
2178.28
2389.57
2695.52
3009.39
3480.38
3962.01
4692.17
5407.74
6464.17
7393.16
8685.58
9650.09
10965
12036.2
12808.3
13217.7
10031.2
7093.61
2971.15
1699.08
2243.89
3586.63
4358.02
4821.26
4574.56
4354.6
3875.66
3552.59
3148.42
2895.48
2619.72
2451.99
2271.35
2155.52
2028.46
1940.55
1843.91
1768.87
1685.35
1611.57
1530.81
1455.62
1378.73
1308.26
1241.25
1181.47
1127.53
1079.56
1036.88
997.396
961.585
926.175
892.821
857.707
823.473
786.296
749.284
709.249
669.226
627.38
586.393
545.977
508.834
474.948
377.636
382.748
401.411
449.718
542.963
674.379
807.734
904.103
950.41
958.492
947.18
930.866
916.34
906.405
901.141
900.967
904.999
913.747
926.048
942.96
963.018
988.118
1016.22
1050.43
1087.66
1132.86
1181.2
1240.51
1303.09
1381.47
1463.2
1568.53
1677.33
1822.65
1971.63
2178.43
2389.71
2695.67
3009.54
3480.54
3962.22
4692.49
5408.19
6464.84
7393.98
8686.51
9650.81
10965.4
12035.8
12808.1
13217
10030.9
7095.35
2972.45
1699.04
2242.44
3584.51
4355.68
4819.38
4572.94
4353.09
3874.42
3551.73
3147.87
2895.08
2619.36
2451.66
2271.1
2155.35
2028.36
1940.5
1843.9
1768.9
1685.4
1611.65
1530.89
1455.72
1378.83
1308.35
1241.33
1181.55
1127.61
1079.64
1036.97
997.495
961.696
926.298
892.953
857.845
823.609
786.424
749.395
709.339
669.286
627.41
586.388
545.94
508.772
474.871
377.646
382.796
401.545
449.979
543.312
674.709
807.97
904.245
950.484
958.519
947.177
930.846
916.316
906.385
901.128
900.963
905.003
913.76
926.069
942.988
963.053
988.159
1016.27
1050.48
1087.72
1132.93
1181.27
1240.58
1303.17
1381.56
1463.31
1568.65
1677.47
1822.79
1971.76
2178.56
2389.83
2695.77
3009.63
3480.65
3962.37
4692.73
5408.56
6465.39
7394.66
8687.28
9651.33
10965.6
12035
12807.5
13215.9
10030.3
7097
2973.75
1698.93
2240.85
3582.17
4353.07
4817.22
4571.07
4351.35
3872.98
3550.71
3147.19
2894.57
2618.91
2451.25
2270.78
2155.13
2028.21
1940.4
1843.86
1768.9
1685.43
1611.69
1530.96
1455.79
1378.9
1308.43
1241.4
1181.62
1127.68
1079.71
1037.04
997.585
961.8
926.415
893.081
857.979
823.742
786.552
749.507
709.431
669.349
627.445
586.389
545.911
508.718
474.802
377.658
382.849
401.692
450.264
543.695
675.071
808.227
904.394
950.555
958.536
947.158
930.811
916.276
906.35
901.101
900.946
904.996
913.762
926.08
943.006
963.078
988.189
1016.3
1050.52
1087.77
1132.98
1181.32
1240.65
1303.24
1381.64
1463.4
1568.76
1677.58
1822.91
1971.87
2178.65
2389.9
2695.83
3009.68
3480.71
3962.46
4692.89
5408.83
6465.85
7395.22
8687.89
9651.64
10965.5
12033.9
12806.7
13214.6
10029.5
7098.58
2975.04
1698.78
2239.12
3579.63
4350.21
4814.8
4568.94
4349.39
3871.35
3549.54
3146.38
2893.95
2618.37
2450.77
2270.39
2154.84
2028.01
1940.27
1843.78
1768.86
1685.43
1611.71
1530.99
1455.84
1378.96
1308.48
1241.45
1181.67
1127.73
1079.76
1037.11
997.666
961.896
926.526
893.203
858.109
823.874
786.679
749.621
709.526
669.417
627.485
586.396
545.889
508.673
474.741
377.67
382.905
401.851
450.573
544.111
675.464
808.503
904.55
950.622
958.542
947.126
930.759
916.221
906.299
901.06
900.916
904.977
913.753
926.08
943.014
963.093
988.211
1016.33
1050.55
1087.8
1133.02
1181.37
1240.7
1303.3
1381.71
1463.48
1568.85
1677.68
1823
1971.96
2178.72
2389.95
2695.86
3009.69
3480.71
3962.48
4692.98
5409.03
6466.2
7395.65
8688.34
9651.75
10965.2
12032.5
12805.6
13213
10028.5
7100.11
2976.35
1698.58
2237.27
3576.91
4347.11
4812.12
4566.57
4347.21
3869.55
3548.23
3145.46
2893.24
2617.75
2450.21
2269.94
2154.5
2027.76
1940.09
1843.66
1768.79
1685.4
1611.71
1531.01
1455.87
1379
1308.52
1241.49
1181.71
1127.77
1079.81
1037.17
997.739
961.985
926.631
893.322
858.237
824.005
786.806
749.735
709.624
669.489
627.531
586.41
545.875
508.635
474.688
377.683
382.966
402.022
450.907
544.56
675.889
808.8
904.713
950.686
958.538
947.079
930.692
916.15
906.234
901.006
900.873
904.946
913.732
926.069
943.012
963.098
988.222
1016.35
1050.57
1087.83
1133.05
1181.41
1240.74
1303.35
1381.76
1463.55
1568.93
1677.76
1823.08
1972.02
2178.76
2389.96
2695.84
3009.65
3480.66
3962.44
4692.99
5409.13
6466.46
7395.96
8688.64
9651.66
10964.6
12030.9
12804.2
13211.2
10027.3
7101.62
2977.68
1698.36
2235.31
3574.01
4343.79
4809.21
4563.98
4344.83
3867.57
3546.78
3144.43
2892.44
2617.05
2449.58
2269.43
2154.1
2027.47
1939.87
1843.51
1768.7
1685.34
1611.68
1531
1455.88
1379.02
1308.54
1241.51
1181.73
1127.79
1079.84
1037.21
997.803
962.067
926.73
893.436
858.362
824.134
786.933
749.851
709.724
669.565
627.582
586.43
545.868
508.606
474.644
377.698
383.032
402.206
451.266
545.043
676.345
809.117
904.884
950.747
958.524
947.018
930.609
916.063
906.153
900.937
900.817
904.903
913.701
926.048
943
963.094
988.225
1016.35
1050.59
1087.85
1133.07
1181.43
1240.77
1303.38
1381.81
1463.6
1568.99
1677.82
1823.13
1972.05
2178.77
2389.94
2695.79
3009.56
3480.55
3962.33
4692.94
5409.16
6466.62
7396.15
8688.8
9651.39
10963.9
12028.9
12802.6
13209.2
10025.9
7103.11
2979.04
1698.12
2233.26
3570.97
4340.26
4806.07
4561.18
4342.26
3865.44
3545.2
3143.29
2891.54
2616.27
2448.88
2268.86
2153.65
2027.13
1939.61
1843.33
1768.57
1685.26
1611.62
1530.98
1455.88
1379.03
1308.55
1241.52
1181.74
1127.81
1079.87
1037.25
997.859
962.143
926.825
893.546
858.484
824.261
787.06
749.969
709.828
669.645
627.638
586.456
545.868
508.586
474.608
377.713
383.102
402.402
451.648
545.559
676.833
809.455
905.062
950.805
958.499
946.944
930.511
915.96
906.058
900.854
900.749
904.848
913.659
926.017
942.978
963.08
988.217
1016.35
1050.59
1087.85
1133.08
1181.45
1240.79
1303.41
1381.84
1463.64
1569.03
1677.87
1823.17
1972.07
2178.75
2389.89
2695.7
3009.43
3480.4
3962.17
4692.82
5409.11
6466.69
7396.23
8688.83
9650.93
10962.9
12026.8
12800.8
13206.9
10024.4
7104.63
2980.46
1697.88
2231.14
3567.79
4336.55
4802.73
4558.17
4339.5
3863.15
3543.49
3142.04
2890.56
2615.41
2448.12
2268.23
2153.15
2026.74
1939.32
1843.11
1768.42
1685.15
1611.55
1530.94
1455.86
1379.02
1308.54
1241.51
1181.73
1127.81
1079.88
1037.28
997.908
962.213
926.914
893.653
858.603
824.388
787.188
750.088
709.934
669.73
627.701
586.49
545.877
508.574
474.58
377.729
383.176
402.61
452.055
546.109
677.351
809.812
905.247
950.86
958.465
946.855
930.397
915.842
905.948
900.758
900.668
904.782
913.605
925.975
942.946
963.057
988.2
1016.34
1050.58
1087.85
1133.08
1181.45
1240.8
1303.42
1381.85
1463.66
1569.06
1677.89
1823.18
1972.06
2178.71
2389.8
2695.57
3009.26
3480.19
3961.95
4692.63
5408.98
6466.67
7396.2
8688.71
9650.3
10961.7
12024.3
12798.8
13204.5
10022.7
7106.18
2981.95
1697.65
2228.97
3564.5
4332.68
4799.19
4554.98
4336.57
3860.71
3541.66
3140.7
2889.49
2614.49
2447.3
2267.54
2152.6
2026.31
1938.99
1842.87
1768.23
1685.02
1611.45
1530.87
1455.82
1378.99
1308.52
1241.49
1181.71
1127.8
1079.88
1037.3
997.949
962.276
926.999
893.756
858.721
824.514
787.315
750.21
710.044
669.819
627.769
586.53
545.893
508.572
474.561
377.746
383.254
402.831
452.487
546.691
677.901
810.19
905.44
950.913
958.421
946.753
930.268
915.709
905.824
900.648
900.574
904.703
913.541
925.923
942.904
963.023
988.174
1016.32
1050.57
1087.84
1133.07
1181.45
1240.8
1303.42
1381.86
1463.67
1569.07
1677.9
1823.17
1972.03
2178.64
2389.69
2695.4
3009.04
3479.93
3961.67
4692.37
5408.78
6466.57
7396.06
8688.47
9649.5
10960.4
12021.7
12796.5
13201.9
10020.9
7107.8
2983.51
1697.45
2226.76
3561.12
4328.66
4795.48
4551.62
4333.48
3858.14
3539.72
3139.27
2888.35
2613.5
2446.42
2266.8
2152.01
2025.85
1938.63
1842.59
1768.03
1684.86
1611.34
1530.79
1455.76
1378.96
1308.49
1241.46
1181.69
1127.78
1079.87
1037.31
997.984
962.334
927.08
893.856
858.837
824.639
787.444
750.333
710.158
669.914
627.843
586.578
545.918
508.578
474.551
377.764
383.337
403.064
452.943
547.307
678.481
810.588
905.64
950.962
958.368
946.637
930.123
915.56
905.684
900.524
900.467
904.613
913.465
925.86
942.852
962.98
988.138
1016.29
1050.54
1087.82
1133.05
1181.43
1240.78
1303.41
1381.85
1463.66
1569.06
1677.89
1823.15
1971.97
2178.54
2389.54
2695.2
3008.79
3479.63
3961.34
4692.05
5408.5
6466.38
7395.83
8688.11
9648.55
10958.8
12018.8
12794.1
13199.2
10019.1
7109.5
2985.17
1697.3
2224.52
3557.66
4324.51
4791.62
4548.1
4330.24
3855.44
3537.68
3137.76
2887.14
2612.45
2445.48
2266.02
2151.37
2025.35
1938.24
1842.29
1767.8
1684.69
1611.21
1530.7
1455.7
1378.9
1308.44
1241.41
1181.65
1127.75
1079.86
1037.32
998.012
962.387
927.156
893.953
858.951
824.764
787.573
750.459
710.275
670.013
627.924
586.633
545.95
508.593
474.55
377.783
383.424
403.31
453.423
547.956
679.093
811.005
905.848
951.009
958.305
946.507
929.963
915.396
905.53
900.386
900.348
904.511
913.379
925.787
942.79
962.928
988.093
1016.25
1050.51
1087.79
1133.03
1181.41
1240.76
1303.39
1381.83
1463.65
1569.05
1677.87
1823.11
1971.89
2178.42
2389.37
2694.97
3008.49
3479.27
3960.95
4691.67
5408.16
6466.12
7395.5
8687.64
9647.44
10957.1
12015.7
12791.6
13196.4
10017.2
7111.33
2986.94
1697.21
2222.29
3554.15
4320.25
4787.62
4544.44
4326.87
3852.63
3535.54
3136.16
2885.86
2611.34
2444.5
2265.19
2150.69
2024.81
1937.81
1841.97
1767.55
1684.49
1611.05
1530.58
1455.61
1378.84
1308.38
1241.36
1181.6
1127.71
1079.83
1037.31
998.034
962.435
927.229
894.048
859.063
824.889
787.704
750.588
710.396
670.118
628.012
586.695
545.991
508.618
474.557
377.803
383.516
403.568
453.927
548.637
679.736
811.443
906.063
951.054
958.232
946.364
929.788
915.216
905.361
900.235
900.216
904.398
913.281
925.704
942.718
962.866
988.039
1016.2
1050.46
1087.75
1132.99
1181.37
1240.72
1303.36
1381.8
1463.61
1569.01
1677.83
1823.04
1971.8
2178.27
2389.16
2694.7
3008.15
3478.88
3960.51
4691.24
5407.75
6465.78
7395.08
8687.05
9646.18
10955.2
12012.4
12788.9
13193.5
10015.2
7113.3
2988.85
1697.19
2220.08
3550.61
4315.91
4783.51
4540.65
4323.37
3849.72
3533.31
3134.49
2884.52
2610.17
2443.46
2264.31
2149.97
2024.24
1937.36
1841.62
1767.27
1684.28
1610.89
1530.46
1455.52
1378.76
1308.31
1241.29
1181.53
1127.66
1079.8
1037.3
998.05
962.478
927.298
894.14
859.174
825.013
787.836
750.719
710.522
670.229
628.106
586.766
546.041
508.652
474.574
377.824
383.612
403.838
454.456
549.352
680.41
811.901
906.286
951.096
958.15
946.207
929.598
915.021
905.178
900.07
900.071
904.272
913.173
925.61
942.637
962.794
987.975
1016.15
1050.41
1087.7
1132.94
1181.32
1240.68
1303.31
1381.75
1463.57
1568.96
1677.77
1822.96
1971.68
2178.1
2388.93
2694.39
3007.77
3478.43
3960.02
4690.74
5407.28
6465.37
7394.57
8686.36
9644.79
10953.1
12009
12786.1
13190.5
10013.3
7115.43
2990.89
1697.27
2217.92
3547.07
4311.51
4779.29
4536.75
4319.77
3846.71
3531.01
3132.76
2883.12
2608.96
2442.38
2263.39
2149.22
2023.64
1936.89
1841.25
1766.98
1684.04
1610.7
1530.32
1455.41
1378.67
1308.23
1241.21
1181.46
1127.6
1079.76
1037.29
998.061
962.517
927.364
894.23
859.285
825.138
787.97
750.854
710.651
670.345
628.206
586.844
546.099
508.696
474.6
377.846
383.713
404.121
455.01
550.1
681.114
812.379
906.517
951.136
958.059
946.038
929.393
914.811
904.98
899.892
899.914
904.135
913.054
925.506
942.545
962.714
987.902
1016.08
1050.35
1087.64
1132.88
1181.27
1240.62
1303.26
1381.7
1463.51
1568.9
1677.69
1822.86
1971.54
2177.91
2388.67
2694.05
3007.36
3477.94
3959.48
4690.19
5406.75
6464.9
7393.99
8685.57
9643.27
10950.9
12005.3
12783.2
13187.5
10011.4
7117.77
2993.11
1697.46
2215.81
3543.54
4307.07
4774.99
4532.76
4316.06
3843.61
3528.63
3130.97
2881.67
2607.7
2441.26
2262.44
2148.43
2023.01
1936.39
1840.85
1766.67
1683.8
1610.51
1530.16
1455.29
1378.57
1308.14
1241.13
1181.38
1127.53
1079.71
1037.26
998.066
962.552
927.427
894.319
859.394
825.264
788.105
750.991
710.785
670.467
628.314
586.93
546.167
508.749
474.636
377.869
383.818
404.416
455.587
550.881
681.85
812.878
906.755
951.173
957.959
945.855
929.173
914.586
904.767
899.7
899.744
903.987
912.924
925.392
942.444
962.623
987.82
1016
1050.28
1087.57
1132.82
1181.2
1240.56
1303.19
1381.63
1463.44
1568.82
1677.6
1822.74
1971.37
2177.69
2388.38
2693.69
3006.9
3477.41
3958.89
4689.58
5406.16
6464.36
7393.32
8684.69
9641.62
10948.6
12001.6
12780.2
13184.5
10009.5
7120.33
2995.5
1697.78
2213.78
3540.04
4302.6
4770.63
4528.68
4312.28
3840.44
3526.18
3129.12
2880.17
2606.4
2440.11
2261.45
2147.61
2022.35
1935.86
1840.44
1766.34
1683.53
1610.29
1530
1455.16
1378.46
1308.04
1241.03
1181.3
1127.46
1079.65
1037.23
998.067
962.583
927.487
894.406
859.504
825.391
788.242
751.132
710.924
670.595
628.43
587.024
546.243
508.812
474.681
377.893
383.927
404.724
456.189
551.694
682.616
813.396
907.002
951.209
957.85
945.659
928.938
914.345
904.54
899.494
899.562
903.827
912.783
925.268
942.333
962.523
987.728
1015.92
1050.2
1087.49
1132.74
1181.13
1240.48
1303.11
1381.55
1463.36
1568.73
1677.49
1822.6
1971.19
2177.44
2388.06
2693.28
3006.41
3476.84
3958.26
4688.93
5405.51
6463.75
7392.59
8683.72
9639.86
10946.2
11997.6
12777.1
13181.5
10007.8
7123.15
2998.09
1698.24
2211.86
3536.61
4298.14
4766.22
4524.54
4308.42
3837.2
3523.69
3127.22
2878.63
2605.06
2438.92
2260.44
2146.77
2021.67
1935.32
1840.02
1766
1683.26
1610.07
1529.83
1455.02
1378.35
1307.93
1240.93
1181.2
1127.37
1079.59
1037.2
998.063
962.611
927.545
894.492
859.613
825.518
788.381
751.277
711.068
670.729
628.552
587.127
546.329
508.886
474.736
377.918
384.041
405.045
456.816
552.541
683.413
813.935
907.256
951.243
957.732
945.45
928.688
914.09
904.299
899.276
899.367
903.655
912.631
925.133
942.213
962.414
987.627
1015.83
1050.11
1087.41
1132.65
1181.04
1240.39
1303.03
1381.45
1463.26
1568.62
1677.37
1822.45
1970.99
2177.18
2387.72
2692.85
3005.89
3476.22
3957.58
4688.22
5404.81
6463.1
7391.79
8682.68
9638
10943.6
11993.6
12774
13178.6
10006.1
7126.24
3000.9
1698.87
2210.06
3533.26
4293.7
4761.79
4520.35
4304.51
3833.91
3521.14
3125.29
2877.06
2603.7
2437.7
2259.39
2145.89
2020.97
1934.76
1839.57
1765.65
1682.97
1609.84
1529.65
1454.88
1378.22
1307.81
1240.81
1181.1
1127.28
1079.52
1037.16
998.056
962.637
927.602
894.577
859.722
825.647
788.523
751.425
711.217
670.869
628.682
587.238
546.424
508.969
474.801
377.943
384.159
405.378
457.467
553.42
684.241
814.493
907.519
951.275
957.606
945.228
928.424
913.82
904.043
899.043
899.16
903.472
912.469
924.989
942.082
962.295
987.517
1015.72
1050.01
1087.31
1132.56
1180.95
1240.3
1302.93
1381.35
1463.15
1568.5
1677.23
1822.27
1970.77
2176.89
2387.35
2692.39
3005.33
3475.57
3956.85
4687.47
5404.06
6462.39
7390.92
8681.56
9636.04
10940.9
11989.5
12770.9
13175.7
10004.5
7129.65
3003.94
1699.68
2208.4
3530.01
4289.31
4757.36
4516.13
4300.55
3830.58
3518.55
3123.31
2875.45
2602.3
2436.45
2258.32
2145
2020.25
1934.18
1839.12
1765.28
1682.67
1609.6
1529.45
1454.72
1378.09
1307.69
1240.7
1180.99
1127.19
1079.45
1037.11
998.045
962.659
927.656
894.661
859.831
825.777
788.668
751.577
711.371
671.017
628.82
587.358
546.529
509.063
474.875
377.97
384.282
405.723
458.142
554.333
685.1
815.072
907.789
951.306
957.47
944.993
928.145
913.535
903.773
898.798
898.941
903.277
912.296
924.834
941.943
962.168
987.398
1015.61
1049.9
1087.21
1132.45
1180.84
1240.19
1302.82
1381.24
1463.03
1568.37
1677.08
1822.08
1970.53
2176.58
2386.96
2691.9
3004.74
3474.88
3956.09
4686.67
5403.27
6461.63
7390
8680.37
9633.98
10938.1
11985.2
12767.8
13172.9
10003.2
7133.4
3007.24
1700.7
2206.91
3526.89
4284.98
4752.94
4511.89
4296.55
3827.21
3515.93
3121.31
2873.81
2600.88
2435.18
2257.23
2144.08
2019.51
1933.59
1838.65
1764.9
1682.37
1609.35
1529.26
1454.56
1377.95
1307.55
1240.57
1180.87
1127.09
1079.37
1037.07
998.03
962.68
927.709
894.745
859.941
825.908
788.815
751.734
711.53
671.171
628.966
587.487
546.644
509.168
474.96
377.998
384.409
406.082
458.842
555.278
685.989
815.672
908.068
951.335
957.327
944.746
927.852
913.235
903.489
898.539
898.709
903.071
912.112
924.669
941.793
962.03
987.27
1015.49
1049.78
1087.09
1132.34
1180.73
1240.07
1302.7
1381.11
1462.9
1568.22
1676.91
1821.88
1970.27
2176.24
2386.54
2691.38
3004.11
3474.15
3955.28
4685.83
5402.43
6460.82
7389.03
8679.12
9631.84
10935.3
11980.9
12764.6
13170.2
10002
7137.51
3010.82
1701.93
2205.6
3523.92
4280.74
4748.55
4507.65
4292.54
3823.82
3513.29
3119.29
2872.16
2599.44
2433.89
2256.12
2143.15
2018.75
1932.98
1838.17
1764.52
1682.05
1609.09
1529.05
1454.4
1377.8
1307.42
1240.44
1180.75
1126.98
1079.29
1037.01
998.013
962.698
927.762
894.828
860.052
826.042
788.965
751.895
711.696
671.332
629.12
587.625
546.768
509.283
475.055
378.026
384.541
406.453
459.567
556.256
686.909
816.291
908.356
951.362
957.175
944.486
927.544
912.92
903.19
898.266
898.465
902.853
911.918
924.495
941.634
961.884
987.133
1015.36
1049.65
1086.97
1132.22
1180.61
1239.95
1302.57
1380.97
1462.75
1568.06
1676.72
1821.65
1969.99
2175.89
2386.09
2690.83
3003.45
3473.39
3954.44
4684.95
5401.55
6459.98
7388.01
8677.82
9629.62
10932.3
11976.5
12761.5
13167.7
10001
7142.01
3014.68
1703.4
2204.5
3521.13
4276.62
4744.22
4503.42
4288.52
3820.41
3510.63
3117.24
2870.48
2597.98
2432.59
2254.99
2142.2
2017.98
1932.37
1837.68
1764.12
1681.73
1608.83
1528.85
1454.23
1377.66
1307.28
1240.3
1180.62
1126.87
1079.2
1036.96
997.994
962.715
927.813
894.912
860.163
826.178
789.118
752.06
711.867
671.5
629.283
587.772
546.903
509.409
475.161
378.056
384.678
406.836
460.316
557.267
687.86
816.931
908.651
951.388
957.015
944.214
927.222
912.591
902.878
897.981
898.208
902.624
911.713
924.31
941.465
961.728
986.987
1015.22
1049.52
1086.84
1132.09
1180.47
1239.81
1302.43
1380.82
1462.59
1567.88
1676.53
1821.41
1969.69
2175.51
2385.62
2690.25
3002.76
3472.59
3953.56
4684.03
5400.62
6459.09
7386.95
8676.47
9627.34
10929.3
11972.1
12758.4
13165.3
10000.2
7146.94
3018.86
1705.13
2203.62
3518.52
4272.62
4739.95
4499.22
4284.51
3817
3507.96
3115.19
2868.8
2596.52
2431.28
2253.85
2141.24
2017.21
1931.74
1837.19
1763.72
1681.4
1608.57
1528.63
1454.05
1377.5
1307.13
1240.16
1180.49
1126.75
1079.11
1036.9
997.972
962.73
927.864
894.996
860.276
826.316
789.275
752.23
712.044
671.675
629.454
587.928
547.047
509.546
475.277
378.087
384.819
407.233
461.09
558.311
688.842
817.592
908.956
951.414
956.847
943.93
926.885
912.247
902.551
897.682
897.94
902.384
911.497
924.115
941.287
961.564
986.832
1015.07
1049.38
1086.7
1131.94
1180.33
1239.66
1302.28
1380.66
1462.42
1567.7
1676.31
1821.16
1969.37
2175.12
2385.13
2689.65
3002.04
3471.76
3952.64
4683.08
5399.67
6458.17
7385.85
8675.07
9624.99
10926.3
11967.6
12755.4
13163.1
9999.75
7152.31
3023.36
1707.14
2203
3516.13
4268.77
4735.77
4495.06
4280.51
3813.59
3505.28
3113.13
2867.11
2595.04
2429.95
2252.7
2140.27
2016.42
1931.11
1836.69
1763.32
1681.07
1608.3
1528.42
1453.88
1377.35
1306.98
1240.02
1180.35
1126.63
1079.02
1036.84
997.948
962.745
927.914
895.081
860.391
826.456
789.435
752.405
712.227
671.858
629.633
588.094
547.203
509.694
475.404
378.118
384.964
407.642
461.888
559.388
689.855
818.273
909.269
951.438
956.671
943.633
926.535
911.889
902.211
897.37
897.659
902.133
911.271
923.911
941.1
961.39
986.668
1014.92
1049.22
1086.55
1131.79
1180.18
1239.51
1302.12
1380.49
1462.24
1567.49
1676.08
1820.88
1969.04
2174.7
2384.62
2689.02
3001.3
3470.89
3951.69
4682.08
5398.67
6457.21
7384.72
8673.63
9622.59
10923.2
11963
12752.5
13161.1
9999.55
7158.16
3028.22
1709.44
2202.63
3513.98
4265.1
4731.69
4490.95
4276.54
3810.2
3502.61
3111.07
2865.41
2593.56
2428.62
2251.54
2139.29
2015.62
1930.48
1836.19
1762.91
1680.74
1608.02
1528.2
1453.7
1377.19
1306.83
1239.87
1180.21
1126.51
1078.92
1036.77
997.923
962.759
927.965
895.167
860.507
826.599
789.599
752.584
712.416
672.049
629.821
588.27
547.368
509.854
475.541
378.151
385.114
408.064
462.711
560.498
690.899
818.975
909.591
951.461
956.487
943.325
926.17
911.516
901.856
897.046
897.366
901.87
911.035
923.696
940.903
961.207
986.495
1014.75
1049.06
1086.39
1131.63
1180.02
1239.34
1301.95
1380.31
1462.05
1567.28
1675.84
1820.59
1968.69
2174.26
2384.08
2688.37
3000.52
3470
3950.7
4681.06
5397.65
6456.23
7383.55
8672.16
9620.13
10920
11958.5
12749.6
13159.3
9999.65
7164.51
3033.44
1712.06
2202.56
3512.09
4261.61
4727.74
4486.92
4272.61
3806.83
3499.96
3109.02
2863.72
2592.08
2427.29
2250.38
2138.3
2014.82
1929.84
1835.68
1762.5
1680.41
1607.75
1527.98
1453.52
1377.03
1306.67
1239.72
1180.07
1126.38
1078.82
1036.71
997.897
962.772
928.016
895.253
860.625
826.746
789.767
752.77
712.612
672.247
630.018
588.456
547.545
510.025
475.69
378.185
385.269
408.499
463.559
561.641
691.974
819.697
909.922
951.484
956.296
943.004
925.791
911.129
901.488
896.708
897.061
901.596
910.788
923.472
940.697
961.015
986.313
1014.58
1048.89
1086.22
1131.47
1179.85
1239.17
1301.77
1380.12
1461.84
1567.05
1675.59
1820.29
1968.32
2173.81
2383.52
2687.69
2999.71
3469.07
3949.68
4680
5396.6
6455.22
7382.36
8670.66
9617.64
10916.8
11954
12746.9
13157.8
10000.1
7171.4
3039.06
1715.01
2202.79
3510.47
4258.34
4723.92
4482.97
4268.73
3803.49
3497.32
3106.98
2862.03
2590.6
2425.95
2249.21
2137.31
2014.02
1929.19
1835.18
1762.09
1680.07
1607.48
1527.77
1453.34
1376.86
1306.51
1239.57
1179.93
1126.26
1078.72
1036.64
997.869
962.785
928.067
895.341
860.745
826.895
789.939
752.96
712.814
672.453
630.224
588.651
547.732
510.207
475.849
378.219
385.429
408.947
464.431
562.817
693.079
820.44
910.262
951.506
956.097
942.672
925.399
910.728
901.106
896.357
896.745
901.312
910.531
923.238
940.481
960.814
986.123
1014.39
1048.71
1086.04
1131.29
1179.67
1238.99
1301.58
1379.92
1461.62
1566.81
1675.32
1819.97
1967.94
2173.33
2382.95
2686.98
2998.88
3468.12
3948.64
4678.92
5395.51
6454.19
7381.15
8669.14
9615.11
10913.6
11949.4
12744.2
13156.6
10000.9
7178.83
3045.08
1718.31
2203.35
3509.15
4255.29
4720.26
4479.12
4264.9
3800.19
3494.7
3104.95
2860.35
2589.13
2424.62
2248.05
2136.32
2013.21
1928.55
1834.67
1761.68
1679.74
1607.21
1527.55
1453.16
1376.7
1306.36
1239.41
1179.78
1126.13
1078.61
1036.57
997.842
962.799
928.12
895.431
860.867
827.047
790.116
753.156
713.023
672.667
630.44
588.857
547.93
510.402
476.02
378.255
385.593
409.408
465.329
564.026
694.216
821.204
910.611
951.528
955.891
942.328
924.993
910.312
900.71
895.994
896.416
901.016
910.263
922.994
940.256
960.605
985.924
1014.2
1048.53
1085.86
1131.1
1179.48