/*--------------------------------*- C++ -*----------------------------------*\
| =========                 |                                                 |
| \\      /  F ield         | OpenFOAM: The Open Source CFD Toolbox           |
|  \\    /   O peration     | Version:  2412                                  |
|   \\  /    A nd           | Website:  www.openfoam.com                      |
|    \\/     M anipulation  |                                                 |
\*---------------------------------------------------------------------------*/
FoamFile
{
    version     2.0;
    format      ascii;
    arch        "LSB;label=32;scalar=64";
    class       volScalarField;
    location    "0.4";
    object      k;
}
// * * * * * * * * * * * * * * * * * * * * * * * * * * * * * * * * * * * * * //

dimensions      [0 2 -2 0 0 0 0];

internalField   nonuniform List<scalar> 
13068
(
37.5822
38.0913
39.5644
42.7416
47.8821
53.9192
58.9426
61.7513
62.5011
62.0824
61.3056
60.618
60.1404
59.886
59.8086
59.9098
60.1475
60.5454
61.0542
61.7202
62.4791
63.409
64.4187
65.6318
66.9122
68.4502
70.0393
71.9712
73.9296
76.3613
78.7805
81.8736
84.8995
88.9064
92.7566
98.0365
103.034
110.151
116.827
126.596
135.583
148.751
160.147
176.429
188.838
205.978
216.933
232.654
243.964
251.288
254.022
209.721
169.474
91.2666
73.1621
96.1703
126.942
140.387
147.416
141.565
137.624
128.321
122.657
114.587
109.98
104.169
100.917
96.8092
94.3508
91.2816
89.2766
86.8143
84.9519
82.7011
80.7247
78.4475
76.3331
74.1068
72.0662
70.0815
68.2968
66.6504
65.1558
63.7929
62.4919
61.2837
60.0447
58.8538
57.5553
56.269
54.8282
53.3722
51.7522
50.1061
48.3418
46.5866
44.8258
43.1963
41.685
37.5823
38.0918
39.5654
42.7429
47.8832
53.9201
58.9442
61.7542
62.505
62.0867
61.3099
60.6222
60.1444
59.8899
59.8124
59.9136
60.1513
60.5492
61.0581
61.7242
62.4831
63.4132
64.423
65.6362
66.9167
68.4549
70.0443
71.9765
73.9352
76.3674
78.7872
81.8809
84.9075
88.9147
92.7652
98.0454
103.044
110.161
116.838
126.609
135.597
148.767
160.167
176.451
188.864
206.007
216.962
232.681
243.987
251.313
254.042
209.749
169.516
91.2941
73.1766
96.1758
126.947
140.396
147.432
141.58
137.636
128.33
122.668
114.599
109.991
104.178
100.925
96.8174
94.3592
91.2899
89.2846
86.8223
84.9599
82.709
80.7323
78.4548
76.3401
74.1135
72.0726
70.0876
68.3027
66.6561
65.1614
63.7985
62.4975
61.2894
60.0505
58.8595
57.5607
56.2739
54.8323
53.3751
51.7538
50.1058
48.3397
46.5825
44.8199
43.1888
41.677
37.5825
38.0925
39.5671
42.7455
47.8857
53.9222
58.9464
61.7572
62.5089
62.091
61.3141
60.6262
60.1482
59.8937
59.8162
59.9173
60.1551
60.5531
61.062
61.7282
62.4873
63.4175
64.4274
65.6407
66.9215
68.4598
70.0494
71.9819
73.941
76.3736
78.7941
81.8885
84.9156
88.9232
92.774
98.0545
103.053
110.171
116.849
126.621
135.611
148.783
160.186
176.474
188.891
206.036
216.992
232.708
244.01
251.337
254.063
209.776
169.56
91.3222
73.1886
96.1778
126.949
140.401
147.445
141.592
137.644
128.338
122.678
114.61
110.001
104.186
100.932
96.8249
94.3671
91.2977
89.2922
86.83
84.9678
82.7168
80.7399
78.4621
76.3471
74.1202
72.079
70.0938
68.3087
66.6618
65.167
63.8041
62.5032
61.2952
60.0564
58.8653
57.5664
56.279
54.8367
53.3783
51.7557
50.106
48.3382
46.579
44.8146
43.1819
41.6696
37.5828
38.0937
39.5697
42.7495
47.8898
53.9254
58.9491
61.7603
62.5125
62.0948
61.3179
60.6298
60.1517
59.8971
59.8197
59.9208
60.1587
60.5568
61.0658
61.7321
62.4913
63.4216
64.4317
65.6451
66.926
68.4646
70.0544
71.9871
73.9466
76.3797
78.8009
81.8958
84.9234
88.9314
92.7824
98.0632
103.062
110.181
116.86
126.632
135.624
148.799
160.204
176.496
188.916
206.063
217.019
232.732
244.029
251.358
254.081
209.801
169.604
91.3502
73.1975
96.1759
126.948
140.403
147.454
141.601
137.65
128.343
122.685
114.618
110.01
104.192
100.938
96.8311
94.3739
91.3046
89.299
86.837
84.975
82.7241
80.747
78.469
76.3538
74.1267
72.0851
70.0997
68.3144
66.6674
65.1724
63.8095
62.5087
61.3009
60.0622
58.8712
57.5722
56.2843
54.8413
53.3817
51.7579
50.1064
48.337
46.5758
44.8096
43.1755
41.6627
37.5832
38.0951
39.5732
42.7549
47.8956
53.9298
58.9523
61.7633
62.5157
62.0981
61.321
60.6328
60.1547
59.9001
59.8227
59.924
60.1619
60.5601
61.0692
61.7357
62.495
63.4254
64.4357
65.6492
66.9303
68.469
70.0591
71.9921
73.9519
76.3855
78.8072
81.9028
84.9309
88.9391
92.7903
98.0713
103.071
110.19
116.869
126.643
135.636
148.813
160.221
176.516
188.939
206.088
217.044
232.754
244.046
251.377
254.096
209.821
169.647
91.3775
73.2035
96.1702
126.942
140.4
147.459
141.605
137.652
128.345
122.69
114.625
110.016
104.197
100.942
96.8359
94.3793
91.3103
89.3049
86.8432
84.9815
82.7307
80.7535
78.4753
76.36
74.1326
72.0908
70.1052
68.3196
66.6725
65.1775
63.8146
62.514
61.3064
60.0679
58.8769
57.5778
56.2895
54.8459
53.3853
51.7602
50.1071
48.336
46.573
44.8051
43.1695
41.6562
37.5836
38.097
39.5775
42.7618
47.9029
53.9353
58.9559
61.7661
62.5185
62.1008
61.3236
60.6353
60.1571
59.9026
59.8253
59.9267
60.1647
60.5631
61.0723
61.7389
62.4984
63.4289
64.4393
65.653
66.9343
68.4732
70.0634
71.9967
73.9569
76.3909
78.8132
81.9093
84.9378
88.9463
92.7975
98.0786
103.078
110.198
116.877
126.652
135.647
148.826
160.236
176.535
188.961
206.111
217.065
232.773
244.058
251.392
254.107
209.838
169.689
91.4043
73.2064
96.1605
126.933
140.393
147.46
141.606
137.65
128.344
122.692
114.629
110.02
104.199
100.944
96.839
94.3833
91.3149
89.3097
86.8484
84.9871
82.7365
80.7592
78.481
76.3655
74.138
72.096
70.1101
68.3244
66.6772
65.1822
63.8194
62.519
61.3116
60.0734
58.8825
57.5834
56.2947
54.8505
53.3888
51.7626
50.1079
48.3353
46.5705
44.8009
43.1639
41.6501
37.5841
38.0992
39.5828
42.7702
47.9119
53.9421
58.96
61.7688
62.5208
62.1029
61.3255
60.6371
60.159
59.9046
59.8274
59.9289
60.1672
60.5656
61.0751
61.7418
62.5014
63.4321
64.4427
65.6565
66.9379
68.477
70.0674
72.0009
73.9615
76.3959
78.8187
81.9153
84.9442
88.9528
92.8041
98.0852
103.085
110.205
116.885
126.66
135.656
148.837
160.25
176.552
188.98
206.132
217.084
232.789
244.067
251.404
254.115
209.852
169.729
91.4306
73.2063
96.1471
126.919
140.381
147.456
141.602
137.644
128.339
122.691
114.631
110.022
104.2
100.944
96.8406
94.3859
91.3181
89.3133
86.8527
84.9918
82.7415
80.7643
78.486
76.3705
74.1429
72.1006
70.1146
68.3287
66.6814
65.1864
63.8238
62.5237
61.3166
60.0787
58.8879
57.5888
56.2998
54.8551
53.3925
51.7651
50.1089
48.3348
46.5682
44.797
43.1587
41.6444
37.5847
38.1017
39.5889
42.78
47.9225
53.95
58.9645
61.7714
62.5226
62.1044
61.3268
60.6384
60.1603
59.906
59.8291
59.9308
60.1692
60.5679
61.0775
61.7444
62.5041
63.435
64.4457
65.6597
66.9412
68.4804
70.0711
72.0048
73.9656
76.4005
78.8237
81.9208
84.95
88.9587
92.81
98.091
103.091
110.21
116.891
126.667
135.664
148.847
160.262
176.567
188.997
206.15
217.1
232.801
244.072
251.413
254.119
209.861
169.769
91.4564
73.2036
96.1301
126.902
140.366
147.448
141.594
137.634
128.33
122.687
114.63
110.022
104.199
100.943
96.8405
94.3871
91.3201
89.3159
86.856
84.9957
82.7457
80.7686
78.4904
76.3749
74.1472
72.1047
70.1185
68.3326
66.6852
65.1903
63.8279
62.5281
61.3213
60.0837
58.8932
57.5941
56.3049
54.8597
53.3962
51.7678
50.1101
48.3346
46.5662
44.7935
43.1539
41.639
37.5854
38.1046
39.5958
42.7912
47.9348
53.9591
58.9695
61.7738
62.5239
62.1052
61.3275
60.639
60.1611
59.907
59.8303
59.9322
60.1708
60.5697
61.0795
61.7466
62.5065
63.4375
64.4484
65.6625
66.9442
68.4836
70.0744
72.0083
73.9694
76.4046
78.8283
81.9258
84.9553
88.9641
92.8152
98.0961
103.095
110.215
116.896
126.673
135.671
148.855
160.273
176.58
189.012
206.166
217.114
232.811
244.073
251.418
254.12
209.868
169.809
91.482
73.1982
96.1097
126.882
140.346
147.436
141.582
137.621
128.319
122.681
114.627
110.019
104.196
100.94
96.8389
94.3869
91.3209
89.3174
86.8583
84.9987
82.7492
80.7722
78.4942
76.3787
74.151
72.1083
70.1219
68.3359
66.6886
65.1938
63.8316
62.5322
61.3258
60.0886
58.8983
57.5993
56.3099
54.8643
53.3999
51.7706
50.1115
48.3346
46.5646
44.7903
43.1495
41.6341
37.5862
38.1079
39.6037
42.8039
47.9486
53.9694
58.975
61.7762
62.5248
62.1055
61.3275
60.639
60.1612
59.9074
59.8309
59.9331
60.172
60.5711
61.0811
61.7484
62.5086
63.4397
64.4507
65.665
66.9468
68.4863
70.0773
72.0115
73.9728
76.4083
78.8324
81.9303
84.96
88.9688
92.8197
98.1004
103.1
110.219
116.9
126.677
135.676
148.862
160.282
176.592
189.025
206.179
217.124
232.817
244.07
251.419
254.118
209.871
169.847
91.5074
73.1906
96.0861
126.857
140.322
147.421
141.567
137.604
128.304
122.672
114.621
110.015
104.191
100.935
96.8357
94.3853
91.3205
89.3179
86.8597
85.0008
82.7518
80.7751
78.4973
76.382
74.1542
72.1114
70.1249
68.3388
66.6915
65.1969
63.835
62.536
61.33
60.0932
58.9032
57.6044
56.3149
54.8689
53.4037
51.7735
50.113
48.3348
46.5632
44.7875
43.1455
41.6296
37.5871
38.1115
39.6124
42.8181
47.9641
53.9808
58.9809
61.7783
62.5252
62.1052
61.3268
60.6384
60.1608
59.9073
59.8312
59.9337
60.1728
60.5722
61.0824
61.7499
62.5102
63.4416
64.4527
65.6671
66.9491
68.4887
70.0799
72.0142
73.9758
76.4116
78.8361
81.9343
84.9642
88.9729
92.8236
98.1039
103.103
110.222
116.903
126.681
135.681
148.868
160.29
176.602
189.036
206.19
217.131
232.82
244.064
251.418
254.113
209.871
169.886
91.533
73.1808
96.0595
126.83
140.294
147.401
141.547
137.583
128.286
122.66
114.613
110.009
104.184
100.929
96.8311
94.3824
91.319
89.3173
86.8602
85.0022
82.7537
80.7773
78.4998
76.3846
74.1568
72.1139
70.1273
68.3413
66.694
65.1996
63.838
62.5395
61.334
60.0976
58.908
57.6094
56.3198
54.8735
53.4076
51.7765
50.1148
48.3352
46.5621
44.785
43.1419
41.6255
37.588
38.1155
39.622
42.8336
47.9811
53.9933
58.9872
61.7804
62.5252
62.1042
61.3256
60.6371
60.1599
59.9067
59.8309
59.9337
60.1732
60.5729
61.0834
61.7511
62.5116
63.4431
64.4544
65.6689
66.951
68.4908
70.0821
72.0166
73.9785
76.4145
78.8393
81.9379
84.9679
88.9765
92.8268
98.1067
103.105
110.225
116.905
126.683
135.683
148.872
160.296
176.61
189.046
206.199
217.136
232.821
244.054
251.414
254.105
209.868
169.924
91.5588
73.1693
96.0302
126.799
140.263
147.377
141.524
137.559
128.266
122.646
114.603
110
104.176
100.921
96.8249
94.3782
91.3162
89.3157
86.8598
85.0027
82.7548
80.7788
78.5017
76.3868
74.159
72.116
70.1293
68.3433
66.6961
65.2019
63.8407
62.5427
61.3378
60.1019
58.9127
57.6143
56.3246
54.8781
53.4116
51.7796
50.1167
48.3359
46.5613
44.7829
43.1387
41.6217
37.589
38.1198
39.6324
42.8507
47.9998
54.0071
58.994
61.7823
62.5247
62.1027
61.3237
60.6353
60.1584
59.9056
59.8302
59.9334
60.1732
60.5732
61.0839
61.7519
62.5126
63.4443
64.4557
65.6704
66.9526
68.4925
70.084
72.0187
73.9807
76.417
78.8421
81.9409
84.971
88.9794
92.8293
98.1088
103.107
110.226
116.906
126.684
135.685
148.875
160.3
176.617
189.053
206.206
217.138
232.818
244.041
251.407
254.094
209.862
169.963
91.5853
73.1562
95.9985
126.766
140.229
147.35
141.497
137.532
128.242
122.629
114.591
109.99
104.165
100.911
96.8174
94.3727
91.3124
89.3132
86.8585
85.0024
82.7553
80.7797
78.503
76.3883
74.1607
72.1175
70.1308
68.3448
66.6978
65.2039
63.8431
62.5456
61.3413
60.106
58.9172
57.6191
56.3295
54.8827
53.4156
51.7829
50.1188
48.3369
46.5608
44.7811
43.136
41.6184
37.5901
38.1245
39.6437
42.8691
48.02
54.0219
59.0012
61.7841
62.5238
62.1006
61.3212
60.6329
60.1563
59.9039
59.829
59.9326
60.1728
60.5731
61.0842
61.7523
62.5133
63.4451
64.4568
65.6716
66.9539
68.4939
70.0855
72.0203
73.9826
76.4191
78.8445
81.9435
84.9736
88.9818
92.8312
98.1101
103.108
110.226
116.906
126.684
135.685
148.877
160.303
176.622
189.058
206.21
217.137
232.813
244.025
251.397
254.081
209.855
170.002
91.6126
73.1419
95.9647
126.731
140.191
147.32
141.467
137.502
128.216
122.61
114.577
109.978
104.153
100.9
96.8084
94.366
91.3075
89.3097
86.8564
85.0014
82.755
80.78
78.5037
76.3894
74.1619
72.1186
70.1319
68.346
66.6991
65.2055
63.8452
62.5483
61.3446
60.1099
58.9215
57.6238
56.3343
54.8874
53.4197
51.7863
50.1211
48.3381
46.5606
44.7797
43.1336
41.6155
37.5913
38.1295
39.6559
42.889
48.0418
54.0379
59.0088
61.7858
62.5224
62.0979
61.318
60.6299
60.1536
59.9018
59.8273
59.9314
60.172
60.5726
61.084
61.7525
62.5136
63.4457
64.4574
65.6724
66.9549
68.495
70.0867
72.0216
73.984
76.4207
78.8464
81.9456
84.9757
88.9835
92.8324
98.1107
103.107
110.225
116.905
126.682
135.684
148.877
160.305
176.626
189.062
206.213
217.134
232.805
244.005
251.384
254.065
209.845
170.043
91.6409
73.1267
95.9292
126.693
140.15
147.287
141.434
137.468
128.187
122.589
114.561
109.964
104.14
100.888
96.7982
94.358
91.3015
89.3053
86.8535
84.9996
82.7541
80.7797
78.5039
76.39
74.1626
72.1193
70.1325
68.3467
66.7
65.2068
63.847
62.5508
61.3477
60.1136
58.9258
57.6285
56.339
54.892
53.4239
51.7899
50.1237
48.3396
46.5608
44.7787
43.1317
41.613
37.5926
38.1349
39.6689
42.9103
48.0652
54.055
59.0169
61.7873
62.5206
62.0946
61.3143
60.6262
60.1504
59.8991
59.8251
59.9297
60.1708
60.5718
61.0835
61.7522
62.5136
63.4458
64.4578
65.6729
66.9555
68.4957
70.0876
72.0226
73.9851
76.422
78.8479
81.9472
84.9772
88.9847
92.833
98.1106
103.107
110.224
116.903
126.68
135.682
148.876
160.305
176.628
189.063
206.214
217.129
232.794
243.983
251.369
254.048
209.833
170.084
91.6707
73.1111
95.8921
126.653
140.107
147.25
141.398
137.432
128.155
122.565
114.543
109.949
104.125
100.874
96.7866
94.3489
91.2945
89.3001
86.8498
84.9971
82.7525
80.7787
78.5036
76.3901
74.1628
72.1195
70.1328
68.347
66.7006
65.2077
63.8485
62.553
61.3506
60.1172
58.9299
57.6331
56.3438
54.8968
53.4282
51.7936
50.1264
48.3414
46.5612
44.778
43.1302
41.6109
37.594
38.1407
39.6828
42.933
48.0902
54.0732
59.0254
61.7888
62.5184
62.0907
61.3099
60.622
60.1467
59.8959
59.8225
59.9276
60.1691
60.5705
61.0826
61.7516
62.5133
63.4457
64.4578
65.673
66.9558
68.4961
70.088
72.0231
73.9858
76.4228
78.8489
81.9483
84.9783
88.9854
92.833
98.1098
103.105
110.221
116.899
126.677
135.679
148.874
160.304
176.628
189.063
206.212
217.121
232.781
243.957
251.352
254.029
209.82
170.126
91.7021
73.0953
95.854
126.611
140.061
147.211
141.359
137.393
128.121
122.54
114.524
109.932
104.108
100.858
96.7738
94.3388
91.2866
89.294
86.8454
84.994
82.7503
80.7773
78.5028
76.3897
74.1627
72.1193
70.1326
68.347
66.7008
65.2084
63.8498
62.5549
61.3533
60.1206
58.934
57.6376
56.3485
54.9015
53.4326
51.7975
50.1294
48.3434
46.562
44.7778
43.1292
41.6093
37.5954
38.1468
39.6976
42.9572
48.1167
54.0926
59.0343
61.7901
62.5157
62.0862
61.3049
60.6172
60.1423
59.8922
59.8194
59.9251
60.1671
60.5689
61.0814
61.7507
62.5126
63.4453
64.4576
65.6729
66.9557
68.4961
70.0882
72.0234
73.9862
76.4233
78.8495
81.949
84.9788
88.9854
92.8324
98.1083
103.102
110.218
116.895
126.672
135.675
148.87
160.302
176.628
189.062
206.209
217.11
232.766
243.929
251.333
254.008
209.805
170.17
91.7355
73.0797
95.8151
126.568
140.014
147.169
141.317
137.352
128.085
122.512
114.502
109.913
104.091
100.842
96.7599
94.3275
91.2778
89.2871
86.8403
84.9903
82.7476
80.7753
78.5015
76.389
74.1621
72.1188
70.132
68.3465
66.7007
65.2087
63.8508
62.5567
61.3558
60.1239
58.9379
57.6421
56.3533
54.9063
53.4372
51.8016
50.1326
48.3458
46.5632
44.7779
43.1285
41.6081
37.5969
38.1532
39.7132
42.9827
48.1448
54.1131
59.0436
61.7913
62.5126
62.0812
61.2993
60.6118
60.1375
59.888
59.8159
59.9221
60.1647
60.567
61.0798
61.7495
62.5116
63.4445
64.457
65.6724
66.9554
68.4958
70.088
72.0232
73.9862
76.4233
78.8497
81.9492
84.9788
88.9849
92.8311
98.1061
103.099
110.214
116.89
126.667
135.669
148.865
160.298
176.626
189.059
206.204
217.098
232.748
243.898
251.312
253.985
209.79
170.217
91.7713
73.0648
95.7758
126.524
139.964
147.126
141.273
137.308
128.047
122.483
114.479
109.893
104.072
100.824
96.7449
94.3153
91.268
89.2794
86.8345
84.9859
82.7443
80.7728
78.4998
76.3878
74.1611
72.1178
70.1311
68.3458
66.7002
65.2088
63.8515
62.5582
61.3581
60.127
58.9418
57.6465
56.358
54.9112
53.4418
51.8058
50.136
48.3484
46.5646
44.7784
43.1284
41.6073
37.5985
38.16
39.7297
43.0097
48.1745
54.1347
59.0534
61.7923
62.509
62.0756
61.2931
60.6058
60.132
59.8833
59.8119
59.9187
60.1618
60.5646
61.0779
61.7478
62.5103
63.4434
64.456
65.6716
66.9547
68.4952
70.0875
72.0228
73.9858
76.423
78.8495
81.9489
84.9783
88.9839
92.8293
98.1032
103.095
110.209
116.884
126.66
135.663
148.86
160.294
176.622
189.054
206.198
217.084
232.728
243.865
251.29
253.962
209.774
170.266
91.8097
73.0509
95.7366
126.48
139.913
147.08
141.227
137.262
128.007
122.452
114.455
109.872
104.051
100.805
96.7287
94.3021
91.2575
89.2711
86.8281
84.9809
82.7404
80.7698
78.4977
76.3862
74.1598
72.1165
70.1298
68.3447
66.6995
65.2085
63.852
62.5595
61.3603
60.1301
58.9456
57.6509
56.3628
54.9161
53.4466
51.8102
50.1397
48.3513
46.5665
44.7793
43.1287
41.6069
37.6002
38.1672
39.7471
43.0381
48.2057
54.1573
59.0636
61.7933
62.5051
62.0695
61.2863
60.5992
60.1261
59.878
59.8074
59.9149
60.1586
60.5619
61.0756
61.7459
62.5087
63.4419
64.4548
65.6705
66.9537
68.4943
70.0866
72.022
73.985
76.4223
78.8488
81.9482
84.9774
88.9823
92.8268
98.0997
103.091
110.203
116.878
126.653
135.655
148.853
160.288
176.618
189.048
206.19
217.067
232.706
243.83
251.266
253.938
209.758
170.317
91.8512
73.0385
95.6978
126.435
139.86
147.032
141.178
137.214
127.965
122.42
114.429
109.849
104.03
100.785
96.7116
94.288
91.2461
89.2621
86.8211
84.9755
82.7361
80.7664
78.4951
76.3842
74.1581
72.1148
70.1282
68.3432
66.6984
65.208
63.8523
62.5607
61.3624
60.133
58.9493
57.6552
56.3676
54.9211
53.4515
51.8148
50.1436
48.3545
46.5687
44.7806
43.1294
41.607
37.602
38.1747
39.7653
43.0679
48.2384
54.1811
59.0742
61.7941
62.5007
62.0628
61.2789
60.592
60.1196
59.8723
59.8024
59.9107
60.155
60.5588
61.0729
61.7436
62.5067
63.4402
64.4532
65.669
66.9523
68.493
70.0854
72.0208
73.9839
76.4212
78.8477
81.947
84.9759
88.9802
92.8238
98.0955
103.085
110.197
116.87
126.645
135.646
148.845
160.281
176.612
189.041
206.18
217.049
232.683
243.792
251.24
253.913
209.742
170.372
91.896
73.028
95.6597
126.39
139.807
146.983
141.128
137.165
127.922
122.386
114.402
109.825
104.007
100.765
96.6936
94.2731
91.2341
89.2524
86.8135
84.9695
82.7313
80.7626
78.4922
76.3819
74.1561
72.1128
70.1263
68.3415
66.6971
65.2073
63.8523
62.5617
61.3643
60.1358
58.9529
57.6596
56.3724
54.9262
53.4565
51.8196
50.1478
48.3581
46.5712
44.7824
43.1306
41.6076
37.6039
38.1826
39.7844
43.099
48.2727
54.206
59.0852
61.7949
62.4959
62.0555
61.2709
60.5842
60.1125
59.8661
59.797
59.906
60.1509
60.5553
61.0699
61.741
62.5044
63.4381
64.4513
65.6673
66.9507
68.4914
70.0839
72.0193
73.9825
76.4197
78.8463
81.9454
84.974
88.9776
92.8201
98.0907
103.079
110.189
116.861
126.635
135.637
148.836
160.273
176.606
189.033
206.169
217.029
232.657
243.753
251.214
253.889
209.726
170.43
91.9446
73.0198
95.6229
126.345
139.752
146.932
141.077
137.113
127.877
122.35
114.374
109.801
103.984
100.743
96.6747
94.2574
91.2213
89.2421
86.8054
84.963
82.7261
80.7584
78.4889
76.3793
74.1537
72.1105
70.124
68.3395
66.6955
65.2063
63.8522
62.5625
61.3661
60.1386
58.9565
57.6639
56.3773
54.9314
53.4617
51.8247
50.1523
48.362
46.5742
44.7846
43.1323
41.6086
37.6058
38.1908
39.8043
43.1316
48.3085
54.2319
59.0967
61.7955
62.4907
62.0477
61.2623
60.5758
60.1049
59.8593
59.7911
59.9009
60.1465
60.5514
61.0665
61.738
62.5017
63.4357
64.4491
65.6652
66.9487
68.4895
70.0821
72.0175
73.9807
76.4179
78.8444
81.9434
84.9716
88.9744
92.816
98.0853
103.072
110.181
116.852
126.625
135.626
148.826
160.264
176.598
189.023
206.157
217.007
232.63
243.711
251.187
253.864
209.711
170.492
91.9973
73.0143
95.5877
126.301
139.698
146.881
141.024
137.061
127.83
122.314
114.345
109.775
103.959
100.72
96.655
94.2409
91.2079
89.2313
86.7969
84.9561
82.7205
80.7538
78.4854
76.3764
74.1511
72.1079
70.1215
68.3372
66.6936
65.2051
63.8518
62.5632
61.3678
60.1412
58.9601
57.6682
56.3822
54.9367
53.4671
51.8299
50.157
48.3662
46.5775
44.7872
43.1344
41.61
37.6078
38.1994
39.8251
43.1656
48.3458
54.259
59.1086
61.796
62.485
62.0393
61.2531
60.5669
60.0967
59.8521
59.7848
59.8953
60.1417
60.5472
61.0628
61.7347
62.4988
63.433
64.4466
65.6628
66.9465
68.4873
70.0799
72.0153
73.9785
76.4157
78.8421
81.9409
84.9687
88.9708
92.8112
98.0793
103.065
110.172
116.842
126.614
135.615
148.815
160.254
176.589
189.012
206.143
216.984
232.601
243.668
251.159
253.839
209.697
170.559
92.0545
73.0121
95.5545
126.259
139.643
146.828
140.969
137.007
127.783
122.277
114.314
109.748
103.934
100.697
96.6346
94.2237
91.1939
89.2201
86.7879
84.9489
82.7145
80.7489
78.4815
76.3732
74.1482
72.1051
70.1187
68.3347
66.6915
65.2037
63.8513
62.5637
61.3694
60.1438
58.9636
57.6726
56.3872
54.942
53.4726
51.8353
50.162
48.3707
46.5812
44.7902
43.1371
41.612
37.61
38.2083
39.8467
43.201
48.3846
54.2871
59.1208
61.7964
62.479
62.0304
61.2433
60.5574
60.088
59.8444
59.778
59.8894
60.1365
60.5426
61.0588
61.7311
62.4955
63.43
64.4438
65.6601
66.9439
68.4848
70.0774
72.0128
73.976
76.4131
78.8395
81.9381
84.9654
88.9666
92.806
98.0726
103.057
110.163
116.831
126.602
135.603
148.804
160.243
176.579
189
206.129
216.959
232.57
243.624
251.13
253.815
209.685
170.63
92.1165
73.0136
95.5237
126.217
139.589
146.775
140.914
136.951
127.734
122.238
114.283
109.721
103.908
100.673
96.6135
94.206
91.1794
89.2083
86.7785
84.9412
82.7082
80.7438
78.4774
76.3698
74.1451
72.102
70.1157
68.3319
66.6892
65.2021
63.8507
62.5641
61.3709
60.1463
58.9671
57.6769
56.3922
54.9475
53.4782
51.841
50.1673
48.3756
46.5852
44.7937
43.1402
41.6144
37.6121
38.2176
39.8692
43.2377
48.425
54.3163
59.1335
61.7967
62.4726
62.0209
61.2329
60.5473
60.0788
59.8361
59.7707
59.883
60.1309
60.5377
61.0544
61.7271
62.4919
63.4266
64.4407
65.6571
66.941
68.4819
70.0746
72.01
73.9731
76.4102
78.8364
81.9347
84.9616
88.962
92.8001
98.0654
103.048
110.152
116.819
126.589
135.589
148.791
160.231
176.569
188.987
206.113
216.933
232.539
243.578
251.102
253.791
209.674
170.706
92.1837
73.0192
95.4957
126.177
139.535
146.722
140.858
136.895
127.684
122.199
114.251
109.693
103.881
100.648
96.5917
94.1876
91.1644
89.1961
86.7688
84.9333
82.7016
80.7383
78.473
76.3661
74.1418
72.0986
70.1125
68.3289
66.6867
65.2004
63.8499
62.5644
61.3723
60.1488
58.9706
57.6813
56.3973
54.9531
53.4841
51.8469
50.1729
48.3809
46.5897
44.7976
43.1439
41.6173
37.6144
38.2273
39.8926
43.2758
48.4668
54.3465
59.1466
61.7969
62.4657
62.0109
61.2219
60.5366
60.069
59.8274
59.763
59.8762
60.1249
60.5324
61.0496
61.7228
62.488
63.423
64.4372
65.6538
66.9378
68.4788
70.0715
72.0068
73.97
76.4069
78.833
81.931
84.9574
88.9569
92.7938
98.0576
103.039
110.141
116.806
126.576
135.575
148.777
160.218
176.557
188.973
206.096
216.906
232.506
243.531
251.073
253.769
209.665
170.787
92.2566
73.0293
95.471
126.14
139.482
146.669
140.802
136.839
127.634
122.159
114.219
109.664
103.854
100.622
96.5694
94.1688
91.1489
89.1836
86.7588
84.925
82.6947
80.7327
78.4684
76.3622
74.1382
72.0951
70.109
68.3257
66.684
65.1984
63.849
62.5646
61.3736
60.1512
58.9741
57.6857
56.4024
54.9588
53.4901
51.8531
50.1788
48.3865
46.5946
44.802
43.148
41.6207
37.6168
38.2373
39.9168
43.3153
48.5102
54.3778
59.1602
61.797
62.4585
62.0003
61.2104
60.5254
60.0586
59.8181
59.7548
59.869
60.1185
60.5267
61.0445
61.7182
62.4837
63.419
64.4335
65.6502
66.9343
68.4753
70.068
72.0033
73.9664
76.4032
78.8292
81.9269
84.9527
88.9513
92.787
98.0492
103.029
110.13
116.793
126.562
135.561
148.763
160.205
176.545
188.959
206.078
216.877
232.472
243.484
251.044
253.748
209.659
170.874
92.3354
73.0444
95.4499
126.104
139.43
146.616
140.745
136.781
127.584
122.119
114.186
109.635
103.827
100.597
96.5467
94.1494
91.133
89.1708
86.7485
84.9166
82.6877
80.7268
78.4637
76.3582
74.1345
72.0914
70.1054
68.3224
66.6811
65.1963
63.8479
62.5647
61.3749
60.1536
58.9776
57.6901
56.4077
54.9647
53.4964
51.8595
50.1851
48.3924
46.6
44.8069
43.1527
41.6246
37.6192
38.2476
39.9418
43.3562
48.555
54.4102
59.1741
61.797
62.4509
61.9893
61.1982
60.5136
60.0478
59.8084
59.7462
59.8613
60.1117
60.5206
61.0391
61.7133
62.4792
63.4148
64.4295
65.6463
66.9305
68.4715
70.0643
71.9995
73.9626
76.3992
78.825
81.9224
84.9476
88.9452
92.7796
98.0403
103.018
110.117
116.779
126.547
135.545
148.748
160.191
176.533
188.943
206.06
216.847
232.437
243.435
251.016
253.728
209.656
170.968
92.4206
73.065
95.4328
126.072
139.379
146.563
140.688
136.724
127.532
122.078
114.152
109.605
103.799
100.57
96.5235
94.1297
91.1168
89.1576
86.7379
84.9078
82.6804
80.7208
78.4588
76.354
74.1306
72.0875
70.1016
68.3188
66.6781
65.1941
63.8467
62.5647
61.3761
60.156
58.9811
57.6946
56.413
54.9707
53.5028
51.8661
50.1916
48.3988
46.6057
44.8122
43.1578
41.6289
37.6218
38.2584
39.9677
43.3985
48.6013
54.4436
59.1884
61.7969
62.4429
61.9777
61.1855
60.5012
60.0364
59.7982
59.7371
59.8533
60.1045
60.5142
61.0333
61.708
62.4743
63.4102
64.4251
65.6421
66.9264
68.4675
70.0603
71.9954
73.9584
76.3948
78.8205
81.9174
84.9421
88.9387
92.7717
98.0308
103.007
110.104
116.765
126.531
135.529
148.733
160.176
176.519
188.927
206.04
216.817
232.401
243.386
250.988
253.71
209.655
171.067
92.5126
73.0915
95.4202
126.042
139.33
146.511
140.632
136.666
127.481
122.037
114.119
109.575
103.77
100.544
96.4999
94.1096
91.1003
89.1443
86.7271
84.899
82.673
80.7146
78.4538
76.3497
74.1266
72.0835
70.0977
68.3151
66.6749
65.1917
63.8455
62.5647
61.3773
60.1584
58.9846
57.6991
56.4185
54.9768
53.5094
51.8731
50.1984
48.4055
46.6119
44.818
43.1635
41.6338
37.6244
38.2694
39.9945
43.4421
48.6491
54.4781
59.2032
61.7967
62.4345
61.9655
61.1723
60.4882
60.0245
59.7875
59.7276
59.8448
60.097
60.5074
61.0272
61.7024
62.4691
63.4053
64.4205
65.6376
66.922
68.4631
70.0559
71.991
73.9539
76.3902
78.8156
81.9121
84.9361
88.9317
92.7634
98.0208
102.995
110.091
116.749
126.514
135.512
148.716
160.161
176.505
188.911
206.02
216.785
232.364
243.336
250.961
253.694
209.658
171.174
92.6117
73.1243
95.4123
126.016
139.284
146.46
140.575
136.608
127.429
121.995
114.085
109.545
103.742
100.517
96.476
94.0893
91.0836
89.1307
86.7162
84.8899
82.6654
80.7083
78.4486
76.3453
74.1224
72.0793
70.0936
68.3113
66.6716
65.1893
63.8441
62.5645
61.3784
60.1608
58.9882
57.7038
56.424
54.9831
53.5163
51.8802
50.2056
48.4126
46.6185
44.8243
43.1698
41.6392
37.6271
38.2809
40.0221
43.4871
48.6984
54.5136
59.2184
61.7964
62.4257
61.9529
61.1584
60.4747
60.012
59.7763
59.7176
59.8359
60.0891
60.5003
61.0207
61.6964
62.4636
63.4001
64.4155
65.6328
66.9173
68.4584
70.0513
71.9863
73.9491
76.3851
78.8103
81.9064
84.9298
88.9243
92.7546
98.0103
102.982
110.076
116.733
126.497
135.494
148.699
160.145
176.491
188.894
206
216.752
232.327
243.285
250.935
253.681
209.665
171.288
92.7183
73.1639
95.4096
125.994
139.239
146.41
140.519
136.55
127.378
121.954
114.05
109.515
103.713
100.49
96.4519
94.0686
91.0666
89.1169
86.7052
84.8808
82.6578
80.702
78.4434
76.3408
74.1182
72.0751
70.0894
68.3073
66.6682
65.1867
63.8427
62.5644
61.3796
60.1631
58.9918
57.7084
56.4297
54.9896
53.5233
51.8877
50.2131
48.4201
46.6255
44.8311
43.1765
41.6451
37.6299
38.2926
40.0506
43.5334
48.7491
54.5502
59.234
61.7961
62.4166
61.9397
61.144
60.4606
59.999
59.7646
59.7072
59.8266
60.0807
60.4928
61.0139
61.6902
62.4578
63.3946
64.4103
65.6277
66.9124
68.4535
70.0463
71.9813
73.944
76.3798
78.8047
81.9003
84.923
88.9164
92.7453
97.9993
102.97
110.062
116.717
126.48
135.476
148.682
160.128
176.476
188.876
205.978
216.719
232.289
243.235
250.909
253.67
209.675
171.409
92.8328
73.2107
95.4124
125.976
139.197
146.362
140.464
136.493
127.326
121.912
114.016
109.484
103.684
100.463
96.4276
94.0478
91.0495
89.1031
86.694
84.8716
82.65
80.6955
78.4382
76.3363
74.1139
72.0707
70.085
68.3033
66.6647
65.1841
63.8412
62.5642
61.3807
60.1655
58.9954
57.7132
56.4355
54.9962
53.5306
51.8954
50.221
48.428
46.633
44.8384
43.1839
41.6516
37.6327
38.3048
40.0799
43.5811
48.8013
54.5878
59.2499
61.7956
62.407
61.926
61.129
60.446
59.9855
59.7524
59.6963
59.8169
60.072
60.485
61.0068
61.6836
62.4517
63.3888
64.4048
65.6224
66.9071
68.4482
70.0411
71.9759
73.9385
76.3741
78.7987
81.8939
84.9158
88.9082
92.7356
97.9878
102.956
110.046
116.7
126.461
135.457
148.664
160.111
176.46
188.858
205.957
216.685
232.25
243.184
250.885
253.661
209.69
171.538
92.9555
73.265
95.4212
125.962
139.158
146.315
140.41
136.436
127.275
121.871
113.982
109.453
103.655
100.436
96.4032
94.0269
91.0323
89.0892
86.6829
84.8623
82.6423
80.6891
78.4329
76.3317
74.1095
72.0663
70.0807
68.2991
66.6611
65.1814
63.8397
62.564
61.3818
60.1679
58.9991
57.718
56.4414
55.003
53.5381
51.9035
50.2292
48.4363
46.6409
44.8461
43.1917
41.6585
37.6357
38.3173
40.1101
43.6301
48.855
54.6265
59.2663
61.7951
62.3971
61.9118
61.1135
60.4308
59.9715
59.7398
59.685
59.8068
60.063
60.4768
60.9993
61.6767
62.4452
63.3827
64.3989
65.6167
66.9015
68.4427
70.0355
71.9703
73.9328
76.3681
78.7924
81.887
84.9083
88.8995
92.7254
97.9758
102.942
110.03
116.682
126.442
135.437
148.645
160.094
176.444
188.839
205.935
216.651
232.211
243.133
250.863
253.656
209.709
171.676
93.0868
73.3274
95.4361
125.953
139.122
146.269
140.356
136.38
127.224
121.83
113.948
109.423
103.626
100.408
96.3787
94.0058
91.015
89.0752
86.6717
84.853
82.6345
80.6826
78.4277
76.3271
74.1051
72.0618
70.0762
68.2949
66.6574
65.1786
63.8381
62.5638
61.383
60.1704
59.0028
57.7229
56.4474
55.0099
53.5458
51.9118
50.2377
48.445
46.6493
44.8544
43.2002
41.666
37.6387
38.3302
40.1411
43.6805
48.9101
54.6661
59.2832
61.7945
62.3869
61.8971
61.0974
60.4151
59.957
59.7267
59.6733
59.7963
60.0535
60.4682
60.9915
61.6695
62.4385
63.3764
64.3928
65.6107
66.8957
68.4369
70.0297
71.9643
73.9267
76.3617
78.7858
81.8798
84.9004
88.8904
92.7148
97.9634
102.928
110.014
116.663
126.423
135.417
148.626
160.076
176.428
188.82
205.913
216.616
232.172
243.083
250.841
253.653
209.734
171.822
93.2272
73.3981
95.4576
125.948
139.089
146.226
140.304
136.324
127.174
121.789
113.914
109.393
103.597
100.381
96.3542
93.9847
90.9976
89.0612
86.6605
84.8438
82.6268
80.6762
78.4224
76.3225
74.1006
72.0573
70.0717
68.2906
66.6537
65.1757
63.8365
62.5635
61.3841
60.1729
59.0066
57.728
56.4536
55.0171
53.5538
51.9204
50.2466
48.4541
46.6582
44.8632
43.2091
41.6741
37.6418
38.3434
40.1729
43.7323
48.9667
54.7068
59.3004
61.7938
62.3762
61.8819
61.0807
60.3988
59.9419
59.713
59.6611
59.7853
60.0437
60.4593
60.9834
61.662
62.4315
63.3697
64.3864
65.6045
66.8896
68.4308