/*--------------------------------*- C++ -*----------------------------------*\
| =========                 |                                                 |
| \\      /  F ield         | OpenFOAM: The Open Source CFD Toolbox           |
|  \\    /   O peration     | Version:  2412                                  |
|   \\  /    A nd           | Website:  www.openfoam.com                      |
|    \\/     M anipulation  |                                                 |
\*---------------------------------------------------------------------------*/
FoamFile
{
    version     2.0;
    format      ascii;
    arch        "LSB;label=32;scalar=64";
    class       volScalarField;
    location    "0.4";
    object      nut;
}
// * * * * * * * * * * * * * * * * * * * * * * * * * * * * * * * * * * * * * //

dimensions      [0 2 -1 0 0 0 0];

internalField   nonuniform List<scalar> 
13068
(
0.336664
0.341395
0.351547
0.366626
0.381184
0.388887
0.387699
0.380021
0.370281
0.36222
0.357396
0.355521
0.355474
0.356334
0.357497
0.358788
0.360043
0.361343
0.362574
0.363895
0.365144
0.366551
0.367866
0.369423
0.370841
0.372609
0.374157
0.376204
0.377911
0.380326
0.382225
0.385132
0.387283
0.390837
0.39326
0.397577
0.400301
0.405568
0.408637
0.414909
0.418087
0.424975
0.427477
0.434096
0.434882
0.440425
0.43963
0.444882
0.445426
0.444108
0.439639
0.395033
0.365508
0.253447
0.284142
0.370183
0.403502
0.406317
0.405408
0.394122
0.391255
0.38219
0.381113
0.375457
0.37615
0.372934
0.37393
0.371518
0.371915
0.369966
0.369956
0.368204
0.367572
0.365646
0.364342
0.362241
0.360702
0.358933
0.357717
0.356544
0.355741
0.355001
0.354341
0.353668
0.352851
0.352009
0.350873
0.349712
0.34816
0.346595
0.344601
0.342596
0.340201
0.337826
0.335267
0.332919
0.330835
0.329437
0.328542
0.336665
0.341398
0.351553
0.366632
0.381189
0.388892
0.387706
0.38003
0.370289
0.362227
0.3574
0.355524
0.355476
0.356337
0.3575
0.358791
0.360047
0.361347
0.362578
0.3639
0.365148
0.366556
0.367871
0.369428
0.370846
0.372614
0.374163
0.37621
0.377917
0.380333
0.382232
0.385141
0.387291
0.390845
0.393268
0.397584
0.400308
0.405576
0.408646
0.414918
0.418098
0.424985
0.427489
0.434109
0.434895
0.440436
0.439639
0.444888
0.445431
0.444116
0.439645
0.395053
0.365548
0.253466
0.284125
0.370181
0.403513
0.406332
0.405424
0.394129
0.391256
0.382193
0.38112
0.375465
0.376154
0.372934
0.373931
0.371522
0.371919
0.36997
0.369959
0.368209
0.367576
0.36565
0.364345
0.362244
0.360704
0.358935
0.357719
0.356545
0.355743
0.355004
0.354343
0.353671
0.352854
0.352012
0.350877
0.349715
0.348162
0.346595
0.344598
0.34259
0.340192
0.337812
0.33525
0.332899
0.330812
0.329413
0.328523
0.336667
0.341404
0.351564
0.366644
0.381197
0.388897
0.387711
0.380036
0.370295
0.362231
0.357403
0.355526
0.355478
0.356339
0.357503
0.358794
0.36005
0.361351
0.362583
0.363904
0.365153
0.36656
0.367876
0.369433
0.370852
0.37262
0.374168
0.376216
0.377924
0.380341
0.38224
0.385149
0.387299
0.390853
0.393275
0.397592
0.400316
0.405584
0.408654
0.414927
0.418108
0.424996
0.427501
0.434122
0.434908
0.440446
0.439648
0.444894
0.445435
0.444124
0.439653
0.395073
0.365592
0.253485
0.284099
0.370184
0.403531
0.406352
0.405444
0.39414
0.39126
0.382198
0.381129
0.375473
0.376158
0.372934
0.373933
0.371526
0.371924
0.369974
0.369963
0.368213
0.367581
0.365655
0.364349
0.362247
0.360707
0.358937
0.357721
0.356547
0.355745
0.355006
0.354346
0.353674
0.352858
0.352016
0.350881
0.349719
0.348164
0.346596
0.344596
0.342585
0.340183
0.3378
0.335234
0.332879
0.330789
0.32939
0.328505
0.336669
0.341412
0.351579
0.36666
0.381207
0.3889
0.387712
0.380037
0.370298
0.362233
0.357405
0.355527
0.35548
0.356342
0.357506
0.358797
0.360054
0.361355
0.362587
0.363909
0.365157
0.366565
0.367881
0.369438
0.370857
0.372625
0.374174
0.376222
0.37793
0.380348
0.382248
0.385157
0.387307
0.39086
0.393282
0.397598
0.400323
0.405591
0.408662
0.414936
0.418117
0.425007
0.427513
0.434133
0.43492
0.440456
0.439655
0.444898
0.445439
0.444132
0.43966
0.395091
0.36564
0.253505
0.284066
0.370189
0.403555
0.406378
0.405469
0.394154
0.391266
0.382205
0.381139
0.375483
0.376163
0.372935
0.373934
0.371531
0.371929
0.369979
0.369967
0.368218
0.367586
0.365659
0.364352
0.36225
0.360709
0.358939
0.357722
0.356549
0.355747
0.355008
0.354349
0.353677
0.352862
0.352021
0.350885
0.349722
0.348167
0.346597
0.344595
0.34258
0.340175
0.337788
0.335219
0.332861
0.330768
0.329368
0.328487
0.336672
0.341423
0.351599
0.366681
0.381219
0.388902
0.387709
0.380035
0.370296
0.362233
0.357405
0.355527
0.355481
0.356344
0.357509
0.358801
0.360057
0.361359
0.362591
0.363913
0.365162
0.36657
0.367885
0.369443
0.370862
0.37263
0.374179
0.376228
0.377936
0.380354
0.382255
0.385164
0.387314
0.390866
0.393288
0.397604
0.400329
0.405598
0.408669
0.414944
0.418126
0.425016
0.427523
0.434144
0.43493
0.440464
0.439662
0.444902
0.445441
0.444139
0.439667
0.395109
0.365692
0.253525
0.284027
0.370199
0.403584
0.406409
0.405497
0.39417
0.391273
0.382213
0.381151
0.375494
0.376169
0.372937
0.373936
0.371536
0.371935
0.369984
0.369971
0.368223
0.367591
0.365663
0.364356
0.362253
0.360712
0.358941
0.357724
0.35655
0.355749
0.355011
0.354351
0.353681
0.352866
0.352025
0.35089
0.349726
0.34817
0.346598
0.344594
0.342576
0.340168
0.337777
0.335204
0.332843
0.330748
0.329348
0.32847
0.336675
0.341436
0.351623
0.366706
0.381233
0.388903
0.387703
0.380028
0.370291
0.362229
0.357402
0.355527
0.355482
0.356346
0.357511
0.358804
0.360061
0.361363
0.362595
0.363917
0.365166
0.366574
0.36789
0.369447
0.370866
0.372635
0.374184
0.376233
0.377942
0.38036
0.382262
0.385171
0.38732
0.390872
0.393293
0.397609
0.400335
0.405603
0.408675
0.41495
0.418133
0.425025
0.427533
0.434154
0.43494
0.440471
0.439666
0.444904
0.445442
0.444146
0.439674
0.395125
0.365747
0.253547
0.283982
0.370213
0.40362
0.406445
0.405529
0.394189
0.391283
0.382223
0.381164
0.375505
0.376176
0.372938
0.373938
0.371541
0.37194
0.369989
0.369976
0.368228
0.367596
0.365668
0.364359
0.362256
0.360714
0.358943
0.357725
0.356552
0.355751
0.355013
0.354354
0.353684
0.35287
0.352029
0.350894
0.34973
0.348173
0.346599
0.344593
0.342572
0.340161
0.337766
0.335191
0.332826
0.330728
0.329328
0.328454
0.336679
0.341452
0.351652
0.366737
0.381249
0.388902
0.387692
0.380016
0.370282
0.362223
0.357399
0.355525
0.355482
0.356348
0.357514
0.358807
0.360064
0.361366
0.362599
0.363921
0.36517
0.366578
0.367894
0.369451
0.37087
0.372639
0.374189
0.376238
0.377947
0.380366
0.382268
0.385177
0.387326
0.390877
0.393298
0.397614
0.400339
0.405608
0.408681
0.414956
0.41814
0.425032
0.427541
0.434163
0.434948
0.440477
0.439669
0.444905
0.445442
0.444152
0.439681
0.39514
0.365807
0.25357
0.283932
0.37023
0.403661
0.406485
0.405565
0.39421
0.391295
0.382234
0.381179
0.375517
0.376182
0.37294
0.37394
0.371545
0.371946
0.369993
0.36998
0.368233
0.3676
0.365672
0.364363
0.362259
0.360717
0.358944
0.357726
0.356553
0.355752
0.355015
0.354357
0.353687
0.352874
0.352034
0.350899
0.349735
0.348177
0.346601
0.344593
0.342569
0.340155
0.337757
0.335178
0.332809
0.33071
0.329309
0.328439
0.336684
0.34147
0.351686
0.366772
0.381267
0.388899
0.387678
0.38
0.370269
0.362213
0.357393
0.355523
0.355482
0.356349
0.357517
0.35881
0.360068
0.36137
0.362602
0.363924
0.365173
0.366581
0.367897
0.369455
0.370874
0.372643
0.374193
0.376242
0.377952
0.380371
0.382273
0.385183
0.387331
0.390882
0.393302
0.397617
0.400343
0.405612
0.408685
0.414961
0.418145
0.425038
0.427548
0.43417
0.434954
0.440481
0.439671
0.444905
0.44544
0.444158
0.439688
0.395154
0.365871
0.253594
0.283877
0.370252
0.403708
0.40653
0.405604
0.394234
0.391308
0.382247
0.381194
0.375531
0.37619
0.372942
0.373942
0.37155
0.371951
0.369998
0.369985
0.368238
0.367605
0.365677
0.364367
0.362262
0.360719
0.358946
0.357727
0.356554
0.355754
0.355017
0.35436
0.353691
0.352878
0.352038
0.350904
0.349739
0.348181
0.346603
0.344593
0.342566
0.34015
0.337747
0.335166
0.332794
0.330692
0.329291
0.328424
0.33669
0.341491
0.351724
0.366812
0.381287
0.388894
0.38766
0.379979
0.370251
0.362201
0.357385
0.355519
0.355482
0.35635
0.357519
0.358813
0.360071
0.361373
0.362606
0.363928
0.365177
0.366585
0.367901
0.369459
0.370878
0.372646
0.374196
0.376246
0.377956
0.380375
0.382278
0.385187
0.387336
0.390885
0.393305
0.39762
0.400345
0.405615
0.408688
0.414964
0.41815
0.425044
0.427555
0.434177
0.43496
0.440484
0.439671
0.444903
0.445437
0.444163
0.439695
0.395168
0.365938
0.25362
0.283817
0.370278
0.403761
0.40658
0.405647
0.39426
0.391323
0.382262
0.381211
0.375544
0.376197
0.372944
0.373945
0.371556
0.371957
0.370004
0.369989
0.368243
0.36761
0.365681
0.36437
0.362265
0.360722
0.358948
0.357728
0.356555
0.355756
0.355019
0.354362
0.353694
0.352882
0.352043
0.350909
0.349744
0.348185
0.346606
0.344594
0.342564
0.340145
0.337739
0.335154
0.33278
0.330676
0.329275
0.328411
0.336696
0.341514
0.351768
0.366857
0.381309
0.388888
0.387637
0.379954
0.37023
0.362186
0.357376
0.355514
0.35548
0.356352
0.357521
0.358816
0.360074
0.361376
0.362609
0.363931
0.36518
0.366588
0.367904
0.369462
0.370881
0.372649
0.374199
0.376249
0.377959
0.380379
0.382282
0.385192
0.38734
0.390888
0.393307
0.397622
0.400347
0.405617
0.40869
0.414967
0.418154
0.425048
0.42756
0.434182
0.434964
0.440486
0.439669
0.4449
0.445432
0.444168
0.439701
0.39518
0.36601
0.253648
0.283752
0.370307
0.40382
0.406634
0.405693
0.394288
0.39134
0.382277
0.381229
0.375559
0.376206
0.372947
0.373947
0.371561
0.371963
0.370009
0.369994
0.368248
0.367615
0.365686
0.364374
0.362268
0.360724
0.358949
0.357729
0.356556
0.355757
0.355021
0.354365
0.353698
0.352886
0.352048
0.350914
0.349749
0.348189
0.346609
0.344595
0.342562
0.340141
0.337731
0.335144
0.332766
0.33066
0.329259
0.328398
0.336703
0.34154
0.351815
0.366907
0.381333
0.388881
0.387611
0.379924
0.370205
0.362167
0.357364
0.355509
0.355479
0.356352
0.357523
0.358819
0.360077
0.361379
0.362612
0.363934
0.365183
0.366591
0.367906
0.369464
0.370883
0.372652
0.374202
0.376252
0.377963
0.380383
0.382286
0.385195
0.387343
0.39089
0.393309
0.397623
0.400348
0.405618
0.408691
0.414969
0.418156
0.425052
0.427564
0.434186
0.434966
0.440487
0.439666
0.444896
0.445427
0.444173
0.439708
0.395192
0.366087
0.253678
0.283683
0.370341
0.403884
0.406693
0.405742
0.394319
0.391359
0.382295
0.381248
0.375575
0.376214
0.37295
0.37395
0.371566
0.371969
0.370014
0.369999
0.368253
0.36762
0.36569
0.364377
0.362271
0.360726
0.358951
0.35773
0.356557
0.355758
0.355023
0.354368
0.353702
0.352891
0.352053
0.350919
0.349754
0.348194
0.346612
0.344596
0.342561
0.340137
0.337724
0.335134
0.332753
0.330645
0.329244
0.328386
0.33671
0.341568
0.351868
0.366962
0.381359
0.388871
0.387581
0.37989
0.370176
0.362146
0.357351
0.355502
0.355477
0.356353
0.357526
0.358821
0.36008
0.361382
0.362615
0.363937
0.365186
0.366593
0.367909
0.369467
0.370886
0.372654
0.374205
0.376254
0.377965
0.380386
0.382289
0.385198
0.387345
0.390892
0.393309
0.397623
0.400348
0.405618
0.408692
0.41497
0.418158
0.425054
0.427567
0.43419
0.434968
0.440486
0.439661
0.444891
0.44542
0.444177
0.439714
0.395203
0.366167
0.253711
0.283611
0.370378
0.403953
0.406756
0.405795
0.394352
0.391379
0.382313
0.381269
0.375591
0.376224
0.372952
0.373953
0.371571
0.371974
0.37002
0.370004
0.368258
0.367625
0.365694
0.364381
0.362275
0.360729
0.358952
0.35773
0.356558
0.355759
0.355025
0.354371
0.353705
0.352895
0.352058
0.350924
0.349759
0.348198
0.346615
0.344598
0.342561
0.340134
0.337718
0.335125
0.332741
0.330632
0.329231
0.328375
0.336718
0.341599
0.351925
0.367021
0.381387
0.388861
0.387547
0.379851
0.370142
0.362122
0.357336
0.355494
0.355474
0.356354
0.357527
0.358824
0.360083
0.361385
0.362617
0.363939
0.365188
0.366596
0.367911
0.369469
0.370888
0.372656
0.374207
0.376256
0.377967
0.380388
0.382292
0.385201
0.387347
0.390893
0.393309
0.397622
0.400347
0.405617
0.408691
0.41497
0.418158
0.425056
0.42757
0.434192
0.434968
0.440484
0.439655
0.444885
0.445412
0.44418
0.439721
0.395214
0.366253
0.253747
0.283536
0.37042
0.404028
0.406823
0.405851
0.394387
0.3914
0.382333
0.38129
0.375608
0.376233
0.372956
0.373955
0.371576
0.37198
0.370025
0.370009
0.368264
0.36763
0.365699
0.364385
0.362278
0.360731
0.358953
0.357731
0.356558
0.355761
0.355027
0.354373
0.353709
0.3529
0.352063
0.35093
0.349765
0.348204
0.346619
0.344601
0.342561
0.340131
0.337713
0.335117
0.33273
0.330619
0.329218
0.328365
0.336727
0.341632
0.351987
0.367085
0.381417
0.388848
0.387509
0.379808
0.370105
0.362095
0.357319
0.355485
0.355471
0.356354
0.357529
0.358826
0.360085
0.361388
0.36262
0.363941
0.36519
0.366598
0.367913
0.36947
0.370889
0.372658
0.374208
0.376258
0.377969
0.38039
0.382294
0.385203
0.387348
0.390893
0.393308
0.397621
0.400345
0.405615
0.408689
0.414969
0.418158
0.425057
0.427571
0.434193
0.434967
0.440481
0.439648
0.444878
0.445403
0.444184
0.439728
0.395224
0.366343
0.253787
0.283458
0.370465
0.404108
0.406895
0.40591
0.394423
0.391424
0.382354
0.381313
0.375626
0.376243
0.372959
0.373958
0.371581
0.371987
0.370031
0.370014
0.368269
0.367635
0.365703
0.364388
0.362281
0.360733
0.358954
0.357731
0.356559
0.355762
0.355029
0.354376
0.353713
0.352904
0.352068
0.350935
0.34977
0.348209
0.346623
0.344603
0.342561
0.340129
0.337708
0.33511
0.33272
0.330607
0.329206
0.328356
0.336736
0.341668
0.352053
0.367153
0.381448
0.388834
0.387467
0.37976
0.370064
0.362065
0.3573
0.355476
0.355467
0.356354
0.357531
0.358829
0.360088
0.36139
0.362622
0.363943
0.365192
0.366599
0.367914
0.369472
0.370891
0.372659
0.374209
0.376259
0.37797
0.380391
0.382295
0.385204
0.387348
0.390892
0.393307
0.397619
0.400343
0.405613
0.408687
0.414967
0.418157
0.425057
0.427571
0.434194
0.434965
0.440476
0.439639
0.444869
0.445393
0.444187
0.439735
0.395235
0.366438
0.25383
0.283378
0.370515
0.404193
0.40697
0.405971
0.394462
0.391449
0.382376
0.381336
0.375644
0.376253
0.372963
0.373961
0.371586
0.371993
0.370037
0.370019
0.368274
0.36764
0.365707
0.364392
0.362284
0.360735
0.358955
0.357732
0.356559
0.355763
0.35503
0.354379
0.353716
0.352909
0.352073
0.350941
0.349776
0.348214
0.346628
0.344606
0.342562
0.340128
0.337703
0.335103
0.332711
0.330596
0.329196
0.328347
0.336747
0.341706
0.352124
0.367226
0.381482
0.388818
0.387421
0.379707
0.370019
0.362032
0.357279
0.355465
0.355463
0.356353
0.357533
0.358831
0.36009
0.361392
0.362624
0.363945
0.365194
0.366601
0.367916
0.369473
0.370891
0.37266
0.37421
0.37626
0.377971
0.380392
0.382296
0.385204
0.387348
0.390891
0.393305
0.397616
0.40034
0.405609
0.408684
0.414964
0.418155
0.425056
0.427571
0.434193
0.434962
0.440471
0.439629
0.44486
0.445382
0.44419
0.439743
0.395245
0.366538
0.253879
0.283297
0.370568
0.404283
0.407049
0.406035
0.394503
0.391475
0.3824
0.38136
0.375663
0.376264
0.372966
0.373964
0.371592
0.371999
0.370042
0.370025
0.36828
0.367645
0.365712
0.364395
0.362287
0.360738
0.358957
0.357732
0.356559
0.355763
0.355032
0.354382
0.35372
0.352914
0.352079
0.350947
0.349782
0.34822
0.346633
0.34461
0.342563
0.340128
0.3377
0.335098
0.332702
0.330586
0.329186
0.328339
0.336757
0.341747
0.352199
0.367304
0.381517
0.3888
0.387371
0.37965
0.36997
0.361996
0.357256
0.355453
0.355458
0.356353
0.357534
0.358833
0.360093
0.361394
0.362626
0.363947
0.365195
0.366602
0.367917
0.369474
0.370892
0.37266
0.37421
0.37626
0.377972
0.380393
0.382297
0.385205
0.387348
0.390889
0.393302
0.397612
0.400336
0.405605
0.40868
0.414961
0.418152
0.425054
0.42757
0.434192
0.434958
0.440464
0.439618
0.44485
0.44537
0.444193
0.439751
0.395256
0.366643
0.253932
0.283214
0.370625
0.404377
0.407131
0.406102
0.394545
0.391502
0.382424
0.381386
0.375683
0.376275
0.37297
0.373967
0.371597
0.372005
0.370048
0.37003
0.368285
0.36765
0.365716
0.364399
0.36229
0.36074
0.358957
0.357732
0.356559
0.355764
0.355034
0.354384
0.353724
0.352919
0.352084
0.350953
0.349788
0.348226
0.346638
0.344614
0.342565
0.340128
0.337697
0.335093
0.332695
0.330577
0.329177
0.328332
0.336769
0.34179
0.352279
0.367386
0.381554
0.388781
0.387317
0.379588
0.369916
0.361957
0.357231
0.35544
0.355453
0.356352
0.357535
0.358835
0.360095
0.361396
0.362628
0.363948
0.365196
0.366603
0.367917
0.369474
0.370892
0.37266
0.37421
0.37626
0.377971
0.380392
0.382297
0.385204
0.387346
0.390887
0.393298
0.397608
0.400331
0.4056
0.408675
0.414956
0.418149
0.425051
0.427567
0.43419
0.434953
0.440457
0.439606
0.444839
0.445357
0.444196
0.439759
0.395268
0.366754
0.253991
0.283131
0.370686
0.404477
0.407217
0.406172
0.394589
0.391531
0.38245
0.381412
0.375703
0.376287
0.372974
0.37397
0.371602
0.372011
0.370054
0.370036
0.368291
0.367655
0.36572
0.364403
0.362293
0.360742
0.358958
0.357732
0.356559
0.355765
0.355035
0.354387
0.353728
0.352924
0.35209
0.350959
0.349795
0.348233
0.346644
0.344618
0.342568
0.340128
0.337695
0.335088
0.332688
0.330569
0.32917
0.328326
0.336781
0.341836
0.352363
0.367472
0.381592
0.388759
0.387259
0.379522
0.369859
0.361915
0.357205
0.355425
0.355448
0.356351
0.357537
0.358837
0.360097
0.361398
0.362629
0.36395
0.365197
0.366603
0.367918
0.369474
0.370892
0.37266
0.37421
0.37626
0.377971
0.380392
0.382296
0.385203
0.387344
0.390883
0.393294
0.397603
0.400325
0.405595
0.408669
0.414951
0.418144
0.425048
0.427565
0.434187
0.434947
0.440448
0.439592
0.444827
0.445344
0.444199
0.439768
0.39528
0.36687
0.254056
0.283048
0.370751
0.40458
0.407307
0.406243
0.394634
0.391561
0.382477
0.381439
0.375723
0.376299
0.372979
0.373974
0.371607
0.372017
0.37006
0.370042
0.368297
0.36766
0.365724
0.364406
0.362296
0.360744
0.358959
0.357732
0.356559
0.355765
0.355037
0.35439
0.353732
0.352929
0.352096
0.350966
0.349801
0.348239
0.346649
0.344623
0.342571
0.34013
0.337694
0.335085
0.332682
0.330562
0.329163
0.328321
0.336793
0.341884
0.352452
0.367563
0.381633
0.388736
0.387197
0.379451
0.369798
0.36187
0.357176
0.35541
0.355441
0.35635
0.357538
0.358839
0.360099
0.3614
0.362631
0.363951
0.365198
0.366604
0.367918
0.369474
0.370892
0.372659
0.374209
0.376259
0.37797
0.380391
0.382295
0.385201
0.387342
0.39088
0.393289
0.397597
0.400319
0.405588
0.408663
0.414946
0.418139
0.425044
0.427561
0.434183
0.43494
0.440439
0.439577
0.444814
0.44533
0.444203
0.439778
0.395293
0.366992
0.254127
0.282966
0.370818
0.404688
0.407399
0.406317
0.394681
0.391591
0.382504
0.381467
0.375744
0.376311
0.372983
0.373977
0.371613
0.372024
0.370067
0.370047
0.368302
0.367665
0.365729
0.36441
0.362299
0.360746
0.35896
0.357731
0.356559
0.355766
0.355039
0.354393
0.353736
0.352934
0.352102
0.350972
0.349808
0.348246
0.346656
0.344629
0.342574
0.340131
0.337693
0.335082
0.332677
0.330555
0.329158
0.328316
0.336807
0.341935
0.352545
0.367659
0.381675
0.388712
0.387131
0.379376
0.369733
0.361822
0.357146
0.355394
0.355434
0.356348
0.357539
0.358841
0.360101
0.361402
0.362632
0.363952
0.365199
0.366604
0.367918
0.369474
0.370891
0.372659
0.374208
0.376258
0.377969
0.380389
0.382293
0.385199
0.387339
0.390875
0.393283
0.397591
0.400312
0.405581
0.408656
0.414939
0.418133
0.425039
0.427557
0.434179
0.434932
0.440429
0.439562
0.4448
0.445315
0.444206
0.439789
0.395307
0.36712
0.254206
0.282886
0.370889
0.4048
0.407494
0.406393
0.394729
0.391623
0.382532
0.381495
0.375766
0.376323
0.372988
0.37398
0.371618
0.37203
0.370073
0.370053
0.368308
0.36767
0.365733
0.364413
0.362302
0.360748
0.358961
0.357731
0.356559
0.355766
0.35504
0.354396
0.353741
0.352939
0.352108
0.350979
0.349815
0.348253
0.346662
0.344634
0.342579
0.340134
0.337693
0.335081
0.332673
0.33055
0.329153
0.328312
0.336821
0.341988
0.352642
0.367759
0.381718
0.388685
0.387062
0.379296
0.369664
0.361771
0.357113
0.355376
0.355427
0.356347
0.357539
0.358843
0.360102
0.361403
0.362633
0.363952
0.365199
0.366604
0.367917
0.369473
0.37089
0.372657
0.374207
0.376256
0.377967
0.380387
0.382291
0.385197
0.387335
0.39087
0.393277
0.397584
0.400304
0.405573
0.408648
0.414932
0.418127
0.425034
0.427552
0.434174
0.434923
0.440418
0.439545
0.444786
0.445299
0.44421
0.4398
0.395323
0.367255
0.254292
0.282807
0.370963
0.404915
0.407591
0.40647
0.394778
0.391656
0.382562
0.381524
0.375788
0.376335
0.372992
0.373983
0.371623
0.372036
0.370079
0.370059
0.368314
0.367675
0.365737
0.364417
0.362305
0.36075
0.358961
0.357731
0.356558
0.355767
0.355042
0.354399
0.353745
0.352945
0.352114
0.350986
0.349823
0.34826
0.346669
0.34464
0.342583
0.340137
0.337694
0.33508
0.33267
0.330546
0.329149
0.328309
0.336835
0.342043
0.352744
0.367863
0.381763
0.388657
0.386988
0.379212
0.369591
0.361717
0.357079
0.355358
0.355419
0.356345
0.35754
0.358844
0.360104
0.361405
0.362634
0.363953
0.365199
0.366604
0.367917
0.369472
0.370889
0.372656
0.374205
0.376254
0.377965
0.380385
0.382289
0.385194
0.387331
0.390865
0.393271
0.397576
0.400296
0.405565
0.408639
0.414924
0.418119
0.425028
0.427546
0.434168
0.434913
0.440406
0.439527
0.444771
0.445283
0.444214
0.439812
0.39534
0.367395
0.254387
0.28273
0.37104
0.405034
0.407691
0.406549
0.394828
0.39169
0.382591
0.381554
0.37581
0.376348
0.372997
0.373987
0.371628
0.372043
0.370086
0.370065
0.368319
0.36768
0.365741
0.36442
0.362308
0.360752
0.358962
0.35773
0.356558
0.355767
0.355043
0.354401
0.353749
0.35295
0.352121
0.350993
0.34983
0.348268
0.346676
0.344647
0.342589
0.340141
0.337696
0.33508
0.332667
0.330543
0.329147
0.328307
0.336851
0.342101
0.352851
0.367971
0.38181
0.388627
0.38691
0.379123
0.369514
0.361661
0.357043
0.355338
0.355411
0.356342
0.357541
0.358846
0.360106
0.361406
0.362635
0.363953
0.365199
0.366603
0.367916
0.369471
0.370887
0.372654
0.374203
0.376252
0.377962
0.380382
0.382286
0.38519
0.387327
0.390859
0.393263
0.397568
0.400287
0.405556
0.40863
0.414916
0.418111
0.425021
0.42754
0.434162
0.434903
0.440393
0.439509
0.444756
0.445267
0.444219
0.439826
0.395359
0.367542
0.25449
0.282657
0.37112
0.405155
0.407793
0.40663
0.394879
0.391724
0.382622
0.381584
0.375833
0.376361
0.373002
0.37399
0.371633
0.372049
0.370092
0.370071
0.368325
0.367685
0.365745
0.364424
0.362311
0.360754
0.358962
0.35773
0.356557
0.355767
0.355044
0.354404
0.353754
0.352956
0.352127
0.351
0.349838
0.348276
0.346684
0.344654
0.342594
0.340145
0.337698
0.33508
0.332666
0.33054
0.329145
0.328306
0.336867
0.342161
0.352961
0.368084
0.381858
0.388595
0.386828
0.37903
0.369432
0.361601
0.357005
0.355317
0.355402
0.35634
0.357541
0.358847
0.360107
0.361407
0.362636
0.363954
0.365199
0.366602
0.367915
0.369469
0.370886
0.372652
0.374201
0.376249
0.377959
0.380379
0.382282
0.385186
0.387321
0.390852
0.393255
0.397559
0.400277
0.405546
0.40862
0.414907
0.418103
0.425014
0.427533
0.434155
0.434892
0.44038
0.439489
0.44474
0.44525
0.444224
0.43984
0.39538
0.367696
0.254603
0.282587
0.371201
0.40528
0.407897
0.406711
0.394931
0.391758
0.382653
0.381614
0.375856
0.376374
0.373007
0.373993
0.371638
0.372055
0.370099
0.370078
0.368331
0.367691
0.36575
0.364427
0.362314
0.360756
0.358962
0.357729
0.356557
0.355767
0.355046
0.354407
0.353758
0.352962
0.352134
0.351007
0.349845
0.348284
0.346692
0.344661
0.342601
0.340151
0.337701
0.335082
0.332665
0.330539
0.329145
0.328305
0.336883
0.342224
0.353076
0.3682
0.381908
0.388561
0.386742
0.378932
0.369347
0.361538
0.356964
0.355296
0.355392
0.356337
0.357542
0.358849
0.360108
0.361408
0.362636
0.363954
0.365198
0.366601
0.367913
0.369467
0.370884
0.372649
0.374198
0.376246
0.377956
0.380376
0.382278
0.385181
0.387316
0.390845
0.393247
0.397549
0.400267
0.405535
0.40861
0.414897
0.418094
0.425006
0.427526
0.434148
0.434881
0.440366
0.439469
0.444723
0.445233
0.44423
0.439856
0.395403
0.367857
0.254725
0.282521
0.371285
0.405407
0.408002
0.406793
0.394983
0.391794
0.382684
0.381645
0.375879
0.376387
0.373012
0.373996
0.371642
0.372061
0.370105
0.370084
0.368337
0.367696
0.365754
0.364431
0.362317
0.360757
0.358963
0.357728
0.356556
0.355768
0.355047
0.35441
0.353763
0.352968
0.35214
0.351015
0.349853
0.348292
0.3467
0.344669
0.342607
0.340156
0.337705
0.335084
0.332665
0.330538
0.329145
0.328305
0.3369
0.342289
0.353195
0.368321
0.381959
0.388525
0.386652
0.378829
0.369258
0.361472
0.356922
0.355273
0.355382
0.356334
0.357542
0.35885
0.36011
0.361409
0.362637
0.363953
0.365198
0.3666
0.367912
0.369465
0.370881
0.372647
0.374195
0.376243
0.377953
0.380372
0.382274
0.385176
0.38731
0.390838
0.393238
0.397539
0.400256
0.405525
0.408598
0.414887
0.418085
0.424998
0.427518
0.43414
0.434869
0.440351
0.439448
0.444706
0.445215
0.444236
0.439873
0.395429
0.368025
0.254859
0.282459
0.37137
0.405536
0.408109
0.406876
0.395035
0.391829
0.382716
0.381676
0.375903
0.376401
0.373017
0.374
0.371647
0.372068
0.370112
0.370091
0.368343
0.367701
0.365758
0.364434
0.36232
0.360759
0.358963
0.357727
0.356555
0.355768
0.355049
0.354413
0.353767
0.352974
0.352147
0.351022
0.349862
0.348301
0.346709
0.344677
0.342615
0.340163
0.33771
0.335087
0.332666
0.330539
0.329146
0.328306
0.336918
0.342356
0.353319
0.368446
0.382011
0.388487
0.386558
0.378722
0.369165
0.361403
0.356878
0.355249
0.355371
0.356331
0.357542
0.358851
0.360111
0.36141
0.362637
0.363953
0.365197
0.366599
0.36791
0.369463
0.370879
0.372644
0.374192
0.376239
0.377949
0.380367
0.382269
0.385171
0.387303
0.39083
0.393229
0.397529
0.400245
0.405513
0.408587
0.414876
0.418075
0.42499
0.42751
0.434132
0.434856
0.440336
0.439426
0.444689
0.445198
0.444243
0.439892
0.395457
0.3682
0.255003
0.282403
0.371456
0.405666
0.408216
0.40696
0.395088
0.391865
0.382748
0.381707
0.375926
0.376414
0.373022
0.374003
0.371652
0.372074
0.370118
0.370097
0.368349
0.367706
0.365762
0.364438
0.362323
0.360761
0.358963
0.357726
0.356554
0.355768
0.35505
0.354416
0.353772
0.35298
0.352154
0.35103
0.34987
0.34831
0.346717
0.344686
0.342623
0.34017
0.337715
0.335092
0.332668
0.33054
0.329149
0.328308
0.336937
0.342426
0.353446
0.368575
0.382065
0.388448
0.386461
0.37861
0.369068
0.361331
0.356832
0.355223
0.35536
0.356327
0.357542
0.358852
0.360112
0.36141
0.362637
0.363953
0.365196
0.366597
0.367908
0.36946
0.370876
0.37264
0.374188
0.376235
0.377944
0.380363
0.382264
0.385165
0.387296
0.390822
0.393219
0.397518
0.400233
0.405501
0.408575
0.414865
0.418064
0.424981
0.427502
0.434123
0.434843
0.44032
0.439404
0.444671
0.44518
0.444251
0.439912
0.395488
0.368383
0.255159
0.282351
0.371543
0.405798
0.408324
0.407043
0.395141
0.391901
0.38278
0.381739
0.37595
0.376427
0.373027
0.374006
0.371656
0.37208
0.370125
0.370104
0.368355
0.367711
0.365766
0.364441
0.362326
0.360762
0.358963
0.357725
0.356553
0.355768
0.355051
0.354419
0.353777
0.352986
0.352162
0.351038
0.349879
0.348319
0.346727
0.344695
0.342631
0.340177
0.337721
0.335096
0.332671
0.330542
0.329152
0.32831
0.336956
0.342498
0.353578
0.368707
0.38212
0.388406
0.386359
0.378494
0.368966
0.361256
0.356784
0.355197
0.355348
0.356323
0.357542
0.358853
0.360113
0.361411
0.362637
0.363952
0.365194
0.366596
0.367906
0.369458
0.370872
0.372637
0.374184
0.376231
0.37794
0.380358
0.382259
0.385159
0.387289
0.390813
0.393208
0.397506
0.400221
0.405489
0.408562
0.414853
0.418053
0.424972
0.427493
0.434114
0.434829
0.440304
0.439381
0.444653
0.445163
0.44426
0.439933
0.395521
0.368573
0.255327
0.282306
0.371631
0.40593
0.408432
0.407127
0.395193
0.391937
0.382813
0.38177
0.375973
0.376441
0.373032
0.374009
0.371661
0.372086
0.370132
0.37011
0.368361
0.367716
0.36577
0.364445
0.362329
0.360764
0.358963
0.357724
0.356552
0.355767
0.355053
0.354422
0.353782
0.352992
0.352169
0.351046
0.349887
0.348328
0.346736
0.344705
0.34264
0.340186
0.337728
0.335102
0.332675
0.330546
0.329157
0.328314
0.336976
0.342572
0.353713
0.368844
0.382176
0.388362
0.386252
0.378373
0.368861
0.361178
0.356734
0.35517
0.355336
0.356319
0.357541
0.358854
0.360114
0.361411
0.362637
0.363951
0.365193
0.366594
0.367903
0.369455
0.370869
0.372633
0.37418
0.376226
0.377935
0.380352
0.382253
0.385152
0.387281
0.390803
0.393197
0.397494
0.400208
0.405476
0.408549
0.414841
0.418042
0.424962
0.427484
0.434105
0.434815
0.440287
0.439357
0.444635
0.445145
0.44427
0.439956
0.395559
0.36877
0.255507
0.282266
0.371718
0.406063
0.40854
0.40721
0.395245
0.391972
0.382845
0.381802
0.375997
0.376454
0.373037
0.374011
0.371665
0.372092
0.370139
0.370117
0.368368
0.367721
0.365774
0.364448
0.362332
0.360766
0.358963
0.357723
0.356551
0.355767
0.355054
0.354425
0.353786
0.352998
0.352176
0.351055
0.349896
0.348338
0.346746
0.344715
0.34265
0.340195
0.337736
0.335109
0.33268
0.33055
0.329162
0.328318
0.336996
0.342649
0.353853
0.368984
0.382234
0.388317
0.386142
0.378247
0.368752
0.361097
0.356682
0.355141
0.355323
0.356315
0.357541
0.358855
0.360115
0.361412
0.362636
0.36395
0.365191
0.366591
0.3679
0.369452
0.370865
0.372629
0.374176
0.376222
0.37793
0.380346
0.382247
0.385145
0.387273
0.390794
0.393186
0.397482
0.400195
0.405462
0.408536
0.414829
0.418031
0.424952
0.427475
0.434096
0.434801
0.440271
0.439334
0.444617
0.445128
0.444281
0.439981
0.395599
0.368976
0.255701
0.282233
0.371804
0.406196
0.408647
0.407293
0.395297
0.392008
0.382877
0.381833
0.37602
0.376467
0.373042
0.374014
0.371669
0.372098
0.370146
0.370124
0.368374
0.367726
0.365778
0.364452
0.362335
0.360767
0.358963
0.357722
0.35655
0.355767
0.355055
0.354429
0.353792
0.353005
0.352184
0.351063
0.349906
0.348347
0.346757
0.344725
0.34266
0.340204
0.337744
0.335116
0.332686
0.330555
0.329169
0.328323
0.337017
0.342728
0.353997
0.369128
0.382292
0.388269
0.386028
0.378117
0.368638
0.361013
0.356628
0.355111
0.355309
0.35631
0.35754
0.358855
0.360115
0.361412
0.362636
0.363949
0.36519
0.366589
0.367897
0.369448
0.370862
0.372625
0.374171
0.376216
0.377924
0.38034
0.38224
0.385138
0.387264
0.390784
0.393175
0.397469
0.400181
0.405448
0.408522
0.414816
0.418019
0.424942
0.427465
0.434086
0.434786
0.440253
0.439309
0.444599
0.445111
0.444293
0.440007
0.395643
0.369189
0.255908
0.282207
0.371889
0.406328
0.408754
0.407374
0.395348
0.392043
0.382909
0.381865
0.376044
0.37648
0.373047
0.374017
0.371673
0.372104
0.370153
0.370131
0.36838
0.367731
0.365783
0.364456
0.362338
0.360769
0.358962
0.35772
0.356549
0.355767
0.355057
0.354432
0.353797
0.353012
0.352192
0.351072
0.349915
0.348358
0.346767
0.344736
0.342671
0.340215
0.337753
0.335124
0.332692
0.330562
0.329176
0.328328
0.337039
0.34281
0.354145
0.369276
0.382352
0.388219