/*--------------------------------*- C++ -*----------------------------------*\
| =========                 |                                                 |
| \\      /  F ield         | OpenFOAM: The Open Source CFD Toolbox           |
|  \\    /   O peration     | Version:  2412                                  |
|   \\  /    A nd           | Website:  www.openfoam.com                      |
|    \\/     M anipulation  |                                                 |
\*---------------------------------------------------------------------------*/
FoamFile
{
    version     2.0;
    format      ascii;
    arch        "LSB;label=32;scalar=64";
    class       volScalarField;
    location    "0.4";
    object      p;
}
// * * * * * * * * * * * * * * * * * * * * * * * * * * * * * * * * * * * * * //

dimensions      [0 2 -2 0 0 0 0];

internalField   nonuniform List<scalar> 
13068
(
108413
108408
108383
108346
108304
108240
108177
108070
107964
107801
107657
107444
107271
107007
106807
106480
106255
105848
105604
105094
104835
104191
103930
103104
102862
101790
101601
100191
100109
98229.5
98341.6
95802.2
96245.2
92770.4
93757.2
88943.9
90806
84060.6
87312.8
77754.5
83192.6
69499.9
78335.7
58494.3
72510.3
43392
65095.2
21878
54752.2
-9551.23
39779.7
-53420.8
21486.2
-102385
8756.93
-70284.9
11764.8
-37478.9
17734.5
-12540.7
24734
6925.71
32152.4
22100.8
39214.6
33834.4
45475.7
42817
50785.9
49688.4
55205.6
54985.5
58865.5
59125.4
61910.4
62431.2
64483.6
65153.7
66710.2
67474.8
68678.9
69510.5
70436.5
71324
71999.9
72950.8
73375.8
74419.8
74573.4
75763.8
75607
77019.1
76494.2
78221
77251.7
79398.7
77891.2
80573.6
78415.1
108414
108408
108383
108346
108304
108240
108177
108070
107964
107801
107657
107444
107271
107007
106807
106480
106255
105849
105604
105094
104835
104191
103930
103104
102862
101790
101601
100191
100109
98229.5
98341.6
95802.3
96245.2
92770.4
93757.2
88943.9
90806
84060.6
87312.7
77754.4
83192.4
69499.8
78335.6
58494.3
72510.3
43392.2
65095.7
21878.7
54753.2
-9550.88
39780.1
-53422
21485.8
-102388
8756.86
-70285
11765.3
-37478.2
17735.1
-12540.8
24733.8
6925.3
32151.9
22100.3
39214
33834
45475.2
42816.6
50785.4
49688.1
55205.2
54985.3
58865.2
59125.2
61910.2
62431.1
64483.5
65153.5
66710
67474.6
68678.6
69510.2
70436.1
71323.6
71999.4
72950.1
73375.2
74419
74572.6
75762.9
75606.2
77018.1
76493.5
78220
77251.2
79397.7
77891.2
80572.8
78415.8
108414
108408
108383
108347
108304
108241
108177
108070
107964
107801
107657
107444
107271
107007
106807
106480
106256
105849
105604
105094
104835
104191
103930
103104
102862
101790
101601
100191
100109
98229.6
98341.7
95802.4
96245.3
92770.5
93757.3
88944
90806
84060.6
87312.7
77754.4
83192.3
69499.7
78335.4
58494.3
72510.4
43392.5
65096.2
21879.4
54754.2
-9550.47
39780.5
-53423.5
21485.2
-102393
8756.41
-70285.4
11765.8
-37477.5
17735.6
-12540.8
24733.5
6924.94
32151.3
22099.9
39213.4
33833.6
45474.7
42816.4
50785
49687.8
55204.9
54985
58864.9
59125
61910
62430.9
64483.3
65153.4
66709.8
67474.4
68678.3
69509.8
70435.7
71323.1
71998.9
72949.5
73374.5
74418.3
74571.8
75762
75605.4
77017.2
76492.8
78219.1
77250.7
79396.8
77891.2
80571.9
78416.5
108414
108408
108383
108347
108304
108241
108177
108070
107964
107801
107657
107444
107271
107007
106807
106480
106256
105849
105604
105094
104835
104191
103930
103104
102862
101791
101601
100191
100109
98229.8
98341.8
95802.5
96245.4
92770.7
93757.3
88944.1
90806
84060.7
87312.6
77754.5
83192.2
69499.8
78335.3
58494.4
72510.5
43393
65096.9
21880.3
54755.3
-9550.01
39780.9
-53425.3
21484.4
-102399
8755.59
-70285.9
11766.2
-37476.7
17736.1
-12540.8
24733.1
6924.63
32150.8
22099.6
39212.8
33833.3
45474.2
42816.1
50784.6
49687.6
55204.5
54984.8
58864.6
59124.8
61909.8
62430.8
64483.1
65153.2
66709.6
67474.1
68678
69509.5
70435.3
71322.7
71998.4
72949
73373.9
74417.6
74571.1
75761.2
75604.6
77016.3
76492.1
78218.2
77250.2
79396
77891.2
80571.1
78417.1
108414
108409
108383
108347
108304
108241
108177
108070
107964
107801
107657
107445
107271
107007
106807
106480
106256
105849
105604
105094
104835
104191
103930
103104
102862
101791
101601
100192
100109
98229.9
98341.9
95802.7
96245.5
92770.9
93757.4
88944.3
90806
84060.9
87312.6
77754.6
83192.1
69499.9
78335.2
58494.6
72510.6
43393.5
65097.6
21881.3
54756.4
-9549.46
39781.3
-53427.4
21483.4
-102406
8754.41
-70286.7
11766.5
-37475.9
17736.5
-12540.8
24732.8
6924.36
32150.3
22099.3
39212.2
33833.1
45473.8
42816
50784.3
49687.5
55204.2
54984.7
58864.4
59124.7
61909.6
62430.7
64483
65153.1
66709.4
67473.9
68677.8
69509.2
70434.9
71322.2
71997.9
72948.4
73373.3
74416.8
74570.4
75760.4
75603.9
77015.4
76491.4
78217.3
77249.8
79395.1
77891.1
80570.2
78417.8
108414
108409
108383
108347
108304
108241
108177
108070
107964
107801
107657
107445
107271
107007
106807
106480
106256
105849
105604
105094
104836
104191
103930
103105
102862
101791
101601
100192
100109
98230.1
98342
95803
96245.6
92771.1
93757.5
88944.6
90806.1
84061.1
87312.6
77754.8
83192
69500.1
78335.1
58494.9
72510.8
43394.2
65098.3
21882.5
54757.7
-9548.85
39781.8
-53429.8
21482.2
-102414
8752.87
-70287.6
11766.8
-37475
17736.9
-12540.7
24732.3
6924.14
32149.7
22099
39211.6
33833
45473.4
42815.9
50783.9
49687.4
55204
54984.6
58864.2
59124.6
61909.5
62430.6
64482.8
65152.9
66709.2
67473.7
68677.5
69508.9
70434.6
71321.8
71997.4
72947.8
73372.7
74416.1
74569.7
75759.5
75603.1
77014.5
76490.7
78216.3
77249.3
79394.2
77891.1
80569.4
78418.5
108414
108409
108384
108347
108305
108241
108177
108070
107964
107802
107657
107445
107272
107007
106808
106480
106256
105849
105604
105095
104836
104191
103930
103105
102862
101791
101601
100192
100110
98230.4
98342.2
95803.2
96245.8
92771.4
93757.7
88944.9
90806.2
84061.4
87312.6
77755.1
83191.9
69500.3
78335.1
58495.3
72511
43395
65099.2
21883.8
54759.1
-9548.16
39782.2
-53432.5
21480.8
-102424
8750.97
-70288.8
11767
-37474.1
17737.3
-12540.6
24731.9
6923.96
32149.1
22098.8
39211
33832.9
45473
42815.8
50783.6
49687.3
55203.7
54984.5
58864
59124.6
61909.4
62430.6
64482.7
65152.8
66709
67473.5
68677.2
69508.6
70434.2
71321.4
71996.9
72947.3
73372.1
74415.4
74569
75758.7
75602.4
77013.6
76490
78215.4
77248.9
79393.3
77891.1
80568.6
78419.1
108415
108409
108384
108347
108305
108241
108177
108070
107965
107802
107657
107445
107272
107007
106808
106480
106256
105849
105604
105095
104836
104191
103930
103105
102863
101791
101602
100192
100110
98230.7
98342.4
95803.5
96246
92771.8
93757.9
88945.2
90806.3
84061.8
87312.6
77755.4
83191.9
69500.7
78335
58495.8
72511.3
43395.9
65100.1
21885.2
54760.5
-9547.4
39782.7
-53435.5
21479.3
-102435
8748.72
-70290.2
11767.2
-37473.1
17737.6
-12540.4
24731.4
6923.82
32148.5
22098.7
39210.5
33832.8
45472.6
42815.8
50783.3
49687.3
55203.5
54984.5
58863.9
59124.6
61909.2
62430.5
64482.6
65152.7
66708.8
67473.3
68677
69508.3
70433.9
71320.9
71996.5
72946.7
73371.6
74414.7
74568.3
75757.9
75601.7
77012.6
76489.3
78214.5
77248.4
79392.4
77891.1
80567.8
78419.7
108415
108410
108384
108348
108305
108241
108177
108071
107965
107802
107657
107445
107272
107007
106808
106480
106256
105849
105604
105095
104836
104192
103931
103105
102863
101792
101602
100193
100110
98231
98342.7
95803.9
96246.2
92772.1
93758.1
88945.6
90806.5
84062.2
87312.7
77755.8
83191.9
69501.1
78335
58496.4
72511.5
43397
65101.1
21886.8
54762.1
-9546.57
39783.2
-53438.8
21477.5
-102447
8746.1
-70291.7
11767.4
-37472
17737.9
-12540.2
24730.8
6923.72
32147.9
22098.6
39209.9
33832.8
45472.2
42815.9
50783.1
49687.4
55203.3
54984.5
58863.7
59124.6
61909.1
62430.5
64482.5
65152.6
66708.7
67473.1
68676.7
69508
70433.5
71320.5
71996
72946.1
73371
74414
74567.7
75757
75600.9
77011.7
76488.7
78213.5
77247.9
79391.6
77891
80567
78420.4
108415
108410
108384
108348
108305
108242
108178
108071
107965
107802
107658
107445
107272
107008
106808
106480
106256
105849
105605
105095
104836
104192
103931
103105
102863
101792
101602
100193
100110
98231.4
98343
95804.3
96246.5
92772.6
93758.3
88946.1
90806.6
84062.6
87312.8
77756.3
83191.8
69501.6
78335
58497
72511.9
43398.1
65102.1
21888.6
54763.7
-9545.67
39783.8
-53442.4
21475.5
-102461
8743.13
-70293.5
11767.5
-37470.9
17738.2
-12540
24730.3
6923.66
32147.2
22098.5
39209.3
33832.9
45471.8
42816
50782.8
49687.5
55203.1
54984.6
58863.6
59124.7
61909.1
62430.5
64482.4
65152.6
66708.5
67472.9
68676.5
69507.7
70433.2
71320.1
71995.6
72945.6
73370.4
74413.3
74567
75756.2
75600.2
77010.8
76488
78212.6
77247.5
79390.7
77891
80566.2
78421
108416
108410
108385
108348
108306
108242
108178
108071
107965
107802
107658
107445
107272
107008
106808
106481
106257
105850
105605
105095
104836
104192
103931
103106
102863
101792
101602
100193
100111
98231.8
98343.2
95804.7
96246.8
92773.1
93758.6
88946.6
90806.8
84063.2
87312.9
77756.8
83191.8
69502.1
78335
58497.8
72512.2
43399.4
65103.3
21890.5
54765.5
-9544.69
39784.3
-53446.2
21473.4
-102476
8739.8
-70295.5
11767.6
-37469.7
17738.4
-12539.7
24729.6
6923.64
32146.6
22098.5
39208.8
33833
45471.5
42816.2
50782.6
49687.6
55203
54984.7
58863.5
59124.7
61909
62430.6
64482.3
65152.5
66708.3
67472.7
68676.2
69507.4
70432.8
71319.7
71995.2
72945.1
73369.9
74412.6
74566.4
75755.4
75599.5
77009.9
76487.3
78211.7
77247
79389.8
77891
80565.5
78421.6
108416
108411
108385
108349
108306
108242
108178
108071
107965
107802
107658
107446
107272
107008
106808
106481
106257
105850
105605
105096
104837
104192
103931
103106
102864
101793
101603
100194
100111
98232.2
98343.6
95805.2
96247.1
92773.6
93758.8
88947.2
90807
84063.7
87313
77757.4
83191.8
69502.7
78335
58498.6
72512.6
43400.8
65104.5
21892.5
54767.3
-9543.64
39784.9
-53450.4
21471
-102492
8736.12
-70297.7
11767.6
-37468.5
17738.6
-12539.4
24729
6923.67
32145.9
22098.6
39208.2
33833.2
45471.2
42816.5
50782.4
49687.8
55202.8
54984.9
58863.5
59124.9
61909
62430.6
64482.2
65152.4
66708.2
67472.6
68676
69507.1
70432.5
71319.3
71994.7
72944.5
73369.4
74411.9
74565.7
75754.6
75598.8
77009
76486.7
78210.8
77246.6
79389
77890.9
80564.7
78422.2
108416
108411
108386
108349
108306
108242
108178
108071
107965
107803
107658
107446
107273
107008
106809
106481
106257
105850
105605
105096
104837
104193
103932
103106
102864
101793
101603
100194
100111
98232.7
98343.9
95805.8
96247.4
92774.2
93759.1
88947.8
90807.3
84064.4
87313.1
77758.1
83191.9
69503.4
78335
58499.5
72513
43402.3
65105.7
21894.7
54769.2
-9542.52
39785.5
-53454.9
21468.5
-102510
8732.08
-70300
11767.6
-37467.2
17738.7
-12539.1
24728.3
6923.74
32145.2
22098.7
39207.6
33833.5
45470.9
42816.8
50782.3
49688.1
55202.7
54985.1
58863.4
59125
61908.9
62430.7
64482.1
65152.4
66708
67472.4
68675.7
69506.8
70432.2
71318.9
71994.3
72944
73368.8
74411.3
74565.1
75753.7
75598.1
77008.1
76486
78209.8
77246.1
79388.1
77890.9
80563.9
78422.8
108417
108411
108386
108349
108307
108243
108179
108072
107966
107803
107658
107446
107273
107008
106809
106481
106257
105850
105606
105096
104837
104193
103932
103107
102864
101793
101603
100195
100112
98233.2
98344.3
95806.3
96247.8
92774.8
93759.5
88948.4
90807.6
84065.1
87313.3
77758.8
83191.9
69504.2
78335.1
58500.5
72513.4
43403.9
65107.1
21897
54771.2
-9541.33
39786.1
-53459.6
21465.7
-102529
8727.69
-70302.6
11767.5
-37465.9
17738.8
-12538.7
24727.5
6923.84
32144.4
22098.9
39207.1
33833.8
45470.6
42817.1
50782.1
49688.4
55202.7
54985.3
58863.4
59125.2
61908.9
62430.8
64482.1
65152.4
66707.9
67472.2
68675.5
69506.5
70431.9
71318.5
71993.9
72943.4
73368.3
74410.6
74564.5
75752.9
75597.5
77007.2
76485.4
78208.9
77245.6
79387.3
77890.8
80563.2
78423.3
108417
108412
108386
108350
108307
108243
108179
108072
107966
107803
107659
107446
107273
107009
106809
106482
106257
105851
105606
105097
104838
104193
103932
103107
102865
101794
101604
100195
100112
98233.7
98344.7
95806.9
96248.2
92775.5
93759.9
88949.2
90807.8
84065.8
87313.5
77759.6
83192
69505.1
78335.2
58501.6
72513.9
43405.6
65108.5
21899.5
54773.4
-9540.06
39786.8
-53464.7
21462.8
-102549
8722.95
-70305.4
11767.4
-37464.4
17738.9
-12538.3
24726.8
6923.99
32143.7
22099.1
39206.5
33834.2
45470.3
42817.6
50782
49688.7
55202.6
54985.6
58863.4
59125.4
61908.9
62430.9
64482
65152.4
66707.7
67472.1
68675.3
69506.2
70431.5
71318.1
71993.5
72942.9
73367.8
74409.9
74563.9
75752.1
75596.8
77006.3
76484.7
78208
77245.2
79386.4
77890.7
80562.4
78423.9
108418
108412
108387
108350
108308
108243
108179
108072
107966
107803
107659
107446
107273
107009
106809
106482
106258
105851
105606
105097
104838
104194
103933
103108
102865
101794
101604
100196
100112
98234.3
98345.2
95807.6
96248.7
92776.2
93760.2
88949.9
90808.2
84066.7
87313.7
77760.4
83192
69506
78335.2
58502.8
72514.4
43407.5
65110
21902.1
54775.6
-9538.72
39787.4
-53470
21459.6
-102571
8717.86
-70308.4
11767.3
-37463
17738.9
-12537.9
24725.9
6924.18
32142.9
22099.3
39206
33834.6
45470.1
42818
50781.9
49689.1
55202.6
54985.9
58863.4
59125.7
61908.9
62431.1
64482
65152.4
66707.6
67471.9
68675
69506
70431.2
71317.7
71993.1
72942.4
73367.3
74409.2
74563.3
75751.3
75596.1
77005.3
76484.1
78207.1
77244.7
79385.6
77890.7
80561.7
78424.4
108419
108413
108387
108351
108308
108244
108180
108072
107966
107804
107659
107447
107273
107009
106810
106482
106258
105851
105606
105097
104838
104194
103933
103108
102865
101795
101605
100196
100113
98234.9
98345.6
95808.3
96249.1
92776.9
93760.7
88950.8
90808.5
84067.5
87313.9
77761.3
83192.1
69506.9
78335.3
58504.1
72515
43409.5
65111.5
21904.8
54777.9
-9537.31
39788.1
-53475.7
21456.3
-102594
8712.41
-70311.5
11767.1
-37461.4
17738.9
-12537.4
24725.1
6924.41
32142.2
22099.7
39205.4
33835.1
45469.9
42818.6
50781.9
49689.6
55202.6
54986.3
58863.4
59125.9
61909
62431.2
64481.9
65152.4
66707.5
67471.8
68674.8
69505.7
70430.9
71317.3
71992.7
72941.9
73366.8
74408.6
74562.7
75750.5
75595.5
77004.4
76483.5
78206.1
77244.3
79384.7
77890.6
80561
78425
108419
108414
108388
108351
108308
108244
108180
108073
107967
107804
107659
107447
107274
107009
106810
106482
106258
105852
105607
105098
104839
104195
103933
103109
102866
101795
101605
100197
100113
98235.6
98346.1
95809
96249.6
92777.7
93761.1
88951.7
90808.9
84068.5
87314.1
77762.3
83192.2
69508
78335.4
58505.5
72515.6
43411.5
65113.2
21907.7
54780.3
-9535.83
39788.8
-53481.6
21452.7
-102618
8706.62
-70314.9
11766.9
-37459.9
17738.8
-12536.9
24724.1
6924.68
32141.4
22100
39204.9
33835.6
45469.6
42819.2
50781.8
49690.1
55202.6
54986.7
58863.5
59126.3
61909
62431.4
64481.9
65152.4
66707.3
67471.7
68674.6
69505.4
70430.6
71316.9
71992.3
72941.4
73366.3
74407.9
74562.1
75749.6
75594.8
77003.5
76482.9
78205.2
77243.8
79383.9
77890.5
80560.3
78425.5
108420
108414
108389
108352
108309
108245
108180
108073
107967
107804
107660
107447
107274
107010
106810
106483
106259
105852
105607
105098
104839
104195
103934
103109
102866
101796
101606
100197
100114
98236.3
98346.6
95809.8
96250.1
92778.6
93761.6
88952.6
90809.3
84069.5
87314.4
77763.3
83192.3
69509.1
78335.6
58506.9
72516.2
43413.8
65114.9
21910.7
54782.8
-9534.27
39789.5
-53487.9
21449
-102643
8700.48
-70318.5
11766.6
-37458.2
17738.7
-12536.4
24723.2
6924.99
32140.5
22100.4
39204.3
33836.2
45469.4
42819.8
50781.8
49690.7
55202.7
54987.2
58863.6
59126.6
61909.1
62431.6
64481.9
65152.4
66707.2
67471.5
68674.3
69505.2
70430.3
71316.6
71992
72940.9
73365.9
74407.2
74561.5
75748.8
75594.2
77002.6
76482.2
78204.3
77243.4
79383
77890.4
80559.6
78426
108420
108415
108389
108352
108310
108245
108181
108073
107967
107804
107660
107448
107274
107010
106810
106483
106259
105852
105607
105098
104839
104195
103934
103110
102867
101796
101606
100198
100114
98237
98347.2
95810.6
96250.7
92779.5
93762.1
88953.6
90809.7
84070.5
87314.6
77764.4
83192.4
69510.3
78335.7
58508.4
72516.8
43416.1
65116.6
21913.9
54785.4
-9532.65
39790.2
-53494.5
21445
-102670
8694
-70322.3
11766.2
-37456.5
17738.6
-12535.8
24722.2
6925.34
32139.7
22100.9
39203.8
33836.9
45469.3
42820.5
50781.8
49691.3
55202.7
54987.7
58863.7
59127
61909.2
62431.9
64481.9
65152.5
66707.1
67471.4
68674.1
69504.9
70430
71316.2
71991.6
72940.3
73365.4
74406.6
74561
75748
75593.6
77001.7
76481.6
78203.3
77242.9
79382.2
77890.3
80558.9
78426.5
108421
108415
108390
108353
108310
108246
108181
108074
107968
107805
107660
107448
107275
107010
106811
106484
106259
105853
105608
105099
104840
104196
103935
103110
102867
101797
101607
100199
100115
98237.8
98347.8
95811.5
96251.2
92780.5
93762.6
88954.6
90810.1
84071.6
87314.9
77765.6
83192.6
69511.6
78335.9
58510.1
72517.5
43418.5
65118.5
21917.3
54788.1
-9530.95
39791
-53501.3
21440.9
-102698
8687.16
-70326.2
11765.9
-37454.8
17738.4
-12535.2
24721.1
6925.73
32138.8
22101.4
39203.3
33837.6
45469.1
42821.3
50781.8
49691.9
55202.8
54988.2
58863.8
59127.4
61909.3
62432.1
64481.9
65152.5
66707
67471.3
68673.9
69504.7
70429.7
71315.8
71991.2
72939.8
73364.9
74405.9
74560.4
75747.2
75592.9
77000.8
76481
78202.4
77242.4
79381.3
77890.2
80558.2
78427
108422
108416
108391
108354
108311
108246
108182
108074
107968
107805
107661
107448
107275
107011
106811
106484
106260
105853
105608
105099
104840
104196
103935
103111
102868
101798
101607
100199
100116
98238.6
98348.4
95812.4
96251.8
92781.5
93763.2
88955.7
90810.6
84072.8
87315.2
77766.8
83192.7
69512.9
78336
58511.8
72518.2
43421.1
65120.4
21920.7
54790.8
-9529.18
39791.8
-53508.5
21436.5
-102728
8679.99
-70330.4
11765.5
-37452.9
17738.2
-12534.5
24720.1
6926.17
32137.9
22102
39202.7
33838.4
45469
42822.1
50781.9
49692.7
55203
54988.8
58864
59127.9
61909.4
62432.4
64481.9
65152.6
66706.9
67471.2
68673.7
69504.4
70429.5
71315.5
71990.9
72939.4
73364.5
74405.3
74559.9
75746.4
75592.3
76999.8
76480.4
78201.5
77242
79380.5
77890.1
80557.5
78427.5
108423
108417
108391
108354
108311
108247
108182
108075
107969
107805
107661
107449
107275
107011
106812
106484
106260
105854
105609
105100
104841
104197
103936
103111
102868
101798
101608
100200
100116
98239.5
98349
95813.3
96252.4
92782.5
93763.8
88956.9
90811.1
84074
87315.6
77768.1
83192.9
69514.4
78336.2
58513.6
72518.9
43423.8
65122.4
21924.3
54793.7
-9527.34
39792.5
-53515.9
21432
-102758
8672.47
-70334.8
11765
-37451.1
17738
-12533.9
24718.9
6926.64
32137
22102.6
39202.2
33839.2
45468.9
42823
50781.9
49693.4
55203.1
54989.4
58864.1
59128.3
61909.5
62432.7
64482
65152.7
66706.8
67471.1
68673.5
69504.2
70429.2
71315.1
71990.5
72938.9
73364.1
74404.6
74559.3
75745.6
75591.7
76998.9
76479.8
78200.6
77241.5
79379.7
77890
80556.8
78428
108424
108418
108392
108355
108312
108247
108182
108075
107969
107806
107661
107449
107276
107011
106812
106485
106261
105854
105609
105100
104841
104198
103936
103112
102869
101799
101608
100201
100117
98240.4
98349.7
95814.3
96253.1
92783.6
93764.4
88958.1
90811.6
84075.3
87315.9
77769.5
83193.1
69515.8
78336.4
58515.4
72519.7
43426.5
65124.4
21928.1
54796.7
-9525.43
39793.4
-53523.7
21427.2
-102790
8664.61
-70339.3
11764.5
-37449.2
17737.7
-12533.2
24717.8
6927.15
32136.1
22103.3
39201.6
33840.1
45468.8
42823.9
50782
49694.2
55203.3
54990.1
58864.3
59128.8
61909.7
62433
64482
65152.8
66706.7
67471
68673.3
69503.9
70428.9
71314.7
71990.2
72938.4
73363.6
74404
74558.8
75744.8
75591.1
76998
76479.2
78199.6
77241.1
79378.9
77889.9
80556.2
78428.5
108424
108418
108393
108356
108313
108248
108183
108076
107969
107806
107662
107449
107276
107012
106812
106485
106261
105855
105610
105101
104842
104198
103937
103113
102870
101800
101609
100202
100118
98241.3
98350.4
95815.4
96253.8
92784.8
93765
88959.3
90812.1
84076.7
87316.3
77770.9
83193.3
69517.4
78336.6
58517.4
72520.5
43429.4
65126.6
21932
54799.7
-9523.44
39794.2
-53531.8
21422.2
-102824
8656.41
-70344.1
11763.9
-37447.2
17737.3
-12532.4
24716.5
6927.69
32135.2
22104
39201.1
33841.1
45468.7
42824.9
50782.2
49695.1
55203.5
54990.8
58864.5
59129.4
61909.9
62433.3
64482.1
65152.9
66706.6
67470.9
68673.1
69503.7
70428.6
71314.4
71989.9
72937.9
73363.2
74403.3
74558.3
75744
75590.5
76997.1
76478.6
78198.7
77240.6
79378
77889.8
80555.5
78428.9
108425
108419
108394
108357
108313
108248
108184
108076
107970
107807
107662
107450
107277
107012
106813
106486
106262
105855
105610
105101
104842
104199
103937
103113
102870
101801
101610
100203
100118
98242.3
98351.1
95816.4
96254.5
92786
93765.7
88960.6
90812.7
84078.1
87316.7
77772.4
83193.5
69519
78336.8
58519.5
72521.3
43432.5
65128.8
21936
54802.9
-9521.39
39795
-53540.1
21417
-102858
8647.87
-70349.1
11763.3
-37445.1
17736.9
-12531.7
24715.3
6928.28
32134.2
22104.8
39200.6
33842.1
45468.6
42826
50782.3
49696
55203.7
54991.5
58864.8
59130
61910.1
62433.7
64482.1
65153
66706.5
67470.8
68672.9
69503.4
70428.4
71314
71989.5
72937.4
73362.8
74402.7
74557.8
75743.2
75589.9
76996.2
76478
78197.8
77240.2
79377.2
77889.6
80554.9
78429.3
108426
108420
108394
108357
108314
108249
108184
108076
107970
107807
107663
107450
107277
107013
106813
106486
106262
105856
105611
105102
104843
104199
103938
103114
102871
101801
101610
100204
100119
98243.3
98351.8
95817.5
96255.2
92787.2
93766.4
88962
90813.3
84079.5
87317.1
77774
83193.7
69520.7
78337.1
58521.6
72522.2
43435.6
65131
21940.2
54806.1
-9519.26
39795.9
-53548.8
21411.6
-102894
8638.99
-70354.2
11762.6
-37443.1
17736.5
-12530.9
24714
6928.91
32133.2
22105.6
39200
33843.1
45468.6
42827.1
50782.5
49697
55204
54992.3
58865
59130.6
61910.3
62434.1
64482.2
65153.2
66706.4
67470.7
68672.7
69503.2
70428.1
71313.7
71989.2
72936.9
73362.4
74402.1
74557.3
75742.4
75589.4
76995.3
76477.4
78196.8
77239.7
79376.4
77889.5
80554.3
78429.8
108427
108421
108395
108358
108315
108250
108185
108077
107971
107808
107663
107451
107277
107013
106814
106487
106262
105856
105611
105103
104843
104200
103939
103115
102872
101802
101611
100204
100120
98244.3
98352.6
95818.7
96256
92788.5
93767.1
88963.4
90813.9
84081.1
87317.6
77775.6
83194
69522.5
78337.3
58523.8
72523.1
43438.9
65133.4
21944.5
54809.5
-9517.06
39796.8
-53557.8
21406
-102932
8629.77
-70359.6
11761.9
-37440.9
17736
-12530
24712.6
6929.57
32132.2
22106.4
39199.5
33844.3
45468.5
42828.2
50782.7
49698
55204.2
54993.2
58865.3
59131.2
61910.5
62434.5
64482.3
65153.3
66706.3
67470.6
68672.5
69503
70427.9
71313.4
71988.9
72936.5
73362
74401.4
74556.8
75741.6
75588.8
76994.3
76476.9
78195.9
77239.2
79375.6
77889.4
80553.6
78430.2
108428
108422
108396
108359
108315
108250
108185
108077
107971
107808
107663
107451
107278
107014
106814
106487
106263
105857
105612
105103
104844
104201
103939
103115
102872
101803
101612
100205
100121
98245.4
98353.4
95819.9
96256.8
92789.8
93767.8
88964.9
90814.5
84082.7
87318
77777.3
83194.2
69524.4
78337.6
58526.2
72524
43442.2
65135.8
21949
54812.9
-9514.79
39797.7
-53567.1
21400.2
-102971
8620.22
-70365.2
11761.2
-37438.7
17735.5
-12529.2
24711.2
6930.28
32131.2
22107.4
39199
33845.5
45468.5
42829.5
50782.9
49699.1
55204.5
54994
58865.6
59131.9
61910.7
62434.9
64482.4
65153.5
66706.2
67470.5
68672.3
69502.8
70427.6
71313
71988.6
72936
73361.7
74400.8
74556.3
75740.8
75588.2
76993.4
76476.3
78194.9
77238.8
79374.7
77889.2
80553
78430.6
108429
108423
108397
108360
108316
108251
108186
108078
107972
107808
107664
107452
107278
107014
106815
106488
106264
105857
105612
105104
104845
104201
103940
103116
102873
101804
101613
100206
100121
98246.5
98354.2
95821.1
96257.6
92791.2
93768.6
88966.4
90815.2
84084.3
87318.5
77779
83194.5
69526.3
78337.9
58528.6
72525
43445.7
65138.3
21953.6
54816.4
-9512.45
39798.6
-53576.6
21394.2
-103011
8610.32
-70370.9
11760.4
-37436.5
17734.9
-12528.3
24709.8
6931.02
32130.1
22108.3
39198.5
33846.7
45468.5
42830.8
50783.2
49700.2
55204.9
54995
58866
59132.6
61911
62435.4
64482.5
65153.6
66706.2
67470.5
68672.1
69502.5
70427.4
71312.7
71988.3
72935.5
73361.3
74400.2
74555.9
75740
75587.7
76992.5
76475.7
78194
77238.3
79373.9
77889.1
80552.4
78431
108430
108424
108398
108361
108317
108252
108186
108079
107972
107809
107664
107452
107279
107015
106815
106488
106264
105858
105613
105105
104845
104202
103941
103117
102874
101805
101613
100207
100122
98247.6
98355.1
95822.4
96258.5
92792.6
93769.4
88968
90815.8
84086
87319
77780.8
83194.8
69528.3
78338.2
58531
72526
43449.3
65140.8
21958.4
54820.1
-9510.03
39799.5
-53586.5
21387.9
-103052
8600.1
-70376.9
11759.5
-37434.2
17734.3
-12527.4
24708.3
6931.8
32129
22109.4
39197.9
33848
45468.5
42832.1
50783.4
49701.4
55205.2
54995.9
58866.3
59133.3
61911.3
62435.9
64482.6
65153.8
66706.1
67470.4
68671.9
69502.3
70427.1
71312.4
71988
72935.1
73360.9
74399.6
74555.4
75739.2
75587.1
76991.6
76475.2
78193.1
77237.9
79373.1
77888.9
80551.8
78431.4
108431
108425
108399
108362
108318
108252
108187
108079
107973
107809
107665
107452
107279
107015
106816
106489
106265
105859
105614
105105
104846
104203
103941
103118
102874
101806
101614
100209
100123
98248.8
98356
95823.8
96259.4
92794.1
93770.2
88969.6
90816.5
84087.7
87319.5
77782.7
83195.1
69530.3
78338.5
58533.6
72527
43453
65143.4
21963.3
54823.8
-9507.55
39800.5
-53596.7
21381.5
-103095
8589.53
-70383.1
11758.6
-37431.9
17733.7
-12526.4
24706.8
6932.62
32127.9
22110.4
39197.4
33849.4
45468.6
42833.5
50783.7
49702.6
55205.6
54996.9
58866.7
59134.1
61911.5
62436.4
64482.7
65154
66706
67470.4
68671.7
69502.1
70426.9
71312
71987.8
72934.6
73360.6
74398.9
74555
75738.4
75586.6
76990.7
76474.6
78192.1
77237.4
79372.3
77888.8
80551.2
78431.8
108432
108426
108400
108363
108319
108253
108188
108080
107973
107810
107665
107453
107280
107016
106816
106489
106265
105859
105614
105106
104847
104204
103942
103119
102875
101807
101615
100210
100124
98250
98356.9
95825.1
96260.3
92795.6
93771.1
88971.3
90817.3
84089.6
87320
77784.7
83195.4
69532.4
78338.8
58536.3
72528.1
43456.9
65146.1
21968.3
54827.6
-9504.99
39801.5
-53607.2
21374.8
-103139
8578.64
-70389.4
11757.6
-37429.5
17733
-12525.5
24705.2
6933.47
32126.8
22111.5
39196.9
33850.8
45468.6
42834.9
50784
49703.9
55206
54998
58867.1
59134.9
61911.9
62436.9
64482.9
65154.2
66706
67470.3
68671.5
69501.9
70426.7
71311.7
71987.5
72934.2
73360.3
74398.3
74554.5
75737.6
75586.1
76989.7
76474
78191.2
77236.9
79371.5
77888.6
80550.6
78432.1
108433
108427
108401
108364
108320
108254
108188
108080
107974
107811
107666
107454
107280
107016
106817
106490
106266
105860
105615
105107
104847
104205
103943
103120
102876
101808
101616
100211
100125
98251.3
98357.8
95826.5
96261.2
92797.2
93772
88973
90818
84091.4
87320.6
77786.7
83195.7
69534.6
78339.2
58539
72529.1
43460.8
65148.9
21973.5
54831.5
-9502.36
39802.5
-53618.1
21367.9
-103184
8567.41
-70396
11756.6
-37427
17732.2
-12524.5
24703.5
6934.37
32125.7
22112.7
39196.4
33852.3
45468.7
42836.5
50784.4
49705.2
55206.4
54999.1
58867.5
59135.7
61912.2
62437.4
64483
65154.5
66705.9
67470.3
68671.4
69501.7
70426.4
71311.4
71987.2
72933.8
73359.9
74397.7
74554.1
75736.8
75585.6
76988.8
76473.5
78190.3
77236.5
79370.7
77888.4
80550.1
78432.5
108435
108428
108402
108365
108321
108254
108189
108081
107975
107811
107666
107454
107281
107017
106817
106490
106266
105860
105615
105107
104848
104205
103944
103121
102877
101809
101617
100212
100126
98252.6
98358.8
95828
96262.2
92798.8
93772.9
88974.8
90818.8
84093.4
87321.1
77788.7
83196.1
69536.9
78339.5
58541.9
72530.2
43464.9
65151.7
21978.8
54835.5
-9499.66
39803.5
-53629.2
21360.9
-103231
8555.84
-70402.8
11755.5
-37424.5
17731.4
-12523.5
24701.9
6935.29
32124.5
22113.9
39195.8
33853.8
45468.8
42838
50784.7
49706.6
55206.8
55000.2
58867.9
59136.6
61912.5
62438
64483.2
65154.7
66705.9
67470.2
68671.2
69501.5
70426.2
71311.1
71987
72933.3
73359.6
74397.1
74553.7
75736
75585.1
76987.9
76472.9
78189.3
77236
79369.9
77888.2
80549.5
78432.8
108436
108429
108403
108366
108322
108255
108190
108082
107975
107812
107667
107455
107281
107017
106818
106491
106267
105861
105616
105108
104849
104206
103945
103122
102878
101810
101618
100213
100127
98253.9
98359.8
95829.5
96263.2
92800.5
93773.8
88976.6
90819.6
84095.4
87321.7
77790.9
83196.4
69539.3
78339.9
58544.8
72531.4
43469
65154.6
21984.3
54839.6
-9496.88
39804.5
-53640.6
21353.5
-103278
8543.94
-70409.7
11754.4
-37422
17730.5
-12522.4
24700.1
6936.26
32123.3
22115.2
39195.3
33855.4
45468.9
42839.7
50785.1
49708
55207.3
55001.4
58868.4
59137.5
61912.9
62438.6
64483.3
65154.9
66705.8
67470.2
68671
69501.3
70426
71310.8
71986.7
72932.9
73359.3
74396.5
74553.3
75735.3
75584.5
76987
76472.4
78188.4
77235.5
79369.1
77888
80548.9
78433.1
108437
108430
108405
108367
108323
108256
108191
108082
107976
107812
107668
107455
107282
107018
106819
106492
106268
105862
105617
105109
104850
104207
103945
103123
102879
101811
101619
100214
100128
98255.3
98360.8
95831
96264.2
92802.2
93774.8
88978.5
90820.4
84097.4
87322.3
77793.1
83196.8
69541.7
78340.3
58547.8
72532.6
43473.3
65157.6
21989.9
54843.7
-9494.04
39805.6
-53652.3
21346
-103328
8531.71
-70416.9
11753.2
-37419.4
17729.6
-12521.3
24698.4
6937.26
32122.1
22116.5
39194.8
33857.1
45469.1
42841.3
50785.5
49709.5
55207.8
55002.6
58868.9
59138.5
61913.2
62439.2
64483.5
65155.2
66705.8
67470.2
68670.9
69501.1
70425.8
71310.5
71986.5
72932.5
73359
74395.9
74552.9
75734.5
75584.1
76986
76471.9
78187.4
77235.1
79368.3
77887.8
80548.4
78433.5
108438
108432
108406
108368
108324
108257
108191
108083
107976
107813
107668
107456
107283
107019
106819
106492
106268
105863
105618
105110
104850
104208
103946
103124
102880
101812
101620
100216
100129
98256.7
98361.9
95832.6
96265.3
92804
93775.8
88980.4
90821.3
84099.5
87323
77795.3
83197.2
69544.1
78340.7
58550.9
72533.8
43477.7
65160.6
21995.6
54848
-9491.12
39806.7
-53664.4
21338.3
-103378
8519.14
-70424.3
11751.9
-37416.8
17728.7
-12520.2
24696.5
6938.3
32120.8
22117.9
39194.3
33858.8
45469.2
42843.1
50786
49711
55208.3
55003.9
58869.4
59139.4
61913.6
62439.8
64483.7
65155.5
66705.8
67470.1
68670.7
69500.9
70425.6
71310.2
71986.3
72932
73358.7
74395.3
74552.5
75733.7
75583.6
76985.1
76471.3
78186.5
77234.6
79367.5
77887.6
80547.9
78433.8
108440
108433
108407
108369
108325
108258
108192
108084
107977
107813
107669
107456
107283
107019
106820
106493
106269
105863
105618
105111
104851
104209
103947
103125
102881
101813
101621
100217
100130
98258.2
98363
95834.2
96266.3
92805.8
93776.8
88982.4
90822.2
84101.7
87323.6
77797.6
83197.6
69546.7
78341.1
58554
72535
43482.3
65163.7
22001.5
54852.4
-9488.12
39807.8
-53676.7
21330.4
-103430
8506.24
-70431.9
11750.6