/*--------------------------------*- C++ -*----------------------------------*\
| =========                 |                                                 |
| \\      /  F ield         | OpenFOAM: The Open Source CFD Toolbox           |
|  \\    /   O peration     | Version:  2412                                  |
|   \\  /    A nd           | Website:  www.openfoam.com                      |
|    \\/     M anipulation  |                                                 |
\*---------------------------------------------------------------------------*/
FoamFile
{
    version     2.0;
    format      ascii;
    arch        "LSB;label=32;scalar=64";
    class       surfaceScalarField;
    location    "0.4";
    object      phi;
}
// * * * * * * * * * * * * * * * * * * * * * * * * * * * * * * * * * * * * * //

dimensions      [0 3 -1 0 0 0 0];

oriented        oriented;

internalField   nonuniform List<scalar> 
25905
(
0.00747389
0.000203616
0.00738182
0.00018275
0.00730546
0.000148951
0.00725809
8.91322e-05
0.00725306
4.37566e-06
0.00729147
-8.11886e-05
0.00736018
-0.000140596
0.00744032
-0.000162953
0.00751729
-0.000156593
0.00758456
-0.000137127
0.00764169
-0.000116563
0.00769075
-0.000100017
0.00773351
-8.70873e-05
0.0077712
-7.675e-05
0.00780437
-6.75769e-05
0.00783372
-5.98071e-05
0.00785945
-5.24536e-05
0.00788235
-4.6664e-05
0.00790237
-4.09133e-05
0.00792031
-3.6758e-05
0.00793587
-3.2167e-05
0.00794991
-2.92251e-05
0.00796174
-2.49725e-05
0.00797262
-2.289e-05
0.00798135
-1.83778e-05
0.00798963
-1.6487e-05
0.0079957
-1.09602e-05
0.00800186
-8.69861e-06
0.00800554
-1.04107e-06
0.00801011
2.06613e-06
0.00801175
1.28618e-05
0.00801518
1.65911e-05
0.00801504
2.88845e-05
0.00801804
2.90837e-05
0.00801671
3.86354e-05
0.00802022
3.11514e-05
0.00801846
3.4684e-05
0.00802398
1.5162e-05
0.00802328
7.58591e-06
0.00803302
-3.03094e-05
0.00803586
-5.656e-05
0.00805262
-0.000117441
0.008061
-0.000159477
0.00808469
-0.000230078
0.00809509
-0.000261873
0.0081167
-0.000284425
0.00811383
-0.000197363
0.00810995
-6.163e-05
0.00807096
0.000153688
0.00800489
0.000326514
0.00788873
0.000450495
0.00764368
0.000618839
0.00726548
0.000629287
0.00729476
-0.00014563
0.00754396
-0.00054089
0.00770862
-0.000301134
0.00777757
3.9996e-06
0.0078174
0.000176522
0.00781691
0.000330636
0.00782503
0.000299278
0.00781663
0.000332877
0.00782296
0.000264899
0.00781943
0.000267063
0.0078287
0.000196609
0.00783004
0.000209861
0.00783987
0.000163568
0.00784209
0.000161627
0.00784898
9.42098e-05
0.00784882
5.39089e-05
0.00785084
-1.30205e-05
0.00784661
-4.62152e-05
0.00784273
-8.85762e-05
0.0078336
-0.000103597
0.00782413
-0.000116889
0.00781096
-0.000107259
0.00779785
-9.64711e-05
0.00778297
-7.66513e-05
0.00776886
-6.09058e-05
0.00775457
-4.37596e-05
0.00774158
-3.0298e-05
0.00772921
-1.96996e-05
0.00771797
-1.39015e-05
0.00770753
-1.74638e-05
0.0076977
-2.91018e-05
0.00768863
-5.80523e-05
0.00767978
-9.55132e-05
0.00767179
-0.000156546
0.00766413
-0.000221315
0.007658
-0.000316945
0.00765291
-0.000402751
0.00765036
-0.000531739
0.00765057
-0.000624112
0.00765473
-0.000784013
0.00766455
-0.000855138
0.00767995
-0.00104004
0.0077052
-0.00104228
0.00773798
-0.00124297
0.0077848
-0.00111887
-0.00130213
0.00747389
0.00030548
0.00738182
0.000274828
0.00730546
0.000225304
0.00725808
0.000136514
0.00725304
9.4125e-06
0.00729143
-0.000119576
0.00736014
-0.000209301
0.00744027
-0.000243085
0.00751723
-0.000233559
0.00758451
-0.000204398
0.00764164
-0.000173696
0.0076907
-0.000149079
0.00773346
-0.000129843
0.00777115
-0.000114445
0.00780432
-0.000100746
0.00783367
-8.91602e-05
0.0078594
-7.81804e-05
0.0078823
-6.95612e-05
0.00790232
-6.09365e-05
0.00792027
-5.4703e-05
0.00793582
-4.77227e-05
0.00794987
-4.32704e-05
0.00796169
-3.6796e-05
0.00797257
-3.37721e-05
0.0079813
-2.71082e-05
0.00798958
-2.47655e-05
0.00799565
-1.70302e-05
0.00800182
-1.48618e-05
0.0080055
-4.72523e-06
0.00801007
-2.50476e-06
0.00801171
1.12229e-05
0.00801514
1.31569e-05
0.00801501
2.90213e-05
0.008018
2.60858e-05
0.00801668
3.99635e-05
0.00802019
2.76351e-05
0.00801843
3.64491e-05
0.00802395
9.64083e-06
0.00802324
8.29268e-06
0.00803298
-4.005e-05
0.00803582
-5.9399e-05
0.00805258
-0.000134198
0.00806095
-0.000167853
0.00808465
-0.000253768
0.00809505
-0.000272276
0.00811666
-0.00030604
0.00811381
-0.000194508
0.00810993
-5.77496e-05
0.00807094
0.000192674
0.00800486
0.000392594
0.00788869
0.000566663
0.00764365
0.000863885
0.00726549
0.00100744
0.00729477
-0.000174911
0.00754393
-0.000790049
0.00770858
-0.000465777
0.00777753
-6.4952e-05
0.00781737
0.000136679
0.00781688
0.000331131
0.00782499
0.000291163
0.00781659
0.000341274
0.00782293
0.000258565
0.0078194
0.000270591
0.00782867
0.000187338
0.00783001
0.000208526
0.00783984
0.000153735
0.00784206
0.000159405
0.00784896
8.73153e-05
0.0078488
5.40663e-05
0.00785081
-1.50336e-05
0.00784658
-4.19824e-05
0.0078427
-8.46975e-05
0.00783358
-9.44742e-05
0.0078241
-0.000107416
0.00781094
-9.40928e-05
0.00779783
-8.33592e-05
0.00778295
-6.17732e-05
0.00776883
-4.67891e-05
0.00775455
-2.94781e-05
0.00774155
-1.72987e-05
0.00772919
-7.33624e-06
0.00771794
-2.65816e-06
0.0077075
-7.01656e-06
0.00769766
-1.92695e-05
0.00768859
-4.89795e-05
0.00767973
-8.66531e-05
0.00767173
-0.00014855
0.00766407
-0.000213648
0.00765792
-0.000310796
0.00765282
-0.00039765
0.00765026
-0.000529184
0.00765047
-0.000624317
0.00765462
-0.000788167
0.00766445
-0.000864965
0.00767986
-0.00105545
0.00770514
-0.00106756
0.00773796
-0.00127578
0.00778482
-0.00116574
-0.00136414
0.00747389
0.000407345
0.00738182
0.000366906
0.00730546
0.00030166
0.00725807
0.000183907
0.00725301
1.44702e-05
0.00729137
-0.000157939
0.00736006
-0.000277987
0.00744018
-0.000323209
0.00751715
-0.000310525
0.00758442
-0.000271671
0.00764156
-0.000230832
0.00769062
-0.000198143
0.00773338
-0.0001726
0.00777107
-0.000152142
0.00780424
-0.000133916
0.0078336
-0.000118514
0.00785933
-0.000103908
0.00788223
-9.24596e-05
0.00790225
-8.0961e-05
0.0079202
-7.26493e-05
0.00793575
-6.32797e-05
0.0079498
-5.73168e-05
0.00796162
-4.86206e-05
0.00797251
-4.46552e-05
0.00798124
-3.58396e-05
0.00798952
-3.30448e-05
0.00799559
-2.31011e-05
0.00800175
-2.10258e-05
0.00800544
-8.41057e-06
0.00801001
-7.07715e-06
0.00801165
9.58183e-06
0.00801509
9.71975e-06
0.00801496
2.91549e-05
0.00801796
2.30854e-05
0.00801663
4.12903e-05
0.00802015
2.41187e-05
0.00801838
3.82154e-05
0.0080239
4.12207e-06
0.00802319
9.00303e-06
0.00803292
-4.97863e-05
0.00803576
-6.22329e-05
0.00805251
-0.000150951
0.00806088
-0.000176226
0.00808457
-0.000277459
0.00809498
-0.000282683
0.0081166
-0.000327662
0.00811376
-0.000191662
0.00810989
-5.38776e-05
0.0080709
0.000231661
0.00800482
0.000458672
0.00788864
0.00068284
0.00764361
0.00110892
0.0072655
0.00138555
0.00729479
-0.000204197
0.00754391
-0.00103917
0.00770853
-0.000630397
0.00777748
-0.000133901
0.00781733
9.68268e-05
0.00781683
0.000331628
0.00782494
0.000283052
0.00781654
0.000349668
0.00782289
0.000252223
0.00781936
0.000274117
0.00782863
0.000178067
0.00782997
0.000207191
0.0078398
0.000143898
0.00784203
0.000157177
0.00784893
8.04176e-05
0.00784877
5.42231e-05
0.00785079
-1.70462e-05
0.00784655
-3.77499e-05
0.00784268
-8.08192e-05
0.00783355
-8.53511e-05
0.00782408
-9.79435e-05
0.00781091
-8.09268e-05
0.0077978
-7.02483e-05
0.00778292
-4.68957e-05
0.00776881
-3.26721e-05
0.00775452
-1.51955e-05
0.00774152
-4.29766e-06
0.00772916
5.02936e-06
0.00771791
8.58769e-06
0.00770746
3.43343e-06
0.00769763
-9.43373e-06
0.00768855
-3.99016e-05
0.00767968
-7.77862e-05
0.00767168
-0.000140545
0.007664
-0.000205971
0.00765784
-0.000304634
0.00765272
-0.000392537
0.00765016
-0.000526616
0.00765035
-0.000624514
0.0076545
-0.000792315
0.00766433
-0.000874798
0.00767975
-0.00107087
0.00770506
-0.00109286
0.0077379
-0.00130863
0.00778481
-0.00121265
-0.00142621
0.00747389
0.000509209
0.00738182
0.000458985
0.00730546
0.000378019
0.00725805
0.000231311
0.00725297
1.95492e-05
0.00729131
-0.000196274
0.00735997
-0.000346651
0.00744009
-0.000403322
0.00751705
-0.000387489
0.00758433
-0.000338946
0.00764146
-0.000287969
0.00769053
-0.000247207
0.00773329
-0.000215357
0.00777098
-0.000189839
0.00780415
-0.000167086
0.00783351
-0.00014787
0.00785924
-0.000129637
0.00788214
-0.000115359
0.00790216
-0.000100987
0.00792011
-9.05967e-05
0.00793567
-7.88378e-05
0.00794972
-7.13644e-05
0.00796154
-6.04464e-05
0.00797243
-5.55394e-05
0.00798116
-4.4572e-05
0.00798944
-4.13251e-05
0.00799551
-2.9173e-05
0.00800168
-2.71908e-05
0.00800536
-1.20972e-05
0.00800994
-1.1651e-05
0.00801158
7.93842e-06
0.00801502
6.27979e-06
0.00801489
2.92853e-05
0.00801789
2.00826e-05
0.00801657
4.26159e-05
0.00802008
2.06027e-05
0.00801831
3.99835e-05
0.00802383
-1.39381e-06
0.00802311
9.71772e-06
0.00803285
-5.95175e-05
0.00803567
-6.5061e-05
0.00805242
-0.000167698
0.00806079
-0.000184596
0.00808448
-0.00030115
0.00809489
-0.000293093
0.00811652
-0.000349293
0.00811369
-0.000188827
0.00810983
-5.00151e-05
0.00807084
0.000270647
0.00800476
0.000524748
0.00788858
0.000799021
0.00764356
0.00135394
0.00726551
0.0017636
0.0072948
-0.000233486
0.00754387
-0.00128824
0.00770847
-0.00079499
0.00777741
-0.000202844
0.00781727
5.69661e-05
0.00781677
0.00033213
0.00782487
0.000274945
0.00781649
0.000358057
0.00782284
0.000245871
0.00781932
0.000277638
0.00782859
0.000168795
0.00782992
0.000205856
0.00783976
0.000134057
0.007842
0.000154943
0.0078489
7.3516e-05
0.00784875
5.43787e-05
0.00785076
-1.90588e-05
0.00784653
-3.35179e-05
0.00784265
-7.6941e-05
0.00783352
-7.62279e-05
0.00782405
-8.84704e-05
0.00781089
-6.77613e-05
0.00779777
-5.71379e-05
0.0077829
-3.20185e-05
0.00776878
-1.85543e-05
0.0077545
-9.11551e-07
0.00774149
8.70549e-06
0.00772912
1.73973e-05
0.00771788
1.9836e-05
0.00770742
1.38862e-05
0.00769758
4.05525e-07
0.0076885
-3.08185e-05
0.00767963
-6.89123e-05
0.00767161
-0.00013253
0.00766392
-0.000198282
0.00765775
-0.000298459
0.00765262
-0.000387411
0.00765004
-0.000524035
0.00765023
-0.000624702
0.00765437
-0.000796457
0.00766421
-0.000884633
0.00767963
-0.0010863
0.00770496
-0.00111819
0.00773783
-0.0013415
0.00778479
-0.0012596
-0.00148833
0.00747389
0.000611073
0.00738182
0.000551063
0.00730546
0.000454379
0.00725804
0.000278723
0.00725294
2.46498e-05
0.00729125
-0.000234581
0.00735989
-0.000415291
0.00743999
-0.000483422
0.00751695
-0.000464449
0.00758422
-0.000406221
0.00764136
-0.000345106
0.00769042
-0.000296271
0.00773318
-0.000258113
0.00777088
-0.000227535
0.00780405
-0.000200257
0.0078334
-0.000177225
0.00785913
-0.000155367
0.00788203
-0.000138259
0.00790206
-0.000121013
0.00792001
-0.000108545
0.00793557
-9.43969e-05
0.00794962
-8.5413e-05
0.00796144
-7.22731e-05
0.00797233
-6.64244e-05
0.00798106
-5.33054e-05
0.00798934
-4.96061e-05
0.00799541
-3.52457e-05
0.00800158
-3.33567e-05
0.00800527
-1.57849e-05
0.00800984
-1.62264e-05
0.00801149
6.29286e-06
0.00801493
2.83703e-06
0.0080148
2.94128e-05
0.00801781
1.70775e-05
0.00801649
4.39406e-05
0.00802
1.70873e-05
0.00801823
4.17538e-05
0.00802374
-6.90642e-06
0.00802302
1.04373e-05
0.00803275
-6.92432e-05
0.00803557
-6.78826e-05
0.00805231
-0.000184441
0.00806068
-0.000192961
0.00808437
-0.000324841
0.00809478
-0.000303508
0.00811642
-0.000370933
0.0081136
-0.000186002
0.00810975
-4.61634e-05
0.00807076
0.000309632
0.00800469
0.000590818
0.00788851
0.000915204
0.00764351
0.00159895
0.00726552
0.00214158
0.00729482
-0.000262778
0.00754384
-0.00153726
0.0077084
-0.000959551
0.00777733
-0.000271777
0.0078172
1.70983e-05
0.00781669
0.000332634
0.0078248
0.000266841
0.00781641
0.000366439
0.00782278
0.000239508
0.00781926
0.000281153
0.00782854
0.000159522
0.00782987
0.00020452
0.00783972
0.000124211
0.00784196
0.000152702
0.00784887
6.66098e-05
0.00784871
5.45326e-05
0.00785072
-2.10718e-05
0.00784649
-2.92866e-05
0.00784262
-7.30633e-05
0.00783349
-6.71047e-05
0.00782402
-7.8997e-05
0.00781085
-5.45961e-05
0.00779774
-4.40281e-05
0.00778287
-1.71414e-05
0.00776875
-4.43559e-06
0.00775446
1.33741e-05
0.00774146
2.17108e-05
0.00772908
2.97677e-05
0.00771783
3.10869e-05
0.00770738
2.43416e-05
0.00769754
1.02483e-05
0.00768845
-2.17303e-05
0.00767957
-6.00312e-05
0.00767154
-0.000124505
0.00766384
-0.000190581
0.00765765
-0.00029227
0.00765251
-0.000382271
0.00764992
-0.000521439
0.0076501
-0.000624881
0.00765423
-0.000800591
0.00766407
-0.000894471
0.0076795
-0.00110174
0.00770485
-0.00114353
0.00773775
-0.00137441
0.00778475
-0.0013066
-0.0015505
0.00747389
0.000712937
0.00738182
0.000643141
0.00730545
0.00053074
0.00725803
0.000326143
0.00725291
2.97715e-05
0.00729119
-0.000272857
0.0073598
-0.000483905
0.00743989
-0.000563506
0.00751684
-0.000541403
0.00758411
-0.000473493
0.00764125
-0.000402242
0.00769031
-0.000345333
0.00773307
-0.000300868
0.00777076
-0.000265231
0.00780393
-0.000233426
0.00783328
-0.00020658
0.00785901
-0.000181096
0.00788191
-0.000161159
0.00790194
-0.00014104
0.00791989
-0.000126494
0.00793545
-0.000109957
0.0079495
-9.94624e-05
0.00796133
-8.41008e-05
0.00797221
-7.73103e-05
0.00798095
-6.20396e-05
0.00798923
-5.7888e-05
0.0079953
-4.13193e-05
0.00800147
-3.95234e-05
0.00800516
-1.94738e-05
0.00800974
-2.08033e-05
0.00801138
4.64513e-06
0.00801483
-6.08472e-07
0.0080147
2.95374e-05
0.00801771
1.40703e-05
0.00801639
4.52647e-05
0.0080199
1.35726e-05
0.00801813
4.35266e-05
0.00802364
-1.24153e-05
0.00802291
1.11625e-05
0.00803263
-7.89628e-05
0.00803545
-7.06969e-05
0.00805218
-0.000201178
0.00806054
-0.000201321
0.00808423
-0.000348531
0.00809465
-0.000313926
0.0081163
-0.000392583
0.00811349
-0.000183188
0.00810965
-4.23234e-05
0.00807066
0.000348615
0.0080046
0.000656879
0.00788842
0.00103138
0.00764345
0.00184392
0.00726554
0.00251949
0.00729483
-0.000292073
0.00754379
-0.00178622
0.00770832
-0.00112408
0.00777724
-0.000340697
0.00781711
-2.27753e-05
0.0078166
0.000333142
0.00782471
0.000258738
0.00781633
0.000374815
0.00782271
0.000233131
0.0078192
0.000284662
0.00782847
0.000150247
0.00782981
0.000203182
0.00783966
0.00011436
0.00784191
0.000150452
0.00784883
5.96981e-05
0.00784867
5.46842e-05
0.00785069
-2.30854e-05
0.00784646
-2.50561e-05
0.00784258
-6.91859e-05
0.00783346
-5.79814e-05
0.00782398
-6.95232e-05
0.00781082
-4.1431e-05
0.00779771
-3.09183e-05
0.00778283
-2.2638e-06
0.00776871
9.68455e-06
0.00775442
2.76618e-05
0.00774141
3.47184e-05
0.00772904
4.21406e-05
0.00771779
4.23403e-05
0.00770733
3.47998e-05
0.00769748
2.00944e-05
0.00768839
-1.26369e-05
0.0076795
-5.11428e-05
0.00767147
-0.00011647
0.00766375
-0.000182869
0.00765755
-0.000286066
0.0076524
-0.000377117
0.00764979
-0.000518829
0.00764995
-0.000625049
0.00765408
-0.000804715
0.00766392
-0.00090431
0.00767935
-0.00111717
0.00770472
-0.0011689
0.00773765
-0.00140733
0.00778469
-0.00135364
-0.00161273
0.00747389
0.0008148
0.00738182
0.00073522
0.00730545
0.000607101
0.00725803
0.00037357
0.00725289
3.49144e-05
0.00729113
-0.000311102
0.00735971
-0.000552489
0.00743978
-0.000643572
0.00751673
-0.000618348
0.00758399
-0.000540762
0.00764113
-0.000459374
0.00769019
-0.000394391
0.00773294
-0.000343619
0.00777063
-0.000302923
0.0078038
-0.000266594
0.00783315
-0.000235933
0.00785888
-0.000206824
0.00788178
-0.000184059
0.00790181
-0.000161067
0.00791976
-0.000144443
0.00793532
-0.000125517
0.00794937
-0.000113512
0.0079612
-9.59291e-05
0.00797208
-8.81968e-05
0.00798082
-7.07744e-05
0.0079891
-6.61705e-05
0.00799517
-4.73936e-05
0.00800134
-4.5691e-05
0.00800503
-2.31636e-05
0.00800961
-2.53816e-05
0.00801126
2.99541e-06
0.00801471
-4.05663e-06
0.00801459
2.96593e-05
0.0080176
1.10611e-05
0.00801627
4.65884e-05
0.00801979
1.00591e-05
0.00801801
4.53025e-05
0.00802351
-1.79201e-05
0.00802278
1.18939e-05
0.0080325
-8.86757e-05
0.0080353
-7.35032e-05
0.00805203
-0.000217908
0.00806039
-0.000209676
0.00808408
-0.000372222
0.0080945
-0.000324347
0.00811616
-0.000414242
0.00811336
-0.000180386
0.00810953
-3.84964e-05
0.00807055
0.000387596
0.0080045
0.00072293
0.00788832
0.00114756
0.00764338
0.00208887
0.00726555
0.00289731
0.00729485
-0.00032137
0.00754375
-0.00203511
0.00770823
-0.00128857
0.00777714
-0.0004096
0.00781701
-6.26531e-05
0.0078165
0.000333655
0.0078246
0.000250636
0.00781624
0.000383181
0.00782263
0.00022674
0.00781913
0.000288163
0.00782841
0.000140968
0.00782975
0.000201842
0.0078396
0.000104501
0.00784186
0.000148194
0.00784878
5.27805e-05
0.00784863
5.48329e-05
0.00785065
-2.51001e-05
0.00784642
-2.08264e-05
0.00784254
-6.53089e-05
0.00783342
-4.88579e-05
0.00782394
-6.0049e-05
0.00781078
-2.8266e-05
0.00779767
-1.78086e-05
0.00778279
1.26144e-05
0.00776867
2.38064e-05
0.00775438
4.19515e-05
0.00774137
4.77284e-05
0.00772899
5.4516e-05
0.00771773
5.35961e-05
0.00770727
4.52607e-05
0.00769742
2.99441e-05
0.00768833
-3.53812e-06
0.00767943
-4.2247e-05
0.00767138
-0.000108425
0.00766366
-0.000175144
0.00765744
-0.000279848
0.00765227
-0.000371948
0.00764965
-0.000516203
0.0076498
-0.000625205
0.00765392
-0.000808829
0.00766375
-0.000914148
0.0076792
-0.00113261
0.00770458
-0.00119428
0.00773753
-0.00144029
0.00778461
-0.00140071
-0.001675
0.00747389
0.000916664
0.00738182
0.000827297
0.00730546
0.000683462
0.00725802
0.000421002
0.00725286
4.0078e-05
0.00729107
-0.000349313
0.00735962
-0.000621042
0.00743967
-0.000723618
0.00751661
-0.000695283
0.00758387
-0.000608024
0.007641
-0.000516502
0.00769005
-0.000443446
0.0077328
-0.000386367
0.00777049
-0.000340613
0.00780365
-0.00029976
0.00783301
-0.000265285
0.00785873
-0.000232552
0.00788163
-0.000206959
0.00790166
-0.000181094
0.00791961
-0.000162393
0.00793517
-0.000141078
0.00794922
-0.000127563
0.00796105
-0.000107758
0.00797194
-9.9084e-05
0.00798067
-7.95099e-05
0.00798895
-7.44536e-05
0.00799503
-5.34686e-05
0.0080012
-5.18594e-05
0.00800489
-2.68546e-05
0.00800947
-2.99613e-05
0.00801112
1.34374e-06
0.00801457
-7.50743e-06
0.00801445
2.97787e-05
0.00801746
8.05001e-06
0.00801614
4.79119e-05
0.00801965
6.54677e-06
0.00801787
4.70819e-05
0.00802337
-2.34203e-05
0.00802263
1.26321e-05
0.00803234
-9.83814e-05
0.00803514
-7.63008e-05
0.00805186
-0.000234632
0.00806021
-0.000218026
0.0080839
-0.000395912
0.00809433
-0.000334772
0.008116
-0.000435913
0.00811321
-0.000177596
0.00810939
-3.46834e-05
0.00807042
0.000426574
0.00800438
0.000788966
0.00788821
0.00126372
0.0076433
0.00233378
0.00726557
0.00327505
0.00729486
-0.000350668
0.00754369
-0.00228394
0.00770814
-0.00145301
0.00777702
-0.000478482
0.0078169
-0.000102534
0.00781638
0.000334172
0.00782448
0.000242534
0.00781613
0.000391536
0.00782254
0.000220333
0.00781905
0.000291654
0.00782833
0.000131684
0.00782967
0.000200498
0.00783954
9.46356e-05
0.00784181
0.000145927
0.00784873
4.5856e-05
0.00784859
5.49784e-05
0.0078506
-2.71162e-05
0.00784637
-1.65979e-05
0.0078425
-6.14322e-05
0.00783337
-3.97341e-05
0.0078239
-5.05742e-05
0.00781073
-1.51008e-05
0.00779762
-4.69846e-06
0.00778274
2.74937e-05
0.00776862
3.79301e-05
0.00775433
5.62438e-05
0.00774131
6.0741e-05
0.00772894
6.6894e-05
0.00771768
6.48544e-05
0.00770721
5.57241e-05
0.00769736
3.97972e-05
0.00768826
5.56598e-06
0.00767935
-3.33436e-05
0.0076713
-0.00010037
0.00766356
-0.000167406
0.00765733
-0.000273615
0.00765214
-0.000366763
0.0076495
-0.00051356
0.00764964
-0.000625348
0.00765375
-0.000812932
0.00766358
-0.000923983
0.00767902
-0.00114806
0.00770442
-0.00121968
0.0077374
-0.00147326
0.00778451
-0.00144783
-0.00173732
0.00747389
0.00101853
0.00738182
0.000919374
0.00730546
0.000759822
0.00725802
0.000468438
0.00725284
4.52623e-05
0.00729101
-0.00038749
0.00735953
-0.000689561
0.00743956
-0.000803641
0.00751648
-0.000772206
0.00758373
-0.00067528
0.00764086
-0.000573624
0.0076899
-0.000492494
0.00773265
-0.00042911
0.00777033
-0.000378299
0.0078035
-0.000332922
0.00783285
-0.000294635
0.00785857
-0.000258278
0.00788147
-0.000229857
0.0079015
-0.00020112
0.00791944
-0.000180342
0.00793501
-0.000156639
0.00794906
-0.000141614
0.00796089
-0.000119587
0.00797177
-0.000109972
0.00798051
-8.82458e-05
0.00798879
-8.27372e-05
0.00799487
-5.95441e-05
0.00800104
-5.80285e-05
0.00800473
-3.05464e-05
0.00800931
-3.45423e-05
0.00801096
-3.09759e-07
0.00801442
-1.09607e-05
0.0080143
2.98957e-05
0.00801731
5.03716e-06
0.00801599
4.92356e-05
0.0080195
3.03601e-06
0.00801772
4.88652e-05
0.00802321
-2.89156e-05
0.00802247
1.33777e-05
0.00803216
-0.000108079
0.00803495
-7.90891e-05
0.00805167
-0.000251348
0.00806001
-0.000226369
0.0080837
-0.000419602
0.00809413
-0.000345201
0.00811581
-0.000457595
0.00811304
-0.000174819
0.00810924
-3.08857e-05
0.00807026
0.000465548
0.00800424
0.000854987
0.00788809
0.00137988
0.00764322
0.00257865
0.00726558
0.00365269
0.00729488
-0.000379968
0.00754364
-0.0025327
0.00770803
-0.00161741
0.00777689
-0.00054734
0.00781677
-0.000142416
0.00781625
0.000334695
0.00782435
0.000234431
0.00781601
0.00039988
0.00782244
0.000213907
0.00781895
0.000295135
0.00782824
0.000122395
0.00782959
0.00019915
0.00783947
8.47616e-05
0.00784174
0.00014365
0.00784868
3.89242e-05
0.00784853
5.512e-05
0.00785055
-2.91341e-05
0.00784632
-1.23704e-05
0.00784245
-5.75559e-05
0.00783332
-3.06099e-05
0.00782385
-4.10988e-05
0.00781068
-1.93523e-06
0.00779757
8.41221e-06
0.00778269
4.23742e-05
0.00776856
5.20561e-05
0.00775427
7.05386e-05
0.00774125
7.37562e-05
0.00772887
7.92745e-05
0.00771761
7.61152e-05
0.00770715
6.61902e-05
0.00769729
4.96537e-05
0.00768818
1.46755e-05
0.00767927
-2.44326e-05
0.0076712
-9.23041e-05
0.00766345
-0.000159656
0.0076572
-0.000267365
0.007652
-0.000361563
0.00764934
-0.0005109
0.00764947
-0.000625478
0.00765356
-0.000817022
0.0076634
-0.000933816
0.00767884
-0.0011635
0.00770425
-0.0012451
0.00773725
-0.00150625
0.0077844
-0.00149499
-0.00179969
0.00747389
0.00112039
0.00738182
0.00101145
0.00730546
0.000836179
0.00725802
0.000515878
0.00725282
5.04669e-05
0.00729096
-0.00042563
0.00735944
-0.000758044
0.00743944
-0.00088364
0.00751635
-0.000849115
0.00758359
-0.000742526
0.00764071
-0.000630738
0.00768975
-0.000541535
0.00773249
-0.000471846
0.00777017
-0.000415979
0.00780332
-0.00036608
0.00783267
-0.000323981
0.00785839
-0.000284001
0.00788129
-0.000252754
0.00790132
-0.000221145
0.00791927
-0.00019829
0.00793483
-0.0001722
0.00794888
-0.000155665
0.00796071
-0.000131417
0.00797159
-0.00012086
0.00798033
-9.69822e-05
0.00798861
-9.10213e-05
0.00799469
-6.56202e-05
0.00800086
-6.41983e-05
0.00800455
-3.42391e-05
0.00800914
-3.91247e-05
0.00801079
-1.96502e-06
0.00801425
-1.44165e-05
0.00801413
3.00105e-05
0.00801715
2.02269e-06
0.00801582
5.05598e-05
0.00801933
-4.72929e-07
0.00801754
5.06527e-05
0.00802303
-3.44056e-05
0.00802228
1.41313e-05
0.00803197
-0.000117769
0.00803475
-8.18673e-05
0.00805146
-0.000268057
0.00805979
-0.000234706
0.00808348
-0.000443292
0.00809392
-0.000355634
0.00811561
-0.000479288
0.00811285
-0.000172055
0.00810906
-2.71044e-05
0.00807009
0.000504518
0.00800409
0.000920989
0.00788796
0.00149601
0.00764313
0.00282347
0.0072656
0.00403023
0.0072949
-0.000409268
0.00754358
-0.00278137
0.00770792
-0.00178176
0.00777675
-0.000616169
0.00781663
-0.000182297
0.0078161
0.000335223
0.00782421
0.000226326
0.00781588
0.00040821
0.00782232
0.000207461
0.00781885
0.000298604
0.00782815
0.0001131
0.0078295
0.000197797
0.00783939
7.48787e-05
0.00784167
0.000141361
0.00784861
3.19843e-05
0.00784848
5.52573e-05
0.0078505
-3.11541e-05
0.00784627
-8.14426e-06
0.0078424
-5.36799e-05
0.00783327
-2.14853e-05
0.00782379
-3.16226e-05
0.00781063
1.12309e-05
0.00779752
2.15237e-05
0.00778263
5.72564e-05
0.00776851
6.61848e-05
0.00775421
8.48364e-05
0.00774119
8.67742e-05
0.00772881
9.16577e-05
0.00771754
8.73783e-05
0.00770707
7.66589e-05
0.00769721
5.95137e-05
0.0076881
2.37905e-05
0.00767918
-1.55137e-05
0.0076711
-8.42272e-05
0.00766334
-0.000151892
0.00765707
-0.0002611
0.00765186
-0.000356345
0.00764918
-0.000508222
0.00764929
-0.000625592
0.00765337
-0.000821098
0.0076632
-0.000943643
0.00767864
-0.00117894
0.00770407
-0.00127053
0.00773708
-0.00153927
0.00778427
-0.00154218
-0.00186211
0.00747389
0.00122225
0.00738182
0.00110353
0.00730547
0.000912533
0.00725802
0.000563319
0.0072528
5.5692e-05
0.0072909
-0.000463732
0.00735935
-0.000826487
0.00743932
-0.000963611
0.00751621
-0.000926008
0.00758344
-0.000809762
0.00764055
-0.000687842
0.00768958
-0.000590568
0.00773231
-0.000514576
0.00776999
-0.000453653
0.00780314
-0.000399234
0.00783248
-0.000353324
0.0078582
-0.000309722
0.0078811
-0.000275649
0.00790112
-0.000241169
0.00791907
-0.000216238
0.00793463
-0.00018776
0.00794868
-0.000169715
0.00796051
-0.000143246
0.0079714
-0.000131748
0.00798013
-0.000105719
0.00798842
-9.93057e-05
0.0079945
-7.16966e-05
0.00800067
-7.03687e-05
0.00800436
-3.79325e-05
0.00800894
-4.37083e-05
0.0080106
-3.62185e-06
0.00801406
-1.78746e-05
0.00801395
3.01233e-05
0.00801696
-9.93178e-07
0.00801564
5.18846e-05
0.00801914
-3.97987e-06
0.00801735
5.2445e-05
0.00802284
-3.98899e-05
0.00802207
1.48935e-05
0.00803175
-0.00012745
0.00803452
-8.46348e-05
0.00805122
-0.000284757
0.00805955
-0.000243036
0.00808324
-0.000466982
0.00809368
-0.000366071
0.00811538
-0.000500995
0.00811263
-0.000169304
0.00810887
-2.33407e-05
0.00806991
0.000543482
0.00800393
0.000986969
0.00788781
0.00161213
0.00764304
0.00306824
0.00726562
0.00440765
0.00729492
-0.000438569
0.00754351
-0.00302996
0.0077078
-0.00194605
0.0077766
-0.000684966
0.00781648
-0.000222176
0.00781595
0.000335757
0.00782405
0.00021822
0.00781574
0.000416526
0.0078222
0.000200995
0.00781875
0.000302061
0.00782805
0.000103798
0.00782941
0.000196439
0.0078393
6.4986e-05
0.0078416
0.000139062
0.00784855
2.50355e-05
0.00784842
5.53896e-05
0.00785044
-3.31765e-05
0.00784621
-3.91948e-06
0.00784234
-4.98043e-05
0.00783321
-1.23601e-05
0.00782374
-2.21456e-05
0.00781057
2.43975e-05
0.00779746
3.46362e-05
0.00778257
7.21406e-05
0.00776844
8.03163e-05
0.00775414
9.91372e-05
0.00774112
9.97951e-05
0.00772873
0.000104044
0.00771747
9.86438e-05
0.007707
8.71302e-05
0.00769713
6.93772e-05
0.00768801
3.2911e-05
0.00767908
-6.58681e-06
0.007671
-7.61394e-05
0.00766322
-0.000144115
0.00765694
-0.000254818
0.0076517
-0.00035111
0.00764901
-0.000505525
0.0076491
-0.000625691
0.00765317
-0.00082516
0.00766299
-0.000953464
0.00767842
-0.00119437
0.00770386
-0.00129597
0.0077369
-0.0015723
0.00778412
-0.00158941
-0.00192457
0.0074739
0.00132412
0.00738182
0.0011956
0.00730547
0.000988883
0.00725803
0.000610761
0.00725278
6.09372e-05
0.00729085
-0.000501795
0.00735925
-0.00089489
0.00743919
-0.00104355
0.00751606
-0.00100288
0.00758329
-0.000876985
0.00764038
-0.000744936
0.00768941
-0.000639592
0.00773213
-0.000557296
0.00776979
-0.000491321
0.00780294
-0.000432382
0.00783228
-0.000382663
0.007858
-0.000335439
0.00788089
-0.000298541
0.00790091
-0.000261191
0.00791886
-0.000234185
0.00793442
-0.000203319
0.00794847
-0.000183766
0.0079603
-0.000155076
0.00797119
-0.000142636
0.00797992
-0.000114455
0.00798821
-0.00010759
0.00799428
-7.77733e-05
0.00800045
-7.65396e-05
0.00800415
-4.16266e-05
0.00800873
-4.82931e-05
0.00801039
-5.28026e-06
0.00801385
-2.1335e-05
0.00801374
3.02341e-05
0.00801676
-4.0104e-06
0.00801543
5.32103e-05
0.00801894
-7.48451e-06
0.00801714
5.42425e-05
0.00802262
-4.5368e-05
0.00802185
1.5665e-05
0.00803152
-0.000137122
0.00803427
-8.73908e-05
0.00805097
-0.000301449
0.00805929
-0.000251359
0.00808298
-0.000490671
0.00809342
-0.000376511
0.00811514
-0.000522715
0.0081124
-0.000166567
0.00810866
-1.95957e-05
0.0080697
0.000582439
0.00800374
0.00105292
0.00788765
0.00172822
0.00764294
0.00331296
0.00726564
0.00478495
0.00729494
-0.00046787
0.00754344
-0.00327846
0.00770768
-0.00211029
0.00777644
-0.000753726
0.00781631
-0.000262052
0.00781577
0.000336297
0.00782388
0.00021011
0.00781558
0.000424826
0.00782207
0.000194505
0.00781863
0.000305504
0.00782794
9.44872e-05
0.0078293
0.000195074
0.00783921
5.5083e-05
0.00784152
0.00013675
0.00784848
1.80774e-05
0.00784835
5.55166e-05
0.00785037
-3.52017e-05
0.00784615
3.03866e-07
0.00784228
-4.5929e-05
0.00783315
-3.23418e-06
0.00782367
-1.26676e-05
0.0078105
3.75651e-05
0.00779739
4.775e-05
0.0077825
8.70272e-05
0.00776837
9.4451e-05
0.00775406
0.000113441
0.00774104
0.000112819
0.00772865
0.000116432
0.00771738
0.000109912
0.00770691
9.7604e-05
0.00769704
7.92441e-05
0.00768792
4.20371e-05
0.00767898
2.34818e-06
0.00767088
-6.80402e-05
0.00766309
-0.000136323
0.00765679
-0.000248519
0.00765154
-0.000345856
0.00764882
-0.000502809
0.00764891
-0.000625773
0.00765295
-0.000829206
0.00766276
-0.000963277
0.0076782
-0.00120981
0.00770365
-0.00132142
0.0077367
-0.00160534
0.00778396
-0.00163667
-0.00198708
0.0074739
0.00142598
0.00738182
0.00128767
0.00730548
0.00106523
0.00725804
0.000658203
0.00725277
6.62026e-05
0.00729079
-0.000539816
0.00735915
-0.000963249
0.00743906
-0.00112346
0.00751591
-0.00107974
0.00758312
-0.000944194
0.0076402
-0.000802018
0.00768922
-0.000688604
0.00773193
-0.000600007
0.00776959
-0.00052898
0.00780273
-0.000465523
0.00783206
-0.000411996
0.00785778
-0.000361153
0.00788067
-0.000321431
0.00790069
-0.000281211
0.00791863
-0.00025213
0.00793419
-0.000218878
0.00794824
-0.000197815
0.00796007
-0.000166905
0.00797096
-0.000153524
0.00797969
-0.000123192
0.00798798
-0.000115875
0.00799406
-8.38501e-05
0.00800023
-8.2711e-05
0.00800392
-4.53212e-05
0.00800851
-5.28791e-05
0.00801017
-6.94003e-06
0.00801363
-2.47975e-05
0.00801352
3.03433e-05
0.00801654
-7.02876e-06
0.00801521
5.45373e-05
0.00801871
-1.09866e-05
0.00801691
5.60455e-05
0.00802238
-5.08396e-05
0.0080216
1.64464e-05
0.00803126
-0.000146783
0.00803401
-9.01346e-05
0.00805069
-0.000318132
0.008059
-0.000259673
0.00808269
-0.000514361
0.00809314
-0.000386956
0.00811487
-0.000544449
0.00811215
-0.000163846
0.00810842
-1.5871e-05
0.00806947
0.000621389
0.00800355
0.00111885
0.00788748
0.00184428
0.00764283
0.00355761
0.00726566
0.00516212
0.00729496
-0.000497171
0.00754337
-0.00352687
0.00770754
-0.00227446
0.00777626
-0.000822446
0.00781613
-0.000301922
0.00781558
0.000336845
0.0078237
0.000201997
0.00781541
0.000433109
0.00782193
0.000187992
0.0078185
0.000308932
0.00782782
8.51678e-05
0.00782919
0.000193702