/*--------------------------------*- C++ -*----------------------------------*\
| =========                 |                                                 |
| \\      /  F ield         | OpenFOAM: The Open Source CFD Toolbox           |
|  \\    /   O peration     | Version:  2412                                  |
|   \\  /    A nd           | Website:  www.openfoam.com                      |
|    \\/     M anipulation  |                                                 |
\*---------------------------------------------------------------------------*/
FoamFile
{
    version     2.0;
    format      ascii;
    arch        "LSB;label=32;scalar=64";
    class       volVectorField;
    location    "0.4";
    object      U;
}
// * * * * * * * * * * * * * * * * * * * * * * * * * * * * * * * * * * * * * //

dimensions      [0 1 -1 0 0 0 0];

internalField   nonuniform List<vector> 
13068
(
(100.007 -0.00497365 0)
(100.125 -0.0161263 -7.16097e-19)
(100.42 -0.0340483 -3.42809e-19)
(100.996 -0.0651576 0)
(102.141 -0.108964 0)
(103.985 -0.153785 0)
(106.492 -0.186347 -8.78066e-19)
(109.377 -0.201054 5.87337e-19)
(112.418 -0.201784 0)
(115.416 -0.195936 5.94893e-19)
(118.383 -0.189519 -2.96021e-19)
(121.284 -0.185007 -2.91943e-19)
(124.223 -0.182391 -5.72929e-19)
(127.142 -0.181077 0)
(130.158 -0.180479 0)
(133.16 -0.180613 0)
(136.308 -0.181194 0)
(139.438 -0.182504 -5.06708e-19)
(142.777 -0.184136 -2.46922e-19)
(146.079 -0.186536 2.3987e-19)
(149.667 -0.189082 7.0047e-19)
(153.183 -0.19243 -6.78688e-19)
(157.085 -0.195638 2.19925e-19)
(160.855 -0.199678 0)
(165.145 -0.203205 2.06163e-19)
(169.211 -0.207658 -3.96425e-19)
(173.979 -0.211127 -1.9219e-19)
(178.386 -0.215676 -3.67477e-19)
(183.745 -0.218612 -3.5599e-19)
(188.544 -0.222825 3.37777e-19)
(194.64 -0.224809 -1.63573e-19)
(199.887 -0.228991 -1.53625e-19)
(206.911 -0.231433 0)
(212.678 -0.238241 0)
(220.885 -0.244293 2.68166e-19)
(227.265 -0.256576 -1.21684e-19)
(236.998 -0.268995 0)
(244.122 -0.289495 3.14983e-19)
(255.856 -0.312423 2.08402e-19)
(263.934 -0.345533 2.63612e-19)
(278.332 -0.384764 -2.68494e-19)
(287.713 -0.433954 -7.0462e-20)
(305.674 -0.489015 0)
(316.842 -0.546921 0)
(339.43 -0.602877 -1.24356e-19)
(352.869 -0.632975 0)
(381.044 -0.620437 -1.4836e-19)
(396.986 -0.551714 -1.5485e-20)
(431.281 -0.464666 0)
(450.228 -0.383961 0)
(489.881 -0.370809 -4.61754e-20)
(511.935 -0.331654 0)
(545.483 -0.459744 1.26033e-20)
(565.324 -0.037495 1.47851e-20)
(543.008 0.151399 1.87078e-20)
(537.166 0.295183 0)
(504.56 0.434654 0)
(490.464 0.526137 -6.68844e-20)
(459.349 0.588186 1.11349e-20)
(444.652 0.558622 -8.46839e-21)
(418.968 0.554188 0)
(405.809 0.504094 -1.59144e-20)
(385.119 0.485491 -2.56715e-20)
(373.496 0.434326 0)
(356.713 0.426758 0)
(346.305 0.390901 9.30504e-20)
(332.379 0.375858 0)
(322.874 0.325732 0)
(311.026 0.287481 0)
(302.25 0.237521 1.05257e-19)
(291.953 0.205487 -1.20652e-19)
(283.799 0.171391 1.86733e-19)
(274.688 0.152501 0)
(267.102 0.137566 0)
(258.951 0.136023 1.54354e-19)
(251.934 0.137375 -1.60862e-19)
(244.625 0.143785 8.56523e-20)
(238.207 0.149025 0)
(231.661 0.154877 1.87985e-19)
(225.848 0.159363 9.77426e-20)
(219.979 0.161715 -2.04221e-19)
(214.738 0.161605 0)
(209.443 0.155246 1.10085e-19)
(204.715 0.144026 -3.42584e-19)
(199.883 0.121487 0)
(195.615 0.0936825 3.67505e-19)
(191.156 0.0505176 -3.78618e-19)
(187.318 0.0053571 -2.62143e-19)
(183.169 -0.0598309 0)
(179.764 -0.118169 0)
(175.895 -0.204536 -4.29861e-19)
(172.957 -0.266217 1.49604e-19)
(169.37 -0.372043 0)
(166.961 -0.4185 1.59802e-19)
(163.688 -0.539872 -1.61847e-19)
(161.895 -0.539536 5.11429e-19)
(158.992 -0.670223 3.42335e-19)
(157.924 -0.585643 -1.80856e-19)
(155.412 -0.702181 0)
(100.007 -0.00823937 0)
(100.125 -0.0262567 2.14813e-18)
(100.42 -0.0550909 0)
(100.996 -0.106113 0)
(102.141 -0.179097 -1.2283e-18)
(103.985 -0.254366 0)
(106.491 -0.309175 5.85346e-19)
(109.376 -0.333902 -5.87301e-19)
(112.417 -0.335129 0)
(115.416 -0.325415 -5.94862e-19)
(118.382 -0.314847 0)
(121.283 -0.307504 0)
(124.223 -0.303284 5.72912e-19)
(127.142 -0.301191 0)
(130.157 -0.300247 0)
(133.159 -0.300531 0)
(136.307 -0.301544 0)
(139.437 -0.303785 5.06698e-19)
(142.776 -0.306505 0)
(146.078 -0.310505 -4.79731e-19)
(149.666 -0.314666 -4.66971e-19)
(153.182 -0.32021 4.52451e-19)
(157.084 -0.325472 8.79687e-19)
(160.854 -0.332294 0)
(165.144 -0.338265 4.1232e-19)
(169.21 -0.346126 3.96419e-19)
(173.978 -0.352401 3.84373e-19)
(178.385 -0.361073 1.10241e-18)
(183.744 -0.367168 1.06795e-18)
(188.543 -0.376366 3.37772e-19)
(194.639 -0.381872 0)
(199.887 -0.392108 0)
(206.91 -0.398478 0)
(212.677 -0.412717 5.5155e-19)
(220.884 -0.423211 2.68161e-19)
(227.264 -0.444674 -4.86728e-19)
(236.997 -0.462239 0)
(244.121 -0.494199 -2.09985e-19)
(255.855 -0.523463 -2.08398e-19)
(263.933 -0.571046 -1.75738e-19)
(278.331 -0.618512 1.78992e-19)
(287.711 -0.6857 1.40921e-19)
(305.672 -0.751133 -3.01636e-19)
(316.84 -0.829719 0)
(339.428 -0.896799 -1.24352e-19)
(352.867 -0.946865 1.39425e-19)
(381.043 -0.943015 9.89054e-20)
(396.985 -0.888398 0)
(431.28 -0.808411 -1.44928e-19)
(450.227 -0.727163 -2.36224e-20)
(489.879 -0.715967 4.61742e-20)
(511.932 -0.610574 0)
(545.482 -0.709142 -7.56078e-20)
(565.327 -0.0251497 9.85678e-21)
(543.007 0.270767 -3.85043e-25)
(537.163 0.479728 -8.23218e-20)
(504.557 0.66277 0)
(490.462 0.765592 4.45882e-20)
(459.347 0.837092 0)
(444.65 0.79396 -1.69367e-20)
(418.966 0.786324 0)
(405.807 0.71957 1.06093e-20)
(385.117 0.696192 0)
(373.495 0.630404 0)
(356.712 0.618929 6.86458e-20)
(346.303 0.5719 -6.20335e-20)
(332.378 0.554285 8.61646e-20)
(322.873 0.495969 -8.45615e-20)
(311.026 0.455851 0)
(302.249 0.399772 -6.31566e-25)
(291.953 0.366231 1.20651e-19)
(283.798 0.327499 -2.48974e-19)
(274.687 0.307097 0)
(267.101 0.288283 1.42863e-19)
(258.95 0.284738 -1.54353e-19)
(251.934 0.282256 1.60862e-19)
(244.624 0.285864 1.71303e-19)
(238.207 0.287094 0)
(231.661 0.289541 -1.87985e-19)
(225.847 0.290053 1.95484e-19)
(219.979 0.288816 2.04221e-19)
(214.737 0.285139 0)
(209.442 0.275395 2.20167e-19)
(204.714 0.261216 2.28388e-19)
(199.882 0.235567 0)
(195.614 0.205313 -4.9e-19)
(191.155 0.159133 5.04817e-19)
(187.316 0.111717 2.62142e-19)
(183.167 0.043295 2.69156e-19)
(179.761 -0.01757 0)
(175.893 -0.107688 2.86575e-19)
(172.955 -0.172757 2.99205e-19)
(169.368 -0.283096 0)
(166.959 -0.334551 0)
(163.687 -0.461363 3.23704e-19)
(161.893 -0.468391 -6.81931e-19)
(158.991 -0.605554 -3.42353e-19)
(157.923 -0.530705 7.23462e-19)
(155.414 -0.658465 0)
(100.007 -0.0115052 0)
(100.125 -0.036387 -2.86393e-18)
(100.42 -0.0761315 0)
(100.996 -0.147061 0)
(102.14 -0.249216 1.22827e-18)
(103.984 -0.354932 0)
(106.49 -0.43199 -1.17063e-18)
(109.375 -0.466743 0)
(112.415 -0.468471 0)
(115.414 -0.454892 0)
(118.381 -0.440174 0)
(121.282 -0.43 -1.16769e-18)
(124.221 -0.424177 -1.14579e-18)
(127.14 -0.421304 0)
(130.156 -0.420013 0)
(133.157 -0.420448 1.067e-18)
(136.306 -0.421893 0)
(139.436 -0.425065 -1.01337e-18)
(142.775 -0.428874 0)
(146.077 -0.434473 9.59442e-19)
(149.665 -0.440248 9.33924e-19)
(153.181 -0.447988 0)
(157.083 -0.455304 6.28392e-25)
(160.853 -0.464908 0)
(165.142 -0.473323 6.38869e-25)
(169.209 -0.484591 0)
(173.976 -0.493673 -7.68732e-19)
(178.384 -0.506468 -7.34928e-19)
(183.743 -0.515722 -7.11954e-19)
(188.541 -0.529905 8.05481e-25)
(194.637 -0.538933 6.54268e-19)
(199.885 -0.555224 0)
(206.908 -0.565523 0)
(212.676 -0.587191 -5.51539e-19)
(220.882 -0.602127 3.02909e-25)
(227.263 -0.632768 4.86718e-19)
(236.996 -0.655478 0)
(244.119 -0.698898 0)
(255.853 -0.734497 4.16786e-19)
(263.931 -0.796552 3.51466e-19)
(278.329 -0.852252 -3.57974e-19)
(287.709 -0.937438 2.81832e-19)
(305.67 -1.01324 6.03251e-19)
(316.838 -1.11251 0)
(339.425 -1.19072 -2.9939e-25)
(352.864 -1.26075 -1.39421e-19)
(381.04 -1.26559 0)
(396.983 -1.22508 0)
(431.278 -1.15215 1.44926e-19)
(450.224 -1.07036 2.36217e-20)
(489.877 -1.06111 0)
(511.928 -0.889489 0)
(545.48 -0.958567 1.00791e-19)
(565.33 -0.0128063 9.97254e-25)
(543.006 0.390159 1.24704e-20)
(537.161 0.664283 -8.23206e-20)
(504.553 0.89088 0)
(490.459 1.00503 0)
(459.344 1.08599 0)
(444.647 1.0293 5.08087e-20)
(418.963 1.01846 0)
(405.805 0.93504 -2.12162e-20)
(385.115 0.90689 0)
(373.493 0.826481 0)
(356.71 0.8111 -6.86449e-20)
(346.301 0.752896 0)
(332.377 0.732708 -8.61643e-20)
(322.872 0.666204 8.45605e-20)
(311.025 0.624221 2.07155e-19)
(302.248 0.562025 -1.05254e-19)
(291.952 0.526975 -2.41297e-19)
(283.797 0.483606 3.73455e-19)
(274.686 0.461694 0)
(267.1 0.439001 -1.42861e-19)
(258.949 0.433452 3.08703e-19)
(251.933 0.427137 0)
(244.624 0.427942 -1.71303e-19)
(238.206 0.425163 0)
(231.66 0.424204 0)
(225.846 0.420744 -1.95484e-19)
(219.978 0.415917 0)
(214.736 0.408674 -4.23999e-19)
(209.441 0.395547 2.20164e-19)
(204.713 0.378408 0)
(199.881 0.349651 0)
(195.613 0.31695 2.44997e-19)
(191.153 0.267756 -7.5721e-19)
(187.314 0.218085 0)
(183.165 0.146431 2.6915e-19)
(179.759 0.0830388 0)
(175.89 -0.0108302 -5.73142e-19)
(172.952 -0.0792912 2.99203e-19)
(169.365 -0.194144 0)
(166.956 -0.250605 0)
(163.684 -0.382858 -3.23717e-19)
(161.891 -0.397262 3.40979e-19)
(158.99 -0.540904 0)
(157.922 -0.475798 3.61738e-19)
(155.415 -0.614785 0)
(100.007 -0.0147712 0)
(100.125 -0.0465172 2.86367e-18)
(100.42 -0.0971705 1.37089e-18)
(100.996 -0.188003 1.29577e-18)
(102.14 -0.319322 -1.22824e-18)
(103.983 -0.455479 0)
(106.489 -0.554791 2.34116e-18)
(109.373 -0.599576 1.17447e-18)
(112.414 -0.601809 0)
(115.413 -0.584368 0)
(118.38 -0.565499 -1.18394e-18)
(121.28 -0.552494 1.16765e-18)
(124.22 -0.545067 1.14575e-18)
(127.139 -0.541414 0)
(130.154 -0.539778 1.09427e-18)
(133.156 -0.540363 -1.06697e-18)
(136.304 -0.542239 -1.04103e-18)
(139.434 -0.546343 1.01335e-18)
(142.773 -0.55124 0)
(146.075 -0.558438 -1.91884e-18)
(149.663 -0.565828 7.94813e-25)
(153.18 -0.575764 0)
(157.081 -0.585134 8.18204e-25)
(160.851 -0.597519 8.494e-19)
(165.141 -0.608379 8.3286e-25)
(169.207 -0.623054 0)
(173.975 -0.634942 -8.32578e-25)
(178.382 -0.65186 0)
(183.741 -0.664273 0)
(188.54 -0.683441 1.06249e-24)
(194.635 -0.695993 -6.54254e-19)
(199.883 -0.718338 0)
(206.907 -0.732566 0)
(212.674 -0.761663 5.5153e-19)
(220.881 -0.781041 -1.0726e-18)
(227.261 -0.820859 -4.86711e-19)
(236.994 -0.848713 0)
(244.117 -0.903591 -4.19956e-19)
(255.851 -0.945524 -4.16777e-19)
(263.929 -1.02205 -7.02916e-19)
(278.326 -1.08598 4.48902e-25)
(287.706 -1.18917 3.32279e-25)
(305.666 -1.27534 -3.01616e-19)
(316.834 -1.3953 2.11534e-19)
(339.421 -1.48463 4.97378e-19)
(352.861 -1.57464 -1.3942e-19)
(381.037 -1.58817 0)
(396.98 -1.56176 0)
(431.275 -1.49588 0)
(450.221 -1.41355 0)
(489.874 -1.40625 0)
(511.923 -1.1684 0)
(545.478 -1.20802 -5.03854e-20)
(565.334 -0.000465417 -1.97106e-20)
(543.005 0.509578 -2.49446e-20)
(537.157 0.848852 1.64634e-19)
(504.548 1.11899 0)
(490.455 1.24447 -8.91616e-20)
(459.341 1.3349 0)
(444.644 1.26463 -1.21942e-25)
(418.96 1.25058 -7.06513e-20)
(405.802 1.1505 2.12159e-20)
(385.113 1.11758 1.02672e-19)
(373.491 1.02255 7.46222e-20)
(356.708 1.00327 1.37284e-19)
(346.299 0.933885 1.24063e-19)
(332.375 0.911123 -1.72324e-19)
(322.871 0.836433 1.69117e-19)
(311.024 0.792587 -1.51546e-24)
(302.247 0.724274 0)
(291.951 0.687715 4.82587e-19)
(283.796 0.639711 -7.3197e-25)
(274.685 0.616288 0)
(267.099 0.589717 -2.85718e-19)
(258.948 0.582164 -3.087e-19)
(251.932 0.572016 -3.21718e-19)
(244.623 0.570018 3.42603e-19)
(238.205 0.563231 3.56924e-19)
(231.659 0.558867 0)
(225.845 0.551435 0)
(219.977 0.543019 0)
(214.736 0.532209 1.88014e-24)
(209.44 0.515697 -8.80649e-19)
(204.712 0.495599 0)
(199.88 0.463734 0)
(195.612 0.428586 -4.89982e-19)
(191.152 0.376379 5.048e-19)
(187.313 0.324454 0)
(183.163 0.249568 -5.38301e-19)
(179.757 0.183647 0)
(175.888 0.0860264 5.65717e-24)
(172.949 0.0141696 -5.9842e-19)
(169.362 -0.105198 0)
(166.953 -0.166673 0)
(163.682 -0.304368 0)
(161.888 -0.326157 0)
(158.989 -0.47628 0)
(157.921 -0.420924 -7.39968e-24)
(155.416 -0.57114 0)
(100.007 -0.0180373 0)
(100.125 -0.0566473 1.4317e-18)
(100.42 -0.118208 -1.37074e-18)
(100.996 -0.228938 -1.29565e-18)
(102.14 -0.389413 -1.2282e-18)
(103.983 -0.556007 0)
(106.488 -0.677574 -1.17054e-18)
(109.372 -0.732399 -1.17442e-18)
(112.412 -0.735144 0)
(115.411 -0.713842 2.37912e-18)
(118.378 -0.690823 1.18389e-18)
(121.279 -0.674985 -2.33523e-18)
(124.218 -0.665953 2.29144e-18)
(127.137 -0.661521 0)
(130.152 -0.659539 -1.09424e-18)
(133.154 -0.660274 -2.13389e-18)
(136.302 -0.662583 3.123e-18)
(139.433 -0.667617 0)
(142.771 -0.673603 0)
(146.074 -0.682401 9.59398e-19)
(149.662 -0.691404 -9.33883e-19)
(153.178 -0.703537 0)
(157.079 -0.71496 8.79636e-19)
(160.849 -0.730127 -8.49383e-19)
(165.139 -0.743431 -8.24593e-19)
(169.205 -0.761513 0)
(173.972 -0.776207 7.68703e-19)
(178.38 -0.797248 0)
(183.739 -0.812821 0)
(188.537 -0.836974 -6.75501e-19)
(194.633 -0.853049 0)
(199.881 -0.88145 0)
(206.904 -0.899606 0)
(212.672 -0.936133 -5.51519e-19)
(220.878 -0.95995 1.60887e-18)
(227.258 -1.00895 4.86703e-19)
(236.991 -1.04194 0)
(244.115 -1.10828 1.25984e-18)
(255.848 -1.15654 -8.33536e-19)
(263.926 -1.24754 3.5145e-19)
(278.323 -1.3197 3.57955e-19)
(287.702 -1.44088 -2.81816e-19)
(305.662 -1.53743 -6.03213e-19)
(316.829 -1.67807 -2.11527e-19)
(339.417 -1.77853 -7.46047e-19)
(352.856 -1.88852 4.18254e-19)
(381.032 -1.91074 0)
(396.976 -1.89844 0)
(431.271 -1.8396 2.8986e-19)
(450.216 -1.75673 0)
(489.87 -1.75137 0)
(511.918 -1.44732 0)
(545.476 -1.45752 0)
(565.338 0.0118738 3.94235e-20)
(543.003 0.629027 2.49402e-20)
(537.154 1.03343 -1.64629e-19)
(504.542 1.3471 0)
(490.451 1.48389 8.91551e-20)
(459.336 1.58379 0)
(444.639 1.49996 -3.38698e-20)
(418.956 1.48269 7.06497e-20)
(405.799 1.36595 -2.12138e-20)
(385.11 1.32827 -1.02669e-19)
(373.488 1.21862 -7.46201e-20)
(356.705 1.19543 -2.02822e-24)
(346.297 1.11487 -7.2184e-25)
(332.374 1.08953 3.44644e-19)
(322.869 1.00666 -1.69115e-19)
(311.022 0.960951 -2.07147e-19)
(302.246 0.886522 0)
(291.949 0.848454 -1.23747e-24)
(283.794 0.795815 -2.48962e-19)
(274.684 0.770881 0)
(267.098 0.740431 4.38293e-25)
(258.947 0.730875 3.08696e-19)
(251.931 0.716893 4.35159e-25)
(244.622 0.712093 -7.52461e-25)
(238.204 0.701298 -3.56924e-19)
(231.658 0.69353 0)
(225.844 0.682125 3.90959e-19)
(219.976 0.670121 0)
(214.734 0.655744 4.23988e-19)
(209.439 0.635849 8.80633e-19)
(204.711 0.612792 -4.56754e-19)
(199.879 0.57782 0)
(195.61 0.540225 9.79949e-19)
(191.15 0.485007 5.04787e-19)
(187.311 0.430829 5.24249e-19)
(183.161 0.352713 5.38287e-19)
(179.755 0.284263 0)
(175.885 0.182891 5.7314e-19)
(172.946 0.107635 5.98413e-19)
(169.359 -0.016249 0)
(166.949 -0.0827439 0)
(163.679 -0.225883 6.47469e-19)
(161.885 -0.255069 -6.81993e-19)
(158.987 -0.411676 0)
(157.919 -0.36608 -1.44706e-18)
(155.416 -0.527529 0)
(100.007 -0.0213034 0)
(100.125 -0.0667775 5.45413e-24)
(100.42 -0.139244 0)
(100.996 -0.269868 2.59105e-18)
(102.14 -0.45949 2.45629e-18)
(103.982 -0.656514 0)
(106.487 -0.800339 0)
(109.371 -0.86521 0)
(112.411 -0.868472 0)
(115.41 -0.843312 -2.37904e-18)
(118.376 -0.816142 0)
(121.277 -0.797473 4.67031e-18)
(124.216 -0.786836 2.10033e-24)
(127.135 -0.781624 0)
(130.15 -0.779296 0)
(133.152 -0.780182 -2.21795e-24)
(136.3 -0.782922 -2.08194e-18)
(139.43 -0.788888 0)
(142.769 -0.795962 0)
(146.071 -0.80636 0)
(149.659 -0.816977 0)
(153.175 -0.831306 0)
(157.077 -0.844782 -1.75923e-18)
(160.847 -0.862731 0)
(165.136 -0.878478 0)
(169.202 -0.899967 0)
(173.97 -0.917468 0)
(178.377 -0.942631 -1.46978e-18)
(183.736 -0.961364 0)
(188.535 -0.990502 1.35098e-18)
(194.631 -1.0101 0)
(199.879 -1.04456 -1.22889e-18)
(206.902 -1.06664 -1.19127e-18)
(212.669 -1.1106 0)
(220.876 -1.13885 -1.07256e-18)
(227.256 -1.19702 -9.73395e-19)
(236.989 -1.23516 0)
(244.112 -1.31295 -8.39881e-19)
(255.844 -1.36755 1.66704e-18)
(263.922 -1.47301 0)
(278.318 -1.55341 0)
(287.698 -1.69259 0)
(305.657 -1.79951 6.03196e-19)
(316.824 -1.96083 0)
(339.411 -2.07243 4.97351e-19)
(352.85 -2.20239 -2.7883e-19)
(381.027 -2.23331 -3.95613e-19)
(396.97 -2.23511 0)
(431.267 -2.18332 -2.89857e-19)
(450.21 -2.0999 0)
(489.865 -2.09648 -1.84681e-19)
(511.912 -1.72624 2.54605e-19)
(545.474 -1.70706 -1.00715e-19)
(565.342 0.0242118 -7.88435e-20)
(543.001 0.748509 -2.49431e-20)
(537.149 1.21803 -2.51304e-24)
(504.536 1.5752 0)
(490.446 1.7233 0)
(459.331 1.83269 0)
(444.634 1.73529 3.38676e-20)
(418.951 1.7148 0)
(405.795 1.58138 2.12132e-20)
(385.107 1.53894 1.02661e-19)
(373.485 1.41469 7.46162e-20)
(356.703 1.38759 -1.37277e-19)
(346.294 1.29585 -1.24062e-19)
(332.372 1.26793 -1.7232e-19)
(322.868 1.17688 1.69112e-19)
(311.021 1.12931 0)
(302.244 1.04877 0)
(291.948 1.00919 -1.12827e-24)
(283.793 0.951916 -2.48958e-19)
(274.683 0.925473 0)
(267.096 0.891144 2.85711e-19)
(258.946 0.879584 -3.08694e-19)
(251.93 0.861768 3.21714e-19)
(244.621 0.854167 -3.42599e-19)
(238.203 0.839364 0)
(231.657 0.828193 0)
(225.843 0.812816 -3.90955e-19)
(219.975 0.797222 -4.0842e-19)
(214.733 0.779279 0)
(209.437 0.756 -2.17891e-24)
(204.71 0.729985 4.56747e-19)
(199.877 0.691907 0)
(195.609 0.651868 -4.89968e-19)
(191.149 0.59364 -5.04781e-19)
(187.309 0.53721 -5.24244e-19)
(183.159 0.455864 -5.38282e-19)
(179.752 0.384885 0)
(175.883 0.279762 -5.7313e-19)
(172.943 0.201103 -5.98418e-19)
(169.356 0.0727025 0)
(166.946 0.00118017 0)
(163.676 -0.147405 -1.29497e-18)
(161.882 -0.183997 6.82019e-19)
(158.985 -0.347091 0)
(157.917 -0.311267 7.23552e-19)
(155.415 -0.483953 0)
(100.007 -0.0245697 0)
(100.125 -0.0769077 -5.72552e-18)
(100.42 -0.16028 0)
(100.996 -0.310792 -2.59075e-18)
(102.139 -0.529552 0)
(103.981 -0.757 0)
(106.486 -0.923084 -2.34098e-18)
(109.369 -0.998007 0)
(112.409 -1.00179 0)
(115.408 -0.972777 2.37898e-18)
(118.374 -0.941457 2.36766e-18)
(121.275 -0.919955 2.44922e-24)
(124.214 -0.907714 -2.2913e-18)
(127.133 -0.901722 0)
(130.148 -0.899048 0)
(133.15 -0.900085 4.26754e-18)
(136.298 -0.903257 0)
(139.428 -0.910154 -2.02655e-18)
(142.767 -0.918317 1.97511e-18)
(146.069 -0.930314 0)
(149.657 -0.942546 0)
(153.173 -0.95907 -1.80962e-18)
(157.074 -0.9746 1.7592e-18)
(160.844 -0.99533 -1.69871e-18)
(165.134 -1.01352 0)
(169.2 -1.03842 0)
(173.967 -1.05872 0)
(178.375 -1.08801 1.46975e-18)
(183.733 -1.1099 0)
(188.532 -1.14402 3.67385e-24)
(194.628 -1.16715 -1.30844e-18)
(199.876 -1.20766 1.22886e-18)
(206.899 -1.23367 1.19125e-18)
(212.666 -1.28506 1.10301e-18)
(220.872 -1.31775 0)
(227.252 -1.38509 9.73381e-19)
(236.985 -1.42837 0)
(244.108 -1.51762 0)
(255.84 -1.57854 -8.33506e-19)
(263.918 -1.69847 7.02875e-19)
(278.314 -1.7871 -7.15877e-19)
(287.692 -1.94427 5.63607e-19)
(305.651 -2.06157 0)
(316.818 -2.24358 -4.23037e-19)
(339.405 -2.36631 0)
(352.844 -2.51626 0)
(381.021 -2.55587 3.95609e-19)
(396.964 -2.57178 -1.2391e-19)
(431.261 -2.52701 -2.89868e-19)
(450.204 -2.44306 -4.72235e-20)
(489.86 -2.44159 1.84675e-19)
(511.905 -2.00516 -5.09184e-19)
(545.471 -1.95664 1.00694e-19)
(565.347 0.036549 3.94198e-20)
(542.999 0.868027 0)
(537.145 1.40265 1.6461e-19)
(504.529 1.8033 0)
(490.44 1.9627 -1.78263e-19)
(459.325 2.08157 0)
(444.628 1.9706 -3.38658e-20)
(418.945 1.94689 0)
(405.791 1.7968 0)
(385.104 1.74961 -1.02657e-19)
(373.482 1.61074 -7.46137e-20)
(356.7 1.57974 0)
(346.292 1.47681 2.4812e-19)
(332.369 1.44633 3.44632e-19)
(322.866 1.34709 -1.6911e-19)
(311.019 1.29767 0)
(302.242 1.21101 0)
(291.947 1.16993 -2.41281e-19)
(283.792 1.10802 7.46863e-19)
(274.682 1.08006 0)
(267.095 1.04186 0)
(258.945 1.02829 6.1738e-19)
(251.928 1.00664 0)
(244.619 0.996239 6.8519e-19)
(238.202 0.977429 7.13833e-19)
(231.656 0.962855 -7.51907e-19)
(225.842 0.943507 0)
(219.973 0.924324 4.08416e-19)
(214.732 0.902814 -8.47944e-19)
(209.436 0.876151 -4.40302e-19)
(204.708 0.847179 0)
(199.876 0.805996 0)
(195.607 0.763513 9.79909e-19)
(191.147 0.702278 -1.00953e-18)
(187.307 0.643596 0)
(183.157 0.559023 1.07653e-18)
(179.749 0.485513 0)
(175.88 0.376639 -5.73118e-19)
(172.94 0.294575 1.19682e-18)
(169.353 0.161656 0)
(166.942 0.0850996 0)
(163.673 -0.0689336 6.47504e-19)
(161.878 -0.112943 1.36405e-18)
(158.983 -0.282525 0)
(157.914 -0.256485 0)
(155.415 -0.440412 0)
(100.007 -0.0278361 2.93961e-18)
(100.125 -0.0870382 2.86241e-18)
(100.42 -0.181317 0)
(100.996 -0.351713 2.59042e-18)
(102.139 -0.5996 0)
(103.981 -0.857464 -2.37099e-18)
(106.485 -1.04581 4.68194e-18)
(109.368 -1.13079 -2.3487e-18)
(112.407 -1.13511 -2.36954e-18)
(115.406 -1.10224 -4.75787e-18)
(118.372 -1.06677 -2.36761e-18)
(121.273 -1.04243 -4.67007e-18)
(124.212 -1.02858 -2.29124e-18)
(127.131 -1.02181 0)
(130.146 -1.01879 2.18829e-18)
(133.147 -1.01998 -2.13371e-18)
(136.296 -1.02359 0)
(139.425 -1.03141 2.02649e-18)
(142.764 -1.04067 2.96249e-24)
(146.066 -1.05426 0)
(149.654 -1.06811 -1.86765e-18)
(153.17 -1.08683 1.80958e-18)
(157.071 -1.10441 3.16195e-24)
(160.841 -1.12792 3.39735e-18)
(165.131 -1.14856 1.6491e-18)
(169.197 -1.17686 0)
(173.964 -1.19997 0)
(178.371 -1.23338 0)
(183.73 -1.25843 0)
(188.529 -1.29754 -1.35093e-18)
(194.624 -1.32419 1.30841e-18)
(199.872 -1.37076 0)
(206.895 -1.4007 1.19123e-18)
(212.663 -1.45951 -2.20599e-18)
(220.869 -1.49664 1.07253e-18)
(227.249 -1.57316 0)
(236.981 -1.62157 9.53012e-19)
(244.104 -1.72227 -8.39862e-19)
(255.836 -1.78952 0)
(263.913 -1.92392 -1.40573e-18)
(278.308 -2.02077 1.43173e-18)
(287.686 -2.19594 -5.63593e-19)
(305.645 -2.32361 6.03164e-19)
(316.811 -2.52631 4.23025e-19)
(339.398 -2.66018 -4.97332e-19)
(352.836 -2.83011 2.78835e-19)
(381.013 -2.87843 -3.95616e-19)
(396.957 -2.90844 1.2391e-19)
(431.254 -2.8707 2.89866e-19)
(450.196 -2.7862 3.96983e-24)
(489.854 -2.78668 -1.84673e-19)
(511.897 -2.28408 2.5458e-19)
(545.469 -2.20627 0)
(565.352 0.0488857 -7.8849e-20)
(542.996 0.987585 4.98649e-20)
(537.14 1.58729 0)
(504.521 2.03141 -5.34006e-20)
(490.433 2.20208 1.78242e-19)
(459.318 2.33045 -8.90539e-20)
(444.621 2.20591 0)
(418.939 2.17896 0)
(405.786 2.0122 0)
(385.099 1.96026 0)
(373.478 1.80679 0)
(356.696 1.77189 0)
(346.288 1.65777 -2.48119e-19)
(332.367 1.62471 -3.44629e-19)
(322.863 1.5173 0)
(311.017 1.46602 0)
(302.241 1.37325 0)
(291.945 1.33066 0)
(283.79 1.26411 -9.95802e-19)
(274.68 1.23465 0)
(267.093 1.19257 0)
(258.943 1.177 -6.17375e-19)
(251.927 1.15151 0)
(244.618 1.13831 -6.85181e-19)
(238.2 1.11549 -7.13825e-19)
(231.654 1.09752 7.51899e-19)
(225.84 1.0742 -7.81888e-19)
(219.972 1.05142 8.16817e-19)
(214.73 1.02635 3.5712e-24)
(209.434 0.996302 0)
(204.706 0.964372 0)
(199.874 0.920086 9.44521e-19)
(195.605 0.875161 -7.30806e-24)
(191.145 0.810919 7.66571e-24)
(187.304 0.749987 1.04843e-18)
(183.154 0.662187 -2.15304e-18)
(179.746 0.586147 0)
(175.877 0.473523 1.14625e-18)
(172.936 0.38805 -1.19682e-18)
(169.349 0.250612 0)
(166.938 0.169015 0)
(163.669 0.00953192 -1.29503e-18)
(161.874 -0.0419046 -1.3641e-18)
(158.98 -0.217979 0)
(157.911 -0.201733 0)
(155.414 -0.396905 0)
(100.007 -0.0311026 -2.93933e-18)
(100.125 -0.097169 2.86205e-18)
(100.42 -0.202354 2.73993e-18)
(100.996 -0.392631 6.6599e-24)
(102.139 -0.669635 0)
(103.98 -0.957905 2.37096e-18)
(106.484 -1.16851 -2.34098e-18)
(109.366 -1.26355 4.69742e-18)
(112.406 -1.26841 2.36953e-18)
(115.404 -1.23169 4.75783e-18)
(118.37 -1.19207 0)
(121.27 -1.1649 2.33498e-18)
(124.21 -1.14945 2.29118e-18)
(127.128 -1.1419 0)
(130.143 -1.13853 3.12951e-24)
(133.145 -1.13987 0)
(136.293 -1.14391 -2.08178e-18)
(139.423 -1.15267 0)
(142.761 -1.16301 -1.97502e-18)
(146.063 -1.17821 -1.91863e-18)
(149.651 -1.19366 3.73522e-18)
(153.167 -1.21458 -1.80955e-18)
(157.068 -1.23422 -1.75914e-18)
(160.838 -1.26051 -1.69864e-18)
(165.127 -1.28359 3.61411e-24)
(169.193 -1.3153 0)
(173.961 -1.34121 0)
(178.368 -1.37875 1.46971e-18)
(183.726 -1.40696 0)
(188.525 -1.45105 1.35091e-18)
(194.62 -1.48122 0)
(199.868 -1.53385 0)
(206.891 -1.56772 -1.19121e-18)
(212.659 -1.63395 2.20597e-18)
(220.865 -1.67552 -2.14504e-18)
(227.244 -1.76121 0)
(236.977 -1.81475 1.66297e-24)
(244.099 -1.92691 8.3985e-19)
(255.831 -2.00048 8.33483e-19)
(263.907 -2.14934 7.02853e-19)
(278.302 -2.25442 -7.15851e-19)
(287.679 -2.44759 5.63587e-19)
(305.638 -2.58563 -1.81439e-25)
(316.803 -2.80902 0)
(339.389 -2.95403 4.97322e-19)
(352.828 -3.14396 -2.78831e-19)
(381.005 -3.20097 3.95614e-19)
(396.948 -3.24508 0)
(431.247 -3.21437 0)
(450.187 -3.12934 4.72169e-20)
(489.847 -3.13176 3.69335e-19)
(511.888 -2.56301 0)
(545.466 -2.45596 -2.01246e-19)
(565.357 0.0612222 7.88408e-20)
(542.993 1.10718 -4.98734e-20)
(537.134 1.77194 0)
(504.512 2.25952 1.06787e-19)
(490.425 2.44146 1.78208e-19)
(459.311 2.57932 1.7809e-19)
(444.614 2.44121 -6.77197e-20)
(418.932 2.41102 1.41266e-19)
(405.78 2.22758 0)
(385.095 2.1709 0)
(373.474 2.00283 1.49214e-19)
(356.692 1.96403 2.7452e-19)
(346.285 1.83872 2.48117e-19)
(332.364 1.80308 -3.4462e-19)
(322.861 1.68749 3.3821e-19)
(311.015 1.63437 0)
(302.239 1.53549 -4.20971e-19)
(291.943 1.49138 4.82544e-19)
(283.788 1.42021 4.97893e-19)
(274.678 1.38924 0)
(267.092 1.34327 -5.71401e-19)
(258.942 1.3257 0)
(251.925 1.29638 0)
(244.617 1.28038 6.8517e-19)
(238.199 1.25356 7.13815e-19)
(231.652 1.23218 0)
(225.838 1.20489 7.8188e-19)
(219.97 1.17852 -8.16808e-19)
(214.728 1.14988 8.4792e-19)
(209.433 1.11645 -8.80566e-19)
(204.705 1.08156 0)
(199.872 1.03418 -1.88901e-18)
(195.603 0.986811 -9.79878e-19)
(191.143 0.919564 1.0095e-18)
(187.302 0.856383 -2.09683e-18)
(183.151 0.765358 1.0765e-18)
(179.743 0.686788 0)
(175.873 0.570413 -1.14622e-18)
(172.932 0.481529 0)
(169.345 0.339571 0)
(166.934 0.252926 0)
(163.666 0.0879919 1.29506e-18)
(161.87 0.0291177 0)
(158.977 -0.153451 0)
(157.908 -0.14701 0)
(155.413 -0.353433 0)
(100.007 -0.0343692 2.93906e-18)
(100.125 -0.1073 -2.86166e-18)
(100.42 -0.223392 -2.73943e-18)
(100.996 -0.433546 -2.58965e-18)
(102.139 -0.739656 0)
(103.98 -1.05832 0)
(106.483 -1.29118 -2.34101e-18)
(109.364 -1.3963 -4.69749e-18)
(112.404 -1.4017 2.36955e-18)
(115.402 -1.36113 -2.37891e-18)
(118.368 -1.31736 0)
(121.268 -1.28736 0)
(124.207 -1.2703 0)
(127.125 -1.26197 0)
(130.14 -1.25826 -2.18816e-18)
(133.142 -1.25975 -2.1336e-18)
(136.29 -1.26422 4.16345e-18)
(139.419 -1.27392 0)
(142.758 -1.28534 1.97498e-18)
(146.06 -1.30214 -4.00955e-24)
(149.648 -1.31921 -1.86757e-18)
(153.163 -1.34233 1.80951e-18)
(157.064 -1.36402 0)
(160.834 -1.39309 -3.39724e-18)
(165.123 -1.41861 -1.64905e-18)
(169.189 -1.45372 0)
(173.957 -1.48245 0)
(178.364 -1.5241 -1.46968e-18)
(183.722 -1.55547 0)
(188.521 -1.60455 1.3509e-18)
(194.616 -1.63824 2.61675e-18)
(199.864 -1.69693 2.45762e-18)
(206.887 -1.73473 -2.3824e-18)
(212.654 -1.80839 -1.10297e-18)
(220.86 -1.85438 1.07251e-18)
(227.24 -1.94924 0)
(236.971 -2.00792 -2.85897e-18)
(244.094 -2.13153 0)
(255.825 -2.21142 -2.50042e-18)
(263.901 -2.37475 -1.4057e-18)
(278.295 -2.48804 0)
(287.672 -2.69921 -5.63575e-19)
(305.629 -2.84762 -6.03138e-19)
(316.794 -3.09171 -8.46034e-19)
(339.38 -3.24786 0)
(352.818 -3.45778 -5.57682e-19)
(380.996 -3.5235 -7.91251e-19)
(396.939 -3.58172 0)
(431.238 -3.55801 0)
(450.177 -3.47246 9.44132e-20)
(489.839 -3.47683 -1.84662e-19)
(511.879 -2.84195 5.09187e-19)
(545.463 -2.70572 2.01195e-19)
(565.363 0.073559 -7.8853e-20)
(542.99 1.22683 0)
(537.129 1.95663 0)
(504.503 2.48763 -5.33854e-20)
(490.416 2.68082 -1.78183e-19)
(459.302 2.82818 -8.90354e-20)
(444.605 2.67649 6.77147e-20)
(418.924 2.64306 -2.82516e-19)
(405.774 2.44294 0)
(385.09 2.38153 0)
(373.47 2.19886 -1.23962e-25)
(356.688 2.15616 -2.74513e-19)
(346.281 2.01966 -2.48115e-19)
(332.361 1.98144 3.44617e-19)
(322.858 1.85768 -3.38205e-19)
(311.013 1.80271 0)
(302.237 1.69772 -1.08134e-24)
(291.941 1.65211 -9.65072e-19)
(283.786 1.5763 -4.97887e-19)
(274.677 1.54382 -5.49852e-19)
(267.09 1.49398 5.71394e-19)
(258.94 1.4744 0)
(251.923 1.44125 0)
(244.615 1.42245 -6.8516e-19)
(238.197 1.39162 -6.78878e-25)
(231.651 1.36684 7.51879e-19)
(225.837 1.33557 7.81868e-19)
(219.968 1.30562 -8.16793e-19)
(214.726 1.27341 0)
(209.431 1.2366 8.80554e-19)
(204.703 1.19876 0)
(199.87 1.14827 9.44483e-19)
(195.601 1.09846 -9.7985e-19)
(191.14 1.02821 0)
(187.299 0.962784 1.0484e-18)
(183.149 0.868536 0)
(179.74 0.787435 0)
(175.87 0.66731 1.14622e-18)
(172.928 0.575012 0)
(169.341 0.428533 0)
(166.93 0.336834 0)
(163.662 0.166447 0)
(161.866 0.100125 0)
(158.974 -0.0889408 0)
(157.905 -0.0923174 0)
(155.411 -0.309995 0)
(100.007 -0.037636 -2.93877e-18)
(100.125 -0.117432 0)
(100.42 -0.244432 0)
(100.996 -0.474461 0)
(102.139 -0.809664 0)
(103.979 -1.15871 0)
(106.481 -1.41383 2.34106e-18)
(109.363 -1.52903 2.34881e-18)
(112.402 -1.53497 2.36959e-18)
(115.4 -1.49056 4.75785e-18)
(118.366 -1.44264 0)
(121.265 -1.40981 4.6698e-18)
(124.204 -1.39115 4.58213e-18)
(127.123 -1.38204 0)
(130.137 -1.37799 0)
(133.138 -1.37963 2.13353e-18)
(136.286 -1.38453 2.08168e-18)
(139.416 -1.39515 0)
(142.754 -1.40767 -1.97493e-18)
(146.056 -1.42607 1.91855e-18)
(149.644 -1.44475 0)
(153.16 -1.47006 0)
(157.061 -1.4938 3.51816e-18)
(160.83 -1.52566 3.39717e-18)
(165.119 -1.55362 -3.29805e-18)
(169.185 -1.59214 3.17087e-18)
(173.952 -1.62367 0)
(178.359 -1.66945 0)
(183.718 -1.70398 0)
(188.516 -1.75804 -2.70174e-18)
(194.611 -1.79526 -2.61671e-18)
(199.859 -1.86 -2.45757e-18)
(206.882 -1.90173 2.38236e-18)
(212.65 -1.98281 2.20594e-18)
(220.855 -2.03324 0)
(227.234 -2.13727 0)
(236.966 -2.20108 1.90596e-18)
(244.088 -2.33613 -1.67969e-18)
(255.818 -2.42234 -2.06858e-24)
(263.894 -2.60013 1.40568e-18)
(278.288 -2.72165 0)
(287.663 -2.95081 0)
(305.621 -3.10959 -1.20625e-18)
(316.784 -3.37438 -1.14061e-23)
(339.371 -3.54167 9.94623e-19)
(352.808 -3.77159 5.57675e-19)
(380.986 -3.84601 7.91251e-19)
(396.929 -3.91834 2.47898e-19)
(431.229 -3.90164 5.79796e-19)
(450.166 -3.81557 -9.44106e-20)
(489.831 -3.8219 0)
(511.869 -3.12089 -1.01834e-18)
(545.46 -2.95554 0)
(565.369 0.0858963 7.88434e-20)
(542.987 1.34653 -4.98383e-20)
(537.123 2.14133 -3.2913e-19)
(504.493 2.71575 0)
(490.407 2.92016 0)
(459.293 3.07703 -8.90267e-20)
(444.596 2.91175 -6.77063e-20)
(418.916 2.87507 2.82494e-19)
(405.767 2.65828 -4.24147e-20)
(385.084 2.59214 0)
(373.465 2.39488 -1.49201e-19)
(356.684 2.34827 2.74498e-19)
(346.277 2.20059 2.48115e-19)
(332.357 2.15979 0)