/*--------------------------------*- C++ -*----------------------------------*\
| =========                 |                                                 |
| \\      /  F ield         | OpenFOAM: The Open Source CFD Toolbox           |
|  \\    /   O peration     | Version:  2412                                  |
|   \\  /    A nd           | Website:  www.openfoam.com                      |
|    \\/     M anipulation  |                                                 |
\*---------------------------------------------------------------------------*/
FoamFile
{
    version     2.0;
    format      ascii;
    arch        "LSB;label=32;scalar=64";
    class       volScalarField;
    location    "0.1";
    object      p;
}
// * * * * * * * * * * * * * * * * * * * * * * * * * * * * * * * * * * * * * //

dimensions      [0 2 -2 0 0 0 0];

internalField   nonuniform List<scalar> 
13156
(
137033
128907
127909
127485
127108
126954
126862
126739
126620
126479
126326
126147
125946
125713
125452
125157
124831
124466
124065
123618
123123
122574
121976
121308
120627
119811
119099
118032
117409
115895
115531
113333
113424
110169
111107
106179
108735
101186
106202
94452.6
103415
86447.5
101030
76593.5
98872.4
62751.7
94455.1
39006.9
86237.2
4657.73
75428.5
-54977.6
38994.7
-249935
-4118.77
-85979.5
23793.6
-45982.1
31636
-19388.6
38999.6
1916.5
44551
19390.5
48718.6
33035.5
51828.2
42816.1
54402.2
49655.5
56923
54541.5
59474
58442.1
61908.3
62048.8
64113.3
65006.5
66221.9
67273.9
68099
69031.5
69625.2
70430.7
70892.4
71628.7
71985.6
72682.3
72960.4
73693.8
73903.4
74730.3
74871.3
75905.5
75938.2
77421.7
77161
79637.2
78141.7
135078
128333
127783
127460
127101
126950
126860
126736
126617
126476
126323
126143
125942
125709
125447
125152
124826
124460
124059
123611
123116
122566
121968
121299
120618
119801
119088
118021
117397
115883
115518
113319
113409
110154
111089
106162
108714
101165
106170
94424.5
103381
86426.2
101002
76578.4
98848.3
62737.9
94411.3
38970
86165.1
4605.22
75329.3
-55103.2
38982.4
-248544
-3917.13
-86098.4
23739
-45998.6
31623
-19383.9
38996.4
1922.44
44548.1
19397
48718.9
33041.9
51829.2
42819.9
54402.2
49656.5
56921.3
54539.9
59469.7
58437.6
61902.1
62044.2
64109.8
65004.5
66221.2
67273.8
68099.3
69031.9
69625.3
70430.5
70891.7
71627.7
71984.2
72681
72958.7
73692.2
73901.5
74728.7
74869.2
75903.9
75935.3
77420.4
77156.6
79636.4
78136.4
134724
128465
127826
127463
127097
126947
126858
126734
126615
126474
126321
126141
125939
125706
125443
125148
124821
124455
124054
123605
123109
122558
121959
121290
120607
119790
119076
118007
117382
115867
115501
113301
113388
110133
111064
106137
108681
101131
106120
94380.6
103332
86399.1
100969
76563.2
98816.5
62717.3
94339.1
38908.1
86048.7
4522.11
75172.8
-55291.5
38865.4
-246914
-3762.38
-86261.4
23652.8
-46031.9
31602.1
-19378
38992.9
1930.86
44544.6
19407.3
48719.4
33051.5
51828.3
42822
54396.6
49651.7
56912
54530
59455.5
58424.2
61887.2
62033.9
64102.2
65000.7
66220.2
67274.2
68100.5
69033.4
69626.5
70431.3
70891.7
71627.3
71982.9
72680.2
72957
73691
73899.6
74727.8
74867.1
75903.5
75932.4
77421.1
77151.4
79640.2
78129.8
134665
128555
127823
127447
127089
126944
126856
126732
126613
126471
126318
126138
125936
125703
125440
125144
124817
124451
124049
123600
123103
122551
121951
121280
120597
119779
119064
117994
117368
115852
115484
113283
113368
110111
111039
106112
108650
101097
106072
94336.3
103284
86368.7
100934
76542.3
98783.8
62693.8
94269.7
38842.2
85933.8
4431.41
75013.2
-55481.2
38740.8
-245493
-3643.41
-86398.1
23586.4
-46053
31595.8
-19364.8
38998
1942.66
44547.8
19420.7
48725.4
33064.2
51833
42829.6
54398.5
49654
56910.3
54526.3
59448
58415.7
61876.4
62026.7
64096.9
64998.4
66220.1
67275.2
68102.1
69035.1
69627.7
70432.1
70891.6
71626.8
71981.6
72679.3
72955.2
73689.9
73897.7
74727
74864.9
75903.3
75929.3
77422.2
77146.1
79645.3
78123
134335
128521
127801
127432
127085
126942
126855
126731
126611
126469
126316
126135
125933
125699
125436
125140
124813
124446
124044
123594
123096
122544
121943
121271
120587
119768
119052
117981
117354
115837
115468
113266
113350
110092
111017
106089
108623
101068
106032
94298.2
103244
86343.4
100906
76526.1
98759.2
62675.2
94211
38783.5
85832.2
4345.94
74861.5
-55675.7
38605
-244154
-3503.22
-86501.4
23542.9
-46061.7
31598
-19351.3
39003.4
1951.71
44550.4
19430.6
48729.6
33072.7
51835.2
42833.8
54398.3
49654
56907.7
54522
59441.4
58407.8
61867.1
62020.4
64092.2
64996.1
66219.7
67275.7
68103
69036.1
69628.2
70432.3
70891
71626
71980
72678.1
72953.1
73688.5
73895.5
74725.9
74862.5
75902.9
75926
77423.2
77140.6
79650.2
78116
134015
128493
127796
127416
127080
126939
126853
126729
126609
126467
126314
126133
125930
125696
125432
125136
124808
124441
124038
123588
123089
122536
121934
121261
120577
119756
119040
117968
117341
115823
115453
113249
113332
110072
110997
106068
108599
101041
105996
94264.8
103210
86323.7
100884
76514.4
98739.5
62661.4
94162.3
38741.2
85756.9
4294.1
74755
-55814.3
38531.5
-242815
-3395.39
-86638.1
23471.1
-46094.3
31578.7
-19358.8
38991.2
1946.35
44542.2
19431.7
48726.9
33075.3
51832.6
42833.2
54393.8
49649.8
56901.2
54514.3
59431.9
58397.9
61856.5
62013
64086.7
64992.9
66218.4
67275.1
68103
69036.2
69628
70431.9
70889.8
71624.7
71978
72676.6
72950.9
73686.9
73893.1
74724.7
74859.9
75902.2
75922.3
77423.6
77134.5
79654.4
78108.7
133747
128465
127794
127399
127075
126937
126851
126727
126607
126465
126311
126130
125927
125692
125429
125132
124804
124436
124032
123581
123082
122528
121925
121252
120566
119745
119029
117956
117328
115808
115438
113233
113315
110054
110977
106047
108576
101016
105961
94232.9
103178
86304
100860
76499
98713.7
62637.8
94100.2
38682.1
85662.6
4224.29
74642
-55922.6
38528.7
-241481
-3334.01
-86794.5
23405.6
-46109.2
31579.1
-19347.9
38996.2
1955.97
44546.3
19442.4
48731.5
33083.4
51834.3
42835.9
54392.2
49648
56896.9
54508.8
59424.4
58389.8
61847.5
62006.8
64081.9
64989.9
66217.2
67274.4
68102.7
69036
69627.4
70431.1
70888.3
71623.1
71975.8
72675
72948.5
73685.2
73890.5
74723.4
74857
75901.2
75918.3
77423.6
77128
79657.9
78101.1
133488
128428
127790
127381
127071
126935
126849
126725
126606
126463
126309
126127
125924
125689
125425
125128
124799
124431
124026
123575
123075
122519
121916
121243
120556
119735
119018
117943
117316
115795
115424
113218
113299
110036
110958
106027
108554
100992
105929
94203.6
103149
86286.4
100839
76486
98691.7
62618.9
94043.2
38625.3
85564.2
4136.85
74487.5
-56105.2
38419.7
-240154
-3208.52
-86883.7
23390.2
-46092.6
31597
-19330.9
39002.4
1963.34
44546.7
19448.2
48731.3
33086.9
51832.2
42835.6
54388.6
49645.1
56892.1
54503.1
59417
58382.2
61838.9
62000.8
64077.2
64986.7
66215.6
67273.1
68101.9
69035.2
69626.3
70429.8
70886.4
71621.2
71973.3
72673.1
72945.8
73683.2
73887.7
74721.7
74853.8
75899.9
75913.9
77423.1
77120.9
79660.8
78093.2
133237
128390
127784
127364
127067
126934
126848
126723
126604
126460
126306
126125
125921
125686
125421
125123
124794
124426
124021
123568
123067
122512
121908
121233
120547
119724
119007
117932
117304
115781
115410
113203
113283
110019
110940
106008
108535
100969
105899
94177.2
103123
86271.8
100820
76476
98673.5
62605.4
93997.1
38587.6
85496.4
4092.13
74385.8
-56234.9
38342.6
-238843
-3103.19
-87003
23336.7
-46113.1
31581
-19343.4
38985.2
1952.43
44533.4
19443.7
48723.2
33084.4
51825.4
42831.8
54382.4
49639.8
56885.5
54496
59408.4
58373.8
61829.6
61994.2
64071.9
64982.8
66213.3
67271.2
68100.5
69033.9
69624.7
70428.1
70884.2
71619
71970.5
72671
72942.9
73681.1
73884.7
74719.9
74850.4
75898.4
75909.1
77422.1
77113.4
79662.9
78085.2
132995
128352
127778
127346
127063
126932
126846
126721
126602
126458
126304
126122
125918
125682
125417
125119
124789
124420
124015
123562
123060
122504
121900
121224
120538
119714
118997
117920
117292
115769
115397
113188
113269
110003
110923
105990
108516
100948
105871
94152.6
103099
86258.3
100802
76464.1
98651.2
62585.3
93943.2
38541.8
85422.7
4046.5
74299.4
-56309.1
38363.3
-237552
-3057.84
-87159.2
23269
-46134.8
31568.9
-19349.6
38975.6
1948.87
44526.7
19444.5
48719.4
33085.3
51821.3
42829.8
54377.4
49635.3
56879.4
54489.1
59400
58365.6
61820.5
61987.7
64066.6
64978.7
66210.8
67268.9
68098.8
69032.3
69622.8
70426.1
70881.7
71616.6
71967.6
72668.7
72939.9
73678.8
73881.5
74717.9
74846.8
75896.6
75904
77420.8
77105.6
79664.4
78077.2
132765
128315
127770
127329
127060
126930
126845
126719
126600
126456
126302
126119
125915
125679
125414
125115
124785
124415
124009
123555
123053
122496
121891
121216
120529
119704
118987
117909
117281
115756
115385
113174
113255
109987
110907
105973
108498
100928
105845
94129.9
103077
86246.4
100784
76453.2
98629.5
62565
93887.6
38490.7
85337.1
3978.68
74177.9
-56428.6
38325.7
-236270
-2979.34
-87274.1
23239.3
-46126.6
31577.9
-19342.3
38975.3
1950.94
44523.1
19446.5
48715.8
33085.7
51816.4
42827
54371.7
49630.1
56872.8
54481.8
59391.4
58357.4
61811.4
61981.2
64061.1
64974.4
66207.9
67266.2
68096.6
69030.2
69620.5
70423.9
70878.9
71614.1
71964.5
72666.3
72936.7
73676.4
73878.2
74715.8
74843
75894.6
75898.7
77419.1
77097.4
79665.3
78069.1
132544
128279
127762
127313
127057
126929
126844
126718
126598
126454
126300
126117
125912
125676
125410
125111
124780
124410
124003
123549
123046
122488
121883
121207
120520
119694
118977
117898
117271
115744
115373
113161
113241
109972
110892
105957
108481
100909
105820
94109.3
103057
86236.6
100769
76444.7
98611
62549
93839
38449.3
85264.5
3925.67
74067.9
-56549
38264.8
-234999
-2882.88
-87380.1
23207.5
-46126.7
31575.7
-19347.1
38964.3
1943.69
44511.9
19442.1
48706.9
33081.8
51808.1
42821.5
54363.9
49623.5
56865.2
54473.6
59382.2
58348.9
61802
61974.5
64055.3
64969.7
66204.6
67263.1
68094.1
69027.8
69617.9
70421.3
70876
71611.3
71961.2
72663.7
72933.4
73673.9
73874.7
74713.5
74839
75892.3
75893.1
77417
77088.9
79665.6
78061
132333
128243
127753
127297
127054
126928
126843
126716
126597
126452
126297
126114
125910
125672
125406
125107
124776
124405
123998
123543
123040
122481
121876
121199
120511
119685
118968
117888
117260
115733
115362
113148
113228
109957
110877
105941
108465
100891
105797
94090.1
103039
86228
100755
76436.3
98591.9
62532.5
93791.3
38411.3
85199.6
3886.6
73981
-56629.3
38257.5
-233742
-2813.02
-87508.7
23157.5
-46140.5
31563
-19359.6
38948.2
1932.94
44498.5
19436.3
48697
33077.2
51799.2
42815.7
54355.9
49616.7
56857.4
54465.3
59372.9
58340.3
61792.6
61967.6
64049.4
64964.7
66201
67259.7
68091.2
69025.2
69615.1
70418.5
70872.8
71608.3
71957.8
72661
72930
73671.2
73871.1
74711
74834.8
75889.9
75887.3
77414.6
77080.1
79665.3
78052.9
132130
128207
127743
127281
127051
126927
126842
126715
126595
126450
126295
126112
125907
125669
125403
125103
124771
124400
123992
123537
123033
122474
121868
121191
120503
119676
118959
117877
117251
115722
115350
113136
113216
109943
110863
105926
108450
100874
105775
94072.2
103023
86220.3
100741
76427.8
98572
62514.3
93741.7
38370.7
85131
3842.35
73889.8
-56706.3
38258.9
-232497
-2746.49
-87635.3
23113.2
-46147.3
31556.3
-19367.5
38936
1925.17
44487.1
19431.8
48688
33073.1
51790.7
42810.1
54348
49609.9
56849.4
54456.9
59363.5
58331.6
61783.1
61960.7
64043.3
64959.5
66197.1
67256
68088.1
69022.3
69612.1
70415.6
70869.5
71605.3
71954.3
72658.2
72926.4
73668.5
73867.4
74708.5
74830.5
75887.3
75881.3
77411.9
77071.1
79664.5
78044.9
131935
128172
127732
127266
127049
126926
126841
126713
126594
126448
126293
126109
125904
125666
125399
125099
124767
124395
123987
123531
123026
122467
121860
121183
120495
119667
118950
117867
117241
115711
115340
113124
113204
109930
110850
105912
108436
100857
105753
94055.6
103007
86214
100728
76420.3
98552.9
62497
93693.3
38331
85062.4
3796.04
73793.3
-56791.6
38243.9
-231262
-2666.17
-87750.4
23077.6
-46148.2
31552.6
-19374.4
38924.1
1917.01
44475
19426.3
48677.9
33068
51781.1
42803.6
54339.4
49602.5
56841
54448
59353.7
58322.7
61773.4
61953.7
64036.9
64954.1
66192.9
67252
68084.7
69019.1
69608.8
70412.4
70866
71602.1
71950.7
72655.3
72922.8
73665.6
73863.5
74705.8
74826.1
75884.5
75875.1
77408.8
77061.9
79663.2
78037
131748
128138
127721
127251
127047
126925
126840
126712
126592
126446
126291
126107
125901
125663
125396
125095
124762
124390
123982
123525
123020
122460
121853
121175
120487
119658
118942
117857
117232
115700
115329
113112
113192
109916
110837
105898
108422
100841
105733
94040.2
102993
86208.7
100715
76413.6
98534.6
62480.8
93647.1
38294.6
84998.4
3755.54
73703.1
-56868.9
38234.8
-230037
-2581.83
-87864.8
23040.1
-46152.5
31545
-19385.3
38908.9
1905.97
44460.6
19418.9
48666
33061.4
51770.3
42796.2
54330
49594.5
56832
54438.8
59343.7
58313.7
61763.5
61946.4
64030.3
64948.3
66188.5
67247.7
68081.1
69015.7
69605.3
70409.1
70862.3
71598.7
71946.9
72652.3
72919
73662.6
73859.6
74702.9
74821.5
75881.5
75868.7
77405.5
77052.5
79661.4
78029.1
131568
128104
127709
127237
127045
126924
126839
126710
126591
126444
126289
126104
125899
125660
125392
125091
124758
124386
123976
123519
123013
122453
121846
121167
120479
119650
118933
117848
117222
115690
115319
113100
113181
109904
110824
105885
108408
100826
105713
94025.8
102980
86204.3
100704
76407.4
98516.4
62464.9
93601.8
38259.7
84937.1
3719.17
73619.1
-56935.3
38238.8
-228821
-2497.65
-87982.2
22998.9
-46160
31534.6
-19398.6
38892.1
1893.64
44445.2
19410.5
48653.4
33054.2
51759.1
42788.4
54320.3
49586.3
56822.9
54429.4
59333.5
58304.5
61753.5
61939.1
64023.6
64942.4
66183.8
67243.2
68077.2
69012.1
69601.7
70405.7
70858.6
71595.3
71943.1
72649.1
72915.2
73659.5
73855.5
74700
74816.8
75878.4
75862.3
77401.9
77043
79659.1
78021.4
131394
128070
127697
127223
127044
126923
126839
126709
126589
126443
126287
126102
125896
125657
125389
125087
124754
124381
123971
123513
123007
122446
121839
121160
120471
119641
118925
117839
117214
115680
115309
113089
113170
109891
110812
105872
108396
100811
105694
94012.2
102968
86200.6
100692
76401.4
98498.2
62449.1
93557.1
38225.5
84876.4
3683.28
73536.3
-56997.2
38248.6
-227614
-2409.82
-88098.6
22958.2
-46166.9
31524.5
-19411.9
38875.3
1881.21
44429.5
19401.9
48640.4
33046.7
51747.4
42780.5
54310.4
49578
56813.6
54420
59323.3
58295.3
61743.5
61931.6
64016.7
64936.3
66178.8
67238.5
68073.1
69008.4
69597.9
70402.1
70854.7
71591.8
71939.2
72645.9
72911.3
73656.3
73851.4
74696.9
74812
75875.1
75855.6
77398.1
77033.3
79656.3
78013.7
131228
128037
127684
127209
127042
126922
126838
126708
126588
126441
126285
126100
125893
125654
125385
125083
124750
124376
123966
123507
123001
122439
121832
121152
120464
119633
118917
117829
117205
115670
115299
113078
113159
109879
110800
105859
108383
100797
105675
93999.3
102957
86197.6
100682
76395.9
98480.4
62433.8
93513.4
38192.3
84816.7
3648.13
73454
-57057.1
38259.4
-226416
-2314.56
-88212.1
22918.9
-46173.1
31514.6
-19425.5
38858.3
1868.31
44413.4
19392.7
48626.8
33038.7
51735.4
42772.1
54300.1
49569.4
56804
54410.3
59312.8
58286
61733.3
61924
64009.6
64930.1
66173.7
67233.6
68068.8
69004.4
69594
70398.4
70850.7
71588.2
71935.2
72642.6
72907.3
73653.1
73847.2
74693.8
74807.1
75871.7
75848.9
77394
77023.5
79653.1
78006
131068
128005
127671
127196
127041
126922
126837
126706
126586
126439
126283
126097
125891
125651
125382
125080
124745
124372
123961
123502
122995
122433
121825
121145
120456
119625
118909
117820
117196
115660
115290
113068
113149
109867
110788
105847
108371
100783
105657
93987
102946
86195.1
100671
76390.8
98462.9
62419.2
93470.9
38160.5
84758.8
3614.92
73373.8
-57113.4
38273.3
-225224
-2211.77
-88323.8
22879.4
-46180.2
31503.7
-19440.2
38840.3
1854.48
44396.4
19382.7
48612.4
33030.1
51722.8
42763.4
54289.5
49560.5
56794.3
54400.6
59302.3
58276.7
61723
61916.4
64002.3
64923.6
66168.3
67228.5
68064.4
69000.4
69589.9
70394.6
70846.7
71584.6
71931.2
72639.3
72903.2
73649.8
73842.8
74690.5
74802.1
75868.1
75842
77389.7
77013.5
79649.5
77998.5
130914
127973
127658
127183
127040
126921
126837
126705
126585
126437
126281
126095
125888
125648
125379
125076
124741
124367
123956
123496
122989
122426
121818
121138
120449
119617
118902
117811
117188
115650
115281
113057
113138
109856
110777
105836
108360
100770
105639
93975.2
102936
86193
100661
76386
98445.7
62405.2
93429.5
38130
84702.3
3583.56
73296.4
-57165
38292.3
-224040
-2102.27
-88434.9
22838.6
-46188.7
31491.6
-19456.1
38821.5
1839.91
44378.7
19372.1
48597.5
33021.1
51709.8
42754.4
54278.6
49551.6
56784.4
54390.8
59291.8
58267.4
61712.6
61908.6
63994.8
64917
66162.8
67223.2
68059.8
68996.2
69585.8
70390.7
70842.6
71580.9
71927.1
72635.8
72899.1
73646.4
73838.4
74687.2
74797
75864.4
75835.1
77385.1
77003.5
79645.5
77991
130766
127941
127644
127171
127039
126920
126836
126704
126584
126436
126279
126093
125886
125645
125376
125072
124737
124363
123951
123491
122983
122420
121811
121131
120442
119609
118894
117803
117180
115641
115272
113047
113128
109844
110766
105824
108348
100757
105622
93963.7
102925
86191.2
100651
76381.5
98428.6
62391.7
93389.1
38100.4
84647
3553.34
73220.6
-57213.2
38315.8
-222863
-1985.63
-88544.9
22797.1
-46198
31478.9
-19472.5
38802.3
1824.9
44360.6
19361
48582.3
33011.8
51696.5
42745.3
54267.7
49542.6
56774.6
54381.1
59281.4
58258
61702.2
61900.7
63987.2
64910.3
66157.1
67217.8
68055.1
68991.9
69581.6
70386.8
70838.5
71577.1
71923
72632.4
72894.9
73642.9
73834
74683.8
74791.9
75860.6
75828
77380.4
76993.4
79641.1
77983.5
130624
127910
127630
127160
127038
126920
126836
126703
126582
126434
126277
126091
125883
125642
125372
125069
124733
124359
123946
123486
122977
122414
121805
121124
120434
119601
118886
117794
117172
115632
115263
113037
113119
109833
110755
105813
108337
100744
105604
93952.5
102915
86189.6
100641
76377.2
98411.8
62378.8
93349.6
38071.7
84592.6
3524.06
73145.9
-57259
38342.1
-221692
-1860.49
-88653.3
22755.2
-46208
31465.9
-19489.2
38782.9
1809.47
44342.1
19349.6
48566.6
33002.2
51683
42736.1
54256.6
49533.6
56764.6
54371.4
59270.9
58248.6
61691.7
61892.8
63979.5
64903.4
66151.2
67212.2
68050.2
68987.5
69577.3
70382.8
70834.3
71573.4
71918.9
72628.9
72890.7
73639.4
73829.4
74680.3
74786.6
75856.7
75820.9
77375.4
76983.3
79636.4
77976.1
130488
127880
127617
127148
127037
126919
126835
126701
126581
126432
126275
126088
125881
125639
125369
125065
124730
124354
123942
123480
122972
122407
121798
121117
120427
119593
118879
117786
117164
115622
115254
113027
113109
109822
110744
105802
108326
100732
105587
93941.5
102905
86188.1
100631
76373
98395.2
62366.5
93311.2
38043.9
84539.2
3495.69
73072.6
-57302.5
38370.5
-220526
-1726.2
-88760.1
22712.7
-46218.7
31452.5
-19506.4
38763.1
1793.63
44323.2
19337.8
48550.6
32992.4
51669.4
42726.7
54245.4
49524.5
56754.7
54361.8
59260.5
58239.3
61681.1
61884.7
63971.6
64896.4
66145.1
67206.5
68045.2
68983.1
69572.9
70378.8
70830.1
71569.6
71914.7
72625.3
72886.5
73635.8
73824.9
74676.7
74781.3
75852.7
75813.7
77370.2
76973.1
79631.3
77968.7
130357
127851
127603
127138
127037
126919
126835
126700
126580
126430
126273
126086
125878
125636
125366
125062
124726
124350
123937
123475
122966
122401
121792
121110
120420
119586
118872
117777
117156
115613
115245
113017
113099
109811
110734
105792
108316
100720
105570
93930.5
102895
86186.6
100621
76369
98378.7
62355
93273.9
38017.1
84486.7
3468.11
73000.6
-57344
38401.8
-219367
-1583.01
-88865.5
22669.4
-46230.4
31438.7
-19524
38743
1777.44
44304
19325.7
48534.3
32982.4
51655.5
42717.3
54234.1
49515.5
56744.9
54352.3
59250.2
58230.1
61670.6
61876.6
63963.6
64889.3
66139
67200.8
68040.2
68978.6
69568.6
70374.8
70825.9
71565.8
71910.6
72621.8
72882.2
73632.2
73820.3
74673.1
74776
75848.6
75806.5
77364.9
76962.8
79625.8
77961.2
130231
127822
127589
127127
127036
126918
126835
126699
126578
126429
126272
126084
125876
125633
125363
125058
124722
124346
123932
123470
122960
122395
121785
121103
120414
119578
118864
117769
117148
115604
115236
113007
113090
109801
110724
105781
108305
100708
105553
93919.5
102885
86184.9
100611
76365
98362.4
62344
93237.5
37990.9
84435.1
3441.22
72929.6
-57383.7
38435.5
-218213
-1430.76
-88969.5
22625.2
-46243
31424.6
-19541.8
38722.8
1760.93
44284.5
19313.3
48517.8
32972.3
51641.6
42707.9
54222.9
49506.6
56735.1
54343
59240.1
58220.9
61660
61868.5
63955.4
64882.1
66132.7
67194.9
68035.1
68974
69564.2
70370.7
70821.7
71562
71906.4
72618.2
72877.9
73628.6
73815.6
74669.4
74770.5
75844.3
75799.2
77359.3
76952.5
79620.1
77953.8
130111
127793
127576
127118
127036
126918
126834
126698
126577
126427
126270
126082
125873
125630
125360
125055
124718
124342
123928
123465
122955
122389
121779
121096
120407
119571
118857
117760
117140
115595
115228
112997
113080
109790
110713
105771
108294
100696
105536
93908.5
102874
86183
100600
76361.1
98346.2
62333.6
93202
37965.4
84384.1
3414.93
72859.5
-57422
38470.7
-217064
-1268.98
-89071.9
22580.3
-46256.4
31410.4
-19559.7
38702.5
1744.13
44264.8
19300.6
48501.1
32962.1
51627.7
42698.6
54211.8
49497.9
56725.5
54333.9
59230.1
58211.8
61649.4
61860.2
63947.2
64874.9
66126.3
67189
68030
68969.5
69559.8
70366.7
70817.5
71558.3
71902.3
72614.7
72873.6
73625
73810.9
74665.6
74765.1
75840
75791.8
77353.6
76942.2
79614
77946.3
129995
127766
127562
127108
127036
126918
126834
126696
126576
126425
126268
126079
125871
125628
125357
125051
124714
124338
123923
123460
122949
122383
121773
121090
120400
119563
118850
117752
117132
115586
115219
112988
113071
109779
110703
105760
108284
100684
105520
93897.4
102864
86180.8
100590
76357.1
98330.2
62323.9
93167.6
37940.6
84333.7
3389
72790.3
-57459.3
38507.2
-215919
-1097.69
-89172.6
22534.5
-46270.5
31396.1
-19577.8
38682.1
1727.15
44244.8
19287.8
48484.3
32951.9
51613.7
42689.3
54200.6
49489.2
56716
54324.9
59220.3
58202.8
61638.8
61852
63938.8
64867.5
66119.8
67183.1
68024.8
68964.9
69555.4
70362.7
70813.4
71554.5
71898.2
72611.1
72869.3
73621.3
73806.2
74661.9
74759.5
75835.6
75784.4
77347.8
76931.8
79607.7
77938.8
129884
127740
127549
127099
127036
126917
126833
126695
126574
126423
126266
126077
125868
125625
125353
125048
124710
124333
123918
123455
122944
122377
121766
121083
120393
119556
118842
117744
117125
115578
115211
112978
113062
109769
110693
105750
108274
100673
105503
93886.1
102852
86178.3
100579
76353.1
98314.2
62314.7
93134
37916.4
84283.9
3363.35
72721.8
-57496.1
38544.7
-214780
-917.076
-89271.8
22488.1
-46285.5
31381.8
-19595.9
38661.7
1709.98
44224.8
19274.8
48467.3
32941.6
51599.8
42680.2
54189.7
49480.8
56706.7
54316.2
59210.6
58193.9
61628.1
61843.6
63930.4
64860.1
66113.3
67177.1
68019.6
68960.4
69551
70358.8
70809.2
71550.9
71894.1
72607.6
72865
73617.7
73801.5
74658
74754
75831.2
75776.9
77341.7
76921.3
79601.1
77931.2
129778
127714
127536
127091
127036
126917
126833
126694
126573
126421
126264
126075
125865
125622
125350
125044
124706
124329
123914
123450
122938
122371
121760
121076
120386
119548
118835
117736
117117
115569
115203
112968
113052
109758
110683
105740
108263
100661
105487
93874.7
102840
86175.3
100568
76348.9
98298.3
62306.1
93101.4
37892.6
84234.6
3337.97
72653.9
-57532.3
38582.8
-213646
-727.113
-89369.4
22441.1
-46301.1
31367.6
-19613.9
38641.4
1692.65
44204.6
19261.6
48450.3
32931.4
51585.9
42671.1
54178.8
49472.5
56697.6
54307.8
59201.2
58185
61617.5
61835.3
63921.8
64852.7
66106.6
67171.1
68014.4
68955.8
69546.7
70354.9
70805.2
71547.2
71890.1
72604.1
72860.8
73614
73796.7
74654.2
74748.3
75826.6
75769.3
77335.5
76910.9
79594.2
77923.6
129677
127689
127524
127083
127036
126917
126832
126692
126571
126419
126262
126072
125863
125619
125347
125040
124703
124325
123909
123445
122933
122365
121754
121070
120379
119541
118828
117728
117109
115560
115194
112959
113043
109748
110672
105729
108252
100650
105470
93863
102828
86171.8
100556
76344.6
98282.4
62298
93069.6
37869.2
84185.7
3312.7
72586.5
-57568.1
38621
-212517
-527.961
-89465.3
22393.3
-46317.3
31353.6
-19631.9
38621.1
1675.19
44184.3
19248.3
48433.3
32921.2
51572.2
42662.3
54168.2
49464.5
56688.8
54299.5
59191.9
58176.3
61606.9
61826.8
63913.1
64845.2
66100
67165.1
68009.2
68951.3
69542.4
70351
70801.2
71543.6
71886
72600.6
72856.5
73610.4
73792
74650.3
74742.7
75822
75761.7
77329.1
76900.3
79587
77915.8
129579
127665
127511
127075
127036
126916
126831
126691
126569
126417
126259
126070
125860
125615
125343
125037
124699
124320
123904
123439
122927
122359
121748
121063
120373
119534
118821
117720
117101
115551
115186
112949
113034
109737
110662
105719
108242
100639
105454
93851.2
102815
86167.8
100544
76340.1
98266.5
62290.5
93038.7
37846.2
84137.3
3287.46
72519.6
-57604.1
38659.2
-211392
-319.973
-89559.6
22345.1
-46334
31339.9
-19649.8
38601
1657.62
44164
19234.9
48416.3
32911.1
51558.7
42653.6
54157.7
49456.7
56680.2
54291.6
59182.9
58167.7
61596.3
61818.4
63904.4
64837.6
66093.2
67159.1
68004
68946.9
69538.2
70347.2
70797.2
71540.1
71882.1
72597.2
72852.3
73606.8
73787.2
74646.4
74737
75817.3
75754.1
77322.6
76889.8
79579.6
77907.9
129486
127642
127499
127068
127037
126916
126830
126689
126567
126415
126257
126067
125857
125612
125340
125033
124694
124316
123899
123434
122922
122353
121741
121056
120366
119526
118813
117711
117094
115542
115177
112939
113025
109727
110652
105708
108231
100627
105437
93839.3
102802
86163.1
100532
76335.3
98250.7
62283.4
93008.7
37823.5
84089.2
3262.21
72453.2
-57640.2
38697
-210272
-103.399
-89652.5
22296.5
-46351.1
31326.4
-19667.6
38581
1639.97
44143.7
19221.4
48399.4
32901.1
51545.3
42645.1
54147.5
49449.2
56671.8
54283.9
59174.1
58159.2
61585.8
61809.8
63895.6
64830
66086.5
67153.1
67998.9
68942.5
69534.1
70343.5
70793.4
71536.7
71878.2
72593.8
72848.1
73603.2
73782.4
74642.5
74731.2
75812.6
75746.3
77315.9
76879.2
79571.9
77899.9
129397
127620
127487
127061
127037
126915
126829
126687
126565
126412
126254
126064
125854
125609
125336
125029
124690
124311
123895
123429
122916
122347
121735
121050
120359
119519
118806
117703
117086
115533
115169
112930
113016
109716
110642
105698
108220
100616
105421
93827.1
102788
86157.9
100519
76330.3
98234.8
62276.7
92979.4
37801
84041.4
3236.84
72387.1
-57676.6
38733.9
-209157
121.505
-89743.7
22247.8
-46368.5
31313.3
-19685.2
38561.2
1622.26
44123.4
19207.9
48382.4
32891.2
51532.1
42636.9
54137.5
49441.9
56663.7
54276.5
59165.5
58150.9
61575.2
61801.3
63886.7
64822.4
66079.7
67147.1
67993.8
68938.2
69530
70339.9
70789.6
71533.3
71874.4
72590.5
72843.9
73599.6
73777.7
74638.6
74725.5
75807.8
75738.5
77309.1
76868.5
79563.9
77891.7
129311
127599
127476
127055
127037
126914
126828
126684
126563
126410
126251
126061
125850
125605
125332
125025
124686
124307
123889
123423
122910
122341
121728
121043
120352
119512
118799
117695
117078
115524
115161
112920
113006
109706
110632
105687
108209
100604
105405
93814.7
102773
86151.9
100505
76325.1
98218.9
62270.4
92950.8
37778.7
83993.9
3211.31
72321.3
-57713.4
38770
-208047
354.291
-89833.4
22199
-46386.2
31300.7
-19702.7
38541.6
1604.49
44103.1
19194.3
48365.6
32881.4
51519.1
42628.9
54127.8
49434.9
56655.9
54269.4
59157.2
58142.6
61564.7
61792.7
63877.8
64814.8
66072.9
67141.2
67988.8
68934
69526.1
70336.4
70785.9
71530.1
71870.6
72587.2
72839.7
73596.1
73772.9
74634.7
74719.6
75802.9
75730.7
77302.1
76857.7
79555.7
77883.3
129229
127579
127465
127048
127037
126913
126826
126681
126560
126406
126248
126057
125847
125601
125328
125020
124681
124302
123884
123418
122904
122335
121722
121036
120345
119504
118792
117687
117071
115515
115153
112910
112997
109695
110622
105676
108198
100593
105389
93802.2
102758
86145.3
100492
76319.5
98202.9
62264.5
92923
37756.6
83946.7
3185.58
72255.9
-57750.7
38805
-206941
594.547
-89921.8
22150.4
-46404
31288.4
-19720
38522.1
1586.68
44082.8
19180.6
48348.9
32871.8
51506.3
42621.1
54118.3
49428.1
56648.4
54262.5
59149
58134.4
61554.2
61784.1
63868.8
64807.1
66066.1
67135.3
67983.8
68929.9
69522.2
70333
70782.3
71526.9
71866.9
72584
72835.6
73592.6
73768.1
74630.9
74713.8
75798
75722.8
77295
76846.9
79547.3
77874.8
129150
127559
127454
127042
127037
126911
126824
126678
126557
126403
126245
126053
125842
125597
125324
125015
124676
124296
123879
123412
122898
122328
121715
121029
120338
119496
118784
117678
117063
115506
115144
112900
112988
109684
110611
105665
108187
100581
105374
93789.5
102743
86138
100477
76313.6
98186.9
62258.8
92895.9
37734.4
83899.6
3159.57
72190.8
-57788.7
38838.6
-205841
841.966
-90008.8
22102.4
-46422.1
31276.7
-19737.2
38502.9
1568.84
44062.7
19166.9
48332.3
32862.3
51493.9
42613.5
54109.2
49421.7
56641.2
54255.8
59141.1
58126.4
61543.8
61775.5
63859.8
64799.4
66059.3
67129.5
67978.9
68925.9
69518.4
70329.7
70778.8
71523.8
71863.3
72580.9
72831.6
73589.1
73763.4
74627
74707.9
75793.1
75714.8
77287.8
76835.9
79538.6
77866
129074
127541
127443
127036
127036
126909
126821
126675
126553
126399
126241
126049
125838
125592
125319
125010
124671
124291
123873
123406
122892
122322
121709
121022
120331
119489
118777
117670
117055
115497
115136
112890
112979
109673
110601
105654
108176
100569
105358
93776.6
102727
86130
100463
76307.3
98170.8
62253.4
92869.4
37712.3
83852.8
3133.25
72126
-57827.2
38871
-204745
1096.16
-90094.5
22055.1
-46440.2
31265.3
-19754.3
38483.9
1550.99
44042.6
19153.2
48315.9
32852.9
51481.7
42606.2
54100.4
49415.4
56634.2
54249.4
59133.5
58118.4
61533.4
61766.9
63850.7
64791.8
66052.5
67123.7
67974.1
68922
69514.8
70326.5
70775.4
71520.8
71859.7
72577.8
72827.5
73585.7
73758.6
74623.1
74702
75788.2
75706.7
77280.5
76824.9
79529.6
77857
129002
127523
127433
127030
127035
126906
126817
126670
126549
126395
126236
126044
125833
125587
125313
125005
124665
124285
123867
123400
122885
122315
121702
121015
120323
119481
118769
117661
117047
115488
115127
112880
112970
109662
110591
105642
108164
100557
105342
93763.5
102710
86121.3
100448
76300.7
98154.7
62248.2
92843.6
37690.2
83806.1
3106.58
72061.6
-57866.4
38901.9
-203653
1356.72
-90179
22008.9
-46458.6
31254.4
-19771.3
38465.2
1533.1
44022.7
19139.5
48299.6
32843.7
51469.8
42599.1
54091.8
49409.4
56627.6
54243.3
59126
58110.6
61523
61758.2
63841.6
64784.1
66045.8
67118
67969.4
68918.2
69511.3
70323.5
70772.1
71518
71856.2
72574.8
72823.5
73582.3
73753.9
74619.3
74696.1
75783.2
75698.5
77273
76813.8
79520.5
77847.8
128932
127506
127423
127025
127034
126903
126814
126666