/*--------------------------------*- C++ -*----------------------------------*\
| =========                 |                                                 |
| \\      /  F ield         | OpenFOAM: The Open Source CFD Toolbox           |
|  \\    /   O peration     | Version:  2412                                  |
|   \\  /    A nd           | Website:  www.openfoam.com                      |
|    \\/     M anipulation  |                                                 |
\*---------------------------------------------------------------------------*/
FoamFile
{
    version     2.0;
    format      ascii;
    arch        "LSB;label=32;scalar=64";
    class       volVectorField;
    location    "0.1";
    object      U;
}
// * * * * * * * * * * * * * * * * * * * * * * * * * * * * * * * * * * * * * //

dimensions      [0 1 -1 0 0 0 0];

internalField   nonuniform List<vector> 
13156
(
(79.3273 -82.5066 -1.81692e-14)
(101.74 -24.9201 -4.63555e-17)
(113.059 14.7152 0)
(117.104 28.6199 0)
(116.643 32.095 -2.64463e-14)
(114.121 32.3698 -3.74549e-19)
(111.524 31.8716 0)
(109.414 31.3427 5.83425e-14)
(107.824 30.9589 5.96136e-14)
(106.576 30.6807 0)
(105.602 30.4852 0)
(104.845 30.3427 3.13798e-14)
(104.325 30.2615 -3.1863e-14)
(104.047 30.242 5.01492e-19)
(104.023 30.2898 0)
(104.247 30.4129 3.2946e-14)
(104.763 30.6276 0)
(105.611 30.9389 -3.31142e-14)
(106.924 31.3972 7.71397e-19)
(108.859 32.053 0)
(111.425 32.917 0)
(114.67 34.0285 -2.94411e-14)
(118.668 35.385 0)
(123.071 36.9125 -2.61002e-14)
(128.15 38.6157 0)
(133.138 40.4036 0)
(139.124 42.356 0)
(144.416 44.3386 0)
(151.31 46.5375 -1.90853e-14)
(156.922 48.6985 0)
(164.773 51.1713 0)
(170.651 53.525 -8.88022e-19)
(179.946 56.3966 -1.47738e-14)
(186.149 59.0083 -1.36456e-14)
(197.568 62.471 1.2627e-14)
(204.859 65.6556 1.10565e-14)
(219.644 70.2062 0)
(228.982 74.1932 0)
(246.79 79.7218 -6.91932e-15)
(257.179 84.0889 -5.73091e-15)
(275.869 89.9129 6.01545e-15)
(279.661 92.3003 -5.18476e-15)
(292.278 95.9607 0)
(285.054 94.9482 0)
(296.523 97.7928 0)
(283.909 95.1378 4.00378e-15)
(299.371 99.1393 0)
(297.287 100.055 0)
(333.232 110.728 4.83556e-15)
(348.084 117.835 0)
(402.223 134.106 0)
(430.41 145.59 -4.70913e-15)
(553.668 196.948 2.49238e-19)
(544.4 1.63381 7.004e-16)
(369.156 -76.0906 2.83708e-17)
(354.804 -77.7183 0)
(376.187 -82.4056 0)
(414.269 -89.0276 1.14469e-15)
(413.579 -89.6127 1.64094e-19)
(406.798 -87.0973 0)
(382.82 -82.7184 3.96743e-20)
(370.65 -79.3083 0)
(348.579 -75.3511 1.1764e-15)
(337.163 -72.143 -8.32681e-20)
(316.207 -68.3436 -1.38033e-15)
(304.34 -65.1245 9.8865e-16)
(286.642 -61.9002 3.16801e-15)
(277.39 -59.3932 1.37301e-15)
(265.672 -57.3184 1.78574e-15)
(261.13 -56.0128 -1.66305e-15)
(255.976 -55.1852 -1.85465e-15)
(256.477 -55.0969 -2.93054e-20)
(257.225 -55.3975 -3.39367e-15)
(261.369 -56.1698 6.10564e-20)
(264.029 -56.8418 -1.55431e-15)
(267.175 -57.3906 1.5199e-15)
(267.721 -57.5687 1.56789e-15)
(267.452 -57.4099 -2.64748e-20)
(265.458 -57.0045 0)
(262.814 -56.4109 -1.77353e-15)
(259.521 -55.6988 0)
(256.079 -54.9528 0)
(252.557 -54.1905 -2.09796e-15)
(249.23 -53.4826 0)
(246.104 -52.8111 -2.3489e-15)
(243.376 -52.2388 -2.48237e-15)
(240.888 -51.6859 2.6068e-15)
(238.742 -51.2553 0)
(236.582 -50.7942 -2.86375e-15)
(234.65 -50.3993 0)
(232.443 -49.9233 -3.11546e-15)
(230.417 -49.5143 -3.24795e-15)
(227.731 -48.9391 -3.36123e-15)
(225.392 -48.4713 0)
(221.413 -47.6179 3.60384e-15)
(218.831 -47.1155 -3.75835e-15)
(212.068 -45.7243 0)
(210.532 -45.3971 -4.03752e-15)
(199.812 -43.0302 0)
(129.408 45.3646 1.24508e-14)
(138.898 50.1733 -2.70482e-14)
(136.604 43.8423 0)
(134.959 39.8914 0)
(134.462 38.5602 1.88695e-14)
(133.179 38.1403 -3.86878e-14)
(131.387 37.7658 0)
(129.477 37.3716 -1.97452e-14)
(127.584 36.9679 -1.99201e-14)
(125.884 36.6079 0)
(124.432 36.3122 -2.04255e-14)
(123.277 36.0933 -4.8199e-19)
(122.419 35.957 0)
(121.882 35.9106 2.14515e-14)
(121.658 35.9511 0)
(121.737 36.0878 2.19318e-14)
(122.131 36.3257 0)
(122.87 36.661 0)
(124.009 37.1229 9.02384e-19)
(125.684 37.753 -1.99552e-14)
(128.079 38.6032 0)
(131.134 39.6777 1.63974e-14)
(134.896 40.9703 0)
(139.114 42.4325 0)
(144.038 44.0889 1.18838e-14)
(149.011 45.8632 0)
(154.971 47.811 0)
(160.389 49.8316 0)
(167.372 52.0612 0)
(173.233 54.3058 0)
(181.242 56.8338 0)
(187.667 59.3659 -6.37491e-15)
(197.011 62.2755 1.16483e-14)
(204.008 65.12 5.27678e-15)
(215.279 68.5624 0)
(223.172 71.8561 -4.02222e-15)
(237.105 76.1344 3.35671e-15)
(246.074 79.8729 -2.56853e-15)
(263.387 85.3119 7.87842e-19)
(274.791 89.9421 1.85075e-15)
(293.629 95.9912 0)
(299.185 98.9615 1.68872e-15)
(310.474 102.433 2.04041e-15)
(306.323 102.388 -1.70717e-15)
(315.101 104.66 2.16768e-15)
(302.975 102.028 0)
(315.689 105.406 0)
(317.333 107.284 0)
(355.003 118.964 0)
(375.936 127.789 2.03317e-16)
(430.854 145.223 0)
(463.457 157.905 1.43787e-15)
(588.588 211.745 6.0533e-16)
(587.199 -9.54948 -2.20421e-16)
(399.392 -82.033 0)
(390.762 -83.8614 0)
(416.342 -90.4482 -2.21053e-16)
(453.812 -97.2142 -3.6653e-16)
(446.325 -96.1589 5.13057e-16)
(437.399 -93.154 0)
(409.156 -87.8167 3.03862e-16)
(398.213 -84.7381 2.86113e-17)
(372.868 -80.0115 0)
(362.149 -77.0322 1.80304e-16)
(337.816 -72.4355 4.44437e-16)
(326.3 -69.4007 0)
(306.224 -65.6257 -1.02923e-15)
(297.403 -63.3193 3.35391e-20)
(284.553 -60.99 0)
(280.014 -59.7798 1.09548e-15)
(274.406 -58.8927 6.06449e-16)
(274.628 -58.8246 -5.48099e-16)
(274.869 -59.0645 5.41293e-16)
(278.649 -59.7977 4.89905e-16)
(280.946 -60.3789 4.90672e-16)
(283.739 -60.8544 -4.81221e-16)
(284.013 -60.9353 0)
(283.426 -60.6952 -2.33262e-20)
(281.233 -60.2257 0)
(278.417 -59.5875 5.82161e-16)
(275.045 -58.8497 0)
(271.588 -58.1034 6.67713e-16)
(268.147 -57.3572 7.16359e-16)
(264.988 -56.6939 0)
(262.118 -56.0777 1.65439e-15)
(259.706 -55.5848 8.88791e-16)
(257.584 -55.1049 -9.49543e-16)
(255.814 -54.7703 0)
(254.047 -54.3763 2.5416e-20)
(252.478 -54.0677 0)
(250.627 -53.6382 1.22038e-15)
(248.887 -53.2998 1.29513e-15)
(246.469 -52.7264 2.72724e-15)
(244.253 -52.3009 0)
(240.694 -51.4278 -3.01856e-15)
(237.809 -50.9116 1.59243e-15)
(232.086 -49.5285 1.64778e-15)
(229.38 -49.1423 1.74103e-15)
(220.027 -46.7639 1.75755e-15)
(96.5589 37.5022 0)
(132.24 40.8464 -1.18667e-17)
(141.209 38.858 -1.55399e-14)
(141.999 39.3849 0)
(141.042 39.9318 0)
(139.289 39.9575 1.56147e-14)
(137.401 39.6349 0)
(135.578 39.2578 -1.4923e-14)
(133.836 38.881 1.48406e-14)
(132.278 38.5568 0)
(130.97 38.2986 1.52031e-14)
(129.965 38.1218 -1.55557e-14)
(129.277 38.0329 0)
(128.919 38.0386 0)
(128.879 38.1334 0)
(129.136 38.3251 -3.36825e-14)
(129.686 38.6145 0)
(130.53 38.9891 -1.62605e-14)
(131.684 39.4647 1.51842e-14)
(133.233 40.0627 1.35792e-14)
(135.341 40.8253 -1.17782e-14)
(138.092 41.8035 1.0102e-14)
(141.593 43.0125 0)
(145.639 44.419 0)
(150.404 46.026 -6.76486e-15)
(155.32 47.7848 0)
(161.178 49.6995 0)
(166.62 51.7365 0)
(173.56 53.9448 0)
(179.483 56.2256 0)
(187.513 58.7459 0)
(194.026 61.3248 0)
(203.431 64.24 -5.04419e-19)
(210.549 67.1368 -2.76614e-15)
(221.879 70.5808 -2.47389e-15)
(229.813 73.8904 2.07597e-15)
(243.492 78.0669 -3.43863e-15)
(252.11 81.6766 1.30836e-15)
(269.358 87.0667 1.14802e-15)
(280.899 91.7605 0)
(299.841 97.904 0)
(304.998 100.854 8.6502e-16)
(316.184 104.368 -3.36171e-19)
(311.659 104.269 8.76241e-16)
(320.488 106.633 -1.10339e-15)
(307.062 103.577 0)
(320.478 107.104 0)
(323.301 109.257 3.7709e-16)
(362.715 121.478 0)
(385.417 130.864 -1.02761e-16)
(440.716 148.576 0)
(475.337 161.723 -7.2394e-16)
(599.002 215.983 0)
(593.191 -10.1926 1.09526e-16)
(410.68 -83.3056 0)
(407.327 -87.2193 0)
(435.067 -94.6277 2.34393e-16)
(470.283 -100.716 1.89778e-16)
(457.959 -98.4673 -1.30328e-16)
(447.077 -94.9032 -6.67142e-17)
(417.836 -89.3943 0)
(406.993 -86.3042 -1.45794e-17)
(381.007 -81.4683 0)
(369.976 -78.3917 9.25605e-17)
(344.939 -73.6565 -2.28607e-16)
(333.097 -70.563 -1.65558e-16)
(312.771 -66.7673 2.661e-16)
(303.926 -64.5006 -2.33068e-16)
(291.133 -62.2247 0)
(286.683 -61.0813 -5.67611e-16)
(281.061 -60.2401 -2.76412e-20)
(281.266 -60.2064 0)
(281.326 -60.4501 0)
(284.933 -61.1586 0)
(287.039 -61.6937 0)
(289.569 -62.097 3.39603e-20)
(289.641 -62.103 0)
(288.823 -61.7917 -2.68998e-16)
(286.478 -61.2686 2.85506e-16)
(283.536 -60.5927 0)
(280.093 -59.8326 0)
(276.607 -59.081 -3.52124e-16)
(273.193 -58.3423 0)
(270.114 -57.7041 0)
(267.371 -57.1201 -4.41231e-16)
(265.112 -56.6712 0)
(263.163 -56.2304 0)
(261.563 -55.9403 0)
(259.97 -55.5768 5.86513e-16)
(258.547 -55.3043 -6.28219e-16)
(256.842 -54.8891 0)
(255.196 -54.5738 0)
(252.876 -53.9893 -7.5273e-16)
(250.67 -53.5709 0)
(247.113 -52.6396 1.68042e-15)
(244.175 -52.1296 0)
(238.307 -50.6111 -9.23364e-16)
(235.511 -50.2901 0)
(225.579 -47.6355 -9.87166e-16)
(99.2682 17.6284 0)
(127.81 30.2448 3.04427e-14)
(137.364 36.3321 2.70119e-14)
(140.159 39.4005 0)
(140.563 40.1961 0)
(139.404 40.1393 1.14185e-14)
(137.798 39.8321 -1.08245e-14)
(136.239 39.5328 1.04802e-14)
(134.81 39.2432 -2.08034e-14)
(133.594 39.0123 1.05321e-14)
(132.628 38.8435 0)
(131.952 38.7543 0)
(131.575 38.7479 0)
(131.51 38.8332 0)
(131.739 39.0023 0)
(132.228 39.2605 1.24914e-14)
(132.951 39.6023 1.23033e-14)
(133.884 40.0065 1.16378e-14)
(135.051 40.4837 -1.04732e-14)
(136.585 41.0651 0)
(138.683 41.804 3.65158e-19)
(141.449 42.7645 -3.58915e-19)
(144.96 43.9581 0)
(149.02 45.3556 -4.94098e-15)
(153.763 46.9461 4.37232e-15)
(158.696 48.7048 -3.91319e-15)
(164.519 50.601 0)
(170.003 52.6522 0)
(176.924 54.8431 0)
(182.898 57.1485 2.63482e-15)
(190.945 59.6569 -2.40141e-15)
(197.513 62.2648 2.19199e-15)
(206.953 65.1713 -3.12917e-19)
(214.148 68.103 0)
(225.511 71.5318 1.61457e-15)
(233.483 74.8656 1.35444e-15)
(247.003 78.9637 2.75227e-19)
(255.404 82.5011 0)
(272.616 87.8296 0)
(284.186 92.5669 0)
(303.092 98.7481 -6.63257e-16)
(307.806 101.684 -5.7651e-16)
(318.842 105.201 -1.39171e-15)
(313.952 105.064 5.81012e-16)
(322.8 107.458 7.28081e-16)
(308.563 104.154 4.25477e-16)
(322.77 107.767 0)
(326.567 110.145 -2.50257e-16)
(367.14 122.6 0)
(390.892 132.363 0)
(446.04 149.985 0)
(482.101 163.434 -9.30955e-19)
(603.903 217.578 0)
(594.218 -9.24952 -7.14324e-17)
(417.783 -83.9169 0)
(419.06 -89.8325 2.31305e-16)
(447.73 -97.653 -7.98326e-17)
(480.187 -102.862 -1.26078e-16)
(464.044 -99.6222 -8.56079e-17)
(451.943 -95.6517 4.37068e-17)
(422.166 -90.0768 -1.01647e-16)
(411.536 -86.991 -9.6784e-18)
(385.146 -82.1062 -1.27767e-16)
(373.983 -78.9538 -6.14714e-17)
(348.528 -74.1552 0)
(336.574 -71.0307 1.10521e-16)
(316.159 -67.2661 0)
(307.394 -65.0489 -1.56242e-16)
(294.681 -62.8446 0)
(290.349 -61.7671 -3.84284e-21)
(284.744 -60.9823 -4.1978e-16)
(284.961 -60.987 0)
(284.916 -61.2511 1.85388e-16)
(288.383 -61.938 1.67802e-16)
(290.336 -62.4361 0)
(292.63 -62.7649 1.66884e-16)
(292.519 -62.6994 0)
(291.498 -62.3181 0)
(289.016 -61.7431 -3.87388e-16)
(285.959 -61.0298 0)
(282.445 -60.247 0)
(278.924 -59.4878 0)
(275.518 -58.7535 -2.5879e-16)
(272.485 -58.1337 0)
(269.822 -57.5743 0)
(267.661 -57.1567 -3.25381e-16)
(265.817 -56.7431 3.49036e-16)
(264.313 -56.4798 0)
(262.814 -56.1334 0)
(261.462 -55.8774 4.29395e-16)
(259.822 -55.4647 0)
(258.204 -55.1523 -4.86373e-16)
(255.91 -54.5512 0)
(253.674 -54.1195 0)
(250.081 -53.1435 -1.14487e-15)
(247.069 -52.6086 6.05797e-16)
(241.088 -51.012 0)
(238.178 -50.6756 -6.6459e-16)
(227.902 -47.8858 0)
(103.959 22.5755 0)
(127.605 34.2231 -1.97291e-14)
(135.046 36.551 -8.74056e-15)
(137.386 38.6545 -8.72226e-15)
(138.082 39.4803 0)
(137.383 39.6076 -7.79637e-15)
(136.203 39.4493 7.48362e-15)
(135.025 39.2602 -7.33346e-15)
(133.948 39.0601 7.35381e-15)
(133.059 38.9142 -1.19221e-19)
(132.399 38.8231 0)
(132.005 38.8069 0)
(131.889 38.8672 0)
(132.062 39.0153 0)
(132.505 39.2418 0)
(133.173 39.5506 9.07656e-15)
(134.032 39.9325 -2.96378e-19)
(135.07 40.366 -8.15568e-15)
(136.355 40.868 7.19687e-15)
(138.057 41.4801 0)
(140.35 42.2524 5.27999e-15)
(143.294 43.2423 -2.64746e-19)
(146.929 44.4541 3.98651e-15)
(151.076 45.8633 7.06461e-15)
(155.855 47.4529 -3.1529e-15)
(160.832 49.2176 2.83913e-15)
(166.652 51.1035 0)
(172.18 53.1667 0)
(179.093 55.3436 -2.12388e-15)
(185.108 57.666 -3.88869e-15)
(193.169 60.1622 1.78018e-15)
(199.771 62.7873 -1.62692e-15)
(209.234 65.6822 -1.49102e-15)
(216.473 68.6339 0)
(227.856 72.0447 0)
(235.849 75.3956 -2.03615e-15)
(249.246 79.4314 8.56356e-16)
(257.463 82.9051 6.5938e-16)
(274.621 88.1642 -5.85936e-16)
(286.143 92.9138 0)
(304.956 99.1161 5.10504e-16)
(309.241 102.037 0)
(320.158 105.565 1.26004e-19)
(314.956 105.398 -4.43803e-16)
(323.853 107.834 -1.20543e-19)
(309.071 104.364 -6.48149e-16)
(324.11 108.057 4.15238e-16)
(328.773 110.612 0)
(370.23 123.191 0)
(394.675 133.202 0)
(449.497 150.622 0)
(486.696 164.252 -6.18666e-19)
(606.649 218.123 0)
(593.796 -8.31404 -5.34231e-17)
(423.509 -84.3308 -4.46934e-20)
(428.776 -92.0063 -1.80477e-16)
(457.563 -100.031 0)
(487.039 -104.318 0)
(467.689 -100.224 6.47576e-17)
(454.764 -95.9574 -3.29724e-17)
(424.653 -90.3598 7.71534e-17)
(414.271 -87.2965 1.4714e-17)
(387.581 -82.378 9.75496e-17)
(376.374 -79.1743 4.7001e-17)
(350.64 -74.3379 1.1703e-16)
(338.67 -71.2071 -8.48882e-17)
(318.237 -67.4856 -1.37373e-16)
(309.589 -65.324 -6.26349e-21)
(296.953 -63.1873 0)
(292.732 -62.1727 1.46357e-16)
(287.138 -61.4411 1.22865e-20)
(287.354 -61.4845 0)
(287.216 -61.7695 -2.84984e-16)
(290.535 -62.4368 -1.29171e-16)
(292.331 -62.8982 0)
(294.389 -63.1525 0)
(294.093 -63.0171 0)
(292.88 -62.5678 0)
(290.263 -61.9425 2.11312e-21)
(287.097 -61.1928 0)
(283.511 -60.3882 0)
(279.952 -59.6214 0)
(276.546 -58.8911 4.04509e-16)
(273.549 -58.2877 0)
(270.948 -57.7502 0)
(268.86 -57.3589 3.77232e-21)
(267.093 -56.9675 -2.72695e-16)
(265.656 -56.7238 0)
(264.218 -56.3888 -3.12752e-16)
(262.908 -56.1415 0)
(261.302 -55.7267 0)
(259.689 -55.4095 5.93248e-21)
(257.394 -54.79 0)
(255.119 -54.3379 0)
(251.482 -53.3234 2.08133e-20)
(248.4 -52.7535 -4.6843e-16)
(242.321 -51.1012 0)
(239.316 -50.7215 -2.86988e-20)
(228.791 -47.8558 0)
(103.826 22.5289 0)
(126.54 34.025 1.0705e-14)
(133.337 35.6946 0)
(135.19 37.976 5.61665e-15)
(135.741 38.8597 0)
(135.178 39.0374 5.52534e-15)
(134.258 38.9529 0)
(133.371 38.8423 5.47828e-15)
(132.578 38.7139 -5.57342e-15)
(131.959 38.6357 -5.74483e-15)
(131.545 38.6053 -5.97666e-15)
(131.376 38.6446 0)
(131.465 38.7545 0)
(131.822 38.9485 0)
(132.426 39.2162 0)
(133.231 39.5619 -6.85377e-15)
(134.206 39.9756 -6.55072e-15)
(135.373 40.4411 5.96883e-15)
(136.838 40.9825 5.23305e-15)
(138.773 41.6438 0)
(141.307 42.4655 0)
(144.455 43.4953 -6.90425e-15)
(148.231 44.7321 -6.12951e-15)
(152.473 46.1568 -2.74596e-15)
(157.297 47.7493 0)
(162.319 49.5199 2.24092e-15)
(168.14 51.3978 0)
(173.705 53.4688 0)
(180.608 55.6322 1.70216e-15)
(186.651 57.9646 1.56223e-15)
(194.713 60.4471 -1.43606e-15)
(201.33 63.0799 0)
(210.799 65.9608 0)
(218.057 68.9202 0)
(229.442 72.311 0)
(237.433 75.6694 8.32831e-16)
(250.714 79.6521 0)
(258.746 83.0578 -5.46708e-16)
(275.814 88.2379 1.48656e-19)
(287.217 92.972 4.02785e-16)
(305.909 99.1919 -4.25047e-16)
(309.795 102.101 0)
(320.645 105.661 4.43056e-16)
(315.19 105.475 0)
(324.187 107.98 -1.00044e-19)
(309.048 104.393 2.67746e-16)
(324.944 108.177 -3.44574e-16)
(330.398 110.88 0)
(372.559 123.536 3.23596e-16)
(397.458 133.711 0)
(451.879 150.898 2.75713e-16)
(490.011 164.607 1.48675e-16)
(608.195 218.153 -1.20165e-16)
(592.895 -7.47257 4.39755e-17)
(428.723 -84.6767 -1.50886e-19)
(437.352 -93.9319 0)
(465.617 -102.019 0)
(492.001 -105.367 0)
(469.883 -100.517 0)
(456.39 -96.0297 2.69819e-17)
(426.063 -90.4309 6.33826e-17)
(415.943 -87.3988 -1.21102e-17)
(389.018 -82.4487 0)
(377.825 -79.2109 -7.77072e-17)
(351.901 -74.3485 -9.70722e-17)
(339.979 -71.2297 1.40956e-16)
(319.567 -67.5548 1.14338e-16)
(311.054 -65.4537 -3.16257e-21)
(298.485 -63.379 0)
(294.357 -62.4238 -1.21743e-16)
(288.758 -61.7381 1.34231e-16)
(288.948 -61.8151 0)
(288.707 -62.1144 1.55822e-20)
(291.859 -62.7589 0)
(293.482 -63.178 0)
(295.297 -63.3564 -1.07859e-16)
(294.808 -63.15 0)
(293.406 -62.6338 0)
(290.653 -61.9589 1.26603e-16)
(287.377 -61.1737 0)
(283.718 -60.3477 0)
(280.12 -59.5737 0)
(276.712 -58.8477 -1.70377e-16)
(273.745 -58.2599 0)
(271.196 -57.7427 0)
(269.169 -57.375 2.14293e-16)
(267.464 -57.0027 2.29667e-16)
(266.079 -56.7749 0)
(264.685 -56.448 2.63102e-16)
(263.402 -56.2054 0)
(261.815 -55.786 0)
(260.199 -55.461 3.17287e-16)
(257.896 -54.8226 0)
(255.584 -54.3481 0)
(251.905 -53.2991 3.70026e-16)
(248.765 -52.6919 0)
(242.604 -50.9948 0)
(239.527 -50.563 4.26481e-16)
(228.805 -47.6502 0)
(103.805 21.6116 0)
(125.406 33.354 -3.20887e-15)
(131.775 35.0404 0)
(133.342 37.4449 0)
(133.699 38.3175 0)
(133.127 38.5 -6.63244e-20)
(132.335 38.45 4.26668e-15)
(131.643 38.3897 4.36814e-15)
(131.069 38.314 4.50827e-15)
(130.666 38.2889 0)
(130.458 38.307 4.89581e-15)
(130.478 38.3907 0)
(130.739 38.5405 0)
(131.251 38.771 5.49866e-15)
(131.992 39.0719 5.56831e-15)
(132.916 39.4483 0)
(134.01 39.892 0)
(135.326 40.3929 0)
(136.994 40.9791 -4.08205e-15)
(139.169 41.6917 0)
(141.931 42.5612 0)
(145.262 43.6276 5.60113e-15)
(149.162 44.8867 5.02981e-15)
(153.486 46.324 0)
(158.347 47.9183 0)
(163.404 49.6917 -1.59168e-19)
(169.222 51.5609 0)
(174.809 53.6347 0)
(181.693 55.7828 0)
(187.75 58.1187 0)
(195.796 60.5844 1.22564e-15)
(202.411 63.2171 0)
(211.87 66.0798 0)
(219.12 69.0368 9.35204e-16)
(230.489 72.4037 0)
(238.455 75.761 0)
(251.617 79.694 0)
(259.447 83.0241 4.76778e-16)
(276.378 88.1124 8.53696e-16)
(287.599 92.8072 -3.52412e-16)
(306.155 99.0443 3.71834e-16)
(309.682 101.95 0)
(320.526 105.562 0)
(314.874 105.37 0)
(324.035 107.965 -8.92766e-20)
(308.693 104.302 0)
(325.465 108.18 3.00095e-16)
(331.646 111.01 -1.37996e-16)
(374.375 123.714 -5.62868e-16)
(399.538 134.001 0)
(453.523 150.965 -2.37772e-16)
(492.403 164.712 0)
(608.9 217.961 1.04245e-16)
(591.912 -6.6706 3.77062e-17)
(433.761 -85.0871 1.65047e-19)
(445.14 -95.7645 0)
(472.352 -103.756 -4.51977e-17)
(495.6 -106.133 0)
(471.06 -100.596 0)
(457.19 -95.9378 0)
(426.724 -90.3506 4.62379e-21)
(416.873 -87.3519 1.04748e-17)
(389.758 -82.3722 -6.98342e-17)
(378.627 -79.1131 6.74601e-17)
(352.582 -74.2353 8.45017e-17)
(340.754 -71.1426 -1.22833e-16)
(320.39 -67.5179 -9.98223e-17)
(312.017 -65.4816 1.74887e-16)
(299.504 -63.4653 0)
(295.448 -62.5664 5.08064e-21)
(289.824 -61.9204 0)
(289.957 -62.0245 -1.04672e-16)
(289.597 -62.3312 1.03273e-16)
(292.557 -62.9478 -9.38124e-17)
(293.984 -63.3176 -9.51394e-17)
(295.545 -63.4179 9.31231e-21)
(294.855 -63.1387 0)
(293.263 -62.5562 1.04201e-16)
(290.372 -61.8319 0)
(286.987 -61.0117 0)
(283.253 -60.1649 0)
(279.616 -59.3842 0)
(276.203 -58.6629 0)
(273.262 -58.0903 0)
(270.759 -57.5925 0)
(268.785 -57.2464 0)
(267.131 -56.8911 -2.02639e-16)
(265.786 -56.6764 0)
(264.427 -56.3554 0)
(263.162 -56.1152 0)
(261.588 -55.6898 0)
(259.965 -55.3555 0)
(257.653 -54.6984 0)
(255.31 -54.2016 0)
(251.597 -53.1213 0)
(248.414 -52.4775 0)
(242.186 -50.7429 0)
(239.059 -50.2564 0)
(228.18 -47.3135 0)
(103.753 20.8665 0)
(124.339 32.6163 -2.19547e-15)
(130.335 34.4634 0)
(131.694 36.9654 0)
(131.862 37.8265 3.16616e-15)
(131.232 38.003 -6.70304e-15)
(130.499 37.9657 -3.50478e-15)
(129.941 37.9356 -5.11109e-20)
(129.535 37.8975 0)
(129.309 37.9139 0)
(129.274 37.9713 -4.20096e-15)
(129.459 38.0922 -4.39628e-15)
(129.871 38.2759 4.57109e-15)
(130.522 38.5379 -4.69291e-15)
(131.388 38.8683 -4.71656e-15)
(132.43 39.2737 0)
(133.652 39.7485 0)
(135.135 40.2875 0)
(137.013 40.9192 0)
(139.411 41.6793 0)
(142.374 42.59 0)
(145.857 43.6861 -1.44225e-19)
(149.856 44.9619 -2.16573e-15)
(154.241 46.4073 0)
(159.128 48.0003 -1.79549e-15)
(164.205 49.7722 -3.28522e-15)
(170.01 51.6304 -1.50563e-15)
(175.606 53.7017 -1.38443e-15)
(182.459 55.832 -1.27559e-15)
(188.513 58.1652 1.17529e-15)
(196.529 60.6101 -1.08717e-15)
(203.125 63.2357 -9.97629e-16)
(212.554 66.0753 -9.23244e-16)
(219.775 69.021 -1.66693e-15)
(231.107 72.3591 0)
(239.024 75.7069 6.43604e-16)
(252.06 79.5915 0)
(259.666 82.8375 -4.30386e-16)
(276.412 87.8191 -3.86094e-16)
(287.39 92.4525 0)
(305.805 98.7067 3.3588e-16)
(309.018 101.618 0)
(319.919 105.304 0)
(314.129 105.117 0)
(323.518 107.824 -3.57102e-16)
(308.11 104.117 0)
(325.769 108.088 -5.40692e-16)
(332.621 111.017 1.27222e-19)
(375.813 123.731 5.05798e-16)
(401.088 134.073 -3.11986e-17)
(454.632 150.81 0)
(494.092 164.557 -1.16595e-16)
(608.997 217.56 9.3363e-17)
(591.049 -5.89147 -3.38492e-17)
(438.796 -85.5389 4.16945e-19)
(452.34 -97.4642 0)
(478.042 -105.214 4.09129e-17)
(498.14 -106.616 0)
(471.468 -100.47 0)
(457.363 -95.6902 2.06258e-17)
(426.815 -90.1304 -9.7569e-17)
(417.234 -87.1703 -2.13242e-21)
(389.964 -82.1679 7.84841e-21)
(378.934 -78.9016 -3.02527e-17)
(352.823 -74.0205 -7.59786e-17)
(341.126 -70.9665 5.52774e-17)
(320.831 -67.3958 1.7997e-16)
(312.599 -65.427 -3.05705e-21)
(300.129 -63.4656 0)
(296.122 -62.6189 9.57703e-17)
(290.451 -62.007 1.05481e-16)
(290.498 -62.1316 1.88495e-16)
(289.994 -62.4394 -9.30131e-17)
(292.738 -63.0229 8.45911e-17)
(293.945 -63.3376 1.2302e-20)
(295.241 -63.3579 8.54318e-17)
(294.339 -63.0045 0)
(292.555 -62.3563 -1.88893e-16)
(289.523 -61.5829 0)
(286.028 -60.7282 1.08504e-16)
(282.219 -59.8612 0)
(278.541 -59.0745 0)
(275.122 -58.3584 -1.36727e-16)
(272.205 -57.8011 0)
(269.742 -57.3218 0)
(267.813 -56.9957 1.72138e-16)
(266.202 -56.6557 -1.84427e-16)
(264.89 -56.4521 0)
(263.557 -56.1352 -2.10974e-16)
(262.306 -55.8958 0)
(260.74 -55.4636 0)
(259.111 -55.1194 0)
(256.79 -54.4442 0)
(254.425 -53.926 0)
(250.687 -52.8175 2.93941e-16)
(247.478 -52.1386 3.10396e-16)
(241.197 -50.3721 0)
(238.043 -49.8304 -3.36964e-16)
(227.035 -46.8697 0)
(103.677 20.1619 0)
(123.341 31.8359 3.30805e-15)
(128.983 33.9207 0)
(130.165 36.5191 0)
(130.159 37.3747 -2.58574e-15)
(129.46 37.5412 2.80294e-15)
(128.756 37.5044 -2.9911e-15)
(128.293 37.4912 -4.28107e-20)
(128.018 37.4796 0)
(127.939 37.5284 0)
(128.054 37.6181 3.72422e-15)
(128.383 37.7708 3.90174e-15)
(128.933 37.9843 -4.05116e-15)
(129.712 38.2747 0)
(130.698 38.6329 -4.13621e-15)
(131.861 39.0675 0)
(133.225 39.5753 0)
(134.885 40.1538 0)
(136.967 40.8293 0)
(139.569 41.6314 -2.60137e-15)
(142.701 42.5759 0)
(146.307 43.6944 -4.24385e-15)
(150.38 44.9809 -1.93208e-15)
(154.807 46.4292 1.76498e-15)
(159.705 48.0173 1.61543e-15)
(164.786 49.7835 1.48232e-15)
(170.569 51.6278 2.7255e-15)
(176.157 53.6915 1.25566e-15)
(182.968 55.8009 2.31947e-15)
(189.005 58.1255 -1.07001e-15)
(196.973 60.5454 1.98368e-15)
(203.533 63.1575 9.10997e-16)
(212.914 65.9689 1.0366e-19)
(220.084 68.8954 7.63087e-16)
(231.36 72.1994 -6.9742e-16)
(239.207 75.5302 -1.18291e-15)
(252.109 79.3667 0)
(259.467 82.5207 0)
(275.977 87.3806 3.57403e-16)
(286.656 91.932 2.94653e-16)
(304.929 98.204 -3.1067e-16)
(307.876 101.132 -2.66784e-16)
(318.898 104.912 0)
(313.024 104.745 0)
(322.704 107.588 0)
(307.356 103.873 0)
(325.903 107.933 2.49319e-16)
(333.37 110.944 1.14499e-16)
(376.934 123.638 -2.3281e-16)
(402.188 133.985 5.6999e-17)
(455.309 150.48 0)
(495.207 164.151 2.14715e-16)
(608.642 216.917 -1.71953e-16)
(590.422 -5.13585 3.07927e-17)
(443.924 -85.9859 9.53702e-20)
(459.067 -99.0084 0)
(482.848 -106.422 0)
(499.806 -106.873 0)
(471.252 -100.194 -3.7088e-17)
(457.024 -95.3355 -1.87891e-17)
(426.436 -89.8154 4.45401e-17)
(417.123 -86.8961 -8.54559e-18)
(389.73 -81.8754 1.10226e-20)
(378.836 -78.6114 0)
(352.705 -73.7356 -6.98981e-17)
(341.17 -70.7287 -5.09101e-17)
(320.959 -67.2132 -8.29946e-17)
(312.867 -65.3113 -7.27335e-17)
(300.428 -63.3994 9.55328e-17)
(296.449 -62.5992 0)
(290.709 -62.0146 -1.94491e-16)
(290.64 -62.1524 -1.73684e-16)
(289.969 -62.4546 8.57501e-17)
(292.471 -62.9997 0)
(293.434 -63.2533 7.93589e-17)
(294.453 -63.1918 0)
(293.33 -62.7627 0)
(291.353 -62.0494 5.32858e-21)
(288.177 -61.2271 0)
(284.57 -60.3386 -3.27407e-21)
(280.684 -59.452 0)
(276.966 -58.6599 -1.17659e-16)
(273.54 -57.9495 1.27155e-16)
(270.643 -57.4073 -1.37805e-16)
(268.215 -56.9458 0)
(266.325 -56.6385 -1.60194e-16)
(264.749 -56.3122 6.74255e-21)
(263.464 -56.1178 0)
(262.151 -55.8037 3.92483e-16)
(260.908 -55.5637 -2.09582e-16)
(259.347 -55.124 0)
(257.713 -54.7698 -2.35491e-16)
(255.388 -54.0775 -2.47289e-16)
(253.009 -53.5392 0)
(249.257 -52.4054 -2.72496e-16)
(246.038 -51.6934 -4.24618e-21)
(239.718 -49.8999 0)
(236.559 -49.3038 3.11646e-16)
(225.447 -46.3345 -3.09853e-16)
(103.595 19.4744 0)
(122.395 31.0508 -3.65169e-19)
(127.692 33.4041 0)
(128.712 36.0992 0)
(128.549 36.9525 0)
(127.784 37.108 0)
(127.096 37.065 2.66358e-20)
(126.707 37.0603 -2.82104e-15)
(126.539 37.0673 -3.01106e-15)
(126.584 37.1413 0)
(126.828 37.2577 0)
(127.287 37.4378 0)
(127.963 37.6777 -3.6767e-15)
(128.863 37.9944 3.74692e-15)
(129.967 38.3797 3.72066e-15)
(131.257 38.8441 0)
(132.771 39.3862 0)
(134.612 40.0046 0)
(136.89 40.721 0)
(139.672 41.5592 1.12219e-19)
(142.945 42.5306 2.12544e-15)
(146.645 43.6649 3.87143e-15)
(150.771 44.9567 1.1137e-19)
(155.221 46.4034 -3.24427e-15)
(160.116 47.9829 1.4888e-15)
(165.189 49.7392 0)
(170.938 51.5665 -2.52344e-15)
(176.503 53.6176 1.16426e-15)
(183.259 55.703 -9.58595e-20)
(189.263 58.0135 0)
(197.169 60.4042 -9.23951e-16)
(203.677 62.997 0)
(212.992 65.7752 7.88668e-16)
(220.092 68.6752 -7.12682e-16)
(231.291 71.9397 6.52709e-16)
(239.046 75.2466 5.54129e-16)
(251.808 79.0355 0)
(258.896 82.0904 0)
(275.122 86.8143 -6.7366e-16)
(285.449 91.2643 -2.77482e-16)
(303.583 97.5546 2.92222e-16)
(306.313 100.511 3.59157e-20)
(317.517 104.404 3.00666e-16)
(311.612 104.272 0)
(321.645 107.27 3.06929e-16)
(306.469 103.581 1.79735e-16)
(325.899 107.727 -2.33812e-16)
(333.925 110.809 0)
(377.776 123.47 0)
(402.887 133.791 -5.28944e-17)
(455.606 150.059 0)
(495.795 163.605 -2.01614e-16)
(607.883 216.161 8.06483e-17)
(590.095 -4.4144 -2.8848e-17)
(449.168 -86.501 -4.54061e-19)
(465.371 -100.49 0)
(486.871 -107.477 0)
(500.722 -106.98 0)
(470.514 -99.8217 3.44293e-17)
(456.253 -94.9089 0)
(425.661 -89.4324 4.1369e-17)
(416.613 -86.5512 7.94159e-18)
(389.123 -81.5129 5.34804e-17)
(378.394 -78.2578 0)
(352.287 -73.3935 6.54388e-17)
(340.94 -70.4395 4.77058e-17)
(320.826 -66.9795 0)
(312.868 -65.1434 6.82532e-17)
(300.449 -63.2762 -8.87853e-21)
(296.477 -62.5177 0)
(290.648 -61.9539 1.00196e-20)
(290.435 -62.0986 1.62837e-16)
(289.572 -62.3885 8.04131e-17)
(291.81 -62.8897 -7.32342e-17)
(292.504 -63.0766 0)
(293.236 -62.9313 0)
(291.882 -62.4255 0)
(289.709 -61.6475 8.24962e-17)
(286.387 -60.7768 0)
(282.668 -59.8549 -9.50818e-17)
(278.705 -58.9493 -1.02573e-16)
(274.946 -58.1526 1.11193e-16)
(271.511 -57.4484 0)
(268.632 -56.9211 1.30338e-16)
(266.233 -56.4766 0)
(264.377 -56.1867 1.51559e-16)
(262.829 -55.8725 1.62373e-16)
(261.564 -55.6858 -1.74309e-16)
(260.265 -55.373 -1.85606e-16)
(259.027 -55.1315 1.98169e-16)
(257.47 -54.6839 -2.09508e-16)
(255.832 -54.3198 2.22465e-16)
(253.506 -53.6113 2.33466e-16)
(251.123 -53.0544 0)
(247.366 -51.8981 0)
(244.154 -51.1555 -2.71102e-16)
(237.808 -49.339 0)
(234.665 -48.6901 0)
(223.471 -45.7193 2.91196e-16)
(103.511 18.8086 0)
(121.486 30.2818 -2.23116e-15)
(126.446 32.9113 0)
(127.313 35.7005 0)
(127.007 36.5535 0)
(126.185 36.698 0)
(125.512 36.6454 4.72143e-15)
(125.184 36.644 0)
(125.106 36.6639 3.50073e-20)
(125.258 36.7577 0)
(125.616 36.8962 0)
(126.191 37.0999 0)
(126.984 37.3634 3.39642e-15)
(127.999 37.7046 -3.451e-15)
(129.221 38.1164 3.41077e-15)
(130.642 38.611 3.25221e-15)
(132.313 39.1883 0)
(134.334 39.8456 0)
(136.795 40.5993 0)
(139.733 41.4682 2.16503e-15)
(143.121 42.4603 -1.97275e-15)
(146.893 43.6047 -3.60735e-15)
(151.051 44.8971 3.30863e-15)
(155.508 46.3381 1.51995e-15)
(160.389 47.9058 -2.79607e-15)
(165.438 49.6483 0)
(171.143 51.4557 2.37771e-15)
(176.671 53.4898 -1.0984e-15)
(183.363 55.5479 -1.01792e-15)
(189.317 57.8392 0)
(197.147 60.1969 -8.74564e-16)
(203.588 62.7647 0)
(212.82 65.505 7.47809e-16)
(219.829 68.3719 6.76194e-16)
(230.934 71.5915 0)
(238.578 74.8681 0)
(251.195 78.6102 4.55885e-16)
(257.992 81.5604 0)
(273.888 86.1351 3.21807e-16)
(283.815 90.4652 -2.6475e-16)
(301.815 96.7736 -5.57346e-16)
(304.377 99.7692 2.3838e-16)
(315.819 103.791 -2.85839e-16)
(309.934 103.707 2.33958e-16)
(320.378 106.877 -2.91112e-16)
(305.483 103.241 -1.70629e-16)
(325.781 107.469 2.22509e-16)
(334.315 110.606 0)
(378.38 123.216 0)
(403.242 133.481 4.97627e-17)
(455.585 149.539 0)
(495.919 162.932 9.59254e-17)
(606.781 215.33 7.66531e-17)
(590.107 -3.73118 0)
(454.542 -87.0992 0)
(471.302 -101.909 1.03807e-16)
(490.208 -108.371 3.38489e-17)
(501 -106.931 0)
(469.342 -99.3469 3.24048e-17)
(455.121 -94.4029 -1.63864e-17)
(424.55 -88.9753 -7.79288e-17)
(415.76 -86.1311 -3.7443e-18)
(388.197 -81.079 5.05607e-17)
(377.661 -77.8406 0)
(351.613 -72.9952 0)
(340.475 -70.1003 -4.53072e-17)
(320.468 -66.6973 7.4028e-17)
(312.64 -64.9263 -6.49197e-17)
(300.23 -63.1009 -8.53317e-17)
(296.245 -62.38 -7.87868e-17)
(290.306 -61.8317 8.67119e-17)
(289.926 -61.9777 -1.54748e-16)
(288.846 -62.2491 -7.64554e-17)
(290.799 -62.7015 6.96777e-17)
(291.201 -62.8167 0)
(291.635 -62.5861 0)
(290.042 -62.0029 0)
(287.672 -61.1609 7.87671e-17)
(284.202 -60.2421 0)
(280.371 -59.2876 0)
(276.33 -58.3638 9.8146e-17)
(272.53 -57.5632 1.06446e-16)
(269.085 -56.8655 0)
(266.221 -56.353 0)
(263.847 -55.9247 0)
(262.018 -55.6508 -2.90537e-16)
(260.492 -55.3473 -1.55624e-16)
(259.241 -55.1668 3.34126e-16)
(257.951 -54.8541 0)
(256.714 -54.6101 1.89819e-16)
(255.158 -54.1542 2.00599e-16)
(253.519 -53.7804 0)
(251.195 -53.0569 0)
(248.818 -52.4831 0)
(245.065 -51.307 0)
(241.876 -50.5361 0)
(235.515 -48.7003 0)
(232.407 -48.0003 0)
(221.151 -45.0336 2.77255e-16)
(103.43 18.1676 0)
(120.61 29.5366 1.93216e-15)
(125.235 32.4404 0)
(125.953 35.3197 1.47001e-15)
(125.518 36.1736 -1.71314e-15)
(124.651 36.3076 0)
(123.994 36.2439 -1.81706e-20)
(123.722 36.2426 0)
(123.723 36.2715 3.14367e-20)
(123.97 36.3808 -2.75022e-15)
(124.43 36.5377 -2.92375e-15)
(125.111 36.7619 0)
(126.011 37.0467 3.18016e-15)
(127.137 37.4107 0)
(128.477 37.8482 -3.1731e-15)
(130.032 38.3731 -3.01488e-15)
(131.862 38.9853 -2.7684e-15)
(134.059 39.6798 0)