/*--------------------------------*- C++ -*----------------------------------*\
| =========                 |                                                 |
| \\      /  F ield         | OpenFOAM: The Open Source CFD Toolbox           |
|  \\    /   O peration     | Version:  2412                                  |
|   \\  /    A nd           | Website:  www.openfoam.com                      |
|    \\/     M anipulation  |                                                 |
\*---------------------------------------------------------------------------*/
FoamFile
{
    version     2.0;
    format      ascii;
    arch        "LSB;label=32;scalar=64";
    class       volScalarField;
    location    "0.2";
    object      epsilon;
}
// * * * * * * * * * * * * * * * * * * * * * * * * * * * * * * * * * * * * * //

dimensions      [0 2 -3 0 0 0 0];

internalField   nonuniform List<scalar> 
13079
(
624.185
1187.64
1560.22
1475.14
1161.31
851.25
636.339
526.578
486.264
477.724
480.505
486.998
494.452
502.284
510.18
518.386
526.786
535.739
545.064
555.292
566.093
578.275
591.188
606.063
621.726
640.2
659.326
682.511
705.818
734.983
763.15
800.302
834.891
884.558
929.004
995.728
1051.59
1151.27
1254.11
1443.61
1630.62
1950.13
2223.1
2652.67
2797.26
2970.09
2833.1
3534.3
4199.2
6263.86
7702.91
12902.9
52731.7
70349.1
38962.9
17892.8
7655.47
3753.97
2649
2143.24
1931.2
1650.35
1492.36
1306.3
1224.64
1129.27
1107.43
1059.52
1050.22
1016.48
1003.7
976.334
957.386
919.989
877.601
826.329
779.408
622.349
1182.71
1554.19
1470.23
1158.21
849.889
636.2
526.999
486.834
478.294
481.044
487.51
494.945
502.768
510.661
518.872
527.281
536.251
545.596
555.849
566.678
578.894
591.842
606.76
622.468
640.998
660.181
683.437
706.816
736.077
764.348
801.637
836.381
886.237
930.887
997.903
1054.19
1154.39
1257.67
1447.52
1634.72
1954.2
2226.66
2655.1
2799.78
2975.05
2842.55
3544.74
4208.06
6256.01
7684.62
12730
51767.2
69461.2
38607
17751.6
7599.97
3737.83
2644.96
2142.36
1931.56
1651.33
1493.71
1307.93
1226.28
1130.72
1108.66
1060.58
1051.07
1017.21
1004.32
976.871
957.834
920.468
878.223
827.095
780.314
620.525
1177.77
1548.12
1465.28
1155.11
848.543
636.077
527.431
487.412
478.87
481.589
488.027
495.443
503.256
511.147
519.362
527.781
536.767
546.13
556.41
567.265
579.515
592.498
607.459
623.211
641.797
661.036
684.363
707.815
737.171
765.545
802.972
837.869
887.913
932.766
1000.07
1056.78
1157.5
1261.21
1451.42
1638.81
1958.27
2230.24
2657.61
2802.4
2980.1
2851.96
3554.98
4216.57
6247.76
7665.61
12558.4
50784
68543.7
38235.8
17602.4
7541.31
3720.76
2640.55
2141.22
1931.71
1652.19
1494.99
1309.53
1227.88
1132.16
1109.87
1061.63
1051.89
1017.92
1004.93
977.393
958.266
920.933
878.833
827.85
781.212
618.721
1172.85
1542
1460.26
1151.97
847.185
635.954
527.865
487.993
479.45
482.138
488.547
495.944
503.747
511.635
519.854
528.281
537.282
546.665
556.969
567.851
580.134
593.15
608.154
623.95
642.59
661.885
685.282
708.805
738.256
766.73
804.294
839.342
889.572
934.625
1002.22
1059.33
1160.57
1264.7
1455.27
1642.84
1962.3
2233.76
2660.12
2805.02
2985.14
2861.2
3564.91
4224.6
6238.98
7645.71
12387.7
49781.5
67593.5
37846.6
17443.7
7478.89
3702.59
2635.69
2139.75
1931.58
1652.88
1496.15
1311.03
1229.42
1133.54
1111.04
1062.63
1052.67
1018.6
1005.5
977.879
958.664
921.365
879.412
828.577
782.086
616.938
1167.93
1535.84
1455.18
1148.78
845.807
635.823
528.298
488.575
480.032
482.688
489.068
496.446
504.239
512.123
520.345
528.779
537.795
547.196
557.525
568.433
580.748
593.798
608.843
624.681
643.375
662.723
686.189
709.782
739.325
767.898
805.597
840.791
891.205
936.455
1004.34
1061.85
1163.6
1268.14
1459.06
1646.79
1966.25
2237.19
2662.56
2807.57
2990.09
2870.24
3574.48
4232.11
6229.62
7624.88
12217.9
48760.1
66609
37437.5
17274.3
7412.39
3683.23
2630.33
2137.94
1931.14
1653.37
1497.16
1312.42
1230.85
1134.85
1112.14
1063.57
1053.39
1019.21
1006.02
978.316
959.015
921.752
879.948
829.265
782.925
739.627
705.365
678.276
659.66
647.75
640.038
634.764
629.177
624.906
618.703
614.469
607.26
604.404
598.484
600.996
600.518
613.061
625.23
653.197
698.692
752.157
738.733
615.176
1163.03
1529.64
1450.04
1145.54
844.403
635.681
528.728
489.158
480.615
483.24
489.591
496.948
504.73
512.61
520.834
529.276
538.306
547.724
558.076
569.009
581.356
594.437
609.524
625.403
644.148
663.549
687.083
710.742
740.376
769.044
806.876
842.213
892.809
938.249
1006.42
1064.32
1166.57
1271.5
1462.77
1650.64
1970.09
2240.51
2664.92
2810.03
2994.92
2879.04
3583.66
4239.08
6219.66
7603.12
12049
47720.7
65589.1
37007.1
17093.4
7341.63
3662.62
2624.46
2135.75
1930.38
1653.64
1498.01
1313.68
1232.18
1136.06
1113.16
1064.44
1054.04
1019.77
1006.48
978.697
959.313
922.088
880.436
829.908
783.723
740.576
706.322
679.172
660.448
648.407
640.559
635.172
629.496
625.16
618.905
614.624
607.379
604.469
598.511
600.909
600.352
612.615
624.596
651.944
696.769
748.957
734.804
613.433
1158.14
1523.4
1444.84
1142.26
842.975
635.527
529.154
489.74
481.2
483.793
490.114
497.45
505.221
513.095
521.322
529.77
538.813
548.247
558.623
569.58
581.957
595.069
610.194
626.113
644.91
664.361
687.96
711.684
741.407
770.167
808.129
843.604
894.378
940.003
1008.45
1066.74
1169.48
1274.78
1466.39
1654.38
1973.82
2243.7
2667.16
2812.36
2999.59
2887.57
3592.45
4245.49
6209.12
7580.48
11881.3
46664.8
64533.1
36554.3
16900.3
7266.52
3640.79
2618.09
2133.2
1929.3
1653.68
1498.68
1314.8
1233.38
1137.18
1114.1
1065.22
1054.6
1020.25
1006.88
979.017
959.553
922.368
880.87
830.5
784.476
741.497
707.261
680.055
661.229
649.059
641.077
635.578
629.812
625.412
619.105
614.777
607.495
604.531
598.536
600.819
600.184
612.169
623.963
650.704
694.868
745.82
730.974
611.708
1153.25
1517.12
1439.57
1138.94
841.521
635.362
529.577
490.323
481.786
484.348
490.639
497.953
505.711
513.58
521.807
530.261
539.316
548.766
559.163
570.143
582.55
595.691
610.855
626.812
645.658
665.157
688.82
712.606
742.416
771.265
809.353
844.963
895.911
941.715
1010.44
1069.09
1172.32
1277.98
1469.91
1658
1977.41
2246.73
2669.26
2814.54
3004.09
2895.82
3600.84
4251.36
6198.03
7557
11714.8
45594.2
63440.6
36078.3
16694.5
7187.05
3617.74
2611.22
2130.28
1927.89
1653.47
1499.16
1315.76
1234.46
1138.19
1114.94
1065.92
1055.09
1020.66
1007.21
979.273
959.731
922.588
881.247
831.04
785.179
742.376
708.169
680.916
661.991
649.696
641.584
635.974
630.12
625.655
619.296
614.92
607.602
604.584
598.55
600.72
600.007
611.716
623.326
649.469
692.98
742.731
727.23
609.998
1148.37
1510.8
1434.25
1135.57
840.042
635.185
529.996
490.906
482.373
484.903
491.163
498.456
506.2
514.063
522.29
530.748
539.815
549.279
559.697
570.699
583.134
596.304
611.505
627.497
646.392
665.937
689.662
713.507
743.401
772.336
810.547
846.286
897.404
943.381
1012.38
1071.38
1175.09
1281.08
1473.32
1661.49
1980.86
2249.6
2671.21
2816.56
3008.4
2903.79
3608.82
4256.68
6186.41
7532.74
11549.6
44510.9
62311.5
35578.3
16475.9
7103.26
3593.51
2603.88
2127.01
1926.16
1653.03
1499.46
1316.57
1235.4
1139.08
1115.69
1066.53
1055.49
1020.99
1007.47
979.463
959.847
922.747
881.566
831.523
785.83
743.206
709.04
681.747
662.731
650.316
642.075
636.355
630.414
625.884
619.475
615.051
607.697
604.623
598.552
600.608
599.817
611.253
622.678
648.233
691.097
739.684
723.56
608.303
1143.48
1504.44
1428.87
1132.15
838.539
634.997
530.411
491.489
482.961
485.46
491.689
498.958
506.689
514.544
522.771
531.232
540.309
549.787
560.225
571.248
583.71
596.906
612.143
628.17
647.11
666.7
690.484
714.386
744.361
773.379
811.709
847.573
898.856
944.999
1014.26
1073.61
1177.77
1284.09
1476.62
1664.84
1984.16
2252.3
2673
2818.4
3012.51
2911.46
3616.4
4261.46
6174.29
7507.78
11386
43417.2
61145.9
35054
16244.2
7015.23
3568.16
2596.08
2123.4
1924.12
1652.35
1499.57
1317.21
1236.2
1139.86
1116.34
1067.05
1055.8
1021.25
1007.67
979.586
959.898
922.843
881.823
831.949
786.427
743.985
709.87
682.546
663.445
650.913
642.547
636.719
630.692
626.098
619.638
615.166
607.775
604.647
598.537
600.48
599.612
610.777
622.017
646.993
689.218
736.671
719.958
606.62
1138.6
1498.05
1423.43
1128.7
837.014
634.799
530.824
492.072
483.549
486.017
492.214
499.46
507.176
515.023
523.248
531.713
540.799
550.29
560.746
571.789
584.276
597.498
612.769
628.829
647.814
667.445
691.286
715.242
745.296
774.392
812.839
848.821
900.265
946.567
1016.08
1075.77
1180.38
1287
1479.81
1668.05
1987.3
2254.82
2674.61
2820.05
3016.42
2918.84
3623.58
4265.73
6161.72
7482.18
11224
42315.6
59944.3
34505.2
15999.3
6923.11
3541.74
2587.85
2119.46
1921.79
1651.43
1499.5
1317.7
1236.87
1140.53
1116.89
1067.47
1056.03
1021.42
1007.79
979.64
959.883
922.874
882.019
832.316
786.968
744.71
710.655
683.309
664.13
651.487
642.999
637.064
630.952
626.294
619.784
615.264
607.837
604.653
598.506
600.335
599.389
610.285
621.341
645.746
687.337
733.688
716.417
604.949
1133.7
1491.6
1417.95
1125.21
835.466
634.59
531.233
492.655
484.139
486.576
492.74
499.961
507.662
515.499
523.723
532.189
541.284
550.786
561.26
572.321
584.833
598.079
613.382
629.474
648.501
668.172
692.068
716.075
746.204
775.375
813.934
850.03
901.629
948.084
1017.85
1077.86
1182.9
1289.8
1482.87
1671.12
1990.27
2257.14
2676.04
2821.51
3020.12
2925.93
3630.38
4269.49
6148.72
7456.01
11063.9
41208.6
58707.2
33931.8
15741.5
6827.09
3514.33
2579.24
2115.23
1919.17
1650.29
1499.25
1318.03
1237.4
1141.08
1117.34
1067.8
1056.17
1021.52
1007.85
979.626
959.804
922.842
882.152
832.623
787.452
745.378
711.393
684.034
664.784
652.034
643.428
637.389
631.193
626.473
619.912
615.344
607.881
604.641
598.455
600.171
599.148
609.775
620.647
644.491
685.452
730.731
712.932
603.287
1128.81
1485.12
1412.41
1121.68
833.896
634.371
531.639
493.238
484.73
487.135
493.266
500.462
508.146
515.974
524.194
532.661
541.763
551.276
561.766
572.845
585.38
598.649
613.983
630.104
649.171
668.88
692.828
716.883
747.086
776.327
814.994
851.198
902.949
949.549
1019.55
1079.88
1185.34
1292.5
1485.81
1674.03
1993.07
2259.28
2677.28
2822.78
3023.6
2932.73
3636.8
4272.77
6135.33
7429.34
10905.8
40099.2
57435.7
33334
15470.8
6727.38
3486.02
2570.26
2110.72
1916.28
1648.93
1498.82
1318.2
1237.8
1141.52
1117.69
1068.04
1056.23
1021.55
1007.83
979.544
959.66
922.745
882.224
832.87
787.879
745.99
712.083
684.719
665.406
652.554
643.834
637.693
631.414
626.631
620.022
615.405
607.905
604.609
598.385
599.986
598.886
609.247
619.934
643.223
683.56
727.796
709.498
601.635
1123.91
1478.6
1406.83
1118.12
832.307
634.143
532.042
493.82
485.321
487.694
493.792
500.962
508.629
516.446
524.662
533.129
542.238
551.76
562.265
573.36
585.918
599.207
614.571
630.719
649.825
669.569
693.567
717.668
747.94
777.247
816.019
852.327
904.223
950.961
1021.2
1081.82
1187.69
1295.09
1488.63
1676.8
1995.7
2261.23
2678.34
2823.84
3026.87
2939.24
3642.85
4275.59
6121.6
7402.24
10749.9
38990.2
56131.1
32712
15187.6
6624.27
3456.89
2560.96
2105.96
1913.15
1647.37
1498.23
1318.23
1238.07
1141.85
1117.95
1068.2
1056.21
1021.5
1007.75
979.397
959.453
922.587
882.234
833.059
788.249
746.545
712.724
685.364
665.995
653.047
644.215
637.975
631.615
626.77
620.111
615.446
607.91
604.557
598.293
599.781
598.602
608.699
619.201
641.942
681.658
724.877
706.109
599.99
1118.99
1472.04
1401.2
1114.52
830.697
633.905
532.441
494.403
485.914
488.255
494.319
501.462
509.111
516.916
525.127
533.593
542.707
552.237
562.757
573.866
586.445
599.754
615.145
631.32
650.463
670.239
694.285
718.427
748.766
778.137
817.009
853.414
905.45
952.319
1022.79
1083.69
1189.95
1297.58
1491.32
1679.41
1998.16
2262.98
2679.2
2824.71
3029.93
2945.47
3648.56
4277.98
6107.57
7374.79
10596.2
37884.4
54794.8
32066.5
14892.5
6518.05
3427.04
2551.39
2100.97
1909.8
1645.62
1497.48
1318.11
1238.22
1142.07
1118.12
1068.27
1056.12
1021.38
1007.6
979.186
959.185
922.367
882.185
833.189
788.563
747.042
713.315
685.967
666.55
653.51
644.571
638.233
631.795
626.888
620.18
615.466
607.894
604.483
598.181
599.554
598.296
608.13
618.444
640.646
679.745
721.973
702.76
598.353
1114.07
1465.44
1395.52
1110.89
829.068
633.658
532.839
494.986
486.507
488.815
494.845
501.96
509.59
517.383
525.588
534.052
543.17
552.708
563.241
574.364
586.962
600.289
615.707
631.905
651.083
670.89
694.981
719.162
749.565
778.995
817.964
854.461
906.632
953.625
1024.31
1085.49
1192.13
1299.96
1493.89
1681.87
2000.45
2264.54
2679.86
2825.38
3032.79
2951.44
3653.93
4279.95
6093.27
7347.06
10445
36785.1
53428.8
31398.1
14586
6409.06
3396.58
2541.56
2095.79
1906.24
1643.69
1496.58
1317.86
1238.25
1142.19
1118.2
1068.26
1055.94
1021.19
1007.39
978.914
958.858
922.088
882.077
833.263
788.822
747.484
713.857
686.529
667.07
653.944
644.903
638.469
631.953
626.985
620.229
615.466
607.857
604.388
598.046
599.305
597.967
607.538
617.665
639.334
677.818
719.079
699.447
596.721
1109.14
1458.8
1389.8
1107.23
827.42
633.402
533.233
495.568
487.1
489.377
495.371
502.458
510.068
517.848
526.046
534.507
543.629
553.172
563.717
574.852
587.469
600.813
616.256
632.476
651.687
671.521
695.655
719.873
750.337
779.822
818.883
855.468
907.768
954.878
1025.78
1087.22
1194.22
1302.23
1496.33
1684.19
2002.56
2265.9
2680.35
2825.86
3035.45
2957.14
3658.99
4281.54
6078.75
7319.12
10296.4
35695
52035.4
30707.7
14268.7
6297.66
3365.62
2531.54
2090.43
1902.51
1641.6
1495.55
1317.48
1238.18
1142.22
1118.2
1068.18
1055.7
1020.93
1007.12
978.584
958.475
921.753
881.913
833.283
789.027
747.87
714.349
687.048
667.555
654.349
645.208
638.682
632.089
627.061
620.256
615.444
607.798
604.272
597.888
599.032
597.614
606.924
616.861
638.003
675.875
716.193
696.166
595.096
1104.2
1452.13
1384.03
1103.53
825.755
633.138
533.625
496.151
487.694
489.938
495.896
502.954
510.545
518.31
526.5
534.957
544.082
553.63
564.186
575.332
587.966
601.326
616.792
633.032
652.274
672.134
696.309
720.56
751.082
780.618
819.768
856.435
908.859
956.079
1027.19
1088.87
1196.23
1304.4
1498.65
1686.35
2004.51
2267.08
2680.64
2826.16
3037.91
2962.61
3663.75
4282.78
6064.04
7291.03
10150.5
34617
50617.1
29996.4
13941.6
6184.22
3334.25
2521.36
2084.94
1898.61
1639.36
1494.39
1316.99
1238
1142.16
1118.12
1068.02
1055.4
1020.62
1006.8
978.198
958.039
921.365
881.697
833.25
789.181
748.203
714.792
687.526
668.006
654.725
645.489
638.871
632.204
627.116
620.263
615.402
607.719
604.133
597.709
598.736
597.236
606.286
616.031
636.653
673.915
713.311
692.913
593.475
1099.25
1445.42
1378.23
1099.81
824.073
632.866
534.014
496.733
488.289
490.5
496.422
503.45
511.019
518.769
526.951
535.403
544.529
554.081
564.648
575.804
588.453
601.827
617.315
633.574
652.845
672.729
696.942
721.223
751.801
781.385
820.62
857.364
909.907
957.231
1028.54
1090.46
1198.15
1306.47
1500.85
1688.38
2006.3
2268.09
2680.76
2826.28
3040.2
2967.84
3668.23
4283.69
6049.19
7262.85
10007.5
33554.1
49176.8
29265.6
13605.5
6069.16
3302.59
2511.05
2079.33
1894.59
1636.99
1493.13
1316.39
1237.73
1142.02
1117.97
1067.81
1055.04
1020.25
1006.42
977.762
957.553
920.926
881.43
833.167
789.285
748.484
715.187
687.963
668.423
655.072
645.744
639.038
632.297
627.15
620.25
615.339
607.618
603.972
597.506
598.418
596.834
605.624
615.176
635.283
671.937
710.431
689.685
591.859
1094.29
1438.67
1372.39
1096.06
822.375
632.586
534.4
497.315
488.885
491.063
496.947
503.945
511.492
519.226
527.398
535.845
544.971
554.527
565.102
576.267
588.931
602.318
617.826
634.102
653.4
673.306
697.555
721.864
752.494
782.123
821.439
858.255
910.912
958.333
1029.83
1091.98
1199.99
1308.45
1502.93
1690.26
2007.92
2268.92
2680.71
2826.24
3042.32
2972.85
3672.45
4284.31
6034.23
7234.66
9867.31
32509
47717.6
28516.6
13261.4
5952.88
3270.74
2500.66
2073.64
1890.46
1634.52
1491.77
1315.7
1237.38
1141.8
1117.76
1067.53
1054.62
1019.82
1006
977.277
957.021
920.44
881.116
833.038
789.342
748.715
715.536
688.36
668.807
655.39
645.974
639.183
632.37
627.164
620.216
615.255
607.497
603.79
597.281
598.075
596.408
604.939
614.295
633.892
669.939
707.551
686.478
590.246
1089.31
1431.89
1366.5
1092.28
820.661
632.299
534.784
497.897
489.48
491.625
497.472
504.439
511.963
519.681
527.842
536.283
545.409
554.966
565.549
576.722
589.399
602.797
618.325
634.617
653.941
673.866
698.148
722.484
753.163
782.833
822.227
859.111
911.877
959.389
1031.07
1093.44
1201.76
1310.33
1504.91
1692.02
2009.4
2269.58
2680.5
2826.03
3044.27
2977.66
3676.44
4284.66
6019.2
7206.51
9730.18
31484
46243.2
27751.2
12910.4
5835.82
3238.83
2490.23
2067.89
1886.24
1631.94
1490.32
1314.92
1236.95
1141.52
1117.5
1067.2
1054.15
1019.36
1005.53
976.75
956.448
919.912
880.758
832.865
789.355
748.899
715.841
688.718
669.157
655.68
646.181
639.305
632.422
627.158
620.162
615.151
607.354
603.586
597.034
597.71
595.957
604.229
613.388
632.48
667.921
704.669
683.29
588.637
1084.33
1425.07
1360.58
1088.48
818.932
632.005
535.166
498.479
490.077
492.188
497.997
504.932
512.432
520.132
528.283
536.716
545.841
555.399
565.989
577.169
589.859
603.267
618.813
635.119
654.466
674.409
698.723
723.082
753.808
783.517
822.984
859.932
912.803
960.401
1032.26
1094.83
1203.45
1312.12
1506.78
1693.65
2010.73
2270.09
2680.14
2825.68
3046.08
2982.28
3680.22
4284.78
6004.13
7178.46
9596.14
30481.7
44757.2
26971.1
12553.8
5718.38
3206.94
2479.8
2062.11
1881.96
1629.29
1488.8
1314.07
1236.46
1141.18
1117.18
1066.82
1053.65
1018.85
1005.03
976.184
955.837
919.345
880.361
832.652
789.328
749.039
716.103
689.039
669.477
655.944
646.364
639.407
632.455
627.132
620.09
615.027
607.192
603.362
596.764
597.322
595.482
603.497
612.455
631.047
665.883
701.784
680.119
587.032
1079.33
1418.22
1354.63
1084.65
817.189
631.704
535.546
499.061
490.674
492.752
498.522
505.424
512.9
520.582
528.721
537.146
546.268
555.827
566.423
577.609
590.31
603.728
619.289
635.608
654.978
674.937
699.281
723.66
754.432
784.176
823.714
860.721
913.692
961.37
1033.4
1096.17
1205.07
1313.82
1508.55
1695.16
2011.92
2270.45
2679.64
2825.2
3047.76
2986.74
3683.8
4284.7
5989.07
7150.55
9465.25
29504
43263.8
26178.3
12192.7
5600.99
3175.18
2469.4
2056.33
1877.64
1626.59
1487.23
1313.16
1235.91
1140.79
1116.82
1066.4
1053.11
1018.3
1004.49
975.584
955.192
918.743
879.928
832.403
789.263
749.137
716.326
689.324
669.767
656.183
646.526
639.489
632.469
627.089
619.999
614.885
607.011
603.117
596.474
596.913
594.984
602.74
611.496
629.593
663.825
698.895
676.962
585.429
1074.33
1411.34
1348.64
1080.8
815.433
631.396
535.923
499.642
491.271
493.315
499.046
505.915
513.365
521.029
529.156
537.571
546.691
556.249
566.851
578.041
590.753
604.179
619.756
636.086
655.477
675.45
699.822
724.22
755.034
784.811
824.416
861.479
914.546
962.3
1034.5
1097.45
1206.63
1315.45
1510.22
1696.56
2012.99
2270.67
2679
2824.6
3049.32
2991.04
3687.21
4284.45
5974.04
7122.83
9337.55
28553
41767.1
25375.1
11828.5
5484.07
3143.65
2459.06
2050.56
1873.31
1623.84
1485.61
1312.19
1235.31
1140.36
1116.42
1065.95
1052.53
1017.73
1003.93
974.955
954.519
918.111
879.464
832.121
789.164
749.197
716.51
689.576
670.028
656.397
646.666
639.551
632.466
627.028
619.89
614.725
606.811
602.853
596.163
596.481
594.463
601.962
610.512
628.119
661.746
696.001
673.818
583.829
1069.31
1404.44
1342.62
1076.93
813.664
631.082
536.298
500.224
491.868
493.879
499.57
506.405
513.83
521.474
529.587
537.994
547.11
556.667
567.272
578.467
591.188
604.621
620.213
636.552
655.963
675.949
700.347
724.762
755.617
785.424
825.094
862.21
915.368
963.193
1035.55
1098.69
1208.13
1317.01
1511.81
1697.85
2013.94
2270.78
2678.25
2823.89
3050.76
2995.21
3690.47
4284.05
5959.06
7095.34
9213.08
27630.3
40271.5
24563.6
11462.5
5368.02
3112.44
2448.81
2044.83
1868.97
1621.06
1483.96
1311.19
1234.68
1139.9
1116
1065.47
1051.94
1017.13
1003.34
974.3
953.822
917.453
878.971
831.81
789.035
749.222
716.66
689.796
670.262
656.588
646.787
639.596
632.446
626.95
619.765
614.547
606.593
602.571
595.833
596.03
593.92
601.162
609.504
626.624
659.648
693.102
670.685
582.231
1064.29
1397.5
1336.57
1073.03
811.883
630.763
536.671
500.805
492.466
494.443
500.094
506.894
514.293
521.916
530.016
538.412
547.524
557.079
567.688
578.886
591.616
605.055
620.66
637.009
656.438
676.435
700.858
725.288
756.181
786.016
825.749
862.914
916.161
964.052
1036.56
1099.87
1209.57
1318.49
1513.31
1699.06
2014.79
2270.77
2677.39
2823.09
3052.12
2999.25
3693.6
4283.54
5944.18
7068.12
9091.86
26737.3
38781.7
23746.4
11096.1
5253.21
3081.64
2438.69
2039.16
1864.67
1618.27
1482.29
1310.16
1234.03
1139.41
1115.55
1064.97
1051.33
1016.51
1002.73
973.626
953.104
916.773
878.456
831.474
788.879
749.216
716.777
689.987
670.472
656.758
646.889
639.625
632.41
626.857
619.625
614.354
606.359
602.271
595.485
595.559
593.355
600.34
608.472
625.111
657.531
690.198
667.564
580.636
1059.25
1390.54
1330.49
1069.12
810.091
630.438
537.042
501.386
493.065
495.007
500.617
507.382
514.754
522.357
530.443
538.828
547.935
557.487
568.099
579.299
592.037
605.481
621.099
637.456
656.902
676.909
701.355
725.799
756.729
786.59
826.382
863.594
916.926
964.881
1037.54
1101.02
1210.95
1319.92
1514.75
1700.18
2015.53
2270.66
2676.45
2822.21
3053.4
3003.19
3696.62
4282.95
5929.4
7041.22
8973.88
25875
37302.2
22926.1
10730.6
5140.01
3051.32
2428.73
2033.58
1860.4
1615.49
1480.61
1309.11
1233.35
1138.9
1115.08
1064.46
1050.7
1015.88
1002.11
972.935
952.371
916.076
877.921
831.117
788.7
749.181
716.866
690.152
670.658
656.908
646.975
639.638
632.36
626.75
619.47
614.146
606.11
601.955
595.118
595.069
592.771
599.499
607.419
623.579
655.396
687.289
664.453
579.043
1054.21
1383.55
1324.39
1065.19
808.289
630.107
537.412
501.967
493.663
495.572
501.141
507.87
515.214
522.796
530.866
539.24
548.342
557.89
568.504
579.707
592.452
605.901
621.53
637.894
657.357
677.372
701.84
726.297
757.262
787.147
826.997
864.252
917.666
965.682
1038.49
1102.13
1212.3
1321.29
1516.11
1701.22
2016.19
2270.46
2675.42
2821.27
3054.61
3007.05
3699.55
4282.28
5914.76
7014.64
8859.13
25044.3
35837.8
22105.1
10367.5
5028.76
3021.55
2418.94
2028.1
1856.19
1612.73
1478.94
1308.05
1232.67
1138.39
1114.61
1063.93
1050.07
1015.24
1001.48
972.234
951.627
915.367
877.37
830.743
788.501
749.122
716.928
690.292
670.823
657.04
647.045
639.637
632.298
626.63
619.302
613.924
605.846
601.623
594.736
594.562
592.168
598.64
606.344
622.031
653.245
684.376
661.352
577.453
1049.16
1376.54
1318.26
1061.24
806.477
629.772
537.779
502.548
494.262
496.136
501.664
508.357
515.673
523.233
531.288
539.65
548.745
558.29
568.906
580.11
592.861
606.314
621.954
638.324
657.802
677.825
702.314
726.782
757.781
787.689
827.594
864.892
918.385
966.458
1039.41
1103.2
1213.6
1322.61
1517.42
1702.19
2016.77
2270.19
2674.32
2820.27
3055.77
3010.84
3702.41
4281.59
5900.28
6988.42
8747.59
24245.9
34392.9
21286.4
10007.9
4919.76
2992.41
2409.34
2022.73
1852.06
1610
1477.29
1306.99
1231.99
1137.87
1114.13
1063.41
1049.44
1014.6
1000.84
971.526
950.875
914.648
876.809
830.355
788.286
749.042
716.968
690.41
670.97
657.156
647.101
639.624
632.223
626.499
619.123
613.69
605.569
601.278
594.338
594.04
591.547
597.763
605.25
620.466
651.079
681.461
658.262
575.864
1044.1
1369.51
1312.1
1057.27
804.656
629.432
538.145
503.129
494.862
496.701
502.187
508.843
516.13
523.668
531.707
540.057
549.146
558.686
569.303
580.507
593.265
606.722
622.372
638.747
658.24
678.269
702.779
727.256
758.288
788.217
828.176
865.514
919.084
967.212
1040.3
1104.24
1214.86
1323.89
1518.68
1703.11
2017.28
2269.85
2673.17
2819.23
3056.9
3014.56
3705.22
4280.87
5885.98
6962.59
8639.22
23479.9
32972.1
20472.4
9653.39
4813.29
2963.94
2399.96
2017.48
1848.01
1607.32
1475.66
1305.95
1231.31
1137.35
1113.66
1062.88
1048.81
1013.96
1000.2
970.815
950.121
913.925
876.239
829.958
788.058
748.944
716.988
690.509
671.099
657.258
647.145
639.6
632.139
626.357
618.933
613.444
605.281
600.92
593.926
593.502
590.91
596.87
604.138
618.888
648.9
678.543
655.183
574.278
1039.04
1362.46
1305.93
1053.29
802.827
629.089
538.509
503.709
495.461
497.266
502.71
509.329
516.587
524.102
532.125
540.462
549.544
559.078
569.696
580.901
593.665
607.124
622.784
639.164
658.671
678.706
703.234
727.721
758.784
788.734
828.745
866.122
919.767
967.948
1041.18
1105.26
1216.09
1325.13
1519.89
1703.97
2017.74
2269.46
2671.98
2818.17
3057.99
3018.25
3707.99
4280.16
5871.86
6937.15
8533.97
22746.6
31579.8
19666.1
9305.01
4709.6
2936.2
2390.82
2012.38
1844.07
1604.69
1474.07
1304.92
1230.65
1136.85
1113.19
1062.36
1048.19
1013.32
999.568
970.105
949.367
913.2
875.666
829.554
787.822
748.832
716.99
690.591
671.214
657.347
647.178
639.566
632.046
626.207
618.733
613.189
604.982
600.55
593.502
592.951
590.258
595.963
603.009
617.297
646.709
675.624
652.115
572.693
1033.97
1355.39
1299.73
1049.3
800.991
628.741
538.872
504.289
496.061
497.831
503.232
509.814
517.043
524.534
532.541
540.864
549.939
559.468
570.086
581.291
594.06
607.521
623.191
639.575
659.095
679.135
703.682
728.178
759.271
789.241
829.303
866.717
920.435
968.668
1042.03
1106.26
1217.3
1326.34
1521.06
1704.8
2018.15
2269.03
2670.76
2817.09
3059.07
3021.91
3710.73
4279.47
5857.94
6912.12
8431.79
22045.7
30219.9
18870
8963.95
4608.89
2909.22
2381.92
2007.44
1840.24
1602.14
1472.52
1303.92
1230.01
1136.36
1112.74
1061.86
1047.58
1012.69
998.94
969.4
948.618
912.478
875.092
829.147
787.579
748.709
716.979
690.659
671.316
657.425
647.202
639.524
631.945
626.049
618.526
612.925
604.673
600.17
593.067
592.388
589.592
595.043
601.866
615.695
644.508
672.707
649.059
571.111
1028.9
1348.3
1293.52
1045.29
799.148
628.39
539.233
504.869
496.662
498.397
503.755
510.299
517.497
524.966
532.955
541.265
550.331
559.855
570.473
581.677
594.451
607.915
623.593
639.981
659.514
679.559
704.124
728.628
759.751
789.739
829.851
867.302
921.091
969.376
1042.87
1107.24
1218.48
1327.52
1522.21
1705.59
2018.52
2268.57
2669.53
2816.02
3060.15
3025.55
3713.47
4278.83
5844.24
6887.5
8332.6
21376.8
28896.3
18086.8
8631.27
4511.34
2883.04
2373.27
2002.65
1836.53
1599.65
1471.02
1302.95
1229.39
1135.9
1112.31
1061.37
1046.99
1012.08
998.322
968.703
947.876
911.762
874.522
828.739
787.333
748.577
716.958
690.716
671.408
657.494
647.219
639.476
631.838
625.884
618.312
612.654
604.357
599.782
592.622
591.814
588.915
594.111
600.709
614.083
642.3
669.792
646.017
569.531
1023.82
1341.2
1287.29
1041.28
797.3
628.035
539.593
505.449
497.262
498.963
504.277
510.783
517.951
525.396
533.368
541.664
550.722
560.24
570.857
582.061
594.839
608.305
623.992
640.383
659.928
679.978
704.56
729.071
760.224
790.23
830.392
867.878
921.738
970.073
1043.7
1108.2
1219.64
1328.68
1523.32
1706.35
2018.87
2268.09
2668.28
2814.95
3061.24
3029.18
3716.21
4278.24
5830.76
6863.31
8236.33
20739.4
27612.5
17319
8307.91
4417.1
2857.69
2364.9
1998.03
1832.96
1597.26
1469.58
1302.03
1228.81
1135.46
1111.9
1060.89
1046.42
1011.48
997.718
968.017
947.145
911.054
873.956
828.335
787.087
748.441
716.928
690.764
671.491
657.556
647.229
639.423
631.727
625.715
618.093
612.377
604.034
599.386
592.168
591.232
588.227
593.169
599.541
612.465
640.086
666.882
642.99
567.953
1018.74
1334.09
1281.04
1037.25
795.447
627.678
539.951
506.029
497.863
499.529
504.8
511.267
518.405
525.825
533.779
542.061
551.111
560.622
571.239
582.442
595.224
608.692
624.387
640.781
660.339
680.393
704.991
729.511
760.692
790.717
830.927
868.448
922.378
970.763
1044.52
1109.16
1220.79
1329.83
1524.42
1707.1
2019.19
2267.6
2667.04
2813.9
3062.34
3032.82
3718.97
4277.73
5817.51
6839.55
8142.91
20132.8
26371.6
16569
7994.69
4326.28
2833.19
2356.79
1993.58
1829.52
1594.95
1468.2
1301.15
1228.27
1135.06
1111.51
1060.45
1045.87
1010.9
997.13
967.346
946.427
910.359
873.4
827.936
786.843
748.303
716.892
690.805
671.568
657.612
647.235
639.365
631.612
625.542
617.869
612.095
603.706
598.984
591.708
590.641
587.53
592.219
598.363
610.84
637.868
663.978
639.979
566.377
1013.66
1326.97
1274.79
1033.22
793.589
627.318
540.309
506.609
498.464
500.095
505.323
511.751
518.857
526.253
534.189
542.458
551.499
561.003
571.619
582.821
595.607
609.076
624.779
641.177
660.746
680.804
705.42
729.946
761.156
791.199
831.457
869.014
923.013
971.448
1045.33
1110.11
1221.93
1330.96
1525.51
1707.83
2019.51
2267.11
2665.81
2812.89
3063.46
3036.47
3721.75
4277.29
5804.49
6816.21
8052.23
19556.1
25176
15838.8
7692.33
4238.95
2809.54
2348.96
1989.32
1826.22
1592.74
1466.89
1300.32
1227.77
1134.69
1111.15
1060.03
1045.35
1010.35
996.561
966.692
945.725
909.677
872.854
827.545
786.604
748.166
716.854
690.841
671.639
657.664
647.238
639.305
631.494
625.366
617.642
611.809
603.373
598.576
591.241
590.043
586.825
591.262
597.177
609.212
635.649
661.083
636.985
564.804
1008.58
1319.83
1268.52
1029.18
791.729
626.957
540.665
507.189
499.066
500.661
505.845
512.234
519.31
526.681
534.599
542.852
551.885
561.382
571.997
583.197
595.988
609.459
625.17
641.57
661.151
681.213
705.845
730.379
761.618
791.679
831.985
869.577
923.645
972.13
1046.14
1111.05
1223.07
1332.09
1526.59
1708.57
2019.82
2266.63
2664.61
2811.91
3064.62
3040.15
3724.57
4276.95
5791.71
6793.29
7964.21
19008.2
24028
15130.5
7401.4
4155.15
2786.75
2341.4
1985.22
1823.07
1590.63
1465.66
1299.55
1227.32
1134.36
1110.83
1059.63
1044.86
1009.82
996.013
966.057
945.042
909.012
872.322
827.164
786.372
748.031
716.815
690.874
671.708
657.714
647.239
639.244
631.376
625.189
617.414
611.521
603.037
598.165
590.769
589.44
586.114
590.3
595.985
607.581
633.431
658.198
634.01
563.233
1003.5
1312.69
1262.24
1025.14
789.866
626.593
541.021
507.768
499.667
501.228
506.368
512.717
519.762
527.108
535.008
543.246
552.27
561.761
572.373
583.573
596.367
609.839
625.558
641.962
661.554
681.621
706.269
730.811
762.078
792.157
832.512
870.139
924.275
972.811
1046.95
1111.99
1224.2
1333.22
1527.67
1709.3
2020.13
2266.17
2663.43
2810.98
3065.82
3043.86
3727.43
4276.7
5779.17
6770.8
7878.75
18488
22929.2
14445.8
7122.33
4074.91
2764.83
2334.12
1981.31
1820.08
1588.63
1464.51
1298.84
1226.91
1134.07
1110.54
1059.27
1044.4
1009.31
995.488
965.442
944.379
908.366
871.805
826.795
786.15
747.901
716.778
690.908
671.776
657.762
647.239
639.183
631.257
625.012
617.185
611.232
602.699
597.751
590.294
588.833
585.398
589.333
594.788
605.95
631.216
655.325
631.056
561.664
998.416
1305.54
1255.96
1021.09
788.001
626.228
541.376
508.347
500.269
501.795
506.891
513.201
520.213
527.534
535.415
543.64
552.654
562.137
572.749