/*--------------------------------*- C++ -*----------------------------------*\
| =========                 |                                                 |
| \\      /  F ield         | OpenFOAM: The Open Source CFD Toolbox           |
|  \\    /   O peration     | Version:  2412                                  |
|   \\  /    A nd           | Website:  www.openfoam.com                      |
|    \\/     M anipulation  |                                                 |
\*---------------------------------------------------------------------------*/
FoamFile
{
    version     2.0;
    format      ascii;
    arch        "LSB;label=32;scalar=64";
    class       volScalarField;
    location    "0.2";
    object      k;
}
// * * * * * * * * * * * * * * * * * * * * * * * * * * * * * * * * * * * * * //

dimensions      [0 2 -2 0 0 0 0];

internalField   nonuniform List<scalar> 
13079
(
48.8422
68.6975
76.9345
70.1408
58.5036
49.3889
44.4403
42.5795
42.2436
42.4424
42.7712
43.1346
43.4976
43.8656
44.2314
44.6102
44.9953
45.4047
45.8277
46.2903
46.7739
47.3172
47.8851
48.5358
49.2093
49.9989
50.7986
51.7627
52.7047
53.879
54.974
56.4196
57.7105
59.5733
61.1493
63.5231
65.3833
68.7622
72.0081
77.8377
83.0468
91.6307
98.1264
107.989
110.336
113.854
110.516
126.042
138.156
172.51
192.132
252.641
518.067
583.978
383.351
231.652
157.043
117.575
103.324
93.372
88.9463
81.5206
77.5892
72.1623
70.0247
67.044
66.577
64.9667
64.7843
63.6014
63.2304
62.2641
61.6189
60.222
58.6611
56.7456
54.998
48.781
68.5713
76.8103
70.0597
58.4703
49.3945
44.4667
42.6107
42.2735
42.4699
42.7967
43.1586
43.5208
43.8882
44.2538
44.6328
45.0182
45.4283
45.852
46.3156
46.8002
47.3447
47.9139
48.5663
49.2413
50.033
50.8347
51.8011
52.7456
53.9231
55.0215
56.4716
57.7674
59.6358
61.2179
63.6003
65.4735
68.8665
72.1224
77.9569
83.1662
91.7426
98.2201
108.056
110.408
113.982
110.741
126.255
138.321
172.394
191.892
250.766
512.069
578.515
380.586
230.265
156.408
117.378
103.282
93.3791
88.9754
81.5659
77.6438
72.2274
70.0888
67.1027
66.6269
65.0107
64.8193
63.6323
63.2569
62.287
61.6384
60.2434
58.6885
56.7789
55.0374
48.7201
68.4446
76.6846
69.9775
58.4368
49.4006
44.4935
42.6423
42.3036
42.4976
42.8225
43.1829
43.5441
43.9111
44.2765
44.6555
45.0413
45.4519
45.8764
46.341
46.8266
47.3724
47.9429
48.5968
49.2734
50.0671
50.8706
51.8396
52.7864
53.9671
55.0689
56.5234
57.8241
59.6981
61.2862
63.6772
65.5631
68.97
72.2356
78.0748
83.2838
91.8528
98.3121
108.122
110.478
114.108
110.961
126.461
138.479
172.271
191.64
248.893
505.971
572.901
377.717
228.825
155.747
117.166
103.23
93.3771
88.9966
81.6057
77.6939
72.2886
70.1495
67.1584
66.6743
65.0523
64.8522
63.6614
63.2818
62.3086
61.6566
60.2636
58.7147
56.8111
55.0759
48.6597
68.3176
76.5573
69.8935
58.4025
49.4065
44.5203
42.6739
42.334
42.5255
42.8483
43.2073
43.5676
43.934
44.2992
44.6783
45.0643
45.4756
45.9008
46.3663
46.8529
47.4
47.9716
48.6272
49.3053
50.1009
50.9063
51.8776
52.8268
54.0106
55.1157
56.5746
57.88
59.7595
61.3535
63.753
65.6513
69.072
72.3467
78.1905
83.3989
91.9603
98.4012
108.184
110.546
114.232
111.176
126.66
138.627
172.138
191.375
247.022
499.767
567.121
374.73
227.323
155.056
116.939
103.168
93.3654
89.009
81.639
77.7387
72.3452
70.206
67.2105
66.7186
65.0909
64.8822
63.6881
63.3047
62.3282
61.673
60.282
58.7393
56.8417
55.1128
48.6
68.1906
76.4286
69.8076
58.367
49.412
44.5471
42.7056
42.3644
42.5534
42.8742
43.2318
43.591
43.9569
44.3218
44.701
45.0873
45.4991
45.925
46.3914
46.879
47.4273
48.0001
48.6572
49.3368
50.1342
50.9415
51.9152
52.8666
54.0535
55.1617
56.625
57.935
59.8199
61.4195
63.8274
65.7379
69.172
72.4554
78.3036
83.5107
92.0645
98.4866
108.244
110.611
114.351
111.385
126.851
138.765
171.996
191.095
245.151
493.462
561.168
371.618
225.755
154.335
116.696
103.096
93.3436
89.0122
81.6654
77.7778
72.3966
70.258
67.2588
66.7594
65.1263
64.9093
63.7122
63.3252
62.3455
61.6873
60.2984
58.7619
56.8704
55.148
53.5049
52.1987
51.1597
50.4548
50.0113
49.717
49.5143
49.2792
49.1094
48.8348
48.6662
48.3407
48.2474
47.9806
48.1475
48.1258
48.7494
49.3055
50.5601
52.5907
54.6532
53.667
48.541
68.0635
76.2983
69.7198
58.3302
49.4169
44.5736
42.7374
42.3948
42.5815
42.9002
43.2562
43.6145
43.9798
44.3444
44.7236
45.1102
45.5225
45.949
46.4163
46.9048
47.4542
48.0282
48.6868
49.3678
50.1671
50.9761
51.9521
52.9057
54.0956
55.2069
56.6744
57.9888
59.8791
61.4842
63.9004
65.8226
69.2699
72.5614
78.4137
83.619
92.1649
98.5681
108.3
110.671
114.465
111.586
127.033
138.892
171.843
190.801
243.283
487.058
555.037
368.375
224.117
153.583
116.437
103.013
93.312
89.0064
81.6847
77.8111
72.4429
70.3053
67.303
66.7967
65.1584
64.9333
63.7336
63.3432
62.3605
61.6993
60.3126
58.7823
56.8971
55.1812
53.5446
52.239
51.1976
50.4882
50.0392
49.7392
49.5318
49.2929
49.1204
48.8436
48.6729
48.3458
48.2501
47.9816
48.143
48.118
48.7284
49.2771
50.5045
52.5089
54.5247
53.5117
48.4825
67.9362
76.1663
69.63
58.2922
49.4213
44.6001
42.7691
42.4254
42.6096
42.9262
43.2807
43.6379
44.0027
44.367
44.7462
45.1329
45.5456
45.9728
46.441
46.9303
47.4809
48.056
48.7159
49.3983
50.1994
51.0101
51.9883
52.944
54.1368
55.251
56.7227
58.0414
59.9369
61.5473
63.9716
65.9052
69.3653
72.6645
78.5206
83.7236
92.2615
98.6454
108.352
110.728
114.574
111.781
127.206
139.009
171.682
190.494
241.419
480.563
548.723
364.995
222.408
152.801
116.163
102.92
93.2708
88.9916
81.697
77.8386
72.4838
70.348
67.3431
66.8304
65.187
64.954
63.7521
63.3587
62.373
61.709
60.3245
58.8006
56.9216
55.2124
53.5829
52.2783
51.2347
50.521
50.0665
49.7609
49.5489
49.3064
49.1311
48.8522
48.6794
48.3508
48.2525
47.9824
48.1383
48.1101
48.7073
49.2487
50.4493
52.4278
54.3982
53.3597
48.4245
67.8087
76.0328
69.5383
58.253
49.4251
44.6263
42.8009
42.456
42.6377
42.9523
43.3052
43.6613
44.0254
44.3894
44.7686
45.1554
45.5686
45.9963
46.4653
46.9555
47.5071
48.0833
48.7446
49.4283
50.2311
51.0434
52.0237
52.9814
54.1771
55.2941
56.7699
58.0927
59.9933
61.6088
64.041
65.9856
69.4583
72.7646
78.6241
83.8243
92.3539
98.7182
108.4
110.78
114.679
111.968
127.371
139.116
171.511
190.175
239.561
473.987
542.225
361.478
220.625
151.989
115.874
102.818
93.2204
88.9681
81.7025
77.8602
72.5194
70.3859
67.3791
66.8605
65.2122
64.9716
63.7678
63.3716
62.3831
61.7164
60.3341
58.8165
56.9438
55.2415
53.6194
52.3162
51.2707
50.5528
50.0931
49.782
49.5654
49.3193
49.1414
48.8602
48.6854
48.3553
48.2545
47.9828
48.1332
48.1017
48.6859
49.2199
50.3942
52.3469
54.2731
53.2102
48.367
67.6808
75.8976
69.4448
58.2125
49.4284
44.6524
42.8327
42.4867
42.666
42.9784
43.3297
43.6847
44.0482
44.4117
44.7908
45.1777
45.5914
46.0196
46.4894
46.9803
47.533
48.1101
48.7728
49.4577
50.2622
51.076
52.0584
53.0179
54.2164
55.3361
56.8158
58.1425
60.0482
61.6686
64.1085
66.0638
69.5486
72.8615
78.7242
83.921
92.442
98.7865
108.444
110.827
114.778
112.149
127.527
139.212
171.332
189.844
237.71
467.338
535.541
357.82
218.768
151.148
115.571
102.706
93.1613
88.9363
81.7011
77.8762
72.5498
70.4192
67.411
66.8871
65.234
64.9861
63.7806
63.382
62.3906
61.7213
60.3413
58.8301
56.9639
55.2683
53.6538
52.3524
51.3052
50.5835
50.1187
49.8023
49.5812
49.3315
49.1509
48.8677
48.6908
48.3592
48.2558
47.9825
48.1274
48.0927
48.664
49.1907
50.339
52.2661
54.1492
53.0632
48.3098
67.5525
75.7608
69.3495
58.1709
49.4311
44.6784
42.8645
42.5174
42.6942
43.0045
43.3542
43.7081
44.0708
44.4339
44.8129
45.1999
45.6139
46.0426
46.5131
47.0048
47.5585
48.1365
48.8004
49.4865
50.2926
51.1078
52.0922
53.0535
54.2546
55.3769
56.8604
58.191
60.1014
61.7265
64.1741
66.1396
69.6362
72.9552
78.8207
84.0134
92.5257
98.85
108.483
110.87
114.873
112.322
127.675
139.298
171.146
189.502
235.869
460.628
528.672
354.021
216.838
150.281
115.256
102.587
93.0939
88.8966
81.6932
77.8867
72.5749
70.448
67.4388
66.91
65.2524
64.9974
63.7906
63.3898
62.3956
61.7239
60.3462
58.8414
56.9816
55.293
53.6861
52.3868
51.3383
50.613
50.1433
49.8216
49.5961
49.3429
49.1598
48.8744
48.6955
48.3624
48.2565
47.9815
48.1209
48.0831
48.6415
49.1609
50.2836
52.1852
54.0263
52.9182
48.253
67.4237
75.6224
69.2525
58.1282
49.4333
44.7042
42.8963
42.5482
42.7225
43.0306
43.3787
43.7314
44.0933
44.456
44.8348
45.2219
45.6362
46.0653
46.5365
47.0289
47.5835
48.1623
48.8275
49.5146
50.3223
51.1389
52.1252
53.0881
54.2918
55.4165
56.9038
58.2379
60.1531
61.7826
64.2376
66.2129
69.721
73.0455
78.9134
84.1016
92.605
98.9087
108.518
110.908
114.962
112.488
127.815
139.375
170.951
189.151
234.039
453.87
521.62
350.08
214.835
149.388
114.929
102.46
93.019
88.8493
81.679
77.8918
72.5951
70.4722
67.4626
66.9295
65.2676
65.0057
63.7978
63.395
62.3982
61.7241
60.3486
58.8504
56.997
55.3154
53.7161
52.4193
51.3699
50.6412
50.1668
49.84
49.6102
49.3535
49.1678
48.8804
48.6994
48.3648
48.2563
47.9798
48.1137
48.0726
48.6183
49.1303
50.2278
52.104
53.9043
52.7752
48.1965
67.2943
75.4823
69.1537
58.0844
49.435
44.7298
42.9281
42.579
42.7509
43.0568
43.4031
43.7546
44.1158
44.478
44.8566
45.2436
45.6582
46.0877
46.5596
47.0526
47.608
48.1877
48.854
49.5422
50.3513
51.1691
52.1573
53.1217
54.3279
55.4549
56.9457
58.2833
60.203
61.8368
64.299
66.2837
69.8029
73.1324
79.0025
84.1855
92.6797
98.9626
108.548
110.941
115.047
112.648
127.947
139.442
170.751
188.791
232.222
447.077
514.388
346
212.761
148.471
114.59
102.326
92.937
88.7949
81.6587
77.8918
72.6103
70.4921
67.4826
66.9457
65.2795
65.011
63.8022
63.3978
62.3983
61.7219
60.3487
58.8569
57.0101
55.3355
53.7439
52.4499
51.3998
50.6681
50.1891
49.8574
49.6233
49.3633
49.1751
48.8856
48.7025
48.3664
48.2553
47.9772
48.1056
48.0613
48.5943
49.0989
50.1715
52.0225
53.783
52.634
48.1403
67.1643
75.3406
69.0533
58.0395
49.4363
44.7553
42.96
42.6099
42.7792
43.0829
43.4276
43.7778
44.1382
44.4999
44.8782
45.2651
45.68
46.1098
46.5823
47.0758
47.6321
48.2126
48.88
49.5691
50.3796
51.1986
52.1884
53.1544
54.3629
55.4921
56.9864
58.3271
60.2512
61.889
64.3582
66.352
69.8819
73.2159
79.0877
84.2651
92.7498
99.0117
108.574
110.97
115.126
112.8
128.072
139.501
170.544
188.423
230.421
440.262
506.98
341.783
210.618
147.532
114.243
102.185
92.8485
88.734
81.6327
77.8869
72.6208
70.5078
67.4989
66.9586
65.2883
65.0135
63.8041
63.3982
62.396
61.7174
60.3465
58.8612
57.0209
55.3534
53.7693
52.4785
51.4281
50.6936
50.2103
49.8738
49.6356
49.3722
49.1815
48.8899
48.7048
48.3672
48.2535
47.9737
48.0967
48.0491
48.5695
49.0666
50.1147
51.9406
53.6622
52.4943
48.0842
67.0336
75.1973
68.9513
57.9937
49.4371
44.7807
42.9918
42.6409
42.8077
43.1091
43.452
43.801
44.1605
44.5216
44.8996
45.2865
45.7015
46.1316
46.6046
47.0987
47.6558
48.2369
48.9053
49.5953
50.4072
51.2272
52.2187
53.186
54.3968
55.528
57.0256
58.3694
60.2978
61.9393
64.4153
66.4178
69.958
73.2959
79.1691
84.3402
92.8154
99.0558
108.595
110.994
115.201
112.946
128.189
139.551
170.332
188.049
228.637
433.441
499.401
337.43
208.408
146.574
113.886
102.04
92.7542
88.667
81.6014
77.8773
72.6268
70.5195
67.5115
66.9683
65.2941
65.0132
63.8033
63.3962
62.3913
61.7107
60.342
58.8632
57.0295
55.369
53.7925
52.5051
51.4547
50.7177
50.2302
49.8892
49.6468
49.3802
49.1869
48.8934
48.7062
48.367
48.2508
47.9694
48.0868
48.0359
48.5439
49.0334
50.0572
51.8581
53.5418
52.356
48.0283
66.9022
75.0524
68.8477
57.9469
49.4374
44.8059
43.0237
42.6719
42.8361
43.1353
43.4764
43.824
44.1826
44.5431
44.9209
45.3076
45.7227
46.1531
46.6266
47.1212
47.679
48.2607
48.9301
49.6209
50.434
51.255
52.2481
53.2166
54.4296
55.5626
57.0634
58.4101
60.3426
61.9877
64.4703
66.481
70.0312
73.3725
79.2467
84.411
92.8763
99.0952
108.612
111.014
115.271
113.086
128.299
139.594
170.115
187.67
226.872
426.629
491.659
332.948
206.134
145.599
113.523
101.889
92.6548
88.5945
81.5649
77.8634
72.6285
70.5274
67.5207
66.975
65.2971
65.0103
63.8001
63.392
62.3845
61.7018
60.3352
58.863
57.0359
55.3825
53.8134
52.5297
51.4796
50.7404
50.249
49.9034
49.6571
49.3873
49.1916
48.896
48.7068
48.3661
48.2471
47.964
48.076
48.0218
48.5172
48.9992
49.9991
51.7749
53.4216
52.219
47.9725
66.7702
74.9059
68.7426
57.8991
49.4373
44.831
43.0556
42.7029
42.8646
43.1615
43.5007
43.847
44.2047
44.5645
44.9419
45.3284
45.7437
46.1742
46.6482
47.1432
47.7017
48.284
48.9543
49.6458
50.4601
51.282
52.2765
53.2461
54.4612
55.596
57.0999
58.4493
60.3856
62.0341
64.5231
66.5417
70.1015
73.4456
79.3206
84.4776
92.9328
99.1299
108.624
111.029
115.336
113.219
128.403
139.628
169.894
187.286
225.128
419.841
483.763
328.339
203.802
144.609
113.153
101.734
92.5508
88.517
81.5239
77.8454
72.6262
70.5317
67.5267
66.979
65.2973
65.0049
63.7946
63.3856
62.3754
61.6908
60.3264
58.8607
57.0401
55.3938
53.8321
52.5523
51.5028
50.7616
50.2665
49.9166
49.6664
49.3934
49.1953
48.8977
48.7064
48.3641
48.2426
47.9578
48.0642
48.0066
48.4897
48.9639
49.9402
51.6911
53.3016
52.0831
47.9169
66.6373
74.7579
68.636
57.8504
49.4368
44.856
43.0875
42.734
42.8931
43.1876
43.525
43.87
44.2267
44.5858
44.9628
45.3491
45.7644
46.1951
46.6695
47.1648
47.7239
48.3067
48.9779
49.6701
50.4854
51.3081
52.304
53.2747
54.4917
55.6281
57.1349
58.4869
60.427
62.0786
64.5738
66.5999
70.1689
73.5154
79.3907
84.5399
92.9849
99.1599
108.633
111.04
115.397
113.347
128.5
139.656
169.669
186.898
223.406
413.092
475.723
323.612
201.414
143.607
112.779
101.576
92.443
88.4351
81.4786
77.8238
72.6201
70.5326
67.5296
66.9803
65.2951
64.9972
63.7869
63.3772
62.3644
61.6778
60.3155
58.8563
57.0423
55.403
53.8485
52.5729
51.5243
50.7815
50.2828
49.9288
49.6747
49.3987
49.1981
48.8986
48.7051
48.3613
48.237
47.9505
48.0513
47.9904
48.4611
48.9276
49.8804
51.6064
53.1817
51.9482
47.8613
66.5037
74.6083
68.528
57.8009
49.4359
44.8809
43.1195
42.7651
42.9217
43.2138
43.5493
43.8928
44.2485
44.6069
44.9835
45.3695
45.7848
46.2156
46.6904
47.1861
47.7457
48.329
49.0009
49.6937
50.5101
51.3335
52.3307
53.3023
54.5212
55.6591
57.1687
58.523
60.4668
62.1212
64.6224
66.6556
70.2335
73.5819
79.4573
84.5981
93.0326
99.1854
108.637
111.048
115.454
113.469
128.592
139.677
169.442
186.508
221.709
406.398
467.55
318.771
198.977
142.595
112.401
101.415
92.332
88.3494
81.4296
77.7987
72.6106
70.5305
67.5298
66.9791
65.2905
64.9874
63.7771
63.3668
62.3514
61.663
60.3027
58.8499
57.0425
55.4102
53.8629
52.5916
51.5441
50.7999
50.2979
49.9398
49.6821
49.403
49.2
48.8985
48.7029
48.3576
48.2305
47.9422
48.0375
47.9731
48.4315
48.8901
49.8198
51.521
53.0616
51.8142
47.8057
66.3694
74.4571
68.4185
57.7505
49.4346
44.9057
43.1514
42.7962
42.9502
43.24
43.5736
43.9156
44.2703
44.6279
45.004
45.3897
45.805
46.2359
46.7109
47.2069
47.7671
48.3507
49.0234
49.7166
50.534
51.3581
52.3565
53.3289
54.5496
55.6888
57.2011
58.5576
60.5049
62.162
64.669
66.709
70.2954
73.6453
79.5203
84.6523
93.0761
99.2066
108.637
111.051
115.508
113.585
128.678
139.693
169.212
186.116
220.036
399.774
459.258
313.825
196.495
141.577
112.021
101.253
92.2185
88.2605
81.3771
77.7707
72.5979
70.5256
67.5274
66.9757
65.2838
64.9756
63.7654
63.3548
62.3366
61.6464
60.2881
58.8417
57.0409
55.4155
53.8751
52.6083
51.5623
50.817
50.3118
49.9499
49.6885
49.4065
49.201
48.8975
48.6998
48.3529
48.2231
47.933
48.0227
47.9547
48.4008
48.8514
49.7583
51.4346
52.9415
51.6808
47.7502
66.2342
74.3045
68.3077
57.6993
49.4329
44.9304
43.1834
42.8274
42.9788
43.2662
43.5978
43.9384
44.2919
44.6488
45.0244
45.4097
45.8249
46.2558
46.7311
47.2273
47.788
48.3719
49.0453
49.739
50.5573
51.3819
52.3814
53.3545
54.5769
55.7174
57.2323
58.5908
60.5414
62.2011
64.7137
66.7601
70.3547
73.7055
79.5798
84.7027
93.1157
99.2237
108.634
111.051
115.557
113.697
128.759
139.703
168.98
185.723
218.39
393.234
450.861
308.782
193.974
140.555
111.639
101.089
92.103
88.1688
81.3217
77.7399
72.5824
70.5182
67.5226
66.9702
65.2751
64.962
63.752
63.3411
62.3201
61.6282
60.2718
58.8318
57.0375
55.419
53.8854
52.6232
51.5788
50.8327
50.3246
49.9589
49.6939
49.409
49.2012
48.8957
48.6959
48.3473
48.2147
47.9228
48.0068
47.9352
48.3691
48.8116
49.6959
51.3473
52.8211
51.5481
47.6947
66.0983
74.1504
68.1956
57.6473
49.4309
44.9549
43.2153
42.8586
43.0074
43.2924
43.622
43.961
44.3135
44.6695
45.0445
45.4295
45.8446
46.2754
46.751
47.2474
47.8084
48.3927
49.0667
49.7608
50.5799
51.405
52.4056
53.3793
54.6033
55.7449
57.2623
58.6226
60.5764
62.2384
64.7564
66.809
70.4114
73.7628
79.6362
84.7494
93.1513
99.2368
108.627
111.047
115.603
113.805
128.835
139.708
168.747
185.33
216.772
386.791
442.376
303.651
191.421
139.532
111.258
100.924
91.9862
88.0751
81.2638
77.7069
72.5644
70.5085
67.5158
66.9629
65.2647
64.9469
63.737
63.3259
62.3022
61.6086
60.2539
58.8202
57.0325
55.4208
53.8939
52.6363
51.5938
50.847
50.3362
49.9669
49.6985
49.4107
49.2005
48.8931
48.691
48.3409
48.2054
47.9116
47.99
47.9147
48.3364
48.7707
49.6326
51.259
52.7004
51.4159
47.6392
65.9615
73.9949
68.0821
57.5945
49.4286
44.9794
43.2473
42.8899
43.0361
43.3185
43.6461
43.9836
44.3349
44.6901
45.0645
45.4491
45.864
46.2948
46.7705
47.2671
47.8285
48.413
49.0875
49.782
50.6018
51.4273
52.4289
53.4032
54.6287
55.7714
57.2911
58.6532
60.61
62.2742
64.7974
66.8558
70.4657
73.8173
79.6894
84.7926
93.1834
99.2463
108.617
111.04
115.646
113.908
128.907
139.709
168.514
184.938
215.182
380.459
433.819
298.443
188.842
138.511
110.877
100.759
91.8687
87.9798
81.2039
77.6719
72.5442
70.4968
67.5072
66.9541
65.2528
64.9304
63.7206
63.3094
62.2828
61.5876
60.2347
58.8072
57.0259
55.421
53.9005
52.6477
51.6073
50.8602
50.3467
49.974
49.7022
49.4116
49.199
48.8896
48.6853
48.3336
48.1952
47.8994
47.9721
47.8931
48.3026
48.7285
49.5683
51.1698
52.5793
51.2841
47.5836
65.824
73.8379
67.9674
57.541
49.4259
45.0037
43.2793
42.9212
43.0647
43.3447
43.6703
44.0061
44.3563
44.7105
45.0844
45.4684
45.8832
46.3139
46.7897
47.2864
47.8482
48.4329
49.1079
49.8027
50.6232
51.449
52.4516
53.4263
54.6532
55.7968
57.3188
58.6825
60.6423
62.3084
64.8367
66.9006
70.5177
73.8692
79.7397
84.8326
93.212
99.2523
108.604
111.031
115.687
114.007
128.976
139.707
168.28
184.547
213.622
374.25
425.21
293.168
186.244
137.493
110.498
100.595
91.751
87.8834
81.1424
77.6353
72.5222
70.4835
67.497
66.9438
65.2395
64.9127
63.703
63.2918
62.2623
61.5654
60.2142
58.7929
57.018
55.4198
53.9055
52.6574
51.6194
50.8721
50.3562
49.9802
49.705
49.4117
49.1967
48.8853
48.6789
48.3254
48.1841
47.8863
47.9533
47.8705
48.2679
48.6853
49.5031
51.0796
52.4579
51.1528
47.528
65.6857
73.6796
67.8515
57.4867
49.4229
45.028
43.3113
42.9525
43.0934
43.3708
43.6943
44.0286
44.3775
44.7308
45.104
45.4876
45.9022
46.3327
46.8087
47.3054
47.8675
48.4523
49.1279
49.8228
50.644
51.4701
52.4735
53.4486
54.6769
55.8213
57.3454
58.7106
60.6732
62.3412
64.8745
66.9436
70.5676
73.9186
79.7873
84.8696
93.2375
99.2552
108.588
111.019
115.725
114.103
129.041
139.701
168.047
184.158
212.092
368.174
416.567
287.837
183.635
136.483
110.122
100.432
91.6336
87.7865
81.0796
77.5974
72.4986
70.4688
67.4854
66.9323
65.2252
64.894
63.6844
63.2732
62.2408
61.5422
60.1926
58.7774
57.0089
55.4173
53.9089
52.6657
51.6301
50.8828
50.3647
49.9855
49.7071
49.411
49.1937
48.8803
48.6716
48.3165
48.1722
47.8724
47.9336
47.8469
48.2321
48.6409
49.4369
50.9885
52.3361
51.0217
47.4724
65.5466
73.5199
67.7344
57.4318
49.4196
45.0522
43.3433
42.9838
43.1221
43.397
43.7184
44.051
44.3987
44.751
45.1236
45.5066
45.9209
46.3513
46.8273
47.3241
47.8864
48.4714
49.1473
49.8425
50.6643
51.4906
52.4948
53.4703
54.6998
55.845
57.3711
58.7377
60.703
62.3727
64.9107
66.9848
70.6155
73.9657
79.8324
84.9037
93.26
99.2552
108.57
111.005
115.76
114.196
129.103
139.692
167.815
183.772
210.593
362.24
407.911
282.463
181.021
135.482
109.751
100.271
91.5171
87.6896
81.0161
77.5587
72.4739
70.453
67.4729
66.92
65.2099
64.8746
63.665
63.2537
62.2183
61.5181
60.17
58.7609
56.9987
55.4135
53.911
52.6726
51.6395
50.8925
50.3723
49.99
49.7084
49.4097
49.1899
48.8746
48.6636
48.3068
48.1595
47.8575
47.9129
47.8223
48.1954
48.5954
49.3699
50.8964
52.214
50.891
47.4167
65.4067
73.359
67.6162
57.3763
49.416
45.0763
43.3753
43.0152
43.1508
43.4231
43.7424
44.0733
44.4197
44.7711
45.1429
45.5254
45.9395
46.3696
46.8457
47.3425
47.9051
48.4901
49.1664
49.8617
50.6841
51.5106
52.5155
53.4912
54.722
55.8678
57.3959
58.7638
60.7317
62.4029
64.9456
67.0245
70.6616
74.0107
79.8751
84.9352
93.2799
99.2525
108.55
110.989
115.794
114.286
129.162
139.682
167.583
183.389
209.124
356.458
399.264
277.058
178.41
134.492
109.384
100.111
91.4019
87.5932
80.9521
77.5193
72.4482
70.4363
67.4595
66.9068
65.1939
64.8545
63.6449
63.2336
62.1952
61.4934
60.1467
58.7435
56.9875
55.4087
53.9117
52.6781
51.6478
50.9012
50.379
49.9937
49.7091
49.4077
49.1856
48.8683
48.6549
48.2963
48.146
47.8419
47.8914
47.7967
48.1578
48.5489
49.302
50.8035
52.0914
50.7605
47.3609
65.2661
73.1967
67.4968
57.3201
49.4121
45.1003
43.4073
43.0466
43.1795
43.4493
43.7664
44.0956
44.4407
44.7911
45.1622
45.5441
45.9578
46.3878
46.8639
47.3606
47.9234
48.5085
49.1851
49.8805
50.7034
51.53
52.5356
53.5115
54.7435
55.8899
57.42
58.789
60.7594
62.4321
64.9793
67.0627
70.706
74.0537
79.9156
84.9644
93.2973
99.2476
108.527
110.971
115.826
114.374
129.22
139.67
167.354
183.01
207.687
350.833
390.647
271.636
175.809
133.516
109.022
99.9544
91.2884
87.4976
80.8882
77.4797
72.4219
70.4191
67.4456
66.8932
65.1774
64.834
63.6243
63.213
62.1715
61.468
60.1227
58.7254
56.9755
55.4031
53.9114
52.6825
51.655
50.9089
50.385
49.9968
49.7091
49.4051
49.1806
48.8613
48.6456
48.2852
48.1317
47.8255
47.8691
47.7703
48.1193
48.5014
49.2334
50.7097
51.9684
50.6303
47.305
65.1247
73.0333
67.3764
57.2633
49.408
45.1242
43.4393
43.078
43.2082
43.4754
43.7903
44.1178
44.4616
44.8109
45.1813
45.5626
45.976
46.4057
46.8818
47.3785
47.9414
48.5265
49.2035
49.899
50.7223
51.549
52.5552
53.5313
54.7644
55.9114
57.4432
58.8134
60.7861
62.4603
65.0118
67.0997
70.7488
74.0951
79.9543
84.9915
93.3126
99.2406
108.503
110.952
115.857
114.46
129.275
139.656
167.126
182.635
206.281
345.372
382.081
266.209
173.225
132.556
108.666
99.8002
91.177
87.4032
80.8246
77.4402
72.3954
70.4016
67.4313
66.8793
65.1607
64.8134
63.6033
63.192
62.1473
61.4423
60.0982
58.7067
56.9628
55.3966
53.91
52.6858
51.6612
50.9158
50.3901
49.9992
49.7085
49.402
49.1751
48.8537
48.6357
48.2735
48.1169
47.8084
47.846
47.743
48.0799
48.4529
49.1639
50.6151
51.8452
50.5003
47.2491
64.9826
72.8686
67.255
57.206
49.4036
45.148
43.4713
43.1094
43.2369
43.5015
43.8143
44.14
44.4824
44.8307
45.2003
45.581
45.994
46.4234
46.8995
47.3961
47.9592
48.5443
49.2216
49.9171
50.7408
51.5675
52.5744
53.5506
54.7847
55.9322
57.4658
58.837
60.8121
62.4875
65.0434
67.1355
70.7903
74.1348
79.9912
85.0168
93.3259
99.232
108.478
110.932
115.887
114.544
129.33
139.642
166.9
182.264
204.905
340.077
373.591
260.791
170.666
131.613
108.318
99.6492
91.0681
87.3105
80.7617
77.401
72.3688
70.384
67.417
66.8652
65.1438
64.7926
63.5822
63.1708
62.1229
61.4162
60.0734
58.6875
56.9497
55.3895
53.9077
52.6882
51.6665
50.922
50.3947
50.0011
49.7074
49.3984
49.1691
48.8457
48.6252
48.2612
48.1014
47.7906
47.8223
47.715
48.0398
48.4036
49.0937
50.5198
51.7216
50.3706
47.1931
64.8399
72.7028
67.1327
57.1481
49.399
45.1717
43.5033
43.1409
43.2657
43.5276
43.8382
44.1621
44.5032
44.8504
45.2192
45.5993
46.0119
46.441
46.917
47.4135
47.9767
48.5618
49.2393
49.9348
50.759
51.5857
52.5931
53.5694
54.8046
55.9525
57.4879
58.86
60.8374
62.514
65.0741
67.1702
70.8307
74.1733
80.0267
85.0405
93.3376
99.2218
108.451
110.911
115.916
114.626
129.383
139.628
166.677
181.898
203.561
334.952
365.196
255.397
168.139
130.69
107.976
99.5015
90.9619
87.2198
80.6998
77.3624
72.3424
70.3667
67.4027
66.8511
65.1269
64.772
63.5611
63.1496
62.0984
61.39
60.0483
58.668
56.9361
55.3818
53.9047
52.6897
51.6711
50.9274
50.3986
50.0024
49.7059
49.3943
49.1626
48.8372
48.6143
48.2484
48.0853
47.7721
47.7978
47.6862
47.9991
48.3534
49.0229
50.4239
51.5978
50.2413
47.137
64.6964
72.5359
67.0093
57.0897
49.3941
45.1954
43.5353
43.1723
43.2944
43.5538
43.862
44.1842
44.5239
44.87
45.238
45.6174
46.0297
46.4584
46.9344
47.4307
47.994
48.579
49.2568
49.9523
50.7769
51.6035
52.6115
53.5879
54.824
55.9724
57.5094
58.8825
60.862
62.5399
65.1041
67.2041
70.8699
74.2105
80.0608
85.0628
93.348
99.2105
108.424
110.89
115.944
114.708
129.435
139.613
166.457
181.537
202.247
329.998
356.919
250.04
165.649
129.787
107.642
99.3575
90.8587
87.1314
80.6392
77.3247
72.3165
70.3497
67.3888
66.8373
65.1103
64.7516
63.5401
63.1284
62.0738
61.3639
60.0232
58.6484
56.9222
55.3738
53.9011
52.6906
51.6749
50.9323
50.4021
50.0034
49.7039
49.3899
49.1558
48.8283
48.6029
48.2351
48.0688
47.7532
47.7728
47.6567
47.9576
48.3025
48.9515
50.3273
51.4738
50.1122
47.0808
64.5522
72.3679
66.8851
57.0308
49.3891
45.219
43.5672
43.2038
43.3232
43.5799
43.8859
44.2062
44.5445
44.8895
45.2567
45.6354
46.0473
46.4757
46.9515
47.4477
48.0111
48.5961
49.2741
49.9696
50.7945
51.6211
52.6296
53.606
54.8431
55.9918
57.5305
58.9045
60.8861
62.5651
65.1334
67.2373
70.9083
74.2468
80.0939
85.084
93.3572
99.1984
108.396
110.868
115.973
114.789
129.487
139.599
166.239
181.181
200.963
325.215
348.78
244.733
163.203
128.905
107.316
99.2173
90.7587
87.0455
80.5801
77.288
72.2914
70.3333
67.3754
66.8239
65.094
64.7317
63.5194
63.1074
62.0494
61.3378
59.9982
58.6287
56.9082
55.3656
53.8971
52.6909
51.6782
50.9366
50.4051
50.0039
49.7017
49.3852
49.1486
48.819
48.5912
48.2214
48.0517
47.7337
47.7473
47.6267
47.9156
48.2509
48.8796
50.2303
51.3496
49.9835
47.0245
64.4074
72.1988
66.76
56.9715
49.3838
45.2425
43.5992
43.2353
43.352
43.606
43.9097
44.2282
44.5651
44.909
45.2753
45.6534
46.0648
46.4928
46.9686
47.4646
48.0281
48.613
49.2912
49.9866
50.8118
51.6384
52.6474
53.6238
54.8619
56.011
57.5512
58.926
60.9098
62.5899
65.1622
67.2698
70.946
74.2823
80.1261
85.1043
93.3655
99.1855
108.368
110.847
116.001
114.87
129.538
139.586
166.025
180.83
199.708
320.601
340.798
239.491
160.807
128.046
106.999
99.081
90.6621
86.9624
80.5228
77.2526
72.2671
70.3176
67.3626
66.811
65.0782
64.7123
63.4991
63.0868
62.0253
61.312
59.9733
58.609
56.8942
55.3572
53.8927
52.6907
51.681
50.9405
50.4077
50.0041
49.6991
49.3802
49.1412
48.8094
48.5791
48.2074
48.0343
47.7138
47.7212
47.5961
47.8731
48.1987
48.8073
50.1328
51.2255
49.8553
46.9681
64.2619
72.0288
66.6341
56.9118
49.3784
45.2659
43.6311
43.2667
43.3807
43.6321
43.9336
44.2502
44.5856
44.9284
45.2939
45.6712
46.0822
46.5099
46.9855
47.4814
48.0449
48.6297
49.3081
50.0035
50.829
51.6555
52.665
53.6414
54.8804
56.0298
57.5716
58.9473
60.9332
62.6144
65.1906
67.3019
70.983
74.3171
80.1576
85.124
93.3732
99.1724
108.34
110.826
116.029
114.95
129.59
139.574
165.813
180.484
198.482
316.154
332.993
234.325
158.465
127.211
106.69
98.9489
90.5691
86.8823
80.4675
77.2186
72.2439
70.3029
67.3506
66.7988
65.0631
64.6935
63.4794
63.0665
62.0015
61.2865
59.9487
58.5896
56.8803
55.3487
53.888
52.6901
51.6834
50.9441
50.41
50.0041
49.6964
49.375
49.1335
48.7997
48.5667
48.193
48.0166
47.6935
47.6948
47.565
47.8301
48.146
48.7346
50.0351
51.1013
49.7275
46.9116
64.1159
71.8578
66.5075
56.8516
49.3728
45.2893
43.6631
43.2982
43.4095
43.6582
43.9574
44.2721
44.6061
44.9477
45.3123
45.689
46.0995
46.5268
47.0023
47.498
48.0616
48.6463
49.3249
50.0202
50.846
51.6724
52.6824
53.6588
54.8987
56.0485
57.5918
58.9684
60.9562
62.6386
65.2187
67.3336
71.0196
74.3514
80.1885
85.1431
93.3804
99.159
108.312
110.805
116.058
115.031
129.641
139.562
165.605
180.144
197.283
311.871
325.38
229.249
156.182
126.399
106.39
98.8209
90.4797
86.8053
80.4143
77.1863
72.2219
70.2893
67.3396
66.7873
65.0487
64.6755
63.4602
63.0467
61.9782
61.2615
59.9245
58.5704
56.8665
55.3403
53.8832
52.6893
51.6855
50.9473
50.4121
50.0039
49.6935
49.3697
49.1257
48.7897
48.5542
48.1785
47.9986
47.6729
47.6679
47.5335
47.7867
48.0928
48.6616
49.9371
50.9773
49.6003
46.8549
63.9692
71.6858
66.3801
56.7911
49.367
45.3126
43.695
43.3297
43.4383
43.6843
43.9811
44.294
44.6266
44.967
45.3308
45.7067
46.1167
46.5436
47.019
47.5145
48.0782
48.6627
49.3416
50.0367
50.8629
51.6892
52.6997
53.6761
54.9168
56.067
57.6119
58.9892
60.9791
62.6626
65.2466
67.3651
71.0559
74.3854
80.2191
85.162
93.3874
99.1457
108.284
110.786
116.087
115.111
129.694
139.552
165.401
179.81
196.112
307.747
317.975
224.274
153.962
125.611
106.098
98.697
90.3941
86.7316
80.3635
77.1557
72.2014
70.2769
67.3297
66.7767
65.0351
64.6584
63.4418
63.0276
61.9554
61.237
59.9007
58.5516
56.853
55.3321
53.8784
52.6883
51.6874
50.9504
50.414
50.0036
49.6904
49.3643
49.1178
48.7796
48.5415
48.1637
47.9803
47.652
47.6408
47.5017
47.7431
48.0392
48.5885
49.8389
50.8535
49.4737
46.7982
63.8219
71.513
66.2519
56.7302
49.3611
45.3358
43.7269
43.3613
43.4671
43.7104
44.0049
44.3159
44.647
44.9862
45.3491
45.7243
46.1339
46.5604
47.0356
47.531
48.0947
48.6791
49.3581
50.0532
50.8797
51.7059
52.7168
53.6933
54.9349
56.0854
57.6318
59.01
61.0019
62.6865
65.2744
67.3964
71.092
74.4192
80.2495
85.1807
93.3943
99.1327
108.257
110.767
116.116
115.192
129.746
139.544
165.199
179.48
194.967
303.778
310.789
219.411
151.807
124.848
105.815
98.5773
90.3122
86.6612
80.315
77.1269
72.1823
70.2658
67.3209
66.7671
65.0225
64.6421
63.4241
63.0091
61.9332
61.2131
59.8775
58.5332
56.8398
55.3241
53.8737
52.6873
51.6892
50.9534
50.4158
50.0032
49.6874
49.3588
49.1098
48.7694
48.5286
48.1488
47.9619
47.6308
47.6135
47.4695
47.6991
47.9853
48.5151
49.7407
50.73
49.3477
46.7414
63.6741
71.3394
66.1232
56.669
49.3551
45.359
43.7588
43.3928
43.4959
43.7365
44.0287
44.3378
44.6674
45.0054
45.3674
45.7419
46.151
46.5771
47.0522
47.5473
48.1111
48.6954
49.3746
50.0696
50.8964
51.7225
52.7339
53.7104
54.9529
56.1037
57.6517
59.0307
61.0246
62.7104
65.3021
67.4277
71.1279
74.453
80.2798
85.1995
93.4013
99.1202
108.231
110.749
116.147
115.273
129.8
139.538
165.001
179.156
193.847
299.957
303.835
214.668
149.721
124.109
105.541
98.4618
90.2341
86.5943
80.2692
77.1002
72.1649
70.2562
67.3133
66.7585
65.0108
64.6269
63.4073
62.9913
61.9118
61.1899
59.855
58.5153
56.827
55.3164
53.8691
52.6863
51.6909
50.9562
50.4176
50.0028
49.6843
49.3533
49.1018
48.7591
48.5157
48.1338
47.9434
47.6096
47.5859
47.4371
47.655
47.9312
48.4418
49.6425
50.6069
49.2225
46.6845
63.5258
71.1649
65.9937
56.6075
49.3489
45.3821
43.7907
43.4243
43.5247
43.7626
44.0525
44.3597
44.6877
45.0246
45.3857
45.7594
46.168