/*--------------------------------*- C++ -*----------------------------------*\
| =========                 |                                                 |
| \\      /  F ield         | OpenFOAM: The Open Source CFD Toolbox           |
|  \\    /   O peration     | Version:  2412                                  |
|   \\  /    A nd           | Website:  www.openfoam.com                      |
|    \\/     M anipulation  |                                                 |
\*---------------------------------------------------------------------------*/
FoamFile
{
    version     2.0;
    format      ascii;
    arch        "LSB;label=32;scalar=64";
    class       volScalarField;
    location    "0.2";
    object      nut;
}
// * * * * * * * * * * * * * * * * * * * * * * * * * * * * * * * * * * * * * //

dimensions      [0 2 -1 0 0 0 0];

internalField   nonuniform List<scalar> 
13079
(
0.34397
0.357636
0.341427
0.300159
0.265253
0.257895
0.279325
0.309872
0.330287
0.339364
0.342648
0.343848
0.344389
0.344779
0.345128
0.345507
0.345894
0.346331
0.346778
0.347297
0.347826
0.348454
0.349074
0.349824
0.35054
0.351437
0.352246
0.353318
0.3542
0.355471
0.356408
0.357971
0.359023
0.361093
0.36225
0.364725
0.365871
0.369629
0.372108
0.377721
0.380658
0.387491
0.389812
0.395658
0.391691
0.392797
0.387999
0.40455
0.409085
0.427591
0.431307
0.44521
0.458081
0.436292
0.339457
0.269921
0.289939
0.331419
0.36271
0.366104
0.368698
0.362411
0.363055
0.358774
0.36036
0.358232
0.360227
0.358522
0.359669
0.35816
0.358503
0.357371
0.356931
0.354789
0.352895
0.350715
0.349278
0.34412
0.357808
0.341646
0.300465
0.265659
0.258367
0.279717
0.310078
0.330368
0.339398
0.342672
0.34387
0.344412
0.344803
0.345153
0.345533
0.345921
0.346359
0.346807
0.347328
0.347858
0.348487
0.349109
0.349861
0.350579
0.351479
0.352289
0.353364
0.354249
0.355524
0.356465
0.358034
0.35909
0.361166
0.362329
0.364815
0.365978
0.36975
0.372235
0.377856
0.380795
0.387629
0.389932
0.395785
0.391847
0.393025
0.388282
0.404719
0.409203
0.427552
0.431255
0.44458
0.455874
0.43364
0.337663
0.268821
0.289699
0.331737
0.362968
0.366311
0.368871
0.3626
0.363237
0.358973
0.360538
0.358398
0.360367
0.358647
0.359767
0.358251
0.358581
0.357438
0.35699
0.354857
0.352975
0.350801
0.349373
0.34427
0.35798
0.341865
0.300773
0.266069
0.258841
0.280108
0.310283
0.330447
0.339433
0.342696
0.343893
0.344435
0.344827
0.345177
0.345559
0.345948
0.346387
0.346837
0.347359
0.34789
0.348521
0.349144
0.349898
0.350617
0.351519
0.352332
0.35341
0.354297
0.355576
0.356521
0.358095
0.359156
0.361237
0.362405
0.364903
0.366082
0.369866
0.372356
0.377982
0.380921
0.387752
0.390037
0.395891
0.391982
0.39323
0.388545
0.404875
0.409309
0.427504
0.431191
0.443951
0.453697
0.430957
0.335819
0.267718
0.28949
0.332059
0.363212
0.366491
0.369019
0.362764
0.363395
0.359144
0.36069
0.358538
0.360485
0.358752
0.359849
0.358327
0.358646
0.357494
0.357039
0.354915
0.353045
0.350879
0.349459
0.344419
0.358151
0.342084
0.301082
0.266481
0.259318
0.2805
0.310488
0.330527
0.339467
0.34272
0.343915
0.344458
0.344851
0.345202
0.345585
0.345974
0.346415
0.346866
0.347389
0.347921
0.348554
0.349178
0.349934
0.350654
0.351559
0.352374
0.353455
0.354344
0.355627
0.356575
0.358155
0.35922
0.361307
0.362479
0.364988
0.366182
0.369977
0.37247
0.3781
0.381037
0.387862
0.390127
0.395979
0.392099
0.393414
0.388791
0.405018
0.409406
0.427447
0.431116
0.443326
0.451555
0.428242
0.333928
0.266619
0.289323
0.332398
0.363446
0.366649
0.369146
0.362907
0.363531
0.359292
0.360821
0.358657
0.360584
0.358839
0.359916
0.358391
0.358702
0.357541
0.357081
0.354966
0.353108
0.350949
0.349537
0.344567
0.358322
0.342302
0.301391
0.266895
0.259798
0.280895
0.310695
0.330608
0.339502
0.342743
0.343937
0.344481
0.344874
0.345226
0.34561
0.346001
0.346442
0.346894
0.347419
0.347952
0.348586
0.349212
0.34997
0.350691
0.351599
0.352415
0.353498
0.354389
0.355676
0.356628
0.358213
0.359283
0.361374
0.362551
0.36507
0.366277
0.370083
0.372579
0.378209
0.381144
0.387961
0.390205
0.396051
0.392199
0.393581
0.389022
0.40515
0.409492
0.427382
0.431031
0.442707
0.449454
0.425497
0.331993
0.265532
0.28921
0.332758
0.363675
0.36679
0.369256
0.363034
0.363651
0.359422
0.360933
0.358759
0.360668
0.358912
0.359971
0.358446
0.358749
0.357581
0.357115
0.355009
0.353164
0.351012
0.349608
0.348351
0.347654
0.34729
0.347318
0.347513
0.347574
0.34761
0.347374
0.347342
0.346912
0.346894
0.346332
0.346628
0.346195
0.347151
0.347114
0.348881
0.34994
0.35222
0.356267
0.35741
0.350888
0.344715
0.358492
0.342518
0.301699
0.267312
0.260282
0.281294
0.310904
0.330689
0.339537
0.342767
0.343959
0.344503
0.344898
0.34525
0.345635
0.346026
0.346469
0.346922
0.347449
0.347983
0.348618
0.349245
0.350005
0.350728
0.351637
0.352455
0.353541
0.354434
0.355724
0.356679
0.35827
0.359343
0.361439
0.36262
0.365149
0.36637
0.370185
0.372681
0.378312
0.381242
0.38805
0.390273
0.39611
0.392285
0.393733
0.38924
0.405272
0.40957
0.427309
0.430936
0.442094
0.447401
0.422722
0.330017
0.264464
0.289159
0.333146
0.363902
0.366916
0.369352
0.363147
0.363757
0.359536
0.361031
0.358846
0.360739
0.358973
0.360016
0.358491
0.358788
0.357613
0.357144
0.355047
0.353214
0.351069
0.349673
0.348421
0.34772
0.347346
0.347363
0.347548
0.3476
0.347631
0.347392
0.347356
0.346923
0.346902
0.346339
0.346629
0.346194
0.347136
0.347098
0.348834
0.349891
0.352121
0.35614
0.35725
0.350727
0.344862
0.358662
0.342732
0.302007
0.26773
0.260769
0.281695
0.311115
0.330772
0.339572
0.34279
0.343981
0.344525
0.344921
0.345274
0.345659
0.346052
0.346496
0.34695
0.347478
0.348013
0.34865
0.349277
0.350039
0.350763
0.351675
0.352494
0.353582
0.354477
0.355771
0.356729
0.358324
0.359401
0.361502
0.362687
0.365225
0.366459
0.370283
0.372779
0.378408
0.381332
0.388129
0.39033
0.396158
0.392359
0.393873
0.389445
0.405385
0.40964
0.427229
0.430834
0.441492
0.445404
0.41992
0.328004
0.26342
0.289179
0.333567
0.364131
0.367031
0.369437
0.363249
0.363851
0.359637
0.361117
0.358922
0.3608
0.359024
0.360053
0.35853
0.358821
0.35764
0.357167
0.35508
0.353259
0.351121
0.349733
0.348487
0.347781
0.347398
0.347403
0.347579
0.347623
0.347649
0.347406
0.347368
0.346933
0.346909
0.346343
0.346628
0.346191
0.34712
0.34708
0.348786
0.349842
0.352022
0.356011
0.357089
0.350563
0.345007
0.358831
0.342944
0.302314
0.268151
0.26126
0.282101
0.311329
0.330855
0.339607
0.342814
0.344002
0.344547
0.344943
0.345297
0.345683
0.346077
0.346522
0.346977
0.347506
0.348042
0.34868
0.349308
0.350072
0.350797
0.351711
0.352531
0.353623
0.354519
0.355817
0.356777
0.358377
0.359458
0.361563
0.362751
0.365299
0.366544
0.370377
0.372872
0.378498
0.381416
0.3882
0.390379
0.396196
0.392423
0.394001
0.389639
0.405489
0.409701
0.427144
0.430724
0.4409
0.443471
0.417094
0.325957
0.262408
0.289278
0.334025
0.364363
0.367136
0.369512
0.363342
0.363936
0.359728
0.361192
0.358987
0.360852
0.359067
0.360082
0.358562
0.358849
0.357661
0.357185
0.355108
0.3533
0.351167
0.349788
0.348548
0.347838
0.347446
0.34744
0.347606
0.347643
0.347665
0.347418
0.347378
0.346941
0.346914
0.346347
0.346626
0.346188
0.347103
0.347062
0.348738
0.349792
0.351922
0.35588
0.356927
0.350398
0.345153
0.358999
0.343155
0.302621
0.268573
0.261754
0.282509
0.311545
0.33094
0.339643
0.342837
0.344023
0.344568
0.344965
0.34532
0.345707
0.346101
0.346548
0.347004
0.347534
0.348071
0.34871
0.349339
0.350104
0.350831
0.351747
0.352568
0.353662
0.35456
0.355861
0.356823
0.358428
0.359512
0.361621
0.362813
0.36537
0.366627
0.370467
0.37296
0.378583
0.381493
0.388264
0.39042
0.396225
0.392477
0.394119
0.389823
0.405586
0.409756
0.427054
0.430607
0.440321
0.441609
0.414247
0.323881
0.261434
0.289462
0.334522
0.364601
0.367235
0.369579
0.363428
0.364013
0.359809
0.361259
0.359044
0.360897
0.359102
0.360106
0.358589
0.358873
0.357678
0.3572
0.355132
0.353336
0.35121
0.349838
0.348606
0.347892
0.34749
0.347474
0.347631
0.34766
0.347677
0.347428
0.347386
0.346947
0.346917
0.346349
0.346623
0.346184
0.347085
0.347042
0.348688
0.34974
0.351821
0.355749
0.356764
0.350231
0.345298
0.359167
0.343365
0.302927
0.268998
0.262252
0.282921
0.311763
0.331026
0.339679
0.34286
0.344044
0.34459
0.344987
0.345342
0.34573
0.346125
0.346573
0.34703
0.347561
0.348099
0.348739
0.349369
0.350136
0.350863
0.351781
0.352604
0.3537
0.354599
0.355903
0.356868
0.358478
0.359564
0.361678
0.362873
0.365438
0.366706
0.370553
0.373044
0.378663
0.381564
0.388321
0.390454
0.396246
0.392524
0.394229
0.389997
0.405676
0.409803
0.426959
0.430485
0.439756
0.439827
0.411385
0.321782
0.260505
0.289739
0.335062
0.364846
0.367328
0.369641
0.363507
0.364084
0.359882
0.361319
0.359094
0.360935
0.359131
0.360124
0.358612
0.358892
0.357691
0.357211
0.355152
0.353368
0.351249
0.349884
0.34866
0.347942
0.347532
0.347505
0.347652
0.347675
0.347688
0.347436
0.347392
0.346951
0.346919
0.346349
0.346618
0.346178
0.347066
0.347021
0.348638
0.349687
0.351719
0.355615
0.356599
0.350063
0.345442
0.359334
0.343573
0.303232
0.269424
0.262754
0.283336
0.311984
0.331113
0.339715
0.342883
0.344065
0.34461
0.345009
0.345365
0.345753
0.346148
0.346597
0.347055
0.347587
0.348126
0.348768
0.349399
0.350167
0.350895
0.351815
0.352638
0.353736
0.354637
0.355945
0.356912
0.358526
0.359615
0.361733
0.36293
0.365504
0.366782
0.370636
0.373123
0.378738
0.381629
0.388373
0.390482
0.396262
0.392563
0.394331
0.390163
0.40576
0.409844
0.426861
0.430358
0.439206
0.438132
0.408511
0.319664
0.259628
0.290115
0.335647
0.365099
0.367418
0.369697
0.363582
0.36415
0.359949
0.361373
0.359139
0.360968
0.359155
0.360138
0.358631
0.358907
0.357701
0.357218
0.355169
0.353397
0.351284
0.349927
0.34871
0.34799
0.34757
0.347534
0.347672
0.347688
0.347697
0.347442
0.347397
0.346954
0.34692
0.346349
0.346613
0.346171
0.347046
0.346999
0.348586
0.349632
0.351616
0.35548
0.356433
0.349894
0.345585
0.3595
0.343779
0.303538
0.269853
0.263259
0.283755
0.312206
0.331201
0.339752
0.342906
0.344085
0.344631
0.34503
0.345386
0.345775
0.346171
0.346621
0.34708
0.347613
0.348153
0.348796
0.349427
0.350197
0.350926
0.351847
0.352672
0.353772
0.354673
0.355984
0.356953
0.358572
0.359664
0.361785
0.362986
0.365568
0.366855
0.370715
0.373198
0.378808
0.38169
0.388419
0.390504
0.396271
0.392596
0.394427
0.390321
0.405838
0.40988
0.426759
0.430227
0.438672
0.436534
0.405632
0.317533
0.258811
0.290595
0.336277
0.36536
0.367504
0.369748
0.363653
0.364211
0.36001
0.361421
0.359178
0.360997
0.359174
0.360148
0.358646
0.358919
0.357707
0.357222
0.355182
0.353423
0.351316
0.349967
0.348757
0.348035
0.347607
0.347561
0.347689
0.347698
0.347704
0.347447
0.347401
0.346956
0.346919
0.346347
0.346606
0.346163
0.347024
0.346976
0.348533
0.349575
0.351512
0.355343
0.356266
0.349725
0.345728
0.359665
0.343984
0.303843
0.270284
0.263768
0.284177
0.312431
0.33129
0.339789
0.342929
0.344106
0.344651
0.345051
0.345407
0.345797
0.346194
0.346645
0.347104
0.347639
0.348179
0.348823
0.349455
0.350226
0.350955
0.351879
0.352704
0.353806
0.354709
0.356023
0.356993
0.358616
0.35971
0.361836
0.363038
0.365629
0.366925
0.370791
0.37327
0.378875
0.381745
0.38846
0.390521
0.396275
0.392624
0.394517
0.390472
0.40591
0.409909
0.426655
0.430092
0.438155
0.435041
0.402755
0.315396
0.258059
0.291185
0.336953
0.365631
0.367588
0.369797
0.363721
0.364269
0.360067
0.361466
0.359213
0.361022
0.359189
0.360155
0.358658
0.358929
0.35771
0.357224
0.355193
0.353445
0.351345
0.350003
0.348802
0.348077
0.347641
0.347585
0.347705
0.347708
0.34771
0.347451
0.347403
0.346956
0.346917
0.346344
0.346598
0.346154
0.347001
0.346952
0.348479
0.349518
0.351407
0.355205
0.356098
0.349555
0.345871
0.35983
0.344188
0.304149
0.270717
0.26428
0.284601
0.312658
0.331379
0.339826
0.342952
0.344126
0.344671
0.345071
0.345428
0.345819
0.346216
0.346668
0.347128
0.347663
0.348204
0.348849
0.349482
0.350254
0.350984
0.351909
0.352735
0.353839
0.354743
0.35606
0.357032
0.358659
0.359755
0.361884
0.363089
0.365687
0.366992
0.370864
0.373337
0.378937
0.381796
0.388496
0.390534
0.396275
0.392648
0.394602
0.390615
0.405977
0.409934
0.426549
0.429955
0.437655
0.433659
0.399888
0.313259
0.257383
0.291889
0.337677
0.365911
0.367672
0.369843
0.363785
0.364324
0.360119
0.361506
0.359244
0.361043
0.359201
0.360158
0.358667
0.358936
0.357711
0.357223
0.355201
0.353465
0.351371
0.350036
0.348843
0.348116
0.347673
0.347608
0.347719
0.347715
0.347714
0.347453
0.347403
0.346956
0.346914
0.34634
0.346589
0.346143
0.346978
0.346926
0.348424
0.349458
0.351302
0.355065
0.355929
0.349385
0.346013
0.359995
0.344391
0.304455
0.271153
0.264796
0.285029
0.312886
0.33147
0.339863
0.342974
0.344145
0.344691
0.345091
0.345449
0.34584
0.346238
0.34669
0.347151
0.347687
0.348228
0.348874
0.349508
0.350281
0.351012
0.351939
0.352765
0.353871
0.354775
0.356095
0.357069
0.3587
0.359798
0.361931
0.363137
0.365743
0.367056
0.370933
0.373401
0.378995
0.381842
0.388528
0.390542
0.396271
0.392667
0.394682
0.390753
0.40604
0.409953
0.42644
0.429814
0.437173
0.432397
0.397038
0.311131
0.256788
0.292711
0.338447
0.366201
0.367754
0.369887
0.363848
0.364376
0.360167
0.361543
0.359272
0.361062
0.35921
0.36016
0.358674
0.35894
0.357709
0.35722
0.355207
0.353483
0.351395
0.350067
0.348882
0.348154
0.347704
0.34763
0.347732
0.347722
0.347717
0.347454
0.347403
0.346954
0.34691
0.346335
0.346578
0.346132
0.346953
0.346899
0.348368
0.349398
0.351195
0.354924
0.355759
0.349215
0.346155
0.360158
0.344593
0.30476
0.271591
0.265315
0.28546
0.313117
0.331562
0.3399
0.342997
0.344165
0.34471
0.345111
0.345469
0.34586
0.346259
0.346712
0.347173
0.347711
0.348252
0.348899
0.349533
0.350308
0.351039
0.351967
0.352794
0.353902
0.354807
0.356129
0.357104
0.358739
0.359839
0.361975
0.363183
0.365797
0.367117
0.371
0.373461
0.37905
0.381885
0.388556
0.390546
0.396264
0.392682
0.394758
0.390883
0.406098
0.409968
0.426331
0.429673
0.436709
0.431262
0.394214
0.30902
0.256285
0.293655
0.339262
0.366501
0.367837
0.369929
0.363909
0.364426
0.360213
0.361578
0.359297
0.361078
0.359216
0.360158
0.358678
0.358943
0.357705
0.357214
0.35521
0.353498
0.351416
0.350095
0.348918
0.348189
0.347733
0.34765
0.347744
0.347727
0.347719
0.347453
0.347402
0.346951
0.346905
0.346329
0.346567
0.346119
0.346926
0.34687
0.348311
0.349335
0.351087
0.354781
0.355588
0.349046
0.346296
0.360322
0.344794
0.305067
0.272031
0.265838
0.285894
0.31335
0.331654
0.339938
0.343019
0.344184
0.344729
0.34513
0.345489
0.345881
0.346279
0.346733
0.347195
0.347734
0.348276
0.348923
0.349557
0.350333
0.351065
0.351995
0.352822
0.353931
0.354837
0.356162
0.357138
0.358777
0.359878
0.362018
0.363227
0.365849
0.367175
0.371063
0.373518
0.379101
0.381923
0.38858
0.390547
0.396254
0.392694
0.394831
0.391009
0.406152
0.409979
0.42622
0.429529
0.436261
0.430259
0.391428
0.306933
0.25588
0.294722
0.340122
0.366809
0.367921
0.36997
0.363968
0.364474
0.360255
0.36161
0.35932
0.361092
0.359219
0.360155
0.358681
0.358943
0.357699
0.357207
0.355211
0.35351
0.351435
0.35012
0.348951
0.348222
0.34776
0.347669
0.347754
0.347731
0.347719
0.347452
0.347399
0.346947
0.346899
0.346321
0.346554
0.346105
0.346899
0.346841
0.348253
0.349271
0.350978
0.354637
0.355416
0.348876
0.346437
0.360484
0.344994
0.305374
0.272474
0.266364
0.28633
0.313584
0.331747
0.339976
0.343042
0.344203
0.344747
0.345149
0.345508
0.3459
0.346299
0.346754
0.347217
0.347756
0.348298
0.348947
0.349581
0.350358
0.35109
0.352021
0.352848
0.35396
0.354865
0.356193
0.357171
0.358813
0.359916
0.362059
0.363269
0.365898
0.367231
0.371123
0.373571
0.379149
0.381958
0.388601
0.390544
0.396241
0.392703
0.3949
0.391129
0.406203
0.409986
0.426108
0.429385
0.435831
0.429394
0.388689
0.304881
0.255584
0.295915
0.341025
0.367126
0.368005
0.37001
0.364026
0.364521
0.360295
0.36164
0.35934
0.361104
0.359221
0.36015
0.358681
0.358942
0.357691
0.357198
0.355209
0.353521
0.351451
0.350143
0.348981
0.348253
0.347785
0.347686
0.347763
0.347735
0.347719
0.34745
0.347396
0.346942
0.346891
0.346313
0.346541
0.34609
0.346871
0.34681
0.348193
0.349206
0.350869
0.354491
0.355243
0.348707
0.346577
0.360646
0.345193
0.305681
0.27292
0.266894
0.28677
0.31382
0.331841
0.340014
0.343064
0.344222
0.344766
0.345168
0.345527
0.34592
0.346319
0.346775
0.347238
0.347777
0.34832
0.34897
0.349604
0.350382
0.351114
0.352046
0.352874
0.353987
0.354893
0.356223
0.357202
0.358847
0.359951
0.362098
0.363309
0.365945
0.367284
0.371181
0.373622
0.379193
0.381989
0.388619
0.390539
0.396226
0.392709
0.394967
0.391243
0.40625
0.409989
0.425997
0.42924
0.435418
0.428672
0.386008
0.302872
0.255405
0.297235
0.341968
0.367451
0.36809
0.37005
0.364083
0.364567
0.360333
0.361669
0.359359
0.361114
0.359221
0.360144
0.35868
0.358939
0.357681
0.357187
0.355206
0.353529
0.351466
0.350164
0.349009
0.348282
0.34781
0.347703
0.347772
0.347737
0.347718
0.347447
0.347391
0.346937
0.346883
0.346304
0.346526
0.346074
0.346841
0.346778
0.348133
0.349138
0.350758
0.354344
0.355069
0.348538
0.346717
0.360808
0.345392
0.305989
0.273368
0.267427
0.287212
0.314057
0.331936
0.340052
0.343086
0.34424
0.344784
0.345186
0.345546
0.345939
0.346338
0.346794
0.347258
0.347799
0.348342
0.348992
0.349626
0.350405
0.351138
0.352071
0.352899
0.354013
0.354919
0.356252
0.357231
0.35888
0.359985
0.362135
0.363347
0.36599
0.367335
0.371236
0.373669
0.379235
0.382017
0.388634
0.39053
0.396209
0.392714
0.395031
0.391354
0.406294
0.40999
0.425885
0.429096
0.43502
0.428095
0.383398
0.300917
0.255353
0.298682
0.342949
0.367783
0.368177
0.370089
0.364139
0.364611
0.360369
0.361696
0.359377
0.361123
0.359219
0.360136
0.358678
0.358934
0.357669
0.357174
0.355202
0.353536
0.351479
0.350183
0.349035
0.348309
0.347832
0.347718
0.347779
0.347738
0.347716
0.347443
0.347386
0.34693
0.346874
0.346293
0.34651
0.346057
0.346811
0.346744
0.348071
0.34907
0.350646
0.354195
0.354894
0.34837
0.346856
0.360969
0.34559
0.306298
0.273819
0.267964
0.287656
0.314297
0.332032
0.34009
0.343108
0.344258
0.344802
0.345204
0.345564
0.345957
0.346357
0.346814
0.347278
0.347819
0.348362
0.349013
0.349648
0.350428
0.35116
0.352095
0.352922
0.354038
0.354944
0.35628
0.357259
0.358912
0.360018
0.362171
0.363383
0.366033
0.367383
0.371289
0.373713
0.379274
0.382042
0.388647
0.39052
0.396191
0.392716
0.395093
0.391459
0.406335
0.409987
0.425773
0.428951
0.434638
0.427666
0.380871
0.299027
0.255435
0.300254
0.343965
0.368121
0.368265
0.370128
0.364193
0.364655
0.360404
0.361721
0.359393
0.361131
0.359216
0.360127
0.358674
0.358929
0.357656
0.357161
0.355195
0.35354
0.35149
0.3502
0.349058
0.348334
0.347854
0.347733
0.347785
0.347739
0.347713
0.347438
0.347379
0.346922
0.346864
0.346282
0.346493
0.346039
0.346779
0.346709
0.348008
0.348999
0.350534
0.354044
0.354719
0.348203
0.346995
0.36113
0.345788
0.306608
0.274273
0.268504
0.288104
0.314537
0.332128
0.340129
0.34313
0.344276
0.344819
0.345222
0.345582
0.345976
0.346376
0.346833
0.347297
0.347839
0.348383
0.349034
0.349669
0.35045
0.351182
0.352118
0.352945
0.354062
0.354969
0.356306
0.357286
0.358942
0.360049
0.362205
0.363418
0.366075
0.367429
0.371339
0.373755
0.37931
0.382064
0.388657
0.390507
0.396171
0.392717
0.395153
0.391561
0.406373
0.409981
0.425661
0.428807
0.434269
0.427386
0.37844
0.297212
0.255661
0.30195
0.345012
0.368465
0.368354
0.370167
0.364248
0.364698
0.360437
0.361745
0.359408
0.361138
0.359211
0.360116
0.358668
0.358922
0.357641
0.357145
0.355187
0.353544
0.351499
0.350215
0.349079
0.348357
0.347873
0.347746
0.347791
0.347739
0.347709
0.347432
0.347372
0.346913
0.346852
0.346269
0.346475
0.346019
0.346746
0.346673
0.347944
0.348928
0.35042
0.353893
0.354543
0.348036
0.347133
0.36129
0.345985
0.306919
0.27473
0.269047
0.288553
0.31478
0.332225
0.340168
0.343152
0.344294
0.344836
0.345239
0.345599
0.345994
0.346394
0.346852
0.347316
0.347859
0.348402
0.349054
0.349689
0.350471
0.351203
0.35214
0.352967
0.354085
0.354992
0.356332
0.357312
0.358971
0.360079
0.362238
0.36345
0.366114
0.367472
0.371386
0.373794
0.379344
0.382084
0.388665
0.390492
0.39615
0.392717
0.395212
0.39166
0.406409
0.409974
0.42555
0.428663
0.433913
0.427252
0.376118
0.295483
0.25604
0.303767
0.346086
0.368813
0.368444
0.370206
0.364301
0.36474
0.360468
0.361769
0.359422
0.361144
0.359206
0.360106
0.358662
0.358914
0.357626
0.357129
0.355178
0.353545
0.351507
0.350228
0.349098
0.348379
0.347892
0.347758
0.347796
0.347738
0.347705
0.347426
0.347364
0.346904
0.34684
0.346256
0.346456
0.345998
0.346712
0.346636
0.347879
0.348854
0.350305
0.35374
0.354367
0.34787
0.34727
0.361449
0.346182
0.307231
0.27519
0.269594
0.289005
0.315023
0.332323
0.340207
0.343174
0.344312
0.344853
0.345256
0.345617
0.346011
0.346412
0.34687
0.347335
0.347878
0.348422
0.349074
0.349709
0.350491
0.351224
0.352161
0.352988
0.354108
0.355014
0.356356
0.357337
0.358999
0.360107
0.362269
0.363482
0.366152
0.367514
0.371432
0.373831
0.379376
0.382101
0.388671
0.390476
0.396128
0.392716
0.395269
0.391755
0.406443
0.409964
0.425439
0.42852
0.433569
0.427263
0.373919
0.293852
0.25658
0.3057
0.347184
0.369165
0.368536
0.370245
0.364354
0.364782
0.360499
0.361792
0.359435
0.361149
0.3592
0.360094
0.358655
0.358905
0.357609
0.357112
0.355167
0.353546
0.351513
0.35024
0.349114
0.348398
0.34791
0.34777
0.3478
0.347736
0.347699
0.347419
0.347355
0.346894
0.346827
0.346242
0.346436
0.345977
0.346677
0.346597
0.347813
0.34878
0.35019
0.353586
0.35419
0.347704
0.347407
0.361608
0.346378
0.307544
0.275652
0.270144
0.28946
0.315268
0.332421
0.340246
0.343195
0.34433
0.34487
0.345273
0.345634
0.346028
0.346429
0.346888
0.347353
0.347897
0.34844
0.349094
0.349728
0.350511
0.351243
0.352182
0.353008
0.354129
0.355035
0.35638
0.357361
0.359026
0.360134
0.362299
0.363511
0.366188
0.367554
0.371476
0.373865
0.379406
0.382116
0.388675
0.390458
0.396106
0.392714
0.395324
0.391847
0.406474
0.409952
0.425329
0.428378
0.433235
0.427415
0.371856
0.29233
0.257288
0.307744
0.348301
0.369518
0.368629
0.370285
0.364406
0.364822
0.360528
0.361814
0.359447
0.361153
0.359193
0.360082
0.358647
0.358895
0.357591
0.357093
0.355156
0.353545
0.351518
0.35025
0.349129
0.348416
0.347926
0.347781
0.347803
0.347734
0.347693
0.347411
0.347346
0.346882
0.346813
0.346227
0.346416
0.345954
0.346641
0.346557
0.347746
0.348704
0.350074
0.353431
0.354012
0.34754
0.347543
0.361767
0.346575
0.307858
0.276118
0.270697
0.289916
0.315514
0.33252
0.340285
0.343217
0.344347
0.344887
0.34529
0.345651
0.346046
0.346446
0.346905
0.347371
0.347915
0.348459
0.349112
0.349747
0.350531
0.351263
0.352202
0.353028
0.35415
0.355056
0.356402
0.357383
0.359052
0.36016
0.362328
0.36354
0.366224
0.367592
0.371518
0.373898
0.379433
0.382129
0.388677
0.390439
0.396083
0.392711
0.395379
0.391936
0.406505
0.409939
0.42522
0.428238
0.432911
0.427703
0.369943
0.290929
0.258172
0.309892
0.349434
0.369872
0.368723
0.370324
0.364458
0.364863
0.360557
0.361835
0.359459
0.361156
0.359186
0.360069
0.358638
0.358884
0.357572
0.357074
0.355143
0.353543
0.351522
0.350259
0.349142
0.348433
0.347941
0.347791
0.347806
0.347731
0.347687
0.347403
0.347336
0.346871
0.346799
0.346211
0.346394
0.345931
0.346604
0.346516
0.347678
0.348626
0.349957
0.353275
0.353835
0.347377
0.347679
0.361925
0.346771
0.308174
0.276586
0.271253
0.290374
0.315762
0.332619
0.340325
0.343239
0.344364
0.344903
0.345306
0.345667
0.346062
0.346463
0.346923
0.347388
0.347933
0.348477
0.349131
0.349765
0.35055
0.351281
0.352221
0.353047
0.35417
0.355076
0.356424
0.357405
0.359077
0.360185
0.362355
0.363567
0.366257
0.367629
0.371558
0.373929
0.37946
0.38214
0.388679
0.390419
0.396059
0.392709
0.395433
0.392023
0.406533
0.409925
0.425111
0.428098
0.432594
0.428118
0.368193
0.289659
0.259238
0.312138
0.350576
0.370226
0.368818
0.370364
0.364509
0.364903
0.360584
0.361856
0.359471
0.361159
0.359178
0.360056
0.358628
0.358873
0.357553
0.357055
0.35513
0.35354
0.351525
0.350266
0.349153
0.348447
0.347955
0.3478
0.347808
0.347728
0.34768
0.347394
0.347325
0.346858
0.346783
0.346194
0.346371
0.345906
0.346566
0.346475
0.347609
0.348548
0.34984
0.353119
0.353657
0.347215
0.347813
0.362083
0.346967
0.308492
0.277057
0.271813
0.290835
0.31601
0.332719
0.340364
0.34326
0.344381
0.34492
0.345323
0.345684
0.346079
0.34648
0.34694
0.347405
0.34795
0.348494
0.349149
0.349783
0.350568
0.351299
0.35224
0.353066
0.35419
0.355095
0.356445
0.357426
0.359101
0.360209
0.362382
0.363594
0.36629
0.367664
0.371597
0.373958
0.379484
0.38215
0.388679
0.390398
0.396036
0.392706
0.395486
0.392108
0.406561
0.40991
0.425004
0.42796
0.432283
0.428653
0.366618
0.288532
0.260491
0.314471
0.351725
0.370579
0.368914
0.370403
0.364559
0.364942
0.360612
0.361876
0.359482
0.361162
0.35917
0.360043
0.358618
0.358861
0.357533
0.357034
0.355116
0.353537
0.351527
0.350273
0.349163
0.348461
0.347968
0.347808
0.34781
0.347724
0.347672
0.347384
0.347313
0.346845
0.346767
0.346176
0.346348
0.34588
0.346527
0.346432
0.34754
0.348468
0.349722
0.352961
0.353479
0.347055
0.347947
0.36224
0.347164
0.30881
0.277532
0.272375
0.291297
0.316259
0.33282
0.340404
0.343282
0.344398
0.344936
0.345339
0.3457
0.346095
0.346496
0.346956
0.347422
0.347968
0.348512
0.349167
0.349801
0.350586
0.351317
0.352259
0.353083
0.354209
0.355113
0.356466
0.357447
0.359124
0.360232
0.362408
0.363619
0.366322
0.367699
0.371635
0.373986
0.379508
0.382158
0.388679
0.390377
0.396013
0.392703
0.395539
0.392191
0.406587
0.409894
0.424898
0.427823
0.431977
0.429298
0.365229
0.28756
0.261935
0.316883
0.352874
0.37093
0.36901
0.370443
0.364609
0.364981
0.360638
0.361897
0.359492
0.361164
0.359161
0.360029
0.358607
0.358848
0.357513
0.357014
0.355101
0.353532
0.351529
0.350278
0.349171
0.348473
0.34798
0.347816
0.347811
0.34772
0.347664
0.347374
0.347301
0.346831
0.34675
0.346158
0.346324
0.345854
0.346487
0.346388
0.347469
0.348387
0.349604
0.352803
0.353301
0.346895
0.34808
0.362396
0.34736
0.309131
0.278009
0.27294
0.291761
0.31651
0.332921
0.340444
0.343303
0.344415
0.344951
0.345355
0.345716
0.346111
0.346512
0.346973
0.347439
0.347985
0.348529
0.349184
0.349818
0.350604
0.351334
0.352277
0.353101
0.354228
0.355132
0.356486
0.357467
0.359147
0.360254
0.362433
0.363643
0.366353
0.367732
0.371671
0.374012
0.37953
0.382166
0.388677
0.390355
0.39599
0.3927
0.395592
0.392273
0.406612
0.409878
0.424793
0.427688
0.431675
0.430042
0.364039
0.286751
0.263571
0.319363
0.35402
0.371276
0.369106
0.370483
0.364658
0.36502
0.360664
0.361917
0.359503
0.361166
0.359153
0.360016
0.358596
0.358836
0.357492
0.356993
0.355086
0.353527
0.351529
0.350283
0.349178
0.348484
0.347991
0.347824
0.347812
0.347715
0.347656
0.347364
0.347288
0.346817
0.346733
0.346139
0.346299
0.345827
0.346447
0.346343
0.347398
0.348306
0.349485
0.352645
0.353124
0.346738
0.348212
0.362552
0.347556
0.309452
0.27849
0.273509
0.292226
0.316761
0.333022
0.340484
0.343325
0.344432
0.344967
0.34537
0.345731
0.346127
0.346528
0.346989
0.347455
0.348002
0.348546
0.349201
0.349835
0.350621
0.351351
0.352294
0.353118
0.354246
0.355149
0.356505
0.357486
0.359169
0.360276
0.362458
0.363667
0.366383
0.367764
0.371706
0.374038
0.379551
0.382172
0.388675
0.390334
0.395967
0.392698
0.395645
0.392353
0.406637
0.409861
0.424688
0.427553
0.431375
0.430872
0.363055
0.286116
0.265401
0.321899
0.355159
0.371618
0.369202
0.370523
0.364706
0.365058
0.36069
0.361937
0.359513
0.361168
0.359145
0.360003
0.358585
0.358823
0.357471
0.356972
0.355071
0.353522
0.351529
0.350287
0.349184
0.348494
0.348001
0.34783
0.347812
0.34771
0.347647
0.347353
0.347275
0.346802
0.346715
0.34612
0.346273
0.345799
0.346406
0.346297
0.347327
0.348223
0.349366
0.352486
0.352947
0.346582
0.348343
0.362707
0.347752
0.309776
0.278973
0.274079
0.292693
0.317013
0.333124
0.340524
0.343346
0.344448
0.344983
0.345386
0.345747
0.346143
0.346544
0.347005
0.347471
0.348018
0.348562
0.349218
0.349851
0.350638
0.351368
0.352312
0.353135
0.354263
0.355166
0.356525
0.357505
0.359191
0.360298
0.362482
0.363691
0.366412
0.367795
0.371741
0.374062
0.379572
0.382178
0.388673
0.390312
0.395945
0.392696
0.395697
0.392432
0.406661
0.409844
0.424585
0.42742
0.431076
0.431777
0.362286
0.285664
0.267423
0.32448
0.356286
0.371955
0.369298
0.370562
0.364753
0.365095
0.360715
0.361956
0.359524
0.36117
0.359136
0.35999
0.358574
0.35881
0.35745
0.356951
0.355055
0.353516
0.351529
0.35029
0.349189
0.348503
0.348011
0.347837
0.347812
0.347705
0.347638
0.347342
0.347262
0.346787
0.346697
0.3461
0.346247
0.345771
0.346364
0.346251
0.347255
0.34814
0.349247
0.352327
0.35277
0.346427
0.348473
0.362862
0.347948
0.310101
0.27946
0.274653
0.293161
0.317266
0.333227
0.340564
0.343367
0.344465
0.344998
0.345401
0.345763
0.346159
0.34656
0.347021
0.347487
0.348035
0.348578
0.349235
0.349868
0.350655
0.351385
0.352329
0.353151
0.354281
0.355183
0.356543
0.357524
0.359212
0.360319
0.362505
0.363714
0.366441
0.367826
0.371775
0.374086
0.379592
0.382184
0.388671
0.39029
0.395924
0.392695
0.39575
0.39251
0.406685
0.409827
0.424483
0.427289
0.430777
0.432742
0.361738
0.285402
0.269634
0.327093
0.357396
0.372285
0.369393
0.370602
0.3648
0.365132
0.36074
0.361976
0.359534
0.361172
0.359128
0.359977
0.358562
0.358796
0.357429
0.356929
0.35504
0.35351
0.351529
0.350293
0.349192
0.348511
0.34802
0.347842
0.347812
0.347699
0.347629
0.34733
0.347248
0.346771
0.346678
0.34608
0.346221
0.345742
0.346322
0.346204
0.347182
0.348056
0.349128
0.352168
0.352594
0.346275
0.348602
0.363016
0.348145
0.310427
0.279949
0.275229
0.293631
0.317519
0.333329
0.340605
0.343389
0.344481
0.345014
0.345417
0.345778
0.346174
0.346575
0.347037
0.347503
0.348051
0.348595
0.349251
0.349884
0.350672
0.351401
0.352346
0.353168
0.354298
0.3552
0.356562
0.357542
0.359233
0.36034
0.362529
0.363736
0.36647
0.367856
0.371808
0.37411
0.379611
0.382188
0.388668
0.390269
0.395903
0.392695
0.395802
0.392588
0.406708
0.409811
0.424382
0.427158
0.430477
0.433753
0.361415
0.285336
0.272029
0.329726
0.358487
0.372608
0.369488
0.370641
0.364846
0.365169
0.360765
0.361996
0.359545
0.361173
0.35912
0.359964
0.358551
0.358783
0.357408
0.356908
0.355024
0.353503
0.351528
0.350296
0.349196
0.348518
0.348028
0.347848
0.347811
0.347693
0.34762
0.347319
0.347234
0.346755
0.346658
0.346059
0.346194
0.345713
0.346279
0.346157