/*--------------------------------*- C++ -*----------------------------------*\
| =========                 |                                                 |
| \\      /  F ield         | OpenFOAM: The Open Source CFD Toolbox           |
|  \\    /   O peration     | Version:  2412                                  |
|   \\  /    A nd           | Website:  www.openfoam.com                      |
|    \\/     M anipulation  |                                                 |
\*---------------------------------------------------------------------------*/
FoamFile
{
    version     2.0;
    format      ascii;
    arch        "LSB;label=32;scalar=64";
    class       volScalarField;
    location    "0.2";
    object      p;
}
// * * * * * * * * * * * * * * * * * * * * * * * * * * * * * * * * * * * * * //

dimensions      [0 2 -2 0 0 0 0];

internalField   nonuniform List<scalar> 
13079
(
113492
113365
113289
113113
113036
112881
112791
112630
112517
112343
112201
111996
111824
111576
111372
111063
110823
110434
110157
109663
109352
108719
108383
107565
107225
106162
105856
104456
104254
102378
102387
99823
100216
96638.7
97695.1
92622.6
94791.8
87509.6
91492.4
80952.8
87886
72663.4
84155.7
62264.4
80359.3
48562.8
75231
26734.8
64347
-8219.24
47690
-63513
19617.4
-155872
7870.7
-80043.1
8067.71
-45164.1
17451.3
-12950.4
27490.7
7212.32
34658.5
22358.8
41553.9
34281.6
47439.3
43201.2
52030.3
49712.1
55628
54490.4
58524.4
58128.4
61047
61235
63568.9
113479
113355
113281
113106
113029
112875
112785
112624
112511
112337
112195
111990
111818
111570
111365
111057
110817
110427
110151
109656
109345
108711
108376
107557
107218
106153
105850
104447
104248
102369
102382
99812.7
100211
96627.5
97691
92610.9
94788.8
87497.7
91491.4
80942.3
87886.6
72653.4
84154.6
62248.4
80346.8
48526
75196
26687.2
64316.7
-8251.18
47662.5
-63476.9
19707.3
-155380
7936.69
-80033
8114.3
-45147
17466.4
-12979.7
27488.7
7193.97
34660.2
22343.3
41550.1
34263.5
47431.5
43183.6
52022.8
49697.5
55622.8
54480.4
58522.7
58123.8
61048.5
61233.6
63570.1
113467
113345
113272
113100
113023
112869
112779
112618
112505
112331
112189
111985
111813
111564
111359
111050
110810
110420
110144
109648
109338
108703
108369
107549
107211
106145
105843
104439
104242
102359
102376
99802.4
100206
96616.4
97686.8
92599.1
94785.9
87485.9
91490.2
80931.6
87886.9
72643.1
84153.4
62232.4
80334.4
48489.6
75161.7
26640.1
64286.7
-8282.91
47635.5
-63440.3
19795.7
-154890
8003.41
-80022
8159.92
-45130.8
17481.1
-13008.7
27486.6
7175.58
34661.8
22327.7
41546.3
34245.6
47423.9
43166.2
52015.6
49683.1
55617.8
54470.5
58520.9
58119.2
61049.9
61232.2
63571.1
113454
113335
113262
113093
113016
112864
112773
112613
112500
112325
112184
111979
111807
111558
111353
111044
110804
110413
110137
109641
109332
108695
108362
107541
107205
106136
105837
104430
104236
102350
102371
99792.1
100201
96605.3
97682.6
92587.4
94782.9
87474
91488.9
80920.8
87887.1
72632.6
84152
62216.2
80322.2
48453.6
75128.1
26593.5
64257
-8314.43
47608.8
-63403.4
19882.8
-154402
8070.7
-80010.1
8204.79
-45115.3
17495.6
-13037.5
27484.6
7157.17
34663.3
22312.1
41542.5
34227.8
47416.4
43148.9
52008.5
49668.9
55612.8
54460.7
58519.2
58114.7
61051.3
61230.6
63572
113442
113325
113253
113086
113010
112858
112767
112607
112494
112320
112178
111973
111801
111552
111347
111037
110798
110407
110131
109634
109325
108688
108355
107533
107198
106128
105831
104421
104230
102341
102365
99781.9
100196
96594.2
97678.4
92575.7
94779.8
87462.1
91487.6
80910
87887.2
72622.1
84150.5
62200
80310.1
48417.8
75094.8
26547.2
64227.5
-8345.69
47582.6
-63366.1
19969.1
-153918
8137.72
-79997.5
8249.5
-45100
17510.1
-13066
27482.6
7138.78
34664.8
22296.4
41538.7
34210
47408.9
43131.7
52001.4
49654.7
55607.9
54451
58517.5
58110
61052.6
61229
63572.9
64162.5
66064
66832.5
68329.8
69133.2
70268.2
71040.5
71866.5
72608.6
73183.6
73932.8
74288.9
75109.3
75243.3
76232.1
76085.1
77396.1
76822.8
78718.5
77444.4
80360
77956.8
113430
113314
113244
113079
113003
112852
112761
112601
112489
112314
112172
111967
111795
111546
111341
111031
110791
110400
110124
109626
109318
108680
108349
107525
107192
106120
105824
104412
104224
102331
102360
99771.7
100191
96583.2
97674.3
92564.1
94776.9
87450.4
91486.3
80899.3
87887.4
72611.7
84149
62183.8
80297.9
48382.1
75061.7
26501.1
64198.1
-8376.69
47556.7
-63328.4
20054.4
-153437
8204.39
-79984.2
8294.17
-45084.6
17524.6
-13094.4
27480.6
7120.43
34666.1
22280.8
41534.9
34192.4
47401.5
43114.6
51994.4
49640.5
55603
54441.3
58515.7
58105.4
61053.8
61227.4
63573.8
64160.1
66062.3
66828.3
68325.9
69127.8
70263.1
71035.2
71861.7
72604.6
73179.9
73930.7
74286.7
75109.6
75242.7
76234.8
76086
77401.3
76825.3
78725.2
77449
80364.5
77963.8
113418
113304
113235
113072
112996
112847
112755
112596
112483
112309
112167
111962
111790
111540
111335
111025
110785
110393
110118
109619
109312
108673
108342
107517
107185
106112
105818
104404
104218
102322
102354
99761.6
100186
96572.3
97670.2
92552.5
94773.9
87438.6
91485
80888.6
87887.5
72601.2
84147.5
62167.7
80285.7
48346.6
75028.8
26455.4
64168.9
-8407.44
47531.1
-63290.4
20138.8
-152959
8270.74
-79970.3
8338.81
-45069.3
17539.1
-13122.5
27478.6
7102.11
34667.5
22265.3
41531.2
34174.7
47394.1
43097.5
51987.3
49626.4
55598.1
54431.6
58514
58100.8
61055.1
61225.7
63574.6
64157.7
66060.6
66824
68321.9
69122.4
70258.1
71030
71857
72600.6
73176.2
73928.6
74284.5
75109.8
75242
76237.5
76086.8
77406.2
76827.6
78731.6
77453.3
80368.5
77970.6
113406
113294
113226
113065
112990
112841
112750
112590
112477
112303
112161
111956
111784
111534
111329
111018
110779
110386
110111
109612
109305
108665
108335
107510
107179
106103
105812
104395
104212
102313
102349
99751.5
100182
96561.4
97666
92541
94770.9
87427
91483.7
80878
87887.6
72590.8
84146
62151.5
80273.6
48311.2
74996.1
26409.9
64139.9
-8437.94
47505.8
-63252.1
20222.2
-152484
8336.81
-79955.7
8383.46
-45054
17553.7
-13150.5
27476.6
7083.83
34668.8
22249.8
41527.4
34157.2
47386.7
43080.5
51980.3
49612.4
55593.2
54421.9
58512.2
58096.2
61056.2
61224.1
63575.4
64155.3
66058.9
66819.8
68318
69117.1
70253.2
71024.9
71852.3
72596.7
73172.6
73926.6
74282.2
75110
75241.3
76240
76087.4
77410.9
76829.8
78737.7
77457.4
80372.1
77977
113394
113285
113217
113058
112983
112835
112744
112585
112472
112298
112156
111950
111778
111528
111323
111012
110773
110380
110105
109605
109298
108658
108329
107502
107172
106095
105806
104386
104206
102303
102343
99741.5
100177
96550.5
97661.9
92529.6
94768
87415.4
91482.4
80867.4
87887.7
72580.3
84144.4
62135.3
80261.4
48276
74963.6
26364.8
64111.1
-8468.21
47480.8
-63213.5
20304.5
-152013
8402.61
-79940.4
8428.17
-45038.6
17568.3
-13178.2
27474.7
7065.6
34670
22234.3
41523.6
34139.7
47379.3
43063.5
51973.3
49598.4
55588.3
54412.2
58510.4
58091.6
61057.4
61222.4
63576.2
64152.9
66057.2
66815.6
68314.1
69111.8
70248.3
71019.7
71847.7
72592.8
73168.9
73924.6
74280
75110.1
75240.5
76242.5
76088.1
77415.6
76831.9
78743.6
77461.4
80375.5
77983.4
113382
113275
113208
113051
112977
112829
112738
112579
112467
112292
112150
111945
111773
111522
111318
111006
110766
110373
110099
109598
109292
108650
108322
107494
107166
106087
105800
104378
104200
102294
102338
99731.5
100172
96539.7
97657.8
92518.1
94765
87403.8
91481.2
80856.8
87887.8
72569.9
84142.8
62119.2
80249.3
48241
74931.3
26319.8
64082.4
-8498.23
47456.2
-63174.7
20385.8
-151545
8468.18
-79924.4
8472.96
-45023.3
17582.9
-13205.8
27472.8
7047.41
34671.2
22218.8
41519.8
34122.2
47372
43046.6
51966.4
49584.5
55583.4
54402.6
58508.7
58086.9
61058.5
61220.6
63577
64150.4
66055.5
66811.4
68310.2
69106.5
70243.4
71014.6
71843.1
72588.9
73165.3
73922.5
74277.8
75110.3
75239.7
76244.9
76088.7
77420.2
76834
78749.4
77465.5
80378.8
77989.8
113371
113265
113199
113044
112970
112824
112732
112574
112461
112287
112145
111939
111767
111516
111312
110999
110760
110366
110092
109591
109285
108643
108316
107486
107159
106079
105794
104369
104195
102285
102332
99721.5
100167
96529
97653.8
92506.8
94762.1
87392.3
91479.9
80846.2
87887.8
72559.5
84141.1
62103
80237.2
48206.1
74899.3
26275.2
64053.9
-8528.01
47431.9
-63135.6
20465.9
-151080
8533.51
-79907.6
8517.88
-45007.9
17597.6
-13233.1
27470.9
7029.26
34672.4
22203.4
41516.1
34104.9
47364.7
43029.8
51959.4
49570.6
55578.6
54393.1
58506.9
58082.3
61059.6
61218.9
63577.8
64147.9
66053.8
66807.2
68306.4
69101.3
70238.5
71009.5
71838.5
72585
73161.7
73920.5
74275.5
75110.4
75239
76247.3
76089.4
77424.7
76836.2
78755.1
77469.5
80381.9
77996.2
113360
113255
113190
113037
112963
112818
112727
112568
112456
112281
112140
111933
111762
111510
111306
110993
110754
110360
110086
109584
109279
108635
108309
107478
107153
106071
105787
104361
104189
102276
102327
99711.6
100162
96518.3
97649.7
92495.5
94759.2
87380.9
91478.6
80835.7
87887.9
72549
84139.4
62086.8
80225.1
48171.3
74867.4
26230.8
64025.6
-8557.57
47407.8
-63096.2
20544.9
-150619
8598.65
-79890.1
8562.97
-44992.5
17612.4
-13260.2
27469.1
7011.17
34673.5
22188
41512.4
34087.6
47357.5
43013.1
51952.5
49556.8
55573.7
54383.5
58505.1
58077.7
61060.6
61217.2
63578.5
64145.5
66052.1
66803.1
68302.6
69096.1
70233.7
71004.5
71833.9
72581.2
73158.1
73918.4
74273.3
75110.5
75238.2
76249.7
76090
77429.2
76838.3
78760.7
77473.5
80384.9
78002.5
113348
113246
113181
113030
112957
112812
112721
112563
112450
112276
112134
111928
111756
111504
111300
110987
110748
110353
110080
109577
109272
108628
108303
107471
107147
106063
105781
104352
104183
102267
102322
99701.7
100157
96507.6
97645.7
92484.2
94756.3
87369.5
91477.3
80825.2
87887.9
72538.6
84137.7
62070.7
80213
48136.7
74835.7
26186.7
63997.4
-8586.89
47384.1
-63056.7
20622.6
-150160
8663.61
-79871.9
8608.25
-44977
17627.2
-13287.2
27467.3
6993.13
34674.6
22172.7
41508.6
34070.4
47350.3
42996.4
51945.7
49543
55568.9
54374
58503.3
58073
61061.7
61215.4
63579.2
64143
66050.4
66798.9
68298.7
69090.9
70228.9
70999.4
71829.3
72577.3
73154.5
73916.4
74271.1
75110.6
75237.4
76252
76090.6
77433.6
76840.3
78766.2
77477.4
80387.7
78008.9
113337
113236
113173
113023
112950
112807
112715
112557
112445
112270
112129
111922
111750
111499
111294
110981
110742
110347
110073
109570
109266
108621
108296
107463
107140
106055
105775
104344
104177
102258
102316
99691.9
100152
96497
97641.6
92473
94753.4
87358.1
91476.1
80814.8
87887.9
72528.2
84135.9
62054.5
80200.8
48102.2
74804.3
26142.9
63969.4
-8615.98
47360.7
-63016.9
20699.1
-149705
8728.41
-79852.8
8653.75
-44961.4
17642.1
-13313.9
27465.5
6975.15
34675.7
22157.4
41504.9
34053.2
47343.1
42979.8
51938.8
49529.3
55564.1
54364.5
58501.5
58068.4
61062.7
61213.6
63579.9
64140.6
66048.7
66794.8
68294.9
69085.7
70224.1
70994.4
71824.7
72573.5
73150.9
73914.4
74268.9
75110.7
75236.6
76254.4
76091.2
77437.9
76842.4
78771.6
77481.4
80390.4
78015.2
113326
113227
113164
113016
112944
112801
112709
112552
112439
112265
112123
111917
111745
111493
111289
110975
110736
110340
110067
109563
109259
108613
108290
107455
107134
106047
105769
104335
104172
102249
102311
99682.1
100147
96486.4
97637.6
92461.9
94750.5
87346.9
91474.8
80804.4
87887.9
72517.8
84134.1
62038.3
80188.7
48067.9
74773
26099.3
63941.6
-8644.84
47337.5
-62976.9
20774.2
-149253
8793.09
-79832.9
8699.5
-44945.8
17657
-13340.4
27463.8
6957.21
34676.8
22142.2
41501.2
34036.2
47336
42963.3
51932
49515.6
55559.3
54355.1
58499.7
58063.7
61063.6
61211.8
63580.5
64138.1
66047
66790.7
68291.2
69080.6
70219.3
70989.4
71820.2
72569.7
73147.4
73912.3
74266.6
75110.8
75235.8
76256.6
76091.8
77442.2
76844.5
78776.9
77485.4
80393
78021.5
113315
113217
113156
113009
112937
112796
112704
112547
112434
112260
112118
111911
111739
111487
111283
110969
110730
110333
110061
109556
109253
108606
108283
107448
107128
106039
105763
104327
104166
102240
102306
99672.4
100143
96475.9
97633.6
92450.8
94747.6
87335.6
91473.5
80794
87887.8
72507.3
84132.3
62022.1
80176.6
48033.7
74741.9
26056
63913.9
-8673.48
47314.7
-62936.8
20848.1
-148804
8857.65
-79812.3
8745.52
-44930.1
17672
-13366.6
27462.1
6939.34
34677.8
22127
41497.5
34019.2
47328.9
42946.8
51925.2
49502
55554.5
54345.6
58497.8
58059.1
61064.5
61209.9
63581.2
64135.7
66045.4
66786.6
68287.4
69075.5
70214.6
70984.5
71815.7
72565.9
73143.8
73910.3
74264.4
75110.9
75235
76258.9
76092.4
77446.4
76846.5
78782.1
77489.3
80395.5
78027.7
113304
113208
113147
113003
112931
112790
112698
112541
112429
112254
112113
111906
111734
111481
111277
110962
110724
110327
110054
109549
109247
108599
108277
107440
107121
106031
105757
104319
104160
102231
102300
99662.7
100138
96465.4
97629.6
92439.8
94744.7
87324.4
91472.2
80783.7
87887.8
72496.9
84130.4
62005.9
80164.6
47999.7
74711.1
26013
63886.4
-8701.9
47292.1
-62896.4
20920.6
-148358
8922.14
-79790.8
8791.84
-44914.4
17687
-13392.7
27460.4
6921.52
34678.8
22111.8
41493.8
34002.3
47321.9
42930.4
51918.5
49488.4
55549.8
54336.2
58496
58054.4
61065.4
61208.1
63581.8
64133.2
66043.7
66782.6
68283.7
69070.4
70209.9
70979.5
71811.2
72562.1
73140.3
73908.3
74262.2
75110.9
75234.2
76261.1
76092.9
77450.6
76848.5
78787.2
77493.2
80397.8
78034
113294
113199
113139
112996
112925
112784
112692
112536
112423
112249
112107
111900
111728
111476
111271
110956
110718
110320
110048
109542
109240
108592
108271
107433
107115
106023
105751
104310
104155
102222
102295
99653
100133
96455
97625.6
92428.8
94741.9
87313.3
91471
80773.4
87887.7
72486.5
84128.5
61989.7
80152.5
47965.8
74680.4
25970.2
63859.1
-8730.1
47269.8
-62856
20991.8
-147915
8986.56
-79768.4
8838.47
-44898.5
17702.1
-13418.6
27458.8
6903.76
34679.7
22096.7
41490.2
33985.4
47314.9
42914.1
51911.8
49474.9
55545
54326.9
58494.2
58049.8
61066.3
61206.2
63582.4
64130.7
66042
66778.5
68280
69065.4
70205.2
70974.6
71806.7
72558.3
73136.7
73906.2
74259.9
75110.9
75233.4
76263.3
76093.5
77454.7
76850.5
78792.1
77497.1
80400
78040.2
113283
113190
113130
112989
112918
112779
112687
112531
112418
112244
112102
111895
111723
111470
111266
110950
110712
110314
110042
109535
109234
108584
108264
107425
107109
106015
105745
104302
104149
102213
102290
99643.4
100128
96444.7
97621.7
92417.9
94739.1
87302.2
91469.7
80763.1
87887.6
72476.1
84126.5
61973.5
80140.4
47932
74649.9
25927.7
63831.9
-8758.08
47247.7
-62815.3
21061.6
-147475
9050.95
-79745.2
8885.42
-44882.6
17717.2
-13444.2
27457.3
6886.06
34680.7
22081.7
41486.5
33968.6
47307.9
42897.8
51905.1
49461.5
55540.3
54317.6
58492.3
58045.1
61067.1
61204.3
63583
64128.3
66040.3
66774.5
68276.3
69060.3
70200.5
70969.7
71802.2
72554.6
73133.2
73904.2
74257.7
75111
75232.5
76265.4
76094
77458.8
76852.5
78797
77501
80402.1
78046.5
113273
113181
113122
112983
112912
112773
112681
112525
112413
112238
112097
111889
111718
111464
111260
110944
110706
110308
110036
109529
109228
108577
108258
107418
107103
106007
105739
104294
104143
102204
102285
99633.8
100124
96434.3
97617.8
92407
94736.2
87291.2
91468.5
80752.9
87887.5
72465.7
84124.5
61957.4
80128.3
47898.4
74619.6
25885.4
63804.9
-8785.84
47225.9
-62774.5
21130
-147038
9115.33
-79721.1
8932.7
-44866.7
17732.3
-13469.7
27455.7
6868.41
34681.6
22066.7
41482.9
33951.9
47300.9
42881.7
51898.4
49448.1
55535.6
54308.3
58490.5
58040.5
61067.9
61202.4
63583.5
64125.8
66038.7
66770.5
68272.6
69055.3
70195.8
70964.9
71797.8
72550.8
73129.7
73902.2
74255.5
75111
75231.7
76267.5
76094.5
77462.7
76854.5
78801.8
77504.8
80404
78052.6
113262
113172
113114
112976
112905
112768
112676
112520
112407
112233
112092
111884
111712
111458
111254
110938
110700
110301
110030
109522
109221
108570
108252
107410
107097
106000
105733
104286
104138
102195
102279
99624.3
100119
96424.1
97613.8
92396.1
94733.4
87280.3
91467.2
80742.6
87887.3
72455.3
84122.5
61941.2
80116.3
47864.9
74589.6
25843.4
63778
-8813.39
47204.4
-62733.6
21197.1
-146604
9179.73
-79696.1
8980.31
-44850.6
17747.5
-13494.9
27454.2
6850.83
34682.5
22051.7
41479.3
33935.3
47294
42865.6
51891.8
49434.8
55530.9
54299
58488.7
58035.8
61068.7
61200.5
63584
64123.3
66037
66766.5
68268.9
69050.4
70191.2
70960
71793.3
72547.1
73126.1
73900.1
74253.2
75111
75230.8
76269.6
76095
77466.7
76856.5
78806.5
77508.7
80405.9
78058.8
113252
113163
113106
112969
112899
112762
112670
112515
112402
112228
112086
111878
111707
111453
111249
110932
110694
110295
110024
109515
109215
108563
108245
107403
107090
105992
105727
104278
104132
102187
102274
99614.8
100114
96413.8
97609.9
92385.4
94730.6
87269.3
91465.9
80732.5
87887.2
72444.9
84120.4
61925
80104.2
47831.6
74559.6
25801.6
63751.3
-8840.72
47183.2
-62692.5
21262.8
-146173
9244.17
-79670.1
9028.26
-44834.6
17762.8
-13519.9
27452.8
6833.3
34683.4
22036.8
41475.7
33918.8
47287.2
42849.5
51885.2
49421.5
55526.2
54289.8
58486.8
58031.2
61069.4
61198.6
63584.5
64120.9
66035.3
66762.5
68265.3
69045.4
70186.6
70955.2
71788.9
72543.4
73122.6
73898.1
74251
75110.9
75230
76271.7
76095.5
77470.5
76858.4
78811.1
77512.5
80407.6
78065
113242
113154
113097
112963
112893
112757
112665
112509
112397
112223
112081
111873
111701
111447
111243
110926
110689
110289
110018
109509
109209
108556
108239
107395
107084
105984
105722
104269
104127
102178
102269
99605.4
100109
96403.7
97606
92374.6
94727.8
87258.5
91464.7
80722.3
87887
72434.5
84118.3
61908.8
80092.1
47798.4
74529.9
25760.1
63724.8
-8867.84
47162.2
-62651.3
21327.1
-145746
9308.67
-79643.3
9076.53
-44818.4
17778
-13544.8
27451.3
6815.84
34684.2
22022
41472.1
33902.3
47280.4
42833.6
51878.6
49408.3
55521.5
54280.6
58484.9
58026.5
61070.2
61196.6
63585
64118.4
66033.7
66758.6
68261.7
69040.5
70182
70950.4
71784.5
72539.6
73119.1
73896.1
74248.8
75110.9
75229.1
76273.7
76096
77474.3
76860.4
78815.6
77516.3
80409.2
78071.1
113232
113145
113089
112956
112886
112751
112659
112504
112392
112217
112076
111868
111696
111442
111238
110920
110683
110282
110012
109502
109203
108549
108233
107388
107078
105977
105716
104261
104121
102169
102264
99596
100105
96393.5
97602.1
92364
94725.1
87247.7
91463.4
80712.2
87886.8
72424.1
84116.1
61892.6
80080.1
47765.3
74500.4
25718.8
63698.4
-8894.75
47141.4
-62610
21390.2
-145321
9373.26
-79615.5
9125.12
-44802.3
17793.3
-13569.4
27450
6798.43
34685
22007.2
41468.6
33885.9
47273.6
42817.7
51872.1
49395.2
55516.9
54271.4
58483.1
58021.8
61070.8
61194.6
63585.5
64115.9
66032
66754.6
68258.1
69035.6
70177.5
70945.6
71780.1
72536
73115.7
73894.1
74246.6
75110.9
75228.2
76275.7
76096.5
77478.1
76862.3
78819.9
77520.1
80410.7
78077.2
113222
113137
113081
112949
112880
112746
112654
112499
112386
112212
112071
111862
111691
111436
111232
110914
110677
110276
110006
109495
109197
108542
108227
107381
107072
105969
105710
104253
104116
102161
102259
99586.6
100100
96383.4
97598.3
92353.3
94722.3
87236.9
91462.1
80702.1
87886.6
72413.7
84113.9
61876.4
80068.1
47732.4
74471.1
25677.8
63672.2
-8921.45
47120.9
-62568.6
21452
-144899
9437.97
-79586.8
9174.02
-44786.1
17808.6
-13593.8
27448.6
6781.09
34685.8
21992.4
41465
33869.6
47266.8
42801.9
51865.6
49382.1
55512.2
54262.3
58481.2
58017.2
61071.5
61192.6
63585.9
64113.5
66030.3
66750.7
68254.5
69030.7
70172.9
70940.9
71775.8
72532.3
73112.2
73892
74244.3
75110.8
75227.4
76277.6
76097
77481.8
76864.2
78824.2
77523.9
80412.1
78083.3
113212
113128
113073
112943
112874
112740
112648
112494
112381
112207
112066
111857
111686
111430
111227
110909
110671
110270
110000
109489
109190
108535
108220
107373
107066
105961
105704
104245
104110
102152
102254
99577.3
100096
96373.4
97594.4
92342.8
94719.5
87226.2
91460.9
80692.1
87886.4
72403.3
84111.7
61860.2
80056.1
47699.6
74441.9
25637
63646.1
-8947.94
47100.7
-62527
21512.7
-144480
9502.81
-79557.1
9223.19
-44769.9
17823.9
-13618.1
27447.3
6763.81
34686.6
21977.7
41461.5
33853.3
47260.1
42786.1
51859.1
49369
55507.6
54253.2
58479.4
58012.5
61072.1
61190.6
63586.4
64111
66028.7
66746.8
68250.9
69025.9
70168.4
70936.1
71771.4
72528.6
73108.7
73890
74242.1
75110.7
75226.5
76279.5
76097.4
77485.4
76866.1
78828.4
77527.6
80413.4
78089.3
113202
113120
113065
112936
112868
112735
112643
112489
112376
112202
112060
111852
111680
111425
111221
110903
110665
110264
109994
109482
109184
108528
108214
107366
107060
105954
105698
104237
104105
102144
102248
99568
100091
96363.4
97590.6
92332.2
94716.8
87215.5
91459.6
80682.1
87886.1
72392.9
84109.5
61844.1
80044.1
47667
74413
25596.5
63620.2
-8974.22
47080.7
-62485.3
21572.2
-144065
9567.81
-79526.6
9272.62
-44753.7
17839.3
-13642.1
27446.1
6746.59
34687.4
21963.1
41458
33837.1
47253.4
42770.4
51852.6
49356
55503
54244.1
58477.5
58007.9
61072.7
61188.6
63586.8
64108.5
66027
66742.9
68247.3
69021
70163.9
70931.4
71767.1
72524.9
73105.2
73888
74239.9
75110.6
75225.6
76281.4
76097.9
77489
76868
78832.6
77531.4
80414.6
78095.4
113192
113111
113058
112930
112862
112729
112637
112483
112371
112197
112055
111847
111675
111419
111216
110897
110660
110257
109988
109475
109178
108521
108208
107359
107054
105946
105693
104229
104099
102135
102243
99558.8
100086
96353.5
97586.8
92321.8
94714
87204.9
91458.3
80672.1
87885.8
72382.5
84107.2
61827.9
80032.1
47634.5
74384.2
25556.2
63594.4
-9000.29
47060.9
-62443.5
21630.6
-143652
9632.98
-79495.1
9322.28
-44737.5
17854.6
-13666
27444.8
6729.43
34688.1
21948.5
41454.5
33821
47246.8
42754.8
51846.2
49343.1
55498.4
54235.1
58475.6
58003.3
61073.3
61186.6
63587.2
64106.1
66025.4
66739
68243.8
69016.2
70159.5
70926.7
71762.8
72521.3
73101.8
73885.9
74237.6
75110.5
75224.7
76283.3
76098.3
77492.5
76869.9
78836.6
77535.1
80415.7
78101.4
113183
113103
113050
112923
112855
112724
112632
112478
112366
112191
112050
111841
111670
111414
111210
110891
110654
110251
109982
109469
109172
108514
108202
107352
107048
105939
105687
104221
104094
102127
102238
99549.6
100082
96343.6
97583
92311.3
94711.3
87194.4
91457.1
80662.1
87885.5
72372.2
84104.9
61811.7
80020.1
47602.1
74355.6
25516.1
63568.8
-9026.16
47041.4
-62401.5
21688
-143242
9698.34
-79462.6
9372.12
-44721.3
17869.9
-13689.6
27443.6
6712.33
34688.8
21933.9
41451
33805
47240.2
42739.3
51839.8
49330.2
55493.9
54226.1
58473.7
57998.6
61073.9
61184.5
63587.5
64103.6
66023.7
66735.1
68240.3
69011.5
70155
70922.1
71758.5
72517.7
73098.3
73883.9
74235.4
75110.4
75223.8
76285.1
76098.7
77495.9
76871.8
78840.5
77538.8
80416.7
78107.4
113173
113094
113042
112917
112849
112718
112626
112473
112361
112186
112045
111836
111665
111408
111205
110885
110648
110245
109976
109462
109166
108508
108196
107345
107042
105931
105681
104213
104088
102118
102233
99540.4
100077
96333.7
97579.2
92301
94708.6
87183.9
91455.8
80652.2
87885.2
72361.8
84102.5
61795.6
80008.1
47569.9
74327.2
25476.3
63543.4
-9051.82
47022.1
-62359.5
21744.5
-142836
9763.92
-79429.3
9422.12
-44705.2
17885.3
-13713.1
27442.5
6695.3
34689.5
21919.4
41447.5
33789.1
47233.7
42723.9
51833.5
49317.4
55489.3
54217.2
58471.8
57994
61074.4
61182.5
63587.9
64101.1
66022.1
66731.3
68236.8
69006.7
70150.6
70917.4
71754.2
72514.1
73094.9
73881.9
74233.2
75110.3
75222.9
76286.9
76099.1
77499.3
76873.6
78844.4
77542.5
80417.6
78113.4
113164
113086
113034
112911
112843
112713
112621
112468
112355
112181
112040
111831
111659
111403
111199
110879
110643
110239
109970
109456
109160
108501
108190
107338
107036
105924
105675
104206
104083
102110
102228
99531.3
100073
96323.9
97575.4
92290.7
94705.9
87173.4
91454.5
80642.3
87884.9
72351.4
84100.1
61779.4
79996.1
47537.8
74298.9
25436.8
63518
-9077.28
47003.1
-62317.3
21800.1
-142432
9829.71
-79395.2
9472.23
-44689.1
17900.6
-13736.3
27441.4
6678.32
34690.2
21904.9
41444.1
33773.2
47227.1
42708.5
51827.2
49304.6
55484.8
54208.2
58470
57989.3
61074.9
61180.4
63588.2
64098.6
66020.4
66727.5
68233.3
69002
70146.2
70912.8
71749.9
72510.4
73091.5
73879.9
74230.9
75110.1
75221.9
76288.6
76099.5
77502.7
76875.4
78848.1
77546.2
80418.4
78119.3
113154
113078
113027
112904
112837
112708
112615
112463
112350
112176
112035
111826
111654
111398
111194
110874
110637
110233
109964
109450
109154
108494
108184
107330
107030
105916
105670
104198
104078
102101
102223
99522.3
100068
96314.2
97571.6
92280.4
94703.2
87163
91453.3
80632.4
87884.5
72341.1
84097.7
61763.3
79984.2
47505.9
74270.9
25397.4
63492.9
-9102.54
46984.3
-62275
21855
-142032
9895.74
-79360.2
9522.41
-44673.1
17915.9
-13759.4
27440.3
6661.41
34690.8
21890.5
41440.6
33757.4
47220.7
42693.2
51820.9
49291.9
55480.3
54199.3
58468.1
57984.7
61075.4
61178.3
63588.5
64096.2
66018.8
66723.6
68229.8
68997.3
70141.8
70908.2
71745.7
72506.9
73088.1
73877.8
74228.7
75110
75221
76290.4
76099.9
77506
76877.3
78851.8
77549.8
80419.2
78125.2
113145
113070
113019
112898
112831
112702
112610
112458
112345
112171
112030
111821
111649
111392
111188
110868
110631
110227
109958
109443
109148
108487
108178
107323
107025
105909
105664
104190
104072
102093
102218
99513.3
100064
96304.5
97567.9
92270.2
94700.5
87152.6
91452
80622.6
87884.1
72330.7
84095.2
61747.2
79972.3
47474.1
74243
25358.3
63467.9
-9127.59
46965.7
-62232.5
21909.1
-141634
9962
-79324.4
9572.6
-44657.1
17931.2
-13782.3
27439.2
6644.56
34691.5
21876.2
41437.2
33741.6
47214.2
42677.9
51814.6
49279.3
55475.8
54190.5
58466.2
57980.1
61075.9
61176.2
63588.8
64093.7
66017.1
66719.8
68226.4
68992.6
70137.5
70903.6
71741.5
72503.3
73084.7
73875.8
74226.5
75109.8
75220.1
76292.1
76100.3
77509.2
76879.1
78855.4
77553.5
80419.8
78131.1
113136
113061
113011
112892
112825
112697
112605
112453
112340
112166
112025
111815
111644
111387
111183
110862
110626
110221
109953
109437
109142
108480
108172
107316
107019
105902
105659
104182
104067
102085
102213
99504.3
100059
96294.8
97564.2
92260
94697.8
87142.3
91450.7
80612.8
87883.7
72320.4
84092.7
61731.1
79960.3
47442.4
74215.3
25319.5
63443
-9152.43
46947.4
-62190
21962.7
-141239
10028.5
-79287.9
9622.77
-44641.3
17946.5
-13805.1
27438.2
6627.78
34692.1
21861.9
41433.8
33726
47207.8
42662.8
51808.4
49266.7
55471.3
54181.7
58464.3
57975.4
61076.3
61174.1
63589.1
64091.2
66015.5
66716.1
68223
68988
70133.1
70899.1
71737.3
72499.7
73081.3
73873.8
74224.3
75109.6
75219.1
76293.7
76100.7
77512.4
76880.9
78858.8
77557.1
80420.3
78137
113127
113053
113004
112885
112819
112692
112599
112448
112335
112161
112020
111810
111639
111381
111178
110857
110620
110215
109947
109430
109136
108474
108166
107309
107013
105894
105653
104175
104062
102076
102208
99495.3
100055
96285.2
97560.4
92249.9
94695.2
87132.1
91449.4
80603
87883.3
72310
84090.2
61714.9
79948.4
47410.9
74187.8
25280.8
63418.3
-9177.08
46929.3
-62147.3
22015.8
-140848
10095.2
-79250.7
9672.87
-44625.5
17961.8
-13827.6
27437.2
6611.06
34692.7
21847.7
41430.4
33710.4
47201.4
42647.7
51802.2
49254.1
55466.8
54172.9
58462.4
57970.8
61076.7
61172
63589.3
64088.8
66013.8
66712.3
68219.5
68983.3
70128.8
70894.5
71733.1
72496.2
73077.9
73871.8
74222
75109.4
75218.2
76295.4
76101
77515.5
76882.7
78862.3
77560.7
80420.8
78142.8
113117
113045
112996
112879
112813
112686
112594
112443
112330
112156
112015
111805
111634
111376
111173
110851
110615
110209
109941
109424
109131
108467
108160
107302
107007
105887
105647
104167
104056
102068
102203
99486.5
100050
96275.6
97556.7
92239.8
94692.5
87121.8
91448.1
80593.3
87882.8
72299.7
84087.6
61698.8
79936.5
47379.5
74160.4
25242.5
63393.7
-9201.52
46911.5
-62104.5
22068.5
-140459
10162.2
-79212.9
9722.83
-44609.9
17977.1
-13850
27436.3
6594.4
34693.2
21833.5
41427.1
33694.9
47195.1
42632.6
51796
49241.6
55462.4
54164.1
58460.5
57966.2
61077.1
61169.8
63589.6
64086.3
66012.2
66708.5
68216.1
68978.7
70124.5
70890
71728.9
72492.6
73074.5
73869.8
74219.8
75109.2
75217.2
76297
76101.4
77518.6
76884.4
78865.6
77564.3
80421.2
78148.6
113109
113038
112989
112873
112807
112681
112589
112438
112325
112151
112010
111800
111629
111371
111167
110845
110609
110203
109935
109418
109125
108461
108155
107295
107001
105880
105642
104159
104051
102060
102198
99477.6
100046
96266.1
97553
92229.8
94689.9
87111.7
91446.9
80583.6
87882.4
72289.4
84085.1
61682.8
79924.7
47348.2
74133.2
25204.3
63369.3
-9225.76
46893.9
-62061.6
22120.7
-140074
10229.3
-79174.6
9772.63
-44594.3
17992.3
-13872.2
27435.3
6577.8
34693.8
21819.3
41423.7
33679.4
47188.8
42617.7
51789.9
49229.2
55457.9
54155.4
58458.6
57961.6
61077.4
61167.7
63589.8
64083.8
66010.6
66704.8
68212.7
68974.1
70120.2
70885.5
71724.7
72489.1
73071.1
73867.7
74217.6
75108.9
75216.3
76298.5
76101.7
77521.6
76886.2
78868.8
77567.8
80421.5
78154.4
113100
113030
112982
112867
112801
112676
112583
112433
112320
112146
112005
111795
111624
111365
111162
110840
110604
110197
109930
109411
109119
108454
108149
107289
106996
105873
105636
104152
104046
102052
102193
99468.8
100041
96256.6
97549.4
92219.8
94687.2
87101.5
91445.6
80573.9
87881.9
72279.1
84082.4
61666.7
79912.8
47317.1
74106.2
25166.4
63345
-9249.8
46876.5
-62018.5
22172.7
-139692
10296.6
-79135.8
9822.21
-44578.9
18007.5
-13894.2
27434.4
6561.27
34694.3
21805.2
41420.4
33664.1
47182.5
42602.8
51783.7
49216.8
55453.5
54146.7
58456.7
57957
61077.8
61165.5
63590
64081.3
66008.9
66701.1
68209.4
68969.6
70116
70881.1
71720.6
72485.6
73067.7
73865.7
74215.3
75108.7
75215.3
76300.1
76102
77524.5
76887.9
78872
77571.4
80421.7
78160.2
113091
113022
112974
112860
112795
112670
112578
112428
112315
112141
112000
111790
111619
111360
111157
110834
110598
110191
109924
109405
109113
108447
108143
107282
106990
105865
105631
104144
104041
102044
102189
99460
100037
96247.2
97545.7
92209.9
94684.6
87091.5
91444.3
80564.3
87881.4
72268.7
84079.8
61650.6
79901
47286.2
74079.4
25128.7
63320.9
-9273.64
46859.3
-61975.4
22224.5
-139312
10364.1
-79096.6
9871.52
-44563.7
18022.6
-13916
27433.6
6544.8
34694.8
21791.2
41417
33648.8
47176.3
42588
51777.7
49204.5
55449.1
54138.1
58454.8
57952.4
61078.1
61163.4
63590.2
64078.9
66007.3
66697.4
68206
68965
70111.7
70876.6
71716.5
72482.1
73064.4
73863.7
74213.1
75108.4
75214.3
76301.6
76102.3
77527.5
76889.7
78875.1
77574.9
80421.8
78165.9
113082
113014
112967
112854
112789
112665
112573
112423
112310
112136
111995
111785
111614
111355
111152
110829
110593
110185
109918
109399
109107
108441
108137
107275
106984
105858
105625
104137
104035
102036
102184
99451.3
100033
96237.8
97542.1
92200
94682
87081.4
91443
80554.6
87880.9
72258.4
84077.1
61634.6
79889.2
47255.3
74052.7
25091.2
63296.9
-9297.28
46842.4
-61932.1
22276
-138936
10431.7