/*--------------------------------*- C++ -*----------------------------------*\
| =========                 |                                                 |
| \\      /  F ield         | OpenFOAM: The Open Source CFD Toolbox           |
|  \\    /   O peration     | Version:  2412                                  |
|   \\  /    A nd           | Website:  www.openfoam.com                      |
|    \\/     M anipulation  |                                                 |
\*---------------------------------------------------------------------------*/
FoamFile
{
    version     2.0;
    format      ascii;
    arch        "LSB;label=32;scalar=64";
    class       surfaceScalarField;
    location    "0.2";
    object      phi;
}
// * * * * * * * * * * * * * * * * * * * * * * * * * * * * * * * * * * * * * //

dimensions      [0 3 -1 0 0 0 0];

oriented        oriented;

internalField   nonuniform List<scalar> 
25926
(
0.00748764
-0.0260266
0.00742067
-0.018246
0.00737341
-0.00635617
0.00734048
0.00478588
0.00732534
0.0117222
0.00732415
0.0131793
0.00732675
0.011383
0.00732794
0.00920891
0.00732853
0.0077773
0.00733006
0.00682072
0.00733227
0.00600425
0.00733511
0.00529731
0.00733799
0.00462302
0.00734088
0.00405534
0.00734327
0.00349062
0.00734525
0.003032
0.00734627
0.00251954
0.00734671
0.00215883
0.00734589
0.0016987
0.00734451
0.00143238
0.00734164
0.00100563
0.00733843
0.000840169
0.0073335
0.000401915
0.00732871
0.000375154
0.00732198
-8.11794e-05
0.00731607
4.20963e-05
0.00730794
-0.000458596
0.00730155
-0.000151395
0.00729233
-0.000758846
0.007286
-0.000201774
0.00727579
-0.000981572
0.00726961
-0.000143629
0.0072579
-0.00116705
0.00725173
5.66012e-05
0.00723822
-0.00124986
0.00723203
0.000454565
0.00721554
-0.00119658
0.00720761
0.00118129
0.00718865
-0.000631399
0.00718571
0.00290619
0.00717707
0.00117642
0.0071944
0.00592215
0.00720927
0.0036253
0.00725764
0.00870989
0.00729451
0.00393362
0.00734757
0.00694066
0.00734319
-0.00275532
0.00735202
-0.000385339
0.00733844
-0.0080983
0.00738913
-0.00665419
0.007444
-0.0151462
0.00755178
-0.0378103
0.00773842
-0.0608358
0.00789075
0.0129742
0.00779953
0.0440144
0.00763665
0.0179848
0.00749377
0.000123285
0.00745262
0.00344318
0.00743277
-0.000905689
0.00743631
0.00302897
0.00742228
-0.00115106
0.00742657
0.00254732
0.00742564
-0.000155143
0.00744304
0.00339319
0.00745166
0.000810095
0.00746994
0.003086
0.00747314
-2.05398e-05
0.00747929
0.00110626
0.00747083
-0.00180319
0.00746368
-0.00125131
0.00744513
-0.00362943
0.00742657
-0.00330625
0.00740004
-0.0048832
0.00737586
-0.00436262
0.00735205
-0.00487815
0.00733598
-0.00388777
-0.00369151
0.00748723
-0.025938
0.00741999
-0.0181787
0.00737293
-0.00630911
0.00734069
0.00481812
0.00732647
0.0117365
0.00732604
0.0131797
0.00732915
0.0113799
0.00733069
0.00920737
0.00733158
0.00777641
0.00733336
0.00681894
0.00733577
0.00600184
0.00733877
0.0052943
0.00734179
0.00462
0.0073448
0.00405233
0.00734729
0.00348814
0.00734936
0.00302992
0.00735046
0.00251844
0.00735097
0.00215832
0.00735022
0.00169945
0.0073489
0.00143371
0.00734611
0.00100842
0.00734296
0.00084332
0.00733809
0.000406778
0.00733336
0.000379886
0.0073267
-7.45214e-05
0.00732086
4.79372e-05
0.00731279
-0.000450526
0.00730646
-0.000145065
0.00729732
-0.000749697
0.00729104
-0.000195497
0.00728089
-0.000971424
0.00727477
-0.000137505
0.00726313
-0.00115541
0.00725701
6.27164e-05
0.00724358
-0.00123642
0.00723745
0.00046069
0.00722107
-0.00118019
0.00721327
0.00118909
0.00719451
-0.000612637
0.00719176
0.00290893
0.00718332
0.00118486
0.00720078
0.00590469
0.00721569
0.00361039
0.00726393
0.00866165
0.00730051
0.00389704
0.00735321
0.00688797
0.00734879
-0.00275091
0.0073577
-0.000394252
0.0073442
-0.0080848
0.00739428
-0.00670427
0.00744819
-0.0152001
0.00755224
-0.0379144
0.00773246
-0.0610161
0.00788368
0.012823
0.007797
0.0441011
0.00763744
0.0181444
0.00749612
0.00026461
0.00745539
0.00348391
0.00743555
-0.000885849
0.00743905
0.00302547
0.00742505
-0.00113706
0.00742939
0.00254298
0.00742845
-0.000154208
0.00744577
0.00337587
0.0074543
0.000801566
0.00747251
0.00306779
0.00747566
-2.36946e-05
0.00748179
0.00110013
0.00747336
-0.00179476
0.00746625
-0.0012442
0.00744779
-0.00361097
0.00742932
-0.00328778
0.00740292
-0.0048568
0.00737886
-0.00433856
0.00735513
-0.00485442
0.00733908
-0.00387172
-0.00368022
0.00748684
-0.0258491
0.00741932
-0.0181112
0.00737245
-0.00626224
0.0073409
0.00484967
0.00732758
0.0117498
0.00732791
0.0131794
0.00733153
0.0113763
0.00733343
0.00920547
0.00733462
0.00777522
0.00733664
0.00681691
0.00733925
0.00599923
0.00734242
0.00529113
0.00734558
0.00461684
0.00734871
0.00404921
0.0073513
0.00348555
0.00735346
0.00302776
0.00735464
0.00251726
0.00735523
0.00215773
0.00735455
0.00170013
0.0073533
0.00143496
0.00735057
0.00101115
0.00734749
0.000846404
0.00734269
0.000411574
0.00733803
0.00038455
0.00733143
-6.79287e-05
0.00732566
5.37117e-05
0.00731766
-0.000442523
0.00731139
-0.0001388
0.00730231
-0.000740616
0.00729609
-0.000189275
0.007286
-0.00096134
0.00727993
-0.000131433
0.00726836
-0.00114384
0.00726231
6.87753e-05
0.00724895
-0.00122307
0.00724289
0.000466754
0.00722661
-0.00116391
0.00721894
0.00119676
0.00720038
-0.000594077
0.00719783
0.00291148
0.00718958
0.00119311
0.00720716
0.0058871
0.00722212
0.00359544
0.00727022
0.00861355
0.00730651
0.00386074
0.00735884
0.00683564
0.0073544
-0.00274647
0.00736339
-0.000403236
0.00734995
-0.00807136
0.00739942
-0.00675374
0.00745233
-0.015253
0.00755267
-0.0380147
0.0077265
-0.0611899
0.00787662
0.0126729
0.00779444
0.0441833
0.0076382
0.0183006
0.00749843
0.000404371
0.00745813
0.00352421
0.00743831
-0.000866022
0.00744178
0.003022
0.00742782
-0.0011231
0.00743221
0.00253859
0.00743126
-0.000153266
0.00744851
0.00335862
0.00745696
0.000793122
0.00747508
0.00304967
0.0074782
-2.68163e-05
0.00748431
0.00109402
0.00747591
-0.00178635
0.00746885
-0.00123714
0.00745047
-0.00359259
0.0074321
-0.00326941
0.00740582
-0.00483053
0.00738189
-0.00431462
0.00735823
-0.00483077
0.0073422
-0.00385569
-0.00366888
0.00748646
-0.0257598
0.00741868
-0.0180435
0.007372
-0.00621555
0.00734112
0.00488054
0.00732869
0.0117622
0.00732977
0.0131783
0.00733391
0.0113722
0.00733616
0.00920322
0.00733765
0.00777374
0.00733992
0.00681463
0.00734274
0.00599642
0.00734607
0.00528779
0.00734937
0.00461354
0.00735262
0.00404596
0.0073553
0.00348287
0.00735756
0.00302551
0.00735882
0.002516
0.00735948
0.00215707
0.00735888
0.00170073
0.00735769
0.00143615
0.00735503
0.00101381
0.00735202
0.000849422
0.00734729
0.000416303
0.00734269
0.000389151
0.00733617
-6.14078e-05
0.00733046
5.94226e-05
0.00732252
-0.000434592
0.00731632
-0.000132594
0.00730731
-0.000731603
0.00730114
-0.000183107
0.00729112
-0.000951322
0.0072851
-0.000125412
0.0072736
-0.00113235
0.0072676
7.47763e-05
0.00725433
-0.00120979
0.00724832
0.000472756
0.00723216
-0.00114775
0.00722462
0.00120429
0.00720626
-0.000575718
0.0072039
0.00291384
0.00719585
0.00120117
0.00721355
0.0058694
0.00722854
0.00358044
0.0072765
0.0085656
0.00731251
0.00382473
0.00736448
0.00678367
0.00736002
-0.002742
0.00736907
-0.000412286
0.00735568
-0.00805797
0.00740453
-0.00680259
0.00745644
-0.0153049
0.00755307
-0.0381113
0.00772056
-0.0613574
0.00786957
0.0125239
0.00779184
0.044261
0.00763889
0.0184536
0.00750071
0.000542546
0.00746086
0.00356406
0.00744105
-0.000846211
0.0074445
0.00301854
0.00743059
-0.00110918
0.00743503
0.00253414
0.00743408
-0.000152316
0.00745126
0.00334145
0.00745962
0.000784762
0.00747767
0.00303162
0.00748076
-2.9906e-05
0.00748685
0.00108793
0.00747847
-0.00177798
0.00747146
-0.00123012
0.00745316
-0.00357429
0.00743488
-0.00325114
0.00740874
-0.00480438
0.00738492
-0.00429081
0.00736135
-0.00480719
0.00734533
-0.00383968
-0.00365748
0.00748609
-0.0256701
0.00741806
-0.0179754
0.00737156
-0.00616905
0.00734135
0.00491076
0.00732979
0.0117738
0.00733163
0.0131765
0.00733628
0.0113675
0.00733889
0.00920061
0.00734067
0.00777196
0.00734319
0.00681211
0.00734621
0.00599341
0.00734972
0.00528428
0.00735316
0.0046101
0.00735652
0.0040426
0.00735931
0.00348008
0.00736165
0.00302317
0.007363
0.00251466
0.00736373
0.00215633
0.0073632
0.00170126
0.00736209
0.00143727
0.0073595
0.0010164
0.00735655
0.000852373
0.00735189
0.000420963
0.00734735
0.000393683
0.0073409
-5.49527e-05
0.00733525
6.50665e-05
0.00732739
-0.00042673
0.00732125
-0.000126452
0.0073123
-0.000722655
0.00730619
-0.000176999
0.00729624
-0.000941367
0.00729027
-0.000119444
0.00727884
-0.00112092
0.0072729
8.07192e-05
0.00725971
-0.0011966
0.00725377
0.000478695
0.00723771
-0.00113169
0.00723031
0.0012117
0.00721215
-0.000557559
0.00720998
0.00291601
0.00720211
0.00120904
0.00721993
0.00585159
0.00723497
0.0035654
0.00728278
0.00851779
0.00731851
0.003789
0.00737012
0.00673205
0.00736563
-0.00273751
0.00737474
-0.000421396
0.00736139
-0.00804462
0.00740962
-0.00685082
0.00746051
-0.0153558
0.00755345
-0.0382043
0.00771463
-0.0615186
0.00786251
0.012376
0.00778919
0.0443343
0.00763953
0.0186032
0.00750296
0.000679117
0.00746357
0.00360345
0.00744378
-0.000826423
0.00744722
0.0030151
0.00743336
-0.00109532
0.00743786
0.00252964
0.00743691
-0.000151361
0.00745401
0.00332434
0.00746229
0.000776483
0.00748027
0.00301364
0.00748332
-3.29632e-05
0.00748939
0.00108186
0.00748105
-0.00176964
0.00747408
-0.00122316
0.00745586
-0.00355607
0.00743769
-0.00323297
0.00741166
-0.00477836
0.00738797
-0.00426712
0.00736447
-0.00478369
0.00734847
-0.00382368
0.00733702
-0.00364602
0.00733213
-0.00274057
0.00732999
-0.00251702
0.00733068
-0.00199319
0.00733077
-0.00203612
0.00732957
-0.00198976
0.00732514
-0.00226658
0.00731766
-0.0024827
0.00730723
-0.00274933
0.007294
-0.0029877
0.00727901
-0.00308646
0.00726151
-0.00318706
0.00724374
-0.00297781
0.00722299
-0.00287804
0.00720325
-0.00231575
0.00717832
-0.00190851
0.00715561
-0.000921739
0.00712366
3.95562e-05
0.00709624
0.00156478
0.00705594
0.00370862
0.00702454
0.0059498
0.0069883
0.0105521
0.0151005
0.00748574
-0.0255801
0.00741748
-0.0179072
0.00737115
-0.00612273
0.00734159
0.00494032
0.0073309
0.0117845
0.00733348
0.0131739
0.00733864
0.0113624
0.00734161
0.00919764
0.00734369
0.00776988
0.00734646
0.00680935
0.00734968
0.00599019
0.00735335
0.00528061
0.00735693
0.00460652
0.00736042
0.00403912
0.00736331
0.00347718
0.00736575
0.00302073
0.00736717
0.00251324
0.00736798
0.00215551
0.00736752
0.00170172
0.00736648
0.00143831
0.00736396
0.00101892
0.00736107
0.000855257
0.00735648
0.000425554
0.00735201
0.000398151
0.00734563
-4.85699e-05
0.00734005
7.06463e-05
0.00733226
-0.000418935
0.00732618
-0.000120373
0.0073173
-0.000713777
0.00731125
-0.000170947
0.00730136
-0.000931478
0.00729545
-0.000113529
0.00728409
-0.00110956
0.0072782
8.66037e-05
0.00726509
-0.00118349
0.00725922
0.000484571
0.00724327
-0.00111575
0.007236
0.00121897
0.00721804
-0.000539601
0.00721606
0.00291799
0.00720839
0.00121672
0.00722632
0.00583365
0.00724139
0.00355033
0.00728906
0.00847012
0.00732451
0.00375355
0.00737577
0.00668079
0.00737124
-0.00273299
0.00738041
-0.000430561
0.00736709
-0.0080313
0.00741468
-0.00689841
0.00746454
-0.0154057
0.0075538
-0.0382936
0.00770873
-0.0616735
0.00785546
0.0122293
0.00778649
0.0444033
0.0076401
0.0187496
0.00750516
0.000814061
0.00746625
0.00364236
0.00744649
-0.000806663
0.00744993
0.00301167
0.00743613
-0.00108152
0.0074407
0.00252507
0.00743974
-0.000150401
0.00745677
0.00330731
0.00746497
0.000768284
0.00748287
0.00299574
0.0074859
-3.59888e-05
0.00749195
0.00107581
0.00748364
-0.00176132
0.00747672
-0.00121624
0.00745858
-0.00353793
0.0074405
-0.00321489
0.0074146
-0.00475246
0.00739103
-0.00424354
0.00736761
-0.00476027
0.00735162
-0.00380769
0.00734011
-0.00363451
0.00733511
-0.00273557
0.00733284
-0.00251475
0.00733342
-0.00199377
0.00733341
-0.00203611
0.00733215
-0.0019885
0.0073277
-0.00226213
0.00732023
-0.00247524
0.00730984
-0.00273894
0.00729667
-0.00297453
0.00728175
-0.00307154
0.00726435
-0.00316966
0.00724669
-0.00296014
0.00722608
-0.00285743
0.00720649
-0.00229616
0.00718177
-0.00188379
0.00715931
-0.000899273
0.00712775
7.11122e-05
0.00710077
0.00159176
0.00706126
0.00374813
0.00703065
0.0059804
0.00699589
0.0105868
0.0151157
0.0074854
-0.0254898
0.00741691
-0.0178387
0.00737077
-0.00607658
0.00734185
0.00496924
0.00733201
0.0117943
0.00733533
0.0131706
0.007341
0.0113567
0.00734433
0.0091943
0.00734671
0.0077675
0.00734972
0.00680633
0.00735314
0.00598676
0.00735699
0.00527677
0.00736071
0.0046028
0.00736431
0.00403552
0.00736731
0.00347418
0.00736983
0.00301821
0.00737134
0.00251173
0.00737223
0.00215462
0.00737184
0.00170211
0.00737087
0.00143929
0.00736842
0.00102137
0.0073656
0.000858072
0.00736108
0.00043008
0.00735668
0.000402549
0.00735036
-4.22535e-05
0.00734485
7.61585e-05
0.00733713
-0.000411213
0.00733111
-0.000114357
0.0073223
-0.000704965
0.0073163
-0.000164951
0.00730648
-0.000921656
0.00730062
-0.000107667
0.00728933
-0.00109827
0.00728351
9.24291e-05
0.00727048
-0.00117046
0.00726467
0.000490382
0.00724884
-0.00109992
0.0072417
0.00122611
0.00722394
-0.000521843
0.00722215
0.00291978
0.00721466
0.00122421
0.0072327
0.00581561
0.00724781
0.00353522
0.00729533
0.0084226
0.0073305
0.00371839
0.00738141
0.00662989
0.00737685
-0.00272843
0.00738607
-0.000439774
0.00737277
-0.008018
0.00741972
-0.00694536
0.00746853
-0.0154545
0.00755415
-0.0383792
0.00770286
-0.0618222
0.00784841
0.0120837
0.00778374
0.0444679
0.00764061
0.0188927
0.00750732
0.000947356
0.00746892
0.00368076
0.00744919
-0.000786937
0.00745262
0.00300824
0.0074389
-0.0010678
0.00744353
0.00252043
0.00744257
-0.000149438
0.00745954
0.00329034
0.00746766
0.000760161
0.00748549
0.00297791
0.00748849
-3.89834e-05
0.00749452
0.00106978
0.00748624
-0.00175304
0.00747937
-0.00120937
0.00746131
-0.00351987
0.00744332
-0.0031969
0.00741755
-0.00472669
0.00739409
-0.00422009
0.00737075
-0.00473693
0.00735478
-0.00379172
0.00734321
-0.00362295
0.0073381
-0.00273046
0.00733571
-0.00251236
0.00733617
-0.00199424
0.00733607
-0.00203601
0.00733474
-0.00198717
0.00733027
-0.00225765
0.00732281
-0.00246778
0.00731246
-0.0027286
0.00729935
-0.00296142
0.00728451
-0.0030567
0.0072672
-0.00315234
0.00724965
-0.0029426
0.00722917
-0.00283695
0.00720974
-0.00227673
0.00718523
-0.00185928
0.00716301
-0.000877053
0.00713185
0.000102274
0.0071053
0.00161831
0.00706657
0.00378686
0.00703676
0.00601022
0.00700344
0.0106201
0.0151294
0.00748508
-0.0253991
0.00741637
-0.01777
0.0073704
-0.00603061
0.00734211
0.00499753
0.00733311
0.0118033
0.00733717
0.0131665
0.00734334
0.0113505
0.00734704
0.00919061
0.00734971
0.00776482
0.00735297
0.00680307
0.0073566
0.00598313
0.00736061
0.00527276
0.00736448
0.00459894
0.0073682
0.00403179
0.0073713
0.00347108
0.00737392
0.00301559
0.00737551
0.00251014
0.00737647
0.00215366
0.00737616
0.00170242
0.00737525
0.0014402
0.00737287
0.00102375
0.00737012
0.000860821
0.00736567
0.000434535
0.00736134
0.000406882
0.00735509
-3.60082e-05
0.00734964
8.16045e-05
0.00734199
-0.00040356
0.00733604
-0.000108403
0.0073273
-0.000696223
0.00732136
-0.000159015
0.0073116
-0.000911898
0.00730579
-0.000101858
0.00729458
-0.00108706
0.00728881
9.81953e-05
0.00727587
-0.00115751
0.00727012
0.000496128
0.0072544
-0.0010842
0.00724739
0.00123312
0.00722983
-0.000504284
0.00722823
0.00292138
0.00722093
0.00123151
0.00723909
0.00579745
0.00725423
0.00352008
0.00730161
0.00837523
0.00733649
0.0036835
0.00738705
0.00657933
0.00738246
-0.00272384
0.00739172
-0.000449029
0.00737843
-0.00800471
0.00742474
-0.00699167
0.00747249
-0.0155022
0.00755448
-0.0384612
0.00769701
-0.0619647
0.00784136
0.0119394
0.00778095
0.0445284
0.00764107
0.0190326
0.00750944
0.00107898
0.00747156
0.00371863
0.00745187
-0.000767249
0.00745531
0.0030048
0.00744167
-0.00105415
0.00744637
0.00251573
0.00744541
-0.000148473
0.00746231
0.00327344
0.00747036
0.000752112
0.00748812
0.00296015
0.00749108
-4.19477e-05
0.0074971
0.00106376
0.00748885
-0.00174479
0.00748203
-0.00120255
0.00746405
-0.00350188
0.00744615
-0.00317901
0.0074205
-0.00470103
0.00739716
-0.00419675
0.0073739
-0.00471366
0.00735795
-0.00377577
0.00734633
-0.00361133
0.00734111
-0.00272524
0.00733859
-0.00250984
0.00733893
-0.00199458
0.00733874
-0.00203582
0.00733735
-0.00198578
0.00733285
-0.00225315
0.0073254
-0.00246034
0.0073151
-0.00271829
0.00730205
-0.00294836
0.00728728
-0.00304194
0.00727006
-0.00313512
0.00725262
-0.00292515
0.00723228
-0.00281661
0.007213
-0.00225745
0.0071887
-0.00183498
0.00716672
-0.000855079
0.00713596
0.00013304
0.00710985
0.00164442
0.00707189
0.00382482
0.00704285
0.00603925
0.00701096
0.010652
0.0151419
0.00748477
-0.0253081
0.00741585
-0.017701
0.00737006
-0.00598482
0.00734239
0.00502519
0.00733422
0.0118115
0.007339
0.0131617
0.00734568
0.0113438
0.00734974
0.00918656
0.00735271
0.00776184
0.00735622
0.00679957
0.00736005
0.0059793
0.00736424
0.00526858
0.00736824
0.00459493
0.00737208
0.00402795
0.00737529
0.00346787
0.007378
0.00301288
0.00737967
0.00250847
0.00738072
0.00215262
0.00738047
0.00170266
0.00737964
0.00144104
0.00737733
0.00102606
0.00737464
0.000863502
0.00737026
0.00043892
0.00736599
0.000411147
0.00735982
-2.98328e-05
0.00735444
8.69856e-05
0.00734685
-0.000395977
0.00734097
-0.000102515
0.00733229
-0.000687547
0.00732641
-0.000153138
0.00731672
-0.000902208
0.00731097
-9.61006e-05
0.00729982
-0.00107592
0.00729412
0.000103901
0.00728125
-0.00114465
0.00727557
0.000501808
0.00725997
-0.0010686
0.00725309
0.00124
0.00723573
-0.000486923
0.00723432
0.00292279
0.0072272
0.00123863
0.00724547
0.00577918
0.00726065
0.0035049
0.00730788
0.008328
0.00734248
0.00364889
0.0073927
0.00652911
0.00738807
-0.00271921
0.00739736
-0.000458322
0.00738407
-0.00799142
0.00742973
-0.00703733
0.00747641
-0.0155489
0.0075548
-0.0385396
0.00769118
-0.0621011
0.00783432
0.0117963
0.0077781
0.0445846
0.00764146
0.0191692
0.00751153
0.00120891
0.00747419
0.00375597
0.00745454
-0.000747603
0.00745799
0.00300136
0.00744443
-0.0010406
0.00744921
0.00251094
0.00744825
-0.000147507
0.00746509
0.0032566
0.00747306
0.000744137
0.00749075
0.00294246
0.00749369
-4.48808e-05
0.00749969
0.00105777
0.00749147
-0.00173658
0.0074847
-0.00119579
0.00746679
-0.00348397
0.00744899
-0.00316121
0.00742346
-0.0046755
0.00740024
-0.00417353
0.00737705
-0.00469047
0.00736112
-0.00375984
0.00734945
-0.00359966
0.00734412
-0.00271991
0.00734148
-0.00250719
0.00734171
-0.00199481
0.00734142
-0.00203553
0.00733997
-0.00198433
0.00733545
-0.00224862
0.00732801
-0.0024529
0.00731774
-0.00270802
0.00730475
-0.00293537
0.00729006
-0.00302726
0.00727293
-0.00311799
0.0072556
-0.00290782
0.00723539
-0.00279639
0.00721627
-0.00223833
0.00719217
-0.00181089
0.00717044
-0.00083335
0.00714007
0.000163417
0.00711439
0.00167009
0.0070772
0.003862
0.00704894
0.00606752
0.00701845
0.0106825
0.015153
0.00748448
-0.0252168
0.00741536
-0.0176319
0.00736974
-0.0059392
0.00734268
0.00505225
0.00733533
0.0118188
0.00734082
0.0131562
0.00734801
0.0113366
0.00735243
0.00918214
0.00735571
0.00775857
0.00735946
0.00679581
0.0073635
0.00597526
0.00736785
0.00526423
0.007372
0.00459078
0.00737596
0.00402399
0.00737927
0.00346456
0.00738208
0.00301008
0.00738383
0.00250671
0.00738495
0.0021515
0.00738478
0.00170283
0.00738402
0.0014418
0.00738177
0.0010283
0.00737916
0.000866114
0.00737485
0.000443238
0.00737065
0.000415346
0.00736454
-2.37274e-05
0.00735923
9.22986e-05
0.00735172
-0.000388465
0.00734589
-9.66878e-05
0.00733728
-0.000678942
0.00733146
-0.000147318
0.00732184
-0.000892583
0.00731614
-9.04009e-05
0.00730507
-0.00106484
0.00729942
0.000109548
0.00728664
-0.00113186
0.00728103
0.000507421
0.00726554
-0.00105311
0.0072588
0.00124674
0.00724163
-0.000469761
0.00724041
0.00292402
0.00723347
0.00124556
0.00725185
0.0057608
0.00726706
0.00348969
0.00731414
0.00828092
0.00734847
0.00361457
0.00739834
0.00647924
0.00739367
-0.00271454
0.00740299
-0.000467647
0.00738969
-0.00797811
0.00743469
-0.00708234
0.0074803
-0.0155945
0.00755511
-0.0386144
0.00768539
-0.0622314
0.00782727
0.0116544
0.0077752
0.0446366
0.0076418
0.0193026
0.00751358
0.00133713
0.00747679
0.00379276
0.00745719
-0.000728004
0.00746065
0.0029979
0.00744719
-0.00102714
0.00745205
0.00250609
0.00745109
-0.00014654
0.00746787
0.00323982
0.00747577
0.000736232
0.0074934
0.00292484
0.0074963
-4.77841e-05
0.00750228
0.00105179
0.0074941
-0.00172841
0.00748739
-0.00118907
0.00746955
-0.00346614
0.00745184
-0.0031435
0.00742643
-0.00465009
0.00740333
-0.00415043
0.00738021
-0.00466735
0.00736429
-0.00374392
0.00735258
-0.00358794
0.00734715
-0.00271448
0.00734438
-0.00250443
0.0073445
-0.00199493
0.00734412
-0.00203515
0.00734261
-0.00198282
0.00733806
-0.00224407
0.00733063
-0.00244548
0.0073204
-0.00269779
0.00730746
-0.00292243
0.00729285
-0.00301265
0.00727581
-0.00310095
0.00725859
-0.0028906
0.00723851
-0.00277631
0.00721954
-0.00221936
0.00719565
-0.001787
0.00717417
-0.000811864
0.00714419
0.000193399
0.00711894
0.00169534
0.00708252
0.00389842
0.00705502
0.00609501
0.00702591
0.0107116
0.0151628
0.00748419
-0.0251253
0.00741488
-0.0175626
0.00736944
-0.00589375
0.00734299
0.0050787
0.00733644
0.0118254
0.00734264
0.01315
0.00735034
0.011329
0.00735512
0.00917735
0.0073587
0.00775499
0.0073627
0.00679182
0.00736694
0.00597101
0.00737146
0.00525971
0.00737575
0.00458649
0.00737983
0.0040199
0.00738325
0.00346114
0.00738615
0.00300719
0.00738799
0.00250488
0.00738918
0.0021503
0.00738909
0.00170292
0.00738839
0.0014425
0.00738622
0.00103047
0.00738367
0.00086866
0.00737943
0.000447485
0.0073753
0.000419476
0.00736926
-1.76921e-05
0.00736401
9.75463e-05
0.00735657
-0.000381025
0.00735081
-9.0926e-05
0.00734227
-0.000670404
0.00733651
-0.000141555
0.00732696
-0.000883027
0.00732131
-8.47568e-05
0.00731031
-0.00105384
0.00730473
0.000115133
0.00729203
-0.00111917
0.00728648
0.000512967
0.00727111
-0.00103773
0.0072645
0.00125335
0.00724753
-0.000452796
0.00724649
0.00292506
0.00723974
0.00125231
0.00725823
0.00574231
0.00727346
0.00347445
0.0073204
0.00823399
0.00735445
0.00358051
0.00740397
0.00642972
0.00739926
-0.00270983
0.00740862
-0.000477001
0.00739529
-0.00796478
0.00743964
-0.00712669
0.00748416
-0.015639
0.00755543
-0.0386856
0.00767963
-0.0623556
0.00782023
0.0115138
0.00777226
0.0446846
0.00764207
0.0194328
0.00751559
0.00146362
0.00747938
0.00382897
0.00745983
-0.000708455
0.00746331
0.00299442
0.00744995
-0.00101378
0.00745489
0.00250115
0.00745393
-0.000145574
0.00747065
0.00322309
0.00747849
0.000728395
0.00749604
0.00290728
0.00749892
-5.06577e-05
0.00750488
0.00104582
0.00749674
-0.00172027
0.00749007
-0.0011824
0.00747231
-0.00344837
0.0074547
-0.00312589
0.00742941
-0.0046248
0.00740642
-0.00412745
0.00738338
-0.00464431
0.00736747
-0.00372802
0.00735571
-0.00357618
0.00735018
-0.00270895
0.00734729
-0.00250154
0.0073473
-0.00199494
0.00734683
-0.00203467
0.00734525
-0.00198124
0.00734068
-0.00223949
0.00733326
-0.00243806
0.00732307
-0.0026876
0.00731019
-0.00290955
0.00729565
-0.00299811
0.0072787
-0.003084
0.00726158
-0.00287348
0.00724163
-0.00275636
0.00722281
-0.00220054
0.00719914
-0.00176333
0.0071779
-0.000790623
0.00714831
0.000222994
0.00712348
0.00172017
0.00708783
0.00393408
0.0070611
0.00612174
0.00703334
0.0107394
0.0151714
0.00748392
-0.0250334
0.00741443
-0.0174931
0.00736916
-0.00584848
0.0073433
0.00510455
0.00733755
0.0118311
0.00734446
0.0131431
0.00735265
0.0113208
0.0073578
0.00917221
0.00736168
0.00775112
0.00736592
0.00678757
0.00737037
0.00596656
0.00737506
0.00525502
0.00737949
0.00458206
0.0073837
0.0040157
0.00738722
0.00345762
0.00739021
0.0030042
0.00739213
0.00250295
0.00739341
0.00214903
0.00739339
0.00170294
0.00739276
0.00144313
0.00739066
0.00103257
0.00738818
0.000871137
0.00738401
0.000451662
0.00737994
0.00042354
0.00737398
-1.17271e-05
0.0073688
0.000102726
0.00736143
-0.000373653
0.00735573
-8.52281e-05
0.00734726
-0.000661936
0.00734156
-0.000135853
0.00733207
-0.000873536
0.00732648
-7.9167e-05
0.00731555
-0.00104292
0.00731003
0.000120658
0.00729741
-0.00110655
0.00729193
0.000518445
0.00727667
-0.00102247
0.0072702
0.00125982
0.00725343
-0.000436028
0.00725257
0.00292592
0.007246
0.00125889
0.0072646
0.00572372
0.00727986
0.00345919
0.00732665
0.0081872
0.00736042
0.00354674
0.00740961
0.00638053
0.00740485
-0.00270507
0.00741423
-0.000486376
0.00740087
-0.00795142
0.00744456
-0.00717038
0.00748798
-0.0156824
0.00755574
-0.0387534
0.00767391
-0.0624738
0.00781319
0.0113745
0.00776927
0.0447285
0.0076423
0.0195598
0.00751757
0.00158834
0.00748194
0.0038646
0.00746245
-0.000688959
0.00746595
0.00299091
0.00745271
-0.00100054
0.00745773
0.00249613
0.00745677
-0.00014461
0.00747343
0.00320643
0.0074812
0.000720625
0.0074987
0.00288978
0.00750154
-5.35015e-05
0.00750749
0.00103987
0.00749939
-0.00171216
0.00749277
-0.00117578
0.00747508
-0.00343069
0.00745756
-0.00310836
0.00743238
-0.00459963
0.00740951
-0.00410457
0.00738654
-0.00462134
0.00737066
-0.00371213
0.00735884
-0.00356436
0.00735321
-0.00270332
0.00735022
-0.00249854
0.00735011
-0.00199484
0.00734955
-0.00203411
0.00734791
-0.0019796
0.00734331
-0.00223489
0.0073359
-0.00243066
0.00732575
-0.00267745
0.00731292
-0.00289673
0.00729845
-0.00298364
0.00728159
-0.00306714
0.00726459
-0.00285648
0.00724477
-0.00273654
0.0072261
-0.00218187
0.00720263
-0.00173987
0.00718163
-0.000769622
0.00715243
0.000252195
0.00712804
0.00174456
0.00709313
0.00396898
0.00706716
0.00614771
0.00704075
0.0107658
0.0151787
0.00748365
-0.0249413
0.007414
-0.0174235
0.0073689
-0.00580338
0.00734363
0.00512982
0.00733867
0.0118361
0.00734627
0.0131355
0.00735496
0.0113121
0.00736048
0.0091667
0.00736465
0.00774694
0.00736914
0.00678308
0.0073738
0.00596191
0.00737865
0.00525017
0.00738323
0.00457749
0.00738756
0.00401137
0.00739119
0.00345399
0.00739427
0.00300112
0.00739628
0.00250094
0.00739763
0.00214768
0.00739768
0.00170289
0.00739712
0.00144368
0.00739509
0.0010346
0.00739269
0.000873544
0.00738858
0.000455772
0.00738458
0.000427535
0.00737869
-5.83247e-06
0.00737357
0.000107839
0.00736628
-0.000366354
0.00736064
-7.95944e-05
0.00735224
-0.000653534
0.0073466
-0.000130211
0.00733717
-0.000864112
0.00733164
-7.36328e-05
0.00732079
-0.00103206
0.00731532
0.000126121
0.00730279
-0.00109402
0.00729738
0.000523855
0.00728224
-0.00100733
0.0072759
0.00126616
0.00725933
-0.000419456
0.00725865
0.00292659
0.00725226
0.00126528
0.00727096
0.00570502
0.00728625
0.00344389
0.00733289
0.00814057
0.00736639
0.00351324
0.00741523
0.00633168
0.00741043
-0.00270027
0.00741982
-0.00049577
0.00740643
-0.00793803
0.00744945
-0.0072134
0.00749178
-0.0157248
0.00755606
-0.0388177
0.00766822
-0.0625859
0.00780616
0.0112366
0.00776623
0.0447685
0.00764246
0.0196836
0.00751952
0.00171129
0.00748449
0.00389962
0.00746505
-0.00066952
0.00746859
0.00298738
0.00745546
-0.000987411
0.00746057
0.00249102
0.0074596
-0.000143648
0.00747622
0.00318982
0.00748392
0.00071292
0.00750135
0.00287235
0.00750417
-5.63152e-05
0.0075101
0.00103394
0.00750204
-0.0017041
0.00749547
-0.00116922
0.00747785
-0.00341307
0.00746042
-0.00309092
0.00743536
-0.00457458
0.00741261
-0.00408182
0.00738971
-0.00459845
0.00737384
-0.00369626
0.00736198
-0.0035525
0.00735626
-0.0026976
0.00735315
-0.00249543
0.00735293
-0.00199463
0.00735228
-0.00203345
0.00735058
-0.0019779
0.00734595
-0.00223027
0.00733855
-0.00242326
0.00732843
-0.00266733
0.00731566
-0.00288396
0.00730126
-0.00296925
0.00728449
-0.00305037
0.00726759
-0.00283957
0.0072479
-0.00271685
0.00722938
-0.00216335
0.00720613
-0.00171661
0.00718537
-0.000748865
0.00715656
0.000281008
0.00713259
0.00176853
0.00709844
0.00400313
0.00707322
0.00617293
0.00704812
0.0107909
0.0151847
0.0074834
-0.024849
0.00741358
-0.0173537
0.00736866
-0.00575845
0.00734397
0.00515451
0.00733978
0.0118403
0.00734807
0.0131272
0.00735727
0.0113029
0.00736314
0.00916082
0.00736762
0.00774247
0.00737235
0.00677834
0.00737721
0.00595705
0.00738224
0.00524514
0.00738696
0.00457277
0.00739141
0.00400692
0.00739515
0.00345025
0.00739832
0.00299794
0.00740041
0.00249885
0.00740184
0.00214625
0.00740197
0.00170276
0.00740148
0.00144417
0.00739952
0.00103657
0.00739718
0.000875884
0.00739314
0.00045981
0.00738921
0.000431463
0.00738339
-8.22207e-09
0.00737835
0.000112885
0.00737112
-0.000359126
0.00736555
-7.40232e-05
0.00735722
-0.000645204
0.00735163
-0.000124627
0.00734228
-0.000854755
0.0073368
-6.81542e-05
0.00732602
-0.00102128
0.00732061
0.000131522
0.00730817
-0.00108158
0.00730283
0.000529195
0.0072878
-0.000992296
0.00728159
0.00127237
0.00726522
-0.000403079
0.00726472
0.00292709
0.00725851
0.00127149
0.00727731
0.00568622
0.00729263
0.00342858
0.00733912
0.00809408
0.00737234
0.00348002
0.00742085
0.00628317
0.007416
-0.00269542
0.00742541
-0.000505177
0.00741197
-0.00792459
0.00745432
-0.00725575
0.00749555
-0.015766
0.00755639
-0.0388785
0.00766258
-0.0626921
0.00779913
0.0111
0.00776315
0.0448044
0.00764258
0.0198041
0.00752143
0.00183244
0.00748702
0.00393403
0.00746764
-0.000650141
0.00747121
0.00298381
0.0074582
-0.000974407
0.0074634
0.00248582
0.00746244
-0.000142688
0.007479
0.00317326
0.00748664
0.000705278
0.00750401
0.00285498
0.0075068
-5.90999e-05
0.00751272
0.00102802
0.00750469
-0.00169608
0.00749817
-0.0011627
0.00748063
-0.00339553
0.00746328
-0.00307357
0.00743834
-0.00454964
0.0074157
-0.00405917
0.00739288
-0.00457562
0.00737703
-0.00368041
0.00736512
-0.0035406
0.0073593
-0.00269178
0.00735608
-0.00249221
0.00735576
-0.00199431
0.00735502
-0.00203271
0.00735325
-0.00197613
0.0073486
-0.00222561
0.0073412
-0.00241586
0.00733112
-0.00265725
0.0073184
-0.00287124
0.00730408
-0.00295493
0.0072874
-0.00303369
0.0072706
-0.00282278
0.00725104
-0.00269729
0.00723268
-0.00214499
0.00720963
-0.00169357
0.00718911
-0.000728349
0.00716069
0.000309432
0.00713714
0.00179208
0.00710374
0.00403653
0.00707926
0.00619741
0.00705546
0.0108147
0.0151895
0.00748316
-0.0247564
0.00741318
-0.0172837
0.00736843
-0.0057137
0.00734432
0.00517862
0.00734089
0.0118437
0.00734987
0.0131183
0.00735956
0.0112932
0.0073658
0.00915458
0.00737057
0.0077377
0.00737556