/*--------------------------------*- C++ -*----------------------------------*\
| =========                 |                                                 |
| \\      /  F ield         | OpenFOAM: The Open Source CFD Toolbox           |
|  \\    /   O peration     | Version:  2412                                  |
|   \\  /    A nd           | Website:  www.openfoam.com                      |
|    \\/     M anipulation  |                                                 |
\*---------------------------------------------------------------------------*/
FoamFile
{
    version     2.0;
    format      ascii;
    arch        "LSB;label=32;scalar=64";
    class       volVectorField;
    location    "0.2";
    object      U;
}
// * * * * * * * * * * * * * * * * * * * * * * * * * * * * * * * * * * * * * //

dimensions      [0 1 -1 0 0 0 0];

internalField   nonuniform List<vector> 
13079
(
(100.044 1.37697 0)
(100.449 6.68942 -8.8847e-17)
(101.151 14.7779 -6.93286e-21)
(102.132 22.4329 0)
(103.312 27.341 0)
(104.864 28.6991 0)
(106.559 27.9221 0)
(108.328 26.9084 0)
(110.119 26.3986 -8.63401e-17)
(111.996 26.219 8.26666e-17)
(113.961 26.1566 0)
(116.003 26.1807 0)
(118.152 26.2528 0)
(120.359 26.4095 7.55748e-17)
(122.693 26.594 0)
(125.067 26.8649 0)
(127.597 27.1412 -7.07898e-17)
(130.145 27.5175 -6.90944e-17)
(132.892 27.874 -4.14494e-21)
(135.624 28.3583 -6.57147e-17)
(138.621 28.7894 0)
(141.553 29.3938 -6.22215e-17)
(144.85 29.898 6.05639e-17)
(148.004 30.6418 0)
(151.666 31.2182 0)
(155.068 32.1289 0)
(159.19 32.7757 5.32575e-17)
(162.867 33.8858 -5.10694e-17)
(167.572 34.5978 -2.86681e-21)
(171.55 35.9424 0)
(176.995 36.7124 0)
(181.29 38.3356 0)
(187.671 39.161 0)
(192.279 41.1227 0)
(199.853 42.0266 3.79161e-17)
(204.772 44.4017 -3.45323e-17)
(213.875 45.4252 -3.4005e-17)
(219.061 48.3164 -2.99681e-17)
(230.063 49.6854 2.99574e-17)
(235.644 53.4647 -2.50892e-17)
(249.445 55.5364 0)
(256.09 60.3876 -2.01485e-17)
(274.075 63.0389 -2.21621e-17)
(282.64 68.6011 -3.07677e-17)
(306.505 70.9293 3.81514e-17)
(317.294 75.6143 0)
(347.08 76.0301 -1.61488e-17)
(357.048 80.1539 0)
(393.795 83.5605 0)
(407.704 88.0441 0)
(459.928 94.5587 -7.01476e-18)
(485.326 85.4793 0)
(558.75 95.1674 0)
(625.124 -0.689871 0)
(573.712 -49.7483 -2.32795e-18)
(542.793 -66.0403 0)
(489.091 -69.7116 9.22202e-21)
(469.499 -64.7179 -8.33344e-18)
(436.001 -62.7706 2.87548e-21)
(423.565 -58.4243 -2.3892e-18)
(397.159 -57.373 -5.26698e-18)
(386.001 -53.38 0)
(364.856 -52.1266 0)
(355.551 -48.4834 -3.46787e-21)
(338.695 -47.7672 9.61001e-18)
(330.346 -45.0894 8.29762e-18)
(316.322 -45.1197 -1.18175e-17)
(308.098 -43.2113 -1.12075e-17)
(295.951 -43.3675 1.38998e-17)
(287.784 -41.8542 -1.37907e-17)
(277.119 -41.8854 1.58861e-17)
(269.168 -40.5428 2.96323e-21)
(259.685 -40.2214 0)
(252.112 -38.8011 0)
(243.802 -37.9523 1.98896e-17)
(237.062 -36.3432 2.06319e-17)
(230.088 -35.2197 -2.20764e-17)
(100.042 1.36438 0)
(100.44 6.6609 8.88046e-17)
(101.141 14.7353 -1.84833e-16)
(102.128 22.3807 0)
(103.322 27.2782 0)
(104.886 28.6281 0)
(106.592 27.849 0)
(108.367 26.8359 0)
(110.162 26.3259 -8.63212e-17)
(112.044 26.145 0)
(114.014 26.0812 0)
(116.06 26.1038 0)
(118.212 26.1746 0)
(120.423 26.3299 0)
(122.76 26.5133 0)
(125.137 26.7829 0)
(127.669 27.0582 4.11534e-21)
(130.22 27.4332 6.90989e-17)
(132.97 27.7886 -6.74801e-17)
(135.704 28.2714 0)
(138.705 28.7015 -6.40648e-17)
(141.64 29.3041 6.22158e-17)
(144.94 29.8072 0)
(148.097 30.5488 -5.8612e-17)
(151.764 31.1239 0)
(155.168 32.0317 0)
(159.295 32.6773 -3.21936e-21)
(162.975 33.7837 5.1071e-17)
(167.686 34.4944 -4.94996e-17)
(171.668 35.8344 0)
(177.118 36.6032 4.56897e-17)
(181.418 38.2209 0)
(187.805 39.0456 0)
(192.418 41.0007 0)
(199.999 41.9042 -1.63325e-21)
(204.926 44.2714 3.45297e-17)
(214.035 45.2953 0)
(219.232 48.1783 0)
(230.245 49.5472 2.99519e-17)
(235.842 53.3143 -2.50781e-17)
(249.656 55.3804 2.59251e-17)
(256.319 60.2123 2.01396e-17)
(274.315 62.8518 2.95654e-22)
(282.896 68.3872 3.94037e-21)
(306.76 70.702 -1.90705e-17)
(317.553 75.3672 1.08733e-17)
(347.331 75.7936 0)
(357.335 79.9071 5.16993e-18)
(394.089 83.298 0)
(408.039 87.7348 -1.33184e-18)
(460.2 94.1863 7.01695e-18)
(485.586 85.0462 8.36098e-18)
(558.561 94.4814 -2.28586e-18)
(624.391 -0.742419 0)
(573.373 -49.3472 -1.01808e-20)
(542.771 -65.6372 -1.62702e-17)
(489.223 -69.3729 9.08657e-21)
(469.668 -64.4612 0)
(436.168 -62.5454 -6.13131e-18)
(423.719 -58.2193 0)
(397.307 -57.17 0)
(386.144 -53.1943 -1.48112e-18)
(364.998 -51.9486 0)
(355.682 -48.3209 -5.00899e-18)
(338.819 -47.6071 -9.60616e-18)
(330.46 -44.9387 0)
(316.43 -44.966 1.92179e-21)
(308.201 -43.0632 1.12046e-17)
(296.051 -43.216 1.38933e-17)
(287.882 -41.7078 -1.37804e-17)
(277.216 -41.7372 -3.17667e-17)
(269.265 -40.399 1.60996e-17)
(259.784 -40.0776 1.78174e-17)
(252.213 -38.6633 -1.83258e-17)
(243.903 -37.8193 4.69683e-22)
(237.163 -36.2187 -2.06285e-17)
(230.185 -35.1016 2.20722e-17)
(100.04 1.35207 0)
(100.431 6.63251 -8.87778e-17)
(101.132 14.6923 9.23689e-17)
(102.125 22.3278 0)
(103.331 27.2147 0)
(104.908 28.5565 0)
(106.623 27.7756 0)
(108.405 26.7631 0)
(110.206 26.253 8.63126e-17)
(112.093 26.0707 8.26594e-17)
(114.066 26.0056 0)
(116.116 26.0267 0)
(118.272 26.0963 -7.71692e-17)
(120.486 26.2502 0)
(122.826 26.4325 -7.40152e-17)
(125.206 26.7008 7.23787e-17)
(127.742 26.9751 7.07951e-17)
(130.294 27.3486 0)
(133.048 27.7031 -6.7476e-17)
(135.785 28.1843 0)
(138.789 28.6134 6.40683e-17)
(141.726 29.2142 -1.24434e-16)
(145.03 29.7162 0)
(148.19 30.4555 5.86146e-17)
(151.861 31.0295 -5.69544e-17)
(155.269 31.9344 5.48947e-17)
(159.4 32.5788 -5.32583e-17)
(163.085 33.6814 0)
(167.8 34.3909 0)
(171.786 35.7263 0)
(177.242 36.494 -4.56901e-17)
(181.546 38.106 0)
(187.939 38.9299 -4.18256e-17)
(192.558 40.8784 0)
(200.145 41.7815 -3.79113e-17)
(205.08 44.1409 -3.45182e-17)
(214.196 45.1651 3.39942e-17)
(219.404 48.0399 2.99469e-17)
(230.427 49.4086 -2.99475e-17)
(236.04 53.1635 2.50741e-17)
(249.867 55.224 -2.5921e-17)
(256.549 60.0365 -2.01369e-17)
(274.556 62.6644 3.38939e-22)
(283.152 68.1728 3.07461e-17)
(307.015 70.4745 1.90618e-17)
(317.812 75.1199 -1.08698e-17)
(347.582 75.5567 0)
(357.621 79.6597 -1.03287e-17)
(394.383 83.035 1.15346e-17)
(408.372 87.4251 2.66958e-18)
(460.47 93.8137 0)
(485.842 84.6143 -8.37427e-18)
(558.372 93.8 2.29722e-18)
(623.66 -0.794295 1.12211e-18)
(573.033 -48.949 1.19201e-18)
(542.747 -65.2359 3.26738e-17)
(489.351 -69.0348 8.92417e-21)
(469.836 -64.2045 -8.30941e-18)
(436.333 -62.3199 3.06531e-18)
(423.872 -58.0139 -2.40304e-18)
(397.456 -56.9669 5.26197e-18)
(386.288 -53.0086 1.48059e-18)
(365.139 -51.7705 -7.3443e-18)
(355.814 -48.1583 0)
(338.943 -47.4468 0)
(330.574 -44.7878 8.27911e-18)
(316.539 -44.8122 1.18092e-17)
(308.304 -42.915 0)
(296.151 -43.0645 -1.38913e-17)
(287.981 -41.5613 3.971e-21)
(277.314 -41.589 3.17606e-17)
(269.364 -40.2552 0)
(259.882 -39.9339 -1.78165e-17)
(252.314 -38.5255 1.83244e-17)
(244.005 -37.6862 -1.98851e-17)
(237.264 -36.0942 0)
(230.283 -34.9835 0)
(100.039 1.34004 0)
(100.423 6.60452 0)
(101.123 14.6496 0)
(102.121 22.2747 0)
(103.341 27.1507 0)
(104.93 28.4844 0)
(106.655 27.7016 0)
(108.443 26.6899 0)
(110.25 26.1797 0)
(112.141 25.9961 -8.26622e-17)
(114.119 25.9297 -8.04837e-17)
(116.173 25.9493 0)
(118.332 26.0177 7.71747e-17)
(120.549 26.1703 7.55743e-17)
(122.892 26.3515 3.97624e-21)
(125.275 26.6185 -4.17147e-21)
(127.814 26.8917 0)
(130.369 27.2639 6.90945e-17)
(133.125 27.6174 1.34956e-16)
(135.865 28.0971 6.57083e-17)
(138.873 28.5252 0)
(141.813 29.1241 1.24431e-16)
(145.12 29.6251 6.05575e-17)
(148.283 30.362 0)
(151.958 30.9349 5.69571e-17)
(155.37 31.8369 -5.48967e-17)
(159.505 32.48 5.3254e-17)
(163.194 33.5789 0)
(167.914 34.2871 0)
(171.905 35.6179 -4.7126e-17)
(177.365 36.3844 0)
(181.674 37.9909 0)
(188.073 38.8141 4.1825e-17)
(192.698 40.7558 0)
(200.292 41.6585 -3.79067e-17)
(205.234 44.0102 3.45159e-17)
(214.357 45.0346 -3.39909e-17)
(219.576 47.9013 -5.98817e-17)
(230.609 49.2697 -2.99427e-17)
(236.239 53.0123 0)
(250.078 55.0672 2.59178e-17)
(256.779 59.8603 2.0129e-17)
(274.796 62.4765 2.21558e-17)
(283.408 67.9582 -3.07372e-17)
(307.269 70.2467 -2.85521e-21)
(318.07 74.8723 0)
(347.834 75.3195 0)
(357.908 79.4118 5.15889e-18)
(394.676 82.7713 -2.30628e-17)
(408.705 87.1148 -1.33777e-18)
(460.74 93.4411 0)
(486.095 84.1836 0)
(558.182 93.1231 -2.32896e-18)
(622.931 -0.845685 -1.12923e-18)
(572.691 -48.5539 0)
(542.717 -64.8361 -1.64038e-17)
(489.477 -68.6971 -1.63863e-18)
(470.003 -63.9476 2.90603e-21)
(436.498 -62.0941 0)
(424.024 -57.8083 2.40221e-18)
(397.604 -56.7637 -5.26062e-18)
(386.432 -52.8227 -1.47251e-18)
(365.281 -51.5923 -3.27313e-22)
(355.946 -47.9956 4.99501e-18)
(339.068 -47.2864 0)
(330.688 -44.6369 -8.27709e-18)
(316.649 -44.6583 0)
(308.408 -42.7668 0)
(296.252 -42.913 0)
(288.08 -41.4149 2.75426e-17)
(277.412 -41.4408 -1.58785e-17)
(269.463 -40.1115 0)
(259.982 -39.7902 -1.78148e-17)
(252.416 -38.3878 1.83204e-17)
(244.107 -37.5532 1.98841e-17)
(237.366 -35.9697 2.06218e-17)
(230.38 -34.8652 -2.20666e-17)
(100.037 1.32827 0)
(100.415 6.57672 0)
(101.114 14.6068 0)
(102.118 22.2213 0)
(103.35 27.0861 0)
(104.952 28.4117 1.1456e-16)
(106.687 27.6273 0)
(108.481 26.6164 0)
(110.293 26.1062 0)
(112.189 25.9213 -8.26569e-17)
(114.172 25.8536 1.60974e-16)
(116.229 25.8718 7.8745e-17)
(118.392 25.9389 -7.71724e-17)
(120.612 26.0902 -7.55797e-17)
(122.958 26.2703 7.40215e-17)
(125.344 26.536 -7.23843e-17)
(127.885 26.8082 0)
(130.443 27.179 -4.24869e-21)
(133.203 27.5315 -6.74802e-17)
(135.946 28.0096 -4.32077e-21)
(138.956 28.4367 0)
(141.899 29.0338 -6.22166e-17)
(145.211 29.5337 -3.75177e-21)
(148.377 30.2684 0)
(152.056 30.8401 0)
(155.471 31.7392 5.48902e-17)
(159.611 32.381 -5.32561e-17)
(163.303 33.4762 0)
(168.028 34.1832 0)
(172.023 35.5093 4.7127e-17)
(177.489 36.2747 -4.56838e-17)
(181.803 37.8756 -4.30716e-17)
(188.207 38.6979 -4.18205e-17)
(192.839 40.6331 -3.88644e-17)
(200.438 41.5353 1.6328e-21)
(205.388 43.8791 3.4505e-17)
(214.518 44.9039 0)
(219.748 47.7623 2.99352e-17)
(230.791 49.1304 2.99393e-17)
(236.438 52.8606 0)
(250.289 54.9099 4.236e-23)
(257.009 59.6836 -2.01275e-17)
(275.036 62.2882 2.21547e-17)
(283.663 67.7431 1.53667e-17)
(307.524 70.0186 -2.85126e-21)
(318.329 74.6246 -1.08403e-17)
(348.085 75.0819 0)
(358.194 79.1634 5.14012e-18)
(394.97 82.507 1.15284e-17)
(409.035 86.8041 0)
(461.008 93.0684 0)
(486.344 83.7542 0)
(557.993 92.451 2.34024e-18)
(622.205 -0.896438 -1.12939e-18)
(572.346 -48.1618 0)
(542.683 -64.4379 0)
(489.599 -68.3598 0)
(470.168 -63.6906 1.65783e-17)
(436.662 -61.8679 3.07022e-18)
(424.176 -57.6024 0)
(397.752 -56.5603 0)
(386.576 -52.6368 2.94045e-18)
(365.423 -51.414 7.34069e-18)
(356.078 -47.8326 -4.99364e-18)
(339.192 -47.1259 0)
(330.803 -44.4858 0)
(316.758 -44.5044 0)
(308.512 -42.6185 0)
(296.353 -42.7615 0)
(288.18 -41.2685 -3.92846e-21)
(277.511 -41.2927 1.58748e-17)
(269.563 -39.9678 0)
(260.082 -39.6465 5.57583e-22)
(252.519 -38.2501 -1.46529e-21)
(244.209 -37.4201 4.05396e-22)
(237.468 -35.8451 -2.06198e-17)
(230.478 -34.7469 2.20638e-17)
(224.686 -33.3314 0)
(218.773 -32.3617 2.42627e-17)
(213.686 -31.3072 -1.57874e-21)
(208.483 -30.6049 -1.52741e-21)
(203.824 -29.9208 5.45793e-17)
(199.014 -29.4268 5.67365e-17)
(194.595 -28.9479 2.93215e-17)
(190.032 -28.4819 3.03321e-17)
(185.844 -28.0501 6.26074e-17)
(181.502 -27.4958 3.22545e-17)
(177.589 -27.0217 -3.32554e-17)
(173.44 -26.3031 -1.04358e-21)
(169.852 -25.7351 3.51792e-17)
(165.834 -24.8043 -7.1956e-17)
(162.62 -24.089 -3.70487e-17)
(158.583 -22.8788 -4.0909e-22)
(155.805 -21.8648 -3.88563e-17)
(151.516 -20.2599 -7.8232e-17)
(149.311 -18.5644 4.04913e-17)
(144.534 -16.4314 4.00275e-17)
(143.163 -13.2398 -4.20237e-17)
(138.093 -9.55913 -4.21419e-17)
(100.035 1.31675 9.28969e-17)
(100.407 6.54915 0)
(101.106 14.5639 9.2208e-17)
(102.115 22.1674 0)
(103.36 27.0209 -1.13612e-16)
(104.974 28.3385 -1.14366e-16)
(106.718 27.5525 0)
(108.518 26.5426 0)
(110.336 26.0324 0)
(112.238 25.8462 8.26596e-17)
(114.224 25.7773 -1.60977e-16)
(116.286 25.794 -7.87507e-17)
(118.452 25.86 3.91432e-21)
(120.675 26.0099 -7.55769e-17)
(123.024 26.1889 0)
(125.412 26.4533 0)
(127.957 26.7245 0)
(130.518 27.094 -4.23279e-21)
(133.281 27.4454 0)
(136.026 27.922 -6.57117e-17)
(139.04 28.3481 6.40632e-17)
(141.986 28.9434 6.22113e-17)
(145.301 29.4421 -3.73745e-21)
(148.47 30.1746 5.86052e-17)
(152.153 30.7451 0)
(155.572 31.6412 -1.0978e-16)
(159.716 32.2818 -5.32521e-17)
(163.412 33.3733 0)
(168.142 34.079 0)
(172.141 35.4004 -4.71194e-17)
(177.612 36.1647 2.46121e-21)
(181.931 37.76 4.30717e-17)
(188.341 38.5815 4.18204e-17)
(192.979 40.51 7.77228e-17)
(200.585 41.4117 3.79031e-17)
(205.542 43.7478 -3.45032e-17)
(214.679 44.7728 0)
(219.92 47.6229 -2.99238e-17)
(230.973 48.9907 -2.99354e-17)
(236.637 52.7086 0)
(250.501 54.7522 -2.59128e-17)
(257.24 59.5065 0)
(275.277 62.0995 -2.21548e-17)
(283.919 67.5278 0)
(307.778 69.7903 -3.81014e-17)
(318.587 74.3767 2.16685e-17)
(348.337 74.844 0)
(358.48 78.9143 -5.1395e-18)
(395.262 82.242 1.15177e-17)
(409.364 86.4929 0)
(461.274 92.6956 0)
(486.589 83.3261 0)
(557.805 91.7836 2.37156e-18)
(621.482 -0.946565 1.13682e-18)
(572 -47.7726 0)
(542.645 -64.0412 0)
(489.718 -68.023 0)
(470.331 -63.4335 -8.27877e-18)
(436.825 -61.6415 -3.06858e-18)
(424.327 -57.3962 2.41641e-18)
(397.9 -56.3568 0)
(386.721 -52.4508 -2.93219e-18)
(365.565 -51.2355 0)
(356.21 -47.6696 0)
(339.318 -46.9652 -9.59207e-18)
(330.919 -44.3346 0)
(316.869 -44.3504 -1.17963e-17)
(308.617 -42.4702 0)
(296.455 -42.61 1.38806e-17)
(288.281 -41.1221 -3.91521e-21)
(277.61 -41.1446 -1.58744e-17)
(269.663 -39.8241 0)
(260.182 -39.5029 1.7814e-17)
(252.622 -38.1125 -1.83177e-17)
(244.312 -37.2871 3.93605e-22)
(237.57 -35.7205 0)
(230.577 -34.6284 -2.20622e-17)
(224.78 -33.2197 0)
(218.859 -32.2541 2.42589e-17)
(213.767 -31.2034 -2.51804e-17)
(208.559 -30.5028 -2.6363e-17)
(203.897 -29.8198 -5.45738e-17)
(199.083 -29.3259 -2.83673e-17)
(194.663 -28.8472 -2.93177e-17)
(190.099 -28.3817 0)
(185.911 -27.9503 -3.13041e-17)
(181.569 -27.3973 0)
(177.657 -26.9238 3.32573e-17)
(173.509 -26.2073 -3.41498e-17)
(169.923 -25.6396 3.51822e-17)
(165.906 -24.7118 3.59809e-17)
(162.695 -23.9954 3.70534e-17)
(158.662 -22.7893 3.76909e-17)
(155.889 -21.7715 3.88638e-17)
(151.609 -20.1732 3.91244e-17)
(149.41 -18.4715 -4.05049e-17)
(144.656 -16.3501 -4.00441e-17)
(143.291 -13.1572 4.20448e-17)
(138.271 -9.49892 4.21639e-17)
(100.034 1.30547 -9.28751e-17)
(100.4 6.52179 -8.86317e-17)
(101.098 14.521 -9.21652e-17)
(102.112 22.1132 0)
(103.37 26.9552 1.1345e-16)
(104.996 28.2647 0)
(106.75 27.4774 -1.04137e-16)
(108.556 26.4685 0)
(110.38 25.9583 0)
(112.286 25.7709 0)
(114.277 25.7007 8.04919e-17)
(116.342 25.716 -7.87485e-17)
(118.511 25.7808 3.90083e-21)
(120.738 25.9294 7.55824e-17)
(123.09 26.1073 0)
(125.481 26.3705 0)
(128.029 26.6406 0)
(130.593 27.0087 -1.38194e-16)
(133.358 27.3591 6.74766e-17)
(136.106 27.8343 0)
(139.124 28.2593 -1.2813e-16)
(142.073 28.8527 -6.22147e-17)
(145.391 29.3504 -6.05592e-17)
(148.563 30.0805 -5.8608e-17)
(152.25 30.6499 0)
(155.672 31.5431 5.48903e-17)
(159.821 32.1824 3.13957e-21)
(163.521 33.2702 0)
(168.256 33.9745 4.94903e-17)
(172.259 35.2914 9.42371e-17)
(177.736 36.0545 4.56831e-17)
(182.06 37.6442 0)
(188.476 38.4649 -4.18163e-17)
(193.119 40.3868 -7.77127e-17)
(200.731 41.288 0)
(205.696 43.6162 0)
(214.84 44.6414 3.39782e-17)
(220.093 47.4832 5.98376e-17)
(231.156 48.8506 2.99327e-17)
(236.837 52.5561 2.50463e-17)
(250.712 54.594 2.59111e-17)
(257.47 59.329 -2.01172e-17)
(275.518 61.9103 0)
(284.174 67.312 0)
(308.032 69.5618 1.90492e-17)
(318.846 74.1285 -1.08285e-17)
(348.589 74.6057 0)
(358.766 78.6646 5.12119e-18)
(395.555 81.9765 -1.15179e-17)
(409.692 86.1812 0)
(461.54 92.3228 0)
(486.831 82.8992 8.40205e-18)
(557.617 91.121 -2.38259e-18)
(620.762 -0.996063 -1.13728e-18)
(571.651 -47.3862 0)
(542.601 -63.6459 1.65945e-17)
(489.833 -67.6866 1.67502e-18)
(470.493 -63.1763 0)
(436.987 -61.4148 0)
(424.477 -57.1897 -4.83681e-18)
(398.047 -56.1531 -5.25598e-18)
(386.866 -52.2646 3.78332e-21)
(365.707 -51.0568 0)
(356.342 -47.5064 4.98108e-18)
(339.443 -46.8044 8.5271e-22)
(331.035 -44.1833 0)
(316.98 -44.1963 1.17952e-17)
(308.723 -42.3218 0)
(296.557 -42.4584 -1.88711e-21)
(288.382 -40.9757 -1.37594e-17)
(277.71 -40.9964 -1.58713e-17)
(269.763 -39.6804 1.60797e-17)
(260.283 -39.3592 -1.78132e-17)
(252.725 -37.9748 1.83146e-17)
(244.415 -37.154 -1.98813e-17)
(237.672 -35.5958 -2.06151e-17)
(230.675 -34.5099 2.20601e-17)
(224.874 -33.1079 0)
(218.947 -32.1463 -4.85123e-17)
(213.849 -31.0995 -2.51754e-17)
(208.635 -30.4005 0)
(203.97 -29.7188 2.09899e-21)
(199.153 -29.2249 2.83635e-17)
(194.731 -28.7466 2.93184e-17)
(190.166 -28.2814 3.0328e-17)
(185.979 -27.8506 -3.1302e-17)
(181.637 -27.2987 3.22528e-17)
(177.726 -26.8259 0)
(173.578 -26.1116 0)
(169.994 -25.5442 -3.51851e-17)
(165.978 -24.6194 3.59833e-17)
(162.771 -23.9019 -3.70606e-17)
(158.741 -22.6999 0)
(155.973 -21.6785 -3.88763e-17)
(151.701 -20.0867 -3.91345e-17)
(149.51 -18.3791 0)
(144.778 -16.2691 0)
(143.419 -13.0754 0)
(138.447 -9.4393 0)
(100.032 1.29443 0)
(100.393 6.49465 1.77203e-16)
(101.09 14.478 0)
(102.11 22.0585 -1.0284e-16)
(103.379 26.8889 0)
(105.017 28.1904 -1.13959e-16)
(106.781 27.4018 1.04006e-16)
(108.594 26.3941 9.29676e-17)
(110.423 25.8839 8.62413e-17)
(112.334 25.6953 0)
(114.329 25.6239 0)
(116.398 25.6378 7.87543e-17)
(118.571 25.7014 7.71815e-17)
(120.801 25.8488 0)
(123.156 26.0256 0)
(125.55 26.2874 0)
(128.101 26.5565 0)
(130.667 26.9233 1.38195e-16)
(133.436 27.2727 -6.74809e-17)
(136.186 27.7463 0)
(139.207 28.1703 1.2813e-16)
(142.159 28.7619 0)
(145.481 29.2585 6.05551e-17)
(148.657 29.9863 -5.86024e-17)
(152.348 30.5545 0)
(155.773 31.4447 -5.48842e-17)
(159.927 32.0828 5.32539e-17)
(163.63 33.1668 0)
(168.37 33.8699 -4.94922e-17)
(172.378 35.1821 -4.71178e-17)
(177.86 35.944 0)
(182.188 37.5281 0)
(188.61 38.348 4.18165e-17)
(193.259 40.2632 3.88538e-17)
(200.878 41.1639 0)
(205.851 43.4843 0)
(215.001 44.5096 -3.3976e-17)
(220.265 47.3432 -5.98242e-17)
(231.338 48.7101 0)
(237.036 52.4031 -5.00858e-17)
(250.924 54.4353 -2.59098e-17)
(257.7 59.1509 2.01171e-17)
(275.758 61.7207 0)
(284.429 67.0959 0)
(308.286 69.333 -1.9044e-17)
(319.104 73.8801 -1.08113e-17)
(348.841 74.367 1.60445e-17)
(359.052 78.4144 -5.12079e-18)
(395.847 81.7104 -1.15078e-17)
(410.018 85.8691 -1.36467e-18)
(461.804 91.9499 -7.006e-18)
(487.07 82.4737 -8.41476e-18)
(557.431 90.4633 2.4133e-18)
(620.044 -1.04492 3.55157e-21)
(571.3 -47.0027 1.29177e-18)
(542.553 -63.2522 -1.6659e-17)
(489.945 -67.3507 -1.67453e-18)
(470.654 -62.9192 -8.24985e-18)
(437.147 -61.1878 0)
(424.627 -56.983 4.84599e-18)
(398.194 -55.9493 5.25533e-18)
(387.01 -52.0784 1.45986e-18)
(365.849 -50.8781 -7.3379e-18)
(356.475 -47.343 -4.98023e-18)
(339.569 -46.6434 9.58849e-18)
(331.151 -44.0319 0)
(317.091 -44.0422 0)
(308.828 -42.1733 1.11658e-17)
(296.659 -42.3069 -1.38784e-17)
(288.483 -40.8293 0)
(277.81 -40.8483 1.42073e-21)
(269.864 -39.5368 -3.21572e-17)
(260.384 -39.2156 1.78137e-17)
(252.828 -37.8371 -1.83146e-17)
(244.518 -37.0208 0)
(237.775 -35.471 2.0614e-17)
(230.774 -34.3912 0)
(224.968 -32.9959 0)
(219.034 -32.0383 2.42537e-17)
(213.931 -30.9954 2.51738e-17)
(208.712 -30.2982 0)
(204.043 -29.6177 2.72833e-17)
(199.223 -29.1239 -1.98666e-21)
(194.8 -28.6459 0)
(190.234 -28.1811 -3.03293e-17)
(186.047 -27.7509 3.13036e-17)
(181.704 -27.2002 -3.22546e-17)
(177.795 -26.7281 0)
(173.647 -26.0159 0)
(170.066 -25.4489 0)
(166.051 -24.5271 -3.59865e-17)
(162.847 -23.8085 -1.18389e-21)
(158.82 -22.6105 3.77019e-17)
(156.057 -21.5855 3.8884e-17)
(151.794 -20.0003 3.91425e-17)
(149.61 -18.287 0)
(144.9 -16.1885 4.00841e-17)
(143.547 -12.9943 -4.20931e-17)
(138.622 -9.38011 0)
(100.031 1.2836 0)
(100.386 6.46772 -7.74736e-21)
(101.083 14.435 -9.20588e-17)
(102.108 22.0036 1.02747e-16)
(103.389 26.822 -1.13105e-16)
(105.039 28.1156 5.70435e-21)
(106.812 27.3258 -1.03863e-16)
(108.631 26.3194 -9.29175e-17)
(110.466 25.8093 -8.62313e-17)
(112.381 25.6195 0)
(114.381 25.5469 0)
(116.454 25.5594 -7.87521e-17)
(118.631 25.6219 0)
(120.864 25.7679 7.55813e-17)
(123.222 25.9437 0)
(125.619 26.2042 0)
(128.173 26.4723 0)
(130.741 26.8377 -1.38196e-16)
(133.513 27.1861 0)
(136.267 27.6582 0)
(139.291 28.0811 -6.40667e-17)
(142.245 28.6709 6.22089e-17)
(145.571 29.1663 -3.69286e-21)
(148.75 29.8919 4.27002e-21)
(152.445 30.4588 -5.6951e-17)
(155.874 31.3462 5.48868e-17)
(160.032 31.983 0)
(163.739 33.0632 0)
(168.484 33.765 0)
(172.496 35.0726 4.71108e-17)
(177.983 35.8333 0)
(182.317 37.4118 -4.30558e-17)
(188.744 38.2308 0)
(193.4 40.1394 0)
(201.025 41.0395 -3.78953e-17)
(206.005 43.3522 3.44817e-17)
(215.163 44.3776 -3.3972e-17)
(220.438 47.2028 5.98114e-17)
(231.521 48.5692 2.99272e-17)
(237.235 52.2497 2.50398e-17)
(251.135 54.2762 2.5909e-17)
(257.93 58.9724 0)
(275.998 61.5307 2.21567e-17)
(284.684 66.8794 0)
(308.541 69.1039 2.84194e-21)
(319.363 73.6315 7.82585e-21)
(349.094 74.1279 -1.60399e-17)
(359.337 78.1635 0)
(396.138 81.4436 1.15084e-17)
(410.343 85.5564 2.73527e-18)
(462.067 91.577 7.00912e-18)
(487.306 82.0495 -8.41706e-18)
(557.247 89.8104 -2.42388e-18)
(619.329 -1.09311 1.1493e-18)
(570.946 -46.622 -1.30008e-18)
(542.5 -62.8599 0)
(490.053 -67.0153 -1.69119e-18)
(470.813 -62.6619 1.64737e-17)
(437.307 -60.9605 0)
(424.775 -56.776 -2.42507e-18)
(398.341 -55.7453 0)
(387.155 -51.8921 0)
(365.992 -50.6991 7.33691e-18)
(356.608 -47.1795 0)
(339.695 -46.4823 0)
(331.268 -43.8804 0)
(317.202 -43.8879 0)
(308.934 -42.0248 -2.23267e-17)
(296.762 -42.1552 1.38748e-17)
(288.585 -40.6828 0)
(277.911 -40.7002 1.58701e-17)
(269.965 -39.3931 1.60776e-17)
(260.485 -39.072 0)
(252.932 -37.6995 0)
(244.622 -36.8877 0)
(237.878 -35.3462 -2.0612e-17)
(230.874 -34.2724 -2.20579e-17)
(225.062 -32.8838 0)
(219.122 -31.9303 2.42506e-17)
(214.014 -30.8913 0)
(208.789 -30.1958 -2.63545e-17)
(204.116 -29.5165 0)
(199.293 -29.0229 -2.83628e-17)
(194.869 -28.5452 -2.93141e-17)
(190.301 -28.0809 0)
(186.115 -27.6511 -3.13019e-17)
(181.772 -27.1017 0)
(177.864 -26.6303 -3.32601e-17)
(173.716 -25.9202 -3.41527e-17)
(170.137 -25.3535 0)
(166.124 -24.4348 -3.59891e-17)
(162.923 -23.7151 3.70716e-17)
(158.899 -22.5213 -3.77071e-17)
(156.141 -21.4928 -3.88964e-17)
(151.888 -19.9142 0)
(149.709 -18.1953 0)
(145.021 -16.1082 -4.01012e-17)
(143.675 -12.9139 4.21145e-17)
(138.796 -9.32148 4.22449e-17)
(100.03 1.27299 0)
(100.379 6.44097 -7.68017e-21)
(101.076 14.392 9.20173e-17)
(102.106 21.9482 0)
(103.399 26.7546 1.12942e-16)
(105.061 28.0403 1.1356e-16)
(106.843 27.2495 1.0373e-16)
(108.668 26.2444 0)
(110.509 25.7344 0)
(112.429 25.5434 -8.26494e-17)
(114.433 25.4696 -8.04923e-17)
(116.51 25.4808 7.8758e-17)
(118.69 25.5421 0)
(120.926 25.6869 -3.98909e-21)
(123.288 25.8616 0)
(125.687 26.1208 7.23849e-17)
(128.244 26.3879 0)
(130.816 26.7519 1.38197e-16)
(133.591 27.0993 0)
(136.347 27.5698 -6.57065e-17)
(139.374 27.9917 6.4063e-17)
(142.332 28.5797 -6.22125e-17)
(145.661 29.074 -6.05582e-17)
(148.843 29.7973 5.86044e-17)
(152.542 30.363 5.69543e-17)
(155.975 31.2474 5.4881e-17)
(160.137 31.8829 0)
(163.848 32.9594 5.1048e-17)
(168.598 33.6598 0)
(172.614 34.9628 -4.71125e-17)
(178.107 35.7223 -4.56773e-17)
(182.445 37.2953 4.30568e-17)
(188.878 38.1134 0)
(193.54 40.0153 -3.88405e-17)
(201.171 40.9148 3.78953e-17)
(206.16 43.2197 -3.44808e-17)
(215.324 44.2452 3.39704e-17)
(220.61 47.062 -2.99016e-17)
(231.704 48.4278 -2.99256e-17)
(237.435 52.0959 2.50322e-17)
(251.347 54.1166 1.93808e-23)
(258.16 58.7934 0)
(276.239 61.3402 -4.18953e-22)
(284.939 66.6626 0)
(308.794 68.8745 2.84065e-21)
(319.621 73.3826 7.79225e-21)
(349.346 73.8883 0)
(359.622 77.9121 0)
(396.429 81.1762 0)
(410.665 85.2434 -1.37062e-18)
(462.328 91.2041 0)
(487.539 81.6266 8.42931e-18)
(557.064 89.1625 -2.45369e-18)
(618.616 -1.14062 0)
(570.591 -46.244 0)
(542.442 -62.4692 0)
(490.158 -66.6805 1.68965e-18)
(470.97 -62.4047 -2.8653e-21)
(437.466 -60.7329 0)
(424.923 -56.5687 2.43467e-18)
(398.488 -55.5411 0)
(387.3 -51.7057 1.44813e-18)
(366.134 -50.52 0)
(356.741 -47.0158 4.96855e-18)
(339.821 -46.321 0)
(331.385 -43.7287 -8.24149e-18)
(317.314 -43.7336 0)
(309.041 -41.8761 1.11611e-17)
(296.866 -42.0036 -1.86652e-21)
(288.687 -40.5363 0)
(278.011 -40.552 1.58677e-17)
(270.067 -39.2494 -1.60726e-17)
(260.586 -38.9285 0)
(253.036 -37.5618 0)
(244.726 -36.7545 0)
(237.981 -35.2213 4.12221e-17)
(230.973 -34.1536 2.20566e-17)
(225.157 -32.7716 2.29209e-17)
(219.21 -31.8221 -2.42489e-17)
(214.097 -30.787 0)
(208.867 -30.0933 2.63541e-17)
(204.191 -29.4153 0)
(199.364 -28.9218 0)
(194.939 -28.4445 2.93154e-17)
(190.37 -27.9806 0)
(186.184 -27.5514 6.26058e-17)
(181.84 -27.0032 0)
(177.933 -26.5324 9.3698e-22)
(173.786 -25.8245 1.05354e-21)
(170.209 -25.2582 0)
(166.197 -24.3425 3.59925e-17)
(163 -23.6218 0)
(158.979 -22.4322 0)
(156.225 -21.4002 3.89043e-17)
(151.981 -19.8283 0)
(149.809 -18.104 0)
(145.143 -16.0283 0)
(143.802 -12.8343 0)
(138.969 -9.26338 -4.22676e-17)
(100.028 1.26258 -9.27417e-17)
(100.373 6.41442 -8.8505e-17)
(101.069 14.3489 0)
(102.104 21.8925 0)
(103.409 26.6867 0)
(105.082 27.9645 0)
(106.874 27.1727 0)
(108.706 26.169 0)
(110.552 25.6592 8.6198e-17)
(112.477 25.4671 1.65299e-16)
(114.485 25.3921 1.60991e-16)
(116.566 25.402 0)
(118.75 25.4621 0)
(120.989 25.6056 -3.97436e-21)
(123.354 25.7793 0)
(125.756 26.0373 -7.23901e-17)
(128.316 26.3033 0)
(130.89 26.666 -6.91011e-17)
(133.668 27.0123 0)
(136.427 27.4813 6.57107e-17)
(139.457 27.9022 -3.82083e-21)
(142.418 28.4883 0)
(145.751 28.9815 -6.05545e-17)
(148.936 29.7024 5.85992e-17)
(152.639 30.2669 0)
(156.075 31.1484 -5.48838e-17)
(160.242 31.7826 -5.32498e-17)
(163.957 32.8554 -5.10505e-17)
(168.712 33.5545 0)
(172.732 34.8528 4.7106e-17)
(178.23 35.6111 2.42104e-21)
(182.573 37.1784 -4.30492e-17)
(189.012 37.9956 4.18103e-17)
(193.68 39.8909 7.76771e-17)
(201.318 40.7899 3.78923e-17)
(206.314 43.0869 0)
(215.486 44.1125 0)
(220.783 46.9209 0)
(231.887 48.286 0)
(237.634 51.9415 -3.28723e-21)
(251.558 53.9565 -2.59084e-17)
(258.39 58.614 2.0107e-17)
(276.479 61.1493 -2.21605e-17)
(285.194 66.4453 0)
(309.048 68.6448 2.8396e-21)
(319.878 73.1335 1.07927e-17)
(349.598 73.6484 0)
(359.906 77.66 0)
(396.719 80.9082 0)
(410.987 84.9298 0)
(462.588 90.8312 7.00472e-18)
(487.769 81.2052 0)
(556.884 88.5196 -9.62515e-21)
(617.906 -1.18744 0)
(570.233 -45.8688 0)
(542.379 -62.08 0)
(490.26 -66.3462 0)
(471.127 -62.1475 -2.86747e-21)
(437.624 -60.505 3.07636e-18)
(425.07 -56.3612 -2.43428e-18)
(398.634 -55.3369 -5.25222e-18)
(387.445 -51.5192 -1.44795e-18)
(366.276 -50.3408 -7.33607e-18)
(356.875 -46.8519 -9.93262e-18)
(339.947 -46.1595 0)
(331.502 -43.5769 4.16929e-21)
(317.426 -43.5791 -1.17842e-17)
(309.147 -41.7274 0)
(296.969 -41.8518 -1.38738e-17)
(288.79 -40.3898 0)
(278.112 -40.4038 -3.17351e-17)
(270.168 -39.1057 2.83825e-21)
(260.688 -38.7849 1.78141e-17)
(253.14 -37.4241 0)
(244.829 -36.6213 0)
(238.084 -35.0963 -2.06103e-17)
(231.072 -34.0345 -2.20562e-17)
(225.252 -32.6592 -2.29192e-17)
(219.299 -31.7138 0)
(214.18 -30.6826 -2.51641e-17)
(208.945 -29.9906 0)
(204.265 -29.314 0)
(199.435 -28.8207 -2.83589e-17)
(195.009 -28.3437 0)
(190.438 -27.8803 0)
(186.253 -27.4517 -3.1304e-17)
(181.909 -26.9047 0)
(178.003 -26.4346 3.32641e-17)
(173.856 -25.7289 6.8313e-17)
(170.281 -25.163 0)
(166.27 -24.2503 3.59952e-17)
(163.076 -23.5286 -3.70853e-17)
(159.059 -22.3432 0)
(156.31 -21.3079 0)
(152.074 -19.7426 0)
(149.908 -18.0131 0)
(145.265 -15.9488 -4.01419e-17)
(143.929 -12.7554 -4.21628e-17)
(139.142 -9.20581 0)
(100.027 1.25237 9.27207e-17)
(100.367 6.38803 8.84644e-17)
(101.063 14.3057 0)
(102.103 21.8365 0)
(103.419 26.6182 -1.12596e-16)
(105.104 27.8881 1.13147e-16)
(106.905 27.0955 -1.03445e-16)
(108.743 26.0933 0)
(110.595 25.5837 -8.61871e-17)
(112.524 25.3905 -8.26499e-17)
(114.537 25.3144 -8.04992e-17)
(116.621 25.3229 7.87579e-17)
(118.809 25.382 0)
(121.051 25.5242 -7.55901e-17)
(123.419 25.6968 0)
(125.824 25.9535 0)
(128.387 26.2185 -7.0799e-17)
(130.964 26.5799 0)
(133.745 26.9252 0)
(136.507 27.3926 0)
(139.541 27.8124 -1.28131e-16)
(142.504 28.3966 0)
(145.841 28.8887 6.05582e-17)
(149.029 29.6074 -5.86026e-17)
(152.736 30.1707 0)
(156.176 31.0492 0)
(160.347 31.682 5.32529e-17)
(164.066 32.7511 0)
(168.825 33.4488 0)
(172.85 34.7426 -4.2077e-21)
(178.354 35.4996 9.13545e-17)
(182.702 37.0614 4.28806e-21)
(189.146 37.8776 -4.18114e-17)
(193.82 39.7663 -3.88368e-17)
(201.465 40.6646 -1.59112e-21)
(206.468 42.9539 -3.44668e-17)
(215.647 43.9794 0)
(220.956 46.7793 0)
(232.07 48.1438 0)
(237.833 51.7867 -2.50276e-17)
(251.77 53.7959 2.59086e-17)
(258.619 58.434 -2.01082e-17)
(276.718 60.9578 2.21622e-17)
(285.448 66.2277 0)
(309.301 68.4148 2.83872e-21)
(320.136 72.8841 0)
(349.85 73.4081 0)
(360.19 77.4073 -5.07645e-18)
(397.008 80.6396 -1.14905e-17)
(411.307 84.6158 0)
(462.847 90.4583 -3.54815e-21)
(487.997 80.7851 0)
(556.707 87.8818 2.48268e-18)
(617.199 -1.23353 1.15938e-18)
(569.872 -45.4963 0)
(542.312 -61.6923 0)
(490.359 -66.0126 0)
(471.282 -61.8903 -8.18895e-18)
(437.78 -60.2769 -3.07443e-18)
(425.216 -56.1534 -2.44376e-18)
(398.78 -55.1324 5.25189e-18)
(387.59 -51.3326 1.4403e-18)
(366.418 -50.1614 7.33539e-18)
(357.008 -46.6879 3.42053e-21)
(340.074 -45.9979 9.58115e-18)
(331.619 -43.425 8.2367e-18)
(317.539 -43.4245 1.17841e-17)
(309.254 -41.5786 0)
(297.073 -41.7001 0)
(288.893 -40.2432 0)
(278.214 -40.2556 3.17337e-17)
(270.27 -38.9619 1.60715e-17)
(260.79 -38.6412 -1.78153e-17)
(253.244 -37.2864 0)
(244.933 -36.488 0)
(238.187 -34.9712 0)
(231.172 -33.9154 4.41111e-17)
(225.347 -32.5467 0)
(219.387 -31.6053 -2.42443e-17)
(214.264 -30.5781 2.51633e-17)
(209.023 -29.8879 0)
(204.34 -29.2126 -2.72745e-17)
(199.506 -28.7196 1.94751e-21)
(195.079 -28.2429 0)
(190.507 -27.78 3.03262e-17)
(186.322 -27.3519 -3.13028e-17)
(181.977 -26.8062 0)
(178.073 -26.3368 0)
(173.926 -25.6333 -3.41588e-17)
(170.354 -25.0677 3.52017e-17)