/*--------------------------------*- C++ -*----------------------------------*\
| =========                 |                                                 |
| \\      /  F ield         | OpenFOAM: The Open Source CFD Toolbox           |
|  \\    /   O peration     | Version:  2412                                  |
|   \\  /    A nd           | Website:  www.openfoam.com                      |
|    \\/     M anipulation  |                                                 |
\*---------------------------------------------------------------------------*/
FoamFile
{
    version     2.0;
    format      ascii;
    arch        "LSB;label=32;scalar=64";
    class       volScalarField;
    location    "0.2";
    object      epsilon;
}
// * * * * * * * * * * * * * * * * * * * * * * * * * * * * * * * * * * * * * //

dimensions      [0 2 -3 0 0 0 0];

internalField   nonuniform List<scalar> 
12960
(
440.279
599.299
738.129
763.301
715.545
654.311
604.697
573.809
558.548
552.493
550.991
552.012
554.519
558.375
563.166
569.167
575.956
584.065
592.906
603.354
614.507
627.749
641.64
658.344
675.556
696.683
717.99
744.888
771.338
806.038
839.274
885.055
927.751
989.847
1046.29
1133.53
1212.28
1342.04
1460.51
1662.06
1837.02
2137.47
2367.47
2758.09
2967.7
3346.57
3476.75
4029.18
4457.3
5147.65
5686.53
4867.53
5407.2
3303.02
2177.24
2256.96
2565.77
2445.49
2317.49
2034.36
1894.89
1675.92
1566.57
1409.09
1335.79
1230.36
1188.83
1122.36
1093.68
1043.5
1018.79
979.764
953.187
914.807
882.175
842.433
807.72
773.29
745.755
721.131
701.535
684.447
669.69
656.077
642.446
629.264
615.029
601.114
585.837
570.554
554.182
537.111
519.89
501.108
483.774
465.503
449.981
438.075
424.389
441.219
602.436
742.674
767.231
717.915
655.319
604.844
573.528
558.114
552.037
550.56
551.617
554.159
558.046
562.861
568.879
575.681
583.797
592.641
603.088
614.238
627.473
641.354
658.044
675.24
696.346
717.629
744.496
770.911
805.564
838.747
884.459
927.075
989.07
1045.4
1132.49
1211.09
1340.67
1459.03
1660.51
1835.48
2136.11
2366.41
2757.45
2966.88
3345.1
3473.9
4027.32
4456.93
5156.38
5701.6
4890.1
5451.78
3327.36
2184.77
2262.52
2571.66
2448.86
2319.53
2035.27
1895.3
1675.78
1566.19
1408.54
1335.19
1229.72
1188.24
1121.84
1093.26
1043.12
1018.5
979.538
953.03
914.68
882.041
842.268
807.506
773.031
745.477
720.867
701.311
684.275
669.574
656.011
642.421
629.277
615.071
601.192
585.945
570.703
554.364
537.336
520.159
501.409
484.118
465.845
450.33
438.412
424.63
442.168
605.602
747.258
771.194
720.312
656.345
605.001
573.253
557.684
551.584
550.132
551.225
553.803
557.719
562.558
568.595
575.409
583.533
592.381
602.827
613.974
627.2
641.072
657.748
674.929
696.014
717.273
744.109
770.488
805.095
838.226
883.869
926.405
988.297
1044.51
1131.46
1209.91
1339.3
1457.56
1658.94
1833.94
2134.74
2365.34
2756.77
2966
3343.54
3470.9
4025.24
4456.2
5164.74
5715.97
4911.68
5494.85
3350.25
2191.28
2267.1
2576.61
2451.43
2321
2035.8
1895.43
1675.4
1565.62
1407.84
1334.48
1228.98
1187.56
1121.24
1092.77
1042.69
1018.15
979.276
952.842
914.528
881.885
842.086
807.276
772.757
745.186
720.592
701.077
684.095
669.452
655.941
642.394
629.288
615.113
601.271
586.055
570.855
554.55
537.565
520.433
501.717
484.469
466.194
450.685
438.754
424.875
443.128
608.8
751.88
775.185
722.727
657.382
605.161
572.978
557.253
551.129
549.702
550.832
553.446
557.392
562.255
568.31
575.137
583.268
592.12
602.565
613.709
626.927
640.789
657.452
674.616
695.68
716.916
743.721
770.064
804.623
837.701
883.275
925.729
987.518
1043.62
1130.42
1208.71
1337.91
1456.05
1657.34
1832.36
2133.32
2364.2
2756.01
2965
3341.81
3467.67
4022.85
4455
5172.62
5729.48
4932.14
5536.39
3371.75
2196.87
2270.72
2580.6
2453.16
2321.88
2035.91
1895.23
1674.78
1564.86
1406.98
1333.62
1228.13
1186.79
1120.56
1092.21
1042.19
1017.76
978.968
952.613
914.34
881.7
841.878
807.023
772.462
744.876
720.3
700.827
683.903
669.318
655.861
642.359
629.294
615.151
601.347
586.163
571.007
554.736
537.797
520.71
502.029
484.826
466.549
451.046
439.102
425.124
444.099
612.032
756.54
779.2
725.156
658.425
605.322
572.7
556.818
550.672
549.269
550.437
553.086
557.063
561.95
568.023
574.862
583.002
591.857
602.301
613.441
626.652
640.504
657.153
674.301
695.343
716.556
743.328
769.636
804.147
837.171
882.674
925.047
986.73
1042.71
1129.37
1207.49
1336.5
1454.52
1655.71
1830.73
2131.84
2362.99
2755.15
2963.86
3339.89
3464.19
4020.12
4453.31
5179.95
5742.08
4951.47
5576.46
3392.01
2201.64
2273.45
2583.66
2454.05
2322.15
2035.59
1894.69
1673.9
1563.88
1405.96
1332.63
1227.16
1185.91
1119.79
1091.57
1041.63
1017.3
978.609
952.34
914.115
881.482
841.641
806.744
772.144
744.545
719.989
700.561
683.695
669.173
655.772
642.315
629.292
615.183
601.419
586.268
571.157
554.923
538.03
520.991
502.345
485.189
466.911
451.414
439.456
425.376
445.081
615.299
761.24
783.242
727.599
659.472
605.481
572.418
556.379
550.21
548.833
550.038
552.723
556.73
561.642
567.733
574.585
582.732
591.591
602.035
613.171
626.374
640.217
656.85
673.983
695.003
716.192
742.932
769.203
803.666
836.635
882.067
924.356
985.932
1041.8
1128.3
1206.26
1335.07
1452.96
1654.04
1829.06
2130.31
2361.71
2754.2
2962.58
3337.77
3460.45
4017.03
4451.11
5186.73
5753.75
4969.66
5615.16
3411.21
2205.73
2275.35
2585.8
2454.13
2321.82
2034.86
1893.83
1672.76
1562.7
1404.77
1331.49
1226.08
1184.93
1118.93
1090.86
1041.01
1016.79
978.2
952.023
913.853
881.233
841.377
806.441
771.803
744.194
719.66
700.278
683.474
669.015
655.672
642.263
629.283
615.21
601.487
586.371
571.307
555.111
538.266
521.276
502.668
485.559
467.281
451.791
439.819
425.635
446.075
618.599
765.978
787.311
730.056
660.523
605.638
572.133
555.936
549.744
548.393
549.635
552.356
556.395
561.331
567.44
574.305
582.46
591.323
601.765
612.898
626.093
639.926
656.545
673.662
694.66
715.825
742.532
768.766
803.181
836.094
881.454
923.66
985.127
1040.87
1127.22
1205.02
1333.62
1451.38
1652.34
1827.34
2128.72
2360.36
2753.15
2961.17
3335.47
3456.47
4013.61
4448.42
5192.96
5764.5
4986.73
5652.63
3429.53
2209.27
2276.5
2587.08
2453.4
2320.91
2033.72
1892.65
1671.37
1561.31
1403.42
1330.22
1224.88
1183.86
1117.99
1090.07
1040.32
1016.23
977.744
951.664
913.555
880.953
841.087
806.114
771.441
743.823
719.313
699.98
683.239
668.845
655.562
642.203
629.269
615.232
601.553
586.473
571.457
555.301
538.506
521.567
502.999
485.939
467.661
452.178
440.191
425.901
447.08
621.933
770.755
791.408
732.528
661.578
605.793
571.842
555.488
549.274
547.948
549.229
551.987
556.056
561.017
567.144
574.023
582.185
591.051
601.493
612.622
625.81
639.633
656.238
673.339
694.314
715.455
742.129
768.327
802.692
835.55
880.837
922.958
984.315
1039.94
1126.13
1203.76
1332.16
1449.77
1650.62
1825.6
2127.08
2358.96
2752.02
2959.63
3332.99
3452.24
4009.86
4445.25
5198.65
5774.34
5002.73
5689.02
3447.19
2212.42
2276.99
2587.53
2451.91
2319.43
2032.18
1891.17
1669.74
1559.73
1401.92
1328.83
1223.58
1182.69
1116.98
1089.22
1039.58
1015.61
977.245
951.267
913.225
880.646
840.774
805.767
771.06
743.435
718.95
699.668
682.992
668.666
655.445
642.137
629.249
615.251
601.616
586.575
571.609
555.494
538.751
521.864
503.337
486.329
468.053
452.577
440.575
426.176
448.096
625.299
775.572
795.534
735.014
662.637
605.946
571.548
555.036
548.799
547.5
548.819
551.613
555.714
560.7
566.845
573.737
581.907
590.778
601.219
612.345
625.524
639.338
655.928
673.013
693.966
715.083
741.724
767.885
802.201
835.004
880.217
922.254
983.5
1039.01
1125.04
1202.49
1330.69
1448.15
1648.87
1823.83
2125.41
2357.51
2750.83
2957.99
3330.34
3447.8
4005.79
4441.63
5203.8
5783.29
5017.69
5724.49
3464.4
2215.32
2276.92
2587.22
2449.69
2317.41
2030.27
1889.38
1667.89
1557.97
1400.28
1327.31
1222.18
1181.43
1115.89
1088.3
1038.78
1014.95
976.704
950.834
912.866
880.314
840.439
805.4
770.662
743.031
718.573
699.344
682.734
668.478
655.32
642.065
629.226
615.268
601.68
586.677
571.764
555.691
539.003
522.17
503.687
486.731
468.457
452.989
440.972
426.461
449.123
628.698
780.429
799.69
737.517
663.701
606.096
571.248
554.578
548.32
547.048
548.405
551.237
555.368
560.379
566.544
573.45
581.627
590.502
600.942
612.065
625.237
639.041
655.617
672.686
693.617
714.71
741.318
767.442
801.708
834.456
879.595
921.548
982.683
1038.07
1123.94
1201.23
1329.21
1446.52
1647.11
1822.05
2123.72
2356.02
2749.57
2956.25
3327.55
3443.15
4001.44
4437.57
5208.45
5791.39
5031.67
5759.24
3481.4
2218.14
2276.38
2586.2
2446.79
2314.89
2028.01
1887.33
1665.83
1556.04
1398.5
1325.69
1220.68
1180.1
1114.73
1087.33
1037.93
1014.24
976.127
950.369
912.48
879.96
840.086
805.017
770.25
742.614
718.185
699.008
682.467
668.282
655.189
641.989
629.2
615.283
601.743
586.782
571.922
555.895
539.262
522.486
504.047
487.147
468.877
453.417
441.384
426.757
450.16
632.129
785.326
803.877
740.036
664.769
606.244
570.945
554.116
547.836
546.591
547.988
550.857
555.02
560.057
566.24
573.159
581.345
590.225
600.664
611.784
624.948
638.743
655.304
672.358
693.267
714.336
740.911
767
801.216
833.909
878.974
920.843
981.865
1037.13
1122.84
1199.96
1327.72
1444.89
1645.34
1820.25
2122
2354.51
2748.26
2954.43
3324.62
3438.31
3996.81
4433.1
5212.62
5798.67
5044.72
5793.45
3498.42
2221.03
2275.47
2584.54
2443.25
2311.88
2025.41
1885.01
1663.57
1553.96
1396.61
1323.97
1219.11
1178.7
1113.51
1086.3
1037.04
1013.5
975.517
949.876
912.072
879.588
839.718
804.621
769.825
742.185
717.786
698.663
682.192
668.08
655.054
641.909
629.173
615.298
601.809
586.89
572.085
556.105
539.529
522.813
504.42
487.577
469.312
453.862
441.812
427.066
451.208
635.591
790.262
808.096
742.572
665.842
606.39
570.636
553.649
547.348
546.131
547.567
550.473
554.669
559.731
565.934
572.867
581.061
589.945
600.385
611.502
624.658
638.445
654.991
672.03
692.917
713.963
740.505
766.557
800.724
833.362
878.354
920.139
981.05
1036.2
1121.75
1198.69
1326.24
1443.25
1643.57
1818.45
2120.27
2352.98
2746.92
2952.54
3321.57
3433.3
3991.93
4428.25
5216.33
5805.17
5056.92
5827.33
3515.71
2224.15
2274.29
2582.29
2439.12
2308.43
2022.5
1882.45
1661.12
1551.73
1394.61
1322.16
1217.46
1177.22
1112.24
1085.22
1036.11
1012.72
974.878
949.357
911.643
879.199
839.337
804.213
769.39
741.747
717.378
698.31
681.911
667.873
654.916
641.828
629.144
615.315
601.876
587.002
572.255
556.322
539.807
523.151
504.807
488.024
469.764
454.324
442.257
427.388
452.267
639.084
795.239
812.347
745.126
666.919
606.534
570.323
553.177
546.856
545.666
547.142
550.087
554.315
559.403
565.625
572.573
580.775
589.664
600.103
611.218
624.367
638.145
654.678
671.702
692.567
713.59
740.099
766.117
800.234
832.819
877.736
919.439
980.238
1035.26
1120.65
1197.43
1324.76
1441.62
1641.8
1816.65
2118.54
2351.45
2745.55
2950.59
3318.41
3428.14
3986.82
4423.05
5219.6
5810.93
5068.34
5861.09
3533.51
2227.65
2272.94
2579.53
2434.45
2304.57
2019.32
1879.67
1658.52
1549.37
1392.51
1320.26
1215.75
1175.69
1110.92
1084.1
1035.14
1011.91
974.213
948.817
911.199
878.798
838.946
803.796
768.947
741.301
716.963
697.952
681.625
667.662
654.775
641.746
629.117
615.333
601.948
587.119
572.431
556.549
540.095
523.502
505.209
488.488
470.234
454.805
442.72
427.725
453.335
642.608
800.255
816.63
747.698
668.002
606.676
570.006
552.701
546.359
545.198
546.714
549.697
553.957
559.072
565.314
572.276
580.488
589.382
599.821
610.934
624.076
637.845
654.364
671.374
692.218
713.218
739.695
765.678
799.747
832.278
877.122
918.743
979.431
1034.34
1119.57
1196.17
1323.29
1440
1640.04
1814.85
2116.81
2349.91
2744.16
2948.59
3315.16
3422.83
3981.5
4417.53
5222.47
5816.01
5079.05
5894.94
3552.09
2231.71
2271.51
2576.33
2429.3
2300.33
2015.87
1876.68
1655.76
1546.89
1390.33
1318.3
1213.98
1174.11
1109.56
1082.94
1034.14
1011.07
973.527
948.259
910.74
878.387
838.547
803.372
768.497
740.85
716.544
697.588
681.335
667.449
654.633
641.664
629.091
615.354
602.024
587.243
572.615
556.785
540.395
523.867
505.627
488.97
470.722
455.306
443.203
428.077
454.413
646.163
805.312
820.947
750.289
669.091
606.815
569.684
552.22
545.858
544.725
546.282
549.304
553.597
558.739
565
571.978
580.198
589.098
599.538
610.648
623.784
637.545
654.051
671.047
691.869
712.848
739.294
765.242
799.263
831.741
876.513
918.052
978.63
1033.42
1118.49
1194.93
1321.83
1438.38
1638.29
1813.07
2115.08
2348.38
2742.77
2946.55
3311.83
3417.41
3975.99
4411.72
5224.98
5820.46
5089.13
5929.11
3571.68
2236.46
2270.11
2572.74
2423.71
2295.76
2012.2
1873.52
1652.87
1544.31
1388.07
1316.27
1212.15
1172.49
1108.16
1081.75
1033.11
1010.21
972.824
947.687
910.272
877.968
838.144
802.944
768.044
740.394
716.12
697.221
681.042
667.234
654.491
641.583
629.067
615.379
602.105
587.373
572.807
557.032
540.707
524.247
506.061
489.47
471.231
455.827
443.705
428.444
455.502
649.748
810.41
825.299
752.9
670.186
606.954
569.357
551.734
545.352
544.249
545.846
548.908
553.235
558.403
564.685
571.677
579.907
588.813
599.253
610.362
623.491
637.246
653.738
670.721
691.522
712.48
738.894
764.809
798.782
831.209
875.909
917.369
977.836
1032.51
1117.42
1193.69
1320.38
1436.78
1636.55
1811.31
2113.38
2346.87
2741.38
2944.5
3308.44
3411.89
3970.31
4405.64
5227.14
5824.33
5098.68
5963.83
3592.54
2242.06
2268.84
2568.85
2417.75
2290.89
2008.33
1870.2
1649.87
1541.64
1385.74
1314.19
1210.29
1170.83
1106.73
1080.54
1032.07
1009.34
972.107
947.103
909.797
877.545
837.738
802.513
767.589
739.937
715.695
696.853
680.749
667.019
654.35
641.504
629.046
615.408
602.192
587.51
573.009
557.289
541.032
524.642
506.512
489.99
471.76
456.37
444.227
428.826
456.6
653.362
815.547
829.684
755.53
671.287
607.09
569.027
551.243
544.842
543.769
545.407
548.509
552.869
558.064
564.367
571.375
579.615
588.526
598.968
610.076
623.199
636.946
653.426
670.396
691.177
712.114
738.497
764.38
798.306
830.682
875.31
916.692
977.05
1031.61
1116.37
1192.47
1318.94
1435.2
1634.83
1809.57
2111.69
2345.37
2739.99
2942.43
3305
3406.28
3964.49
4399.33
5229.01
5827.69
5107.76
5999.3
3614.9
2248.65
2267.78
2564.73
2411.48
2285.77
2004.29
1866.75
1646.77
1538.9
1383.37
1312.07
1208.4
1169.14
1105.27
1079.3
1031.01
1008.45
971.38
946.512
909.317
877.12
837.331
802.082
767.134
739.479
715.269
696.483
680.455
666.805
654.211
641.427
629.03
615.443
602.285
587.655
573.22
557.558
541.371
525.052
506.981
490.53
472.309
456.934
444.77
429.224
457.707
657.006
820.725
834.104
758.18
672.394
607.226
568.692
550.748
544.328
543.285
544.965
548.106
552.501
557.724
564.047
571.071
579.321
588.239
598.681
609.789
622.906
636.647
653.115
670.072
690.834
711.751
738.104
763.955
797.834
830.161
874.718
916.023
976.274
1030.72
1115.32
1191.27
1317.53
1433.63
1633.13
1807.85
2110.03
2343.91
2738.63
2940.36
3301.52
3400.6
3958.55
4392.82
5230.6
5830.58
5116.49
6035.75
3639.02
2256.37
2267.03
2560.45
2404.95
2280.43
2000.1
1863.18
1643.59
1536.09
1380.96
1309.92
1206.47
1167.42
1103.8
1078.05
1029.93
1007.55
970.646
945.916
908.837
876.696
836.927
801.654
766.68
739.022
714.843
696.114
680.163
666.593
654.074
641.355
629.018
615.483
602.386
587.809
573.441
557.838
541.723
525.479
507.468
491.091
472.88
457.519
445.334
429.639
458.824
660.68
825.944
838.559
760.851
673.509
607.36
568.353
550.248
543.809
542.797
544.519
547.701
552.13
557.38
563.725
570.765
579.025
587.95
598.394
609.502
622.614
636.348
652.804
669.749
690.492
711.39
737.713
763.534
797.367
829.645
874.133
915.363
975.507
1029.85
1114.29
1190.08
1316.12
1432.08
1631.46
1806.17
2108.39
2342.48
2737.29
2938.3
3298.01
3394.87
3952.5
4386.15
5231.96
5833.06
5124.95
6073.41
3665.11
2265.36
2266.69
2556.07
2398.21
2274.91
1995.8
1859.52
1640.34
1533.24
1378.52
1307.75
1204.54
1165.7
1102.32
1076.78
1028.85
1006.64
969.91
945.319
908.358
876.276
836.527
801.228
766.229
738.567
714.42
695.747
679.872
666.383
653.941
641.286
629.011
615.529
602.494
587.972
573.673
558.131
542.089
525.921
507.972
491.671
473.472
458.127
445.919
430.069
459.951
664.383
831.202
843.049
763.543
674.63
607.494
568.01
549.744
543.287
542.305
544.07
547.293
551.756
557.035
563.401
570.458
578.728
587.66
598.107
609.214
622.321
636.05
652.495
669.428
690.152
711.032
737.326
763.117
796.905
829.136
873.555
914.711
974.75
1028.98
1113.28
1188.9
1314.74
1430.56
1629.81
1804.51
2106.79
2341.09
2735.98
2936.25
3294.49
3389.1
3946.37
4379.34
5233.13
5835.22
5133.22
6112.48
3693.4
2275.74
2266.82
2551.67
2391.34
2269.27
1991.41
1855.79
1637.06
1530.36
1376.06
1305.57
1202.59
1163.96
1100.83
1075.52
1027.77
1005.74
969.174
944.724
907.883
875.86
836.132
800.808
765.783
738.116
713.999
695.383
679.585
666.176
653.812
641.222
629.009
615.582
602.61
588.144
573.915
558.436
542.47
526.38
508.495
492.273
474.085
458.757
446.524
430.514
461.086
668.114
836.501
847.574
766.256
675.76
607.626
567.664
549.235
542.76
541.809
543.618
546.881
551.379
556.687
563.075
570.148
578.43
587.369
597.818
608.926
622.028
635.752
652.186
669.109
689.815
710.676
736.942
762.704
796.448
828.633
872.985
914.068
974.003
1028.13
1112.27
1187.75
1313.38
1429.06
1628.19
1802.89
2105.22
2339.74
2734.71
2934.23
3290.97
3383.3
3940.18
4372.42
5234.13
5837.09
5141.42
6153.16
3724.1
2287.62
2267.51
2547.31
2384.37
2263.52
1986.96
1852
1633.74
1527.46
1373.6
1303.38
1200.64
1162.22
1099.35
1074.25
1026.69
1004.83
968.442
944.133
907.414
875.452
835.746
800.395
765.343
737.669
713.583
695.022
679.301
665.974
653.688
641.164
629.014
615.642
602.734
588.325
574.168
558.754
542.865
526.856
509.036
492.894
474.719
459.408
447.15
430.975
462.231
671.875
841.84
852.135
768.991
676.897
607.758
567.313
548.723
542.229
541.31
543.162
546.467
551
556.337
562.747
569.837
578.13
587.077
597.529
608.637
621.735
635.454
651.878
668.791
689.479
710.323
736.562
762.296
795.996
828.137
872.421
913.435
973.267
1027.29
1111.28
1186.61
1312.03
1427.59
1626.6
1801.3
2103.7
2338.44
2733.49
2932.24
3287.46
3377.49
3933.95
4365.42
5235
5838.74
5149.62
6195.66
3757.42
2301.13
2268.84
2543.07
2377.38
2257.72
1982.48
1848.19
1630.41
1524.55
1371.14
1301.19
1198.69
1160.48
1097.86
1072.98
1025.61
1003.93
967.716
943.549
906.955
875.054
835.369
799.99
764.91
737.229
713.172
694.665
679.021
665.776
653.568
641.111
629.026
615.709
602.866
588.515
574.432
559.084
543.274
527.347
509.595
493.536
475.373
460.081
447.796
431.451
463.384
675.664
847.219
856.731
771.748
678.042
607.89
566.959
548.205
541.694
540.807
542.702
546.049
550.618
555.984
562.417
569.525
577.829
586.784
597.238
608.348
621.442
635.157
651.57
668.474
689.145
709.973
736.184
761.892
795.549
827.646
871.865
912.809
972.54
1026.46
1110.31
1185.48
1310.71
1426.13
1625.03
1799.75
2102.2
2337.18
2732.3
2930.29
3283.97
3371.69
3927.69
4358.37
5235.78
5840.24
5157.92
6240.17
3793.52
2316.35
2270.88
2538.99
2370.4
2251.9
1977.99
1844.37
1627.08
1521.65
1368.69
1299.02
1196.76
1158.75
1096.39
1071.72
1024.54
1003.04
967
942.975
906.506
874.666
835.003
799.594
764.485
736.796
712.767
694.314
678.747
665.583
653.455
641.064
629.044
615.784
603.007
588.716
574.707
559.426
543.697
527.854
510.171
494.198
476.049
460.775
448.462
431.94
464.546
679.482
852.638
861.363
774.527
679.196
608.022
566.602
547.684
541.155
540.301
542.24
545.629
550.234
555.629
562.085
569.21
577.526
586.49
596.947
608.058
621.149
634.86
651.264
668.158
688.812
709.625
735.81
761.492
795.107
827.162
871.315
912.193
971.824
1025.65
1109.35
1184.38
1309.4
1424.71
1623.5
1798.24
2100.75
2335.97
2731.17
2928.39
3280.5
3365.89
3921.42
4351.29
5236.5
5841.64
5166.42
6286.86
3832.6
2333.38
2273.68
2535.14
2363.49
2246.1
1973.51
1840.56
1623.76
1518.76
1366.27
1296.86
1194.84
1157.03
1094.93
1070.48
1023.48
1002.16
966.296
942.413
906.07
874.292
834.649
799.208
764.069
736.37
712.368
693.968
678.478
665.396
653.347
641.024
629.069
615.866
603.156
588.925
574.993
559.78
544.134
528.378
510.765
494.879
476.744
461.49
449.147
432.444
465.718
683.327
858.097
866.03
777.328
680.359
608.155
566.241
547.159
540.613
539.791
541.774
545.206
549.847
555.272
561.75
568.893
577.222
586.194
596.655
607.768
620.855
634.563
650.957
667.844
688.482
709.28
735.439
761.095
794.669
826.683
870.772
911.584
971.117
1024.85
1108.4
1183.29
1308.12
1423.3
1621.99
1796.76
2099.34
2334.82
2730.1
2926.53
3277.06
3360.12
3915.15
4344.21
5237.19
5843
5175.19
6335.9
3874.8
2352.31
2277.32
2531.59
2356.7
2240.34
1969.08
1836.77
1620.47
1515.9
1363.87
1294.74
1192.95
1155.33
1093.48
1069.24
1022.44
1001.29
965.606
941.864
905.648
873.931
834.308
798.834
763.663
735.952
711.977
693.629
678.215
665.215
653.246
640.99
629.1
615.956
603.314
589.144
575.289
560.147
544.585
528.916
511.376
495.579
477.459
462.225
449.851
432.961
466.897
687.201
863.595
870.733
780.152
681.531
608.287
565.877
546.63
540.066
539.277
541.306
544.78
549.457
554.912
561.414
568.575
576.916
585.897
596.362
607.477
620.561
634.266
650.651
667.53
688.152
708.936
735.07
760.702
794.236
826.209
870.235
910.983
970.42
1024.05
1107.47
1182.22
1306.85
1421.92
1620.52
1795.31
2097.98
2333.71
2729.07
2924.73
3273.67
3354.38
3908.9
4337.16
5237.88
5844.38
5184.32
6387.45
3920.26
2373.2
2281.83
2528.37
2350.07
2234.67
1964.7
1833.02
1617.23
1513.07
1361.51
1292.64
1191.08
1153.66
1092.06
1068.03
1021.41
1000.44
964.932
941.331
905.242
873.586
833.981
798.473
763.268
735.543
711.593
693.296
677.958
665.04
653.151
640.963
629.14
616.053
603.48
589.372
575.595
560.524
545.048
529.469
512.003
496.298
478.193
462.98
450.572
433.49
468.086
691.102
869.133
875.472
782.998
682.713
608.421
565.51
546.097
539.516
538.761
540.834
544.351
549.065
554.55
561.075
568.255
576.608
585.598
596.067
607.185
620.267
633.968
650.346
667.217
687.824
708.594
734.703
760.312
793.806
825.74
869.704
910.39
969.731
1023.27
1106.55
1181.16
1305.6
1420.57
1619.07
1793.91
2096.65
2332.66
2728.11
2922.98
3270.32
3348.69
3902.69
4330.14
5238.6
5845.82
5193.9
6441.65
3969.12
2396.13
2287.28
2525.54
2343.64
2229.11
1960.4
1829.34
1614.03
1510.29
1359.2
1290.58
1189.24
1152.01
1090.66
1066.84
1020.41
999.611
964.276
940.815
904.853
873.257
833.669
798.123
762.883
735.144
711.218
692.971
677.708
664.872
653.063
640.943
629.186
616.158
603.655
589.609
575.911
560.913
545.524
530.036
512.646
497.035
478.945
463.753
451.311
434.031
469.283
695.031
874.71
880.246
785.868
683.904
608.555
565.141
545.56
538.963
538.241
540.359
543.919
548.671
554.186
560.735
567.933
576.298
585.298
595.772
606.892
619.971
633.671
650.04
666.904
687.496
708.253
734.338
759.925
793.38
825.276
869.178
909.803
969.05
1022.5
1105.64
1180.11
1304.37
1419.23
1617.64
1792.53
2095.36
2331.66
2727.2
2921.3
3267.02
3343.04
3896.52
4323.19
5239.38
5847.38
5204
6498.63
4021.48
2421.16
2293.7
2523.14
2337.46
2223.68
1956.21
1825.72
1610.9
1507.57
1356.93
1288.57
1187.44
1150.39
1089.29
1065.67
1019.43
998.8
963.64
940.318
904.482
872.945
833.372
797.787
762.51
734.754
710.85
692.653
677.465
664.71
652.981
640.929
629.239
616.27
603.837
589.854
576.237
561.313
546.012
530.617
513.304
497.789
479.714
464.545
452.066
434.582
470.488
698.988
880.326
885.055
788.761
685.105
608.69
564.769
545.02
538.406
537.717
539.881
543.485
548.273
553.819
560.392
567.609
575.987
584.997
595.474
606.597
619.675
633.372
649.734
666.591
687.169
707.914
733.975
759.54
792.956
824.815
868.657
909.222
968.377
1021.74
1104.74
1179.08
1303.15
1417.91
1616.24
1791.19
2094.1
2330.71
2726.35
2919.68
3263.78
3337.44
3890.4
4316.32
5240.25
5849.11
5214.7
6558.51
4077.45
2448.32
2301.13
2521.22
2331.55
2218.42
1952.12
1822.19
1607.84
1504.9
1354.72
1286.6
1185.68
1148.81
1087.96
1064.53
1018.47
998.011
963.025
939.84
904.13
872.65
833.091
797.465
762.148
734.374
710.491
692.342
677.229
664.555
652.906
640.922
629.299
616.389
604.026
590.108
576.572
561.722
546.512
531.211
513.976
498.56
480.501
465.355
452.837
435.144
471.702
702.971
885.981
889.9
791.677
686.316
608.827
564.394
544.477
537.845
537.191
539.401
543.048
547.874
553.451
560.047
567.283
575.674
584.693
595.176
606.302
619.377
633.073
649.427
666.278
686.842
707.575
733.613
759.156
792.535
824.358
868.139
908.646
967.709
1020.98
1103.85
1178.06
1301.94
1416.62
1614.87
1789.87
2092.89
2329.81
2725.55
2918.12
3260.59
3331.9
3884.34
4309.55
5241.22
5851.04
5226.06
6621.39
4137.09
2477.68
2309.6
2519.82
2325.96
2213.35
1948.17
1818.75
1604.86
1502.3
1352.57
1284.68
1183.96
1147.26
1086.65
1063.42
1017.54
997.245
962.432
939.383
903.798
872.374
832.827
797.156
761.798
734.004
710.141
692.038
677
664.407
652.838
640.922
629.365
616.515
604.223
590.369
576.916
562.141
547.023
531.818
514.663
499.346
481.303
466.181
453.623
435.716
472.924
706.982
891.674
894.781
794.616
687.538
608.966
564.018
543.931
537.282
536.662
538.918
542.609
547.471
553.079
559.7
566.954
575.359
584.388
594.875
606.005
619.079
632.773
649.119
665.965
686.515
707.236
733.252
758.775
792.116
823.903
867.625
908.075
967.048
1020.24
1102.97
1177.05
1300.75
1415.33
1613.51
1788.59
2091.71
2328.96
2724.82
2916.63
3257.47
3326.42
3878.36
4302.89
5242.32
5853.21
5238.15
6687.37
4200.48
2509.25
2319.14
2518.96
2320.7
2208.48
1944.36
1815.42
1601.96
1499.78
1350.48
1282.82
1182.29
1145.75
1085.38
1062.34
1016.63
996.505
961.862
938.947
903.486
872.116
832.578
796.86
761.459
733.644
709.799
691.743
676.778
664.266
652.777
640.928
629.438
616.648
604.427
590.638
577.267
562.569
547.544
532.436
515.362
500.147
482.121
467.024
454.424
436.296
474.154
711.019
897.406
899.696
797.579
688.771
609.107
563.639
543.381
536.715
536.13
538.431
542.166
547.067
552.706
559.35
566.624
575.042
584.081
594.573
605.706
618.779
632.472
648.811
665.651
686.187
706.898
732.891
758.394
791.698
823.45
867.114
907.507
966.39
1019.5
1102.1
1176.05
1299.57
1414.07
1612.18
1787.33
2090.56
2328.15
2724.13
2915.2
3254.4
3321.01
3872.44
4296.34
5243.57
5855.67
5251.03
6756.52
4267.66
2543.08
2329.77
2518.67
2315.81
2203.83
1940.7
1812.21
1599.16
1497.32
1348.46
1281.01
1180.66
1144.27
1084.14
1061.29
1015.76
995.789
961.315
938.533
903.194
871.877
832.346
796.578
761.132
733.293
709.465
691.454
676.563
664.131
652.722
640.941
629.518
616.787
604.638
590.914
577.627
563.006
548.074
533.065
516.074
500.963
482.953
467.882
455.237
436.884
475.392
715.083
903.175
904.647
800.566
690.015
609.25
563.258
542.828
536.146
535.595
537.943
541.722
546.66
552.33
558.999
566.292
574.723
583.772
594.27
605.406
618.477
632.169
648.501
665.336
685.859
706.559
732.53
758.013
791.282
822.999
866.604
906.942
965.737
1018.76
1101.23
1175.06
1298.39
1412.82
1610.86
1786.1
2089.44
2327.38
2723.51
2913.83
3251.41
3315.67
3866.61
4289.94
5244.98
5858.45
5264.75
6828.91
4338.68
2579.18
2341.53
2518.99
2311.3
2199.43
1937.2
1809.11
1596.45
1494.95
1346.51
1279.26
1179.08
1142.84
1082.94
1060.27
1014.91
995.1
960.793
938.142
902.922
871.656
832.13
796.31
760.816
732.952
709.14
691.173
676.354
664.003
652.673
640.959
629.603
616.931
604.854
591.196
577.993
563.45
548.614
533.704
516.797
501.791
483.799
468.755
456.064
437.479
476.638
719.174
908.982
909.632
803.577
691.269
609.395
562.876
542.273
535.573
535.057
537.452
541.275
546.251
551.952
558.645
565.957
574.402
583.462
593.964
605.104
618.174
631.864
648.19
665.019
685.53
706.219
732.169
757.633
790.865
822.549
866.096
906.379
965.086
1018.03
1100.37
1174.07
1297.23
1411.57
1609.56
1784.88
2088.34
2326.66
2722.93
2912.53
3248.47
3310.4
3860.86
4283.67
5246.58
5861.56
5279.36
6904.59
4413.55
2617.57
2354.41
2519.92
2307.2
2195.27
1933.88
1806.14
1593.85
1492.67
1344.62
1277.57
1177.54
1141.45
1081.77
1059.28
1014.09
994.436
960.295
937.772
902.672
871.454
831.929
796.054
760.511
732.62
708.822
690.898
676.152
663.88
652.63
640.984
629.694
617.081
605.076
591.484
578.366
563.901
549.162
534.353
517.531
502.633
484.658
469.641
456.902
438.081
477.892
723.29
914.827
914.652
806.611
692.536
609.543
562.493
541.715
534.998
534.517
536.958
540.826
545.839
551.571
558.289
565.621
574.078
583.149
593.656
604.8
617.868
631.558
647.877
664.702
685.199
705.878
731.807
757.252
790.448
822.099
865.588
905.817
964.437
1017.3
1099.51
1173.09
1296.07
1410.34
1608.26
1783.68
2087.28
2325.97
2722.4
2911.29
3245.6
3305.19
3855.19
4277.54
5248.37
5865.05
5294.9
6983.6
4492.3
2658.29
2368.44
2521.5
2303.51
2191.38
1930.74
1803.31
1591.35
1490.46
1342.81
1275.94
1176.06
1140.1
1080.65
1058.33
1013.3
993.8
959.821
937.425
902.441
871.269
831.744
795.811
760.216
732.297
708.513
690.631
675.956
663.764
652.593
641.013
629.789
617.237
605.304
591.777
578.745
564.359
549.717
535.01
518.275
503.487
485.53
470.541
457.752
438.688
479.154
727.432
920.708
919.706
809.669
693.814
609.694
562.108
541.155
534.42
533.974
536.462
540.374
545.425
551.189
557.931
565.282
573.753
582.834
593.346
604.494
617.561
631.25
647.562
664.382
684.867
705.536
731.443
756.87
790.03
821.648
865.08
905.255
963.788
1016.57
1098.65
1172.11
1294.91
1409.11
1606.98
1782.5
2086.23
2325.31
2721.92
2910.11
3242.8
3300.06
3849.62
4271.57
5250.36
5868.93
5311.41
7065.99
4574.91
2701.33
2383.63
2523.73
2300.26
2187.75
1927.77
1800.61
1588.95
1488.35
1341.07
1274.37
1174.62
1138.8
1079.56
1057.41
1012.54
993.19
959.371
937.1
902.23
871.103
831.574
795.58
759.931
731.982
708.21
690.369
675.766
663.653
652.561
641.048
629.89
617.396
605.536
592.075
579.129
564.823
550.28
535.676
519.029
504.352
486.413
471.454
458.612
439.302
480.424
731.6
926.627
924.795
812.751
695.104
609.847
561.722
540.592
533.84
533.429
535.963
539.92
545.009
550.804
557.57
564.941
573.425
582.516
593.034
604.186
617.251
630.94
647.245
664.06
684.532
705.192
731.078
756.486
789.612
821.196
864.571
904.693
963.14
1015.84
1097.79
1171.13
1293.75
1407.89
1605.71
1781.33
2085.2
2324.69
2721.49
2908.98
3240.05
3294.99
3844.12
4265.75
5252.56
5873.21
5328.92
7151.76
4661.39
2746.72
2399.99
2526.62
2297.44
2184.4
1924.99
1798.04
1586.67
1486.32
1339.4
1272.86
1173.23
1137.53
1078.51
1056.52
1011.81
992.607
958.946
936.797
902.039
870.954
831.418
795.361
759.656
731.676
707.914
690.114
675.581
663.548
652.535
641.087
629.995
617.561
605.772
592.378
579.519
565.293
550.849
536.349
519.791
505.228
487.307
472.379
459.483
439.92
481.701
735.793
932.581
929.917
815.857
696.406
610.004
561.335
540.028
533.258
532.882
535.463
539.464
544.591
550.417
557.207
564.597
573.095
582.197
592.719
603.875
616.939
630.627
646.926
663.736
684.196
704.846
730.711
756.101
789.191