/*--------------------------------*- C++ -*----------------------------------*\
| =========                 |                                                 |
| \\      /  F ield         | OpenFOAM: The Open Source CFD Toolbox           |
|  \\    /   O peration     | Version:  2412                                  |
|   \\  /    A nd           | Website:  www.openfoam.com                      |
|    \\/     M anipulation  |                                                 |
\*---------------------------------------------------------------------------*/
FoamFile
{
    version     2.0;
    format      ascii;
    arch        "LSB;label=32;scalar=64";
    class       volScalarField;
    location    "0.2";
    object      k;
}
// * * * * * * * * * * * * * * * * * * * * * * * * * * * * * * * * * * * * * //

dimensions      [0 2 -2 0 0 0 0];

internalField   nonuniform List<scalar> 
12960
(
41.4279
49.4317
54.4785
54.0006
51.2649
48.8497
47.272
46.4319
46.078
45.9704
45.9765
46.0572
46.1887
46.3752
46.5992
46.8759
47.1837
47.549
47.9414
48.4033
48.8884
49.4627
50.0535
50.7626
51.476
52.3511
53.2082
54.2912
55.3189
56.6714
57.9122
59.6304
61.1508
63.3767
65.2756
68.2328
70.7122
74.8128
78.2488
84.0494
88.5809
96.2996
101.495
110.378
114.319
122.161
124.203
135.177
142.44
154.245
162.155
147.011
154.9
112.226
89.8504
95.3282
103.806
100.788
98.2105
91.3425
88.3558
82.5297
79.9059
75.357
73.4631
70.22
69.1343
66.9682
66.1495
64.4443
63.7036
62.3372
61.451
60.0603
58.9016
57.4251
56.1507
54.8592
53.8327
52.8924
52.1415
51.4732
50.8843
50.3329
49.7641
49.2145
48.602
48.0081
47.3347
46.6641
45.9269
45.1523
44.3613
43.4763
42.6686
41.7906
41.0629
40.5254
39.8428
41.4776
49.5692
54.6445
54.1181
51.3158
48.8562
47.2575
46.4101
46.0555
45.9494
45.9575
46.04
46.1732
46.361
46.586
46.8634
47.1718
47.5374
47.93
48.3919
48.8769
49.451
50.0414
50.7501
51.463
52.3374
53.1937
54.2756
55.3021
56.6531
57.8923
59.6084
61.1264
63.3495
65.2453
68.1988
70.6746
74.7714
78.2065
84.0074
88.5417
96.2678
101.472
110.365
114.301
122.13
124.144
135.144
142.435
154.398
162.398
147.413
155.666
112.762
90.0642
95.492
103.955
100.867
98.2574
91.3633
88.3649
82.5242
79.8946
75.3404
73.4451
70.2002
69.1159
66.9516
66.136
64.4318
63.6939
62.3299
61.4459
60.056
58.8967
57.4188
56.1422
54.8489
53.8218
52.8821
52.1328
51.4666
50.88
50.3306
49.7634
49.2154
48.604
48.0118
47.3397
46.6711
45.9353
45.1629
44.3741
43.4908
42.6854
41.8072
41.08
40.542
39.8539
41.5275
49.7073
54.8111
54.2362
51.3672
48.863
47.2431
46.3884
46.0331
45.9285
45.9387
46.023
46.1578
46.3469
46.573
46.8511
47.16
47.526
47.9188
48.3807
48.8656
49.4394
50.0296
50.7377
51.4501
52.3238
53.1793
54.2602
55.2856
56.6351
57.8726
59.5866
61.1022
63.3224
65.215
68.1649
70.6368
74.7299
78.1639
83.965
88.5021
96.2355
101.448
110.351
114.282
122.097
124.082
135.107
142.424
154.544
162.63
147.797
156.409
113.268
90.2547
95.6348
104.085
100.929
98.2933
91.376
88.3675
82.5132
79.8788
75.3199
73.4237
70.1775
69.0949
66.9328
66.1206
64.4178
63.6829
62.3214
61.4397
60.0508
58.891
57.4119
56.1331
54.8381
53.8103
52.8713
52.1238
51.4598
50.8755
50.3281
49.7626
49.2162
48.6061
48.0155
47.3447
46.6782
45.944
45.1738
44.3872
43.5056
42.7025
41.8241
41.0974
40.5587
39.8652
41.5778
49.8463
54.9784
54.3545
51.4187
48.87
47.2288
46.3667
46.0106
45.9076
45.9197
46.006
46.1423
46.3327
46.5598
46.8388
47.1482
47.5146
47.9075
48.3694
48.8543
49.4278
50.0177
50.7253
51.4372
52.3101
53.1649
54.2448
55.269
56.617
57.8527
59.5647
61.0778
63.295
65.1845
68.1306
70.5986
74.6878
78.1205
83.9216
88.4614
96.2018
101.423
110.336
114.26
122.06
124.015
135.065
142.405
154.683
162.848
148.162
157.128
113.746
90.4236
95.7573
104.195
100.975
98.3172
91.3798
88.3627
82.496
79.8577
75.2951
73.3985
70.1515
69.071
66.9115
66.103
64.4017
63.6701
62.3113
61.4322
60.0444
58.8843
57.404
56.1232
54.8264
53.7981
52.8599
52.1141
51.4524
50.8705
50.3252
49.7615
49.2167
48.608
48.0191
47.3497
46.6852
45.9527
45.1847
44.4005
43.5206
42.7199
41.8413
41.1151
40.5758
39.8766
41.6284
49.986
55.1462
54.4729
51.4703
48.8768
47.2142
46.3448
45.988
45.8865
45.9007
45.9888
46.1267
46.3184
46.5466
46.8263
47.1363
47.503
47.8961
48.3581
48.8428
49.4161
50.0056
50.7128
51.4242
52.2963
53.1503
54.2291
55.2521
56.5986
57.8327
59.5424
61.053
63.2673
65.1535
68.0957
70.5598
74.6449
78.0761
83.8771
88.4194
96.1666
101.396
110.318
114.235
122.02
123.944
135.016
142.377
154.813
163.052
148.507
157.824
114.2
90.5734
95.8604
104.286
101.003
98.3289
91.3746
88.3503
82.4725
79.8313
75.2658
73.3693
70.122
69.044
66.8874
66.0829
64.3836
63.6554
62.2996
61.4232
60.0368
58.8765
57.3951
56.1124
54.8139
53.7852
52.8478
52.1038
51.4445
50.865
50.322
49.7601
49.217
48.6096
48.0225
47.3546
46.6923
45.9614
45.1957
44.4139
43.5358
42.7375
41.8589
41.1332
40.5931
39.8881
41.6794
50.1266
55.3146
54.5915
51.5217
48.8834
47.1994
46.3226
45.9651
45.8653
45.8814
45.9714
46.111
46.304
46.5333
46.8137
47.1243
47.4913
47.8846
48.3466
48.8312
49.4043
49.9934
50.7001
51.411
52.2824
53.1356
54.2133
55.2351
56.58
57.8123
59.5199
61.028
63.2392
65.1221
68.0604
70.5204
74.6013
78.0308
83.8316
88.3761
96.1298
101.367
110.298
114.207
121.975
123.867
134.96
142.34
154.934
163.241
148.832
158.499
114.632
90.7071
95.9456
104.359
101.015
98.3285
91.3603
88.3304
82.4428
79.7995
75.232
73.3363
70.0891
69.014
66.8606
66.0606
64.3634
63.6389
62.2862
61.4128
60.0278
58.8676
57.3853
56.1007
54.8006
53.7714
52.8349
52.0929
51.436
50.8591
50.3183
49.7583
49.217
48.6111
48.0258
47.3594
46.6993
45.9702
45.2069
44.4275
43.5513
42.7556
41.8768
41.1516
40.6107
39.8999
41.7309
50.2681
55.4835
54.7102
51.5731
48.8899
47.1844
46.3003
45.942
45.8438
45.862
45.9539
46.0951
46.2895
46.5197
46.801
47.1121
47.4795
47.873
48.3349
48.8195
49.3923
49.9811
50.6873
51.3976
52.2683
53.1207
54.1973
55.2179
56.5612
57.7918
59.4971
61.0027
63.2107
65.0904
68.0246
70.4805
74.5571
77.9847
83.785
88.3317
96.0916
101.337
110.275
114.175
121.926
123.785
134.898
142.295
155.046
163.416
149.138
159.156
115.047
90.8275
96.0147
104.414
101.011
98.3163
91.3372
88.3031
82.4069
79.7626
75.1939
73.2995
70.053
68.981
66.8314
66.0359
64.3413
63.6207
62.2713
61.401
60.0177
58.8576
57.3745
56.0881
54.7865
53.7569
52.8214
52.0814
51.427
50.8527
50.3143
49.7562
49.2168
48.6124
48.029
47.3642
46.7063
45.979
45.2183
44.4414
43.5672
42.7741
41.8952
41.1705
40.6289
39.912
41.7827
50.4103
55.6531
54.8292
51.6244
48.8961
47.1691
46.2776
45.9187
45.8221
45.8423
45.9362
46.079
46.2748
46.5061
46.7882
47.0999
47.4676
47.8612
48.3232
48.8076
49.3801
49.9687
50.6744
51.3841
52.254
53.1056
54.1811
55.2005
56.5422
57.7711
59.4741
60.9771
63.182
65.0583
67.9885
70.4401
74.5123
77.9379
83.7377
88.2863
96.0523
101.305
110.251
114.141
121.874
123.698
134.83
142.241
155.149
163.577
149.426
159.796
115.449
90.9379
96.0693
104.453
100.991
98.2928
91.3057
88.2688
82.3653
79.7209
75.1518
73.2592
70.0138
68.9453
66.7997
66.0091
64.3173
63.6008
62.255
61.3878
60.0065
58.8467
57.3629
56.0748
54.7717
53.7418
52.8073
52.0693
51.4176
50.8459
50.3099
49.7539
49.2164
48.6135
48.0321
47.369
46.7135
45.9881
45.2299
44.4556
43.5834
42.7931
41.9142
41.19
40.6476
39.9245
41.8348
50.5532
55.8231
54.9483
51.6758
48.9021
47.1536
46.2547
45.8952
45.8003
45.8225
45.9183
46.0628
46.2599
46.4923
46.7752
47.0874
47.4555
47.8494
48.3113
48.7957
49.3679
49.9562
50.6613
51.3706
52.2397
53.0905
54.1649
55.1831
56.5232
57.7502
59.451
60.9514
63.1531
65.026
67.9521
70.3995
74.4671
77.8906
83.6897
88.2402
96.0119
101.271
110.225
114.105
121.818
123.607
134.757
142.179
155.243
163.724
149.696
160.423
115.842
91.0414
96.1113
104.475
100.956
98.2584
91.2661
88.2278
82.3182
79.6745
75.1059
73.2156
69.9717
68.9071
66.7658
65.9803
64.2916
63.5794
62.2373
61.3735
59.9944
58.8349
57.3506
56.0608
54.7563
53.726
52.7926
52.0567
51.4077
50.8388
50.3053
49.7513
49.2158
48.6146
48.0353
47.3738
46.7208
45.9973
45.2418
44.4702
43.6002
42.8126
41.9337
41.2102
40.6669
39.9375
41.8874
50.6968
55.9938
55.0678
51.7271
48.908
47.1377
46.2316
45.8715
45.7782
45.8025
45.9003
46.0464
46.2449
46.4784
46.762
47.0749
47.4433
47.8374
48.2993
48.7836
49.3556
49.9435
50.6482
51.3569
52.2253
53.0753
54.1486
55.1656
56.504
57.7293
59.4278
60.9257
63.1241
64.9937
67.9156
70.3586
74.4217
77.8429
83.6412
88.1935
95.9707
101.237
110.198
114.066
121.759
123.512
134.678
142.109
155.33
163.858
149.95
161.039
116.23
91.1416
96.1428
104.483
100.908
98.2137
91.219
88.1805
82.2659
79.6238
75.0566
73.1689
69.9271
68.8664
66.7298
65.9497
64.2643
63.5566
62.2184
61.3582
59.9813
58.8224
57.3377
56.0462
54.7403
53.7098
52.7775
52.0437
51.3974
50.8313
50.3004
49.7486
49.2151
48.6156
48.0384
47.3788
46.7282
46.0069
45.2541
44.4853
43.6175
42.8328
41.954
41.231
40.6869
39.9509
41.9402
50.8411
56.165
55.1875
51.7784
48.9136
47.1216
46.2082
45.8475
45.7559
45.7823
45.8821
46.0299
46.2297
46.4643
46.7488
47.0623
47.431
47.8253
48.2873
48.7715
49.3432
49.9309
50.635
51.3432
52.2108
53.06
54.1322
55.148
56.4848
57.7084
59.4046
60.8999
63.0951
64.9612
67.879
70.3177
74.3761
77.7949
83.5924
88.1465
95.9289
101.203
110.169
114.026
121.697
123.413
134.594
142.032
155.408
163.979
150.188
161.648
116.619
91.2415
96.1657
104.478
100.846
98.1594
91.1648
88.1272
82.2088
79.569
75.004
73.1194
69.88
68.8236
66.692
65.9175
64.2356
63.5326
62.1985
61.3419
59.9675
58.8093
57.3242
56.0311
54.7238
53.6931
52.762
52.0303
51.3869
50.8237
50.2954
49.7458
49.2144
48.6166
48.0417
47.3839
46.7359
46.0167
45.2667
44.5009
43.6354
42.8537
41.975
41.2527
40.7076
39.965
41.9934
50.9861
56.3368
55.3075
51.8297
48.9191
47.1053
46.1845
45.8233
45.7334
45.762
45.8637
46.0132
46.2144
46.4501
46.7354
47.0495
47.4186
47.8132
48.2752
48.7593
49.3308
49.9181
50.6218
51.3295
52.1963
53.0448
54.1158
55.1305
56.4657
57.6875
59.3814
60.8741
63.0661
64.9289
67.8424
70.2768
74.3304
77.7469
83.5435
88.0992
95.8867
101.167
110.139
113.983
121.632
123.31
134.505
141.949
155.479
164.088
150.412
162.252
117.012
91.3447
96.182
104.46
100.772
98.096
91.104
88.0684
82.1473
79.5107
74.9485
73.0674
69.8307
68.7788
66.6525
65.8837
64.2056
63.5074
62.1776
61.3247
59.953
58.7956
57.3102
56.0156
54.707
53.676
52.7461
52.0167
51.3761
50.8158
50.2903
49.7429
49.2137
48.6177
48.045
47.3892
46.7439
46.0269
45.2799
44.517
43.654
42.8754
41.9968
41.2752
40.7292
39.9796
42.0468
51.1317
56.5091
55.4278
51.8811
48.9243
47.0886
46.1606
45.7988
45.7107
45.7414
45.8451
45.9964
46.199
46.4358
46.722
47.0367
47.4062
47.8009
48.2629
48.7471
49.3183
49.9054
50.6085
51.3157
52.1819
53.0295
54.0995
55.113
56.4465
57.6666
59.3583
60.8485
63.0371
64.8966
67.8058
70.2359
74.2848
77.6988
83.4944
88.0519
95.8443
101.132
110.109
113.94
121.565
123.204
134.412
141.859
155.544
164.186
150.623
162.854
117.414
91.4543
96.1938
104.432
100.688
98.0244
91.0372
88.0046
82.0818
79.449
74.8904
73.0132
69.7796
68.7323
66.6115
65.8486
64.1745
63.4813
62.1559
61.3069
59.938
58.7815
57.2959
55.9998
54.6899
53.6587
52.73
52.0028
51.3651
50.8078
50.285
49.74
49.213
48.6189
48.0485
47.3947
46.7522
46.0375
45.2935
44.5338
43.6732
42.8979
42.0195
41.2987
40.7517
39.9949
42.1006
51.2779
56.682
55.5485
51.9326
48.9294
47.0717
46.1364
45.7742
45.6878
45.7207
45.8264
45.9794
46.1835
46.4214
46.7084
47.0237
47.3936
47.7886
48.2507
48.7347
49.3057
49.8926
50.5953
51.302
52.1674
53.0143
54.0832
55.0955
56.4275
57.6459
59.3352
60.8229
63.0083
64.8645
67.7695
70.1953
74.2394
77.6509
83.4455
88.0047
95.8018
101.096
110.078
113.895
121.496
123.096
134.315
141.764
155.601
164.274
150.823
163.458
117.829
91.5737
96.2031
104.394
100.593
97.9452
90.965
87.9361
82.0128
79.3843
74.8301
72.957
69.7267
68.6843
66.5693
65.8124
64.1425
63.4543
62.1335
61.2885
59.9226
58.7671
57.2814
55.9837
54.6726
53.6412
52.7137
51.9887
51.354
50.7997
50.2798
49.7371
49.2124
48.6202
48.0523
47.4005
46.7608
46.0485
45.3077
44.5511
43.6932
42.9213
42.0431
41.3231
40.7751
40.0109
42.1546
51.4247
56.8555
55.6696
51.9841
48.9343
47.0545
46.112
45.7493
45.6647
45.6997
45.8075
45.9623
46.1678
46.4068
46.6947
47.0107
47.381
47.7763
48.2384
48.7224
49.2932
49.8798
50.582
51.2883
52.1529
52.9992
54.0669
55.0782
56.4085
57.6253
59.3123
60.7975
62.9797
64.8326
67.7334
70.1549
74.1942
77.6032
83.3969
87.9578
95.7595
101.06
110.047
113.849
121.426
122.985
134.214
141.664
155.653
164.352
151.013
164.068
118.263
91.7059
96.2118
104.349
100.49
97.8593
90.8879
87.8636
81.9405
79.3171
74.7678
72.8991
69.6724
68.6349
66.5259
65.7751
64.1097
63.4267
62.1105
61.2696
59.9069
58.7524
57.2667
55.9675
54.6551
53.6235
52.6972
51.9745
51.3428
50.7916
50.2745
49.7342
49.2119
48.6217
48.0563
47.4066
46.7699
46.06
45.3224
44.5692
43.714
42.9456
42.0677
41.3485
40.7994
40.0277
42.2089
51.572
57.0295
55.7911
52.0357
48.939
47.0371
46.0873
45.7241
45.6414
45.6786
45.7885
45.945
46.1519
46.3922
46.6809
46.9975
47.3683
47.7638
48.226
48.71
49.2806
49.8669
50.5688
51.2746
52.1385
52.9841
54.0508
55.0609
56.3897
57.6048
59.2896
60.7724
62.9513
64.8009
67.6975
70.1148
74.1493
77.5559
83.3485
87.9112
95.7174
101.025
110.016
113.803
121.354
122.871
134.11
141.559
155.699
164.421
151.194
164.686
118.72
91.854
96.2219
104.296
100.379
97.7674
90.8065
87.7876
81.8655
79.2476
74.7039
72.8398
69.617
68.5845
66.4817
65.7371
64.0762
63.3984
62.0871
61.2503
59.8909
58.7376
57.2519
55.9512
54.6375
53.6057
52.6807
51.9602
51.3315
50.7835
50.2693
49.7315
49.2115
48.6234
48.0605
47.413
46.7793
46.072
45.3377
44.588
43.7356
42.9708
42.0932
41.3749
40.8247
40.0451
42.2635
51.7199
57.204
55.9129
52.0874
48.9436
47.0194
46.0623
45.6988
45.6179
45.6573
45.7693
45.9276
46.136
46.3774
46.667
46.9843
47.3555
47.7513
48.2136
48.6976
49.268
49.8541
50.5555
51.261
52.1242
52.9691
54.0347
55.0438
56.371
57.5845
59.2671
60.7475
62.9232
64.7696
67.662
70.0751
74.1048
77.509
83.3006
87.8652
95.6757
100.99
109.985
113.757
121.281
122.756
134.004
141.45
155.741
164.483
151.368
165.315
119.203
92.0208
96.2353
104.239
100.262
97.6704
90.7216
87.7084
81.7882
79.1763
74.6387
72.7793
69.5605
68.5331
66.4368
65.6984
64.0422
63.3698
62.0634
61.2308
59.8748
58.7228
57.2372
55.9349
54.62
53.5879
52.6641
51.9459
51.3203
50.7754
50.2642
49.7288
49.2113
48.6254
48.065
47.4198
46.7892
46.0846
45.3537
44.6075
43.758
42.9969
42.1197
41.4023
40.851
40.0633
42.3183
51.8683
57.3791
56.0351
52.1393
48.948
47.0014
46.0371
45.6732
45.5942
45.6359
45.7499
45.91
46.1199
46.3625
46.653
46.971
47.3427
47.7388
48.2011
48.6852
49.2554
49.8414
50.5423
51.2474
52.1099
52.9542
54.0188
55.0268
56.3525
57.5644
59.2447
60.7228
62.8953
64.7386
67.6269
70.0358
74.0607
77.4625
83.2532
87.8198
95.6346
100.956
109.955
113.71
121.207
122.64
133.895
141.338
155.778
164.537
151.537
165.959
119.717
92.2091
96.2539
104.178
100.139
97.5691
90.6336
87.6267
81.7091
79.1035
74.5724
72.718
69.5034
68.4811
66.3913
65.6593
64.0079
63.3408
62.0396
61.2112
59.8587
58.708
57.2225
55.9187
54.6025
53.5702
52.6476
51.9317
51.3091
50.7674
50.2592
49.7264
49.2113
48.6275
48.0699
47.427
46.7995
46.0976
45.3703
44.6277
43.7812
43.024
42.1472
41.4308
40.8783
40.0822
42.3734
52.0172
57.5547
56.1578
52.1912
48.9523
46.9832
46.0116
45.6474
45.5703
45.6142
45.7304
45.8923
46.1037
46.3475
46.639
46.9577
47.3297
47.7262
48.1887
48.6728
49.2428
49.8286
50.5291
51.2338
52.0957
52.9393
54.0029
55.01
56.3341
57.5446
59.2227
60.6985
62.8678
64.708
67.5921
69.997
74.0171
77.4167
83.2064
87.7751
95.5941
100.922
109.924
113.663
121.132
122.523
133.785
141.222
155.811
164.586
151.702
166.621
120.266
92.4214
96.2794
104.114
100.012
97.4642
90.5432
87.5429
81.6284
79.0296
74.5055
72.6561
69.4458
68.4287
66.3455
65.6198
63.9734
63.3117
62.0156
61.1916
59.8427
58.6933
57.208
55.9027
54.5851
53.5525
52.6312
51.9174
51.298
50.7595
50.2543
49.7241
49.2116
48.63
48.0751
47.4346
46.8103
46.1113
45.3875
44.6487
43.8053
43.0521
42.1757
41.4604
40.9066
40.1019
42.4287
52.1666
57.7309
56.2809
52.2433
48.9565
46.9648
45.9859
45.6213
45.5462
45.5924
45.7107
45.8744
46.0874
46.3324
46.6248
46.9442
47.3168
47.7135
48.1761
48.6603
49.2302
49.8158
50.516
51.2203
52.0816
52.9246
53.9872
54.9933
56.316
57.5249
59.2008
60.6744
62.8406
64.6778
67.5578
69.9587
73.974
77.3714
83.1603
87.7311
95.5543
100.89
109.895
113.617
121.058
122.404
133.673
141.105
155.842
164.629
151.865
167.302
120.853
92.6602
96.3133
104.049
99.8826
97.3566
90.451
87.4574
81.5467
78.9549
74.4382
72.5939
69.3879
68.3759
66.2995
65.5801
63.9388
63.2826
61.9917
61.172
59.8269
58.6789
57.1937
55.8868
54.568
53.535
52.6148
51.9033
51.287
50.7517
50.2496
49.722
49.2121
48.6327
48.0806
47.4426
46.8216
46.1255
45.4054
44.6705
43.8302
43.0812
42.2053
41.491
40.9359
40.1223
42.4842
52.3165
57.9076
56.4044
52.2956
48.9605
46.9461
45.9599
45.5951
45.5219
45.5704
45.6908
45.8565
46.0709
46.3172
46.6105
46.9307
47.3037
47.7009
48.1636
48.6478
49.2176
49.8031
50.5029
51.2069
52.0675
52.91
53.9716
54.9769
56.298
57.5055
59.1793
60.6506
62.8137
64.648
67.5239
69.9209
73.9315
77.3268
83.1149
87.688
95.5153
100.858
109.866
113.571
120.982
122.285
133.559
140.985
155.869
164.669
152.027
168.007
121.481
92.9275
96.3573
103.985
99.7509
97.2471
90.3575
87.3709
81.4643
78.8797
74.3708
72.5316
69.33
68.3231
66.2535
65.5405
63.9043
63.2535
61.968
61.1527
59.8113
58.6647
57.1797
55.8712
54.551
53.5177
52.5987
51.8894
51.2761
50.7441
50.2452
49.7201
49.2129
48.6358
48.0865
47.451
46.8334
46.1402
45.424
44.693
43.856
43.1112
42.2358
41.5227
40.9663
40.1434
42.5399
52.4669
58.0848
56.5283
52.348
48.9644
46.9271
45.9337
45.5686
45.4974
45.5482
45.6708
45.8383
46.0543
46.3019
46.5962
46.9171
47.2906
47.6881
48.151
48.6353
49.205
49.7903
50.4898
51.1935
52.0536
52.8955
53.9562
54.9605
56.2802
57.4863
59.1579
60.6272
62.7872
64.6186
67.4905
69.8837
73.8896
77.2828
83.0703
87.6458
95.4772
100.827
109.838
113.525
120.907
122.166
133.445
140.864
155.895
164.705
152.19
168.738
122.154
93.2253
96.4128
103.922
99.6184
97.1364
90.2634
87.2837
81.3817
78.8044
74.3035
72.4694
69.2721
68.2704
66.2077
65.5009
63.8699
63.2246
61.9445
61.1335
59.7961
58.6509
57.1661
55.8559
54.5343
53.5006
52.5827
51.8756
51.2655
50.7367
50.2409
49.7185
49.2139
48.6391
48.0927
47.4598
46.8456
46.1555
45.4432
44.7163
43.8827
43.1422
42.2673
41.5554
40.9975
40.1652
42.5958
52.6176
58.2625
56.6526
52.4006
48.9683
46.908
45.9072
45.5419
45.4727
45.5259
45.6507
45.8201
46.0376
46.2864
46.5817
46.9034
47.2774
47.6753
48.1384
48.6228
49.1923
49.7776
50.4767
51.1802
52.0397
52.8811
53.9409
54.9443
56.2626
57.4673
59.1369
60.604
62.7611
64.5897
67.4576
69.8469
73.8482
77.2396
83.0264
87.6045
95.44
100.798
109.811
113.481
120.833
122.047
133.331
140.743
155.919
164.739
152.355
169.497
122.875
93.5554
96.481
103.862
99.4862
97.0253
90.1692
87.1964
81.2991
78.7293
74.2366
72.4075
69.2147
68.2179
66.1622
65.4617
63.8358
63.196
61.9213
61.1147
59.7812
58.6375
57.1528
55.8409
54.5179
53.4837
52.5669
51.862
51.255
50.7295
50.2369
49.7171
49.2152
48.6428
48.0994
47.469
46.8584
46.1714
45.463
44.7403
43.9101
43.1741
42.2999
41.5891
41.0298
40.1877
42.652
52.7689
58.4407
56.7774
52.4533
48.972
46.8886
45.8806
45.515
45.4478
45.5034
45.6304
45.8017
46.0208
46.2709
46.5672
46.8896
47.2642
47.6625
48.1257
48.6102
49.1797
49.7649
50.4637
51.1669
52.0258
52.8668
53.9257
54.9283
56.2452
57.4486
59.116
60.5812
62.7352
64.5611
67.4251
69.8107
73.8074
77.197
82.9832
87.5642
95.4037
100.769
109.785
113.437
120.758
121.928
133.216
140.62
155.942
164.772
152.524
170.285
123.645
93.9192
96.5633
103.806
99.3552
96.9145
90.0753
87.1092
81.2169
78.6546
74.1703
72.3463
69.1577
68.1659
66.1171
65.4228
63.8022
63.1678
61.8985
61.0963
59.7668
58.6245
57.1401
55.8263
54.5019
53.4672
52.5514
51.8487
51.2448
50.7226
50.2331
49.7161
49.2168
48.6468
48.1064
47.4787
46.8716
46.1878
45.4835
44.765
43.9384
43.207
42.3333
41.6239
41.0629
40.2108
42.7083
52.9205
58.6193
56.9025
52.5063
48.9756
46.869
45.8537
45.4879
45.4228
45.4807
45.61
45.7832
46.0039
46.2553
46.5525
46.8758
47.2509
47.6496
48.113
48.5976
49.167
49.7522
50.4507
51.1537
52.012
52.8526
53.9106
54.9124
56.2279
57.4301
59.0955
60.5586
62.7098
64.533
67.393
69.775
73.7672
77.1551
82.9409
87.5247
95.3685
100.742
109.76
113.394
120.685
121.809
133.101
140.498
155.965
164.805
152.699
171.106
124.467
94.3181
96.6605
103.755
99.2265
96.8047
89.9823
87.0226
81.1355
78.5807
74.1049
72.2857
69.1014
68.1144
66.0726
65.3843
63.769
63.1401
61.8762
61.0784
59.7529
58.6121
57.1277
55.8122
54.4862
53.4509
52.5362
51.8355
51.2348
50.7159
50.2296
49.7152
49.2188
48.6512
48.1137
47.4888
46.8853
46.2048
45.5046
44.7905
43.9675
43.2408
42.3677
41.6596
41.0969
40.2345
42.7648
53.0725
58.7985
57.0281
52.5594
48.9792
46.8493
45.8265
45.4606
45.3975
45.4579
45.5894
45.7645
45.9869
46.2395
46.5378
46.8618
47.2375
47.6366
48.1002
48.585
49.1544
49.7395
50.4377
51.1405
51.9983
52.8384
53.8956
54.8967
56.2108
57.4117
59.0751
60.5364
62.6846
64.5052
67.3613
69.7398
73.7275
77.1139
82.8993
87.4862
95.3342
100.716
109.736
113.352
120.612
121.691
132.987
140.377
155.988
164.838
152.88
171.961
125.342
94.7531
96.7738
103.71
99.1008
96.6964
89.8906
86.9371
81.0551
78.5077
74.0406
72.2261
69.0458
68.0636
66.0288
65.3465
63.7364
63.1129
61.8545
61.0611
59.7396
58.6002
57.1159
55.7985
54.471
53.435
52.5213
51.8227
51.225
50.7094
50.2264
49.7147
49.221
48.6559
48.1215
47.4992
46.8994
46.2223
45.5263
44.8166
43.9973
43.2754
42.403
41.6963
41.1319
40.2588
42.8214
53.225
58.9781
57.1541
52.6127
48.9827
46.8293
45.7992
45.4331
45.3721
45.4349
45.5687
45.7458
45.9697
46.2237
46.523
46.8478
47.224
47.6236
48.0874
48.5724
49.1417
49.7268
50.4248
51.1273
51.9847
52.8244
53.8807
54.8811
56.1939
57.3936
59.055
60.5144
62.6597
64.4778
67.3301
69.7051
73.6883
77.0733
82.8585
87.4487
95.3008
100.691
109.714
113.312
120.54
121.574
132.873
140.256
156.012
164.872
153.069
172.851
126.272
95.2249
96.9038
103.671
98.9791
96.5903
89.8007
86.8528
80.976
78.4359
73.9774
72.1676
68.9912
68.0136
65.9857
65.3093
63.7045
63.0863
61.8334
61.0443
59.7268
58.5889
57.1047
55.7852
54.4561
53.4195
52.5067
51.8101
51.2156
50.7033
50.2234
49.7145
49.2235
48.6609
48.1295
47.5101
46.914
46.2402
45.5485
44.8434
44.0279
43.3109
42.4392
41.7339
41.1676
40.2836
42.8783
53.3778
59.1582
57.2806
52.6662
48.9862
46.8091
45.7716
45.4054
45.3466
45.4118
45.5478
45.7269
45.9524
46.2077
46.5081
46.8337
47.2105
47.6105
48.0745
48.5597
49.129
49.714
50.4118
51.1142
51.971
52.8104
53.8659
54.8656
56.1771
57.3756
59.035
60.4926
62.6351
64.4507
67.2992
69.6708
73.6496
77.0334
82.8184
87.412
95.2685
100.667
109.692
113.273
120.469
121.457
132.76
140.136
156.036
164.908
153.267
173.777
127.257
95.7344
97.0513
103.641
98.862
96.4869
89.7129
86.7702
80.8984
78.3654
73.9157
72.1102
68.9376
67.9644
65.9435
65.2729
63.6733
63.0604
61.813
61.0282
59.7147
58.5782
57.094
55.7725
54.4416
53.4043
52.4924
51.7978
51.2064
50.6974
50.2207
49.7145
49.2263
48.6662
48.138
47.5213
46.929
46.2587
45.5713
44.8708
44.0591
43.3472
42.4762
41.7723
41.2041
40.309
42.9352
53.5309
59.3387
57.4074
52.72
48.9896
46.7888
45.7439
45.3776
45.3208
45.3885
45.5268
45.7078
45.935
46.1917
46.493
46.8195
47.1969
47.5973
48.0616
48.547
49.1162
49.7013
50.3988
51.101
51.9574
52.7964
53.8511
54.8502
56.1604
57.3577
59.0152
60.4711
62.6108
64.4239
67.2687
69.637
73.6114
76.9941
82.779
87.3761
95.2371
100.645
109.672
113.235
120.399
121.342
132.648
140.018
156.062
164.947
153.476
174.742
128.299
96.2818
97.2168
103.62
98.7504
96.3867
89.6275
86.6895
80.8227
78.2966
73.8554
72.0542
68.8852
67.9163
65.9022
65.2374
63.6429
63.0352
61.7932
61.0127
59.7033
58.5681
57.0838
55.7602
54.4276
53.3895
52.4784
51.7858
51.1975
50.6917
50.2183
49.7148
49.2294
48.6718
48.1467
47.5329
46.9445
46.2776
45.5947
44.8988
44.0911
43.3843
42.514
41.8117
41.2414
40.3348
42.9924
53.6845
59.5196
57.5346
52.7739
48.993
46.7683
45.716
45.3495
45.2949
45.3651
45.5057
45.6887
45.9175
46.1755
46.4779
46.8053
47.1832
47.5841
48.0486
48.5342
49.1034
49.6885
50.3858
51.0879
51.9438
52.7825
53.8364
54.8348
56.1438
57.34
58.9956
60.4497
62.5867
64.3974
67.2385
69.6035
73.5736
76.9553
82.7403
87.3411
95.2065
100.624
109.654
113.198
120.33
121.228
132.537
139.901
156.089
164.99
153.696
175.745
129.398
96.8674
97.4008
103.607
98.6447
96.2902
89.545
86.611
80.7488
78.2295
73.7968
71.9996
68.8339
67.8693
65.8619
65.2027
63.6133
63.0108
61.7743
60.998
59.6925
58.5587
57.0743
55.7485
54.414
53.375
52.4648
51.7741
51.1888
50.6864
50.2162
49.7154
49.2328
48.6777
48.1558
47.5449
46.9603
46.2969
45.6185
44.9274
44.1237
43.4222
42.5526
41.8518
41.2793
40.361
43.0497
53.8383
59.7009
57.6623
52.8281
48.9964
46.7476
45.6878
45.3213
45.2689
45.3415
45.4844
45.6694
45.8999
46.1592
46.4627
46.7909
47.1694
47.5708
48.0356
48.5213
49.0905
49.6757
50.3727
51.0747
51.9302
52.7686
53.8217
54.8195
56.1272
57.3224
58.9761
60.4285
62.5627
64.3712
67.2086
69.5703
73.5361
76.917
82.7021
87.3068
95.1768
100.603
109.636
113.163
120.262
121.115
132.427
139.786
156.119
165.036
153.928
176.787
130.554
97.4911
97.6036
103.605
98.5457
96.1976
89.4654
86.5349
80.6771
78.1642
73.7399
71.9464
68.784
67.8234
65.8227
65.1689
63.5846
62.9872
61.756
60.9839
59.6825
58.5499
57.0653
55.7372
54.4009
53.361
52.4515
51.7627
51.1805
50.6813
50.2143
49.7163
49.2365
48.6838
48.1652
47.5571
46.9765
46.3167
45.6428
44.9565
44.1569
43.4607
42.5919
41.8927
41.318
40.3876
43.1071
53.9925
59.8827
57.7903
52.8825
48.9997
46.7268
45.6595
45.2929
45.2427
45.3178
45.463
45.65
45.8822
46.1429
46.4474
46.7764
47.1556
47.5574
48.0224
48.5084
49.0776
49.6628
50.3597
51.0616
51.9166
52.7547
53.8071
54.8043
56.1108
57.3049
58.9567
60.4074
62.539
64.3451
67.1789
69.5374
73.499
76.8791
82.6645
87.2732
95.148
100.584
109.62
113.129
120.196
121.003
132.319
139.674
156.151
165.086
154.173
177.868
131.767
98.153
97.8254
103.613
98.4536
96.1095
89.3892
86.4613
80.6077
78.1009
73.6849
71.8949
68.7353
67.7786
65.7846
65.1361
63.5569
62.9645
61.7386
60.9706
59.6731
58.5417
57.0569
55.7264
54.3882
53.3473
52.4385
51.7516
51.1724
50.6765
50.2127
49.7174
49.2404
48.6903
48.1748
47.5697
46.993
46.3368
45.6676
44.9861
44.1906
43.4999
42.6318
41.9343
41.3573
40.4146
43.1647
54.147
60.0648
57.9187
52.9371
49.003
46.7059
45.631
45.2643
45.2163
45.294
45.4415
45.6305
45.8643
46.1264
46.432
46.7619
47.1416
47.5439
48.0092
48.4954
49.0646
49.6499
50.3465
51.0483
51.9029
52.7407
53.7924
54.7891
56.0943
57.2875
58.9373
60.3865
62.5153
64.3193
67.1494
69.5048
73.4622
76.8416
82.6274
87.2402
95.1198
100.566
109.605
113.097
120.131
120.892
132.212
139.564
156.185
165.142
154.433
178.99
133.035
98.8526
98.0664
103.632
98.369
96.026
89.3164
86.3905
80.5406
78.0396
73.6317
71.845
68.6881
67.7351
65.7476
65.1044
63.53
62.9425
61.722
60.9581
59.6645
58.5343
57.049
55.7161
54.3759
53.3339
52.4258
51.7408
51.1646
50.6719
50.2114
49.7187
49.2446
48.697
48.1847
47.5825
47.0098
46.3572
45.6927
45.0162
44.2249
43.5397
42.6724
41.9766
41.3971
40.4418
43.2224
54.3017
60.2472
58.0474
52.992
49.0064
46.6848
45.6024
45.2356
45.1898
45.27
45.4198
45.6109
45.8464
46.1098
46.4165
46.7472
47.1276
47.5304
47.9959
48.4824
49.0516
49.6369
50.3334
51.0351
51.8893
52.7268
53.7778
54.7739
56.0779
57.27
58.918
60.3656
62.4918
64.2936
67.1201
69.4724
73.4255
76.8045
82.5906
87.2078
95.0924
100.549
109.591
113.066
120.067
120.783
132.106
139.456
156.223
165.202
154.706
180.151
134.359
99.5896
98.3266
103.662
98.2923
95.9475
89.2473
86.3226
80.476
77.9805
73.5804
71.7967
68.6422
67.6928
65.7118
65.0736
63.5041
62.9215
61.7062
60.9463
59.6565
58.5274
57.0418
55.7063
54.3639
53.3209
52.4134
51.7302
51.157
50.6676
50.2103
49.7203
49.249
48.7039
48.1949
47.5956
47.0269
46.378
45.7183
45.0467
44.2597
43.5802
42.7137
42.0196
41.4375
40.4694
43.2802
54.4568
60.4301
58.1766
53.047
49.0097
46.6636
45.5736
45.2067
45.1632
45.2459
45.3981
45.5911
45.8283
46.0931
46.4009
46.7325
47.1134
47.5167
47.9826
48.4692
49.0385
49.6238
50.3201
51.0217
51.8755
52.7128
53.7631
54.7587
56.0615
57.2526
58.8988
60.3448
62.4684
64.2679
67.0908
69.4401
73.389
76.7676
82.5543
87.1759
95.0656
100.533
109.579
113.036
120.004
120.675
132.002
139.351
156.263
165.269
154.995
181.353
135.738
100.363
98.606
103.704
98.2235
95.874
89.1819
86.2576
80.4139
77.9235
73.531
71.7501
68.5977
67.6517
65.6771
65.0439
63.4792
62.9013
61.6912
60.9353
59.6493
58.5212
57.035
55.6969
54.3524
53.3083
52.4013
51.7199
51.1497
50.6635
50.2094
49.7222
49.2536
48.711
48.2053
47.609
47.0443
46.3991
45.7442
45.0776
44.295
43.6212
42.7555
42.0632
41.4785
40.4971
43.3381
54.6121
60.6132
58.3061
53.1024
49.0131
46.6423
45.5446
45.1777
45.1364
45.2216
45.3762
45.5713
45.8101
46.0764
46.3852
46.7177
47.0992
47.503
47.9691
48.456
49.0252
49.6107
50.3068
51.0084
51.8617
52.6988
53.7484
54.7434
56.0451
57.2352
58.8795
60.324
62.4449
64.2424
67.0617
69.4079
73.3527
76.731
82.5182
87.1445
95.0394
100.518
109.567
113.008
119.943
120.569
131.9
139.248
156.307
165.341
155.3
182.594
137.17
101.173
98.9045
103.757
98.1631
95.8058
89.1203
86.1957
80.3544
77.8687
73.4836
71.7051
68.5547
67.612
65.6435
65.0152
63.4552
62.882
61.677
60.925
59.6427
58.5156
57.0288
55.688
54.3413
53.2959
52.3895
51.7098
51.1426
50.6597
50.2088
49.7242
49.2584
48.7184
48.2159
47.6225
47.0619
46.4204
45.7704
45.1089
44.3307
43.6627
42.7978
42.1074
41.5199
40.5251
43.3961
54.7677
60.7967
58.4359
53.1579
49.0165
46.6209
45.5155
45.1486
45.1095
45.1973
45.3542
45.5513
45.7919
46.0595
46.3694
46.7027
47.0849
47.4892
47.9555
48.4427
49.0119
49.5974
50.2934
50.9949
51.8479
52.6847
53.7336
54.7281
56.0286
57.2177
58.8602
60.3031
62.4215
64.2168
67.0326
69.3757
73.3164
76.6945
82.4824
87.1134
95.0136
100.504
109.557
112.98
119.883
120.463
131.799
139.149
156.354
165.42
155.62
183.874
138.653
102.019
99.2219
103.822
98.1111
95.7429
89.0627
86.1369
80.2975
77.8161
73.4381
71.6618
68.513
67.5734
65.6112
64.9876
63.4321
62.8635
61.6636
60.9154
59.6369
58.5107
57.0231
55.6794
54.3305
53.2839
52.378
51.7
51.1357
50.6561
50.2083
49.7264
49.2634
48.7259
48.2266
47.6362
47.0797
46.442
45.7968
45.1405
44.3668
43.7047
42.8406
42.1522
41.5618
40.5533
43.4543
54.9235
60.9805
58.5661
53.2137
49.02
46.5994
45.4863
45.1193
45.0825
45.1729
45.3321
45.5313
45.7735
46.0425
46.3535
46.6877
47.0705
47.4752
47.9419
48.4292
48.9985
49.5841