/*--------------------------------*- C++ -*----------------------------------*\
| =========                 |                                                 |
| \\      /  F ield         | OpenFOAM: The Open Source CFD Toolbox           |
|  \\    /   O peration     | Version:  2412                                  |
|   \\  /    A nd           | Website:  www.openfoam.com                      |
|    \\/     M anipulation  |                                                 |
\*---------------------------------------------------------------------------*/
FoamFile
{
    version     2.0;
    format      ascii;
    arch        "LSB;label=32;scalar=64";
    class       volScalarField;
    location    "0.2";
    object      nut;
}
// * * * * * * * * * * * * * * * * * * * * * * * * * * * * * * * * * * * * * //

dimensions      [0 2 -1 0 0 0 0];

internalField   nonuniform List<scalar> 
12960
(
0.350834
0.366953
0.361877
0.34383
0.330556
0.328233
0.332593
0.338149
0.342113
0.344248
0.345279
0.345851
0.346256
0.346647
0.347027
0.347457
0.347886
0.348389
0.348881
0.349479
0.350048
0.350762
0.351415
0.352271
0.353014
0.354045
0.35488
0.356131
0.357062
0.358603
0.359648
0.361582
0.362756
0.365203
0.366516
0.369655
0.371218
0.375344
0.377307
0.38253
0.384423
0.390474
0.391607
0.397557
0.396335
0.401339
0.39933
0.40816
0.409669
0.415964
0.416156
0.399608
0.399365
0.34318
0.333715
0.362378
0.37798
0.373851
0.374576
0.369114
0.37079
0.365771
0.366818
0.362703
0.363615
0.360689
0.361834
0.359622
0.360084
0.358195
0.358495
0.356957
0.356551
0.354886
0.35395
0.352299
0.351311
0.350267
0.349735
0.349152
0.348787
0.348389
0.347966
0.34753
0.346928
0.346415
0.345665
0.345077
0.344211
0.343488
0.34255
0.341616
0.340674
0.339482
0.3387
0.337658
0.337246
0.337403
0.336649
0.350926
0.367075
0.361857
0.343559
0.33012
0.327815
0.332308
0.337997
0.342044
0.344218
0.345264
0.345841
0.346248
0.346639
0.347019
0.347448
0.347876
0.348379
0.348871
0.349468
0.350036
0.35075
0.351402
0.352258
0.353
0.354031
0.354865
0.356115
0.357045
0.358584
0.359627
0.36156
0.362732
0.365176
0.366487
0.369624
0.371186
0.375312
0.377279
0.382505
0.384403
0.390463
0.391603
0.397557
0.39632
0.40131
0.399279
0.408151
0.409677
0.416082
0.4163
0.399942
0.40003
0.343927
0.33415
0.36273
0.378196
0.373917
0.374605
0.369117
0.370786
0.365754
0.366804
0.362685
0.363599
0.360673
0.361821
0.359612
0.360078
0.358187
0.358492
0.356955
0.35655
0.354884
0.353945
0.35229
0.351298
0.350253
0.349723
0.349144
0.348783
0.348388
0.347968
0.347532
0.346931
0.346419
0.34567
0.345085
0.34422
0.343501
0.342564
0.341634
0.340695
0.339504
0.338726
0.337678
0.337266
0.337419
0.336646
0.351016
0.367194
0.361834
0.343287
0.329681
0.327394
0.33202
0.337844
0.341975
0.344189
0.345249
0.345831
0.346239
0.346631
0.34701
0.34744
0.347867
0.348369
0.348861
0.349457
0.350025
0.350738
0.35139
0.352245
0.352986
0.354016
0.354849
0.356098
0.357027
0.358564
0.359606
0.361537
0.362707
0.365149
0.366458
0.369592
0.371153
0.375278
0.37725
0.382479
0.384383
0.390451
0.391598
0.397556
0.396303
0.401279
0.399225
0.408139
0.409681
0.416198
0.416439
0.400263
0.400691
0.34465
0.334567
0.363082
0.378413
0.373987
0.374641
0.369124
0.370784
0.365737
0.36679
0.362667
0.363583
0.360655
0.361808
0.359602
0.360071
0.358179
0.358488
0.356953
0.35655
0.354881
0.353939
0.352281
0.351285
0.350238
0.349711
0.349135
0.348778
0.348387
0.347969
0.347535
0.346935
0.346424
0.345676
0.345093
0.344229
0.343514
0.342578
0.341652
0.340717
0.339527
0.338752
0.337699
0.337287
0.337435
0.336642
0.351104
0.36731
0.361807
0.343011
0.329239
0.326971
0.33173
0.337689
0.341906
0.344159
0.345234
0.345821
0.346231
0.346623
0.347002
0.347431
0.347858
0.34836
0.348851
0.349446
0.350014
0.350726
0.351377
0.352231
0.352972
0.354001
0.354833
0.356081
0.357008
0.358544
0.359585
0.361513
0.362681
0.365121
0.366428
0.36956
0.371119
0.375244
0.37722
0.382453
0.384361
0.390438
0.39159
0.397552
0.396284
0.401245
0.399168
0.408124
0.40968
0.416311
0.416573
0.400572
0.401349
0.34535
0.334967
0.363431
0.378631
0.37406
0.374681
0.369135
0.370783
0.365721
0.366776
0.362649
0.363567
0.360638
0.361794
0.359591
0.360063
0.35817
0.358484
0.35695
0.356548
0.354879
0.353933
0.352272
0.351271
0.350224
0.349698
0.349126
0.348773
0.348385
0.34797
0.347538
0.346939
0.346429
0.345681
0.345101
0.344238
0.343527
0.342592
0.34167
0.340739
0.33955
0.338779
0.33772
0.337307
0.337451
0.336638
0.35119
0.367422
0.361777
0.342732
0.328794
0.326544
0.331437
0.337534
0.341836
0.344128
0.345219
0.345811
0.346222
0.346614
0.346993
0.347422
0.347849
0.34835
0.34884
0.349435
0.350002
0.350714
0.351365
0.352218
0.352958
0.353986
0.354817
0.356063
0.35699
0.358524
0.359563
0.361489
0.362655
0.365092
0.366398
0.369527
0.371084
0.375209
0.377189
0.382424
0.384338
0.390423
0.391582
0.397546
0.396262
0.401208
0.399107
0.408105
0.409675
0.41642
0.4167
0.400869
0.402004
0.34603
0.33535
0.363777
0.378847
0.374135
0.374727
0.369149
0.370783
0.365706
0.366763
0.362631
0.363549
0.360619
0.361778
0.359579
0.360055
0.358161
0.358479
0.356947
0.356546
0.354876
0.353926
0.352262
0.351257
0.350208
0.349684
0.349116
0.348768
0.348384
0.347971
0.34754
0.346942
0.346434
0.345687
0.345109
0.344248
0.34354
0.342607
0.341689
0.340761
0.339573
0.338806
0.337741
0.337328
0.337466
0.336633
0.351275
0.367531
0.361743
0.342449
0.328345
0.326114
0.331143
0.337377
0.341765
0.344098
0.345204
0.345801
0.346213
0.346605
0.346984
0.347412
0.347839
0.348339
0.348829
0.349424
0.34999
0.350701
0.351351
0.352204
0.352943
0.35397
0.3548
0.356045
0.35697
0.358503
0.35954
0.361464
0.362628
0.365063
0.366366
0.369493
0.371048
0.375172
0.377156
0.382394
0.384313
0.390406
0.391571
0.397539
0.396237
0.401167
0.399043
0.408083
0.409665
0.416525
0.416822
0.401153
0.402657
0.346694
0.335717
0.364121
0.379062
0.374212
0.374777
0.369167
0.370784
0.365691
0.366749
0.362613
0.363532
0.3606
0.361762
0.359566
0.360046
0.358151
0.358473
0.356943
0.356544
0.354872
0.353919
0.352251
0.351242
0.350193
0.349671
0.349106
0.348762
0.348382
0.347972
0.347543
0.346945
0.346439
0.345692
0.345117
0.344257
0.343553
0.342622
0.341708
0.340783
0.339597
0.338833
0.337763
0.337349
0.337482
0.336627
0.351358
0.367636
0.361705
0.342163
0.327894
0.325681
0.330846
0.33722
0.341695
0.344067
0.345188
0.34579
0.346204
0.346596
0.346975
0.347403
0.347829
0.348329
0.348818
0.349412
0.349978
0.350688
0.351338
0.352189
0.352928
0.353954
0.354783
0.356027
0.35695
0.358481
0.359517
0.361439
0.3626
0.365033
0.366334
0.369459
0.371011
0.375134
0.377121
0.382363
0.384286
0.390387
0.391558
0.397528
0.396209
0.401123
0.398975
0.408057
0.409651
0.416627
0.416937
0.401426
0.403309
0.347344
0.336069
0.36446
0.379275
0.37429
0.374832
0.369188
0.370786
0.365677
0.366735
0.362594
0.363513
0.360581
0.361746
0.359553
0.360037
0.35814
0.358467
0.356938
0.356541
0.354868
0.353912
0.352241
0.351227
0.350177
0.349656
0.349096
0.348756
0.34838
0.347972
0.347545
0.346949
0.346444
0.345698
0.345125
0.344267
0.343566
0.342637
0.341728
0.340806
0.339621
0.338861
0.337785
0.33737
0.337498
0.336621
0.351439
0.367737
0.361663
0.341873
0.327438
0.325244
0.330547
0.337061
0.341623
0.344036
0.345173
0.345779
0.346195
0.346587
0.346966
0.347393
0.347818
0.348318
0.348807
0.3494
0.349965
0.350675
0.351324
0.352174
0.352912
0.353937
0.354766
0.356008
0.35693
0.358459
0.359493
0.361413
0.362572
0.365002
0.366301
0.369423
0.370974
0.375095
0.377086
0.38233
0.384259
0.390367
0.391544
0.397516
0.396178
0.401077
0.398904
0.408028
0.409632
0.416725
0.417046
0.401687
0.40396
0.347983
0.336407
0.364796
0.379486
0.37437
0.374891
0.369212
0.37079
0.365663
0.366722
0.362576
0.363495
0.360561
0.361728
0.35954
0.360027
0.35813
0.35846
0.356934
0.356537
0.354864
0.353904
0.35223
0.351211
0.35016
0.349642
0.349085
0.348749
0.348377
0.347973
0.347547
0.346952
0.346448
0.345704
0.345133
0.344277
0.34358
0.342653
0.341747
0.34083
0.339646
0.33889
0.337808
0.337392
0.337514
0.336615
0.351518
0.367834
0.361617
0.34158
0.326979
0.324805
0.330246
0.336901
0.341552
0.344005
0.345157
0.345768
0.346185
0.346578
0.346956
0.347383
0.347808
0.348307
0.348795
0.349388
0.349953
0.350661
0.35131
0.352159
0.352897
0.35392
0.354748
0.355988
0.35691
0.358436
0.359469
0.361386
0.362544
0.364971
0.366268
0.369387
0.370935
0.375056
0.377049
0.382297
0.38423
0.390345
0.391528
0.397502
0.396145
0.401027
0.39883
0.407995
0.409609
0.41682
0.41715
0.401939
0.404612
0.348615
0.336732
0.365127
0.379696
0.374452
0.374954
0.369239
0.370795
0.36565
0.366709
0.362558
0.363476
0.360541
0.36171
0.359526
0.360016
0.358118
0.358452
0.356928
0.356533
0.35486
0.353896
0.352219
0.351196
0.350143
0.349627
0.349074
0.348743
0.348375
0.347973
0.347549
0.346955
0.346453
0.345709
0.345142
0.344287
0.343594
0.342669
0.341768
0.340854
0.339672
0.33892
0.337831
0.337414
0.33753
0.336608
0.351596
0.367927
0.361567
0.341284
0.326517
0.324362
0.329943
0.336741
0.34148
0.343974
0.345141
0.345757
0.346176
0.346568
0.346946
0.347373
0.347797
0.348295
0.348783
0.349375
0.349939
0.350648
0.351295
0.352144
0.352881
0.353903
0.35473
0.355969
0.356889
0.358414
0.359444
0.361359
0.362514
0.364939
0.366234
0.36935
0.370896
0.375015
0.377012
0.382262
0.384199
0.390322
0.391512
0.397486
0.396109
0.400975
0.398752
0.40796
0.409583
0.416911
0.417248
0.402182
0.405266
0.349244
0.337044
0.365453
0.379903
0.374535
0.375022
0.36927
0.370801
0.365638
0.366696
0.36254
0.363457
0.36052
0.361692
0.359511
0.360005
0.358107
0.358445
0.356923
0.356529
0.354855
0.353888
0.352207
0.35118
0.350126
0.349612
0.349063
0.348736
0.348372
0.347973
0.347552
0.346958
0.346458
0.345715
0.345151
0.344297
0.343609
0.342685
0.341789
0.340879
0.339698
0.33895
0.337855
0.337437
0.337547
0.336601
0.351671
0.368017
0.361513
0.340984
0.326052
0.323915
0.329637
0.336579
0.341407
0.343943
0.345124
0.345746
0.346166
0.346559
0.346936
0.347362
0.347786
0.348284
0.348771
0.349363
0.349926
0.350634
0.351281
0.352129
0.352864
0.353886
0.354711
0.355949
0.356868
0.35839
0.35942
0.361332
0.362485
0.364906
0.366199
0.369312
0.370856
0.374974
0.376973
0.382226
0.384169
0.390298
0.391493
0.397469
0.396072
0.40092
0.398673
0.407922
0.409553
0.416999
0.417341
0.402417
0.405923
0.349871
0.337345
0.365773
0.380108
0.37462
0.375094
0.369304
0.370808
0.365627
0.366683
0.362523
0.363438
0.3605
0.361673
0.359497
0.359993
0.358095
0.358437
0.356917
0.356525
0.354851
0.353879
0.352196
0.351164
0.350109
0.349596
0.349052
0.348729
0.34837
0.347974
0.347554
0.346962
0.346463
0.345721
0.34516
0.344308
0.343624
0.342702
0.341811
0.340905
0.339725
0.338982
0.33788
0.337461
0.337565
0.336594
0.351744
0.368102
0.361456
0.340681
0.325583
0.323465
0.329329
0.336416
0.341334
0.343911
0.345108
0.345735
0.346156
0.346549
0.346926
0.347352
0.347775
0.348272
0.348759
0.34935
0.349913
0.350619
0.351266
0.352113
0.352848
0.353868
0.354693
0.355929
0.356846
0.358367
0.359395
0.361305
0.362455
0.364874
0.366165
0.369275
0.370816
0.374933
0.376934
0.38219
0.384137
0.390273
0.391474
0.39745
0.396032
0.400863
0.398591
0.407882
0.40952
0.417084
0.41743
0.402645
0.406584
0.3505
0.337634
0.366087
0.380311
0.374707
0.37517
0.369342
0.370817
0.365618
0.366672
0.362506
0.363419
0.360479
0.361654
0.359482
0.359982
0.358083
0.358429
0.356911
0.35652
0.354846
0.353871
0.352184
0.351147
0.350092
0.349581
0.34904
0.348722
0.348367
0.347974
0.347556
0.346965
0.346469
0.345728
0.345169
0.344319
0.343639
0.34272
0.341833
0.340932
0.339754
0.339015
0.337907
0.337486
0.337583
0.336587
0.351815
0.368184
0.361395
0.340374
0.325111
0.323012
0.329018
0.336252
0.341261
0.343879
0.345092
0.345723
0.346145
0.346539
0.346916
0.347341
0.347764
0.34826
0.348747
0.349337
0.349899
0.350605
0.351251
0.352097
0.352831
0.353851
0.354674
0.355909
0.356825
0.358344
0.35937
0.361277
0.362426
0.364841
0.36613
0.369237
0.370776
0.374891
0.376895
0.382153
0.384105
0.390247
0.391455
0.39743
0.395991
0.400803
0.398507
0.407839
0.409484
0.417167
0.417514
0.402867
0.40725
0.351134
0.337912
0.366395
0.380512
0.374796
0.375251
0.369382
0.370828
0.365609
0.366661
0.362491
0.3634
0.360459
0.361635
0.359467
0.35997
0.358072
0.358421
0.356905
0.356516
0.354842
0.353863
0.352173
0.351131
0.350074
0.349565
0.349029
0.348715
0.348364
0.347974
0.347558
0.346969
0.346474
0.345735
0.345179
0.34433
0.343655
0.342738
0.341857
0.340959
0.339783
0.339048
0.337934
0.337512
0.337602
0.33658
0.351884
0.368262
0.36133
0.340065
0.324635
0.322555
0.328705
0.336087
0.341187
0.343847
0.345075
0.345712
0.346135
0.346528
0.346905
0.34733
0.347753
0.348249
0.348734
0.349323
0.349886
0.350591
0.351236
0.352081
0.352815
0.353833
0.354656
0.355888
0.356803
0.35832
0.359344
0.36125
0.362396
0.364808
0.366095
0.369199
0.370735
0.374849
0.376855
0.382116
0.384072
0.39022
0.391434
0.397408
0.395948
0.400742
0.398421
0.407795
0.409446
0.417246
0.417594
0.403084
0.407923
0.351776
0.338179
0.366695
0.380711
0.374887
0.375335
0.369426
0.37084
0.365602
0.366651
0.362475
0.363382
0.360438
0.361615
0.359452
0.359958
0.35806
0.358412
0.356899
0.356511
0.354837
0.353855
0.352162
0.351115
0.350057
0.34955
0.349017
0.348708
0.348362
0.347975
0.347561
0.346973
0.34648
0.345741
0.345189
0.344343
0.343672
0.342757
0.341881
0.340988
0.339813
0.339083
0.337962
0.33754
0.337621
0.336572
0.351951
0.368335
0.361262
0.339753
0.324156
0.322095
0.328389
0.33592
0.341113
0.343815
0.345058
0.3457
0.346125
0.346518
0.346895
0.347319
0.347741
0.348237
0.348722
0.34931
0.349872
0.350576
0.351221
0.352065
0.352798
0.353815
0.354637
0.355868
0.356782
0.358296
0.359319
0.361222
0.362366
0.364775
0.366059
0.36916
0.370695
0.374806
0.376815
0.382078
0.384039
0.390192
0.391413
0.397386
0.395904
0.40068
0.398333
0.407749
0.409405
0.417323
0.417671
0.403298
0.408602
0.352428
0.338436
0.366988
0.380908
0.37498
0.375423
0.369473
0.370853
0.365596
0.366642
0.362461
0.363364
0.360418
0.361596
0.359438
0.359947
0.358048
0.358404
0.356893
0.356507
0.354833
0.353847
0.352151
0.351099
0.35004
0.349534
0.349005
0.3487
0.348359
0.347975
0.347564
0.346977
0.346486
0.345749
0.3452
0.344355
0.343689
0.342777
0.341906
0.341017
0.339845
0.33912
0.337992
0.337568
0.337642
0.336565
0.352015
0.368405
0.361191
0.339438
0.323674
0.321631
0.328071
0.335753
0.341039
0.343782
0.345041
0.345688
0.346114
0.346508
0.346884
0.347308
0.34773
0.348224
0.348709
0.349297
0.349858
0.350561
0.351205
0.352049
0.352781
0.353797
0.354618
0.355848
0.35676
0.358273
0.359294
0.361194
0.362336
0.364742
0.366024
0.369122
0.370654
0.374764
0.376775
0.38204
0.384006
0.390164
0.391392
0.397363
0.395859
0.400615
0.398244
0.407701
0.409363
0.417399
0.417745
0.403509
0.409289
0.353092
0.338682
0.367271
0.381102
0.375075
0.375514
0.369523
0.370868
0.365591
0.366634
0.362448
0.363346
0.360398
0.361577
0.359424
0.359935
0.358037
0.358396
0.356888
0.356502
0.35483
0.353839
0.35214
0.351083
0.350022
0.349518
0.348994
0.348693
0.348356
0.347976
0.347567
0.346981
0.346492
0.345756
0.345211
0.344368
0.343707
0.342797
0.341931
0.341048
0.339877
0.339157
0.338022
0.337597
0.337663
0.336558
0.352077
0.368471
0.361116
0.33912
0.323189
0.321164
0.32775
0.335584
0.340964
0.343749
0.345024
0.345676
0.346103
0.346497
0.346873
0.347297
0.347718
0.348212
0.348697
0.349284
0.349844
0.350547
0.35119
0.352033
0.352764
0.353779
0.354599
0.355827
0.356738
0.358249
0.359269
0.361166
0.362306
0.364709
0.365989
0.369084
0.370613
0.374721
0.376734
0.382002
0.383973
0.390136
0.39137
0.397339
0.395813
0.40055
0.398154
0.407653
0.409319
0.417472
0.417817
0.40372
0.409985
0.353769
0.338917
0.367545
0.381293
0.375172
0.37561
0.369575
0.370885
0.365588
0.366627
0.362436
0.363329
0.360379
0.361558
0.359409
0.359924
0.358026
0.358388
0.356883
0.356498
0.354826
0.353831
0.352129
0.351067
0.350005
0.349503
0.348982
0.348686
0.348354
0.347977
0.34757
0.346986
0.346499
0.345765
0.345222
0.344382
0.343726
0.342818
0.341958
0.341079
0.339911
0.339196
0.338054
0.337628
0.337686
0.336551
0.352137
0.368534
0.361037
0.3388
0.3227
0.320693
0.327427
0.335414
0.340888
0.343717
0.345007
0.345664
0.346092
0.346486
0.346862
0.347286
0.347706
0.3482
0.348684
0.34927
0.34983
0.350532
0.351175
0.352017
0.352748
0.353761
0.35458
0.355807
0.356717
0.358225
0.359243
0.361139
0.362276
0.364676
0.365955
0.369046
0.370573
0.374679
0.376694
0.381965
0.38394
0.390108
0.391349
0.397315
0.395766
0.400483
0.398063
0.407603
0.409274
0.417544
0.417886
0.403931
0.410689
0.354463
0.33914
0.367808
0.381482
0.375272
0.375708
0.369631
0.370903
0.365587
0.366621
0.362425
0.363313
0.36036
0.361539
0.359396
0.359912
0.358015
0.358381
0.356877
0.356494
0.354823
0.353824
0.352118
0.351051
0.349988
0.349487
0.348971
0.348679
0.348352
0.347978
0.347573
0.34699
0.346506
0.345773
0.345234
0.344396
0.343745
0.34284
0.341986
0.341112
0.339946
0.339237
0.338087
0.33766
0.337709
0.336545
0.352195
0.368592
0.360956
0.338477
0.322209
0.320218
0.327101
0.335242
0.340812
0.343684
0.34499
0.345651
0.346082
0.346476
0.346851
0.347274
0.347695
0.348187
0.348671
0.349257
0.349816
0.350517
0.35116
0.352
0.352731
0.353743
0.354562
0.355787
0.356695
0.358202
0.359218
0.361111
0.362247
0.364644
0.36592
0.369008
0.370533
0.374636
0.376654
0.381927
0.383908
0.390079
0.391328
0.397291
0.395718
0.400416
0.397971
0.407553
0.409229
0.417614
0.417954
0.404143
0.411403
0.355173
0.339352
0.368059
0.381669
0.375373
0.375809
0.369689
0.370923
0.365587
0.366616
0.362415
0.363297
0.360341
0.361521
0.359383
0.359901
0.358004
0.358373
0.356873
0.35649
0.35482
0.353817
0.352108
0.351036
0.349972
0.349472
0.348959
0.348672
0.34835
0.347979
0.347577
0.346996
0.346513
0.345782
0.345247
0.344411
0.343765
0.342863
0.342014
0.341146
0.339982
0.339279
0.338122
0.337694
0.337734
0.336538
0.35225
0.368646
0.360871
0.338152
0.321714
0.31974
0.326772
0.33507
0.340736
0.34365
0.344972
0.345639
0.346071
0.346465
0.34684
0.347263
0.347683
0.348175
0.348658
0.349243
0.349802
0.350503
0.351144
0.351984
0.352714
0.353725
0.354543
0.355766
0.356674
0.358178
0.359194
0.361084
0.362217
0.364611
0.365886
0.36897
0.370493
0.374594
0.376614
0.381889
0.383875
0.390051
0.391307
0.397267
0.39567
0.400348
0.397879
0.407502
0.409183
0.417684
0.418022
0.404357
0.412126
0.355901
0.339552
0.368297
0.381852
0.375475
0.375913
0.369749
0.370944
0.365588
0.366612
0.362406
0.363282
0.360324
0.361503
0.35937
0.359891
0.357994
0.358366
0.356869
0.356487
0.354818
0.353811
0.352098
0.35102
0.349955
0.349457
0.348948
0.348666
0.348348
0.34798
0.347581
0.347001
0.346521
0.345791
0.34526
0.344426
0.343785
0.342886
0.342044
0.341181
0.340019
0.339322
0.338158
0.337729
0.337759
0.336532
0.352302
0.368697
0.360783
0.337824
0.321217
0.319258
0.326441
0.334896
0.340659
0.343617
0.344955
0.345627
0.346059
0.346454
0.346829
0.347251
0.347671
0.348163
0.348645
0.349229
0.349788
0.350488
0.351129
0.351968
0.352698
0.353707
0.354525
0.355746
0.356653
0.358155
0.359169
0.361056
0.362188
0.364579
0.365852
0.368933
0.370453
0.374552
0.376575
0.381852
0.383843
0.390023
0.391286
0.397242
0.395622
0.400279
0.397787
0.407451
0.409136
0.417752
0.418088
0.404575
0.412858
0.356648
0.33974
0.368521
0.382031
0.37558
0.37602
0.369812
0.370966
0.365591
0.36661
0.362399
0.363268
0.360306
0.361486
0.359357
0.35988
0.357985
0.35836
0.356865
0.356484
0.354816
0.353805
0.352089
0.351005
0.349939
0.349442
0.348937
0.348659
0.348346
0.347982
0.347585
0.347007
0.346529
0.345801
0.345273
0.344442
0.343806
0.342911
0.342074
0.341217
0.340058
0.339367
0.338195
0.337765
0.337786
0.336526
0.352352
0.368743
0.360693
0.337494
0.320716
0.318773
0.326107
0.334721
0.340582
0.343583
0.344937
0.345614
0.346048
0.346443
0.346818
0.34724
0.347659
0.34815
0.348632
0.349216
0.349774
0.350473
0.351114
0.351952
0.352681
0.35369
0.354506
0.355726
0.356632
0.358132
0.359144
0.361029
0.362159
0.364547
0.365818
0.368895
0.370414
0.374511
0.376536
0.381815
0.383812
0.389995
0.391266
0.397218
0.395574
0.40021
0.397695
0.407399
0.40909
0.41782
0.418154
0.404797
0.4136
0.357414
0.339914
0.368729
0.382207
0.375685
0.376128
0.369876
0.37099
0.365595
0.366608
0.362392
0.363254
0.360289
0.361469
0.359346
0.35987
0.357976
0.358353
0.356861
0.356481
0.354815
0.353799
0.35208
0.350991
0.349923
0.349427
0.348926
0.348653
0.348345
0.347984
0.347589
0.347013
0.346537
0.345811
0.345287
0.344458
0.343828
0.342936
0.342106
0.341254
0.340098
0.339413
0.338234
0.337803
0.337814
0.33652
0.3524
0.368786
0.360599
0.337161
0.320213
0.318284
0.32577
0.334544
0.340504
0.34355
0.344919
0.345601
0.346037
0.346432
0.346807
0.347228
0.347647
0.348138
0.348619
0.349202
0.34976
0.350458
0.351099
0.351936
0.352665
0.353672
0.354488
0.355707
0.356611
0.358109
0.35912
0.361002
0.362131
0.364515
0.365784
0.368859
0.370375
0.37447
0.376497
0.381779
0.383781
0.389967
0.391246
0.397194
0.395526
0.400141
0.397602
0.407348
0.409044
0.417888
0.418221
0.405024
0.414351
0.3582
0.340076
0.36892
0.382378
0.375792
0.376238
0.369943
0.371015
0.3656
0.366608
0.362387
0.363241
0.360273
0.361452
0.359334
0.359861
0.357967
0.358348
0.356858
0.356479
0.354814
0.353794
0.352071
0.350977
0.349907
0.349413
0.348916
0.348647
0.348343
0.347986
0.347594
0.347019
0.346546
0.345822
0.345302
0.344475
0.343851
0.342962
0.342138
0.341292
0.340139
0.33946
0.338274
0.337842
0.337843
0.336515
0.352445
0.368825
0.360502
0.336827
0.319707
0.317792
0.32543
0.334366
0.340425
0.343516
0.344901
0.345589
0.346026
0.346421
0.346796
0.347217
0.347635
0.348125
0.348606
0.349189
0.349746
0.350444
0.351084
0.35192
0.352648
0.353655
0.35447
0.355687
0.356591
0.358086
0.359096
0.360976
0.362103
0.364484
0.365751
0.368822
0.370336
0.374429
0.376459
0.381743
0.38375
0.38994
0.391227
0.39717
0.395478
0.400071
0.39751
0.407297
0.408998
0.417956
0.418288
0.405257
0.41511
0.359006
0.340225
0.369094
0.382544
0.375898
0.376349
0.37001
0.37104
0.365606
0.366608
0.362383
0.363229
0.360257
0.361436
0.359324
0.359851
0.357959
0.358342
0.356856
0.356477
0.354814
0.35379
0.352063
0.350963
0.349891
0.349398
0.348905
0.348641
0.348342
0.347989
0.347599
0.347026
0.346555
0.345833
0.345317
0.344493
0.343874
0.342989
0.342171
0.341331
0.340181
0.339509
0.338316
0.337883
0.337873
0.33651
0.352488
0.36886
0.360403
0.336491
0.319198
0.317296
0.325088
0.334187
0.340347
0.343482
0.344883
0.345576
0.346014
0.34641
0.346784
0.347205
0.347623
0.348113
0.348593
0.349175
0.349732
0.350429
0.351069
0.351904
0.352632
0.353637
0.354452
0.355667
0.35657
0.358064
0.359073
0.360949
0.362075
0.364453
0.365719
0.368786
0.370298
0.374388
0.376422
0.381708
0.38372
0.389914
0.391209
0.397147
0.395431
0.400002
0.397418
0.407247
0.408953
0.418023
0.418356
0.405497
0.415877
0.359831
0.34036
0.369247
0.382705
0.376005
0.376461
0.370078
0.371067
0.365614
0.36661
0.362379
0.363217
0.360242
0.36142
0.359314
0.359843
0.357951
0.358337
0.356854
0.356476
0.354814
0.353785
0.352055
0.350949
0.349876
0.349384
0.348895
0.348635
0.348341
0.347992
0.347605
0.347033
0.346564
0.345844
0.345332
0.344511
0.343898
0.343016
0.342206
0.341372
0.340224
0.33956
0.338359
0.337925
0.337904
0.336505
0.352528
0.368891
0.3603
0.336152
0.318687
0.316797
0.324743
0.334006
0.340267
0.343447
0.344865
0.345563
0.346003
0.346398
0.346773
0.347193
0.347611
0.3481
0.34858
0.349162
0.349718
0.350415
0.351054
0.351889
0.352616
0.35362
0.354434
0.355648
0.35655
0.358041
0.359049
0.360923
0.362047
0.364422
0.365686
0.36875
0.370261
0.374348
0.376385
0.381673
0.383691
0.389887
0.391191
0.397124
0.395384
0.399933
0.397327
0.407197
0.40891
0.418091
0.418425
0.405744
0.416652
0.360677
0.340482
0.36938
0.38286
0.376111
0.376573
0.370147
0.371094
0.365622
0.366612
0.362377
0.363206
0.360227
0.361405
0.359304
0.359835
0.357944
0.358333
0.356852
0.356475
0.354815
0.353782
0.352047
0.350935
0.349861
0.349371
0.348885
0.348629
0.348341
0.347995
0.34761
0.34704
0.346574
0.345856
0.345348
0.344529
0.343922
0.343044
0.342241
0.341413
0.340269
0.339612
0.338403
0.337968
0.337936
0.3365
0.352565
0.368919
0.360195
0.335812
0.318173
0.316294
0.324395
0.333824
0.340187
0.343413
0.344847
0.34555
0.345991
0.346387
0.346761
0.347181
0.347599
0.348087
0.348567
0.349148
0.349704
0.3504
0.351039
0.351873
0.3526
0.353603
0.354416
0.355629
0.35653
0.358019
0.359026
0.360897
0.36202
0.364391
0.365655
0.368715
0.370223
0.374309
0.376348
0.381639
0.383662
0.389862
0.391175
0.397102
0.395337
0.399865
0.397236
0.407147
0.408867
0.418158
0.418496
0.405998
0.417434
0.361542
0.340591
0.369492
0.383007
0.376217
0.376685
0.370217
0.371122
0.365631
0.366615
0.362375
0.363195
0.360212
0.361391
0.359295
0.359827
0.357938
0.358329
0.356851
0.356475
0.354816
0.353778
0.35204
0.350922
0.349847
0.349357
0.348875
0.348624
0.34834
0.347998
0.347616
0.347047
0.346584
0.345868
0.345364
0.344549
0.343948
0.343073
0.342277
0.341455
0.340314
0.339665
0.338448
0.338013
0.337969
0.336496
0.3526
0.368943
0.360087
0.33547
0.317656
0.315788
0.324044
0.333641
0.340107
0.343378
0.344829
0.345537
0.34598
0.346376
0.34675
0.347169
0.347586
0.348075
0.348554
0.349135
0.34969
0.350385
0.351024
0.351857
0.352584
0.353586
0.354399
0.35561
0.35651
0.357997
0.359003
0.360872
0.361993
0.364361
0.365623
0.36868
0.370187
0.37427
0.376312
0.381605
0.383635
0.389837
0.391159
0.39708
0.395291
0.399796
0.397146
0.407099
0.408825
0.418227
0.418568
0.406261
0.418222
0.362427
0.340687
0.36958
0.383148
0.37632
0.376796
0.370286
0.37115
0.365641
0.366619
0.362375
0.363185
0.360198
0.361377
0.359287
0.359819
0.357932
0.358325
0.356851
0.356475
0.354818
0.353775
0.352033
0.35091
0.349832
0.349344
0.348865
0.348618
0.34834
0.348001
0.347622
0.347055
0.346595
0.34588
0.345381
0.344568
0.343973
0.343103
0.342313
0.341498
0.340361
0.339719
0.338495
0.338059
0.338004
0.336491
0.352632
0.368963
0.359977
0.335126
0.317138
0.315278
0.32369
0.333456
0.340026
0.343343
0.34481
0.345524
0.345968
0.346364
0.346738
0.347158
0.347574
0.348062
0.348541
0.349121
0.349676
0.350371
0.351009
0.351842
0.352568
0.353569
0.354381
0.355591
0.35649
0.357975
0.35898
0.360846
0.361966
0.364331
0.365592
0.368645
0.37015
0.374231
0.376277
0.381572
0.383607
0.389813
0.391144
0.39706
0.395246
0.399729
0.397056
0.40705
0.408784
0.418296
0.418643
0.406532
0.419016
0.363332
0.34077
0.369645
0.38328
0.376422
0.376906
0.370355
0.371178
0.365651
0.366623
0.362375
0.363176
0.360185
0.361363
0.359279
0.359812
0.357927
0.358322
0.356851
0.356475
0.35482
0.353773
0.352027
0.350897
0.349818
0.349331
0.348856
0.348613
0.34834
0.348005
0.347629
0.347063
0.346605
0.345893
0.345398
0.344588
0.343999
0.343133
0.342351
0.341542
0.340409
0.339775
0.338542
0.338106
0.338039
0.336487
0.352662
0.368979
0.359864
0.33478
0.316616
0.314765
0.323334
0.33327
0.339945
0.343308
0.344792
0.345511
0.345956
0.346353
0.346727
0.347146
0.347562
0.348049
0.348528
0.349107
0.349662
0.350356
0.350995
0.351826
0.352552
0.353552
0.354364
0.355572
0.356471
0.357954
0.358957
0.360821
0.361939
0.364302
0.365561
0.368611
0.370114
0.374192
0.376242
0.38154
0.383581
0.389789
0.39113
0.39704
0.395202
0.399662
0.396968
0.407003
0.408745
0.418366
0.418719
0.406811
0.419814
0.364254
0.340842
0.369685
0.383403
0.37652
0.377013
0.370424
0.371205
0.365661
0.366628
0.362375
0.363167
0.360172
0.36135
0.359271
0.359806
0.357922
0.35832
0.356852
0.356476
0.354823
0.353771
0.352021
0.350885
0.349804
0.349318
0.348846
0.348609
0.348341
0.348009
0.347635
0.347072
0.346616
0.345906
0.345416
0.344609
0.344026
0.343164
0.342389
0.341587
0.340458
0.339832
0.338591
0.338155
0.338075
0.336483
0.352688
0.368992
0.359748
0.334433
0.316093
0.314249
0.322975
0.333082
0.339863
0.343273
0.344773
0.345497
0.345944
0.346341
0.346715
0.347134
0.34755
0.348037
0.348515
0.349094
0.349649
0.350342
0.35098
0.351811
0.352536
0.353535
0.354347
0.355553
0.356452
0.357932
0.358935
0.360796
0.361913
0.364272
0.365531
0.368577
0.370079
0.374154
0.376208
0.381508
0.383555
0.389766
0.391117
0.397021
0.395159
0.399595
0.396879
0.406957
0.408707
0.418436
0.418797
0.407099
0.420616
0.365196
0.340901
0.369698
0.383517
0.376615
0.377119
0.370491
0.371233
0.365672
0.366633
0.362376
0.363158
0.360159
0.361337
0.359264
0.3598
0.357917
0.358318
0.356853
0.356477
0.354826
0.353769
0.352015
0.350873
0.349791
0.349305
0.348837
0.348604
0.348341
0.348013
0.347642
0.34708
0.346628
0.34592
0.345434
0.344629
0.344053
0.343195
0.342428
0.341633
0.340508
0.33989
0.338641
0.338204
0.338111
0.336479
0.352713
0.369001
0.35963
0.334084
0.315568
0.313729
0.322613
0.332893
0.33978
0.343238
0.344755
0.345484
0.345933
0.34633
0.346703
0.347122
0.347537
0.348024
0.348502
0.34908
0.349635
0.350327
0.350965
0.351795
0.35252
0.353518
0.35433
0.355535
0.356432
0.357911
0.358913
0.360771
0.361887
0.364243
0.365501
0.368543
0.370044
0.374117
0.376174
0.381476
0.38353
0.389744
0.391105
0.397004
0.395116
0.399529
0.396792
0.406911
0.408671
0.418507
0.418878
0.407396
0.421421
0.366154
0.34095
0.369685
0.38362
0.376706
0.377222
0.370557
0.37126
0.365682
0.366639
0.362378
0.36315
0.360146
0.361325
0.359258
0.359794
0.357913
0.358316
0.356854
0.356479
0.354829
0.353768
0.35201
0.350862
0.349777
0.349293
0.348828
0.3486
0.348342
0.348018
0.34765
0.347089
0.346639
0.345933
0.345452
0.344651
0.344081
0.343227
0.342467
0.34168
0.340558
0.339949
0.338693
0.338255
0.338149
0.336475
0.352734
0.369007
0.359509
0.333734
0.31504
0.313206
0.322248
0.332702
0.339697
0.343202
0.344736
0.345471
0.345921
0.346318
0.346691
0.34711
0.347525
0.348011
0.348489
0.349067
0.349621
0.350313
0.35095
0.35178
0.352505
0.353502
0.354313
0.355516
0.356413
0.35789
0.358891
0.360747
0.361862
0.364214
0.365471
0.36851
0.370009
0.374079
0.376141
0.381446
0.383506
0.389722
0.391094
0.396987
0.395075
0.399464
0.396706
0.406867
0.408636
0.41858
0.418961
0.407702
0.422229
0.36713
0.340987
0.369645
0.383712
0.376793
0.377321
0.370621
0.371286
0.365693
0.366644
0.36238
0.363141
0.360134
0.361313
0.359252
0.359789
0.35791
0.358315
0.356856
0.356481
0.354833
0.353767
0.352004
0.35085
0.349764
0.34928
0.34882
0.348595
0.348343
0.348022
0.347657
0.347098
0.346651
0.345947
0.34547
0.344672
0.344109
0.343259
0.342508
0.341727
0.34061
0.340009
0.338745
0.338307
0.338187
0.33647
0.352753
0.369008
0.359386
0.333383
0.314511
0.31268
0.321881