/*--------------------------------*- C++ -*----------------------------------*\
| =========                 |                                                 |
| \\      /  F ield         | OpenFOAM: The Open Source CFD Toolbox           |
|  \\    /   O peration     | Version:  2412                                  |
|   \\  /    A nd           | Website:  www.openfoam.com                      |
|    \\/     M anipulation  |                                                 |
\*---------------------------------------------------------------------------*/
FoamFile
{
    version     2.0;
    format      ascii;
    arch        "LSB;label=32;scalar=64";
    class       volScalarField;
    location    "0.2";
    object      p;
}
// * * * * * * * * * * * * * * * * * * * * * * * * * * * * * * * * * * * * * //

dimensions      [0 2 -2 0 0 0 0];

internalField   nonuniform List<scalar> 
12960
(
112529
112509
112481
112421
112372
112282
112196
112065
111953
111782
111641
111424
111252
110978
110777
110432
110203
109765
109515
108955
108694
107973
107720
106784
106571
105341
105222
103588
103647
101446
101817
98811
99695.9
95544.1
97251.8
91458.6
94457
86307.6
91296.7
79762.2
87765.2
71362.7
83807.3
60340.1
79092.9
45132.5
72526.7
22653.5
61887.1
-10875.8
45966.8
-58269.3
26306
-114268
14776.4
-76651.3
13013.8
-43877.5
18873.4
-15554.7
27249.3
5254.01
34492.1
20615.3
40951.1
32338.1
46504.9
41293
51130
48097.6
54940
53311.5
58123.8
57395.1
60861.6
60731.3
63317
63588.4
65568.8
66082.5
67599.4
68239.8
69382.2
70091.9
70927.9
71699.7
72280.5
73141.1
73492.8
74490.5
74612.1
75811.2
75676.9
77151
76717.1
78529.4
77757.2
79922.8
78818
112533
112512
112484
112424
112376
112285
112200
112068
111956
111785
111644
111427
111255
110982
110780
110435
110206
109769
109518
108959
108697
107977
107723
106788
106574
105346
105225
103592
103651
101450
101819
98816
99698.5
95549.4
97253.9
91464
94458.5
86313.1
91297.6
79767.9
87766.2
71369.7
83810.5
60351.3
79102
45151.5
72543.3
22674.8
61901.5
-10867.9
45968.8
-58310.8
26272.3
-114445
14745.9
-76676.4
12992.3
-43886.1
18860.6
-15546.4
27247.5
5263.69
34491
20623.2
40951.6
32345.5
46506.6
41300
51132.1
48103.4
54941.6
53315.7
58124.4
57397.3
60861.1
60731.9
63315.9
63588.4
65567.9
66082.4
67599
68239.8
69381.8
70091.4
70927
71698.3
72278.9
73138.7
73490.4
74487.2
74608.9
75807.4
75673.3
77147.5
76713.1
78527.2
77753.5
79922.6
78815.8
112537
112516
112487
112428
112379
112288
112203
112072
111959
111788
111647
111430
111259
110985
110784
110439
110210
109772
109521
108963
108701
107981
107727
106792
106578
105350
105229
103597
103654
101455
101822
98821.1
99701.1
95554.7
97256.1
91469.5
94460
86318.7
91298.5
79773.6
87767.3
71376.8
83813.7
60362.7
79111
45170.4
72559.9
22696.2
61915.9
-10859.9
45971
-58352.4
26238.2
-114624
14715.1
-76701.8
12970.7
-43894.5
18848
-15537.9
27245.8
5273.46
34489.9
20631.1
40952
32353
46508.4
41307
51134.3
48109.3
54943.2
53320
58125.1
57399.7
60860.6
60732.6
63314.8
63588.4
65567.1
66082.5
67598.6
68239.8
69381.4
70090.8
70926.2
71696.9
72277.3
73136.3
73488
74483.9
74605.9
75803.8
75669.7
77144.1
76709.3
78525.1
77749.9
79922.6
78813.7
112541
112520
112491
112431
112382
112292
112206
112075
111962
111791
111650
111433
111262
110988
110787
110442
110213
109776
109525
108966
108704
107985
107730
106796
106581
105354
105232
103601
103657
101460
101825
98826.2
99703.8
95560.1
97258.3
91475.1
94461.6
86324.4
91299.5
79779.6
87768.4
71384.1
83817
60374.1
79119.9
45189.4
72576.3
22717.6
61930.2
-10851.8
45973.1
-58394.2
26203.9
-114805
14683.9
-76727.5
12949
-43902.8
18835.4
-15529.3
27244.1
5283.33
34488.9
20639.2
40952.5
32360.5
46510.2
41314.1
51136.4
48115.2
54944.8
53324.2
58125.7
57402
60860.2
60733.3
63313.8
63588.4
65566.3
66082.6
67598.2
68239.8
69381.1
70090.4
70925.4
71695.5
72275.8
73133.9
73485.7
74480.7
74602.9
75800.1
75666.3
77140.8
76705.6
78523.1
77746.4
79922.8
78811.7
112546
112524
112495
112435
112386
112295
112209
112078
111965
111794
111653
111436
111265
110991
110790
110445
110216
109779
109528
108970
108707
107989
107734
106800
106584
105358
105236
103606
103660
101465
101829
98831.3
99706.5
95565.5
97260.5
91480.7
94463.2
86330.1
91300.5
79785.5
87769.6
71391.3
83820.3
60385.7
79129
45208.6
72592.9
22739.3
61944.7
-10843.6
45975.4
-58436.1
26169.3
-114988
14652.5
-76753.3
12927.2
-43911.2
18822.8
-15520.6
27242.5
5293.28
34487.8
20647.3
40953
32368.1
46511.9
41321.2
51138.5
48121.1
54946.4
53328.6
58126.3
57404.4
60859.7
60734
63312.7
63588.5
65565.5
66082.7
67597.9
68239.8
69380.8
70089.9
70924.6
71694.2
72274.3
73131.6
73483.4
74477.5
74600
75796.5
75662.8
77137.5
76701.9
78521.1
77742.9
79922.9
78809.6
112550
112528
112499
112438
112389
112298
112212
112081
111968
111798
111656
111439
111268
110994
110793
110449
110219
109783
109532
108974
108711
107993
107737
106804
106588
105363
105239
103610
103664
101470
101832
98836.5
99709.3
95570.9
97262.7
91486.4
94464.8
86335.9
91301.6
79791.5
87770.7
71398.7
83823.6
60397.2
79138.1
45227.9
72609.7
22761.1
61959.4
-10835.2
45977.7
-58478.2
26134.4
-115172
14620.8
-76779.1
12905.1
-43919.6
18810
-15511.8
27240.8
5303.32
34486.8
20655.5
40953.6
32375.8
46513.7
41328.4
51140.7
48127.1
54948
53332.9
58127
57406.7
60859.2
60734.8
63311.7
63588.5
65564.8
66082.8
67597.5
68239.9
69380.5
70089.5
70923.9
71692.8
72272.8
73129.3
73481.1
74474.3
74597
75792.9
75659.3
77134.1
76698.2
78519.1
77739.4
79923.1
78807.5
112554
112532
112503
112442
112393
112302
112216
112084
111971
111801
111659
111442
111271
110998
110796
110452
110223
109787
109535
108978
108715
107997
107741
106808
106592
105367
105242
103615
103667
101474
101835
98841.7
99712
95576.4
97265
91492.1
94466.4
86341.7
91302.6
79797.5
87771.8
71406
83826.9
60408.9
79147.2
45247.3
72626.5
22783.1
61974.2
-10826.7
45980.2
-58520.4
26099.3
-115358
14588.8
-76805.1
12882.9
-43928.1
18797.3
-15502.9
27239.1
5313.43
34485.7
20663.7
40954.1
32383.5
46515.5
41335.7
51142.8
48133.2
54949.7
53337.3
58127.7
57409.1
60858.7
60735.5
63310.6
63588.6
65564
66082.9
67597.2
68240
69380.2
70089
70923.1
71691.5
72271.2
73126.9
73478.8
74471.1
74594
75789.2
75655.8
77130.8
76694.4
78517.1
77735.8
79923.3
78805.3
112559
112536
112507
112446
112397
112305
112219
112087
111974
111804
111662
111445
111274
111001
110800
110456
110226
109790
109538
108981
108718
108001
107744
106812
106595
105371
105246
103620
103670
101479
101838
98846.9
99714.8
95582
97267.2
91497.8
94468
86347.5
91303.6
79803.6
87773
71413.4
83830.2
60420.6
79156.4
45266.9
72643.6
22805.4
61989.1
-10818.1
45982.8
-58562.8
26064
-115545
14556.5
-76831.1
12860.5
-43936.6
18784.4
-15493.9
27237.5
5323.63
34484.6
20672.1
40954.6
32391.3
46517.4
41343
51145
48139.3
54951.4
53341.7
58128.3
57411.6
60858.2
60736.2
63309.5
63588.7
65563.2
66083
67596.9
68240.1
69379.9
70088.6
70922.3
71690.2
72269.7
73124.6
73476.5
74467.9
74591
75785.5
75652.3
77127.4
76690.6
78515.1
77732.2
79923.4
78803.2
112563
112541
112512
112450
112400
112308
112222
112090
111978
111807
111666
111449
111277
111004
110803
110459
110230
109794
109542
108985
108722
108005
107748
106817
106599
105376
105249
103624
103674
101484
101841
98852.2
99717.5
95587.6
97269.5
91503.6
94469.7
86353.4
91304.7
79809.7
87774.1
71420.9
83833.6
60432.4
79165.7
45286.7
72660.7
22827.8
62004.2
-10809.3
45985.5
-58605.3
26028.3
-115735
14523.9
-76857.3
12837.9
-43945.2
18771.5
-15484.9
27235.9
5333.91
34483.6
20680.4
40955.2
32399.2
46519.2
41350.4
51147.3
48145.4
54953
53346.2
58129
57414
60857.8
60737
63308.5
63588.8
65562.4
66083.2
67596.5
68240.2
69379.6
70088.2
70921.6
71688.8
72268.2
73122.2
73474.2
74464.6
74588
75781.8
75648.7
77124
76686.8
78513
77728.5
79923.6
78800.9
112568
112545
112516
112453
112404
112312
112225
112093
111981
111810
111669
111452
111280
111008
110806
110462
110233
109797
109546
108989
108725
108009
107752
106821
106602
105380
105253
103629
103677
101489
101844
98857.6
99720.3
95593.2
97271.8
91509.4
94471.3
86359.4
91305.7
79815.9
87775.2
71428.4
83836.9
60444.3
79175
45306.6
72678
22850.4
62019.4
-10800.4
45988.3
-58647.9
25992.4
-115926
14491.1
-76883.5
12815.2
-43953.8
18758.5
-15475.7
27234.3
5344.28
34482.5
20688.9
40955.7
32407.1
46521.1
41357.8
51149.5
48151.6
54954.7
53350.7
58129.7
57416.5
60857.3
60737.8
63307.4
63588.8
65561.6
66083.3
67596.2
68240.3
69379.4
70087.8
70920.8
71687.5
72266.7
73119.8
73471.9
74461.4
74584.9
75778.1
75645.2
77120.5
76682.9
78510.9
77724.8
79923.8
78798.7
112572
112549
112520
112457
112407
112315
112229
112097
111984
111813
111672
111455
111284
111011
110809
110466
110236
109801
109549
108993
108729
108013
107755
106825
106606
105385
105256
103634
103680
101494
101847
98862.9
99723.1
95598.9
97274.1
91515.3
94473
86365.3
91306.7
79822
87776.3
71435.9
83840.2
60456.2
79184.3
45326.6
72695.5
22873.2
62034.8
-10791.4
45991.1
-58690.7
25956.3
-116118
14458
-76909.8
12792.2
-43962.5
18745.4
-15466.4
27232.7
5354.73
34481.4
20697.4
40956.3
32415
46523
41365.3
51151.8
48157.9
54956.5
53355.2
58130.4
57419
60856.8
60738.5
63306.3
63588.9
65560.9
66083.5
67595.9
68240.4
69379.1
70087.4
70920.1
71686.2
72265.2
73117.5
73469.6
74458.1
74581.9
75774.3
75641.6
77117
76679
78508.9
77721
79924.1
78796.4
112577
112553
112524
112461
112411
112318
112232
112100
111987
111816
111675
111458
111287
111014
110813
110470
110240
109805
109553
108997
108733
108017
107759
106829
106610
105389
105260
103638
103684
101499
101850
98868.3
99726
95604.6
97276.4
91521.2
94474.6
86371.4
91307.8
79828.3
87777.5
71443.5
83843.6
60468.2
79193.8
45346.8
72713.1
22896.3
62050.3
-10782.3
45994.1
-58733.7
25919.8
-116313
14424.6
-76936.2
12769.1
-43971.3
18732.3
-15457
27231.1
5365.26
34480.3
20705.9
40956.9
32423.1
46524.9
41372.8
51154.1
48164.2
54958.2
53359.8
58131.1
57421.5
60856.3
60739.3
63305.2
63589
65560.1
66083.7
67595.7
68240.6
69378.9
70087
70919.4
71684.9
72263.7
73115.1
73467.3
74454.8
74578.8
75770.5
75638
77113.5
76675.1
78506.8
77717.3
79924.3
78794
112581
112558
112528
112465
112415
112322
112235
112103
111990
111820
111678
111462
111290
111018
110816
110473
110243
109809
109556
109001
108736
108021
107763
106834
106613
105394
105264
103643
103687
101505
101854
98873.8
99728.8
95610.3
97278.8
91527.2
94476.3
86377.4
91308.8
79834.5
87778.6
71451.1
83846.9
60480.3
79203.2
45367.1
72730.8
22919.5
62065.9
-10773
45997.2
-58776.8
25883.1
-116509
14390.9
-76962.7
12745.8
-43980.1
18719.1
-15447.5
27229.5
5375.88
34479.3
20714.6
40957.5
32431.2
46526.9
41380.5
51156.4
48170.5
54960
53364.4
58131.8
57424
60855.8
60740.1
63304.1
63589.1
65559.3
66083.8
67595.4
68240.7
69378.6
70086.7
70918.7
71683.5
72262.2
73112.7
73464.9
74451.5
74575.8
75766.7
75634.3
77110
76671.1
78504.6
77713.4
79924.5
78791.6
112586
112562
112532
112469
112418
112325
112239
112106
111994
111823
111682
111465
111294
111021
110820
110477
110247
109812
109560
109005
108740
108025
107766
106838
106617
105399
105267
103648
103691
101510
101857
98879.3
99731.7
95616.1
97281.1
91533.2
94478
86383.5
91309.9
79840.8
87779.7
71458.7
83850.3
60492.4
79212.7
45387.6
72748.7
22942.9
62081.7
-10763.5
46000.4
-58820.1
25846.1
-116706
14357
-76989.3
12722.3
-43989
18705.8
-15437.9
27228
5386.58
34478.2
20723.2
40958.1
32439.3
46528.9
41388.1
51158.7
48176.9
54961.7
53369
58132.6
57426.5
60855.3
60740.9
63303
63589.2
65558.6
66084
67595.1
68240.9
69378.4
70086.3
70918
71682.2
72260.7
73110.3
73462.6
74448.2
74572.7
75762.9
75630.7
77106.5
76667.2
78502.5
77709.6
79924.8
78789.2
112591
112566
112537
112472
112422
112329
112242
112110
111997
111826
111685
111468
111297
111025
110823
110480
110251
109816
109564
109009
108744
108029
107770
106843
106621
105403
105271
103653
103694
101515
101860
98884.8
99734.6
95622
97283.5
91539.3
94479.7
86389.7
91310.9
79847.2
87780.8
71466.4
83853.6
60504.6
79222.3
45408.2
72766.7
22966.5
62097.6
-10754
46003.7
-58863.5
25808.7
-116906
14322.8
-77015.9
12698.6
-43997.9
18692.4
-15428.1
27226.4
5397.36
34477.1
20732
40958.7
32447.6
46530.8
41395.9
51161.1
48183.4
54963.5
53373.7
58133.3
57429.1
60854.8
60741.7
63301.9
63589.4
65557.8
66084.3
67594.9
68241.1
69378.2
70086
70917.3
71680.9
72259.2
73107.9
73460.2
74444.8
74569.6
75759
75627
77102.9
76663.2
78500.4
77705.6
79925.1
78786.7
112595
112571
112541
112476
112426
112332
112246
112113
112000
111829
111688
111471
111300
111028
110826
110484
110254
109820
109567
109013
108747
108034
107774
106847
106624
105408
105275
103658
103698
101520
101863
98890.3
99737.5
95627.8
97285.9
91545.4
94481.4
86395.9
91312
79853.5
87781.9
71474.1
83857
60516.9
79231.9
45428.9
72784.8
22990.3
62113.7
-10744.3
46007.1
-58907.1
25771.1
-117107
14288.3
-77042.7
12674.8
-44006.9
18679
-15418.3
27224.9
5408.23
34476
20740.8
40959.3
32455.9
46532.9
41403.7
51163.5
48189.9
54965.3
53378.5
58134.1
57431.7
60854.3
60742.5
63300.8
63589.5
65557
66084.5
67594.6
68241.3
69378.1
70085.6
70916.6
71679.6
72257.7
73105.5
73457.9
74441.5
74566.5
75755.1
75623.3
77099.3
76659.1
78498.2
77701.7
79925.3
78784.2
112600
112575
112545
112480
112430
112336
112249
112116
112004
111833
111691
111475
111304
111031
110830
110488
110258
109824
109571
109017
108751
108038
107778
106851
106628
105412
105278
103663
103701
101525
101867
98895.9
99740.4
95633.8
97288.3
91551.5
94483.1
86402.1
91313
79859.9
87783
71481.8
83860.4
60529.2
79241.6
45449.8
72803.1
23014.3
62129.9
-10734.4
46010.6
-58950.9
25733.1
-117310
14253.5
-77069.5
12650.7
-44016
18665.5
-15408.4
27223.4
5419.19
34474.9
20749.7
40959.9
32464.2
46534.9
41411.6
51165.9
48196.5
54967.2
53383.2
58134.8
57434.3
60853.8
60743.3
63299.7
63589.6
65556.3
66084.7
67594.4
68241.5
69377.9
70085.3
70915.9
71678.3
72256.2
73103.1
73455.5
74438.1
74563.3
75751.2
75619.6
77095.6
76655.1
78496
77697.7
79925.6
78781.6
112605
112580
112550
112484
112434
112340
112253
112120
112007
111836
111695
111478
111307
111035
110833
110491
110261
109828
109575
109021
108755
108042
107782
106856
106632
105417
105282
103668
103705
101531
101870
98901.6
99743.4
95639.7
97290.7
91557.7
94484.8
86408.4
91314.1
79866.4
87784.1
71489.6
83863.7
60541.6
79251.3
45470.8
72821.5
23038.5
62146.2
-10724.5
46014.2
-58994.8
25694.9
-117514
14218.5
-77096.4
12626.5
-44025.1
18651.9
-15398.4
27221.9
5430.23
34473.8
20758.6
40960.6
32472.6
46537
41419.5
51168.3
48203.1
54969
53388
58135.6
57437
60853.3
60744.1
63298.6
63589.7
65555.5
66085
67594.2
68241.8
69377.7
70085
70915.2
71677
72254.7
73100.7
73453.2
74434.7
74560.2
75747.3
75615.9
77092
76651
78493.8
77693.7
79925.9
78779
112610
112584
112554
112488
112437
112343
112256
112123
112010
111839
111698
111482
111310
111039
110837
110495
110265
109832
109578
109025
108759
108047
107786
106861
106636
105422
105286
103673
103708
101536
101873
98907.3
99746.4
95645.7
97293.1
91563.9
94486.5
86414.7
91315.1
79872.9
87785.2
71497.4
83867.1
60554
79261.1
45492
72840.1
23062.8
62162.7
-10714.4
46018
-59038.9
25656.3
-117720
14183.2
-77123.3
12602.1
-44034.3
18638.2
-15388.2
27220.5
5441.35
34472.7
20767.6
40961.3
32481.1
46539
41427.5
51170.8
48209.8
54970.9
53392.9
58136.3
57439.6
60852.8
60745
63297.5
63589.9
65554.7
66085.2
67594
68242
69377.6
70084.7
70914.5
71675.7
72253.2
73098.3
73450.8
74431.3
74557
75743.3
75612.1
77088.3
76646.8
78491.6
77689.6
79926.2
78776.3
112615
112589
112559
112492
112441
112347
112260
112126
112014
111843
111701
111485
111314
111042
110840
110499
110269
109836
109582
109029
108763
108051
107789
106865
106640
105427
105289
103678
103712
101541
101877
98913
99749.4
95651.8
97295.6
91570.2
94488.3
86421.1
91316.2
79879.4
87786.3
71505.3
83870.5
60566.5
79270.9
45513.4
72858.8
23087.4
62179.3
-10704.2
46021.8
-59083.2
25617.4
-117928
14147.6
-77150.4
12577.5
-44043.5
18624.5
-15378
27219
5452.56
34471.6
20776.7
40961.9
32489.6
46541.1
41435.5
51173.3
48216.5
54972.8
53397.8
58137.1
57442.3
60852.3
60745.8
63296.3
63590
65554
66085.5
67593.8
68242.3
69377.4
70084.4
70913.9
71674.4
72251.7
73095.8
73448.4
74427.9
74553.9
75739.3
75608.3
77084.5
76642.7
78489.3
77685.4
79926.6
78773.6
112620
112593
112563
112496
112445
112351
112263
112130
112017
111846
111705
111488
111317
111046
110844
110502
110272
109840
109586
109033
108767
108055
107793
106870
106644
105432
105293
103683
103715
101547
101880
98918.7
99752.4
95657.9
97298
91576.5
94490
86427.5
91317.2
79886
87787.3
71513.2
83873.8
60579
79280.8
45534.8
72877.7
23112.2
62196
-10693.8
46025.7
-59127.6
25578.2
-118138
14111.7
-77177.5
12552.8
-44052.8
18610.7
-15367.7
27217.6
5463.86
34470.5
20785.9
40962.6
32498.2
46543.3
41443.6
51175.8
48223.2
54974.7
53402.7
58137.9
57445
60851.8
60746.6
63295.2
63590.1
65553.2
66085.8
67593.6
68242.6
69377.3
70084.1
70913.2
71673.1
72250.2
73093.4
73446
74424.4
74550.7
75735.3
75604.5
77080.8
76638.5
78487
77681.3
79926.9
78770.8
112624
112598
112567
112500
112449
112354
112267
112133
112021
111849
111708
111492
111321
111049
110848
110506
110276
109843
109590
109038
108771
108060
107797
106874
106648
105436
105297
103688
103719
101552
101883
98924.5
99755.4
95664
97300.5
91582.8
94491.8
86433.9
91318.3
79892.5
87788.4
71521.1
83877.2
60591.7
79290.7
45556.4
72896.7
23137.2
62212.9
-10683.3
46029.7
-59172.2
25538.6
-118349
14075.6
-77204.8
12527.8
-44062.1
18596.8
-15357.2
27216.2
5475.24
34469.4
20795
40963.3
32506.9
46545.4
41451.8
51178.3
48230.1
54976.6
53407.6
58138.7
57447.7
60851.3
60747.5
63294
63590.3
65552.5
66086
67593.4
68242.9
69377.2
70083.9
70912.6
71671.8
72248.7
73091
73443.6
74421
74547.5
75731.2
75600.7
77077
76634.3
78484.8
77677.1
79927.3
78768
112629
112602
112572
112505
112453
112358
112271
112137
112024
111853
111712
111495
111324
111053
110851
110510
110280
109848
109594
109042
108775
108064
107801
106879
106651
105441
105301
103693
103723
101558
101887
98930.4
99758.4
95670.2
97303
91589.3
94493.5
86440.4
91319.4
79899.2
87789.5
71529
83880.6
60604.3
79300.7
45578.2
72915.8
23162.3
62229.9
-10672.7
46033.8
-59217
25498.7
-118562
14039.1
-77232.1
12502.7
-44071.5
18582.8
-15346.7
27214.8
5486.7
34468.3
20804.3
40964
32515.6
46547.6
41460.1
51180.9
48236.9
54978.5
53412.6
58139.5
57450.4
60850.8
60748.3
63292.9
63590.4
65551.7
66086.3
67593.2
68243.2
69377.1
70083.6
70911.9
71670.5
72247.2
73088.5
73441.2
74417.5
74544.3
75727.2
75596.9
77073.1
76630
78482.4
77672.8
79927.6
78765.2
112634
112607
112577
112509
112457
112362
112274
112140
112028
111856
111715
111499
111328
111057
110855
110514
110284
109852
109598
109046
108779
108069
107805
106884
106655
105446
105305
103698
103726
101563
101890
98936.2
99761.5
95676.4
97305.5
91595.7
94495.3
86446.9
91320.4
79905.8
87790.5
71537
83883.9
60617.1
79310.7
45600
72935.1
23187.7
62247
-10661.9
46038
-59262
25458.5
-118777
14002.4
-77259.5
12477.4
-44081
18568.7
-15336
27213.4
5498.25
34467.2
20813.6
40964.7
32524.4
46549.8
41468.4
51183.5
48243.9
54980.5
53417.7
58140.3
57453.2
60850.3
60749.2
63291.7
63590.6
65551
66086.7
67593
68243.5
69377
70083.4
70911.3
71669.3
72245.7
73086.1
73438.8
74414
74541.1
75723.1
75593
77069.3
76625.7
78480.1
77668.5
79928
78762.2
112640
112612
112581
112513
112461
112365
112278
112144
112031
111860
111719
111502
111331
111060
110858
110518
110287
109856
109602
109050
108783
108073
107809
106888
106659
105451
105309
103704
103730
101569
101894
98942.2
99764.6
95682.7
97308
91602.2
94497.1
86453.5
91321.5
79912.5
87791.6
71545.1
83887.3
60629.9
79320.7
45622.1
72954.5
23213.3
62264.3
-10651
46042.3
-59307.2
25418
-118994
13965.4
-77287
12451.9
-44090.5
18554.6
-15325.2
27212.1
5509.88
34466.1
20823
40965.4
32533.3
46552
41476.7
51186.1
48250.8
54982.4
53422.7
58141.2
57456
60849.7
60750
63290.6
63590.7
65550.2
66087
67592.9
68243.9
69376.9
70083.1
70910.7
71668
72244.2
73083.6
73436.4
74410.5
74537.8
75718.9
75589.1
77065.4
76621.4
78477.7
77664.2
79928.4
78759.3
112645
112616
112586
112517
112465
112369
112282
112147
112035
111863
111722
111506
111335
111064
110862
110522
110291
109860
109606
109055
108787
108078
107813
106893
106663
105456
105312
103709
103734
101574
101897
98948.1
99767.7
95689
97310.5
91608.7
94498.9
86460.1
91322.5
79919.3
87792.6
71553.1
83890.6
60642.7
79330.8
45644.2
72974
23239
62281.7
-10640
46046.7
-59352.5
25377.2
-119212
13928
-77314.6
12426.2
-44100.1
18540.4
-15314.4
27210.7
5521.59
34464.9
20832.5
40966.2
32542.2
46554.2
41485.1
51188.7
48257.9
54984.4
53427.8
58142
57458.8
60849.2
60750.9
63289.4
63590.9
65549.5
66087.3
67592.7
68244.2
69376.9
70082.9
70910.1
71666.7
72242.7
73081.1
73434
74407
74534.6
75714.8
75585.2
77061.5
76617.1
78475.4
77659.8
79928.8
78756.2
112650
112621
112590
112521
112469
112373
112285
112151
112038
111867
111726
111510
111338
111068
110866
110525
110295
109864
109609
109059
108791
108082
107818
106898
106667
105461
105316
103714
103738
101580
101901
98954.1
99770.8
95695.3
97313.1
91615.3
94500.7
86466.8
91323.6
79926
87793.6
71561.2
83894
60655.6
79341
45666.5
72993.7
23265
62299.3
-10628.8
46051.2
-59398.1
25336
-119433
13890.4
-77342.3
12400.4
-44109.8
18526.1
-15303.4
27209.4
5533.39
34463.8
20842
40966.9
32551.1
46556.5
41493.6
51191.4
48264.9
54986.4
53433
58142.8
57461.6
60848.7
60751.8
63288.2
63591.1
65548.7
66087.7
67592.6
68244.6
69376.8
70082.7
70909.4
71665.4
72241.2
73078.6
73431.6
74403.4
74531.3
75710.6
75581.3
77057.5
76612.7
78473
77655.3
79929.2
78753.2
112655
112626
112595
112526
112473
112377
112289
112154
112042
111870
111729
111513
111342
111071
110870
110529
110299
109868
109613
109063
108795
108087
107822
106903
106672
105466
105320
103719
103741
101586
101904
98960.2
99773.9
95701.7
97315.7
91621.9
94502.5
86473.5
91324.6
79932.8
87794.6
71569.3
83897.4
60668.5
79351.2
45689
73013.6
23291.1
62317
-10617.5
46055.8
-59443.8
25294.5
-119655
13852.5
-77370.1
12374.3
-44119.5
18511.7
-15292.3
27208.1
5545.28
34462.7
20851.5
40967.7
32560.2
46558.8
41502.2
51194.1
48272.1
54988.5
53438.2
58143.7
57464.4
60848.2
60752.7
63287
63591.2
65548
66088
67592.5
68245
69376.8
70082.5
70908.8
71664.2
72239.7
73076.2
73429.1
74399.8
74528
75706.4
75577.3
77053.5
76608.3
78470.5
77650.8
79929.6
78750
112660
112631
112600
112530
112478
112381
112293
112158
112045
111874
111733
111517
111346
111075
110873
110533
110303
109872
109617
109068
108799
108091
107826
106907
106676
105471
105324
103725
103745
101591
101908
98966.2
99777.1
95708.1
97318.2
91628.6
94504.3
86480.2
91325.7
79939.7
87795.7
71577.5
83900.7
60681.5
79361.4
45711.6
73033.6
23317.5
62334.8
-10606.1
46060.5
-59489.7
25252.7
-119878
13814.3
-77397.9
12348.1
-44129.3
18497.2
-15281.1
27206.8
5557.24
34461.5
20861.2
40968.4
32569.3
46561.1
41510.8
51196.8
48279.2
54990.5
53443.4
58144.6
57467.3
60847.6
60753.5
63285.8
63591.4
65547.2
66088.4
67592.4
68245.4
69376.8
70082.3
70908.3
71662.9
72238.2
73073.7
73426.7
74396.3
74524.7
75702.1
75573.4
77049.5
76603.9
78468.1
77646.3
79930
78746.8
112665
112636
112605
112534
112482
112385
112297
112162
112049
111878
111736
111521
111349
111079
110877
110537
110307
109876
109622
109072
108803
108096
107830
106912
106680
105476
105328
103730
103749
101597
101911
98972.3
99780.3
95714.6
97320.8
91635.3
94506.1
86487
91326.8
79946.6
87796.7
71585.6
83904.1
60694.6
79371.7
45734.3
73053.7
23344
62352.8
-10594.6
46065.3
-59535.8
25210.6
-120104
13775.8
-77425.9
12321.6
-44139.2
18482.6
-15269.8
27205.5
5569.29
34460.4
20870.9
40969.2
32578.4
46563.4
41519.5
51199.5
48286.5
54992.6
53448.7
58145.4
57470.2
60847.1
60754.4
63284.6
63591.6
65546.5
66088.8
67592.3
68245.8
69376.8
70082.2
70907.7
71661.6
72236.7
73071.2
73424.2
74392.7
74521.4
75697.9
75569.4
77045.4
76599.4
78465.6
77641.7
79930.4
78743.6
112671
112641
112609
112539
112486
112389
112300
112165
112053
111881
111740
111524
111353
111083
110881
110541
110311
109881
109626
109077
108807
108101
107834
106917
106684
105481
105332
103736
103753
101603
101915
98978.5
99783.5
95721.1
97323.4
91642.1
94508
86493.8
91327.8
79953.5
87797.7
71593.8
83907.4
60707.7
79382
45757.1
73074
23370.8
62370.9
-10582.9
46070.2
-59582
25168.1
-120331
13737
-77454
12294.9
-44149.2
18468
-15258.4
27204.3
5581.42
34459.2
20880.6
40970
32587.7
46565.8
41528.2
51202.3
48293.8
54994.7
53454
58146.3
57473.1
60846.5
60755.3
63283.4
63591.8
65545.7
66089.2
67592.2
68246.2
69376.8
70082
70907.1
71660.4
72235.2
73068.7
73421.8
74389
74518.1
75693.6
75565.3
77041.4
76594.9
78463.1
77637.1
79930.9
78740.3
112676
112646
112614
112543
112490
112392
112304
112169
112056
111885
111744
111528
111357
111087
110885
110545
110315
109885
109630
109081
108811
108105
107838
106922
106688
105487
105336
103741
103757
101609
101919
98984.7
99786.7
95727.7
97326.1
91648.9
94509.8
86500.7
91328.9
79960.4
87798.6
71602.1
83910.7
60720.9
79392.3
45780.1
73094.4
23397.7
62389.1
-10571
46075.2
-59628.4
25125.4
-120561
13697.9
-77482.2
12268.1
-44159.2
18453.2
-15246.9
27203.1
5593.64
34458.1
20890.5
40970.8
32597
46568.2
41537
51205.1
48301.1
54996.8
53459.3
58147.2
57476
60846
60756.2
63282.2
63592
65545
66089.6
67592.1
68246.7
69376.8
70081.9
70906.5
71659.1
72233.7
73066.1
73419.3
74385.4
74514.7
75689.2
75561.3
77037.2
76590.4
78460.5
77632.4
79931.3
78736.9
112681
112651
112619
112547
112494
112396
112308
112173
112060
111888
111747
111532
111360
111090
110889
110549
110319
109889
109634
109086
108815
108110
107843
106927
106692
105492
105340
103747
103761
101614
101922
98990.9
99789.9
95734.3
97328.7
91655.7
94511.7
86507.6
91330
79967.4
87799.6
71610.3
83914.1
60734.1
79402.7
45803.3
73115
23424.9
62407.5
-10559.1
46080.3
-59675
25082.3
-120792
13658.4
-77510.5
12241
-44169.3
18438.4
-15235.3
27201.9
5605.93
34456.9
20900.3
40971.6
32606.3
46570.6
41545.9
51207.9
48308.5
54998.9
53464.7
58148.1
57478.9
60845.4
60757.1
63280.9
63592.1
65544.2
66090
67592.1
68247.2
69376.8
70081.7
70906
71657.9
72232.2
73063.6
73416.8
74381.7
74511.4
75684.9
75557.2
77033.1
76585.8
78458
77627.7
79931.8
78733.5
112687
112656
112624
112552
112499
112400
112312
112176
112064
111892
111751
111535
111364
111094
110892
110554
110323
109893
109638
109090
108820
108115
107847
106932
106696
105497
105345
103752
103765
101620
101926
98997.2
99793.2
95740.9
97331.4
91662.6
94513.5
86514.6
91331
79974.4
87800.6
71618.6
83917.4
60747.4
79413.2
45826.6
73135.7
23452.2
62426
-10547
46085.5
-59721.8
25038.9
-121025
13618.7
-77538.9
12213.8
-44179.5
18423.4
-15223.6
27200.7
5618.31
34455.7
20910.3
40972.4
32615.7
46573
41554.8
51210.7
48315.9
55001
53470.1
58149
57481.9
60844.9
60758
63279.7
63592.3
65543.5
66090.4
67592
68247.6
69376.8
70081.6
70905.4
71656.6
72230.8
73061.1
73414.3
74378
74508
75680.5
75553.1
77028.8
76581.2
78455.4
77622.9
79932.3
78730
112692
112661
112629
112556
112503
112404
112316
112180
112067
111896
111755
111539
111368
111098
110896
110558
110327
109898
109642
109095
108824
108120
107851
106937
106701
105502
105349
103758
103769
101626
101929
99003.5
99796.4
95747.6
97334
91669.5
94515.4
86521.6
91332.1
79981.5
87801.6
71627
83920.7
60760.7
79423.6
45850
73156.5
23479.8
62444.7
-10534.7
46090.9
-59768.7
24995.3
-121259
13578.7
-77567.4
12186.3
-44189.8
18408.4
-15211.8
27199.5
5630.77
34454.5
20920.3
40973.3
32625.2
46575.4
41563.8
51213.5
48323.4
55003.2
53475.6
58149.9
57484.9
60844.3
60758.9
63278.4
63592.5
65542.8
66090.9
67591.9
68248.1
69376.9
70081.5
70904.9
71655.4
72229.3
73058.5
73411.9
74374.3
74504.6
75676
75549
77024.6
76576.6
78452.7
77618.1
79932.8
78726.4
112698
112666
112634
112561
112507
112408
112320
112184
112071
111900
111758
111543
111372
111102
110900
110562
110331
109902
109646
109099
108828
108125
107855
106942
106705
105508
105353
103763
103772
101632
101933
99009.9
99799.7
95754.3
97336.7
91676.5
94517.3
86528.6
91333.1
79988.6
87802.5
71635.3
83924
60774.1
79434.2
45873.5
73177.5
23507.5
62463.5
-10522.3
46096.3
-59815.8
24951.3
-121496
13538.3
-77596
12158.6
-44200.1
18393.3
-15199.9
27198.3
5643.31
34453.3
20930.3
40974.1
32634.7
46577.9
41572.8
51216.4
48331
55005.3
53481.1
58150.8
57487.9
60843.8
60759.8
63277.2
63592.7
65542
66091.3
67591.9
68248.7
69377
70081.4
70904.3
71654.1
72227.8
73056
73409.4
74370.6
74501.2
75671.6
75544.9
77020.3
76571.9
78450.1
77613.2
79933.3
78722.8
112703
112671
112639
112565
112512
112413
112324
112188
112075
111903
111762
111547
111375
111106
110904
110566
110335
109906
109651
109104
108833
108129
107860
106947
106709
105513
105357
103769
103776
101638
101937
99016.3
99803
95761.1
97339.4
91683.5
94519.2
86535.7
91334.2
79995.7
87803.4
71643.7
83927.3
60787.5
79444.7
45897.2
73198.7
23535.5
62482.4
-10509.8
46101.9
-59863
24907
-121734
13497.6
-77624.8
12130.7
-44210.6
18378.1
-15187.9
27197.2
5655.93
34452.1
20940.4
40974.9
32644.3
46580.4
41582
51219.3
48338.6
55007.5
53486.6
58151.7
57490.9
60843.2
60760.7
63275.9
63592.9
65541.3
66091.8
67591.9
68249.2
69377
70081.3
70903.8
71652.9
72226.3
73053.4
73406.8
74366.9
74497.8
75667.1
75540.7
77016
76567.2
78447.4
77608.3
79933.8
78719.1
112709
112676
112644
112570
112516
112417
112328
112191
112079
111907
111766
111551
111379
111110
110908
110570
110339
109911
109655
109109
108837
108134
107864
106952
106714
105518
105361
103774
103780
101644
101941
99022.7
99806.4
95767.9
97342.1
91690.6
94521.1
86542.8
91335.3
80002.8
87804.4
71652.1
83930.6
60800.9
79455.3
45921
73220
23563.7
62501.5
-10497.1
46107.6
-59910.4
24862.4
-121975
13456.6
-77653.6
12102.6
-44221.1
18362.8
-15175.8
27196.1
5668.63
34450.9
20950.6
40975.8
32654
46582.9
41591.1
51222.3
48346.2
55009.7
53492.2
58152.7
57493.9
60842.6
60761.7
63274.6
63593.1
65540.5
66092.3
67591.9
68249.7
69377.1
70081.3
70903.3
71651.6
72224.8
73050.9
73404.3
74363.1
74494.3
75662.6
75536.5
77011.6
76562.5
78444.7
77603.3
79934.3
78715.4
112715
112681
112649
112574
112520
112421
112332
112195
112083
111911
111770
111554
111383
111114
110912
110574
110343
109915
109659
109113
108841
108139
107868
106957
106718
105524
105365
103780
103785
101650
101944
99029.2
99809.7
95774.8
97344.9
91697.7
94523
86550
91336.3
80010
87805.3
71660.5
83933.9
60814.4
79465.9
45945
73241.4
23592.1
62520.7
-10484.3
46113.4
-59957.9
24817.5
-122217
13415.3
-77682.6
12074.3
-44231.7
18347.3
-15163.5
27194.9
5681.41
34449.7
20960.9
40976.7
32663.7