/*--------------------------------*- C++ -*----------------------------------*\
| =========                 |                                                 |
| \\      /  F ield         | OpenFOAM: The Open Source CFD Toolbox           |
|  \\    /   O peration     | Version:  2412                                  |
|   \\  /    A nd           | Website:  www.openfoam.com                      |
|    \\/     M anipulation  |                                                 |
\*---------------------------------------------------------------------------*/
FoamFile
{
    version     2.0;
    format      ascii;
    arch        "LSB;label=32;scalar=64";
    class       surfaceScalarField;
    location    "0.2";
    object      phi;
}
// * * * * * * * * * * * * * * * * * * * * * * * * * * * * * * * * * * * * * //

dimensions      [0 3 -1 0 0 0 0];

oriented        oriented;

internalField   nonuniform List<scalar> 
25689
(
0.00747587
0.0134865
0.00740759
0.00914818
0.00738675
0.00190525
0.00741026
-0.00496585
0.00746077
-0.00863813
0.00751573
-0.00892439
0.00756272
-0.00767313
0.0076009
-0.00637371
0.00763321
-0.00544045
0.00766137
-0.004741
0.00768601
-0.00414002
0.00770758
-0.00361568
0.0077263
-0.00313952
0.00774264
-0.00273751
0.00775668
-0.00236344
0.00776886
-0.00205758
0.00777901
-0.00174396
0.00778774
-0.00151623
0.00779469
-0.00125376
0.00780061
-0.00109166
0.00780492
-0.000863077
0.00780859
-0.000760955
0.00781062
-0.000536963
0.00781254
-0.000507614
0.00781277
-0.000281922
0.00781344
-0.000323908
0.00781224
-8.28545e-05
0.00781215
-0.000209239
0.0078098
7.53975e-05
0.00780946
-0.000170388
0.00780622
0.000181392
0.00780603
-0.000203454
0.00780208
0.000235049
0.00780261
-0.000347426
0.0077984
0.000186715
0.00780052
-0.000651583
0.00779699
-2.27542e-05
0.00780268
-0.00123612
0.00780242
-0.000521564
0.00781556
-0.00220263
0.00782256
-0.00135845
0.0078471
-0.00343877
0.00786314
-0.00210572
0.00789753
-0.00415473
0.00791403
-0.00158681
0.00794091
-0.00278524
0.00793231
0.00174528
0.00792932
0.0014949
0.00789601
0.00627461
0.00786048
0.00835819
0.0077913
0.0144901
0.00762115
0.0303377
0.0073394
0.0473344
0.00737674
-0.00288098
0.00757325
-0.0320202
0.0076691
-0.0182138
0.00768365
-0.00603273
0.0076972
-0.00413741
0.00769195
-0.000284854
0.00770303
-0.00193613
0.00769853
0.000418129
0.00770768
-0.00137774
0.00770586
0.000203497
0.00771647
-0.00140712
0.00771722
-4.26334e-05
0.00772711
-0.00122057
0.0077265
0.000124653
0.00773074
-0.00061151
0.00772474
0.000620485
0.00772161
0.000184777
0.00771005
0.00121087
0.00769978
0.000960951
0.0076835
0.00169358
0.0076689
0.00145368
0.0076517
0.0018311
0.00763761
0.00148999
0.00762377
0.00155549
0.00761319
0.00120294
0.00760314
0.00116942
0.00759486
0.000920356
0.00758622
0.000904732
0.00757777
0.000775335
0.00756837
0.000759179
0.00755849
0.00066367
0.0075481
0.000559342
0.00753768
0.000388825
0.00752781
0.000133038
0.00751904
-0.000200415
0.00751237
-0.000671441
0.00750855
-0.00123626
0.00750881
-0.00195283
0.00751497
-0.00285595
0.00752772
-0.0038493
0.00755137
-0.00519402
0.0075843
-0.00644589
0.00763493
-0.00825489
0.0076967
-0.00970676
0.00778086
-0.0117257
-0.0138164
0.0074759
0.0135863
0.00740757
0.00921651
0.0073865
0.00192632
0.00740967
-0.00498903
0.00745989
-0.00868835
0.00751465
-0.00897914
0.00756145
-0.00771993
0.00759945
-0.00641171
0.00763158
-0.00547258
0.00765959
-0.00476902
0.0076841
-0.00416453
0.00770556
-0.00363714
0.00772419
-0.00315815
0.00774045
-0.00275377
0.00775442
-0.00237741
0.00776653
-0.00206969
0.00777663
-0.00175406
0.00778531
-0.00152491
0.00779222
-0.00126067
0.0077981
-0.00109754
0.00780236
-0.000867344
0.00780599
-0.000764588
0.00780799
-0.000538957
0.00780987
-0.0005095
0.00781006
-0.000282111
0.00781069
-0.000324539
0.00780946
-8.16242e-05
0.00780934
-0.000209113
0.00780695
7.77875e-05
0.00780658
-0.000170014
0.0078033
0.000184669
0.00780307
-0.000203225
0.00779907
0.000239046
0.00779956
-0.000347912
0.00779529
0.000190989
0.00779735
-0.000653649
0.00779374
-1.91394e-05
0.00779935
-0.00124174
0.007799
-0.000521215
0.00781207
-0.00221569
0.007819
-0.00136538
0.00784352
-0.0034633
0.00785959
-0.00212179
0.00789409
-0.00418923
0.00791072
-0.00160344
0.00793775
-0.00281227
0.00792923
0.00175381
0.00792637
0.00149776
0.00789322
0.00630775
0.00785825
0.00839316
0.00778986
0.0145585
0.00762105
0.0305065
0.00734116
0.0476143
0.00737871
-0.00291854
0.00757403
-0.0322155
0.00766894
-0.0183087
0.00768277
-0.00604655
0.00769601
-0.00415065
0.0076906
-0.000279451
0.00770162
-0.00194715
0.00769707
0.000422683
0.0077062
-0.00138688
0.00770438
0.000205322
0.007715
-0.00141774
0.00771576
-4.33967e-05
0.00772567
-0.00123048
0.00772508
0.000125244
0.00772933
-0.000615756
0.00772334
0.000626479
0.0077202
0.00018791
0.00770864
0.00122244
0.00769835
0.000971239
0.00768203
0.0017099
0.0076674
0.00146831
0.00765017
0.00184834
0.00763604
0.00150411
0.0076222
0.00156934
0.00761162
0.00121351
0.0076016
0.00117944
0.00759334
0.000928611
0.00758472
0.00091335
0.00757628
0.000783778
0.00756687
0.000768589
0.00755697
0.000673566
0.00754654
0.000569771
0.00753607
0.000399297
0.00752614
0.000142965
0.00751729
-0.000191565
0.00751055
-0.000664694
0.00750662
-0.00123234
0.00750678
-0.00195299
0.00751282
-0.00286198
0.00752545
-0.00386193
0.00754898
-0.00521755
0.00758181
-0.00647871
0.00763238
-0.00830547
0.00769413
-0.00976851
0.0077784
-0.01181
-0.0139152
0.00747593
0.0136862
0.00740753
0.00928491
0.00738622
0.00194763
0.00740905
-0.00501185
0.00745898
-0.00873828
0.00751354
-0.0090337
0.00756016
-0.00776655
0.00759798
-0.00644953
0.00762993
-0.00550453
0.0076578
-0.00479688
0.00768218
-0.00418892
0.00770353
-0.00365849
0.00772207
-0.00317669
0.00773825
-0.00276995
0.00775215
-0.0023913
0.0077642
-0.00208174
0.00777424
-0.0017641
0.00778287
-0.00153354
0.00778974
-0.00126754
0.00779557
-0.00110337
0.0077998
-0.000871571
0.00780339
-0.000768182
0.00780535
-0.000540913
0.0078072
-0.00051135
0.00780735
-0.000282263
0.00780795
-0.000325137
0.00780668
-8.03576e-05
0.00780653
-0.000208955
0.0078041
8.02146e-05
0.00780369
-0.000169605
0.00780037
0.000187987
0.00780011
-0.000202959
0.00779606
0.000243091
0.00779651
-0.000348353
0.00779217
0.000195323
0.00779418
-0.000655656
0.00779048
-1.5445e-05
0.00779602
-0.00124728
0.00779558
-0.000520774
0.00780857
-0.00222868
0.00781543
-0.00137225
0.00783994
-0.00348781
0.00785603
-0.00213788
0.00789064
-0.00422383
0.0079074
-0.00162021
0.00793459
-0.00283946
0.00792614
0.00176226
0.0079234
0.00150049
0.00789042
0.00634074
0.007856
0.00842758
0.00778838
0.0146261
0.00762092
0.0306739
0.0073429
0.0478923
0.00738067
-0.00295631
0.0075748
-0.0324097
0.00766875
-0.0184026
0.00768187
-0.00605967
0.00769479
-0.00416358
0.00768924
-0.0002739
0.00770021
-0.00195811
0.00769561
0.000427284
0.00770473
-0.001396
0.0077029
0.000207151
0.00771353
-0.00142837
0.00771431
-4.41737e-05
0.00772424
-0.00124042
0.00772367
0.000125816
0.00772794
-0.00062002
0.00772195
0.00063247
0.00771881
0.000191043
0.00770724
0.00123401
0.00769693
0.000981546
0.00768058
0.00172624
0.00766592
0.00148298
0.00764865
0.0018656
0.0076345
0.00151826
0.00762064
0.00158319
0.00761007
0.00122408
0.00760007
0.00118945
0.00759184
0.000936842
0.00758324
0.000921949
0.00757481
0.000792213
0.00756539
0.000778006
0.00755547
0.000683486
0.007545
0.000580238
0.00753448
0.00040982
0.00752449
0.000152953
0.00751556
-0.000182637
0.00750873
-0.000657863
0.0075047
-0.00122831
0.00750476
-0.00195304
0.00751066
-0.00286789
0.00752318
-0.00387444
0.00754657
-0.00524094
0.0075793
-0.00651144
0.00762982
-0.008356
0.00769154
-0.00983023
0.00777592
-0.0118944
-0.0140141
0.00747595
0.013786
0.00740749
0.00935337
0.00738595
0.00196917
0.00740843
-0.00503434
0.00745807
-0.00878792
0.00751242
-0.00908804
0.00755886
-0.00781299
0.00759649
-0.00648716
0.00762828
-0.00553632
0.00765599
-0.00482459
0.00768025
-0.00421317
0.00770149
-0.00367973
0.00771993
-0.00319514
0.00773603
-0.00278605
0.00774986
-0.00240513
0.00776186
-0.00209374
0.00777185
-0.00177409
0.00778043
-0.00154212
0.00778725
-0.00127435
0.00779304
-0.00110917
0.00779723
-0.000875758
0.00780079
-0.00077174
0.00780271
-0.000542833
0.00780453
-0.000513165
0.00780464
-0.000282379
0.00780521
-0.000325701
0.0078039
-7.90552e-05
0.00780371
-0.000208764
0.00780125
8.26785e-05
0.00780081
-0.000169164
0.00779745
0.000191345
0.00779715
-0.000202657
0.00779305
0.000247184
0.00779345
-0.000348749
0.00778906
0.000199719
0.00779101
-0.000657605
0.00778723
-1.16701e-05
0.00779269
-0.00125274
0.00779215
-0.000520239
0.00780507
-0.00224159
0.00781186
-0.00137905
0.00783635
-0.0035123
0.00785247
-0.002154
0.00788718
-0.00425854
0.00790407
-0.0016371
0.00793142
-0.00286681
0.00792304
0.00177065
0.00792043
0.0015031
0.00788759
0.00637357
0.00785373
0.00846145
0.00778688
0.0146929
0.00762076
0.03084
0.00734464
0.0481684
0.00738262
-0.00299429
0.00757554
-0.0326026
0.00766852
-0.0184956
0.00768093
-0.00607207
0.00769356
-0.00417622
0.00768787
-0.000268207
0.00769878
-0.00196902
0.00769414
0.000431928
0.00770325
-0.00140511
0.00770142
0.000208979
0.00771206
-0.00143901
0.00771286
-4.49673e-05
0.00772282
-0.00125039
0.00772227
0.000126367
0.00772655
-0.000624302
0.00772057
0.000638459
0.00771743
0.000194173
0.00770585
0.00124559
0.00769553
0.000991872
0.00767915
0.00174262
0.00766444
0.00149768
0.00764714
0.00188291
0.00763296
0.00153243
0.0076191
0.00159706
0.00760854
0.00123464
0.00759856
0.00119943
0.00759035
0.000945046
0.00758177
0.000930528
0.00757334
0.000800641
0.00756392
0.000787431
0.00755397
0.000693431
0.00754347
0.000590744
0.00753289
0.000420396
0.00752284
0.000163002
0.00751384
-0.000173632
0.00750692
-0.000650947
0.00750279
-0.00122418
0.00750273
-0.00195299
0.00750851
-0.00287367
0.0075209
-0.00388683
0.00754417
-0.00526421
0.00757678
-0.00654405
0.00762725
-0.00840647
0.00768895
-0.00989192
0.00777343
-0.0119789
-0.0141131
0.00747597
0.0138858
0.00740745
0.00942189
0.00738567
0.00199094
0.00740782
-0.00505648
0.00745716
-0.00883727
0.0075113
-0.00914218
0.00755756
-0.00785924
0.00759501
-0.00652461
0.00762662
-0.00556793
0.00765418
-0.00485215
0.00767831
-0.00423729
0.00769944
-0.00370087
0.00771779
-0.00321349
0.00773381
-0.00280207
0.00774757
-0.00241889
0.00775951
-0.00210567
0.00776945
-0.00178403
0.00777798
-0.00155065
0.00778476
-0.00128113
0.00779051
-0.00111493
0.00779466
-0.000879907
0.00779818
-0.000775261
0.00780006
-0.000544715
0.00780184
-0.000514946
0.00780192
-0.000282459
0.00780246
-0.000326232
0.00780112
-7.77172e-05
0.0078009
-0.000208541
0.00779839
8.51787e-05
0.00779792
-0.000168689
0.00779452
0.000194743
0.00779418
-0.000202318
0.00779004
0.000251325
0.00779039
-0.000349099
0.00778594
0.000204175
0.00778783
-0.000659495
0.00778397
-7.81523e-06
0.00778935
-0.00125812
0.00778872
-0.00051961
0.00780156
-0.00225443
0.00780829
-0.00138578
0.00783276
-0.00353677
0.0078489
-0.00217013
0.00788372
-0.00429336
0.00790074
-0.00165412
0.00792824
-0.00289431
0.00791992
0.00177896
0.00791743
0.0015056
0.00788475
0.00640625
0.00785144
0.00849476
0.00778536
0.014759
0.00762057
0.0310048
0.00734636
0.0484427
0.00738456
-0.00303249
0.00757625
-0.0327943
0.00766827
-0.0185876
0.00767996
-0.00608377
0.00769231
-0.00418857
0.00768648
-0.000262378
0.00769734
-0.00197988
0.00769266
0.000436611
0.00770176
-0.00141421
0.00769994
0.000210803
0.0077106
-0.00144967
0.00771141
-4.57786e-05
0.00772141
-0.00126038
0.00772088
0.000126896
0.00772518
-0.000628604
0.0077192
0.000644445
0.00771607
0.000197301
0.00770448
0.00125718
0.00769414
0.00100221
0.00767772
0.00175903
0.00766298
0.00151242
0.00764564
0.00190025
0.00763144
0.00154663
0.00761756
0.00161094
0.00760701
0.00124519
0.00759705
0.00120939
0.00758887
0.000953225
0.00758031
0.000939087
0.00757189
0.000809062
0.00756246
0.000796865
0.00755249
0.0007034
0.00754194
0.000601288
0.00753131
0.000431025
0.0075212
0.000173114
0.00751212
-0.000164548
0.00750512
-0.000643946
0.00750087
-0.00121994
0.00750071
-0.00195283
0.00750636
-0.00287932
0.00751862
-0.0038991
0.00754176
-0.00528735
0.00757426
-0.00657656
0.00762468
-0.00845688
0.00768635
-0.00995359
0.00777094
-0.0120634
-0.0142121
0.00747598
0.0139855
0.0074074
0.00949047
0.0073854
0.00201294
0.00740721
-0.00507829
0.00745626
-0.00888632
0.00751019
-0.00919611
0.00755625
-0.00790531
0.00759352
-0.00656188
0.00762496
-0.00559937
0.00765237
-0.00487956
0.00767636
-0.00426129
0.00769739
-0.00372189
0.00771565
-0.00323174
0.00773159
-0.00281801
0.00774528
-0.00243258
0.00775715
-0.00211754
0.00776704
-0.00179391
0.00777552
-0.00155914
0.00778226
-0.00128786
0.00778797
-0.00112064
0.00779208
-0.000884016
0.00779557
-0.000778746
0.00779741
-0.000546561
0.00779916
-0.000516692
0.0077992
-0.000282503
0.0077997
-0.000326729
0.00779833
-7.63441e-05
0.00779807
-0.000208285
0.00779554
8.77154e-05
0.00779503
-0.000168182
0.00779159
0.000198181
0.00779122
-0.000201943
0.00778703
0.000255514
0.00778734
-0.000349405
0.00778282
0.000208694
0.00778465
-0.000661326
0.00778071
-3.87948e-06
0.00778602
-0.00126342
0.00778529
-0.000518884
0.00779805
-0.00226718
0.0078047
-0.00139243
0.00782916
-0.00356122
0.00784532
-0.0021863
0.00788024
-0.00432828
0.00789739
-0.00167127
0.00792505
-0.00292197
0.0079168
0.00178721
0.00791443
0.00150797
0.00788188
0.0064388
0.00784912
0.00852752
0.0077838
0.0148243
0.00762035
0.0311682
0.00734808
0.0487149
0.00738649
-0.0030709
0.00757693
-0.0329847
0.00766797
-0.0186787
0.00767897
-0.00609476
0.00769104
-0.00420065
0.00768509
-0.000256421
0.0076959
-0.00199069
0.00769118
0.000441329
0.00770028
-0.00142331
0.00769846
0.000212621
0.00770914
-0.00146036
0.00770997
-4.66098e-05
0.00772
-0.00127041
0.0077195
0.000127401
0.00772382
-0.000632927
0.00771784
0.000650426
0.00771471
0.000200425
0.00770312
0.00126878
0.00769275
0.00101258
0.00767631
0.00177548
0.00766153
0.00152721
0.00764415
0.00191762
0.00762993
0.00156086
0.00761604
0.00162482
0.0076055
0.00125574
0.00759556
0.00121933
0.0075874
0.000961379
0.00757886
0.000947627
0.00757045
0.000817476
0.00756101
0.000806308
0.00755101
0.000713396
0.00754043
0.000611871
0.00752974
0.000441709
0.00751957
0.00018329
0.0075104
-0.000155385
0.00750332
-0.000636858
0.00749897
-0.00121559
0.00749869
-0.00195255
0.0075042
-0.00288483
0.00751635
-0.00391124
0.00753934
-0.00531035
0.00757174
-0.00660896
0.0076221
-0.00850725
0.00768374
-0.0100152
0.00776845
-0.0121482
-0.0143111
0.007476
0.0140853
0.00740736
0.00955912
0.00738513
0.00203517
0.0074066
-0.00509976
0.00745536
-0.00893508
0.00750907
-0.00924982
0.00755494
-0.00795119
0.00759202
-0.00659895
0.00762329
-0.00563064
0.00765055
-0.00490682
0.00767441
-0.00428515
0.00769533
-0.00374281
0.00771349
-0.00324991
0.00772935
-0.00283388
0.00774298
-0.00244621
0.00775479
-0.00212936
0.00776462
-0.00180374
0.00777306
-0.00156758
0.00777975
-0.00129455
0.00778543
-0.00112632
0.0077895
-0.000888087
0.00779295
-0.000782194
0.00779476
-0.000548371
0.00779647
-0.000518403
0.00779648
-0.000282512
0.00779694
-0.000327193
0.00779553
-7.49358e-05
0.00779525
-0.000207997
0.00779267
9.02881e-05
0.00779213
-0.000167642
0.00778866
0.000201658
0.00778825
-0.000201533
0.00778401
0.00025975
0.00778427
-0.000349666
0.00777969
0.000213273
0.00778147
-0.0006631
0.00777745
1.36845e-07
0.00778267
-0.00126865
0.00778185
-0.000518061
0.00779453
-0.00227986
0.00780111
-0.00139902
0.00782555
-0.00358566
0.00784173
-0.00220248
0.00787676
-0.00436331
0.00789404
-0.00168855
0.00792186
-0.00294979
0.00791367
0.0017954
0.00791141
0.00151023
0.007879
0.00647121
0.00784679
0.00855972
0.00778221
0.0148889
0.0076201
0.0313304
0.00734978
0.0489853
0.0073884
-0.00310952
0.00757759
-0.0331739
0.00766765
-0.0187687
0.00767794
-0.00610505
0.00768975
-0.00421247
0.00768367
-0.000250342
0.00769445
-0.00200146
0.00768969
0.000446082
0.00769879
-0.00143241
0.00769698
0.00021443
0.00770769
-0.00147106
0.00770854
-4.74628e-05
0.0077186
-0.00128046
0.00771812
0.00012788
0.00772247
-0.000637272
0.00771649
0.000656402
0.00771337
0.000203545
0.00770176
0.00128039
0.00769138
0.00102296
0.00767491
0.00179195
0.00766009
0.00154202
0.00764268
0.00193504
0.00762842
0.00157511
0.00761452
0.00163872
0.00760399
0.00126627
0.00759407
0.00122924
0.00758594
0.000969506
0.00757742
0.000956148
0.00756902
0.000825883
0.00755957
0.000815761
0.00754954
0.000723417
0.00753892
0.000622496
0.00752818
0.000452447
0.00751794
0.000193529
0.0075087
-0.000146141
0.00750152
-0.000629682
0.00749706
-0.00121113
0.00749667
-0.00195217
0.00750205
-0.00289021
0.00751407
-0.00392325
0.00753693
-0.00533321
0.00756921
-0.00664124
0.00761952
-0.00855755
0.00768113
-0.0100768
0.00776595
-0.012233
-0.0144102
0.00747602
0.014185
0.00740731
0.00962782
0.00738487
0.00205761
0.007406
-0.00512089
0.00745445
-0.00898353
0.00750795
-0.00930331
0.00755363
-0.00799687
0.00759052
-0.00663584
0.00762161
-0.00566173
0.00764872
-0.00493393
0.00767245
-0.00430889
0.00769326
-0.00376361
0.00771133
-0.00326798
0.00772711
-0.00284966
0.00774067
-0.00245976
0.00775242
-0.00214111
0.0077622
-0.00181352
0.00777059
-0.00157597
0.00777724
-0.00130119
0.00778287
-0.00113195
0.00778691
-0.00089212
0.00779032
-0.000785607
0.00779209
-0.000550145
0.00779377
-0.000520081
0.00779374
-0.000282486
0.00779418
-0.000327625
0.00779273
-7.34921e-05
0.00779241
-0.000207678
0.00778981
9.28965e-05
0.00778923
-0.00016707
0.00778572
0.000205174
0.00778527
-0.000201086
0.00778099
0.000264034
0.0077812
-0.000349882
0.00777656
0.000217913
0.00777828
-0.000664814
0.00777418
4.23525e-06
0.00777932
-0.00127379
0.0077784
-0.00051714
0.007791
-0.00229246
0.00779751
-0.00140553
0.00782193
-0.00361007
0.00783814
-0.00221869
0.00787328
-0.00439845
0.00789068
-0.00170595
0.00791865
-0.00297776
0.00791052
0.00180353
0.00790838
0.00151237
0.00787609
0.0065035
0.00784444
0.00859137
0.0077806
0.0149527
0.00761982
0.0314911
0.00735147
0.0492536
0.00739031
-0.00314836
0.00757822
-0.0333618
0.00766729
-0.0188578
0.00767688
-0.00611464
0.00768844
-0.00422403
0.00768225
-0.000244145
0.00769298
-0.0020122
0.0076882
0.000450865
0.0076973
-0.00144152
0.00769551
0.000216227
0.00770623
-0.00148179
0.00770711
-4.83395e-05
0.0077172
-0.00129056
0.00771675
0.000128334
0.00772112
-0.000641641
0.00771515
0.000662373
0.00771203
0.000206661
0.00770042
0.001292
0.00769002
0.00103335
0.00767351
0.00180846
0.00765866
0.00155688
0.00764121
0.00195248
0.00762693
0.0015894
0.00761301
0.00165263
0.00760249
0.0012768
0.0075926
0.00123914
0.00758449
0.000977608
0.00757599
0.000964648
0.00756759
0.000834283
0.00755813
0.000825223
0.00754808
0.000733466
0.00753742
0.00063316
0.00752662
0.00046324
0.00751632
0.000203833
0.00750699
-0.000136816
0.00749973
-0.000622417
0.00749516
-0.00120656
0.00749466
-0.00195167
0.0074999
-0.00289545
0.00751178
-0.00393514
0.00753451
-0.00535593
0.00756668
-0.00667341
0.00761693
-0.0086078
0.00767851
-0.0101384
0.00776345
-0.0123179
-0.0145094
0.00747603
0.0142848
0.00740727
0.00969659
0.0073846
0.00208027
0.0074054
-0.00514169
0.00745356
-0.00903168
0.00750683
-0.00935658
0.00755231
-0.00804236
0.00758901
-0.00667253
0.00761993
-0.00569265
0.00764688
-0.00496088
0.00767049
-0.0043325
0.00769118
-0.00378431
0.00770916
-0.00328596
0.00772486
-0.00286536
0.00773835
-0.00247325
0.00775005
-0.00215281
0.00775977
-0.00182325
0.00776812
-0.00158432
0.00777472
-0.0013078
0.00778032
-0.00113755
0.00778431
-0.000896114
0.00778769
-0.000788983
0.00778942
-0.000551882
0.00779107
-0.000521725
0.00779101
-0.000282425
0.00779141
-0.000328024
0.00778993
-7.2014e-05
0.00778958
-0.000207326
0.00778693
9.55407e-05
0.00778633
-0.000166466
0.00778277
0.00020873
0.00778229
-0.000200605
0.00777796
0.000268365
0.00777813
-0.000350054
0.00777343
0.000222615
0.00777509
-0.000666471
0.00777091
8.41437e-06
0.00777597
-0.00127885
0.00777495
-0.000516121
0.00778747
-0.00230498
0.00779391
-0.00141197
0.0078183
-0.00363446
0.00783453
-0.00223492
0.00786978
-0.0044337
0.00788731
-0.00172348
0.00791544
-0.00300589
0.00790737
0.0018116
0.00790533
0.00151441
0.00787316
0.00653567
0.00784206
0.00862247
0.00777896
0.0150159
0.00761951
0.0316506
0.00735316
0.0495199
0.0073922
-0.0031874
0.00757883
-0.0335484
0.0076669
-0.0189459
0.00767579
-0.00612353
0.00768712
-0.00423536
0.00768081
-0.000237838
0.00769151
-0.00202289
0.0076867
0.000455676
0.00769581
-0.00145063
0.00769403
0.00021801
0.00770478
-0.00149254
0.00770568
-4.92415e-05
0.00771581
-0.00130069
0.00771539
0.00012876
0.00771978
-0.000646033
0.00771382
0.000668336
0.00771071
0.000209773
0.00769908
0.00130363
0.00768867
0.00104377
0.00767213
0.00182499
0.00765723
0.00157177
0.00763975
0.00196997
0.00762544
0.00160371
0.00761151
0.00166656
0.007601
0.00128732
0.00759113
0.00124901
0.00758305
0.000985682
0.00757457
0.000973128
0.00756618
0.000842676
0.00755671
0.000834694
0.00754663
0.000743542
0.00753592
0.000643867
0.00752507
0.00047409
0.0075147
0.000214203
0.00750529
-0.000127408
0.00749794
-0.000615062
0.00749325
-0.00120187
0.00749264
-0.00195106
0.00749774
-0.00290055
0.0075095
-0.00394689
0.00753208
-0.00537852
0.00756414
-0.00670547
0.00761433
-0.00865799
0.00767589
-0.0102
0.00776095
-0.012403
-0.0146087
0.00747604
0.0143845
0.00740722
0.00976541
0.00738434
0.00210315
0.00740481
-0.00516215
0.00745266
-0.00907953
0.0075057
-0.00940963
0.00755099
-0.00808765
0.0075875
-0.00670903
0.00761824
-0.00572339
0.00764504
-0.00498769
0.00766852
-0.00435597
0.0076891
-0.00380489
0.00770698
-0.00330384
0.00772261
-0.00288099
0.00773602
-0.00248666
0.00774766
-0.00216445
0.00775733
-0.00183292
0.00776563
-0.00159262
0.00777219
-0.00131435
0.00777775
-0.0011431
0.0077817
-0.000900069
0.00778504
-0.000792323
0.00778675
-0.000553584
0.00778836
-0.000523334
0.00778826
-0.000282329
0.00778863
-0.000328391
0.00778711
-7.05013e-05
0.00778673
-0.000206943
0.00778405
9.82205e-05
0.00778342
-0.000165829
0.00777982
0.000212325
0.0077793
-0.000200087
0.00777493
0.000272744
0.00777505
-0.000350181
0.00777029
0.000227378
0.00777189
-0.000668068
0.00776763
1.26757e-05
0.00777261
-0.00128384
0.00777149
-0.000515001
0.00778393
-0.00231742
0.00779029
-0.00141834
0.00781467
-0.00365884
0.00783092
-0.00225117
0.00786627
-0.00446905
0.00788393
-0.00174114
0.00791221
-0.00303417
0.0079042
0.00181961
0.00790227
0.00151634
0.00787021
0.00656773
0.00783966
0.00865302
0.00777729
0.0150782
0.00761916
0.0318087
0.00735483
0.0497843
0.00739409
-0.00322666
0.00757942
-0.0337338
0.00766648
-0.0190329
0.00767467
-0.00613173
0.00768577
-0.00424646
0.00767936
-0.000231425
0.00769002
-0.00203356
0.00768519
0.000460511
0.00769431
-0.00145976
0.00769255
0.000219776
0.00770333
-0.00150332
0.00770426
-5.017e-05
0.00771443
-0.00131086
0.00771403
0.000129157
0.00771845
-0.000650452
0.00771249
0.000674293
0.00770939
0.000212879
0.00769775
0.00131526
0.00768732
0.0010542
0.00767075
0.00184156
0.00765582
0.00158671
0.00763829
0.00198749
0.00762395
0.00161805
0.00761002
0.00168049
0.00759951
0.00129782
0.00758966
0.00125885
0.00758162
0.000993731
0.00757315
0.000981589
0.00756477
0.000851062
0.00755529
0.000844177
0.00754518
0.000753645
0.00753443
0.000654615
0.00752353
0.000484997
0.00751309
0.00022464
0.0075036
-0.000117916
0.00749615
-0.000607615
0.00749135
-0.00119707
0.00749062
-0.00195033
0.00749559
-0.00290552
0.00750721
-0.00395852
0.00752965
-0.00540096
0.0075616
-0.00673742
0.00761173
-0.00870811
0.00767326
-0.0102615
0.00775845
-0.0124882
-0.014708
0.00747606
0.0144842
0.00740718
0.00983429
0.00738409
0.00212624
0.00740422
-0.00518229
0.00745176
-0.00912708
0.00750458
-0.00946244
0.00754967
-0.00813274
0.00758598
-0.00674534
0.00761654
-0.00575396
0.00764319
-0.00501433
0.00766654
-0.00437932
0.00768701
-0.00382536
0.0077048
-0.00332163
0.00772034
-0.00289653
0.00773369
-0.00250001
0.00774527
-0.00217602
0.00775489
-0.00184254
0.00776314
-0.00160087
0.00776966
-0.00132087
0.00777517
-0.00114862
0.00777909
-0.000903987
0.0077824
-0.000795627
0.00778406
-0.00055525
0.00778564
-0.00052491
0.00778551
-0.000282199
0.00778584
-0.000328725
0.00778429
-6.89538e-05
0.00778388
-0.000206529
0.00778116
0.000100935
0.0077805
-0.000165161
0.00777686
0.000215958
0.00777631
-0.000199535
0.00777189
0.000277169
0.00777197
-0.000350264
0.00776715
0.000232202
0.00776868
-0.000669607
0.00776434
1.70192e-05
0.00776924
-0.00128874
0.00776802
-0.00051378
0.00778038
-0.00232977
0.00778667
-0.00142463
0.00781102
-0.00368319
0.00782729
-0.00226745
0.00786275
-0.00450452
0.00788053
-0.00175892
0.00790898
-0.00306262
0.00790102
0.00182757
0.0078992
0.00151816
0.00786724
0.00659969
0.00783725
0.00868301
0.0077756
0.0151399
0.00761879
0.0319655
0.00735649
0.0500466
0.00739597
-0.00326614
0.00757999
-0.0339178
0.00766603
-0.019119
0.00767353
-0.00613923
0.00768441
-0.00425734
0.00767789
-0.000224913
0.00768853
-0.0020442
0.00768368
0.000465368
0.00769281
-0.00146889
0.00769107
0.000221522
0.00770188
-0.00151413
0.00770284
-5.11276e-05
0.00771304
-0.00132107
0.00771268
0.000129524
0.00771712
-0.000654897
0.00771117
0.000680243
0.00770807
0.00021598
0.00769643
0.0013269
0.00768598
0.00106465
0.00766938
0.00185816
0.0076544
0.00160168
0.00763684
0.00200506
0.00762247
0.00163242
0.00760853
0.00169444
0.00759803
0.00130832
0.00758821
0.00126868
0.00758018
0.00100175
0.00757174
0.000990029
0.00756337
0.000859441
0.00755387
0.000853669
0.00754374
0.000763776
0.00753295
0.000665406
0.00752198
0.000495962
0.00751148
0.000235144
0.0075019
-0.00010834
0.00749436
-0.000600076
0.00748945
-0.00119216
0.00748861
-0.00194949
0.00749343
-0.00291034
0.00750492
-0.00397001
0.00752722
-0.00542326
0.00755904
-0.00676924
0.00760911
-0.00875818
0.00767062
-0.010323
0.00775593
-0.0125735
-0.0148074
0.00747607
0.0145839
0.00740714
0.00990322
0.00738383
0.00214954
0.00740363
-0.00520209
0.00745087
-0.00917431
0.00750345
-0.00951502
0.00754834
-0.00817763
0.00758445
-0.00678145
0.00761484
-0.00578435
0.00764133
-0.00504083
0.00766455
-0.00440253
0.00768491
-0.00384573
0.0077026
-0.00333932
0.00771807
-0.00291199
0.00773135
-0.00251329
0.00774287
-0.00218754
0.00775243
-0.00185211
0.00776064
-0.00160908
0.00776711
-0.00132734
0.00777259
-0.0011541
0.00777647
-0.000907866
0.00777974
-0.000798895
0.00778137
-0.00055688
0.00778291
-0.000526453
0.00778274
-0.000282033
0.00778305
-0.000329027
0.00778146
-6.73719e-05
0.00778102
-0.000206084
0.00777827
0.000103686
0.00777757
-0.000164462
0.0077739
0.000219631
0.00777331
-0.000198948
0.00776884
0.000281641
0.00776888
-0.000350302
0.00776399
0.000237087
0.00776547
-0.000671086
0.00776105
2.14451e-05
0.00776587
-0.00129356
0.00776454
-0.000512457
0.00777681
-0.00234204
0.00778303
-0.00143084
0.00780736
-0.00370752
0.00782365
-0.00228374
0.00785922
-0.00454009
0.00787713
-0.00177682
0.00790573
-0.00309121
0.00789782
0.00183548
0.0078961
0.00151988
0.00786425
0.00663155
0.00783481
0.00871245
0.00777388
0.0152008
0.00761839
0.032121
0.00735815
0.0503068
0.00739785
-0.00330584
0.00758054
-0.0341005
0.00766555
-0.019204
0.00767236
-0.00614604
0.00768303
-0.00426801
0.00767642
-0.000218304
0.00768703
-0.00205481
0.00768215
0.000470246
0.00769131
-0.00147805
0.00768958
0.000223246
0.00770043
-0.00152498
0.00770141
-5.21145e-05
0.00771166
-0.00133132
0.00771133
0.00012986
0.0077158
-0.000659369
0.00770986
0.000686184
0.00770676
0.000219075
0.00769511
0.00133855
0.00768464
0.00107512
0.00766801
0.0018748
0.007653
0.00161669
0.0076354
0.00202266
0.007621
0.00164681
0.00760704
0.0017084
0.00759655
0.00131881
0.00758675
0.00127848
0.00757876
0.00100975
0.00757034
0.000998449
0.00756197
0.000867814
0.00755246
0.000863173
0.0075423
0.000773936
0.00753147
0.000676241
0.00752044
0.000506985
0.00750987
0.000245716
0.00750021
-9.86793e-05
0.00749258
-0.000592445
0.00748755
-0.00118713
0.00748658
-0.00194852
0.00749126
-0.00291501
0.00750262
-0.00398137
0.00752477
-0.00544541
0.00755648
-0.00680095
0.00760649
-0.00880819
0.00766796
-0.0103845
0.00775342
-0.0126589
-0.0149069
0.00747608
0.0146835
0.00740709
0.00997221
0.00738358
0.00217306
0.00740305
-0.00522155
0.00744997
-0.00922124
0.00750232
-0.00956737
0.007547
-0.00822231
0.00758292
-0.00681737
0.00761313
-0.00581456
0.00763947
-0.00506717
0.00766255
-0.00442561
0.0076828
-0.00386598
0.0077004
-0.00335692
0.00771579
-0.00292738
0.007729
-0.0025265
0.00774045
-0.002199
0.00774997
-0.00186162
0.00775813
-0.00161723
0.00776456
-0.00133377
0.00777
-0.00115953
0.00777384
-0.000911707
0.00777707
-0.000802128
0.00777866
-0.000558474
0.00778017
-0.000527961
0.00777997
-0.000281833
0.00778024
-0.000329297
0.00777863
-6.57556e-05
0.00777815
-0.000205608
0.00777536
0.000106471
0.00777463
-0.000163731
0.00777092
0.000223341
0.0077703
-0.000198326
0.00776578
0.000286161
0.00776578
-0.000350297
0.00776083
0.000242034
0.00776225
-0.000672507
0.00775774
2.59535e-05
0.00776248
-0.00129829
0.00776105
-0.000511031
0.00777324
-0.00235423
0.00777938
-0.00143698
0.00780369
-0.00373183
0.00782
-0.00230005
0.00785568
-0.00457577
0.00787371
-0.00179485
0.00790247
-0.00311997
0.00789462
0.00184333
0.007893
0.0015215
0.00786124
0.0066633
0.00783235
0.00874134
0.00777213
0.015261
0.00761796
0.0322752
0.0073598
0.050565
0.00739972
-0.00334576
0.00758107
-0.0342818
0.00766505
-0.019288
0.00767117
-0.00615216
0.00768163
-0.00427847
0.00767493
-0.000211605
0.00768552
-0.0020654
0.00768062
0.000475142
0.0076898
-0.00148722
0.0076881
0.000224947
0.00769897
-0.00153585
0.00769999
-5.31325e-05
0.00771028
-0.00134161
0.00770998
0.000130163
0.00771448
-0.00066387
0.00770855
0.000692116
0.00770546
0.000222164
0.0076938
0.00135021
0.00768331
0.00108561
0.00766664
0.00189146
0.00765159
0.00163174
0.00763395
0.00204029
0.00761953
0.00166124
0.00760556
0.00172237
0.00759508
0.00132929
0.0075853
0.00128825
0.00757734
0.00101771
0.00756894
0.00100685
0.00756057
0.00087618
0.00755106
0.000872687
0.00754087
0.000784125
0.00752999
0.000687119
0.00751891
0.000518066
0.00750826
0.000256358
0.00749852
-8.8932e-05
0.00749079
-0.000584719
0.00748564
-0.00118198
0.00748456
-0.00194744
0.00748909
-0.00291955
0.00750031
-0.00399259
0.00752231
-0.00546741
0.0075539
-0.00683254
0.00760385
-0.00885814
0.0076653
-0.010446
0.00775089
-0.0127445
-0.0150064