/*--------------------------------*- C++ -*----------------------------------*\
| =========                 |                                                 |
| \\      /  F ield         | OpenFOAM: The Open Source CFD Toolbox           |
|  \\    /   O peration     | Version:  2412                                  |
|   \\  /    A nd           | Website:  www.openfoam.com                      |
|    \\/     M anipulation  |                                                 |
\*---------------------------------------------------------------------------*/
FoamFile
{
    version     2.0;
    format      ascii;
    arch        "LSB;label=32;scalar=64";
    class       volVectorField;
    location    "0.2";
    object      U;
}
// * * * * * * * * * * * * * * * * * * * * * * * * * * * * * * * * * * * * * //

dimensions      [0 1 -1 0 0 0 0];

internalField   nonuniform List<vector> 
12960
(
(99.9843 -0.541298 0)
(100.199 -3.46315 -4.37787e-17)
(101.045 -8.36285 -8.79806e-17)
(102.609 -13.0921 0)
(104.785 -15.7677 -4.64662e-17)
(107.242 -16.241 0)
(109.709 -15.6993 0)
(112.101 -15.1199 0)
(114.483 -14.7855 4.21315e-17)
(116.866 -14.6049 4.11558e-17)
(119.303 -14.499 0)
(121.755 -14.4446 0)
(124.291 -14.4339 0)
(126.841 -14.475 0)
(129.515 -14.5477 3.71452e-17)
(132.194 -14.6705 -7.26141e-17)
(135.043 -14.8111 0)
(137.88 -15.0051 -3.46393e-17)
(140.949 -15.2031 0)
(143.971 -15.4639 3.292e-17)
(147.308 -15.7133 3.21069e-17)
(150.544 -16.0428 -3.115e-17)
(154.211 -16.3402 3.03422e-17)
(157.692 -16.7444 0)
(161.766 -17.0881 0)
(165.525 -17.5774 0)
(170.101 -17.9667 0)
(174.174 -18.5556 2.55161e-17)
(179.378 -18.9907 0)
(183.801 -19.6987 -4.70374e-17)
(189.792 -20.183 6.69395e-22)
(194.605 -21.0385 -2.14556e-17)
(201.59 -21.5832 5.53706e-22)
(206.838 -22.6249 -3.86355e-17)
(215.091 -23.2511 -1.89678e-17)
(220.838 -24.5313 0)
(230.727 -25.2854 0)
(237.084 -26.887 1.47975e-17)
(249.128 -27.8443 -1.45846e-22)
(256.328 -29.8644 2.48314e-17)
(271.286 -31.0766 0)
(279.703 -33.513 -9.76461e-22)
(298.568 -34.8546 4.2261e-22)
(308.633 -37.4859 -7.55915e-18)
(332.475 -38.5816 -1.88997e-17)
(344.306 -40.8589 5.04847e-18)
(373.741 -41.3199 0)
(386.861 -43.1362 0)
(422.977 -44.2296 -5.64841e-18)
(439.405 -44.8971 -9.17209e-19)
(483.715 -46.0757 -3.56944e-18)
(505.696 -38.1722 0)
(548.474 -35.8833 0)
(573.745 2.38306 5.20881e-19)
(547.008 17.0855 1.13745e-18)
(537.318 27.1346 5.83785e-18)
(499.042 32.1276 -1.00167e-18)
(483.919 32.2687 0)
(451.305 32.418 0)
(438.227 30.4018 -1.43365e-18)
(411.948 30.0242 2.61332e-18)
(400.354 28.0283 0)
(378.934 27.5071 0)
(368.65 25.7197 2.30523e-18)
(351.105 25.3387 0)
(341.77 23.8992 -8.92457e-22)
(327.165 23.7177 0)
(318.417 22.6073 0)
(305.946 22.4993 -6.87352e-18)
(297.623 21.621 0)
(286.809 21.5049 -2.37836e-22)
(278.912 20.7729 -7.94882e-18)
(269.403 20.5617 0)
(261.995 19.8705 -9.12093e-18)
(253.627 19.5112 9.96647e-18)
(246.835 18.7991 0)
(239.527 18.3142 1.10203e-17)
(233.425 17.6393 -1.13913e-17)
(227.034 17.1599 2.41212e-17)
(221.536 16.6021 1.24782e-17)
(215.846 16.1808 0)
(210.826 15.7338 -1.3537e-17)
(205.652 15.3493 0)
(201.024 14.9525 1.45804e-17)
(196.26 14.5402 0)
(192.006 14.1218 -1.56217e-17)
(187.612 13.6328 -1.61151e-17)
(183.755 13.142 -1.66716e-17)
(179.721 12.5446 0)
(176.304 11.9305 0)
(172.651 11.2011 1.81535e-17)
(169.739 10.404 0)
(166.528 9.52702 0)
(164.212 8.48681 -9.1184e-22)
(161.568 7.47897 -1.03287e-21)
(159.946 6.19275 2.11593e-17)
(158.035 5.11253 -2.13213e-17)
(157.166 3.74115 2.22566e-17)
(156.047 2.30285 -2.23488e-17)
(99.9845 -0.545888 0)
(100.2 -3.48913 -4.37624e-17)
(101.044 -8.42091 4.39905e-17)
(102.603 -13.1805 0)
(104.774 -15.8754 -1.3542e-21)
(107.228 -16.3534 0)
(109.692 -15.8083 0)
(112.081 -15.2249 0)
(114.459 -14.8883 -4.21359e-17)
(116.84 -14.7069 -4.11557e-17)
(119.275 -14.6005 0)
(121.724 -14.5461 3.95137e-17)
(124.258 -14.5355 3.87384e-17)
(126.806 -14.5771 0)
(129.477 -14.6505 -3.71432e-17)
(132.155 -14.7743 7.26124e-17)
(135.003 -14.916 -3.55101e-17)
(137.838 -15.1114 6.92764e-17)
(140.904 -15.3108 0)
(143.925 -15.5735 -3.29207e-17)
(147.26 -15.8246 -3.21075e-17)
(150.494 -16.1565 -3.11509e-17)
(154.16 -16.4559 -3.03409e-17)
(157.639 -16.863 0)
(161.71 -17.209 -2.85333e-17)
(165.467 -17.7017 2.74509e-17)
(170.041 -18.0937 0)
(174.112 -18.6868 -2.55153e-17)
(179.313 -19.1248 0)
(183.734 -19.8379 2.35187e-17)
(189.722 -20.3253 6.73597e-22)
(194.531 -21.1869 4.29115e-17)
(201.513 -21.7351 5.58454e-22)
(206.757 -22.7842 1.93181e-17)
(215.007 -23.4141 0)
(220.748 -24.7033 -1.71033e-17)
(230.632 -25.4619 0)
(236.983 -27.0749 0)
(249.021 -28.0382 1.49931e-17)
(256.213 -30.0731 -1.24159e-17)
(271.165 -31.2937 1.30423e-17)
(279.573 -33.7487 9.99475e-18)
(298.434 -35.1009 4.24473e-22)
(308.493 -37.7531 7.55845e-18)
(332.335 -38.8579 9.4499e-18)
(344.162 -41.1527 -5.04837e-18)
(373.599 -41.6162 0)
(386.707 -43.4472 -2.21838e-18)
(422.829 -44.553 -5.65041e-18)
(439.249 -45.2337 -9.15518e-19)
(483.609 -46.4351 3.56819e-18)
(505.618 -38.4876 0)
(548.536 -36.2088 1.77077e-18)
(573.954 2.39217 8.10657e-22)
(547.097 17.2479 0)
(537.34 27.366 -5.83192e-18)
(498.997 32.3851 1.00106e-18)
(483.852 32.5169 0)
(451.227 32.66 -1.62469e-18)
(438.149 30.6262 2.86642e-18)
(411.87 30.2444 0)
(400.278 28.2335 0)
(378.86 27.708 0)
(368.58 25.9072 -2.30526e-18)
(351.037 25.5233 -4.73023e-18)
(341.706 24.073 3.91808e-18)
(327.105 23.8907 0)
(318.359 22.7726 -5.38333e-18)
(305.89 22.6647 1.37471e-17)
(297.569 21.7802 0)
(286.757 21.6639 7.90702e-18)
(278.861 20.9268 0)
(269.353 20.7144 0)
(261.945 20.0182 9.12062e-18)
(253.576 19.656 0)
(246.784 18.9382 -1.02689e-17)
(239.477 18.4492 0)
(233.376 17.769 2.27827e-17)
(226.988 17.286 -1.20605e-17)
(221.492 16.7242 -1.24781e-17)
(215.803 16.3001 1.30849e-17)
(210.785 15.8504 1.35365e-17)
(205.612 15.4638 0)
(200.984 15.0648 -1.45797e-17)
(196.22 14.6503 1.51037e-17)
(191.966 14.2295 1.56209e-17)
(187.571 13.7378 3.22281e-17)
(183.713 13.2442 0)
(179.679 12.6431 0)
(176.26 12.0252 1.77351e-17)
(172.605 11.291 -7.43019e-22)
(169.693 10.4885 0)
(166.479 9.60527 1.91969e-17)
(164.162 8.55665 -1.99877e-17)
(161.515 7.54109 -1.01544e-21)
(159.893 6.24251 2.11555e-17)
(157.982 5.15393 -2.13166e-17)
(157.114 3.76757 2.22537e-17)
(155.999 2.31946 0)
(99.9847 -0.550489 0)
(100.2 -3.51499 4.37436e-17)
(101.042 -8.47865 0)
(102.597 -13.2685 0)
(104.762 -15.9827 4.65803e-17)
(107.213 -16.4657 0)
(109.674 -15.9172 0)
(112.06 -15.3297 0)
(114.436 -14.9911 0)
(116.813 -14.8087 0)
(119.246 -14.7019 4.03221e-17)
(121.692 -14.6474 -3.95114e-17)
(124.224 -14.637 -3.87361e-17)
(126.77 -14.6791 3.79274e-17)
(129.44 -14.7531 0)
(132.116 -14.878 -3.63048e-17)
(134.961 -15.0207 3.55082e-17)
(137.795 -15.2175 -6.9275e-17)
(140.86 -15.4184 0)
(143.878 -15.683 6.58393e-17)
(147.212 -15.9358 6.4213e-17)
(150.445 -16.27 3.11494e-17)
(154.108 -16.5714 0)
(157.585 -16.9814 -2.93282e-17)
(161.654 -17.3297 5.70651e-17)
(165.409 -17.826 1.11322e-21)
(169.981 -18.2205 0)
(174.049 -18.8179 -2.55166e-17)
(179.248 -19.2588 0)
(183.666 -19.977 0)
(189.651 -20.4675 -2.28819e-17)
(194.458 -21.3353 1.10654e-21)
(201.436 -21.8867 -2.09357e-17)
(206.677 -22.9433 1.93201e-17)
(214.922 -23.5769 0)
(220.659 -24.8752 1.71033e-17)
(230.538 -25.6382 0)
(236.882 -27.2625 -1.48003e-17)
(248.915 -28.2319 0)
(256.098 -30.2814 0)
(271.044 -31.5106 -2.60838e-17)
(279.443 -33.9841 0)
(298.3 -35.3468 -1.11817e-17)
(308.353 -38.0201 7.56056e-18)
(332.196 -39.1341 -9.45152e-18)
(344.018 -41.4463 0)
(373.458 -41.9123 0)
(386.552 -43.7579 4.43857e-18)
(422.68 -44.8763 5.64978e-18)
(439.091 -45.5701 9.1517e-19)
(483.502 -46.7947 -3.56662e-18)
(505.538 -38.8035 0)
(548.595 -36.5354 -1.76762e-18)
(574.164 2.40114 -1.03976e-18)
(547.186 17.411 0)
(537.361 27.5979 0)
(498.949 32.6429 0)
(483.784 32.7653 -3.61908e-18)
(451.147 32.902 1.62448e-18)
(438.071 30.8504 -1.43275e-18)
(411.791 30.4644 0)
(400.203 28.4386 5.43412e-19)
(378.786 27.9088 0)
(368.51 26.0946 -2.30707e-18)
(350.97 25.7078 4.73025e-18)
(341.643 24.2468 3.91992e-18)
(327.044 24.0637 -5.81089e-18)
(318.302 22.9379 5.38327e-18)
(305.835 22.83 2.8709e-22)
(297.515 21.9393 0)
(286.705 21.8228 7.90725e-18)
(278.81 21.0807 0)
(269.303 20.8672 0)
(261.894 20.1658 9.12104e-18)
(253.527 19.8009 9.96572e-18)
(246.735 19.0773 2.05376e-17)
(239.429 18.5843 -1.10196e-17)
(233.329 17.8986 3.8093e-24)
(226.942 17.412 0)
(221.447 16.8462 2.49557e-17)
(215.761 16.4194 -2.61689e-17)
(210.744 15.967 2.99453e-24)
(205.572 15.5783 1.40954e-17)
(200.945 15.1771 1.45787e-17)
(196.181 14.7604 -1.66285e-22)
(191.926 14.3374 0)
(187.531 13.8428 -1.61129e-17)
(183.672 13.3464 0)
(179.636 12.7417 0)
(176.217 12.12 -7.5761e-22)
(172.56 11.381 -1.81499e-17)
(169.646 10.573 1.88346e-17)
(166.429 9.68356 -8.80774e-22)
(164.112 8.62655 0)
(161.461 7.60323 -2.02599e-17)
(159.841 6.29226 -5.50795e-22)
(157.928 5.19529 2.1314e-17)
(157.062 3.79387 -2.2251e-17)
(155.951 2.33597 0)
(99.9849 -0.555114 0)
(100.201 -3.54091 0)
(101.041 -8.53641 4.39943e-17)
(102.591 -13.3565 0)
(104.751 -16.09 4.66401e-17)
(107.198 -16.5778 0)
(109.657 -16.0259 0)
(112.04 -15.4343 4.3365e-17)
(114.412 -15.0936 0)
(116.787 -14.9104 -4.11588e-17)
(119.216 -14.8032 1.08952e-21)
(121.661 -14.7486 3.95114e-17)
(124.19 -14.7384 3.8736e-17)
(126.735 -14.781 -3.79252e-17)
(129.402 -14.8557 0)
(132.076 -14.9816 -3.63049e-17)
(134.92 -15.1253 3.55083e-17)
(137.752 -15.3236 6.92736e-17)
(140.815 -15.5258 0)
(143.832 -15.7924 -3.29186e-17)
(147.164 -16.0468 -6.4212e-17)
(150.395 -16.3834 0)
(154.056 -16.6869 0)
(157.531 -17.0997 2.93269e-17)
(161.598 -17.4504 -5.70646e-17)
(165.351 -17.9502 -5.49008e-17)
(169.921 -18.3473 0)
(173.987 -18.9489 2.55157e-17)
(179.183 -19.3926 0)
(183.599 -20.116 0)
(189.581 -20.6095 0)
(194.384 -21.4835 -2.14565e-17)
(201.359 -22.0383 0)
(206.596 -23.1023 -1.93198e-17)
(214.837 -23.7396 0)
(220.569 -25.0469 -1.71053e-17)
(230.444 -25.8142 0)
(236.781 -27.4499 2.96016e-17)
(248.808 -28.4253 -1.49933e-17)
(255.983 -30.4896 -1.2418e-17)
(270.923 -31.7271 2.60832e-17)
(279.313 -34.2193 0)
(298.166 -35.5926 -1.11817e-17)
(308.212 -38.2869 1.4332e-21)
(332.056 -39.4101 9.45105e-18)
(343.873 -41.7397 -5.05454e-18)
(373.316 -42.2082 -7.7089e-18)
(386.397 -44.0684 -2.2202e-18)
(422.531 -45.1993 0)
(438.932 -45.9065 9.13448e-19)
(483.394 -47.1545 -3.56544e-18)
(505.455 -39.1198 0)
(548.654 -36.8631 1.75983e-18)
(574.373 2.41003 -8.24786e-22)
(547.272 17.5748 0)
(537.38 27.8304 0)
(498.899 32.9009 -9.94896e-19)
(483.715 33.0136 3.61823e-18)
(451.067 33.1439 0)
(437.993 31.0746 1.43111e-18)
(411.712 30.6844 2.61241e-18)
(400.127 28.6437 -5.43413e-19)
(378.712 28.1095 0)
(368.441 26.2819 -9.05379e-22)
(350.903 25.8923 0)
(341.58 24.4206 -3.91995e-18)
(326.984 24.2366 -2.20245e-22)
(318.245 23.1032 -5.38506e-18)
(305.78 22.9953 -1.37477e-17)
(297.462 22.0984 -6.72381e-18)
(286.654 21.9817 -7.90702e-18)
(278.759 21.2346 7.95056e-18)
(269.253 21.0199 0)
(261.845 20.3134 -1.82418e-17)
(253.478 19.9457 -9.96546e-18)
(246.685 19.2164 -1.02687e-17)
(239.38 18.7193 1.10196e-17)
(233.281 18.0282 -2.27826e-17)
(226.897 17.5379 -1.20599e-17)
(221.404 16.9681 -2.49553e-17)
(215.719 16.5387 2.61681e-17)
(210.703 16.0835 -2.7071e-17)
(205.533 15.6927 -6.19827e-23)
(200.905 15.2894 -2.91559e-17)
(196.142 14.8705 -3.02038e-17)
(191.886 14.4452 0)
(187.49 13.9478 -1.61113e-17)
(183.631 13.4486 0)
(179.594 12.8402 0)
(176.173 12.2148 -1.77318e-17)
(172.514 11.4711 1.81471e-17)
(169.599 10.6575 -1.88328e-17)
(166.38 9.76183 -3.83831e-17)
(164.061 8.69642 0)
(161.408 7.66532 0)
(159.788 6.34192 -4.22991e-17)
(157.874 5.23653 2.13094e-17)
(157.01 3.81998 2.22483e-17)
(155.903 2.35235 0)
(99.9851 -0.559746 4.61387e-17)
(100.201 -3.56675 -4.37118e-17)
(101.039 -8.59398 -8.79907e-17)
(102.585 -13.4441 4.5642e-17)
(104.74 -16.197 -4.66977e-17)
(107.184 -16.6898 0)
(109.639 -16.1344 -4.4876e-17)
(112.019 -15.5388 -4.33803e-17)
(114.389 -15.196 0)
(116.76 -15.0119 -1.1167e-21)
(119.187 -14.9043 -4.03197e-17)
(121.629 -14.8496 1.094e-21)
(124.157 -14.8396 -3.87337e-17)
(126.699 -14.8828 0)
(129.364 -14.9581 0)
(132.037 -15.085 3.63029e-17)
(134.879 -15.2299 -3.55064e-17)
(137.709 -15.4296 -3.46355e-17)
(140.77 -15.6332 0)
(143.786 -15.9016 3.29192e-17)
(147.116 -16.1578 3.2105e-17)
(150.345 -16.4967 0)
(154.004 -16.8022 0)
(157.478 -17.2179 0)
(161.542 -17.5709 2.85316e-17)
(165.294 -18.0742 2.74499e-17)
(169.861 -18.4739 0)
(173.925 -19.0798 0)
(179.118 -19.5263 0)
(183.531 -20.2548 2.35211e-17)
(189.51 -20.7514 0)
(194.311 -21.6315 0)
(201.282 -22.1896 0)
(206.515 -23.2611 0)
(214.753 -23.902 1.89694e-17)
(220.48 -25.2183 -1.06243e-21)
(230.35 -25.9901 1.69866e-17)
(236.68 -27.637 -1.48013e-17)
(248.701 -28.6184 1.49931e-17)
(255.867 -30.6974 1.24177e-17)
(270.801 -31.9434 -1.30412e-17)
(279.183 -34.4542 -9.99686e-18)
(298.031 -35.838 2.23622e-17)
(308.07 -38.5536 -7.56063e-18)
(331.916 -39.6859 -9.45279e-18)
(343.728 -42.033 5.0545e-18)
(373.173 -42.5038 7.70931e-18)
(386.241 -44.3786 0)
(422.382 -45.522 0)
(438.771 -46.2428 -9.13114e-19)
(483.285 -47.5146 3.56396e-18)
(505.37 -39.4365 0)
(548.71 -37.1921 -1.75673e-18)
(574.583 2.4188 5.19044e-19)
(547.356 17.7394 0)
(537.397 28.0633 0)
(498.846 33.1591 9.94289e-19)
(483.644 33.262 3.61873e-18)
(450.986 33.3857 -1.62064e-18)
(437.914 31.2986 -2.86121e-18)
(411.633 30.9042 -2.61231e-18)
(400.051 28.8486 5.45462e-19)
(378.639 28.3102 0)
(368.371 26.4692 2.30801e-18)
(350.836 26.0767 0)
(341.517 24.5942 -3.92182e-18)
(326.925 24.4095 5.81112e-18)
(318.188 23.2684 5.38502e-18)
(305.726 23.1606 6.87385e-18)
(297.409 22.2575 1.34483e-17)
(286.603 22.1406 7.90727e-18)
(278.709 21.3884 6.47488e-22)
(269.204 21.1727 0)
(261.795 20.461 1.82419e-17)
(253.429 20.0905 0)
(246.636 19.3555 1.02688e-17)
(239.332 18.8543 0)
(233.234 18.1578 -9.78959e-24)
(226.852 17.6638 1.20598e-17)
(221.36 17.09 2.4955e-17)
(215.677 16.6579 -2.61672e-17)
(210.662 16.2 1.3535e-17)
(205.493 15.8072 -1.4094e-17)
(200.866 15.4017 1.45772e-17)
(196.103 14.9806 3.02019e-17)
(191.847 14.553 0)
(187.45 14.0528 1.61104e-17)
(183.59 13.5508 0)
(179.552 12.9388 0)
(176.13 12.3096 0)
(172.469 11.5611 -3.62905e-17)
(169.552 10.7421 0)
(166.33 9.84014 3.83772e-17)
(164.011 8.76633 0)
(161.354 7.72743 0)
(159.734 6.39156 2.11467e-17)
(157.82 5.27775 -2.13067e-17)
(156.958 3.84597 -2.22456e-17)
(155.855 2.36865 0)
(99.9852 -0.564387 -4.61215e-17)
(100.201 -3.59253 8.739e-17)
(101.037 -8.65137 4.39969e-17)
(102.579 -13.5316 -9.13532e-17)
(104.729 -16.3038 0)
(107.169 -16.8015 0)
(109.622 -16.2428 -1.28501e-21)
(111.998 -15.6431 0)
(114.365 -15.2982 -4.21597e-17)
(116.734 -15.1132 -1.12518e-21)
(119.158 -15.0052 0)
(121.597 -14.9506 -3.9508e-17)
(124.123 -14.9407 0)
(126.663 -14.9844 0)
(129.327 -15.0604 0)
(131.997 -15.1883 0)
(134.838 -15.3343 0)
(137.666 -15.5354 0)
(140.726 -15.7405 -3.38286e-17)
(143.739 -16.0108 1.13664e-21)
(147.067 -16.2687 0)
(150.295 -16.6099 0)
(153.952 -16.9174 -3.03405e-17)
(157.424 -17.336 0)
(161.486 -17.6913 0)
(165.236 -18.1981 0)
(169.8 -18.6003 0)
(173.862 -19.2105 2.55174e-17)
(179.053 -19.6598 2.48005e-17)
(183.463 -20.3935 -2.35205e-17)
(189.44 -20.8931 -2.28829e-17)
(194.237 -21.7794 0)
(201.205 -22.3408 0)
(206.435 -23.4197 0)
(214.668 -24.0643 -1.89693e-17)
(220.39 -25.3896 -1.07052e-21)
(230.255 -26.1657 -1.69867e-17)
(236.579 -27.824 -1.48034e-17)
(248.594 -28.8113 1.49934e-17)
(255.752 -30.905 -1.24193e-17)
(270.679 -32.1594 1.30412e-17)
(279.052 -34.6889 9.9963e-18)
(297.896 -36.0833 -1.11805e-17)
(307.929 -38.82 0)
(331.775 -39.9615 9.45245e-18)
(343.582 -42.326 -5.0588e-18)
(373.03 -42.7992 -7.71333e-18)
(386.084 -44.6885 0)
(422.231 -45.8445 0)
(438.609 -46.579 0)
(483.175 -47.8749 0)
(505.282 -39.7537 0)
(548.765 -37.5222 0)
(574.793 2.42745 -5.19718e-19)
(547.439 17.9047 1.11587e-18)
(537.412 28.2968 5.81808e-18)
(498.791 33.4175 9.90337e-19)
(483.571 33.5103 -3.61784e-18)
(450.904 33.6274 1.62036e-18)
(437.834 31.5226 1.43009e-18)
(411.553 31.124 0)
(399.974 29.0534 -5.45461e-19)
(378.565 28.5107 0)
(368.302 26.6564 0)
(350.77 26.2611 0)
(341.455 24.7679 3.92186e-18)
(326.865 24.5823 0)
(318.132 23.4336 5.38686e-18)
(305.672 23.3259 6.87432e-18)
(297.357 22.4166 8.42056e-22)
(286.553 22.2995 -7.90706e-18)
(278.659 21.5423 -7.9507e-18)
(269.155 21.3254 8.92892e-18)
(261.746 20.6086 -9.12085e-18)
(253.38 20.2353 0)
(246.588 19.4946 -1.02686e-17)
(239.284 18.9893 0)
(233.187 18.2874 1.13914e-17)
(226.807 17.7897 0)
(221.317 17.2119 1.96606e-23)
(215.636 16.7771 1.30832e-17)
(210.622 16.3165 0)
(205.454 15.9216 0)
(200.827 15.514 0)
(196.064 15.0907 -1.51001e-17)
(191.807 14.6608 0)
(187.411 14.1578 0)
(183.549 13.6531 0)
(179.51 13.0374 -1.71203e-17)
(176.086 12.4045 0)
(172.423 11.6512 1.81434e-17)
(169.506 10.8267 0)
(166.28 9.91849 -1.9186e-17)
(163.961 8.83627 0)
(161.3 7.78955 0)
(159.681 6.44118 0)
(157.765 5.31892 0)
(156.905 3.87183 0)
(155.807 2.38486 0)
(99.9853 -0.569039 0)
(100.202 -3.61828 -4.36787e-17)
(101.036 -8.70861 0)
(102.573 -13.6188 4.57117e-17)
(104.718 -16.4105 0)
(107.154 -16.9132 0)
(109.604 -16.351 4.49464e-17)
(111.978 -15.7473 4.34148e-17)
(114.341 -15.4003 4.21643e-17)
(116.707 -15.2144 8.23224e-17)
(119.128 -15.1061 4.03195e-17)
(121.566 -15.0513 0)
(124.089 -15.0417 0)
(126.627 -15.0859 3.79229e-17)
(129.289 -15.1626 0)
(131.958 -15.2916 0)
(134.796 -15.4386 0)
(137.623 -15.6412 0)
(140.681 -15.8476 3.38269e-17)
(143.693 -16.1198 -6.58354e-17)
(147.019 -16.3794 0)
(150.245 -16.723 0)
(153.9 -17.0325 6.06794e-17)
(157.37 -17.454 0)
(161.43 -17.8115 0)
(165.178 -18.3219 -2.74512e-17)
(169.74 -18.7267 0)
(173.799 -19.3411 -2.55165e-17)
(178.988 -19.7932 -2.47997e-17)
(183.396 -20.532 0)
(189.369 -21.0347 2.28823e-17)
(194.163 -21.9271 -2.14599e-17)
(201.128 -22.4918 0)
(206.354 -23.5782 0)
(214.583 -24.2263 -1.89701e-17)
(220.3 -25.5607 1.71075e-17)
(230.161 -26.3411 0)
(236.478 -28.0106 1.48035e-17)
(248.487 -29.0039 -1.49934e-17)
(255.636 -31.1124 2.48393e-17)
(270.558 -32.3752 1.65713e-22)
(278.921 -34.9233 -9.99784e-18)
(297.761 -36.3283 0)
(307.787 -39.0862 0)
(331.635 -40.237 0)
(343.436 -42.6189 5.05883e-18)
(372.887 -43.0943 7.71387e-18)
(385.927 -44.9982 0)
(422.08 -46.1668 0)
(438.445 -46.9151 -9.10318e-19)
(483.064 -48.2353 0)
(505.191 -40.0713 0)
(548.819 -37.8536 0)
(575.002 2.43599 5.18748e-19)
(547.52 18.0708 -1.11463e-18)
(537.425 28.5307 -5.81237e-18)
(498.733 33.6762 -1.97779e-18)
(483.498 33.7587 0)
(450.82 33.8691 0)
(437.754 31.7464 0)
(411.472 31.3437 0)
(399.898 29.2582 -5.47542e-19)
(378.491 28.7112 0)
(368.232 26.8435 -2.31081e-18)
(350.703 26.4453 0)
(341.392 24.9414 0)
(326.806 24.755 0)
(318.076 23.5987 -5.38684e-18)
(305.619 23.4911 -1.37487e-17)
(297.305 22.5756 -6.72523e-18)
(286.503 22.4583 0)
(278.61 21.6961 7.95178e-18)
(269.107 21.4781 -8.9286e-18)
(261.698 20.7563 0)
(253.332 20.3801 0)
(246.539 19.6337 0)
(239.237 19.1243 1.10188e-17)
(233.141 18.4169 -1.13914e-17)
(226.762 17.9155 1.20593e-17)
(221.274 17.3337 -2.49544e-17)
(215.595 16.8963 -1.30828e-17)
(210.582 16.4329 0)
(205.415 16.036 0)
(200.789 15.6263 0)
(196.025 15.2008 0)
(191.768 14.7686 1.56147e-17)
(187.371 14.2629 1.61075e-17)
(183.508 13.7553 0)
(179.468 13.136 5.26929e-22)
(176.043 12.4994 0)
(172.378 11.7413 0)
(169.459 10.9114 0)
(166.231 9.99685 0)
(163.91 8.90625 0)
(161.247 7.85168 0)
(159.628 6.49077 0)
(157.711 5.36004 0)
(156.853 3.89755 0)
(155.759 2.40098 0)
(99.9854 -0.5737 0)
(100.202 -3.64398 4.36652e-17)
(101.034 -8.76571 -4.40045e-17)
(102.567 -13.7058 4.57495e-17)
(104.707 -16.5169 0)
(107.14 -17.0246 0)
(109.586 -16.4591 4.49841e-17)
(111.957 -15.8513 1.21264e-21)
(114.317 -15.5022 0)
(116.68 -15.3155 -4.11617e-17)
(119.099 -15.2068 -4.03177e-17)
(121.534 -15.152 3.95069e-17)
(124.055 -15.1425 0)
(126.591 -15.1873 -3.79207e-17)
(129.251 -15.2647 0)
(131.918 -15.3947 0)
(134.754 -15.5427 -3.5505e-17)
(137.58 -15.7468 3.46346e-17)
(140.636 -15.9547 3.38274e-17)
(143.646 -16.2287 6.58346e-17)
(146.97 -16.49 0)
(150.194 -16.836 -3.11492e-17)
(153.848 -17.1475 1.01556e-21)
(157.316 -17.5719 0)
(161.374 -17.9317 0)
(165.119 -18.4455 -1.15194e-21)
(169.679 -18.8529 0)
(173.737 -19.4716 0)
(178.922 -19.9265 2.48006e-17)
(183.328 -20.6704 2.35227e-17)
(189.298 -21.1762 -2.28832e-17)
(194.09 -22.0747 -1.14943e-21)
(201.051 -22.6427 -2.09376e-17)
(206.273 -23.7364 0)
(214.498 -24.3882 -4.46996e-22)
(220.21 -25.7316 1.71098e-17)
(230.066 -26.5163 1.6988e-17)
(236.376 -28.1971 0)
(248.38 -29.1963 1.49937e-17)
(255.52 -31.3194 -1.242e-17)
(270.435 -32.5907 -1.30407e-17)
(278.79 -35.1574 9.99735e-18)
(297.626 -36.5731 1.11804e-17)
(307.645 -39.3522 0)
(331.494 -40.5122 0)
(343.29 -42.9115 5.06327e-18)
(372.744 -43.3892 -7.71808e-18)
(385.769 -45.3076 -2.23063e-18)
(421.928 -46.4888 0)
(438.279 -47.2511 1.81928e-18)
(482.952 -48.596 3.56063e-18)
(505.098 -40.3893 0)
(548.871 -38.1861 -1.73809e-18)
(575.212 2.44442 -5.19487e-19)
(547.599 18.2377 -1.10845e-18)
(537.436 28.7652 0)
(498.672 33.935 9.87457e-19)
(483.423 34.007 0)
(450.736 34.1107 1.61636e-18)
(437.674 31.9702 0)
(411.392 31.5633 2.61132e-18)
(399.821 29.4628 5.4754e-19)
(378.417 28.9115 0)
(368.163 27.0305 2.31083e-18)
(350.637 26.6295 0)
(341.33 25.1149 0)
(326.748 24.9277 0)
(318.02 23.7638 -5.38872e-18)
(305.565 23.6563 6.87443e-18)
(297.254 22.7346 -6.72686e-18)
(286.453 22.6171 0)
(278.561 21.8499 -1.59038e-17)
(269.059 21.6309 0)
(261.649 20.9039 -9.12142e-18)
(253.284 20.5249 0)
(246.491 19.7727 -1.02687e-17)
(239.19 19.2592 -1.10188e-17)
(233.094 18.5463 2.27829e-17)
(226.718 18.0413 -1.20593e-17)
(221.231 17.4555 2.49542e-17)
(215.554 17.0154 1.30825e-17)
(210.543 16.5494 0)
(205.377 16.1504 0)
(200.75 15.7386 0)
(195.987 15.3109 -1.5098e-17)
(191.729 14.8765 -1.56138e-17)
(187.331 14.3679 -1.61065e-17)
(183.468 13.8576 -1.66605e-17)
(179.426 13.2347 5.28091e-22)
(176 12.5943 -1.77226e-17)
(172.333 11.8314 0)
(169.412 10.9961 0)
(166.181 10.0752 0)
(163.86 8.97626 0)
(161.193 7.91382 -2.02405e-17)
(159.574 6.54033 2.11365e-17)
(157.657 5.4011 0)
(156.8 3.92313 0)
(155.711 2.41701 2.23328e-17)
(99.9855 -0.57837 0)
(100.202 -3.66964 -4.36489e-17)
(101.033 -8.82266 4.40066e-17)
(102.562 -13.7925 -9.15713e-17)
(104.696 -16.6231 0)
(107.125 -17.1359 4.64758e-17)
(109.569 -16.567 1.31731e-21)
(111.936 -15.9551 -8.68964e-17)
(114.293 -15.604 -4.21772e-17)
(116.653 -15.4164 0)
(119.069 -15.3073 -4.03182e-17)
(121.502 -15.2525 -7.90106e-17)
(124.02 -15.2433 -3.873e-17)
(126.555 -15.2886 0)
(129.212 -15.3667 0)
(131.878 -15.4977 0)
(134.713 -15.6468 3.55031e-17)
(137.536 -15.8524 -6.92669e-17)
(140.59 -16.0616 -3.38257e-17)
(143.599 -16.3375 -6.58337e-17)
(146.922 -16.6005 3.21042e-17)
(150.144 -16.9489 -1.1662e-21)
(153.795 -17.2623 1.02274e-21)
(157.262 -17.6896 0)
(161.318 -18.0517 2.85318e-17)
(165.061 -18.569 2.74503e-17)
(169.619 -18.979 -2.66849e-17)
(173.674 -19.6019 0)
(178.857 -20.0597 -2.47998e-17)
(183.26 -20.8086 -2.35222e-17)
(189.227 -21.3174 2.28827e-17)
(194.016 -22.2222 2.14603e-17)
(200.974 -22.7934 2.09373e-17)
(206.192 -23.8945 1.93259e-17)
(214.413 -24.5499 1.89705e-17)
(220.12 -25.9023 1.09521e-21)
(229.971 -26.6913 2.97897e-22)
(236.275 -28.3833 1.48068e-17)
(248.272 -29.3884 -1.49938e-17)
(255.404 -31.5262 -1.24218e-17)
(270.313 -32.8058 0)
(278.658 -35.3913 -9.99897e-18)
(297.49 -36.8176 -2.23598e-17)
(307.502 -39.618 0)
(331.352 -40.7873 9.45613e-18)
(343.143 -43.204 -5.06337e-18)
(372.6 -43.6839 7.71873e-18)
(385.61 -45.6167 2.23058e-18)
(421.775 -46.8105 0)
(438.112 -47.587 -7.5024e-22)
(482.839 -48.9569 2.15881e-22)
(505.002 -40.7078 0)
(548.921 -38.5199 1.73505e-18)
(575.422 2.45273 5.18548e-19)
(547.677 18.4054 2.52948e-21)
(537.445 29.0002 5.807e-18)
(498.61 34.194 -9.83447e-19)
(483.346 34.2553 3.61787e-18)
(450.651 34.3522 -1.61602e-18)
(437.592 32.1938 0)
(411.31 31.7827 -1.51941e-22)
(399.744 29.6674 0)
(378.343 29.1118 0)
(368.094 27.2174 0)
(350.571 26.8136 0)
(341.268 25.2883 -3.92578e-18)
(326.689 25.1004 -5.81243e-18)
(317.965 23.9288 5.38871e-18)
(305.513 23.8215 0)
(297.203 22.8936 6.7268e-18)
(286.404 22.776 0)
(278.512 22.0037 -6.70071e-22)
(269.011 21.7836 0)
(261.601 21.0515 9.12113e-18)
(253.236 20.6697 0)
(246.443 19.9118 2.05373e-17)
(239.143 19.3941 0)
(233.048 18.6758 1.35688e-23)
(226.674 18.1671 1.2059e-17)
(221.189 17.5772 -1.2477e-17)
(215.514 17.1345 1.3082e-17)
(210.503 16.6658 1.35331e-17)
(205.338 16.2648 0)
(200.712 15.8508 0)
(195.949 15.4211 3.01943e-17)
(191.691 14.9843 0)
(187.292 14.473 0)
(183.427 13.9599 5.30883e-22)
(179.384 13.3334 5.29327e-22)
(175.957 12.6893 3.54416e-17)
(172.287 11.9216 1.81359e-17)
(169.366 11.0808 0)
(166.131 10.1537 0)
(163.809 9.0463 0)
(161.139 7.97595 2.02376e-17)
(159.521 6.58986 -5.55949e-22)
(157.602 5.44211 0)
(156.748 3.94857 0)
(155.662 2.43294 -2.23313e-17)
(99.9856 -0.583049 0)
(100.202 -3.69526 4.36363e-17)
(101.032 -8.87946 0)
(102.556 -13.8791 4.58223e-17)
(104.685 -16.7291 -4.70039e-17)
(107.111 -17.2471 -9.30674e-17)
(109.551 -16.6748 -4.50566e-17)
(111.915 -16.0588 -1.23092e-21)
(114.269 -15.7056 -1.19508e-21)
(116.626 -15.5171 0)
(119.04 -15.4077 4.03165e-17)
(121.47 -15.3529 7.90084e-17)
(123.986 -15.3439 7.74567e-17)
(126.518 -15.3898 0)
(129.174 -15.4685 3.71359e-17)
(131.838 -15.6006 0)
(134.671 -15.7508 -3.55034e-17)
(137.493 -15.9578 3.46322e-17)
(140.545 -16.1684 0)
(143.552 -16.4462 6.58329e-17)
(146.873 -16.7109 -6.42066e-17)
(150.093 -17.0616 3.11476e-17)
(153.743 -17.3771 1.02993e-21)
(157.207 -17.8072 0)
(161.261 -18.1716 -2.85307e-17)
(165.003 -18.6924 2.74516e-17)
(169.558 -19.1049 2.6684e-17)
(173.611 -19.7321 0)
(178.791 -20.1926 0)
(183.191 -20.9467 0)
(189.156 -21.4585 0)
(193.941 -22.3694 2.14623e-17)
(200.896 -22.9439 2.09383e-17)
(206.11 -24.0525 -1.93258e-17)
(214.328 -24.7114 -1.89714e-17)
(220.03 -26.0728 1.10341e-21)
(229.876 -26.866 -1.69887e-17)
(236.173 -28.5693 -1.4807e-17)
(248.165 -29.5803 0)
(255.288 -31.7327 -9.64862e-22)
(270.19 -33.0207 0)
(278.526 -35.6249 9.99854e-18)
(297.354 -37.0619 1.11795e-17)
(307.359 -39.8835 0)
(331.21 -41.0621 -9.45601e-18)
(342.996 -43.4962 0)
(372.456 -43.9783 0)
(385.451 -45.9255 0)
(421.622 -47.132 0)
(437.943 -47.9228 -9.07921e-19)
(482.726 -49.318 2.2393e-22)
(504.903 -41.0266 0)
(548.969 -38.8549 1.72721e-18)
(575.632 2.46093 -5.1933e-19)
(547.753 18.5739 2.54836e-21)
(537.453 29.2357 -1.1605e-17)
(498.545 34.4533 1.96401e-18)
(483.268 34.5035 -3.61692e-18)
(450.565 34.5936 0)
(437.511 32.4174 0)
(411.228 32.0021 -1.50496e-22)
(399.667 29.8718 5.50718e-19)
(378.268 29.312 0)
(368.024 27.4043 0)
(350.504 26.9976 4.73103e-18)
(341.207 25.4616 -9.60663e-22)
(326.631 25.2729 5.81248e-18)
(317.91 24.0938 0)
(305.46 23.9866 0)
(297.152 23.0525 -6.72847e-18)
(286.355 22.9347 7.90755e-18)
(278.464 22.1575 -6.75742e-22)
(268.964 21.9363 8.92814e-18)
(261.553 21.1991 -9.12163e-18)
(253.189 20.8145 0)
(246.396 20.0508 -2.05373e-17)
(239.096 19.529 -1.10182e-17)
(233.002 18.8052 -1.13916e-17)
(226.63 18.2928 -1.2059e-17)
(221.146 17.6989 0)
(215.473 17.2535 -2.61634e-17)
(210.464 16.7821 -2.70653e-17)
(205.3 16.3791 0)
(200.674 15.9631 0)
(195.911 15.5312 -3.01923e-17)
(191.652 15.0921 0)
(187.253 14.5781 1.61036e-17)
(183.387 14.0622 5.32133e-22)
(179.343 13.4321 5.30602e-22)
(175.914 12.7843 -3.54372e-17)
(172.242 12.0117 -3.62679e-17)
(169.319 11.1656 0)
(166.081 10.2321 0)
(163.758 9.11636 0)
(161.084 8.0381 0)
(159.467 6.63936 -5.60355e-22)
(157.547 5.48307 0)
(156.695 3.97385 0)
(155.614 2.44876 0)
(99.9857 -0.587737 0)
(100.203 -3.72084 -4.36209e-17)
(101.03 -8.93613 4.40169e-17)
(102.55 -13.9654 0)
(104.674 -16.8348 4.70653e-17)
(107.096 -17.358 -1.41759e-21)
(109.533 -16.7824 -4.50954e-17)
(111.894 -16.1623 -1.24011e-21)
(114.244 -15.807 8.43768e-17)
(116.599 -15.6177 0)
(119.01 -15.508 0)
(121.437 -15.4532 -3.95026e-17)
(123.951 -15.4444 -7.74544e-17)
(126.482 -15.4908 0)
(129.135 -15.5703 -3.71338e-17)
(131.797 -15.7033 0)
(134.629 -15.8546 3.55015e-17)
(137.449 -16.0631 -3.46328e-17)
(140.499 -16.2751 0)
(143.505 -16.5548 -6.58321e-17)
(146.824 -16.8212 6.42057e-17)
(150.043 -17.1742 -3.11485e-17)
(153.69 -17.4917 -3.0338e-17)
(157.153 -17.9247 0)
(161.205 -18.2913 2.85316e-17)
(164.944 -18.8157 -2.74506e-17)
(169.497 -19.2307 0)
(173.547 -19.8621 2.55191e-17)
(178.725 -20.3255 0)
(183.123 -21.0847 0)
(189.085 -21.5995 0)
(193.867 -22.5165 1.17499e-21)
(200.819 -23.0942 -4.18767e-17)
(206.029 -24.2102 0)
(214.243 -24.8727 3.79432e-17)
(219.94 -26.2431 1.11162e-21)
(229.781 -27.0405 -1.69895e-17)
(236.071 -28.755 0)
(248.057 -29.7718 0)
(255.171 -31.9389 2.48461e-17)
(270.067 -33.2354 0)
(278.394 -35.8582 0)
(297.218 -37.3059 1.11797e-17)
(307.216 -40.1489 0)
(331.068 -41.3368 0)
(342.848 -43.7883 -5.07033e-18)
(372.311 -44.2724 0)
(385.291 -46.234 0)
(421.468 -47.4532 0)
(437.773 -48.2585 9.06099e-19)
(482.611 -49.6792 -3.55738e-18)
(504.802 -41.3459 -4.3501e-18)
(549.016 -39.1912 -2.42758e-21)
(575.843 2.46902 1.55694e-18)
(547.829 18.7433 2.56721e-21)
(537.459 29.4718 5.7981e-18)
(498.477 34.7127 -1.74563e-21)
(483.189 34.7518 0)
(450.479 34.8349 1.61185e-18)
(437.428 32.6408 0)
(411.146 32.2213 -2.61056e-18)
(399.59 30.0761 1.0798e-21)
(378.194 29.512 0)
(367.955 27.591 -2.31465e-18)
(350.438 27.1816 -4.73109e-18)
(341.145 25.6348 3.92685e-18)
(326.572 25.4454 0)
(317.855 24.2587 0)
(305.408 24.1517 -6.87541e-18)
(297.101 23.2114 -8.77757e-22)
(286.306 23.0935 -7.90738e-18)
(278.415 22.3113 7.9529e-18)
(268.916 22.089 1.14544e-22)
(261.506 21.3467 1.82431e-17)
(253.141 20.9593 0)
(246.348 20.1898 2.05373e-17)
(239.049 19.6639 1.10182e-17)
(232.956 18.9345 0)
(226.586 18.4184 -1.20587e-17)
(221.104 17.8206 0)
(215.433 17.3725 2.61626e-17)
(210.425 16.8984 1.35322e-17)
(205.262 16.4935 0)
(200.636 16.0753 0)
(195.873 15.6413 3.01904e-17)
(191.614 15.2 -1.56099e-17)
(187.214 14.6831 -1.61026e-17)
(183.347 14.1645 3.33121e-17)
(179.301 13.5308 1.71125e-17)
(175.871 12.8793 1.77168e-17)
(172.197 12.1019 1.8132e-17)
(169.272 11.2504 0)
(166.031 10.3106 -1.91696e-17)
(163.707 9.18646 0)
(161.03 8.10025 -2.02287e-17)
(159.413 6.68883 -2.11269e-17)
(157.492 5.52397 0)
(156.642 3.99898 0)