/*--------------------------------*- C++ -*----------------------------------*\
| =========                 |                                                 |
| \\      /  F ield         | OpenFOAM: The Open Source CFD Toolbox           |
|  \\    /   O peration     | Version:  2412                                  |
|   \\  /    A nd           | Website:  www.openfoam.com                      |
|    \\/     M anipulation  |                                                 |
\*---------------------------------------------------------------------------*/
FoamFile
{
    version     2.0;
    format      ascii;
    arch        "LSB;label=32;scalar=64";
    class       volScalarField;
    location    "0.1";
    object      epsilon;
}
// * * * * * * * * * * * * * * * * * * * * * * * * * * * * * * * * * * * * * //

dimensions      [0 2 -3 0 0 0 0];

internalField   nonuniform List<scalar> 
13079
(
1138.37
1407.39
1024.1
665.926
491.718
432.401
418.242
417.63
420.039
423.329
426.642
430.115
433.562
437.171
440.875
444.808
448.936
453.348
458.067
463.182
468.735
474.819
481.454
488.764
496.735
505.622
515.225
526.103
537.649
550.928
564.896
581.627
599.262
621.973
644.451
674.04
702.788
751.919
804.201
888.947
964.269
1096.58
1190.88
1341.78
1337.71
1382.49
1358.27
1741.95
1982.19
2814.09
3313.91
5650.18
25154.5
36299.9
15992.9
5196.71
2392.88
1580.33
1343.86
1167.96
1078.13
936.627
880.114
802.404
777.762
739.896
732.91
710.738
704.8
686.314
677.069
662.471
648.918
626.429
603.326
579.956
559.943
1133.13
1401.79
1021.28
665.168
491.809
432.689
418.545
417.914
420.308
423.589
426.899
430.373
433.825
437.44
441.155
445.101
449.245
453.677
458.417
463.557
469.137
475.251
481.919
489.267
497.281
506.215
515.871
526.808
538.423
551.779
565.842
582.681
600.444
623.291
645.938
675.746
704.811
754.228
806.799
891.77
967.398
1099.72
1193.92
1344.33
1340.7
1386.61
1364.04
1746.92
1986.56
2809.49
3304.41
5568.14
24754.9
36065.7
15937.1
5172.94
2380.87
1576.38
1342.13
1167.59
1078.71
937.852
881.342
803.844
778.975
741.003
733.832
711.582
705.494
687.044
677.762
663.171
649.608
627.219
604.18
580.828
560.884
1127.96
1396.22
1018.48
664.434
491.915
432.984
418.853
418.201
420.581
423.852
427.158
430.632
434.089
437.712
441.436
445.395
449.554
454.004
458.766
463.93
469.536
475.679
482.38
489.764
497.818
506.799
516.505
527.501
539.18
552.614
566.767
583.712
601.598
624.577
647.386
677.409
706.776
756.473
809.313
894.501
970.408
1102.73
1196.8
1346.72
1343.48
1390.45
1369.42
1751.35
1990.18
2804.01
3293.54
5484.04
24297.2
35742.7
15837.5
5137.39
2366.08
1571.17
1339.56
1166.45
1078.68
938.639
882.208
804.977
779.927
741.889
734.562
712.243
706.03
687.64
678.335
663.759
650.196
627.916
604.949
581.625
561.759
1122.85
1390.65
1015.67
663.698
492.02
433.28
419.162
418.49
420.856
424.116
427.418
430.892
434.352
437.981
441.714
445.685
449.859
454.327
459.109
464.295
469.927
476.097
482.828
490.248
498.34
507.366
517.119
528.172
539.911
553.419
567.658
584.703
602.707
625.813
648.773
679.007
708.656
758.622
811.706
897.098
973.249
1105.55
1199.45
1348.86
1345.96
1393.95
1374.33
1755.18
1992.98
2797.59
3281.26
5397.94
23782.9
35330.4
15694
5089.74
2348.48
1564.68
1336.14
1164.52
1078.02
938.964
882.692
805.78
780.599
742.536
735.084
712.707
706.394
688.085
678.77
664.217
650.665
628.503
605.618
582.331
562.553
1117.82
1385.09
1012.83
662.946
492.12
433.575
419.471
418.78
421.13
424.379
427.676
431.15
434.613
438.248
441.988
445.97
450.158
454.642
459.443
464.65
470.305
476.501
483.261
490.714
498.841
507.91
517.707
528.813
540.607
554.187
568.506
585.647
603.761
626.987
650.087
680.523
710.433
760.657
813.956
899.536
975.89
1108.15
1201.84
1350.73
1348.11
1397.09
1378.75
1758.38
1994.93
2790.25
3267.64
5310.1
23215.1
34829.9
15507
5030.04
2328.12
1556.98
1331.92
1161.85
1076.74
938.823
882.789
806.248
780.987
742.937
735.391
712.966
706.577
688.373
679.06
664.537
651.006
628.969
606.176
582.937
563.257
545.241
530.988
520.971
514.258
510.304
506.421
503.662
499.732
497.433
492.812
490.681
485.309
484.852
480.184
483.28
481.468
488.745
495.715
504.598
536.445
544.631
520.204
1112.83
1379.51
1009.95
662.173
492.212
433.868
419.78
419.07
421.404
424.642
427.934
431.405
434.87
438.51
442.258
446.248
450.448
454.948
459.766
464.993
470.669
476.889
483.675
491.158
499.319
508.427
518.265
529.421
541.265
554.913
569.304
586.536
604.75
628.09
651.317
681.945
712.096
762.562
816.043
901.795
978.307
1110.5
1203.93
1352.29
1349.92
1399.84
1382.67
1760.94
1996.03
2782.03
3252.77
5220.85
22598.1
34243.1
15277.4
4958.54
2305.14
1548.12
1326.94
1158.46
1074.85
938.222
882.503
806.38
781.091
743.093
735.484
713.021
706.579
688.498
679.202
664.715
651.214
629.309
606.618
583.437
563.862
546.041
531.748
521.637
514.819
510.778
506.827
504.023
500.057
497.744
493.107
490.965
485.589
485.107
480.444
483.46
481.669
488.759
495.749
504.343
535.861
543.894
519.228
1107.9
1373.92
1007.04
661.379
492.296
434.159
420.09
419.36
421.678
424.904
428.189
431.658
435.124
438.767
442.521
446.52
450.73
455.244
460.078
465.322
471.018
477.259
484.069
491.58
499.771
508.915
518.789
529.992
541.881
555.592
570.048
587.365
605.669
629.116
652.456
683.266
713.634
764.326
817.956
903.859
980.481
1112.59
1205.71
1353.54
1351.37
1402.2
1386.07
1762.89
1996.31
2773.01
3236.8
5130.58
21937.1
33572.9
15006.9
4875.72
2279.69
1538.19
1321.26
1154.41
1072.39
937.176
881.849
806.184
780.919
743.006
735.367
712.874
706.402
688.463
679.194
664.748
651.286
629.519
606.941
583.828
564.365
546.762
532.452
522.256
515.342
511.218
507.202
504.357
500.358
498.032
493.381
491.23
485.85
485.344
480.688
483.627
481.858
488.766
495.775
504.091
535.287
543.182
518.294
1102.99
1368.3
1004.09
660.561
492.37
434.447
420.399
419.65
421.952
425.164
428.443
431.907
435.374
439.019
442.777
446.783
451.003
455.529
460.377
465.637
471.35
477.611
484.442
491.978
500.195
509.373
519.278
530.524
542.452
556.222
570.734
588.131
606.514
630.059
653.499
684.479
715.041
765.941
819.685
905.717
982.402
1114.4
1207.16
1354.46
1352.45
1404.18
1388.98
1764.23
1995.81
2763.28
3219.87
5039.69
21237.8
32822.7
14697.3
4782.19
2252
1527.31
1314.96
1149.76
1069.39
935.708
880.843
805.671
780.48
742.685
735.046
712.532
706.052
688.269
679.039
664.638
651.223
629.598
607.143
584.108
564.763
547.392
533.087
522.82
515.817
511.616
507.538
504.655
500.626
498.289
493.625
491.467
486.085
485.557
480.907
483.771
482.025
488.755
495.781
503.829
534.709
542.477
517.388
1098.11
1362.66
1001.11
659.72
492.435
434.734
420.708
419.94
422.225
425.423
428.694
432.154
435.619
439.266
443.027
447.038
451.266
455.802
460.662
465.936
471.664
477.942
484.792
492.35
500.591
509.797
519.731
531.014
542.976
556.799
571.36
588.83
607.282
630.916
654.441
685.579
716.312
767.4
821.223
907.362
984.06
1115.93
1208.29
1355.06
1353.18
1405.79
1391.39
1765
1994.57
2752.91
3202.13
4948.62
20506.8
31996.6
14351.1
4678.76
2222.29
1515.58
1308.1
1144.56
1065.91
933.845
879.508
804.859
779.789
742.141
734.532
712.005
705.535
687.922
678.742
664.388
651.028
629.549
607.225
584.277
565.055
547.926
533.646
523.322
516.239
511.967
507.832
504.913
500.857
498.511
493.836
491.671
486.288
485.738
481.097
483.888
482.163
488.719
495.759
503.549
534.113
541.767
516.495
1093.25
1356.98
998.086
658.856
492.492
435.019
421.018
420.231
422.498
425.681
428.943
432.397
435.86
439.507
443.27
447.285
451.519
456.064
460.934
466.219
471.96
478.253
485.119
492.696
500.957
510.188
520.146
531.462
543.453
557.323
571.926
589.462
607.971
631.686
655.281
686.564
717.445
768.702
822.568
908.791
985.454
1117.17
1209.08
1355.33
1353.55
1407.04
1393.34
1765.24
1992.65
2742.01
3183.73
4857.78
19751.1
31099.4
13970.7
4566.34
2190.81
1503.12
1300.77
1138.89
1061.98
931.619
877.87
803.767
778.862
741.387
733.836
711.303
704.86
687.428
678.308
664.005
650.704
629.374
607.189
584.338
565.242
548.36
534.126
523.758
516.605
512.267
508.08
505.127
501.047
498.693
494.009
491.838
486.455
485.884
481.252
483.971
482.266
488.652
495.702
503.242
533.491
541.041
515.607
1088.4
1351.27
995.023
657.968
492.539
435.302
421.327
420.521
422.77
425.938
429.189
432.637
436.097
439.742
443.505
447.523
451.762
456.313
461.191
466.486
472.239
478.543
485.422
493.015
501.293
510.546
520.523
531.868
543.881
557.794
572.43
590.025
608.582
632.368
656.019
687.435
718.439
769.846
823.72
910.004
986.585
1118.13
1209.54
1355.28
1353.58
1407.96
1394.85
1764.98
1990.1
2730.68
3164.83
4767.61
18977.8
30136.4
13559.3
4445.98
2157.86
1490.05
1293.04
1132.82
1057.66
929.066
875.958
802.418
777.721
740.44
732.973
710.441
704.04
686.798
677.747
663.493
650.258
629.078
607.04
584.294
565.327
548.693
534.523
524.126
516.912
512.515
508.28
505.296
501.195
498.835
494.143
491.966
486.585
485.993
481.37
484.017
482.332
488.549
495.605
502.903
532.833
540.287
514.714
1083.55
1345.52
991.921
657.057
492.578
435.584
421.636
420.811
423.041
426.193
429.433
432.872
436.328
439.971
443.734
447.752
451.994
456.551
461.436
466.738
472.499
478.812
485.702
493.308
501.6
510.87
520.863
532.231
544.263
558.211
572.874
590.521
609.114
632.963
656.655
688.191
719.297
770.833
824.683
911.003
987.457
1118.81
1209.69
1354.93
1353.29
1408.55
1395.95
1764.29
1987.01
2719.01
3145.59
4678.5
18194.5
29113.7
13120
4318.85
2123.71
1476.51
1285.02
1126.42
1053.02
926.224
873.804
800.839
776.385
739.319
731.96
709.433
703.088
686.041
677.066
662.863
649.697
628.67
606.783
584.15
565.312
548.926
534.836
524.425
517.16
512.71
508.431
505.419
501.3
498.934
494.236
492.053
486.674
486.062
481.448
484.025
482.356
488.408
495.462
502.525
532.133
539.498
513.807
1078.69
1339.72
988.779
656.123
492.608
435.864
421.945
421.102
423.312
426.446
429.674
433.105
436.555
440.194
443.955
447.973
452.216
456.776
461.666
466.974
472.741
479.062
485.96
493.576
501.878
511.162
521.167
532.553
544.597
558.577
573.259
590.951
609.57
633.473
657.193
688.838
720.022
771.669
825.462
911.796
988.08
1119.21
1209.53
1354.29
1352.7
1408.87
1396.68
1763.2
1983.43
2707.1
3126.14
4590.84
17408.6
28038
12656.2
4186.17
2088.67
1462.61
1276.77
1119.78
1048.1
923.137
871.442
799.058
774.881
738.043
730.812
708.297
702.017
685.17
676.279
662.125
649.031
628.155
606.426
583.912
565.204
549.06
535.065
524.654
517.349
512.851
508.533
505.496
501.361
498.99
494.287
492.099
486.722
486.089
481.484
483.991
482.336
488.225
495.27
502.104
531.385
538.665
512.878
1073.83
1333.88
985.597
655.166
492.63
436.142
422.255
421.392
423.582
426.698
429.913
433.334
436.777
440.411
444.169
448.185
452.429
456.991
461.883
467.195
472.967
479.292
486.196
493.819
502.128
511.423
521.435
532.835
544.888
558.892
573.587
591.318
609.954
633.902
657.637
689.378
720.621
772.359
826.066
912.392
988.467
1119.37
1209.09
1353.38
1351.84
1408.92
1397.07
1761.77
1979.46
2695.04
3106.63
4504.97
16627.3
26916.7
12171.7
4049.25
2053.02
1448.49
1268.38
1112.95
1042.97
919.846
868.907
797.105
773.231
736.634
729.55
707.05
700.843
684.199
675.396
661.29
648.27
627.546
605.978
583.588
565.009
549.1
535.212
524.815
517.478
512.94
508.588
505.528
501.378
499.004
494.296
492.102
486.729
486.075
481.478
483.915
482.271
487.998
495.027
501.637
530.582
537.783
511.922
1068.97
1328
982.374
654.186
492.644
436.418
422.564
421.682
423.852
426.949
430.15
433.559
436.995
440.623
444.376
448.389
452.632
457.194
462.088
467.402
473.176
479.504
486.411
494.038
502.352
511.654
521.669
533.081
545.137
559.161
573.863
591.625
610.269
634.255
657.992
689.819
721.101
772.914
826.506
912.803
988.633
1119.29
1208.38
1352.23
1350.73
1408.74
1397.18
1760.06
1975.15
2682.92
3087.18
4421.22
15857.5
25757.8
11670.4
3909.41
2017.08
1434.26
1259.92
1106.02
1037.69
916.395
866.234
795.01
771.464
735.115
728.192
705.71
699.583
683.142
674.431
660.371
647.426
626.851
605.447
583.187
564.735
549.05
535.28
524.909
517.551
512.978
508.595
505.514
501.353
498.975
494.263
492.064
486.694
486.018
481.43
483.795
482.159
487.725
494.73
501.122
529.722
536.846
510.933
1064.09
1322.07
979.112
653.183
492.649
436.693
422.873
421.972
424.121
427.198
430.384
433.782
437.208
440.83
444.578
448.586
452.826
457.387
462.281
467.595
473.37
479.698
486.606
494.236
502.551
511.857
521.873
533.291
545.346
559.386
574.089
591.877
610.521
634.536
658.265
690.168
721.472
773.342
826.795
913.044
988.597
1118.99
1207.44
1350.86
1349.41
1408.37
1397.03
1758.12
1970.59
2670.83
3067.91
4339.85
15105.7
24569.7
11156.3
3767.99
1981.12
1420.04
1251.47
1099.06
1032.31
912.827
863.461
792.806
769.604
733.508
726.758
704.298
698.254
682.013
673.398
659.38
646.512
626.083
604.846
582.718
564.39
548.917
535.272
524.938
517.568
512.966
508.557
505.458
501.287
498.906
494.191
491.986
486.619
485.92
481.338
483.633
482.001
487.407
494.378
500.555
528.803
535.851
509.906
1059.2
1316.09
975.81
652.159
492.646
436.966
423.182
422.263
424.389
427.446
430.616
434.001
437.418
441.031
444.773
448.776
453.012
457.571
462.463
467.776
473.549
479.877
486.784
494.414
502.728
512.035
522.049
533.47
545.52
559.571
574.27
592.078
610.716
634.753
658.465
690.434
721.743
773.657
826.948
913.131
988.38
1118.49
1206.29
1349.3
1347.91
1407.84
1396.69
1756.01
1965.85
2658.84
3048.92
4261.1
14377.6
23361.6
10633.6
3626.31
1945.41
1405.93
1243.1
1092.11
1026.88
909.185
860.62
790.522
767.678
731.837
725.269
702.832
696.873
680.829
672.311
658.331
645.539
625.254
604.183
582.192
563.983
548.708
535.194
524.908
517.535
512.909
508.477
505.361
501.182
498.799
494.081
491.869
486.505
485.782
481.206
483.429
481.797
487.043
493.973
499.937
527.822
534.795
508.839
1054.29
1310.07
972.47
651.113
492.636
437.237
423.492
422.553
424.657
427.692
430.846
434.217
437.624
441.229
444.962
448.959
453.19
457.746
462.635
467.946
473.717
480.042
486.946
494.573
502.885
512.19
522.199
533.62
545.663
559.721
574.411
592.234
610.86
634.912
658.598
690.625
721.927
773.87
826.981
913.082
988.004
1117.83
1204.95
1347.59
1346.25
1407.19
1396.18
1753.78
1961
2647.01
3030.32
4185.14
13678.1
22143.2
10106.4
3485.62
1910.22
1392.03
1234.88
1085.26
1021.46
905.509
857.746
788.189
765.712
730.125
723.744
701.331
695.457
679.604
671.183
657.238
644.52
624.376
603.472
581.617
563.525
548.431
535.051
524.823
517.453
512.809
508.358
505.228
501.042
498.655
493.934
491.714
486.353
485.606
481.034
483.184
481.549
486.635
493.514
499.269
526.781
533.677
507.73
1049.37
1304
969.092
650.047
492.618
437.507
423.801
422.843
424.924
427.937
431.075
434.431
437.826
441.422
445.147
449.137
453.362
457.913
462.799
468.106
473.872
480.193
487.093
494.717
503.023
512.326
522.326
533.745
545.777
559.839
574.518
592.351
610.96
635.022
658.675
690.752
722.035
773.996
826.91
912.917
987.491
1117.02
1203.47
1345.74
1344.48
1406.44
1395.56
1751.47
1956.11
2635.42
3012.18
4112.11
13011.2
20924.1
9579.1
3347.12
1875.75
1378.44
1226.84
1078.54
1016.1
901.839
854.871
785.836
763.73
728.392
722.202
699.812
694.022
678.354
670.03
656.114
643.47
623.461
602.723
581.006
563.025
548.094
534.85
524.687
517.329
512.67
508.203
505.06
500.868
498.478
493.755
491.526
486.167
485.394
480.824
482.9
481.258
486.184
493.004
498.551
525.68
532.498
506.578
1044.43
1297.89
965.679
648.961
492.593
437.775
424.11
423.133
425.19
428.181
431.301
434.642
438.026
441.611
445.328
449.309
453.528
458.073
462.954
468.257
474.018
480.334
487.228
494.847
503.147
512.444
522.434
533.849
545.868
559.932
574.594
592.435
611.022
635.089
658.704
690.826
722.079
774.048
826.753
912.654
986.866
1116.09
1201.86
1343.79
1342.63
1405.63
1394.87
1749.15
1951.24
2624.11
2994.56
4042.11
12380.2
19714.5
9055.88
3211.89
1842.23
1365.22
1219.06
1072.01
1010.83
898.208
852.023
783.489
761.755
726.66
720.66
698.294
692.584
677.094
668.864
654.973
642.399
622.522
601.947
580.367
562.493
547.706
534.598
524.507
517.167
512.498
508.017
504.862
500.666
498.272
493.545
491.307
485.95
485.148
480.58
482.581
480.927
485.693
492.445
497.787
524.522
531.259
505.384
1039.49
1291.74
962.232
647.856
492.56
438.042
424.418
423.423
425.456
428.425
431.526
434.852
438.223
441.797
445.504
449.477
453.688
458.227
463.103
468.4
474.156
480.465
487.353
494.965
503.257
512.548
522.527
533.935
545.939
560.002
574.647
592.492
611.053
635.122
658.694
690.855
722.072
774.041
826.527
912.312
986.151
1115.07
1200.17
1341.77
1340.72
1404.8
1394.14
1746.84
1946.44
2613.12
2977.52
3975.16
11787.3
18524.3
8540.86
3080.89
1809.81
1352.45
1211.56
1065.71
1005.71
894.651
849.231
781.175
759.809
724.949
719.136
696.791
691.158
675.835
667.698
653.827
641.321
621.57
601.156
579.712
561.938
547.278
534.302
524.289
516.972
512.297
507.805
504.639
500.438
498.039
493.309
491.061
485.704
484.874
480.305
482.229
480.56
485.166
491.841
496.978
523.311
529.964
504.149
1034.52
1285.55
958.752
646.733
492.521
438.307
424.727
423.713
425.722
428.667
431.75
435.059
438.417
441.98
445.678
449.641
453.844
458.377
463.246
468.537
474.287
480.589
487.469
495.075
503.357
512.64
522.607
534.008
545.995
560.055
574.68
592.527
611.061
635.128
658.655
690.851
722.025
773.988
826.248
911.912
985.37
1113.98
1198.41
1339.71
1338.79
1403.96
1393.42
1744.6
1941.76
2602.5
2961.09
3911.29
11233.7
17363
8037.97
2954.95
1778.65
1340.17
1204.38
1059.67
1000.75
891.194
846.518
778.916
757.91
723.274
717.644
695.319
689.757
674.593
666.543
652.687
640.246
620.616
600.36
579.049
561.37
546.818
533.971
524.039
516.75
512.071
507.569
504.393
500.189
497.785
493.051
490.79
485.433
484.572
480.001
481.847
480.16
484.604
491.196
496.128
522.051
528.615
502.876
1029.55
1279.33
955.242
645.593
492.475
438.57
425.036
424.002
425.988
428.909
431.973
435.265
438.61
442.161
445.848
449.803
453.997
458.522
463.385
468.669
474.412
480.707
487.579
495.176
503.45
512.724
522.677
534.069
546.039
560.096
574.7
592.547
611.051
635.115
658.594
690.823
721.95
773.903
825.933
911.47
984.546
1112.85
1196.62
1337.64
1336.87
1403.15
1392.73
1742.45
1937.26
2592.26
2945.32
3850.45
10720
16239.9
7550.84
2834.73
1748.86
1328.44
1197.55
1053.92
995.998
887.864
843.904
776.731
756.077
721.653
716.198
693.89
688.394
673.376
665.411
651.564
639.184
619.67
599.567
578.387
560.799
546.335
533.612
523.764
516.507
511.826
507.316
504.131
499.922
497.512
492.773
490.5
485.141
484.249
479.673
481.44
479.73
484.013
490.513
495.243
520.747
527.218
501.568
1024.56
1273.07
951.704
644.437
492.422
438.832
425.344
424.292
426.253
429.15
432.194
435.47
438.801
442.34
446.017
449.961
454.147
458.665
463.521
468.798
474.533
480.82
487.684
495.273
503.536
512.802
522.74
534.124
546.075
560.128
574.71
592.557
611.031
635.09
658.521
690.78
721.859
773.797
825.597
911.005
983.697
1111.7
1194.82
1335.57
1334.98
1402.39
1392.11
1740.43
1932.95
2582.44
2930.2
3792.58
10245.7
15162.9
7082.75
2720.77
1720.52
1317.28
1191.09
1048.49
991.468
884.682
841.409
774.637
754.323
720.098
714.809
692.516
687.078
672.197
664.31
650.468
638.146
618.742
598.788
577.735
560.23
545.838
533.233
523.47
516.247
511.567
507.05
503.856
499.643
497.225
492.481
490.193
484.832
483.906
479.325
481.011
479.275
483.396
489.798
494.325
519.404
525.777
500.229
1019.57
1266.78
948.14
643.267
492.364
439.092
425.652
424.582
426.518
429.39
432.415
435.674
438.991
442.518
446.184
450.118
454.295
458.805
463.654
468.924
474.651
480.931
487.786
495.367
503.619
512.876
522.8
534.174
546.107
560.156
574.716
592.562
611.005
635.06
658.442
690.731
721.76
773.684
825.253
910.532
982.845
1110.54
1193.04
1333.54
1333.15
1401.69
1391.57
1738.56
1928.89
2573.03
2915.75
3737.59
9809.97
14139.2
6636.5
2613.42
1693.69
1306.72
1185.01
1043.38
987.18
881.663
839.045
772.65
752.661
718.621
713.488
691.205
685.819
671.063
663.249
649.406
637.138
617.839
598.028
577.099
559.673
545.335
532.842
523.164
515.977
511.299
506.776
503.572
499.354
496.928
492.177
489.874
484.509
483.548
478.96
480.563
478.798
482.757
489.054
493.38
518.028
524.3
498.864
1014.56
1260.46
944.553
642.083
492.301
439.351
425.96
424.872
426.783
429.631
432.635
435.877
439.179
442.694
446.349
450.274
454.442
458.944
463.785
469.048
474.768
481.04
487.886
495.459
503.701
512.948
522.858
534.224
546.138
560.183
574.721
592.566
610.98
635.029
658.365
690.684
721.664
773.573
824.915
910.066
982.005
1109.4
1191.29
1331.55
1331.39
1401.09
1391.15
1736.85
1925.07
2564.05
2901.96
3685.35
9411.21
13174.5
6214.38
2512.92
1668.4
1296.76
1179.32
1038.6
983.147
878.822
836.825
770.781
751.102
717.231
712.242
689.966
684.624
669.981
662.235
648.385
636.167
616.969
597.296
576.486
559.132
544.835
532.445
522.852
515.701
511.027
506.497
503.283
499.06
496.624
491.867
489.546
484.177
483.179
478.581
480.102
478.304
482.102
488.289
492.413
516.625
522.791
497.477
1009.55
1254.12
940.946
640.888
492.232
439.608
426.267
425.161
427.047
429.871
432.855
436.079
439.368
442.87
446.514
450.428
454.587
459.081
463.916
469.172
474.885
481.148
487.986
495.551
503.783
513.021
522.917
534.274
546.171
560.212
574.729
592.574
610.959
635.005
658.295
690.645
721.579
773.474
824.594
909.619
981.192
1108.3
1189.6
1329.64
1329.72
1400.59
1390.85
1735.34
1921.53
2555.49
2888.82
3635.74
9047.49
12273.1
5818.11
2419.33
1644.66
1287.42
1174.02
1034.17
979.379
876.168
834.756
769.037
749.652
715.936
711.078
688.805
683.499
668.958
661.272
647.412
635.24
616.136
596.595
575.9
558.614
544.343
532.049
522.538
515.425
510.754
506.217
502.994
498.765
496.318
491.552
489.213
483.838
482.803
478.194
479.63
477.798
481.432
487.505
491.429
515.202
521.257
496.074
1004.53
1247.76
937.319
639.681
492.158
439.864
426.575
425.451
427.312
430.111
433.075
436.281
439.555
443.046
446.679
450.583
454.733
459.219
464.046
469.296
475.001
481.258
488.088
495.644
503.867
513.096
522.978
534.328
546.208
560.246
574.743
592.59
610.947
634.99
658.238
690.621
721.511
773.395
824.3
909.203
980.42
1107.25
1187.97
1327.81
1328.15
1400.2
1390.7
1734.02
1918.28
2547.36
2876.32
3588.61
8716.54
11437.5
5448.79
2332.64
1622.44
1278.68
1169.1
1030.08
975.88
873.706
832.844
767.426
748.316
714.74
709.999
687.725
682.448
667.997
660.365
646.49
634.36
615.345
595.932
575.346
558.124
543.866
531.661
522.23
515.153
510.485
505.941
502.708
498.472
496.012
491.236
488.878
483.496
482.422
477.8
479.151
477.282
480.754
486.707
490.432
513.765
519.705
494.659
999.509
1241.38
933.676
638.464
492.08
440.119
426.882
425.741
427.577
430.35
433.295
436.483
439.743
443.221
446.843
450.738
454.879
459.357
464.178
469.421
475.12
481.369
488.191
495.74
503.953
513.175
523.045
534.387
546.252
560.288
574.767
592.615
610.948
634.99
658.199
690.616
721.467
773.343
824.04
908.826
979.7
1106.25
1186.43
1326.07
1326.7
1399.93
1390.7
1732.9
1915.31
2539.62
2864.42
3543.8
8415.88
10669
5106.97
2252.7
1601.72
1270.54
1164.56
1026.32
972.651
871.44
831.092
765.951
747.099
713.647
709.009
686.729
681.474
667.101
659.517
645.622
633.531
614.601
595.308
574.828
557.663
543.409
531.284
521.93
514.889
510.223
505.672
502.427
498.183
495.709
490.923
488.545
483.154
482.04
477.404
478.668
476.76
480.07
485.901
489.428
512.319
518.142
493.238
994.484
1234.98
930.019
637.239
491.997
440.372
427.188
426.031
427.842
430.59
433.514
436.685
439.931
443.396
447.008
450.893
455.025
459.496
464.31
469.547
475.239
481.482
488.297
495.84
504.044
513.259
523.117
534.453
546.303
560.339
574.801
592.653
610.963
635.007
658.18
690.635
721.45
773.323
823.821
908.497
979.04
1105.33
1184.98
1324.44
1325.37
1399.79
1390.85
1731.98
1912.63
2532.28
2853.1
3501.15
8142.95
9967.05
4792.61
2179.27
1582.44
1262.97
1160.39
1022.89
969.688
869.369
829.5
764.613
746.001
712.657
708.108
685.819
680.579
666.273
658.73
644.812
632.755
613.905
594.727
574.347
557.237
542.977
530.925
521.643
514.636
509.972
505.412
502.155
497.902
495.413
490.615
488.215
482.815
481.659
477.008
478.185
476.237
479.385
485.091
488.42
510.87
516.572
491.816
989.456
1228.58
926.35
636.006
491.911
440.624
427.495
426.321
428.107
430.83
433.734
436.887
440.119
443.572
447.173
451.048
455.173
459.637
464.444
469.675
475.362
481.598
488.407
495.943
504.14
513.348
523.196
534.527
546.364
560.401
574.848
592.706
610.996
635.043
658.185
690.681
721.466
773.34
823.649
908.222
978.446
1104.48
1183.62
1322.91
1324.17
1399.78
1391.17
1731.27
1910.24
2525.32
2842.33
3460.51
7895.13
9330.11
4505.19
2112.07
1564.55
1255.95
1156.56
1019.77
966.985
867.491
828.066
763.412
745.022
711.772
707.297
684.995
679.762
665.512
658.003
644.058
632.033
613.258
594.19
573.905
556.845
542.573
530.586
521.372
514.397
509.734
505.164
501.894
497.631
495.125
490.314
487.892
482.481
481.283
476.614
477.704
475.714
478.701
484.28
487.414
509.423
515.002
490.398
984.429
1222.16
922.672
634.766
491.821
440.874
427.801
426.611
428.372
431.07
433.954
437.09
440.307
443.748
447.339
451.205
455.321
459.779
464.58
469.806
475.487
481.718
488.522
496.052
504.242
513.445
523.282
534.61
546.436
560.475
574.909
592.775
611.048
635.102
658.216
690.756
721.516
773.397
823.526
908.004
977.925
1103.71
1182.38
1321.51
1323.1
1399.9
1391.64
1730.76
1908.13
2518.7
2832.08
3421.71
7669.86
8755.39
4243.74
2050.75
1547.97
1249.46
1153.06
1016.96
964.535
865.8
826.787
762.345
744.16
710.989
706.574
684.254
679.022
664.819
657.338
643.362
631.366
612.662
593.698
573.503
556.49
542.199
530.271
521.121
514.175
509.511
504.929
501.646
497.371
494.847
490.023
487.576
482.155
480.912
476.226
477.227
475.194
478.021
483.471
486.412
507.983
513.437
488.987
979.402
1215.73
918.985
633.521
491.728
441.124
428.108
426.901
428.637
431.311
434.174
437.293
440.496
443.925
447.506
451.363
455.472
459.922
464.719
469.939
475.616
481.842
488.64
496.166
504.35
513.548
523.377
534.703
546.519
560.561
574.985
592.86
611.12
635.182
658.275
690.862
721.603
773.496
823.456
907.846
977.478
1103.03
1181.23
1320.21
1322.16
1400.15
1392.27
1730.45
1906.29
2512.42
2822.29
3384.6
7464.67
8239.28
4006.99
1994.92
1532.62
1243.46
1149.87
1014.42
962.328
864.29
825.656
761.408
743.411
710.305
705.937
683.596
678.359
664.191
656.732
642.723
630.751
612.116
593.25
573.141
556.172
541.859
529.981
520.89
513.971
509.305
504.71
501.413
497.124
494.581
489.742
487.271
481.837
480.55
475.845
476.758
474.68
477.348
482.669
485.418
506.555
511.883
487.589
974.377
1209.3
915.293
632.271
491.633
441.373
428.414
427.191
428.903
431.551
434.395
437.496
440.685
444.103
447.674
451.522
455.624
460.068
464.859
470.076
475.748
481.97
488.764
496.286
504.465
513.659
523.481
534.806
546.614
560.662
575.077
592.964
611.212
635.287
658.361
690.999
721.728
773.638
823.44
907.749
977.107
1102.44
1180.2
1319.03
1321.35
1400.53
1393.05
1730.32
1904.7
2506.45
2812.95
3349.04
7277.21
7777.58
3793.39
1944.18
1518.41
1237.93
1146.97
1012.16
960.349
862.953
824.668
760.596
742.771
709.718
705.382
683.016
677.768
663.627
656.184
642.139
630.19
611.618
592.846
572.818
555.89
541.552
529.72
520.683
513.787
509.116
504.508
501.194
496.892
494.328
489.472
486.977
481.529
480.197
475.473
476.296
474.174
476.683
481.875
484.434
505.141
510.342
486.207
969.355
1202.86
911.595
631.017
491.534
441.62
428.72
427.481
429.168
431.792
434.616
437.699
440.875
444.282
447.843
451.683
455.777
460.216
465.002
470.215
475.883
482.102
488.892
496.411
504.586
513.778
523.594
534.919
546.72
560.775
575.185
593.085
611.326
635.415
658.476
691.168
721.89
773.824
823.478
907.715
976.812
1101.93
1179.27
1317.97
1320.67
1401.03
1393.98
1730.36
1903.35
2500.75
2804.01
3314.89
7105.29
7365.71
3601.24
1898.11
1505.27
1232.83
1144.33
1010.14
958.588
861.779
823.815
759.903
742.234
709.222
704.905
682.512
677.247
663.123
655.691
641.608
629.679
611.168
592.484
572.533
555.644
541.279
529.487
520.499
513.623
508.947
504.323
500.992
496.674
494.088
489.216
486.694
481.233
479.855
475.11
475.845
473.678
476.029
481.091
483.464
503.746
508.819
484.843
964.338
1196.42
907.895
629.761
491.434
441.867
429.025
427.772
429.434
432.033
434.837
437.904
441.066
444.461
448.013
451.845
455.932
460.366
465.148
470.357
476.022
482.238
489.025
496.542
504.713
513.904
523.716
535.042
546.838
560.902
575.308
593.224
611.46
635.567
658.618
691.369
722.089
774.052
823.568
907.741
976.592
1101.5
1178.44
1317.02
1320.1
1401.64
1395.04
1730.58
1902.23
2495.32
2795.43
3282.02
6946.91
6998.95
3428.75
1856.3
1493.11
1228.12
1141.94
1008.35
957.028
860.759
823.088
759.321
741.795
708.812
704.501
682.078
676.792
662.678
655.251
641.128
629.216
610.763
592.163
572.285
555.432
541.041
529.284
520.339
513.48
508.797
504.156
500.807
496.472
493.863
488.973
486.425
480.948
479.524
474.758
475.404
473.192
475.388
480.32
482.508
502.371
507.317
483.501
959.325
1189.98
904.194
628.502
491.332
442.113
429.331
428.062
429.701
432.275
435.059
438.108
441.257
444.641
448.185
452.009
456.089
460.517
465.296
470.502
476.165
482.379
489.164
496.679
504.848
514.038
523.846
535.175
546.968
561.042
575.446
593.38
611.614
635.741
658.788
691.6
722.324
774.321
823.711
907.827
976.445
1101.16
1177.72
1316.17
1319.65
1402.37
1396.24
1730.94
1901.32
2490.12
2787.18
3250.31
6800.24
6672.57
3274.09
1818.34
1481.83
1223.78
1139.77
1006.77
955.657
859.88
822.48
758.844
741.447
708.483
704.167
681.711
676.399
662.287
654.86
640.696
628.798
610.401
591.881
572.071
555.254
540.836
529.109
520.203
513.359
508.666
504.006
500.639
496.285
493.653
488.744
486.168
480.676
479.205
474.418
474.974
472.717
474.759
479.563
481.569
501.019
505.839
482.182
954.317
1183.55
900.492
627.242
491.228
442.359
429.637
428.353
429.967
432.517
435.281
438.314
441.449
444.822
448.357
452.173
456.248
460.671
465.446
470.65
476.311
482.523
489.307
496.821
504.988
514.179
523.984
535.318
547.109
561.195
575.599
593.552
611.787
635.938
658.984
691.861
722.594
774.631
823.902
907.97
976.367
1100.9
1177.09
1315.43
1319.32
1403.19
1397.56
1731.45
1900.6
2485.14
2779.23
3219.66
6663.65
6382
3135.48
1783.85
1471.36
1219.77
1137.81
1005.39
954.458
859.133
821.98
758.464
741.184
708.228
703.896
681.406
676.064
661.946
654.516
640.308
628.424
610.08
591.635
571.891
555.108
540.665
528.964
520.092
513.258
508.554
503.874
500.487
496.114
493.456
488.529
485.925
480.416
478.898
474.089
474.557
472.255
474.144
478.82
480.648
499.692
504.386
480.889
949.317
1177.12
896.791
625.981
491.123
442.603
429.942
428.644
430.234