/*--------------------------------*- C++ -*----------------------------------*\
| =========                 |                                                 |
| \\      /  F ield         | OpenFOAM: The Open Source CFD Toolbox           |
|  \\    /   O peration     | Version:  2412                                  |
|   \\  /    A nd           | Website:  www.openfoam.com                      |
|    \\/     M anipulation  |                                                 |
\*---------------------------------------------------------------------------*/
FoamFile
{
    version     2.0;
    format      ascii;
    arch        "LSB;label=32;scalar=64";
    class       volScalarField;
    location    "0.1";
    object      k;
}
// * * * * * * * * * * * * * * * * * * * * * * * * * * * * * * * * * * * * * //

dimensions      [0 2 -2 0 0 0 0];

internalField   nonuniform List<scalar> 
13079
(
66.4466
72.6467
57.616
45.7374
40.9337
39.6542
39.4927
39.6103
39.7636
39.9369
40.1036
40.2782
40.45
40.6301
40.8141
41.0093
41.2133
41.4308
41.6624
41.9127
42.1831
42.4778
42.7972
43.1469
43.5254
43.9442
44.3929
44.8966
45.4256
46.0282
46.6542
47.3975
48.1695
49.1536
50.105
51.3415
52.5125
54.49
56.5034
59.6798
62.3438
66.8898
69.8768
74.5419
74.1656
75.5139
74.7102
85.9043
91.9697
111.678
121.75
162.504
347.59
409.5
246.327
129.687
95.4951
79.1006
73.5063
68.2337
65.5047
60.6814
58.8632
55.9983
55.1733
53.7147
53.5021
52.6162
52.4063
51.6506
51.2922
50.6895
50.1251
49.1562
48.1676
47.1528
46.2799
66.3038
72.5186
57.5655
45.7363
40.9487
39.6707
39.5083
39.6247
39.7773
39.95
40.1166
40.2912
40.4632
40.6436
40.8281
41.0239
41.2286
41.447
41.6797
41.9311
42.2027
42.4987
42.8196
43.1709
43.5513
43.9721
44.423
44.9292
45.4609
46.0667
46.6965
47.444
48.221
49.21
50.1676
51.4119
52.5945
54.5805
56.6021
59.782
62.4528
66.9921
69.9715
74.6165
74.2553
75.6373
74.8864
86.0372
92.0816
111.573
121.558
161.151
343.793
407.229
245.224
129.082
95.1975
78.9998
73.4569
68.2245
65.5244
60.7255
58.9075
56.0528
55.2191
53.7577
53.538
52.6497
52.4338
51.6806
51.3207
50.7185
50.1538
49.19
48.2046
47.1911
46.3221
66.1622
72.3905
57.5151
45.7357
40.964
39.6875
39.5241
39.6392
39.7911
39.9633
40.1297
40.3043
40.4764
40.6572
40.8421
41.0386
41.244
41.4632
41.6969
41.9493
42.2221
42.5194
42.8418
43.1947
43.5768
43.9996
44.4526
44.9612
45.4955
46.1044
46.7378
47.4895
48.2712
49.265
50.2284
51.4805
52.6739
54.6683
56.6974
59.8806
62.5575
67.0898
70.0609
74.6855
74.338
75.7521
75.0505
86.1557
92.1745
111.449
121.337
159.76
339.539
404.276
243.694
128.345
94.8517
78.8668
73.3836
68.1913
65.5248
60.7549
58.9391
56.096
55.2552
53.7922
53.5664
52.6759
52.455
51.7052
51.3442
50.7429
50.1784
49.22
48.238
47.2261
46.3614
66.0221
72.2619
57.4638
45.7349
40.9794
39.7043
39.5399
39.6538
39.8049
39.9766
40.1428
40.3174
40.4897
40.6707
40.856
41.053
41.2591
41.4791
41.7137
41.9672
42.2411
42.5396
42.8633
43.2177
43.6015
44.0262
44.4812
44.9921
45.5289
46.1408
46.7776
47.5332
48.3194
49.3177
50.2867
51.5462
52.7498
54.7523
56.788
59.9742
62.6561
67.1811
70.143
74.7471
74.4118
75.8566
75.2004
86.258
92.2465
111.305
121.087
158.333
334.837
400.639
241.736
127.475
94.4576
78.7019
73.2863
68.1338
65.5053
60.7689
58.9572
56.1271
55.2808
53.8176
53.5869
52.6943
52.4694
51.7237
51.3622
50.762
50.1982
49.2453
48.2671
47.2572
46.397
65.8835
72.1325
57.4112
45.7335
40.9946
39.7211
39.5557
39.6684
39.8188
39.9899
40.1558
40.3303
40.5027
40.684
40.8697
41.0671
41.2738
41.4947
41.7301
41.9845
42.2594
42.5591
42.884
43.2399
43.6251
44.0517
44.5085
45.0216
45.5606
46.1754
46.8154
47.5747
48.3651
49.3678
50.3418
51.6085
52.8215
54.8316
56.8729
60.0619
62.7475
67.2649
70.2165
74.8002
74.4756
75.9499
75.3353
86.3433
92.297
111.14
120.809
156.874
329.712
396.324
239.356
126.472
94.0168
78.5062
73.1661
68.0528
65.4659
60.767
58.9618
56.1458
55.2958
53.8336
53.599
52.7046
52.4767
51.736
51.3744
50.7755
50.2126
49.2656
48.2915
47.2839
46.4287
45.6294
44.9958
44.5541
44.2573
44.084
43.9049
43.7805
43.5941
43.4913
43.2664
43.1737
42.9081
42.9055
42.6674
42.8501
42.7435
43.1363
43.4652
43.8988
45.4758
45.7362
44.4865
65.7461
72.002
57.3572
45.7315
41.0096
39.7379
39.5716
39.683
39.8326
40.0031
40.1687
40.3431
40.5156
40.6971
40.883
41.0809
41.2882
41.5097
41.7459
42.0012
42.2771
42.5778
42.9038
43.261
43.6477
44.0759
44.5343
45.0496
45.5905
46.2081
46.8509
47.6137
48.4079
49.4147
50.3932
51.6669
52.8885
54.9058
56.9516
60.1429
62.8309
67.3405
70.2805
74.8441
74.5288
76.0317
75.4548
86.4117
92.3261
110.957
120.506
155.389
324.195
391.349
236.566
125.341
93.5319
78.2816
73.0243
67.9496
65.4075
60.7498
58.953
56.1522
55.3002
53.8402
53.6028
52.7069
52.4769
51.7418
51.3805
50.7831
50.2215
49.2805
48.3109
47.3061
46.4561
45.6663
45.0306
44.5844
44.2828
44.1057
43.9235
43.7972
43.6091
43.5059
43.2802
43.187
42.9213
42.9175
42.6797
42.8582
42.7531
43.1361
43.4668
43.8856
45.4479
45.7031
44.4405
65.6097
71.8703
57.3017
45.7287
41.0245
39.7546
39.5875
39.6976
39.8464
40.0163
40.1815
40.3558
40.5283
40.7099
40.8961
41.0943
41.3021
41.5242
41.7611
42.0172
42.2939
42.5956
42.9227
43.281
43.669
44.0987
44.5586
45.0758
45.6185
46.2386
46.8839
47.6501
48.4477
49.4583
50.4408
51.721
52.9503
54.9743
57.0236
60.2167
62.9058
67.4073
70.3344
74.8784
74.5711
76.102
75.5589
86.4634
92.3344
110.756
120.18
153.883
318.327
385.738
233.382
124.088
93.0065
78.0305
72.8628
67.8256
65.3308
60.7175
58.9313
56.1466
55.2943
53.8375
53.5985
52.7011
52.47
51.7411
51.3806
50.7849
50.2248
49.2901
48.3252
47.3235
46.4789
45.6998
45.0628
44.6126
44.3067
44.1258
43.9407
43.8125
43.6231
43.5193
43.293
43.1995
42.9336
42.9286
42.6912
42.8658
42.762
43.1354
43.468
43.8725
45.4203
45.6709
44.3963
65.4739
71.7372
57.2448
45.7252
41.0391
39.7714
39.6034
39.7122
39.8601
40.0293
40.1942
40.3682
40.5407
40.7224
40.9088
41.1073
41.3155
41.5382
41.7757
42.0324
42.3099
42.6124
42.9404
43.2998
43.6889
44.12
44.5812
45.1001
45.6444
46.2668
46.9144
47.6836
48.4842
49.4983
50.4843
51.7705
53.0067
55.0369
57.0885
60.2831
62.9717
67.4648
70.378
74.9029
74.6024
76.1609
75.6478
86.4991
92.3228
110.539
119.833
152.363
312.152
379.519
229.827
122.722
92.4444
77.7555
72.6836
67.6828
65.2371
60.671
58.8972
56.1293
55.2785
53.8258
53.5864
52.6877
52.4563
51.7341
51.3747
50.7807
50.2225
49.2941
48.3344
47.3362
46.4971
45.7293
45.092
44.6383
44.3283
44.144
43.9561
43.8263
43.6355
43.5313
43.3044
43.2106
42.9446
42.9385
42.7015
42.8722
42.7699
43.1339
43.4682
43.8589
45.3924
45.6389
44.3531
65.3386
71.6026
57.1863
45.7211
41.0536
39.7882
39.6193
39.7268
39.8738
40.0423
40.2067
40.3805
40.5529
40.7347
40.9211
41.1199
41.3284
41.5515
41.7896
42.0469
42.3251
42.6283
42.9571
43.3174
43.7075
44.1398
44.6021
45.1225
45.6681
46.2927
46.9421
47.7142
48.5173
49.5346
50.5236
51.8155
53.0576
55.0934
57.1461
60.3416
63.0284
67.513
70.4111
74.9176
74.6228
76.2087
75.7219
86.5196
92.2926
110.308
119.47
150.837
305.722
372.729
225.926
121.253
91.85
77.4595
72.4888
67.5231
65.1279
60.6113
58.8517
56.101
55.2533
53.8056
53.5668
52.667
52.436
51.721
51.363
50.7709
50.2147
49.2928
48.3385
47.344
46.5106
45.7544
45.1178
44.6613
44.3475
44.1599
43.9696
43.8381
43.6462
43.5416
43.3142
43.2201
42.9542
42.947
42.7105
42.8773
42.7763
43.1312
43.4669
43.8443
45.3636
45.6065
44.3105
65.2033
71.4665
57.1265
45.7162
41.0679
39.8049
39.6352
39.7414
39.8875
40.0552
40.2192
40.3926
40.5649
40.7466
40.9331
41.132
41.3408
41.5643
41.8028
42.0606
42.3393
42.6431
42.9726
43.3337
43.7246
44.1579
44.6212
45.1429
45.6896
46.3161
46.9671
47.7418
48.5469
49.5672
50.5585
51.8556
53.1029
55.1436
57.1963
60.3923
63.0757
67.5517
70.4336
74.9226
74.6327
76.246
75.782
86.5259
92.2451
110.066
119.093
149.31
299.09
365.41
221.708
119.693
91.2281
77.1457
72.2809
67.3488
65.0048
60.5392
58.7955
56.0625
55.2193
53.7774
53.5402
52.6393
52.4096
51.7019
51.3458
50.7555
50.2016
49.2861
48.3375
47.3471
46.5194
45.7751
45.14
44.6812
44.3642
44.1736
43.9809
43.8479
43.6549
43.5501
43.3223
43.2279
42.962
42.9538
42.7177
42.8808
42.7811
43.1271
43.464
43.8285
45.3334
45.5731
44.268
65.068
71.3288
57.0652
45.7107
41.0821
39.8217
39.6512
39.7559
39.9011
40.068
40.2314
40.4045
40.5766
40.7582
40.9447
41.1437
41.3527
41.5764
41.8153
42.0735
42.3526
42.657
42.987
43.3488
43.7403
44.1745
44.6386
45.1614
45.7089
46.3371
46.9893
47.7663
48.5731
49.5959
50.589
51.891
53.1425
55.1877
57.2392
60.4351
63.1139
67.581
70.4457
74.9181
74.6324
76.2734
75.8288
86.5191
92.1819
109.814
118.706
147.79
292.315
357.608
217.205
118.054
90.5837
76.8171
72.0621
67.162
64.8693
60.4562
58.7298
56.0145
55.1773
53.7419
53.5072
52.6053
52.3773
51.6774
51.3233
50.7349
50.1834
49.2744
48.3317
47.3456
46.5237
45.7912
45.1585
44.6981
44.3782
44.1849
43.99
43.8557
43.6618
43.5567
43.3285
43.2339
42.968
42.9587
42.7232
42.8826
42.7841
43.1212
43.4591
43.8111
45.3015
45.5383
44.225
64.9326
71.1895
57.0025
45.7045
41.0961
39.8385
39.6671
39.7705
39.9146
40.0807
40.2436
40.4162
40.5881
40.7695
40.9559
41.1549
41.364
41.588
41.8271
42.0856
42.3651
42.6698
43.0002
43.3625
43.7546
44.1895
44.6541
45.1778
45.726
46.3557
47.0088
47.7878
48.5959
49.621
50.6153
51.9217
53.1767
55.2256
57.2749
60.4702
63.1431
67.6013
70.4478
74.9047
74.6225
76.2915
75.8633
86.5007
92.1048
109.555
118.311
146.283
285.455
349.373
212.452
116.35
89.9218
76.477
71.8349
66.9651
64.7233
60.3634
58.6556
55.9581
55.1282
53.6996
53.4683
52.5656
52.3398
51.6478
51.2961
50.7094
50.1605
49.2579
48.3212
47.3399
46.5235
45.8028
45.1732
44.7118
44.3894
44.1937
43.9968
43.8613
43.6665
43.5613
43.3327
43.2379
42.9722
42.9618
42.7268
42.8825
42.7851
43.1135
43.452
43.7918
45.2674
45.5017
44.1814
64.7968
71.0485
56.9384
45.6977
41.11
39.8554
39.6831
39.7851
39.9281
40.0933
40.2556
40.4277
40.5993
40.7805
40.9668
41.1657
41.3748
41.5989
41.8382
42.097
42.3767
42.6816
43.0124
43.3751
43.7675
44.203
44.668
45.1924
45.741
46.3719
47.0257
47.8065
48.6154
49.6424
50.6375
51.9478
53.2054
55.2576
57.3036
60.4978
63.1636
67.6127
70.4404
74.8827
74.6037
76.3012
75.8866
86.4718
92.0156
109.291
117.911
144.796
278.569
340.76
207.486
114.595
89.2476
76.1286
71.6017
66.7604
64.5687
60.2623
58.5742
55.8943
55.0727
53.6515
53.4243
52.5208
52.2976
51.6135
51.2644
50.6794
50.1332
49.2369
48.3065
47.33
46.5193
45.8099
45.1841
44.7223
44.398
44.2
44.0014
43.8647
43.6693
43.5639
43.335
43.24
42.9744
42.963
42.7284
42.8805
42.7839
43.1037
43.4425
43.7706
45.2311
45.463
44.1367
64.6605
70.9058
56.873
45.6903
41.1237
39.8722
39.6991
39.7996
39.9416
40.1058
40.2674
40.4391
40.6102
40.7912
40.9773
41.1761
41.3852
41.6093
41.8487
42.1075
42.3874
42.6925
43.0235
43.3864
43.7791
44.2149
44.6802
45.2052
45.754
46.3858
47.04
47.8223
48.6317
49.6603
50.6556
51.9696
53.2291
55.2839
57.3256
60.5184
63.1758
67.6159
70.424
74.853
74.5767
76.3033
75.8999
86.4341
91.9161
109.024
117.51
143.334
271.716
331.829
202.344
112.805
88.5663
75.775
71.3647
66.5503
64.4073
60.1544
58.4868
55.8242
55.0119
53.5983
53.3758
52.4716
52.2514
51.5752
51.2289
50.6454
50.1019
49.2119
48.2878
47.3164
46.5111
45.8127
45.1914
44.7298
44.4038
44.2039
44.0037
43.866
43.67
43.5645
43.3354
43.2401
42.9746
42.9621
42.728
42.8764
42.7806
43.0919
43.4305
43.7471
45.1921
45.422
44.0907
64.5238
70.7614
56.8062
45.6823
41.1373
39.889
39.7151
39.8142
39.955
40.1183
40.2791
40.4502
40.621
40.8016
40.9874
41.186
41.395
41.6192
41.8585
42.1174
42.3974
42.7025
43.0335
43.3966
43.7895
44.2255
44.6908
45.2162
45.765
46.3976
47.052
47.8355
48.645
49.675
50.6701
51.9874
53.2479
55.3049
57.3415
60.5323
63.1805
67.6115
70.3995
74.8161
74.5425
76.2989
75.9044
86.3888
91.8083
108.756
117.11
141.902
264.951
322.64
197.067
110.995
87.8829
75.4192
71.1263
66.337
64.2409
60.041
58.3945
55.7489
54.9467
53.5408
53.3237
52.4188
52.2017
51.5335
51.19
50.608
50.0672
49.1833
48.2656
47.2994
46.4995
45.8115
45.195
44.7342
44.4071
44.2055
44.0039
43.8653
43.6687
43.5631
43.3338
43.2382
42.9728
42.9592
42.7255
42.8702
42.775
43.0779
43.416
43.7213
45.1504
45.3783
44.0431
64.3864
70.6153
56.7382
45.6737
41.1508
39.9059
39.7312
39.8287
39.9684
40.1306
40.2907
40.4612
40.6315
40.8117
40.9973
41.1956
41.4044
41.6285
41.8678
42.1267
42.4065
42.7117
43.0427
43.4058
43.7987
44.2348
44.7
45.2256
45.7743
46.4075
47.0618
47.8463
48.6556
49.6866
50.6812
52.0013
53.2624
55.321
57.3517
60.5402
63.1782
67.6
70.3675
74.7728
74.502
76.289
75.9015
86.3376
91.6942
108.488
116.713
140.506
258.325
313.258
191.694
109.18
87.2022
75.064
70.8884
66.1225
64.0714
59.9236
58.2988
55.6695
54.8781
53.4801
53.2686
52.3631
52.1493
51.4888
51.1484
50.5675
50.0295
49.1515
48.2404
47.2795
46.4846
45.8064
45.1952
44.7358
44.4079
44.2049
44.002
43.8625
43.6656
43.5598
43.3303
43.2344
42.9691
42.9543
42.721
42.862
42.7672
43.0617
43.3988
43.6931
45.1059
45.3318
43.9938
64.2484
70.4676
56.669
45.6646
41.1641
39.9228
39.7473
39.8433
39.9818
40.1429
40.3022
40.472
40.6418
40.8216
41.0068
41.2048
41.4134
41.6373
41.8765
42.1353
42.4151
42.7201
43.051
43.414
43.8068
44.2429
44.7079
45.2335
45.782
46.4155
47.0695
47.8548
48.6637
49.6955
50.6891
52.0119
53.2729
55.3328
57.3568
60.5425
63.1696
67.5823
70.329
74.7241
74.4562
76.2744
75.8926
86.2819
91.5754
108.222
116.322
139.149
251.887
303.749
186.266
107.373
86.5286
74.7122
70.6531
65.9089
63.9004
59.8037
58.2007
55.5873
54.8071
53.4168
53.2114
52.3053
52.0948
51.4418
51.1045
50.5246
49.9893
49.1172
48.2125
47.257
46.467
45.7978
45.1922
44.7346
44.4063
44.2021
43.9982
43.8579
43.6606
43.5547
43.325
43.2288
42.9636
42.9476
42.7145
42.8518
42.7572
43.0433
43.3791
43.6625
45.0585
45.2825
43.9426
64.1097
70.3183
56.5985
45.655
41.1774
39.9397
39.7633
39.8578
39.9951
40.1551
40.3136
40.4826
40.6519
40.8312
41.016
41.2137
41.422
41.6457
41.8847
42.1433
42.4229
42.7278
43.0585
43.4214
43.8139
44.2499
44.7146
45.2401
45.7881
46.422
47.0755
47.8614
48.6696
49.702
50.6943
52.0194
53.2798
55.3406
57.3574
60.5401
63.1555
67.5591
70.285
74.6709
74.4061
76.2563
75.8789
86.223
91.4539
107.961
115.939
137.833
245.675
294.181
180.823
105.589
85.8663
74.366
70.422
65.6981
63.7297
59.6826
58.1014
55.5032
54.7345
53.352
53.1528
52.246
52.0389
51.3932
51.0589
50.4799
49.9472
49.0807
48.1825
47.2325
46.4471
45.7861
45.1863
44.7309
44.4025
44.1973
43.9925
43.8515
43.6539
43.5479
43.3179
43.2214
42.9563
42.939
42.7061
42.8396
42.7451
43.0229
43.3568
43.6296
45.0082
45.2304
43.8895
63.9704
70.1674
56.5269
45.6448
41.1905
39.9566
39.7794
39.8723
40.0083
40.1672
40.3248
40.4932
40.6618
40.8407
41.025
41.2223
41.4303
41.6538
41.8925
42.1509
42.4303
42.7349
43.0653
43.428
43.8202
44.256
44.7203
45.2456
45.7931
46.4271
47.08
47.8663
48.6736
49.7063
50.6972
52.0243
53.2838
55.345
57.3541
60.5335
63.1368
67.5314
70.2363
74.6139
74.3526
76.2356
75.8617
86.1624
91.3313
107.704
115.565
136.562
239.725
284.623
175.405
103.84
85.2188
74.0277
70.1968
65.4916
63.5606
59.5617
58.0022
55.4183
54.6614
53.2864
53.0935
52.1861
51.9822
51.3435
51.0122
50.4339
49.9038
49.0427
48.1508
47.2063
46.4253
45.7716
45.1777
44.7249
44.3968
44.1908
43.9852
43.8436
43.6457
43.5395
43.3094
43.2124
42.9473
42.9287
42.696
42.8256
42.7309
43.0004
43.332
43.5943
44.9552
45.1753
43.8344
63.8304
70.015
56.4542
45.6342
41.2035
39.9736
39.7956
39.8869
40.0216
40.1793
40.336
40.5036
40.6716
40.8499
41.0338
41.2307
41.4383
41.6614
41.9
42.1581
42.4371
42.7415
43.0715
43.434
43.8258
44.2613
44.725
45.2501
45.7969
46.4309
47.0831
47.8697
48.676
49.7089
50.698
52.027
53.2852
55.3466
57.3476
60.5234
63.1142
67.4998
70.1839
74.5542
74.2968
76.2133
75.8424
86.1012
91.2092
107.454
115.201
135.338
234.063
275.143
170.049
102.138
84.5895
73.6991
69.9788
65.291
63.3947
59.442
57.9039
55.3337
54.5886
53.2208
53.0342
52.1261
51.9253
51.2933
50.965
50.3871
49.8595
49.0036
48.118
47.1789
46.4021
45.7547
45.1668
44.7169
44.3894
44.1827
43.9765
43.8342
43.6361
43.5297
43.2994
43.2019
42.9369
42.9168
42.6842
42.8099
42.7148
42.976
43.3049
43.5568
44.8994
45.1175
43.7775
63.6897
69.8611
56.3805
45.6231
41.2164
39.9905
39.8117
39.9014
40.0348
40.1913
40.3471
40.5139
40.6812
40.859
41.0424
41.2388
41.446
41.6688
41.907
42.1648
42.4436
42.7476
43.0773
43.4394
43.8308
44.2659
44.7291
45.2538
45.7999
46.4339
47.0852
47.8719
48.6771
49.71
50.6973
52.028
53.2845
55.346
57.3385
60.5106
63.0886
67.4654
70.1288
74.4925
74.2396
76.1903
75.822
86.0407
91.0889
107.21
114.848
134.16
228.708
265.807
164.791
100.491
83.9809
73.3818
69.7691
65.0975
63.233
59.3247
57.8075
55.2502
54.5169
53.1559
52.9756
52.0668
51.8689
51.2431
50.9177
50.3401
49.8148
48.9639
48.0845
47.1508
46.3778
45.7359
45.1538
44.7071
44.3804
44.1733
43.9664
43.8237
43.6254
43.5187
43.2881
43.1901
42.9251
42.9035
42.6708
42.7927
42.697
42.9499
43.2756
43.5172
44.8412
45.0571
43.7187
63.5483
69.7058
56.3058
45.6116
41.2292
40.0075
39.8278
39.9159
40.048
40.2033
40.3581
40.5241
40.6908
40.868
41.0508
41.2468
41.4536
41.676
41.9139
42.1713
42.4497
42.7533
43.0826
43.4443
43.8353
44.27
44.7325
45.2569
45.8022
46.436
47.0864
47.8733
48.6771
49.71
50.6953
52.0276
53.2823
55.3436
57.3275
60.4958
63.0608
67.4289
70.0719
74.4298
74.1819
76.1674
75.8017
85.9818
90.9717
106.975
114.508
133.029
223.672
256.68
159.664
98.9083
83.3954
73.0771
69.5687
64.9122
63.0768
59.2107
57.7138
55.1688
54.4469
53.0925
52.9182
52.0086
51.8135
51.1935
50.8709
50.2932
49.7702
48.9241
48.0508
47.1223
46.3529
45.7155
45.1393
44.6959
44.3702
44.1628
43.9554
43.8121
43.6136
43.5067
43.2758
43.1772
42.9121
42.889
42.6562
42.774
42.6775
42.9222
43.2443
43.4758
44.7806
44.9942
43.6581
63.4062
69.5493
56.2302
45.5997
41.242
40.0244
39.844
39.9304
40.0612
40.2152
40.3691
40.5342
40.7002
40.8768
41.0591
41.2546
41.4609
41.683
41.9205
42.1776
42.4556
42.7588
43.0877
43.449
43.8394
44.2737
44.7355
45.2595
45.8039
46.4376
47.087
47.8739
48.6765
49.7092
50.6924
52.0262
53.279
55.34
57.3151
60.4795
63.0315
67.391
70.0141
74.3668
74.1245
76.1454
75.7824
85.9255
90.8587
106.748
114.182
131.945
218.959
247.822
154.7
97.396
82.8346
72.7859
69.3782
64.7359
62.9268
59.101
57.6237
55.09
54.3793
53.0311
52.8625
51.9522
51.7594
51.145
50.8249
50.2471
49.7261
48.8846
48.0172
47.0938
46.3278
45.6941
45.1234
44.6836
44.3591
44.1514
43.9435
43.7997
43.6011
43.4937
43.2626
43.1633
42.8981
42.8733
42.6403
42.7541
42.6567
42.893
43.2113
43.4326
44.718
44.929
43.5961
63.2635
69.3915
56.1538
45.5874
41.2546
40.0413
39.8601
39.9449
40.0743
40.2271
40.38
40.5442
40.7096
40.8855
41.0673
41.2622
41.4681
41.6898
41.9269
42.1837
42.4613
42.764
43.0925
43.4533
43.8433
44.2771
44.7382
45.2618
45.8054
46.4388
47.0872
47.8741
48.6754
49.7079
50.6891
52.0243
53.275
55.3356
57.302
60.4625
63.0015
67.3526
69.9561
74.3043
74.0682
76.125
75.765
85.8726
90.7507
106.53
113.868
130.906
214.568
239.287
149.923
95.9587
82.2996
72.509
69.1983
64.5693
62.7838
58.9961
57.5376
55.0145
54.3147
52.9722
52.8091
51.8979
51.7073
51.0978
50.7801
50.2019
49.683
48.8458
47.984
47.0657
46.3028
45.6719
45.1066
44.6704
44.3472
44.1393
43.9311
43.7868
43.5879
43.4801
43.2487
43.1487
42.8833
42.8568
42.6235
42.7331
42.6346
42.8627
43.1767
43.388
44.6535
44.8619
43.5327
63.1202
69.2325
56.0765
45.5747
41.2671
40.0583
39.8763
39.9594
40.0875
40.239
40.3909
40.5542
40.7189
40.8942
41.0754
41.2698
41.4753
41.6965
41.9333
42.1896
42.4668
42.7692
43.0972
43.4576
43.847
44.2803
44.7408
45.2639
45.8066
46.4399
47.0873
47.8742
48.674
49.7064
50.6855
52.0221
53.2708
55.331
57.2886
60.4452
62.9714
67.3142
69.8987
74.2429
74.0137
76.1067
75.7502
85.8236
90.6486
106.321
113.567
129.912
210.491
231.122
145.356
94.5994
81.7912
72.247
69.0292
64.4128
62.6485
58.8966
57.4561
54.9429
54.2536
52.9162
52.7582
51.8461
51.6574
51.0524
50.737
50.1582
49.6411
48.808
47.9518
47.0383
46.2782
45.6494
45.0891
44.6566
44.3348
44.1269
43.9182
43.7734
43.5743
43.4661
43.2343
43.1334
42.8678
42.8395
42.6059
42.7113
42.6115
42.8313
43.1407
43.3421
44.5875
44.793
43.4681
62.9762
69.0724
55.9985
45.5617
41.2795
40.0752
39.8925
39.974
40.1006
40.2509
40.4018
40.5642
40.7281
40.9028
41.0834
41.2774
41.4823
41.7031
41.9395
42.1955
42.4723
42.7742
43.1018
43.4618
43.8507
44.2835
44.7433
45.2659
45.8078
46.4409
47.0873
47.8742
48.6727
49.7049
50.682
52.0201
53.2668
55.3265
57.2755
60.4282
62.9417
67.2765
69.8425
74.1831
73.9615
76.0911
75.7388
85.7792
90.5529
106.122
113.28
128.961
206.717
223.366
141.018
93.3196
81.3098
71.9999
68.8711
64.2668
62.5212
58.8031
57.3796
54.8756
54.1962
52.8636
52.7102
51.7971
51.6099
51.0091
50.6957
50.1161
49.6007
48.7715
47.9206
47.0119
46.2544
45.6269
45.0714
44.6425
44.3222
44.1142
43.9051
43.7598
43.5604
43.4517
43.2195
43.1178
42.8519
42.8217
42.5876
42.6888
42.5876
42.7991
43.1037
43.2951
44.5203
44.7228
43.4026
62.8317
68.9113
55.9199
45.5485
41.2918
40.0921
39.9086
39.9885
40.1137
40.2627
40.4126
40.5741
40.7373
40.9114
41.0915
41.2848
41.4893
41.7098
41.9458
42.2014
42.4778
42.7793
43.1064
43.466
43.8543
44.2867
44.7458
45.2681
45.8091
46.442
47.0875
47.8744
48.6716
49.7037
50.6789
52.0184
53.2631
55.3225
57.2631
60.412
62.9131
67.24
69.7881
74.1255
73.9121
76.0785
75.7311
85.7396
90.464
105.931
113.007
128.051
203.229
216.05
136.92
92.1194
80.8551
71.7679
68.724
64.1314
62.4023
58.7158
57.3084
54.8129
54.1429
52.8146
52.6654
51.7511
51.5652
50.9681
50.6564
50.0759
49.5621
48.7366
47.8908
46.9866
46.2316
45.6047
45.0537
44.6284
44.3095
44.1015
43.892
43.7462
43.5465
43.4372
43.2045
43.1019
42.8356
42.8036
42.5689
42.6658
42.563
42.7662
43.0658
43.2474
44.4521
44.6513
43.3363
62.6867
68.7492
55.8406
45.5349
41.304
40.109
39.9248
40.003
40.1269
40.2746
40.4234
40.5841
40.7465
40.92
41.0995
41.2923
41.4964
41.7164
41.952
42.2072
42.4833
42.7844
43.1111
43.4702
43.8581
44.2901
44.7485
45.2704
45.8106
46.4434
47.0879
47.8749
48.6709
49.7029
50.6763
52.0173
53.2602
55.3193
57.2517
60.3969
62.8859
67.2052
69.7359
74.0705
73.8659
76.0693
75.7275
85.7053
90.3823
105.75
112.745
127.179
200.008
209.193
133.071
90.9976
80.4268
71.5508
68.5876
64.0064
62.2918
58.6348
57.2427
54.755
54.0939
52.7693
52.6238
51.7084
51.5235
50.9295
50.6194
50.0377
49.5254
48.7034
47.8626
46.9627
46.2099
45.5832
45.0363
44.6145
44.297
44.0889
43.879
43.7327
43.5326
43.4226
43.1894
43.0859
42.8192
42.7852
42.5499
42.6424
42.538
42.733
43.0273
43.1991
44.3832
44.5791
43.2697
62.5411
68.5862
55.7608
45.5211
41.3161
40.1259
39.941
40.0175
40.14
40.2864
40.4343
40.594
40.7557
40.9285
41.1075
41.2998
41.5034
41.723
41.9583
42.2132
42.4888
42.7896
43.1159
43.4746
43.862
44.2936
44.7514
45.2729
45.8124
46.4451
47.0888
47.8759
48.6708
49.7028
50.6745
52.0171
53.2582
55.3172
57.2416
60.3833
62.8606
67.1724
69.6864
74.0185
73.8232
76.0637
75.7284
85.6762
90.3077
105.577
112.496
126.342
197.035
202.805
129.474
89.952
80.0242
71.3481
68.4618
63.8918
62.1898
58.5604
57.1825
54.702
54.0492
52.728
52.5856
51.6689
51.4847
50.8936
50.5848
50.0018
49.4908
48.6722
47.836
46.9404
46.1896
45.5625
45.0194
44.6009
44.2849
44.0768
43.8664
43.7194
43.519
43.4083
43.1745
43.0699
42.8028
42.7667
42.5308
42.6189
42.5128
42.6994
42.9883
43.1504
44.3139
44.5063
43.2028
62.3951
68.4224
55.6804
45.5071
41.3282
40.1428
39.9572
40.0321
40.1531
40.2983
40.4451
40.6039
40.7649
40.9371
41.1155
41.3074
41.5105
41.7297
41.9646
42.2192
42.4945
42.7949
43.1208
43.4792
43.8662
44.2974
44.7546
45.2758
45.8146
46.4473
47.0902
47.8775
48.6713
49.7034
50.6735
52.0178
53.2574
55.3164
57.2331
60.3715
62.8374
67.1419
69.6399
73.9695
73.7842
76.0619
75.734
85.6526
90.2405
105.413
112.259
125.54
194.287
196.887
126.126
88.9797
79.6463
71.1595
68.3462
63.7873
62.0962
58.4925
57.1279
54.654
54.009
52.6906
52.5509
51.6329
51.4491
50.8603
50.5526
49.9682
49.4584
48.643
47.8113
46.9196
46.1707
45.5428
45.0032
44.588
44.2733
44.0651
43.8541
43.7066
43.5057
43.3942
43.1598
43.0542
42.7865
42.7483
42.5117
42.5953
42.4874
42.6658
42.9491
43.1016
44.2445
44.4331
43.1359
62.2486
68.2579
55.5996
45.4929
41.3401
40.1596
39.9734
40.0466
40.1663
40.3101
40.4559
40.6139
40.7742
40.9457
41.1236
41.3149
41.5176
41.7365
41.971
42.2253
42.5003
42.8004
43.1259
43.484
43.8705
44.3014
44.7581
45.2791
45.8173
46.4499
47.0922
47.8797
48.6726
49.7048
50.6736
52.0197
53.2579
55.317
57.2264
60.3616
62.8165
67.114
69.5965
73.924
73.7492
76.0639
75.7442
85.6344
90.1803
105.257
112.032
124.768
191.742
191.43
123.024
88.0768
79.292
70.9843
68.2403
63.6926
62.0108
58.431
57.0787
54.6111
53.9732
52.6572
52.5196
51.6002
51.4165
50.8297
50.5229
49.937
49.4283
48.6158
47.7884
46.9005
46.1534
45.5244
44.988
44.5757
44.2623
44.0539
43.8425
43.6943
43.4928
43.3805
43.1454
43.0387
42.7705
42.7301
42.4927
42.5719
42.462
42.6323
42.9098
43.0528
44.1751
44.36
43.0692
62.1016
68.0926
55.5184
45.4784
41.352
40.1765
39.9895
40.0611
40.1794
40.322
40.4668
40.6238
40.7834
40.9543
41.1317
41.3225
41.5248
41.7433
41.9776
42.2315
42.5062
42.806
43.1313
43.489
43.8752
44.3058
44.762
45.2827
45.8204
46.4532
47.0948
47.8826
48.6747
49.7072
50.6748
52.0227
53.2598
55.3191
57.2216
60.3538
62.7982
67.0888
69.5565
73.8819
73.718
76.0698
75.7592
85.6214
90.1272
105.108
111.815
124.024
189.378
186.419
120.157
87.2393
78.9599
70.8218
68.1435
63.607
61.9334
58.3757
57.035
54.573
53.9418
52.6277
52.4917
51.5709
51.387
50.8017
50.4956
49.9081
49.4003
48.5908
47.7674
46.8832
46.1376
45.5073
44.9738
44.5644
44.2521
44.0435
43.8314
43.6825
43.4805
43.3673
43.1315
43.0236
42.7548
42.7122
42.4739
42.5486
42.4368
42.5989
42.8707
43.0043
44.1061
44.2871
43.0029
61.9543
67.9267
55.4368
45.4638
41.3638
40.1933
40.0057
40.0757
40.1926
40.3338
40.4776
40.6338
40.7927
40.963
41.1398
41.3302
41.5321
41.7502
41.9842
42.2379
42.5123
42.8118
43.1368
43.4943
43.8802
44.3105
44.7663
45.2869
45.824
46.457
47.0981
47.8863
48.6777
49.7106
50.6771
52.0271
53.2632
55.323
57.2188
60.3481
62.7824
67.0664
69.5198
73.8433
73.6909
76.0794
75.7787
85.6136
90.0808
104.967
111.608
123.307
187.174
181.83
117.515
86.4626
78.6487
70.6713
68.0553
63.5303
61.8637
58.3265
56.9964
54.5396
53.9145
52.602
52.4671
51.5447
51.3605
50.7764
50.4708
49.8815
49.3746
48.5678
47.7483
46.8675
46.1235
45.4917
44.9607
44.5539
44.2427
44.0339
43.8211
43.6715
43.4688
43.3546
43.1181
43.0089
42.7395
42.6947
42.4555
42.5257
42.4119
42.5659
42.8319
42.9561
44.0375
44.2146
42.9372
61.8065
67.7602
55.3548
45.4491
41.3756
40.2101
40.0219
40.0902
40.2057
40.3457
40.4885
40.6438
40.802
40.9717
41.148
41.338
41.5394
41.7573
41.991
42.2444
42.5186
42.8179
43.1426
43.4999
43.8855
44.3156
44.771
45.2915
45.8282
46.4614
47.102
47.8908
48.6817
49.715
50.6806
52.0327
53.2681
55.3285
57.218
60.3447
62.7694
67.0469
69.4866
73.8082
73.6676
76.0928
75.8027
85.6106
90.0408
104.831
111.41
122.614
185.109
177.635
115.083
85.742
78.3569
70.5319
67.975
63.4617
61.8012
58.283
56.9628
54.5108
53.8914
52.5799
52.4456
51.5217
51.3369
50.7536
50.4482
49.8572
49.3511
48.5469
47.7311
46.8536
46.111
45.4777
44.9489
44.5445
44.2343
44.0251
43.8116
43.6611
43.4577
43.3425
43.1052
42.9948
42.7247
42.6776
42.4375
42.5032
42.3874
42.5333
42.7934
42.9085
43.9697
44.1428
42.8723
61.6584
67.593
55.2726
45.4342
41.3872
40.2268
40.0381
40.1048
40.2189
40.3576
40.4994
40.6538
40.8113
40.9804
41.1563
41.3458
41.5469
41.7644
41.9978
42.2511
42.525
42.8241
43.1486
43.5057
43.8911
44.321
44.7761
45.2966
45.833
46.4664
47.1067
47.8961
48.6865
49.7204
50.6853
52.0397
53.2745
55.3357
57.2192
60.3435
62.7589
67.0302
69.4568
73.7765
73.6481
76.1097
75.8311
85.6122
90.0068
104.702
111.22
121.942
183.165
173.805
112.846
85.0728
78.083
70.4029
67.9021
63.4008
61.7456
58.245
56.9338
54.4864
53.872
52.5613
52.4272
51.5017
51.316
50.7332
50.428
49.835
49.3297
48.528
47.7156
46.8413
46.1001
45.4651
44.9383
44.5362
44.2267
44.0171
43.8028
43.6515
43.4474
43.3311
43.0929
42.9812
42.7104
42.661
42.4199
42.4811
42.3632
42.5012
42.7554
42.8614
43.9026
44.0717
42.8082
61.5099
67.4254
55.19
45.4192
41.3988
40.2436
40.0543
40.1194
40.2321
40.3695
40.5103
40.6638
40.8206
40.9892
41.1646
41.3537
41.5544
41.7717
42.0049
42.2579
42.5317
42.8306
43.1549
43.5119
43.897
44.3268
44.7816
45.3022
45.8383
46.4721
47.1121
47.9021
48.6922
49.7268
50.6912
52.0479
53.2824
55.3445
57.2225
60.3446
62.7511
67.0162
69.4302
73.7482
73.6323
76.13
75.8634
85.6182
89.9785
104.579
111.036
121.29
181.324
170.306
110.789
84.4504
77.8255
70.2834
67.836
63.3469
61.6963
58.2121
56.9093
54.466
53.8564
52.546
52.4116
51.4845
51.2978
50.7152
50.4098
49.815
49.3103
48.5109
47.7019
46.8307
46.0908
45.4541
44.9291
44.529
44.2201
44.0101
43.7949
43.6427
43.4377
43.3203
43.0813
42.9683
42.6967
42.645
42.4029
42.4595
42.3396
42.4697
42.718
42.8151
43.8365
44.0016
42.7452
61.361
67.2573
55.1073
45.4041
41.4104
40.2603
40.0705
40.134
40.2453
40.3814
40.5212
40.6739
40.83
40.9981
41.173
41.3617
41.5621
41.779
42.012
42.2648
42.5385
42.8372
43.1614
43.5183
43.9032
44.333
44.7876
45.3082
45.8441
46.4783
47.1182
47.9089
48.6988
49.7341
50.6982
52.0574
53.2918
55.355
57.2277
60.3477
62.7459
67.005
69.4069
73.7231
73.62
76.1535
75.8996
85.6281
89.9554
104.46
110.86
120.655
179.57
167.105
108.895
83.8702
77.583
70.1726
67.7758
63.2995
61.6531
58.1839
56.8889
54.4495
53.8441
52.5338
52.3986
51.4699
51.282
50.6993
50.3937
49.7969
49.2927
48.4957
47.6899
46.8215
46.0829
45.4447
44.9212
44.5228
44.2145
44.0039
43.7878
43.6347
43.4288
43.3102
43.0703
42.9559
42.6836
42.6295
42.3864
42.4385
42.3166
42.4388
42.6813
42.7695
43.7715
43.9325
42.6833
61.2119
67.0886
55.0243
45.3888
41.4218
40.277
40.0867
40.1485
40.2585
40.3934
40.5322
40.684
40.8395
41.0069
41.1814
41.3697
41.5698
41.7865
42.0193
42.2719
42.5454
42.8441
43.1682
43.5249
43.9098
44.3395
44.7939
45.3147
45.8504
46.4851
47.125
47.9165
48.7063
49.7425
50.7063
52.0681
53.3025
55.367
57.2348
60.3529
62.743
66.9963
69.3866
73.7011
73.611
76.18
75.9393
85.6417
89.9371
104.346
110.689
120.037
177.89
164.168
107.149
83.3278
77.354
70.0697
67.7212
63.2579
61.6153
58.1601
56.8723
54.4364
53.8349
52.5245
52.3881
51.4577
51.2685
50.6855
50.3795
49.7806
49.277
48.4822
47.6794
46.8138
46.0764
45.4367
44.9145
44.5178
44.2098
43.9986
43.7815
43.6274
43.4206
43.3008
43.0599
42.9442
42.6711
42.6146
42.3705
42.418
42.2941
42.4085
42.6452
42.7248
43.7075
43.8645
42.6226
61.0624
66.9196
54.9411
45.3735
41.4333
40.2937
40.1028
40.1631
40.2717
40.4053
40.5432
40.6941
40.849
41.0159
41.1899
41.3778