/*--------------------------------*- C++ -*----------------------------------*\
| =========                 |                                                 |
| \\      /  F ield         | OpenFOAM: The Open Source CFD Toolbox           |
|  \\    /   O peration     | Version:  2412                                  |
|   \\  /    A nd           | Website:  www.openfoam.com                      |
|    \\/     M anipulation  |                                                 |
\*---------------------------------------------------------------------------*/
FoamFile
{
    version     2.0;
    format      ascii;
    arch        "LSB;label=32;scalar=64";
    class       volScalarField;
    location    "0.1";
    object      nut;
}
// * * * * * * * * * * * * * * * * * * * * * * * * * * * * * * * * * * * * * //

dimensions      [0 2 -1 0 0 0 0];

internalField   nonuniform List<scalar> 
13079
(
0.349064
0.337488
0.291733
0.282722
0.306682
0.327292
0.335621
0.338117
0.338786
0.339089
0.33927
0.339468
0.339647
0.33985
0.340053
0.340279
0.340512
0.340766
0.341038
0.341336
0.341658
0.34201
0.342389
0.342801
0.343245
0.343732
0.344249
0.344826
0.345417
0.346095
0.346781
0.347623
0.348474
0.349608
0.350602
0.351961
0.353138
0.35539
0.357295
0.360596
0.36277
0.367217
0.369011
0.372704
0.370071
0.371223
0.369842
0.381274
0.384049
0.398877
0.40257
0.420639
0.432277
0.415762
0.341459
0.291278
0.342992
0.356333
0.361857
0.358766
0.358192
0.353823
0.354316
0.351722
0.352252
0.35096
0.351506
0.350568
0.350707
0.349842
0.349714
0.349069
0.348468
0.347158
0.346099
0.345034
0.344258
0.349171
0.337642
0.292026
0.283031
0.30685
0.327346
0.335643
0.338132
0.338801
0.339104
0.339286
0.339484
0.339663
0.339867
0.340071
0.340297
0.340531
0.340787
0.34106
0.341359
0.341683
0.342036
0.342416
0.34283
0.343276
0.343766
0.344285
0.344864
0.345458
0.34614
0.346829
0.347676
0.348532
0.34967
0.350669
0.352036
0.353224
0.35548
0.35739
0.360687
0.362862
0.367289
0.369071
0.372739
0.370138
0.37133
0.370016
0.381367
0.384137
0.398782
0.402452
0.419756
0.42971
0.413833
0.339594
0.289892
0.342577
0.356314
0.361838
0.358784
0.358215
0.353876
0.354355
0.351775
0.352288
0.350997
0.351536
0.350598
0.350729
0.349875
0.349744
0.3491
0.348498
0.347198
0.346141
0.345076
0.344307
0.349276
0.337794
0.292316
0.283336
0.307014
0.3274
0.335664
0.338148
0.338816
0.339119
0.339301
0.339499
0.339679
0.339883
0.340088
0.340315
0.34055
0.340807
0.341081
0.341381
0.341706
0.342061
0.342443
0.342859
0.343307
0.343798
0.34432
0.344901
0.345498
0.346183
0.346877
0.347727
0.348588
0.34973
0.350735
0.352108
0.353307
0.355567
0.35748
0.360773
0.36295
0.367356
0.369125
0.372768
0.370198
0.371429
0.37018
0.38145
0.384212
0.398675
0.402314
0.418869
0.427036
0.41154
0.337478
0.288576
0.342218
0.356294
0.361809
0.358786
0.358229
0.353922
0.354387
0.351822
0.352318
0.351028
0.35156
0.350621
0.350746
0.349904
0.349769
0.349126
0.348524
0.347235
0.34618
0.345115
0.344354
0.34938
0.337942
0.292603
0.28364
0.307178
0.327453
0.335685
0.338163
0.338831
0.339133
0.339316
0.339515
0.339695
0.3399
0.340105
0.340333
0.340569
0.340826
0.341102
0.341403
0.341729
0.342085
0.342469
0.342886
0.343336
0.34383
0.344353
0.344937
0.345537
0.346225
0.346922
0.347777
0.348641
0.349787
0.350797
0.352178
0.353386
0.355649
0.357566
0.360854
0.363032
0.367417
0.369172
0.37279
0.37025
0.371518
0.370331
0.381522
0.384273
0.398555
0.402158
0.417983
0.424273
0.408884
0.335113
0.287339
0.341924
0.356276
0.361772
0.358772
0.358234
0.353961
0.354411
0.351861
0.352341
0.351054
0.351578
0.350638
0.350758
0.349929
0.34979
0.349148
0.348546
0.347268
0.346215
0.34515
0.344397
0.349483
0.338086
0.292888
0.283945
0.307344
0.327507
0.335706
0.338178
0.338846
0.339148
0.339331
0.33953
0.33971
0.339915
0.340121
0.34035
0.340587
0.340845
0.341121
0.341424
0.341751
0.342108
0.342493
0.342912
0.343363
0.343859
0.344384
0.344971
0.345573
0.346264
0.346964
0.347823
0.348692
0.349841
0.350855
0.352243
0.353461
0.355726
0.357646
0.360929
0.363107
0.36747
0.369211
0.372804
0.370292
0.371598
0.37047
0.381582
0.384318
0.398423
0.401984
0.417104
0.421445
0.405875
0.33251
0.286193
0.341702
0.356261
0.361729
0.358744
0.358231
0.353993
0.354427
0.351891
0.352357
0.351073
0.351591
0.350648
0.350765
0.349949
0.349806
0.349166
0.348564
0.347296
0.346246
0.345182
0.344437
0.343671
0.343165
0.342928
0.342792
0.342749
0.342575
0.342503
0.342263
0.342226
0.341871
0.341886
0.341431
0.341712
0.341214
0.341938
0.34152
0.342646
0.343
0.343719
0.346959
0.345669
0.342393
0.349585
0.338225
0.293169
0.284251
0.307512
0.327563
0.335728
0.338193
0.33886
0.339162
0.339345
0.339544
0.339725
0.33993
0.340137
0.340366
0.340604
0.340863
0.34114
0.341443
0.341772
0.34213
0.342516
0.342937
0.343389
0.343887
0.344414
0.345002
0.345606
0.346301
0.347004
0.347866
0.348739
0.349891
0.350909
0.352304
0.35353
0.355798
0.357719
0.360997
0.363174
0.367516
0.369241
0.37281
0.370325
0.371667
0.370594
0.381629
0.384348
0.39828
0.401796
0.416238
0.418585
0.40253
0.329683
0.28515
0.341559
0.356252
0.361681
0.358702
0.358219
0.354019
0.354436
0.351914
0.352367
0.351085
0.351597
0.350651
0.350766
0.349963
0.349817
0.349177
0.348576
0.34732
0.346272
0.34521
0.344472
0.343724
0.343204
0.342957
0.342814
0.342768
0.342592
0.342518
0.342277
0.342241
0.341884
0.341899
0.341444
0.341723
0.341226
0.341941
0.34153
0.342632
0.343002
0.343685
0.346911
0.345637
0.342328
0.349687
0.338361
0.293448
0.284558
0.307682
0.327619
0.33575
0.338208
0.338874
0.339176
0.339359
0.339558
0.339739
0.339945
0.340152
0.340381
0.34062
0.34088
0.341158
0.341462
0.341791
0.34215
0.342538
0.34296
0.343414
0.343913
0.344441
0.345032
0.345637
0.346334
0.34704
0.347906
0.348781
0.349938
0.350959
0.352359
0.353593
0.355864
0.357785
0.361058
0.363232
0.367553
0.369263
0.372808
0.370348
0.371727
0.370704
0.381665
0.384362
0.398127
0.401594
0.415393
0.41573
0.398875
0.326654
0.284227
0.341502
0.356254
0.36163
0.358648
0.3582
0.354038
0.354438
0.351929
0.352369
0.351091
0.351597
0.350647
0.350763
0.349972
0.349821
0.349184
0.348583
0.347339
0.346293
0.345233
0.344504
0.343774
0.343241
0.342985
0.342835
0.342785
0.342606
0.342532
0.34229
0.342255
0.341897
0.341912
0.341456
0.341733
0.341237
0.341943
0.341538
0.342618
0.343002
0.343652
0.346862
0.345603
0.342262
0.34979
0.338492
0.293724
0.284867
0.307856
0.327678
0.335773
0.338223
0.338888
0.339189
0.339372
0.339572
0.339753
0.339959
0.340166
0.340396
0.340635
0.340896
0.341174
0.341479
0.341809
0.342169
0.342557
0.342981
0.343436
0.343936
0.344466
0.345058
0.345665
0.346365
0.347073
0.347942
0.34882
0.349979
0.351003
0.35241
0.35365
0.355923
0.357843
0.361111
0.363282
0.367583
0.369275
0.372798
0.370362
0.371778
0.3708
0.38169
0.384363
0.397967
0.401383
0.414572
0.41292
0.394943
0.32345
0.283441
0.341535
0.356268
0.361579
0.358586
0.358175
0.35405
0.354433
0.351936
0.352365
0.351091
0.351591
0.350636
0.350753
0.349976
0.349821
0.349185
0.348585
0.347352
0.34631
0.345251
0.34453
0.343821
0.343276
0.34301
0.342854
0.3428
0.34262
0.342544
0.342301
0.342267
0.341907
0.341923
0.341466
0.341741
0.341247
0.341943
0.341546
0.342602
0.343
0.343616
0.34681
0.345567
0.342196
0.349892
0.33862
0.293999
0.285178
0.308032
0.327738
0.335795
0.338237
0.338902
0.339202
0.339385
0.339585
0.339766
0.339972
0.340179
0.34041
0.340649
0.34091
0.34119
0.341495
0.341826
0.342187
0.342576
0.343
0.343456
0.343958
0.344488
0.345082
0.345691
0.346393
0.347102
0.347975
0.348855
0.350017
0.351043
0.352455
0.353701
0.355975
0.357894
0.361157
0.363323
0.367604
0.369278
0.37278
0.370366
0.371819
0.370882
0.381704
0.38435
0.3978
0.401164
0.413783
0.410201
0.390774
0.320104
0.282813
0.341666
0.356298
0.36153
0.358517
0.358145
0.354058
0.354422
0.351937
0.352356
0.351085
0.35158
0.350619
0.350739
0.349975
0.349815
0.34918
0.348582
0.34736
0.346321
0.345265
0.344552
0.343864
0.343309
0.343033
0.342871
0.342813
0.342631
0.342555
0.342311
0.342277
0.341917
0.341932
0.341475
0.341748
0.341255
0.341943
0.341551
0.342584
0.342996
0.34358
0.346756
0.345528
0.342129
0.349995
0.338745
0.294272
0.285491
0.308212
0.327799
0.335819
0.338252
0.338915
0.339215
0.339398
0.339597
0.339778
0.339985
0.340192
0.340423
0.340662
0.340924
0.341204
0.34151
0.341841
0.342203
0.342592
0.343017
0.343474
0.343977
0.344509
0.345104
0.345713
0.346417
0.347128
0.348004
0.348886
0.35005
0.351077
0.352495
0.353745
0.356021
0.357937
0.361194
0.363355
0.367616
0.369273
0.372755
0.370362
0.371852
0.370951
0.381708
0.384325
0.397629
0.40094
0.41303
0.407621
0.386414
0.316655
0.282365
0.341896
0.356346
0.361485
0.358443
0.358111
0.354061
0.354406
0.351931
0.352341
0.351073
0.351564
0.350597
0.35072
0.349968
0.349804
0.349171
0.348574
0.347363
0.346327
0.345275
0.344569
0.343902
0.343338
0.343053
0.342885
0.342824
0.34264
0.342563
0.342319
0.342285
0.341924
0.34194
0.341483
0.341753
0.341261
0.34194
0.341555
0.342565
0.342989
0.343541
0.346699
0.345485
0.34206
0.350099
0.338868
0.294545
0.285807
0.308395
0.327862
0.335842
0.338266
0.338928
0.339227
0.33941
0.339609
0.339791
0.339997
0.340204
0.340435
0.340675
0.340937
0.341217
0.341524
0.341855
0.342217
0.342607
0.343033
0.343491
0.343994
0.344526
0.345122
0.345732
0.346439
0.347151
0.348029
0.348912
0.350078
0.351107
0.352529
0.353783
0.35606
0.357973
0.361225
0.363378
0.367621
0.369258
0.372724
0.37035
0.371877
0.371008
0.381703
0.384289
0.397456
0.400713
0.412316
0.405227
0.381914
0.313146
0.28212
0.342231
0.356415
0.361445
0.358368
0.358074
0.354061
0.354386
0.351919
0.352322
0.351058
0.351543
0.35057
0.350696
0.349957
0.349788
0.349156
0.34856
0.34736
0.346329
0.34528
0.344581
0.343935
0.343364
0.343071
0.342897
0.342833
0.342647
0.342569
0.342324
0.342292
0.34193
0.341945
0.341488
0.341756
0.341265
0.341935
0.341555
0.342543
0.342979
0.3435
0.346637
0.345439
0.34199
0.350203
0.338988
0.294817
0.286126
0.30858
0.327927
0.335866
0.338281
0.338941
0.33924
0.339422
0.339621
0.339802
0.340008
0.340215
0.340446
0.340687
0.340949
0.341229
0.341536
0.341868
0.34223
0.342621
0.343047
0.343505
0.344009
0.344542
0.345139
0.345749
0.346457
0.34717
0.34805
0.348934
0.350102
0.351131
0.352558
0.353815
0.356092
0.358001
0.361248
0.363392
0.367619
0.369236
0.372687
0.370331
0.371895
0.371053
0.381691
0.384244
0.397282
0.400487
0.411646
0.403066
0.377332
0.309623
0.2821
0.342671
0.356507
0.361414
0.358293
0.358037
0.354058
0.354363
0.351904
0.3523
0.351038
0.351519
0.350538
0.350669
0.349942
0.349768
0.349136
0.348542
0.347353
0.346326
0.345281
0.344588
0.343964
0.343387
0.343086
0.342907
0.342839
0.342652
0.342573
0.342328
0.342296
0.341933
0.341948
0.341491
0.341756
0.341267
0.341929
0.341554
0.34252
0.342966
0.343456
0.346572
0.345389
0.341918
0.350309
0.339107
0.295089
0.286449
0.30877
0.327994
0.33589
0.338295
0.338953
0.339251
0.339434
0.339632
0.339813
0.340019
0.340226
0.340457
0.340697
0.34096
0.341241
0.341547
0.341879
0.342242
0.342633
0.343059
0.343517
0.344022
0.344555
0.345152
0.345763
0.346472
0.347186
0.348068
0.348952
0.350122
0.351151
0.352582
0.353841
0.356119
0.358021
0.361264
0.363399
0.367609
0.369206
0.372645
0.370305
0.371908
0.371087
0.381672
0.384191
0.397109
0.400262
0.411019
0.401185
0.372729
0.306136
0.28233
0.343216
0.356622
0.361391
0.35822
0.358
0.354053
0.354338
0.351884
0.352274
0.351014
0.351491
0.350502
0.350638
0.349922
0.349743
0.349113
0.34852
0.347342
0.346318
0.345277
0.34459
0.343987
0.343406
0.343098
0.342914
0.342843
0.342654
0.342575
0.34233
0.342298
0.341934
0.341949
0.341492
0.341755
0.341267
0.34192
0.34155
0.342493
0.342949
0.34341
0.346503
0.345335
0.341845
0.350416
0.339225
0.295362
0.286774
0.308962
0.328061
0.335915
0.33831
0.338966
0.339263
0.339445
0.339643
0.339824
0.34003
0.340236
0.340467
0.340708
0.34097
0.341251
0.341558
0.34189
0.342252
0.342643
0.34307
0.343528
0.344033
0.344566
0.345164
0.345775
0.346485
0.347199
0.348083
0.348967
0.350138
0.351166
0.352602
0.353861
0.35614
0.358035
0.361273
0.363398
0.367593
0.36917
0.372598
0.370274
0.371915
0.371112
0.381648
0.384131
0.396937
0.40004
0.410438
0.399623
0.36817
0.30274
0.28283
0.343864
0.356762
0.361378
0.358151
0.357964
0.354048
0.354311
0.351862
0.352246
0.350988
0.351461
0.350463
0.350605
0.349899
0.349715
0.349085
0.348494
0.347326
0.346307
0.34527
0.344589
0.344004
0.343421
0.343108
0.342919
0.342845
0.342654
0.342574
0.342329
0.342298
0.341933
0.341948
0.34149
0.341751
0.341264
0.341908
0.341542
0.342465
0.342929
0.343361
0.34643
0.345277
0.341769
0.350524
0.339342
0.295636
0.287103
0.309158
0.328131
0.335941
0.338324
0.338978
0.339274
0.339456
0.339653
0.339834
0.340039
0.340246
0.340477
0.340717
0.34098
0.34126
0.341567
0.341899
0.342261
0.342652
0.343079
0.343537
0.344042
0.344575
0.345173
0.345784
0.346495
0.347209
0.348094
0.348978
0.35015
0.351177
0.352617
0.353876
0.356155
0.358043
0.361277
0.36339
0.367572
0.369128
0.372547
0.370238
0.371919
0.371129
0.381619
0.384067
0.396769
0.399825
0.409902
0.398416
0.363723
0.299489
0.283621
0.344611
0.356926
0.361377
0.358088
0.357931
0.354042
0.354284
0.351838
0.352217
0.35096
0.351429
0.350421
0.350568
0.349873
0.349684
0.349054
0.348464
0.347307
0.346292
0.34526
0.344583
0.344016
0.343433
0.343114
0.342921
0.342845
0.342652
0.342571
0.342326
0.342295
0.34193
0.341945
0.341487
0.341745
0.341259
0.341894
0.341533
0.342433
0.342905
0.343309
0.346352
0.345214
0.341692
0.350633
0.339458
0.295911
0.287436
0.309357
0.328202
0.335966
0.338338
0.33899
0.339285
0.339466
0.339663
0.339844
0.340049
0.340255
0.340486
0.340726
0.340988
0.341269
0.341575
0.341907
0.342269
0.34266
0.343087
0.343545
0.34405
0.344582
0.345181
0.345791
0.346503
0.347216
0.348103
0.348986
0.350159
0.351184
0.352627
0.353887
0.356165
0.358045
0.361275
0.363377
0.367546
0.369081
0.372494
0.370198
0.371919
0.371139
0.381587
0.383999
0.396606
0.399615
0.409409
0.397589
0.359456
0.296441
0.284718
0.345451
0.357113
0.361387
0.358032
0.357901
0.354038
0.354257
0.351812
0.352187
0.350931
0.351395
0.350378
0.350531
0.349844
0.349651
0.34902
0.348432
0.347284
0.346273
0.345246
0.344574
0.344023
0.343441
0.343118
0.342921
0.342842
0.342648
0.342566
0.342322
0.342291
0.341924
0.341939
0.341481
0.341737
0.341252
0.341878
0.34152
0.3424
0.342878
0.343255
0.346271
0.345148
0.341614
0.350745
0.339575
0.296188
0.287772
0.30956
0.328275
0.335992
0.338353
0.339002
0.339296
0.339477
0.339673
0.339853
0.340058
0.340264
0.340494
0.340734
0.340996
0.341276
0.341583
0.341914
0.342276
0.342667
0.343093
0.343551
0.344056
0.344588
0.345186
0.345796
0.346508
0.347221
0.348109
0.348991
0.350164
0.351188
0.352635
0.353893
0.356171
0.358042
0.361269
0.363358
0.367515
0.36903
0.372438
0.370156
0.371917
0.371144
0.381553
0.383929
0.396447
0.399413
0.408959
0.397161
0.355441
0.293651
0.286133
0.346378
0.357324
0.361408
0.357983
0.357875
0.354035
0.354232
0.351787
0.352157
0.350901
0.35136
0.350334
0.350491
0.349814
0.349615
0.348984
0.348397
0.347259
0.346253
0.345231
0.344561
0.344026
0.343446
0.343119
0.342919
0.342837
0.342642
0.342559
0.342315
0.342284
0.341917
0.341931
0.341473
0.341726
0.341242
0.34186
0.341505
0.342363
0.342847
0.343198
0.346185
0.345078
0.341534
0.350857
0.339691
0.296467
0.288112
0.309766
0.328349
0.336019
0.338367
0.339014
0.339307
0.339487
0.339683
0.339862
0.340067
0.340272
0.340502
0.340741
0.341004
0.341284
0.34159
0.341921
0.342283
0.342673
0.343099
0.343557
0.344061
0.344592
0.34519
0.3458
0.346512
0.347224
0.348113
0.348993
0.350167
0.351189
0.352639
0.353895
0.356174
0.358035
0.361259
0.363334
0.367481
0.368975
0.372381
0.370112
0.371913
0.371144
0.381518
0.383857
0.396294
0.39922
0.408546
0.397138
0.351748
0.291176
0.287873
0.34738
0.357554
0.36144
0.357943
0.357853
0.354034
0.354207
0.351761
0.352128
0.35087
0.351325
0.350289
0.350452
0.349782
0.349578
0.348945
0.34836
0.347231
0.346229
0.345212
0.344546
0.344023
0.343448
0.343118
0.342915
0.34283
0.342634
0.342551
0.342306
0.342276
0.341908
0.341922
0.341463
0.341714
0.34123
0.341839
0.341487
0.342325
0.342812
0.343138
0.346096
0.345004
0.341453
0.350972
0.339808
0.296748
0.288457
0.309975
0.328424
0.336046
0.338382
0.339026
0.339317
0.339497
0.339692
0.339871
0.340075
0.34028
0.34051
0.340749
0.341011
0.34129
0.341596
0.341927
0.342288
0.342678
0.343104
0.343561
0.344065
0.344595
0.345193
0.345801
0.346514
0.347225
0.348115
0.348994
0.350168
0.351187
0.352641
0.353895
0.356173
0.358025
0.361246
0.363307
0.367445
0.368919
0.372324
0.370067
0.371909
0.371141
0.381482
0.383786
0.396148
0.399035
0.408169
0.397514
0.348446
0.289069
0.289936
0.348448
0.357803
0.361483
0.357912
0.357836
0.354036
0.354185
0.351737
0.352099
0.35084
0.351291
0.350244
0.350411
0.349749
0.34954
0.348906
0.348322
0.347202
0.346205
0.345193
0.344528
0.344016
0.343446
0.343115
0.342909
0.342822
0.342624
0.34254
0.342296
0.342265
0.341897
0.34191
0.341452
0.341699
0.341216
0.341816
0.341467
0.342285
0.342775
0.343077
0.346003
0.344927
0.341372
0.351088
0.339926
0.297032
0.288805
0.310187
0.328501
0.336073
0.338396
0.339038
0.339328
0.339506
0.339701
0.33988
0.340083
0.340288
0.340517
0.340755
0.341017
0.341296
0.341602
0.341932
0.342293
0.342682
0.343108
0.343564
0.344068
0.344597
0.345194
0.345802
0.346515
0.347225
0.348115
0.348992
0.350167
0.351183
0.35264
0.353892
0.35617
0.358012
0.36123
0.363278
0.367407
0.368861
0.372267
0.370022
0.371906
0.371136
0.381447
0.383716
0.396008
0.398859
0.407823
0.398272
0.345599
0.287382
0.292317
0.349569
0.358067
0.361535
0.357889
0.357823
0.35404
0.354165
0.351713
0.352072
0.350811
0.351256
0.350199
0.350371
0.349715
0.349501
0.348865
0.348283
0.347171
0.346178
0.345172
0.344509
0.344006
0.343442
0.34311
0.342901
0.342812
0.342613
0.342528
0.342285
0.342253
0.341884
0.341897
0.341438
0.341683
0.341201
0.341792
0.341444
0.342242
0.342735
0.343013
0.345907
0.344847
0.341289
0.351206
0.340045
0.297318
0.289157
0.310402
0.32858
0.336101
0.338411
0.339049
0.339338
0.339516
0.33971
0.339888
0.340091
0.340295
0.340524
0.340762
0.341023
0.341302
0.341607
0.341937
0.342297
0.342686
0.343111
0.343567
0.34407
0.344599
0.345195
0.345802
0.346515
0.347224
0.348115
0.34899
0.350165
0.351178
0.352638
0.353887
0.356165
0.357996
0.361212
0.363246
0.367369
0.368802
0.372211
0.369977
0.371902
0.37113
0.381414
0.383648
0.395874
0.398692
0.407503
0.399384
0.343269
0.286159
0.294999
0.350729
0.358343
0.361596
0.357875
0.357816
0.354046
0.354148
0.351692
0.352046
0.350783
0.351223
0.350156
0.350332
0.349682
0.349462
0.348825
0.348244
0.34714
0.346151
0.34515
0.344488
0.343992
0.343435
0.343103
0.342893
0.3428
0.342601
0.342515
0.342272
0.34224
0.34187
0.341882
0.341423
0.341664
0.341183
0.341765
0.34142
0.342198
0.342692
0.342948
0.345809
0.344764
0.341207
0.351325
0.340166
0.297607
0.289513
0.31062
0.328659
0.336129
0.338425
0.339061
0.339348
0.339526
0.339719
0.339897
0.340099
0.340303
0.340531
0.340768
0.341029
0.341308
0.341612
0.341941
0.342301
0.342689
0.343114
0.343569
0.344071
0.344599
0.345195
0.345801
0.346514
0.347222
0.348113
0.348986
0.350161
0.351172
0.352635
0.35388
0.356158
0.357979
0.361193
0.363213
0.367329
0.368743
0.372156
0.369934
0.371901
0.371123
0.381382
0.383582
0.395747
0.398534
0.407205
0.400812
0.341509
0.285439
0.29796
0.351914
0.358628
0.361664
0.357868
0.357812
0.354055
0.354133
0.351673
0.352023
0.350757
0.351191
0.350114
0.350293
0.349648
0.349424
0.348784
0.348205
0.347108
0.346124
0.345127
0.344466
0.343975
0.343426
0.343095
0.342883
0.342788
0.342588
0.342501
0.342258
0.342225
0.341855
0.341866
0.341407
0.341645
0.341165
0.341737
0.341394
0.342152
0.342647
0.342881
0.345708
0.344679
0.341124
0.351446
0.340287
0.297899
0.289872
0.31084
0.32874
0.336157
0.33844
0.339073
0.339359
0.339535
0.339728
0.339905
0.340107
0.34031
0.340537
0.340775
0.341035
0.341313
0.341617
0.341945
0.342305
0.342692
0.343116
0.34357
0.344072
0.344599
0.345195
0.3458
0.346513
0.347219
0.348111
0.348982
0.350157
0.351165
0.352631
0.353873
0.356151
0.357961
0.361174
0.36318
0.367291
0.368685
0.372103
0.369893
0.371901
0.371118
0.381352
0.38352
0.395626
0.398384
0.406925
0.402507
0.340362
0.28525
0.301171
0.353111
0.358918
0.361738
0.357868
0.357812
0.354067
0.354121
0.351655
0.352001
0.350732
0.35116
0.350074
0.350255
0.349615
0.349386
0.348744
0.348166
0.347077
0.346097
0.345105
0.344444
0.343956
0.343416
0.343086
0.342872
0.342775
0.342573
0.342485
0.342243
0.34221
0.341839
0.341849
0.34139
0.341624
0.341144
0.341708
0.341366
0.342105
0.342599
0.342812
0.345605
0.344593
0.341042
0.351569
0.34041
0.298194
0.290236
0.311063
0.328822
0.336186
0.338455
0.339084
0.339369
0.339545
0.339737
0.339913
0.340115
0.340317
0.340544
0.340781
0.341041
0.341318
0.341622
0.341949
0.342308
0.342695
0.343118
0.343572
0.344073
0.344599
0.345195
0.345798
0.346512
0.347216
0.348108
0.348978
0.350153
0.351157
0.352627
0.353865
0.356143
0.357943
0.361155
0.363147
0.367252
0.368629
0.372052
0.369854
0.371903
0.371114
0.381325
0.383461
0.395512
0.398242
0.406657
0.404417
0.339859
0.285612
0.304592
0.354306
0.35921
0.361816
0.357875
0.357816
0.35408
0.354111
0.35164
0.351982
0.350709
0.351131
0.350035
0.350219
0.349583
0.349349
0.348704
0.348127
0.347046
0.34607
0.345083
0.344422
0.343936
0.343404
0.343075
0.34286
0.342761
0.342558
0.34247
0.342227
0.342193
0.341821
0.34183
0.341371
0.341602
0.341123
0.341678
0.341336
0.342057
0.34255
0.342743
0.345501
0.344505
0.34096
0.351693
0.340534
0.298492
0.290602
0.311288
0.328906
0.336215
0.33847
0.339096
0.339379
0.339554
0.339745
0.339921
0.340122
0.340324
0.34055
0.340787
0.341047
0.341323
0.341626
0.341953
0.342312
0.342698
0.343121
0.343574
0.344074
0.344599
0.345194
0.345797
0.34651
0.347214
0.348106
0.348973
0.350149
0.35115
0.352622
0.353858
0.356136
0.357925
0.361136
0.363115
0.367216
0.368574
0.372004
0.369817
0.371908
0.371112
0.3813
0.383406
0.395403
0.398108
0.406399
0.406482
0.340016
0.286531
0.308183
0.355486
0.359501
0.361897
0.357887
0.357823
0.354096
0.354103
0.351628
0.351965
0.350688
0.351104
0.349999
0.350185
0.349552
0.349313
0.348666
0.34809
0.347015
0.346043
0.345061
0.344399
0.343913
0.34339
0.343065
0.342848
0.342747
0.342543
0.342453
0.342211
0.342176
0.341804
0.341811
0.341352
0.34158
0.341101
0.341647
0.341306
0.342008
0.3425
0.342673
0.345395
0.344417
0.34088
0.351818
0.34066
0.298792
0.290972
0.311516
0.32899
0.336245
0.338485
0.339108
0.339389
0.339564
0.339754
0.33993
0.34013
0.340331
0.340557
0.340793
0.341052
0.341329
0.341631
0.341958
0.342315
0.342701
0.343123
0.343575
0.344075
0.344599
0.345194
0.345795
0.346509
0.347211
0.348104
0.348969
0.350145
0.351143
0.352619
0.35385
0.356129
0.357908
0.361118
0.363083
0.367181
0.368522
0.371958
0.369784
0.371915
0.371112
0.381279
0.383354
0.395299
0.39798
0.406146
0.408646
0.340834
0.288001
0.311896
0.356638
0.359788
0.361979
0.357904
0.357832
0.354113
0.354098
0.351617
0.35195
0.350669
0.351079
0.349965
0.350152
0.349523
0.349279
0.348629
0.348054
0.346986
0.346017
0.34504
0.344377
0.34389
0.343376
0.343053
0.342836
0.342733
0.342528
0.342437
0.342194
0.342159
0.341786
0.341792
0.341333
0.341557
0.341078
0.341615
0.341275
0.341958
0.342449
0.342603
0.345289
0.344328
0.3408
0.351944
0.340787
0.299096
0.291346
0.311746
0.329075
0.336275
0.3385
0.339119
0.3394
0.339573
0.339763
0.339938
0.340138
0.340338
0.340563
0.340799
0.341058
0.341334
0.341636
0.341962
0.342319
0.342704
0.343126
0.343577
0.344076
0.3446
0.345193
0.345794
0.346507
0.347209
0.348102
0.348965
0.350141
0.351137
0.352616
0.353844
0.356123
0.357892
0.361102
0.363053
0.367147
0.368472
0.371916
0.369754
0.371926
0.371115
0.381261
0.383307
0.3952
0.397859
0.405895
0.410851
0.342293
0.289999
0.315681
0.357753
0.360067
0.362062
0.357925
0.357843
0.354131
0.354095
0.351609
0.351938
0.350652
0.351056
0.349934
0.350122
0.349495
0.349246
0.348593
0.34802
0.346958
0.345993
0.34502
0.344356
0.343866
0.343362
0.343042
0.342824
0.342718
0.342512
0.34242
0.342178
0.342141
0.341767
0.341772
0.341313
0.341533
0.341055
0.341583
0.341243
0.341908
0.342396
0.342532
0.345183
0.344239
0.340722
0.352071
0.340915
0.299403
0.291722
0.311977
0.329161
0.336305
0.338515
0.339131
0.33941
0.339583
0.339772
0.339946
0.340145
0.340345
0.34057
0.340805
0.341064
0.341339
0.341641
0.341966
0.342323
0.342707
0.343128
0.343579
0.344078
0.3446
0.345194
0.345793
0.346507
0.347207
0.348101
0.348962
0.350138
0.351131
0.352614
0.353838
0.356119
0.357877
0.361087
0.363026
0.367116
0.368425
0.371876
0.369727
0.371939
0.371122
0.381245
0.383264
0.395106
0.397743
0.405643
0.413042
0.344353
0.29249
0.319488
0.35882
0.360337
0.362144
0.357948
0.357855
0.354151
0.354094
0.351603
0.351928
0.350637
0.351034
0.349904
0.350093
0.349468
0.349215
0.348559
0.347987
0.346931
0.34597
0.345001
0.344336
0.343842
0.343347
0.34303
0.342811
0.342704
0.342497
0.342404
0.342161
0.342124
0.341749
0.341753
0.341293
0.341509
0.341031
0.34155
0.341211
0.341858
0.342343
0.342462
0.345077
0.34415
0.340646
0.352198
0.341045
0.299712
0.292101
0.31221
0.329248
0.336336
0.33853
0.339143
0.33942
0.339593
0.339781
0.339955
0.340153
0.340353
0.340577
0.340811
0.34107
0.341345
0.341646
0.341971
0.342327
0.34271
0.343131
0.343581
0.34408
0.344601
0.345194
0.345793
0.346507
0.347206
0.3481
0.34896
0.350136
0.351127
0.352613
0.353834
0.356115
0.357864
0.361074
0.363
0.367088
0.368381
0.37184
0.369704
0.371956
0.371131
0.381233
0.383225
0.395016
0.397631
0.405389
0.415174
0.346959
0.295422
0.323267
0.359832
0.360595
0.362224
0.357973
0.357869
0.354171
0.354095
0.351599
0.351919
0.350624
0.351015
0.349878
0.350066
0.349443
0.349186
0.348526
0.347956
0.346906
0.345948
0.344983
0.344317
0.343819
0.343333
0.343019
0.3428
0.34269
0.342482
0.342388
0.342145
0.342106
0.34173
0.341733
0.341272
0.341485
0.341007
0.341517
0.341178
0.341808
0.34229
0.342392
0.344971
0.344061
0.340572
0.352327
0.341176
0.300024
0.292482
0.312444
0.329335
0.336366
0.338546
0.339155
0.339431
0.339602
0.33979
0.339963
0.340161
0.34036
0.340584
0.340818
0.341076
0.34135
0.341651
0.341975
0.342331
0.342714
0.343135
0.343584
0.344082
0.344603
0.345195
0.345794
0.346507
0.347205
0.3481
0.348958
0.350135
0.351124
0.352613
0.353831
0.356114
0.357853
0.361063
0.362976
0.367062
0.36834
0.371806
0.369684
0.371975
0.371145
0.381224
0.38319
0.394929
0.397524
0.405129
0.417204
0.350034
0.298733
0.326973
0.360783
0.360841
0.362301
0.358
0.357882
0.354192
0.354097
0.351597
0.351913
0.350613
0.350997
0.349853
0.350041
0.34942
0.349158
0.348496
0.347927
0.346882
0.345927
0.344966
0.344299
0.343796
0.343319
0.343008
0.342788
0.342677
0.342467
0.342372
0.342129
0.342088
0.341712
0.341713
0.341252
0.341461
0.340984
0.341484
0.341145
0.341758
0.342237
0.342323
0.344866
0.343974
0.3405
0.352456
0.341308
0.300338
0.292866
0.31268
0.329423
0.336398
0.338561
0.339167
0.339441
0.339612
0.339799
0.339971
0.340169
0.340368
0.340591
0.340825
0.341082
0.341356
0.341657
0.341981
0.342336
0.342719
0.343138
0.343587
0.344085
0.344605
0.345197
0.345795
0.346509
0.347206
0.348102
0.348958
0.350136
0.351122
0.352615
0.35383
0.356114
0.357844
0.361054
0.362955
0.367038
0.368302
0.371776
0.369668
0.371998
0.371161
0.381218
0.383158
0.394846
0.397421
0.404863
0.419101
0.35349
0.302349
0.330565
0.36167
0.361072
0.362374
0.358028
0.357897
0.354213
0.3541
0.351597
0.351909
0.350604
0.350981
0.349831
0.350018
0.349398
0.349133
0.348467
0.347899
0.34686
0.345909
0.344951
0.344283
0.343774
0.343305
0.342998
0.342778
0.342664
0.342453
0.342357
0.342113
0.342071
0.341694
0.341694
0.341233
0.341437
0.34096
0.341452
0.341113
0.341708
0.342184
0.342254
0.344762
0.343888
0.340429
0.352585
0.341441
0.300655
0.293251
0.312917
0.329512
0.336429
0.338577
0.339179
0.339452
0.339622
0.339808
0.33998
0.340177
0.340375
0.340598
0.340831
0.341089
0.341363
0.341662
0.341986
0.342341
0.342723
0.343143
0.343591
0.344088
0.344608
0.3452
0.345797
0.346511
0.347207
0.348104
0.348959
0.350137
0.351121
0.352618
0.353831
0.356115
0.357837
0.361047
0.362937
0.367018
0.368267
0.371749
0.369655
0.372023
0.371182
0.381215
0.38313
0.394765
0.39732
0.404589
0.420838
0.357228
0.306191
0.334005
0.362489
0.361288
0.362444
0.358056
0.357911
0.354233
0.354104
0.351598
0.351906
0.350597
0.350967
0.349811
0.349997
0.349378
0.349109
0.34844
0.347874
0.34684
0.345891
0.344938
0.344268
0.343753
0.343292
0.342989
0.342768
0.342652
0.342439
0.342342
0.342098
0.342055
0.341677
0.341675
0.341213
0.341414
0.340937
0.341419
0.341081
0.341659
0.342132
0.342186
0.344659
0.343803
0.340361
0.352715
0.341576
0.300975
0.293639
0.313155
0.329601
0.33646
0.338593
0.339191
0.339462
0.339632
0.339817
0.339989
0.340186
0.340383
0.340606
0.340838
0.341095
0.341369
0.341668
0.341992
0.342346
0.342728
0.343147
0.343595
0.344092
0.344611
0.345203
0.345799
0.346514
0.34721
0.348107
0.348961
0.35014
0.351122
0.352623
0.353833
0.356119
0.357832
0.361042
0.362921
0.366999
0.368235
0.371724
0.369645
0.372051
0.371205
0.381214
0.383106
0.394686
0.397222
0.404307
0.422399
0.361146
0.310176
0.337266
0.363239
0.361489
0.362509
0.358084
0.357924
0.354254
0.35411
0.351601
0.351905
0.350591
0.350954
0.349794
0.349978
0.34936
0.349087
0.348416
0.34785
0.346821
0.345876
0.344926
0.344254
0.343733
0.34328
0.34298
0.342758
0.342641
0.342426
0.342328
0.342083
0.342039
0.34166
0.341656
0.341194
0.341391
0.340914
0.341387
0.341049
0.341611
0.34208
0.342119
0.344558
0.343719
0.340295
0.352845
0.341711
0.301296
0.294029
0.313393
0.329691
0.336492
0.338609
0.339203
0.339473
0.339642
0.339826
0.339998
0.340194
0.340391
0.340613
0.340846
0.341102
0.341376
0.341675
0.341998
0.342352
0.342733
0.343152
0.3436
0.344097
0.344615
0.345207
0.345803
0.346518
0.347213
0.348112
0.348964
0.350144
0.351125
0.352629
0.353837
0.356124
0.357829
0.36104
0.362908
0.366983
0.368206
0.371702
0.369639
0.372081
0.371232
0.381216
0.383085
0.394609
0.397127
0.404017
0.423773
0.365138
0.314221
0.340324
0.363921
0.361674
0.362569
0.358111
0.357937
0.354274
0.354116
0.351604
0.351906
0.350587
0.350943
0.349778
0.349961
0.349343
0.349067
0.348392
0.347828
0.346805
0.345862
0.344915
0.344242
0.343715
0.343268
0.342972
0.34275
0.34263
0.342414
0.342315
0.34207
0.342023
0.341644
0.341638
0.341176
0.341368
0.340891
0.341356
0.341018