/*--------------------------------*- C++ -*----------------------------------*\
| =========                 |                                                 |
| \\      /  F ield         | OpenFOAM: The Open Source CFD Toolbox           |
|  \\    /   O peration     | Version:  2412                                  |
|   \\  /    A nd           | Website:  www.openfoam.com                      |
|    \\/     M anipulation  |                                                 |
\*---------------------------------------------------------------------------*/
FoamFile
{
    version     2.0;
    format      ascii;
    arch        "LSB;label=32;scalar=64";
    class       volScalarField;
    location    "0.1";
    object      p;
}
// * * * * * * * * * * * * * * * * * * * * * * * * * * * * * * * * * * * * * //

dimensions      [0 2 -2 0 0 0 0];

internalField   nonuniform List<scalar> 
13079
(
126570
126481
126441
126317
126261
126124
126040
125889
125764
125589
125419
125208
124987
124727
124449
124130
123786
123398
122978
122507
122005
121431
120860
120118
119580
118478
118194
116488
116563
114307
114452
111852
112142
108487
109973
104099
107573
98750.7
104731
92052.5
101838
84061.9
98886.2
73593.9
95626.4
58326.5
89568.8
33291.5
79867.3
-2363.33
65931.4
-59963.3
40669.1
-142925
22643.1
-87863.8
24627.1
-47661
32430.1
-20474.6
38695.7
834.636
43768.6
18300.8
47971.5
31802.8
51564.4
41549.9
54515.6
48550.4
57129.6
53792.7
59353
57997.7
61552.9
61400.7
63925.6
126560
126473
126432
126309
126252
126116
126031
125881
125756
125582
125411
125200
124979
124719
124441
124122
123778
123390
122970
122499
121997
121423
120853
120110
119574
118470
118191
116478
116562
114297
114450
111845
112137
108480
109971
104088
107575
98737.6
104735
92041.9
101840
84048.4
98878
73570.9
95601.4
58283.1
89538.4
33258.9
79844.6
-2395.92
65903.7
-59906.8
40756.3
-142534
22744.1
-87816.2
24668.4
-47674.7
32443.6
-20485.9
38697.8
825.52
43764.1
18288.5
47963.7
31783.4
51560.7
41529
54516.2
48532.3
57131.6
53782.4
59352.1
57994.5
61553
61395.1
63927.7
126549
126465
126423
126301
126243
126108
126024
125874
125749
125574
125404
125192
124971
124712
124433
124114
123771
123382
122963
122492
121990
121416
120846
120103
119568
118462
118187
116468
116560
114287
114447
111838
112132
108473
109969
104076
107576
98724.4
104739
92031.2
101841
84034.7
98869.8
73548.1
95576.9
58240.4
89508.5
33226.2
79822.2
-2428.27
65876.6
-59850.4
40843.8
-142143
22843.4
-87768.8
24708.9
-47688.3
32456.9
-20497.5
38699.9
816.203
43759.7
18276.2
47955.9
31764.3
51557.1
41508.3
54516.8
48514.4
57133.6
53772.1
59351.2
57991.3
61552.9
61389.5
63929.7
126538
126455
126413
126293
126235
126100
126016
125866
125741
125566
125396
125185
124964
124704
124426
124107
123763
123374
122955
122484
121982
121409
120839
120096
119562
118454
118184
116458
116559
114277
114444
111831
112126
108466
109967
104065
107578
98711.3
104743
92020.4
101843
84021
98861.5
73525.3
95552.8
58198.2
89479.2
33193.6
79799.9
-2460.35
65850
-59794.2
40931.4
-141750
22940.8
-87721.6
24748.8
-47701.9
32469.9
-20509.3
38702.1
806.734
43755.2
18263.9
47948.2
31745.4
51553.5
41488
54517.4
48496.8
57135.5
53762
59350.2
57988.1
61552.8
61383.9
63931.7
126528
126446
126404
126285
126226
126093
126008
125859
125734
125559
125389
125177
124956
124696
124418
124099
123755
123366
122947
122476
121975
121401
120832
120089
119556
118446
118180
116449
116557
114266
114441
111824
112121
108460
109965
104054
107579
98698.2
104747
92009.5
101844
84007.1
98853.3
73502.5
95528.9
58156.4
89450.1
33161.1
79777.7
-2492.13
65823.8
-59737.8
41018.9
-141360
23036.3
-87673.9
24788.7
-47715.3
32482.8
-20521.2
38704.3
797.27
43750.8
18251.6
47940.7
31726.6
51550
41467.7
54518
48479.3
57137.5
53751.8
59349.3
57984.8
61552.7
61378.4
63933.6
64235.4
66066.8
66725.5
67876.7
68756.9
69448.8
70345
70808.2
71675.6
72008
72874
73087.2
74039.7
74114.8
75243.9
75116.4
76569.4
76124.2
78099.6
77120.5
79998.3
78064.9
126517
126437
126394
126277
126218
126085
126000
125852
125726
125551
125381
125170
124949
124689
124410
124091
123747
123359
122940
122469
121968
121394
120826
120081
119551
118438
118177
116439
116556
114256
114438
111817
112116
108453
109963
104042
107580
98685.1
104750
91998.7
101846
83993.3
98845.1
73479.8
95505
58114.7
89421.2
33128.7
79755.6
-2523.58
65798.1
-59681.3
41106.2
-140971
23130
-87625.8
24828.7
-47728.5
32495.7
-20533
38706.5
787.837
43746.5
18239.3
47933.1
31707.8
51546.4
41447.4
54518.7
48461.8
57139.4
53741.7
59348.3
57981.5
61552.6
61372.8
63935.5
64227.4
66067.1
66719.1
67874.1
68752.8
69446
70343.2
70807
71675.8
72008.9
72876.5
73090
74044.5
74119.4
75250.7
75122.3
76577.9
76131.1
78108.1
77128.2
80002.4
78073.4
126506
126428
126385
126270
126210
126078
125993
125844
125719
125544
125374
125162
124941
124681
124403
124084
123740
123351
122932
122461
121960
121387
120819
120074
119545
118430
118173
116429
116555
114246
114436
111810
112111
108446
109961
104031
107581
98672.1
104754
91987.8
101847
83979.5
98836.9
73457.1
95481.3
58073.4
89392.6
33096.5
79733.7
-2554.74
65772.7
-59624.7
41193
-140584
23222
-87577.1
24868.9
-47741.4
32508.6
-20544.9
38708.7
778.427
43742.1
18227.1
47925.6
31689.2
51542.9
41427.2
54519.3
48444.4
57141.2
53731.7
59347.3
57978.2
61552.5
61367.2
63937.4
64219.6
66067.3
66712.8
67871.6
68748.8
69443.3
70341.4
70805.8
71676
72009.7
72878.9
73092.7
74049.1
74123.8
75257.3
75127.9
76586
76137.7
78116.2
77135.6
80005.9
78081.6
126496
126419
126376
126262
126201
126071
125985
125837
125711
125537
125366
125155
124934
124673
124395
124076
123732
123344
122925
122454
121953
121380
120812
120067
119539
118422
118170
116419
116553
114236
114433
111803
112106
108439
109959
104020
107582
98659.1
104758
91976.8
101848
83965.6
98828.7
73434.5
95457.7
58032.3
89364.1
33064.4
79711.9
-2585.62
65747.7
-59568.2
41279
-140198
23312.3
-87527.8
24909.2
-47754.1
32521.4
-20556.8
38711
769.039
43737.7
18214.9
47918.2
31670.6
51539.5
41407.1
54519.9
48427.1
57143.1
53721.7
59346.2
57974.9
61552.4
61361.6
63939.3
64211.8
66067.4
66706.6
67869
68744.8
69440.6
70339.5
70804.6
71676.2
72010.5
72881.2
73095.3
74053.6
74128
75263.7
75133.3
76593.9
76144.1
78123.8
77142.7
80009
78089.4
126485
126410
126366
126254
126193
126063
125977
125830
125704
125529
125359
125147
124926
124666
124387
124068
123725
123336
122917
122447
121946
121373
120805
120060
119533
118414
118166
116409
116552
114226
114430
111796
112100
108433
109957
104009
107584
98646.2
104761
91965.9
101850
83951.8
98820.5
73412
95434.1
57991.5
89335.8
33032.5
79690.2
-2616.23
65723
-59511.8
41363.7
-139813
23401.3
-87477.8
24949.7
-47766.6
32534.3
-20568.7
38713.3
759.668
43733.4
18202.7
47910.8
31652
51536
41387.1
54520.5
48409.8
57144.9
53711.7
59345.2
57971.6
61552.3
61356
63941.2
64204
66067.6
66700.4
67866.5
68740.9
69437.9
70337.7
70803.4
71676.3
72011.3
72883.5
73097.9
74058
74132.2
75270
75138.7
76601.7
76150.4
78131.3
77149.7
80011.9
78097.2
126474
126401
126357
126246
126185
126056
125970
125822
125696
125522
125351
125140
124919
124658
124380
124061
123717
123328
122910
122439
121939
121366
120798
120053
119528
118406
118163
116400
116550
114216
114428
111789
112095
108426
109954
103998
107585
98633.3
104765
91955
101851
83937.9
98812.3
73389.5
95410.7
57951
89307.7
33000.7
79668.6
-2646.57
65698.7
-59455.4
41446.9
-139430
23489
-87427
24990.4
-47778.9
32547.1
-20580.5
38715.6
750.316
43729
18190.6
47903.4
31633.6
51532.6
41367.2
54521.2
48392.6
57146.7
53701.8
59344.1
57968.3
61552.1
61350.4
63943.1
64196.3
66067.7
66694.2
67864
68737
69435.3
70335.9
70802.3
71676.5
72012
72885.8
73100.4
74062.5
74136.4
75276.3
75144.1
76609.4
76156.6
78138.6
77156.7
80014.6
78104.9
126464
126392
126348
126239
126177
126049
125962
125815
125689
125515
125344
125132
124911
124651
124372
124053
123710
123321
122902
122432
121931
121358
120792
120046
119522
118399
118159
116390
116549
114206
114425
111782
112090
108420
109952
103987
107586
98620.5
104769
91944
101852
83924
98804.1
73367.1
95387.3
57910.7
89279.9
32969.1
79647.1
-2676.65
65674.8
-59399.2
41528.3
-139048
23575.7
-87375.3
25031.4
-47790.9
32559.9
-20592.4
38717.9
740.983
43724.7
18178.6
47896.1
31615.3
51529.1
41347.3
54521.8
48375.4
57148.5
53691.9
59343
57965
61552
61344.8
63945
64188.6
66067.9
66688.1
67861.4
68733.1
69432.6
70334.1
70801.1
71676.6
72012.8
72888
73103
74066.8
74140.6
75282.5
75149.4
76617
76162.9
78145.9
77163.7
80017.3
78112.6
126454
126383
126339
126231
126169
126041
125955
125808
125682
125507
125337
125125
124904
124643
124365
124046
123702
123313
122895
122425
121924
121351
120785
120039
119516
118391
118156
116381
116548
114196
114422
111775
112085
108413
109950
103976
107588
98607.7
104772
91933.1
101853
83910.2
98795.9
73344.7
95364.1
57870.7
89252.2
32937.6
79625.8
-2706.49
65651.1
-59343.1
41607.3
-138667
23661.6
-87322.5
25072.7
-47802.7
32572.7
-20604.2
38720.3
731.674
43720.4
18166.5
47888.8
31597
51525.7
41327.5
54522.4
48358.3
57150.2
53682.1
59341.8
57961.7
61551.8
61339.3
63946.9
64181
66068
66682
67859
68729.2
69430
70332.3
70799.9
71676.8
72013.5
72890.3
73105.5
74071.2
74144.7
75288.7
75154.7
76624.5
76169.1
78153.1
77170.6
80019.8
78120.3
126444
126374
126330
126223
126161
126034
125947
125801
125674
125500
125329
125118
124896
124636
124357
124038
123695
123306
122888
122417
121917
121344
120778
120032
119511
118383
118152
116371
116546
114186
114420
111768
112080
108407
109948
103965
107589
98595
104776
91922.1
101855
83896.3
98787.7
73322.4
95340.9
57830.9
89224.7
32906.2
79604.6
-2736.09
65627.8
-59287.3
41683.8
-138287
23747
-87268.7
25114.2
-47814.2
32585.6
-20616
38722.7
722.389
43716.1
18154.6
47881.5
31578.8
51522.3
41307.8
54523
48341.2
57151.9
53672.3
59340.7
57958.3
61551.6
61333.7
63948.8
64173.3
66068.2
66676
67856.5
68725.3
69427.4
70330.5
70798.7
71676.9
72014.2
72892.5
73108
74075.5
74148.8
75294.8
75159.9
76632
76175.2
78160.1
77177.5
80022.3
78127.9
126433
126366
126321
126216
126153
126027
125940
125793
125667
125493
125322
125110
124889
124629
124350
124031
123687
123299
122880
122410
121910
121337
120772
120026
119505
118376
118149
116362
116545
114176
114417
111761
112075
108400
109946
103955
107590
98582.3
104779
91911.1
101856
83882.4
98779.5
73300.2
95317.9
57791.4
89197.5
32874.9
79583.4
-2765.46
65604.7
-59231.6
41757.5
-137908
23832
-87213.6
25156.1
-47825.5
32598.4
-20627.7
38725.1
713.132
43711.8
18142.6
47874.3
31560.7
51519
41288.2
54523.6
48324.3
57153.7
53662.5
59339.5
57955
61551.4
61328.1
63950.6
64165.7
66068.3
66669.9
67854
68721.5
69424.7
70328.8
70797.6
71677.1
72014.9
72894.8
73110.4
74079.8
74152.9
75300.9
75165.1
76639.4
76181.4
78167.1
77184.4
80024.6
78135.5
126423
126357
126312
126208
126145
126020
125932
125786
125660
125486
125315
125103
124882
124621
124343
124023
123680
123291
122873
122403
121903
121330
120765
120019
119500
118368
118145
116352
116543
114166
114415
111754
112070
108394
109943
103944
107591
98569.7
104783
91900.2
101857
83868.6
98771.4
73278
95295
57752.2
89170.4
32843.8
79562.4
-2794.6
65581.9
-59176.2
41828.1
-137530
23917.1
-87157.2
25198.3
-47836.5
32611.3
-20639.4
38727.5
703.903
43707.6
18130.7
47867.1
31542.7
51515.6
41268.6
54524.2
48307.3
57155.3
53652.8
59338.3
57951.7
61551.2
61322.5
63952.5
64158.1
66068.5
66663.9
67851.5
68717.7
69422.1
70327
70796.4
71677.2
72015.6
72897
73112.9
74084.1
74156.9
75306.9
75170.3
76646.7
76187.4
78173.9
77191.2
80026.8
78143
126413
126348
126303
126201
126137
126012
125925
125779
125653
125479
125308
125096
124874
124614
124335
124016
123673
123284
122866
122396
121896
121324
120759
120012
119494
118361
118142
116343
116542
114156
114412
111747
112065
108388
109941
103933
107593
98557.1
104786
91889.2
101858
83854.7
98763.2
73255.8
95272.1
57713.2
89143.5
32812.8
79541.5
-2823.52
65559.3
-59121
41895.4
-137153
24002.3
-87099.4
25240.7
-47847.3
32624.2
-20650.9
38730
694.705
43703.4
18118.9
47860
31524.7
51512.3
41249.1
54524.8
48290.5
57157
53643.1
59337.1
57948.3
61551
61316.9
63954.3
64150.5
66068.6
66658
67849.1
68713.9
69419.5
70325.2
70795.2
71677.3
72016.3
72899.2
73115.3
74088.3
74160.9
75312.9
75175.5
76653.9
76193.5
78180.6
77197.9
80028.9
78150.5
126403
126339
126294
126193
126129
126005
125918
125772
125645
125472
125300
125089
124867
124607
124328
124009
123665
123277
122859
122388
121889
121317
120752
120005
119488
118353
118138
116333
116541
114146
114410
111741
112060
108381
109939
103923
107594
98544.5
104790
91878.2
101859
83840.8
98755
73233.7
95249.4
57674.4
89116.7
32781.9
79520.6
-2852.23
65537.1
-59066.1
41959.3
-136777
24088.1
-87040.2
25283.5
-47857.8
32637.1
-20662.5
38732.5
685.539
43699.2
18107.1
47852.9
31506.9
51509
41229.8
54525.4
48273.7
57158.7
53633.4
59335.8
57945
61550.7
61311.4
63956.2
64143
66068.7
66652.1
67846.7
68710.1
69417
70323.4
70794.1
71677.4
72017
72901.3
73117.7
74092.5
74164.9
75318.9
75180.6
76661.1
76199.5
78187.3
77204.7
80030.9
78158
126393
126331
126285
126185
126121
125998
125910
125765
125638
125465
125293
125081
124860
124599
124321
124002
123658
123269
122851
122381
121882
121310
120746
119998
119483
118345
118135
116324
116539
114137
114407
111734
112055
108375
109936
103912
107595
98532
104794
91867.2
101860
83826.9
98746.8
73211.7
95226.7
57635.9
89090.2
32751.2
79499.9
-2880.73
65515
-59011.3
42019.9
-136403
24174.5
-86979.6
25326.5
-47868.1
32650
-20673.9
38735
676.406
43695
18095.3
47845.9
31489.1
51505.7
41210.5
54526
48257
57160.3
53623.8
59334.6
57941.6
61550.5
61305.8
63958
64135.5
66068.9
66646.2
67844.2
68706.4
69414.4
70321.7
70792.9
71677.5
72017.7
72903.5
73120
74096.7
74168.8
75324.7
75185.7
76668.2
76205.5
78193.8
77211.4
80032.8
78165.4
126383
126322
126276
126178
126113
125991
125903
125758
125631
125457
125286
125074
124853
124592
124314
123994
123651
123262
122844
122374
121875
121303
120739
119992
119477
118338
118131
116315
116538
114127
114405
111727
112050
108369
109934
103902
107597
98519.5
104797
91856.2
101861
83813
98738.7
73189.7
95204.1
57597.7
89063.8
32720.5
79479.3
-2909.03
65493.3
-58956.9
42077.3
-136030
24262
-86917.5
25369.7
-47878.1
32662.9
-20685.3
38737.5
667.306
43690.9
18083.6
47838.9
31471.4
51502.4
41191.3
54526.6
48240.3
57161.9
53614.2
59333.3
57938.3
61550.2
61300.3
63959.8
64128
66069
66640.3
67841.8
68702.7
69411.8
70319.9
70791.7
71677.6
72018.3
72905.6
73122.4
74100.9
74172.7
75330.6
75190.7
76675.2
76211.4
78200.2
77218
80034.6
78172.8
126374
126314
126267
126171
126105
125984
125896
125751
125624
125450
125279
125067
124846
124585
124306
123987
123644
123255
122837
122367
121868
121296
120733
119985
119472
118331
118128
116305
116537
114117
114403
111720
112045
108363
109932
103891
107598
98507.1
104801
91845.1
101862
83799.1
98730.5
73167.8
95181.7
57559.7
89037.6
32690
79458.7
-2937.11
65471.7
-58902.6
42131.5
-135659
24350.5
-86854
25413.2
-47887.9
32675.8
-20696.6
38740
658.241
43686.8
18072
47832
31453.9
51499.1
41172.1
54527.2
48223.7
57163.5
53604.6
59332
57934.9
61550
61294.7
63961.7
64120.5
66069.1
66634.5
67839.4
68699
69409.3
70318.2
70790.6
71677.7
72019
72907.8
73124.7
74105
74176.6
75336.4
75195.7
76682.1
76217.3
78206.5
77224.7
80036.3
78180.2
126364
126305
126258
126163
126098
125977
125888
125744
125617
125443
125272
125060
124838
124578
124299
123980
123636
123248
122830
122360
121861
121289
120726
119978
119466
118323
118124
116296
116535
114107
114400
111713
112040
108357
109929
103881
107599
98494.7
104804
91834.1
101863
83785.2
98722.4
73145.9
95159.3
57521.9
89011.6
32659.6
79438.2
-2965
65450.4
-58848.6
42182.8
-135289
24440.4
-86789.2
25456.7
-47897.5
32688.7
-20707.8
38742.6
649.209
43682.7
18060.4
47825.1
31436.4
51495.9
41153.1
54527.8
48207.2
57165.1
53595.1
59330.7
57931.6
61549.7
61289.1
63963.5
64113.1
66069.3
66628.7
67837.1
68695.3
69406.8
70316.4
70789.4
71677.8
72019.6
72909.9
73127
74109.1
74180.5
75342.1
75200.7
76689
76223.1
78212.7
77231.3
80037.9
78187.5
126354
126297
126250
126156
126090
125970
125881
125737
125610
125436
125265
125053
124831
124571
124292
123973
123629
123241
122823
122353
121855
121283
120720
119972
119461
118316
118121
116287
116534
114098
114398
111706
112035
108351
109927
103870
107601
98482.4
104807
91823.1
101864
83771.3
98714.2
73124.1
95137
57484.3
88985.8
32629.3
79417.8
-2992.68
65429.4
-58794.7
42231.6
-134922
24531.9
-86723.1
25500.4
-47906.9
32701.7
-20718.9
38745.1
640.213
43678.7
18048.8
47818.3
31418.9
51492.7
41134.1
54528.4
48190.7
57166.6
53585.7
59329.3
57928.2
61549.4
61283.6
63965.3
64105.6
66069.4
66622.9
67834.7
68691.6
69404.2
70314.7
70788.3
71677.9
72020.3
72912
73129.3
74113.1
74184.3
75347.8
75205.6
76695.8
76229
78218.9
77237.8
80039.4
78194.8
126345
126288
126241
126148
126082
125963
125874
125730
125603
125430
125258
125046
124824
124564
124285
123966
123622
123234
122816
122346
121848
121276
120713
119965
119455
118309
118117
116278
116533
114088
114396
111700
112030
108345
109925
103860
107602
98470.1
104811
91812.1
101865
83757.4
98706
73102.4
95114.8
57447
88960.1
32599.1
79397.5
-3020.16
65408.6
-58741
42278.2
-134557
24624.9
-86656
25544.1
-47916.1
32714.6
-20730
38747.7
631.251
43674.6
18037.3
47811.5
31401.6
51489.5
41115.3
54529
48174.3
57168.2
53576.2
59328
57924.8
61549.1
61278.1
63967.1
64098.3
66069.5
66617.1
67832.3
68688
69401.7
70312.9
70787.1
71678
72020.9
72914
73131.6
74117.2
74188.1
75353.4
75210.6
76702.5
76234.7
78224.9
77244.3
80040.9
78202
126335
126280
126232
126141
126074
125956
125867
125723
125596
125423
125251
125039
124817
124557
124278
123958
123615
123227
122809
122339
121841
121269
120707
119959
119450
118301
118114
116269
116531
114078
114393
111693
112025
108339
109922
103850
107603
98457.8
104814
91801
101866
83743.5
98697.9
73080.6
95092.7
57409.9
88934.5
32569
79377.3
-3047.44
65388
-58687.5
42322.9
-134194
24719.5
-86588
25587.8
-47925.1
32727.6
-20740.9
38750.3
622.323
43670.7
18025.9
47804.7
31384.4
51486.3
41096.5
54529.6
48158
57169.7
53566.8
59326.6
57921.5
61548.8
61272.5
63968.8
64090.9
66069.7
66611.4
67830
68684.4
69399.2
70311.2
70786
71678.1
72021.5
72916.1
73133.8
74121.1
74191.9
75359
75215.4
76709.2
76240.5
78230.8
77250.8
80042.2
78209.2
126326
126271
126224
126134
126067
125949
125859
125717
125589
125416
125244
125032
124810
124550
124271
123951
123608
123220
122802
122332
121834
121263
120701
119952
119445
118294
118110
116260
116530
114069
114391
111686
112020
108333
109920
103840
107605
98445.6
104818
91790
101867
83729.6
98689.7
73059
95070.6
57373
88909.1
32539
79357.2
-3074.51
65367.6
-58634.1
42366.2
-133834
24815.9
-86519.3
25631.4
-47934
32740.5
-20751.8
38752.9
613.429
43666.7
18014.5
47798
31367.2
51483.2
41077.8
54530.2
48141.7
57171.2
53557.5
59325.2
57918.1
61548.5
61267
63970.6
64083.6
66069.8
66605.7
67827.6
68680.7
69396.8
70309.5
70784.8
71678.1
72022.1
72918.1
73136
74125.1
74195.6
75364.6
75220.3
76715.7
76246.2
78236.6
77257.3
80043.4
78216.3
126316
126263
126215
126126
126059
125942
125852
125710
125582
125409
125237
125025
124803
124543
124264
123944
123601
123213
122795
122326
121828
121256
120694
119946
119439
118287
118107
116251
116529
114059
114389
111679
112015
108327
109917
103830
107606
98433.4
104821
91778.9
101868
83715.7
98681.6
73037.4
95048.7
57336.4
88883.9
32509.1
79337.1
-3101.38
65347.5
-58580.8
42408.4
-133478
24913.8
-86450.1
25675
-47942.7
32753.4
-20762.7
38755.5
604.569
43662.8
18003.1
47791.3
31350.1
51480.1
41059.2
54530.8
48125.5
57172.7
53548.2
59323.8
57914.8
61548.1
61261.5
63972.4
64076.2
66069.9
66600.1
67825.3
68677.2
69394.3
70307.7
70783.7
71678.2
72022.7
72920.1
73138.2
74129
74199.3
75370.1
75225.1
76722.3
76251.9
78242.3
77263.7
80044.6
78223.4
126307
126255
126207
126119
126051
125935
125845
125703
125575
125402
125230
125018
124796
124536
124257
123937
123594
123206
122788
122319
121821
121249
120688
119939
119434
118280
118104
116242
116528
114049
114387
111673
112010
108321
109915
103820
107607
98421.3
104824
91767.8
101869
83701.7
98673.4
73015.8
95026.8
57300
88858.8
32479.3
79317.1
-3128.05
65327.7
-58527.6
42450
-133124
25013.3
-86380.6
25718.4
-47951.2
32766.3
-20773.4
38758.1
595.74
43658.9
17991.8
47784.7
31333.2
51476.9
41040.7
54531.4
48109.4
57174.2
53538.9
59322.4
57911.4
61547.8
61256
63974.2
64069
66070.1
66594.4
67823
68673.6
69391.8
70306
70782.5
71678.2
72023.3
72922.1
73140.4
74133
74203
75375.5
75229.9
76728.7
76257.5
78248
77270.1
80045.6
78230.5
126298
126246
126198
126112
126044
125928
125838
125696
125568
125395
125223
125011
124789
124529
124250
123930
123587
123199
122781
122312
121814
121243
120682
119933
119428
118273
118100
116233
116526
114040
114384
111666
112005
108315
109912
103810
107609
98409.2
104828
91756.8
101870
83687.8
98665.3
72994.3
95005
57263.8
88833.9
32449.7
79297.2
-3154.52
65308.1
-58474.4
42491.3
-132773
25114
-86311
25761.6
-47959.6
32779.1
-20784.1
38760.7
586.946
43655
17980.5
47778.2
31316.3
51473.9
41022.3
54532
48093.3
57175.7
53529.7
59321
57908
61547.5
61250.5
63975.9
64061.7
66070.2
66588.9
67820.7
68670
69389.4
70304.3
70781.4
71678.3
72023.8
72924.1
73142.6
74136.8
74206.7
75380.9
75234.6
76735.1
76263.1
78253.5
77276.4
80046.6
78237.6
126288
126238
126190
126104
126036
125921
125831
125689
125561
125388
125216
125005
124783
124522
124243
123924
123580
123192
122775
122305
121808
121236
120676
119926
119423
118266
118097
116224
116525
114030
114382
111659
112001
108309
109910
103800
107610
98397.1
104831
91745.7
101870
83673.9
98657.1
72972.9
94983.3
57227.8
88809.1
32420.1
79277.4
-3180.77
65288.7
-58421.3
42532.6
-132426
25215.8
-86241.6
25804.7
-47967.9
32791.9
-20794.7
38763.3
578.182
43651.1
17969.3
47771.6
31299.5
51470.8
41003.9
54532.6
48077.3
57177.1
53520.5
59319.5
57904.7
61547.1
61245
63977.7
64054.5
66070.3
66583.3
67818.4
68666.5
69387
70302.6
70780.2
71678.3
72024.4
72926.1
73144.7
74140.7
74210.3
75386.3
75239.4
76741.3
76268.7
78258.9
77282.7
80047.5
78244.6
126279
126230
126182
126097
126029
125914
125824
125683
125555
125382
125210
124998
124776
124515
124236
123917
123573
123185
122768
122298
121801
121230
120669
119920
119418
118258
118093
116215
116524
114021
114380
111653
111996
108304
109907
103790
107611
98385.1
104834
91734.6
101871
83659.9
98649
72951.5
94961.7
57192.1
88784.5
32390.7
79257.7
-3206.82
65269.5
-58368.3
42574.1
-132083
25318.4
-86172.5
25847.4
-47976.1
32804.7
-20805.3
38765.9
569.452
43647.3
17958.2
47765.1
31282.7
51467.7
40985.7
54533.2
48061.4
57178.6
53511.4
59318.1
57901.3
61546.8
61239.5
63979.4
64047.3
66070.4
66577.8
67816.1
68663
69384.5
70300.9
70779.1
71678.4
72025
72928.1
73146.8
74144.5
74213.9
75391.6
75244
76747.6
76274.2
78264.3
77289
80048.3
78251.5
126270
126222
126173
126090
126021
125908
125817
125676
125548
125375
125203
124991
124769
124508
124229
123910
123566
123178
122761
122292
121794
121223
120663
119914
119412
118251
118090
116207
116522
114011
114378
111646
111991
108298
109905
103780
107613
98373.1
104838
91723.5
101872
83646
98640.8
72930.1
94940.2
57156.5
88760
32361.3
79238.1
-3232.66
65250.7
-58315.3
42616
-131744
25421.4
-86103.8
25890
-47984.2
32817.5
-20815.8
38768.5
560.751
43643.5
17947.1
47758.7
31266.1
51464.7
40967.5
54533.8
48045.5
57180
53502.3
59316.6
57898
61546.4
61234
63981.2
64040.1
66070.5
66572.2
67813.9
68659.5
69382.1
70299.2
70778
71678.4
72025.5
72930
73148.9
74148.3
74217.5
75396.9
75248.7
76753.7
76279.8
78269.6
77295.2
80049.1
78258.4
126261
126214
126165
126083
126014
125901
125810
125669
125541
125368
125196
124984
124762
124501
124222
123903
123560
123171
122754
122285
121788
121217
120657
119907
119407
118244
118087
116198
116521
114002
114376
111639
111986
108292
109902
103770
107614
98361.1
104841
91712.4
101872
83632.1
98632.7
72908.9
94918.8
57121.2
88735.6
32332.1
79218.5
-3258.3
65232
-58262.3
42658.4
-131408
25524.6
-86035.8
25932.2
-47992.1
32830.2
-20826.2
38771.1
552.084
43639.8
17936
47752.3
31249.5
51461.7
40949.4
54534.4
48029.7
57181.4
53493.2
59315.1
57894.6
61546.1
61228.5
63982.9
64033
66070.6
66566.8
67811.6
68656
69379.7
70297.5
70776.8
71678.4
72026
72931.9
73151
74152
74221.1
75402.1
75253.3
76759.8
76285.2
78274.7
77301.4
80049.7
78265.3
126252
126206
126157
126076
126007
125894
125803
125663
125534
125362
125189
124978
124755
124494
124216
123896
123553
123165
122748
122278
121781
121211
120651
119901
119402
118238
118083
116189
116520
113993
114374
111633
111981
108287
109900
103760
107615
98349.2
104844
91701.3
101873
83618.1
98624.5
72887.6
94897.4
57086.1
88711.4
32303
79199
-3283.72
65213.6
-58209.3
42701.5
-131077
25627.5
-85968.5
25974.2
-47999.9
32842.9
-20836.5
38773.6
543.446
43636
17925
47745.9
31233.1
51458.7
40931.4
54535
48014
57182.8
53484.2
59313.6
57891.3
61545.7
61223.1
63984.6
64025.8
66070.8
66561.3
67809.3
68652.6
69377.3
70295.8
70775.7
71678.4
72026.6
72933.8
73153.1
74155.8
74224.6
75407.3
75257.9
76765.8
76290.7
78279.8
77307.6
80050.3
78272.2
126243
126198
126149
126069
125999
125887
125796
125656
125528
125355
125183
124971
124749
124488
124209
123889
123546
123158
122741
122272
121775
121204
120645
119895
119397
118231
118080
116181
116519
113983
114372
111626
111977
108281
109897
103751
107617
98337.3
104847
91690.2
101874
83604.2
98616.4
72866.4
94876.2
57051.2
88687.3
32274
79179.7
-3308.94
65195.5
-58156.4
42745.2
-130749
25729.9
-85902.1
26015.8
-48007.6
32855.6
-20846.8
38776.2
534.842
43632.3
17914
47739.6
31216.7
51455.7
40913.5
54535.6
47998.3
57184.2
53475.2
59312.1
57887.9
61545.3
61217.6
63986.3
64018.8
66070.9
66555.9
67807.1
68649.2
69375
70294.1
70774.6
71678.4
72027.1
72935.7
73155.1
74159.5
74228.1
75412.4
75262.5
76771.8
76296.1
78284.8
77313.7
80050.8
78279
126234
126190
126141
126062
125992
125881
125789
125650
125521
125349
125176
124964
124742
124481
124202
123883
123539
123151
122734
122265
121769
121198
120639
119888
119391
118224
118076
116172
116517
113974
114370
111620
111972
108276
109895
103741
107618
98325.4
104850
91679.1
101874
83590.3
98608.3
72845.3
94855
57016.6
88663.4
32245.1
79160.4
-3333.94
65177.6
-58103.4
42789.7
-130425
25831.4
-85836.5
26057.2
-48015.2
32868.2
-20857
38778.8
526.267
43628.6
17903.1
47733.4
31200.4
51452.8
40895.7
54536.2
47982.7
57185.6
53466.3
59310.6
57884.6
61544.9
61212.2
63988
64011.7
66071
66550.5
67804.9
68645.7
69372.6
70292.4
70773.5
71678.5
72027.6
72937.6
73157.1
74163.2
74231.5
75417.5
75267
76777.7
76301.5
78289.7
77319.8
80051.3
78285.8
126225
126182
126133
126055
125985
125874
125783
125643
125514
125342
125169
124958
124735
124474
124195
123876
123533
123144
122728
122259
121762
121192
120633
119882
119386
118217
118073
116163
116516
113965
114368
111613
111967
108270
109892
103732
107619
98313.6
104853
91668
101875
83576.3
98600.1
72824.3
94833.9
56982.1
88639.6
32216.3
79141.2
-3358.73
65159.9
-58050.4
42834.9
-130105
25931.8
-85771.9
26098.2
-48022.7
32880.8
-20867.2
38781.4
517.726
43624.9
17892.2
47727.1
31184.2
51449.8
40877.9
54536.8
47967.2
57186.9
53457.4
59309.1
57881.3
61544.5
61206.7
63989.7
64004.7
66071.1
66545.2
67802.7
68642.3
69370.3
70290.7
70772.3
71678.5
72028.1
72939.5
73159.1
74166.8
74235
75422.5
75271.6
76783.5
76306.8
78294.6
77325.9
80051.7
78292.5
126217
126174
126125
126047
125977
125867
125776
125636
125508
125335
125163
124951
124729
124468
124189
123869
123526
123138
122721
122252
121756
121185
120627
119876
119381
118210
118070
116155
116515
113955
114366
111607
111963
108265
109890
103722
107620
98301.8
104857
91656.9
101875
83562.4
98592
72803.3
94812.9
56947.9
88616
32187.6
79122.1
-3383.32
65142.5
-57997.5
42880.6
-129789
26030.8
-85708.2
26139
-48030.1
32893.3
-20877.3
38784
509.214
43621.3
17881.4
47720.9
31168
51446.9
40860.3
54537.4
47951.7
57188.3
53448.5
59307.5
57877.9
61544.1
61201.3
63991.4
63997.7
66071.2
66539.8
67800.5
68639
69367.9
70289
70771.2
71678.5
72028.6
72941.3
73161.1
74170.4
74238.4
75427.5
75276
76789.2
76312.1
78299.3
77331.9
80052
78299.2
126208
126166
126117
126040
125970
125861
125769
125630
125501
125329
125156
124944
124722
124461
124182
123863
123519
123131
122715
122246
121749
121179
120621
119870
119376
118203
118066
116146
116514
113946
114364
111600
111958
108259
109887
103713
107622
98290.1
104860
91645.9
101876
83548.5
98583.9
72782.3
94792
56913.9
88592.5
32159.1
79103.1
-3407.69
65125.3
-57944.5
42927
-129476
26128.3
-85645.4
26179.5
-48037.4
32905.8
-20887.3
38786.5
500.737
43617.7
17870.6
47714.8
31152
51444
40842.7
54538
47936.3
57189.6
53439.7
59306
57874.6
61543.7
61195.9
63993.1
63990.7
66071.3
66534.5
67798.3
68635.6
69365.6
70287.4
70770.1
71678.4
72029.1
72943.2
73163.1
74174
74241.8
75432.5
75280.5
76794.9
76317.4
78304
77337.9
80052.2
78305.9
126199
126158
126109
126034
125963
125854
125762
125623
125494
125322
125150
124938
124715
124455
124176
123856
123513
123125
122708
122239
121743
121173
120615
119864
119371
118197
118063
116138
116512
113937
114362
111593
111953
108254
109884
103703
107623
98278.4
104863
91634.8
101876
83534.6
98575.8
72761.5
94771.1
56880.1
88569.1
32130.6
79084.1
-3431.85
65108.4
-57891.6
42973.9
-129167
26224.1
-85583.5
26219.7
-48044.6
32918.2
-20897.3
38789.1
492.29
43614.1
17859.9
47708.7
31136
51441.1
40825.2
54538.6
47921
57190.9
53430.9
59304.4
57871.3
61543.3
61190.5
63994.8
63983.8
66071.4
66529.3
67796.1
68632.3
69363.3
70285.7
70769
71678.4
72029.6
72945
73165
74177.6
74245.2
75437.4
75284.9
76800.5
76322.7
78308.5
77343.9
80052.4
78312.5
126191
126150
126101
126027
125956
125848
125755
125617
125488
125316
125143
124931
124709
124448
124169
123849
123506
123118
122702
122233
121737
121167
120609
119858
119366
118190
118060
116129
116511
113928
114360
111587
111949
108249
109882
103694
107624
98266.7
104866
91623.7
101876
83520.6
98567.7
72740.6
94750.4
56846.5
88545.9
32102.3
79065.3
-3455.8
65091.7
-57838.6
43021.3
-128862
26318.2
-85522.5
26259.6
-48051.6
32930.6
-20907.2
38791.6
483.877
43610.5
17849.2
47702.6
31120.2
51438.2
40807.8
54539.2
47905.7
57192.2
53422.2
59302.8
57867.9
61542.9
61185.1
63996.5
63976.8
66071.5
66524
67794
68628.9
69361
70284.1
70767.9
71678.4
72030
72946.8
73166.9
74181.1
74248.5
75442.2
75289.3