/*--------------------------------*- C++ -*----------------------------------*\
| =========                 |                                                 |
| \\      /  F ield         | OpenFOAM: The Open Source CFD Toolbox           |
|  \\    /   O peration     | Version:  2412                                  |
|   \\  /    A nd           | Website:  www.openfoam.com                      |
|    \\/     M anipulation  |                                                 |
\*---------------------------------------------------------------------------*/
FoamFile
{
    version     2.0;
    format      ascii;
    arch        "LSB;label=32;scalar=64";
    class       surfaceScalarField;
    location    "0.1";
    object      phi;
}
// * * * * * * * * * * * * * * * * * * * * * * * * * * * * * * * * * * * * * //

dimensions      [0 3 -1 0 0 0 0];

oriented        oriented;

internalField   nonuniform List<scalar> 
25926
(
0.00748771
-0.022673
0.00743569
-0.00486169
0.00741523
0.00841224
0.00740736
0.0117836
0.00740138
0.0100938
0.00739504
0.00801141
0.00738957
0.00679607
0.0073855
0.00586946
0.007382
0.00506909
0.00737915
0.00433827
0.0073763
0.00368201
0.00737347
0.00309796
0.00737024
0.00256799
0.00736662
0.00209475
0.00736242
0.00166984
0.00735764
0.00128605
0.00735218
0.000929472
0.00734606
0.000626786
0.00733928
0.00035365
0.00733189
0.000123153
0.00732398
-7.07252e-05
0.00731564
-0.000235416
0.0073069
-0.000382848
0.00729805
-0.000461113
0.00728889
-0.000568572
0.00728007
-0.000549352
0.00727073
-0.000676764
0.00726252
-0.000487378
0.00725301
-0.000759966
0.00724562
-0.000284988
0.00723574
-0.000785426
0.00722882
-5.49287e-06
0.00721811
-0.000736798
0.00721193
0.000426137
0.00720035
-0.000568035
0.00719496
0.00111267
0.00717987
-0.000324386
0.00717404
0.00229116
0.00716089
0.000651911
0.00716915
0.00476168
0.00717272
0.00262604
0.00720556
0.00776142
0.00723174
0.00418265
0.00729018
0.00917347
0.00732122
0.00213033
0.00735351
0.00467307
0.00732227
-0.00600912
0.00732994
-0.000639004
0.00732289
-0.00851531
0.00738183
-0.00623299
0.00743995
-0.0156575
0.00756504
-0.0372828
0.0077827
-0.0593291
0.00786739
0.00516199
0.00769897
0.0398454
0.00756457
0.0188346
0.00747875
0.00470192
0.00745433
0.00526803
0.00743297
-7.8916e-05
0.00742943
0.00289886
0.00741506
-0.000732623
0.00742425
0.00307084
0.00742699
0.000214063
0.00744586
0.00358748
0.00745172
0.000357926
0.0074648
0.00236645
0.00746088
-0.0011766
0.00746105
6.54889e-05
0.0074464
-0.00289757
0.00743459
-0.00224187
0.00741299
-0.00432567
0.00739248
-0.00383684
0.00736729
-0.00492778
0.00734792
-0.00413794
0.00733179
-0.00424595
0.00732299
-0.00327771
-0.00306755
0.00748761
-0.0225849
0.0074361
-0.00481018
0.00741633
0.00843201
0.00740905
0.0117909
0.00740352
0.0100993
0.00739754
0.00801738
0.00739239
0.00680122
0.00738858
0.00587327
0.00738529
0.00507237
0.00738263
0.00434093
0.00737994
0.00368469
0.00737724
0.00310065
0.00737414
0.00257109
0.00737063
0.00209826
0.00736653
0.00167393
0.00736184
0.00129073
0.00735647
0.000934845
0.00735044
0.000632811
0.00734374
0.000360347
0.00733643
0.000130457
0.0073286
-6.2897e-05
0.00732033
-0.000227156
0.00731168
-0.000374195
0.0073029
-0.000452335
0.00729382
-0.000559496
0.00728506
-0.000540604
0.0072758
-0.000667506
0.00726765
-0.00047923
0.00725821
-0.000750528
0.00725088
-0.00027766
0.00724107
-0.000775619
0.00723421
1.35763e-06
0.00722357
-0.000726166
0.00721747
0.000432236
0.00720597
-0.000556538
0.00720066
0.00111797
0.00718573
-0.000309456
0.00718009
0.00229679
0.00716717
0.000664827
0.00717559
0.00475326
0.00717929
0.00262234
0.00721215
0.00772856
0.00723824
0.00415656
0.00729638
0.00911532
0.00732707
0.00209964
0.00735918
0.00464096
0.00732817
-0.00597813
0.00733596
-0.000646792
0.00732884
-0.00850821
0.00738705
-0.0062912
0.00744398
-0.0157144
0.00756472
-0.0374035
0.00777587
-0.0595403
0.00785998
0.00507781
0.00769654
0.0400089
0.00756541
0.0189657
0.00748091
0.00478641
0.0074569
0.00529205
0.00743567
-5.7693e-05
0.00743218
0.00290232
0.00741784
-0.000718244
0.00742706
0.00306163
0.00742976
0.000211364
0.00744854
0.00356871
0.00745433
0.000352135
0.00746737
0.00235342
0.00746345
-0.00117269
0.00746362
6.53133e-05
0.00744903
-0.00288296
0.00743729
-0.00223013
0.00741578
-0.00430416
0.00739537
-0.00381643
0.0073703
-0.0049027
0.007351
-0.00411864
0.00733486
-0.00422982
0.00732603
-0.00326886
-0.00306205
0.00748751
-0.0224966
0.00743648
-0.00475916
0.0074174
0.00845108
0.00741072
0.0117976
0.00740564
0.0101044
0.00740003
0.00802299
0.0073952
0.00680606
0.00739165
0.00587681
0.00738859
0.00507543
0.00738611
0.0043434
0.00738358
0.00368722
0.00738103
0.0031032
0.00737805
0.00257406
0.00737465
0.00210166
0.00737065
0.00167792
0.00736606
0.00129531
0.00736078
0.000940126
0.00735484
0.000638749
0.00734822
0.00036696
0.007341
0.000137676
0.00733325
-5.51501e-05
0.00732506
-0.000218977
0.00731648
-0.00036562
0.00730778
-0.000443637
0.00729877
-0.00055049
0.0072901
-0.000531931
0.0072809
-0.000658318
0.00727282
-0.000471152
0.00726345
-0.000741161
0.00725618
-0.000270389
0.00724643
-0.00076588
0.00723965
8.13997e-06
0.00722909
-0.000715608
0.00722306
0.000438258
0.00721164
-0.000545122
0.00720642
0.0011232
0.00719163
-0.000294677
0.00718619
0.00230223
0.00717349
0.000677522
0.00718207
0.00474468
0.00718589
0.00261851
0.00721877
0.00769568
0.00724476
0.00413055
0.00730261
0.00905747
0.00733295
0.0020693
0.00736487
0.00460904
0.0073341
-0.00594736
0.00734199
-0.000654685
0.00733478
-0.00850101
0.00739225
-0.00634866
0.00744794
-0.0157701
0.00756432
-0.0375199
0.00776902
-0.059745
0.00785256
0.00499419
0.00769407
0.0401675
0.00756618
0.0190937
0.007483
0.00486958
0.00745944
0.00531562
0.00743834
-3.66017e-05
0.00743492
0.00290572
0.00742064
-0.000703924
0.0074299
0.00305239
0.00743256
0.000208706
0.00745124
0.00355004
0.00745697
0.000346409
0.00746998
0.00234042
0.00746607
-0.00116878
0.00746625
6.51344e-05
0.00745171
-0.00286842
0.00744005
-0.00221846
0.00741863
-0.00428274
0.00739833
-0.00379612
0.00737336
-0.00487774
0.00735413
-0.0040994
0.007338
-0.00421368
0.00732911
-0.00325998
-0.0030564
0.00748741
-0.0224083
0.00743685
-0.00470861
0.00741846
0.00846947
0.00741238
0.0118037
0.00740777
0.010109
0.00740252
0.00802824
0.00739801
0.00681056
0.00739472
0.0058801
0.00739189
0.00507826
0.0073896
0.00434569
0.00738723
0.00368959
0.00738482
0.00310561
0.00738197
0.00257691
0.00737868
0.00210494
0.00737479
0.00168181
0.0073703
0.0012998
0.00736511
0.000945317
0.00735925
0.0006446
0.00735272
0.000373485
0.00734558
0.000144812
0.00733792
-4.7489e-05
0.00732982
-0.00021088
0.00732131
-0.000357121
0.00731269
-0.000435017
0.00730376
-0.000541562
0.00729515
-0.000523331
0.00728604
-0.000649203
0.00727802
-0.000463139
0.00726872
-0.000731864
0.00726151
-0.00026318
0.00725183
-0.000756211
0.00724512
1.4854e-05
0.00723463
-0.000705127
0.00722869
0.000444201
0.00721735
-0.000533787
0.00721221
0.00112833
0.00719757
-0.000280048
0.00719233
0.00230748
0.00717984
0.000689997
0.00718858
0.00473594
0.00719252
0.00261457
0.00722542
0.00766278
0.00725132
0.00410465
0.00730887
0.00899991
0.00733886
0.00203931
0.0073706
0.0045773
0.00734004
-0.00591682
0.00734803
-0.000662671
0.00734071
-0.0084937
0.00739741
-0.00640537
0.00745184
-0.0158246
0.00756388
-0.0376319
0.00776216
-0.0599433
0.00784513
0.00491116
0.00769156
0.0403211
0.00756686
0.0192184
0.00748503
0.00495139
0.00746195
0.00533872
0.00744098
-1.56454e-05
0.00743765
0.00290903
0.00742346
-0.000689695
0.00743276
0.00304311
0.00743538
0.000206085
0.00745398
0.00353144
0.00745966
0.000340739
0.00747264
0.00232744
0.00746874
-0.00116488
0.00746892
6.49493e-05
0.00745445
-0.00285394
0.00744286
-0.00220686
0.00742153
-0.00426141
0.00740133
-0.00377591
0.00737647
-0.00485289
0.00735731
-0.00408023
0.00734117
-0.00419754
0.00733225
-0.00325105
-0.00305061
0.00748731
-0.0223198
0.00743722
-0.00465852
0.00741951
0.00848717
0.00741404
0.0118091
0.0074099
0.0101131
0.00740502
0.00803311
0.00740083
0.00681475
0.0073978
0.00588312
0.00739519
0.00508087
0.00739309
0.00434778
0.00739089
0.00369179
0.00738862
0.00310788
0.00738589
0.00257963
0.00738272
0.00210811
0.00737894
0.00168559
0.00737455
0.00130419
0.00736945
0.000950413
0.00736368
0.00065036
0.00735724
0.000379923
0.00735019
0.000151862
0.0073426
-3.99089e-05
0.00733458
-0.000202865
0.00732616
-0.000348704
0.00731762
-0.000426477
0.00730876
-0.000532707
0.00730024
-0.00051481
0.00729119
-0.000640162
0.00728325
-0.000455198
0.00727401
-0.000722635
0.00726687
-0.000256037
0.00725726
-0.00074661
0.00725062
2.14987e-05
0.00724021
-0.000694724
0.00723434
0.000450065
0.00722309
-0.000522536
0.00721803
0.00113338
0.00720355
-0.000265569
0.0071985
0.00231253
0.00718623
0.000702256
0.00719513
0.00472704
0.00719918
0.00261051
0.0072321
0.00762986
0.0072579
0.00407884
0.00731516
0.00894265
0.00734479
0.00200967
0.00737635
0.00454574
0.007346
-0.00588647
0.00735407
-0.000670742
0.00734661
-0.00848625
0.00740255
-0.00646131
0.00745568
-0.0158777
0.00756341
-0.0377396
0.00775529
-0.0601352
0.00783767
0.00482872
0.00768901
0.0404698
0.00756747
0.0193399
0.007487
0.00503185
0.00746441
0.00536132
0.00744359
5.16998e-06
0.00744037
0.00291223
0.00742628
-0.000675577
0.00743563
0.00303378
0.00743822
0.000203498
0.00745676
0.00351291
0.00746237
0.000335125
0.00747534
0.00231448
0.00747144
-0.00116098
0.00747163
6.47535e-05
0.00745723
-0.00283952
0.00744571
-0.00219534
0.00742447
-0.00424017
0.00740437
-0.0037558
0.00737963
-0.00482814
0.00736053
-0.00406113
0.00734439
-0.0041814
0.00733543
-0.00324208
0.0073295
-0.00304467
0.00732731
-0.00248533
0.00732635
-0.00231909
0.00732565
-0.00222979
0.00732295
-0.00230197
0.00731702
-0.0026043
0.00730842
-0.00273859
0.00729694
-0.00307226
0.00728424
-0.00304701
0.00726927
-0.00324976
0.00725461
-0.0029628
0.0072382
-0.00289947
0.00722392
-0.00225364
0.00720698
-0.00189385
0.0071934
-0.00089807
0.00717472
-8.1148e-05
0.00716073
0.00129663
0.00713924
0.00295721
0.00712429
0.00476362
0.00710428
0.00804379
0.00709194
0.0103737
0.0070931
0.0164382
0.0205172
0.00748724
-0.0222313
0.0074376
-0.00460889
0.00742055
0.00850421
0.0074157
0.011814
0.00741202
0.0101168
0.00740751
0.00803762
0.00740364
0.00681862
0.00740088
0.00588587
0.0073985
0.00508325
0.00739659
0.00434969
0.00739455
0.00369382
0.00739242
0.00311
0.00738983
0.00258222
0.00738677
0.00211116
0.0073831
0.00168926
0.00737881
0.00130848
0.0073738
0.000955417
0.00736812
0.000656031
0.00736177
0.000386273
0.0073548
0.000158825
0.00734731
-3.24139e-05
0.00733937
-0.000194933
0.00733103
-0.000340368
0.00732257
-0.000418016
0.00731379
-0.000523933
0.00730534
-0.000506364
0.00729637
-0.000631195
0.00728849
-0.000447328
0.00727933
-0.000713479
0.00727225
-0.00024896
0.00726272
-0.00073708
0.00725614
2.80735e-05
0.00724582
-0.000684402
0.00724003
0.00045585
0.00722886
-0.000511371
0.00722389
0.00113834
0.00720956
-0.00025124
0.0072047
0.00231739
0.00719265
0.0007143
0.0072017
0.00471799
0.00720587
0.00260633
0.0072388
0.00759693
0.0072645
0.00405314
0.00732147
0.00888568
0.00735075
0.00198038
0.00738212
0.00451438
0.00735196
-0.00585632
0.00736011
-0.000678888
0.0073525
-0.00847866
0.00740766
-0.00651647
0.00745947
-0.0159295
0.00756291
-0.0378431
0.00774843
-0.0603208
0.0078302
0.00474691
0.00768643
0.0406136
0.00756802
0.0194584
0.00748892
0.00511094
0.00746685
0.00538341
0.00744617
2.58427e-05
0.00744308
0.00291531
0.00742913
-0.000661597
0.00743853
0.00302439
0.00744108
0.000200941
0.00745955
0.00349445
0.00746512
0.000329558
0.00747807
0.00230154
0.00747418
-0.00115709
0.00747438
6.45445e-05
0.00746005
-0.00282519
0.00744861
-0.00218389
0.00742745
-0.00421901
0.00740746
-0.0037358
0.00738282
-0.00480351
0.00736379
-0.00404209
0.00734766
-0.00416526
0.00733865
-0.00323307
0.00733258
-0.0030386
0.00733021
-0.00248296
0.0073291
-0.00231797
0.00732831
-0.00222899
0.00732557
-0.00229922
0.00731963
-0.00259836
0.00731106
-0.00273001
0.00729962
-0.00306082
0.00728699
-0.00303437
0.0072721
-0.00323487
0.00725753
-0.00294823
0.00724122
-0.00288315
0.00722705
-0.00223947
0.00721027
-0.00187706
0.00719684
-0.000884641
0.00717839
-6.2699e-05
0.00716467
0.00131036
0.00714362
0.00297826
0.00712911
0.00477813
0.00710988
0.00806302
0.00709831
0.0103853
0.0071006
0.0164359
0.0205025
0.00748717
-0.0221427
0.00743797
-0.0045597
0.00742159
0.00852059
0.00741735
0.0118182
0.00741414
0.01012
0.00741001
0.00804176
0.00740646
0.00682216
0.00740397
0.00588836
0.00740181
0.0050854
0.00740009
0.00435141
0.00739821
0.0036957
0.00739623
0.00311198
0.00739377
0.00258469
0.00739083
0.0021141
0.00738726
0.00169283
0.00738307
0.00131266
0.00737816
0.000960325
0.00737258
0.000661609
0.00736631
0.000392535
0.00735943
0.0001657
0.00735202
-2.50045e-05
0.00734417
-0.000187086
0.00733591
-0.000332112
0.00732753
-0.000409639
0.00731883
-0.000515235
0.00731046
-0.000497997
0.00730157
-0.000622304
0.00729376
-0.000439531
0.00728468
-0.000704394
0.00727766
-0.000241949
0.0072682
-0.000727622
0.00726169
3.4577e-05
0.00725145
-0.000674161
0.00724574
0.000461555
0.00723466
-0.000500291
0.00722978
0.00114321
0.0072156
-0.000237061
0.00721093
0.00232205
0.00719909
0.00072613
0.0072083
0.00470878
0.00721259
0.00260204
0.00724553
0.00756398
0.00727113
0.00402753
0.0073278
0.008829
0.00735674
0.00195145
0.00738791
0.0044832
0.00735793
-0.00582635
0.00736614
-0.000687099
0.00735836
-0.00847089
0.00741274
-0.00657085
0.00746321
-0.01598
0.0075624
-0.0379422
0.00774158
-0.0605
0.0078227
0.00466575
0.00768382
0.0407525
0.00756852
0.0195737
0.00749079
0.00518865
0.00746925
0.00540496
0.00744872
4.63687e-05
0.00744577
0.00291824
0.00743198
-0.000647774
0.00744144
0.00301495
0.00744396
0.000198414
0.00746238
0.00347605
0.0074679
0.000324037
0.00748084
0.00228861
0.00747695
-0.0011532
0.00747717
6.43195e-05
0.00746292
-0.00281093
0.00745154
-0.00217251
0.00743047
-0.00419794
0.00741058
-0.0037159
0.00738605
-0.00477898
0.00736709
-0.00402313
0.00735095
-0.00414912
0.00734191
-0.00322403
0.00733571
-0.0030324
0.00733315
-0.00248039
0.00733191
-0.00231672
0.00733103
-0.00222811
0.00732823
-0.00229642
0.00732228
-0.00259241
0.00731374
-0.00272147
0.00730236
-0.00304943
0.00728979
-0.00302181
0.00727498
-0.00322005
0.0072605
-0.00293374
0.00724429
-0.00286694
0.00723024
-0.00222542
0.00721359
-0.0018604
0.00720032
-0.000871365
0.00718211
-4.44813e-05
0.00716864
0.00132384
0.00714803
0.00299887
0.00713396
0.0047922
0.00711549
0.0080815
0.00710467
0.0103961
0.00710808
0.0164325
0.0204866
0.00748711
-0.0220541
0.00743835
-0.00451095
0.00742262
0.00853632
0.00741899
0.0118219
0.00741627
0.0101227
0.0074125
0.00804552
0.00740928
0.00682538
0.00740705
0.00589059
0.00740512
0.00508733
0.00740359
0.00435293
0.00740188
0.0036974
0.00740005
0.00311382
0.00739772
0.00258702
0.0073949
0.00211691
0.00739144
0.00169629
0.00738735
0.00131675
0.00738253
0.000965139
0.00737704
0.000667096
0.00737087
0.000398704
0.00736407
0.000172489
0.00735675
-1.7682e-05
0.00734898
-0.000179323
0.00734081
-0.000323942
0.00733251
-0.000401341
0.00732389
-0.000506618
0.00731559
-0.000489709
0.00730678
-0.000613491
0.00729905
-0.000431805
0.00729003
-0.000695382
0.00728309
-0.000235008
0.0072737
-0.000718236
0.00726727
4.10083e-05
0.00725711
-0.000664005
0.00725148
0.00046718
0.00724048
-0.0004893
0.0072357
0.00114799
0.00722167
-0.000223033
0.00721719
0.00232653
0.00720556
0.000737748
0.00721492
0.00469941
0.00721932
0.00259764
0.00725228
0.00753102
0.00727778
0.00400203
0.00733416
0.00877262
0.00736273
0.00192286
0.00739372
0.00445222
0.00736391
-0.00579655
0.00737218
-0.000695365
0.00736421
-0.00846293
0.0074178
-0.00662443
0.00746692
-0.0160292
0.00756189
-0.0380372
0.00773474
-0.0606728
0.00781517
0.00458528
0.00768118
0.0408866
0.00756896
0.0196859
0.00749262
0.00526499
0.00747162
0.00542596
0.00745124
6.67472e-05
0.00744846
0.00292101
0.00743484
-0.000634132
0.00744436
0.00300544
0.00744686
0.00019591
0.00746522
0.0034577
0.0074707
0.000318554
0.00748363
0.0022757
0.00747974
-0.00114931
0.00747999
6.40759e-05
0.00746582
-0.00279675
0.00745451
-0.0021612
0.00743353
-0.00417695
0.00741373
-0.0036961
0.00738931
-0.00475456
0.00737042
-0.00400423
0.00735428
-0.00413297
0.0073452
-0.00321494
0.00733888
-0.00302607
0.00733614
-0.00247765
0.00733476
-0.00231534
0.0073338
-0.00222715
0.00733095
-0.00229356
0.00732499
-0.00258644
0.00731647
-0.00271294
0.00730513
-0.00303809
0.00729264
-0.0030093
0.0072779
-0.0032053
0.00726351
-0.00291935
0.0072474
-0.00285083
0.00723345
-0.00221147
0.00721695
-0.00184389
0.00720383
-0.000858242
0.00718585
-2.65059e-05
0.00717264
0.00133706
0.00715247
0.00301904
0.00713884
0.00480584
0.00712112
0.00809922
0.00711104
0.0104062
0.00711555
0.016428
0.0204696
0.00748706
-0.0219654
0.00743874
-0.00446263
0.00742365
0.0085514
0.00742063
0.0118249
0.00741838
0.010125
0.00741499
0.00804891
0.0074121
0.00682828
0.00741013
0.00589255
0.00740843
0.00508903
0.00740709
0.00435427
0.00740555
0.00369894
0.00740387
0.0031155
0.00740166
0.00258921
0.00739897
0.00211961
0.00739562
0.00169964
0.00739162
0.00132074
0.0073869
0.000969856
0.00738151
0.000672489
0.00737542
0.000404786
0.00736872
0.000179188
0.00736148
-1.04465e-05
0.0073538
-0.000171646
0.00734571
-0.000315856
0.00733749
-0.000393127
0.00732896
-0.000498083
0.00732074
-0.000481499
0.007312
-0.000604755
0.00730435
-0.000424157
0.0072954
-0.00068644
0.00728853
-0.00022814
0.00727922
-0.000708923
0.00727285
4.73697e-05
0.00726278
-0.000653933
0.00725723
0.000472724
0.00724633
-0.000478398
0.00724163
0.00115268
0.00722775
-0.000209155
0.00722346
0.00233081
0.00721205
0.000749156
0.00722157
0.00468989
0.00722607
0.00259313
0.00725904
0.00749805
0.00728443
0.00397663
0.00734052
0.00871653
0.00736875
0.00189464
0.00739954
0.00442143
0.00736989
-0.00576691
0.0073782
-0.00070368
0.00737004
-0.00845478
0.00742282
-0.00667722
0.00747059
-0.0160769
0.00756141
-0.038128
0.00772791
-0.0608394
0.00780762
0.00450552
0.00767853
0.0410157
0.00756937
0.0197951
0.0074944
0.00533994
0.00747397
0.0054464
0.00745373
8.6976e-05
0.00745113
0.0029236
0.00743771
-0.000620686
0.00744729
0.00299587
0.00744977
0.00019343
0.00746808
0.0034394
0.00747353
0.00031311
0.00748645
0.00226279
0.00748257
-0.00114543
0.00748283
6.38111e-05
0.00746874
-0.00278266
0.00745751
-0.00214997
0.0074366
-0.00415604
0.00741691
-0.00367641
0.0073926
-0.00473025
0.00737378
-0.0039854
0.00735764
-0.00411683
0.00734851
-0.00320581
0.00734207
-0.00301963
0.00733916
-0.00247474
0.00733766
-0.00231382
0.00733661
-0.00222609
0.00733371
-0.00229066
0.00732774
-0.00258047
0.00731925
-0.00270445
0.00730795
-0.0030268
0.00729552
-0.00299687
0.00728086
-0.00319063
0.00726655
-0.00290504
0.00725054
-0.00283482
0.00723671
-0.00219763
0.00722034
-0.00182752
0.00720737
-0.000845271
0.00718963
-8.75994e-06
0.00717667
0.00135003
0.00715694
0.00303878
0.00714374
0.00481904
0.00712677
0.0081162
0.00711743
0.0104155
0.00712301
0.0164224
0.0204514
0.00748702
-0.0218766
0.00743912
-0.00441473
0.00742467
0.00856585
0.00742226
0.0118273
0.0074205
0.0101268
0.00741749
0.00805191
0.00741491
0.00683085
0.00741321
0.00589425
0.00741174
0.0050905
0.0074106
0.00435541
0.00740922
0.00370031
0.00740768
0.00311704
0.00740561
0.00259128
0.00740303
0.00212218
0.00739979
0.00170287
0.00739591
0.00132462
0.00739128
0.000974478
0.00738598
0.00067779
0.00737999
0.000410775
0.00737337
0.000185797
0.00736622
-3.29925e-06
0.00735863
-0.000164056
0.00735062
-0.000307853
0.00734249
-0.000384995
0.00733403
-0.00048963
0.0073259
-0.00047337
0.00731724
-0.000596099
0.00730966
-0.00041658
0.00730079
-0.000677576
0.00729399
-0.000221341
0.00728474
-0.000699683
0.00727846
5.36532e-05
0.00726847
-0.000643946
0.007263
0.000478186
0.00725219
-0.000467586
0.00724759
0.00115728
0.00723385
-0.000195427
0.00722975
0.00233491
0.00721855
0.000760355
0.00722822
0.00468022
0.00723283
0.00258851
0.00726581
0.00746507
0.0072911
0.00395134
0.0073469
0.00866073
0.00737477
0.00186676
0.00740536
0.00439084
0.00737587
-0.00573742
0.00738422
-0.000712034
0.00737584
-0.00844641
0.00742783
-0.00672921
0.00747424
-0.0161234
0.00756095
-0.0382147
0.00772111
-0.0609995
0.00780005
0.00442655
0.00767586
0.0411399
0.00756974
0.0199012
0.00749615
0.00541353
0.00747629
0.00546628
0.0074562
0.000107056
0.00745379
0.00292601
0.00744058
-0.000607455
0.00745023
0.00298622
0.00745269
0.00019097
0.00747096
0.00342114
0.00747638
0.000307696
0.00748929
0.00224988
0.00748541
-0.00114156
0.0074857
6.35231e-05
0.0074717
-0.00276865
0.00746053
-0.0021388
0.0074397
-0.00413522
0.00742011
-0.00365681
0.00739591
-0.00470605
0.00737715
-0.00396664
0.00736101
-0.00410069
0.00735185
-0.00319665
0.0073453
-0.00301307
0.00734223
-0.00247167
0.0073406
-0.00231218
0.00733946
-0.00222495
0.00733652
-0.00228771
0.00733054
-0.00257449
0.00732206
-0.00269597
0.00731081
-0.00301554
0.00729844
-0.00298449
0.00728385
-0.00317604
0.00726963
-0.00289082
0.00725372
-0.00281891
0.00723999
-0.0021839
0.00722376
-0.00181128
0.00721095
-0.00083245
0.00719344
8.74528e-06
0.00718073
0.00136275
0.00716143
0.00305807
0.00714866
0.00483182
0.00713243
0.00813243
0.00712383
0.0104241
0.00713047
0.0164157
0.0204322
0.00748699
-0.0217879
0.00743951
-0.00436726
0.00742569
0.00857967
0.00742389
0.0118291
0.00742261
0.010128
0.00741997
0.00805455
0.00741772
0.0068331
0.00741629
0.00589568
0.00741505
0.00509174
0.0074141
0.00435636
0.00741289
0.0037015
0.0074115
0.00311843
0.00740956
0.00259321
0.0074071
0.00212464
0.00740397
0.001706
0.00740019
0.00132841
0.00739566
0.000979003
0.00739045
0.000682997
0.00738455
0.000416673
0.00737802
0.00019232
0.00737096
3.75717e-06
0.00736346
-0.00015655
0.00735554
-0.000299936
0.00734748
-0.000376948
0.00733911
-0.000481259
0.00733106
-0.000465319
0.00732248
-0.000587522
0.00731497
-0.00040908
0.00730618
-0.000668785
0.00729945
-0.000214613
0.00729028
-0.000690518
0.00728407
5.98609e-05
0.00727416
-0.000634042
0.00726878
0.000483567
0.00725806
-0.000456866
0.00725355
0.00116179
0.00723997
-0.000181849
0.00723606
0.00233882
0.00722506
0.000771347
0.00723488
0.0046704
0.0072396
0.00258379
0.00727259
0.00743208
0.00729777
0.00392616
0.00735328
0.00860522
0.00738079
0.00183924
0.00741119
0.00436044
0.00738184
-0.00570807
0.00739023
-0.000720421
0.00738162
-0.00843781
0.0074328
-0.0067804
0.00747786
-0.0161684
0.00756054
-0.0382974
0.00771435
-0.0611534
0.00779246
0.00434841
0.00767318
0.0412592
0.00757009
0.0200043
0.00749787
0.00548574
0.00747858
0.00548557
0.00745864
0.000126986
0.00745643
0.00292821
0.00744345
-0.000594452
0.00745317
0.00297651
0.00745562
0.000188531
0.00747385
0.00340291
0.00747923
0.000302313
0.00749214
0.00223698
0.00748827
-0.00113768
0.00748858
6.32106e-05
0.00747467
-0.00275473
0.00746357
-0.0021277
0.00744282
-0.00411446
0.00742333
-0.00363731
0.00739924
-0.00468195
0.00738054
-0.00394794
0.00736441
-0.00408455
0.00735521
-0.00318744
0.00734854
-0.0030064
0.00734533
-0.00246845
0.00734358
-0.00231043
0.00734236
-0.00222372
0.00733936
-0.00228471
0.00733337
-0.00256849
0.00732491
-0.00268751
0.00731371
-0.00300433
0.0073014
-0.00297218
0.00728688
-0.00316152
0.00727274
-0.00287667
0.00725693
-0.00280309
0.00724331
-0.00217027
0.00722722
-0.00179519
0.00721455
-0.000819779
0.00719728
2.60224e-05
0.00718481
0.00137523
0.00716595
0.00307694
0.00715361
0.00484416
0.00713811
0.00814794
0.00713024
0.010432
0.00713792
0.0164081
0.0204119
0.00748696
-0.0216991
0.0074399
-0.00432021
0.00742671
0.00859286
0.00742551
0.0118303
0.00742471
0.0101288
0.00742246
0.0080568
0.00742053
0.00683502
0.00741936
0.00589684
0.00741835
0.00509275
0.00741759
0.00435711
0.00741656
0.00370254
0.00741531
0.00311968
0.00741351
0.00259501
0.00741117
0.00212697
0.00740815
0.00170902
0.00740447
0.00133209
0.00740004
0.00098343
0.00739492
0.000688111
0.00738911
0.000422479
0.00738268
0.000198749
0.0073757
1.07275e-05
0.00736828
-0.000149132
0.00736045
-0.000292106
0.00735248
-0.000368983
0.00734419
-0.000472971
0.00733622
-0.000457351
0.00732772
-0.000579025
0.00732029
-0.000401655
0.00731157
-0.000660071
0.00730491
-0.000207959
0.00729582
-0.000681426
0.00728968
6.59937e-05
0.00727986
-0.000624226
0.00727456
0.000488865
0.00726393
-0.000446238
0.00725952
0.0011662
0.00724609
-0.000168423
0.00724237
0.00234254
0.00723158
0.000782133
0.00724155
0.00466042
0.00724637
0.00257896
0.00727937
0.00739908
0.00730444
0.00390108
0.00735966
0.00855001
0.00738682
0.00181207
0.00741703
0.00433024
0.00738781
-0.00567886
0.00739622
-0.000728832
0.00738737
-0.00842898
0.00743776
-0.00683078
0.00748147
-0.0162122
0.00756018
-0.0383761
0.00770763
-0.0613008
0.00778486
0.00427115
0.0076705
0.0413736
0.00757042
0.0201044
0.00749956
0.0055566
0.00748085
0.00550429
0.00746106
0.000146768
0.00745906
0.0029302
0.00744632
-0.000581692
0.00745612
0.00296672
0.00745854
0.000186107
0.00747674
0.00338472
0.0074821
0.000296955
0.007495
0.00222409
0.00749113
-0.00113381
0.00749147
6.28711e-05
0.00747765
-0.00274091
0.00746663
-0.00211667
0.00744595
-0.00409379
0.00742656
-0.00361792
0.00740257
-0.00465796
0.00738394
-0.00392931
0.00736781
-0.00406842
0.00735857
-0.0031782
0.00735181
-0.00299964
0.00734846
-0.0024651
0.0073466
-0.00230857
0.00734529
-0.0022224
0.00734224
-0.00228166
0.00733623
-0.00256247
0.0073278
-0.00267907
0.00731663
-0.00299316
0.00730438
-0.00295992
0.00728993
-0.00314706
0.00727588
-0.00286262
0.00726016
-0.00278737
0.00724665
-0.00215676
0.0072307
-0.00177923
0.00721818
-0.000807257
0.00720114
4.30602e-05
0.00718892
0.00138745
0.00717049
0.00309537
0.00715858
0.00485608
0.00714381
0.00816271
0.00713666
0.0104392
0.00714537
0.0163994
0.0203905
0.00748694
-0.0216103
0.0074403
-0.00427357
0.00742772
0.00860544
0.00742713
0.0118309
0.00742681
0.0101291
0.00742494
0.00805867
0.00742333
0.00683663
0.00742243
0.00589774
0.00742165
0.00509353
0.00742108
0.00435767
0.00742022
0.0037034
0.00741912
0.00312077
0.00741745
0.00259668
0.00741523
0.00212919
0.00741232
0.00171192
0.00740874
0.00133566
0.00740441
0.000987759
0.00739939
0.000693131
0.00739367
0.000428195
0.00738733
0.000205089
0.00738044
1.76093e-05
0.00737311
-0.000141803
0.00736536
-0.000284359
0.00735748
-0.000361105
0.00734927
-0.000464767
0.00734138
-0.000449462
0.00733296
-0.000570609
0.00732561
-0.000394306
0.00731696
-0.000651429
0.00731038
-0.000201379
0.00730136
-0.000672409
0.0072953
7.20503e-05
0.00728557
-0.000614495
0.00728035
0.000494079
0.00726981
-0.000435703
0.00726549
0.00117051
0.00725221
-0.000155147
0.00724867
0.00234607
0.00723809
0.000792714
0.00724821
0.00465029
0.00725314
0.00257403
0.00728614
0.00736607
0.00731111
0.00387612
0.00736603
0.00849508
0.00739285
0.00178526
0.00742285
0.00430023
0.00739376
-0.00564977
0.00740219
-0.000737263
0.00739311
-0.0084199
0.00744269
-0.00688037
0.00748506
-0.0162546
0.0075599
-0.0384509
0.00770096
-0.0614419
0.00777724
0.00419485
0.00766782
0.041483
0.00757075
0.0202015
0.00750123
0.00562612
0.0074831
0.00552242
0.00746346
0.000166403
0.00746168
0.00293198
0.00744919
-0.000569183
0.00745906
0.00295686
0.00746147
0.000183702
0.00747964
0.00336656
0.00748498
0.000291624
0.00749788
0.00221119
0.00749401
-0.00112995
0.00749438
6.25045e-05
0.00748065
-0.00272717
0.00746969
-0.00210571
0.00744909
-0.00407318
0.00742979
-0.00359862
0.00740591
-0.00463408
0.00738735
-0.00391075
0.00737122
-0.00405228
0.00736194
-0.00316892
0.00735508
-0.00299277
0.00735161
-0.00246162
0.00734964
-0.0023066
0.00734825
-0.00222101
0.00734515
-0.00227855
0.00733912
-0.00255645
0.00733071
-0.00267065
0.00731958
-0.00298204
0.00730739
-0.00294773
0.00729301
-0.00313268
0.00727904
-0.00284864
0.00726342
-0.00277175
0.00725001
-0.00214334
0.00723419
-0.00176341
0.00722183
-0.000794885
0.00720502
5.98707e-05
0.00719305
0.00139943
0.00717505
0.00311337
0.00716356
0.00486757
0.00714951
0.00817677
0.00714308
0.0104456
0.0071528
0.0163897
0.0203681
0.00748693
-0.0215214
0.00744069
-0.00422733
0.00742872
0.00861741
0.00742874
0.0118308
0.00742891
0.010129
0.00742741
0.00806017
0.00742613
0.00683791
0.00742549
0.00589837
0.00742494
0.00509409
0.00742457
0.00435804
0.00742387
0.00370409
0.00742292
0.00312172
0.00742138
0.00259822
0.00741929
0.00213128
0.00741649
0.00171472
0.00741301
0.00133914
0.00740878
0.000991991
0.00740385
0.000698058
0.00739822
0.000433816
0.00739197
0.00021134
0.00738517
2.44021e-05
0.00737792
-0.000134559
0.00737026
-0.0002767
0.00736246
-0.000353309
0.00735434
-0.000456647
0.00734653
-0.000441655
0.00733819
-0.000562275
0.00733091
-0.000387031
0.00732235
-0.000642867
0.00731584
-0.000194871
0.00730689
-0.000663468
0.00730091
7.80304e-05
0.00729126
-0.000604852
0.00728613
0.000499211
0.00727568
-0.000425261
0.00727146
0.00117473
0.00725833
-0.000142023
0.00725498
0.00234942
0.0072446
0.000803091
0.00725487
0.00464002
0.0072599
0.00256899
0.00729291
0.00733306
0.00731776
0.00385126
0.0073724
0.00844044
0.00739886
0.00175879
0.00742867
0.00427042
0.0073997
-0.00562081
0.00740815
-0.000745707
0.00739881
-0.00841057
0.00744759
-0.00692915
0.00748865
-0.0162956
0.00755968
-0.038522
0.00769436
-0.0615766
0.00776961
0.00411958
0.00766514
0.0415875
0.00757108
0.0202955
0.00750288
0.00569432
0.00748533
0.00553997
0.00746584
0.000185894
0.00746429
0.00293352
0.00745206
-0.000556936
0.007462
0.00294692
0.0074644
0.00018131
0.00748254
0.00334843
0.00748785
0.000286313
0.00750075
0.0021983
0.00749688
-0.00112608
0.00749728
6.21093e-05
0.00748364
-0.00271353
0.00747275
-0.00209481
0.00745222
-0.00405266
0.00743302
-0.00357942
0.00740925
-0.0046103
0.00739075
-0.00389225
0.00737462
-0.00403615
0.00736531
-0.00315961
0.00735836
-0.00298582
0.00735477
-0.00245803
0.00735271
-0.00230453
0.00735124
-0.00221952
0.00734808
-0.0022754
0.00734204
-0.0025504
0.00733364
-0.00266225
0.00732255
-0.00297095
0.00731042
-0.00293559
0.00729611
-0.00311837
0.00728222
-0.00283474
0.00726669
-0.00275623
0.00725339
-0.00213004
0.00723771
-0.00174772
0.00722549
-0.000782662
0.00720892
7.64426e-05
0.00719719
0.00141116
0.00717962
0.00313095
0.00716855
0.00487864
0.00715522
0.0081901
0.00714951
0.0104513
0.00716022
0.0163789
0.0203446
0.00748692
-0.0214326
0.00744109
-0.0041815
0.00742972
0.00862878