/*--------------------------------*- C++ -*----------------------------------*\
| =========                 |                                                 |
| \\      /  F ield         | OpenFOAM: The Open Source CFD Toolbox           |
|  \\    /   O peration     | Version:  2412                                  |
|   \\  /    A nd           | Website:  www.openfoam.com                      |
|    \\/     M anipulation  |                                                 |
\*---------------------------------------------------------------------------*/
FoamFile
{
    version     2.0;
    format      ascii;
    arch        "LSB;label=32;scalar=64";
    class       volVectorField;
    location    "0.1";
    object      U;
}
// * * * * * * * * * * * * * * * * * * * * * * * * * * * * * * * * * * * * * //

dimensions      [0 1 -1 0 0 0 0];

internalField   nonuniform List<vector> 
13079
(
(99.9928 3.58657 0)
(100.503 15.5638 -1.13261e-16)
(101.504 24.6318 -8.30278e-21)
(102.931 27.2271 0)
(104.384 26.4683 0)
(105.953 25.48 0)
(107.515 25.0614 0)
(109.216 24.8626 0)
(110.946 24.7602 -1.00824e-16)
(112.789 24.7238 9.90169e-17)
(114.679 24.7531 0)
(116.666 24.8476 0)
(118.712 24.9955 0)
(120.848 25.2005 9.17182e-17)
(123.055 25.4528 0)
(125.353 25.7581 0)
(127.736 26.1087 -8.59736e-17)
(130.216 26.5098 -8.40026e-17)
(132.795 26.9567 -4.92313e-21)
(135.483 27.4555 -7.99897e-17)
(138.288 28.0028 0)
(141.216 28.6061 -7.5838e-17)
(144.296 29.2599 7.37582e-17)
(147.495 29.9778 0)
(150.926 30.7395 0)
(154.412 31.5966 0)
(158.312 32.4473 6.52782e-17)
(162.092 33.4985 -6.2633e-17)
(166.587 34.3896 -8.8369e-22)
(170.709 35.7108 0)
(175.893 36.6085 0)
(180.429 38.2465 0)
(186.463 39.1916 0)
(191.387 41.1783 0)
(198.615 42.2196 4.7543e-17)
(203.866 44.6469 -4.34614e-17)
(212.658 45.7467 -4.31204e-17)
(218.113 48.8561 -3.8166e-17)
(228.942 50.3023 3.85506e-17)
(234.939 54.5604 -3.25991e-17)
(249.051 56.4256 0)
(256.149 61.6424 -2.70312e-17)
(274.854 63.5883 -2.97492e-17)
(283.565 69.1215 -4.29177e-17)
(308.246 70.1029 5.20825e-17)
(317.812 74.1976 0)
(347.137 73.8445 -2.18955e-17)
(354.964 79.5127 0)
(393.645 83.2482 0)
(406.124 87.9713 0)
(460.662 94.3816 -1.14044e-17)
(484.059 85.55 0)
(561.812 96.94 0)
(628.814 -5.78925 0)
(566.483 -51.4963 -7.79026e-18)
(535.584 -64.4439 0)
(486.623 -66.3571 6.84823e-21)
(470.052 -63.6034 -7.65726e-18)
(435.685 -62.1871 2.4106e-21)
(423.841 -58.551 -3.46875e-18)
(396.175 -56.9592 -7.8e-18)
(386.162 -53.0612 0)
(364.518 -51.8356 0)
(355.962 -48.4151 -3.0194e-21)
(338.595 -48.0491 1.14406e-17)
(330.407 -45.5674 8.03406e-18)
(315.849 -45.8095 -1.32333e-17)
(307.512 -43.8064 -1.11521e-17)
(295.089 -43.9609 1.49815e-17)
(286.711 -42.3476 -1.38806e-17)
(276.01 -42.1816 1.67713e-17)
(267.896 -40.7092 3.65239e-21)
(258.548 -40.0866 0)
(250.967 -38.4901 0)
(243.078 -37.4359 2.0475e-17)
(236.458 -35.8554 2.1061e-17)
(229.868 -34.7811 -2.25387e-17)
(99.9904 3.5738 0)
(100.503 15.5267 1.13217e-16)
(101.515 24.5748 -2.56794e-16)
(102.95 27.162 0)
(104.411 26.4023 0)
(105.986 25.4137 0)
(107.554 24.9944 0)
(109.26 24.7939 0)
(110.994 24.6905 -1.00822e-16)
(112.841 24.6527 0)
(114.735 24.681 0)
(116.725 24.7744 0)
(118.774 24.9213 0)
(120.913 25.1252 0)
(123.123 25.3766 0)
(125.424 25.6808 0)
(127.809 26.0302 5.12821e-21)
(130.293 26.4302 8.40095e-17)
(132.875 26.8758 -8.20177e-17)
(135.566 27.3732 0)
(138.375 27.919 -7.79361e-17)
(141.306 28.5207 7.58352e-17)
(144.389 29.1727 0)
(147.592 29.8886 -7.15596e-17)
(151.027 30.6482 0)
(154.517 31.5028 0)
(158.422 32.3514 -1.64417e-21)
(162.205 33.3991 6.26363e-17)
(166.706 34.2885 -6.09061e-17)
(170.832 35.6051 0)
(176.022 36.5013 5.63739e-17)
(180.562 38.1341 0)
(186.604 39.0778 0)
(191.533 41.0582 0)
(198.769 42.0985 -2.01156e-22)
(204.026 44.5182 4.34595e-17)
(212.828 45.619 0)
(218.294 48.7194 0)
(229.138 50.1644 3.85493e-17)
(235.149 54.4056 -3.25908e-17)
(249.276 56.2648 3.40422e-17)
(256.387 61.4584 2.70242e-17)
(275.102 63.3946 2.52465e-21)
(283.819 68.8997 5.85419e-21)
(308.496 69.8769 -2.60385e-17)
(318.063 73.9622 1.57579e-17)
(347.398 73.6282 0)
(355.268 79.2724 8.45523e-18)
(393.955 82.9852 0)
(406.463 87.6589 8.62975e-19)
(460.937 94.0072 1.141e-17)
(484.296 85.1013 7.39938e-18)
(561.54 96.2099 -5.62609e-18)
(628.033 -5.79766 0)
(566.14 -51.0482 -1.47337e-20)
(535.579 -64.0658 -1.58537e-17)
(486.743 -66.0553 6.76878e-21)
(470.208 -63.3553 0)
(435.842 -61.9597 -1.20312e-17)
(423.996 -58.3414 0)
(396.323 -56.7565 0)
(386.307 -52.8788 -4.83383e-19)
(364.657 -51.6599 0)
(356.092 -48.2531 -4.39385e-18)
(338.715 -47.8867 -1.14404e-17)
(330.521 -45.4132 0)
(315.958 -45.6515 1.39895e-21)
(307.618 -43.6552 1.1152e-17)
(295.191 -43.8062 1.49814e-17)
(286.815 -42.1994 -1.38705e-17)
(276.111 -42.0326 -3.35432e-17)
(267.999 -40.5656 1.63114e-17)
(258.651 -39.945 1.85655e-17)
(251.072 -38.3566 -1.87084e-17)
(243.18 -37.3083 -3.50015e-22)
(236.557 -35.7358 -2.10601e-17)
(229.962 -34.6665 2.25373e-17)
(99.9878 3.56095 0)
(100.502 15.4889 -1.13185e-16)
(101.526 24.517 1.28281e-16)
(102.969 27.0964 0)
(104.439 26.336 0)
(106.019 25.3473 0)
(107.593 24.9271 0)
(109.303 24.7251 0)
(111.042 24.6206 1.0083e-16)
(112.893 24.5815 9.90174e-17)
(114.79 24.6088 0)
(116.783 24.701 0)
(118.836 24.847 -9.35859e-17)
(120.978 25.0499 0)
(123.191 25.3002 -8.98334e-17)
(125.495 25.6033 8.79144e-17)
(127.884 25.9517 8.59829e-17)
(130.37 26.3504 0)
(132.955 26.7948 -8.20145e-17)
(135.649 27.2909 0)
(138.462 27.8352 7.79424e-17)
(141.396 28.4353 -1.51678e-16)
(144.483 29.0855 0)
(147.69 29.7993 7.15647e-17)
(151.129 30.557 -6.95352e-17)
(154.622 31.4089 6.71423e-17)
(158.533 32.2555 -6.5284e-17)
(162.318 33.2997 0)
(166.827 34.1872 0)
(170.955 35.4993 0)
(176.152 36.3941 -5.63754e-17)
(180.696 38.0216 0)
(186.745 38.9641 -5.19068e-17)
(191.68 40.9381 0)
(198.925 41.9775 -4.75411e-17)
(204.187 44.3894 -4.34482e-17)
(213 45.4912 4.31164e-17)
(218.476 48.5826 3.81466e-17)
(229.336 50.0263 -3.8546e-17)
(235.361 54.2506 3.25887e-17)
(249.501 56.1038 -3.40399e-17)
(256.626 61.2742 -2.70242e-17)
(275.351 63.2009 2.52445e-21)
(284.074 68.6778 4.29036e-17)
(308.746 69.6511 2.60271e-17)
(318.315 73.7269 -1.57566e-17)
(347.661 73.4118 0)
(355.573 79.0317 -1.69029e-17)
(394.266 82.7218 1.66489e-17)
(406.801 87.3459 -1.72092e-18)
(461.211 93.6328 0)
(484.525 84.6534 -7.4163e-18)
(561.265 95.4842 5.66226e-18)
(627.25 -5.80555 1.03873e-18)
(565.797 -50.6036 3.96359e-18)
(535.57 -63.6892 3.18434e-17)
(486.857 -65.7535 6.66013e-21)
(470.361 -63.1071 -7.66746e-18)
(435.998 -61.7321 6.01778e-18)
(424.15 -58.1314 -3.47604e-18)
(396.472 -56.5538 7.80253e-18)
(386.454 -52.6965 4.83358e-19)
(364.798 -51.4842 -9.63877e-18)
(356.222 -48.0911 0)
(338.837 -47.7244 0)
(330.636 -45.2592 8.02036e-18)
(316.069 -45.4936 1.32319e-17)
(307.726 -43.5041 0)
(295.295 -43.6517 -1.49818e-17)
(286.921 -42.0515 4.87247e-21)
(276.214 -41.8838 3.35448e-17)
(268.105 -40.4222 0)
(258.756 -39.8035 -1.85656e-17)
(251.179 -38.2233 1.87079e-17)
(243.284 -37.1808 -2.04731e-17)
(236.658 -35.6164 0)
(230.057 -34.5519 0)
(99.9854 3.54839 0)
(100.502 15.4513 0)
(101.536 24.459 0)
(102.988 27.0304 0)
(104.467 26.2692 0)
(106.052 25.2805 0)
(107.632 24.8594 0)
(109.347 24.656 0)
(111.09 24.5504 0)
(112.945 24.51 -9.90261e-17)
(114.846 24.5364 -9.72414e-17)
(116.842 24.6274 0)
(118.898 24.7724 9.35941e-17)
(121.043 24.9743 9.17209e-17)
(123.259 25.2237 5.18889e-21)
(125.566 25.5257 -5.11356e-21)
(127.958 25.8729 0)
(130.448 26.2705 8.40083e-17)
(133.036 26.7137 1.64037e-16)
(135.733 27.2084 7.99893e-17)
(138.549 27.7513 0)
(141.487 28.3497 1.51682e-16)
(144.578 28.9982 7.37592e-17)
(147.788 29.7099 0)
(151.232 30.4656 6.95401e-17)
(154.728 31.3149 -6.71467e-17)
(158.645 32.1595 6.52847e-17)
(162.433 33.2001 0)
(166.948 34.0859 0)
(171.079 35.3935 -5.81299e-17)
(176.283 36.2868 0)
(180.831 37.9091 0)
(186.887 38.8502 5.19074e-17)
(191.828 40.818 0)
(199.081 41.8563 -4.75401e-17)
(204.349 44.2606 4.34468e-17)
(213.173 45.3634 -4.31142e-17)
(218.659 48.4455 -7.62836e-17)
(229.535 49.8881 -3.85451e-17)
(235.573 54.0954 0)
(249.729 55.9427 3.40383e-17)
(256.866 61.0899 2.70176e-17)
(275.601 63.0071 2.97475e-17)
(284.33 68.456 -4.28974e-17)
(308.998 69.4253 -5.88009e-21)
(318.568 73.4914 0)
(347.926 73.195 0)
(355.878 78.7904 8.44787e-18)
(394.578 82.4581 -3.32947e-17)
(407.136 87.0324 8.57967e-19)
(461.484 93.2585 0)
(484.748 84.2066 0)
(560.99 94.7632 -5.72199e-18)
(626.467 -5.81344 -1.0455e-18)
(565.453 -50.1624 0)
(535.556 -63.3139 -1.59859e-17)
(486.966 -65.4516 -4.53995e-18)
(470.513 -62.8586 -2.70065e-21)
(436.151 -61.504 0)
(424.302 -57.9211 3.47644e-18)
(396.621 -56.351 -7.80303e-18)
(386.602 -52.5142 -4.78535e-19)
(364.939 -51.3084 5.23054e-22)
(356.355 -47.9291 4.38443e-18)
(338.961 -47.5621 0)
(330.754 -45.1053 -8.02041e-18)
(316.181 -45.3359 0)
(307.835 -43.3532 0)
(295.401 -43.4974 0)
(287.028 -41.9039 2.77264e-17)
(276.319 -41.7352 -1.67731e-17)
(268.212 -40.2791 0)
(258.862 -39.6623 -1.85662e-17)
(251.288 -38.0901 1.87053e-17)
(243.389 -37.0535 2.04719e-17)
(236.761 -35.497 2.10546e-17)
(230.154 -34.4373 -2.25357e-17)
(99.9832 3.53585 0)
(100.502 15.4133 0)
(101.546 24.4004 0)
(103.007 26.964 0)
(104.494 26.2021 0)
(106.085 25.2134 1.09247e-16)
(107.671 24.7915 0)
(109.39 24.5866 0)
(111.139 24.4801 0)
(112.997 24.4384 -9.90239e-17)
(114.902 24.4637 1.94495e-16)
(116.901 24.5537 9.54226e-17)
(118.96 24.6978 -9.35918e-17)
(121.109 24.8987 -9.1729e-17)
(123.328 25.147 8.98439e-17)
(125.638 25.448 -8.79245e-17)
(128.033 25.7941 0)
(130.525 26.1905 -4.88854e-21)
(133.117 26.6325 -8.2023e-17)
(135.818 27.1258 -4.6191e-21)
(138.637 27.6672 0)
(141.578 28.264 -7.5845e-17)
(144.673 28.9107 -3.91365e-21)
(147.887 29.6204 0)
(151.335 30.3741 0)
(154.835 31.2208 6.71424e-17)
(158.756 32.0633 -6.52889e-17)
(162.548 33.1004 0)
(167.069 33.9845 0)
(171.204 35.2875 5.81326e-17)
(176.415 36.1794 -5.63734e-17)
(180.967 37.7965 -5.35272e-17)
(187.03 38.7362 -5.19039e-17)
(191.976 40.6977 -4.85616e-17)
(199.239 41.7351 2.81707e-22)
(204.513 44.1316 4.34365e-17)
(213.348 45.2353 0)
(218.843 48.3083 3.81376e-17)
(229.736 49.7496 3.85429e-17)
(235.786 53.94 0)
(249.957 55.7814 9.77058e-23)
(257.107 60.9053 -2.70186e-17)
(275.852 62.8131 2.97446e-17)
(284.587 68.2341 2.1449e-17)
(309.252 69.1997 -5.85097e-21)
(318.823 73.2558 -1.57248e-17)
(348.191 72.9779 0)
(356.183 78.5485 8.43415e-18)
(394.89 82.194 1.66464e-17)
(407.469 86.7183 0)
(461.756 92.8843 0)
(484.965 83.7609 0)
(560.716 94.0474 5.76138e-18)
(625.682 -5.82094 -1.04723e-18)
(565.108 -49.7246 0)
(535.538 -62.94 0)
(487.069 -65.1497 0)
(470.662 -62.61 1.53468e-17)
(436.302 -61.2755 6.027e-18)
(424.453 -57.7106 0)
(396.771 -56.1482 0)
(386.75 -52.332 9.54654e-19)
(365.081 -51.1326 9.63863e-18)
(356.488 -47.7671 -4.3844e-18)
(339.085 -47.3999 0)
(330.873 -44.9515 0)
(316.296 -45.1783 0)
(307.947 -43.2024 0)
(295.508 -43.3433 0)
(287.138 -41.7564 -4.81223e-21)
(276.426 -41.5867 1.67751e-17)
(268.321 -40.1361 0)
(258.97 -39.5212 -1.36355e-22)
(251.398 -37.9571 -1.15395e-21)
(243.496 -36.9262 -3.86331e-22)
(236.865 -35.3777 -2.10543e-17)
(230.252 -34.3227 2.25348e-17)
(224.444 -33.1297 0)
(218.727 -32.2259 2.46051e-17)
(213.513 -31.4379 -2.62277e-21)
(208.369 -30.7626 -9.03946e-22)
(203.497 -30.2772 5.502e-17)
(198.649 -29.6843 5.69054e-17)
(194.064 -29.2589 2.94606e-17)
(189.47 -28.5977 3.0331e-17)
(185.227 -28.1348 6.27176e-17)
(180.87 -27.3265 3.22036e-17)
(177.019 -26.7542 -3.32599e-17)
(172.879 -25.7514 1.28045e-21)
(169.474 -25.0398 3.51804e-17)
(165.465 -23.8269 -7.19495e-17)
(162.54 -22.8852 -3.71467e-17)
(158.501 -21.419 -2.90819e-21)
(156.113 -20.0038 -3.90816e-17)
(151.881 -18.2227 -7.89726e-17)
(150.133 -15.8488 4.1076e-17)
(145.729 -13.7104 4.08392e-17)
(144.725 -9.61217 -4.31292e-17)
(140.758 -6.39378 -4.31176e-17)
(99.9812 3.52337 1.09165e-16)
(100.502 15.375 0)
(101.556 24.3414 1.27919e-16)
(103.026 26.8971 0)
(104.522 26.1346 -1.17801e-16)
(106.118 25.146 -1.09243e-16)
(107.71 24.7234 0)
(109.434 24.517 0)
(111.187 24.4095 0)
(113.049 24.3665 9.90328e-17)
(114.957 24.3909 -1.94501e-16)
(116.96 24.4798 -9.54313e-17)
(119.023 24.623 5.29165e-21)
(121.174 24.8228 -9.17268e-17)
(123.397 25.0702 0)
(125.71 25.3701 0)
(128.107 25.7151 0)
(130.603 26.1104 -4.86885e-21)
(133.198 26.5511 0)
(135.902 27.0431 -7.99978e-17)
(138.724 27.583 7.79447e-17)
(141.67 28.1781 7.5843e-17)
(144.768 28.8231 -3.89922e-21)
(147.986 29.5308 7.15648e-17)
(151.438 30.2825 0)
(154.942 31.1265 -1.3429e-16)
(158.869 31.967 -6.52902e-17)
(162.663 33.0006 0)
(167.191 33.8829 0)
(171.329 35.1814 -5.81271e-17)
(176.547 36.0719 1.9796e-21)
(181.104 37.6837 5.35289e-17)
(187.174 38.6221 5.19054e-17)
(192.126 40.5773 9.71214e-17)
(199.397 41.6137 4.75405e-17)
(204.677 44.0025 -4.34361e-17)
(213.523 45.1071 0)
(219.029 48.1709 -3.81273e-17)
(229.937 49.6109 -3.85433e-17)
(236.001 53.7844 0)
(250.186 55.6198 -3.40368e-17)
(257.349 60.7206 0)
(276.104 62.6191 -2.97475e-17)
(284.845 68.0122 0)
(309.507 68.9741 -5.20356e-17)
(319.078 73.0202 3.14395e-17)
(348.458 72.7604 0)
(356.488 78.3059 -8.43461e-18)
(395.202 81.9295 1.66402e-17)
(407.8 86.4036 0)
(462.026 92.5103 0)
(485.176 83.3166 0)
(560.444 93.3367 5.82382e-18)
(624.895 -5.82807 1.056e-18)
(564.761 -49.2903 0)
(535.515 -62.5677 0)
(487.168 -64.8479 0)
(470.809 -62.3613 -7.67552e-18)
(436.451 -61.0467 -6.02826e-18)
(424.602 -57.4997 3.48479e-18)
(396.921 -55.9453 0)
(386.9 -52.1498 -9.49862e-19)
(365.224 -50.9567 0)
(356.623 -47.6051 0)
(339.212 -47.2377 -1.14319e-17)
(330.993 -44.7978 0)
(316.412 -45.0208 -1.32282e-17)
(308.06 -43.0517 0)
(295.618 -43.1893 1.49837e-17)
(287.249 -41.6091 -4.79718e-21)
(276.534 -41.4385 -1.67759e-17)
(268.432 -39.9933 0)
(259.08 -39.3803 1.85677e-17)
(251.509 -37.8242 -1.87043e-17)
(243.604 -36.799 -3.87912e-22)
(236.971 -35.2584 0)
(230.352 -34.2081 -2.25347e-17)
(224.536 -33.0197 0)
(218.81 -32.1185 2.46044e-17)
(213.591 -31.3329 -2.54549e-17)
(208.443 -30.6585 -2.65557e-17)
(203.57 -30.1733 -5.50177e-17)
(198.719 -29.5811 -2.8453e-17)
(194.134 -29.1563 -2.94599e-17)
(189.54 -28.4968 0)
(185.298 -28.0348 -3.136e-17)
(180.941 -27.2291 0)
(177.092 -26.6579 3.32613e-17)
(172.952 -25.6589 -3.40883e-17)
(169.55 -24.9477 3.51865e-17)
(165.543 -23.7393 3.59775e-17)
(162.62 -22.7963 3.71494e-17)
(158.585 -21.3361 3.78074e-17)
(156.201 -19.9178 3.90857e-17)
(151.982 -18.1451 3.94906e-17)
(150.237 -15.7693 -4.10826e-17)
(145.859 -13.6418 -4.08476e-17)
(144.856 -9.55329 4.31363e-17)
(140.93 -6.35085 4.3129e-17)
(99.9793 3.51097 -1.09154e-16)
(100.502 15.3364 -1.13031e-16)
(101.566 24.2819 -1.27813e-16)
(103.045 26.8298 0)
(104.549 26.0668 1.17753e-16)
(106.151 25.0783 0)
(107.749 24.655 -1.05099e-16)
(109.478 24.4472 0)
(111.235 24.3387 0)
(113.101 24.2945 0)
(115.013 24.318 9.72567e-17)
(117.02 24.4058 -9.54293e-17)
(119.085 24.548 5.27056e-21)
(121.24 24.7469 9.17352e-17)
(123.465 24.9933 0)
(125.782 25.2921 0)
(128.182 25.636 0)
(130.681 26.0301 -1.68036e-16)
(133.279 26.4695 8.20229e-17)
(135.987 26.9602 0)
(138.813 27.4986 -1.55899e-16)
(141.761 28.0921 -7.58498e-17)
(144.864 28.7353 -7.37701e-17)
(148.085 29.441 -7.15709e-17)
(151.542 30.1907 0)
(155.049 31.0321 6.71483e-17)
(158.982 31.8706 1.66829e-21)
(162.779 32.9007 0)
(167.314 33.7812 6.09176e-17)
(171.455 35.0752 1.16257e-16)
(176.68 35.9642 5.63772e-17)
(181.241 37.5708 0)
(187.319 38.5078 -5.1903e-17)
(192.276 40.4567 -9.71175e-17)
(199.556 41.4921 0)
(204.842 43.8732 0)
(213.699 44.9787 4.31128e-17)
(219.215 48.0332 7.62488e-17)
(230.139 49.4718 3.85425e-17)
(236.216 53.6284 3.25697e-17)
(250.417 55.458 3.40373e-17)
(257.592 60.5356 -2.70116e-17)
(276.357 62.4249 0)
(285.104 67.7903 0)
(309.762 68.7485 2.6018e-17)
(319.334 72.7843 -1.57151e-17)
(348.726 72.5426 0)
(356.793 78.0628 8.42154e-18)
(395.514 81.6646 -1.66426e-17)
(408.128 86.0884 0)
(462.296 92.1365 0)
(485.383 82.8738 7.44479e-18)
(560.175 92.6317 -5.86487e-18)
(624.106 -5.83485 -1.05963e-18)
(564.414 -48.8593 0)
(535.489 -62.197 1.61233e-17)
(487.263 -64.5464 4.57303e-18)
(470.954 -62.1125 0)
(436.598 -60.8176 0)
(424.75 -57.2886 -6.97355e-18)
(397.071 -55.7424 -7.80842e-18)
(387.051 -51.9675 2.39115e-21)
(365.367 -50.7807 0)
(356.759 -47.4431 4.37563e-18)
(339.339 -47.0755 1.84324e-21)
(331.115 -44.6441 0)
(316.529 -44.8633 1.32292e-17)
(308.174 -42.901 0)
(295.729 -43.0355 -1.77187e-22)
(287.362 -41.4619 -1.38526e-17)
(276.644 -41.2903 -1.67783e-17)
(268.544 -39.8506 1.62925e-17)
(259.19 -39.2395 -1.8569e-17)
(251.622 -37.6914 1.87025e-17)
(243.713 -36.6719 -2.04713e-17)
(237.077 -35.1392 -2.10502e-17)
(230.453 -34.0935 2.25344e-17)
(224.629 -32.9096 0)
(218.895 -32.0111 -4.92073e-17)
(213.672 -31.228 -2.54496e-17)
(208.519 -30.5545 0)
(203.644 -30.0696 1.75326e-21)
(198.792 -29.478 2.84517e-17)
(194.206 -29.0538 2.9461e-17)
(189.612 -28.396 3.03317e-17)
(185.37 -27.9349 -3.13613e-17)
(181.014 -27.1319 3.22072e-17)
(177.166 -26.5618 0)
(173.027 -25.5665 0)
(169.626 -24.8557 -3.51883e-17)
(165.621 -23.6519 3.59833e-17)
(162.7 -22.7076 -3.71585e-17)
(158.671 -21.2534 0)
(156.29 -19.8321 -3.9098e-17)
(152.083 -18.0678 -3.94999e-17)
(150.341 -15.6902 0)
(145.989 -13.5737 0)
(144.987 -9.49509 0)
(141.1 -6.30842 0)
(99.9775 3.49865 0)
(100.502 15.2975 2.26003e-16)
(101.576 24.2219 0)
(103.063 26.762 -1.28877e-16)
(104.576 25.9986 0)
(106.184 25.0104 -1.09216e-16)
(107.788 24.5863 1.05106e-16)
(109.521 24.3772 1.02704e-16)
(111.283 24.2677 1.00841e-16)
(113.153 24.2223 0)
(115.069 24.2448 0)
(117.079 24.3316 9.54381e-17)
(119.148 24.4729 9.3607e-17)
(121.306 24.6707 0)
(123.534 24.9162 0)
(125.854 25.2139 0)
(128.257 25.5568 0)
(130.76 25.9496 1.68041e-16)
(133.361 26.3879 -8.20303e-17)
(136.072 26.8771 0)
(138.901 27.4141 1.55905e-16)
(141.853 28.006 0)
(144.96 28.6474 7.37691e-17)
(148.185 29.3511 -7.15692e-17)
(151.646 30.0987 0)
(155.157 30.9376 -6.71451e-17)
(159.095 31.774 6.5299e-17)
(162.896 32.8006 0)
(167.437 33.6793 -6.09222e-17)
(171.581 34.9689 -5.81304e-17)
(176.813 35.8563 0)
(181.379 37.4577 0)
(187.464 38.3934 5.19057e-17)
(192.427 40.336 4.8559e-17)
(199.715 41.3704 0)
(205.008 43.7438 0)
(213.876 44.8501 -4.31132e-17)
(219.402 47.8952 -7.62398e-17)
(230.342 49.3325 0)
(236.432 53.4722 -6.51377e-17)
(250.648 55.2958 -3.40385e-17)
(257.835 60.3503 2.70143e-17)
(276.611 62.2304 0)
(285.364 67.5682 0)
(310.019 68.5229 -2.60101e-17)
(319.59 72.5484 -1.5696e-17)
(348.995 72.3244 2.18151e-17)
(357.097 77.8191 -8.4225e-18)
(395.826 81.3993 -1.66376e-17)
(408.455 85.7728 8.3157e-19)
(462.564 91.7629 -1.14235e-17)
(485.586 82.4326 -7.46078e-18)
(559.911 91.9324 5.9278e-18)
(623.314 -5.84125 3.07202e-21)
(564.066 -48.4319 4.22391e-18)
(535.46 -61.8279 -1.6168e-17)
(487.353 -64.245 -4.57291e-18)
(471.097 -61.8637 -7.68416e-18)
(436.743 -60.5881 0)
(424.896 -57.0772 6.98008e-18)
(397.221 -55.5395 7.80959e-18)
(387.203 -51.7853 4.71373e-19)
(365.511 -50.6046 -9.63861e-18)
(356.896 -47.281 -4.37588e-18)
(339.467 -46.9132 1.14319e-17)
(331.239 -44.4905 0)
(316.647 -44.706 0)
(308.289 -42.7504 1.11204e-17)
(295.841 -42.8819 -1.49864e-17)
(287.476 -41.3149 0)
(276.754 -41.1423 -6.70963e-22)
(268.657 -39.708 -3.25839e-17)
(259.302 -39.0988 1.85704e-17)
(251.736 -37.5587 -1.87033e-17)
(243.823 -36.5448 0)
(237.185 -35.0199 2.10507e-17)
(230.554 -33.9788 0)
(224.724 -32.7994 0)
(218.981 -31.9037 2.4603e-17)
(213.754 -31.1232 2.54496e-17)
(208.596 -30.4505 0)
(203.719 -29.9659 2.75078e-17)
(198.865 -29.3751 -1.11436e-21)
(194.28 -28.9515 0)
(189.684 -28.2953 -3.0333e-17)
(185.444 -27.8352 3.13626e-17)
(181.087 -27.0347 -3.22087e-17)
(177.241 -26.4658 0)
(173.102 -25.4741 0)
(169.703 -24.7638 0)
(165.699 -23.5646 -3.59851e-17)
(162.781 -22.619 -3.07246e-21)
(158.758 -21.1708 3.78188e-17)
(156.38 -19.7466 3.91022e-17)
(152.186 -17.9906 3.95026e-17)
(150.445 -15.6115 0)
(146.119 -13.5059 4.08761e-17)
(145.118 -9.43734 -4.31562e-17)
(141.27 -6.26635 0)
(99.9758 3.48638 0)
(100.503 15.2584 -7.51213e-21)
(101.586 24.1615 -1.27578e-16)
(103.082 26.6938 1.28756e-16)
(104.604 25.93 -1.17634e-16)
(106.217 24.9421 5.93792e-21)
(107.827 24.5173 -1.051e-16)
(109.565 24.3069 -1.02712e-16)
(111.331 24.1964 -1.0085e-16)
(113.205 24.1498 0)
(115.125 24.1715 0)
(117.138 24.2572 -9.54365e-17)
(119.21 24.3976 0)
(121.371 24.5944 9.17369e-17)
(123.603 24.8389 0)
(125.926 25.1356 0)
(128.332 25.4773 0)
(130.838 25.869 -1.68047e-16)
(133.442 26.306 0)
(136.157 26.7939 0)
(138.99 27.3294 -7.79582e-17)
(141.945 27.9197 7.58516e-17)
(145.056 28.5593 -3.85498e-21)
(148.285 29.261 4.03774e-21)
(151.75 30.0066 -6.9551e-17)
(155.265 30.8429 6.71513e-17)
(159.208 31.6772 0)
(163.013 32.7003 0)
(167.56 33.5772 0)
(171.708 34.8623 5.81263e-17)
(176.947 35.7482 0)
(181.517 37.3444 -5.35266e-17)
(187.609 38.2787 0)
(192.579 40.2151 0)
(199.875 41.2484 -4.75448e-17)
(205.174 43.6141 4.342e-17)
(214.053 44.7212 -4.31152e-17)
(219.589 47.757 7.62323e-17)
(230.546 49.1928 3.85463e-17)
(236.649 53.3156 3.25687e-17)
(250.879 55.1334 3.40406e-17)
(258.079 60.1647 0)
(276.866 62.0358 2.97503e-17)
(285.623 67.3459 0)
(310.276 68.2973 5.76087e-21)
(319.848 72.3122 9.85481e-21)
(349.264 72.1058 -2.18143e-17)
(357.401 77.5746 0)
(396.138 81.1335 1.66412e-17)
(408.779 85.4566 -1.65862e-18)
(462.831 91.3895 1.14318e-17)
(485.787 81.9933 -7.46071e-18)
(559.651 91.2392 -5.96814e-18)
(622.519 -5.84725 1.07869e-18)
(563.717 -48.0079 -4.26828e-18)
(535.429 -61.4605 0)
(487.44 -63.944 -4.58495e-18)
(471.239 -61.6148 1.53708e-17)
(436.886 -60.3584 0)
(425.041 -56.8655 -3.49218e-18)
(397.371 -55.3365 0)
(387.355 -51.603 0)
(365.656 -50.4284 9.63964e-18)
(357.034 -47.1189 0)
(339.596 -46.7509 0)
(331.363 -44.3368 0)
(316.767 -44.5486 0)
(308.405 -42.5998 -2.22385e-17)
(295.955 -42.7283 1.49878e-17)
(287.591 -41.1679 0)
(276.866 -40.9943 1.6782e-17)
(268.77 -39.5655 1.62917e-17)
(259.415 -38.9582 0)
(251.85 -37.426 0)
(243.934 -36.4177 0)
(237.294 -34.9006 -2.10486e-17)
(230.657 -33.8641 -2.25354e-17)
(224.82 -32.6892 0)
(219.069 -31.7964 2.46027e-17)
(213.837 -31.0183 0)
(208.675 -30.3466 -2.65536e-17)
(203.796 -29.8624 0)
(198.94 -29.2723 -2.84528e-17)
(194.354 -28.8493 -2.94611e-17)
(189.758 -28.1947 0)
(185.518 -27.7356 -3.13641e-17)
(181.162 -26.9377 0)
(177.317 -26.3699 -3.327e-17)
(173.178 -25.3819 -3.40978e-17)
(169.781 -24.672 0)
(165.779 -23.4775 -3.5991e-17)
(162.863 -22.5306 3.71672e-17)
(158.845 -21.0884 -3.78207e-17)
(156.47 -19.6614 -3.91144e-17)
(152.288 -17.9137 0)
(150.551 -15.5333 0)
(146.249 -13.4385 -4.08851e-17)
(145.249 -9.38022 4.3164e-17)
(141.44 -6.22479 4.31813e-17)
(99.9742 3.47416 0)
(100.503 15.219 -7.47687e-21)
(101.596 24.1007 1.27475e-16)
(103.1 26.6251 0)
(104.631 25.8611 1.17583e-16)
(106.25 24.8735 1.09198e-16)
(107.866 24.4481 1.05106e-16)
(109.609 24.2363 0)
(111.38 24.125 0)
(113.257 24.0772 -9.90417e-17)
(115.181 24.0979 -9.72622e-17)
(117.197 24.1826 9.54455e-17)
(119.273 24.3221 0)
(121.437 24.5179 -5.14464e-21)
(123.672 24.7615 0)
(125.998 25.0571 8.7935e-17)
(128.408 25.3977 0)
(130.916 25.7883 1.68054e-16)
(133.524 26.224 0)
(136.242 26.7106 -8.00038e-17)
(139.078 27.2446 7.79575e-17)
(142.038 27.8332 -7.58593e-17)
(145.152 28.4711 -7.37798e-17)
(148.384 29.1707 7.15791e-17)
(151.855 29.9143 6.95578e-17)
(155.373 30.748 6.7149e-17)
(159.322 31.5802 0)
(163.13 32.5999 6.2626e-17)
(167.684 33.4749 0)
(171.834 34.7556 -5.81313e-17)
(177.081 35.64 -5.63821e-17)
(181.655 37.231 5.35304e-17)
(187.755 38.1639 0)
(192.73 40.0939 -4.8555e-17)
(200.036 41.1262 4.75479e-17)
(205.341 43.4842 -4.34221e-17)
(214.231 44.592 4.31171e-17)
(219.777 47.6184 -3.81153e-17)
(230.75 49.0527 -3.85479e-17)
(236.866 53.1587 3.25645e-17)
(251.111 54.9705 6.28564e-23)
(258.323 59.9788 0)
(277.12 61.8409 -2.52589e-21)
(285.883 67.1235 0)
(310.533 68.0716 5.73705e-21)
(320.105 72.0758 9.7956e-21)
(349.533 71.8867 0)
(357.705 77.3296 0)
(396.449 80.8672 0)
(409.101 85.14 8.27059e-19)
(463.097 91.0164 0)
(485.984 81.5558 7.47558e-18)
(559.399 90.5522 -6.02852e-18)
(621.721 -5.85281 0)
(563.369 -47.5875 0)
(535.397 -61.095 0)
(487.524 -63.6434 4.58222e-18)
(471.379 -61.3659 2.45262e-21)
(437.028 -60.1284 0)
(425.184 -56.6536 3.49796e-18)
(397.521 -55.1335 0)
(387.507 -51.4207 4.64282e-19)
(365.8 -50.2521 0)
(357.172 -46.9566 4.36773e-18)
(339.726 -46.5886 0)
(331.489 -44.1832 -7.99334e-18)
(316.887 -44.3912 0)
(308.522 -42.4492 1.11183e-17)
(296.069 -42.5748 -1.77269e-22)
(287.707 -41.021 0)
(276.979 -40.8464 1.67852e-17)
(268.885 -39.423 -1.62864e-17)
(259.528 -38.8177 0)
(251.965 -37.2933 0)
(244.046 -36.2905 0)
(237.403 -34.7813 4.20979e-17)
(230.76 -33.7492 2.2536e-17)
(224.916 -32.579 2.3269e-17)
(219.158 -31.6891 -2.46024e-17)
(213.922 -30.9136 0)
(208.755 -30.2428 2.65545e-17)
(203.873 -29.7589 0)
(199.015 -29.1695 0)
(194.43 -28.7472 2.94626e-17)
(189.833 -28.0942 0)
(185.594 -27.6361 6.27315e-17)
(181.237 -26.8408 0)
(177.394 -26.2741 -9.81959e-22)
(173.255 -25.2898 -1.12841e-21)
(169.86 -24.5804 0)
(165.859 -23.3904 3.59931e-17)
(162.946 -22.4424 0)
(158.932 -21.0061 0)
(156.56 -19.5765 3.9119e-17)
(152.392 -17.8371 0)
(150.656 -15.4556 0)
(146.379 -13.3715 0)
(145.381 -9.3237 0)
(141.609 -6.18372 -4.31931e-17)
(99.9727 3.46198 -1.09069e-16)
(100.504 15.1793 -1.12911e-16)
(101.606 24.0394 0)
(103.118 26.556 0)
(104.658 25.7918 0)
(106.283 24.8047 0)
(107.905 24.3785 0)
(109.652 24.1656 0)
(111.428 24.0533 1.00851e-16)
(113.309 24.0043 1.98096e-16)
(115.236 24.0242 1.94537e-16)
(117.257 24.1078 0)
(119.336 24.2464 0)
(121.503 24.4413 -5.12342e-21)
(123.741 24.6839 0)
(126.07 24.9784 -8.79436e-17)
(128.483 25.318 0)
(130.995 25.7073 -8.40328e-17)
(133.606 26.1418 0)
(136.327 26.627 8.00117e-17)
(139.167 27.1596 -4.30316e-21)
(142.13 27.7465 0)
(145.248 28.3826 -7.37799e-17)
(148.484 29.0802 7.15786e-17)
(151.959 29.8218 0)
(155.481 30.6529 -6.71559e-17)
(159.435 31.483 -6.53111e-17)
(163.247 32.4992 -6.26323e-17)
(167.807 33.3724 0)
(171.961 34.6487 5.81283e-17)
(177.215 35.5315 1.90917e-21)
(181.794 37.1173 -5.35296e-17)
(187.901 38.0487 5.19082e-17)
(192.882 39.9725 9.71141e-17)
(200.197 41.0037 4.75511e-17)
(205.508 43.3541 0)
(214.409 44.4624 0)
(219.966 47.4795 0)
(230.954 48.9122 0)
(237.083 53.0013 -3.17875e-21)
(251.344 54.8073 -3.40471e-17)
(258.568 59.7925 2.70118e-17)
(277.375 61.6456 -2.97599e-17)
(286.144 66.9009 0)
(310.791 67.8457 5.71344e-21)
(320.362 71.8391 1.56807e-17)
(349.803 71.6671 0)
(358.007 77.0838 0)
(396.76 80.6004 0)
(409.422 84.8229 0)
(463.363 90.6435 1.1437e-17)
(486.18 81.1203 0)
(559.154 89.8719 -1.0473e-20)
(620.921 -5.85792 0)
(563.019 -47.1705 0)
(535.363 -60.7314 0)
(487.606 -63.3433 0)
(471.517 -61.117 2.4072e-21)
(437.169 -59.8981 6.04819e-18)
(425.326 -56.4415 -3.49896e-18)
(397.672 -54.9305 -7.81654e-18)
(387.66 -51.2383 -4.64319e-19)
(365.945 -50.0756 -9.64053e-18)
(357.311 -46.7943 -8.73347e-18)
(339.857 -46.4262 0)
(331.615 -44.0295 4.25986e-21)
(317.008 -44.2338 -1.32286e-17)
(308.64 -42.2986 0)
(296.184 -42.4213 -1.49918e-17)
(287.824 -40.8741 0)
(277.092 -40.6985 -3.35751e-17)
(269 -39.2806 3.48464e-21)
(259.642 -38.6771 1.85765e-17)
(252.081 -37.1606 0)
(244.158 -36.1633 0)
(237.512 -34.6619 -2.10495e-17)
(230.864 -33.6343 -2.25375e-17)
(225.014 -32.4686 -2.32684e-17)
(219.248 -31.5817 0)
(214.008 -30.8088 -2.54406e-17)
(208.836 -30.139 0)
(203.952 -29.6555 0)
(199.092 -29.0668 -2.84525e-17)
(194.506 -28.6451 0)
(189.908 -27.9938 0)
(185.67 -27.5366 -3.13676e-17)
(181.313 -26.7439 0)
(177.471 -26.1784 3.32749e-17)
(173.333 -25.1978 6.82071e-17)
(169.94 -24.4888 0)
(165.941 -23.3035 3.59993e-17)
(163.029 -22.3543 -3.71818e-17)
(159.021 -20.924 0)
(156.651 -19.4919 0)
(152.495 -17.7607 0)
(150.762 -15.3782 0)
(146.51 -13.3049 -4.09153e-17)
(145.512 -9.26774 -4.31852e-17)
(141.778 -6.14311 0)
(99.9713 3.44984 1.09058e-16)
(100.505 15.1394 1.12874e-16)
(101.615 23.9776 0)
(103.137 26.4865 0)
(104.685 25.7221 -1.17457e-16)
(106.316 24.7355 1.09167e-16)
(107.944 24.3087 -1.051e-16)
(109.696 24.0945 0)
(111.476 23.9814 -1.0086e-16)
(113.361 23.9313 -9.90547e-17)
(115.292 23.9502 -9.72752e-17)
(117.316 24.0328 9.54481e-17)
(119.398 24.1705 0)
(121.569 24.3644 -9.17534e-17)
(123.81 24.6061 0)
(126.142 24.8996 0)
(128.558 25.238 -8.60048e-17)
(131.073 25.6262 0)
(133.687 26.0594 0)
(136.412 26.5432 0)
(139.255 27.0743 -1.55935e-16)
(142.222 27.6596 0)
(145.344 28.2939 7.37879e-17)
(148.584 28.9895 -7.15864e-17)
(152.063 29.729 0)
(155.59 30.5575 0)
(159.549 31.3856 6.53181e-17)
(163.364 32.3983 0)
(167.931 33.2697 0)
(172.089 34.5415 -4.26195e-21)
(177.349 35.4228 1.12781e-16)
(181.932 37.0033 2.60339e-21)
(188.048 37.9334 -5.19132e-17)
(193.034 39.8508 -4.85597e-17)
(200.357 40.881 -3.32418e-22)
(205.675 43.2236 -4.34145e-17)
(214.588 44.3325 0)
(220.154 47.3401 0)
(231.158 48.7713 0)
(237.301 52.8435 -3.25675e-17)
(251.576 54.6436 3.40516e-17)
(258.812 59.6058 -2.70168e-17)
(277.63 61.45 2.97619e-17)
(286.404 66.678 0)
(311.049 67.6197 5.69013e-21)
(320.62 71.6021 0)
(350.073 71.4469 0)
(358.309 76.8374 -8.39452e-18)
(397.07 80.333 -1.66392e-17)
(409.74 84.5055 0)
(463.627 90.2708 -3.78573e-21)
(486.375 80.6869 0)
(558.917 89.1983 6.10917e-18)
(620.118 -5.86252 1.1047e-18)
(562.67 -46.7571 0)
(535.33 -60.3697 0)
(487.686 -63.0437 0)
(471.654 -60.8682 -7.68894e-18)
(437.308 -59.6676 -6.04918e-18)
(425.467 -56.2292 -3.50475e-18)
(397.822 -54.7275 7.81796e-18)
(387.813 -51.0557 4.59615e-19)
(366.09 -49.899 9.64189e-18)
(357.45 -46.6318 2.94257e-21)
(339.988 -46.2636 1.14284e-17)
(331.741 -43.8757 7.99112e-18)
(317.13 -44.0763 1.32305e-17)
(308.758 -42.1479 0)
(296.3 -42.2678 0)
(287.941 -40.7271 0)
(277.206 -40.5507 3.3581e-17)
(269.116 -39.1381 1.62871e-17)
(259.757 -38.5366 -1.8579e-17)
(252.197 -37.0279 0)
(244.271 -36.0361 0)
(237.622 -34.5423 0)
(230.968 -33.5192 4.50777e-17)
(225.112 -32.3582 0)
(219.339 -31.4743 -2.46027e-17)
(214.095 -30.704 2.54413e-17)
(208.918 -30.0353 0)
(204.032 -29.5521 -2.75042e-17)
(199.17 -28.9642 1.09362e-21)
(194.583 -28.5431 0)
(189.985 -27.8935 3.03371e-17)
(185.747 -27.4372 -3.13696e-17)
(181.39 -26.6471 0)
(177.549 -26.0827 0)
(173.411 -25.1059 -3.41064e-17)
(170.02 -24.3973 3.52115e-17)