/*--------------------------------*- C++ -*----------------------------------*\
| =========                 |                                                 |
| \\      /  F ield         | OpenFOAM: The Open Source CFD Toolbox           |
|  \\    /   O peration     | Version:  2412                                  |
|   \\  /    A nd           | Website:  www.openfoam.com                      |
|    \\/     M anipulation  |                                                 |
\*---------------------------------------------------------------------------*/
FoamFile
{
    version     2.0;
    format      ascii;
    arch        "LSB;label=32;scalar=64";
    class       volScalarField;
    location    "0.4";
    object      k;
}
// * * * * * * * * * * * * * * * * * * * * * * * * * * * * * * * * * * * * * //

dimensions      [0 2 -2 0 0 0 0];

internalField   nonuniform List<scalar> 
78408
(
249.438
262.069
214.78
184.523
170.338
163.424
159.655
157.271
155.645
154.456
153.603
152.93
152.44
152.039
151.806
151.652
151.755
151.974
152.547
153.262
154.474
155.832
157.925
160.13
163.343
166.582
171.238
175.698
182.198
188.08
196.698
204.33
215.808
225.451
240.719
252.497
273.038
286.903
315.055
330.922
371.357
390.845
457.636
497.27
612.547
664.112
799.835
835.765
1009.79
1053.5
1347.31
1421.26
2400.62
2585.12
1853.19
1447.79
1252.96
1134.67
1038.55
954.921
881.222
824.207
792.681
773.531
762.643
736.869
702.126
657.145
611.686
567.287
527.486
491.849
460.96
433.911
410.855
391.59
377.131
369.159
369.54
376.822
386.305
392.782
393.701
389.32
380.57
369.398
356.42
343.285
329.581
316.917
303.992
292.742
280.891
271.334
260.246
252.493
241.395
235.738
224.067
854.067
640.427
323.277
191.254
135.921
112.43
104.309
104.446
108.724
114.72
120.666
125.733
129.431
131.958
133.424
134.346
134.71
135.05
135.136
135.538
135.792
136.657
137.298
138.896
140.138
142.75
144.73
148.683
151.556
157.27
161.649
169.777
175.639
186.888
194.319
209.92
218.936
240.967
251.645
283.772
298.436
352.505
396.98
509.142
596.279
719.204
769.949
877.788
909.184
1054.75
1113.18
1317.69
1369.06
2376.98
2756.64
2232.92
1817.09
1557.38
1410.6
1280.35
1197.01
1127.88
1116.11
1103.55
1099.37
1045.01
975.266
884.573
802.008
725.013
661.74
607.193
562.693
524.445
493.863
469.335
454.977
453.129
466.975
490.619
514.033
528.14
530.641
522.771
507.452
487.623
465.231
442.205
419.122
397.249
376.167
357.001
338.917
322.761
308.002
294.461
283.042
271.665
262.395
195.031
262.088
170.5
120.343
96.4148
86.8648
84.5091
85.4123
87.7678
90.7512
93.9625
97.0986
99.9362
102.298
104.12
105.406
106.23
106.662
106.858
106.891
106.925
107.011
107.293
107.758
108.603
109.722
111.372
113.346
115.986
118.965
122.622
127.008
131.882
138.073
144.372
152.958
160.907
172.897
183.105
201.017
217.953
255.134
316.647
420.619
547.878
654.665
746.772
806.538
873.072
935.027
1016.95
1151.26
1188.58
1466.65
2369.35
2258.04
1981.04
1689.07
1553.21
1394.23
1328.78
1255.66
1268.18
1263.59
1262.97
1195.93
1106.1
992.664
890.959
796.566
721.831
656.897
605.754
561.632
527.122
500.439
486.274
488.762
511.608
547.137
581.643
603.47
609.607
601.858
584.115
560.181
532.746
504.15
475.414
447.894
421.478
397.195
374.235
353.79
334.158
317.469
300.612
287.5
272.106
76.2259
104.81
100.161
96.4488
94.7464
94.4264
94.6275
94.9612
95.4017
95.9147
96.5671
97.323
98.1417
98.8693
99.4024
99.6139
99.4976
99.0176
98.2864
97.3349
96.3198
95.2896
94.3888
93.6423
93.1826
93.0268
93.2567
93.9237
95.005
96.6663
98.5845
101.447
104.294
108.672
112.545
118.907
123.913
133.085
139.851
154.375
169.008
205.023
274.937
388.323
539.2
657.484
769.221
824.978
901.852
945.447
1029.66
1147.88
1233.58
1214.94
2027.68
2225.57
2068.28
1793.97
1657.3
1493.85
1429.69
1361.92
1383.08
1385.19
1381.05
1304.19
1199
1071.29
956.548
852.184
769.18
698.053
641.626
593.541
555.788
527.387
513.469
519.434
549.182
593.391
635.609
662.582
670.988
663.134
643.572
616.698
585.677
553.148
520.395
488.879
458.643
430.712
404.353
380.723
358.161
338.703
319.28
303.756
286.449
64.9558
82.2859
96.3558
104.377
108.203
109.366
109.127
108.284
107.354
106.507
105.875
105.428
105.125
104.796
104.328
103.563
102.488
101.037
99.3222
97.3502
95.2862
93.1557
91.1227
89.1946
87.512
86.0913
84.9993
84.3258
83.9805
84.2447
84.6679
86.0326
87.2654
89.9784
92.0505
96.5266
99.496
106.529
111.187
123.675
138.272
175.729
256.244
381.377
552.101
684.001
808.092
867.782
949.811
991.192
1076.31
1192.48
1319.32
1212.06
1795.1
2155.72
2108.87
1872.35
1739
1578.05
1513.45
1451.9
1477.43
1483.5
1473.57
1387.72
1270.15
1132.24
1008.37
897.497
808.692
733.26
672.816
621.658
581.34
551.6
538.104
547.267
582.92
634.066
682.059
712.637
722.428
714.207
693.026
663.724
629.806
594.139
558.192
523.518
490.258
459.451
430.426
404.281
379.493
357.831
336.564
319.093
300.528
66.7499
88.9842
105.752
114.894
119.914
121.601
121.211
119.818
118.202
116.693
115.473
114.501
113.692
112.836
111.794
110.397
108.64
106.462
103.988
101.223
98.3455
95.3645
92.4671
89.6273
87.0213
84.6097
82.5206
80.7547
79.3283
78.3807
77.6623
77.6772
77.6989
78.8708
79.649
82.3461
83.9794
89.019
92.7061
103.623
120.468
160.79
253.299
390.321
576.517
719.851
851.883
916.547
1001.77
1045.52
1131.46
1250.59
1406.85
1285.36
1671.87
2078.37
2120.87
1930.06
1805.06
1649.91
1585.41
1529.73
1557.61
1565.33
1548.39
1454.05
1326.36
1181.01
1050.78
935.567
842.692
764.099
700.516
646.853
604.449
573.678
560.789
573.056
614.019
670.978
723.487
756.67
767.271
758.496
735.798
704.36
667.953
629.62
590.977
553.647
517.853
484.641
453.394
425.156
398.516
375.049
352.28
333.232
313.62
71.621
97.6799
114.414
123.493
128.906
130.966
130.706
129.207
127.357
125.598
124.161
122.999
121.984
120.87
119.492
117.679
115.436
112.722
109.673
106.307
102.812
99.1942
95.6535
92.1454
88.8686
85.7421
82.9427
80.3891
78.2007
76.36
74.8345
73.8205
72.9856
72.941
72.8221
74.0606
74.8518
78.2558
81.7987
91.8727
112.483
156.947
260.595
408.687
606.461
758.936
896.261
965.531
1053
1100.37
1187.12
1310.83
1488.88
1375.25
1628.2
2013.64
2118.3
1973.02
1859.69
1712.14
1648.5
1598.12
1626.94
1634.34
1609.68
1507.41
1371.49
1220.88
1086.41
968.392
872.657
791.658
725.545
669.766
625.618
594.053
581.932
597.263
643.11
705.068
761.2
796.293
807.308
797.847
773.702
740.328
701.71
661.034
620.036
580.394
542.402
507.108
473.943
443.903
415.665
390.663
366.607
346.241
325.708
75.576
104.874
121.34
130.282
135.891
138.231
138.199
136.822
135.007
133.256
131.827
130.665
129.606
128.375
126.788
124.679
122.066
118.931
115.426
111.584
107.598
103.483
99.4418
95.4255
91.6415
87.9885
84.6685
81.5514
78.8199
76.3511
74.2606
72.5243
71.0987
70.1949
69.4768
69.6732
69.9843
72.2874
76.289
86.4706
111.381
160.69
273.734
431.891
638.654
798.557
939.598
1012.89
1102.08
1153.27
1240.79
1369.37
1564.51
1464.29
1632.65
1969.95
2111.18
2006.18
1905.9
1766.79
1704.61
1658.83
1687.39
1692.84
1660.02
1550.51
1408.12
1254.06
1117
997.321
899.584
816.696
748.474
690.857
645.211
613.038
601.815
620.172
670.554
736.872
795.953
832.448
843.594
833.363
807.829
772.673
732.055
689.278
646.18
604.486
564.546
527.411
492.553
460.928
431.282
404.941
379.757
358.256
336.901
78.8203
110.624
126.819
135.684
141.425
143.977
144.189
143.037
141.413
139.834
138.56
137.521
136.519
135.253
133.53
131.195
128.285
124.804
120.919
116.681
112.289
107.766
103.316
98.8931
94.7047
90.6435
86.9206
83.3824
80.2444
77.3235
74.8216
72.5816
70.7401
69.2537
68.1374
67.6541
67.738
69.4726
74.3367
85.4781
114.5
168.809
289.831
457.234
671.401
837.514
981.288
1058.05
1148.66
1203.53
1291.76
1425.01
1634.07
1548.06
1663.3
1947.79
2105.67
2033.34
1945.9
1815.38
1754.96
1713.06
1740.25
1742.4
1701.26
1585.3
1438.09
1282.14
1143.8
1023.29
924.159
839.741
769.703
710.451
663.49
630.853
620.621
641.955
696.554
766.704
828.207
865.719
876.794
865.741
838.877
802.069
759.622
714.941
669.948
626.407
584.721
545.936
509.565
476.524
445.622
418.094
391.909
369.412
347.319
81.4133
115.147
131.15
140.017
145.872
148.587
149.027
148.145
146.799
145.496
144.478
143.645
142.763
141.515
139.703
137.19
134.029
130.254
126.043
121.467
116.727
111.858
107.063
102.301
97.7765
93.3837
89.3335
85.4644
82.0052
78.7435
75.9261
73.3228
71.1751
69.2909
67.9052
67.0027
67.0308
68.6215
74.5917
87.2492
119.938
179.139
307.261
483.276
703.827
875.259
1021.11
1100.91
1192.7
1251.02
1339.87
1477.42
1698.1
1625.82
1707.27
1943.87
2104.81
2057.16
1981.28
1859.02
1800.42
1761.63
1786.43
1784.18
1734.77
1613.3
1462.79
1306.27
1167.7
1046.97
946.859
861.157
789.51
728.773
680.637
647.645
638.47
662.706
721.224
794.752
858.25
896.484
907.343
895.443
867.311
828.967
784.843
738.425
691.711
646.495
603.231
562.955
525.221
490.905
458.872
430.281
403.201
379.818
357.061
83.4139
118.64
134.553
143.501
149.469
152.314
152.962
152.362
151.341
150.381
149.684
149.112
148.395
147.201
145.332
142.673
139.298
135.267
130.771
125.899
120.856
115.688
110.594
105.542
100.73
96.0587
91.7332
87.5934
83.8698
80.3391
77.2684
74.3916
72.0079
69.8446
68.2728
67.1263
67.2188
68.9712
76.1822
90.6303
126.56
190.474
325.153
509.254
735.458
911.532
1059
1141.49
1234.28
1295.79
1385.16
1526.54
1757.03
1697.8
1757.48
1953.89
2109.56
2079.35
2013.2
1898.52
1841.61
1805.12
1826.58
1819.07
1761.66
1635.71
1483.33
1327.36
1189.34
1068.82
968.014
881.195
808.088
745.98
696.777
663.516
655.432
682.474
744.618
821.123
886.264
924.993
935.535
922.787
893.452
853.684
808.018
760.012
711.729
664.991
620.293
578.665
539.696
504.226
471.17
441.622
413.734
389.56
366.208
84.8966
121.266
137.186
146.289
152.377
155.331
156.166
155.848
155.177
154.598
154.265
153.991
153.467
152.35
150.447
147.667
144.105
139.849
135.102
129.97
124.66
119.229
113.873
108.57
103.508
98.5974
94.0351
89.6675
85.7198
81.9694
78.6885
75.5977
73.0255
70.6612
68.9608
67.689
67.9358
70.0648
78.5818
94.9097
133.741
202.182
343.033
534.742
766.019
946.2
1094.94
1179.83
1273.47
1337.94
1427.7
1572.4
1811.21
1764.43
1810.07
1973.88
2119.65
2100.9
2042.43
1934.48
1878.96
1843.97
1861.23
1847.82
1782.87
1653.5
1500.56
1346.06
1209.19
1089.16
987.848
900.024
825.565
762.179
711.994
678.527
671.545
701.273
766.752
845.876
912.367
951.414
961.573
947.992
917.528
876.442
829.362
779.904
730.192
682.066
636.065
593.206
553.117
516.6
482.619
452.203
423.588
398.703
374.82
85.9347
123.156
139.169
148.492
154.709
157.761
158.766
158.724
158.413
158.238
158.293
158.339
158.026
157
155.079
152.197
148.472
144.017
139.047
133.684
128.138
122.476
116.889
111.365
106.084
100.966
96.1972
91.6346
87.4938
83.5595
80.1002
76.8375
74.1112
71.5999
69.8136
68.5013
68.9754
71.6335
81.4772
99.673
141.147
213.93
360.622
559.483
795.333
979.184
1128.92
1216
1310.36
1377.55
1467.57
1615.07
1860.9
1826.12
1862.91
2000.62
2134.28
2122.3
2069.5
1967.33
1912.79
1878.51
1890.8
1871.04
1799.17
1667.5
1515.17
1362.89
1227.58
1108.23
1006.51
917.759
842.03
777.439
726.343
692.716
686.822
719.094
787.622
869.038
936.631
975.859
985.597
971.215
939.7
897.402
849.03
798.248
747.234
697.845
650.66
606.683
565.578
528.109
493.293
462.091
432.82
407.296
382.939
86.5934
124.417
140.594
150.191
156.55
159.692
160.855
161.081
161.133
161.371
161.826
162.203
162.109
161.184
159.256
156.287
152.418
147.787
142.618
137.052
131.297
125.43
119.64
113.922
108.447
103.149
98.1988
93.4677
89.1586
85.0684
81.4559
78.0528
75.1993
72.5808
70.7434
69.4555
70.2196
73.517
84.6783
104.679
148.587
225.528
377.74
583.303
823.274
1010.43
1160.95
1250.04
1344.99
1414.69
1504.84
1654.61
1906.28
1883.2
1914.79
2031.69
2152.46
2143.71
2094.74
1997.37
1943.34
1908.98
1915.64
1889.31
1811.25
1678.39
1527.7
1378.2
1244.73
1126.15
1024.1
934.47
857.536
791.806
739.857
706.1
701.261
735.917
807.207
890.617
959.099
998.404
1007.7
992.566
960.084
916.68
867.133
815.15
762.956
712.421
664.163
619.171
577.146
538.815
503.243
471.33
441.473
415.372
390.598
86.9299
125.14
141.536
151.451
157.962
161.191
162.504
162.989
163.402
164.055
164.914
165.623
165.75
164.93
163.002
159.959
155.962
151.175
145.831
140.085
134.144
128.098
122.128
116.24
110.596
105.139
100.03
95.1526
90.6964
86.4732
82.7285
79.21
76.2517
73.5576
71.6994
70.4893
71.5994
75.6161
88.0646
109.785
155.95
236.859
394.255
606.073
849.744
1039.89
1191.03
1281.98
1377.41
1449.43
1539.56
1691.05
1947.51
1935.95
1964.99
2065.32
2173.2
2165.07
2118.31
2024.79
1970.76
1935.6
1936.08
1903.1
1819.7
1686.71
1538.54
1392.26
1260.8
1143.03
1040.68
950.2
872.118
805.304
752.551
718.685
714.849
751.711
825.479
910.605
979.795
1019.1
1027.97
1012.13
978.764
934.36
883.754
830.686
777.429
725.859
676.633
630.722
587.87
548.758
512.508
479.953
449.575
422.956
397.817
86.9939
125.4
142.056
152.324
158.996
162.311
163.767
164.505
165.273
166.337
167.596
168.633
168.977
168.261
166.339
163.231
159.122
154.197
148.697
142.794
136.69
130.487
124.359
118.323
112.529
106.935
101.686
96.6825
92.0976
87.761
83.9022
80.2894
77.2458
74.5028
72.6519
71.5661
73.0727
77.8658
91.5563
114.899
163.161
247.837
410.065
627.691
874.664
1067.54
1219.14
1311.85
1407.65
1481.79
1571.76
1724.44
1984.69
1984.57
2013.06
2100.19
2195.63
2186.24
2140.3
2049.75
1995.18
1958.52
1952.41
1912.87
1825.04
1692.93
1548.02
1405.24
1275.87
1158.91
1056.26
964.971
885.79
817.946
764.432
730.464
727.564
766.441
842.404
928.99
998.731
1037.98
1046.43
1029.95
995.799
950.503
898.952
844.914
790.705
738.206
688.112
641.376
597.781
557.967
521.113
487.982
457.144
430.061
404.607
86.8288
125.266
142.209
152.853
159.692
163.094
164.689
165.673
166.788
168.256
169.906
171.261
171.815
171.199
169.285
166.121
161.912
156.866
151.231
145.189
138.944
132.604
126.339
120.175
114.251
108.537
103.167
98.054
93.3573
88.9245
84.9679
81.2792
78.1683
75.3999
73.5834
72.6645
74.613
80.2211
95.097
119.962
170.166
258.396
425.087
648.072
897.966
1093.33
1245.28
1339.64
1435.71
1511.79
1601.47
1754.8
2017.9
2029.22
2058.73
2135.36
2218.97
2207.01
2160.74
2072.33
2016.69
1977.91
1964.87
1919.03
1827.71
1697.4
1556.34
1417.26
1289.99
1173.81
1070.87
978.79
898.558
829.734
775.498
741.429
739.382
780.07
857.949
945.753
1015.91
1055.06
1063.12
1046.07
1011.23
965.151
912.768
857.872
802.821
749.494
698.63
651.157
606.902
566.462
529.073
495.427
464.189
436.693
410.973
86.4724
124.796
142.041
153.075
160.083
163.573
165.304
166.528
167.982
169.843
171.871
173.531
174.284
173.763
171.857
168.645
164.347
159.196
153.442
147.281
140.914
134.458
128.074
121.799
115.763
109.947
104.472
99.2665
94.4732
89.9598
85.9205
82.1724
79.0112
76.2395
74.4838
73.7717
76.2028
82.6483
98.6451
124.93
176.926
268.483
439.249
667.14
919.593
1117.24
1269.44
1365.37
1461.6
1539.46
1628.69
1782.17
2047.22
2070.03
2101.81
2170.12
2242.6
2227.16
2179.59
2092.57
2035.36
1993.88
1973.74
1921.93
1828.08
1700.42
1563.66
1428.38
1303.18
1187.73
1084.49
991.653
910.419
840.666
785.742
751.563
750.276
792.562
872.08
960.878
1031.33
1070.36
1078.07
1060.53
1025.09
978.335
925.232
869.588
813.8
759.746
708.205
660.081
615.246
574.251
536.395
502.294
470.713
442.854
416.916
85.9573
124.042
141.592
153.022
160.199
163.777
165.642
167.1
168.885
171.126
173.516
175.465
176.403
175.969
174.072
170.816
166.441
161.198
155.342
149.08
142.609
136.054
129.57
123.203
117.071
111.169
105.604
100.32
95.4447
90.8651
86.7571
82.9652
79.7699
77.016
75.3477
74.8804
77.8292
85.1211
102.168
129.77
183.405
278.049
452.489
684.834
939.494
1139.23
1291.59
1389.04
1485.33
1564.79
1653.44
1806.54
2072.72
2107.1
2142.19
2203.93
2265.98
2246.44
2196.81
2110.51
2051.24
2006.58
1979.23
1921.9
1826.47
1702.19
1570.08
1438.61
1315.42
1200.65
1097.12
1003.55
921.365
850.732
795.152
760.851
760.218
803.883
884.766
974.345
1044.99
1083.88
1091.28
1073.34
1037.4
990.077
936.363
880.079
823.659
768.976
716.848
668.156
622.82
581.339
543.081
508.584
476.715
448.539
422.43
85.3117
123.051
140.901
152.722
160.064
163.729
165.726
167.414
169.52
172.126
174.861
177.08
178.189
177.834
175.943
172.648
168.206
162.884
156.943
150.596
144.038
137.402
130.833
124.39
118.178
112.205
106.564
101.217
96.2722
91.6398
87.4766
83.6554
80.4422
77.7268
76.173
75.9868
79.4824
87.6173
105.64
134.456
189.576
287.054
464.752
701.1
957.627
1159.28
1311.74
1410.63
1506.89
1587.79
1675.73
1827.95
2094.45
2140.51
2179.77
2236.4
2288.69
2264.66
2212.32
2126.15
2064.38
2016.1
1981.57
1919.26
1823.13
1702.86
1575.64
1447.95
1326.68
1212.56
1108.72
1014.47
931.384
859.923
803.717
769.274
769.184
814.001
895.981
986.139
1056.88
1095.63
1102.78
1084.5
1048.18
1000.39
946.174
889.357
832.406
777.189
724.565
675.387
629.623
587.726
549.129
514.291
482.189
453.742
427.506
84.5598
121.861
139.998
152.201
159.701
163.452
165.579
167.491
169.907
172.863
175.923
178.394
179.658
179.372
177.484
174.154
169.654
164.266
158.253
151.837
145.208
138.507
131.87
125.366
119.089
113.058
107.356
101.957
96.9567
92.2843
88.0786
84.2424
81.0275
78.3712
76.9591
77.0886
81.154
90.1181
109.039
138.966
195.413
295.462
475.995
715.892
973.957
1177.36
1329.85
1430.14
1526.28
1608.46
1695.55
1846.41
2112.47
2170.34
2214.5
2267.22
2310.37
2281.61
2226.07
2139.49
2074.83
2022.58
1980.96
1914.24
1818.28
1702.55
1580.35
1456.38
1336.95
1223.41
1119.3
1024.39
940.464
868.227
811.424
776.815
777.149
822.888
905.702
996.247
1067
1105.61
1112.56
1094.04
1057.42
1009.28
954.673
897.429
840.047
784.39
731.355
681.771
635.654
593.406
554.532
519.408
487.126
458.453
432.135
83.7224
120.51
138.915
151.482
159.13
162.963
165.217
167.348
170.063
173.353
176.718
179.42
180.822
180.595
178.708
175.346
170.796
165.353
159.282
152.813
146.128
139.377
132.687
126.136
119.807
113.734
107.982
102.545
97.4998
92.7996
88.564
84.7266
81.5262
78.9501
77.7072
78.1851
82.8364
92.6066
112.347
143.281
200.896
303.241
486.179
729.173
988.456
1193.47
1345.94
1447.57
1543.5
1626.8
1712.92
1861.95
2126.86
2196.65
2246.33
2296.14
2330.73
2297.11
2237.98
2150.54
2082.63
2026.12
1977.61
1907.1
1812.09
1701.32
1584.2
1463.85
1346.16
1233.19
1128.81
1033.3
948.592
875.632
818.261
783.46
784.093
830.523
913.912
1004.66
1075.35
1113.83
1120.64
1101.96
1065.15
1016.76
961.865
904.296
846.584
790.578
737.219
687.306
640.908
598.374
559.284
523.927
491.516
462.659
436.303
82.8173
119.028
137.677
150.585
158.369
162.28
164.658
167.001
170.005
173.611
177.259
180.171
181.696
181.517
179.627
176.237
171.644
166.157
160.041
153.531
146.806
140.018
133.29
126.705
120.339
114.234
108.445
102.981
97.9035
93.187
88.9338
85.109
81.9398
79.4652
78.4195
79.2759
84.5223
95.0676
115.548
147.386
206.004
310.364
495.274
740.914
1001.1
1207.58
1359.99
1462.91
1558.53
1642.82
1727.83
1874.59
2137.67
2219.5
2275.24
2322.97
2349.52
2311.01
2247.98
2159.29
2087.82
2026.85
1971.71
1898.04
1804.68
1699.2
1587.17
1470.31
1354.28
1241.86
1137.23
1041.19
955.756
882.129
824.217
789.194
789.999
836.888
920.597
1011.37
1081.93
1120.28
1127.01
1108.26
1071.35
1022.82
967.752
909.961
852.015
795.751
742.152
691.986
645.378
602.622
563.375
527.837
495.346
466.349
439.997
81.8597
117.441
136.307
149.53
157.434
161.417
163.915
166.464
169.744
173.649
177.56
180.661
182.29
182.15
180.254
176.836
172.208
166.688
160.538
154.001
147.249
140.439
133.686
127.08
120.688
114.564
108.749
103.269
98.1702
93.4487
89.1899
85.3915
82.2706
79.9194
79.0986
80.3608
86.2046
97.4875
118.627
151.267
210.723
316.809
503.256
751.094
1011.89
1219.69
1371.99
1476.16
1571.4
1656.5
1740.31
1884.35
2144.99
2238.94
2301.22
2347.57
2366.56
2323.17
2256.02
2165.74
2090.45
2024.87
1963.43
1887.22
1796.15
1696.2
1589.2
1475.72
1361.28
1249.39
1144.55
1048.03
961.944
887.707
829.281
794.006
794.853
841.971
925.753
1016.39
1086.74
1124.98
1131.68
1112.95
1076.05
1027.48
972.337
914.425
856.34
799.906
746.149
695.806
649.057
606.141
566.794
531.127
498.606
469.508
443.202
80.8625
115.775
134.829
148.335
156.341
160.39
163.002
165.75
169.294
173.478
177.63
180.899
182.617
182.504
180.598
177.157
172.499
166.955
160.783
154.232
147.465
140.646
133.879
127.265
120.859
114.727
108.898
103.412
98.3023
93.5867
89.3346
85.5765
82.5216
80.3161
79.7476
81.4397
87.8761
99.8537
121.573
154.911
215.039
322.561
510.11
759.699
1020.8
1229.8
1381.95
1487.32
1582.09
1667.88
1750.36
1891.27
2148.88
2255.04
2324.25
2369.82
2381.68
2333.48
2262.03
2169.88
2090.56
2020.3
1952.93
1874.82
1786.57
1692.3
1590.24
1480.02
1367.09
1255.74
1150.76
1053.82
967.147
892.358
833.448
797.89
798.648
845.765
929.379
1019.71
1089.8
1127.94
1134.68
1116.04
1079.25
1030.74
975.622
917.687
859.558
803.041
749.207
698.761
651.938
608.923
569.533
533.787
501.282
472.125
445.905
79.8368
114.049
133.259
147.016
155.106
159.21
161.931
164.869
168.664
173.11
177.481
180.897
182.687
182.592
180.673
177.209
172.528
166.968
160.786
154.231
147.462
140.645
133.878
127.267
120.858
114.727
108.894
103.413
98.3028
93.6038
89.3705
85.6669
82.6964
80.6596
80.3702
82.5119
89.5297
102.155
124.375
158.31
218.944
327.606
515.826
766.724
1027.84
1237.9
1389.87
1496.4
1590.62
1676.94
1758.01
1895.4
2149.44
2267.86
2344.35
2389.62
2394.74
2341.84
2265.99
2171.73
2088.23
2013.27
1940.37
1860.94
1775.98
1687.47
1590.24
1483.16
1371.7
1260.91
1155.82
1058.54
971.359
896.078
836.711
800.838
801.379
848.271
931.481
1021.35
1091.11
1129.17
1135.99
1117.54
1080.94
1032.6
977.61
919.75
861.668
805.154
751.322
700.844
654.015
610.96
571.582
535.805
503.364
474.187
448.091
78.7918
112.282
131.617
145.589
153.741
157.89
160.713
163.833
167.864
172.552
177.122
180.665
182.511
182.424
180.488
177.004
172.306
166.739
160.556
154.009
147.248
140.445
133.687
127.09
120.688
114.57
108.742
103.276
98.1748
93.5031
89.3009
85.6664
82.7994
80.9545
80.9698
83.5766
91.1582
104.38
127.024
161.454
222.428
331.937
520.401
772.171
1033.02
1244.01
1395.76
1503.4
1596.99
1683.71
1763.26
1896.77
2146.75
2277.48
2361.52
2406.91
2405.66
2348.17
2267.86
2171.31
2083.5
2003.88
1925.89
1845.72
1764.4
1681.68
1589.15
1485.09
1375.07
1264.86
1159.73
1062.19
974.574
898.863
839.07
802.851
803.047
849.494
932.071
1021.33
1090.7
1128.68
1135.65
1117.46
1081.15
1033.07
978.307
920.616
862.671
806.244
752.492
702.054
655.282
612.246
572.934
537.173
504.84
475.682
449.75
77.7353
110.489
129.916
144.067
152.26
156.443
159.36
162.651
166.904
171.816
176.562
180.212
182.099
182.011
180.055
176.552
171.842
166.276
160.102
153.572
146.83
140.051
133.314
126.74
120.355
114.259
108.446
103.004
97.9219
93.288
89.1295
85.5792
82.8357
81.2061
81.5499
84.6325
92.7546
106.521
129.512
164.337
225.489
335.55
523.84
776.047
1036.35
1248.13
1399.65
1508.34
1601.24
1688.22
1766.16
1895.45
2140.93
2283.95
2375.8
2421.63
2414.35
2352.42
2267.62
2168.63
2076.46
1992.25
1909.64
1829.23
1751.86
1674.89
1586.91
1485.78
1377.17
1267.58
1162.48
1064.76
976.792
900.713
840.524
803.929
803.657
849.445
931.167
1019.66
1088.59
1126.49
1133.66
1115.81
1079.88
1032.16
977.719
920.29
862.571
806.313
752.717
702.386
655.735
612.776
573.581
537.884
505.702
476.6
450.87
76.674
108.683
128.172
142.464
150.674
154.879
157.88
161.332
165.792
170.908
175.809
179.547
181.46
181.363
179.385
175.865
171.148
165.59
159.433
152.93
146.217
139.472
132.764
126.223
119.865
113.8
108.011
102.601
97.5478
92.9623
88.8605
85.4101
82.8106
81.4199
82.1138
85.6776
94.312
108.568
131.833
166.956
228.124
338.449
526.152
778.37
1037.85
1250.3
1401.54
1511.24
1603.36
1690.47
1766.73
1891.48
2132.07
2287.36
2387.2
2433.76
2420.74
2354.53
2265.27
2163.72
2067.17
1978.51
1891.72
1811.56
1738.35
1667.06
1583.47
1485.18
1377.98
1269.06
1164.08
1066.26
978.013
901.631
841.077
804.079
803.218
848.141
928.794
1016.38
1084.8
1122.64
1130.05
1112.61
1077.16
1029.89
975.857
918.78
861.373
805.364
751.997
701.842
655.374
612.546
573.519
537.932
505.943
476.934
451.441
75.6133
106.875
126.395
140.792
148.997
153.21
156.284
159.885
164.537
169.836
174.873
178.679
180.605
180.49
178.487
174.952
170.234
164.691
158.559
152.091
145.417
138.714
132.045
125.546
119.223
113.196
107.44
102.071
97.0568
92.5304
88.4988
85.1646
82.7305
81.6018
82.6645
86.7096
95.8236
110.515
133.981
169.305
230.335
340.637
527.354
779.16
1037.55
1250.53
1401.46
1512.11
1603.4
1690.51
1765.02
1884.93
2120.3
2287.8
2395.77
2443.28
2424.8
2354.48
2260.79
2156.64
2055.72
1962.77
1872.26
1792.77
1723.87
1658.15
1578.8
1483.28
1377.49
1269.29
1164.5
1066.68
978.243
901.621
840.736
803.309
801.746
845.605
924.98
1011.51
1079.37
1117.14
1124.85
1107.89
1072.99
1026.26
972.733
916.097
859.085
803.403
750.338
700.424
654.199
611.556
572.746
537.312
505.557
476.678
451.456
74.5578
105.075
124.597
139.062
147.238
151.446
154.582
158.319
163.145
168.609
173.76
177.618
179.544
179.404
177.373
173.824
169.109
163.587
157.488
151.065
144.437
137.785
131.163
124.714
118.434
112.454
106.738
101.42
96.4534
91.997
88.0497
84.8488
82.602
81.7576
83.2043
87.7256
97.283
112.354
135.953
171.385
232.123
342.125
527.467
778.447
1035.48
1248.85
1399.44
1510.99
1601.39
1688.37
1761.05
1875.87
2105.73
2285.35
2401.55
2450.17
2426.51
2352.26
2254.22
2147.42
2042.18
1945.15
1851.37
1772.91
1708.4
1648.11
1572.85
1480.03
1375.68
1268.28
1163.77
1066.03
977.487
900.693
839.51
801.633
799.258
841.865
919.761
1005.1
1072.33
1110.04
1118.08
1101.67
1067.4
1021.3
968.364
912.253
855.718
800.439
747.746
698.138
652.212
609.808
571.263
536.025
504.543
475.827
450.911
73.5114
103.29
122.787
137.284
145.409
149.596
152.783
156.642
161.625
167.234
172.48
176.372
178.285
178.113
176.053
172.493
167.785
162.29
156.231
149.859
143.285
136.692
130.125
123.733
117.504
111.578
105.911
100.651
95.7426
91.3676
87.5193
84.4696
82.4322
81.8932
83.7352
88.7225
98.6842
114.08
137.745
173.195
233.496
342.927
526.518
776.266
1031.68
1245.3
1395.52
1507.9
1597.35
1684.08
1754.89
1864.38
2088.51
2280.11
2404.59
2454.46
2425.86
2347.85
2245.57
2136.12
2026.65
1925.75
1829.15
1752.04
1691.96
1636.93
1565.61
1475.45
1372.55
1266.03
1161.89
1064.33
975.757
898.856
837.411
799.065
795.778
836.952
913.179
997.189
1063.73
1101.38
1109.78
1093.98
1060.42
1015.03
962.769
907.267
851.287
796.484
744.23
694.99
649.421
607.306
569.071
534.071
502.898
474.38
449.802
72.4772
101.527
120.974
135.469
143.52
147.671
150.895
154.862
159.985
165.719
171.039
174.949
176.839
176.629
174.538
170.967
166.271
160.809
154.796
148.482
141.969
135.442
128.938
122.609
116.438
110.574
104.964
99.7696
94.9298
90.648
86.9143
84.0342
82.2286
82.0143
84.2586
89.6964
100.021
115.688
139.356
174.736
234.46
343.059
524.538
772.657
1026.19
1239.92
1389.73
1502.89
1591.32
1677.7
1746.58
1850.53
2068.75
2272.19
2404.96
2456.16
2422.85
2341.27
2234.88
2122.8
2009.23
1904.71
1805.68
1730.2
1674.52
1624.57
1557.05
1469.5
1368.11
1262.54
1158.87
1061.58
973.066
896.126
834.455
795.624
791.332
830.905
905.278
987.826
1053.61
1091.18
1099.99
1084.85
1052.07
1007.47
955.971
901.157
845.809
791.554
739.805
690.992
645.834
604.057
566.176
531.454
500.627
472.339
448.129
71.4578
99.7917
119.164
133.625
141.58
145.68
148.927
152.987
158.231
164.07
169.447
173.359
175.214
174.96
172.837
169.258
164.577
159.153
153.193
146.943
140.498
134.043
127.607
121.35
115.243
109.448
103.902
98.7822
94.0209
89.8447
86.242
83.5508
81.9988
82.1262
84.7749
90.6436
101.289
117.175
140.785
176.012
235.026
342.543
521.565
767.667
1019.07
1232.76
1382.12
1495.99
1583.37
1669.28
1736.18
1834.42
2046.62
2261.7
2402.72
2455.3
2417.49
2332.54
2222.18
2107.53
1990.01
1882.11
1781.06
1707.41
1656.08
1611.02
1547.17
1462.21
1362.37
1257.83
1154.72
1057.79
969.43
892.517
830.661
791.334
785.952
823.766
896.111
977.064
1042.03
1079.52
1088.75
1074.33
1042.4
998.663
947.999
893.949
839.305
785.667
734.486
686.159
641.463
600.072
562.587
528.18
497.733
469.706
445.894
70.4552
98.0876
117.364
131.76
139.599
143.632
146.888
151.025
156.372
162.296
167.71
171.609
173.419
173.117
170.96
167.375
162.714
157.333
151.43
145.25
138.879
132.502
126.141
119.96
113.925
108.205
102.73
97.6944
93.0226
88.965
85.5107
83.0279
81.7507
82.2336
85.284
91.5599
102.483
118.536
142.031
177.026
235.206
341.402
517.64
761.345
1010.37
1223.86
1372.74
1487.26
1573.52
1658.86
1723.75
1816.13
2022.25
2248.75
2397.94
2451.91
2409.82
2321.69
2207.54
2090.39
1969.09
1858.08
1755.37
1683.73
1636.64
1596.28
1535.96
1453.57
1355.33
1251.92
1149.47
1053
964.868
888.05
826.047
786.218
779.67
815.58
885.732
964.963
1029.03
1066.43
1076.12
1062.46
1031.44
988.637
938.882
885.67
831.801
778.845
728.292
680.506
636.323
595.363
558.314
524.261
494.225
466.49
443.102
69.4713
96.4184
115.58
129.883
137.585
141.536
144.786
148.982
154.414
160.403
165.836
169.709
171.465
171.109
168.919
165.329
160.69
155.357
149.517
143.412
137.12
130.827
124.547
118.448
112.49
106.852
101.457
96.5127
91.9419
88.0167
84.7289
82.4745
81.4918
82.3408
85.7852
92.4412
103.599
119.77
143.096
177.784
235.013
339.662
512.805
753.749
1000.15
1213.29
1361.64
1476.73
1561.85
1646.51
1709.37
1795.75
1995.81
2233.46
2390.71
2446.05
2399.88
2308.77
2191
2071.46
1946.57
1832.73
1728.68
1659.17
1616.21
1580.33
1523.43
1443.6
1347.03
1244.82
1143.14
1047.22
959.401
882.746
820.638
780.305
772.525
806.398
874.201
951.586
1014.7
1051.97
1062.13
1049.28
1019.23
977.431
928.654
876.35
823.322
771.112
721.247
674.054
630.432
589.946
553.371
519.707
490.112
462.698
439.761
68.5072
94.7867
113.815
127.999
135.546
139.4
142.63
146.868
152.364
158.399
163.834
167.667
169.36
168.947
166.722
163.13
158.517
153.235
147.462
141.437
135.23
129.025
122.83
116.819
110.945
105.394
100.087
95.2442
90.7865
87.0086
83.9063
81.9
81.2295
82.451
86.2771
93.2832
104.632
120.875
143.981
178.292
234.461
337.353
507.111
744.939
988.472
1201.1
1348.87
1464.47
1548.4
1632.29
1693.09
1773.39
1967.44
2215.97
2381.1
2437.78
2387.72
2293.83
2172.64
2050.82
1922.56
1806.16
1701.08
1633.78
1594.79
1563.19
1509.6
1432.33
1337.48
1236.57
1135.74
1040.47
953.054
876.628
814.459
773.624
764.556
796.272
861.58
936.998
999.077
1036.21
1046.85
1034.85
1005.82
965.087
917.355
866.025
813.902
762.497
713.374
666.827
623.81
583.84
547.776
514.534
485.408
458.342
435.88
67.5641
93.1946
112.075
126.116
133.491
137.233
140.426
144.69
150.23
156.292
161.711
165.49
167.113
166.639
164.379
160.786
156.203
150.976
145.275
139.334
133.216
127.104
121
115.081
109.296
103.84
98.6281
93.8965
89.565