/*--------------------------------*- C++ -*----------------------------------*\
| =========                 |                                                 |
| \\      /  F ield         | OpenFOAM: The Open Source CFD Toolbox           |
|  \\    /   O peration     | Version:  2412                                  |
|   \\  /    A nd           | Website:  www.openfoam.com                      |
|    \\/     M anipulation  |                                                 |
\*---------------------------------------------------------------------------*/
FoamFile
{
    version     2.0;
    format      ascii;
    arch        "LSB;label=32;scalar=64";
    class       volScalarField;
    location    "0.4";
    object      p;
}
// * * * * * * * * * * * * * * * * * * * * * * * * * * * * * * * * * * * * * //

dimensions      [0 2 -2 0 0 0 0];

internalField   nonuniform List<scalar> 
78408
(
121559
113517
112521
111802
110928
110277
109768
109331
109003
108737
108536
108350
108186
107999
107814
107592
107374
107099
106841
106508
106206
105799
105447
104935
104529
103885
103416
102593
102065
100987
100420
98984.2
98412.4
96452.2
95967.1
93220.2
93003.7
89015.4
89455
83433.5
85265.7
75834.9
80612.5
65537.1
75958.7
51712.6
71090.1
32456.6
64129.2
1474.33
51019.8
-54651.5
17213.2
-277026
-29318.6
-67956.2
8031.74
-34699.5
15691.2
-9546.56
23708.6
10322.7
32106.5
25840.7
40233
37519.1
46752.6
45903.5
51980.8
52197.7
56271.9
56978
59745.4
60604.5
62544.1
63417.9
64869.1
65760.2
66982.4
67935.3
69058.5
70019.4
71009.9
71916.8
72743.2
73566.1
74222.2
74958.6
75452.1
76145
76477.5
77168.9
77338.5
78098.4
78067.1
79010.8
78671.3
80022.1
79095.3
119606
112946
112393
111774
110913
110265
109758
109322
108996
108731
108531
108346
108182
107995
107810
107588
107369
107094
106837
106503
106201
105793
105441
104929
104523
103878
103409
102585
102056
100977
100410
98973.1
98400.7
96439.2
95953.5
93205.1
92987.8
88998
89436.1
83413.3
85243.2
75811.6
80586.1
65511.8
75928.7
51685.9
71055.1
32424.8
64080.8
1428.45
50944.8
-54737.1
17170.3
-275843
-29177.7
-68089.4
7998.34
-34709.9
15673.2
-9557.8
23693.5
10311.7
32093.2
25829.5
40220.5
37508.7
46742.3
45894.9
51972.7
52190.6
56265.5
56972
59740.1
60599.4
62539.6
63413.5
64865
65756.1
66978.5
67931.2
69054.4
70015.3
71005.9
71913
72739.6
73562.8
74219
74955.7
75449.2
76142.4
76474.9
77166.7
77335.9
78096.5
78064.3
79009.2
78668.1
80020.9
79091.7
119254
113079
112437
111773
110903
110255
109750
109315
108991
108727
108528
108343
108179
107992
107807
107584
107366
107091
106833
106499
106196
105788
105436
104923
104517
103871
103402
102577
102049
100968
100401
98962.5
98390.4
96426.7
95941.5
93190.3
92973.5
88980.5
89419
83392.6
85222.3
75787.5
80560.7
65484.7
75896.5
51655.1
71013.8
32386.3
64021.9
1372.57
50853.2
-54845.7
17128.5
-274448
-29053.8
-68247.4
7966.11
-34724.4
15649.3
-9572.33
23673.6
10297.7
32075.4
25814.6
40203.3
37494.8
46728.8
45883.9
51962.9
52182.2
56258.1
56965.3
59734.3
60593.9
62534.8
63408.9
64860.9
65751.9
66974.4
67926.8
69049.8
70010.8
71001.4
71908.9
72735.6
73559.2
74215.4
74952.9
75446.1
76140
76472
77164.8
77333.1
78095
78061.2
79008.6
78664
80021.4
79086.7
119194
113170
112434
111753
110889
110245
109742
109309
108986
108723
108525
108341
108177
107990
107805
107581
107363
107087
106829
106495
106192
105783
105431
104918
104512
103865
103396
102570
102042
100960
100393
98952.6
98381.4
96415.1
95931
93176.5
92961.3
88964.2
89404.6
83373.3
85205.1
75765.1
80539.6
65459.5
75868.1
51625.8
70975.2
32349.6
63965.7
1319.92
50765.7
-54950.4
17080.4
-273139
-28912.9
-68388.8
7943.92
-34737.7
15629.6
-9585.26
23657.2
10285.6
32060.5
25801
40188.2
37481.7
46716.7
45873.8
51954.2
52174.6
56251.8
56959.3
59729.4
60589.1
62530.8
63404.8
64857.4
65748.3
66971.2
67923.3
69046.2
70006.9
70997.6
71905.2
72732.1
73556
74212.3
74950.4
75443.3
76137.9
76469.4
77163.1
77330.3
78094
78057.9
79008.5
78659.7
80022.8
79080.9
118864
113136
112411
111733
110877
110235
109734
109302
108981
108719
108522
108338
108174
107987
107802
107578
107359
107083
106825
106491
106188
105779
105427
104912
104506
103859
103390
102563
102035
100952
100385
98942.5
98372.7
96403.2
95921.1
93162.3
92950
88947.4
89391.3
83353.3
85189.4
75741.7
80520
65432.8
75840.7
51595.2
70937.6
32311.6
63910.1
1265.27
50678
-55058.7
17013.8
-271835
-28732.9
-68526.1
7926.99
-34749.9
15613.6
-9597.24
23643.6
10274.4
32047.9
25788.5
40174.9
37469.7
46706
45864.4
51946.6
52167.7
56246.3
56953.8
59725.1
60584.6
62527.2
63401.1
64854.3
65745.2
66968.6
67920.4
69043.1
70003.7
70994.2
71902
72728.9
73553.2
74209.4
74948.1
75440.6
76136
76466.8
77161.7
77327.6
78093
78054.6
79008.5
78655.2
80024.5
79074.7
118548
113110
112406
111711
110863
110223
109725
109295
108975
108715
108518
108335
108171
107984
107799
107575
107356
107079
106821
106486
106184
105774
105422
104907
104501
103852
103384
102555
102028
100943
100378
98932
98364
96390.8
95911.4
93147.6
92938.9
88929.9
89378.6
83332.2
85174.3
75716.6
80500
65403.7
75812.5
51562.4
70899.6
32271.4
63853.9
1207.21
50588.5
-55172.6
16940.4
-270509
-28530
-68665.2
7912.31
-34761.9
15599.2
-9609.3
23631
10263.2
32035.9
25776
40162.2
37457.9
46695.9
45855.3
51939.5
52160.9
56241.1
56948.5
59721
60580.2
62523.8
63397.5
64851.4
65742.3
66966.3
67917.7
69040.4
70000.6
70991.1
71899
72725.9
73550.5
74206.5
74945.8
75438
76134.1
76464.2
77160.3
77324.9
78092.2
78051.3
79008.6
78650.6
80026.5
79068.1
118283
113082
112402
111687
110848
110212
109715
109287
108970
108710
108515
108332
108169
107981
107796
107571
107352
107076
106818
106482
106179
105768
105417
104901
104495
103845
103378
102547
102021
100933
100370
98921.2
98355.2
96378.1
95901.7
93132.4
92928.1
88911.8
89366.2
83310.2
85159.4
75689.9
80479.3
65372.5
75783.8
51528.1
70861.6
32229.9
63797.7
1147.43
50498.5
-55288.5
16869.9
-269176
-28316.7
-68803.8
7899.44
-34773.8
15585.7
-9621.62
23618.8
10251.7
32023.9
25763.2
40149.7
37446.1
46686.1
45846.2
51932.6
52154.2
56236.1
56943.2
59717.1
60575.9
62520.5
63393.9
64848.7
65739.4
66964
67915.1
69037.7
69997.6
70988
71895.9
72722.8
73547.7
74203.6
74943.6
75435.3
76132.2
76461.7
77158.9
77322.1
78091.3
78047.9
79008.8
78645.8
80028.6
79061.3
118029
113046
112395
111661
110833
110200
109705
109279
108964
108706
108511
108329
108166
107978
107793
107568
107349
107072
106814
106477
106175
105763
105412
104895
104489
103838
103372
102539
102014
100924
100362
98910
98346.3
96364.9
95891.9
93116.7
92917.3
88893
89353.9
83287.2
85144.1
75661.4
80457.9
65339.7
75755
51493.1
70824
32188
63742.1
1087.18
50409.3
-55403.6
16803.9
-267847
-28096.9
-68939.8
7888.27
-34785.9
15573
-9634.17
23606.9
10239.8
32012
25750.1
40137.3
37434.3
46676.6
45837.3
51926
52147.6
56231.3
56937.9
59713.2
60571.6
62517.2
63390.4
64846
65736.7
66961.9
67912.6
69035
69994.7
70984.9
71892.9
72719.8
73545
74200.8
74941.4
75432.7
76130.3
76459.1
77157.5
77319.3
78090.5
78044.4
79009.1
78640.9
80030.9
79054.2
117781
113008
112387
111634
110818
110188
109696
109271
108958
108701
108508
108326
108163
107975
107790
107565
107346
107068
106810
106473
106170
105758
105407
104889
104484
103831
103365
102531
102007
100915
100354
98898.7
98337.4
96351.5
95882.1
93100.6
92906.4
88873.6
89341.6
83263.2
85128.2
75631.3
80436
65305.9
75726.4
51457.7
70787.1
32146.1
63687.4
1026.99
50321.2
-55516.7
16742.3
-266525
-27872.5
-69072.9
7878.57
-34798
15561
-9646.97
23595.2
10227.6
32000
25736.8
40125
37422.6
46667.4
45828.6
51919.7
52141.1
56226.6
56932.7
59709.4
60567.2
62514
63386.8
64843.3
65733.9
66959.8
67910.1
69032.4
69991.7
70981.8
71889.9
72716.8
73542.3
74197.9
74939.2
75430
76128.5
76456.5
77156.1
77316.5
78089.8
78040.8
79009.3
78635.9
80033.3
79047
117544
112970
112377
111608
110803
110176
109686
109263
108952
108697
108504
108323
108161
107973
107787
107561
107342
107064
106806
106469
106166
105753
105402
104883
104478
103824
103359
102523
102000
100905
100346
98887.3
98328.5
96337.9
95872.2
93084.2
92895.6
88853.7
89329
83238.1
85111.7
75600
80413.9
65271.4
75698.2
51422.3
70750.9
32104.3
63633.6
967.147
50234.2
-55627.3
16684.9
-265208
-27645.1
-69203.3
7870.1
-34810.3
15549.4
-9660.07
23583.7
10215
31988
25723.2
40112.9
37411
46658.5
45819.9
51913.5
52134.6
56222
56927.5
59705.7
60562.9
62510.8
63383.3
64840.7
65731.1
66957.6
67907.6
69029.7
69988.7
70978.7
71886.9
72713.7
73539.5
74195
74936.9
75427.3
76126.6
76453.8
77154.7
77313.6
78089
78037.2
79009.6
78630.8
80035.8
79039.5
117317
112933
112366
111581
110788
110163
109676
109255
108946
108692
108501
108320
108158
107970
107785
107558
107339
107060
106802
106464
106162
105748
105397
104877
104473
103818
103353
102515
101993
100895
100338
98875.8
98319.7
96324.1
95862.4
93067.6
92884.7
88833.3
89316.2
83212.2
85094.8
75567.9
80392.1
65236.7
75670.6
51387
70715.5
32062.9
63580.8
907.861
50148.5
-55734.9
16631.7
-263898
-27416.1
-69331.2
7862.6
-34822.8
15538.3
-9673.52
23572.2
10202
31975.9
25709.4
40101
37399.5
46649.9
45811.4
51907.6
52128.2
56217.5
56922.2
59702
60558.6
62507.6
63379.7
64838
65728.3
66955.5
67904.9
69027
69985.6
70975.6
71883.8
72710.6
73536.8
74192.1
74934.7
75424.6
76124.7
76451.1
77153.3
77310.7
78088.2
78033.5
79009.9
78625.6
80038.3
79031.8
117100
112897
112353
111555
110773
110151
109666
109247
108940
108687
108498
108317
108155
107967
107782
107555
107336
107057
106799
106460
106158
105743
105392
104871
104467
103811
103347
102506
101986
100886
100330
98864.4
98310.9
96310.3
95852.8
93050.7
92873.9
88812.6
89303.3
83185.5
85077.9
75535.3
80370.6
65202
75643.6
51351.9
70680.8
32022
63528.9
849.274
50064
-55839.3
16582.6
-262596
-27186.6
-69457
7855.85
-34835.6
15527.4
-9687.35
23560.7
10188.6
31963.7
25695.4
40089.2
37388
46641.5
45803
51901.8
52121.9
56213.1
56917
59698.2
60554.2
62504.4
63376.1
64835.4
65725.5
66953.2
67902.2
69024.1
69982.5
70972.4
71880.7
72707.5
73534
74189.2
74932.4
75421.8
76122.8
76448.4
77151.9
77307.7
78087.4
78029.7
79010.2
78620.3
80040.9
79024
116893
112860
112340
111529
110758
110138
109656
109239
108934
108683
108494
108314
108153
107964
107779
107552
107332
107053
106795
106456
106154
105738
105387
104866
104462
103804
103340
102498
101979
100876
100322
98852.9
98302.3
96296.5
95843.2
93033.8
92863.2
88791.5
89290.3
83158.5
85061
75502.6
80349.6
65167.4
75617.2
51317
70647
31981.5
63478.1
791.476
49980.9
-55940.4
16537.6
-261301
-26957.5
-69580.9
7849.66
-34848.9
15516.6
-9701.59
23549.1
10174.8
31951.4
25681.2
40077.6
37376.6
46633.4
45794.8
51896.2
52115.5
56208.6
56911.7
59694.5
60549.7
62501.2
63372.4
64832.7
65722.6
66950.9
67899.4
69021.2
69979.3
70969.1
71877.5
72704.3
73531.1
74186.2
74930.1
75419.1
76120.9
76445.7
77150.5
77304.7
78086.6
78025.9
79010.5
78614.9
80043.6
79016.1
116693
112824
112325
111502
110743
110126
109646
109231
108928
108678
108491
108311
108150
107962
107776
107549
107329
107049
106791
106451
106149
105733
105382
104860
104457
103797
103334
102490
101972
100867
100315
98841.5
98293.7
96282.7
95833.7
93016.9
92852.5
88770.3
89277.3
83131.1
85044.4
75469.9
80329
65132.9
75591.4
51282.5
70613.9
31941.5
63428.1
734.516
49899
-56038
16496.3
-260014
-26729.1
-69703.3
7843.82
-34862.6
15505.8
-9716.26
23537.4
10160.6
31938.9
25666.8
40066
37365.3
46625.5
45786.6
51890.6
52109.1
56204.2
56906.3
59690.8
60545.2
62498
63368.7
64829.9
65719.6
66948.4
67896.4
69018.2
69976
70965.8
71874.3
72701.1
73528.3
74183.2
74927.8
75416.3
76119
76442.9
77149
77301.6
78085.8
78022
79010.8
78609.5
80046.2
79008
116501
112788
112309
111476
110727
110113
109635
109223
108922
108674
108487
108308
108148
107959
107774
107546
107326
107046
106788
106447
106145
105728
105378
104854
104451
103791
103329
102483
101966
100858
100307
98830.1
98285.3
96268.9
95824.3
92999.9
92841.9
88748.9
89264.3
83103.5
85028.1
75437.3
80309
65098.7
75566.3
51248.4
70581.6
31902.1
63379.1
678.42
49818.4
-56132.2
16458.7
-258735
-26501.9
-69824.4
7838.19
-34876.7
15495.1
-9731.38
23525.6
10145.9
31926.4
25652.2
40054.7
37354.1
46617.8
45778.5
51885.2
52102.8
56199.8
56900.9
59687
60540.7
62494.7
63364.9
64827.1
65716.5
66945.9
67893.4
69015.1
69972.6
70962.4
71871
72697.8
73525.4
74180.1
74925.4
75413.5
76117.1
76440.1
77147.6
77298.5
78084.9
78018.1
79011.1
78603.9
80048.9
78999.8
116316
112753
112291
111450
110712
110100
109625
109215
108917
108669
108484
108306
108145
107956
107771
107543
107323
107042
106784
106443
106141
105723
105373
104849
104446
103784
103323
102475
101959
100848
100300
98818.7
98276.9
96255.1
95815.1
92982.8
92831.4
88727.3
89251.4
83075.9
85012.1
75404.9
80289.5
65064.8
75541.7
51214.6
70550
31863.3
63331
623.194
49739
-56223.1
16424.6
-257464
-26276
-69944.2
7832.65
-34891.4
15484.2
-9746.95
23513.7
10130.9
31913.7
25637.5
40043.4
37343
46610.3
45770.5
51879.9
52096.4
56195.4
56895.5
59683.2
60536.1
62491.4
63361.1
64824.3
65713.3
66943.2
67890.1
69011.8
69969.2
70958.9
71867.7
72694.6
73522.5
74177.1
74923.1
75410.6
76115.1
76437.3
77146.2
77295.4
78084.1
78014.2
79011.4
78598.3
80051.6
78991.5
116138
112717
112273
111423
110697
110087
109615
109207
108911
108665
108481
108303
108143
107954
107769
107540
107320
107039
106781
106439
106138
105719
105369
104843
104441
103778
103317
102467
101952
100839
100292
98807.4
98268.7
96241.3
95805.9
92965.7
92821
88705.6
89238.6
83048.3
84996.4
75372.8
80270.5
65031.1
75517.8
51181.2
70519.1
31825
63283.8
568.834
49660.8
-56310.7
16393.7
-256201
-26051.6
-70062.9
7827.1
-34906.7
15473.3
-9762.99
23501.6
10115.5
31901
25622.7
40032.3
37332
46603
45762.5
51874.6
52090
56191
56890
59679.4
60531.4
62488
63357.2
64821.3
65710
66940.4
67886.8
69008.5
69965.6
70955.4
71864.4
72691.2
73519.5
74174
74920.7
75407.7
76113.1
76434.4
77144.7
77292.3
78083.3
78010.1
79011.6
78592.6
80054.4
78983.1
115967
112682
112254
111397
110682
110074
109605
109199
108905
108660
108478
108300
108141
107951
107766
107537
107317
107035
106777
106435
106134
105714
105364
104838
104436
103771
103311
102459
101946
100830
100285
98796.2
98260.6
96227.6
95796.9
92948.6
92810.6
88683.8
89225.8
83020.7
84981.1
75340.9
80252
64997.7
75494.3
51148.2
70488.8
31787.2
63237.4
515.329
49583.8
-56395.1
16366
-254947
-25828.7
-70180.6
7821.49
-34922.5
15462.2
-9779.49
23489.3
10099.8
31888.2
25607.7
40021.3
37321
46595.9
45754.6
51869.3
52083.5
56186.6
56884.4
59675.5
60526.7
62484.6
63353.2
64818.3
65706.6
66937.5
67883.3
69005
69962
70951.8
71860.9
72687.8
73516.5
74170.9
74918.3
75404.8
76111.2
76431.5
77143.2
77289.1
78082.4
78006.1
79011.9
78586.9
80057.1
78974.7
115801
112647
112233
111371
110667
110061
109595
109191
108899
108656
108475
108297
108138
107949
107764
107534
107314
107032
106774
106431
106130
105709
105360
104833
104431
103765
103306
102451
101940
100820
100278
98785
98252.5
96213.8
95787.9
92931.5
92800.3
88661.9
89213.3
82993.2
84966.2
75309.3
80233.9
64964.6
75471.4
51115.5
70459.2
31749.9
63191.7
462.661
49508
-56476.2
16341.3
-253701
-25607.4
-70297.3
7815.77
-34938.8
15450.9
-9796.44
23476.9
10083.6
31875.3
25592.6
40010.4
37310.1
46588.9
45746.7
51864.1
52077
56182.1
56878.8
59671.6
60522
62481.2
63349.2
64815.3
65703.1
66934.5
67879.7
69001.4
69958.2
70948.2
71857.5
72684.4
73513.5
74167.7
74915.9
75401.9
76109.2
76428.6
77141.8
77285.9
78081.6
78002
79012.1
78581.1
80059.9
78966.1
115641
112613
112212
111346
110652
110048
109585
109183
108893
108652
108471
108295
108136
107946
107761
107531
107311
107029
106771
106427
106126
105705
105356
104827
104426
103758
103300
102444
101933
100811
100271
98773.8
98244.6
96200.2
95779
92914.4
92790
88640
89200.8
82965.9
84951.6
75277.9
80216.3
64931.8
75449
51083.1
70430.1
31713.2
63146.9
410.812
49433.2
-56554.3
16319.4
-252463
-25387.7
-70412.9
7809.92
-34955.8
15439.4
-9813.85
23464.3
10067.2
31862.3
25577.4
39999.6
37299.3
46582
45738.8
51858.9
52070.4
56177.6
56873.1
59667.7
60517.2
62477.7
63345.1
64812.1
65699.4
66931.3
67876
68997.8
69954.4
70944.5
71854
72681
73510.5
74164.5
74913.4
75399
76107.2
76425.7
77140.3
77282.6
78080.7
77997.9
79012.3
78575.2
80062.6
78957.5
115487
112578
112190
111320
110637
110035
109575
109175
108888
108647
108468
108292
108134
107944
107759
107528
107308
107025
106767
106424
106122
105700
105351
104822
104421
103752
103295
102436
101927
100802
100264
98762.7
98236.7
96186.5
95770.2
92897.2
92779.8
88617.9
89188.5
82938.7
84937.4
75246.8
80199
64899.2
75427.1
51051.1
70401.6
31677
63102.8
359.76
49359.5
-56629.4
16300.1
-251234
-25169.5
-70527.5
7803.95
-34973.3
15427.7
-9831.69
23451.5
10050.4
31849.3
25562.1
39989
37288.5
46575.3
45730.9
51853.7
52063.8
56173.1
56867.4
59663.7
60512.4
62474.2
63341
64808.9
65695.7
66928
67872.2
68994
69950.6
70940.7
71850.4
72677.5
73507.4
74161.3
74911
75396
76105.2
76422.8
77138.8
77279.4
78079.8
77993.7
79012.5
78569.3
80065.4
78948.7
115337
112543
112168
111294
110621
110022
109565
109167
108882
108643
108465
108290
108132
107942
107756
107525
107305
107022
106764
106420
106119
105696
105347
104817
104416
103746
103289
102429
101921
100793
100257
98751.6
98228.9
96172.8
95761.5
92880
92769.6
88595.9
89176.4
82911.7
84923.5
75215.9
80182.1
64866.9
75405.6
51019.4
70373.7
31641.2
63059.3
309.485
49286.8
-56701.6
16283.4
-250013
-24952.9
-70641
7797.84
-34991.3
15415.7
-9849.97
23438.6
10033.4
31836.2
25546.7
39978.4
37277.8
46568.6
45723
51848.5
52057.2
56168.5
56861.6
59659.7
60507.5
62470.6
63336.8
64805.6
65691.9
66924.6
67868.2
68990.1
69946.6
70936.9
71846.8
72673.9
73504.3
74158.1
74908.5
75393
76103.1
76419.8
77137.3
77276.1
78078.9
77989.5
79012.7
78563.3
80068.1
78940
115193
112508
112144
111269
110606
110009
109555
109159
108876
108639
108463
108288
108130
107939
107754
107523
107302
107019
106761
106416
106115
105691
105343
104812
104412
103740
103284
102421
101915
100784
100250
98740.5
98221.2
96159.2
95752.8
92862.7
92759.5
88573.9
89164.5
82884.8
84909.9
75185.3
80165.6
64834.8
75384.5
50988
70346.3
31605.9
63016.6
259.965
49215.1
-56771
16269.2
-248801
-24737.9
-70753.4
7791.62
-35009.8
15403.6
-9868.65
23425.5
10016.1
31823.1
25531.2
39968
37267
46562
45715.1
51843.2
52050.4
56163.9
56855.8
59655.7
60502.5
62467
63332.6
64802.3
65688
66921.1
67864.1
68986.2
69942.5
70932.9
71843.1
72670.3
73501.2
74154.8
74906
75390
76101.1
76416.8
77135.7
77272.8
78078
77985.2
79012.9
78557.3
80070.9
78931.1
115053
112474
112120
111243
110591
109996
109545
109151
108871
108635
108460
108285
108128
107937
107752
107520
107300
107016
106758
106412
106112
105687
105339
104806
104407
103733
103279
102414
101909
100775
100243
98729.5
98213.5
96145.5
95744.2
92845.4
92749.4
88551.8
89152.7
82858.2
84896.6
75154.9
80149.3
64803
75363.8
50956.9
70319.4
31571.1
62974.5
211.18
49144.4
-56837.6
16257.2
-247598
-24524.3
-70864.7
7785.29
-35028.8
15391.3
-9887.74
23412.3
9998.46
31810
25515.6
39957.6
37256.3
46555.5
45707.1
51838
52043.7
56159.2
56849.9
59651.6
60497.6
62463.4
63328.3
64798.9
65683.9
66917.4
67859.9
68982.1
69938.4
70929
71839.4
72666.7
73498
74151.5
74903.5
75387
76099
76413.8
77134.2
77269.4
78077.1
77981
79013
78551.2
80073.6
78922.2
114918
112440
112095
111218
110576
109983
109535
109143
108866
108631
108457
108283
108126
107935
107750
107517
107297
107013
106755
106409
106108
105683
105335
104801
104402
103727
103273
102407
101903
100766
100236
98718.5
98205.9
96131.9
95735.5
92828
92739.3
88529.8
89141.1
82831.7
84883.5
75124.7
80133.4
64771.4
75343.5
50926.1
70292.9
31536.8
62933
163.109
49074.6
-56901.5
16247.4
-246402
-24312.2
-70974.8
7778.89
-35048.2
15378.8
-9907.2
23398.9
9980.61
31796.8
25499.9
39947.3
37245.6
46549
45699.1
51832.7
52036.8
56154.5
56844
59647.5
60492.5
62459.8
63323.9
64795.4
65679.8
66913.7
67855.6
68977.9
69934.2
70925
71835.7
72663.1
73494.9
74148.3
74901
75384
76097
76410.8
77132.7
77266.1
78076.2
77976.7
79013.2
78545.1
80076.3
78913.3
114788
112405
112070
111193
110561
109970
109525
109136
108860
108627
108454
108281
108124
107933
107747
107515
107294
107010
106752
106405
106105
105678
105331
104796
104398
103721
103268
102399
101897
100757
100230
98707.6
98198.3
96118.2
95727
92810.6
92729.2
88507.8
89129.7
82805.4
84870.8
75094.8
80117.8
64740
75323.5
50895.6
70267
31502.8
62892.2
115.732
49005.7
-56962.7
16239.7
-245216
-24101.6
-71083.8
7772.44
-35068
15366.2
-9927.04
23385.4
9962.52
31783.7
25484.2
39937
37234.9
46542.5
45691.1
51827.4
52029.9
56149.8
56838
59643.4
60487.5
62456.1
63319.5
64791.8
65675.6
66909.9
67851.3
68973.7
69929.9
70920.9
71831.9
72659.4
73491.7
74144.9
74898.4
75381
76094.9
76407.8
77131.2
77262.7
78075.3
77972.4
79013.3
78538.9
80079.1
78904.3
114661
112371
112044
111168
110545
109956
109515
109128
108855
108623
108452
108278
108122
107931
107745
107512
107292
107007
106749
106401
106101
105674
105327
104791
104393
103715
103263
102392
101891
100749
100223
98696.6
98190.8
96104.6
95718.4
92793.2
92719.2
88485.8
89118.5
82779.2
84858.2
75065
80102.5
64708.8
75303.9
50865.4
70241.4
31469.3
62851.9
69.0314
48937.8
-57021.5
16234
-244038
-23892.4
-71191.4
7765.95
-35088.3
15353.4
-9947.22
23371.8
9944.22
31770.6
25468.4
39926.8
37224.1
46536
45683
51822.1
52023
56145
56832
59639.2
60482.4
62452.4
63315.1
64788.2
65671.3
66905.9
67846.8
68969.4
69925.6
70916.8
71828
72655.7
73488.4
74141.6
74895.9
75377.9
76092.9
76404.8
77129.6
77259.3
78074.3
77968
79013.4
78532.8
80081.8
78895.2
114539
112337
112018
111144
110530
109943
109505
109120
108849
108619
108449
108276
108120
107929
107743
107510
107289
107004
106746
106398
106098
105670
105323
104786
104389
103709
103258
102385
101885
100740
100216
98685.7
98183.3
96090.9
95709.8
92775.7
92709.2
88463.8
89107.5
82753.3
84845.9
75035.4
80087.4
64677.9
75284.6
50835.4
70216.3
31436.2
62812.2
22.9887
48870.7
-57077.7
16230.1
-242868
-23684.6
-71297.8
7759.46
-35108.9
15340.4
-9967.73
23358.1
9925.71
31757.4
25452.4
39916.6
37213.3
46529.6
45674.9
51816.7
52016
56140.3
56826
59635
60477.3
62448.6
63310.6
64784.5
65666.9
66901.9
67842.2
68965
69921.2
70912.6
71824.1
72651.9
73485.2
74138.2
74893.3
75374.8
76090.8
76401.7
77128.1
77255.9
78073.4
77963.6
79013.5
78526.5
80084.5
78886.1
114420
112302
111992
111119
110515
109930
109495
109113
108844
108615
108446
108274
108118
107927
107741
107507
107287
107001
106743
106394
106094
105666
105319
104781
104384
103703
103253
102378
101879
100731
100210
98674.8
98175.9
96077.2
95701.3
92758.1
92699.2
88442
89096.6
82727.5
84833.8
75006
80072.6
64647.2
75265.6
50805.6
70191.5
31403.5
62773.1
-22.4134
48804.4
-57131.5
16228.1
-241707
-23478.2
-71402.9
7752.99
-35129.8
15327.2
-9988.56
23344.3
9907.01
31744.3
25436.5
39906.5
37202.5
46523.1
45666.8
51811.3
52008.9
56135.4
56819.9
59630.9
60472.2
62444.9
63306.1
64780.8
65662.5
66897.8
67837.5
68960.5
69916.7
70908.3
71820.2
72648.2
73481.9
74134.9
74890.7
75371.8
76088.7
76398.7
77126.5
77252.5
78072.5
77959.2
79013.6
78520.2
80087.1
78877
114305
112268
111965
111095
110500
109917
109486
109105
108839
108611
108444
108272
108117
107925
107739
107505
107284
106998
106740
106391
106091
105662
105315
104776
104380
103698
103248
102370
101874
100722
100203
98663.9
98168.5
96063.4
95692.7
92740.5
92689.3
88420.2
89085.9
82701.8
84821.9
74976.8
80058
64616.6
75246.9
50776.1
70167.2
31371.2
62734.4
-67.1914
48739
-57183
16227.7
-240555
-23273.2
-71506.7
7746.56
-35151
15314
-10009.7
23330.4
9888.14
31731.2
25420.4
39896.4
37191.6
46516.6
45658.5
51805.8
52001.8
56130.6
56813.8
59626.6
60467
62441.1
63301.5
64777
65657.9
66893.6
67832.7
68955.9
69912.1
70904
71816.2
72644.4
73478.6
74131.5
74888.1
75368.7
76086.6
76395.6
77125
77249.1
78071.5
77954.8
79013.6
78513.9
80089.8
78867.8
114194
112234
111937
111070
110484
109904
109476
109098
108834
108608
108441
108270
108115
107923
107737
107502
107282
106995
106737
106387
106088
105658
105311
104772
104376
103692
103243
102363
101868
100713
100197
98652.9
98161
96049.6
95684.1
92722.8
92679.5
88398.4
89075.4
82676.3
84810.2
74947.8
80043.7
64586.3
75228.5
50746.9
70143.3
31339.3
62696.3
-111.361
48674.4
-57232.2
16228.9
-239411
-23069.6
-71609.1
7740.2
-35172.5
15300.6
-10031.1
23316.5
9869.1
31718.2
25404.3
39886.3
37180.7
46510.1
45650.2
51800.3
51994.6
56125.7
56807.6
59622.4
60461.9
62437.3
63296.9
64773.2
65653.3
66889.3
67827.9
68951.3
69907.5
70899.7
71812.2
72640.5
73475.3
74128.1
74885.5
75365.5
76084.5
76392.5
77123.4
77245.7
78070.5
77950.4
79013.7
78507.6
80092.4
78858.6
114086
112200
111910
111046
110469
109891
109466
109090
108829
108604
108439
108268
108113
107921
107735
107500
107279
106992
106734
106384
106085
105654
105308
104767
104371
103686
103238
102356
101862
100705
100190
98642
98153.6
96035.8
95675.5
92705.1
92669.7
88376.7
89065
82651
84798.6
74918.9
80029.5
64556.1
75210.3
50717.9
70119.7
31307.7
62658.7
-154.939
48610.6
-57279.1
16231.6
-238276
-22867.2
-71710.1
7733.94
-35194.2
15287.2
-10052.8
23302.4
9849.91
31705.1
25388
39876.2
37169.6
46503.6
45641.9
51794.8
51987.4
56120.8
56801.5
59618.2
60456.7
62433.5
63292.3
64769.4
65648.6
66884.9
67822.9
68946.6
69902.9
70895.3
71808.2
72636.6
73472
74124.6
74882.9
75362.4
76082.4
76389.4
77121.8
77242.2
78069.6
77945.9
79013.7
78501.2
80095
78849.3
113982
112166
111882
111022
110454
109878
109457
109083
108824
108601
108437
108266
108112
107919
107733
107498
107277
106989
106732
106381
106081
105650
105304
104762
104367
103680
103233
102349
101857
100696
100184
98631.1
98146.2
96021.9
95666.8
92687.3
92659.9
88355.2
89054.8
82625.8
84787.3
74890.2
80015.5
64526.2
75192.4
50689.1
70096.4
31276.5
62621.6
-197.939
48547.5
-57323.9
16235.7
-237149
-22666.2
-71809.7
7727.8
-35216.2
15273.6
-10074.7
23288.4
9830.58
31692.1
25371.7
39866.1
37158.5
46497
45633.4
51789.2
51980.2
56115.8
56795.3
59613.9
60451.5
62429.7
63287.6
64765.5
65643.9
66880.5
67817.9
68941.8
69898.1
70890.8
71804.1
72632.7
73468.6
74121.2
74880.3
75359.3
76080.3
76386.3
77120.2
77238.7
78068.6
77941.5
79013.7
78494.8
80097.6
78840
113881
112133
111853
110998
110438
109865
109447
109076
108819
108597
108434
108265
108110
107917
107731
107495
107275
106986
106729
106377
106078
105646
105300
104757
104363
103674
103228
102342
101851
100687
100177
98620.1
98138.8
96007.9
95658.2
92669.5
92650.2
88333.7
89044.7
82600.7
84776.1
74861.7
80001.7
64496.4
75174.7
50660.5
70073.5
31245.7
62585
-240.376
48485.2
-57366.5
16241.1
-236031
-22466.5
-71907.8
7721.8
-35238.3
15260
-10096.9
23274.3
9811.12
31679.2
25355.3
39856
37147.3
46490.3
45624.9
51783.6
51972.9
56110.9
56789.1
59609.7
60446.2
62425.8
63282.9
64761.5
65639.1
66876
67812.9
68936.9
69893.3
70886.3
71800
72628.8
73465.3
74117.7
74877.6
75356.2
76078.2
76383.2
77118.7
77235.2
78067.6
77937
79013.7
78488.4
80100.2
78830.6
113782
112099
111825
110975
110423
109852
109438
109069
108814
108594
108432
108263
108109
107916
107730
107493
107272
106984
106726
106374
106075
105642
105297
104753
104359
103669
103223
102335
101846
100679
100171
98609.1
98131.3
95993.8
95649.5
92651.6
92640.6
88312.2
89034.7
82575.8
84765
74833.3
79988.1
64466.7
75157.3
50632.1
70051
31215.2
62548.8
-282.264
48423.7
-57407.1
16247.8
-234921
-22268.1
-72004.5
7715.97
-35260.6
15246.3
-10119.4
23260.1
9791.54
31666.3
25338.9
39845.9
37136
46483.7
45616.3
51777.9
51965.5
56105.9
56782.8
59605.4
60441
62422
63278.2
64757.5
65634.3
66871.4
67807.7
68932
69888.5
70881.8
71795.8
72624.8
73461.9
74114.3
74875
75353
76076.1
76380.1
77117.1
77231.7
78066.6
77932.5
79013.7
78481.9
80102.7
78821.2
113687
112066
111796
110951
110408
109839
109428
109062
108809
108590
108430
108261
108107
107914
107728
107491
107270
106981
106723
106371
106072
105638
105293
104748
104355
103663
103219
102328
101840
100670
100165
98598.1
98123.8
95979.7
95640.7
92633.7
92631
88290.9
89024.9
82551
84754.1
74805
79974.7
64437.3
75140
50604
70028.7
31185.1
62513.1
-323.618
48362.8
-57445.6
16255.6
-233820
-22070.9
-72099.7
7710.33
-35283.1
15232.6
-10142
23246
9771.84
31653.5
25322.3
39835.7
37124.6
46476.9
45607.7
51772.2
51958.1
56100.9
56776.6
59601.1
60435.8
62418.1
63273.5
64753.5
65629.4
66866.8
67802.5
68927
69883.5
70877.2
71791.6
72620.8
73458.4
74110.8
74872.3
75349.9
76074
76376.9
77115.5
77228.2
78065.6
77927.9
79013.6
78475.4
80105.2
78811.8
113595
112032
111768
110928
110392
109826
109419
109054
108805
108587
108428
108259
108106
107912
107726
107489
107268
106978
106721
106368
106069
105634
105289
104743
104350
103657
103214
102321
101835
100661
100158
98587
98116.3
95965.5
95631.9
92615.8
92621.5
88269.7
89015.2
82526.3
84743.3
74776.9
79961.3
64407.9
75123
50576
70006.8
31155.2
62477.9
-364.45
48302.7
-57482.2
16264.5
-232728
-21875.1
-72193.4
7704.9
-35305.6
15218.8
-10164.8
23231.8
9752.04
31640.8
25305.7
39825.5
37113
46470.1
45598.9
51766.5
51950.7
56095.9
56770.3
59596.8
60430.5
62414.3
63268.8
64749.5
65624.5
66862.1
67797.3
68922
69878.6
70872.5
71787.4
72616.8
73455
74107.3
74869.6
75346.7
76071.9
76373.8
77113.9
77224.7
78064.6
77923.4
79013.6
78468.9
80107.7
78802.3
113505
111999
111739
110904
110377
109813
109410
109047
108800
108583
108426
108258
108104
107911
107724
107486
107266
106976
106718
106364
106066
105630
105286
104739
104346
103652
103209
102314
101829
100653
100152
98575.8
98108.7
95951.1
95623.1
92597.9
92612.1
88248.5
89005.7
82501.7
84732.6
74748.8
79948.2
64378.8
75106.2
50548.2
69985.2
31125.8
62443.1
-404.775
48243.3
-57516.9
16274.3
-231644
-21680.5
-72285.5
7699.71
-35328.3
15205
-10187.9
23217.6
9732.15
31628.1
25289
39815.3
37101.4
46463.2
45590.1
51760.7
51943.2
56090.8
56764
59592.6
60425.3
62410.4
63264
64745.5
65619.5
66857.4
67791.9
68916.9
69873.6
70867.8
71783.1
72612.8
73451.6
74103.7
74867
75343.5
76069.7
76370.7
77112.3
77221.2
78063.6
77918.9
79013.5
78462.4
80110.1
78792.8
113418
111966
111710
110881
110362
109800
109401
109040
108795
108580
108424
108256
108103
107909
107723
107484
107264
106973
106716
106361
106063
105626
105282
104734
104342
103646
103204
102307
101824
100644
100145
98564.6
98101
95936.7
95614.3
92580
92602.8
88227.4
88996.2
82477.3
84722
74721
79935.1
64349.7
75089.5
50520.6
69963.8
31096.6
62408.7
-444.605
48184.6
-57549.7
16285
-230569
-21487.1
-72376.1
7694.77
-35351.1
15191.2
-10211.1
23203.5
9712.16
31615.4
25272.1
39805