/*--------------------------------*- C++ -*----------------------------------*\
| =========                 |                                                 |
| \\      /  F ield         | OpenFOAM: The Open Source CFD Toolbox           |
|  \\    /   O peration     | Version:  2412                                  |
|   \\  /    A nd           | Website:  www.openfoam.com                      |
|    \\/     M anipulation  |                                                 |
\*---------------------------------------------------------------------------*/
FoamFile
{
    version     2.0;
    format      ascii;
    arch        "LSB;label=32;scalar=64";
    class       surfaceScalarField;
    location    "0.4";
    object      phi;
}
// * * * * * * * * * * * * * * * * * * * * * * * * * * * * * * * * * * * * * //

dimensions      [0 3 -1 0 0 0 0];

oriented        oriented;

internalField   nonuniform List<scalar> 
155925
(
0.00839111
-0.000815356
0.00770723
0.000683889
0.00847031
-0.000763085
0.00872572
-0.000255405
0.00874541
-1.96963e-05
0.00865449
9.09231e-05
0.00848686
0.000167635
0.00826749
0.000219365
0.00804279
0.000224706
0.00781125
0.000231539
0.00759468
0.000216568
0.0073855
0.000209189
0.00719829
0.000187204
0.0070182
0.000180095
0.00685766
0.000160538
0.00669827
0.000159396
0.00655981
0.000138455
0.00641456
0.000145251
0.00629394
0.000120629
0.00616056
0.000133375
0.00605781
0.000102752
0.00593481
0.000123004
0.0058546
8.02124e-05
0.00573907
0.000115534
0.00568339
5.56786e-05
0.00557376
0.000109634
0.00554529
2.84673e-05
0.00543626
0.00010903
0.00544055
-4.28456e-06
0.00531922
0.000121332
0.00536094
-4.17252e-05
0.00522006
0.000140881
0.00530982
-8.97638e-05
0.00513401
0.000175816
0.00528447
-0.000150467
0.00505292
0.000231556
0.00528417
-0.00023126
0.00496548
0.000318692
0.00530923
-0.000343757
0.00486582
0.000443414
0.00536883
-0.000503017
0.00476577
0.00060306
0.0055
-0.000734229
0.00477998
0.000720015
0.00572487
-0.000944887
0.00482535
0.000899515
0.00586878
-0.00104342
0.0047326
0.00113617
0.00595177
-0.00121917
0.00466132
0.00129045
0.00610319
-0.00144187
0.005109
0.00099419
0.00770935
-0.00260036
0.00426916
0.00344018
0.00470819
-0.000439017
0.00352495
0.00118325
0.00446923
-0.00094428
0.00380106
0.000668169
0.00456716
-0.000766102
0.00395674
0.000610418
0.00451102
-0.000554281
0.00405574
0.000455281
0.00449265
-0.000436911
0.0042689
0.000223752
0.00467617
-0.000407272
0.00461197
6.41996e-05
0.00493356
-0.000321587
0.00487509
5.84691e-05
0.00507474
-0.000199642
0.00500196
7.2774e-05
0.00512158
-0.00011962
0.00506449
5.70881e-05
0.00514595
-8.14648e-05
0.00511764
2.83115e-05
0.00518427
-6.6632e-05
0.00518732
-3.04542e-06
0.00525761
-7.02988e-05
0.00530898
-5.13706e-05
0.00542041
-0.000111433
0.00553449
-0.00011408
0.00567455
-0.000140061
0.00579882
-0.000124267
0.00591413
-0.000115311
0.00601391
-9.97784e-05
0.0060952
-8.12944e-05
0.0061766
-8.1396e-05
0.00623444
-5.78449e-05
0.00630894
-7.45024e-05
0.00634644
-3.74968e-05
0.00642394
-7.75017e-05
0.00643952
-1.55742e-05
0.00652654
-8.70175e-05
0.00650976
1.67807e-05
0.00661665
-0.000106898
0.00654429
7.23625e-05
0.00669535
-0.000151062
0.00651517
0.000180184
0.00677739
-0.000262217
0.000363673
0.0110388
-0.00427844
0.00999652
0.00172622
0.00996034
-0.000726904
0.00993812
-0.000233181
0.00990777
1.06458e-05
0.00986231
0.000136386
0.00977003
0.00025992
0.00961389
0.000375504
0.00941605
0.000422542
0.00918283
0.000464768
0.00893979
0.000459609
0.00869314
0.000455835
0.00846075
0.000419593
0.00823813
0.000402723
0.00803547
0.00036319
0.00784071
0.000354163
0.0076668
0.000312362
0.00749471
0.000317344
0.00734411
0.000271234
0.00719009
0.000287397
0.00706046
0.000232379
0.00692143
0.000262036
0.00681486
0.000186779
0.00668895
0.000241452
0.00660622
0.000138403
0.00649193
0.000223929
0.00643481
8.55859e-05
0.00632896
0.000214882
0.00630137
2.33006e-05
0.00619938
0.00022333
0.00620435
-4.67019e-05
0.0060975
0.000247732
0.00613949
-0.000131753
0.00601742
0.000297894
0.00610268
-0.000235735
0.00595207
0.000382169
0.00609124
-0.000370435
0.00589291
0.000517028
0.00610195
-0.000552804
0.00583573
0.000709633
0.00613685
-0.000804142
0.00579681
0.000943107
0.00621681
-0.00115423
0.00586797
0.00106886
0.00635771
-0.00143463
0.00594434
0.00131289
0.00641415
-0.00151323
0.00589505
0.00165527
0.00644246
-0.00176657
0.00588732
0.0018456
0.00655073
-0.00210528
0.00641529
0.00112964
0.00824171
-0.00442679
0.00607825
0.00560363
0.00535436
0.000284884
0.00451768
0.00201993
0.0048926
-0.0013192
0.00468183
0.000878943
0.00500889
-0.00109316
0.00478311
0.000836192
0.00497851
-0.000749679
0.00480415
0.00062964
0.00497576
-0.000608524
0.00495886
0.000240656
0.0052034
-0.000651817
0.00529727
-2.96656e-05
0.00552149
-0.000545804
0.00557943
5.23287e-07
0.00571343
-0.000333636
0.00572141
6.47914e-05
0.00579491
-0.000193124
0.00579108
6.09136e-05
0.00584217
-0.000132553
0.00584884
2.16436e-05
0.00589706
-0.000114857
0.00592227
-2.82488e-05
0.0059824
-0.000130428
0.00604293
-0.000111902
0.00613954
-0.000208046
0.00624626
-0.000220802
0.00636817
-0.000261965
0.00648372
-0.000239821
0.00659294
-0.000224535
0.00669239
-0.000199228
0.00678111
-0.000170011
0.0068673
-0.000167585
0.00694225
-0.000132799
0.00702221
-0.000154462
0.00708559
-0.000100881
0.00716447
-0.000156381
0.00721566
-6.67594e-05
0.00729722
-0.00016858
0.00733046
-1.6452e-05
0.00741996
-0.000196403
0.00742306
6.92619e-05
0.0075309
-0.000258905
0.00747579
0.000235304
0.00763752
-0.000423944
0.000497584
0.00899254
-0.00569523
0.0097331
0.000985662
0.0103208
-0.00131458
0.0103835
-0.000295871
0.0103218
7.23476e-05
0.0102356
0.000222515
0.0101227
0.000372866
0.00997266
0.000525528
0.00979566
0.000599542
0.00959015
0.000670281
0.00937114
0.000678621
0.00914316
0.000683818
0.0089206
0.000642147
0.00870278
0.000620546
0.00849904
0.000566934
0.00830251
0.000550688
0.00812343
0.000491441
0.00794881
0.000491969
0.00779287
0.000427177
0.00763774
0.000442525
0.00750336
0.000366759
0.0073651
0.000400293
0.00725345
0.000298437
0.00713007
0.000364834
0.0070413
0.000227169
0.00693111
0.000334124
0.00686631
0.000150378
0.00676639
0.000314807
0.0067285
6.11935e-05
0.00663423
0.000317595
0.00662588
-3.8347e-05
0.00653091
0.000342702
0.00655542
-0.00015627
0.00645071
0.000402613
0.00651265
-0.000297682
0.00638673
0.00050809
0.00649428
-0.000477988
0.006331
0.000680305
0.00649674
-0.000718539
0.00628116
0.000925205
0.00652179
-0.00104477
0.00626361
0.00120129
0.00658091
-0.00147154
0.00634542
0.00130434
0.00664414
-0.00173335
0.00637888
0.00157814
0.00662265
-0.001757
0.00631465
0.00196327
0.00661734
-0.00206926
0.00633085
0.00213208
0.00672123
-0.00249566
0.00689288
0.000957984
0.00839612
-0.00593003
0.00675733
0.00724242
0.0058132
0.00122902
0.00499756
0.00283557
0.00517684
-0.00149848
0.00506254
0.000993243
0.00526017
-0.0012908
0.00513237
0.000963996
0.00522708
-0.000844395
0.00512528
0.000731441
0.00522924
-0.000712478
0.00527042
0.000199473
0.00547882
-0.000860217
0.0056181
-0.000168945
0.00581659
-0.000744296
0.00590707
-8.99539e-05
0.00602101
-0.000447577
0.00605265
3.31556e-05
0.00611275
-0.00025323
0.00612622
4.74443e-05
0.0061699
-0.000176236
0.00618937
2.17639e-06
0.00623438
-0.000159865
0.00626832
-6.21966e-05
0.00632532
-0.000187428
0.00638666
-0.000173239
0.00647295
-0.00029434
0.00656923
-0.000317076
0.00667706
-0.000369795
0.00678305
-0.000345818
0.00688571
-0.000327188
0.00698231
-0.000295836
0.00707211
-0.000259805
0.00715974
-0.00025522
0.00724086
-0.000213918
0.00732404
-0.000237639
0.0073978
-0.000174639
0.00747953
-0.000238114
0.00754547
-0.000132697
0.00762721
-0.00025032
0.00768111
-7.03474e-05
0.00776467
-0.000279965
0.00779811
3.58233e-05
0.00788754
-0.000348333
0.00788112
0.000241715
0.00799821
-0.000541029
0.00056236
0.00890828
-0.00702775
0.00947946
0.000414487
0.0101175
-0.00195267
0.0102712
-0.000449535
0.0102839
5.96289e-05
0.0102376
0.000268804
0.0101491
0.000461442
0.010022
0.000652599
0.00986738
0.000754165
0.00968658
0.000851079
0.00949117
0.000874028
0.00928581
0.000889181
0.00908154
0.000846416
0.00887929
0.000822797
0.00868654
0.000759682
0.0084997
0.000737529
0.00832679
0.000664356
0.00815929
0.000659472
0.00800757
0.000578896
0.00785911
0.000590987
0.00772827
0.000497595
0.00759712
0.00053144
0.00748815
0.000407413
0.0073725
0.000480481
0.00728522
0.000314455
0.00718315
0.000436193
0.00711819
0.000215337
0.00702673
0.000406273
0.00698638
0.000101535
0.00690099
0.000402993
0.00688756
-2.49195e-05
0.00680275
0.000427512
0.00681946
-0.000172981
0.00672695
0.000495121
0.00677785
-0.000348579
0.00666704
0.000618904
0.00675943
-0.00057039
0.00661579
0.000823953
0.00676087
-0.00086362
0.00657387
0.0011122
0.00678408
-0.00125498
0.00657757
0.00140781
0.0068214
-0.00171538
0.00664293
0.00148281
0.00681102
-0.00190143
0.00661432
0.00177485
0.00673202
-0.00187471
0.00652837
0.00216692
0.006702
-0.00224289
0.0065563
0.00227777
0.00679964
-0.002739
0.00712481
0.000632814
0.00840771
-0.00721292
0.00719279
0.00845733
0.00617256
0.00224924
0.00534834
0.0036598
0.0054094
-0.00155954
0.00531495
0.00108769
0.0054477
-0.00142355
0.00535559
0.00105611
0.00540528
-0.000894087
0.00533252
0.000804194
0.00541106
-0.000791017
0.00547909
0.000131444
0.00567642
-0.00105754
0.00583455
-0.000327078
0.00602117
-0.000930917
0.00612219
-0.000190975
0.00622478
-0.00055016
0.00626404
-6.10674e-06
0.00631671
-0.000305906
0.00633696
2.7202e-05
0.00637716
-0.000216438
0.0064027
-2.3361e-05
0.00644684
-0.000204007
0.00648547
-0.000100832
0.00654132
-0.000243278
0.00660221
-0.000234128
0.0066815
-0.000373629
0.00676965
-0.000405225
0.00686775
-0.000467901
0.00696665
-0.000444716
0.00706435
-0.000424885
0.00715838
-0.000389866
0.00724785
-0.000349281
0.00733584
-0.000343204
0.00741963
-0.000297711
0.00750459
-0.000322594
0.00758337
-0.000253419
0.00766714
-0.000321887
0.00774044
-0.000205996
0.00782338
-0.000333265
0.0078877
-0.000134662
0.00796999
-0.000362261
0.00801874
-1.29208e-05
0.00810136
-0.000430954
0.00811959
0.000223488
0.00821707
-0.000638513
0.000589472
0.00893883
-0.00839083
0.00950288
-0.000149568
0.00994118
-0.00239096
0.0100983
-0.000606678
0.0101589
-9.62178e-07
0.0101519
0.0002758
0.0100924
0.000520934
0.00998805
0.000756973
0.00985069
0.000891523
0.00968561
0.00101616
0.0095042
0.00105544
0.00931259
0.00108079
0.00912042
0.00103859
0.00892983
0.00101338
0.00874677
0.00094274
0.00856951
0.000914794
0.00840407
0.000829793
0.00824488
0.000818666
0.0080993
0.000724471
0.00795872
0.000731575
0.00783329
0.000623026
0.00771025
0.000654478
0.0076059
0.000511759
0.00749899
0.000587398
0.00741541
0.000398033
0.00732272
0.000528885
0.00726025
0.000277802
0.00717884
0.000487688
0.00713916
0.000141211
0.00706451
0.000477649
0.00704932
-9.73521e-06
0.00697615
0.000500687
0.0069885
-0.000185335
0.00690892
0.000574707
0.00695258
-0.000392242
0.0068564
0.000715084
0.00693822
-0.000652216
0.0068122
0.000949973
0.00694226
-0.000993679
0.00678136
0.00127309
0.00696538
-0.001439
0.00680312
0.00157007
0.00697642
-0.00188868
0.00683368
0.00162555
0.00691245
-0.0019802
0.00675251
0.00193478
0.00679772
-0.00191991
0.00664917
0.00231547
0.00675164
-0.00234536
0.00668174
0.00234768
0.00684476
-0.00290202
0.00724678
0.000230795
0.00837549
-0.00834163
0.00747823
0.00935458
0.00643508
0.0032924
0.00562736
0.00446753
0.00560557
-0.00153776
0.00550891
0.00118436
0.00559906
-0.0015137
0.00552219
0.00113298
0.00554664
-0.000918543
0.00548957
0.000861271
0.00555772
-0.000859169
0.00564276
4.64035e-05
0.0058366
-0.00125139
0.00600394
-0.000494413
0.00618203
-0.00110901
0.00628508
-0.000294029
0.00637834
-0.000643419
0.0064189
-4.66651e-05
0.00646574
-0.000352749
0.00648851
4.43931e-06
0.00652632
-0.000254255
0.00655509
-5.21243e-05
0.00659895
-0.000247873
0.00664046
-0.000142345
0.00669581
-0.000298626
0.00675605
-0.000294371
0.00683051
-0.000448085
0.00691287
-0.000487584
0.00700438
-0.000559408
0.00709828
-0.000538625
0.0071924
-0.000519
0.00728436
-0.00048183
0.00737319
-0.000438108
0.0074611
-0.000431111
0.00754616
-0.000382772
0.00763208
-0.000408512
0.00771359
-0.000334929
0.00779867
-0.000406973
0.00787611
-0.000283433
0.0079601
-0.000417252
0.00803034
-0.000204906
0.00811249
-0.000444414
0.00816995
-7.03745e-05
0.00824954
-0.000510552
0.00828179
0.000191242
0.00836906
-0.000725782
0.000594233
0.00873516
-0.00955023
0.0094658
-0.000880203
0.0098143
-0.00273946
0.00996595
-0.000758329
0.0100469
-8.19007e-05
0.0100618
0.000260907
0.0100221
0.000560625
0.00993433
0.000844736
0.00980952
0.00101633
0.00965498
0.00117071
0.00948238
0.00122803
0.00929921
0.00126396
0.00911465
0.00122315
0.0089318
0.00119624
0.0087557
0.00111884
0.00858567
0.00108482
0.00842639
0.000989078
0.00827398
0.000971071
0.00813381
0.000864639
0.00799975
0.000865633
0.00787913
0.000743647
0.00776273
0.000770878
0.00766255
0.000611944
0.00756278
0.000687171
0.00748266
0.000478151
0.00739785
0.000613698
0.00733796
0.000337688
0.00726544
0.000560211
0.00722698
0.000179668
0.00716251
0.000542123
0.00714654
6.23564e-06
0.00708502
0.000562206
0.00709416
-0.00019448
0.00702802
0.000640849
0.00706562
-0.000429841
0.00698495
0.000795752
0.00705732
-0.00072459
0.00695007
0.00105722
0.00706578
-0.00110939
0.00693304
0.00140583
0.00708764
-0.0015936
0.00696436
0.00169335
0.00707536
-0.00199967
0.00695628
0.00174463
0.00697868
-0.0020026
0.00683952
0.00207394
0.00684223
-0.00192262
0.006724
0.00243371
0.00678588
-0.00240724
0.006758
0.00237556
0.00687648
-0.0030205
0.00731807
-0.000210799
0.00834822
-0.00937178
0.0076551
0.0100477
0.00662215
0.00432535
0.00585298
0.0052367
0.00577313
-0.00145791
0.00566817
0.00128932
0.00572692
-0.00157246
0.00565699
0.00120291
0.00566561
-0.000927161
0.00561905
0.000907832
0.00568368
-0.000923797
0.00578148
-5.1403e-05
0.00597449
-0.0014444
0.00614623
-0.000666154
0.00631651
-0.00127929
0.00641743
-0.00039495
0.00650196
-0.00072794
0.00654087
-8.55832e-05
0.00658253
-0.000394412
0.00660587
-1.88943e-05
0.00664176
-0.00029015
0.00667236
-8.27245e-05
0.00671613
-0.000291638
0.00675956
-0.000185775
0.00681464
-0.00035371
0.00687426
-0.000353987
0.00694529
-0.000519122
0.00702358
-0.000565869
0.00711055
-0.000646375
0.00720091
-0.000628986
0.00729236
-0.00061045
0.00738265
-0.00057212
0.00747074
-0.000526198
0.00755835
-0.000518724
0.00764399
-0.00046841
0.00773039
-0.000494913
0.00781348
-0.000418016
0.00789936
-0.000492861
0.00797931
-0.00036338
0.00806405
-0.000501986
0.00813796
-0.00027882
0.00822025
-0.000526701
0.00828311
-0.000133238
0.00836117
-0.000588614
0.00840212
0.000150301
0.00848338
-0.000807046
0.000584844
0.00862116
-0.0105956
0.00940166
-0.0016607
0.00971107
-0.00304886
0.00986118
-0.000908442
0.00995241
-0.000173128
0.00997964
0.000233677
0.00995266
0.000587608
0.00987645
0.000920945
0.00976073
0.00113205
0.00961372
0.00131772
0.0094473
0.00139445
0.00926993
0.00144133
0.00909074
0.00140234
0.00891348
0.00137349
0.0087427
0.00128962
0.00857831
0.00124921
0.00842407
0.00114332
0.00827714
0.001118
0.00814156
0.00100023
0.00801275
0.000994443
0.0078962
0.000860191
0.00778501
0.000882067
0.00768832
0.000708638
0.00759402
0.000781474
0.00751678
0.000555394
0.00743796
0.000692517
0.00738022
0.000395423
0.00731458
0.000625853
0.00727717
0.000217082
0.00722093
0.000598355
0.00720433
2.28369e-05
0.00715282
0.000613714
0.00715909
-0.000200749
0.0071053
0.000694643
0.00713711
-0.000461658
0.00707175
0.00086112
0.00713455
-0.000787396
0.00704716
0.00114462
0.00714718
-0.00120942
0.00704448
0.00150853
0.00716675
-0.00171587
0.00707649
0.00178361
0.00714013
-0.00206331
0.00703713
0.00184763
0.00702506
-0.00199053
0.00689831
0.00220069
0.00687481
-0.00189913
0.00677437
0.00253415
0.00681163
-0.00244451
0.00680866
0.00237853
0.00690114
-0.00311297
0.00736438
-0.00067404
0.00833139
-0.0103388
0.00776524
0.0106138
0.00675606
0.00533454
0.00603543
0.00595733
0.00591648
-0.00133896
0.00580329
0.00140251
0.00583786
-0.00160703
0.00577133
0.00126943
0.00576949
-0.000925313
0.00573121
0.000946108
0.00579593
-0.000988514
0.00590413
-0.000159609
0.00609711
-0.00163737
0.00627029
-0.000839333
0.00643269
-0.00144169
0.00652913
-0.000491393
0.00660517
-0.000803973
0.006641
-0.000121422
0.00667793
-0.000431341
0.0067009
-4.18598e-05
0.00673516
-0.000324415
0.00676688
-0.00011444
0.00681061
-0.000335373
0.00685541
-0.00023057
0.00691033
-0.000408634
0.00696942
-0.000413072
0.007038
-0.00058771
0.00711343
-0.000641291
0.00719721
-0.000730162
0.00728498
-0.000716756
0.00737438
-0.000699844
0.00746325
-0.000660994
0.00755057
-0.000613516
0.00763775
-0.000605902
0.00772356
-0.000554221
0.00781013
-0.000581482
0.00789411
-0.000502004
0.00798045
-0.000579195
0.00806198
-0.000444909
0.00814719
-0.000587204
0.00822351
-0.000355139
0.00830595
-0.000609142
0.0083724
-0.000199686
0.00844957
-0.000665782
0.00849627
0.0001036
0.00857363
-0.000884401
0.000565918
0.00854721
-0.0115671
0.00933034
-0.00244383
0.00962167
-0.00334019
0.00977325
-0.00106002
0.00987079
-0.000270668
0.00990563
0.000198842
0.00988698
0.000606252
0.00981877
0.000989154
0.00970961
0.00124121
0.0095681
0.00145923
0.00940625
0.0015563
0.00923324
0.00161435
0.00905823
0.00157735
0.00888544
0.00154628
0.00871908
0.00145599
0.0085594
0.00140889
0.00840954
0.00129318
0.00826725
0.00126029
0.00813571
0.00113177
0.00801131
0.00111884
0.00789836
0.000973144
0.00779144
0.000988981
0.00769781
0.000802273
0.00760784
0.000871448
0.00753311
0.000630124
0.00745889
0.00076673
0.00740304
0.000451279
0.00734261
0.000686286
0.00730615
0.000253535
0.0072562
0.000648305
0.00723916
3.98789e-05
0.00719552
0.000657354
0.00719934
-0.000204568
0.00715575
0.000738235
0.00718229
-0.000488205
0.00713047
0.000912948
0.00718397
-0.0008409
0.00711567
0.00121292
0.00719951
-0.00129326
0.00712535
0.00158269
0.00721794
-0.00180846
0.00715316
0.00184838
0.00718495
-0.0020951
0.00709292
0.00193965
0.00705951
-0.00195711
0.00694052
0.00231967
0.00689992
-0.00185852
0.00681059
0.00262348
0.006832
-0.00246592
0.00684487
0.00236566
0.00692136
-0.00318947
0.00739705
-0.00114973
0.00832133
-0.0112631
0.00783626
0.0110989
0.00685424
0.00631656
0.00618274
0.00662883
0.00603899
-0.0011952
0.00591995
0.00152155
0.00593581
-0.0016229
0.00587127
0.00133397
0.00586247
-0.000916514
0.00583146
0.000977118
0.00589832
-0.00105538
0.00601529
-0.000276575
0.00620823
-0.00183031
0.00638073
-0.00101183
0.00653493
-0.00159588
0.00662548
-0.000581946
0.00669325
-0.000871741
0.00672532
-0.000153497
0.00675791
-0.000463935
0.00678009
-6.40334e-05
0.00681296
-0.000357288
0.0068454
-0.000146881
0.00688916
-0.000379127
0.00693498
-0.000276394
0.00698982
-0.000463472
0.00704848
-0.000471736
0.00711533
-0.000654558
0.00718875
-0.000714711
0.00727027
-0.000811687
0.00735609
-0.00080257
0.00744381
-0.000787566
0.00753143
-0.000748611
0.00761794
-0.000700031
0.00770458
-0.000692539
0.0077903
-0.000639938
0.0078768
-0.000667984
0.00796126
-0.000586466
0.00804778
-0.000665713
0.0081303
-0.00052743
0.00821579
-0.000672691
0.00829372
-0.000433075
0.00837626
-0.000691674
0.00844518
-0.000268612
0.00852175
-0.000742351
0.00857245
5.29015e-05
0.00864704
-0.000958987
0.000540308
0.00848966
-0.012481
0.00925962
-0.00321378
0.00954146
-0.00362203
0.00969608
-0.00121465
0.00979821
-0.000372802
0.00983824
0.000158818
0.00982525
0.000619238
0.00976259
0.00105181
0.00965811
0.0013457
0.00952063
0.00159671
0.00936225
0.00171468
0.00919267
0.00178393
0.00902112
0.0017489
0.00885214
0.00171527
0.00868967
0.00161845
0.00853417
0.0015644
0.00838827
0.00143907
0.00825011
0.00139844
0.00812226
0.00125963
0.00800177
0.00123933
0.0078921
0.00108281
0.00778888
0.0010922
0.00769806
0.000893099
0.00761171
0.000957793
0.0075393
0.000702531
0.00746882
0.000837217
0.00741473
0.000505363
0.00735839
0.000742633
0.00732294
0.000288985
0.00727781
0.000693431
0.00726063
5.70543e-05
0.00722302
0.00069497
0.007225
-0.000206554
0.00718939
0.000773852
0.00721158
-0.000510402
0.00717084
0.000953692
0.00721616
-0.00088622
0.00716452
0.00126456
0.00723375
-0.0013625
0.00718355
0.0016329
0.00725301
-0.00187793
0.00720631
0.00189509
0.00721791
-0.0021067
0.00713343
0.00202413
0.00708631
-0.00190999
0.00697237
0.00243361
0.00691996
-0.00180611
0.00683797
0.00270547
0.00684864
-0.00247659
0.00687222
0.00234209
0.0069385
-0.00325575
0.00742157
-0.00163281
0.00831501
-0.0121565
0.00788419
0.0115297
0.00692841
0.00727233
0.00630189
0.00725536
0.00614368
-0.00103699
0.00602176
0.00164347
0.00602335
-0.00162449
0.00596044
0.00139689
0.00594721
-0.00090329
0.00592299
0.00100135
0.00599318
-0.00112557
0.00611759
-0.00040098
0.00631006
-0.00202278
0.00648024
-0.00118201
0.00662587
-0.00174152
0.00670967
-0.000665747
0.00676945
-0.000931514
0.00679751
-0.000181555
0.00682617
-0.000492602
0.00684739
-8.52521e-05
0.00687909
-0.000388986
0.00691205
-0.00017984
0.00695586
-0.000422945
0.00700251
-0.000323039
0.00705731
-0.000518277
0.00711569
-0.000530111
0.00718132
-0.000720189
0.00725336
-0.000786752
0.00733324
-0.000891569
0.00741751
-0.000886839
0.0075038
-0.000873859
0.00759025
-0.00083506
0.00767593
-0.000785706
0.00776193
-0.000778543
0.00784736
-0.000725364
0.00793362
-0.000754243
0.00801825
-0.0006711
0.00810475
-0.000752216
0.00818787
-0.000610545
0.00827345
-0.00075827
0.00835248
-0.000512104
0.00843503
-0.000774227
0.00850571
-0.000339289
0.00858181
-0.000818459
0.00863538
-6.63179e-07
0.00870786
-0.00103147
0.000509833
0.00844079
-0.013346
0.00919147
-0.00396446
0.00946776
-0.00389833
0.00962622
-0.0013731
0.00973216
-0.000478748
0.00977606
0.000114919
0.00976705
0.000628251
0.00970822
0.00111064
0.009607
0.00144692
0.00947243
0.00173128
0.00931668
0.00187043
0.00914989
0.00195072
0.00898133
0.00191746
0.00881574
0.00188086
0.00865684
0.00177735
0.00850515
0.00171608
0.00836294
0.00158128
0.00822859
0.0015328
0.0081042
0.00138402
0.00798728
0.00135625
0.00788071
0.00118938
0.00778082
0.00119209
0.00769265
0.000981267
0.0076095
0.00104095
0.00753931
0.000772716
0.00747201
0.000904524
0.00741967
0.0005577
0.00736668
0.000795624
0.00733234
0.000323326
0.00729105
0.000734722
0.00727406
7.40406e-05
0.00724112
0.000727907
0.00724191
-0.000207342
0.00721246
0.000803309
0.00723135
-0.0005293
0.00719934
0.000985702
0.00723809
-0.000924962
0.0072001
0.00130255
0.00725765
-0.00142005
0.00722586
0.00166469
0.00727897
-0.00193104
0.00724455
0.00192951
0.00724345
-0.0021056
0.00716427
0.00210331
0.00710791
-0.00185363
0.00699732
0.00254419
0.00693637
-0.00174516
0.00685944
0.0027824
0.00686254
-0.00247969
0.00689377
0.00231086
0.00695335
-0.00331533
0.00744085
-0.0021203
0.0083107
-0.0130264
0.00791809
0.0119224
0.00698615
0.00820428
0.00639884
0.00784267
0.00623336
-0.000871518
0.00611132
0.00176551
0.00610235
-0.00161552
0.00604121
0.00145802
0.00602549
-0.000887564
0.0060078
0.00101903
0.00608199
-0.00119976
0.00621265
-0.000531644
0.00640402
-0.00221415
0.00657054
-0.00134853
0.00670729
-0.00187827
0.00678384
-0.000742301
0.00683596
-0.000983634
0.00686
-0.000205596
0.00688514
-0.000517743
0.00690539
-0.000105498
0.00693611
-0.000419708
0.00696948
-0.000213207
0.0070134
-0.000466871
0.00706074
-0.000370376
0.00711557
-0.000573106
0.00717378
-0.000588326
0.0072386
-0.000785006
0.0073097
-0.000857857
0.00738836
-0.000970223
0.00747135
-0.000969835
0.00755636
-0.000958868
0.00764168
-0.00092038
0.00772647
-0.000870492
0.00781175
-0.000863823
0.00789673
-0.000810343
0.0079826
-0.000840116
0.00806717
-0.00075567
0.0081535
-0.000838542
0.00823692
-0.000693963
0.00832245
-0.000843803
0.0084022
-0.000591856
0.00848469
-0.000856714
0.00855662
-0.000411217
0.00863232
-0.000894169
0.00868799
-5.63321e-05
0.00875878
-0.00110225
0.000475769
0.0083973
-0.0141676
0.00912613
-0.00469329
0.00939895
-0.00417114
0.00956163
-0.00153579
0.00967099
-0.000588108
0.009718
6.7917e-05
0.00971184
0.000634403
0.00965562
0.00116686
0.00955659
0.00154596
0.00942404
0.00186383
0.00927029
0.00202418
0.0091058
0.00211521
0.00893988
0.00208337
0.00877739
0.00204335
0.00862183
0.00193291
0.00847373
0.00186419
0.00833503
0.00171998
0.00820426
0.00166357
0.00808316
0.00150511
0.00796958
0.00146983
0.00786597
0.001293
0.00776918
0.00128888
0.00768357
0.00106688
0.00760333
0.00112119
0.00753531
0.000840734
0.00747084
0.000968999
0.00742025
0.000608288
0.00737016
0.000845716
0.00733702
0.000356463
0.00729892
0.000772828
0.00728239
9.05638e-05
0.00725321
0.00075709
0.00725334
-0.000207473
0.00722872
0.000827929
0.00724527
-0.00054585
0.00722012
0.00101085
0.0072539
-0.00095874
0.00722682
0.00132963
0.00727573
-0.00146896
0.00725748
0.00168294
0.00729946
-0.00197302
0.00727338
0.0019556
0.00726408
-0.0020963
0.00718868
0.00217871
0.00712579
-0.00179074
0.00701747
0.00265252
0.00695007
-0.00167776
0.00687676
0.00285571
0.00687436
-0.00247729
0.0069113
0.00227393
0.00696647
-0.0033705
0.00745652
-0.00261035
0.00830747
-0.0138773
0.00794316
0.0122867
0.0070324
0.00911503
0.0064785
0.00839658
0.00631054
-0.000703561
0.00619064
0.0018854
0.00617421
-0.00159908
0.00611526
0.00151697
0.00609856
-0.000870862
0.00608728
0.00103031
0.00616575
-0.00127823
0.00630157
-0.000667459
0.00649109
-0.00240367
0.00665281
-0.00151025
0.00678043
-0.00200588
0.0068495
-0.000811372
0.00689436
-0.0010285
0.00691453
-0.000225766
0.00693654
-0.000539757
0.00695589
-0.00012484
0.00698581
-0.000449637
0.00701954
-0.00024693
0.00706362
-0.00051095
0.00711157
-0.000418325
0.00716648
-0.000628023
0.00722465
-0.000646495
0.00728896
-0.000849318
0.00735944
-0.000928335
0.00743714
-0.00104792
0.00751903
-0.00105172
0.00760283
-0.00104267
0.00768702
-0.00100457
0.00777086
-0.000954332
0.00785534
-0.000948296
0.00793974
-0.000894744
0.0080251
-0.000925475
0.00810943
-0.000840006
0.00819545
-0.000924563
0.00827895
-0.000777463
0.00836432
-0.000929168
0.00844452
-0.000672055
0.00852686
-0.000939057
0.00859967
-0.000484032
0.00867501
-0.0009695
0.00873223
-0.00011356
0.00880158
-0.00117159
0.000439006
0.0083575
-0.0149493
0.00906347
-0.00539926
0.00933398
-0.00444165
0.00950107
-0.00170287
0.0096136
-0.000700643
0.00966323
1.82946e-05
0.00965916
0.000638471
0.00960464
0.00122137
0.00950697
0.00164363
0.00937576
0.00199504
0.00922348
0.00217646
0.00906092
0.00227778
0.0088974
0.00224689
0.0087378
0.00220294
0.00858542
0.00208529
0.00844072
0.00200888
0.00830539
0.00185531
0.00817802
0.00179094
0.0080601
0.00162303
0.00794971
0.00158023
0.00784895
0.00139375
0.00775509
0.00138274
0.00767197
0.00115
0.00759445
0.0011987
0.00752857
0.00090662
0.00746669
0.00103087
0.00741786
0.000657118
0.00737037
0.000893215
0.00733853
0.000388301
0.00730317
0.000808185
0.00728733
0.000106406
0.00726127
0.000783143
0.00726117
-0.000207372
0.00724045
0.000848648
0.00725542
-0.000560821
0.00723576
0.00103052
0.00726596
-0.000988947
0.00724759
0.00134801
0.00729037
-0.00151175
0.00728198
0.00169133
0.0073164
-0.00200744
0.00729606
0.00197594
0.00728128
-0.00208152
0.00720862
0.00225137
0.0071409
-0.00172303
0.00703408
0.00275933
0.00696165
-0.00160533
0.00689101
0.00292635
0.00688454
-0.00247082
0.00692592
0.00223254
0.00697821
-0.00342279
0.00746959
-0.00310173
0.00830481
-0.0147125
0.00796241
0.0126291
0.00707045
0.010007
0.00654478
0.00892225
0.00637742
-0.000536203
0.00626137
0.00200146
0.00624005
-0.00157776
0.0061838
0.00157322
0.00616735
-0.000854415
0.00616236
0.0010353
0.00624518
-0.00136104
0.00638507
-0.000807352
0.00657194
-0.00259054
0.00672794
-0.00166625
0.00684625
-0.00212419
0.00690779
-0.000872915
0.00694585
-0.00106655
0.00696239
-0.000242308
0.00698166
-0.000559023
0.00700019
-0.000143376
0.00702949
-0.000478936
0.00706355
-0.000280991
0.00710783
-0.000555225
0.00715634
-0.000466839
0.0072114
-0.000683086
0.00726964
-0.000704738
0.00733368
-0.000913357
0.00740376
-0.000998407
0.00748068
-0.00112484
0.00756153
-0.00113257
0.00764415
-0.0011253
0.0077272
-0.00108762
0.00781003
-0.00103716
0.00789362
-0.00103188
0.00797732
-0.00097845
0.00806206
-0.00101021
0.00814601
-0.000923956
0.00823161
-0.00101016
0.00831502
-0.00086087
0.00840011
-0.00101426
0.00848055
-0.000752489
0.00856267
-0.00102119
0.00863611
-0.000557462
0.00871106
-0.00104445
0.00876944
-0.000171942
0.00883753
-0.00123968
0.000400229
0.00832048
-0.015694
0.0090033
-0.00608209
0.00927219
-0.00471054
0.0094437
-0.00187438
0.00955923
-0.000816173
0.00961112
-3.36016e-05
0.00960858
0.000641011
0.0095551
0.00127486
0.00945815
0.00174058
0.00932772
0.00212547
0.00917651
0.00232767
0.00901558
0.00243871
0.00885425
0.00240822
0.00869739
0.00235981
0.00854805
0.00223463
0.00840663
0.0021503
0.00827455
0.00198739
0.00815047
0.00191503
0.00803563
0.00173787
0.00792829
0.00168756
0.00783031
0.00149173
0.00773926
0.0014738
0.00765857
0.00123069
0.00758365
0.00127363
0.00751987
0.0009704
0.00746044
0.0010903
0.00741338
0.000704176
0.00736827
0.000938328
0.00733779
0.000418777
0.00730489
0.000841083
0.00728989
0.000121408
0.00726653
0.000806502
0.00726653
-0.000207365
0.00724906
0.000866117
0.00726304
-0.000574807
0.00724788
0.00104568
0.00727562
-0.00101668
0.00726429
0.00135933
0.00730282
-0.00155028
0.00730164
0.00169251
0.00733083
-0.00203663
0.00731455
0.00199222
0.00729595
-0.00206291
0.00722531
0.00232201
0.00715386
-0.00165158
0.00704803
0.00286516
0.00697155
-0.00152885
0.00690292
0.00299498
0.00689338
-0.00246129
0.00693834
0.00218758
0.00698885
-0.00347329
0.00748071
-0.0035936
0.00830242
-0.0155342
0.00797767
0.0129538
0.00710252
0.0108821
0.00660069
0.00942408
0.00643584
-0.000371355
0.00632486
0.00211243
0.00630078
-0.00155367
0.00624776
0.00162623
0.00623257
-0.000839224
0.00623375
0.00103412
0.00632077
-0.00144806
0.00646369
-0.000950279
0.0066471
-0.00277394
0.00679658
-0.00181574
0.00690554
-0.00223315
0.00695964
-0.000927024
0.00699136
-0.00109827
0.00700456
-0.00025551
0.00702143
-0.000575892
0.00703928
-0.000161227
0.0070681
-0.000507755
0.0071025
-0.000315387
0.00714701
-0.000599736
0.00719606
-0.000515892
0.00725133
-0.000738354
0.00730974
-0.000763151
0.00737369
-0.000977302
0.0074435
-0.00106822
0.00751973
-0.00120108
0.0075996
-0.00121243
0.00768104
-0.00120674
0.0077629
-0.00116948
0.00784466
-0.00111892
0.00792727
-0.0011145
0.00801018
-0.00106136