/*--------------------------------*- C++ -*----------------------------------*\
| =========                 |                                                 |
| \\      /  F ield         | OpenFOAM: The Open Source CFD Toolbox           |
|  \\    /   O peration     | Version:  2412                                  |
|   \\  /    A nd           | Website:  www.openfoam.com                      |
|    \\/     M anipulation  |                                                 |
\*---------------------------------------------------------------------------*/
FoamFile
{
    version     2.0;
    format      ascii;
    arch        "LSB;label=32;scalar=64";
    class       volVectorField;
    location    "0.4";
    object      U;
}
// * * * * * * * * * * * * * * * * * * * * * * * * * * * * * * * * * * * * * //

dimensions      [0 1 -1 0 0 0 0];

internalField   nonuniform List<vector> 
78408
(
(79.1766 -82.4429 -1.59749e-14)
(101.216 -24.8704 -4.62277e-17)
(113.207 14.7437 0)
(119.623 28.8041 0)
(123.597 33.1217 -2.11844e-14)
(124.978 34.4339 -1.21309e-18)
(124.84 34.7854 0)
(123.858 34.8187 4.3496e-14)
(122.551 34.7609 4.39305e-14)
(121.085 34.6396 0)
(119.701 34.5012 0)
(118.414 34.343 2.26464e-14)
(117.383 34.2093 -2.29082e-14)
(116.509 34.0951 3.8205e-19)
(115.901 34.0279 0)
(115.369 33.9885 2.36861e-14)
(115.116 34.0164 0)
(114.867 34.0542 -2.41981e-14)
(114.922 34.1597 5.25051e-19)
(114.919 34.2686 0)
(115.312 34.4567 0)
(115.556 34.6436 -2.50617e-14)
(116.387 34.9541 0)
(116.924 35.2297 -2.53158e-14)
(118.265 35.6761 0)
(119.113 36.0615 0)
(121.093 36.674 0)
(122.234 37.1799 0)
(125.004 38.0027 -2.52386e-14)
(126.397 38.624 0)
(129.954 39.6504 0)
(131.6 40.4184 -1.36499e-18)
(136.24 41.7219 -2.39167e-14)
(138.017 42.6266 -2.3223e-14)
(144.06 44.2695 2.28655e-14)
(145.694 45.2815 2.19505e-14)
(153.667 47.378 0)
(154.687 48.4197 0)
(165.367 51.1392 -2.00036e-14)
(165.134 52.1375 -1.83145e-14)
(179.818 55.7691 1.81513e-14)
(177.624 56.7198 -1.56692e-14)
(198.348 61.9461 0)
(196.433 63.7789 0)
(225.813 71.6009 0)
(223.999 73.8658 8.03933e-15)
(258.124 82.7557 0)
(251.578 83.6118 0)
(293.712 94.2046 8.79711e-15)
(284.999 94.7714 0)
(345.446 110.19 0)
(336.819 110.721 -1.38456e-14)
(493.602 161.4 2.43635e-18)
(494.078 11.6509 1.77462e-15)
(319.84 -70.9415 1.51875e-15)
(270.918 -62.178 0)
(259.212 -58.3083 0)
(260.164 -56.0682 1.99252e-15)
(247.245 -55.0658 5.15605e-19)
(241.864 -52.2978 0)
(227.675 -50.6359 4.57253e-19)
(221.17 -48.0158 0)
(210.56 -46.6791 1.92372e-15)
(208.085 -45.2909 3.33518e-19)
(203.817 -44.9565 -2.35737e-15)
(205.206 -44.6482 2.27401e-15)
(202.968 -44.5464 5.78997e-15)
(201.968 -43.913 3.00833e-15)
(197.756 -43.2683 3.53678e-15)
(193.867 -42.1492 -3.73812e-15)
(188.649 -41.2078 -4.1706e-15)
(184.008 -40.005 -2.31316e-19)
(179.098 -39.0541 -9.45518e-15)
(174.872 -38.0038 2.06517e-19)
(170.692 -37.1616 -5.18677e-15)
(167.226 -36.3269 5.35182e-15)
(163.933 -35.6551 5.48152e-15)
(161.547 -35.0863 -1.7019e-19)
(159.963 -34.7752 0)
(159.485 -34.6465 -5.23482e-15)
(159.454 -34.6392 0)
(159.559 -34.6262 0)
(159.214 -34.5375 -5.00255e-15)
(158.58 -34.3713 0)
(157.456 -34.1136 -5.14965e-15)
(156.215 -33.8263 -5.27235e-15)
(154.658 -33.4628 5.41195e-15)
(153.19 -33.1417 0)
(151.404 -32.7442 -5.71966e-15)
(149.89 -32.4127 0)
(147.977 -31.9826 -6.03689e-15)
(146.536 -31.6761 -6.18694e-15)
(144.357 -31.1879 -6.34278e-15)
(143.133 -30.9385 0)
(140.361 -30.3115 6.62421e-15)
(139.636 -30.1882 -6.76458e-15)
(135.68 -29.319 0)
(135.934 -29.4177 -7.02405e-15)
(130.582 -28.1237 0)
(129.347 45.2809 1.08411e-14)
(138.411 49.9484 -2.2354e-14)
(136.663 43.6234 0)
(137.478 40.1159 0)
(139.762 39.4922 1.53086e-14)
(141.639 40.0695 -3.03916e-14)
(142.888 40.7358 0)
(143.389 41.1996 -1.46167e-14)
(143.073 41.3778 -1.44694e-14)
(142.153 41.3386 0)
(140.854 41.1518 -1.44322e-14)
(139.428 40.9056 -4.54978e-19)
(138.056 40.6511 0)
(136.856 40.4494 1.46647e-14)
(135.883 40.2937 0)
(135.115 40.2216 1.48867e-14)
(134.581 40.2051 0)
(134.24 40.2608 0)
(134.105 40.3476 6.1113e-19)
(134.133 40.5169 -1.54335e-14)
(134.386 40.7011 0)
(134.776 40.992 1.57045e-14)
(135.455 41.3026 0)
(136.281 41.7311 0)
(137.44 42.1689 1.60326e-14)
(138.74 42.7708 0)
(140.477 43.3553 0)
(142.295 44.1627 0)
(144.733 44.9315 0)
(147.124 45.9665 0)
(150.441 46.9649 0)
(153.349 48.2517 -1.52319e-14)
(157.719 49.5153 3.01226e-14)
(161.124 51.0722 1.45717e-14)
(166.784 52.635 0)
(170.571 54.4868 -1.36948e-14)
(177.925 56.4314 1.3399e-14)
(181.871 58.5666 -1.25828e-14)
(191.504 61.0178 2.47794e-18)
(195.244 63.4456 1.11957e-14)
(208.24 66.6375 0)
(211.315 69.3831 9.29201e-15)
(229.591 73.9306 8.74365e-15)
(233.812 77.6742 -6.36065e-15)
(259.451 84.4172 6.01242e-15)
(264.817 88.8863 0)
(293.478 96.3703 0)
(296.92 100.463 0)
(332.933 109.844 0)
(337.234 114.656 9.26009e-17)
(392.335 129.77 0)
(394.686 133.804 6.70195e-15)
(551.599 190.512 9.6568e-16)
(608.85 -5.96447 -9.74022e-16)
(398.773 -85.6827 0)
(330.542 -70.9704 0)
(302.32 -66.0336 -1.71908e-16)
(302.891 -64.4006 -7.97658e-16)
(283.988 -61.9118 7.03528e-16)
(280.106 -59.5867 0)
(260.638 -56.6602 5.5272e-16)
(254.331 -54.2233 2.46949e-16)
(239.654 -51.9992 0)
(236.762 -50.6666 5.78126e-16)
(230.935 -50.0485 8.75184e-16)
(232.335 -49.8381 0)
(229.711 -49.6658 -2.231e-15)
(228.904 -49.0874 -2.56093e-19)
(224.155 -48.3233 0)
(220.346 -47.2269 3.10557e-15)
(214.371 -46.142 1.758e-15)
(209.563 -44.9177 -1.88636e-15)
(203.921 -43.846 2.0543e-15)
(199.344 -42.7396 2.17574e-15)
(194.589 -41.8115 2.30506e-15)
(190.642 -40.8914 -2.3957e-15)
(186.888 -40.1515 0)
(183.976 -39.4873 -1.5345e-19)
(181.718 -39.0648 0)
(180.394 -38.7762 2.18056e-15)
(179.44 -38.59 0)
(178.704 -38.4089 2.00618e-15)
(177.7 -38.1831 1.9967e-15)
(176.597 -37.9242 0)
(175.167 -37.6006 4.16265e-15)
(173.73 -37.2843 2.15662e-15)
(172.071 -36.8954 -2.24523e-15)
(170.55 -36.5873 0)
(168.773 -36.1804 9.74622e-20)
(167.272 -35.8804 0)
(165.421 -35.4414 2.67696e-15)
(164.007 -35.1828 2.78957e-15)
(162.026 -34.6897 5.82743e-15)
(160.736 -34.4927 0)
(158.487 -33.8839 -6.29461e-15)
(157.418 -33.8093 3.25056e-15)
(154.557 -32.9927 3.37082e-15)
(153.944 -33.1369 3.46414e-15)
(150.402 -31.9541 3.57773e-15)
(96.4153 37.6889 0)
(131.744 40.8081 -1.2011e-17)
(141.081 38.5339 -1.25832e-14)
(143.953 39.3392 0)
(145.982 40.6586 0)
(147.263 41.648 1.15371e-14)
(148.128 42.2794 0)
(148.61 42.737 -1.02327e-14)
(148.619 43.0111 1.00225e-14)
(148.187 43.1346 0)
(147.416 43.1199 1.00961e-14)
(146.443 43.0252 -1.02257e-14)
(145.429 42.8859 0)
(144.471 42.7668 0)
(143.672 42.6659 0)
(143.014 42.6359 -2.1503e-14)
(142.585 42.653 0)
(142.319 42.7425 -1.10426e-14)
(142.297 42.8643 1.12183e-14)
(142.418 43.0763 1.13889e-14)
(142.822 43.3058 -1.15878e-14)
(143.332 43.652 1.1761e-14)
(144.207 44.0197 0)
(145.162 44.5118 0)
(146.566 45.0163 -1.22888e-14)
(147.995 45.691 0)
(150.028 46.3506 0)
(151.963 47.2393 0)
(154.756 48.0917 0)
(157.241 49.2158 0)
(160.951 50.2956 0)
(163.978 51.7047 0)
(168.805 53.051 -1.19044e-18)
(172.344 54.7654 -1.17979e-14)
(178.548 56.4104 -1.1605e-14)
(182.478 58.4642 1.11739e-14)
(190.486 60.4889 -2.18325e-14)
(194.579 62.8803 1.0331e-14)
(205.008 65.4097 1.00507e-14)
(208.917 68.1678 0)
(222.891 71.4432 0)
(226.341 74.6379 7.43908e-15)
(245.736 79.3179 -1.84844e-18)
(250.61 83.538 4.4351e-15)
(275.564 89.8935 -3.72226e-15)
(280.773 94.4967 0)
(308.212 101.503 0)
(312.544 106.089 1.28265e-15)
(348.312 115.386 0)
(354.92 121.189 -5.5556e-17)
(410.836 136.755 0)
(416.168 141.859 -4.05382e-15)
(570.21 199.452 0)
(646.343 -10.3825 7.44049e-16)
(443.249 -92.8575 0)
(362.956 -76.4495 0)
(326.477 -70.8342 2.10989e-16)
(323.294 -68.3575 4.76136e-16)
(302.401 -65.5097 -2.0465e-16)
(297.181 -62.8218 -1.32132e-16)
(276.586 -59.699 0)
(269.132 -56.9982 -1.39093e-16)
(253.652 -54.6778 0)
(250.208 -53.2612 3.19444e-16)
(244.244 -52.6917 -4.85489e-16)
(245.544 -52.4688 -4.79474e-16)
(242.758 -52.282 6.28401e-16)
(241.74 -51.6249 -6.78042e-16)
(236.727 -50.8076 0)
(232.644 -49.627 -1.79331e-15)
(226.431 -48.5058 -1.24831e-19)
(221.367 -47.2181 0)
(215.525 -46.1253 0)
(210.739 -44.9748 0)
(205.806 -44.0295 0)
(201.684 -43.0762 9.78536e-20)
(197.716 -42.3092 0)
(194.536 -41.5968 -1.41763e-15)
(191.859 -41.1046 1.32832e-15)
(189.976 -40.7077 0)
(188.406 -40.3998 0)
(187.126 -40.1059 -1.09343e-15)
(185.707 -39.7912 0)
(184.311 -39.4711 0)
(182.694 -39.105 -1.1371e-15)
(181.137 -38.7677 0)
(179.422 -38.3631 0)
(177.869 -38.0575 0)
(176.11 -37.6466 1.37609e-15)
(174.622 -37.364 -1.45054e-15)
(172.837 -36.9237 0)
(171.453 -36.6946 0)
(169.562 -36.1909 -1.69767e-15)
(168.312 -36.0425 0)
(166.155 -35.3955 3.74937e-15)
(165.142 -35.4069 0)
(162.358 -34.493 -2.05468e-15)
(161.815 -34.8054 0)
(158.237 -33.4236 -2.23507e-15)
(99.0033 17.5192 0)
(127.189 30.0715 2.5286e-14)
(137.117 36.0061 2.11955e-14)
(141.779 39.2611 0)
(145.101 40.7636 0)
(147.097 41.6842 7.73615e-15)
(148.378 42.3742 -7.02396e-15)
(149.185 42.9352 6.62896e-15)
(149.533 43.3149 -1.29755e-14)
(149.477 43.5572 6.5168e-15)
(149.108 43.6642 0)
(148.536 43.6919 0)
(147.893 43.6617 0)
(147.259 43.6397 0)
(146.733 43.6167 0)
(146.307 43.6563 7.49497e-15)
(146.078 43.7297 7.6713e-15)
(145.996 43.8763 7.85981e-15)
(146.153 44.0471 -8.06761e-15)
(146.454 44.3172 0)
(147.044 44.5974 3.31445e-19)
(147.748 45.0092 -3.93724e-19)
(148.826 45.4312 0)
(149.991 45.9977 -9.26024e-15)
(151.614 46.5579 9.51592e-15)
(153.263 47.3163 -9.71231e-15)
(155.529 48.0304 0)
(157.691 49.0124 0)
(160.724 49.9138 0)
(163.44 51.143 1.02679e-14)
(167.385 52.2573 -1.04087e-14)
(170.662 53.795 1.02978e-14)
(175.733 55.1605 -9.28383e-19)
(179.551 57.036 0)
(186.012 58.6789 1.00303e-14)
(190.262 60.9393 9.74125e-15)
(198.542 62.932 1.20774e-18)
(203.017 65.5938 0)
(213.742 68.0516 0)
(218.144 71.1755 0)
(232.465 74.352 -7.63086e-15)
(236.771 78.0813 -6.29317e-15)
(256.34 82.6324 -9.71396e-15)
(261.804 87.2441 3.14894e-15)
(284.981 92.8711 2.4256e-15)
(289.904 97.5179 1.50222e-15)
(315.859 103.934 0)
(320.793 108.841 -8.06687e-16)
(355.831 117.806 0)
(364.064 124.257 0)
(419.639 139.713 0)
(427.459 145.486 -2.4576e-18)
(576.882 202.251 0)
(664.553 -9.42898 -5.30895e-16)
(474.472 -97.5003 0)
(388.373 -81.0498 7.78226e-16)
(344.892 -74.5494 -7.78819e-17)
(338.049 -71.212 -3.39438e-16)
(315.167 -68.0553 -1.43268e-16)
(308.783 -65.015 9.11329e-17)
(287.293 -61.7689 -2.15696e-16)
(279.084 -58.866 -9.42734e-17)
(263.147 -56.534 -2.7232e-16)
(259.486 -55.0891 -2.16791e-16)
(253.509 -54.5937 0)
(254.721 -54.3422 3.2798e-16)
(251.703 -54.1193 0)
(250.38 -53.353 -4.65438e-16)
(245.017 -52.4584 0)
(240.623 -51.1809 8.6401e-20)
(234.14 -50.01 -1.4035e-15)
(228.857 -48.6637 0)
(222.836 -47.5474 8.30311e-16)
(217.908 -46.3644 8.84959e-16)
(212.85 -45.4071 0)
(208.625 -44.4337 9.80652e-16)
(204.526 -43.6531 0)
(201.175 -42.9121 0)
(198.215 -42.3752 -1.77801e-15)
(195.945 -41.9059 0)
(193.954 -41.5173 0)
(192.307 -41.1475 0)
(190.606 -40.7727 -7.11781e-16)
(189.006 -40.4086 0)
(187.253 -40.0112 0)
(185.603 -39.6553 -7.83474e-16)
(183.836 -39.2371 8.2359e-16)
(182.247 -38.9277 0)
(180.487 -38.5119 0)
(178.993 -38.2351 9.72472e-16)
(177.239 -37.7925 0)
(175.863 -37.5768 -1.08765e-15)
(174.025 -37.0676 0)
(172.792 -36.9428 0)
(170.706 -36.2789 -2.56482e-15)
(169.709 -36.331 1.34323e-15)
(167.018 -35.3746 0)
(166.473 -35.7691 -1.47918e-15)
(162.976 -34.2909 0)
(103.846 22.5954 0)
(126.979 34.1193 -1.63148e-14)
(134.807 36.134 -6.6206e-15)
(139.224 38.475 -6.142e-15)
(143.035 40.0814 0)
(145.624 41.2291 -5.00788e-15)
(147.384 42.0884 4.63401e-15)
(148.546 42.7646 -4.42412e-15)
(149.169 43.2303 4.35182e-15)
(149.351 43.5504 -1.74384e-19)
(149.208 43.7277 0)
(148.856 43.8238 0)
(148.429 43.8564 0)
(148 43.8951 0)
(147.666 43.9259 0)
(147.422 44.0179 5.17645e-15)
(147.363 44.1368 -1.6892e-19)
(147.446 44.3316 -5.52168e-15)
(147.763 44.5443 5.71879e-15)
(148.226 44.8638 0)
(148.98 45.1866 6.1634e-15)
(149.858 45.6535 -2.98794e-19)
(151.11 46.1203 6.66403e-15)
(152.464 46.7504 1.38434e-14)
(154.274 47.3569 -7.19477e-15)
(156.132 48.1896 7.44533e-15)
(158.596 48.9494 0)
(160.987 50.0182 0)
(164.224 50.9603 -8.18385e-15)
(167.186 52.2915 -1.66457e-14)
(171.33 53.4331 8.55033e-15)
(174.874 55.0941 -8.58094e-15)
(180.139 56.468 -8.70006e-15)
(184.251 58.4969 0)
(190.899 60.1211 0)
(195.482 62.5782 -1.70415e-14)
(203.937 64.5135 8.41501e-15)
(208.806 67.4346 8.10698e-15)
(219.694 69.7858 -7.86731e-15)
(224.618 73.2669 0)
(239.112 76.3123 6.53427e-15)
(244.3 80.5498 0)
(263.519 84.8226 8.66335e-19)
(269.124 89.6153 -2.17946e-15)
(290.726 94.5943 -5.95211e-19)
(295.38 99.252 -2.0125e-15)
(320.327 105.235 1.1284e-15)
(325.583 110.335 0)
(360.092 119.017 0)
(369.264 125.85 0)
(424.478 141.136 0)
(433.91 147.239 -1.69782e-18)
(580.062 203.021 0)
(672.459 -8.65436 -3.43781e-16)
(495.709 -100.434 3.0743e-16)
(408.796 -84.6137 -6.33124e-16)
(360.053 -77.5365 0)
(349.894 -73.4605 0)
(325.173 -70.0289 1.10619e-16)
(317.716 -66.6682 -6.94373e-17)
(295.516 -63.3342 1.64055e-16)
(286.753 -60.2782 1.42162e-16)
(270.58 -57.9789 2.06642e-16)
(266.862 -56.5439 1.64479e-16)
(260.933 -56.1299 2.53535e-16)
(262.037 -55.8443 -2.50752e-16)
(258.736 -55.5679 -3.31111e-16)
(257.04 -54.6783 7.20862e-20)
(251.28 -53.6925 0)
(246.543 -52.3128 4.67155e-16)
(239.777 -51.0872 5.10716e-20)
(234.281 -49.6851 0)
(228.095 -48.5457 -1.25382e-15)
(223.047 -47.3359 -6.67416e-16)
(217.888 -46.3695 0)
(213.585 -45.382 0)
(209.394 -44.5933 0)
(205.92 -43.8327 0)
(202.754 -43.2649 2.44785e-20)
(200.21 -42.746 0)
(197.926 -42.3034 0)
(196.022 -41.8823 0)
(194.12 -41.4658 1.04668e-15)
(192.37 -41.0696 0)
(190.512 -40.6484 0)
(188.784 -40.2769 2.21122e-20)
(186.969 -39.8469 -6.11826e-16)
(185.343 -39.5318 0)
(183.569 -39.1104 -6.84976e-16)
(182.059 -38.8345 0)
(180.314 -38.3883 0)
(178.934 -38.1787 1.53562e-20)
(177.123 -37.6644 0)
(175.892 -37.5517 0)
(173.847 -36.8763 4.08535e-20)
(172.851 -36.9501 -1.01242e-15)
(170.224 -35.9678 0)
(169.663 -36.4089 -2.58539e-20)
(166.234 -34.8708 0)
(103.627 22.5868 0)
(125.86 33.9074 8.75303e-15)
(133.182 35.2561 0)
(137.377 37.8116 3.83575e-15)
(141.302 39.5212 0)
(144.176 40.7614 3.43626e-15)
(146.236 41.7228 0)
(147.65 42.4898 3.1851e-15)
(148.471 43.027 -3.15566e-15)
(148.812 43.4062 -3.17814e-15)
(148.806 43.631 -3.23645e-15)
(148.581 43.769 0)
(148.277 43.8378 0)
(147.972 43.9118 0)
(147.761 43.975 0)
(147.639 44.1003 -3.74219e-15)
(147.702 44.2495 -3.87543e-15)
(147.906 44.4772 4.02359e-15)
(148.342 44.7192 4.18617e-15)
(148.928 45.0732 0)
(149.804 45.4258 0)
(150.811 45.9311 -9.52809e-15)
(152.191 46.4289 -9.96698e-15)
(153.686 47.1039 -5.21124e-15)
(155.634 47.7427 0)
(157.648 48.6294 5.68882e-15)
(160.261 49.4221 0)
(162.83 50.5569 0)
(166.226 51.5297 6.42534e-15)
(169.391 52.9429 6.62086e-15)
(173.696 54.1069 -6.86954e-15)
(177.469 55.8708 0)
(182.894 57.2519 0)
(187.27 59.4128 0)
(194.071 61.0198 0)
(198.96 63.6494 7.3207e-15)
(207.552 65.5309 0)
(212.789 68.6832 -7.11021e-15)
(223.793 70.9354 9.62389e-19)
(229.216 74.7388 6.30894e-15)
(243.8 77.6658 -5.34829e-15)
(249.699 82.2998 0)
(268.304 86.2312 2.51005e-15)
(273.835 91.0822 0)
(294.395 95.6209 -4.32002e-19)
(298.89 100.295 7.15607e-16)
(323.212 105.986 -8.22401e-16)
(328.65 111.202 0)
(362.814 119.669 6.88899e-16)
(372.554 126.727 0)
(427.511 141.865 5.36533e-16)
(438.027 148.088 6.00559e-16)
(581.961 202.95 -1.4097e-16)
(675.809 -8.23908 2.30499e-16)
(509.689 -101.966 -1.72593e-18)
(425.059 -87.2726 0)
(372.79 -79.959 0)
(359.843 -75.2959 0)
(333.493 -71.6274 0)
(325.068 -67.9895 5.60684e-17)
(302.295 -64.5884 1.32636e-16)
(293.116 -61.4206 -1.14396e-16)
(276.849 -59.178 0)
(273.161 -57.7787 -2.67255e-16)
(267.299 -57.4433 -2.07309e-16)
(268.264 -57.1188 4.09851e-16)
(264.64 -56.7739 2.70709e-16)
(262.526 -55.7542 5.76802e-20)
(256.343 -54.6691 0)
(251.25 -53.1883 -3.76881e-16)
(244.202 -51.9068 4.27906e-16)
(238.502 -50.4537 0)
(232.164 -49.293 3.40993e-20)
(227.011 -48.0612 0)
(221.767 -47.0879 0)
(217.401 -46.0901 -5.89772e-16)
(213.138 -45.2961 0)
(209.566 -44.5209 0)
(206.244 -43.9305 5.12606e-16)
(203.5 -43.3768 0)
(201.006 -42.8975 0)
(198.916 -42.441 0)
(196.864 -41.9944 -4.13611e-16)
(194.996 -41.5738 0)
(193.052 -41.1337 0)
(191.258 -40.7489 4.6274e-16)
(189.397 -40.3086 4.88128e-16)
(187.734 -39.9875 0)
(185.939 -39.5601 5.47717e-16)
(184.409 -39.2831 0)
(182.661 -38.8325 0)
(181.27 -38.6253 6.52766e-16)
(179.469 -38.1058 0)
(178.232 -37.9998 0)
(176.211 -37.3147 7.71946e-16)
(175.208 -37.4013 0)
(172.623 -36.3989 0)
(172.041 -36.8706 8.99761e-16)
(168.66 -35.2877 0)
(103.556 21.6604 0)
(124.706 33.2205 -2.60062e-15)
(131.766 34.5749 0)
(135.927 37.2657 0)
(139.894 39.013 0)
(142.905 40.3128 -2.70021e-19)
(145.142 41.3484 2.47677e-15)
(146.721 42.1868 2.44655e-15)
(147.68 42.783 2.44331e-15)
(148.132 43.2103 0)
(148.218 43.4712 2.50478e-15)
(148.074 43.6384 0)
(147.85 43.7308 0)
(147.627 43.8271 2.69357e-15)
(147.5 43.9111 2.7753e-15)
(147.467 44.0584 0)
(147.62 44.2278 0)
(147.916 44.4783 0)
(148.444 44.7405 -3.22193e-15)
(149.123 45.1183 0)
(150.091 45.4913 0)
(151.194 46.0227 7.37119e-15)
(152.669 46.541 7.7243e-15)
(154.265 47.2464 0)
(156.313 47.9061 0)
(158.44 48.8296 -2.92219e-19)
(161.161 49.6436 0)
(163.856 50.8243 0)
(167.367 51.8172 0)
(170.68 53.2897 0)
(175.107 54.4688 5.48783e-15)
(179.052 56.31 0)
(184.601 57.6955 0)
(189.182 59.9596 5.95789e-15)
(196.105 61.5521 0)
(201.243 64.3217 0)
(209.945 66.1585 0)
(215.495 69.5041 6.06583e-15)
(226.591 71.6762 1.15412e-14)
(232.459 75.7517 -5.25815e-15)
(247.065 78.5723 4.13618e-15)
(253.431 83.4624 0)
(271.47 87.0944 0)
(276.926 91.9767 0)
(296.878 96.2453 -3.2681e-19)
(301.3 100.946 0)
(325.225 106.435 6.35947e-16)
(330.78 111.724 -2.99011e-16)
(364.714 120.023 -1.0732e-15)
(374.835 127.215 0)
(429.611 142.232 -4.14893e-16)
(440.923 148.451 0)
(583.254 202.486 1.08843e-16)
(677.345 -7.87145 1.63618e-16)
(518.845 -102.58 -1.82348e-16)
(437.848 -89.2147 0)
(383.509 -81.9195 -4.36556e-17)
(368.369 -76.8176 0)
(340.632 -72.9588 0)
(331.358 -69.0859 0)
(308.126 -65.6355 -5.70712e-20)
(298.635 -62.3883 9.61703e-17)
(282.369 -60.2183 -1.41847e-16)
(278.761 -58.8702 2.26848e-16)
(272.961 -58.6063 1.76853e-16)
(273.752 -58.2356 -3.49429e-16)
(269.767 -57.8094 -2.30566e-16)
(267.207 -56.6555 4.90215e-16)
(260.59 -55.4672 0)
(255.141 -53.8887 4.07126e-20)
(247.822 -52.5532 0)
(241.932 -51.0547 -3.84218e-16)
(235.457 -49.8752 4.20554e-16)
(230.211 -48.6255 -4.4645e-16)
(224.894 -47.6474 -4.75419e-16)
(220.475 -46.6419 2.78152e-20)
(216.151 -45.8445 0)
(212.501 -45.0578 4.64741e-16)
(209.057 -44.4507 0)
(206.162 -43.8723 0)
(203.514 -43.3678 0)
(201.284 -42.8859 0)
(199.115 -42.4169 0)
(197.151 -41.9768 0)
(195.133 -41.5211 0)
(193.28 -41.1249 0)
(191.376 -40.6752 -4.08506e-16)
(189.676 -40.348 0)
(187.857 -39.9147 0)
(186.304 -39.6354 0)
(184.545 -39.18 0)
(183.139 -38.9734 0)
(181.34 -38.4483 0)
(180.093 -38.3461 0)
(178.084 -37.6521 0)
(177.07 -37.7465 0)
(174.512 -36.7272 0)
(173.91 -37.2202 0)
(170.557 -35.6007 0)
(103.462 20.9281 0)
(123.643 32.4724 -1.77077e-15)
(130.512 33.9657 0)
(134.707 36.7591 0)
(138.699 38.5402 1.95954e-15)
(141.786 39.8907 -3.93956e-15)
(144.129 40.9843 -1.96823e-15)
(145.816 41.8803 -1.41889e-19)
(146.869 42.5255 0)
(147.398 42.9927 0)
(147.547 43.2827 -2.03664e-15)
(147.461 43.4722 -2.07562e-15)
(147.294 43.5814 2.12179e-15)
(147.13 43.6931 -2.17604e-15)
(147.069 43.7915 -2.23959e-15)
(147.106 43.9545 0)
(147.331 44.1384 0)
(147.701 44.4055 0)
(148.304 44.6824 0)
(149.058 45.0776 0)
(150.1 45.4652 0)
(151.279 46.0153 -1.44908e-19)
(152.829 46.5475 -3.117e-15)
(154.503 47.2741 0)
(156.629 47.9476 -3.42168e-15)
(158.838 48.8963 -7.16173e-15)
(161.64 49.7239 -3.74965e-15)
(164.427 50.9364 -3.91463e-15)
(168.025 51.9415 -4.09249e-15)
(171.443 53.4557 4.25449e-15)
(175.961 54.6437 -4.43961e-15)
(180.029 56.5407 -4.58371e-15)
(185.672 57.9269 -4.74247e-15)
(190.4 60.2678 -9.75984e-15)
(197.416 61.8469 0)
(202.739 64.7241 5.08745e-15)
(211.528 66.5246 0)
(217.321 70.0231 -5.04813e-15)
(228.495 72.1344 -4.69803e-15)
(234.723 76.4224 0)
(249.317 79.1463 3.07907e-15)
(255.957 84.1853 0)
(273.617 87.608 0)
(279.052 92.5272 0)
(298.656 96.6313 -6.78447e-16)
(303.057 101.364 0)
(326.715 106.705 -1.03215e-15)
(332.352 112.04 3.13804e-19)
(366.125 120.201 8.76037e-16)
(376.526 127.475 -7.83064e-18)
(431.172 142.392 0)
(443.116 148.534 -3.67807e-16)
(584.198 201.821 8.81122e-17)
(678.107 -7.52474 -1.25233e-16)
(525.002 -102.674 -1.40288e-16)
(447.842 -90.5966 0)
(392.502 -83.492 3.75846e-17)
(375.744 -78.0857 0)
(346.874 -74.0858 0)
(336.876 -70.0174 4.0896e-17)
(313.283 -66.5347 -1.94123e-16)
(303.566 -63.2341 -4.87651e-20)
(287.365 -61.1478 4.58069e-20)
(283.86 -59.8592 -9.9313e-17)
(278.104 -59.6574 -1.55507e-16)
(278.684 -59.232 1.53383e-16)
(274.306 -58.7134 4.04165e-16)
(271.281 -57.4229 -4.15362e-20)
(264.23 -56.1306 0)
(258.436 -54.4596 2.74387e-16)
(250.862 -53.0736 3.10251e-16)
(244.798 -51.5352 6.62647e-16)
(238.2 -50.3398 -3.6248e-16)
(232.872 -49.076 3.84455e-16)
(227.493 -48.0948 2.13233e-20)
(223.028 -47.0838 4.21674e-16)
(218.654 -46.2842 0)
(214.938 -45.4886 -7.90237e-16)
(211.397 -44.869 0)
(208.388 -44.2733 3.20391e-16)
(205.623 -43.7514 0)
(203.285 -43.2511 0)
(201.021 -42.7645 -2.94787e-16)
(198.976 -42.3084 0)
(196.892 -41.8392 0)
(194.985 -41.4327 3.34368e-16)
(193.038 -40.9744 -3.53551e-16)
(191.302 -40.6412 0)
(189.458 -40.2019 -3.9787e-16)
(187.879 -39.9197 0)
(186.107 -39.4593 0)
(184.683 -39.2521 0)
(182.88 -38.7215 0)
(181.62 -38.6211 0)
(179.616 -37.9189 5.60627e-16)
(178.589 -38.0179 5.91339e-16)
(176.048 -36.9838 0)
(175.425 -37.4924 -6.54106e-16)
(172.089 -35.8416 0)
(103.346 20.2385 0)
(122.667 31.6822 2.66261e-15)
(129.375 33.3872 0)
(133.63 36.2784 0)
(137.646 38.0955 -1.56205e-15)
(140.782 39.4925 1.60009e-15)
(143.192 40.6345 -1.62341e-15)
(144.948 41.5785 -1.19717e-19)
(146.064 42.2651 0)
(146.645 42.766 0)
(146.838 43.0801 1.71637e-15)
(146.792 43.2871 1.74752e-15)
(146.668 43.4089 -1.78409e-15)
(146.552 43.5321 0)
(146.545 43.6411 -1.87975e-15)
(146.641 43.816 0)
(146.928 44.0111 0)
(147.362 44.2911 0)
(148.029 44.5794 0)
(148.847 44.988 -2.27735e-15)
(149.953 45.3867 0)
(151.196 45.9509 -4.98305e-15)
(152.809 46.4932 -2.60827e-15)
(154.547 47.2354 2.72878e-15)
(156.736 47.9184 2.85651e-15)
(159.011 48.8854 2.98472e-15)
(161.879 49.7217 6.24207e-15)
(164.737 50.9568 3.25338e-15)
(168.402 51.9692 6.7927e-15)
(171.898 53.5135 -3.5268e-15)
(176.488 54.7057 7.35069e-15)
(180.646 56.6433 3.79408e-15)
(186.361 58.0273 3.55616e-19)
(191.195 60.4251 4.0394e-15)
(198.285 61.9911 -4.12624e-15)
(203.74 64.9494 -8.43028e-15)
(212.599 66.7198 0)
(218.57 70.3355 0)
(229.814 72.4014 3.75459e-15)
(236.312 76.8448 3.22994e-15)
(250.894 79.4862 -2.28331e-15)
(257.697 84.6151 -1.54096e-15)
(275.141 87.907 0)
(280.596 92.8696 0)
(299.997 96.8695 0)
(304.401 101.634 0)
(327.868 106.86 4.34544e-16)
(333.566 112.224 2.01938e-16)
(367.221 120.268 -3.70797e-16)
(377.842 127.592 1.27428e-17)
(432.392 142.423 0)
(444.869 148.443 6.14389e-16)
(584.919 201.042 -1.49361e-16)
(678.496 -7.20608 1.00021e-16)
(529.337 -102.481 9.04706e-19)
(455.667 -91.5498 0)
(400.036 -84.7408 0)
(382.159 -79.1432 0)
(352.4 -75.0493 -5.82221e-17)
(341.801 -70.8215 -3.61e-17)
(317.934 -67.3223 8.61052e-17)
(308.061 -63.9895 -7.39836e-17)
(291.97 -61.9946 4.10536e-20)
(288.577 -60.7694 0)
(282.836 -60.6188 -1.39619e-16)
(283.168 -60.1294 -1.37447e-16)
(278.369 -59.5092 -1.80775e-16)
(274.87 -58.0812 -1.90366e-16)
(267.391 -56.6861 2.2759e-16)
(261.268 -54.9287 0)
(253.458 -53.4968 -5.48172e-16)
(247.237 -51.924 -5.84476e-16)
(240.531 -50.7159 3.19695e-16)
(235.132 -49.4412 0)
(229.699 -48.4587 3.60356e-16)
(225.195 -47.444 0)
(220.779 -46.6432 0)
(217.006 -45.8407 1.45783e-20)
(213.388 -45.2121 0)
(210.292 -44.6044 -1.03136e-20)
(207.438 -44.0707 0)
(205.013 -43.5565 -2.56766e-16)
(202.668 -43.0558 2.5985e-16)
(200.552 -42.5859 -2.68475e-16)
(198.408 -42.1047 0)
(196.45 -41.6888 -2.96414e-16)
(194.463 -41.2225 1.21887e-20)
(192.69 -40.8833 0)
(190.819 -40.4381 7.06844e-16)
(189.214 -40.1527 -3.75592e-16)
(187.425 -39.6872 0)
(185.982 -39.4787 -4.22304e-16)
(184.171 -38.9426 -4.46312e-16)
(182.897 -38.8427 0)
(180.892 -38.1328 -4.97711e-16)
(179.853 -38.2345 1.8696e-21)
(177.321 -37.1869 0)
(176.68 -37.7071 5.80405e-16)
(173.35 -36.0287 -6.06195e-16)
(103.223 19.5659 0)
(121.756 30.8853 -3.54076e-19)
(128.323 32.8309 0)
(132.65 35.8177 0)
(136.69 37.672 0)
(139.863 39.1137 0)
(142.318 40.2984 1.25162e-19)
(144.119 41.2839 -1.40803e-15)
(145.274 42.0062 -1.43481e-15)
(145.888 42.536 0)
(146.11 42.8703 0)
(146.092 43.0915 0)
(146.002 43.2229 -1.54324e-15)
(145.926 43.3548 1.58043e-15)
(145.966 43.4722 1.62542e-15)
(146.114 43.6566 0)
(146.457 43.8607 0)
(146.948 44.1511 0)
(147.673 44.4488 0)
(148.547 44.8683 8.06824e-20)
(149.711 45.2759 2.05702e-15)
(151.01 45.8513 4.30021e-15)
(152.678 46.4013 1.05046e-19)
(154.471 47.1557 -4.69839e-15)
(156.716 47.8455 2.45547e-15)
(159.047 48.8263 0)
(161.97 49.6685 -5.34631e-15)
(164.886 50.9206 2.77997e-15)
(168.609 51.9371 -2.00665e-19)
(172.167 53.5038 0)
(176.816 54.6975 -3.12011e-15)
(181.043 56.6655 0)
(186.818 58.0455 3.31819e-15)
(191.73 60.486 -3.40467e-15)
(198.88 62.0394 3.47244e-15)
(204.43 65.0591 3.53204e-15)
(213.348 66.8042 0)
(219.451 70.5092 0)
(230.764 72.5408 -5.99386e-15)
(237.461 77.0944 -2.48461e-15)
(252.042 79.6705 1.7297e-15)
(258.952 84.8602 4.90241e-19)
(276.279 88.073 7.98033e-16)
(281.774 93.0812 0)
(301.049 97.0114 4.7013e-16)
(305.468 101.806 3.00344e-16)
(328.789 106.937 -3.76302e-16)
(334.535 112.319 0)
(368.1 120.259 0)
(378.905 127.611 -1.03644e-17)
(433.382 142.368 0)
(446.327 148.239 -5.30012e-16)
(585.484 200.191 6.51944e-17)
(678.682 -6.91125 -8.39713e-17)
(532.552 -102.124 9.20907e-17)
(461.851 -92.1831 0)
(406.355 -85.7243 0)
(387.764 -80.0243 0)
(357.337 -75.8782 5.21409e-17)
(346.256 -71.5238 0)
(322.191 -68.0227 7.76226e-17)
(312.22 -64.6754 6.68087e-17)
(296.269 -62.7768 1.00664e-16)
(292.985 -61.6152 0)
(287.225 -61.5042 1.27476e-16)
(287.273 -60.9413 1.25201e-16)
(282.03 -60.2118 0)
(278.052 -58.6471 1.7213e-16)
(270.159 -57.1522 -2.41924e-20)
(263.727 -55.3152 0)
(255.701 -53.8423 2.00738e-20)
(249.341 -52.2404 5.2471e-16)
(242.54 -51.0226 2.87015e-16)
(237.08 -49.74 -3.0401e-16)
(231.602 -48.7577 0)
(227.064 -47.7409 0)
(222.612 -46.9399 0)
(218.793 -46.1322 3.05838e-16)
(215.113 -45.4973 0)
(211.949 -44.8818 -2.48161e-16)
(209.024 -44.34 -2.34172e-16)
(206.527 -43.8151 2.30177e-16)
(204.113 -43.3023 0)
(201.932 -42.8204 2.41929e-16)
(199.732 -42.3282 0)
(197.725 -41.9036 2.67816e-16)
(195.698 -41.4295 2.8368e-16)
(193.889 -41.0846 -3.01406e-16)
(191.99 -40.6335 -3.19907e-16)
(190.358 -40.3447 3.40095e-16)
(188.55 -39.8741 -3.60373e-16)
(187.087 -39.6638 3.82446e-16)
(185.266 -39.1222 4.04042e-16)
(183.976 -39.0221 0)
(181.969 -38.3049 0)
(180.916 -38.4077 -4.75188e-16)
(178.388 -37.3478 0)
(177.73 -37.8768 0)
(174.4 -36.1736 5.47064e-16)
(103.102 18.9149 0)
(120.895 30.101 -1.79613e-15)
(127.336 32.2932 0)
(131.739 35.3721 0)
(135.807 37.2646 0)
(139.01 38.7503 0)
(141.497 39.9746 2.3914e-15)
(143.325 40.9972 0)
(144.502 41.7509 6.91469e-20)
(145.134 42.3057 0)
(145.373 42.657 0)
(145.375 42.8897 0)
(145.311 43.0286 1.36412e-15)
(145.27 43.1672 -1.39747e-15)
(145.352 43.2912 1.43774e-15)
(145.548 43.4835 1.48526e-15)
(145.942 43.695 0)
(146.485 43.9944 0)
(147.263 44.3 0)
(148.191 44.7287 1.74162e-15)
(149.406 45.1438 -1.81941e-15)
(150.756 45.7285 -3.80014e-15)
(152.476 46.2846 3.97073e-15)
(154.318 47.0488 2.07137e-15)
(156.613 47.7439 -4.32431e-15)
(158.993 48.7357 0)
(161.966 49.582 4.69069e-15)
(164.933 50.8474 -2.43358e-15)
(168.706 51.8662 -2.53027e-15)
(172.317 53.4504 0)
(177.016 54.6438 -2.71113e-15)
(181.3 56.6353 0)
(187.126 58.0104 2.86729e-15)
(192.1 60.4841 2.92984e-15)
(199.301 62.0254 0)
(204.924 65.0927 0)
(213.896 66.8161 2.95112e-15)
(220.1 70.5901 0)
(231.482 72.5952 2.41778e-15)
(238.327 77.2272 -1.9378e-15)
(252.917 79.7537 -2.71056e-15)
(259.904 84.9892 9.24393e-16)
(277.17 88.1538 -6.63535e-16)
(282.711 93.2067 4.38395e-16)
(301.903 97.0873 -4.09552e-16)
(306.339 101.91 -2.62929e-16)
(329.543 106.959 3.337e-16)
(335.327 112.349 0)
(368.822 120.197 0)
(379.786 127.562 8.60393e-18)
(434.208 142.252 0)
(447.577 147.955 2.34023e-16)
(585.932 199.29 5.79403e-17)
(678.745 -6.63419 0)
(535.056 -101.668 0)
(466.81 -92.5818 2.33421e-16)
(411.681 -86.4935 2.53082e-17)
(392.682 -80.7578 0)
(361.782 -76.5954 4.71799e-17)
(350.327 -72.1433 -2.95643e-17)
(326.132 -68.6532 -1.4195e-16)
(316.114 -65.3063 -3.06103e-17)
(300.32 -63.5066 9.2731e-17)
(297.133 -62.4063 0)
(291.315 -62.3225 0)
(291.043 -61.6772 -1.15375e-16)
(285.339 -60.8322 1.50914e-16)
(280.886 -59.1326 -1.57621e-16)
(272.595 -57.5423 -1.87528e-16)
(265.877 -55.6326 -1.98948e-16)
(257.657 -54.1239 2.24416e-16)
(251.173 -52.498 -4.77783e-16)
(244.29 -51.2734 -2.61444e-16)
(238.778 -49.9854 2.76846e-16)
(233.261 -49.0047 0)
(228.696 -47.9871 0)
(224.212 -47.1867 0)
(220.354 -46.3754 2.76027e-16)
(216.626 -45.7366 0)
(213.41 -45.1162 0)
(210.427 -44.5691 2.12577e-16)
(207.869 -44.0356 2.0966e-16)
(205.391 -43.5123 0)
(203.15 -43.0193 0)
(200.897 -42.5169 0)
(198.843 -42.084 -4.91309e-16)
(196.776 -41.6026 -2.6037e-16)
(194.931 -41.2518 5.53623e-16)
(193.004 -40.795 0)
(191.345 -40.5026 3.12517e-16)
(189.517 -40.027 3.31164e-16)
(188.033 -39.8145 0)
(186.199 -39.2677 0)
(184.894 -39.1668 0)
(182.881 -38.4426 0)
(181.814 -38.5456 0)
(179.288 -37.4741 0)
(178.614 -38.0098 0)
(175.278 -36.2841 5.0111e-16)
(102.984 18.2888 0)
(120.076 29.3361 1.55761e-15)
(126.402 31.7713 0)
(130.883 34.9377 9.02484e-16)
(134.978 36.8696 -9.60094e-16)
(138.209 38.3994 0)
(140.718 39.6612 -9.71061e-20)
(142.561 40.7179 0)
(143.748 41.4999 6.18125e-20)
(144.386 42.0767 -1.15215e-15)
(144.633 42.4424 -1.17615e-15)
(144.648 42.6843 0)
(144.606 42.829 1.22624e-15)
(144.595 42.9728 0)
(144.716 43.1021 -1.29454e-15)
(144.956 43.301 -1.33818e-15)
(145.399 43.5189 -1.38831e-15)
(145.991 43.826 0)
(146.819 44.1385 0)