/*--------------------------------*- C++ -*----------------------------------*\
| =========                 |                                                 |
| \\      /  F ield         | OpenFOAM: The Open Source CFD Toolbox           |
|  \\    /   O peration     | Version:  2412                                  |
|   \\  /    A nd           | Website:  www.openfoam.com                      |
|    \\/     M anipulation  |                                                 |
\*---------------------------------------------------------------------------*/
FoamFile
{
    version     2.0;
    format      ascii;
    arch        "LSB;label=32;scalar=64";
    class       volScalarField;
    location    "0.9";
    object      epsilon;
}
// * * * * * * * * * * * * * * * * * * * * * * * * * * * * * * * * * * * * * //

dimensions      [0 2 -3 0 0 0 0];

internalField   nonuniform List<scalar> 
13077
(
417.838
470.164
538.908
634.718
771.494
949.682
1151.47
1350.07
1521.65
1656.92
1757.66
1833.67
1896.1
1955.85
2020.69
2095.32
2177.01
2253.9
2303.58
2313.07
2292.1
2269.99
2266.53
2290.93
2337.22
2404.27
2484.45
2583.4
2695.73
2834.85
2993.8
3194.67
3424.19
3717.89
4049.31
4478.71
4954.83
5587.46
6279.24
418.641
472.038
542.23
639.895
778.909
959.424
1163.09
1362.8
1534.75
1670.07
1771.05
1847.94
1912.12
1974.58
2042.95
2121.62
2207.64
2289.34
2344.44
2359.01
2340.95
2318.86
2313.31
2334.81
2378.05
2442.26
2519.71
2616.1
2725.87
2862.61
3019.22
3218.11
3445.88
3738.45
4069.2
4498.91
4976.03
5611.18
6306.51
7273.53
8335.57
9947.29
11829.1
14982.2
18871.2
25544
33670.4
47444.8
62406.8
85363.1
105700
140400
283847
367620
405417
436862
452238
460233
440995
414931
379121
352505
331912
322094
315955
312939
308232
302549
293986
419.466
473.961
545.643
645.22
786.54
969.461
1175.1
1376.01
1548.42
1683.89
1785.23
1863.14
1929.27
1994.67
2066.84
2149.89
2240.55
2327.3
2387.99
2407.86
2392.94
2371.07
2363.47
2381.97
2422
2483.19
2557.72
2651.37
2758.39
2892.57
3046.69
3243.44
3469.31
3760.64
4090.62
4520.59
4998.72
5636.46
6335.47
7308.73
8378.11
10000.2
11891.7
15058
18960.3
25660.8
33843.8
47767.5
63046.7
86633.5
107585
143072
289178
376555
417852
451907
468859
478231
458979
432192
394561
366108
343739
332733
325841
322453
317565
311757
303065
292941
280703
267512
252991
237940
222174
206250
190125
174210
158603
143582
129283
115862
103466
92109.9
81924.2
72769
64755.4
57609.3
51467.8
45922.6
41223.1
36868.6
33279.9
29847.8
27172
24506.7
22594.5
20595.3
19378.7
420.312
475.936
549.152
650.698
794.395
979.806
1187.5
1389.71
1562.69
1698.41
1800.23
1879.31
1947.58
2016.17
2092.44
2180.21
2275.86
2367.91
2434.37
2459.74
2448.23
2426.77
2417.18
2432.61
2469.27
2527.25
2598.66
2689.36
2793.45
2924.88
3076.31
3270.76
3494.57
3784.53
4113.64
4543.83
5022.94
5663.32
6366.15
7345.93
8423.01
10056.1
11958
15138.2
19054.7
25783.9
34023.8
48096.5
63695.9
87928.6
109527
145830
294644
385863
430855
467588
486146
496938
477713
450218
410720
380335
356047
343712
335939
332081
326939
320958
312103
301770
289278
275779
260926
245520
229396
213109
196631
180366
164418
149065
134442
120706
108007
96358.3
85891.8
76470.2
68205.1
60826.2
54470.8
48730.9
43854.5
39334.5
35595.3
32013.9
29209.7
26409.4
24397.8
22277.8
20989.7
421.181
477.964
552.76
656.335
802.483
990.471
1200.31
1403.93
1577.57
1713.67
1816.09
1896.51
1967.11
2039.14
2119.83
2212.67
2313.67
2411.31
2483.74
2514.82
2506.98
2486.17
2474.66
2486.94
2520.07
2574.64
2642.71
2730.27
2831.2
2959.69
3108.23
3300.19
3521.77
3810.21
4138.34
4568.67
5048.75
5691.83
6398.59
7385.14
8470.3
10114.9
12027.8
15223
19154.4
25913.1
34210.6
48431.9
64353.9
89247.3
111526
148677
300250
395561
444444
483921
504106
516357
497199
469016
427614
395208
368861
355053
346263
341830
336356
330148
321094
310530
297770
283953
268765
253000
236520
219873
203045
186435
170154
154473
139533
125489
112492
100556
89814.8
80132.7
71621.9
64016.7
57453.6
51527.3
46482.2
41807.6
37927.6
34209.1
31285
28360.1
26255.2
24022.7
22667.7
422.072
480.047
556.47
662.138
810.815
1001.47
1213.56
1418.68
1593.1
1729.69
1832.86
1914.77
1987.91
2063.64
2149.06
2247.36
2354.1
2457.64
2536.26
2573.28
2569.39
2549.47
2536.13
2545.21
2574.63
2625.59
2690.1
2774.29
2871.84
2997.16
3142.6
3331.87
3551.03
3837.81
4164.81
4595.22
5076.22
5722.04
6432.84
7426.41
8520
10176.8
12101.4
15312.3
19259.7
26048.8
34404.3
48773.8
65020.4
90588.3
113581
151614
305999
405664
458641
500920
522746
536486
517437
488593
445258
410748
382204
366776
356830
351711
345822
339328
330037
319214
306171
292027
276498
260372
243535
226530
209357
192408
175799
159798
144548
130202
116912
104696
93684.1
83746.7
74995
67168.7
60403
54296.8
49090
44270.8
40259.2
36415.7
33380.7
30342.6
28151.6
25816.2
24399.6
422.988
482.187
560.287
668.114
819.398
1012.82
1227.25
1433.99
1609.32
1746.52
1850.58
1934.15
2010.04
2089.73
2180.22
2284.37
2397.26
2507.06
2592.11
2635.29
2635.66
2616.89
2601.83
2607.66
2633.22
2680.35
2741.06
2821.63
2915.55
3037.49
3179.57
3365.96
3582.48
3867.43
4193.16
4623.55
5105.43
5754.03
6468.96
7469.79
8572.18
10241.6
12178.7
15406.4
19370.6
26191.1
34605.2
49122.3
65695.1
91950.6
115693
154643
311896
416189
473467
518602
542074
557325
538426
508951
463666
426976
396102
378906
367659
361739
355344
348502
338930
327820
314476
299992
284116
267627
250433
233073
215559
198277
181347
165033
149479
134838
121262
108770
97493
87305
78316.5
70273.3
63308.6
57027.7
51664.4
46709.1
42574.1
38617.2
35480.3
32340.9
30071.1
27643.6
26171.4
423.928
484.386
564.214
674.267
828.242
1024.52
1241.42
1449.9
1626.24
1764.19
1869.29
1954.7
2033.56
2117.48
2213.38
2323.8
2443.28
2559.72
2651.47
2701.07
2705.97
2688.64
2672.01
2674.56
2696.09
2739.18
2795.83
2872.54
2962.57
3080.85
3219.34
3402.59
3616.27
3899.2
4223.5
4653.77
5136.46
5787.86
6507.03
7515.33
8626.87
10309.6
12259.8
15505.2
19487.3
26340.2
34813.5
49477.6
66377.9
93333.1
117861
157767
317947
427154
488944
536982
562093
578873
560163
530090
482848
443913
410580
391468
378771
371927
364931
357674
347774
336345
322679
307845
291615
274759
257208
239495
221644
204035
186791
170171
154321
139391
125536
112773
101237
90802.2
81580.5
73323.6
66162.6
59710.5
54194.5
49109.7
44858.1
40798.3
37567.8
34339
31998.1
29489.9
27968
424.895
486.646
568.256
680.606
837.358
1036.6
1256.08
1466.41
1643.9
1782.74
1889.03
1976.46
2058.52
2146.97
2248.63
2365.73
2492.27
2615.76
2714.53
2770.79
2780.56
2764.97
2746.93
2746.19
2763.54
2802.35
2854.68
2927.26
3013.11
3127.48
3262.1
3441.97
3652.55
3933.25
4255.95
4685.98
5169.41
5823.62
6547.1
7563.1
8684.15
10380.7
12344.8
15608.9
19609.8
26496.2
35029.3
49840
67068.6
94734.9
120084
160987
324156
438575
505093
556073
582810
601122
582640
552007
502810
461576
425661
404488
390187
382293
374594
366851
356572
344790
330780
315582
298989
281763
263854
245791
227607
209676
192125
175207
159069
143858
129729
116702
104910
94234.1
84782.4
76314.5
68959.1
62338
56671.5
51461.9
47098.8
42945
39628.6
36321.6
33916.9
31339.4
29773.6
425.889
488.971
572.418
687.137
846.757
1049.07
1271.24
1483.56
1662.34
1802.22
1909.86
1999.51
2084.99
2178.26
2286.05
2410.28
2544.35
2675.35
2781.46
2844.69
2859.63
2846.12
2826.87
2822.84
2835.86
2870.16
2917.89
2986.05
3067.43
3177.59
3308.04
3484.25
3691.48
3969.74
4290.63
4720.28
5204.36
5861.39
6589.26
7613.16
8744.07
10455
12433.7
15717.5
19738.4
26659.3
35253.1
50209.6
67767.1
96154.9
122363
164306
330529
450472
521935
575889
604225
624067
605847
574694
523556
479979
441369
417990
401931
392855
384347
376041
365328
353156
338778
323200
306235
288634
270367
251954
233442
215195
197345
180136
163717
148233
133838
120553
108512
97597.3
87918.9
79242.3
71693.8
64904.8
59088.7
53757.2
49285.9
45045.2
41649
38274.2
35812.2
33176.8
31572.5
426.911
491.362
576.703
693.869
856.448
1061.95
1286.93
1501.38
1681.59
1822.66
1931.83
2023.88
2113.03
2211.42
2325.71
2457.53
2599.66
2738.65
2852.47
2922.97
2943.43
2932.33
2912.09
2904.82
2913.36
2942.93
2985.77
3049.2
3125.78
3231.42
3357.38
3529.65
3733.23
4008.81
4327.68
4756.81
5241.43
5901.25
6633.57
7665.57
8806.68
10532.6
12526.7
15831.2
19873.1
26829.8
35485
50586.9
68473.4
97591.8
124697
167726
337071
462860
539492
596443
626342
647697
629771
598141
545087
499134
457725
432000
414027
403634
394205
385254
374049
361447
346673
330698
313351
295370
276743
257982
239145
220588
202445
184954
168263
152513
137859
124323
112037
100889
90987.5
82104.6
74363.9
67407.4
61441.6
55989.2
51411.4
47088.8
43617.4
40183.6
37670.1
34987.3
33349.4
427.962
493.822
581.116
700.808
866.443
1075.24
1303.18
1519.89
1701.69
1844.1
1954.97
2049.65
2142.72
2246.52
2367.71
2507.59
2658.3
2805.8
2927.75
3005.84
3032.17
3023.87
3002.89
2992.44
2996.38
3020.98
3058.63
3117.01
3188.45
3289.23
3410.37
3578.38
3778
4050.63
4367.24
4795.67
5280.71
5943.3
6680.11
7720.4
8872.04
10613.5
12623.8
15950
20014
27007.8
35725.2
50971.9
69187.5
99044.8
127084
171249
343788
475757
557781
617745
649159
672001
654395
622332
567396
519049
474749
446543
426499
414650
404184
394502
382742
369666
354468
338078
320337
301968
282978
263870
244712
225851
207422
189657
172701
156695
141790
128009
115484
104108
93986.5
84899.4
76967.5
69843.5
63727
58153.4
53469.1
49067.5
45524.1
42038.1
39477.7
36757
35089.5
429.044
496.354
585.664
707.963
876.755
1088.97
1319.99
1539.12
1722.66
1866.6
1979.36
2076.86
2174.1
2283.65
2412.12
2560.54
2720.39
2876.95
3007.49
3093.53
3126.11
3120.99
3099.57
3086.02
3085.26
3104.66
3136.81
3189.81
3255.74
3351.31
3467.24
3630.65
3825.98
4095.38
4409.47
4837.01
5322.32
5987.63
6728.97
7777.72
8940.21
10697.7
12725
16074
20161.3
27193.5
35973.9
51365.1
69909.3
100513
129525
174878
350686
489180
576822
639806
672675
696964
679699
647248
590476
539729
492459
461645
439375
425928
414302
403799
391417
377821
362166
345340
327192
308429
289072
269617
250141
230980
212272
194240
177030
160775
145626
131609
118852
107252
96914.5
87625.8
79503.7
72212
65943.4
60247.3
55455.1
50975.4
47361.1
43828.1
41223.8
38473.5
36779.4
430.157
498.961
590.35
715.342
887.394
1103.16
1337.41
1559.11
1744.56
1890.19
2005.03
2105.58
2207.26
2322.88
2459.03
2616.49
2786.05
2952.27
3091.88
3186.28
3225.48
3223.97
3202.41
3185.9
3180.36
3194.34
3220.66
3267.92
3327.96
3417.93
3528.27
3686.71
3877.39
4143.24
4454.51
4880.96
5366.38
6034.34
6780.23
7837.59
9011.25
10785.4
12830.4
16203.2
20315.1
27386.9
36231.5
51766.6
70638.9
101994
132018
178612
357771
503144
596632
662636
696887
722571
705661
672866
614313
561173
510869
477327
452679
437492
424580
413162
400085
385920
369773
352489
333918
314752
295024
275222
255428
235972
216992
198702
181244
164750
149367
135120
122137
110320
99770.5
90283.1
81972.2
74512.6
68090.4
62269.5
57367
52808.4
49122.7
45545.7
42899.2
40125.6
38406.9
431.304
501.646
595.181
722.954
898.375
1117.81
1355.44
1579.89
1767.42
1914.93
2032.05
2135.88
2242.27
2364.28
2508.53
2675.54
2855.41
3031.9
3181.12
3284.29
3330.53
3333.06
3311.73
3292.42
3282.04
3290.38
3310.56
3351.72
3405.46
3489.42
3593.74
3746.81
3932.44
4194.41
4502.56
4927.67
5413.02
6083.55
6833.97
7900.1
9085.22
10876.6
12940.1
16337.8
20475.4
27588.3
36498.1
52176.9
71376.3
103488
134562
182456
365048
517667
617228
686240
721790
748805
732255
699160
638889
583377
529989
493612
466438
449366
435041
422607
408760
393974
377296
359529
340519
320939
300835
280683
260574
240827
221580
203039
185343
168617
153009
138540
125339
113310
102554
92870.9
84373.1
76745.6
70168.4
64220
59204.1
54564.2
50805.1
47185.1
44496.3
41704
39961.5
432.485
504.411
600.162
730.809
909.711
1132.96
1374.12
1601.48
1791.28
1940.87
2060.47
2167.81
2279.19
2407.94
2560.71
2737.77
2928.56
3115.98
3275.38
3387.79
3441.51
3448.54
3427.83
3405.93
3390.69
3393.19
3406.9
3441.58
3488.58
3566.11
3663.96
3811.23
3991.39
4249.1
4553.79
4977.3
5462.36
6135.36
6890.29
7965.31
9162.18
10971.3
13054
16477.8
20642.3
27797.7
36774
52596.2
72121.8
104994
137156
186410
372523
532763
638622
710625
747378
775645
759454
726098
664183
606332
549828
510520
480678
461578
445707
432155
417459
401994
384746
366468
346999
326995
306507
286003
265579
245544
226035
207250
189323
172376
156550
141868
128456
116222
105264
95389.2
86706.6
78911.8
72178.4
66099.9
60966.8
56242.1
52406.3
48742.1
46009.6
43201.3
41434.5
433.702
507.261
605.3
738.916
921.415
1148.62
1393.48
1623.93
1816.19
1968.05
2090.35
2201.45
2318.1
2453.93
2615.65
2803.29
3005.62
3204.64
3374.85
3497
3558.65
3570.68
3551.02
3526.78
3506.68
3503.18
3510.09
3537.9
3577.72
3648.36
3739.25
3880.26
4054.5
4307.55
4608.4
5030.03
5514.56
6189.89
6949.29
8033.3
9242.18
11069.6
13172.3
16623.1
20815.9
28015.4
37059.2
53024.9
72875.4
106511
139798
190476
380203
548446
660829
735796
773645
803071
787227
753648
690167
630026
570390
528067
495423
474155
456603
441828
426198
409995
392132
373315
353367
332924
312044
291183
270443
250122
230356
211333
193184
176023
159988
145102
131487
119053
107899
97837.8
88973.4
81012.3
74121.8
67910.7
62656.6
57842.8
53925.8
50214.8
47435.5
44612
42819.2
434.957
510.199
610.6
747.285
933.502
1164.81
1413.53
1647.26
1842.18
1996.53
2121.76
2236.87
2359.07
2502.35
2673.44
2872.2
3086.71
3298.03
3479.7
3612.14
3682.21
3699.75
3681.59
3655.32
3630.41
3620.75
3620.56
3641.11
3673.27
3736.54
3819.95
3954.22
4122.03
4369.99
4666.59
5086.02
5569.76
6247.28
7011.06
8104.16
9325.29
11171.4
13294.9
16773.9
20996.2
28241.2
37354
53463.2
73637.3
108037
142487
194655
388094
564730
683859
761755
800580
831060
815543
781773
716811
654439
591673
546269
510697
487123
467757
451648
434997
417993
399470
380080
359630
338733
317451
296227
275169
254563
234544
215288
196924
179557
163323
148240
134429
121805
110461
100217
91174
83048.1
76000.5
69654.5
64275.7
59368.1
55364.8
51602.7
48772.3
45932.2
44110.4
436.251
513.229
616.07
755.926
945.988
1181.55
1434.31
1671.52
1869.31
2026.36
2154.75
2274.12
2402.19
2553.26
2734.17
2944.58
3171.91
3396.26
3590.09
3733.4
3812.41
3836
3819.85
3791.89
3762.28
3746.35
3738.75
3751.63
3775.66
3831.04
3906.43
4033.43
4194.29
4436.69
4728.6
5145.47
5628.12
6307.64
7075.72
8177.96
9411.57
11276.9
13421.9
16930.1
21183.3
28475.5
37658.6
53911.4
74407.8
109572
145222
198950
396201
581628
707720
788503
828175
859591
844367
810433
744081
679549
613674
565135
526524
500510
479195
461641
443879
426008
406773
386776
365799
344431
322734
301142
279761
258870
238599
219117
200543
182979
166552
151282
137284
124475
112948
102526
93308.8
85020.4
77816.2
71333.6
65826.9
60820.4
56725.4
52906.8
50019.7
47160.2
45305.3
437.586
516.353
621.716
764.852
958.887
1198.86
1455.85
1696.74
1897.61
2057.6
2189.39
2313.29
2447.53
2606.77
2797.93
3020.53
3261.33
3499.44
3706.17
3860.99
3949.49
3979.68
3966.09
3936.84
3902.69
3880.4
3865.11
3869.93
3885.32
3932.29
3999.08
4118.25
4271.58
4507.92
4794.66
5208.59
5689.81
6371.13
7143.38
8254.79
9501.07
11386.1
13553.4
17091.8
21377.2
28718.1
37973.1
54369.9
75187
111115
148000
203360
404531
599150
732420
816039
856419
888638
873665
839588
771938
705328
636383
584675
542923
514344
490947
471835
452867
434059
414061
393419
371886
350028
327903
305932
284224
263046
242525
222819
204042
186287
169676
154226
140049
127064
115359
104766
95378.6
86930.3
79570.7
72950.5
67313.1
62203
58010.6
54129.3
51179.3
48295.7
46402.4
438.964
519.578
627.546
774.073
972.218
1216.77
1478.18
1722.96
1927.15
2090.3
2225.75
2354.45
2495.17
2662.94
2864.8
3100.13
3355.06
3607.7
3828.08
3995.09
4093.65
4131.05
4120.59
4090.51
4052.01
4023.34
4000.11
3996.47
4002.72
4040.72
4098.31
4209.05
4354.24
4583.97
4865.02
5275.59
5755.02
6437.89
7214.16
8334.74
9593.86
11499
13689.2
17259
21577.8
28969.1
38297.5
54838.9
75975.4
112666
150819
207886
413090
617306
757962
844360
885299
918176
903400
869192
800341
731745
659785
604891
559914
528650
503041
482258
461988
442171
421352
400026
377907
355538
332969
310608
288565
267096
246325
226397
207422
189482
172695
157073
142725
129570
117696
106937
97383.7
88779
81265.7
74507.5
68737.5
63519.3
59224.1
55273.4
52253.7
49339.9
47402.2
440.387
522.906
633.567
783.601
985.996
1235.3
1501.33
1750.22
1957.97
2124.54
2263.89
2397.68
2545.2
2721.87
2934.88
3183.49
3453.2
3721.12
3955.95
4135.86
4245.11
4290.33
4283.61
4253.21
4210.65
4175.6
4144.21
4131.75
4128.34
4156.81
4204.54
4306.22
4442.63
4665.16
4939.95
5346.7
5823.93
6508.08
7288.18
8417.91
9690.01
11615.7
13829.6
17431.7
21785.3
29228.6
38632.1
55318.6
76773.1
114223
153679
212531
421885
636105
784348
873460
914803
948182
933534
899202
829245
758763
683861
625782
577510
543454
515506
492938
471269
450368
428670
406616
383879
360974
337942
315180
292793
271028
250003
229855
210684
192566
175609
159823
145311
131994
119957
109038
99324.7
90567.3
82902.7
76007
70102.9
64773
60370
56343.1
53246.4
50295.5
48306.4
441.856
526.343
639.787
793.449
1000.24
1254.48
1525.32
1778.57
1990.11
2160.36
2303.89
2443.04
2597.68
2783.64
3008.25
3270.68
3555.82
3839.8
4089.89
4283.45
4404.06
4457.74
4455.41
4425.25
4378.95
4337.62
4297.89
4276.25
4262.68
4281.03
4318.24
4410.2
4537.12
4751.82
5019.74
5422.16
5896.75
6581.87
7365.57
8504.39
9789.57
11736.1
13974.3
17609.8
21999.5
29496.5
38976.7
55809.4
77580.5
115786
156577
217293
430921
655554
811576
903333
944917
978629
964031
929571
858603
786342
708588
647344
595726
558780
528372
503908
480739
458677
436038
413212
389821
366354
342839
319660
296918
274849
253567
233198
213834
195540
178419
162476
147807
134336
122142
111070
101202
92296.1
84483.3
77451.1
71412.5
65967.9
61452.5
57342.9
54162.1
51166.2
49118.4
443.375
529.894
646.216
803.631
1014.97
1274.32
1550.2
1808.04
2023.64
2197.82
2345.81
2490.63
2652.72
2848.34
3085
3361.78
3663.02
3963.82
4230
4437.99
4570.65
4633.48
4636.22
4606.91
4557.28
4509.82
4461.62
4430.48
4406.24
4413.89
4439.88
4521.41
4638.11
4844.3
5104.69
5502.25
5973.7
6659.44
7446.47
8594.29
9892.62
11860.4
14123.5
17793.3
22220.4
29772.7
39331.4
56311.3
78397.9
117356
159511
222174
440206
675659
839643
933969
975624
1.00949e+06
994853
960251
888366
814439
733938
669568
614569
574649
541669
515199
490431
467128
443485
419837
395754
371696
347675
324062
300951
278570
257025
236431
216873
198407
181128
165032
150214
136596
124253
113033
103016
93966.3
86008.8
78841.9
72669
67107.4
62476.1
58277.5
55005.8
51956.8
49842.5
444.945
533.562
652.861
814.16
1030.2
1294.86
1576.01
1838.68
2058.61
2237.01
2389.72
2540.51
2710.39
2916.06
3165.22
3456.89
3774.86
4093.25
4376.37
4599.61
4745.04
4817.71
4826.24
4798.45
4745.97
4692.59
4635.86
4594.95
4559.55
4555.91
4569.97
4640.34
4746.03
4942.98
5195.14
5587.22
6055.01
6740.97
7531.03
8687.71
9999.23
11988.5
14277.1
17982.1
22448
30057.2
39696.3
56824.6
79225.6
118931
162479
227174
449744
696422
868540
965356
1.00691e+06
1.04074e+06
1.02596e+06
991196
918482
843006
759878
692438
634045
591081
555425
526842
500376
475753
451037
426519
401702
377023
352470
328402
304907
282201
260384
239562
219809
201172
183737
167496
152534
138775
126289
114928
104767
95578.6
87480.2
80181
73874.9
68195
63445
59151.9
55782.8
52672.5
50483.8
446.569
537.355
659.732
825.051
1045.96
1316.13
1602.77
1870.55
2095.07
2277.97
2435.71
2592.78
2770.78
2986.89
3248.98
3556.08
3891.41
4228.15
4529.05
4768.39
4927.36
5010.61
5025.65
5000.1
4945.32
4886.32
4821.06
4770.15
4723.14
4707.62
4709.02
4767.46
4861.31
5048.26
5291.41
5677.39
6140.91
6826.66
7619.41
8784.77
10109.5
12120.4
14435.2
18176.2
22682.2
30349.8
40071.1
57349.3
80063.9
120512
165479
232293
459542
717846
898259
997480
1.03876e+06
1.07236e+06
1.05732e+06
1.02236e+06
948900
871994
786371
715935
654155
608093
569666
538871
510607
484583
458728
433285
407691
382357
357245
332700
308801
285756
263657
242599
222648
203840
186251
169867
154767
140873
128251
116755
106457
97133.9
88898.9
81470.2
75032.5
69233.9
64363.2
59971.1
56498.9
53319.2
51048.4
448.249
541.276
666.839
836.319
1062.27
1338.15
1630.53
1903.68
2133.09
2320.78
2483.85
2647.51
2833.98
3060.9
3336.39
3659.42
4012.74
4368.57
4688.11
4944.4
5117.7
5212.28
5234.62
5212.06
5155.59
5091.36
5017.65
4956.57
4897.53
4869.56
4857.56
4903.28
4984.43
5160.55
5393.88
5773.06
6231.68
6916.73
7711.77
8885.59
10223.4
12256.3
14597.6
18375.6
22922.7
30650.5
40455.9
57885.5
80913.1
122097
168510
237530
469607
739930
928784
1.03032e+06
1.07114e+06
1.10432e+06
1.0889e+06
1.05369e+06
979566
901353
813377
740037
674895
625697
584418
551317
521161
493653
466589
440167
413751
387725
362023
336976
312653
289251
266856
245553
225397
206416
188674
172151
156917
142893
130140
118515
108085
98632.9
90265.8
82711
76144
70227
65234.6
60739.6
57159.6
53902.9
51542.7
449.988
545.334
674.193
847.981
1079.14
1360.96
1659.32
1938.12
2172.72
2365.51
2534.22
2704.79
2900.07
3138.2
3427.51
3767
4138.91
4514.57
4853.58
5127.7
5316.14
5422.84
5453.27
5434.5
5377.02
5308.03
5226.05
5154.69
5083.26
5042.29
5016.15
5048.35
5115.87
5280.3
5502.93
5874.55
6327.58
7011.4
7808.28
8990.29
10341.1
12396
14764.4
18580.1
23169.6
30958.9
40850.5
58433.2
81773.4
123689
171568
242884
479945
762672
960101
1.06387e+06
1.10406e+06
1.13659e+06
1.12065e+06
1.08515e+06
1.01043e+06
931027
840851
764715
696258
643906
599705
564212
532071
503000
474656
447199
419912
393156
366830
341253
316480
292702
269995
248435
228067
208908
191012
174350
158986
144837
131958
120210
109652
100077
91582
83904.7
77211.3
71177
66062.8
61462.2
57770.4
54429.9
51973.5
451.79
549.533
681.803
860.052
1096.61
1384.58
1689.19
1973.93
2214.02
2412.23
2586.9
2764.7
2969.15
3218.87
3522.44
3878.87
4269.97
4666.17
5025.48
5318.31
5522.73
5642.35
5681.68
5667.55
5609.8
5536.6
5446.61
5364.97
5280.83
5226.36
5185.35
5203.2
5256.16
5407.97
5618.98
5982.23
6428.91
7110.91
7909.12
9099
10462.6
12539.7
14935.5
18789.6
23422.7
31275
41254.5
58992.3
82645.1
125285
174654
248356
490561
786068
992187
1.09809e+06
1.13747e+06
1.16915e+06
1.15255e+06
1.11668e+06
1.04143e+06
960962
868747
789937
718232
662724
615549
577586
543374
512661
482966
454414
426207
398679
371693
345555
320307
296130
273092
251259
230669
211325
193271
176471
160978
146707
133707
121840
111161
101466
92848.7
85052.9
78236.2
72086.3
66851
62143
58336.5
54906.4
52347.7
453.656
553.88
689.682
872.552
1114.7
1409.05
1720.17
2011.16
2257.07
2461.02
2641.96
2827.34
3041.3
3302.99
3621.25
3995.11
4405.96
4823.39
5203.82
5516.24
5737.5
5870.86
5919.93
5911.29
5854.09
5777.32
5679.67
5587.83
5490.76
5422.32
5365.73
5368.4
5405.81
5544.06
5742.44
6096.46
6535.97
7215.5
8014.5
9211.87
10588.1
12687.3
15111
19004.1
23681.8
31598.5
41667.9
59562.7
83528.2
126888
177763
253943
501461
810112
1.02502e+06
1.13297e+06
1.17137e+06
1.20198e+06
1.18456e+06
1.14826e+06
1.07252e+06
991104
897016
815668
740800
682155
631968
591469
555104
522673
491556
461852
432672
404328
376643
349911
324156
299554
276163
254041
233214
213676
195459
178519
162898
148507
135390
123408
112612
102803
94067.2
86156.7
79220.4
72957.1
67602.2
62786
58863.1
55338.3
52672.3
455.591
558.382
697.841
885.498
1133.43
1434.41
1752.32
2049.87
2301.92
2511.94
2699.5
2892.79
3116.62
3390.66
3724.02
4115.79
4546.94
4986.26
5388.6
5721.47
5960.44
6108.37
6168.03
6165.78
6109.98
6030.36
5925.52
5823.66
5713.51
5630.71
5557.87
5544.53
5565.4
5689.06
5873.77
6217.64
6649.09
7325.45
8124.61
9329.04
10717.6
12838.9
15290.7
19223.4
23946.7
31929
42090.2
60144.1
84422.9
128496
180896
259646
512652
834794
1.05858e+06
1.16847e+06
1.20573e+06
1.23506e+06
1.21665e+06
1.17982e+06
1.10365e+06
1.0214e+06
925607
841867
763942
702197
648978
605888
567296
533075
500467
469550
439343
410138
381712
354350
328056
302999
279229
256797
235716
215973
197586
180501
164750
150242
137009
124917
114008
104089
95238.9
87217.9
80165.6
73791.7
68319.2
63394.9
59354.7
55731.5
52954
457.598
563.048
706.294
898.91
1152.83
1460.69
1785.68
2090.11
2348.64
2565.08
2759.6
2961.14
3195.19
3481.96
3830.83
4240.96
4692.94
5154.79
5579.79
5933.98
6191.52
6354.87
6425.97
6431.03
6377.52
6295.85
6184.38
6072.79
5949.52
5852.04
5762.32
5732.17
5735.48
5843.52
6013.45
6346.17
6768.62
7441.04
8239.68
9450.67
10851.2
12994.5
15474.6
19447.3
24217.1
32266.3
42521.1
60736.2
85329.2
130110
184050
265461
524138
860105
1.09282e+06
1.20457e+06
1.24052e+06
1.26835e+06
1.24879e+06
1.21134e+06
1.13477e+06
1.05178e+06
954466
868494
787634
722845
666591
620869
579986
543906
509738
477549
446260
416147
386936
358903
332033
306490
282313
259545
238192
218229
199661
182425
166543
151915
138569
126368
115351
105325
96365.5
88237.9
81073.5
74592.1
69004.5
63973
59815.7
56091.3
53199.2
459.681
567.884
715.053
912.808
1172.94
1487.92
1820.3
2131.93
2397.3
2620.52
2822.34
3032.48
3277.1
3576.97
3941.75
4370.69
4844
5328.97
5777.37
6153.72
6430.68
6610.3
6693.71
6706.99
6656.73
6573.87
6456.43
6335.52
6199.19
6086.81
5979.65
5931.91
5916.64
6007.99
6161.98
6482.49
6894.91
7562.55
8359.93
9576.92
10989.1
13154.2
15662.6
19675.7
24493
32610
42960.2
61338.6
86247
131731
187224
271388
535926
886032
1.12773e+06
1.24124e+06
1.27572e+06
1.30184e+06
1.28096e+06
1.24278e+06
1.16583e+06
1.08221e+06
983540
895503
811847
744090
684817
636435
593205
555205
519411
485890
453464
422392
392350
363605
336120
310054
285438
262308
240660
220458
201696
184301
168281
153533
140074
127767
116643
106515
97449
89218.5
81945.9
75360.2
69660.7
64523.5
60250.1
56422.8
53414.3
461.843
572.9
724.132
927.215
1193.77
1516.15
1856.22
2175.41
2447.98
2678.33
2887.81
3106.91
3362.45
3675.78
4056.86
4505.02
5000.14
5508.8
5981.3
6380.61
6677.86
6874.59
6971.18
6993.61
6947.55
6864.43
6741.78
6612.06
6462.87
6335.47
6210.39
6144.33
6109.46
6183.03
6319.86
6627.05
7028.36
7690.32
8485.6
9707.97
11131.2
13317.8
15854.7
19908.5
24773.9
32959.6
43406.9
61950.9
87176
133359
190415
277423
548021
912559
1.16325e+06
1.27843e+06
1.31131e+06
1.33551e+06
1.31312e+06
1.2741e+06
1.19678e+06
1.11263e+06
1.01277e+06
922847
836550
765918
703661
652607
606985
567009
529527
494616
460997
428916
397994
368491
340348
313722
288629
265106
243137
222676
203705
186139
169976
155103
141529
129116
117888
107660
98491.7
90161.9
82784.8
76098.2
70290.1
65049.4
60661.6
56730.8
53605
464.089
578.104
733.547
942.154
1215.36
1545.42
1893.49
2220.6
2500.73
2738.6
2956.11
3184.5
3451.33
3778.48
4176.23
4644.01
5161.38
5694.27
6191.53
6614.58
6932.94
7147.64
7258.25
7290.76
7249.88
7167.49
7040.48
6902.58
6740.84
6598.44
6455.06
6370.01
6314.56
6369.22
6487.64
6780.33
7169.36
7824.66
8616.96
9844
11277.8
13485.5
16050.9
20145.4
25059.6
33314.8
43860.8
62572.4
88116
134994
193623
283566
560428
939671
1.19937e+06
1.31611e+06
1.34725e+06
1.36933e+06
1.34525e+06
1.30527e+06
1.22758e+06
1.14298e+06
1.04212e+06
950478
861707
788312
723124
669403
621356
579356
540129
503772
468902
435759
403907
373600
344753
317523
291916
267965
245644
224900
205701
187951
171635
156632
142941
130422
119091
108764
99496.3
91070.2
83592.4
76808.2
70894.9
65553.3
61053.6
57019.6
53776.8
466.422
583.505
743.314
957.647
1237.75
1575.77
1932.18
2267.57
2555.65
2801.41
3027.31
3265.37
3543.82
3885.14
4299.92
4787.7
5327.74
5885.36
6408
6855.53
7195.82
7429.3
7554.79
7598.29
7563.59
7482.94
7352.49
7207.17
7033.33
6876.05
6714.11
6609.5
6532.5
6567.15
6665.86
6942.83
7318.33
7965.93
8754.27
9985.2
11428.9
13657.4
16251
20386.4
25349.8
33675
44321.2
63202.5
89066.6
136636
196847
289813
573152
967348
1.23602e+06
1.35425e+06
1.38352e+06
1.40329e+06
1.37734e+06
1.33627e+06
1.25819e+06
1.17323e+06
1.07151e+06
978347
887282
811251
743204
686836
636346
592282
551257
513400
477224
442967
410132
378970
349372
321492
295328
270911
248205
227150
207701
189750
173269
158128
144317
131689
120254
109831
100466
91946.3
84370.9
77492.4
71477.6
66038
61429.2
57293.2
53934.5
468.849
589.113
753.448
973.721
1260.97
1607.25
1972.34
2316.37
2612.81
2866.85
3101.52
3349.6
3640.02
3995.86
4428.01
4936.14
5499.24
6082.05
6630.63
7103.35
7466.35
7719.42
7860.62
7916.02
7888.49
7810.62
7677.73
7525.83
7340.48
7168.61
6987.97
6863.32
6763.89
6777.43
6855.11
7115.05
7475.72
8114.49
8897.82
10131.8
11584.6
13833.3
16455
20631.2
25644.2
34039.8
44787.4
63840.3
90027.2
138286
200084
296162
586198
995571
1.27318e+06
1.3928e+06
1.42009e+06
1.43736e+06
1.40936e+06
1.36705e+06
1.28857e+06
1.20331e+06
1.10091e+06
1.0064e+06
913236
834713
763898
704918
651978
605822
562952
523544
486008
450584
416712
384644
354242
325663
298896
273971
250843
229446
209722
191551
174891
159602
145663
132924
121385
110865
101404
92793.1
85123.1
78153.5
72040.7
66506.2
61791.7
57555.5
54082.9
471.374
594.94
763.968
990.402
1285.05
1639.9
2014.02
2367.09
2672.28
2935
3178.83
3437.28
3740.01
4110.7
4560.55
5089.37
5675.89
6284.31
6859.36
7357.91
7744.37
8017.83
8175.55
8243.72
8224.34
8150.31
8016.03
7858.5
7662.37
7476.32
7277.01
7131.95
7009.29
7000.65
7055.94
7297.54
7641.98
8270.72
9047.9
10284
11745.2
14013.4
16662.8
20879.5
25942.5
34408.6
45258.8
64485.1
90997.1
139944
203335
302610
599570
1.02432e+06
1.31078e+06
1.43171e+06
1.45693e+06
1.47151e+06
1.44128e+06
1.39761e+06
1.31869e+06
1.23318e+06
1.13026e+06
1.0346e+06
939528
858670
785195
723658
668277
620007
575254
534248
495300
458655
423691
390663
359403
330074
302654
277174
253585
231811
211782
193369
176513
161065
146990
134134
122488
111871
102315
93614.1
85852.1
78794.1
72586.7
66960.6
62143.9
57809.9
54226.1
474.002
600.996
774.892
1007.72
1310.04
1673.77
2057.28
2419.79
2734.14
3005.96
3259.32
3528.52
3843.9
4229.75
4697.61
5247.43
5857.69
6492.09
7094.1
7619.1
8029.73
8324.32
8499.34
8581.15
8570.87
8501.74
8367.16
8205.04
7998.96
7799.32
7581.51
7415.83
7269.23
7237.4
7268.97
7490.83
7817.6
8435.02
9204.84
10442
11910.7
14197.7
16874.4
21131.3
26244.2
34780.9
45734.5
65135.7
91975.4
141609
206596
309153
613274
1.05356e+06
1.3488e+06
1.47094e+06
1.494e+06
1.50574e+06
1.4731e+06
1.42791e+06
1.3485e+06
1.26281e+06
1.15951e+06
1.06289e+06
966116
883094
807083
743059
685261
634870
588201
545556
505144
467226
431115
397071
364898
334762
306636
280553
256457
234267
213903
195221
178149
162527
148307
135327
123571
112854
103203
94413.3
86561.2
79417.2
73118.5
67403.9
62488.6
58059.6
54368.1
476.738
607.294
786.239
1025.7
1335.97
1708.91
2102.19
2474.55
2798.48
3079.81
3343.1
3623.4
3951.76
4353.09
4839.25
5410.35