/*--------------------------------*- C++ -*----------------------------------*\
| =========                 |                                                 |
| \\      /  F ield         | OpenFOAM: The Open Source CFD Toolbox           |
|  \\    /   O peration     | Version:  2412                                  |
|   \\  /    A nd           | Website:  www.openfoam.com                      |
|    \\/     M anipulation  |                                                 |
\*---------------------------------------------------------------------------*/
FoamFile
{
    version     2.0;
    format      ascii;
    arch        "LSB;label=32;scalar=64";
    class       volScalarField;
    location    "0.9";
    object      k;
}
// * * * * * * * * * * * * * * * * * * * * * * * * * * * * * * * * * * * * * //

dimensions      [0 2 -2 0 0 0 0];

internalField   nonuniform List<scalar> 
13077
(
40.1653
43.6342
47.9814
53.5447
60.5066
68.1792
75.2657
80.6095
83.636
84.5042
83.7396
82.0115
79.8993
77.8807
76.3166
75.5042
75.5992
76.528
77.8917
79.2963
80.6412
82.1418
83.9328
86.0724
88.4619
91.1224
93.9669
97.1262
100.501
104.325
108.419
113.15
118.175
124.083
130.256
137.673
145.258
154.679
164.146
40.2152
43.7456
48.1632
53.7974
60.8211
68.5338
75.6278
80.9498
83.9372
84.7659
83.9732
82.2336
80.1243
78.1156
76.5575
75.7356
75.8005
76.6897
78.0241
79.4123
80.7377
82.2065
83.9599
86.0647
88.4268
91.0655
93.8928
97.0363
100.398
104.207
108.289
113.006
118.019
123.914
130.076
137.479
145.053
154.458
163.912
176.314
188.863
206.757
225.578
253.592
282.569
323.563
362.262
415.977
463.379
536.366
607.405
735.48
1132.26
1199.03
1081.35
981.831
902.566
830.272
755.279
687.583
626.818
580.977
546.406
521.816
501.359
483.016
464.001
444.856
424.797
40.2662
43.8595
48.349
54.0555
61.1421
68.8959
75.9984
81.2997
84.2494
85.0401
84.2211
82.472
80.3679
78.372
76.823
75.9944
76.0305
76.8786
78.1796
79.5473
80.8506
82.2855
83.9989
86.0664
88.3988
91.0137
93.8224
96.9489
100.296
104.09
108.158
112.861
117.863
123.744
129.895
137.285
144.848
154.237
163.677
176.054
188.574
206.4
225.125
252.954
281.721
322.397
360.897
414.432
462.127
535.58
607.088
736.482
1137.05
1205.89
1089.26
990.625
911.98
840.216
765.059
696.769
634.851
587.901
552.409
527.368
506.837
488.654
469.902
450.981
431.09
411.304
391.312
371.794
352.38
333.473
314.771
296.54
278.616
261.225
244.379
228.266
212.988
198.678
185.493
173.461
162.737
153.209
144.999
137.848
131.87
126.652
122.405
118.61
115.684
112.995
111.193
109.529
108.75
108.354
108.513
40.3184
43.976
48.5389
54.319
61.4697
69.2657
76.3776
81.6596
84.5729
85.3271
84.4835
82.7269
80.6304
78.6502
77.1136
76.2814
76.2903
77.0962
78.3598
79.7028
80.9811
82.3798
84.0507
86.0782
88.3784
90.9675
93.7559
96.864
100.195
103.974
108.028
112.716
117.705
123.572
129.712
137.088
144.641
154.014
163.442
175.794
188.287
206.045
224.676
252.318
280.873
321.225
359.517
412.857
460.83
534.745
606.737
737.431
1141.74
1212.8
1097.32
999.574
921.558
850.354
775.08
706.225
643.15
595.041
558.541
532.956
512.27
494.191
475.667
456.952
437.224
417.511
397.524
377.941
358.429
339.386
320.534
302.132
284.025
266.433
249.371
233.021
217.487
202.901
189.422
177.085
166.049
156.214
147.711
140.294
134.088
128.686
124.298
120.405
117.412
114.677
112.854
111.162
110.395
109.944
110.122
40.3719
44.0951
48.733
54.5881
61.804
69.6433
76.7658
82.0296
84.908
85.6274
84.7609
82.9989
80.9125
78.9508
77.4298
76.5972
76.5811
77.3439
78.5665
79.8805
81.1305
82.4906
84.1164
86.101
88.3663
90.9272
93.6936
96.782
100.097
103.858
107.898
112.57
117.547
123.399
129.528
136.89
144.433
153.79
163.206
175.534
188
205.692
224.228
251.683
280.024
320.047
358.124
411.251
459.488
533.856
606.349
738.326
1146.33
1219.77
1105.53
1008.67
931.29
860.672
785.329
715.945
651.715
602.404
564.813
538.591
517.665
499.629
481.294
462.765
443.193
423.555
403.579
383.937
364.335
345.166
326.172
307.61
289.332
271.554
254.289
237.717
221.942
207.095
193.337
180.707
169.37
159.234
150.439
142.753
136.309
130.714
126.175
122.175
119.111
116.331
114.487
112.776
112.025
111.534
111.741
40.4267
44.217
48.9314
54.863
62.1453
70.0288
77.1631
82.4101
85.2551
85.9412
85.0538
83.2884
81.2146
79.2744
77.7724
76.9429
76.9041
77.6236
78.8016
80.0823
81.3006
82.6194
84.1972
86.1359
88.3634
90.8938
93.6361
96.7032
99.9999
103.744
107.768
112.424
117.387
123.225
129.342
136.69
144.223
153.564
162.969
175.273
187.714
205.339
223.783
251.051
279.176
318.865
356.718
409.614
458.101
532.913
605.922
739.165
1150.82
1226.79
1113.89
1017.92
941.169
871.159
795.797
725.923
660.548
609.999
571.237
544.287
523.033
504.976
486.787
468.422
448.995
429.43
409.469
389.775
370.09
350.803
331.677
312.965
294.529
276.575
259.122
242.343
226.342
211.249
197.227
184.317
172.689
162.259
153.175
145.218
138.53
132.731
128.03
123.915
120.77
117.943
116.078
114.355
113.624
113.106
113.35
40.4829
44.3416
49.1342
55.1438
62.4936
70.4226
77.5698
82.8014
85.6145
86.2692
85.3627
83.5961
81.5374
79.6216
78.1421
77.3193
77.2605
77.9367
79.0672
80.31
81.493
82.7676
84.2947
86.1842
88.3707
90.8678
93.5839
96.628
99.9054
103.63
107.639
112.277
117.227
123.049
129.155
136.488
144.011
153.336
162.73
175.012
187.429
204.988
223.341
250.42
278.329
317.678
355.3
407.949
456.668
531.913
605.454
739.946
1155.19
1233.87
1122.41
1027.32
951.188
881.803
806.47
736.149
669.65
617.835
577.827
550.057
528.385
510.239
492.15
473.923
454.63
435.133
415.189
395.449
375.688
356.291
337.043
318.189
299.606
281.49
263.862
246.89
230.678
215.354
201.082
187.905
175.998
165.282
155.913
147.685
140.747
134.735
129.86
125.619
122.384
119.507
117.616
115.886
115.175
114.644
114.929
40.5404
44.4692
49.3416
55.4306
62.8491
70.8247
77.986
83.2037
85.9867
86.6117
85.688
83.9224
81.8813
79.993
78.5394
77.7272
77.6514
78.2851
79.3652
80.5658
81.7096
82.9371
84.4101
86.2471
88.3893
90.8502
93.5378
96.557
99.8136
103.518
107.509
112.13
117.066
122.872
128.966
136.284
143.797
153.106
162.491
174.749
187.143
204.638
222.9
249.791
277.483
316.489
353.872
406.258
455.192
530.855
604.945
740.669
1159.45
1241.02
1131.1
1036.86
961.338
892.591
817.337
746.616
679.018
625.918
584.597
555.918
533.736
515.43
497.39
479.272
460.097
440.663
420.737
400.955
381.125
361.625
342.263
323.278
304.558
286.291
268.502
251.351
234.942
219.402
204.894
191.465
179.289
168.297
158.649
150.15
142.959
136.726
131.665
127.285
123.948
121.014
119.091
117.355
116.664
116.13
116.461
40.5994
44.5997
49.5536
55.7236
63.2119
71.2353
78.4121
83.6173
86.3719
86.9692
86.0303
84.2679
82.247
80.3893
78.9652
78.1673
78.0781
78.6703
79.6978
80.8519
81.9525
83.1296
84.5453
86.3261
88.4204
90.842
93.4985
96.4906
99.7249
103.408
107.381
111.983
116.903
122.693
128.775
136.078
143.581
152.875
162.25
174.486
186.859
204.29
222.462
249.165
276.639
315.298
352.436
404.541
453.672
529.739
604.392
741.333
1163.6
1248.24
1139.95
1046.54
971.611
903.51
828.383
757.312
688.65
634.255
591.559
561.884
539.1
520.559
502.515
484.473
465.398
446.02
426.112
406.292
386.398
366.801
347.333
328.227
309.379
290.974
273.036
255.719
239.128
223.386
208.656
194.987
182.556
171.298
161.377
152.611
145.163
138.702
133.443
128.912
125.461
122.459
120.497
118.753
118.079
117.55
117.928
40.6599
44.7334
49.7704
56.0228
63.5823
71.6546
78.8481
84.0425
86.7706
87.342
86.3902
84.6332
82.6351
80.811
79.42
78.6406
78.5415
79.0939
80.067
81.1705
82.2238
83.3471
84.702
86.4228
88.4654
90.8442
93.4667
96.4295
99.6396
103.299
107.253
111.836
116.74
122.512
128.582
135.87
143.364
152.642
162.008
174.222
186.574
203.942
222.027
248.541
275.798
314.106
350.992
402.801
452.11
528.563
603.796
741.938
1167.64
1255.52
1148.96
1056.36
982
914.547
839.594
768.224
698.54
642.849
598.726
567.972
544.492
525.64
507.534
489.533
470.539
451.206
431.314
411.457
391.503
371.817
352.25
333.031
314.066
295.533
277.457
259.988
243.228
227.298
212.361
198.467
185.793
174.279
164.094
155.063
147.359
140.664
135.197
130.502
126.922
123.842
121.828
120.072
119.408
118.89
119.314
40.7219
44.8701
49.9921
56.3285
63.9603
72.0827
79.2944
84.4797
87.1831
87.7308
86.768
85.0188
83.0461
81.2586
79.9045
79.1476
79.0427
79.5574
80.4749
81.5238
82.5257
83.5916
84.8821
86.5389
88.5256
90.8579
93.4434
96.3744
99.5583
103.193
107.127
111.688
116.576
122.33
128.387
135.66
143.144
152.406
161.764
173.957
186.289
203.595
221.594
247.921
274.96
312.914
349.543
401.04
450.508
527.328
603.156
742.483
1171.56
1262.88
1158.15
1066.33
992.495
925.687
850.951
779.338
708.683
651.703
606.107
574.197
549.928
530.687
512.457
494.459
475.521
456.224
436.342
416.451
396.441
376.671
357.011
337.686
318.614
299.963
281.762
264.153
247.238
231.135
216.004
201.898
188.993
177.235
166.794
157.505
149.545
142.611
136.928
132.057
128.333
125.16
123.082
121.306
120.644
120.139
120.605
40.7855
45.0101
50.2187
56.6407
64.3461
72.5199
79.7511
84.9291
87.6099
88.1359
87.1644
85.4253
83.4806
81.7328
80.4191
79.6892
79.5826
80.0623
80.9234
81.9144
82.8605
83.8653
85.0876
86.6761
88.6027
90.8846
93.4296
96.326
99.4816
103.09
107.002
111.541
116.412
122.147
128.191
135.447
142.922
152.168
161.518
173.69
186.004
203.249
221.164
247.304
274.125
311.723
348.09
399.261
448.867
526.034
602.47
742.969
1175.36
1270.3
1167.5
1076.43
1003.09
936.915
862.439
790.638
719.067
660.816
613.714
580.575
555.426
535.715
517.297
499.26
480.353
461.077
441.201
421.274
401.211
381.36
361.614
342.192
323.02
304.261
285.946
268.21
251.153
234.889
219.579
205.274
192.151
180.161
169.473
159.933
151.719
144.544
138.638
133.578
129.696
126.416
124.258
122.452
121.781
121.288
121.79
40.8507
45.1535
50.4505
56.9596
64.7398
72.9662
80.2186
85.391
88.0512
88.5578
87.5798
85.8532
83.9391
82.2341
80.9645
80.2657
80.162
80.6099
81.4145
82.3444
83.2307
84.1705
85.3206
86.8365
88.6983
90.9255
93.4264
96.2852
99.4101
102.99
106.878
111.394
116.247
121.962
127.993
135.233
142.697
151.928
161.27
173.422
185.719
202.904
220.737
246.69
273.295
310.535
346.634
397.465
447.19
524.68
601.738
743.396
1179.04
1277.8
1177.03
1086.66
1013.77
948.217
874.039
802.106
729.683
670.187
621.555
587.12
561.002
540.74
522.068
503.947
485.042
465.77
445.892
425.928
405.812
385.886
366.058
346.544
327.281
308.424
290.005
272.153
254.967
238.556
223.08
208.591
195.263
183.052
172.127
162.343
153.879
146.464
140.327
135.069
131.015
127.611
125.358
123.509
122.816
122.33
122.86
40.9176
45.3003
50.6875
57.2853
65.1415
73.422
80.6969
85.8657
88.5075
88.9969
88.0147
86.303
84.4222
82.763
81.5412
80.8779
80.7818
81.2013
81.9501
82.8162
83.6386
84.5096
85.5834
87.0222
88.8144
90.9822
93.4351
96.253
99.3445
102.894
106.757
111.248
116.081
121.776
127.792
135.015
142.471
151.686
161.021
173.152
185.434
202.56
220.312
246.08
272.469
309.351
345.177
395.656
445.478
523.267
600.959
743.763
1182.61
1285.36
1186.72
1097.02
1024.53
959.576
885.732
813.724
740.517
679.812
629.635
593.847
566.674
545.779
526.783
508.531
489.595
470.311
450.42
430.417
410.248
390.249
370.344
350.744
331.396
312.449
293.936
275.98
258.676
242.132
226.504
211.842
198.322
185.903
174.753
164.732
156.025
148.369
141.999
136.533
132.294
128.751
126.385
124.477
123.747
123.261
123.808
40.9863
45.4506
50.9299
57.618
65.5515
73.8872
81.1863
86.3535
88.9792
89.4536
88.4696
86.7752
84.9303
83.32
82.1496
81.5262
81.4425
81.8378
82.532
83.3321
84.0868
84.885
85.8783
87.2353
88.9527
91.0565
93.4569
96.2304
99.2855
102.801
106.638
111.102
115.915
121.589
127.59
134.796
142.241
151.44
160.769
172.881
185.148
202.216
219.89
245.474
271.648
308.171
343.721
393.835
443.735
521.797
600.134
744.071
1186.05
1293
1196.59
1107.51
1035.36
970.977
897.499
825.47
751.554
689.684
637.96
600.77
572.461
550.851
531.46
513.025
494.024
474.706
454.792
434.743
414.521
394.45
374.471
354.791
335.365
316.335
297.738
279.687
262.278
245.613
229.844
215.024
201.325
188.709
177.345
167.098
158.153
150.26
143.655
137.974
133.538
129.839
127.344
125.36
124.575
124.079
124.63
41.0568
45.6045
51.1778
57.9578
65.9699
74.3622
81.6871
86.8546
89.4665
89.9285
88.9451
87.2704
85.4641
83.9056
82.7901
82.2111
82.1447
82.5203
83.1617
83.8944
84.5778
85.2993
86.2079
87.4782
89.1156
91.15
93.4934
96.2185
99.2341
102.714
106.522
110.958
115.749
121.4
127.386
134.573
142.009
151.192
160.516
172.607
184.861
201.872
219.47
244.872
270.834
306.997
342.268
392.006
441.962
520.27
599.262
744.321
1189.37
1300.7
1206.62
1118.12
1046.25
982.407
909.319
837.324
762.776
699.795
646.533
607.899
578.378
555.974
536.114
517.443
498.339
478.966
459.014
438.914
418.635
398.492
378.442
358.684
339.185
320.081
301.407
283.272
265.769
248.994
233.098
218.132
204.267
191.467
179.9
169.437
160.262
152.135
145.295
139.393
134.75
130.882
128.239
126.162
125.304
124.784
125.324
41.1293
45.7622
51.4313
58.3048
66.3968
74.847
82.1994
87.3695
89.97
90.422
89.4416
87.7891
86.0238
84.5202
83.4632
82.9328
82.8889
83.2496
83.8408
84.5051
85.1141
85.7551
86.5748
87.7534
89.3052
91.2648
93.5461
96.2186
99.1911
102.633
106.409
110.815
115.583
121.21
127.18
134.348
141.775
150.941
160.259
172.331
184.574
201.529
219.052
244.273
270.025
305.829
340.818
390.171
440.164
518.688
598.343
744.513
1192.58
1308.47
1216.81
1128.84
1057.19
993.848
921.172
849.264
774.166
710.133
655.353
615.246
584.444
561.167
540.764
521.803
502.555
483.1
463.094
442.935
422.595
402.38
382.259
362.427
342.86
323.686
304.943
286.734
269.146
252.273
236.262
221.163
207.145
194.173
182.414
171.745
162.348
153.994
146.92
140.795
135.936
131.885
129.079
126.889
125.938
125.379
125.891
41.2036
45.9238
51.6906
58.6592
66.8323
75.3418
82.7234
87.8982
90.4898
90.9344
89.9595
88.3317
86.6101
85.1641
84.1691
83.6917
83.6755
84.0264
84.5705
85.1662
85.698
86.2549
86.9814
88.0635
89.524
91.403
93.6169
96.232
99.1577
102.558
106.3
110.674
115.418
121.019
126.973
134.121
141.537
150.687
160
172.053
184.285
201.185
218.637
243.679
269.222
304.668
339.375
388.333
438.343
517.054
597.378
744.647
1195.65
1316.3
1227.16
1139.68
1068.18
1005.29
933.039
861.268
785.702
720.686
664.42
622.82
590.673
566.449
545.429
526.12
506.686
487.121
467.043
446.814
426.408
406.118
385.926
366.022
346.389
327.151
308.346
290.07
272.407
255.448
239.333
224.113
209.953
196.822
184.883
174.019
164.41
155.835
148.53
142.18
137.1
132.854
129.868
127.548
126.484
125.868
126.334
41.28
46.0893
51.9557
59.0212
67.2766
75.8469
83.2595
88.4413
91.0265
91.4663
90.4994
88.8986
87.2233
85.8379
84.9082
84.488
84.5047
84.8512
85.352
85.8797
86.332
86.8013
87.4306
88.4112
89.7745
91.5669
93.7075
96.2605
99.135
102.49
106.195
110.535
115.252
120.827
126.763
133.891
141.297
150.43
159.738
171.772
183.994
200.842
218.224
243.09
268.426
303.516
337.938
386.495
436.502
515.37
596.368
744.726
1198.61
1324.19
1237.66
1150.62
1079.2
1016.71
944.9
873.313
797.365
731.438
673.728
630.627
597.083
571.839
550.129
530.413
510.746
491.043
470.872
450.561
430.081
409.713
389.448
369.473
349.777
330.478
311.616
293.28
275.552
258.516
242.309
226.979
212.69
199.411
187.304
176.256
166.444
157.656
150.125
143.55
138.244
133.794
130.615
128.146
126.949
126.257
126.657
41.3586
46.2588
52.2269
59.3908
67.7299
76.3623
83.8077
88.9988
91.5803
92.0179
91.0616
89.4904
87.8639
86.5417
85.6807
85.3219
85.3765
85.7244
86.1861
86.647
87.0182
87.397
87.9251
88.7992
90.0593
91.7588
93.8202
96.3055
99.1243
102.43
106.096
110.399
115.088
120.635
126.551
133.658
141.053
150.169
159.473
171.488
183.702
200.497
217.812
242.504
267.637
302.374
336.511
384.66
434.645
513.638
595.313
744.75
1201.45
1332.13
1248.31
1161.67
1090.25
1028.1
956.735
885.375
809.131
742.374
683.272
638.671
603.686
577.358
554.884
534.702
514.755
494.88
474.594
454.187
433.624
413.172
392.832
372.784
353.025
333.669
314.755
296.365
278.58
261.475
245.187
229.759
215.352
201.937
189.673
178.452
168.448
159.455
151.704
144.907
139.373
134.71
131.327
128.69
127.342
126.553
126.868
41.4392
46.4326
52.5042
59.7683
68.1923
76.8883
84.3684
89.5711
92.1516
92.5898
91.6467
90.1075
88.5322
87.276
86.4868
86.1933
86.2911
86.646
87.0736
87.4697
87.7587
88.0442
88.4674
89.2302
90.3812
91.9813
93.957
96.3689
99.1271
102.38
106.003
110.266
114.925
120.441
126.338
133.422
140.807
149.905
159.204
171.201
183.408
200.152
217.403
241.922
266.856
301.241
335.094
382.831
432.776
511.863
594.214
744.72
1204.16
1340.12
1259.09
1172.81
1101.31
1039.45
968.525
897.431
820.978
753.473
693.043
646.956
610.496
583.022
559.715
539.006
518.729
498.648
478.222
457.704
437.046
416.505
396.084
375.962
356.14
336.728
317.764
299.327
281.49
264.326
247.965
232.45
217.936
204.397
191.988
180.605
170.419
161.23
153.266
146.25
140.489
135.607
132.009
129.19
127.672
126.766
126.974
41.5222
46.6107
52.7878
60.1537
68.664
77.425
84.9416
90.1585
92.7408
93.1823
92.255
90.7503
89.2285
88.0409
87.3266
87.1024
87.2483
87.6162
88.0147
88.3488
88.5554
88.7455
89.0603
89.7073
90.7431
92.237
94.1203
96.4527
99.1449
102.34
105.916
110.137
114.763
120.247
126.123
133.183
140.556
149.636
158.932
170.911
183.111
199.806
216.994
241.344
266.081
300.119
333.688
381.011
430.898
510.047
593.073
744.638
1206.75
1348.14
1270.01
1184.03
1112.39
1050.75
980.253
909.46
832.882
764.717
703.03
655.482
617.522
588.851
564.643
543.346
522.69
502.366
481.773
461.126
440.361
419.721
399.214
379.014
359.127
339.658
320.647
302.165
284.283
267.068
250.644
235.051
220.44
206.788
194.245
182.711
172.353
162.978
154.81
147.58
141.592
136.489
132.668
129.653
127.948
126.904
126.984
41.6075
46.7933
53.0778
60.5473
69.145
77.9725
85.5277
90.7612
93.3481
93.7958
92.8869
91.4191
89.9533
88.8367
88.2002
88.049
88.2479
88.6347
89.0099
89.2852
89.4098
89.5028
89.7063
90.233
91.1478
92.5289
94.3127
96.5591
99.1793
102.312
105.837
110.012
114.603
120.054
125.906
132.941
140.303
149.364
158.656
170.616
182.812
199.457
216.586
240.77
265.314
299.008
332.296
379.202
429.016
508.196
591.893
744.506
1209.22
1356.2
1281.05
1195.34
1123.46
1061.97
991.9
921.438
844.818
776.083
713.22
664.247
624.775
594.859
569.687
547.745
526.656
506.052
485.264
464.468
443.58
422.832
402.232
381.948
361.993
342.466
323.409
304.885
286.962
269.701
253.221
237.56
222.863
209.108
196.442
184.768
174.249
164.698
156.334
148.896
142.686
137.36
133.309
130.087
128.178
126.977
126.91
41.6952
46.9804
53.3745
60.9492
69.6356
78.531
86.1268
91.3795
93.9739
94.4307
93.5429
92.1144
90.7068
89.6636
89.1076
89.0329
89.2897
89.7013
90.059
90.2797
90.3233
90.3183
90.4079
90.8103
91.5983
92.8598
94.5368
96.6902
99.2324
102.297
105.768
109.893
114.446
119.86
125.688
132.697
140.046
149.087
158.376
170.318
182.509
199.107
216.179
240.199
264.554
297.91
330.919
377.407
427.133
506.313
590.675
744.326
1211.57
1364.28
1292.2
1206.72
1134.54
1073.12
1003.45
933.344
856.762
787.549
723.597
673.245
632.261
601.064
574.869
552.223
530.65
509.727
488.712
467.746
446.72
425.852
405.149
384.775
364.746
345.159
326.053
307.488
289.528
272.227
255.699
239.977
225.203
211.355
198.576
186.773
176.104
166.387
157.835
150.198
143.769
138.221
133.938
130.498
128.374
126.996
126.762
41.7855
47.1722
53.6779
61.3594
70.1359
79.1008
86.7391
92.0136
94.6185
95.0873
94.2233
92.8364
91.4892
90.5217
90.0489
90.054
90.373
90.8153
91.1617
91.3324
91.297
91.1936
91.1671
91.4417
92.0974
93.2326
94.7953
96.8486
99.306
102.297
105.708
109.779
114.291
119.666
125.469
132.45
139.785
148.806
158.092
170.015
182.203
198.755
215.773
239.631
263.802
296.823
329.557
375.629
425.254
504.404
589.423
744.1
1213.8
1372.37
1303.44
1218.17
1145.6
1084.19
1014.89
945.157
868.69
799.091
734.144
682.471
639.985
607.479
580.208
556.803
534.695
513.412
492.138
470.978
449.796
428.795
407.978
387.506
367.396
347.744
328.587
309.981
291.985
274.648
258.077
242.302
227.46
213.529
200.647
188.725
177.915
168.042
159.313
151.483
144.842
139.074
134.558
130.893
128.542
126.971
126.551
41.8784
47.3689
53.9881
61.7783
70.6461
79.6819
87.3648
92.6637
95.2821
95.766
94.9283
93.5855
92.3008
91.4111
91.0238
91.1119
91.4976
91.9762
92.3176
92.4433
92.3316
92.13
91.9862
92.1297
92.6482
93.6504
95.0912
97.0368
99.4023
102.314
105.659
109.673
114.14
119.473
125.248
132.199
139.52
148.521
157.802
169.707
181.893
198.399
215.365
239.066
263.057
295.75
328.212
373.871
423.383
502.473
588.139
743.831
1215.91
1380.47
1314.77
1229.67
1156.64
1095.15
1026.2
956.858
880.578
810.687
744.844
691.914
647.95
614.116
585.724
561.508
538.812
517.128
495.562
474.184
452.826
431.677
410.733
390.153
369.955
350.23
331.018
312.369
294.337
276.967
260.357
244.536
229.633
215.627
202.652
190.62
179.681
169.661
160.764
152.751
145.905
139.922
135.173
131.278
128.691
126.911
126.29
41.974
47.5705
54.3054
62.2059
71.1662
80.2745
88.004
93.3302
95.9652
96.467
95.6585
94.3619
93.1418
92.3318
92.0322
92.2062
92.6626
93.1831
93.5259
93.6123
93.4275
93.1289
92.8667
92.8768
93.2533
94.1161
95.4275
97.2575
99.5237
102.349
105.623
109.574
113.993
119.282
125.026
131.946
139.252
148.23
157.508
169.393
181.579
198.04
214.958
238.504
262.319
294.689
326.885
372.135
421.523
500.527
586.827
743.522
1217.9
1388.57
1326.16
1241.21
1167.66
1106.02
1037.37
968.426
892.403
822.31
755.676
701.564
656.155
620.985
591.433
566.359
543.026
520.9
499.007
477.385
455.828
434.515
413.43
392.73
372.433
352.628
333.354
314.658
296.59
279.186
262.542
246.679
231.723
217.65
204.59
192.458
181.398
171.243
162.187
154.001
146.957
140.763
135.785
131.658
128.828
126.827
125.988
42.0724
47.7773
54.6299
62.6423
71.6965
80.8788
88.6571
94.0133
96.6679
97.1908
96.414
95.1659
94.0123
93.2838
93.074
93.3365
93.8674
94.4351
94.7856
94.8386
94.5847
94.1908
93.8103
93.685
93.9153
94.6327
95.8071
97.5136
99.6725
102.405
105.602
109.485
113.852
119.092
124.803
131.69
138.979
147.934
157.209
169.075
181.259
197.677
214.548
237.944
261.587
293.642
325.577
370.424
419.679
498.571
585.49
743.175
1219.78
1396.65
1337.62
1252.8
1178.65
1116.77
1048.39
979.844
904.142
833.937
766.618
711.407
664.597
628.095
597.353
571.377
547.36
524.751
502.495
480.602
458.824
437.328
416.087
395.253
374.844
354.95
335.606
316.857
298.749
281.312
264.635
248.735
233.73
219.597
206.461
194.238
183.067
172.785
163.581
155.229
147.997
141.6
136.396
132.037
128.961
126.728
125.658
42.1737
47.9894
54.9617
63.0879
72.2371
81.4949
89.3241
94.7131
97.3905
97.9375
97.1951
95.9977
94.9123
94.2671
94.1488
94.5022
95.1112
95.7311
96.0957
96.1214
95.803
95.3163
94.8179
94.556
94.6367
95.2032
96.233
97.8081
99.8515
102.483
105.596
109.406
113.716
118.905
124.58
131.431
138.702
147.633
156.903
168.75
180.935
197.31
214.137
237.385
260.863
292.608
324.288
368.74
417.855
496.611
584.134
742.794
1221.55
1404.7
1349.11
1264.4
1189.6
1127.41
1059.24
991.096
915.772
845.544
777.649
721.427
673.273
635.451
603.498
576.583
551.836
528.704
506.05
483.857
461.835
440.136
418.721
397.738
377.204
357.208
337.785
318.976
300.822
283.35
266.64
250.706
235.657
221.471
208.264
195.958
184.685
174.286
164.943
156.436
149.025
142.432
137.008
132.419
129.095
126.622
125.31
42.2781
48.2069
55.301
63.5426
72.7882
82.123
90.0053
95.4298
98.1333
98.7074
98.002
96.8575
95.8421
95.2815
95.2564
95.7028
96.393
97.0699
97.4547
97.4596
97.0817
96.5053
95.8904
95.4914
95.4198
95.8301
96.7084
98.1438
100.063
102.586
105.609
109.34
113.587
118.72
124.357
131.17
138.422
147.327
156.592
168.418
180.604
196.937
213.724
236.827
260.144
291.588
323.019
367.084
416.055
494.654
582.763
742.382
1223.21
1412.71
1360.62
1276.03
1200.51
1137.93
1069.92
1002.17
927.273
857.106
788.746
731.607
682.175
643.057
609.881
581.996
556.479
532.785
509.698
487.176
464.882
442.96
421.352
400.204
379.53
359.417
339.902
321.023
302.817
285.307
268.562
252.595
237.506
223.271
210.001
197.62
186.252
175.745
166.272
157.62
150.038
143.258
137.621
132.805
129.234
126.516
124.955
42.3856
48.43
55.648
64.0067
73.3499
82.7633
90.7008
96.1637
98.8965
99.5007
98.835
97.7453
96.8014
96.3269
96.3964
96.9376
97.7119
98.4502
98.8613
98.8517
98.4198
97.7576
97.0281
96.4923
96.2662
96.5162
97.2361
98.524
100.311
102.717
105.641
109.286
113.466
118.539
124.134
130.906
138.137
147.015
156.275
168.08
180.267
196.559
213.307
236.269
259.431
290.58
321.77
365.459
414.283
492.706
581.382
741.944
1224.76
1420.67
1372.14
1287.65
1211.37
1148.32
1080.43
1013.04
938.625
868.599
799.885
741.93
691.294
650.914
616.514
587.634
561.31
537.018
513.462
490.582
467.992
445.824
424.001
402.67
381.837
361.593
341.973
323.012
304.745
287.189
270.408
254.407
239.28
225
211.673
199.222
187.768
177.161
167.567
158.779
151.036
144.078
138.236
133.199
129.384
126.417
124.601
42.4965
48.6589
56.0028
64.4804
73.9224
83.4158
91.4107
96.915
99.6802
100.318
99.6943
98.6613
97.7905
97.403
97.5682
98.2058
99.0668
99.8707
100.314
100.296
99.816
99.0723
98.2311
97.5595
97.1777
97.2636
97.819
98.9515
100.597
102.878
105.695
109.248
113.355
118.362
123.912
130.64
137.848
146.697
155.951
167.734
179.924
196.175
212.886
235.711
258.722
289.585
320.543
363.866
412.542
490.773
579.996
741.484
1226.2
1428.56
1383.64
1299.26
1222.18
1158.57
1090.74
1023.71
949.809
880.002
811.043
752.374
700.619
659.021
623.404
593.513
566.35
541.427
517.368
494.1
471.186
448.749
426.691
405.156
384.146
363.753
344.01
324.955
306.616
289.007
272.184
256.147
240.983
226.661
213.281
200.767
189.233
178.534
168.828
159.912
152.019
144.891
138.853
133.602
129.547
126.332
124.257
42.6107
48.8937
56.3656
64.9638
74.5058
84.0808
92.1353
97.6838
100.485
101.159
100.58
99.6056
98.809
98.5097
98.7714
99.5067
100.457
101.33
101.81
101.791
101.269
100.448
99.4987
98.6932
98.1554
98.0743
98.4596
99.4294
100.925
103.072
105.774
109.226
113.254
118.191
123.691
130.372
137.554
146.373
155.621
167.381
179.572
195.783
212.461
235.151
258.018
288.602
319.336
362.307
410.835
488.862
578.612
741.006
1227.55
1436.38
1395.11
1310.85
1232.92
1168.7
1100.86
1034.16
960.807
891.292
822.197
762.92
710.136
667.375
630.56
599.649
571.621
546.036
521.441
497.757
474.492
451.762
429.445
407.684
386.476
365.915
346.032
326.866
308.442
290.77
273.899
257.823
242.62
228.257
214.827
202.255
190.648
179.863
170.053
161.02
152.984
145.697
139.472
134.015
129.727
126.265
123.93
42.7285
49.1346
56.7366
65.4571
75.1003
84.7583
92.8747
98.4703
101.31
102.023
101.492
100.578
99.857
99.6465
100.005
100.839
101.88
102.826
103.349
103.334
102.776
101.884
100.83
99.8933
99.2
98.95
99.1604
99.9605
101.297
103.301
105.879
109.224
113.164
118.026
123.472
130.103
137.257
146.043
155.283
167.019
179.213
195.384
212.03
234.59
257.318
287.632
318.15
360.783
409.165
486.979
577.235
740.514
1228.8
1444.11
1406.53
1322.4
1243.59
1178.68
1110.78
1044.38
971.604
902.448
833.323
773.547
719.83
675.97
637.984
606.054
577.142
550.868
525.707
501.578
477.935
454.888
432.288
410.279
388.85
368.098
348.056
328.76
310.236
292.489
275.561
259.44
244.196
229.793
216.316
203.689
192.014
181.151
171.244
162.1
153.932
146.496
140.093
134.439
129.925
126.221
123.628
42.8499
49.3819
57.1159
65.9604
75.7061
85.4486
93.629
99.2746
102.157
102.912
102.431
101.579
100.934
100.813
101.27
102.203
103.336
104.357
104.927
104.924
104.336
103.378
102.224
101.159
100.312
99.8919
99.9234
100.548
101.717
103.569
106.014
109.242
113.089
117.868
123.256
129.832
136.956
145.707
154.937
166.649
178.845
194.976
211.594
234.026
256.62
286.672
316.984
359.294
407.536
485.13
575.871
740.015
1229.96
1451.74
1417.87
1333.9
1254.19
1188.53
1120.49
1054.36
982.184
913.449
844.398
784.232
729.686
684.797
645.68
612.738
582.929
555.944
530.19
505.59
481.541
458.151
435.243
412.962
391.289
370.324
350.099
330.655
312.013
294.177
277.18
261.007
245.719
231.274
217.75
205.072
193.333
182.397
172.4
163.155
154.862
147.286
140.717
134.875
130.144
126.204
123.356
42.9752
49.6356
57.5037
66.474
76.3233
86.1518
94.3984
100.097
103.024
103.825
103.396
102.608
102.04
102.009
102.564
103.597
104.823
105.923
106.544
106.557
105.946
104.929
103.68
102.49
101.491
100.901
100.75
101.193
102.188
103.878
106.181
109.284
113.028
117.719
123.043
129.56
136.651
145.364
154.584
166.27
178.467
194.56
211.15
233.458
255.925
285.723
315.839
357.841
405.95
483.322
574.527
739.513
1231.03
1459.26
1429.12
1345.33
1264.71
1198.23
1130
1064.1
992.535
924.279
855.4
794.953
739.685
693.847
653.647
619.711
588.999
561.286
534.913
509.816
485.336
461.578
438.337
415.759
393.816
372.614
352.182
332.567
313.788
295.846
278.769
262.534
247.195
232.706
219.135
206.406
194.607
183.604
173.524
164.183
155.776
148.068
141.342
135.322
130.384
126.216
123.119
43.1044
49.896
57.9003
66.9979
76.9521
86.8681
95.1829
100.937
103.913
104.763
104.388
103.665
103.175
103.234
103.886
105.019
106.34
107.52
108.197
108.232
107.604
106.533
105.194
103.885
102.736
101.977
101.643
101.899
102.711
104.232
106.383
109.351
112.985
117.58
122.834
129.288
136.342
145.015
154.223
165.881
178.08
194.133
210.698
232.885
255.23
284.783
314.713
356.425
404.408
481.56
573.21
739.013
1232.03
1466.65
1440.26
1356.67
1275.14
1207.79
1139.31
1073.6
1002.65
934.919
866.308
805.689
749.81
703.109
661.882
626.978
595.366
566.912
539.901
514.284
489.347
465.197
441.596
418.696
396.456
374.99
354.327
334.517
315.578
297.511
280.338
264.031
248.634
234.095
220.476
207.698
195.841
184.773
174.615
165.187
156.672
148.843
141.969
135.782
130.648
126.259
122.921
43.2378
50.1632
58.3058
67.5325
77.5926
87.5975
95.9828
101.796
104.824
105.724
105.406
104.749
104.338
104.487
105.237
106.469
107.885
109.147
109.883
109.945
109.307
108.188
106.765
105.341
104.047
103.12
102.601
102.667
103.291
104.633
106.622
109.447
112.962
117.453
122.63
129.016
136.029
144.659
153.854
165.482
177.682
193.695
210.238
232.307
254.535
283.852
313.606
355.044
402.913
479.849
571.925
738.523
1232.94
1473.91
1451.27
1367.92
1285.47
1217.2
1148.4
1082.84
1012.5
945.352
877.101
816.417
760.041
712.569
670.38
634.543
602.04
572.84
545.174
519.016
493.599
469.032
445.047
421.797
399.234
377.476
356.553
336.522
317.4
299.188
281.902
265.509
250.044
235.45
221.779
208.951
197.038
185.909
175.678
166.168
157.553
149.61
142.599
136.256
130.935
126.337
122.766
43.3754
50.4376
58.7204
68.0779
78.2451
88.3403
96.7981
102.672
105.755
106.71
106.45
105.862
105.53
105.768
106.614
107.946
109.457
110.802
111.6
111.695
111.052
109.891
108.39