/*--------------------------------*- C++ -*----------------------------------*\
| =========                 |                                                 |
| \\      /  F ield         | OpenFOAM: The Open Source CFD Toolbox           |
|  \\    /   O peration     | Version:  2412                                  |
|   \\  /    A nd           | Website:  www.openfoam.com                      |
|    \\/     M anipulation  |                                                 |
\*---------------------------------------------------------------------------*/
FoamFile
{
    version     2.0;
    format      ascii;
    arch        "LSB;label=32;scalar=64";
    class       volScalarField;
    location    "0.9";
    object      nut;
}
// * * * * * * * * * * * * * * * * * * * * * * * * * * * * * * * * * * * * * //

dimensions      [0 2 -1 0 0 0 0];

internalField   nonuniform List<scalar> 
13077
(
0.347486
0.364459
0.384481
0.406532
0.427086
0.440522
0.442774
0.433171
0.413728
0.387881
0.359062
0.330119
0.303018
0.279105
0.259406
0.244869
0.236274
0.233855
0.23704
0.244658
0.255342
0.267514
0.279734
0.291044
0.301339
0.310821
0.319862
0.328643
0.337218
0.345534
0.353373
0.360683
0.367062
0.372712
0.3771
0.380879
0.383258
0.385383
0.386186
0.34768
0.364867
0.385026
0.407058
0.42743
0.440597
0.442578
0.432753
0.413155
0.387213
0.358338
0.329347
0.302172
0.278126
0.258203
0.243319
0.234239
0.23121
0.233702
0.240595
0.250613
0.262289
0.274253
0.285523
0.29593
0.305604
0.314889
0.323934
0.332802
0.341411
0.349553
0.357142
0.363789
0.369651
0.37422
0.378103
0.380551
0.382658
0.383419
0.384653
0.385123
0.386775
0.387154
0.386312
0.380797
0.368869
0.350784
0.32824
0.309659
0.303316
0.314142
0.346751
0.406488
0.351969
0.25958
0.198596
0.162119
0.134805
0.116419
0.102546
0.0932711
0.0861777
0.0809564
0.0760843
0.0716005
0.0670976
0.0628642
0.0588691
0.055243
0.347878
0.365281
0.385575
0.407581
0.427762
0.440656
0.442362
0.432313
0.412559
0.386524
0.357594
0.328557
0.301311
0.277135
0.256991
0.241763
0.2322
0.228561
0.230355
0.236517
0.245855
0.257008
0.268683
0.279881
0.290376
0.300224
0.309744
0.31905
0.32821
0.337115
0.345569
0.353447
0.360374
0.366461
0.371225
0.375224
0.377752
0.37985
0.380574
0.381672
0.381997
0.3834
0.383571
0.382437
0.376735
0.364547
0.346361
0.323607
0.304861
0.297993
0.308315
0.341203
0.402381
0.347559
0.255552
0.19544
0.159651
0.132858
0.114773
0.101098
0.0919333
0.0849653
0.0798981
0.075227
0.0709535
0.0666469
0.0625785
0.0587141
0.0551877
0.0519742
0.0490956
0.0465054
0.0441733
0.0420626
0.0401364
0.0383723
0.0367464
0.0352532
0.0338891
0.0326605
0.0315799
0.0306622
0.0299294
0.0293996
0.0290939
0.0290313
0.0292212
0.0296861
0.0304089
0.0314371
0.0327113
0.0343422
0.0361917
0.0384988
0.0409519
0.0440569
0.0471085
0.0513061
0.0546863
0.348079
0.3657
0.386126
0.4081
0.428083
0.440695
0.442123
0.431849
0.411939
0.38581
0.356828
0.327746
0.300431
0.27613
0.25577
0.240205
0.230163
0.225914
0.227009
0.232435
0.241078
0.251684
0.263036
0.27413
0.284686
0.29469
0.304432
0.313992
0.323442
0.332645
0.341418
0.349594
0.356813
0.363139
0.368111
0.372238
0.374858
0.376956
0.377653
0.378619
0.378803
0.379959
0.379924
0.378499
0.372615
0.360175
0.341899
0.318954
0.300063
0.292688
0.302498
0.335613
0.398183
0.343073
0.251521
0.192313
0.157225
0.13096
0.11318
0.0997025
0.0906404
0.0837855
0.0788579
0.0743754
0.070304
0.0661894
0.0622847
0.0585511
0.0551255
0.0519879
0.0491648
0.0466154
0.0443129
0.0422226
0.0403091
0.0385508
0.0369235
0.0354214
0.0340396
0.0327837
0.0316645
0.0306959
0.0298987
0.0292899
0.0288912
0.0287206
0.0287907
0.0291228
0.0297068
0.0305845
0.0317073
0.0331709
0.034856
0.0369706
0.0392416
0.042111
0.0449561
0.0488327
0.051998
0.348284
0.366124
0.38668
0.408614
0.42839
0.440716
0.44186
0.43136
0.411292
0.385072
0.356037
0.326914
0.299533
0.275111
0.254542
0.238645
0.228131
0.223276
0.223672
0.228359
0.236298
0.246331
0.257329
0.268283
0.278871
0.289011
0.29896
0.308764
0.318501
0.328003
0.337099
0.345582
0.353105
0.359682
0.364876
0.369145
0.371868
0.373976
0.374654
0.375495
0.375543
0.376454
0.376215
0.3745
0.368438
0.355755
0.337402
0.314285
0.295268
0.287406
0.296696
0.329986
0.393897
0.338518
0.247493
0.189221
0.154843
0.129113
0.111639
0.098359
0.0893936
0.0826404
0.0778374
0.0735306
0.0696521
0.0657246
0.0619818
0.0583789
0.0550549
0.0519946
0.0492287
0.0467215
0.0444499
0.0423816
0.0404826
0.0387321
0.037106
0.035598
0.0342024
0.0329239
0.0317719
0.0307592
0.0299056
0.029227
0.0287454
0.0284777
0.0284391
0.0286497
0.0291054
0.0298434
0.0308251
0.0321333
0.0336657
0.0356031
0.0377066
0.0403617
0.0430189
0.0466051
0.0495749
0.348493
0.366553
0.387236
0.409122
0.428684
0.440715
0.441572
0.430843
0.410619
0.384307
0.355222
0.326059
0.298617
0.274079
0.253306
0.237087
0.226109
0.220654
0.220353
0.2243
0.231526
0.240966
0.251574
0.262354
0.272943
0.283193
0.293333
0.30337
0.313388
0.323187
0.33261
0.341407
0.349246
0.356087
0.361518
0.365941
0.368781
0.370909
0.371577
0.3723
0.372217
0.372887
0.372446
0.370445
0.364208
0.351292
0.332873
0.309604
0.290479
0.282152
0.290917
0.32433
0.389525
0.3339
0.243475
0.186166
0.152506
0.127315
0.110151
0.097068
0.0881942
0.0815316
0.0768386
0.0726937
0.0689984
0.0652525
0.0616691
0.0581965
0.0549748
0.0519929
0.0492855
0.0468218
0.0445827
0.0425377
0.0406549
0.0389141
0.0372915
0.0357804
0.0343745
0.0330775
0.0318979
0.0308472
0.0299443
0.0292042
0.0286488
0.0282939
0.0281569
0.0282563
0.0285937
0.029202
0.030052
0.0312156
0.0326057
0.0343797
0.0363285
0.0387885
0.0412744
0.0445988
0.0473915
0.348705
0.366987
0.387793
0.409624
0.428962
0.440693
0.441259
0.430299
0.409917
0.383514
0.354381
0.325181
0.297681
0.273033
0.252065
0.235533
0.2241
0.218053
0.217061
0.220269
0.226774
0.235602
0.24579
0.256358
0.266915
0.27725
0.287559
0.297816
0.308106
0.318199
0.327951
0.337069
0.345234
0.352351
0.358033
0.362625
0.365595
0.367755
0.368422
0.369035
0.368827
0.36926
0.368619
0.366336
0.359928
0.346788
0.328316
0.304914
0.285701
0.276929
0.285166
0.318649
0.38507
0.329226
0.239474
0.183154
0.150216
0.125567
0.108716
0.0958294
0.0870427
0.0804607
0.0758632
0.0718665
0.0683437
0.0647732
0.0613465
0.0580033
0.0548843
0.0519817
0.0493341
0.0469152
0.0447097
0.0426895
0.0408245
0.0390951
0.037478
0.0359664
0.0345532
0.0332415
0.0320387
0.0309555
0.0300098
0.0292155
0.0285945
0.0281615
0.0279354
0.0279334
0.0281617
0.0286497
0.0293767
0.0304052
0.0316624
0.0332848
0.0350904
0.0373723
0.0397018
0.0427904
0.0454229
0.348921
0.367426
0.388352
0.410119
0.429223
0.440647
0.440917
0.429725
0.409186
0.382693
0.353514
0.324279
0.296726
0.271974
0.25082
0.233986
0.22211
0.215481
0.213804
0.216276
0.222057
0.230254
0.23999
0.25031
0.2608
0.271191
0.281648
0.292108
0.302659
0.313042
0.323123
0.332567
0.341067
0.348473
0.35442
0.359194
0.362308
0.364512
0.365189
0.365701
0.365375
0.365575
0.364738
0.362175
0.355602
0.342248
0.323734
0.300218
0.280936
0.271743
0.27945
0.31295
0.380535
0.324503
0.235497
0.180185
0.147974
0.12387
0.107332
0.0946429
0.0859399
0.0794292
0.0749132
0.0710505
0.0676892
0.0642871
0.0610136
0.0577988
0.0547828
0.0519601
0.0493734
0.0470005
0.04483
0.0428358
0.0409899
0.0392735
0.0376639
0.0361539
0.0347363
0.0334133
0.0321914
0.0310805
0.0300977
0.0292559
0.0285767
0.0280737
0.0277671
0.0276726
0.0278004
0.0281769
0.0287889
0.0296911
0.0308235
0.032305
0.0339771
0.0360957
0.0382819
0.0411582
0.0436457
0.34914
0.36787
0.38891
0.410605
0.429467
0.440576
0.440547
0.429121
0.408424
0.381843
0.352619
0.323354
0.295752
0.270903
0.249572
0.232449
0.220144
0.212944
0.210592
0.212333
0.217388
0.224939
0.234193
0.244228
0.254614
0.265029
0.275609
0.286254
0.297053
0.307718
0.318127
0.3279
0.336744
0.344451
0.350677
0.355648
0.35892
0.361179
0.361878
0.362298
0.36186
0.361834
0.360805
0.357968
0.351234
0.337677
0.319132
0.295522
0.276189
0.266597
0.273775
0.30724
0.375922
0.319738
0.231548
0.177264
0.145781
0.122221
0.106
0.0935078
0.0848859
0.0784382
0.0739904
0.0702475
0.067036
0.063795
0.0606708
0.0575827
0.0546695
0.0519274
0.0494027
0.0470768
0.0449425
0.0429755
0.04115
0.0394481
0.0378477
0.0363415
0.0349219
0.0335906
0.0323533
0.031219
0.0302042
0.0293208
0.0285901
0.0280246
0.0276453
0.0274666
0.027502
0.0277751
0.0282795
0.0290634
0.0300781
0.0314279
0.0329751
0.0349434
0.0369973
0.039682
0.042038
0.349364
0.368318
0.389468
0.411082
0.429691
0.440479
0.440147
0.428485
0.407631
0.380962
0.351697
0.322405
0.294759
0.26982
0.248323
0.230924
0.218204
0.210449
0.207432
0.208451
0.212778
0.21967
0.228415
0.238129
0.248374
0.25878
0.269455
0.280263
0.291294
0.302231
0.312964
0.323068
0.332264
0.340282
0.346802
0.351984
0.355429
0.357757
0.358489
0.358826
0.358286
0.35804
0.356823
0.353717
0.346827
0.333077
0.314514
0.290828
0.271464
0.261496
0.268147
0.301525
0.371235
0.314937
0.227635
0.174394
0.143637
0.120621
0.104717
0.0924234
0.0838807
0.0774887
0.0730965
0.0694594
0.0663856
0.0632977
0.0603182
0.057355
0.0545443
0.0518831
0.0494212
0.0471434
0.0450463
0.0431076
0.0413038
0.0396177
0.0380281
0.0365276
0.0351082
0.0337714
0.0325219
0.0313683
0.030326
0.0294063
0.0286301
0.0280089
0.0275641
0.0273089
0.0272593
0.0274365
0.0278403
0.0285131
0.0294169
0.0306428
0.0320724
0.0339014
0.0358327
0.0383439
0.0405801
0.349591
0.36877
0.390025
0.411548
0.429895
0.440355
0.439716
0.427816
0.406806
0.380051
0.350747
0.321431
0.293748
0.268727
0.247075
0.229414
0.216297
0.208002
0.204334
0.204639
0.208242
0.214464
0.222674
0.232031
0.242095
0.252458
0.263198
0.274145
0.28539
0.296586
0.307637
0.318072
0.327626
0.335966
0.342793
0.348201
0.351834
0.354245
0.355023
0.355288
0.354654
0.354195
0.352795
0.349426
0.342385
0.328454
0.309884
0.286141
0.266763
0.256443
0.262571
0.295811
0.366478
0.310109
0.223762
0.171575
0.141543
0.119069
0.103483
0.0913884
0.0829241
0.0765816
0.0722332
0.068688
0.0657394
0.062796
0.0599564
0.0571158
0.0544069
0.0518268
0.0494285
0.0471996
0.0451407
0.0432315
0.0414504
0.0397814
0.0382041
0.0367109
0.035294
0.033954
0.0326953
0.0315258
0.0304601
0.029509
0.0286928
0.0280219
0.0275182
0.0271934
0.0270659
0.0271544
0.0274641
0.0280324
0.0288312
0.0299403
0.0312586
0.0329577
0.0347744
0.0371278
0.0392542
0.349823
0.369226
0.390581
0.412003
0.430077
0.440201
0.439252
0.427114
0.405947
0.379108
0.349767
0.320433
0.292718
0.267624
0.245829
0.227921
0.214425
0.205609
0.201306
0.200908
0.20379
0.209336
0.216988
0.225952
0.235797
0.246079
0.256853
0.267911
0.27935
0.290791
0.30215
0.312914
0.32283
0.331501
0.338649
0.344298
0.348134
0.350642
0.35148
0.351684
0.350966
0.350302
0.348724
0.345098
0.337913
0.323811
0.305246
0.281465
0.26209
0.251442
0.257052
0.290105
0.361653
0.305261
0.219936
0.168812
0.139498
0.117564
0.102296
0.0904016
0.0820154
0.0757174
0.071402
0.0679352
0.0650992
0.0622913
0.059586
0.0568653
0.0542573
0.0517582
0.0494241
0.047245
0.0452252
0.0433463
0.0415892
0.0399384
0.0383747
0.0368904
0.0354777
0.0341369
0.0328717
0.0316894
0.0306041
0.0296258
0.0287744
0.0280595
0.0275029
0.0271151
0.0269162
0.0269227
0.0271445
0.0276146
0.0283137
0.0293123
0.0305246
0.0321018
0.0338106
0.0360194
0.0380445
0.350058
0.369686
0.391134
0.412444
0.430236
0.440018
0.438753
0.426376
0.405054
0.378134
0.348759
0.31941
0.29167
0.266512
0.244587
0.226449
0.212593
0.203276
0.198355
0.197267
0.199437
0.204301
0.211373
0.219912
0.229499
0.239662
0.250435
0.261576
0.273183
0.284851
0.296508
0.307598
0.317878
0.326888
0.33437
0.340274
0.344329
0.346948
0.347859
0.348016
0.347223
0.346363
0.344615
0.340739
0.333415
0.319154
0.300605
0.276804
0.257449
0.246497
0.251596
0.284412
0.356765
0.300399
0.21616
0.166104
0.137504
0.116104
0.101155
0.0894614
0.0811538
0.0748961
0.0706043
0.067203
0.0644668
0.0617849
0.0592079
0.0566039
0.0540955
0.0516773
0.0494077
0.047279
0.0452993
0.0434516
0.0417193
0.0400879
0.038539
0.0370651
0.0356583
0.0343186
0.0330494
0.0318572
0.0307557
0.0297541
0.028872
0.028118
0.027514
0.0270693
0.026805
0.0267359
0.0268755
0.0272532
0.0278577
0.0287514
0.0298624
0.0313245
0.0329308
0.0350064
0.036937
0.350297
0.370149
0.391684
0.412871
0.43037
0.439802
0.43822
0.425603
0.404126
0.377126
0.347722
0.318362
0.290604
0.265393
0.243351
0.225
0.210804
0.201007
0.195487
0.193727
0.195192
0.199372
0.205847
0.213929
0.22322
0.233225
0.243959
0.255152
0.266902
0.278776
0.290717
0.302125
0.312771
0.322127
0.329953
0.336127
0.340417
0.343164
0.344162
0.344283
0.343428
0.342382
0.340469
0.336351
0.328895
0.314487
0.295965
0.272162
0.252843
0.24161
0.246206
0.27874
0.351818
0.29553
0.212439
0.163455
0.135559
0.114689
0.100058
0.0885661
0.0803384
0.074118
0.0698411
0.066493
0.0638439
0.0612782
0.0588229
0.0563321
0.0539218
0.0515839
0.0493792
0.0473016
0.0453625
0.0435469
0.0418403
0.0402292
0.0386963
0.037234
0.0358349
0.0344982
0.033227
0.0320275
0.0309128
0.0298915
0.0289827
0.0281942
0.0275478
0.0270517
0.0267279
0.0265889
0.026652
0.026943
0.0274576
0.0282513
0.0292652
0.0306178
0.0321263
0.034078
0.0359198
0.35054
0.370616
0.392229
0.413283
0.430478
0.439553
0.43765
0.424792
0.403162
0.376084
0.346654
0.317291
0.289522
0.264267
0.242121
0.223577
0.209063
0.198809
0.192711
0.190294
0.191067
0.194563
0.200426
0.208023
0.216979
0.226787
0.237446
0.248656
0.260519
0.272576
0.284785
0.296502
0.307511
0.317218
0.325401
0.331858
0.336399
0.339288
0.34039
0.340489
0.339582
0.33836
0.336291
0.331939
0.324358
0.309814
0.291329
0.267542
0.248276
0.236785
0.240889
0.273094
0.346816
0.290662
0.208778
0.160865
0.133664
0.113316
0.0990029
0.0877139
0.0795677
0.0733827
0.0691135
0.0658071
0.0632324
0.0607729
0.0584323
0.0560508
0.0537365
0.0514784
0.0493384
0.0473123
0.0454146
0.0436318
0.0419518
0.0403618
0.0388459
0.0373966
0.0360063
0.0346744
0.0334034
0.032199
0.0310737
0.0300359
0.029104
0.0282853
0.0276012
0.0270587
0.0266805
0.0264774
0.0264693
0.0266787
0.0271081
0.0278065
0.028727
0.0299749
0.0313892
0.0332248
0.0349822
0.350786
0.371085
0.392769
0.413677
0.430557
0.439269
0.437042
0.423943
0.402161
0.375009
0.345557
0.316195
0.288423
0.263135
0.240901
0.22218
0.207371
0.196684
0.190032
0.186979
0.187071
0.189888
0.195127
0.202212
0.210796
0.220367
0.230911
0.242104
0.254047
0.266262
0.278719
0.290733
0.302102
0.312164
0.320712
0.327466
0.332274
0.335322
0.336542
0.336634
0.335688
0.334301
0.332084
0.327507
0.319808
0.305141
0.286704
0.26295
0.243751
0.232025
0.235647
0.267481
0.341764
0.285802
0.205181
0.158335
0.131818
0.111986
0.0979881
0.0869029
0.0788404
0.0726897
0.0684221
0.0651468
0.0626343
0.0602706
0.0580373
0.0557607
0.0535401
0.0513608
0.0492856
0.0473113
0.0454554
0.043706
0.0420533
0.0404853
0.0389874
0.037552
0.036172
0.0348463
0.0335773
0.0323701
0.0312369
0.0301855
0.0292339
0.0283887
0.027671
0.0270869
0.0266594
0.0263974
0.026323
0.0264561
0.0268046
0.027412
0.0282425
0.0293898
0.030713
0.0324388
0.0341153
0.351037
0.371556
0.393303
0.414053
0.430607
0.438949
0.436394
0.423054
0.401123
0.3739
0.34443
0.315075
0.287308
0.261999
0.239692
0.220814
0.205732
0.194638
0.187456
0.183786
0.183215
0.185358
0.189965
0.196513
0.204692
0.213987
0.224376
0.235513
0.247503
0.259847
0.272529
0.284826
0.296548
0.306966
0.315888
0.322952
0.328042
0.331265
0.33262
0.332719
0.331747
0.330207
0.327851
0.32306
0.31525
0.300471
0.282093
0.258388
0.239271
0.227333
0.230485
0.261906
0.336665
0.280956
0.201649
0.155866
0.13002
0.110695
0.0970117
0.086131
0.0781549
0.0720383
0.0677675
0.0645136
0.0620514
0.0597731
0.0576393
0.0554629
0.0533334
0.0512316
0.0492208
0.0472984
0.0454848
0.0437693
0.0421445
0.0405993
0.0391202
0.0376998
0.0363313
0.0350132
0.0337479
0.0325399
0.031401
0.0303386
0.0293703
0.0285021
0.0277548
0.0271333
0.026661
0.0263451
0.0262094
0.026271
0.0265428
0.0270635
0.027807
0.0288576
0.0300921
0.0317133
0.0333115
0.351291
0.37203
0.393829
0.414409
0.430626
0.438591
0.435706
0.422125
0.400046
0.372756
0.343273
0.313932
0.286179
0.26086
0.238494
0.219479
0.204148
0.192673
0.184986
0.180723
0.179505
0.180983
0.184953
0.190946
0.198685
0.207666
0.217859
0.228902
0.240903
0.253343
0.266225
0.278787
0.290854
0.301627
0.31093
0.318315
0.323704
0.327118
0.328624
0.328746
0.327762
0.326082
0.323597
0.318601
0.310687
0.29581
0.2775
0.253861
0.23484
0.222712
0.225406
0.256376
0.331526
0.27613
0.198187
0.153459
0.12827
0.109443
0.0960717
0.0853962
0.0775093
0.0714275
0.0671499
0.0639089
0.0614857
0.0592823
0.0572399
0.0551585
0.053117
0.0510913
0.0491443
0.0472739
0.0455028
0.0438217
0.0422254
0.0407036
0.0392439
0.0378394
0.0364834
0.0351744
0.0339142
0.0327072
0.0315648
0.0304939
0.0295116
0.0286236
0.0278501
0.0271954
0.0266826
0.0263173
0.0261249
0.0261197
0.0263189
0.0267569
0.0274167
0.0283737
0.0295217
0.0310424
0.0325641
0.351549
0.372504
0.394347
0.414743
0.430611
0.438193
0.434976
0.421155
0.398931
0.371577
0.342087
0.312766
0.285036
0.25972
0.23731
0.218177
0.202621
0.190791
0.182627
0.177794
0.175949
0.176773
0.180104
0.185524
0.192795
0.201424
0.211381
0.222289
0.234263
0.246767
0.25982
0.272627
0.285026
0.296151
0.30584
0.313558
0.31926
0.322882
0.324555
0.324716
0.323735
0.321928
0.319324
0.314134
0.306125
0.291163
0.272931
0.249374
0.23046
0.218163
0.220414
0.250895
0.326351
0.27133
0.194797
0.151114
0.126568
0.108229
0.0951662
0.0846963
0.0769018
0.0708561
0.0665693
0.0633337
0.0609388
0.0588001
0.0568407
0.0548488
0.0528918
0.0509405
0.0490565
0.0472379
0.0455094
0.0438631
0.0422957
0.0407978
0.0393584
0.0379705
0.0366281
0.0353291
0.0340755
0.0328712
0.0317271
0.0306499
0.0296562
0.0287513
0.0279549
0.0272705
0.0267212
0.0263111
0.0260663
0.0259989
0.0261297
0.0264889
0.0270678
0.0279343
0.0289976
0.0304213
0.0318678
0.351811
0.37298
0.394856
0.415053
0.430562
0.437755
0.434203
0.420142
0.397776
0.370362
0.34087
0.311577
0.28388
0.258578
0.236141
0.21691
0.201152
0.188996
0.180381
0.175005
0.172553
0.172738
0.175431
0.180265
0.18704
0.195282
0.204962
0.215696
0.227602
0.240134
0.253326
0.266355
0.27907
0.290543
0.300621
0.308681
0.314711
0.318557
0.320415
0.320632
0.319667
0.317749
0.315036
0.309664
0.301569
0.286533
0.268389
0.244928
0.226136
0.21369
0.215512
0.24547
0.321144
0.266564
0.191481
0.148832
0.124912
0.107051
0.0942933
0.0840293
0.0763305
0.0703228
0.0660255
0.0627889
0.0604124
0.0583283
0.0564434
0.0545351
0.052659
0.05078
0.0489579
0.0471907
0.0455049
0.0438936
0.0423555
0.040882
0.0394633
0.0380928
0.0367647
0.035477
0.0342312
0.0330311
0.0318871
0.0308056
0.0298028
0.0288836
0.0280673
0.0273567
0.0267746
0.0263236
0.0260307
0.0259054
0.0259718
0.0262561
0.0267572
0.0275361
0.0285163
0.0298457
0.0312179
0.352077
0.373455
0.395353
0.415339
0.430477
0.437273
0.433386
0.419087
0.396582
0.369113
0.339625
0.310367
0.282712
0.257437
0.234989
0.21568
0.199744
0.187288
0.178252
0.172358
0.169322
0.168882
0.170943
0.175182
0.181438
0.189258
0.198623
0.209141
0.220939
0.23346
0.246758
0.259981
0.272996
0.284807
0.295275
0.303686
0.310057
0.314144
0.316204
0.316494
0.315562
0.313546
0.310737
0.305194
0.297021
0.281926
0.263878
0.24053
0.221868
0.209295
0.210703
0.240106
0.315912
0.261835
0.18824
0.146612
0.123303
0.105907
0.0934511
0.0833929
0.0757932
0.0698262
0.065518
0.0622753
0.0599082
0.0578688
0.0560498
0.0542189
0.0524196
0.0506105
0.0488492
0.0471329
0.0454896
0.0439134
0.0424047
0.040956
0.0395585
0.038206
0.0368931
0.0356174
0.0343806
0.0331861
0.0320438
0.0309599
0.0299502
0.0290191
0.0281857
0.027452
0.0268405
0.0263525
0.0260154
0.0258365
0.0258423
0.0260557
0.0264819
0.027176
0.0280748
0.0293122
0.0306106
0.352346
0.37393
0.395838
0.415597
0.430353
0.436748
0.432523
0.417987
0.395347
0.367828
0.33835
0.309135
0.281533
0.256298
0.233854
0.214486
0.198397
0.185668
0.176239
0.169855
0.166258
0.165213
0.166648
0.170287
0.176003
0.183373
0.192383
0.202646
0.214293
0.226764
0.240131
0.253519
0.266812
0.278951
0.289807
0.298576
0.305301
0.309645
0.311923
0.312304
0.311421
0.309323
0.306429
0.30073
0.292487
0.277346
0.259404
0.236181
0.217662
0.20498
0.205989
0.234807
0.310658
0.257149
0.185076
0.144453
0.121738
0.104796
0.0926378
0.0827851
0.075288
0.0693646
0.0650463
0.0617933
0.0594276
0.0574235
0.0556616
0.0539018
0.0521749
0.0504331
0.048731
0.0470649
0.0454637
0.0439226
0.0424436
0.0410199
0.039644
0.03831
0.0370128
0.0357501
0.0345234
0.0333356
0.0321965
0.0311119
0.0300972
0.0291566
0.0283085
0.0275546
0.0269169
0.0263956
0.0260179
0.0257896
0.0257387
0.0258849
0.0262393
0.0268515
0.0276705
0.0288179
0.0300427
0.352618
0.374404
0.396308
0.415827
0.43019
0.436176
0.431613
0.416843
0.394072
0.366509
0.337047
0.307883
0.280344
0.255161
0.232738
0.213331
0.197111
0.184137
0.174344
0.167498
0.163365
0.161734
0.162555
0.165591
0.170751
0.177642
0.186264
0.19623
0.207684
0.220063
0.233461
0.246982
0.260528
0.272981
0.284221
0.293353
0.300443
0.305059
0.307575
0.308064
0.307247
0.305083
0.302117
0.296273
0.287972
0.272797
0.25497
0.231886
0.213519
0.200746
0.201373
0.229579
0.30539
0.252511
0.181989
0.142357
0.120217
0.103717
0.0918516
0.0822039
0.0748128
0.0689362
0.0646093
0.0613432
0.0589717
0.0569941
0.0552809
0.0535855
0.0519262
0.0502489
0.0486042
0.0469873
0.0454279
0.0439217
0.0424723
0.0410737
0.0397198
0.0384046
0.0371238
0.0358748
0.034659
0.0334791
0.0323446
0.0312608
0.0302429
0.0292948
0.0284344
0.027663
0.027002
0.0264507
0.0260361
0.0257621
0.0256583
0.0257412
0.026027
0.0265601
0.0273009
0.0283602
0.0295115
0.352894
0.374875
0.396764
0.416027
0.429984
0.435558
0.430655
0.415654
0.392757
0.365154
0.335716
0.306612
0.279146
0.254029
0.231642
0.212214
0.195887
0.182695
0.172566
0.165286
0.160644
0.158448
0.158669
0.161103
0.165696
0.172083
0.180282
0.189914
0.201132
0.213378
0.226765
0.240384
0.254155
0.266905
0.278523
0.288021
0.295487
0.300391
0.30316
0.303775
0.303041
0.300828
0.297803
0.291829
0.283478
0.268283
0.25058
0.227649
0.209442
0.196596
0.196857
0.224427
0.300112
0.247926
0.17898
0.140322
0.11874
0.102669
0.0910908
0.0816472
0.0743654
0.0685392
0.0642061
0.0609249
0.0585417
0.0565824
0.0549093
0.0532717
0.0516751
0.050059
0.0484697
0.0469009
0.0453825
0.0439109
0.0424911
0.0411178
0.0397858
0.0384899
0.0372258
0.0359911
0.0347871
0.0336162
0.0324874
0.031406
0.0303865
0.0294328
0.0285622
0.0277758
0.0270942
0.026516
0.026068
0.025752
0.0255989
0.0256223
0.0258427
0.0262996
0.0269641
0.027937
0.029015
0.353173
0.375344
0.397203
0.416193
0.429735
0.434891
0.429649
0.414419
0.3914
0.363765
0.334358
0.305322
0.27794
0.252901
0.230566
0.211136
0.194724
0.18134
0.170905
0.163219
0.158094
0.155357
0.154992
0.15683
0.160847
0.166711
0.174456
0.183717
0.194658
0.206727
0.220061
0.23374
0.247706
0.260733
0.272719
0.282584
0.290434
0.29564
0.29868
0.29944
0.298805
0.29656
0.293491
0.287402
0.27901
0.263809
0.246237
0.223473
0.205435
0.192532
0.192442
0.219354
0.294829
0.243397
0.176049
0.138347
0.117305
0.10165
0.0903538
0.0811131
0.0739437
0.0681718
0.0638354
0.0605383
0.0581383
0.0561898
0.0545488
0.0529622
0.0514231
0.0498647
0.0483285
0.0468065
0.0453284
0.0438909
0.0425004
0.0411522
0.0398424
0.0385658
0.0373189
0.036099
0.0349075
0.0337464
0.0326245
0.0315467
0.0305271
0.0295695
0.0286908
0.0278916
0.0271921
0.0265899
0.0261115
0.0257572
0.0255585
0.025526
0.0256842
0.026068
0.0266581
0.0275464
0.0285512
0.353455
0.375809
0.397623
0.416326
0.42944
0.434173
0.428592
0.413137
0.390002
0.362341
0.332972
0.304015
0.276727
0.25178
0.229511
0.210098
0.193622
0.180071
0.169357
0.161295
0.155715
0.15246
0.151529
0.152779
0.156215
0.16154
0.168803
0.177657
0.18828
0.20013
0.213367
0.227067
0.241194
0.254474
0.266815
0.277046
0.285288
0.290808
0.294136
0.29506
0.294542
0.292283
0.289183
0.282993
0.274573
0.259379
0.241947
0.21936
0.201498
0.188556
0.18813
0.214366
0.289547
0.238928
0.173196
0.136431
0.115912
0.100659
0.0896391
0.0805998
0.0735458
0.067832
0.0634959
0.060183
0.0577624
0.0558179
0.0542011
0.0526587
0.0511718
0.0496674
0.0481819
0.046705
0.0452661
0.0438622
0.0425007
0.0411774
0.0398896
0.0386325
0.0374029
0.0361984
0.0350198
0.0338694
0.0327553
0.0316824
0.0306642
0.0297044
0.0288193
0.0280094
0.0272943
0.0266709
0.0261651
0.0257759
0.0255349
0.0254503
0.0255497
0.0258635
0.0263814
0.0271868
0.0281188
0.353739
0.37627
0.398022
0.416421
0.429097
0.433403
0.427484
0.411808
0.388563
0.360883
0.331561
0.302691
0.275508
0.250666
0.228479
0.209098
0.19258
0.178886
0.167922
0.159512
0.153503
0.149756
0.148278
0.148953
0.151807
0.15658
0.163339
0.171754
0.18202
0.193607
0.206702
0.220381
0.234632
0.24814
0.26082
0.271412
0.280051
0.285899
0.289531
0.290636
0.290254
0.287999
0.284883
0.278607
0.270168
0.254997
0.237712
0.215315
0.197636
0.184668
0.183924
0.209465
0.284271
0.234523
0.170421
0.134574
0.114559
0.0996951
0.0889451
0.0801054
0.0731696
0.0675179
0.0631861
0.0598582
0.0574141
0.0554677
0.0538679
0.052363
0.0509228
0.0494686
0.0480309
0.0465975
0.0451966
0.0438256
0.0424924
0.0411938
0.0399279
0.0386902
0.0374781
0.0362891
0.0351241
0.033985
0.0328797
0.0318126
0.0307971
0.0298365
0.0289468
0.0281281
0.0273996
0.0267575
0.0262273
0.0258062
0.0255263
0.0253932
0.0254372
0.0256843
0.0261323
0.0268569
0.0277163
0.354026
0.376724
0.398399
0.416478
0.428705
0.43258
0.426324
0.410431
0.387083
0.359391
0.330125
0.301351
0.274285
0.249559
0.227468
0.208137
0.191596
0.177784
0.166596
0.157867
0.151457
0.147242
0.14524
0.145353
0.14763
0.151842
0.158075
0.166024
0.175894
0.187178
0.200085
0.2137
0.228035
0.241741
0.254742
0.265689
0.274728
0.280915
0.284866
0.286171
0.285942
0.283709
0.280593
0.274248
0.265801
0.250665
0.233535
0.21134
0.19385
0.18087
0.179823
0.204656
0.279007
0.230185
0.167722
0.132775
0.113245
0.0987572
0.0882705
0.0796283
0.0728132
0.0672275
0.0629045
0.0595633
0.0570939
0.0551405
0.0535509
0.052077
0.0506779
0.0492698
0.047877
0.046485
0.0451208
0.0437816
0.0424762
0.0412019
0.0399574
0.0387391
0.0375445
0.0363712
0.0352202
0.034093
0.0329971
0.0319369
0.0309252
0.0299652
0.0290724
0.0282469
0.027507
0.0268486
0.0262964
0.0258466
0.0255311
0.0253531
0.0253449
0.0255286
0.0259093
0.0265552
0.0273428
0.354315
0.377172
0.398753
0.416495
0.428262
0.431703
0.425111
0.409006
0.385561
0.357866
0.328664
0.299996
0.273058
0.248462
0.226479
0.207215
0.190669
0.176762
0.165376
0.156354
0.149571
0.144916
0.142412
0.14198
0.143686
0.147334
0.153026
0.160481
0.169922
0.180862
0.193536
0.207042
0.22142
0.235291
0.24859
0.259882
0.269323
0.275858
0.280143
0.281666
0.281609
0.279417
0.276316
0.269917
0.261474
0.246387
0.22942
0.207437
0.190142
0.177164
0.175829
0.199942
0.273761
0.225916
0.165098
0.131032
0.111971
0.0978444
0.0876141
0.079167
0.0724748
0.0669589
0.0626493
0.0592972
0.0568016
0.054837
0.0532515
0.0518024
0.0504388
0.0490725
0.0477215
0.0463687
0.0450396
0.0437313
0.0424529
0.0412021
0.0399788
0.0387795
0.0376023
0.0364448
0.035308
0.0341932
0.0331075
0.0320551
0.0310482
0.0300901
0.0291956
0.0283648
0.0276155
0.026943
0.0263714
0.0258958
0.0255477
0.0253282
0.0252712
0.025395
0.025711
0.0262806
0.0269972
0.354606
0.377612
0.39908
0.416468
0.427766
0.430769
0.423845
0.407533
0.383999
0.356309
0.327179
0.298628
0.271828
0.247373
0.225514
0.20633
0.189798
0.175816
0.164258
0.15497
0.147841
0.142772
0.13979
0.138832
0.139978
0.143061
0.1482
0.15514
0.16412
0.174677
0.187074
0.200425
0.214803
0.228803
0.242375
0.254
0.26384
0.270732
0.275364
0.277123
0.277256
0.275124
0.272054
0.265618
0.257191
0.242166
0.22537
0.20361
0.186514
0.173551
0.171943
0.195326
0.268538
0.221718
0.162549
0.129343
0.110734
0.0969556
0.0869746
0.0787198
0.0721525
0.0667102
0.0624189
0.0590589
0.0565371
0.054558
0.052971
0.0515407
0.0502072
0.0488784
0.0475658
0.0462499
0.0449542
0.0436755
0.0424231
0.0411953
0.0399926
0.0388119
0.0376517
0.03651
0.0353876
0.0342855
0.0332106
0.0321667
0.0311657
0.0302105
0.0293158
0.0284812
0.0277242
0.0270397
0.026451
0.0259523
0.0255746
0.025317
0.0252145
0.0252819
0.0255361
0.0260319
0.0266788
0.354899
0.378042
0.399378
0.416396
0.427215
0.429778
0.422523
0.406012
0.382397
0.35472
0.325672
0.297247
0.270597
0.246294
0.22457
0.205482
0.188981
0.174945
0.163237
0.15371
0.146261
0.140805
0.13737
0.135906
0.136506
0.139027
0.143606
0.150014
0.158503
0.168642
0.180717
0.193869
0.2082
0.222291
0.236107
0.248049
0.258285
0.26554
0.270533
0.272545
0.272885
0.270832
0.267809
0.261353
0.252953
0.238006
0.221388
0.199861
0.182968
0.170031
0.168165
0.190811
0.263342
0.217594
0.160072
0.127708
0.109534
0.09609
0.0863509
0.0782855
0.0718445
0.0664794
0.0622116
0.058847
0.0562999
0.0543039
0.0527106
0.0512937
0.0499848
0.0486892
0.0474115
0.04613
0.0448657
0.0436152
0.0423878
0.0411821
0.0399992
0.0388366
0.0376933
0.0365671
0.0354591
0.03437
0.0333063
0.0322716
0.0312772
0.0303261
0.0294323
0.0285955
0.0278324
0.0271378
0.0265342
0.0260149
0.0256105
0.025318
0.0251734
0.0251879
0.0253833
0.025808
0.0263867
0.355192
0.378462
0.399647
0.416277
0.426607
0.428728
0.421146
0.404442
0.380753
0.353099
0.324143
0.295854
0.269364
0.245225
0.223649
0.204669
0.188215
0.174144
0.16231
0.152568
0.144826
0.139008
0.135145
0.133199
0.133267
0.135235
0.139249
0.145111
0.153085
0.162772
0.174485
0.187391
0.201628
0.215771
0.229798
0.242039
0.252663
0.260286
0.26565
0.267932
0.268497
0.266543
0.263584
0.257124
0.248764
0.233908
0.217475
0.196191
0.179507
0.166606
0.164497
0.1864
0.25818
0.213545
0.157666
0.126126
0.10837
0.0952467
0.0857421
0.0778627
0.0715494
0.0662649
0.0620255
0.0586602
0.0560895
0.054075
0.0524714
0.0510627
0.0497732
0.0485064
0.0472601
0.0460103
0.0447754
0.0435516
0.0423478
0.0411632
0.0399994
0.0388543
0.0377272
0.0366164
0.0355226
0.0344467
0.0333946
0.0323696
0.0313827
0.0304365
0.0295447
0.028707
0.0279393
0.0272365
0.02662
0.0260826
0.0256541
0.0253299
0.0251464
0.0251115
0.0252513
0.0256079
0.0261202
0.355487
0.378869
0.399883
0.416108
0.42594
0.427618
0.419713
0.402823
0.37907
0.351448
0.322593
0.29445
0.26813
0.244166
0.222749
0.203891
0.187497
0.17341
0.16147
0.151539
0.143528
0.137375
0.13311
0.130704
0.13026
0.131684
0.135135
0.14044
0.147879
0.157084
0.168393
0.18101
0.195106
0.209257
0.22346
0.235978
0.246981
0.254974
0.26072
0.263287
0.264095
0.262259
0.259381
0.252934
0.244626
0.229875
0.213635
0.192603
0.17613
0.163277
0.160937
0.182094
0.253056
0.209571
0.15533
0.124593
0.10724
0.0944251