/*--------------------------------*- C++ -*----------------------------------*\
| =========                 |                                                 |
| \\      /  F ield         | OpenFOAM: The Open Source CFD Toolbox           |
|  \\    /   O peration     | Version:  2412                                  |
|   \\  /    A nd           | Website:  www.openfoam.com                      |
|    \\/     M anipulation  |                                                 |
\*---------------------------------------------------------------------------*/
FoamFile
{
    version     2.0;
    format      ascii;
    arch        "LSB;label=32;scalar=64";
    class       volScalarField;
    location    "0.9";
    object      p;
}
// * * * * * * * * * * * * * * * * * * * * * * * * * * * * * * * * * * * * * //

dimensions      [0 2 -2 0 0 0 0];

internalField   nonuniform List<scalar> 
13077
(
106129
105958
105848
105586
105420
105130
104912
104604
104345
104031
103765
103467
103218
102937
102705
102424
102193
101881
101622
101236
100926
100437
100082
99475.6
99088.1
98331
97921.1
96961
96545.6
95302.9
94914.1
93270.7
92965.1
90743.2
90620
87548.3
87775.6
83432.3
84291.8
106149
105975
105864
105599
105432
105140
104921
104612
104351
104036
103769
103470
103220
102939
102707
102426
102195
101883
101626
101240
100931
100443
100088
99482.5
99094.7
98338.9
97928.3
96969.8
96553.3
95312.9
94922.4
93282
92973.9
90756.2
90629.4
87563.7
87785.8
83450.9
84303.3
78034.8
79981.5
70717.4
74533
60566.4
67612.2
46264.8
59017.6
25977.1
48549.2
-4248.96
34105.1
-55999
9791.93
-154701
-15503
-75985
1846.01
-34287.4
15031
-6867.27
24362.8
11467.1
31422.9
24489.5
37659.6
34529.4
43486.5
42563
48795.5
106168
105992
105880
105613
105444
105151
104930
104619
104358
104041
103773
103473
103223
102941
102708
102428
102197
101886
101629
101245
100936
100449
100094
99489.4
99101.4
98346.7
97935.6
96978.7
96561.1
95322.9
94930.7
93293.4
92982.7
90769.4
90638.9
87579.2
87796.1
83469.5
84314.7
78057.6
79994.6
70745.4
74548
60600
67628.8
46304
59037.6
26023.6
48579.7
-4193.73
34154.8
-55983.6
9794.58
-155219
-15647.9
-76005.2
1827.06
-34272.5
15028.2
-6852.97
24361.3
11480.3
31424.1
24503
37663.2
34541.8
43491
42573.5
48800.3
49085.4
53521.7
54412.7
57642.6
58778
61178.4
62357.5
64180
65307
66721.8
67761.2
68883.8
69834.3
70740.4
71618.7
72356.6
73187.9
73782.5
74594.4
75045.4
75869
76150.6
77030.9
77088.1
78107.6
77835.5
79155.8
78344.9
80305.5
78504.1
106188
106009
105897
105626
105457
105161
104939
104626
104364
104047
103777
103476
103225
102943
102710
102429
102198
101889
101632
101249
100941
100455
100100
99496.3
99108
98354.6
97942.8
96987.7
96569
95333.1
94939.1
93304.9
92991.6
90782.7
90648.4
87594.8
87806.5
83488.2
84326.3
78080.4
80007.8
70773.5
74563.1
60633.9
67645.8
46343.7
59058.1
26070.3
48610.3
-4138.62
34204.5
-55967.9
9797.59
-155742
-15793.4
-76024.6
1808.45
-34257.5
15025.4
-6838.67
24359.8
11493.6
31425.3
24516.5
37666.8
34554.2
43495.5
42584
48805.1
49094.2
53526.2
54419.7
57646.4
58783.2
61181.3
62361.4
64182.3
65309.8
66723.7
67763.4
68885.7
69836.3
70742.5
71620.7
72359.2
73189.8
73785.3
74595.9
75048.2
75869.6
76153.6
77030.3
77091.5
78105.6
77840.1
79151.9
78351.9
80299.2
78514.4
106208
106026
105913
105639
105469
105171
104948
104634
104370
104052
103781
103480
103228
102945
102712
102431
102200
101891
101635
101253
100945
100460
100106
99503.2
99114.7
98362.6
97950.2
96996.7
96577
95343.3
94947.6
93316.6
93000.7
90796.1
90658
87610.5
87816.9
83507
84337.9
78103.4
80021.1
70801.7
74578.3
60668
67662.9
46383.7
59078.8
26117.3
48641
-4083.64
34254
-55951.8
9800.95
-156268
-15939.7
-76043.2
1790.18
-34242.2
15022.7
-6824.33
24358.4
11506.8
31426.6
24530.1
37670.5
34566.6
43500.1
42594.6
48810
49103
53530.8
54426.7
57650.3
58788.5
61184.3
62365.2
64184.6
65312.6
66725.7
67765.7
68887.7
69838.4
70744.8
71622.8
72361.8
73191.8
73788.1
74597.4
75051.1
75870.2
76156.6
77029.9
77095
78103.6
77844.8
79148
78358.8
80293
78524.9
106228
106044
105930
105653
105481
105181
104957
104642
104377
104057
103786
103483
103230
102948
102714
102433
102202
101894
101638
101257
100950
100466
100112
99510.1
99121.4
98370.6
97957.7
97005.8
96585
95353.6
94956.2
93328.3
93009.8
90809.6
90667.8
87626.4
87827.5
83525.9
84349.7
78126.5
80034.5
70830.1
74593.6
60702.4
67680.3
46424
59099.7
26164.4
48671.7
-4028.71
34303.6
-55935.3
9804.81
-156798
-16086.5
-76060.9
1772.23
-34226.7
15020.3
-6809.85
24357
11520.2
31428
24543.8
37674.2
34579.1
43504.7
42605.3
48814.8
49111.9
53535.4
54433.8
57654.1
58793.9
61187.4
62369.1
64186.9
65315.5
66727.6
67767.9
68889.6
69840.5
70747
71624.9
72364.4
73193.8
73790.9
74598.9
75054.1
75871
76159.7
77029.5
77098.6
78101.8
77849.5
79144.3
78365.9
80286.9
78535.4
106248
106061
105946
105666
105494
105192
104966
104649
104383
104062
103790
103487
103233
102950
102715
102435
102204
101896
101641
101261
100955
100472
100118
99517
99128.2
98378.7
97965.2
97015
96593.2
95364.1
94964.9
93340.2
93019.1
90823.2
90677.7
87642.3
87838.2
83545
84361.6
78149.7
80048
70858.6
74609.1
60736.9
67697.8
46464.5
59120.8
26211.7
48702.4
-3973.84
34353.1
-55918.2
9809.16
-157333
-16233.9
-76077.9
1754.61
-34210.9
15018
-6795.22
24355.8
11533.7
31429.5
24557.5
37678
34591.6
43509.3
42615.9
48819.7
49120.7
53540.1
54440.8
57658
58799.2
61190.4
62372.9
64189.2
65318.3
66729.6
67770.2
68891.6
69842.6
70749.3
71627.1
72367
73195.8
73793.8
74600.5
75057.1
75871.7
76162.8
77029.1
77102.1
78100
77854.2
79140.6
78372.9
80280.8
78546.1
106268
106079
105963
105680
105506
105202
104975
104657
104389
104068
103794
103490
103236
102952
102717
102437
102206
101898
101644
101265
100959
100477
100123
99524
99135
98386.8
97972.7
97024.3
96601.4
95374.6
94973.8
93352.2
93028.5
90837
90687.6
87658.4
87848.9
83564.2
84373.5
78173.1
80061.6
70887.3
74624.8
60771.6
67715.6
46505.2
59142
26259.2
48733.1
-3919.07
34402.6
-55900.7
9813.99
-157871
-16381.9
-76094
1737.31
-34194.8
15015.9
-6780.43
24354.7
11547.2
31431
24571.3
37681.8
34604.2
43513.9
42626.6
48824.7
49129.6
53544.7
54447.9
57662
58804.5
61193.5
62376.8
64191.6
65321.2
66731.5
67772.5
68893.6
69844.8
70751.6
71629.2
72369.7
73197.9
73796.7
74602.2
75060.1
75872.6
76165.9
77028.8
77105.7
78098.3
77859
79137
78380
80274.8
78556.8
106289
106096
105980
105693
105519
105212
104984
104664
104396
104073
103799
103494
103239
102954
102719
102439
102208
101901
101647
101269
100964
100483
100129
99530.9
99141.8
98394.9
97980.4
97033.7
96609.8
95385.3
94982.7
93364.3
93038
90850.8
90697.7
87674.6
87859.8
83583.5
84385.6
78196.6
80075.3
70916.1
74640.5
60806.5
67733.4
46546.2
59163.4
26306.7
48763.9
-3864.4
34451.9
-55882.8
9819.27
-158413
-16530.5
-76109.2
1720.35
-34178.5
15014
-6765.5
24353.8
11560.9
31432.7
24585.2
37685.7
34616.8
43518.6
42637.3
48829.6
49138.5
53549.4
54455
57665.9
58809.9
61196.6
62380.7
64194
65324.1
66733.6
67774.9
68895.6
69847
70753.9
71631.4
72372.3
73200
73799.7
74603.8
75063.1
75873.5
76169.1
77028.6
77109.3
78096.6
77863.8
79133.5
78387.1
80268.9
78567.7
106309
106114
105997
105707
105532
105223
104994
104672
104402
104079
103803
103497
103241
102957
102721
102440
102210
101903
101650
101273
100968
100489
100135
99537.8
99148.6
98403.1
97988
97043.1
96618.2
95396
94991.8
93376.5
93047.6
90864.8
90707.9
87690.9
87870.8
83602.9
84397.7
78220.1
80089.1
70945.1
74656.4
60841.6
67751.4
46587.3
59184.9
26354.4
48794.6
-3809.86
34501.2
-55864.5
9825
-158959
-16679.5
-76123.5
1703.72
-34161.9
15012.3
-6750.42
24353.1
11574.7
31434.5
24599.1
37689.6
34629.4
43523.3
42648
48834.5
49147.3
53554.1
54462.1
57669.9
58815.2
61199.7
62384.7
64196.4
65327
66735.6
67777.2
68897.7
69849.2
70756.2
71633.6
72375
73202.1
73802.6
74605.5
75066.1
75874.4
76172.2
77028.4
77113
78095
77868.6
79130.1
78394.3
80263
78578.5
106330
106132
106014
105721
105544
105233
105003
104680
104409
104084
103807
103501
103244
102959
102723
102442
102211
101905
101653
101277
100972
100494
100141
99544.7
99155.4
98411.2
97995.7
97052.5
96626.7
95406.8
95000.9
93388.8
93057.3
90879
90718.2
87707.4
87881.9
83622.5
84409.9
78243.9
80103
70974.2
74672.3
60876.8
67769.6
46628.6
59206.5
26402.2
48825.2
-3755.46
34550.3
-55845.9
9831.16
-159509
-16829
-76137
1687.43
-34145.1
15010.8
-6735.19
24352.5
11588.6
31436.4
24613.1
37693.6
34642
43528.1
42658.7
48839.5
49156.2
53558.8
54469.2
57673.8
58820.6
61202.8
62388.6
64198.8
65329.9
66737.6
67779.6
68899.7
69851.4
70758.6
71635.9
72377.8
73204.2
73805.6
74607.3
75069.2
75875.3
76175.4
77028.3
77116.6
78093.5
77873.4
79126.7
78401.4
80257.1
78589.5
106351
106150
106031
105735
105557
105244
105012
104688
104416
104090
103812
103505
103247
102961
102725
102444
102213
101908
101655
101280
100977
100499
100146
99551.5
99162.2
98419.4
98003.5
97062.1
96635.2
95417.7
95010.2
93401.3
93067.1
90893.2
90728.7
87723.9
87893.1
83642.1
84422.3
78267.7
80117
71003.4
74688.4
60912.3
67787.9
46670.2
59228.3
26450.1
48855.9
-3701.22
34599.2
-55826.9
9837.71
-160064
-16979
-76149.5
1671.47
-34128.1
15009.4
-6719.8
24352
11602.6
31438.4
24627.2
37697.7
34654.7
43532.8
42669.4
48844.5
49165.1
53563.5
54476.3
57677.8
58826
61205.9
62392.5
64201.2
65332.8
66739.7
67781.9
68901.8
69853.6
70760.9
71638.1
72380.5
73206.4
73808.6
74609
75072.3
75876.3
76178.6
77028.2
77120.2
78092
77878.1
79123.3
78408.5
80251.3
78600.5
106373
106168
106048
105749
105570
105254
105022
104696
104422
104095
103816
103508
103250
102964
102727
102446
102215
101910
101658
101284
100981
100505
100152
99558.3
99168.9
98427.6
98011.2
97071.6
96643.8
95428.7
95019.5
93413.8
93077.1
90907.6
90739.2
87740.6
87904.4
83661.9
84434.7
78291.6
80131
71032.7
74704.6
60947.8
67806.4
46711.9
59250.2
26498.1
48886.4
-3647.16
34647.9
-55807.7
9844.65
-160622
-17129.5
-76161.1
1655.86
-34110.7
15008.3
-6704.28
24351.7
11616.7
31440.4
24641.3
37701.8
34667.5
43537.6
42680.1
48849.5
49174
53568.2
54483.4
57681.8
58831.4
61209.1
62396.5
64203.7
65335.8
66741.7
67784.3
68903.9
69855.8
70763.3
71640.4
72383.2
73208.6
73811.6
74610.8
75075.4
75877.4
76181.8
77028.2
77123.9
78090.6
77882.9
79120.1
78415.7
80245.5
78611.5
106394
106187
106066
105763
105583
105265
105031
104704
104429
104101
103821
103512
103253
102966
102729
102448
102217
101912
101660
101288
100985
100510
100158
99565.1
99175.6
98435.8
98019
97081.2
96652.5
95439.8
95029
93426.5
93087.2
90922.1
90749.9
87757.4
87915.8
83681.8
84447.3
78315.7
80145.2
71062.2
74720.9
60983.5
67824.9
46753.8
59272.1
26546.1
48916.9
-3593.28
34696.4
-55788.2
9851.95
-161185
-17280.4
-76171.8
1640.57
-34093.2
15007.3
-6688.6
24351.6
11630.9
31442.7
24655.5
37706
34680.2
43542.4
42690.9
48854.5
49182.9
53573
54490.5
57685.9
58836.8
61212.2
62400.4
64206.1
65338.7
66743.8
67786.7
68906
69858.1
70765.7
71642.7
72386
73210.8
73814.6
74612.6
75078.5
75878.4
76185.1
77028.2
77127.6
78089.2
77887.7
79116.8
78422.8
80239.7
78622.5
106416
106205
106084
105777
105596
105276
105040
104711
104436
104106
103825
103516
103256
102969
102731
102450
102218
101914
101663
101291
100989
100515
100163
99571.7
99182.3
98443.9
98026.8
97090.8
96661.2
95450.9
95038.5
93439.2
93097.4
90936.7
90760.7
87774.4
87927.4
83701.8
84459.9
78339.9
80159.4
71091.8
74737.3
61019.4
67843.6
46795.8
59294.2
26594.2
48947.4
-3539.61
34744.7
-55768.5
9859.59
-161752
-17431.6
-76181.5
1625.63
-34075.4
15006.6
-6672.79
24351.6
11645.2
31445
24669.8
37710.2
34693
43547.3
42701.7
48859.6
49191.9
53577.7
54497.6
57689.9
58842.2
61215.4
62404.4
64208.6
65341.7
66745.9
67789.1
68908.1
69860.3
70768.1
71644.9
72388.8
73213
73817.7
74614.5
75081.6
75879.5
76188.3
77028.2
77131.2
78087.9
77892.5
79113.7
78429.9
80233.9
78633.5
106438
106224
106101
105791
105609
105287
105050
104719
104442
104112
103830
103520
103259
102971
102733
102452
102220
101916
101665
101294
100993
100520
100168
99578.3
99189
98452
98034.5
97100.4
96670
95462.1
95048.1
93452.1
93107.7
90951.4
90771.6
87791.4
87939
83722
84472.6
78364.1
80173.7
71121.4
74753.7
61055.4
67862.4
46838
59316.4
26642.4
48977.7
-3486.15
34792.7
-55748.7
9867.54
-162323
-17583.3
-76190.2
1611.02
-34057.4
15006
-6656.83
24351.7
11659.6
31447.4
24684.1
37714.5
34705.8
43552.1
42712.5
48864.6
49200.8
53582.5
54504.8
57693.9
58847.6
61218.6
62408.4
64211.1
65344.6
66748
67791.6
68910.2
69862.6
70770.5
71647.3
72391.6
73215.3
73820.7
74616.3
75084.8
75880.7
76191.5
77028.3
77134.9
78086.6
77897.3
79110.5
78437
80228.2
78644.6
106460
106242
106119
105806
105622
105297
105059
104727
104449
104118
103835
103523
103262
102974
102735
102454
102222
101918
101667
101297
100996
100525
100174
99584.9
99195.5
98460
98042.2
97110
96678.7
95473.3
95057.8
93465
93118.1
90966.3
90782.6
87808.6
87950.8
83742.2
84485.4
78388.5
80188.1
71151.2
74770.2
61091.5
67881.3
46880.3
59338.6
26690.6
49008
-3432.91
34840.3
-55728.7
9875.77
-162898
-17735.4
-76197.9
1596.75
-34039.1
15005.6
-6640.74
24352.1
11674.2
31450
24698.5
37718.9
34718.7
43557.1
42723.3
48869.7
49209.7
53587.3
54511.9
57698
58853
61221.8
62412.3
64213.6
65347.6
66750.2
67794
68912.4
69864.9
70773
71649.6
72394.4
73217.5
73823.8
74618.2
75087.9
75881.8
76194.8
77028.4
77138.5
78085.3
77902
79107.4
78444.1
80222.4
78655.6
106482
106261
106137
105820
105635
105308
105069
104736
104456
104124
103839
103527
103265
102976
102737
102455
102224
101920
101670
101301
101000
100530
100179
99591.3
99202
98468
98049.9
97119.6
96687.5
95484.5
95067.5
93478
93128.5
90981.2
90793.8
87825.9
87962.6
83762.6
84498.3
78413
80202.6
71181.1
74786.8
61127.7
67900.2
46922.7
59360.8
26738.8
49038.1
-3379.91
34887.7
-55708.6
9884.27
-163478
-17887.8
-76204.6
1582.81
-34020.6
15005.4
-6624.52
24352.5
11688.8
31452.6
24713
37723.3
34731.6
43562
42734.1
48874.8
49218.7
53592.1
54519
57702.1
58858.4
61225
62416.3
64216.1
65350.6
66752.3
67796.4
68914.5
69867.2
70775.4
71651.9
72397.2
73219.8
73826.8
74620.1
75091
75883
76198
77028.5
77142.2
78084.1
77906.8
79104.4
78451.1
80216.7
78666.7
106505
106280
106155
105834
105648
105319
105078
104744
104463
104129
103844
103531
103268
102979
102739
102457
102225
101922
101672
101304
101004
100534
100184
99597.6
99208.4
98475.9
98057.6
97129.2
96696.3
95495.8
95077.3
93491.1
93139.1
90996.3
90805
87843.3
87974.5
83783
84511.3
78437.5
80217.1
71211
74803.5
61164
67919.3
46965.3
59383.2
26787.1
49068.1
-3327.15
34934.8
-55688.4
9893.01
-164062
-18040.6
-76210.3
1569.21
-34001.9
15005.3
-6608.16
24353.2
11703.5
31455.4
24727.5
37727.9
34744.5
43567
42744.9
48879.9
49227.6
53596.9
54526.2
57706.2
58863.9
61228.2
62420.3
64218.6
65353.6
66754.4
67798.9
68916.7
69869.5
70777.9
71654.3
72400
73222.1
73829.9
74622
75094.2
75884.2
76201.3
77028.7
77145.8
78082.9
77911.5
79101.4
78458.2
80211
78677.7
106528
106299
106174
105849
105661
105330
105088
104752
104470
104135
103849
103535
103271
102982
102741
102459
102227
101924
101674
101306
101007
100539
100189
99603.8
99214.7
98483.8
98065.2
97138.7
96705.1
95507.1
95087.1
93504.3
93149.8
91011.4
90816.3
87860.8
87986.6
83803.6
84524.4
78462.2
80231.7
71241.1
74820.2
61200.4
67938.4
47008
59405.6
26835.3
49098
-3274.65
34981.5
-55668.2
9901.96
-164650
-18193.7
-76215
1555.94
-33983
15005.4
-6591.68
24353.9
11718.3
31458.3
24742.2
37732.5
34757.5
43572
42755.8
48885.1
49236.6
53601.8
54533.3
57710.3
58869.3
61231.5
62424.3
64221.2
65356.6
66756.6
67801.3
68918.9
69871.8
70780.3
71656.6
72402.8
73224.4
73833
74624
75097.4
75885.4
76204.5
77028.9
77149.5
78081.8
77916.2
79098.5
78465.1
80205.3
78688.7
106551
106319
106192
105864
105675
105341
105097
104760
104477
104141
103854
103539
103274
102984
102743
102461
102229
101926
101676
101309
101010
100543
100194
99609.9
99221
98491.5
98072.7
97148.2
96713.9
95518.4
95097
93517.5
93160.6
91026.7
90827.8
87878.5
87998.8
83824.3
84537.5
78486.9
80246.4
71271.2
74837
61236.9
67957.6
47050.7
59428
26883.6
49127.8
-3222.4
35027.8
-55648
9911.09
-165242
-18347.2
-76218.7
1543.01
-33963.9
15005.7
-6575.07
24354.9
11733.3
31461.3
24756.8
37737.1
34770.5
43577.1
42766.6
48890.3
49245.5
53606.6
54540.5
57714.4
58874.7
61234.7
62428.3
64223.7
65359.6
66758.8
67803.8
68921.1
69874.2
70782.8
71659
72405.7
73226.7
73836.1
74625.9
75100.5
75886.7
76207.8
77029.1
77153.1
78080.7
77920.9
79095.6
78472.1
80199.7
78699.7
106574
106338
106211
105878
105688
105352
105107
104768
104484
104147
103859
103543
103277
102987
102745
102463
102230
101928
101678
101312
101013
100548
100198
99615.9
99227.1
98499.2
98080.2
97157.6
96722.6
95529.7
95106.9
93530.7
93171.4
91042
90839.3
87896.2
88011
83845.1
84550.7
78511.8
80261.1
71301.4
74853.9
61273.5
67976.9
47093.6
59450.4
26931.8
49157.4
-3170.42
35073.8
-55627.9
9920.37
-165839
-18501
-76221.3
1530.41
-33944.5
15006.2
-6558.35
24355.9
11748.3
31464.5
24771.6
37741.9
34783.6
43582.2
42777.5
48895.5
49254.5
53611.5
54547.7
57718.5
58880.2
61238
62432.3
64226.3
65362.6
66760.9
67806.3
68923.2
69876.5
70785.3
71661.4
72408.5
73229
73839.2
74627.9
75103.7
75887.9
76211
77029.4
77156.8
78079.7
77925.6
79092.7
78479
80194
78710.7
106598
106358
106229
105893
105702
105363
105117
104776
104491
104153
103863
103547
103281
102990
102747
102465
102232
101930
101680
101315
101017
100552
100203
99621.7
99233.1
98506.7
98087.6
97167
96731.3
95541
95116.8
93544
93182.3
91057.4
90851
87914
88023.4
83866
84564.1
78536.7
80275.9
71331.6
74870.7
61310.2
67996.2
47136.5
59472.8
26980.1
49186.9
-3118.71
35119.4
-55607.8
9929.78
-166440
-18655.1
-76222.8
1518.13
-33925
15006.8
-6541.5
24357.2
11763.4
31467.7
24786.4
37746.7
34796.7
43587.4
42788.4
48900.7
49263.5
53616.4
54554.8
57722.7
58885.6
61241.3
62436.3
64228.8
65365.6
66763.1
67808.8
68925.5
69878.9
70787.8
71663.8
72411.4
73231.4
73842.3
74629.9
75106.9
75889.2
76214.3
77029.7
77160.4
78078.6
77930.2
79089.9
78485.9
80188.4
78721.6
106621
106377
106248
105908
105715
105375
105127
104785
104498
104159
103868
103552
103284
102992
102749
102467
102234
101932
101682
101317
101019
100556
100207
99627.5
99238.9
98514.2
98094.8
97176.2
96740
95552.2
95126.7
93557.3
93193.2
91072.9
90862.7
87932
88035.8
83886.9
84577.5
78561.7
80290.7
71362
74887.6
61346.9
68015.5
47179.5
59495.3
27028.3
49216.2
-3067.27
35164.7
-55587.7
9939.29
-167046
-18809.6
-76223.3
1506.19
-33905.2
15007.5
-6524.54
24358.5
11778.6
31471.1
24801.2
37751.6
34809.8
43592.6
42799.4
48906
49272.5
53621.3
54562
57726.8
58891.1
61244.6
62440.4
64231.4
65368.6
66765.3
67811.3
68927.7
69881.2
70790.3
71666.2
72414.2
73233.7
73845.4
74631.9
75110
75890.5
76217.5
77030
77164
78077.7
77934.9
79087.1
78492.7
80182.8
78732.5
106645
106397
106267
105923
105729
105386
105136
104793
104505
104165
103873
103556
103287
102995
102752
102469
102235
101934
101683
101320
101022
100560
100212
99633.1
99244.7
98521.5
98102
97185.4
96748.6
95563.4
95136.6
93570.6
93204.2
91088.5
90874.5
87950
88048.4
83908
84590.9
78586.8
80305.6
71392.3
74904.6
61383.7
68034.9
47222.6
59517.7
27076.5
49245.3
-3016.12
35209.5
-55567.8
9948.87
-167656
-18964.4
-76222.7
1494.58
-33885.2
15008.5
-6507.47
24360
11793.9
31474.6
24816.2
37756.6
34823
43597.9
42810.3
48911.2
49281.5
53626.2
54569.2
57731
58896.6
61247.9
62444.4
64234
65371.7
66767.5
67813.8
68929.9
69883.6
70792.8
71668.6
72417.1
73236.1
73848.5
74633.9
75113.2
75891.9
76220.8
77030.4
77167.6
78076.7
77939.5
79084.4
78499.6
80177.2
78743.3
106670
106417
106286
105938
105742
105397
105146
104801
104512
104171
103878
103560
103291
102998
102754
102471
102237
101935
101685
101322
101025
100564
100216
99638.5
99250.3
98528.6
98109
97194.4
96757.1
95574.5
95146.5
93584
93215.2
91104.1
90886.4
87968.1
88061
83929.2
84604.5
78612
80320.5
71422.8
74921.6
61420.5
68054.3
47265.7
59540.2
27124.6
49274.3
-2965.25
35253.9
-55548.1
9958.48
-168270
-19119.6
-76221
1483.3
-33865
15009.5
-6490.3
24361.7
11809.2
31478.2
24831.2
37761.7
34836.2
43603.2
42821.3
48916.6
49290.5
53631.2
54576.4
57735.2
58902
61251.2
62448.4
64236.6
65374.7
66769.7
67816.3
68932.1
69886
70795.3
71671
72420
73238.5
73851.6
74635.9
75116.4
75893.2
76224.1
77030.7
77171.2
78075.8
77944.1
79081.7
78506.3
80171.7
78754.2
106694
106437
106305
105953
105756
105408
105156
104810
104519
104177
103883
103564
103294
103001
102756
102473
102239
101937
101687
101324
101028
100568
100220
99643.9
99255.8
98535.7
98116
97203.4
96765.5
95585.6
95156.3
93597.3
93226.3
91119.7
90898.4
87986.3
88073.7
83950.4
84618.1
78637.2
80335.5
71453.3
74938.6
61457.4
68073.7
47308.9
59562.6
27172.7
49303.1
-2914.66
35297.9
-55528.5
9968.1
-168889
-19275.1
-76218.2
1472.34
-33844.7
15010.8
-6473.02
24363.5
11824.7
31481.9
24846.2
37766.9
34849.4
43608.6
42832.3
48921.9
49299.5
53636.2
54583.6
57739.4
58907.5
61254.6
62452.5
64239.2
65377.8
66772
67818.8
68934.4
69888.4
70797.9
71673.5
72422.9
73240.8
73854.7
74637.9
75119.6
75894.6
76227.3
77031.1
77174.8
78074.9
77948.6
79079
78513
80166.1
78764.9
106719
106458
106325
105968
105770
105420
105166
104818
104526
104183
103889
103568
103297
103004
102758
102475
102240
101939
101689
101327
101030
100571
100224
99649.1
99261.1
98542.6
98122.8
97212.2
96773.8
95596.5
95166.1
93610.5
93237.3
91135.4
90910.4
88004.6
88086.5
83971.8
84631.8
78662.5
80350.5
71483.8
74955.6
61494.3
68093.1
47352
59585
27220.8
49331.7
-2864.36
35341.6
-55509.1
9977.7
-169513
-19430.9
-76214.3
1461.71
-33824.1
15012.2
-6455.63
24365.4
11840.2
31485.7
24861.3
37772.1
34862.7
43614.1
42843.3
48927.3
49308.6
53641.2
54590.8
57743.7
58913
61257.9
62456.5
64241.9
65380.8
66774.2
67821.3
68936.6
69890.8
70800.4
71675.9
72425.8
73243.2
73857.8
74640
75122.8
75896
76230.6
77031.6
77178.4
78074.1
77953.2
79076.4
78519.7
80160.6
78775.6
106744
106478
106344
105984
105784
105431
105176
104827
104533
104190
103894
103573
103301
103007
102761
102477
102242
101940
101690
101329
101033
100575
100228
99654.1
99266.3
98549.3
98129.4
97220.9
96781.9
95607.4
95175.8
93623.8
93248.4
91151.1
90922.5
88023
88099.4
83993.2
84645.6
78687.9
80365.5
71514.4
74972.6
61531.3
68112.5
47395.3
59607.4
27268.8
49360.1
-2814.35
35384.8
-55489.8
9987.24
-170141
-19587.2
-76209.2
1451.41
-33803.3
15013.7
-6438.15
24367.4
11855.8
31489.6
24876.4
37777.5
34876
43619.6
42854.4
48932.7
49317.6
53646.2
54598
57747.9
58918.5
61261.3
62460.6
64244.5
65383.9
66776.5
67823.8
68938.9
69893.2
70803
71678.4
72428.7
73245.7
73861
74642.1
75126
75897.4
76233.8
77032
77182
78073.3
77957.7
79073.9
78526.4
80155.2
78786.3
106770
106499
106364
105999
105798
105443
105186
104835
104541
104196
103899
103577
103304
103010
102763
102479
102244
101942
101692
101331
101035
100578
100231
99659.1
99271.4
98555.9
98135.9
97229.4
96790
95618.1
95185.5
93636.9
93259.4
91166.8
90934.7
88041.4
88112.3
84014.7
84659.4
78713.3
80380.6
71545
74989.6
61568.3
68132
47438.5
59629.7
27316.7
49388.4
-2764.62
35427.6
-55470.8
9996.7
-170774
-19743.8
-76203.1
1441.43
-33782.4
15015.4
-6420.57
24369.6
11871.5
31493.7
24891.6
37782.9
34889.4
43625.1
42865.4
48938.2
49326.7
53651.3
54605.3
57752.2
58924
61264.7
62464.7
64247.1
65386.9
66778.7
67826.3
68941.2
69895.6
70805.5
71680.8
72431.6
73248.1
73864.1
74644.1
75129.2
75898.8
76237.1
77032.5
77185.5
78072.5
77962.2
79071.3
78532.9
80149.7
78796.9
106795
106519
106384
106015
105812
105454
105196
104844
104548
104202
103904
103582
103308
103013
102765
102482
102245
101944
101693
101333
101038
100581
100235
99663.9
99276.3
98562.4
98142.3
97237.8
96797.9
95628.7
95195
93650.1
93270.5
91182.6
90946.8
88059.8
88125.4
84036.3
84673.3
78738.8
80395.7
71575.7
75006.6
61605.3
68151.4
47481.8
59652
27364.6
49416.4
-2715.17
35470
-55452.1
10006.1
-171411
-19900.8
-76195.8
1431.77
-33761.2
15017.2
-6402.89
24371.9
11887.2
31497.8
24906.9
37788.4
34902.8
43630.7
42876.5
48943.7
49335.8
53656.4
54612.5
57756.5
58929.5
61268.1
62468.7
64249.8
65390
66781
67828.9
68943.4
69898
70808.1
71683.3
72434.5
73250.5
73867.2
74646.2
75132.3
75900.3
76240.3
77033
77189.1
78071.8
77966.7
79068.9
78539.5
80144.3
78807.4
106821
106540
106404
106030
105826
105466
105206
104853
104555
104208
103909
103586
103312
103016
102768
102484
102247
101946
101695
101335
101040
100585
100239
99668.6
99281.2
98568.7
98148.5
97246
96805.7
95639.2
95204.5
93663.1
93281.4
91198.3
90959
88078.3
88138.4
84057.9
84687.2
78764.4
80410.9
71606.4
75023.7
61642.3
68170.8
47525
59674.2
27412.4
49444.3
-2666.01
35512
-55433.6
10015.3
-172053
-20058.2
-76187.4
1422.43
-33739.9
15019.2
-6385.13
24374.3
11903
31502
24922.1
37793.9
34916.3
43636.4
42887.7
48949.3
49344.9
53661.5
54619.8
57760.8
58935.1
61271.5
62472.8
64252.5
65393.1
66783.3
67831.4
68945.7
69900.4
70810.6
71685.8
72437.4
73252.9
73870.4
74648.3
75135.5
75901.7
76243.6
77033.6
77192.6
78071.1
77971.2
79066.4
78546
80138.9
78817.9
106847
106561
106424
106046
105840
105478
105216
104861
104563
104215
103915
103591
103315
103019
102770
102486
102249
101947
101696
101337
101042
100588
100242
99673.1
99285.8
98574.9
98154.6
97254.1
96813.4
95649.6
95213.8
93676
93292.4
91213.9
90971.2
88096.9
88151.6
84079.6
84701.2
78790
80426.1
71637.1
75040.7
61679.3
68190.2
47568.3
59696.4
27460.1
49472
-2617.13
35553.5
-55415.4
10024.3
-172700
-20216
-76177.8
1413.41
-33718.3
15021.3
-6367.27
24376.9
11918.9
31506.3
24937.5
37799.6
34929.7
43642.2
42898.8
48954.9
49354
53666.6
54627.1
57765.2
58940.6
61274.9
62476.9
64255.2
65396.2
66785.5
67834
68948
69902.9
70813.2
71688.3
72440.3
73255.4
73873.5
74650.5
75138.7
75903.2
76246.8
77034.1
77196.2
78070.5
77975.6
79064
78552.5
80133.6
78828.3
106874
106583
106444
106062
105854
105489
105226
104870
104570
104221
103920
103595
103319
103022
102773
102488
102251
101949
101698
101339
101044
100591
100245
99677.6
99290.4
98580.9
98160.5
97262
96820.9
95659.7
95223
93688.8
93303.2
91229.6
90983.4
88115.4
88164.7
84101.3
84715.3
78815.6
80441.3
71667.8
75057.7
61716.4
68209.5
47611.5
59718.5
27507.8
49499.4
-2568.53
35594.7
-55397.4
10033.1
-173352
-20374.3
-76167.1
1404.7
-33696.6
15023.6
-6349.32
24379.6
11934.8
31510.8
24952.8
37805.3
34943.2
43648
42910
48960.6
49363.2
53671.8
54634.4
57769.6
58946.2
61278.4
62481
64257.9
65399.3
66787.8
67836.6
68950.3
69905.3
70815.8
71690.8
72443.2
73257.8
73876.7
74652.6
75141.9
75904.7
76250
77034.7
77199.7
78069.9
77980
79061.7
78558.9
80128.3
78838.6
106901
106604
106465
106077
105868
105501
105236
104879
104578
104228
103925
103600
103323
103025
102775
102490
102252
101951
101699
101341
101046
100594
100248
99681.9
99294.8
98586.8
98166.3
97269.8
96828.2
95669.8
95232.1
93701.5
93314
91245.1
90995.6
88134
88178
84123.1
84729.4
78841.3
80456.5
71698.6
75074.8
61753.4
68228.9
47654.8
59740.5
27555.3
49526.7
-2520.2
35635.5
-55379.8
10041.7
-174008
-20533
-76155.3
1396.32
-33674.7
15026
-6331.29
24382.4
11950.8
31515.3
24968.2
37811.1
34956.8
43653.9
42921.2
48966.3
49372.4
53677.1
54641.7
57774
58951.8
61281.9
62485.1
64260.6
65402.4
66790.1
67839.1
68952.7
69907.8
70818.4
71693.3
72446.2
73260.3
73879.8
74654.7
75145.1
75906.2
76253.3
77035.3
77203.2
78069.3
77984.4
79059.4
78565.3
80123
78848.9
106928
106626
106486
106093
105882
105513
105246
104888
104585
104234
103931
103604
103326
103028
102778
102492
102254
101952
101701
101343
101048
100597
100252
99686.2
99299.1
98592.5
98171.9
97277.4
96835.4
95679.6
95241
93714.1
93324.7
91260.6
91007.8
88152.5
88191.2
84145
84743.5
78867.1
80471.8
71729.4
75091.8
61790.4
68248.2
47698
59762.5
27602.8
49553.8
-2472.13
35675.9
-55362.4
10050.1
-174669
-20692.2
-76142.2
1388.25
-33652.6
15028.6
-6313.17
24385.3
11966.9
31519.9
24983.6
37817
34970.4
43659.8
42932.5
48972
49381.6
53682.3
54649
57778.4
58957.3
61285.4
62489.3
64263.4
65405.5
66792.5
67841.7
68955
69910.2
70821
71695.8
72449.1
73262.8
73883
74656.9
75148.3
75907.8
76256.5
77036
77206.8
78068.7
77988.8
79057.1
78571.6
80117.8
78859.1
106955
106647
106506
106109
105897
105525
105257
104896
104593
104241
103936
103609
103330
103032
102780
102495
102256
101954
101702
101345
101050
100599
100255
99690.3
99303.3
98598.2
98177.4
97284.8
96842.4
95689.3
95249.8
93726.5
93335.3
91276.1
91019.9
88171.1
88204.5
84166.8
84757.7
78892.9
80487
71760.2
75108.8
61827.5
68267.4
47741.3
59784.4
27650.2
49580.6
-2424.33
35715.9
-55345.4
10058.1
-175335
-20851.9
-76128
1380.49
-33630.3
15031.2
-6294.96
24388.3
11983
31524.6
24999.1
37822.9
34984
43665.8
42943.7
48977.9
49390.8
53687.6
54656.4
57782.9
58963
61288.9
62493.4
64266.1
65408.7
66794.8
67844.3
68957.3
69912.7
70823.6
71698.4
72452.1
73265.3
73886.1
74659.1
75151.5
75909.3
76259.8
77036.6
77210.3
78068.2
77993.1
79054.9
78577.9
80112.6
78869.2
106983
106669
106527
106125
105911
105537
105267
104905
104600
104247
103942
103614
103334
103035
102783
102497
102258
101956
101704
101346
101052
100602
100258
99694.4
99307.4
98603.7
98182.7
97292.1
96849.2
95698.9
95258.4
93738.7
93345.8
91291.4
91032
88189.6
88217.8
84188.7
84771.9
78918.7
80502.3
71791
75125.7
61864.5
68286.6
47784.5
59806.2
27697.6
49607.3
-2376.78
35755.5
-55328.6
10065.8
-176006
-21012.1
-76112.7
1373.04
-33607.8
15034.1
-6276.68
24391.5
11999.1
31529.3
25014.5
37828.9
34997.6
43671.9
42955
48983.7
49400
53693
54663.7
57787.4
58968.6
61292.5
62497.6
64268.9
65411.8
66797.2
67846.9
68959.7
69915.2
70826.2
71700.9
72455
73267.8
73889.3
74661.2
75154.7
75910.9
76263
77037.3
77213.8
78067.7
77997.5
79052.8
78584.1
80107.4
78879.3
107011
106691
106549
106142
105925
105549
105277
104914
104608
104254
103947
103618
103338
103038
102786
102499
102259
101958
101705
101348
101054
100605
100260
99698.3
99311.4
98609.1
98188
97299.2
96855.9
95708.2
95266.8
93750.8
93356.1
91306.6
91044
88208.1
88231.1
84210.6
84786.2
78944.5
80517.6
71821.8
75142.7
61901.6
68305.8
47827.7
59828
27744.9
49633.8
-2329.47
35794.8
-55312.2
10073.2
-176681
-21172.8
-76096.1
1365.9
-33585.1
15037.1
-6258.31
24394.7
12015.3
31534.2
25030
37835
35011.2
43678
42966.4
48989.6
49409.3
53698.4
54671.1
57791.9
58974.2
61296.1
62501.8
64271.7
65415
66799.5
67849.5
68962
69917.7
70828.9
71703.5
72458
73270.3
73892.5
74663.4
75158
75912.5
76266.2
77038
77217.3
78067.3
78001.8
79050.6
78590.3
80102.3
78889.3
107040
106713
106570
106158
105940
105561
105287
104923
104615
104261
103953
103623
103342
103041
102788
102502
102261
101959
101707
101350
101056
100608
100263
99702.2