/*--------------------------------*- C++ -*----------------------------------*\
| =========                 |                                                 |
| \\      /  F ield         | OpenFOAM: The Open Source CFD Toolbox           |
|  \\    /   O peration     | Version:  2412                                  |
|   \\  /    A nd           | Website:  www.openfoam.com                      |
|    \\/     M anipulation  |                                                 |
\*---------------------------------------------------------------------------*/
FoamFile
{
    version     2.0;
    format      ascii;
    arch        "LSB;label=32;scalar=64";
    class       surfaceScalarField;
    location    "0.9";
    object      phi;
}
// * * * * * * * * * * * * * * * * * * * * * * * * * * * * * * * * * * * * * //

dimensions      [0 3 -1 0 0 0 0];

oriented        oriented;

internalField   nonuniform List<scalar> 
25922
(
0.00749498
0.0252912
0.00745146
0.0203995
0.00744002
0.0160377
0.00744821
0.0127326
0.00747021
0.0100842
0.00749793
0.00814944
0.00752276
0.00634129
0.00753657
0.00437342
0.00753267
0.00201945
0.00750868
-0.000669573
0.00746518
-0.00347834
0.00740603
-0.00620217
0.00733641
-0.00859212
0.00726322
-0.0105445
0.00719474
-0.0118876
0.00714135
-0.0125722
0.00711286
-0.0124293
0.00711359
-0.0116217
0.00713694
-0.0102579
0.00716964
-0.00888473
0.00720003
-0.00761202
0.00722441
-0.00674234
0.00724334
-0.00593318
0.00725975
-0.00547217
0.00727409
-0.00483636
0.00728793
-0.00454505
0.00729998
-0.00393626
0.00731181
-0.00376685
0.00732129
-0.00311025
0.00733098
-0.00310028
0.00733773
-0.00234592
0.00734545
-0.00250744
0.00734957
-0.00159303
0.00735588
-0.00200033
0.0073577
-0.000855151
0.00736328
-0.00157107
0.00736283
-6.85626e-05
0.00736818
-0.00122136
0.000813277
0.00749536
0.0253716
0.00745252
0.0204423
0.00744199
0.0160482
0.00745114
0.0127235
0.00747408
0.0100613
0.00750271
0.00812081
0.00752838
0.00631562
0.0075429
0.00435889
0.00753953
0.00202282
0.00751583
-0.000645875
0.00747234
-0.00343486
0.00741292
-0.00614275
0.00734272
-0.00852191
0.0072686
-0.0104703
0.00719875
-0.0118178
0.00714349
-0.012517
0.00711276
-0.0123986
0.00711132
-0.0116203
0.00713312
-0.0102797
0.00716515
-0.00891676
0.00719551
-0.00764238
0.00722007
-0.0067669
0.00723917
-0.00595228
0.00725567
-0.00548867
0.00727007
-0.00485077
0.00728396
-0.00455893
0.00729607
-0.00394837
0.00730795
-0.00377874
0.0073175
-0.00311979
0.00732723
-0.00311002
0.00733404
-0.00235272
0.0073418
-0.00251519
0.00734596
-0.00159719
0.00735231
-0.00200668
0.00735416
-0.000856999
0.00735979
-0.0015767
0.00735939
-6.81657e-05
0.00736483
-0.00122679
0.00736189
0.000816222
0.00736707
-0.000894908
0.00735964
0.00182789
0.00736182
-0.000716891
0.00734463
0.00260631
0.00733999
-0.00138917
0.0073115
0.00211564
0.00730633
-0.00387174
0.00728237
6.83015e-05
0.00730603
-0.00629027
0.0073287
0.000331149
0.00741332
-0.000416884
0.00748494
0.0107524
0.00757585
0.0324
0.00760734
0.0614604
0.0076563
-0.0186561
0.00766493
-0.0478519
0.0077148
-0.0295106
0.00774734
-0.0114303
0.00780368
-0.0105341
0.00785981
-0.00226632
0.00792743
-0.00208093
0.00798512
0.00418818
0.00803052
0.0033349
0.00805316
0.00638781
0.00805638
0.00392961
0.00804452
0.00477205
0.00802347
0.00220303
0.00800038
0.00248516
0.00797565
0.000625735
0.000878938
0.00749575
0.0254516
0.00745361
0.0204845
0.00744401
0.0160578
0.00745413
0.0127134
0.007478
0.0100374
0.00750755
0.00809125
0.00753406
0.00628911
0.00754931
0.00434364
0.00754648
0.00202566
0.00752309
-0.000622484
0.00747964
-0.0033914
0.00741996
-0.00608307
0.00734921
-0.00845116
0.00727418
-0.0103953
0.007203
-0.0117466
0.0071459
-0.0124599
0.00711293
-0.0123656
0.00710925
-0.0116166
0.00712942
-0.0102999
0.00716069
-0.00894803
0.00719097
-0.00767266
0.0072157
-0.00679163
0.00723497
-0.00597156
0.00725157
-0.00550527
0.00726604
-0.00486524
0.00727998
-0.00457287
0.00729215
-0.00396053
0.0073041
-0.00379068
0.00731371
-0.00312941
0.0073235
-0.00311981
0.00733036
-0.00235959
0.00733816
-0.00252299
0.00734236
-0.00160139
0.00734875
-0.00201307
0.00735064
-0.000858889
0.00735632
-0.00158239
0.00735599
-6.78306e-05
0.00736151
-0.00123231
0.00735867
0.000819064
0.00736399
-0.000900235
0.00735675
0.00183514
0.00735913
-0.000719278
0.00734211
0.00262334
0.00733754
-0.0013846
0.00730884
0.00214434
0.00730319
-0.0038661
0.00727835
9.3138e-05
0.00730102
-0.00631294
0.00732294
0.000309236
0.00740806
-0.000502001
0.00748129
0.0106791
0.00757518
0.0323061
0.00760986
0.0614257
0.00765698
-0.0187032
0.00766133
-0.0478562
0.00770883
-0.0295581
0.00774056
-0.0114621
0.00779707
-0.0105906
0.0078545
-0.00232375
0.00792424
-0.00215067
0.00798496
0.00412745
0.00803365
0.00328622
0.00805964
0.00636182
0.00806562
0.00392363
0.00805598
0.00478169
0.00803643
0.00222257
0.00801436
0.00250723
0.00799025
0.000649843
0.00796908
0.000900108
0.00794775
-0.000308496
0.00793038
-1.43187e-05
0.00791322
-0.000635598
0.00790013
-0.000193206
0.00788767
-0.000315154
0.00787885
0.000290064
0.00787062
0.000532244
0.00786494
0.00122588
0.00785934
0.00167963
0.00785507
0.00232502
0.00785044
0.00278498
0.00784581
0.00327228
0.00784037
0.0036233
0.00783345
0.00384843
0.00782514
0.00403282
0.00781354
0.00397942
0.00780017
0.00404623
0.00778189
0.00378794
0.00776281
0.0038526
0.0077385
0.0034415
0.00771589
0.00368958
0.00768854
0.00316942
0.00766577
0.0037125
0.00763808
0.00300832
0.00761564
0.00393937
0.0075871
0.0028774
0.00755921
0.00424976
0.00752687
0.00251517
0.00747652
0.00438432
0.00113787
0.00749614
0.0255312
0.00745472
0.0205259
0.00744607
0.0160665
0.00745716
0.0127023
0.00748198
0.0100126
0.00751246
0.00806077
0.00753981
0.00626176
0.00755581
0.00432765
0.00755352
0.00202794
0.00753045
-0.000599411
0.00748705
-0.00334801
0.00742715
-0.00602317
0.00735586
-0.00837987
0.00727996
-0.0103194
0.00720748
-0.0116741
0.00714858
-0.012401
0.00711336
-0.0123304
0.00710742
-0.0116107
0.00712587
-0.0103184
0.0071563
-0.00897845
0.00718643
-0.00770279
0.00721131
-0.00681652
0.00723076
-0.005991
0.00724745
-0.00552197
0.00726199
-0.00487977
0.00727598
-0.00458686
0.00728821
-0.00397277
0.00730023
-0.0038027
0.00730991
-0.0031391
0.00731977
-0.00312966
0.00732669
-0.00236651
0.00733454
-0.00253083
0.00733879
-0.00160563
0.00734521
-0.00201949
0.00734715
-0.000860821
0.00735288
-0.00158812
0.00735261
-6.75606e-05
0.00735822
-0.00123791
0.00735548
0.000821797
0.00736096
-0.00090571
0.00735389
0.0018422
0.0073565
-0.000721884
0.00733966
0.00264018
0.00733515
-0.00138009
0.00730626
0.00217323
0.00730013
-0.00385997
0.00727441
0.000118861
0.00729607
-0.0063346
0.00731717
0.000288129
0.00740273
-0.000587562
0.00747758
0.0106043
0.00757451
0.0322092
0.00761241
0.0613878
0.00765767
-0.0187485
0.00765767
-0.0478562
0.0077027
-0.0296032
0.00773355
-0.0114929
0.00779015
-0.0106472
0.00784881
-0.00238242
0.00792062
-0.00222247
0.00798438
0.00406369
0.00803637
0.00323422
0.00806578
0.00633241
0.0080746
0.0039148
0.00806727
0.00478902
0.0080493
0.00224053
0.00802832
0.00252821
0.00800488
0.000673282
0.00798413
0.000920858
0.00796306
-0.000287425
0.00794587
2.87884e-06
0.00792884
-0.00061857
0.00791581
-0.000180175
0.00790338
-0.000302721
0.00789452
0.000298915
0.00788621
0.000540554
0.00788041
0.00123169
0.00787464
0.0016854
0.00787018
0.00232948
0.00786539
0.00278977
0.00786067
0.003277
0.00785526
0.00362871
0.00784853
0.00385516
0.00784064
0.00404071
0.00782967
0.00399039
0.00781715
0.00405875
0.00779986
0.00380523
0.00778186
0.00387059
0.00775852
0.00346484
0.00773685
0.00371126
0.00771007
0.0031962
0.00768791
0.00373466
0.00766036
0.00303586
0.00763841
0.00396132
0.0076098
0.00290601
0.00758264
0.00427692
0.00755011
0.0025477
0.00750077
0.00443366
0.00120271
0.00749655
0.0256104
0.00745586
0.0205666
0.00744817
0.0160742
0.00746025
0.0126902
0.00748602
0.00998679
0.00751743
0.00802936
0.00754564
0.00623355
0.00756238
0.00431091
0.00756065
0.00202966
0.00753792
-0.000576676
0.00749459
-0.00330468
0.00743448
-0.00596305
0.00736268
-0.00830807
0.00728594
-0.0102427
0.0072122
-0.0116004
0.00715152
-0.0123403
0.00711408
-0.0122929
0.00710583
-0.0116024
0.00712249
-0.010335
0.00715198
-0.00900794
0.00718191
-0.00773272
0.00720691
-0.00684152
0.00722652
-0.0060106
0.00724331
-0.00553877
0.00725792
-0.00489438
0.00727196
-0.00460091
0.00728427
-0.00398507
0.00729635
-0.00381478
0.00730612
-0.00314886
0.00731604
-0.00313959
0.00732303
-0.0023735
0.00733093
-0.00253873
0.00733523
-0.00160993
0.0073417
-0.00202596
0.00734368
-0.000862801
0.00734947
-0.00159391
0.00734926
-6.73576e-05
0.00735495
-0.0012436
0.00735233
0.00082442
0.00735796
-0.000911338
0.00735109
0.00184907
0.00735392
-0.000724716
0.00733726
0.00265684
0.00733283
-0.00137566
0.00730376
0.0022023
0.00729716
-0.00385338
0.00727055
0.000145477
0.00729116
-0.00635521
0.00731141
0.00026788
0.00739736
-0.000673517
0.00747382
0.0105278
0.00757381
0.0321092
0.007615
0.0613466
0.00765837
-0.0187919
0.00765394
-0.0478518
0.00769642
-0.0296456
0.00772632
-0.0115228
0.00778293
-0.0107038
0.00784276
-0.00244225
0.00791659
-0.0022963
0.00798335
0.00399693
0.00803868
0.0031789
0.00807155
0.00629954
0.00808329
0.00390306
0.00807834
0.00479397
0.00806203
0.00225684
0.00804221
0.00254804
0.0080195
0.000695996
0.00799923
0.000941127
0.00797847
-0.000266669
0.00796148
1.98699e-05
0.00794461
-0.000601699
0.00793167
-0.000167236
0.0079193
-0.000290348
0.00791043
0.000307777
0.00790208
0.000548911
0.00789615
0.00123761
0.00789024
0.00169131
0.00788561
0.00233411
0.00788067
0.00279471
0.00787584
0.00328183
0.00787043
0.00363412
0.00786386
0.00386173
0.00785633
0.00404824
0.00784595
0.00400077
0.00783425
0.00407045
0.00781793
0.00382154
0.00780105
0.00388748
0.00777875
0.00348713
0.00775811
0.0037319
0.00773206
0.00322225
0.00771063
0.00375609
0.00768337
0.00306312
0.00766203
0.00398266
0.00763346
0.00293457
0.0076071
0.00430328
0.00757448
0.00258032
0.00752627
0.00448187
0.00126778
0.00749697
0.0256892
0.00745703
0.0206065
0.00745031
0.0160809
0.00746339
0.0126771
0.00749012
0.00996005
0.00752247
0.00799702
0.00755154
0.00620448
0.00756903
0.00429342
0.00756788
0.00203081
0.00754549
-0.000554289
0.00750225
-0.00326144
0.00744195
-0.00590275
0.00736968
-0.0082358
0.00729213
-0.0101651
0.00721716
-0.0115254
0.00715474
-0.0122779
0.00711509
-0.0122533
0.0071045
-0.0115918
0.00711929
-0.0103498
0.00714775
-0.0090364
0.00717741
-0.00776238
0.0072025
-0.00686661
0.00722226
-0.00603036
0.00723915
-0.00555566
0.00725383
-0.00490905
0.00726793
-0.00461501
0.00728031
-0.00399745
0.00729246
-0.00382693
0.00730232
-0.00315872
0.00731231
-0.00314958
0.00731938
-0.00238057
0.00732734
-0.00254669
0.00733169
-0.00161428
0.0073382
-0.00203247
0.00734023
-0.00086483
0.00734607
-0.00159976
0.00734594
-6.72239e-05
0.00735172
-0.00124938
0.00734921
0.000826929
0.00735499
-0.000917119
0.00734832
0.00185575
0.00735138
-0.000727781
0.00733492
0.0026733
0.00733058
-0.00137132
0.00730134
0.00223154
0.00729428
-0.00384631
0.00726677
0.000172988
0.0072863
-0.00637475
0.00730564
0.000248543
0.00739194
-0.000759812
0.00747
0.0104497
0.0075731
0.0320061
0.00761763
0.0613021
0.0076591
-0.0188333
0.00765017
-0.0478429
0.00769001
-0.0296855
0.00771887
-0.0115517
0.00777541
-0.0107604
0.00783634
-0.00250318
0.00791213
-0.00237209
0.00798186
0.00392719
0.00804053
0.00312023
0.00807692
0.00626315
0.00809165
0.00388833
0.00808917
0.00479645
0.00807459
0.00227142
0.008056
0.00256663
0.00803406
0.000717931
0.00801432
0.00096087
0.00799392
-0.000246267
0.00797716
3.66218e-05
0.00796048
-0.000585013
0.00794766
-0.000154414
0.00793537
-0.00027806
0.00792652
0.000316623
0.00791815
0.00055729
0.00791213
0.00124363
0.0079061
0.00169734
0.0079013
0.0023389
0.00789621
0.00279981
0.00789126
0.00328678
0.00788583
0.00363955
0.00787938
0.00386818
0.00787217
0.00405545
0.00786232
0.00401062
0.0078514
0.00408137
0.00783605
0.00383689
0.00782027
0.00390326
0.00779909
0.00350831
0.00777957
0.00375142
0.00775438
0.00324745
0.00773381
0.00377666
0.00770699
0.00308993
0.00768636
0.00400329
0.00765797
0.00296297
0.00763249
0.00432876
0.00759988
0.00261293
0.0075529
0.00452884
0.00133291
0.00749741
0.0257676
0.00745822
0.0206457
0.00745249
0.0160866
0.00746659
0.012663
0.00749429
0.00993235
0.00752758
0.00796373
0.00755751
0.00617455
0.00757576
0.00427517
0.0075752
0.00203137
0.00755317
-0.000532267
0.00751004
-0.00321831
0.00744957
-0.00584228
0.00737685
-0.00816307
0.00729851
-0.0100868
0.00722236
-0.0114493
0.00715824
-0.0122138
0.00711639
-0.0122114
0.00710344
-0.0115789
0.00711628
-0.0103627
0.00714363
-0.00906375
0.00717294
-0.0077917
0.00719809
-0.00689175
0.00721798
-0.00605026
0.00723497
-0.00557265
0.00724972
-0.0049238
0.00726388
-0.00462917
0.00727634
-0.0040099
0.00728857
-0.00383917
0.00729851
-0.00316866
0.00730859
-0.00315965
0.00731573
-0.00238772
0.00732375
-0.00255471
0.00732817
-0.0016187
0.00733472
-0.00203903
0.00733681
-0.000866912
0.00734271
-0.00160566
0.00734265
-6.71628e-05
0.00734852
-0.00125525
0.00734613
0.000829321
0.00735206
-0.000923058
0.00734559
0.00186222
0.00734889
-0.000731083
0.00733264
0.00268956
0.0073284
-0.00136708
0.007299
0.00226094
0.00729148
-0.00383879
0.00726307
0.000201398
0.00728151
-0.00639319
0.00729988
0.000230169
0.00738646
-0.000846389
0.00746611
0.0103701
0.00757237
0.0318998
0.00762031
0.0612541
0.00765986
-0.0188729
0.00764636
-0.0478294
0.00768347
-0.0297226
0.00771121
-0.0115794
0.00776761
-0.0108168
0.00782955
-0.00256512
0.00790724
-0.00244978
0.00797991
0.00385452
0.00804192
0.00305821
0.00808186
0.00622321
0.00809965
0.00387054
0.00809972
0.00479638
0.00808695
0.00228419
0.00806966
0.00258393
0.00804856
0.000739029
0.00802939
0.000980038
0.00800938
-0.000226255
0.0079929
5.31006e-05
0.00797643
-0.000568541
0.00796375
-0.000141738
0.00795157
-0.000265883
0.00794277
0.000325427
0.00793439
0.000565666
0.00792831
0.00124971
0.00792218
0.00170348
0.00791724
0.00234384
0.00791199
0.00280505
0.00790692
0.00329185
0.00790145
0.00364503
0.00789509
0.00387453
0.00788814
0.0040624
0.00787879
0.00401997
0.00786858
0.00409158
0.00785417
0.00385131
0.0078395
0.00391792
0.00781947
0.00352834
0.00780114
0.00376975
0.00777693
0.00327166
0.00775735
0.00379624
0.00773112
0.00311615
0.00771132
0.0040231
0.00768322
0.00299106
0.00765871
0.00435327
0.00762622
0.00264541
0.00758058
0.00457449
0.00139794
0.00749785
0.0258455
0.00745944
0.0206841
0.00745472
0.0160913
0.00746984
0.0126479
0.00749852
0.00990367
0.00753275
0.00792949
0.00756356
0.00614374
0.00758257
0.00425616
0.00758261
0.00203133
0.00756096
-0.000510625
0.00751796
-0.0031753
0.00745735
-0.00578167
0.00738419
-0.00808992
0.00730511
-0.0100077
0.00722781
-0.011372
0.00716203
-0.012148
0.00711801
-0.0121674
0.00710267
-0.0115635
0.00711349
-0.0103735
0.00713963
-0.00908989
0.00716852
-0.00782059
0.00719367
-0.0069169
0.00721369
-0.00607028
0.00723077
-0.00558974
0.0072456
-0.00493862
0.00725981
-0.00464339
0.00727235
-0.00402243
0.00728466
-0.00385148
0.0072947
-0.0031787
0.00730486
-0.00316981
0.00731209
-0.00239495
0.00732018
-0.00256279
0.00732466
-0.00162318
0.00733127
-0.00204565
0.00733341
-0.000869051
0.00733937
-0.00161162
0.00733938
-6.71765e-05
0.00734535
-0.00126121
0.00734307
0.000831593
0.00734917
-0.000929157
0.00734291
0.00186849
0.00734645
-0.00073463
0.00733042
0.00270559
0.00732629
-0.00136294
0.00729674
0.00229048
0.00728876
-0.00383081
0.00725946
0.000230707
0.00727678
-0.00641052
0.00729414
0.000212812
0.00738094
-0.000933189
0.00746217
0.0102889
0.00757162
0.0317904
0.00762303
0.0612027
0.00766066
-0.0189105
0.00764251
-0.0478112
0.00767682
-0.0297569
0.00770335
-0.0116059
0.00775952
-0.0108729
0.00782239
-0.00262799
0.00790192
-0.0025293
0.00797747
0.00377896
0.00804283
0.00299286
0.00808636
0.00617968
0.00810727
0.00384963
0.00810997
0.00479367
0.00809909
0.00229507
0.00808316
0.00259986
0.00806296
0.000759233
0.00804441
0.000998583
0.00802483
-0.000206672
0.00800866
6.9273e-05
0.00799243
-0.00055231
0.00797992
-0.000129234
0.00796788
-0.000253842
0.00795915
0.000334164
0.0079508
0.000574014
0.00794467
0.00125583
0.00793846
0.0017097
0.00793338
0.00234892
0.007928
0.00281043
0.0079228
0.00329705
0.00791727
0.00365056
0.00791097
0.00388084
0.00790424
0.00406913
0.00789533
0.00402889
0.00788579
0.00410112
0.00787227
0.00386483
0.0078587
0.00393149
0.00783985
0.00354719
0.00782276
0.00378684
0.00779963
0.00329479
0.00778115
0.00381473
0.00775566
0.00314164
0.0077368
0.00404196
0.00770914
0.00301873
0.00768569
0.00437672
0.00765343
0.00267767
0.00760922
0.0046187
0.00146269
0.00749831
0.0259229
0.00746069
0.0207218
0.00745699
0.0160951
0.00747315
0.0126317
0.00750282
0.00987401
0.007538
0.00789431
0.00756968
0.00611207
0.00758947
0.00423637
0.00759011
0.00203069
0.00756887
-0.000489378
0.007526
-0.00313244
0.00746527
-0.00572093
0.00739171
-0.00801636
0.00731192
-0.00992792
0.00723351
-0.0112935
0.00716611
-0.0120806
0.00711994
-0.0121212
0.0071022
-0.0115458
0.00711094
-0.0103822
0.00713576
-0.00911472
0.00716416
-0.00784899
0.00718927
-0.00694201
0.0072094
-0.00609041
0.00722656
-0.0056069
0.00724145
-0.00495351
0.00725573
-0.00465767
0.00726834
-0.00403505
0.00728074
-0.00386388
0.00729088
-0.00318884
0.00730113
-0.00318006
0.00730846
-0.00240228
0.00731662
-0.00257095
0.00732117
-0.00162773
0.00732783
-0.00205231
0.00733003
-0.00087125
0.00733606
-0.00161765
0.00733615
-6.72678e-05
0.00734221
-0.00126727
0.00734006
0.000833743
0.00734632
-0.000935419
0.00734026
0.00187455
0.00734406
-0.000738429
0.00732826
0.0027214
0.00732424
-0.00135893
0.00729457
0.00232015
0.00728614
-0.00382238
0.00725593
0.000260915
0.00727212
-0.00642671
0.00728841
0.000196523
0.00737538
-0.00102015
0.00745816
0.0102061
0.00757085
0.0316777
0.0076258
0.0611478
0.00766151
-0.0189462
0.00763864
-0.0477884
0.00767006
-0.0297883
0.0076953
-0.0116312
0.00775116
-0.0109288
0.00781487
-0.00269171
0.00789616
-0.00261058
0.00797455
0.00370057
0.00804323
0.00292418
0.00809038
0.00613252
0.00811448
0.00382553
0.00811989
0.00478826
0.00811098
0.00230399
0.00809649
0.00261434
0.00807724
0.000778484
0.00805937
0.00101646
0.00804025
-0.000187556
0.00802442
8.5105e-05
0.00800846
-0.000536348
0.00799615
-0.000116928
0.00798427
-0.000241963
0.00797563
0.000342808
0.00796733
0.000582309
0.00796119
0.00126198
0.00795491
0.00171597
0.00794972
0.00235411
0.00794421
0.00281595
0.00793888
0.00330237
0.00793328
0.00365617
0.00792701
0.00388711
0.00792046
0.00407567
0.00791194
0.00403742
0.00790301
0.00411004
0.00789035
0.0038775
0.00787783
0.00394401
0.00786017
0.00356485
0.00784436
0.00380264
0.00782241
0.00331674
0.00780513
0.00383201
0.00778052
0.00316625
0.00776271
0.00405976
0.00773562
0.00304582
0.00771332
0.00439902
0.0076814
0.00270959
0.00763873
0.00466137
0.00152701
0.00749878
0.0259999
0.00746197
0.0207586
0.00745931
0.0160977
0.00747653
0.0126145
0.00750718
0.00984336
0.00754332
0.00785817
0.00757588
0.00607951
0.00759645
0.00421579
0.00759771
0.00202943
0.00757688
-0.000468543
0.00753418
-0.00308974
0.00747334
-0.0056601
0.00739941
-0.00794243
0.00731894
-0.00984744
0.00723947
-0.0112141
0.00717049
-0.0120116
0.0071222
-0.0120729
0.00710205
-0.0115257
0.00710864
-0.0103888
0.00713206
-0.00913814
0.00715987
-0.00787679
0.00718489
-0.00696703
0.00720509
-0.00611061
0.00722233
-0.00562414
0.00723729
-0.00496847
0.00725162
-0.004672
0.00726432
-0.00404775
0.00727681
-0.00387637
0.00728706
-0.00319909
0.0072974
-0.0031904
0.00730483
-0.00240971
0.00731306
-0.00257919
0.00731769
-0.00163235
0.00732442
-0.00205904
0.00732668
-0.000873514
0.00733277
-0.00162374
0.00733294
-6.74397e-05
0.0073391
-0.00127342
0.00733707
0.000835766
0.0073435
-0.000941847
0.00733766
0.00188039
0.00734172
-0.000742485
0.00732615
0.00273696
0.00732227
-0.00135505
0.00729248
0.00234994
0.00728361
-0.00381351
0.00725251
0.00029202
0.00726754
-0.00644174
0.00728271
0.000181353
0.00736977
-0.00110721
0.00745408
0.0101218
0.00757005
0.0315617
0.00762862
0.0610892
0.00766241
-0.01898
0.00763475
-0.0477607
0.0076632
-0.0298168
0.00768708
-0.0116551
0.00774252
-0.0109842
0.007807
-0.00275619
0.00788996
-0.00269354
0.00797112
0.00361941
0.00804311
0.00285219
0.00809391
0.00608172
0.00812125
0.00379819
0.00812945
0.00478006
0.00812258
0.00231086
0.00810961
0.00262732
0.00809137
0.00079672
0.00807422
0.00103361
0.00805561
-0.000168948
0.00804016
0.000100563
0.00802449
-0.000520684
0.00801241
-0.000104849
0.00800072
-0.000230269
0.00799219
0.000351334
0.00798398
0.000590527
0.00797784
0.00126812
0.00797152
0.00172229
0.00796623
0.0023594
0.0079606
0.00282158
0.00795515
0.00330782
0.00794947
0.00366185
0.0079432
0.00389337
0.0079368
0.00408207
0.00792862
0.00404561
0.00792025
0.0041184
0.00790838
0.00388937
0.00789689
0.0039555
0.0078804
0.00358134
0.0078659
0.00381714
0.00784519
0.00333744
0.00782919
0.00384801
0.00780559
0.00318985
0.00778895
0.0040764
0.00776256
0.00307222
0.0077415
0.00442008
0.00771005
0.00274104
0.00766901
0.00470241
0.00159073
0.00749927
0.0260764
0.00746329
0.0207945
0.00746168
0.0160993
0.00747996
0.0125962
0.00751161
0.00981171
0.00754871
0.00782107
0.00758215
0.00604607
0.00760351
0.00419443
0.00760541
0.00202753
0.007585
-0.000448132
0.00754248
-0.00304723
0.00748157
-0.00559919
0.0074073
-0.00786815
0.00732618
-0.00976632
0.00724568
-0.0111336
0.00717517
-0.0119411
0.0071248
-0.0120225
0.00710223
-0.0115031
0.00710661
-0.0103932
0.00712854
-0.00916007
0.00715567
-0.00790393
0.00718054
-0.0069919
0.0072008
-0.00613087
0.0072181
-0.00564144
0.00723311
-0.00498348
0.0072475
-0.00468639
0.00726028
-0.00406053
0.00727286
-0.00388894
0.00728322
-0.00320945
0.00729366
-0.00320085
0.0073012
-0.00241724
0.00730952
-0.00258751
0.00731423
-0.00163706
0.00732102
-0.00206584
0.00732336
-0.000875846
0.00732951
-0.00162989
0.00732977
-6.76955e-05
0.00733602
-0.00127968
0.00733413
0.00083766
0.00734072
-0.000948443
0.0073351
0.001886
0.00733942
-0.000746806
0.00732411
0.00275227
0.00732037
-0.00135132
0.00729048
0.00237984
0.00728118
-0.00380421
0.00724918
0.00032402
0.00726304
-0.0064556
0.00727704
0.000167354
0.00736413
-0.0011943
0.00744994
0.010036
0.00756923
0.0314424
0.00763149
0.0610269
0.00766336
-0.0190119
0.00763086
-0.0477282
0.00765625
-0.0298422
0.00767868
-0.0116775
0.00773364
-0.0110392
0.00779877
-0.00282132
0.00788333
-0.0027781
0.00796719
0.00353556
0.00804245
0.00277692
0.00809691
0.00602727
0.00812755
0.00376755
0.00813862
0.00476899
0.00813388
0.0023156
0.0081225
0.0026387
0.00810534
0.000813879
0.00808896
0.00104999
0.0080709
-0.000150886
0.00805585
0.000115611
0.00804051
-0.000505347
0.00802868
-9.30215e-05
0.0080172
-0.000218786
0.00800882
0.000359716
0.0080007
0.000598643
0.00799459
0.00127423
0.00798826
0.00172862
0.0079829
0.00236476
0.00797716
0.00282732
0.00797159
0.00331339
0.00796581
0.00366763
0.00795954
0.00389965
0.00795325
0.00408835
0.00794536
0.0040535
0.00793749
0.00412627
0.00792637
0.00390049
0.00791585
0.00396602
0.00790052
0.00359666
0.00788732
0.00383035
0.00786792
0.00335684
0.00785328
0.00386265
0.0078308
0.00321232
0.00781543
0.00409177
0.00778987
0.00309777
0.00777014
0.00443981
0.00773927
0.00277191
0.00769996
0.00474172
0.00165371
0.00749977
0.0261524
0.00746463
0.0208297
0.0074641
0.0160999
0.00748346
0.0125769
0.00751611
0.00977906
0.00755418
0.007783
0.00758851
0.00601174
0.00761067
0.00417227
0.0076132
0.002025
0.00759323
-0.000428166
0.00755092
-0.00300491
0.00748996
-0.00553823
0.00741537
-0.00779356
0.00733364
-0.00968459
0.00725215
-0.0110521
0.00718016
-0.0118691
0.00712774
-0.0119701
0.00710276
-0.0114781
0.00710487
-0.0103953
0.00712521
-0.00918041
0.00715158
-0.00793029
0.00717623
-0.00701655
0.00719651
-0.00615115
0.00721385
-0.00565879
0.00722892
-0.00499855
0.00724336
-0.00470082
0.00725622
-0.00407339
0.00726889
-0.00390161
0.00727937
-0.00321993
0.00728992
-0.0032114
0.00729757
-0.00242489
0.00730598
-0.00259593
0.00731078
-0.00164186
0.00731765
-0.0020727
0.00732005
-0.000878251
0.00732628
-0.00163611
0.00732662
-6.80379e-05
0.00733297
-0.00128603
0.00733121
0.000839422
0.00733798
-0.00095521
0.00733259
0.0018914
0.00733718
-0.000751396
0.00732212
0.00276733
0.00731855
-0.00134774
0.00728857
0.00240982
0.00727884
-0.00379449
0.00724596
0.000356909
0.00725862
-0.00646826
0.0072714
0.000154576
0.00735845
-0.00128136
0.00744573
0.00994868
0.00756838
0.0313198
0.00763442
0.0609609
0.00766438
-0.0190418
0.00762697
-0.0476908
0.00764923
-0.0298644
0.00767012
-0.0116984
0.0077245
-0.0110936
0.0077902
-0.00288702
0.00787626
-0.00286416
0.00796274
0.00344908
0.00804125
0.00269841
0.00809937
0.00596915
0.00813336
0.00373355
0.00814737
0.00475498
0.00814483
0.00231814
0.00813512
0.00264841
0.0081191
0.0008299
0.00810355
0.00106554
0.00808607
-0.000133412
0.00807147
0.000130215
0.00805649
-0.000490364
0.00804494
-8.14737e-05
0.00803369
-0.000207538
0.00802548
0.000367929
0.00801749
0.000606633
0.00801143
0.00128028
0.00800511
0.00173495
0.00799968
0.00237019
0.00799385
0.00283315
0.00798817
0.00331907
0.00798231
0.00367349
0.007976
0.00390595
0.0079698
0.00409456
0.00796215
0.00406114
0.00795474
0.00413368
0.00794431
0.00391091
0.0079347
0.00397563
0.00792051
0.00361086
0.0079086
0.00384226
0.00789053
0.00337491
0.0078773
0.00387588
0.00785606
0.00323357
0.00784204
0.00410578
0.00781745
0.00312236
0.00779915
0.00445811
0.00776898
0.00280208
0.00773149
0.00477921
0.0017158
0.00750029
0.0262278
0.00746601
0.020864
0.00746657
0.0160993
0.00748702
0.0125564
0.00752068
0.0097454
0.00755972
0.00774396
0.00759494
0.00597653
0.0076179
0.00414931
0.00762109
0.00202181
0.00760158
-0.000408656
0.0075595
-0.00296283
0.00749851
-0.00547724
0.00742362
-0.00771867
0.00734131
-0.00960228
0.00725888
-0.0109696
0.00718546
-0.0117957
0.00713103
-0.0119157
0.00710364
-0.0114507
0.00710345
-0.0103951
0.00712211
-0.00919907
0.00714761
-0.00795579
0.00717198
-0.00704092
0.00719223
-0.0061714
0.00720961
-0.00567617
0.00722472
-0.00501366
0.0072392
-0.0047153
0.00725215
-0.00408634
0.00726491
-0.00391437
0.00727551
-0.00323053
0.00728617
-0.00322207
0.00729394
-0.00243266
0.00730245
-0.00260444
0.00730735
-0.00164676
0.00731429
-0.00207964
0.00731677
-0.000880733
0.00732307
-0.00164241
0.0073235
-6.84705e-05
0.00732996
-0.00129249
0.00732833
0.000841049
0.00733527
-0.00096215
0.00733011
0.00189656
0.00733498
-0.000756263
0.0073202
0.00278211
0.00731679
-0.00134434
0.00728674
0.00243988
0.00727661
-0.00378437
0.00724284
0.000390682
0.00725429
-0.00647972
0.0072658
0.000143066
0.00735275
-0.0013683
0.00744146
0.00985997
0.0075675
0.0311937
0.00763741
0.060891
0.00766547
-0.0190699
0.0076231
-0.0476484
0.00764215
-0.0298835
0.00766141
-0.0117176
0.00771512
-0.0111473
0.00778129
-0.00295319
0.00786876
-0.00295163
0.00795777
0.00336006
0.00803949
0.00261669
0.00810127
0.00590737
0.00813866
0.00369616
0.00815567
0.00473796
0.00815542
0.00231839
0.00814745
0.00265638
0.00813263
0.000844716
0.00811796
0.00108021
0.00810112
-0.000116567
0.00808699
0.000144338
0.00807239
-0.000475766
0.00806115
-7.02317e-05
0.00805016
-0.00019655
0.00804214
0.00037595
0.0080343
0.000614473
0.00802833
0.00128626
0.00802204
0.00174124
0.00801657
0.00237565
0.00801067
0.00283906
0.00800488
0.00332485
0.00799893
0.00367945
0.00799258
0.00391229
0.00798644
0.0041007
0.00797901
0.00406857
0.00797199
0.0041407
0.0079622
0.00392071
0.00795345
0.00398438
0.00794034
0.00362397
0.0079297
0.0038529
0.00791299
0.00339161
0.00790121
0.00388766
0.00788128
0.0032535
0.00786872
0.00411834
0.00784521
0.00314587
0.00782842
0.0044749
0.00779906
0.00283143
0.00776348
0.00481479
0.00177686
0.00750082
0.0263028
0.00746743
0.0208974
0.00746909
0.0160976
0.00749065
0.0125348
0.00752533
0.00971072
0.00756534
0.00770395
0.00760145
0.00594041
0.00762523
0.00412553
0.00762908
0.00201796
0.00761005
-0.000389623
0.00756821
-0.00292098
0.00750721
-0.00541625
0.00743207
-0.00764353
0.00734921
-0.00951942
0.00726588
-0.0108863
0.00719107
-0.0117209
0.00713468
-0.0118593
0.0071049
-0.0114209
0.00710235
-0.0103926
0.00711924
-0.00921597
0.00714378
-0.00798032
0.00716779
-0.00706494
0.00718799
-0.0061916
0.00720537
-0.00569355
0.00722051
-0.0050288
0.00723503
-0.00472982
0.00724805
-0.00409936
0.0072609
-0.00392722
0.00727163
-0.00324126
0.00728241
-0.00323285
0.00729031
-0.00244056
0.00729893
-0.00261305
0.00730393
-0.00165176
0.00731095
-0.00208666
0.00731352
-0.000883299
0.00731989
-0.00164879
0.00732042
-6.8997e-05
0.00732698
-0.00129905
0.00732549
0.000842538
0.00733261
-0.000969267
0.00732768
0.00190149
0.00733283
-0.000761413
0.00731833
0.0027966
0.00731511
-0.00134111
0.007285
0.00246999
0.00727447
-0.00377384
0.00723982
0.00042533
0.00725006
-0.00648996
0.00726025
0.000132874
0.00734702
-0.00145507
0.00743712
0.00976987
0.00756659
0.0310643
0.00764046
0.0608171
0.00766663
-0.0190961
0.00761925
-0.0476011
0.00763501
-0.0298992
0.00765258
-0.0117352
0.00770552
-0.0112002
0.00777205
-0.00301972
0.00786083
-0.00304041
0.00795229
0.0032686
0.00803715
0.00253184
0.00810258
0.00584193
0.0081434
0.00365534
0.0081635
0.00471787
0.0081656
0.00231629
0.00815945
0.00266254
0.0081459
0.000858263
0.00813217
0.00109394
0.008116
-0.000100395
0.00810239
0.000157945
0.00808821
-0.000461581
0.0080773
-5.93228e-05
0.00806659
-0.000185846
0.00805879
0.000383751
0.00805113
0.000622136
0.00804526
0.00129213
0.00803902
0.00174748
0.00803354
0.00238113
0.00802758
0.00284502
0.00802171
0.00333073
0.00801566
0.0036855
0.00800927
0.00391868
0.00800316
0.00410681
0.00799592
0.00407582
0.00798925
0.00414737
0.00798003
0.00392992
0.00797209
0.00399233
0.00796002
0.00363603
0.0079506
0.00386232
0.00793525
0.00340696
0.00792494
0.00389798
0.00790641
0.00327203
0.00789536
0.00412939
0.00787306
0.00316817
0.00785785
0.00449011
0.00782943
0.00285985
0.00779584
0.00484838
0.00183678
0.00750137
0.0263772
0.00746888
0.0209299
0.00747167
0.0160948
0.00749435
0.0125122
0.00753005
0.00967502
0.00757104
0.00766296
0.00760805
0.0059034
0.00763264
0.00410094
0.00763717
0.00201343
0.00761863
-0.00037108
0.00757705
-0.00287941
0.00751608
-0.00535527
0.0074407
-0.00756815
0.00735733
-0.00943606
0.00727314
-0.0108021
0.007197
-0.0116447
0.00713869