/*--------------------------------*- C++ -*----------------------------------*\
| =========                 |                                                 |
| \\      /  F ield         | OpenFOAM: The Open Source CFD Toolbox           |
|  \\    /   O peration     | Version:  2412                                  |
|   \\  /    A nd           | Website:  www.openfoam.com                      |
|    \\/     M anipulation  |                                                 |
\*---------------------------------------------------------------------------*/
FoamFile
{
    version     2.0;
    format      ascii;
    arch        "LSB;label=32;scalar=64";
    class       volVectorField;
    location    "0.9";
    object      U;
}
// * * * * * * * * * * * * * * * * * * * * * * * * * * * * * * * * * * * * * //

dimensions      [0 1 -1 0 0 0 0];

internalField   nonuniform List<vector> 
13077
(
(100.032 -1.91721 0)
(100.655 -5.339 8.14677e-17)
(101.78 -8.50518 -7.63248e-17)
(103.337 -11.0651 0)
(105.12 -13.2334 0)
(107.172 -14.9934 0)
(109.266 -16.6792 0)
(111.371 -18.4794 0)
(113.295 -20.5123 0)
(115.008 -22.7271 -6.74116e-17)
(116.457 -24.9784 0)
(117.679 -27.1271 0)
(118.744 -29.0273 0)
(119.721 -30.6189 -8.57636e-17)
(120.765 -31.8161 0)
(121.989 -32.6143 0)
(123.664 -32.9576 9.47114e-17)
(125.891 -32.9617 9.35654e-17)
(128.799 -32.7405 2.99933e-21)
(132.078 -32.5938 8.55003e-17)
(135.634 -32.5748 0)
(139.135 -32.8271 7.44809e-17)
(142.813 -33.1639 -6.94764e-17)
(146.44 -33.7157 -6.49081e-17)
(150.405 -34.236 0)
(154.325 -34.9775 0)
(158.716 -35.61 -5.41499e-17)
(162.993 -36.5271 5.08767e-17)
(167.9 -37.2515 3.82537e-21)
(172.575 -38.3638 9.01971e-17)
(178.108 -39.1736 0)
(183.237 -40.5211 0)
(189.556 -41.4118 0)
(195.208 -43.0498 3.53788e-17)
(202.533 -44.0155 -3.38148e-17)
(208.792 -46.0157 0)
(217.423 -47.0464 3.0099e-17)
(224.377 -49.4977 0)
(234.715 -50.5849 -2.66223e-17)
(100.033 -1.93475 0)
(100.664 -5.38354 1.29579e-20)
(101.8 -8.57422 7.62312e-17)
(103.371 -11.1514 -7.10813e-17)
(105.168 -13.333 0)
(107.234 -15.1013 0)
(109.342 -16.7898 0)
(111.46 -18.5871 -6.26558e-17)
(113.395 -20.6121 0)
(115.116 -22.8168 6.75194e-17)
(116.569 -25.0574 0)
(117.792 -27.197 7.60159e-17)
(118.851 -29.0904 0)
(119.819 -30.6787 -1.67594e-21)
(120.845 -31.8767 0)
(122.044 -32.6811 0)
(123.684 -33.0354 9.55161e-17)
(125.868 -33.0527 0)
(128.74 -32.842 -9.15883e-17)
(131.997 -32.7002 3.76818e-21)
(135.547 -32.6817 0)
(139.05 -32.9334 -7.59359e-17)
(142.73 -33.2702 -4.17016e-21)
(146.357 -33.8237 0)
(150.321 -34.346 0)
(154.24 -35.0903 0)
(158.63 -35.7254 -5.49964e-17)
(162.907 -36.6459 0)
(167.812 -37.3729 -4.87302e-17)
(172.487 -38.4893 -4.56337e-17)
(178.018 -39.3017 -4.3176e-17)
(183.145 -40.6542 4.0337e-17)
(189.462 -41.5478 3.83109e-17)
(195.112 -43.1917 -3.5664e-17)
(202.435 -44.1605 0)
(208.692 -46.1684 3.15007e-17)
(217.321 -47.2024 -6.0618e-17)
(224.273 -49.6633 -2.76221e-17)
(234.61 -50.7541 5.36223e-17)
(242.353 -53.7828 -6.91809e-21)
(254.935 -54.944 0)
(263.504 -58.74 1.96791e-17)
(278.957 -60.1691 0)
(288.27 -65.1603 3.07343e-17)
(307.535 -67.3505 -3.30831e-17)
(317.787 -73.9139 1.10758e-17)
(342.84 -77.1866 -4.75615e-21)
(355.477 -84.5834 0)
(390.656 -88.409 0)
(409.724 -93.5698 9.60238e-19)
(460.771 -98.0631 -6.90459e-18)
(489.624 -90.4644 0)
(557.864 -94.9719 -1.2761e-18)
(605.66 -3.14964 0)
(557.585 45.3166 -6.13561e-18)
(539.733 58.3504 2.08652e-17)
(502.94 64.5589 6.55737e-19)
(488.006 63.0086 1.55097e-17)
(460.399 64.4509 8.28763e-18)
(448.34 62.8448 4.51715e-18)
(426.861 63.8391 1.8373e-17)
(415.478 61.6615 0)
(396.668 60.9537 2.96455e-17)
(384.424 57.592 2.56194e-17)
(367.201 55.6754 0)
(354.903 52.2347 -4.41881e-17)
(339.818 50.2625 -6.14998e-17)
(328.522 47.4313 0)
(315.724 45.7547 8.19772e-21)
(100.034 -1.95256 0)
(100.673 -5.42859 -1.62564e-16)
(101.82 -8.64398 -7.61141e-17)
(103.406 -11.2385 7.09825e-17)
(105.216 -13.4333 0)
(107.297 -15.2102 0)
(109.418 -16.9012 -6.23873e-17)
(111.55 -18.6956 6.2711e-17)
(113.496 -20.7127 0)
(115.225 -22.9071 0)
(116.683 -25.137 0)
(117.906 -27.2673 -7.61891e-17)
(118.961 -29.1538 8.12595e-17)
(119.919 -30.7386 8.6353e-17)
(120.93 -31.9373 0)
(122.103 -32.7476 0)
(123.707 -33.1127 -9.63324e-17)
(125.85 -33.1431 0)
(128.684 -32.9429 0)
(131.918 -32.8064 3.73601e-21)
(135.46 -32.7884 8.30906e-17)
(138.963 -33.0396 7.74772e-17)
(142.646 -33.3765 7.22853e-17)
(146.274 -33.9315 0)
(150.237 -34.4557 0)
(154.155 -35.203 0)
(158.545 -35.8406 -4.15226e-21)
(162.82 -36.7646 0)
(167.725 -37.4942 4.94067e-17)
(172.398 -38.6146 0)
(177.929 -39.4298 4.36632e-17)
(183.054 -40.7872 5.01426e-21)
(189.369 -41.6836 -3.86654e-17)
(195.017 -43.3337 0)
(202.338 -44.3056 3.43466e-17)
(208.592 -46.3211 -3.1736e-17)
(217.22 -47.3585 3.05295e-17)
(224.169 -49.8289 5.5648e-17)
(234.507 -50.9234 -2.70082e-17)
(242.248 -53.9641 2.39598e-17)
(254.833 -55.1289 -2.35363e-17)
(263.401 -58.939 1.98643e-17)
(278.862 -60.3705 1.99789e-17)
(288.17 -65.3776 -1.55242e-17)
(307.436 -67.569 -4.15786e-21)
(317.658 -74.1507 -1.1205e-17)
(342.687 -77.4275 1.422e-17)
(355.243 -84.8498 -6.31155e-18)
(390.381 -88.6963 -1.17306e-17)
(409.368 -93.8981 -9.77194e-19)
(460.512 -98.4504 7.03357e-18)
(489.415 -90.9031 0)
(557.98 -95.5381 1.28874e-18)
(605.927 -3.14324 0)
(557.426 45.5795 -2.9136e-20)
(539.37 58.5597 5.51294e-21)
(502.499 64.747 6.52069e-19)
(487.574 63.174 0)
(460.033 64.6106 0)
(448.088 63.0066 0)
(426.766 64.018 0)
(415.553 61.8666 -9.93612e-18)
(396.914 61.1881 -3.00318e-17)
(384.805 57.8517 0)
(367.685 55.9509 0)
(355.446 52.5181 0)
(340.398 50.5445 6.17691e-17)
(329.11 47.7096 0)
(316.315 46.0243 -8.41303e-17)
(306.25 43.8016 0)
(295.378 42.4331 -1.10466e-16)
(286.441 40.7452 -1.21943e-16)
(277.133 39.6996 0)
(269.203 38.4797 -1.54058e-16)
(261.169 37.7225 0)
(254.12 36.8668 0)
(247.105 36.3129 0)
(240.791 35.69 2.25128e-16)
(234.57 35.2256 -2.44403e-16)
(228.857 34.7064 -2.62992e-16)
(223.249 34.2186 2.82087e-16)
(218.024 33.696 3.00435e-16)
(212.884 33.1041 0)
(208.045 32.5281 3.34201e-16)
(203.244 31.8027 3.48126e-16)
(198.695 31.1917 0)
(194.121 30.3545 -3.67989e-16)
(189.81 29.7863 -3.73404e-16)
(185.414 28.8856 3.74684e-16)
(181.374 28.466 3.73342e-16)
(177.16 27.5205 3.68103e-16)
(173.495 27.3472 0)
(169.433 26.3041 -1.56342e-20)
(166.262 26.4542 -3.39407e-16)
(162.153 25.1631 0)
(159.647 25.7019 0)
(154.954 23.9003 0)
(153.577 24.9073 0)
(147 21.8493 -2.66755e-16)
(100.035 -1.97063 0)
(100.682 -5.47417 8.11848e-17)
(101.841 -8.71447 7.60202e-17)
(103.442 -11.3264 7.09025e-17)
(105.265 -13.5345 0)
(107.361 -15.3199 6.36598e-17)
(109.496 -17.0134 6.24132e-17)
(111.641 -18.8049 -6.27789e-17)
(113.598 -20.8141 -6.46705e-17)
(115.336 -22.9981 0)
(116.799 -25.2171 -7.17204e-17)
(118.023 -27.338 0)
(119.074 -29.2176 -1.62976e-16)
(120.023 -30.7988 0)
(121.018 -31.998 0)
(122.167 -32.8138 -9.51898e-17)
(123.736 -33.1895 0)
(125.837 -33.2329 0)
(128.632 -33.0434 9.42356e-17)
(131.841 -32.9123 -8.99083e-17)
(135.373 -32.895 -8.47058e-17)
(138.877 -33.1456 4.52515e-21)
(142.561 -33.4826 7.38185e-17)
(146.19 -34.0391 0)
(150.153 -34.5653 -6.45577e-17)
(154.07 -35.3155 0)
(158.458 -35.9556 5.68551e-17)
(162.732 -36.8831 0)
(167.637 -37.6154 -5.01212e-17)
(172.309 -38.7399 0)
(177.839 -39.5579 0)
(182.963 -40.9201 -4.11935e-17)
(189.277 -41.8195 0)
(194.922 -43.4756 0)
(202.242 -44.4507 -3.463e-17)
(208.493 -46.4738 3.19953e-17)
(217.12 -47.5146 0)
(224.066 -49.9947 6.30166e-21)
(234.405 -51.0929 2.72193e-17)
(242.143 -54.1457 0)
(254.733 -55.314 2.37301e-17)
(263.3 -59.1384 -2.00404e-17)
(278.769 -60.5723 -4.03375e-17)
(288.073 -65.5954 0)
(307.341 -67.7879 -4.26752e-21)
(317.532 -74.3878 1.13582e-17)
(342.538 -77.6684 1.44128e-17)
(355.013 -85.1158 1.28161e-17)
(390.107 -88.983 1.1916e-17)
(409.009 -94.2257 0)
(460.248 -98.8374 0)
(489.202 -91.3427 -9.74497e-18)
(558.097 -96.107 0)
(606.198 -3.13557 1.41705e-18)
(557.264 45.8448 3.20909e-18)
(539 58.769 5.36528e-21)
(502.045 64.9332 -6.7727e-21)
(487.126 63.3364 -1.59388e-17)
(459.646 64.7661 0)
(447.813 63.1634 4.61551e-18)
(426.648 64.1915 1.88983e-17)
(415.606 62.0664 -1.16107e-20)
(397.142 61.4178 -3.04239e-17)
(385.171 58.108 -2.62402e-17)
(368.161 56.2241 -4.42378e-17)
(355.984 52.8003 0)
(340.975 50.8262 0)
(329.699 47.9882 0)
(316.908 46.2947 0)
(306.833 44.0653 0)
(295.954 42.6872 -9.42741e-21)
(287.003 40.9924 -1.57023e-20)
(277.683 39.9374 0)
(269.738 38.7106 1.53503e-16)
(261.69 37.9447 0)
(254.625 37.0824 1.87817e-16)
(247.594 36.5208 0)
(241.262 35.8918 2.24089e-16)
(235.024 35.4209 2.4334e-16)
(229.294 34.8964 2.62025e-16)
(223.672 34.4036 -2.81369e-16)
(218.436 33.877 -3.00134e-16)
(213.291 33.2824 -3.18337e-16)
(208.45 32.7044 -6.70833e-16)
(203.654 31.9793 -3.50501e-16)
(199.114 31.3683 0)
(194.557 30.5341 3.73259e-16)
(190.261 29.9664 -7.523e-21)
(185.883 29.0694 -3.83182e-16)
(181.854 28.6482 -3.83292e-16)
(177.652 27.7053 -3.79285e-16)
(173.986 27.527 0)
(169.929 26.4857 -1.64275e-20)
(166.748 26.6291 3.52823e-16)
(162.644 25.3406 -3.39144e-16)
(160.125 25.8754 3.26103e-16)
(155.443 24.0761 0)
(154.053 25.0917 0)
(147.483 22.041 2.80149e-16)
(100.036 -1.98899 0)
(100.692 -5.52029 8.11064e-17)
(101.862 -8.7857 -1.51817e-16)
(103.478 -11.4151 -7.08057e-17)
(105.315 -13.6366 -6.65806e-17)
(107.426 -15.4305 -6.36494e-17)
(109.575 -17.1266 0)
(111.733 -18.9151 6.28415e-17)
(113.702 -20.9162 6.47624e-17)
(115.449 -23.0898 0)
(116.917 -25.2978 7.187e-17)
(118.141 -27.4092 0)
(119.189 -29.2816 1.63448e-16)
(120.129 -30.8591 0)
(121.109 -32.0586 0)
(122.235 -32.8798 -1.70546e-21)
(123.77 -33.2658 0)
(125.829 -33.3222 -9.78989e-17)
(128.584 -33.1434 -9.56097e-17)
(131.765 -33.0179 0)
(135.288 -33.0015 0)
(138.79 -33.2517 -8.07792e-17)
(142.476 -33.5886 4.41461e-21)
(146.105 -34.1466 7.0338e-17)
(150.068 -34.6748 1.31766e-16)
(153.984 -35.4278 0)
(158.372 -36.0705 0)
(162.645 -37.0015 0)
(167.549 -37.7364 5.08929e-17)
(172.22 -38.865 -4.74818e-17)
(177.749 -39.6858 4.475e-17)
(182.872 -41.053 4.1672e-17)
(189.185 -41.9553 -3.94548e-17)
(194.828 -43.6175 3.66499e-17)
(202.146 -44.5957 0)
(208.394 -46.6265 -3.22567e-17)
(217.021 -47.6707 3.10113e-17)
(223.965 -50.1605 -2.82593e-17)
(234.303 -51.2624 -5.48676e-17)
(242.04 -54.3274 -2.43659e-17)
(254.633 -55.4994 0)
(263.201 -59.3381 0)
(278.678 -60.7746 -4.17883e-21)
(287.978 -65.8137 1.58738e-17)
(307.248 -68.0072 -4.36968e-21)
(317.41 -74.6252 -2.3004e-17)
(342.393 -77.9094 -1.46021e-17)
(354.787 -85.3816 -6.50769e-18)
(389.836 -89.2691 0)
(408.648 -94.5524 0)
(459.981 -99.224 0)
(488.986 -91.783 9.90849e-18)
(558.216 -96.6787 0)
(606.474 -3.12657 -1.43605e-18)
(557.101 46.1126 0)
(538.622 58.9785 5.2148e-21)
(501.579 65.1178 -1.32372e-18)
(486.661 63.4959 1.61641e-17)
(459.239 64.9175 0)
(447.516 63.3153 -9.88686e-21)
(426.506 64.3594 -1.91598e-17)
(415.636 62.2608 1.02246e-17)
(397.35 61.6427 6.16342e-17)
(385.52 58.3605 5.30868e-17)
(368.624 56.4946 4.46413e-17)
(356.514 53.0809 4.51474e-17)
(341.549 51.1071 0)
(330.286 48.2667 0)
(317.501 46.5654 -8.43301e-17)
(307.42 44.3299 0)
(296.533 42.9424 -9.47617e-21)
(287.569 41.2408 1.21386e-16)
(278.238 40.1766 0)
(270.279 38.9431 -1.52923e-16)
(262.219 38.1685 0)
(255.137 37.2998 -1.86931e-16)
(248.091 36.7305 0)
(241.742 36.0956 9.69068e-21)
(235.488 35.6181 2.42206e-16)
(229.741 35.0883 0)
(224.105 34.5904 2.80435e-16)
(218.857 34.0596 2.99528e-16)
(213.704 33.462 3.18259e-16)
(208.86 32.8816 3.36111e-16)
(204.068 32.1565 -1.25969e-20)
(199.537 31.5453 3.66571e-16)
(194.995 30.7138 -3.777e-16)
(190.715 30.1466 3.86319e-16)
(186.357 29.2536 7.81509e-16)
(182.341 28.8311 -3.67838e-21)
(178.153 27.8914 3.89663e-16)
(174.49 27.7086 0)
(170.44 26.6698 3.75784e-16)
(167.252 26.8066 0)
(163.155 25.5215 3.52397e-16)
(160.624 26.052 -3.39628e-16)
(155.954 24.2559 0)
(154.553 25.2793 0)
(147.993 22.2375 0)
(100.037 -2.00762 0)
(100.702 -5.56696 -1.62015e-16)
(101.884 -8.8577 1.51606e-16)
(103.516 -11.5047 0)
(105.366 -13.7395 6.65277e-17)
(107.492 -15.542 0)
(109.654 -17.2406 6.24913e-17)
(111.826 -19.0261 6.29173e-17)
(113.807 -21.0191 0)
(115.563 -23.1822 0)
(117.036 -25.379 -7.20311e-17)
(118.262 -27.4809 -7.67532e-17)
(119.307 -29.3461 -8.19651e-17)
(120.239 -30.9197 8.72883e-17)
(121.204 -32.1192 -9.23389e-17)
(122.307 -32.9457 1.92818e-16)
(123.808 -33.3417 0)
(125.825 -33.4109 9.90343e-17)
(128.539 -33.243 -9.70232e-17)
(131.693 -33.1232 -9.31133e-17)
(135.203 -33.1079 0)
(138.703 -33.3576 0)
(142.391 -33.6945 4.50686e-21)
(146.02 -34.2539 -1.43806e-16)
(149.983 -34.784 4.57745e-21)
(153.898 -35.54 0)
(158.285 -36.1852 -5.89822e-17)
(162.557 -37.1197 0)
(167.461 -37.8573 -5.17084e-17)
(172.131 -38.99 4.8176e-17)
(177.66 -39.8137 -4.53422e-17)
(182.781 -41.1858 -4.21711e-17)
(189.093 -42.0911 -3.95202e-21)
(194.734 -43.7594 -3.70115e-17)
(202.051 -44.7408 0)
(208.297 -46.7793 3.25441e-17)
(216.922 -47.8269 -6.25331e-17)
(223.864 -50.3264 0)
(234.203 -51.4321 2.76574e-17)
(241.938 -54.5092 2.45702e-17)
(254.536 -55.685 0)
(263.104 -59.5382 0)
(278.59 -60.9772 -4.25682e-21)
(287.885 -66.0323 9.10384e-21)
(307.158 -68.227 1.72963e-17)
(317.292 -74.8629 -1.01416e-20)
(342.252 -78.1504 -1.48083e-17)
(354.564 -85.6471 0)
(389.566 -89.5546 1.23279e-17)
(408.285 -94.8783 9.78e-19)
(459.71 -99.6104 0)
(488.766 -92.2243 0)
(558.335 -97.2532 1.33191e-18)
(606.754 -3.11626 -1.46573e-18)
(556.937 46.3831 0)
(538.238 59.1884 -2.22561e-17)
(501.101 65.3008 6.73156e-21)
(486.18 63.6526 0)
(458.812 65.0649 8.7469e-18)
(447.196 63.4623 -1.01182e-20)
(426.34 64.5217 0)
(415.642 62.4496 -1.03864e-17)
(397.537 61.8625 -3.1212e-17)
(385.853 58.6089 -2.68508e-17)
(369.074 56.762 4.50625e-17)
(357.035 53.3597 -4.54642e-17)
(342.116 51.387 6.26672e-17)
(330.871 48.5449 6.74258e-17)
(318.093 46.8363 1.68885e-16)
(308.007 44.5951 0)
(297.115 43.1984 1.10028e-16)
(288.139 41.4901 0)
(278.798 40.4169 0)
(270.825 39.1768 0)
(262.753 38.3938 0)
(255.656 37.5187 1.86072e-16)
(248.595 36.9419 -2.04493e-16)
(242.229 36.301 -4.43725e-16)
(235.959 35.8171 -4.82014e-16)
(230.196 35.2819 0)
(224.545 34.7788 2.79361e-16)
(219.284 34.2436 0)
(214.123 33.6428 0)
(209.275 33.0598 0)
(204.486 32.3343 7.06708e-16)
(199.962 31.7225 1.01457e-20)
(195.434 30.8935 7.62641e-16)
(191.17 30.3267 0)
(186.831 29.4378 -7.94881e-16)
(182.831 29.0143 4.00597e-16)
(178.66 28.0785 0)
(175.002 27.8915 0)
(170.963 26.8559 3.87494e-16)
(167.77 26.9864 0)
(163.682 25.7052 0)
(161.141 26.2312 0)
(156.485 24.4391 0)
(155.073 25.4696 0)
(148.529 22.4382 0)
(100.039 -2.02655 0)
(100.712 -5.6142 8.09075e-17)
(101.906 -8.93047 -7.56916e-17)
(103.554 -11.5951 0)
(105.418 -13.8433 0)
(107.558 -15.6544 0)
(109.735 -17.3555 -1.25061e-16)
(111.921 -19.138 4.5978e-21)
(113.913 -21.1227 0)
(115.678 -23.2753 0)
(117.157 -25.4609 7.21922e-17)
(118.385 -27.553 7.69502e-17)
(119.427 -29.4109 0)
(120.352 -30.9805 -8.76109e-17)
(121.303 -32.18 9.27796e-17)
(122.384 -33.0114 1.73734e-21)
(123.852 -33.4173 0)
(125.828 -33.4992 -1.00192e-16)
(128.499 -33.3422 9.84618e-17)
(131.623 -33.2283 -3.74845e-21)
(135.119 -33.2142 8.99637e-17)
(138.617 -33.4635 0)
(142.305 -33.8003 -1.57838e-16)
(145.935 -34.361 7.3559e-17)
(149.897 -34.8931 -6.87909e-17)
(153.811 -35.652 6.41916e-17)
(158.197 -36.2997 1.20297e-16)
(162.469 -37.2378 0)
(167.373 -37.9782 0)
(172.042 -39.115 0)
(177.571 -39.9415 -4.59826e-17)
(182.69 -41.3186 4.27139e-17)
(189.001 -42.2269 4.03394e-17)
(194.641 -43.9013 3.74065e-17)
(201.956 -44.8859 0)
(208.2 -46.9321 -6.56753e-17)
(216.825 -47.9832 6.3073e-17)
(223.763 -50.4924 0)
(234.104 -51.6019 0)
(241.837 -54.6913 0)
(254.439 -55.871 -2.43739e-17)
(263.007 -59.7386 0)
(278.503 -61.1803 -4.33599e-21)
(287.795 -66.2515 -1.62305e-17)
(307.072 -68.4472 0)
(317.177 -75.1009 1.18101e-17)
(342.115 -78.3916 1.50109e-17)
(354.344 -85.9124 -6.74125e-18)
(389.299 -89.8395 -2.50714e-17)
(407.921 -95.2034 -9.96236e-19)
(459.435 -99.9965 -7.65307e-18)
(488.542 -92.6663 0)
(558.456 -97.8304 6.20982e-22)
(607.04 -3.10462 2.978e-18)
(556.773 46.6563 -3.49398e-18)
(537.848 59.3988 2.26273e-17)
(500.612 65.4824 6.71723e-19)
(485.684 63.8066 0)
(458.366 65.2082 -8.86117e-18)
(446.853 63.6044 -4.7794e-18)
(426.149 64.6783 0)
(415.624 62.6326 2.10592e-17)
(397.701 62.0768 -3.16101e-17)
(386.167 58.853 0)
(369.51 57.0263 4.57698e-21)
(357.545 53.6363 0)
(342.677 51.6657 6.69886e-21)
(331.451 48.8227 -1.35291e-16)
(318.684 47.1072 8.49148e-21)
(308.594 44.8606 0)
(297.697 43.455 0)
(288.711 41.7403 0)
(279.362 40.6582 0)
(271.376 39.4115 0)
(263.291 38.6203 1.69679e-16)
(256.18 37.7389 -1.85202e-16)
(249.105 37.1548 2.03472e-16)
(242.723 36.508 -9.69734e-21)
(236.437 36.0177 2.39773e-16)
(230.658 35.4772 0)
(224.992 34.9688 8.02545e-21)
(219.718 34.4291 2.97689e-16)
(214.548 33.8248 -3.17198e-16)
(209.694 33.2388 0)
(204.907 32.5126 1.29273e-20)
(200.388 31.8999 -3.70504e-16)
(195.873 31.0731 1.5095e-20)
(191.624 30.5065 0)
(187.306 29.6218 4.03253e-16)
(183.323 29.1975 4.07954e-16)
(179.17 28.266 4.0802e-16)
(175.522 28.0753 0)
(171.495 27.0437 1.85403e-20)
(168.301 27.168 0)
(164.224 25.8916 3.77587e-16)
(161.676 26.4128 3.65467e-16)
(157.035 24.6257 3.49586e-16)
(155.613 25.6626 3.36339e-16)
(149.088 22.6429 3.19533e-16)
(100.04 -2.04579 0)
(100.722 -5.66201 8.0827e-17)
(101.929 -9.00402 -7.55982e-17)
(103.592 -11.6864 0)
(105.47 -13.948 -6.64529e-17)
(107.626 -15.7677 0)
(109.817 -17.4712 6.25736e-17)
(112.016 -19.2507 -1.26141e-16)
(114.021 -21.2272 6.50822e-17)
(115.795 -23.3691 0)
(117.28 -25.5433 7.23655e-17)
(118.51 -27.6257 7.71591e-17)
(119.55 -29.4761 0)
(120.468 -31.0416 -8.79439e-17)
(121.406 -32.2409 0)
(122.465 -33.077 1.75408e-21)
(123.901 -33.4926 1.00605e-16)
(125.835 -33.587 1.01359e-16)
(128.464 -33.4409 -9.99337e-17)
(131.556 -33.3332 -3.74572e-21)
(135.036 -33.3204 -1.83683e-16)
(138.53 -33.5693 0)
(142.219 -33.906 -4.68481e-21)
(145.849 -34.468 0)
(149.811 -35.002 0)
(153.724 -35.7637 -6.5602e-17)
(158.11 -36.4141 -6.13926e-17)
(162.381 -37.3557 0)
(167.284 -38.0989 0)
(171.953 -39.2398 0)
(177.482 -40.0692 -4.37317e-21)
(182.6 -41.4513 -4.3281e-17)
(188.91 -42.3626 0)
(194.548 -44.0432 -3.78139e-17)
(201.862 -45.031 0)
(208.103 -47.0849 6.63003e-17)
(216.728 -48.1395 -6.364e-17)
(223.664 -50.6585 0)
(234.006 -51.7719 -2.81419e-17)
(241.737 -54.8736 2.50261e-17)
(254.344 -56.0572 2.45993e-17)
(262.913 -59.9393 2.08546e-17)
(278.418 -61.3838 2.10068e-17)
(287.708 -66.4711 1.64325e-17)
(306.989 -68.6679 -1.77215e-17)
(317.066 -75.3393 0)
(341.982 -78.6328 0)
(354.129 -86.1775 -1.23953e-20)
(389.034 -90.124 -8.03226e-21)
(407.555 -95.5278 0)
(459.155 -100.382 7.80792e-18)
(488.314 -93.1091 0)
(558.579 -98.4105 -1.36318e-18)
(607.331 -3.09163 -1.51317e-18)
(556.61 46.9324 -3.2245e-20)
(537.453 59.6097 4.71762e-21)
(500.112 65.6627 -6.68308e-19)
(485.173 63.958 -1.68085e-17)
(457.9 65.3475 0)
(446.487 63.7416 0)
(425.932 64.8291 0)
(415.58 62.8097 1.25843e-20)
(397.841 62.2856 3.20049e-17)
(386.46 59.0924 0)
(369.931 57.287 -4.59172e-17)
(358.044 53.9107 0)
(343.23 51.9431 -1.26647e-16)
(332.026 49.0998 -1.69792e-20)
(319.272 47.378 -1.69451e-16)
(309.18 45.1263 0)
(298.281 43.7121 1.09829e-16)
(289.285 41.9912 0)
(279.927 40.9004 -1.37988e-16)
(271.929 39.6473 -1.5134e-16)
(263.834 38.8479 -3.37973e-16)
(256.709 37.9604 0)
(249.621 37.369 0)
(243.223 36.7165 4.39184e-16)
(236.922 36.2198 0)
(231.126 35.674 2.57188e-16)
(225.446 35.1602 -5.53727e-16)
(220.157 34.6159 -2.96512e-16)
(214.978 34.008 3.16287e-16)
(210.117 33.4187 0)
(205.33 32.6914 -7.0841e-16)
(200.816 32.0774 -3.71618e-16)
(196.312 31.2525 -7.72871e-16)
(192.078 30.686 -3.99334e-16)
(187.78 29.8054 0)
(183.814 29.3804 -4.14456e-16)
(179.683 28.4536 -4.1594e-16)
(176.046 28.2596 0)
(172.035 27.2326 -8.17715e-16)
(168.842 27.3512 0)
(164.779 26.0801 -3.89387e-16)
(162.225 26.5965 -7.55487e-16)
(157.603 24.8151 -3.62003e-16)
(156.171 25.8578 -3.49041e-16)
(149.67 22.8513 -3.3207e-16)
(100.041 -2.06533 0)
(100.733 -5.71041 1.35023e-20)
(101.952 -9.07837 7.54812e-17)
(103.631 -11.7786 7.0477e-17)
(105.523 -14.0536 6.64078e-17)
(107.695 -15.882 0)
(109.899 -17.5879 0)
(112.113 -19.3643 6.31527e-17)
(114.129 -21.3325 -6.51936e-17)
(115.914 -23.4636 0)
(117.405 -25.6265 -7.2539e-17)
(118.638 -27.6989 -7.73695e-17)
(119.676 -29.5417 0)
(120.587 -31.103 -1.99243e-21)
(121.512 -32.302 0)
(122.551 -33.1426 -1.9657e-16)
(123.956 -33.5677 -1.01481e-16)
(125.849 -33.6744 0)
(128.434 -33.5393 -2.79536e-21)
(131.492 -33.4378 1.96523e-16)
(134.955 -33.4266 -4.11184e-21)
(138.444 -33.6751 0)
(142.133 -34.0116 8.2768e-17)
(145.764 -34.5749 -7.7167e-17)
(149.725 -35.1108 0)
(153.637 -35.8753 -6.71133e-17)
(158.022 -36.5283 0)
(162.292 -37.4735 -5.83167e-17)
(167.195 -38.2194 5.45208e-17)
(171.864 -39.3645 -5.05764e-17)
(177.392 -40.1969 -4.49375e-21)
(182.51 -41.5839 4.38968e-17)
(188.82 -42.4983 -4.13489e-17)
(194.455 -44.185 0)
(201.769 -45.1761 0)
(208.008 -47.2378 -3.34764e-17)
(216.632 -48.2959 3.21157e-17)
(223.566 -50.8247 2.92702e-17)
(233.908 -51.942 2.83937e-17)
(241.639 -55.056 -5.05199e-17)
(254.25 -56.2436 2.48417e-17)
(262.82 -60.1404 -2.10661e-17)
(278.335 -61.5878 0)
(287.623 -66.6913 -3.32544e-17)
(306.909 -68.8891 -4.75584e-21)
(316.959 -75.5781 1.21559e-17)
(341.854 -78.8743 0)
(353.919 -86.4425 1.39428e-17)
(388.773 -90.4079 1.29748e-17)
(407.188 -95.8514 0)
(458.872 -100.768 0)
(488.082 -93.5526 0)
(558.703 -98.9936 0)
(607.628 -3.07727 0)
(556.447 47.2115 -3.2904e-20)
(537.053 59.8214 -2.33737e-17)
(499.602 65.8417 1.34987e-18)
(484.647 64.1068 8.20516e-21)
(457.415 65.4829 0)
(446.099 63.8738 0)
(425.691 64.9741 2.01653e-17)
(415.51 62.9807 -1.08179e-17)
(397.957 62.4885 0)
(386.733 59.327 -2.78313e-17)
(370.334 57.544 0)
(358.53 54.1824 -4.65397e-17)
(343.774 52.2188 -6.84811e-21)
(332.595 49.376 6.81385e-17)
(319.857 47.6485 1.69788e-16)
(309.764 45.3921 -9.29348e-17)
(298.863 43.9696 -2.19505e-16)
(289.859 42.2426 0)
(280.494 41.1433 1.37633e-16)
(272.485 39.8839 3.01695e-16)
(264.38 39.0765 -8.53006e-21)
(257.242 38.183 1.83559e-16)
(250.141 37.5845 2.01497e-16)
(243.728 36.9262 -4.36935e-16)
(237.412 36.4233 2.37277e-16)
(231.6 35.8722 8.82364e-21)
(225.905 35.3531 -8.10679e-21)
(220.602 34.8041 -2.95236e-16)
(215.413 34.1923 -3.15211e-16)
(210.544 33.5995 3.35071e-16)
(205.755 32.8708 7.08077e-16)
(201.245 32.2551 3.72222e-16)
(196.751 31.4318 3.88047e-16)
(192.531 30.8651 4.0217e-16)
(188.253 29.9885 -4.12479e-16)
(184.305 29.5629 4.20151e-16)
(180.195 28.6411 -4.23084e-16)
(176.573 28.4442 4.23223e-16)
(172.579 27.4224 8.37001e-16)
(169.392 27.5355 0)
(165.344 26.2704 0)
(162.787 26.782 3.89548e-16)
(158.185 25.0072 0)
(156.744 26.0549 0)
(150.271 23.0631 0)
(100.043 -2.08519 0)
(100.744 -5.75942 -8.06237e-17)
(101.976 -9.15355 -7.53888e-17)
(103.672 -11.8717 -7.03876e-17)
(105.578 -14.1601 6.63815e-17)
(107.764 -15.9971 0)
(109.983 -17.7056 0)
(112.211 -19.4788 0)
(114.24 -21.4386 -6.53185e-17)
(116.034 -23.5589 -6.85812e-17)
(117.532 -25.7102 7.27252e-17)
(118.767 -27.7726 -7.75923e-17)
(119.804 -29.6078 0)
(120.709 -31.1648 8.86236e-17)
(121.623 -32.3633 0)
(122.641 -33.2083 9.89176e-17)
(124.016 -33.6425 -1.02363e-16)
(125.868 -33.7615 1.03731e-16)
(128.41 -33.6374 2.05877e-16)
(131.433 -33.5423 3.72454e-21)
(134.877 -33.5327 9.57779e-17)
(138.359 -33.7809 0)
(142.047 -34.1172 8.48365e-17)
(145.678 -34.6816 7.9111e-17)
(149.638 -35.2194 7.38607e-17)
(153.549 -35.9867 6.87078e-17)
(157.933 -36.6423 0)
(162.203 -37.591 5.9543e-17)
(167.107 -38.3399 -5.5581e-17)
(171.775 -39.4891 -5.81967e-21)
(177.303 -40.3244 4.8154e-17)
(182.42 -41.7165 -8.90885e-17)
(188.73 -42.634 -4.36086e-21)
(194.364 -44.3269 0)
(201.676 -45.3213 0)
(207.913 -47.3907 3.383e-17)
(216.536 -48.4524 0)
(223.469 -50.991 -5.90949e-17)
(233.812 -52.1123 -2.86645e-17)
(241.541 -55.2387 2.5503e-17)
(254.158 -56.4304 -2.50844e-17)
(262.729 -60.3419 0)
(278.254 -61.7923 2.14776e-17)
(287.54 -66.912 3.36669e-17)
(306.832 -69.1108 1.81673e-17)
(316.856 -75.8173 1.09139e-20)
(341.73 -79.116 0)
(353.712 -86.7074 -7.08875e-18)
(388.514 -90.6915 1.32148e-17)
(406.82 -96.1742 0)
(458.586 -101.153 0)
(487.845 -93.9969 0)
(558.828 -99.5796 -1.39877e-18)
(607.932 -3.06156 0)
(556.287 47.4938 3.74007e-18)
(536.65 60.034 0)
(499.083 66.0198 -6.81529e-19)
(484.107 64.2533 1.72468e-17)
(456.911 65.6146 0)
(445.688 64.0012 0)
(425.423 65.1131 -2.04053e-17)
(415.413 63.1455 0)
(398.047 62.6854 0)
(386.982 59.5565 2.81418e-17)
(370.719 57.7969 4.68118e-17)
(359.003 54.4513 4.68951e-17)
(344.308 52.4926 6.40359e-17)
(333.157 49.6512 0)
(320.436 47.9185 -8.50774e-17)
(310.346 45.6578 9.30037e-17)
(299.445 44.2273 1.09699e-16)
(290.433 42.4944 1.20352e-16)
(281.062 41.3867 0)
(273.042 40.1213 -1.50384e-16)
(264.928 39.306 -8.54423e-21)
(257.777 38.4065 -1.82761e-16)
(250.665 37.8011 -2.00534e-16)
(244.237 37.1373 -9.68847e-21)
(237.907 36.6282 -4.72052e-16)
(232.079 36.0718 8.83265e-21)
(226.37 35.5474 -8.136e-21)
(221.053 34.9935 2.93854e-16)
(215.852 34.3777 3.13967e-16)
(210.975 33.7812 -3.34112e-16)
(206.184 33.0507 -3.53547e-16)
(201.674 32.433 0)
(197.19 31.611 0)
(192.982 31.0437 4.0438e-16)
(188.723 30.171 -1.6977e-20)
(184.794 29.7448 -4.25056e-16)
(180.707 28.8282 -1.79692e-20)
(177.1 28.6286 -4.30952e-16)
(173.128 27.6126 -4.27429e-16)
(169.947 27.7205 0)
(165.918 26.4622 4.11431e-16)
(163.359 26.9689 0)
(158.78 25.2016 0)
(157.331 26.2538 0)
(150.89 23.2777 0)
(100.044 -2.10538 0)
(100.756 -5.80905 0)
(102 -9.22955 1.50558e-16)
(103.713 -11.9657 0)
(105.633 -14.2675 -6.63426e-17)
(107.835 -16.1132 0)
(110.068 -17.8241 0)
(112.31 -19.5942 6.33416e-17)
(114.351 -21.5456 6.5441e-17)
(116.156 -23.655 1.37475e-16)
(117.661 -25.7947 -7.2912e-17)
(118.899 -27.847 7.78167e-17)
(119.935 -29.6744 -8.32819e-17)
(120.834 -31.227 0)
(121.737 -32.4249 0)
(122.737 -33.274 0)
(124.082 -33.7172 1.03243e-16)
(125.893 -33.8483 -2.09847e-16)
(128.391 -33.7352 -1.04466e-16)
(131.378 -33.6466 -1.01886e-16)
(134.801 -33.6387 -9.7834e-17)
(138.275 -33.8866 0)
(141.962 -34.2227 -8.69876e-17)
(145.591 -34.7883 0)
(149.551 -35.3278 -7.57455e-17)
(153.461 -36.0979 0)
(157.845 -36.7562 0)
(162.114 -37.7084 0)
(167.017 -38.4602 5.67223e-17)
(171.686 -39.6136 5.24483e-17)
(177.214 -40.4519 0)
(182.33 -41.849 4.52344e-17)
(188.64 -42.7697 8.49697e-17)
(194.272 -44.4687 -3.92174e-17)
(201.584 -45.4665 0)
(207.819 -47.5436 -6.8386e-17)
(216.442 -48.609 0)
(223.372 -51.1574 5.96821e-17)
(233.717 -52.2828 5.78812e-17)
(241.445 -55.4216 2.57673e-17)
(254.067 -56.6175 2.5345e-17)
(262.639 -60.5438 0)
(278.175 -61.9973 4.66241e-21)
(287.461 -67.1332 9.8924e-21)
(306.759 -69.3331 0)
(316.757 -76.057 -2.50175e-17)
(341.611 -79.3579 0)
(353.511 -86.9722 0)
(388.26 -90.9746 -1.34451e-17)
(406.452 -96.4964 1.00207e-18)
(458.295 -101.537 0)
(487.604 -94.4418 0)
(558.954 -100.169 -9.03602e-22)
(608.242 -3.04447 1.6051e-18)
(556.128 47.7794 0)
(536.243 60.2477 0)
(498.556 66.1969 6.78226e-19)
(483.554 64.3976 0)
(456.389 65.7425 -9.29868e-18)
(445.255 64.1237 0)
(425.13 65.2462 2.06383e-17)
(415.288 63.3039 0)
(398.11 62.8761 0)
(387.208 59.7806 -2.84849e-17)
(371.085 58.0455 -4.72612e-17)
(359.46 54.7171 0)
(344.831 52.7643 6.44222e-17)
(333.711 49.9251 -6.87195e-17)
(321.01 48.1878 8.52934e-17)
(310.923 45.9232 -9.31276e-17)
(300.024 44.485 0)
(291.005 42.7465 -2.40412e-16)
(281.63 41.6306 0)
(273.6 40.3592 -1.49972e-16)
(265.478 39.5363 1.67089e-16)
(258.315 38.631 0)
(251.191 38.0187 1.99618e-16)
(244.75 37.3494 2.16278e-16)
(238.407 36.8343 4.69589e-16)
(232.563 36.2727 -5.06296e-16)
(226.839 35.7429 5.45347e-16)
(221.508 35.1842 2.92426e-16)
(216.295 34.5642 3.12628e-16)
(211.409 33.9637 -3.3299e-16)
(206.614 33.2313 -3.52807e-16)
(202.105 32.6112 0)
(197.628 31.79 0)
(193.431 31.2219 -4.05989e-16)
(189.191 30.3528 8.37545e-16)
(185.28 29.9259 -4.29235e-16)
(181.217 29.0147 8.69974e-16)
(177.628 28.8127 0)
(173.677 27.8029 -4.35684e-16)
(170.507 27.906 0)
(166.498 26.655 -8.43186e-16)
(163.941 27.1568 0)
(159.386 25.3978 0)
(157.931 26.4539 0)
(151.525 23.495 0)
(100.046 -2.12592 0)
(100.767 -5.8593 8.04453e-17)
(102.025 -9.3064 -1.50351e-16)
(103.754 -12.0606 0)
(105.689 -14.3759 0)
(107.907 -16.2302 0)
(110.154 -17.9436 0)
(112.41 -19.7106 4.75238e-21)
(114.464 -21.6535 0)
(116.279 -23.7518 -6.88999e-17)
(117.791 -25.8798 0)
(119.033 -27.9219 -7.80539e-17)
(120.068 -29.7416 -2.33182e-21)
(120.963 -31.2896 -8.93323e-17)
(121.855 -32.4868 0)
(122.837 -33.3399 0)
(124.153 -33.7918 1.04126e-16)
(125.925 -33.9349 1.06117e-16)
(128.378 -33.8327 -1.06008e-16)
(131.327 -33.7507 -1.03747e-16)
(134.727 -33.7447 1.99866e-16)
(138.192 -33.9924 0)
(141.877 -34.3282 8.92397e-17)
(145.505 -34.8948 0)
(149.464 -35.4361 -7.7747e-17)
(153.372 -36.209 0)
(157.755 -36.8699 0)
(162.024 -37.8257 0)
(166.928 -38.5803 -5.79295e-17)
(171.596 -39.738 5.34889e-17)
(177.125 -40.5794 0)
(182.241 -41.9814 -4.59793e-17)
(188.55 -42.9053 4.59307e-21)
(194.181 -44.6105 7.94773e-17)
(201.493 -45.6117 0)
(207.725 -47.6966 6.91586e-17)
(216.349 -48.7657 0)
(223.276 -51.3239 7.11087e-21)
(233.623 -52.4534 -2.92284e-17)
(241.35 -55.6047 -2.60261e-17)
(253.977 -56.8049 4.48199e-21)
(262.551 -60.746 2.17823e-17)
(278.098 -62.2028 -2.1972e-17)
(287.383 -67.355 -1.7262e-17)
(306.689 -69.5559 0)
(316.662 -76.2971 1.26911e-17)
(341.497 -79.6001 0)
(353.314 -87.2371 0)
(388.009 -91.2574 -1.36994e-17)
(406.084 -96.8179 -2.02882e-18)
(458.001 -101.922 0)
(487.357 -94.8874 0)
(559.081 -100.761 1.43582e-18)
(608.56 -3.026 -1.63051e-18)
(555.972 48.0684 0)
(535.834 60.4626 -2.4545e-17)
(498.021 66.3732 -6.52763e-21)
(482.989 64.5397 0)
(455.849 65.8668 1.88097e-17)
(444.799 64.2414 0)
(424.81 65.3734 -2.08657e-17)
(415.136 63.456 0)
(398.146 63.0603 0)
(387.409 59.999 5.76072e-17)
(371.429 58.2895 0)
(359.9 54.9795 0)
(345.341 53.0337 -6.48084e-17)
(334.256 50.1975 -1.7345e-20)
(321.578 48.4562 -8.55123e-17)
(311.496 46.1882 -1.6872e-20)
(300.6 44.7426 0)
(291.576 42.9986 1.20087e-16)
(282.196 41.8749 0)
(274.158 40.5975 1.49565e-16)
(266.028 39.7671 0)
(258.855 38.8562 1.81302e-16)
(251.72 38.2371 -1.98721e-16)
(245.266 37.5625 0)
(238.909 37.0414 -2.33584e-16)