/*--------------------------------*- C++ -*----------------------------------*\
| =========                 |                                                 |
| \\      /  F ield         | OpenFOAM: The Open Source CFD Toolbox           |
|  \\    /   O peration     | Version:  2412                                  |
|   \\  /    A nd           | Website:  www.openfoam.com                      |
|    \\/     M anipulation  |                                                 |
\*---------------------------------------------------------------------------*/
FoamFile
{
    version     2.0;
    format      ascii;
    arch        "LSB;label=32;scalar=64";
    class       volScalarField;
    location    "1";
    object      k;
}
// * * * * * * * * * * * * * * * * * * * * * * * * * * * * * * * * * * * * * //

dimensions      [0 2 -2 0 0 0 0];

internalField   nonuniform List<scalar> 
13156
(
249.458
262.068
214.617
184.003
169.194
161.539
157.409
155.351
154.803
155.301
156.498
158.011
159.654
161.246
162.793
164.21
165.651
167.022
168.532
170.05
171.884
173.803
176.299
178.902
182.313
185.773
190.338
194.76
200.768
206.262
214.071
220.779
230.804
239.069
252.123
262.272
279.617
291.987
315.462
330.518
363.116
381.355
427.845
449.938
518.26
544.513
646.793
676.35
834.352
866.664
1145.17
1184.51
2155.79
2411.95
1719.39
1295.76
1083.63
938.828
837.227
749.024
680.407
617.144
567.294
520.323
483.937
449.659
424.076
399.751
381.409
362.811
347.271
330.755
315.835
300.345
286.138
272.075
259.261
247.078
236.031
225.759
216.408
207.832
199.84
192.524
185.445
178.965
172.453
166.56
160.385
155.03
149.158
144.416
138.814
134.85
129.456
126.52
121.144
119.645
114.65
854.153
640.588
323.706
191.648
136.133
112.563
104.162
103.694
107.018
111.872
116.902
121.708
126.109
130.274
134.177
138.008
141.552
145.04
148.163
151.256
153.92
156.711
159.001
161.765
164.038
167.219
169.8
173.843
176.898
182.238
185.912
192.993
197.892
207.482
213.731
226.731
234.385
252.287
261.484
286.494
297.242
332.866
345.107
396.82
410.479
487.475
503.085
618.202
637.203
803.489
839.206
1034.88
1047.15
2209.92
2621.39
2073.49
1663.46
1389.34
1246.54
1096.41
1003.38
899.354
833.419
760.918
715.271
666.263
636.314
603.747
582.871
558.044
538.826
515.45
494.83
471.663
450.674
428.952
409.396
390.24
373.095
356.837
342.231
328.558
315.933
304.021
292.598
281.703
270.938
260.654
250.357
240.723
230.973
222.135
213.114
205.291
197.096
190.453
182.97
178.199
170.462
195.059
262.227
170.643
120.3
96.087
86.3114
84.1568
85.7021
88.8753
92.5386
96.1423
99.4154
102.334
104.939
107.353
109.666
111.967
114.262
116.61
118.965
121.363
123.744
126.151
128.49
130.934
133.323
135.948
138.569
141.601
144.651
148.395
152.121
156.655
161.545
167.19
173.852
180.875
190.064
198.793
211.653
222.361
240.711
253.709
280.559
296.259
336.936
356.866
420.153
446.599
543.424
578.284
725.948
633.968
1179.67
2218.97
2105.91
1844.31
1540.54
1414.24
1235.11
1148.35
1024.06
960.207
874.683
830.478
774.36
746.08
710.085
690.222
662.882
642.935
616.394
593.327
566.308
541.942
516.238
493.112
470.295
449.789
430.342
412.727
396.205
380.873
366.323
352.337
338.88
325.618
312.807
300.097
288.023
276.014
264.884
253.755
243.854
233.651
225.241
215.697
209.602
199.792
76.2489
104.845
99.7566
95.5329
93.5524
93.3847
94.2971
95.7711
97.5411
99.2943
100.885
102.184
103.204
103.955
104.542
105.031
105.542
106.103
106.814
107.661
108.702
109.892
111.255
112.7
114.288
115.914
117.681
119.495
121.5
123.597
126.009
128.608
131.457
134.862
138.369
143.07
147.438
154.067
159.485
168.934
175.5
189.11
196.892
216.846
225.964
256.132
267.728
315.13
331.281
405.933
425.433
559.296
500.755
723.684
1794.55
2061.5
1940.5
1657.24
1533.62
1347.01
1255.53
1123.91
1055.16
964.526
917.101
858.318
828.511
791.339
770.491
741.948
720.392
691.84
666.337
636.658
609.444
580.904
554.956
529.474
506.405
484.587
464.724
446.085
428.726
412.205
396.303
380.938
365.82
351.144
336.65
322.791
309.121
296.326
283.692
272.259
260.746
250.928
240.225
232.861
222.136
64.9878
82.0563
95.5582
103.102
106.808
108.417
109.158
109.642
110.14
110.566
110.861
110.918
110.738
110.31
109.716
109
108.282
107.591
107.045
106.646
106.481
106.516
106.798
107.24
107.881
108.617
109.489
110.428
111.473
112.62
113.896
115.412
116.948
119.051
120.976
124.061
126.531
131.149
134.271
141.185
144.953
155.274
159.603
175.082
179.901
203.597
209.694
247.396
256.701
317.351
329.647
448.411
467.984
537.788
1408.73
1944.55
1973.48
1739.39
1623.01
1437.47
1341.35
1206.5
1132.75
1039.26
988.476
928.202
896.662
858.847
836.855
807.439
784.327
754.153
726.504
694.651
665.019
634.155
605.847
578.172
552.976
529.197
507.468
487.067
468.012
449.843
432.33
415.368
398.692
382.463
366.482
351.145
336.098
321.934
308.064
295.377
282.801
271.831
260.234
251.795
240.417
66.7914
88.6229
104.769
113.463
118.489
120.848
121.647
121.706
121.528
121.188
120.71
120.013
119.103
117.963
116.658
115.225
113.775
112.337
111.029
109.855
108.917
108.179
107.713
107.413
107.345
107.361
107.533
107.725
108.024
108.336
108.757
109.293
109.872
110.801
111.623
113.257
114.461
117.248
118.921
123.505
125.629
132.937
135.413
146.887
149.652
167.777
171.549
201.071
207.907
256.582
269.017
372.259
473.787
495.902
1105.96
1780.25
1953.71
1788.97
1687.98
1509.91
1411.38
1275.84
1198.15
1103.11
1049.53
988.409
955.415
917.255
894.271
864.179
839.694
808.141
778.615
744.891
713.158
680.289
649.934
620.362
593.319
567.831
544.471
522.522
501.968
482.336
463.39
445.007
426.946
409.343
392.047
375.413
359.154
343.796
328.847
315.074
301.57
289.611
277.248
267.876
255.95
71.6695
97.2248
113.284
121.933
127.488
130.416
131.538
131.602
131.175
130.444
129.507
128.335
126.947
125.338
123.57
121.68
119.774
117.881
116.117
114.487
113.094
111.896
110.977
110.214
109.688
109.218
108.907
108.559
108.324
108.008
107.817
107.594
107.491
107.499
107.564
108.046
108.409
109.712
110.474
113.111
114.293
119.014
120.595
128.584
130.66
143.962
147.444
169.943
177.287
215.649
232.707
324.253
496.498
524.675
910.671
1599.43
1892.25
1808.61
1731.24
1566.36
1468.25
1334.2
1253.88
1158.33
1102.67
1041.23
1007.16
968.915
945.158
914.563
888.904
856.166
824.995
789.629
756.043
721.4
689.234
657.975
629.286
602.267
577.435
554.081
532.159
511.184
490.919
471.23
451.896
433.035
414.537
396.724
379.366
362.932
347.008
332.264
317.923
305.087
292.038
281.838
269.426
75.6305
104.331
120.067
128.597
134.484
137.883
139.417
139.704
139.287
138.406
137.218
135.744
134.033
132.096
130.003
127.798
125.585
123.398
121.35
119.445
117.783
116.319
115.134
114.095
113.283
112.501
111.864
111.143
110.529
109.764
109.133
108.365
107.772
107.117
106.653
106.306
106.102
106.327
106.506
107.699
108.338
111.083
112.281
117.539
119.636
129.115
133.395
150.306
159.813
190.037
213.779
299.975
526.825
576.796
814.776
1429.39
1801.81
1801.89
1754.8
1608.18
1513.44
1382.92
1301.35
1206.25
1149.26
1087.99
1053.26
1015.17
990.877
959.946
933.309
899.558
866.943
830.128
794.891
758.665
724.873
692.092
661.912
633.494
607.31
582.655
559.456
537.224
515.72
494.804
474.275
454.239
434.62
415.715
397.339
379.916
363.095
347.464
332.355
318.726
305.043
294.097
281.246
78.8801
109.996
125.404
133.876
140.03
143.832
145.789
146.396
146.134
145.258
143.961
142.309
140.379
138.208
135.88
133.446
131.017
128.632
126.399
124.325
122.505
120.888
119.548
118.344
117.353
116.364
115.5
114.515
113.621
112.53
111.571
110.407
109.452
108.325
107.479
106.553
105.952
105.439
105.229
105.433
105.746
107.125
108.184
111.529
113.945
120.73
126.229
139.204
151.44
176.144
206.699
293.368
560.216
632.112
786.801
1287.73
1696.09
1773.42
1760.74
1636.55
1548
1422.91
1341.47
1247.75
1190.16
1129.54
1094.54
1056.86
1032.26
1001.17
973.731
939.135
905.256
867.164
830.451
792.804
757.542
723.375
691.829
662.12
634.675
608.798
584.391
560.964
538.279
516.196
494.531
473.383
452.707
432.777
413.448
395.103
377.448
360.998
345.177
330.819
316.547
304.919
291.664
81.4779
114.435
129.593
138.088
144.494
148.652
151.012
151.974
151.947
151.174
149.869
148.127
146.057
143.722
141.222
138.621
136.037
133.515
131.162
128.987
127.076
125.376
123.949
122.648
121.538
120.408
119.375
118.193
117.08
115.74
114.522
113.061
111.822
110.351
109.213
107.881
106.985
105.973
105.487
105.039
105.143
105.635
106.663
108.788
111.609
116.723
123.481
134.081
148.919
170.641
207.032
297.809
594.423
684.911
795.234
1181.44
1587.66
1728.58
1751.38
1652.63
1572.78
1454.87
1374.86
1283.41
1225.94
1166.43
1131.55
1094.54
1069.87
1038.77
1010.72
975.436
940.459
901.246
863.214
824.288
787.692
752.257
719.451
688.538
659.908
632.872
607.31
582.737
558.917
535.712
512.958
490.749
469.067
448.167
427.939
408.729
390.294
373.082
356.595
341.563
326.741
314.483
300.85
83.483
117.845
132.855
141.456
148.116
152.599
155.338
156.661
156.909
156.302
155.056
153.291
151.142
148.697
146.074
143.354
140.66
138.047
135.619
133.389
131.433
129.694
128.223
126.865
125.677
124.443
123.278
121.938
120.645
119.104
117.672
115.977
114.505
112.772
111.397
109.77
108.645
107.287
106.593
105.718
105.677
105.616
106.66
108.07
111.3
115.523
123.428
132.874
149.921
170.631
211.645
308.234
628.372
734.178
820.279
1109.44
1486.46
1673.04
1729.37
1657.69
1588.57
1479.38
1402.02
1313.7
1257.01
1199.08
1164.7
1128.6
1104.07
1073.15
1044.64
1008.83
972.913
932.725
893.518
853.441
815.632
779.033
745.059
713.019
683.267
655.122
628.449
602.769
577.851
553.562
529.759
506.532
483.889
462.067
440.987
420.963
401.792
383.866
366.757
351.098
335.762
322.917
308.933
84.9699
120.389
135.348
144.134
151.06
155.851
158.945
160.621
161.163
160.759
159.619
157.882
155.7
153.19
150.485
147.683
144.916
142.246
139.779
137.527
135.558
133.812
132.325
130.939
129.695
128.382
127.107
125.636
124.187
122.477
120.859
118.969
117.299
115.356
113.782
111.931
110.617
109.013
108.154
106.996
106.848
106.452
107.536
108.569
112.191
116.057
124.976
134.097
152.95
173.938
218.585
321.575
661.573
780.112
852.065
1066.18
1399.01
1612.24
1697.56
1653.13
1596.2
1497
1423.39
1338.96
1283.71
1227.79
1194.26
1159.33
1135.15
1104.58
1075.78
1039.58
1002.88
961.851
921.602
880.496
841.582
803.915
768.854
735.754
704.933
675.724
647.977
621.222
595.238
569.899
545.081
520.875
497.309
474.609
452.72
431.925
412.062
393.467
375.774
359.53
343.713
330.319
316.01
86.012
122.199
137.193
146.233
153.443
158.532
161.961
163.979
164.819
164.64
163.64
161.967
159.791
157.251
154.497
151.645
148.835
146.138
143.658
141.412
139.456
137.725
136.242
134.845
133.561
132.186
130.815
129.229
127.641
125.782
123.998
121.941
120.096
117.978
116.232
114.203
112.729
110.941
109.946
108.597
108.368
107.776
108.915
109.792
113.793
117.646
127.466
136.774
157.118
179.132
226.73
336.197
693.81
823.142
886.104
1044.66
1328.36
1550.89
1658.88
1640.43
1596.54
1508.27
1439.37
1359.54
1306.32
1252.82
1220.47
1186.96
1163.32
1133.27
1104.34
1067.9
1030.54
988.81
947.646
905.621
865.705
827.056
790.984
756.883
725.04
694.805
666.016
638.215
611.193
584.834
559.033
533.883
509.433
485.893
463.236
441.712
421.196
401.973
383.732
366.942
350.676
336.767
322.157
86.6747
123.383
138.483
147.837
155.348
160.733
164.484
166.831
167.968
168.025
167.185
165.604
163.463
160.922
158.149
155.273
152.446
149.747
147.279
145.059
143.135
141.437
139.973
138.577
137.265
135.836
134.38
132.691
130.975
128.981
127.047
124.842
122.839
120.57
118.67
116.494
114.88
112.952
111.841
110.36
110.069
109.372
110.579
111.444
115.816
119.875
130.51
140.305
161.911
185.351
235.462
351.279
724.993
863.676
920.409
1038.44
1274.68
1492.65
1616.14
1621.17
1590.5
1513.77
1450.35
1375.72
1325.06
1274.37
1243.53
1211.65
1188.77
1159.38
1130.47
1093.93
1056.06
1013.75
971.785
928.947
888.125
848.575
811.558
776.51
743.69
712.463
682.66
653.84
625.807
598.455
571.702
545.641
520.343
496.002
472.614
450.401
429.269
409.456
390.702
373.402
356.717
342.326
327.438
87.0149
124.029
139.294
149.012
156.843
162.524
166.587
169.251
170.678
170.976
170.311
168.84
166.758
164.241
161.472
158.598
155.776
153.096
150.659
148.484
146.609
144.957
143.523
142.137
140.804
139.328
137.794
136.01
134.175
132.057
129.983
127.643
125.495
123.093
121.054
118.753
117.014
114.974
113.763
112.191
111.852
111.111
112.399
113.347
118.09
122.493
133.88
144.329
167.037
192.101
244.446
366.407
755.092
902.053
954.112
1042.43
1236.29
1440.04
1571.84
1596.92
1579.03
1514.09
1456.75
1387.81
1340.19
1292.66
1263.62
1233.58
1211.63
1183.06
1154.32
1117.79
1079.55
1036.77
994.126
950.575
908.937
868.561
830.664
794.719
760.961
728.773
697.984
668.169
639.149
610.833
583.158
556.22
530.108
505.002
480.92
458.056
436.345
415.979
396.745
378.969
361.894
347.052
331.908
87.0826
124.217
139.689
149.812
157.978
163.959
168.327
171.297
173.009
173.546
173.064
171.718
169.713
167.24
164.496
161.643
158.847
156.204
153.817
151.703
149.889
148.294
146.899
145.53
144.18
142.663
141.056
139.182
137.235
135.001
132.795
130.332
128.05
125.528
123.361
120.951
119.1
116.968
115.668
114.034
113.66
112.917
114.298
115.395
120.514
125.35
137.441
148.632
172.328
199.102
253.498
381.367
784.101
938.538
986.843
1053.02
1210.67
1394.43
1528.06
1569.17
1563.12
1509.84
1458.96
1396.11
1351.92
1307.86
1280.87
1252.88
1232.03
1204.41
1175.98
1139.6
1101.1
1057.97
1014.75
970.586
928.217
887.088
848.369
811.575
776.915
743.796
712.046
681.261
651.28
622.026
593.459
565.676
538.785
512.951
488.212
464.733
442.478
421.595
401.914
383.695
366.258
350.994
335.615
86.9213
124.013
139.723
150.281
158.796
165.082
169.75
173.018
175.005
175.781
175.485
174.274
172.358
169.946
167.245
164.431
161.679
159.091
156.768
154.728
152.988
151.459
150.108
148.76
147.398
145.842
144.166
142.206
140.153
137.81
135.48
132.902
130.494
127.863
125.577
123.071
121.117
118.909
117.53
115.855
115.456
114.743
116.23
117.525
123.026
128.353
141.11
153.085
177.685
206.196
262.519
396.047
812.027
973.339
1018.46
1067.74
1195.18
1356.33
1486.43
1539.33
1543.71
1501.64
1457.42
1400.91
1360.49
1320.14
1295.46
1269.67
1250.09
1223.55
1195.54
1159.44
1120.8
1077.43
1033.74
989.048
946.029
904.214
864.73
827.129
791.603
757.582
724.896
693.166
662.25
632.086
602.657
574.063
546.427
519.901
494.54
470.483
447.719
426.354
406.256
387.626
369.855
354.199
338.604
86.5685
123.477
139.442
150.456
159.331
165.927
170.894
174.451
176.707
177.716
177.607
176.537
174.723
172.384
169.741
166.983
164.289
161.771
159.527
157.573
155.915
154.459
153.159
151.835
150.462
148.871
147.127
145.087
142.931
140.484
138.037
135.35
132.824
130.092
127.696
125.104
123.055
120.783
119.335
117.633
117.219
116.561
118.166
119.696
125.588
131.443
144.837
157.612
183.052
213.294
271.456
410.392
838.883
1006.62
1048.94
1084.99
1187.41
1325.54
1448.06
1508.61
1521.73
1490.12
1452.56
1402.52
1366.12
1329.7
1307.51
1284.08
1265.9
1240.56
1213.11
1177.38
1138.72
1095.21
1051.15
1006.02
962.426
919.988
879.793
841.428
805.07
770.174
736.578
703.928
672.102
641.058
610.798
581.425
553.079
525.897
499.95
475.352
452.112
430.298
409.816
390.806
372.728
356.707
340.916
86.057
122.661
138.889
150.373
159.613
166.524
171.788
175.629
178.146
179.384
179.461
178.536
176.83
174.575
172.004
169.314
166.693
164.258
162.105
160.247
158.681
157.304
156.057
154.76
153.378
151.753
149.945
147.826
145.572
143.026
140.467
137.678
135.04
132.215
129.715
127.045
124.909
122.582
121.072
119.358
118.938
118.352
120.09
121.884
128.178
134.586
148.589
162.163
188.395
220.346
280.277
424.372
864.682
1038.5
1078.3
1103.7
1185.42
1301.47
1413.65
1478.05
1498.03
1475.9
1444.83
1401.26
1369.05
1336.7
1317.17
1296.22
1279.57
1255.54
1228.74
1193.5
1154.92
1111.37
1067.03
1021.54
977.453
934.455
893.598
854.511
817.353
781.61
747.129
713.585
680.878
648.982
617.923
587.806
558.785
530.983
504.487
479.382
455.7
433.472
412.635
393.276
374.918
358.558
342.591
85.415
121.611
138.102
150.059
159.67
166.9
172.46
176.579
179.351
180.811
181.072
180.293
178.701
176.539
174.049
171.44
168.905
166.565
164.513
162.761
161.293
159.999
158.809
157.54
156.151
154.492
152.622
150.427
148.078
145.438
142.772
139.887
137.143
134.23
131.633
128.892
126.675
124.302
122.737
121.02
120.605
120.108
121.991
124.076
130.779
137.758
152.346
166.709
193.693
227.322
288.967
437.972
889.438
1069.08
1106.55
1123.19
1187.68
1283.33
1383.49
1448.48
1473.39
1459.56
1434.65
1397.43
1369.51
1341.32
1324.58
1306.22
1291.19
1268.56
1242.53
1207.86
1169.46
1125.96
1081.44
1035.67
991.152
947.652
906.183
866.411
828.485
791.925
756.586
722.173
688.613
655.898
624.072
593.247
563.586
535.2
508.19
482.614
458.524
435.914
414.753
395.074
376.461
359.791
343.667
84.6668
120.368
137.113
149.541
159.523
167.075
172.931
177.324
180.344
182.02
182.461
181.828
180.354
178.292
175.893
173.376
170.937
168.702
166.761
165.122
163.758
162.552
161.42
160.18
158.785
157.094
155.162
152.894
150.453
147.722
144.954
141.977
139.133
136.139
133.45
130.645
128.352
125.94
124.328
122.618
122.215
121.822
123.865
126.261
133.385
140.943
156.094
171.232
198.934
234.206
297.517
451.189
913.169
1098.44
1133.76
1143.01
1193.02
1270.24
1357.62
1420.5
1448.47
1441.66
1422.44
1391.35
1367.73
1343.75
1329.88
1314.17
1300.86
1279.7
1254.53
1220.53
1182.4
1139.04
1094.41
1048.44
1003.56
959.613
917.578
877.16
838.5
801.149
764.979
729.728
695.345
661.841
629.284
597.785
567.521
538.587
511.098
485.087
460.623
437.663
416.207
396.237
377.395
360.441
344.178
83.8332
118.967
135.953
148.844
159.194
167.069
173.22
177.883
181.145
183.032
183.649
183.161
181.807
179.85
177.55
175.132
172.799
170.679
168.858
167.339
166.084
164.968
163.895
162.685
161.283
159.56
157.569
155.229
152.7
149.882
147.016
143.953
141.013
137.943
135.168
132.304
129.941
127.497
125.843
124.148
123.767
123.491
125.709
128.435
135.988
144.131
159.824
175.719
204.112
240.99
305.924
464.02
935.89
1126.65
1159.97
1162.88
1200.59
1261.37
1335.84
1394.53
1423.84
1422.72
1408.62
1383.34
1363.96
1344.16
1333.22
1320.21
1308.67
1289.06
1264.81
1231.56
1193.79
1150.65
1105.99
1059.89
1014.71
970.371
927.815
886.788
847.425
809.313
772.342
736.28
701.106
666.848
633.594
601.458
570.627
541.183
513.251
486.839
462.032
438.756
417.033
396.802
377.757
360.545
344.159
82.9321
117.44
134.649
147.987
158.702
166.9
173.345
178.274
181.772
183.864
184.653
184.307
183.075
181.227
179.03
176.721
174.502
172.505
170.81
169.417
168.275
167.251
166.239
165.058
163.65
161.895
159.845
157.437
154.822
151.921
148.961
145.816
142.786
139.644
136.788
133.87
131.442
128.972
127.282
125.61
125.261
125.115
127.522
130.596
138.585
147.316
163.529
180.162
209.222
247.667
314.184
476.468
957.618
1153.76
1185.21
1182.58
1209.74
1255.97
1317.85
1370.85
1399.96
1403.19
1393.57
1373.69
1358.42
1342.74
1334.74
1324.43
1314.72
1296.7
1273.44
1241
1203.67
1160.83
1116.22
1070.05
1024.63
979.954
936.922
895.323
855.29
816.446
778.703
741.863
705.931
670.953
637.038
604.302
572.941
543.024
514.684
487.907
462.79
439.228
417.268
396.803
377.579
360.135
343.646
81.9786
115.813
133.224
146.992
158.062
166.582
173.32
178.512
182.241
184.531
185.486
185.281
184.17
182.433
180.347
178.151
176.054
174.188
172.626
171.364
170.337
169.407
168.455
167.304
165.888
164.102
161.995
159.519
156.822
153.841
150.791
147.568
144.452
141.243
138.312
135.344
132.857
130.365
128.647
127.005
126.697
126.693
129.304
132.743
141.176
150.492
167.206
184.557
214.262
254.237
322.298
488.533
978.371
1179.82
1209.53
1202
1220
1253.37
1303.27
1349.55
1377.17
1383.49
1377.64
1362.69
1351.35
1339.66
1334.58
1326.97
1319.1
1302.7
1280.49
1248.93
1212.1
1169.62
1125.13
1078.97
1033.37
988.394
944.927
902.792
862.121
822.577
784.093
746.507
709.851
674.19
639.651
606.352
574.5
544.146
515.434
488.326
462.931
439.115
416.946
396.274
376.895
359.245
342.669
80.9858
114.111
131.7
145.876
157.291
166.13
173.159
178.61
182.565
185.047
186.164
186.096
185.104
183.482
181.509
179.433
177.464
175.733
174.31
173.182
172.274
171.438
170.547
169.424
168.001
166.184
164.021
161.48
158.703
155.644
152.509
149.213
146.015
142.744
139.741
136.729
134.188
131.679
129.939
128.334
128.076
128.227
131.057
134.875
143.757
153.656
170.852
188.9
219.231
260.697
330.263
500.221
998.168
1204.85
1232.95
1221.04
1231.01
1253.02
1291.7
1330.66
1355.74
1363.96
1361.16
1350.62
1342.97
1335.1
1332.88
1327.92
1321.91
1307.14
1286.03
1255.39
1219.13
1177.08
1132.77
1086.66
1040.93
995.717
951.857
909.222
867.946
827.734
788.542
750.243
712.899
676.592
641.467
607.645
575.338
544.585
515.536
488.13
462.49
438.45
416.099
395.249
375.739
357.907
341.261
79.9646
112.355
130.097
144.656
156.403
165.557
172.873
178.58
182.756
185.425
186.697
186.762
185.89
184.382
182.526
180.575
178.739
177.149
175.869
174.879
174.09
173.349
172.518
171.421
169.99
168.143
165.925
163.32
160.466
157.335
154.118
150.751
147.477
144.147
141.077
138.025
135.434
132.915
131.158
129.598
129.401
129.718
132.782
136.994
146.33
156.805
174.463
193.189
224.129
267.047
338.081
511.533
1017.03
1228.89
1255.52
1239.64
1242.5
1254.46
1282.74
1314.1
1335.81
1344.87
1344.43
1337.74
1333.48
1329.25
1329.78
1327.41
1323.23
1310.1
1290.11
1260.44
1224.8
1183.23
1139.16
1093.17
1047.37
1001.95
957.738
914.638
872.791
831.943
792.077
753.102
715.107
678.192
642.521
608.213
575.49
544.374
515.024
487.355
461.5
437.266
414.761
393.759
374.14
356.152
339.452
78.9243
110.562
128.431
143.345
155.411
164.874
172.474
178.433
182.824
185.674
187.097
187.291
186.536
185.143
183.406
181.583
179.885
178.441
177.307
176.457
175.789
175.142
174.37
173.299
171.86
169.981
167.709
165.044
162.115
158.913
155.618
152.186
148.839
145.455
142.323
139.235
136.599
134.073
132.306
130.798
130.673
131.168
134.482
139.1
148.893
159.938
178.038
197.424
228.955
273.288
345.751
522.475
1034.97
1251.98
1277.26
1257.77
1254.28
1257.32
1276.03
1299.74
1317.49
1326.46
1327.68
1324.28
1323.11
1322.25
1325.41
1325.54
1323.17
1311.66
1292.81
1264.13
1229.16
1188.14
1144.36
1098.53
1052.7
1007.13
962.597
919.068
876.684
835.234
794.729
755.114
716.506
679.023
642.844
608.091
574.989
543.549
513.931
486.033
459.994
435.596
412.964
391.835
372.131
354.011
337.274
77.8729
108.748
126.718
141.959
154.327
164.093
171.972
178.178
182.779
185.804
187.372
187.692
187.052
185.773
184.157
182.466
180.909
179.614
178.629
177.921
177.374
176.821
176.106
175.06
173.611
171.702
169.377
166.652
163.652
160.383
157.014
153.519
150.103
146.67
143.48
140.36
137.684
135.157
133.386
131.938
131.894
132.581
136.159
141.195
151.446
163.051
181.577
201.602
233.71
279.42
353.271
533.049
1052.02
1274.13
1298.2
1275.4
1266.19
1261.28
1271.23
1287.42
1300.81
1308.9
1311.15
1310.47
1312.03
1314.29
1319.92
1322.43
1321.8
1311.89
1294.19
1266.53
1232.27
1191.82
1148.39
1102.77
1056.96
1011.27
966.461
922.538
879.651
837.635
796.527
756.31
717.128
679.117
642.471
607.312
573.87
542.141
512.291
484.196
458.004
433.471
410.737
389.507
369.74
351.512
334.753
76.817
106.925
124.971
140.508
153.162
163.222
171.376
177.825
182.631
185.825
187.532
187.973
187.445
186.281
184.787
183.229
181.816
180.673
179.84
179.274
178.848
178.387
177.728
176.705
175.246
173.306
170.93
168.147
165.078
161.746
158.306
154.753
151.272
147.793
144.549
141.401
138.69
136.167
134.4
133.018
133.066
133.957
137.814
143.28
153.988
166.145
185.077
205.724
238.394
285.442
360.642
543.26
1068.2
1295.38
1318.36
1292.52
1278.12
1266.1
1268.03
1276.97
1285.74
1292.31
1295
1296.49
1300.42
1305.5
1313.44
1318.19
1319.24
1310.88
1294.32
1267.69
1234.16
1194.33
1151.29
1105.92
1060.17
1014.4
969.356
925.074
881.719
839.172
797.499
756.72
717.005
678.507
641.435
605.909
572.165
540.184
510.136
481.876
455.561
430.921
408.111
386.804
366.996
348.683
331.919
75.762
105.104
123.202
139.006
151.927
162.272
170.694
177.381
182.386
185.744
187.585
188.141
187.723
186.672
185.301
183.879
182.611
181.623
180.943
180.52
180.213
179.844
179.238
178.237
176.767
174.797
172.37
169.531
166.396
163.003
159.496
155.889
152.348
148.825
145.533
142.361
139.62
137.105
135.348
134.04
134.193
135.301
139.451
145.356
156.52
169.216
188.538
209.79
243.007
291.355
367.862
553.113
1083.52
1315.73
1337.76
1309.11
1289.98
1271.57
1266.19
1268.2
1272.23
1276.77
1279.39
1282.51
1288.45
1296.04
1306.07
1312.92
1315.55
1308.68
1293.25
1267.65
1234.89
1195.71
1153.09
1108.02
1062.37
1016.56
971.31
926.703
882.916
839.875
797.676
756.374
716.168
677.223
639.766
603.914
569.906
537.709
507.496
479.104
452.694
427.975
405.114
383.756
363.928
345.551
328.798
74.7126
103.296
121.421
137.461
150.631
161.251
169.934
176.853
182.052
185.567
187.537
188.205
187.894
186.954
185.705
184.42
183.301
182.468
181.941
181.661
181.473
181.192
180.639
179.658
178.176
176.175
173.698
170.806
167.608
164.157
160.587
156.929
153.331
149.77
146.432
143.241
140.475
137.973
136.233
135.008
135.277
136.615
141.072
147.424
159.042
172.265
191.959
213.799
247.549
297.159
374.93
562.61
1098.02
1335.23
1356.44
1325.16
1301.7
1277.52
1265.46
1260.93
1260.21
1262.31
1264.41
1268.68
1276.25
1286.03
1297.96
1306.72
1310.84
1305.39
1291.06
1266.49
1234.51
1196
1153.84
1109.1
1063.59
1017.77
972.349
927.453
883.27
839.772
797.086
755.302
714.647
675.299
637.497
601.359
567.123
534.747
504.402
475.909
449.433
424.663
401.775
380.388
360.56
342.144
325.415
73.6726
101.507
119.637
135.882
149.283
160.166
169.103
176.249
181.636
185.303
187.395
188.17
187.962
187.133
186.006
184.858
183.888
183.211
182.838
182.7
182.63
182.435
181.931
180.968
179.474
177.443
174.918
171.974
168.715
165.21
161.581
157.875
154.225
150.629
147.25
144.043
141.256
138.774
137.057
135.924
136.321
137.901
142.68
149.486
161.552
175.29
195.339
217.751
252.02
302.854
381.846
571.758
1111.72
1353.88
1374.39
1340.69
1313.23
1283.82
1265.66
1254.99
1249.57
1248.97
1250.15
1255.12
1263.96
1275.61
1289.19
1299.7
1305.18
1301.08
1287.81
1264.25
1233.05
1195.24
1153.57
1109.19
1063.85
1018.06
972.501
927.35
882.807
838.89
795.758
753.536
712.472
672.763
634.658
598.273
563.849
531.327
500.884
472.321
445.806
421.01
398.119
376.727
356.92
338.485
321.797
72.6452
99.7435
117.858
134.279
147.891
159.026
168.209
175.575
181.144
184.956
187.165
188.042
187.934
187.213
186.208
185.197
184.377
183.857
183.637
183.64
183.685
183.575
183.118
182.171
180.664
178.602
176.03
173.036
169.72
166.163
162.478
158.728
155.029
151.402
147.986
144.768
141.966
139.507
137.823
136.789
137.327
139.163
144.275
151.542
164.049
178.289
198.678
221.646
256.421
308.439
388.608
580.56
1124.64
1371.7
1391.65
1355.67
1324.52
1290.36
1266.62
1250.2
1240.22
1236.71
1236.68
1241.92
1251.7
1264.89
1279.89
1291.94
1298.66
1295.81
1283.55
1260.98
1230.58
1193.47
1152.32
1108.33
1063.18
1017.45
971.793
926.422
881.556
837.26
793.723
751.103
709.676
669.648
631.281
594.688
560.112
527.48
496.97
468.366
441.841
417.045
394.174
372.798
353.031
334.599
317.966
71.633
98.0112
116.09
132.658
146.462
157.836
167.257
174.836
180.581
184.532
186.852
187.827
187.816
187.201
186.317
185.443
184.772
184.408
184.341
184.483
184.64
184.612
184.199
183.268
181.746
179.653
177.036
173.994
170.624
167.018
163.281
159.49
155.747
152.092
148.644
145.419
142.606
140.177
138.532
137.607
138.298
140.404
145.861
153.593
166.535
181.261
201.975
225.485
260.752
313.915
395.216
589.022
1136.8
1388.72
1408.23
1370.13
1335.55
1297.04
1268.19
1246.43
1232.05
1225.52
1224
1229.16
1239.54
1253.97
1270.15
1283.53
1291.35
1289.66
1278.36
1256.75
1227.13
1190.74
1150.12
1106.54
1061.63
1015.98
970.255
924.697
879.545
834.909
791.008
748.034
706.286
665.982
627.394
590.634
555.941
523.234
492.688
464.073
437.563
412.792
389.963
368.626
348.918
330.509
313.945
70.6381
96.3139
114.339
131.026
145.003
156.604
166.253
174.038
179.952
184.036
186.462
187.53
187.611
187.1
186.336
185.598
185.076
184.869
184.952
185.231
185.498
185.548
185.178
184.259
182.722
180.6
177.938
174.851
171.428
167.778
163.991
160.164
156.379
152.701
149.224
145.995
143.177
140.784
139.187
138.38
139.238
141.625
147.439
155.639
169.006
184.206
205.229
229.266
265.012
319.281
401.669
597.149
1148.24
1404.96
1424.15
1384.05
1346.27
1303.8
1270.26
1243.53
1224.95
1215.34
1212.15
1216.91
1227.59
1242.94
1260.06
1274.57
1283.35
1282.7
1272.29
1251.6
1222.75
1187.08
1147.01
1103.86
1059.21
1013.68
967.913
922.202
876.803
831.866
787.644
744.359
702.333
661.796
623.028
586.137
551.365
518.615
488.064
459.466
432.997
408.275
385.511
364.233
344.602
326.236
309.755
69.6621
94.6547
112.61
129.39
143.519
155.335
165.202
173.186
179.262
183.473
185.999
187.154
187.325
186.916
186.269
185.667
185.294
185.24
185.474
185.886
186.261
186.387
186.056
185.147
183.595
181.443
178.738
175.607
172.135
168.442
164.61
160.749
156.928
153.229
149.729
146.5
143.683
141.331
139.79
139.111
140.149
142.831
149.012
157.681
171.464
187.122
208.441
232.991
269.202
324.537
407.966
604.946
1158.97
1420.43
1439.43
1397.45
1356.68
1310.56
1272.71
1241.39
1218.81
1206.12
1201.11
1205.2
1215.9
1231.87
1249.69
1265.12
1274.7
1274.98
1265.4
1245.59
1217.5
1182.54
1143.03
1100.33
1055.95
1010.57
964.796
918.967
873.356
828.16
783.658
740.106
697.846
657.118
618.21
581.228
546.41
513.651
483.125
454.571
428.168
403.519
380.84
359.641
340.106
321.801
305.418
68.7064
93.036
110.905
127.753
142.018
154.034
164.11
172.284
178.516
182.847
185.467
186.706
186.962
186.652
186.121
185.654
185.427
185.527
185.907
186.451
186.93
187.128
186.834
185.934
184.365
182.183
179.437
176.264
172.745
169.014
165.14
161.249
157.394
153.679
150.159
146.936
144.124
141.819
140.344
139.803
141.035
144.024
150.579
159.718
173.906
190.008
211.609
236.66
273.321
329.682
414.106
612.42
1169.03
1435.16
1454.06
1410.33
1366.76
1317.28
1275.47
1239.89
1213.52
1197.81
1190.87
1194.06
1204.52
1220.85
1239.13
1255.27
1265.5
1266.59
1257.75
1238.77
1211.41
1177.16
1138.21
1095.98
1051.9
1006.68
960.934
915.02
869.235
823.819
779.081
735.305
692.854
651.977
612.969
575.932
541.104
508.367
477.895
449.412
423.1
398.546
375.972
354.872
335.449
317.225
300.952
67.772
91.4595
109.23
126.121
140.503
152.706
162.981
171.337
177.717
182.162
184.87
186.187
186.526
186.312
185.896
185.561
185.479
185.73
186.255
186.928
187.507
187.773
187.513