/*--------------------------------*- C++ -*----------------------------------*\
| =========                 |                                                 |
| \\      /  F ield         | OpenFOAM: The Open Source CFD Toolbox           |
|  \\    /   O peration     | Version:  2412                                  |
|   \\  /    A nd           | Website:  www.openfoam.com                      |
|    \\/     M anipulation  |                                                 |
\*---------------------------------------------------------------------------*/
FoamFile
{
    version     2.0;
    format      ascii;
    arch        "LSB;label=32;scalar=64";
    class       volScalarField;
    location    "1";
    object      nut;
}
// * * * * * * * * * * * * * * * * * * * * * * * * * * * * * * * * * * * * * //

dimensions      [0 2 -1 0 0 0 0];

internalField   nonuniform List<scalar> 
13156
(
0.00128471
0.00129761
0.00115689
0.00105503
0.000996142
0.000958082
0.000930652
0.000909495
0.000892796
0.000879078
0.000867187
0.000855991
0.000844922
0.000833494
0.00082174
0.000809438
0.000796972
0.000784157
0.000771454
0.000758564
0.000746154
0.000733656
0.000722072
0.000710399
0.000699922
0.000689111
0.000679842
0.00066974
0.000661721
0.000652149
0.000645401
0.0006361
0.000630555
0.000621515
0.000617428
0.000608414
0.000606152
0.000596817
0.00059677
0.000586672
0.000589496
0.000578017
0.000584503
0.000570882
0.00058203
0.000565077
0.000581432
0.00055928
0.000581888
0.000552895
0.000589269
0.000552118
0.000674553
0.000723556
0.000618878
0.000568384
0.000549923
0.000539782
0.000536108
0.000532016
0.000530834
0.000528171
0.000528088
0.000526521
0.000527802
0.000528057
0.000531546
0.000534266
0.000539657
0.000543694
0.000548939
0.000552339
0.000555981
0.00055801
0.000560103
0.000561222
0.000562535
0.000563494
0.000564743
0.000565996
0.000567542
0.000569304
0.000571119
0.000573204
0.000574976
0.000577037
0.000578427
0.000580225
0.000580925
0.000582512
0.000582516
0.000584151
0.000583451
0.000585654
0.000584188
0.000587769
0.000585153
0.000591487
0.000588727
0.00386861
0.0038712
0.00266176
0.00203353
0.00172018
0.00155801
0.00149462
0.00149786
0.00153733
0.00158356
0.00162303
0.00164919
0.0016645
0.00167036
0.00167099
0.00166722
0.00166133
0.00165191
0.0016414
0.00162725
0.00161212
0.00159316
0.00157347
0.00154933
0.00152637
0.00149872
0.00147412
0.00144474
0.00142007
0.00138992
0.00136686
0.00133636
0.00131512
0.00128746
0.00126845
0.00124428
0.00122656
0.00120679
0.00118953
0.00117541
0.00115646
0.00115002
0.00112658
0.00113057
0.00109898
0.00111791
0.00107596
0.00111325
0.00105688
0.00110824
0.00102897
0.00107381
0.000798833
0.00128074
0.00199953
0.0021137
0.00231005
0.00223427
0.00242806
0.00233481
0.00249504
0.00240819
0.00254643
0.00249073
0.00262762
0.00261987
0.00276848
0.00280703
0.00295686
0.00301337
0.00313723
0.00318297
0.00326756
0.00329452
0.00334645
0.00336098
0.00339272
0.00340306
0.00342366
0.00343424
0.00344858
0.0034573
0.00346535
0.00346832
0.00346615
0.0034596
0.00344524
0.00342808
0.00340247
0.00337879
0.00334509
0.00331912
0.00327683
0.00325666
0.00320496
0.00319823
0.00312781
0.0031568
0.00304553
0.00159732
0.00247567
0.00214772
0.0019744
0.00201736
0.00223576
0.00252611
0.00277127
0.00293096
0.00299868
0.00300604
0.00296711
0.00290562
0.00282601
0.00274341
0.00265723
0.00257988
0.00250359
0.00244049
0.00237839
0.00232956
0.00227811
0.00223967
0.00219112
0.00215695
0.00210606
0.00207303
0.00201699
0.00198606
0.00192338
0.00189762
0.00182869
0.00180583
0.00173302
0.00171461
0.00164098
0.00162963
0.00155521
0.00155211
0.00147712
0.00148178
0.00140653
0.0014176
0.00134368
0.00135875
0.0012897
0.00130889
0.00125209
0.0012729
0.0012333
0.00123385
0.00126047
0.00102926
0.00110053
0.00240864
0.00300707
0.00367125
0.00375039
0.00424719
0.00418943
0.00457477
0.00448634
0.00480729
0.00475786
0.00506962
0.00510987
0.0054489
0.00558295
0.00592707
0.00609227
0.00637741
0.00650839
0.00670366
0.00678422
0.0069048
0.00695148
0.00702546
0.00705799
0.00710508
0.00713203
0.00716131
0.00717724
0.00718665
0.00718357
0.00716545
0.00713724
0.00708991
0.00703747
0.00696508
0.00689916
0.00681049
0.00674195
0.00663925
0.00658212
0.00646037
0.00643412
0.00627314
0.00632065
0.00609754
0.0019231
0.00189196
0.0023915
0.002987
0.00373913
0.00458971
0.00537248
0.0059245
0.00621111
0.00625006
0.00612961
0.00590284
0.0056298
0.00532767
0.00502726
0.00472912
0.00445695
0.00419865
0.00397628
0.00377019
0.00360095
0.0034424
0.00331842
0.00319172
0.0030964
0.00298519
0.00290463
0.00279656
0.00272479
0.00261295
0.00254977
0.00243353
0.00237859
0.00225798
0.00220975
0.00208989
0.00205354
0.00193535
0.00191282
0.00179685
0.00178786
0.00167376
0.00167695
0.00156513
0.00157851
0.0014706
0.00149595
0.00140013
0.00143922
0.00136608
0.00139939
0.00145065
0.00158119
0.00105897
0.00255386
0.00363969
0.00471505
0.00505929
0.0058303
0.00592545
0.00650129
0.00650524
0.00697357
0.00700185
0.00745599
0.00759623
0.00809852
0.00836453
0.00888188
0.00918049
0.00961106
0.00984344
0.0101379
0.0102826
0.0104641
0.0105495
0.0106608
0.0107186
0.0107891
0.0108316
0.0108727
0.0108925
0.0108982
0.0108834
0.0108432
0.0107868
0.0107012
0.0106077
0.0104852
0.0103723
0.0102278
0.0101126
0.00995336
0.00985441
0.00967837
0.00961938
0.00939933
0.00943879
0.00915584
0.0062305
0.00433283
0.00564092
0.00670988
0.00776353
0.00881474
0.00974233
0.0103989
0.0107382
0.0107477
0.0105152
0.0101056
0.00960477
0.00904593
0.00847885
0.00791031
0.00737817
0.00686861
0.00641647
0.0059954
0.00563787
0.00530604
0.0050367
0.00477377
0.00456738
0.00434595
0.00417656
0.00397254
0.00382516
0.00362384
0.00349341
0.00329161
0.00317923
0.00297645
0.00287865
0.00268049
0.00260347
0.00241242
0.00235899
0.00217689
0.00214654
0.00197343
0.00196396
0.0017998
0.00180871
0.00165335
0.001683
0.00154347
0.0016003
0.00149038
0.00157136
0.00164242
0.00260643
0.00128119
0.00259229
0.0040653
0.00551653
0.0061468
0.00717234
0.00746086
0.00821539
0.00834971
0.00895388
0.00908957
0.00967391
0.009934
0.0105862
0.0109947
0.0116713
0.0121076
0.0126711
0.0130063
0.0133907
0.0136
0.0138361
0.0139603
0.0141047
0.0141867
0.014277
0.0143323
0.0143812
0.0144009
0.0143982
0.0143668
0.0143006
0.0142117
0.0140853
0.0139479
0.0137752
0.0136134
0.0134155
0.0132523
0.0130413
0.0128987
0.0126767
0.0125811
0.012319
0.0123379
0.0120193
0.0159585
0.0113017
0.0122727
0.0127473
0.0134108
0.0142096
0.0149821
0.0155565
0.0158565
0.0158212
0.0155057
0.01496
0.0142756
0.0134954
0.0126846
0.0118587
0.0110695
0.010305
0.00961194
0.00896033
0.00839388
0.00786499
0.0074237
0.00699511
0.00664752
0.00628259
0.00599268
0.00565692
0.0054025
0.00507429
0.00484711
0.00452124
0.00432462
0.00400132
0.00383243
0.00351748
0.00338276
0.00308009
0.0029844
0.00269755
0.00264083
0.00237118
0.00235082
0.00209917
0.00211251
0.0018775
0.00192795
0.00171404
0.00181372
0.00163633
0.00181463
0.00190554
0.00426077
0.00202425
0.00270312
0.00436233
0.00614725
0.00705787
0.0083159
0.00880597
0.009729
0.0100077
0.0107409
0.0109964
0.0117042
0.0120917
0.0128848
0.0134375
0.0142623
0.0148339
0.01552
0.0159548
0.0164212
0.0166927
0.016978
0.017139
0.0173124
0.0174163
0.0175228
0.0175878
0.0176403
0.017656
0.0176409
0.017589
0.0174937
0.0173693
0.0172011
0.0170183
0.0167964
0.0165855
0.0163368
0.0161255
0.015867
0.0156807
0.015418
0.0152847
0.0149906
0.0149824
0.0146409
0.02927
0.021438
0.0209884
0.0202269
0.0200858
0.0203434
0.0207611
0.0211141
0.0212855
0.0211646
0.0207648
0.0201077
0.0192758
0.0183137
0.0172955
0.0162454
0.0152265
0.0142313
0.0133162
0.0124503
0.0116857
0.0109679
0.0103566
0.00976151
0.00926542
0.00874698
0.00832117
0.00783637
0.00745441
0.00697741
0.00663098
0.00615646
0.00585291
0.00538274
0.00512326
0.00466292
0.00445351
0.00400785
0.00385744
0.00343082
0.00334147
0.00293663
0.00290748
0.00252711
0.00255807
0.00220047
0.00229936
0.00196517
0.00215308
0.0018595
0.00221975
0.00236575
0.00662644
0.00354496
0.00310165
0.00461832
0.0066679
0.00783907
0.00930638
0.00999134
0.0110708
0.0114959
0.0123514
0.0127305
0.0135561
0.0140727
0.0149995
0.015694
0.0166574
0.0173592
0.0181586
0.018688
0.0192294
0.0195592
0.0198889
0.0200839
0.0202826
0.0204057
0.0205248
0.0205963
0.0206486
0.0206565
0.0206255
0.0205499
0.0204233
0.0202616
0.020051
0.0198224
0.0195526
0.0192932
0.0189964
0.0187382
0.0184357
0.0182065
0.0179071
0.0177363
0.0174161
0.0173773
0.0170204
0.0431752
0.0328674
0.0307014
0.0285154
0.0274002
0.026962
0.0269022
0.0269365
0.0269055
0.0266517
0.0261471
0.0253808
0.0244186
0.0233001
0.0221032
0.0208585
0.0196384
0.0184405
0.0173287
0.0162732
0.0153315
0.0144444
0.0136774
0.0129282
0.0122889
0.0116208
0.0110555
0.0104184
0.00989888
0.00926553
0.0087863
0.00815363
0.00772782
0.00710015
0.00673606
0.00611765
0.00581959
0.00521614
0.00499927
0.00441357
0.00428409
0.00371857
0.00368092
0.00313962
0.00320207
0.00268258
0.0028647
0.00236133
0.00270001
0.002235
0.00289401
0.00318815
0.00964088
0.0058377
0.00400196
0.00492593
0.00713526
0.00853067
0.0101829
0.0110486
0.0122707
0.0128374
0.0138076
0.0143093
0.0152471
0.0158913
0.0169451
0.0177768
0.0188703
0.0196958
0.0206001
0.0212182
0.021828
0.0222123
0.0225817
0.0228077
0.0230283
0.0231676
0.023296
0.0233708
0.0234193
0.0234161
0.0233662
0.0232642
0.0231046
0.0229044
0.0226514
0.0223772
0.0220611
0.0217544
0.021412
0.0211083
0.0207648
0.0204942
0.020161
0.0199537
0.0196101
0.0195403
0.0191727
0.0565631
0.0445737
0.0407828
0.0372143
0.0350909
0.0338971
0.033292
0.032944
0.0326544
0.0322244
0.0315876
0.0307014
0.0296116
0.0283492
0.0269918
0.0255743
0.0241758
0.0227991
0.021514
0.0202922
0.0191946
0.0181588
0.0172523
0.0163639
0.0155905
0.014781
0.0140781
0.0132917
0.0126311
0.0118419
0.0112231
0.0104323
0.00987566
0.00909088
0.00861218
0.00783717
0.00744096
0.00668017
0.00638744
0.00564098
0.00546367
0.00473158
0.00468331
0.00396916
0.00407428
0.00337293
0.00367354
0.00296792
0.00352575
0.00284991
0.00393436
0.0045177
0.013133
0.00870828
0.00552281
0.00537673
0.00760406
0.00916811
0.0109781
0.0120059
0.0133554
0.014055
0.0151316
0.0157517
0.0167961
0.0175642
0.0187387
0.0197021
0.0209176
0.02186
0.022861
0.0235621
0.024234
0.0246685
0.0250733
0.0253273
0.0255665
0.0257192
0.0258536
0.0259286
0.0259701
0.0259528
0.0258814
0.025751
0.0255571
0.0253176
0.0250225
0.0247035
0.0243425
0.0239899
0.0236043
0.0232569
0.0228749
0.0225646
0.0222003
0.0219577
0.0215927
0.0214919
0.021116
0.0690533
0.056074
0.0508878
0.046076
0.0429848
0.04103
0.0398503
0.0390817
0.0384935
0.037851
0.0370544
0.0360317
0.0348085
0.0334053
0.0318971
0.030321
0.028761
0.0272242
0.0257848
0.0244164
0.0231811
0.0220139
0.0209823
0.0199678
0.0190687
0.018126
0.0172888
0.0163578
0.0155556
0.0146142
0.0138535
0.0129089
0.0122175
0.0112814
0.0106824
0.009759
0.00925928
0.0083505
0.00797547
0.00707861
0.00684695
0.00595868
0.00589636
0.00501877
0.00517418
0.0042978
0.00474648
0.00383644
0.00467217
0.003784
0.00539548
0.00641079
0.0169092
0.0119548
0.00763225
0.00605422
0.00813246
0.00978473
0.01172
0.0128873
0.0143479
0.0151691
0.0163432
0.0170758
0.0182208
0.0191081
0.0203971
0.021486
0.0228154
0.0238679
0.0249579
0.0257362
0.0264645
0.0269452
0.0273813
0.0276602
0.027915
0.0280781
0.0282155
0.0282879
0.0283194
0.0282854
0.0281901
0.0280295
0.0278005
0.0275214
0.0271845
0.0268214
0.0264172
0.0260203
0.0255936
0.0252045
0.0247864
0.0244383
0.0240447
0.0237685
0.0233836
0.0232523
0.0228689
0.0806041
0.0671601
0.0608306
0.0549457
0.0509643
0.048275
0.0465172
0.0453088
0.0443951
0.0435117
0.0425301
0.0413524
0.0399853
0.0384387
0.0367831
0.0350569
0.0333469
0.0316641
0.0300853
0.0285857
0.0272273
0.0259426
0.0247969
0.0236664
0.0226483
0.0215787
0.02061
0.0195389
0.0185961
0.0175069
0.0166041
0.0155114
0.0146845
0.0136045
0.0128832
0.0118216
0.0112161
0.0101721
0.00971125
0.00867978
0.00838934
0.00736424
0.00728503
0.00626808
0.00647942
0.00545776
0.0060766
0.00499237
0.00614534
0.00508596
0.00727713
0.00882382
0.0208091
0.0154232
0.0102009
0.00702524
0.00877825
0.0104132
0.0124337
0.0137136
0.0152681
0.0161979
0.0174598
0.0182976
0.0195372
0.0205381
0.0219351
0.0231432
0.0245791
0.0257347
0.0269067
0.0277564
0.0285358
0.0290584
0.0295222
0.029823
0.0300902
0.030261
0.0303987
0.0304657
0.0304845
0.0304314
0.0303104
0.0301182
0.0298532
0.0295344
0.0291563
0.0287502
0.0283041
0.0278647
0.0273989
0.02697
0.0265178
0.0261337
0.0257127
0.0254043
0.0250007
0.0248397
0.0244494
0.0913014
0.077757
0.0705144
0.0637269
0.0589481
0.0555692
0.0532468
0.0515935
0.050338
0.0491922
0.0480041
0.0466532
0.0451296
0.0434331
0.0416297
0.0397574
0.037905
0.0360862
0.0343793
0.0327604
0.0312901
0.0298983
0.0286468
0.0274073
0.0262745
0.0250824
0.0239842
0.0227766
0.0216942
0.0204616
0.0194179
0.0181829
0.0172216
0.0160056
0.0151621
0.0139725
0.0132612
0.0120951
0.0115471
0.010398
0.0100466
0.00890707
0.00880997
0.0076846
0.00795773
0.00683408
0.00763929
0.00643334
0.00792315
0.00676253
0.00953593
0.0116481
0.0247189
0.0190037
0.013083
0.00832936
0.0095933
0.0110853
0.0131424
0.0145031
0.0161328
0.0171568
0.0184966
0.0194316
0.0207593
0.0218677
0.0233662
0.0246873
0.0262222
0.0274744
0.0287215
0.029637
0.0304624
0.031023
0.0315109
0.0318305
0.0321075
0.0322834
0.0324187
0.0324777
0.0324814
0.032407
0.0322585
0.0320336
0.0317322
0.0313736
0.0309549
0.0305069
0.0300204
0.0295401
0.0290371
0.0285703
0.0280857
0.0276675
0.0272206
0.0268817
0.0264603
0.0262706
0.0258737
0.101264
0.0878537
0.0798933
0.0723607
0.0668806
0.062866
0.0600036
0.0579102
0.0563049
0.0548816
0.0534688
0.0519279
0.0502347
0.0483801
0.0464254
0.0444081
0.0424177
0.04047
0.0386432
0.036914
0.0353401
0.0338487
0.0324968
0.0311528
0.0299078
0.0285958
0.0273692
0.0260276
0.0248071
0.0234349
0.0222521
0.0208803
0.0197867
0.0184418
0.0174779
0.0161696
0.015354
0.0140779
0.0134435
0.0121926
0.0117804
0.0105483
0.0104347
0.00923331
0.00957566
0.00839819
0.0094025
0.00813667
0.00996795
0.00878569
0.0121064
0.0147628
0.0285658
0.0226197
0.0161566
0.00997235
0.0106175
0.0118315
0.0138671
0.0152723
0.0169571
0.0180594
0.0194666
0.0204901
0.0218993
0.0231088
0.0247025
0.02613
0.0277571
0.0290989
0.030415
0.0313906
0.0322574
0.0328521
0.0333608
0.0336964
0.0339804
0.0341589
0.0342893
0.0343379
0.0343243
0.0342266
0.0340491
0.0337905
0.0334522
0.0330542
0.0325956
0.0321067
0.0315812
0.0310617
0.030523
0.0300201
0.029505
0.0290544
0.028583
0.0282151
0.0277768
0.0275592
0.027156
0.110611
0.0974697
0.0889512
0.0808127
0.0747237
0.0701314
0.0667603
0.0642385
0.0622817
0.0605705
0.0589186
0.0571726
0.0552968
0.0532748
0.0511638
0.0490005
0.0468745
0.0448023
0.0428617
0.0410286
0.039357
0.0377709
0.036322
0.0348758
0.0335197
0.0320887
0.0307343
0.0292605
0.0279029
0.0263945
0.0250748
0.0235714
0.0223482
0.0208812
0.0197995
0.0183809
0.0174634
0.0160881
0.0153691
0.0140307
0.0135593
0.012255
0.0121284
0.0108821
0.0113031
0.0101194
0.0113335
0.0100693
0.0122368
0.0111076
0.0149179
0.0180636
0.0323061
0.0262182
0.0193304
0.0119285
0.0118737
0.0126788
0.0146276
0.0160363
0.0177543
0.0189177
0.0203815
0.0214841
0.0229678
0.024272
0.0259546
0.0274819
0.0291944
0.0306192
0.031998
0.0330285
0.0339322
0.0345571
0.0350836
0.0354324
0.035721
0.0358996
0.0360229
0.0360588
0.0360258
0.0359031
0.0356953
0.0354023
0.0350269
0.0345895
0.0340917
0.033563
0.0329999
0.0324426
0.03187
0.0313328
0.0307885
0.0303073
0.0298126
0.0294173
0.0289627
0.0287182
0.0283089
0.119446
0.106639
0.0976894
0.0890649
0.0824525
0.0773406
0.0734955
0.0705621
0.0682566
0.0662513
0.0643488
0.0623843
0.0603136
0.0581149
0.0558416
0.0535299
0.0512687
0.049075
0.0470246
0.0450921
0.0433266
0.0416489
0.0401044
0.0385568
0.0370893
0.0355395
0.034057
0.0324521
0.0309586
0.029317
0.0278628
0.0262324
0.0248828
0.0232997
0.0221034
0.0205818
0.0195657
0.0181005
0.0172998
0.0158864
0.0153589
0.0140006
0.0138666
0.012604
0.013115
0.011969
0.0134025
0.0121954
0.0146875
0.0136737
0.0179039
0.021465
0.0359162
0.0297628
0.0225394
0.0141506
0.013366
0.013649
0.0154423
0.0168088
0.0185362
0.0197425
0.0212515
0.0224235
0.0239743
0.0253665
0.0271317
0.0287521
0.0305434
0.0320447
0.0334804
0.0345606
0.035497
0.0361485
0.0366898
0.0370491
0.0373399
0.0375164
0.0376303
0.0376515
0.0375972
0.037448
0.0372087
0.0368805
0.0364678
0.0359915
0.0354552
0.0348877
0.0342883
0.0336948
0.0330897
0.0325198
0.0319479
0.0314376
0.0309207
0.0304993
0.0300291
0.0297589
0.0293435
0.127859
0.1154
0.106119
0.09711
0.0900514
0.0844761
0.080193
0.0768675
0.0742199
0.0719173
0.069755
0.0675606
0.0652838
0.0628989
0.0604571
0.0579937
0.0555968
0.053283
0.0511253
0.0490961
0.0472391
0.0454711
0.0438313
0.0421817
0.0406015
0.0389321
0.0373211
0.0355859
0.0339575
0.0321854
0.0305992
0.028846
0.0273734
0.0256797
0.0243724
0.0227545
0.0216432
0.0200964
0.0192174
0.01774
0.0171607
0.0157643
0.0156302
0.0143774
0.0149913
0.0139224
0.0155835
0.0144808
0.0172818
0.0164303
0.021006
0.024901
0.039385
0.0332293
0.0257382
0.0165819
0.0150811
0.0147576
0.0163275
0.0176028
0.0193132
0.0205432
0.0220853
0.0233167
0.0249274
0.0264006
0.0282422
0.0299488
0.0318124
0.0333837
0.0348707
0.0359954
0.0369605
0.0376352
0.0381885
0.0385558
0.0388465
0.0390187
0.0391212
0.0391258
0.0390484
0.0388712
0.0385995
0.0382356
0.0377855
0.0372707
0.0366965
0.0360915
0.0354568
0.0348286
0.0341924
0.0335914
0.0329932
0.0324553
0.0319173
0.0314712
0.030986
0.0306909
0.0302696
0.135925
0.123793
0.114257
0.104948
0.0975112
0.0915256
0.0868405
0.0831442
0.0801631
0.0775626
0.0751337
0.0726994
0.0702061
0.0676262
0.0650094
0.0623906
0.0598566
0.0574229
0.0551593
0.0530351
0.0510875
0.0492293
0.0474932
0.0457401
0.0440455
0.0422552
0.0405148
0.0386498
0.0368876
0.0349875
0.0332719
0.0313999
0.0298078
0.0280085
0.0265939
0.0248857
0.0236831
0.0220619
0.0211085
0.0195768
0.0189505
0.0175307
0.017405
0.0161858
0.0169165
0.0159594
0.0178549
0.0168948
0.0199859
0.0193286
0.0241753
0.0283223
0.0427097
0.0366021
0.0288957
0.0191651
0.0169928
0.016012
0.017296
0.0184297
0.0200952
0.0213287
0.0228911
0.0241716
0.0258346
0.0273817
0.0292931
0.0310792
0.0330086
0.0346436
0.0361763
0.0373408
0.0383306
0.0390251
0.0395877
0.0399606
0.0402492
0.0404149
0.0405041
0.0404902
0.0403883
0.0401818
0.0398767
0.0394767
0.0389893
0.0384364
0.0378251
0.0371834
0.0365149
0.0358533
0.0351873
0.0345566
0.0339334
0.0333694
0.0328112
0.0323417
0.031842
0.031523
0.0310958
0.143707
0.131859
0.122123
0.112583
0.104828
0.0984811
0.0934288
0.0893837
0.0860794
0.0831821
0.0804813
0.0777986
0.0750795
0.0722964
0.0694982
0.06672
0.0640469
0.0614931
0.059124
0.0569052
0.054867
0.0529176
0.0510834
0.0492246
0.0474133
0.0455006
0.04363
0.0416356
0.0397406
0.0377147
0.0358724
0.0338854
0.0321772
0.030277
0.028759
0.0269659
0.0256759
0.0239868
0.0229632
0.021386
0.0207183
0.0192881
0.0191805
0.0180167
0.0188788
0.0180635
0.0201987
0.0194108
0.0227709
0.0223261
0.0273717
0.0316934
0.0458923
0.0398717
0.0319907
0.0218483
0.0190673
0.0174121
0.0183568
0.0192996
0.0208912
0.0221068
0.0236762
0.0249951
0.0267027
0.0283162
0.030291
0.0321497
0.0341385
0.0358308
0.037404
0.0386034
0.0396143
0.0403253
0.0408947
0.0412709
0.0415552
0.0417126
0.0417867
0.0417526
0.0416246
0.0413877
0.0410486
0.0406121
0.0400874
0.0394968
0.0388492
0.038172
0.0374706
0.036777
0.0360826
0.0354236
0.0347765
0.0341877
0.0336103
0.0331185
0.032605
0.0322631
0.0318298
0.151253
0.139632
0.129738
0.120024
0.112001
0.105337
0.0999511
0.0955794
0.0919631
0.0887713
0.0857948
0.0828565
0.0799032
0.076909
0.0739235
0.0709817
0.0681674
0.0654925
0.0630176
0.0607039
0.058574
0.0565318
0.0545969
0.0526297
0.0506992
0.0486624
0.0466608
0.0445372
0.0425107
0.0403613
0.0383949
0.0362964
0.0344757
0.0324789
0.0308614
0.0289883
0.0276148
0.0258638
0.0247746
0.0231596
0.0224569
0.0210285
0.0209496
0.0198613
0.0208698
0.020222
0.0226004
0.0220062
0.0256123
0.0253866
0.0305632
0.034989
0.0489378
0.043033
0.0350092
0.0245871
0.0212682
0.0189505
0.019515
0.0202206
0.0217091
0.0228848
0.0244475
0.0257936
0.0275377
0.0292101
0.0312416
0.0331659
0.0352078
0.0369512
0.0385595
0.0397893
0.0408175
0.0415421
0.0421158
0.042493
0.0427712
0.0429183
0.0429755
0.0429197
0.0427643
0.042496
0.0421222
0.0416491
0.0410873
0.0404595
0.0397764
0.0390646
0.0383315
0.0376071
0.0368855
0.0361996
0.0355298
0.0349174
0.0343217
0.0338088
0.0332819
0.0329179
0.0324787
0.158605
0.147148
0.137122
0.127278
0.119032
0.11209
0.106403
0.101726
0.0978092
0.0943261
0.0910712
0.087871
0.084676
0.0814637
0.0782852
0.075176
0.072218
0.0694207
0.066839
0.0644294
0.0622062
0.0600688
0.0580304
0.0559518
0.0538995
0.0517368
0.0496033
0.0473509
0.045194
0.0429234
0.0408356
0.038629
0.0366993
0.0346101
0.032897
0.0309485
0.0294952
0.0276881
0.0265379
0.0248925
0.0241613
0.0227462
0.0227074
0.0217134
0.0228833
0.0224248
0.0250479
0.0246619
0.0284893
0.0284798
0.0337245
0.0381925
0.0518525
0.0460845
0.0379427
0.0273453
0.0235599
0.0206143
0.020771
0.0211991
0.0225557
0.0236692
0.025211
0.026573
0.0283454
0.0300688
0.0321502
0.034133
0.0362214
0.0380098
0.0396481
0.0409038
0.0419458
0.0426809
0.0432565
0.0436326
0.0439028
0.044038
0.0440768
0.0439977
0.0438138
0.0435132
0.0431042
0.0425942
0.0419955
0.0413312
0.0406132
0.039868
0.0391042
0.0383503
0.0376026
0.0368912
0.0361997
0.035565
0.0349518
0.0344189
0.0338791
0.033494
0.0330488
0.165796
0.154435
0.144297
0.134358
0.125925
0.11874
0.112781
0.107819
0.103614
0.0998433
0.0963079
0.0928403
0.089397
0.0859602
0.0825833
0.0793028
0.0761987
0.0732774
0.0705877
0.0680805
0.065762
0.0635265
0.0613813
0.0591882
0.0570115
0.0547212
0.0524551
0.0500744
0.0477885
0.0453987
0.0431924
0.040881
0.0388457
0.0366681
0.0348632
0.0328436
0.0313143
0.0294563
0.02825
0.0265812
0.0258285
0.0244377
0.0244511
0.0235692
0.0249153
0.0246643
0.0275315
0.0273619
0.0313846
0.0315806
0.0368362
0.0412928
0.0546439
0.0490264
0.0407861
0.0300943
0.0259099
0.0223864
0.0221213
0.0222389
0.0234367
0.0244658
0.0259724
0.0273384
0.0291306
0.030897
0.0330213
0.0350555
0.0371841
0.0390112
0.0406745
0.0419516
0.0430041
0.0437467
0.044322
0.0446949
0.0449554
0.0450769
0.0450957
0.0449922
0.0447786
0.0444449
0.0440003
0.0434535
0.0428182
0.0421178
0.0413658
0.0405881
0.0397948
0.0390126
0.0382399
0.0375042
0.036792
0.0361363
0.0355064
0.0349544
0.0344023
0.0339969
0.0335457
0.17285
0.161523
0.151281
0.141274
0.132685
0.125287
0.119083
0.113857
0.109374
0.10532
0.101502
0.0977627
0.0940651
0.090398
0.0868179
0.0833626
0.0801098
0.0770626
0.0742634
0.0716567
0.0692402
0.0669034
0.064648
0.0623372
0.0600335
0.057614
0.0552149
0.0527064
0.0502929
0.0477863
0.0454641
0.0430511
0.0409139
0.0386514
0.0367586
0.0346721
0.0330708
0.0311667
0.0299094
0.0282236
0.0274571
0.0261012
0.0261795
0.0254264
0.0269631
0.0269346
0.0300434
0.0300929
0.0342838
0.0346687
0.0398834
0.0442838
0.0573195
0.0518608
0.0435371
0.0328123
0.0282897
0.0242472
0.0235589
0.0233418
0.0243562
0.0252794
0.0267366
0.0280946
0.029898
0.0316991
0.0338592
0.0359376
0.0380997
0.0399596
0.0416428
0.0429369
0.0439965
0.0447439
0.0453167
0.0456845
0.0459335
0.0460398
0.0460373
0.045908
0.0456638
0.0452964
0.0448158
0.0442323
0.0435607
0.0428249
0.0420397
0.0412305
0.0404087
0.0395994
0.0388029
0.038044
0.0373123
0.0366365
0.0359908
0.0354207
0.0348567
0.034432
0.0339748
0.179788
0.168435
0.158093
0.148036
0.139317
0.131734
0.12531
0.119836
0.115086
0.110753
0.106652
0.102636
0.0986792
0.0947765
0.0909889
0.0873555
0.0839516
0.0807767
0.0778658
0.0751574
0.07264
0.0701986
0.0678294
0.0653978
0.0629647
0.0604146
0.0578821
0.0552465
0.052707
0.0500858
0.0476506
0.0451392
0.0429034
0.0405597
0.0385828
0.0364332
0.0347641
0.0328185
0.0315152
0.0298189
0.0290464
0.027736
0.0278925
0.0272845
0.0290254
0.0292312
0.0325771
0.0328436
0.0371749
0.0377276
0.0428554
0.0471624
0.0598869
0.0545909
0.0461955
0.0354827
0.0306757
0.0261764
0.0250741
0.0245072
0.025317
0.0261143
0.0275078
0.0288459
0.0306517
0.0324791
0.0346678
0.0367829
0.0389722
0.0408586
0.0425567
0.0438638
0.0449272
0.0456766
0.0462447
0.0466054
0.0468414
0.0469309
0.0469058
0.0467497
0.046474
0.0460724
0.0455557
0.0449354
0.0442279
0.0434574
0.0426399
0.0418002
0.040951
0.0401158
0.0392966
0.0385156
0.0377653
0.0370705
0.0364098
0.0358227
0.0352473
0.0348039
0.0343408
0.186623
0.175191
0.164749
0.154656
0.145826
0.138083
0.13146
0.125756
0.120749
0.11614
0.111755
0.10746
0.103238
0.0990953
0.0950962
0.0912815
0.0877242
0.0844196
0.0813951
0.0785824
0.075961
0.0734115
0.070925
0.0683695
0.0658046
0.0631228
0.0604568
0.057695
0.0550313
0.0522978
0.0497524
0.0471457
0.0448148
0.0423934
0.0403361
0.0381273
0.0363942
0.0344117
0.0330678
0.0313673
0.0305971
0.0293427
0.0295911
0.0291437
0.0311019
0.0315511
0.0351273
0.0356046
0.0400477
0.040744
0.0457446
0.0499282
0.0623534
0.0572205
0.0487621
0.0380937
0.0330483
0.0281543
0.0266553
0.0257324
0.0263205
0.0269735
0.0282899
0.0295962
0.0313954
0.0332406
0.0354504
0.0375948
0.0398046
0.0417116
0.0434198
0.0447355
0.0457996
0.0465484
0.0471097
0.0474615
0.047683
0.0477543
0.0477054
0.0475213
0.0472136
0.0467772
0.0462243
0.0455675
0.0448246
0.0440201
0.0431711
0.042302
0.0414263
0.0405663
0.0397254
0.0389236
0.0381556
0.037443
0.0367679
0.0361646
0.0355783
0.0351173
0.0346482
0.193366
0.181812
0.171264
0.161145
0.152221
0.144336
0.137535
0.131615
0.12636
0.121479
0.11681
0.112231
0.107741
0.103354
0.0991395
0.0951409
0.0914279
0.0879916
0.0848513
0.0819316
0.0792029
0.0765418
0.0739345
0.0712521
0.0685536
0.065739
0.0629397
0.0600527
0.0572666
0.0544231
0.0517705
0.0490716
0.0466489
0.0441532
0.0420192
0.0397549
0.0379621
0.035947
0.0345679
0.0328695
0.0321104
0.0309225
0.0312771
0.0310052
0.0331928
0.0338916
0.0376896
0.0383681
0.0428943
0.0437076
0.0485457
0.0525823
0.0647261
0.0597538
0.0512389
0.040637
0.035392
0.030162
0.0282898
0.0270129
0.0273664
0.0278594
0.0290858
0.0303488
0.0321325
0.0339868
0.0362101
0.0383763
0.0406001
0.0425216
0.0442349
0.0455552
0.0466169
0.0473625
0.047915
0.0482562
0.0484616
0.0485134
0.0484396
0.0482268
0.0478862
0.0474148
0.0468256
0.0461327
0.0453549
0.0445171
0.0436375
0.0427399
0.0418389
0.0409552
0.0400936
0.0392721
0.0384874
0.0377579
0.0370693
0.0364507
0.035854
0.0353761
0.0349012
0.200023
0.188311
0.177654
0.167511
0.158506
0.150498
0.143536
0.137414
0.131919
0.126768
0.121814
0.116949
0.112186
0.107551
0.103119
0.0989336
0.095063
0.0914929
0.0882345
0.085205
0.0823657
0.0795893
0.0768579
0.0740458
0.071212
0.0682639
0.0653316
0.0623206
0.0594141
0.0564632
0.0537062
0.0509181
0.0484071
0.0458404
0.0436335
0.0413171
0.0394688
0.0374254
0.0360167
0.0343269
0.033588
0.0324776
0.032953
0.0328709
0.0352987
0.0362512
0.0402604
0.0411275
0.0457077
0.0466105
0.0512558
0.0551274
0.0670117
0.0621955
0.0536285
0.0431071
0.0376947
0.0321828
0.0299642
0.0283427
0.0284534
0.0287733
0.0298978
0.0311064
0.0328657
0.0347206
0.0369498
0.0391302
0.0413614
0.0432914
0.0450051
0.0463259
0.047382
0.0481219
0.0486637
0.0489925
0.0491805
0.0492116
0.0491118
0.0488694
0.0484955
0.0479889
0.0473635
0.0466347
0.0458226
0.0449524
0.0440431
0.043118
0.0421927
0.0412864
0.0404053
0.039565
0.0387646
0.0380191
0.0373178
0.0366848
0.0360782
0.0355843
0.0351035
0.206598
0.194703
0.18393
0.173765
0.164688
0.156572
0.149463
0.143151
0.137423
0.132006
0.126766
0.121612
0.116573
0.111687
0.107033
0.10266
0.0986294
0.0949236
0.0915448
0.0884026
0.0854494
0.0825542
0.0796955
0.0767513
0.0737805
0.0706985
0.0676339
0.0645002
0.0614754
0.0584195
0.0555612
0.0526869
0.0500909
0.0474565
0.0451803
0.0428156
0.0409158
0.0388486
0.0374161
0.0357415
0.0350324
0.0340104
0.0346215
0.0347432
0.037421
0.0386284
0.0428366
0.0438772
0.0484826
0.0494466
0.0538734
0.0575666
0.0692165
0.0645503
0.0559341
0.0455009
0.0399474
0.0342019
0.0316659
0.0297146
0.0295786
0.0297155
0.0307277
0.0318715
0.0335976
0.0354444
0.0376718
0.0398588
0.0420908
0.0440234
0.0457326
0.0470501
0.0480977
0.0488293
0.0493585
0.0496734
0.0498426
0.0498517
0.0497251
0.0494523
0.0490448
0.0485027
0.0478413
0.0470772
0.0462314
0.0453295
0.0443915
0.04344
0.0424915
0.0415636
0.0406639
0.0398061
0.0389908
0.0382304
0.037517
0.0368705
0.0362546
0.0357454
0.035259
0.213091
0.200998
0.190103
0.179915
0.170773
0.162561
0.15532
0.148828
0.142873
0.137191
0.131664
0.126219
0.120901
0.11576
0.110883
0.106319
0.102127
0.0982839
0.0947824
0.0915245
0.088454
0.0854367
0.0824476
0.079369
0.0762601
0.0730441
0.0698479
0.0665931
0.0634523
0.0602939
0.0573372
0.0543797
0.0517022
0.0490032
0.0466615
0.0442518
0.0423051
0.0402183
0.0387681
0.0371153
0.0364461
0.035524
0.0362861
0.0366248
0.0395608
0.0410224
0.0454157
0.0466124
0.0512145
0.0522116
0.0563983
0.059904
0.0713467
0.0668227
0.0581589
0.0478168
0.0421436
0.0362066
0.0333826
0.0311206
0.0307384
0.0306855
0.0315765
0.0326458
0.0343304
0.0361605
0.0383784
0.0405644
0.0427906
0.0447198
0.04642
0.0477301
0.0487662
0.0494872
0.050002
0.0503014
0.0504505
0.0504367
0.0502823
0.0499787
0.0495371
0.0489596
0.0482625
0.0474634
0.0465847
0.045652
0.0446861
0.0437094
0.0427385
0.0417903
0.0408731
0.0399986
0.0391694
0.038395
0.0376704
0.0370111
0.0363864
0.0358628
0.0353709
0.219501
0.207206
0.196183
0.185968
0.176767
0.16847
0.161107
0.154443
0.148267
0.142323
0.136506
0.130768
0.125168
0.11977
0.114668
0.109911
0.105557
0.101574
0.0979472
0.0945708
0.0913798
0.0882371
0.0851148
0.0818999
0.078652
0.0753019
0.0719752
0.068601
0.0653465
0.0620883
0.0590362
0.0559986
0.0532428
0.0504826
0.048079
0.0456279
0.0436384
0.0415366
0.040075
0.0384511
0.0378324
0.0370218
0.0379503
0.0385186
0.0417198
0.0434325
0.0479954
0.0493292
0.0539001
0.0549025
0.0588313
0.0621437
0.0734078
0.0690177
0.0603067
0.0500546
0.0442785
0.0381864
0.0351031
0.0325526
0.0319282
0.0316819
0.0324443
0.0334307
0.0350655
0.0368707
0.0390714
0.0412489
0.0434627
0.0453828
0.0470692
0.0483682
0.04939
0.0500981
0.0505966
0.0508789
0.0510068
0.050969
0.0507861
0.0504511
0.0499753
0.0493625
0.0486299
0.0477965
0.0468856
0.045923
0.0449303
0.0439293
0.0429372
0.0419697
0.0410358
0.0401458
0.0393035
0.0385161
0.037781
0.0371098
0.0364768
0.0359397
0.0354424
0.225825
0.213332
0.202179
0.191933
0.182675
0.174301
0.166827
0.159999
0.153605
0.147399
0.141293
0.135258
0.129374
0.123717