/*--------------------------------*- C++ -*----------------------------------*\
| =========                 |                                                 |
| \\      /  F ield         | OpenFOAM: The Open Source CFD Toolbox           |
|  \\    /   O peration     | Version:  2412                                  |
|   \\  /    A nd           | Website:  www.openfoam.com                      |
|    \\/     M anipulation  |                                                 |
\*---------------------------------------------------------------------------*/
FoamFile
{
    version     2.0;
    format      ascii;
    arch        "LSB;label=32;scalar=64";
    class       volScalarField;
    location    "0.1";
    object      epsilon;
}
// * * * * * * * * * * * * * * * * * * * * * * * * * * * * * * * * * * * * * //

dimensions      [0 2 -3 0 0 0 0];

internalField   nonuniform List<scalar> 
13068
(
386.224
423.953
468.825
487.944
487.356
481.539
476.819
473.415
471.252
469.921
469.472
469.701
470.634
472.165
474.305
477.019
480.313
484.193
488.673
493.794
499.58
506.11
513.39
521.61
530.617
541.033
552.055
565.498
579.027
596.526
613.496
636.635
658.692
690.037
718.424
762.169
799.214
861.813
910.467
999.912
1061.68
1184.29
1253.5
1407.76
1471.34
1649.54
1712.89
1943.57
2065
2207.75
2275.91
1797.94
1449.61
801.119
857.254
1091.92
1255.26
1245.62
1235.49
1126.06
1077.89
972.923
934.978
863.904
840.928
793.567
776.214
740.722
725.524
699.491
685.381
663.84
648.68
629.132
612.945
595.258
580.441
566.137
553.923
542.885
532.895
524.072
515.162
507.387
498.828
491.299
482.493
474.585
465.359
456.752
447.217
437.862
428.426
418.748
410.314
402.081
396.155
392.75
391.546
386.252
423.994
468.88
488.023
487.444
481.622
476.897
473.489
471.324
469.991
469.541
469.77
470.703
472.233
474.374
477.089
480.384
484.266
488.749
493.872
499.66
506.194
513.476
521.7
530.712
541.134
552.162
565.616
579.153
596.667
613.649
636.797
658.863
690.223
718.624
762.393
799.457
862.09
910.771
1000.26
1062.08
1184.74
1254
1408.32
1471.96
1650.13
1713.51
1944.09
2065.38
2207.92
2275.7
1797.48
1448.66
799.66
855.919
1090.37
1254.32
1245.03
1235.06
1125.74
1077.62
972.784
934.88
863.844
840.861
793.515
776.219
740.747
725.553
699.524
685.429
663.912
648.744
629.206
613.015
595.334
580.502
566.194
553.976
542.94
532.945
524.12
515.207
507.432
498.873
491.344
482.535
474.622
465.39
456.774
447.232
437.867
428.425
418.742
410.303
402.067
396.14
392.738
391.539
386.298
424.063
468.954
488.112
487.535
481.709
476.978
473.565
471.398
470.063
469.612
469.84
470.773
472.304
474.445
477.16
480.457
484.341
488.825
493.95
499.74
506.276
513.562
521.789
530.804
541.233
552.264
565.728
579.271
596.799
613.79
636.944
659.017
690.387
718.796
762.584
799.659
862.315
911.011
1000.53
1062.37
1185.06
1254.35
1408.69
1472.32
1650.39
1713.7
1944.06
2065.02
2207.14
2274.19
1795.45
1446.09
796.836
853.021
1087.31
1252
1243.33
1233.72
1124.71
1076.77
972.191
934.397
863.467
840.517
793.231
776.022
740.6
725.427
699.422
685.357
663.878
648.715
629.199
613.014
595.348
580.507
566.201
553.985
542.955
532.96
524.139
515.226
507.453
498.897
491.369
482.561
474.644
465.409
456.784
447.236
437.863
428.416
418.727
410.284
402.046
396.117
392.718
391.524
386.362
424.159
469.045
488.205
487.627
481.794
477.056
473.64
471.47
470.133
469.681
469.909
470.842
472.372
474.514
477.23
480.527
484.412
488.897
494.024
499.816
506.354
513.641
521.871
530.888
541.322
552.356
565.827
579.374
596.914
613.91
637.067
659.142
690.517
718.929
762.726
799.803
862.47
911.167
1000.7
1062.54
1185.23
1254.51
1408.81
1472.37
1650.27
1713.43
1943.43
2063.86
2205.33
2271.35
1791.83
1441.93
792.686
848.592
1082.75
1248.31
1240.5
1231.46
1122.96
1075.33
971.134
933.52
862.762
839.886
792.707
775.613
740.27
725.138
699.177
685.156
663.731
648.585
629.103
612.933
595.291
580.45
566.152
553.943
542.927
532.936
524.122
515.213
507.447
498.896
491.373
482.568
474.649
465.411
456.78
447.227
437.848
428.396
418.702
410.256
402.016
396.087
392.691
391.502
386.444
424.284
469.152
488.302
487.717
481.875
477.131
473.71
471.538
470.2
469.747
469.975
470.907
472.437
474.579
477.295
480.593
484.478
488.964
494.091
499.885
506.423
513.712
521.943
530.961
541.398
552.433
565.91
579.458
597.007
614.006
637.162
659.235
690.608
719.018
762.815
799.884
862.549
911.233
1000.75
1062.57
1185.24
1254.47
1408.68
1472.12
1649.77
1712.68
1942.18
2061.91
2202.51
2267.2
1786.64
1436.23
787.263
842.681
1076.75
1243.3
1236.59
1228.31
1120.51
1073.31
969.621
932.256
861.737
838.974
791.946
774.994
739.76
724.686
698.788
684.825
663.469
648.351
628.917
612.772
595.164
580.33
566.046
553.851
542.852
532.871
524.069
515.168
507.411
498.869
491.353
482.553
474.636
465.397
456.762
447.206
437.82
428.365
418.667
410.218
401.977
396.048
392.656
391.473
386.544
424.437
469.275
488.402
487.803
481.951
477.2
473.777
471.602
470.263
469.809
470.036
470.968
472.498
474.639
477.355
480.653
484.538
489.025
494.152
499.946
506.485
513.774
522.005
531.023
541.462
552.496
565.975
579.524
597.079
614.077
637.228
659.294
690.661
719.062
762.849
799.902
862.551
911.208
1000.7
1062.47
1185.08
1254.23
1408.3
1471.56
1648.89
1711.47
1940.34
2059.19
2198.73
2261.79
1779.96
1429.05
780.634
835.353
1069.39
1237.02
1231.65
1224.3
1117.39
1070.73
967.675
930.623
860.405
837.793
790.958
774.173
739.075
724.076
698.262
684.368
663.096
648.018
628.643
612.534
594.968
580.147
565.885
553.708
542.733
532.767
523.981
515.09
507.347
498.816
491.311
482.518
474.604
465.367
456.729
447.17
437.78
428.324
418.622
410.171
401.93
396
392.613
391.436
386.662
424.617
469.414
488.504
487.885
482.022
477.265
473.838
471.661
470.321
469.866
470.093
471.024
472.554
474.694
477.41
480.708
484.593
489.079
494.206
499.999
506.538
513.826
522.057
531.074
541.512
552.545
566.025
579.571
597.128
614.122
637.267
659.321
690.675
719.061
762.83
799.858
862.479
911.095
1000.54
1062.25
1184.76
1253.8
1407.68
1470.72
1647.66
1709.81
1937.94
2055.74
2194.03
2255.2
1771.86
1420.5
772.882
826.69
1060.76
1229.55
1225.74
1219.5
1113.64
1067.65
965.323
928.645
858.785
836.36
789.756
773.162
738.224
723.318
697.604
683.793
662.618
647.591
628.287
612.221
594.706
579.904
565.671
553.517
542.57
532.623
523.858
514.982
507.255
498.738
491.246
482.463
474.555
465.321
456.682
447.123
437.729
428.271
418.567
410.115
401.874
395.945
392.562
391.392
386.798
424.824
469.567
488.608
487.964
482.088
477.324
473.894
471.715
470.374
469.919
470.145
471.075
472.605
474.745
477.46
480.757
484.642
489.127
494.253
500.045
506.582
513.869
522.098
531.113
541.55
552.58
566.058
579.599
597.157
614.144
637.278
659.316
690.652
719.018
762.76
799.756
862.337
910.899
1000.28
1061.9
1184.3
1253.19
1406.85
1469.59
1646.09
1707.75
1935.02
2051.63
2188.5
2247.53
1762.45
1410.69
764.103
816.787
1050.97
1220.97
1218.94
1213.96
1109.32
1064.09
962.599
926.351
856.901
834.695
788.356
771.975
737.221
722.422
696.825
683.106
662.041
647.075
627.852
611.838
594.381
579.606
565.406
553.281
542.367
532.444
523.704
514.846
507.137
498.636
491.16
482.389
474.489
465.26
456.622
447.063
437.668
428.209
418.503
410.051
401.81
395.881
392.503
391.341
386.952
425.059
469.735
488.713
488.039
482.148
477.378
473.945
471.765
470.423
469.967
470.193
471.122
472.651
474.79
477.505
480.801
484.684
489.169
494.294
500.084
506.619
513.903
522.13
531.141
541.575
552.601
566.075
579.61
597.166
614.143
637.263
659.281
690.594
718.935
762.643
799.598
862.128
910.626
999.922
1061.45
1183.7
1252.42
1405.81
1468.22
1644.23
1705.31
1931.64
2046.91
2182.21
2238.89
1751.84
1399.74
754.403
805.755
1040.13
1211.4
1211.34
1207.75
1104.48
1060.11
959.54
923.773
854.78
832.82
786.778
770.629
736.079
721.399
695.934
682.318
661.373
646.478
627.346
611.391
593.999
579.256
565.095
553.003
542.127
532.231
523.519
514.683
506.995
498.514
491.056
482.298
474.409
465.186
456.55
446.993
437.597
428.139
418.431
409.979
401.739
395.81
392.437
391.283
387.124
425.322
469.918
488.821
488.11
482.202
477.426
473.99
471.809
470.466
470.01
470.235
471.164
472.692
474.831
477.544
480.839
484.721
489.204
494.327
500.116
506.648
513.929
522.152
531.159
541.589
552.609
566.078
579.605
597.156
614.121
637.224
659.218
690.505
718.815
762.482
799.39
861.859
910.283
999.482
1060.89
1182.97
1251.5
1404.58
1466.63
1642.09
1702.54
1927.84
2041.67
2175.25
2229.4
1740.16
1387.79
743.896
793.717
1028.37
1200.93
1203.03
1200.97
1099.19
1055.75
956.188
920.946
852.448
830.761
785.041
769.14
734.812
720.264
694.943
681.439
660.625
645.809
626.775
610.886
593.565
578.86
564.742
552.686
541.852
531.987
523.308
514.495
506.832
498.371
490.934
482.193
474.315
465.099
456.468
446.913
437.518
428.06
418.352
409.9
401.66
395.733
392.365
391.22
387.313
425.611
470.115
488.93
488.176
482.252
477.468
474.03
471.848
470.505
470.049
470.273
471.202
472.729
474.866
477.579
480.872
484.753
489.234
494.355
500.14
506.669
513.947
522.165
531.168
541.592
552.606
566.067
579.585
597.128
614.079
637.163
659.13
690.387
718.661
762.281
799.136
861.534
909.875
998.965
1060.24
1182.14
1250.45
1403.2
1464.83
1639.71
1699.47
1923.68
2035.96
2167.72
2219.18
1727.54
1374.99
732.707
780.805
1015.83
1189.69
1194.12
1193.68
1093.51
1051.08
952.584
917.905
849.937
828.542
783.167
767.528
733.437
719.03
693.866
680.48
659.804
645.075
626.148
610.33
593.085
578.422
564.351
552.336
541.546
531.717
523.072
514.286
506.649
498.211
490.796
482.073
474.208
465.002
456.376
446.825
437.431
427.975
418.267
409.815
401.577
395.65
392.287
391.151
387.521
425.926
470.326
489.04
488.239
482.295
477.505
474.065
471.882
470.539
470.082
470.307
471.235
472.761
474.897
477.608
480.9
484.779
489.258
494.376
500.159
506.684
513.957
522.17
531.167
541.585
552.592
566.043
579.55
597.084
614.019
637.082
659.019
690.242
718.477
762.044
798.841
861.161
909.412
998.381
1059.51
1181.21
1249.28
1401.68
1462.86
1637.13
1696.15
1919.22
2029.87
2159.7
2208.36
1714.13
1361.48
720.963
767.161
1002.66
1177.81
1184.71
1185.98
1087.52
1046.15
948.774
914.689
847.278
826.192
781.179
765.812
731.971
717.713
692.714
679.453
658.923
644.287
625.471
609.729
592.565
577.948
563.928
551.956
541.214
531.422
522.816
514.058
506.45
498.036
490.646
481.941
474.092
464.896
456.277
446.731
437.339
427.884
418.177
409.725
401.488
395.562
392.204
391.078
387.747
426.269
470.552
489.152
488.297
482.332
477.535
474.094
471.91
470.567
470.111
470.335
471.263
472.788
474.923
477.633
480.923
484.8
489.276
494.392
500.171
506.692
513.96
522.168
531.158
541.57
552.567
566.009
579.504
597.026
613.944
636.982
658.887
690.073
718.266
761.777
798.511
860.746
908.9
997.739
1058.71
1180.21
1248.02
1400.04
1460.75
1634.39
1692.63
1914.51
2023.47
2151.31
2197.08
1700.09
1347.43
708.796
752.934
988.988
1165.41
1174.91
1177.94
1081.27
1041.01
944.803
911.335
844.501
823.737
779.099
764.012
730.43
716.328
691.501
678.37
657.99
643.453
624.753
609.092
592.012
577.444
563.478
551.551
540.86
531.108
522.542
513.815
506.236
497.849
490.484
481.8
473.967
464.782
456.171
446.63
437.241
427.789
418.082
409.632
401.396
395.47
392.117
391.001
387.99
426.637
470.791
489.266
488.351
482.364
477.56
474.117
471.934
470.591
470.135
470.359
471.286
472.81
474.944
477.653
480.942
484.816
489.29
494.402
500.177
506.694
513.957
522.158
531.142
541.545
552.534
565.964
579.446
596.955
613.854
636.867
658.738
689.885
718.032
761.482
798.15
860.295
908.347
997.05
1057.86
1179.13
1246.68
1398.3
1458.52
1631.52
1688.95
1909.62
2016.84
2142.65
2185.45
1685.56
1333
696.338
738.273
974.971
1152.63
1164.82
1169.67
1074.85
1035.72
940.714
907.88
841.638
821.204
776.951
762.148
728.832
714.89
690.241
677.244
657.018
642.584
624.004
608.426
591.432
576.916
563.005
551.126
540.487
530.777
522.253
513.558
506.011
497.651
490.313
481.65
473.835
464.663
456.061
446.526
437.141
427.691
417.985
409.535
401.302
395.376
392.028
390.921
388.251
427.032
471.043
489.38
488.4
482.389
477.578
474.135
471.951
470.609
470.153
470.378
471.305
472.828
474.961
477.668
480.955
484.827
489.298
494.407
500.178
506.69
513.947
522.142
531.119
541.514
552.493
565.911
579.379
596.873
613.752
636.738
658.573
689.679
717.778
761.166
797.764
859.815
907.763
996.323
1056.97
1178.01
1245.28
1396.5
1456.21
1628.55
1685.15
1904.6
2010.05
2133.79
2173.61
1670.71
1318.34
683.719
723.331
960.749
1139.59
1154.55
1161.25
1068.3
1030.33
936.551
904.363
838.72
818.62
774.756
760.239
727.194
713.415
688.948
676.087
656.017
641.689
623.23
607.738
590.833
576.369
562.516
550.686
540.1
530.434
521.953
513.292
505.777
497.445
490.135
481.495
473.699
464.539
455.947
446.419
437.038
427.591
417.887
409.438
401.206
395.28
391.937
390.84
388.53
427.454
471.31
489.495
488.445
482.409
477.591
474.146
471.964
470.623
470.167
470.392
471.319
472.842
474.973
477.679
480.964
484.834
489.302
494.408
500.175
506.681
513.933
522.121
531.09
541.476
552.445
565.849
579.303
596.781
613.641
636.598
658.397
689.459
717.51
760.832
797.358
859.313
907.153
995.567
1056.04
1176.85
1243.84
1394.65
1453.84
1625.52
1681.27
1899.5
2003.18
2124.85
2161.68
1655.67
1303.61
671.067
708.257
946.462
1126.42
1144.21
1152.75
1061.71
1024.9
932.357
900.817
835.775
816.01
772.538
758.305
725.532
711.917
687.635
674.911
654.998
640.778
622.442
607.036
590.22
575.811
562.015
550.235
539.704
530.082
521.646
513.02
505.537
497.234
489.952
481.336
473.559
464.413
455.832
446.311
436.934
427.491
417.788
409.34
401.109
395.184
391.845
390.759
388.827
427.901
471.589
489.611
488.485
482.422
477.597
474.152
471.971
470.631
470.177
470.402
471.328
472.851
474.982
477.686
480.969
484.837
489.302
494.404
500.167
506.668
513.914
522.095
531.056
541.433
552.391
565.782
579.221
596.682
613.521
636.448
658.211
689.229
717.23
760.485
796.938
858.795
906.528
994.792
1055.09
1175.66
1242.37
1392.77
1451.43
1622.46
1677.36
1894.38
1996.3
2115.91
2149.78
1640.61
1288.94
658.503
693.197
932.243
1113.26
1133.88
1144.27
1055.13
1019.48
928.17
897.276
832.833
813.4
770.316
756.365
723.864
710.413
686.315
673.727
653.971
639.859
621.646
606.327
589.6
575.246
561.508
549.778
539.302
529.726
521.334
512.744
505.294
497.02
489.768
481.175
473.418
464.286
455.716
446.203
436.832
427.391
417.69
409.243
401.014
395.089
391.755
390.678
389.142
428.374
471.882
489.729
488.521
482.429
477.598
474.153
471.972
470.634
470.181
470.407
471.333
472.856
474.985
477.689
480.97
484.836
489.298
494.396
500.154
506.651
513.89
522.065
531.018
541.386
552.332
565.71
579.133
596.576
613.395
636.292
658.018
688.99
716.941
760.129
796.51
858.268
905.892
994.007
1054.14
1174.47
1240.9
1390.89
1449.02
1619.41
1673.46
1889.28
1989.46
2107.05
2138.02
1625.65
1274.49
646.142
678.289
918.215
1100.2
1123.65
1135.86
1048.62
1014.12
924.028
893.771
829.92
810.812
768.11
754.435
722.203
708.914
685.001
672.548
652.946
638.943
620.851
605.618
588.979
574.681
561.001
549.32
538.898
529.368
521.021
512.467
505.05
496.805
489.582
481.013
473.277
464.16
455.601
446.096
436.73
427.294
417.594
409.148
400.921
394.996
391.666
390.599
389.474
428.873
472.188
489.847
488.552
482.431
477.592
474.147
471.969
470.632
470.18
470.408
471.334
472.856
474.985
477.687
480.967
484.83
489.29
494.385
500.139
506.63
513.863
522.031
530.976
541.334
552.27
565.633
579.042
596.466
613.264
636.131
657.821
688.747
716.648
759.768
796.077
857.736
905.254
993.221
1053.18
1173.28
1239.44
1389.02
1446.63
1616.38
1669.59
1884.25
1982.72
2098.35
2126.49
1610.93
1260.38
634.087
663.659
904.494
1087.37
1113.62
1127.61
1042.22
1008.85
919.965
890.33
827.058
808.266
765.938
752.531
720.565
707.435
683.703
671.382
651.932
638.037
620.065
604.916
588.364
574.121
560.496
548.865
538.497
529.012
520.71
512.192
504.808
496.592
489.399
480.854
473.138
464.036
455.489
445.992
436.632
427.199
417.502
409.056
400.831
394.906
391.581
390.522
389.824
429.398
472.507
489.966
488.578
482.426
477.58
474.136
471.96
470.626
470.175
470.404
471.331
472.853
474.981
477.682
480.961
484.822
489.278
494.37
500.12
506.606
513.833
521.994
530.931
541.28
552.205
565.554
578.947
596.353
613.131
635.968
657.621
688.502
716.354
759.406
795.644
857.205
904.62
992.441
1052.24
1172.11
1237.99
1387.17
1444.27
1613.41
1665.8
1879.33
1976.14
2089.87
2115.28
1596.56
1246.72
622.432
649.425
891.179
1074.85
1103.86
1119.56
1036
1003.71
916.008
886.979
824.269
805.782
763.817
750.669
718.962
705.986
682.433
670.24
650.939
637.148
619.293
604.227
587.76
573.57
560
548.417
538.101
528.662
520.404
511.922
504.571
496.383
489.219
480.697
473.003
463.915
455.381
445.891
436.538
427.108
417.413
408.968
400.745
394.82
391.499
390.448
390.193
429.949
472.839
490.086
488.6
482.415
477.563
474.119
471.946
470.614
470.166
470.396
471.323
472.845
474.974
477.674
480.951
484.81
489.264
494.352
500.098
506.579
513.801
521.954
530.884
541.224
552.138
565.473
578.851
596.239
612.997
635.803
657.422
688.257
716.062
759.046
795.216
856.681
903.995
991.673
1051.31
1170.96
1236.58
1385.37
1441.97
1610.51
1662.1
1874.55
1969.77
2081.69
2104.48
1582.66
1233.62
611.26
635.689
878.361
1062.75
1094.42
1111.79
1029.97
998.746
912.186
883.739
821.573
803.375
761.761
748.86
717.405
704.579
681.198
669.131
649.972
636.285
618.542
603.557
587.171
573.033
559.516
547.98
537.715
528.32
520.106
511.658
504.339
496.179
489.044
480.546
472.872
463.799
455.277
445.796
436.448
427.023
417.329
408.886
400.663
394.739
391.422
390.379
390.579
430.525
473.184
490.206
488.618
482.399
477.539
474.097
471.926
470.598
470.152
470.383
471.312
472.834
474.962
477.662
480.938
484.795
489.247
494.332
500.074
506.55
513.766
521.913
530.836
541.167
552.07
565.392
578.755
596.124
612.863
635.64
657.224
688.015
715.773
758.692
794.795
856.167
903.385
990.925
1050.41
1169.84
1235.21
1383.63
1439.73
1607.71
1658.53
1869.95
1963.63
2073.84
2094.15
1569.32
1221.16
600.638
622.541
866.116
1051.12
1085.37
1104.32
1024.19
993.973
908.52
880.628
818.984
801.06
759.782
747.116
715.904
703.221
680.009
668.06
649.04
635.451
617.818
602.909
586.601
572.514
559.047
547.556
537.341
527.989
519.816
511.404
504.116
495.983
488.875
480.4
472.747
463.688
455.179
445.706
436.365
426.943
417.251
408.808
400.588
394.663
391.351
390.314
390.983
431.127
473.542
490.328
488.631
482.376
477.51
474.07
471.902
470.577
470.133
470.367
471.296
472.82
474.948
477.647
480.922
484.778
489.227
494.309
500.047
506.52
513.73
521.871
530.786
541.108
552.001
565.31
578.658
596.01
612.73
635.478
657.03
687.777
715.49
758.346
794.385
855.667
902.794
990.2
1049.54
1168.77
1233.9
1381.95
1437.59
1605.02
1655.09
1865.54
1957.77
2066.37
2084.35
1556.61
1209.41
590.625
610.052
854.504
1040.04
1076.76
1097.2
1018.67
989.417
905.027
877.663
816.516
798.849
757.891
745.446
714.467
701.921
678.871
667.036
648.148
634.654
617.124
602.289
586.055
572.016
558.597
547.149
536.98
527.67
519.539
511.159
503.902
495.795
488.714
480.262
472.629
463.584
455.087
445.622
436.287
426.869
417.179
408.737
400.518
394.594
391.287
390.255
391.405
431.755
473.913
490.451
488.64
482.348
477.475
474.037
471.873
470.551
470.111
470.346
471.277
472.802
474.93
477.629
480.903
484.758
489.205
494.285
500.019
506.487
513.692
521.827
530.736
541.05
551.933
565.229
578.563
595.897
612.6
635.32
656.84
687.545
715.216
758.009
793.989
855.183
902.225
989.503
1048.71
1167.74
1232.65
1380.35
1435.54
1602.45
1651.82
1861.34
1952.21
2059.32
2075.11
1544.6
1198.43
581.264
598.281
843.575
1029.55
1068.61
1090.46
1013.44
985.096
901.723
874.854
814.179
796.751
756.094
743.857
713.101
700.685
677.789
666.062
647.299
633.896
616.464
601.699
585.536
571.542
558.167
546.76
536.637
527.366
519.274
510.927
503.699
495.617
488.562
480.131
472.518
463.486
455.003
445.545
436.216
426.802
417.114
408.673
400.455
394.532
391.229
390.202
391.845
432.409
474.297
490.575
488.646
482.315
477.434
473.999
471.839
470.521
470.084
470.322
471.254
472.78
474.909
477.609
480.882
484.736
489.181
494.258
499.989
506.453
513.654
521.783
530.685
540.991
551.865
565.149
578.47
595.786
612.473
635.166
656.656
687.32
714.951
757.685
793.608
854.719
901.681
988.838
1047.92
1166.76
1231.46
1378.83
1433.59
1600.02
1648.71
1857.38
1946.97
2052.72
2066.48
1533.35
1188.27
572.585
587.272
833.363
1019.7
1060.96
1084.12
1008.52
981.024
898.616
872.211
811.98
794.771
754.399
742.355
711.811
699.518
676.77
665.144
646.499
633.181
615.842
601.142
585.045
571.094
557.761
546.391
536.311
527.079
519.023
510.708
503.507
495.45
488.419
480.009
472.415
463.397
454.925
445.476
436.153
426.742
417.056
408.616
400.399
394.477
391.178
390.156
392.304
433.088
474.694
490.701
488.647
482.276
477.388
473.956
471.8
470.487
470.053
470.294
471.228
472.756
474.885
477.585
480.858
484.711
489.155
494.23
499.958
506.419
513.614
521.739
530.635
540.933
551.798
565.07
578.379
595.679
612.349
635.017
656.479
687.103
714.696
757.373
793.243
854.276
901.164
988.207
1047.17
1165.84
1230.35
1377.41
1431.76
1597.72
1645.78
1853.66
1942.06
2046.57
2058.47
1522.87
1178.95
564.609
577.051
823.889
1010.51
1053.82
1078.19
1003.91
977.21
895.715
869.739
809.924
792.916
752.81
740.944
710.6
698.422
675.814
664.283
645.748
632.511
615.259
600.62
584.585
570.674
557.378
546.045
536.004
526.808
518.788
510.503
503.329
495.294
488.286
479.896
472.32
463.315
454.856
445.414
436.097
426.69
417.005
408.566
400.351
394.429
391.135
390.116
392.78
433.794
475.104
490.828
488.644
482.232
477.337
473.908
471.757
470.449
470.019
470.263
471.199
472.728
474.859
477.559
480.832
484.685
489.127
494.2
499.926
506.383
513.575
521.694
530.584
540.876
551.733
564.994
578.29
595.575
612.23
634.873
656.309
686.895
714.453
757.075
792.896
853.855
900.675
987.611
1046.47
1164.98
1229.3
1376.07
1430.04
1595.57
1643.04
1850.19
1937.48
2040.9
2051.1
1513.21
1170.49
557.344
567.635
815.166
1001.99
1047.21
1072.69
999.625
973.657
893.021
867.441
808.015
791.187
751.329
739.625
709.47
697.4
674.925
663.482
645.05
631.889
614.717
600.135
584.156
570.282
557.021
545.721
535.716
526.555
518.569
510.313
503.163
495.149
488.164
479.792
472.235
463.242
454.794
445.359
436.048
426.645
416.962
408.524
400.31
394.389
391.1
390.082
393.275
434.525
475.528
490.956
488.639
482.183
477.281
473.855
471.71
470.407
469.981
470.228
471.167
472.697
474.83
477.531
480.804
484.656
489.098
494.169
499.892
506.346
513.534
521.649
530.534
540.819
551.669
564.919
578.205
595.474
612.116
634.736
656.146
686.697
714.221
756.792
792.568
853.456
900.214
987.052
1045.81
1164.17
1228.33
1374.82
1428.43
1593.57
1640.48
1846.97
1933.25
2035.69
2044.36
1504.37
1162.88
550.789
559.024
807.191
994.162
1041.12
1067.62
995.661
970.367
890.536
865.317
806.251
789.585
749.956
738.401
708.423
696.453
674.102
662.74
644.405
631.313
614.215
599.686
583.759
569.919
556.69
545.419
535.45
526.321
518.366
510.137
503.01
495.017
488.052
479.698
472.158
463.177
454.741
445.313
436.008
426.608
416.926
408.489
400.277
394.357
391.073
390.056
393.787
435.282
475.965
491.087
488.629
482.13
477.22
473.798
471.658
470.361
469.939
470.189
471.131
472.664
474.798
477.501
480.774
484.626
489.067
494.137
499.858
506.309
513.494
521.605
530.485
540.764
551.606
564.847
578.122
595.377
612.006
634.604
655.992
686.508
714.001
756.524
792.257
853.081
899.783
986.528
1045.2
1163.42
1227.44
1373.67
1426.94
1591.71
1638.11
1843.99
1929.36
2030.96
2038.26
1496.34
1156.12
544.933
551.211
799.955
987.008
1035.56
1062.97
992.017
967.337
888.256
863.365
804.632
788.109
748.69
737.269
707.457
695.58
673.347
662.059
643.811
630.785
613.755
599.273
583.394
569.585
556.384
545.141
535.203
526.104
518.178
509.975
502.871
494.896
487.951
479.614
472.09
463.12
454.695
445.274
435.974
426.578
416.897
408.462
400.251
394.332
391.053
390.036
394.319
436.065
476.415
491.219
488.617
482.071
477.154
473.736
471.603
470.311
469.894
470.148
471.093
472.628
474.764
477.468
480.742
484.594
489.034
494.103
499.823
506.271
513.453
521.56
530.436
540.71
551.545
564.777
578.042
595.284
611.901
634.479
655.844
686.328
713.793
756.269
791.965
852.728
899.38
986.041
1044.63
1162.73
1226.62
1372.61
1425.57
1590
1635.92
1841.26
1925.79
2026.69
2032.79
1489.12
1150.2
539.759
544.177
793.441
980.522
1030.51
1058.73
988.684
964.562
886.177
861.582
803.154
786.756
747.53
736.228
706.572
694.781
672.657
661.438
643.27
630.303
613.335
598.897
583.061
569.28
556.103
544.886
534.976
525.906
518.007
509.829
502.744
494.787
487.86
479.539
472.03
463.071
454.657
445.242
435.948
426.555
416.876
408.442
400.232
394.316
391.042
390.023
394.868
436.875
476.879
491.353
488.602
482.009
477.084
473.671
471.543
470.258
469.845
470.104
471.051
472.59
474.727
477.433
480.708
484.561
489
494.069
499.786
506.233
513.412
521.516
530.388
540.657
551.486
564.709
577.965
595.194
611.801
634.359
655.704
686.157
713.596
756.029
791.69
852.397
899.005
985.587
1044.11
1162.09
1225.87
1371.64
1424.31
1588.42
1633.9
1838.76
1922.55
2022.87
2027.92
1482.69
1145.09
535.243
537.896
787.622
974.684
1025.96
1054.9
985.654
962.032
884.293
859.961
801.813
785.522
746.472
735.276
705.764
694.053
672.031
660.874
642.779
629.867
612.954
598.556
582.758
569.002
555.847
544.652
534.769
525.725
517.851
509.696
502.63
494.69
487.78
479.473
471.979
463.03
454.627
445.218
435.929
426.539
416.861
408.429
400.22
394.306
391.037
390.017
395.437
437.71
477.357
491.49
488.584
481.942
477.009
473.601
471.48
470.201
469.794
470.057
471.007
472.549
474.689
477.396
480.673
484.526
488.965
494.033
499.749
506.194
513.371
521.472
530.341
540.604
551.428
564.644
577.891
595.108
611.705
634.244
655.571
685.995
713.409
755.802
791.432
852.086
898.656
985.167
1043.63
1161.51
1225.18
1370.76
1423.15
1586.97
1632.05
1836.48
1919.61
2019.49
2023.63
1477.01
1140.75
531.356
532.335
782.469
969.47
1021.88
1051.45
982.912
959.739
882.594
858.495
800.601
784.401
745.511
734.408
705.031
693.393
671.467
660.365
642.336
629.474
612.612
598.249
582.485
568.752
555.614
544.44
534.581
525.561
517.71
509.577
502.529
494.603
487.709
479.415
471.936
462.996
454.604
445.2
435.917
426.53
416.854
408.423
400.215
394.304
391.04
390.017
396.023
438.572
477.849
491.63
488.563
481.871
476.931
473.527
471.413
470.141
469.739
470.007
470.961
472.505
474.648
477.358
480.635
484.489
488.929
493.996
499.712
506.155
513.329
521.428
530.294
540.553
551.372
564.58
577.82
595.025
611.613
634.135
655.445
685.842
713.232
755.588
791.19
851.796
898.331
984.779
1043.19
1160.98
1224.57
1369.95
1422.1
1585.65
1630.37
1834.42
1916.97
2016.51
2019.89
1472.07
1137.15
528.065
527.457
777.947
964.85
1018.26
1048.37
980.446
957.67
881.071
857.177
799.513
783.389
744.643
733.621
704.369
692.799
670.961
659.91
641.94
629.123
612.305
597.973
582.239
568.526
555.405
544.249
534.41
525.413
517.584
509.47
502.439
494.527
487.647
479.366
471.9
462.97
454.587
445.189
435.911
426.528
416.852
408.423
400.217
394.308
391.051
390.023
396.629
439.46
478.354
491.772
488.54
481.796
476.848
473.45
471.343
470.078
469.682
469.954
470.912
472.46
474.605
477.317
480.596
484.451
488.891
493.958
499.673
506.115
513.288
521.385
530.247
540.503
551.317
564.518
577.751
594.945
611.525
634.031
655.324
685.695
713.065
755.385
790.962
851.523
898.03
984.419
1042.79
1160.49
1224.01
1369.22
1421.14
1584.45
1628.83
1832.57
1914.61
2013.93
2016.68
1467.81
1134.26
525.336
523.22
774.016
960.792
1015.06
1045.64
978.238
955.813
879.713
855.998
798.542
782.479
743.861
732.909
703.773
692.267
670.511
659.505
641.586
628.811
612.031
597.728
582.02
568.325
555.216
544.076
534.256
525.28
517.47
509.376
502.359
494.461
487.593
479.324
471.871
462.95
454.577
445.185
435.912
426.531
416.857
408.43
400.225
394.319
391.067
390.035
397.253
440.375
478.874
491.916
488.515
481.718
476.761
473.369
471.27
470.012
469.622
469.899
470.861
472.412
474.561
477.275
480.556
484.412
488.852
493.919
499.634
506.075
513.246
521.341
530.201
540.453
551.262
564.457
577.684
594.868
611.44
633.931
655.209
685.555
712.906
755.193
790.747
851.268
897.749
984.087
1042.42
1160.05
1223.51
1368.57
1420.27
1583.36
1627.43
1830.9
1912.5
2011.71
2013.96
1464.21
1132.02
523.13
519.581
770.638
957.261
1012.26
1043.23
976.272
954.153
878.509
854.948
797.678
781.664
743.161
732.268
703.239
691.792
670.112
659.146
641.274
628.535
611.79
597.511
581.825
568.145
555.048
543.921
534.118
525.161
517.369
509.293
502.29
494.403
487.548
479.29
471.849
462.936
454.572
445.186
435.918
426.54
416.867
408.442
400.239
394.336
391.09
390.052
397.896
441.316
479.408
492.064
488.488
481.636
476.671
473.284
471.193
469.943
469.559
469.841
470.807
472.362
474.514
477.231
480.514
484.371
488.812
493.88
499.593
506.034
513.204
521.297
530.154
540.403
551.209
564.398
577.618
594.793
611.358
633.834
655.099
685.421
712.754
755.01
790.544
851.027
897.488
983.779
1042.08
1159.65
1223.05
1367.97
1419.49
1582.36
1626.16
1829.4
1910.64
2009.84
2011.7
1461.21
1130.39
521.41
516.496
767.772
954.219
1009.84
1041.12
974.531
952.677
877.447
854.017
796.913
780.936
742.536
731.692
702.763
691.371
669.761
658.83
640.998
628.293
611.577
597.32
581.653
567.987
554.897
543.783
533.995
525.055
517.28
509.221
502.231
494.355
487.51
479.262
471.832
462.927
454.573
445.192
435.929
426.555
416.883
408.46
400.258
394.359
391.119
390.074
398.558
442.284
479.956
492.215
488.459
481.55
476.577
473.197
471.114
469.872
469.494
469.781
470.752
472.311
474.466
477.185
480.47
484.329
488.771
493.839
499.552
505.992
513.161
521.253
530.108
540.354
551.156
564.34
577.554
594.719
611.278
633.741
654.993
685.293
712.609
754.836
790.351
850.8
897.243
983.492
1041.77
1159.29
1222.65
1367.44
1418.77
1581.46
1625.01
1828.07
1908.99
2008.28
2009.87
1458.77
1129.33
520.139
513.919
765.374
951.63
1007.76
1039.29
972.995
951.369
876.516
853.195
796.24
780.288
741.98
731.176
702.339
690.999
669.455
658.555
640.757
628.082
611.391
597.153
581.501
567.846
554.763
543.66
533.884
524.961
517.201
509.158
502.179
494.314
487.479
479.24
471.822
462.924
454.58
445.203
435.945
426.574
416.903
408.482
400.282
394.388
391.154
390.102
399.239
443.279
480.519
492.37
488.428
481.462
476.48
473.106
471.031
469.798
469.426
469.719
470.694
472.257
474.415
477.138
480.425
484.286
488.729
493.797
499.51
505.95
513.118
521.209
530.062