/*--------------------------------*- C++ -*----------------------------------*\
| =========                 |                                                 |
| \\      /  F ield         | OpenFOAM: The Open Source CFD Toolbox           |
|  \\    /   O peration     | Version:  2412                                  |
|   \\  /    A nd           | Website:  www.openfoam.com                      |
|    \\/     M anipulation  |                                                 |
\*---------------------------------------------------------------------------*/
FoamFile
{
    version     2.0;
    format      ascii;
    arch        "LSB;label=32;scalar=64";
    class       volScalarField;
    location    "0.1";
    object      k;
}
// * * * * * * * * * * * * * * * * * * * * * * * * * * * * * * * * * * * * * //

dimensions      [0 2 -2 0 0 0 0];

internalField   nonuniform List<scalar> 
13068
(
38.0955
40.2614
42.475
43.207
43.0483
42.732
42.5105
42.356
42.2612
42.2036
42.1883
42.2044
42.2542
42.332
42.4387
42.5725
42.7334
42.9217
43.1377
43.3831
43.6586
43.9675
44.3095
44.6928
45.1096
45.5875
46.0884
46.694
47.2954
48.0666
48.8011
49.7954
50.7195
52.0219
53.1621
54.9067
56.3215
58.6939
60.4368
63.6211
65.6671
69.7251
71.8077
76.539
78.2437
83.3492
84.8875
91.0605
93.874
97.309
98.5276
85.8019
75.7167
53.9627
56.8582
65.3827
70.8398
70.575
70.4808
66.9717
65.5848
62.0084
60.8472
58.2778
57.5446
55.7491
55.1483
53.7516
53.1977
52.1516
51.6069
50.7181
50.1032
49.2784
48.5981
47.8356
47.1981
46.5721
46.0359
45.5451
45.0968
44.6975
44.2878
43.9305
43.5283
43.177
42.754
42.3788
41.927
41.5109
41.036
40.5742
40.0971
39.6085
39.1817
38.7633
38.4695
38.3274
38.2836
38.0973
40.2638
42.478
43.211
43.0524
42.7359
42.5142
42.3595
42.2646
42.2069
42.1916
42.2077
42.2575
42.3353
42.4421
42.5758
42.7369
42.9252
43.1413
43.3868
43.6623
43.9714
44.3135
44.697
45.1139
45.5921
46.0932
46.6992
47.301
48.0728
48.8077
49.8021
50.7266
52.0294
53.1701
54.9154
56.3307
58.704
60.4477
63.633
65.6801
69.7392
71.8234
76.5554
78.2614
83.3646
84.904
91.0729
93.8832
97.3119
98.5226
85.7872
75.689
53.9044
56.8064
65.3325
70.8107
70.5586
70.4671
66.9623
65.5756
62.0043
60.8438
58.276
57.542
55.7473
55.1486
53.7527
53.1988
52.1529
51.6088
50.7212
50.1058
49.2816
48.601
47.8389
47.2005
46.5745
46.0382
45.5476
45.099
44.6997
44.2899
43.9325
43.5304
43.1791
42.756
42.3805
41.9285
41.5119
41.0366
40.5745
40.097
39.6081
39.1811
38.7626
38.4687
38.3268
38.2832
38.1002
40.2676
42.4817
43.2152
43.0567
42.7399
42.5179
42.3631
42.2681
42.2104
42.195
42.2111
42.2608
42.3386
42.4454
42.5793
42.7403
42.9287
43.1449
43.3904
43.6661
43.9753
44.3174
44.7011
45.1181
45.5966
46.0978
46.7041
47.3061
48.0784
48.8136
49.8082
50.7328
52.036
53.1769
54.9227
56.3383
58.7121
60.4561
63.642
65.6897
69.7492
71.834
76.5655
78.2714
83.3708
84.9089
91.0709
93.8737
97.2913
98.487
85.7296
75.6145
53.7929
56.6959
65.2329
70.7402
70.509
70.4262
66.9309
65.5479
61.985
60.8272
58.2629
57.5294
55.7369
55.1413
53.7471
53.1938
52.1489
51.6059
50.7199
50.1045
49.2814
48.6008
47.8395
47.2006
46.5748
46.0385
45.5482
45.0997
44.7005
44.2907
43.9335
43.5315
43.1803
42.7572
42.3815
41.9293
41.5124
41.0368
40.5742
40.0965
39.6073
39.18
38.7614
38.4676
38.3259
38.2825
38.1042
40.2728
42.4862
43.2196
43.061
42.7439
42.5216
42.3666
42.2715
42.2137
42.1983
42.2143
42.2641
42.3419
42.4487
42.5825
42.7436
42.9321
43.1482
43.3939
43.6696
43.9788
44.321
44.7048
45.1219
45.6005
46.1018
46.7084
47.3105
48.0833
48.8187
49.8132
50.7379
52.041
53.1819
54.9279
56.3435
58.7174
60.4614
63.6472
65.6949
69.7539
71.8384
76.5682
78.2725
83.3664
84.9009
91.0533
93.8443
97.2461
98.4197
85.6291
75.4937
53.6298
56.528
65.085
70.6284
70.4261
70.3578
66.8771
65.5013
61.9503
60.7971
58.2383
57.5065
55.7176
55.126
53.7346
53.1825
52.1392
51.5979
50.714
50.099
49.2775
48.5973
47.8371
47.1979
46.5726
46.0366
45.5469
45.0985
44.6997
44.29
43.9332
43.5314
43.1804
42.7574
42.3817
41.9294
41.5121
41.0363
40.5733
40.0955
39.606
39.1786
38.7599
38.466
38.3245
38.2814
38.1092
40.2796
42.4912
43.224
43.065
42.7475
42.525
42.3699
42.2746
42.2168
42.2014
42.2174
42.2672
42.3449
42.4517
42.5856
42.7467
42.9351
43.1513
43.397
43.6727
43.982
44.3242
44.708
45.1251
45.6038
46.1051
46.712
47.3141
48.0872
48.8226
49.817
50.7414
52.0444
53.1852
54.931
56.3462
58.7198
60.4632
63.6485
65.6955
69.7532
71.8364
76.5632
78.2643
83.3512
84.8798
91.0199
93.795
97.1764
98.3214
85.4865
75.3283
53.417
56.3047
64.8907
70.4766
70.311
70.2627
66.8016
65.4365
61.9005
60.7538
58.2023
57.4733
55.6896
55.1028
53.7151
53.1648
52.1239
51.5846
50.7035
50.0893
49.2699
48.5904
47.8317
47.1925
46.5679
46.0323
45.5436
45.0955
44.6973
44.2879
43.9315
43.5301
43.1795
42.7567
42.381
41.9286
41.5112
41.0352
40.5719
40.0939
39.6041
39.1766
38.7578
38.4639
38.3227
38.2799
38.1154
40.2877
42.497
43.2284
43.0688
42.751
42.5282
42.373
42.2776
42.2198
42.2043
42.2203
42.27
42.3478
42.4545
42.5884
42.7495
42.9379
43.1541
43.3997
43.6754
43.9847
44.3269
44.7107
45.1277
45.6065
46.1078
46.7147
47.3168
48.09
48.8253
49.8195
50.7436
52.0462
53.1865
54.9318
56.3464
58.7192
60.4617
63.6458
65.6915
69.747
71.828
76.5507
78.247
83.3254
84.846
90.9712
93.7266
97.0834
98.1934
85.3037
75.1205
53.1575
56.0284
64.6524
70.2868
70.1653
70.1421
66.7054
65.3541
61.8363
60.6979
58.1554
57.4305
55.6532
55.072
53.6888
53.1409
52.1031
51.5663
50.6885
50.0755
49.2586
48.5803
47.8234
47.1844
46.5607
46.0259
45.5382
45.0907
44.6933
44.2843
43.9285
43.5276
43.1775
42.755
42.3795
41.9271
41.5095
41.0334
40.5699
40.0917
39.6018
39.1742
38.7554
38.4615
38.3204
38.278
38.1227
40.2973
42.5033
43.2328
43.0724
42.7541
42.5311
42.3758
42.2804
42.2225
42.207
42.2229
42.2726
42.3503
42.4571
42.5909
42.752
42.9404
43.1565
43.4021
43.6778
43.987
44.3292
44.7129
45.1298
45.6086
46.1097
46.7166
47.3185
48.0919
48.8269
49.8207
50.7443
52.0462
53.186
54.9304
56.3441
58.7158
60.4569
63.6393
65.683
69.7357
71.8136
76.531
78.2211
83.2896
84.8001
90.9081
93.6401
96.9685
98.0377
85.0829
74.8732
52.8543
55.7022
64.3731
70.0611
69.9909
69.9976
66.5898
65.2554
61.7587
60.6303
58.0984
57.3786
55.6088
55.0341
53.6563
53.1113
52.0771
51.5431
50.6692
50.0578
49.2439
48.5669
47.8121
47.1737
46.5513
46.0173
45.5309
45.0842
44.6877
44.2793
43.9242
43.5239
43.1744
42.7523
42.3771
41.9248
41.5072
41.031
40.5673
40.0891
39.599
39.1713
38.7525
38.4586
38.3178
38.2758
38.1311
40.3083
42.5102
43.2371
43.0757
42.757
42.5338
42.3783
42.2828
42.2249
42.2094
42.2253
42.275
42.3527
42.4594
42.5931
42.7542
42.9426
43.1587
43.4042
43.6798
43.9889
44.331
44.7146
45.1314
45.61
46.111
46.7178
47.3195
48.0928
48.8275
49.8207
50.7436
52.0447
53.1837
54.927
56.3395
58.7097
60.449
63.6292
65.6703
69.7195
71.7934
76.5046
78.1872
83.2446
84.743
90.8318
93.5371
96.8333
97.8566
84.827
74.59
52.5113
55.3297
64.0563
69.8024
69.7903
69.8314
66.4565
65.1417
61.6687
60.5518
58.032
57.3183
55.5571
54.9895
53.6179
53.0763
52.0463
51.5156
50.6458
50.0364
49.2259
48.5506
47.7983
47.1606
46.5396
46.0067
45.5218
45.076
44.6807
44.2729
43.9188
43.5192
43.1704
42.7488
42.3739
41.9218
41.5042
41.028
40.5642
40.0859
39.5957
39.168
38.7491
38.4553
38.3147
38.2731
38.1406
40.3207
42.5176
43.2414
43.0787
42.7595
42.5361
42.3806
42.2851
42.2271
42.2116
42.2275
42.2771
42.3547
42.4614
42.5951
42.7561
42.9444
43.1605
43.4059
43.6814
43.9904
44.3323
44.7157
45.1324
45.6109
46.1116
46.7182
47.3196
48.0928
48.827
49.8196
50.7416
52.0418
53.1797
54.9217
56.3327
58.7011
60.4383
63.6157
65.6538
69.6989
71.768
76.472
78.1459
83.1911
84.6756
90.7435
93.4191
96.6801
97.6528
84.5391
74.2745
52.1326
54.9152
63.7061
69.5138
69.5661
69.6455
66.3073
65.0146
61.5676
60.4637
57.9573
57.2504
55.4989
54.9389
53.5742
53.0364
52.0111
51.484
50.6189
50.0118
49.2049
48.5316
47.7819
47.1452
46.5259
45.9943
45.5111
45.0663
44.6723
44.2654
43.9122
43.5134
43.1655
42.7445
42.37
41.9182
41.5006
41.0245
40.5606
40.0824
39.592
39.1643
38.7454
38.4516
38.3113
38.2702
38.1512
40.3345
42.5257
43.2456
43.0815
42.7618
42.5382
42.3826
42.2871
42.2291
42.2135
42.2294
42.279
42.3566
42.4632
42.5968
42.7578
42.946
43.1619
43.4073
43.6827
43.9915
44.3333
44.7165
45.133
45.6112
46.1117
46.7179
47.319
48.0919
48.8256
49.8174
50.7384
52.0375
53.1742
54.9146
56.324
58.6901
60.4249
63.5992
65.6338
69.6742
71.7379
76.4339
78.0979
83.1301
84.5992
90.6445
93.2879
96.5109
97.4291
84.223
73.931
51.7228
54.4631
63.3266
69.1987
69.3212
69.4423
66.1442
64.8757
61.4568
60.367
57.8751
57.1759
55.4348
54.883
53.5256
52.9921
51.9719
51.4487
50.5886
49.9841
49.1813
48.5102
47.7634
47.1278
46.5103
45.9801
45.4987
45.0552
44.6627
44.2567
43.9046
43.5067
43.1597
42.7394
42.3655
41.914
41.4966
41.0205
40.5567
40.0784
39.588
39.1602
38.7414
38.4476
38.3075
38.2669
38.1629
40.3496
42.5343
43.2497
43.0841
42.7638
42.54
42.3844
42.2888
42.2308
42.2152
42.2311
42.2806
42.3582
42.4647
42.5983
42.7592
42.9473
43.1631
43.4083
43.6836
43.9922
44.3338
44.7168
45.133
45.611
46.1112
46.717
47.3176
48.0902
48.8233
49.8142
50.7341
52.0319
53.1673
54.9058
56.3134
58.677
60.4091
63.58
65.6107
69.6459
71.7035
76.3909
78.044
83.0624
84.5147
90.5363
93.1454
96.328
97.1885
83.8822
73.5638
51.2866
53.9785
62.9222
68.8608
69.0587
69.2243
65.9692
64.7268
61.3377
60.2631
57.7866
57.0956
55.3656
54.8224
53.473
52.9439
51.9293
51.4102
50.5554
49.9538
49.1552
48.4866
47.7428
47.1086
46.4931
45.9645
45.485
45.0429
44.6519
44.247
43.8961
43.4992
43.1533
42.7337
42.3604
41.9092
41.4921
41.0162
40.5523
40.0741
39.5836
39.1559
38.737
38.4432
38.3035
38.2633
38.1757
40.3662
42.5435
43.2538
43.0863
42.7655
42.5416
42.3859
42.2903
42.2323
42.2167
42.2325
42.282
42.3595
42.466
42.5995
42.7603
42.9483
43.1641
43.4091
43.6842
43.9926
44.334
44.7167
45.1327
45.6103
46.1101
46.7156
47.3157
48.0878
48.8202
49.8101
50.7288
52.0252
53.1592
54.8957
56.3012
58.6621
60.3913
63.5585
65.5848
69.6145
71.6656
76.3437
77.9851
82.9892
84.4235
90.4204
92.9934
96.1339
96.9341
83.5209
73.1776
50.8291
53.4667
62.4978
68.5039
68.7816
68.9941
65.7844
64.5696
61.2119
60.1533
57.6928
57.0106
55.2921
54.7579
53.4168
52.8925
51.8838
51.369
50.5197
49.9213
49.1271
48.4611
47.7206
47.0878
46.4745
45.9475
45.4702
45.0296
44.6402
44.2365
43.8868
43.491
43.1462
42.7274
42.3548
41.9041
41.4872
41.0115
40.5477
40.0695
39.579
39.1513
38.7325
38.4387
38.2991
38.2595
38.1895
40.3841
42.5532
43.2579
43.0883
42.7669
42.5428
42.3871
42.2915
42.2335
42.2179
42.2337
42.2832
42.3607
42.4671
42.6005
42.7612
42.9491
43.1647
43.4096
43.6845
43.9927
44.3338
44.7163
45.1319
45.6092
46.1086
46.7136
47.3132
48.0848
48.8164
49.8053
50.7226
52.0176
53.1499
54.8843
56.2876
58.6456
60.3717
63.5348
65.5567
69.5804
71.6246
76.2931
77.922
82.9114
84.3267
90.2984
92.8339
95.9309
96.669
83.1431
72.777
50.3555
52.9332
62.0579
68.1319
68.4932
68.7544
65.5919
64.4061
61.0807
60.0388
57.5949
56.9218
55.2153
54.6902
53.3578
52.8384
51.8358
51.3256
50.4819
49.8869
49.0973
48.434
47.6969
47.0658
46.4547
45.9294
45.4543
45.0153
44.6277
44.2252
43.8769
43.4822
43.1385
42.7207
42.3488
41.8985
41.482
41.0065
40.5428
40.0647
39.5742
39.1465
38.7277
38.4339
38.2946
38.2556
38.2044
40.4033
42.5634
43.2618
43.0901
42.768
42.5438
42.388
42.2924
42.2345
42.2189
42.2347
42.2842
42.3616
42.4679
42.6013
42.7618
42.9497
43.1651
43.4098
43.6845
43.9925
44.3334
44.7155
45.1308
45.6077
46.1067
46.7111
47.3101
48.0812
48.8119
49.7997
50.7157
52.0091
53.1397
54.8718
56.2728
58.6277
60.3506
63.5095
65.5266
69.5443
71.5811
76.2397
77.8555
82.8301
84.2256
90.1716
92.6688
95.7214
96.3964
82.753
72.3667
49.8709
52.3837
61.6074
67.7488
68.1966
68.5078
65.394
64.2378
60.9456
59.9209
57.4939
56.8302
55.136
54.6202
53.2965
52.7823
51.7861
51.2804
50.4426
49.8511
49.0662
48.4057
47.6721
47.0427
46.4339
45.9104
45.4376
45.0003
44.6146
44.2134
43.8665
43.4729
43.1305
42.7136
42.3425
41.8927
41.4766
41.0013
40.5378
40.0598
39.5693
39.1415
38.7228
38.429
38.2899
38.2514
38.2205
40.4239
42.5742
43.2658
43.0915
42.7688
42.5444
42.3887
42.2931
42.2352
42.2196
42.2355
42.2849
42.3623
42.4685
42.6018
42.7623
42.95
43.1653
43.4098
43.6843
43.992
44.3326
44.7144
45.1294
45.6059
46.1044
46.7083
47.3067
48.077
48.807
49.7936
50.7081
51.9999
53.1287
54.8585
56.2571
58.6088
60.3283
63.4829
65.4951
69.5065
71.5358
76.1842
77.7865
82.7461
84.1214
90.0416
92.4999
95.5079
96.1192
82.3549
71.9513
49.3805
51.8238
61.151
67.3586
67.8951
68.2569
65.1926
64.0667
60.8082
59.8009
57.391
56.7367
55.0549
54.5484
53.2338
52.7248
51.7349
51.234
50.402
49.8142
49.034
48.3766
47.6464
47.0188
46.4123
45.8908
45.4202
44.9847
44.6009
44.2011
43.8556
43.4633
43.1221
42.7062
42.3359
41.8867
41.471
40.996
40.5326
40.0547
39.5642
39.1365
38.7178
38.424
38.2852
38.2472
38.2376
40.4459
42.5855
43.2696
43.0927
42.7693
42.5448
42.3891
42.2936
42.2357
42.2202
42.236
42.2854
42.3627
42.469
42.6021
42.7625
42.9501
43.1652
43.4096
43.6838
43.9913
44.3316
44.7131
45.1277
45.6038
46.1018
46.7051
47.3028
48.0725
48.8016
49.787
50.7001
51.9901
53.1171
54.8444
56.2406
58.5891
60.3052
63.4553
65.4625
69.4675
71.4892
76.1273
77.7159
82.6606
84.0152
89.9099
92.3291
95.2925
95.8404
81.9527
71.5353
48.8892
51.2591
60.6931
66.9651
67.5916
68.0041
64.9898
63.8943
60.6698
59.6799
57.2872
56.6424
54.9729
54.4757
53.1701
52.6664
51.6831
51.1868
50.3607
49.7766
49.0013
48.3468
47.6202
46.9944
46.3903
45.8707
45.4025
44.9688
44.5869
44.1886
43.8445
43.4534
43.1136
42.6986
42.3292
41.8806
41.4654
40.9907
40.5274
40.0497
39.5592
39.1315
38.7128
38.419
38.2804
38.243
38.2557
40.4691
42.5973
43.2733
43.0936
42.7695
42.5449
42.3892
42.2938
42.236
42.2204
42.2363
42.2857
42.363
42.4692
42.6023
42.7625
42.95
43.1649
43.4091
43.6832
43.9904
44.3304
44.7116
45.1258
45.6015
46.099
46.7016
47.2987
48.0677
48.7959
49.78
50.6916
51.9799
53.105
54.8299
56.2235
58.5687
60.2814
63.4271
65.4293
69.4279
71.4419
76.0696
77.6443
82.5743
83.9081
89.7776
92.1581
95.0774
95.5627
81.5505
71.1231
48.4019
50.6951
60.238
66.5719
67.2889
67.7519
64.7874
63.7223
60.5317
59.5592
57.1835
56.548
54.8909
54.4027
53.1062
52.6077
51.6309
51.1393
50.3191
49.7388
48.9682
48.3167
47.5937
46.9697
46.368
45.8503
45.3844
44.9526
44.5728
44.1758
43.8332
43.4434
43.1049
42.691
42.3225
41.8744
41.4597
40.9853
40.5223
40.0447
39.5542
39.1265
38.7079
38.4141
38.2756
38.2388
38.275
40.4937
42.6096
43.277
43.0943
42.7693
42.5447
42.3891
42.2937
42.236
42.2205
42.2364
42.2858
42.363
42.4692
42.6022
42.7623
42.9497
43.1645
43.4085
43.6823
43.9893
44.329
44.7098
45.1237
45.5989
46.0959
46.6979
47.2944
48.0625
48.7899
49.7728
50.6829
51.9694
53.0927
54.815
56.2062
58.5481
60.2574
63.3985
65.3957
69.388
71.3944
76.0118
77.5726
82.4881
83.8012
89.6461
91.9884
94.8647
95.2887
81.152
70.7184
47.9228
50.1368
59.7898
66.1826
66.9898
67.5023
64.5872
63.5521
60.3951
59.4397
57.0808
56.4544
54.8094
54.3302
53.0425
52.5492
51.5789
51.092
50.2776
49.701
48.9352
48.2866
47.5671
46.945
46.3456
45.8299
45.3664
44.9364
44.5585
44.163
43.822
43.4333
43.0962
42.6833
42.3157
41.8683
41.4541
40.98
40.5173
40.0398
39.5493
39.1217
38.7031
38.4092
38.271
38.2347
38.2953
40.5196
42.6224
43.2806
43.0946
42.7689
42.5442
42.3887
42.2934
42.2358
42.2204
42.2363
42.2856
42.3629
42.469
42.602
42.762
42.9492
43.1639
43.4077
43.6813
43.9881
44.3275
44.7079
45.1214
45.5962
46.0927
46.6941
47.2899
48.0572
48.7838
49.7653
50.674
51.9587
53.0801
54.8
56.1887
58.5273
60.2332
63.37
65.3623
69.3483
71.3472
75.9544
77.5014
82.4028
83.6955
89.5165
91.8215
94.656
95.0207
80.7605
70.3251
47.4563
49.5891
59.3521
65.8004
66.6966
67.2574
64.3908
63.385
60.2612
59.3224
56.98
56.3623
54.7291
54.2586
52.9798
52.4915
51.5277
51.0452
50.2365
49.6637
48.9025
48.2568
47.5407
46.9205
46.3234
45.8096
45.3484
44.9203
44.5444
44.1504
43.8107
43.4234
43.0875
42.6757
42.3091
41.8623
41.4486
40.9749
40.5123
40.035
39.5446
39.117
38.6984
38.4045
38.2665
38.2307
38.3167
40.5469
42.6357
43.2842
43.0947
42.7682
42.5434
42.3881
42.2929
42.2353
42.22
42.236
42.2853
42.3626
42.4686
42.6015
42.7615
42.9486
43.1632
43.4068
43.6802
43.9867
44.3258
44.7059
45.119
45.5934
46.0894
46.6901
47.2852
48.0518
48.7775
49.7578
50.665
51.9479
53.0676
54.785
56.1713
58.5066
60.2093
63.3417
65.3292
69.3091
71.3007
75.8979
77.4313
82.3191
83.5918
89.3897
91.6586
94.4531
94.7608
80.3794
69.9463
47.0058
49.0564
58.9281
65.4281
66.4115
67.019
64.1995
63.2222
60.1309
59.2082
56.8817
56.2725
54.6508
54.1885
52.9183
52.435
51.4774
50.9994
50.1962
49.6271
48.8704
48.2276
47.5148
46.8964
46.3016
45.7896
45.3307
44.9044
44.5304
44.1379
43.7997
43.4136
43.0791
42.6683
42.3026
41.8564
41.4433
40.9699
40.5076
40.0304
39.5401
39.1125
38.6939
38.4
38.2622
38.2268
38.3392
40.5754
42.6496
43.2877
43.0946
42.7672
42.5423
42.3871
42.2921
42.2347
42.2194
42.2355
42.2848
42.3621
42.4681
42.601
42.7609
42.9479
43.1623
43.4057
43.6789
43.9852
44.324
44.7038
45.1165
45.5905
46.086
46.6861
47.2806
48.0463
48.7712
49.7503
50.6561
51.9372
53.0551
54.7701
56.154
58.4861
60.1857
63.3139
65.2968
69.2707
71.2553
75.8429
77.3629
82.2376
83.4908
89.2668
91.5009
94.2575
94.5108
80.0114
69.5849
46.5747
48.5424
58.5206
65.0685
66.1364
66.7887
64.0146
63.0649
60.005
59.0979
56.7867
56.1855
54.5748
54.1204
52.8587
52.3801
51.4287
50.9549
50.1571
49.5915
48.8392
48.1992
47.4896
46.873
46.2802
45.7701
45.3133
44.8889
44.5168
44.1258
43.789
43.4041
43.0708
42.6611
42.2963
41.8508
41.4383
40.9652
40.5032
40.0261
39.5358
39.1082
38.6897
38.3958
38.2582
38.2232
38.3627
40.6052
42.6639
43.2911
43.0942
42.7659
42.541
42.386
42.2911
42.2338
42.2186
42.2347
42.2842
42.3614
42.4674
42.6002
42.7601
42.947
43.1612
43.4046
43.6776
43.9836
44.3221
44.7016
45.114
45.5875
46.0826
46.6821
47.2759
48.0409
48.765
49.7428
50.6472
51.9266
53.0428
54.7554
56.1371
58.4661
60.1627
63.2868
65.2654
69.2335
71.2113
75.7895
77.2966
82.1588
83.3932
89.1484
91.3493
94.0702
94.2722
79.6589
69.2433
46.1657
48.0505
58.1322
64.7236
65.873
66.5678
63.8371
62.9137
59.8844
58.9919
56.6956
56.1017
54.5017
54.0548
52.8012
52.3271
51.3817
50.9119
50.1193
49.5572
48.809
48.1717
47.4652
46.8503
46.2596
45.7512
45.2965
44.8739
44.5037
44.114
43.7786
43.3949
43.0629
42.6542
42.2904
41.8454
41.4335
40.9608
40.499
40.0221
39.5318
39.1043
38.6858
38.3919
38.2545
38.2198
38.3873
40.6363
42.6787
43.2944
43.0935
42.7643
42.5394
42.3845
42.2898
42.2327
42.2176
42.2338
42.2833
42.3606
42.4666
42.5994
42.7591
42.946
43.1601
43.4033
43.6761
43.9819
44.3202
44.6994
45.1114
45.5845
46.0792
46.678
47.2712
48.0355
48.7588
49.7354
50.6386
51.9163
53.0308
54.7411
56.1206
58.4467
60.1405
63.2606
65.235
69.1977
71.1691
75.7383
77.2329
82.0832
83.2995
89.0351
91.2046
93.8923
94.0463
79.3239
68.9234
45.7809
47.5835
57.7646
64.3953
65.6225
66.3573
63.6679
62.7695
59.7695
58.8909
56.6086
56.0217
54.4317
53.9919
52.7461
52.2764
51.3367
50.8708
50.0831
49.5244
48.7801
48.1454
47.4418
46.8286
46.2397
45.733
45.2804
44.8595
44.491
44.1028
43.7687
43.3861
43.0554
42.6476
42.2847
41.8404
41.429
40.9566
40.4951
40.0184
39.5281
39.1006
38.6822
38.3883
38.2511
38.2167
38.413
40.6687
42.6941
43.2977
43.0926
42.7625
42.5376
42.3829
42.2883
42.2314
42.2165
42.2328
42.2823
42.3596
42.4656
42.5984
42.7581
42.9448
43.1589
43.4019
43.6746
43.9801
44.3182
44.6971
45.1088
45.5816
46.0757
46.6741
47.2667
48.0301
48.7527
49.7282
50.6301
51.9062
53.0192
54.7272
56.1047
58.4279
60.1191
63.2354
65.206
69.1635
71.1289
75.6894
77.1721
82.0111
83.2102
88.9275
91.0675
93.7247
93.8341
79.0083
68.6267
45.4221
47.1437
57.4194
64.0851
65.386
66.1582
63.5077
62.6327
59.6609
58.7953
56.5263
55.9458
54.3654
53.9321
52.6938
52.2281
51.294
50.8317
50.0487
49.4932
48.7527
48.1203
47.4195
46.8079
46.2208
45.7157
45.265
44.8457
44.479
44.0921
43.7593
43.3778
43.0482
42.6414
42.2794
41.8357
41.4249
40.9528
40.4916
40.015
39.5248
39.0973
38.6789
38.385
38.248
38.2139
38.4398
40.7024
42.7099
43.3009
43.0915
42.7604
42.5354
42.381
42.2866
42.2299
42.2151
42.2315
42.2811
42.3585
42.4645
42.5973
42.7569
42.9436
43.1576
43.4005
43.673
43.9783
44.3162
44.6948
45.1063
45.5786
46.0724
46.6702
47.2622
48.0249
48.7469
49.7212
50.622
51.8964
53.008
54.7138
56.0894
58.4099
60.0986
63.2114
65.1784
69.131
71.0908
75.6431
77.1144
81.9428
83.1256
88.8259
90.9383
93.5678
93.6363
78.7131
68.3543
45.0905
46.7325
57.0976
63.7941
65.1643
65.9711
63.3568
62.5039
59.5589
58.7052
56.4489
55.8741
54.3027
53.8755
52.6443
52.1826
51.2537
50.7949
50.0163
49.4637
48.7268
48.0967
47.3985
46.7883
46.2029
45.6992
45.2504
44.8327
44.4676
44.082
43.7504
43.3699
43.0415
42.6356
42.2745
41.8313
41.4211
40.9494
40.4885
40.012
39.5219
39.0944
38.676
38.3822
38.2453
38.2115
38.4676
40.7374
42.7262
43.3041
43.0901
42.758
42.5331
42.3789
42.2847
42.2282
42.2136
42.2301
42.2797
42.3572
42.4632
42.596
42.7557
42.9423
43.1562
43.399
43.6713
43.9765
44.3141
44.6925
45.1037
45.5757
46.0691
46.6664
47.2578
48.0199
48.7412
49.7145
50.6141
51.887
52.9972
54.701
56.0749
58.3928
60.0792
63.1886
65.1523
69.1003
71.055
75.5995
77.06
81.8784
83.0459
88.7305
90.8175
93.4222
93.4533
78.4394
68.1068
44.7868
46.3512
56.8
63.523
64.9578
65.7964
63.2156
62.3833
59.4637
58.6211
56.3766
55.807
54.244
53.8223
52.598
52.1398
51.2159
50.7603
49.9859
49.4362
48.7025
48.0745
47.3787
46.7699
46.186
45.6838
45.2366
44.8205
44.4568
44.0726
43.7421
43.3626
43.0353
42.6302
42.27
41.8274
41.4177
40.9463
40.4857
40.0094
39.5193
39.0919
38.6735
38.3797
38.2431
38.2093
38.4965
40.7737
42.743
43.3073
43.0885
42.7554
42.5305
42.3765
42.2826
42.2263
42.2119
42.2285
42.2783
42.3558
42.4619
42.5947
42.7543
42.9409
43.1547
43.3975
43.6696
43.9747
44.3121
44.6903
45.1012
45.5729
46.0659
46.6627
47.2536
48.015
48.7357
49.708
50.6066
51.878
52.9869
54.6887
56.061
58.3765
60.0609
63.1671
65.1279
69.0716
71.0216
75.5587
77.009
81.8181
82.9712
88.6416
90.7051
93.288
93.2854
78.1877
67.8844
44.5114
46.0002
56.5267
63.2724
64.7668
65.6344
63.0844
62.2709
59.3753
58.5428
56.3094
55.7443
54.1892
53.7726
52.5547
52.0999
51.1808
50.7281
49.9576
49.4105
48.6799
48.0539
47.3603
46.7528
46.1702
45.6693
45.2237
44.809
44.4468
44.0638
43.7345
43.3559
43.0295
42.6253
42.2659
41.8239
41.4147
40.9437
40.4833
40.0072
39.5171
39.0897
38.6714
38.3776
38.2412
38.2075
38.5264
40.8113
42.7604
43.3104
43.0867
42.7525
42.5276
42.374
42.2803
42.2242
42.21
42.2268
42.2766
42.3542
42.4604
42.5932
42.7529
42.9395
43.1532
43.3958
43.6679
43.9728
44.31
44.688
45.0987
45.5701
46.0627
46.6591
47.2495
48.0103
48.7305
49.7018
50.5994
51.8695
52.9772
54.6771
56.0479
58.3611
60.0437
63.147
65.105
69.0448
70.9906
75.5208
76.9615
81.7619
82.9017
88.559
90.6011
93.1653
93.1327
77.958
67.6873
44.2643
45.6798
56.2777
63.0423
64.5914
65.485
62.963
62.1669
59.2939
58.4705
56.2474
55.6862
54.1384
53.7264
52.5146
52.0629
51.1483
50.6984
49.9314
49.3869
48.659
48.0349
47.3433
46.7369
46.1556
45.6559
45.2117
44.7984
44.4376
44.0557
43.7274
43.3497
43.0243
42.6209
42.2622
41.8207
41.4121
40.9414
40.4812
40.0053
39.5152
39.0879
38.6697
38.3759
38.2398
38.2061
38.5574
40.8501
42.7782
43.3134
43.0847
42.7494
42.5246
42.3712
42.2779
42.222
42.2079
42.2249
42.2749
42.3526
42.4588
42.5917
42.7514
42.9379
43.1516
43.3942
43.6662
43.9709
44.308
44.6858
45.0962
45.5674
46.0597
46.6556
47.2456
48.0058
48.7254
49.6959
50.5925
51.8613
52.9679
54.6661
56.0355
58.3466
60.0275
63.1282
65.0838
69.02
70.9619
75.4857
76.9174
81.7097
82.8371
88.4828
90.5056
93.0539
92.9949
77.7505
67.5148
44.0449
45.3896
56.0527
62.8325
64.4314
65.3482
62.8514
62.0711
59.2192
58.404
56.1904
55.6327
54.0916
53.6837
52.4776
52.0289
51.1185
50.671
49.9073
49.3651
48.6399
48.0174
47.3276
46.7223
46.1421
45.6434
45.2007
44.7886
44.4291
44.0483
43.7209
43.3441
43.0196
42.6169
42.259
41.818
41.4099
40.9395
40.4796
40.0038
39.5138
39.0865
38.6683
38.3747
38.2387
38.205
38.5895
40.8903
42.7966
43.3165
43.0825
42.746
42.5213
42.3682
42.2752
42.2196
42.2057
42.2229
42.273
42.3508
42.4571
42.5901
42.7498
42.9363
43.15
43.3925
43.6644
43.969
44.3059
44.6836
45.0938
45.5647
46.0568
46.6523
47.2419
48.0015
48.7207
49.6902
50.5861
51.8536
52.9591
54.6557
56.0239
58.333
60.0125
63.1106
65.0641
68.9971
70.9356
75.4534
76.8767
81.6616
82.7776
88.4129
90.4183
92.9537
92.8718
77.5647
67.3665
43.8526
45.1289
55.851
62.6427
64.2863
65.2236
62.7493
61.9833
59.1512
58.3432
56.1384
55.5836
54.0487
53.6444
52.4437
51.9977
51.0913
50.6461
49.8854
49.3453
48.6224
48.0014
47.3133
46.709
46.1297
45.632
45.1905
44.7797
44.4213
44.0415
43.7151
43.339
43.0153
42.6133
42.2562
41.8156
41.4081
40.9379
40.4783
40.0027
39.5127
39.0855
38.6674
38.3738
38.2381
38.2043
38.6227
40.9317
42.8155
43.3196
43.08
42.7424
42.5178
42.3651
42.2723
42.217
42.2034
42.2207
42.271
42.3489
42.4553
42.5883
42.7481
42.9347
43.1483
43.3908
43.6626
43.9671
44.3039
44.6814
45.0915
45.5622
46.0539
46.649
47.2383
47.9973
48.7161
49.6849
50.5799
51.8463
52.9509
54.6459
56.0129
58.3202
59.9984
63.0944
65.046
68.976
70.9116
75.4238
76.8393
81.6173
82.7228
88.349
90.339
92.8643
92.7629
77.4
67.2415
43.6864
44.8968
55.6717
62.4724
64.1559
65.111
62.6564
61.9033
59.0896
58.288
56.0913
55.5387
54.0096
53.6085
52.4128
51.9692
51.0666
50.6234
49.8655
49.3274
48.6065
47.9869
47.3003
46.6969
46.1183
45.6216
45.1812
44.7715
44.4142
44.0354
43.7098
43.3344
43.0115
42.6102
42.2537
41.8137
41.4066
40.9367
40.4774
40.0019
39.512
39.0849
38.6668
38.3734
38.2379
38.2039
38.6569
40.9744
42.8349
43.3226
43.0775
42.7387
42.5141
42.3617
42.2693
42.2143
42.2009
42.2184
42.2688
42.3469
42.4534
42.5865
42.7463
42.9329
43.1466
43.389
43.6607
43.9652
44.3019
44.6793
45.0891
45.5596
46.0511
46.6459
47.2348
47.9934
48.7117
49.6798
50.5741
51.8393
52.9431
54.6367
56.0027
58.3083
59.9854
63.0793
65.0293
68.9567
70.8898
75.3968
76.8051
81.5767
82.6726
88.2909
90.2674
92.7854
92.6677
77.2557
67.1388
43.5452
44.692
55.5138
62.3206
64.0394
65.0098
62.5724
61.8307
59.0342
58.238
56.0487
55.498
53.974
53.5757
52.3848
51.9435
51.0443
50.603
49.8475
49.3113
48.5922
47.9738
47.2885
46.6859
46.1081
45.6121
45.1727
44.764
44.4077
44.0299
43.7051
43.3304
43.0082
42.6075
42.2517
41.812
41.4055
40.9359
40.4768
40.0015
39.5116
39.0846
38.6665
38.3733
38.238
38.2038
38.6922
41.0184
42.8548
43.3257
43.0747
42.7347
42.5102
42.3582
42.2662
42.2115
42.1983
42.216
42.2666
42.3448
42.4514
42.5846
42.7445
42.9311
43.1448
43.3872
43.6589
43.9633
44.2998
44.6771
45.0869
45.5572
46.0484
46.6429
47.2315
47.9896
48.7076
49.6749
50.5685
51.8327
52.9357
54.6279
55.9931
58.2972
59.9733
63.0654
65.0141
68.9391
70.87
75.3722
76.7739
81.5397
82.6268
88.2383
90.2029
92.7164
92.5854
77.1309
67.0572
43.4277
44.5132
55.3763
62.1867
63.9362
64.9194
62.4968
61.7653
58.9845
58.193
56.0105
55.4612
53.9419
53.5459
52.3595
51.9203
51.0244
50.5847
49.8314
49.2968
48.5794
47.9621
47.278
46.676
46.0988
45.6035
45.165
44.7573
44.402
44.0251
43.7009
43.3268
43.0053
42.6052
42.25
41.8108
41.4047
40.9354
40.4765
40.0014
39.5115
39.0846
38.6666
38.3735
38.2385
38.2041
38.7286
41.0636
42.8753
43.3287
43.0718
42.7305
42.5061
42.3545
42.2628
42.2085
42.1956
42.2135
42.2642
42.3426
42.4493
42.5827
42.7426
42.9293
43.1429
43.3853
43.657
43.9613
44.2978
44.675
45.0846
45.5547
46.0458
46.64
47.2282
47.9859
48.7036
49.6703
50.5633
51.8265
52.9287
54.6197
55.984
58.2867
59.9621
63.0525
65.0001
68.9231
70.8522
75.3501
76.7455
81.5059
82.5851
88.1909
90.1454
92.6567
92.5154
77.0246
66.9955
43.3324
44.3588
55.2577
62.0695
63.8454
64.8392
62.4291
61.7065
58.9402
58.1528
55.9763
55.428
53.913
53.5189
52.3367
51.8995
51.0066
50.5684
49.8171
49.284
48.568
47.9517
47.2685
46.6672
46.0904
45.5958
45.1581
44.7513
44.3968
44.0207
43.6972
43.3237
43.0028
42.6032
42.2487
41.8098
41.4043
40.9352
40.4766
40.0016
39.5118
39.085
38.6671
38.3741
38.2394
38.2046
38.7661
41.1102
42.8962
43.3318
43.0687
42.7261
42.5019
42.3506
42.2593
42.2053
42.1927
42.2108
42.2617
42.3403
42.4472
42.5806
42.7406
42.9273
43.141
43.3834
43.6551
43.9594
44.2958
44.6729
45.0824
45.5524
46.0433
46.6372
47.2251
47.9824
48.6998
49.6658
50.5583
51.8205
52.9221
54.6119
55.9756
58.277
59.9517
63.0406
64.9873
68.9085
70.8362
75.33
76.7197
81.4752
82.5471
88.1482
90.0941
92.6059
92.4569
76.9355
66.9524
43.2578
44.2272
55.1569
61.968
63.7663
64.7686
62.3688
61.6539
58.901
58.1169
55.946
55.3982
53.887
53.4946
52.3163
51.881
50.9909
50.554
49.8044
49.2727
48.5579
47.9425
47.2602
46.6594
46.0829
45.5889
45.1519
44.746
44.3922
44.0169
43.694
43.3211
43.0007
42.6016
42.2476
41.8092
41.4041
40.9352
40.4769
40.002
39.5123
39.0856
38.6678
38.3751
38.2406
38.2054
38.8046
41.158
42.9178
43.3349
43.0655
42.7216
42.4974
42.3466
42.2557
42.2021
42.1897
42.2081
42.2592
42.3379
42.4449
42.5785
42.7386
42.9254
43.1391
43.3815
43.6531
43.9574
44.2938
44.6708
45.0802
45.55
46.0407
46.6344
47.2221
47.979
48.6961
49.6616
50.5535
51.8148
52.9158
54.6045
55.9675
58.2678
59.942
63.0296
64.9756
68.8953
70.8219
75.312
76.6964
81.4473
82.5127
88.1101
90.0488
92.5633
92.4091
76.8627
66.9266
43.2025
44.1167
55.0725
61.8811
63.6981
64.7069
62.3152
61.6071
58.8665
58.0851
55.9192
55.3716
53.8639
53.4727
52.2981
51.8646
50.9771
50.5413
49.7932
49.2628
48.549
47.9344
47.2527
46.6524
46.0762
45.5827
45.1464
44.7412
44.3881
44.0136
43.6913
43.3188
42.9989
42.6003
42.2469
41.8088
41.4042
40.9356
40.4775
40.0028
39.5131
39.0866
38.6688
38.3763
38.2421
38.2065
38.8442
41.2071
42.9398
43.3381
43.0621
42.7169
42.4928
42.3424
42.2519
42.1987
42.1866
42.2052
42.2565
42.3354
42.4426
42.5763
42.7365
42.9233
43.1371
43.3795
43.6511
43.9554
44.2917
44.6687
45.078
45.5477
46.0383
46.6317
47.2192
47.9756
48.6925
49.6575
50.5489
51.8094
52.9097
54.5975
55.96
58.2591
59.9329
63.0194
64.9649
68.8834
70.8091
75.2958
76.6752
81.422
82.4814
88.076
90.009
92.5282
92.3712
76.8048
66.9168
43.165
44.0256
55.0031
61.8077
63.6399
64.6534
62.268
61.5657
58.8363
58.0569
55.8955
55.3479
53.8432
53.4531
52.282
51.8501
50.965
50.5302
49.7835
49.2541
48.5412
47.9273
47.2462
46.6463
46.0703
45.5772
45.1414
44.7369
44.3845
44.0107
43.6889
43.3169
42.9974
42.5993
42.2464
41.8087
41.4045
40.9362
40.4783
40.0038
39.5142
39.0878
38.6701
38.3778
38.244
38.2079
38.8848
41.2575
42.9624
43.3413
43.0586
42.712
42.488
42.3381
42.248
42.1952
42.1834
42.2022
42.2537
42.3328
42.4402
42.574
42.7343
42.9213
43.1351
43.3775
43.6491
43.9534
44.2897
44.6666