/*--------------------------------*- C++ -*----------------------------------*\
| =========                 |                                                 |
| \\      /  F ield         | OpenFOAM: The Open Source CFD Toolbox           |
|  \\    /   O peration     | Version:  2412                                  |
|   \\  /    A nd           | Website:  www.openfoam.com                      |
|    \\/     M anipulation  |                                                 |
\*---------------------------------------------------------------------------*/
FoamFile
{
    version     2.0;
    format      ascii;
    arch        "LSB;label=32;scalar=64";
    class       volScalarField;
    location    "0.1";
    object      nut;
}
// * * * * * * * * * * * * * * * * * * * * * * * * * * * * * * * * * * * * * //

dimensions      [0 2 -1 0 0 0 0];

internalField   nonuniform List<scalar> 
13068
(
0.338182
0.344114
0.346338
0.344335
0.342221
0.341285
0.3411
0.34106
0.341092
0.341128
0.341207
0.3413
0.341428
0.341575
0.341751
0.341952
0.34218
0.342435
0.342719
0.343034
0.343381
0.343765
0.344182
0.344646
0.345143
0.345709
0.346293
0.347003
0.347682
0.348578
0.349374
0.350533
0.351487
0.352974
0.354051
0.355994
0.357213
0.359762
0.361061
0.36432
0.365546
0.369457
0.370222
0.374525
0.37448
0.379037
0.378617
0.383974
0.384072
0.38601
0.383887
0.368521
0.355938
0.327139
0.339406
0.352353
0.359802
0.35988
0.361865
0.358479
0.359148
0.355685
0.356388
0.353821
0.354399
0.35248
0.352635
0.351051
0.351056
0.349942
0.349724
0.348743
0.348292
0.347388
0.346784
0.345971
0.345408
0.344804
0.344339
0.343889
0.343474
0.343098
0.342663
0.342322
0.34185
0.341508
0.340961
0.340585
0.339971
0.339537
0.338886
0.338381
0.337748
0.337183
0.336738
0.336334
0.33621
0.336625
0.336888
0.338189
0.344121
0.346345
0.344342
0.342226
0.341289
0.341103
0.341063
0.341096
0.341131
0.34121
0.341304
0.341431
0.341579
0.341755
0.341956
0.342184
0.342439
0.342723
0.343038
0.343385
0.343769
0.344187
0.34465
0.345147
0.345714
0.346298
0.347008
0.347688
0.348585
0.34938
0.35054
0.351494
0.352981
0.354059
0.356002
0.357222
0.35977
0.361071
0.364329
0.365557
0.369466
0.370234
0.374534
0.374493
0.379043
0.378628
0.383975
0.384076
0.386002
0.383884
0.368488
0.355912
0.327029
0.339315
0.35231
0.359777
0.359883
0.36185
0.35848
0.359137
0.355688
0.356385
0.353823
0.354395
0.35248
0.352636
0.351053
0.351056
0.349943
0.349726
0.348747
0.348293
0.347392
0.346786
0.345975
0.345408
0.344805
0.34434
0.343891
0.343475
0.3431
0.342665
0.342324
0.341852
0.34151
0.340963
0.340586
0.339972
0.339538
0.338886
0.338381
0.337747
0.337182
0.336737
0.336333
0.336209
0.336625
0.336888
0.3382
0.344131
0.346351
0.344348
0.34223
0.341292
0.341106
0.341066
0.341099
0.341134
0.341213
0.341307
0.341434
0.341582
0.341758
0.341959
0.342187
0.342443
0.342726
0.343042
0.343389
0.343773
0.344191
0.344654
0.345151
0.345718
0.346302
0.347013
0.347693
0.34859
0.349386
0.350545
0.351499
0.352986
0.354064
0.356007
0.357228
0.359775
0.361076
0.364334
0.365563
0.36947
0.37024
0.374537
0.374497
0.37904
0.378628
0.383965
0.384066
0.385977
0.38386
0.36841
0.355842
0.326831
0.339145
0.352228
0.359725
0.35987
0.361822
0.358471
0.359118
0.355684
0.356375
0.353819
0.354385
0.352475
0.352632
0.35105
0.351052
0.34994
0.349724
0.348747
0.34829
0.347393
0.346784
0.345976
0.345406
0.344805
0.344339
0.343892
0.343475
0.3431
0.342665
0.342325
0.341853
0.341511
0.340963
0.340587
0.339972
0.339537
0.338885
0.338379
0.337746
0.33718
0.336735
0.336331
0.336208
0.336624
0.336887
0.338215
0.344142
0.346356
0.344351
0.342233
0.341294
0.341108
0.341069
0.341101
0.341137
0.341216
0.34131
0.341437
0.341585
0.341761
0.341962
0.34219
0.342446
0.342729
0.343045
0.343392
0.343776
0.344194
0.344657
0.345154
0.345721
0.346305
0.347016
0.347696
0.348594
0.349389
0.350548
0.351502
0.352988
0.354066
0.356008
0.357229
0.359776
0.361077
0.364333
0.365563
0.369468
0.370239
0.374531
0.374492
0.379026
0.378617
0.383942
0.384041
0.385934
0.383815
0.368289
0.355729
0.326552
0.3389
0.35211
0.359648
0.359842
0.361782
0.358454
0.359089
0.355673
0.356357
0.353809
0.354369
0.352464
0.352623
0.351042
0.351042
0.349933
0.349717
0.348744
0.348284
0.347391
0.34678
0.345974
0.345401
0.344802
0.344336
0.34389
0.343472
0.3431
0.342663
0.342324
0.341852
0.341511
0.340963
0.340586
0.339971
0.339536
0.338883
0.338377
0.337744
0.337178
0.336733
0.336328
0.336206
0.336623
0.336887
0.338234
0.344156
0.34636
0.344353
0.342235
0.341296
0.34111
0.341071
0.341103
0.341139
0.341218
0.341312
0.34144
0.341587
0.341763
0.341964
0.342192
0.342448
0.342732
0.343047
0.343394
0.343778
0.344195
0.344659
0.345156
0.345723
0.346307
0.347018
0.347697
0.348595
0.34939
0.350548
0.351502
0.352987
0.354066
0.356006
0.357227
0.359772
0.361074
0.364327
0.365557
0.369459
0.37023
0.374517
0.374478
0.379003
0.378595
0.383907
0.384001
0.385874
0.38375
0.368129
0.355578
0.326199
0.338586
0.35196
0.359548
0.359801
0.36173
0.358428
0.359053
0.355655
0.356332
0.353792
0.354345
0.352448
0.352608
0.35103
0.351027
0.349921
0.349706
0.348737
0.348274
0.347386
0.346773
0.345969
0.345394
0.344797
0.344331
0.343887
0.343469
0.343097
0.34266
0.342322
0.34185
0.34151
0.340962
0.340585
0.339969
0.339534
0.338881
0.338375
0.337741
0.337175
0.33673
0.336326
0.336203
0.336621
0.336886
0.338256
0.344171
0.346362
0.344353
0.342235
0.341296
0.341111
0.341072
0.341105
0.341141
0.34122
0.341314
0.341441
0.341589
0.341765
0.341966
0.342194
0.342449
0.342733
0.343049
0.343395
0.343779
0.344196
0.34466
0.345157
0.345723
0.346307
0.347018
0.347697
0.348595
0.34939
0.350546
0.3515
0.352984
0.354062
0.356001
0.357222
0.359765
0.361066
0.364316
0.365546
0.369443
0.370215
0.374495
0.374454
0.37897
0.378561
0.38386
0.383948
0.385799
0.383667
0.367932
0.355394
0.325779
0.338212
0.351783
0.359429
0.35975
0.361669
0.358394
0.35901
0.355632
0.356301
0.353769
0.354316
0.352427
0.352587
0.351012
0.351008
0.349906
0.34969
0.348726
0.348261
0.347378
0.346762
0.345962
0.345383
0.34479
0.344323
0.343882
0.343463
0.343093
0.342656
0.342319
0.341847
0.341508
0.340959
0.340583
0.339967
0.339531
0.338878
0.338372
0.337738
0.337171
0.336727
0.336322
0.336201
0.336619
0.336884
0.338282
0.344189
0.346363
0.344351
0.342233
0.341296
0.341112
0.341073
0.341106
0.341142
0.341221
0.341315
0.341443
0.34159
0.341766
0.341967
0.342195
0.34245
0.342734
0.343049
0.343396
0.343779
0.344196
0.344659
0.345156
0.345722
0.346306
0.347016
0.347695
0.348593
0.349387
0.350543
0.351495
0.352978
0.354055
0.355992
0.357213
0.359753
0.361053
0.3643
0.365529
0.369422
0.370192
0.374466
0.374423
0.378928
0.378518
0.383803
0.383882
0.385709
0.383569
0.367702
0.355183
0.325304
0.337788
0.351588
0.359295
0.35969
0.3616
0.358355
0.35896
0.355603
0.356264
0.353742
0.354282
0.352401
0.352562
0.350991
0.350984
0.349886
0.349671
0.348712
0.348245
0.347368
0.346749
0.345953
0.345371
0.34478
0.344314
0.343874
0.343455
0.343088
0.34265
0.342314
0.341843
0.341505
0.340956
0.340579
0.339963
0.339527
0.338875
0.338368
0.337735
0.337168
0.336723
0.336319
0.336197
0.336616
0.336882
0.338312
0.344208
0.346362
0.344346
0.342231
0.341295
0.341112
0.341074
0.341107
0.341143
0.341222
0.341316
0.341443
0.341591
0.341767
0.341967
0.342195
0.34245
0.342734
0.343049
0.343395
0.343778
0.344195
0.344658
0.345154
0.34572
0.346303
0.347013
0.347692
0.348589
0.349382
0.350537
0.351488
0.352969
0.354046
0.355981
0.3572
0.359737
0.361036
0.364279
0.365507
0.369395
0.370164
0.37443
0.374383
0.378879
0.378465
0.383736
0.383806
0.385608
0.383457
0.367446
0.354953
0.324785
0.337327
0.35138
0.359151
0.359626
0.361527
0.358313
0.358907
0.355571
0.356222
0.35371
0.354243
0.352371
0.352532
0.350965
0.350956
0.349863
0.349649
0.348695
0.348225
0.347354
0.346734
0.345941
0.345356
0.344768
0.344302
0.343866
0.343447
0.343081
0.342643
0.342308
0.341837
0.3415
0.340952
0.340575
0.339959
0.339523
0.338871
0.338364
0.337731
0.337163
0.336719
0.336315
0.336193
0.336613
0.33688
0.338346
0.34423
0.34636
0.34434
0.342227
0.341294
0.341112
0.341074
0.341107
0.341143
0.341223
0.341316
0.341444
0.341591
0.341767
0.341967
0.342195
0.34245
0.342733
0.343048
0.343394
0.343777
0.344193
0.344656
0.345152
0.345717
0.3463
0.347009
0.347687
0.348584
0.349376
0.350529
0.351479
0.352959
0.354034
0.355966
0.357184
0.359718
0.361016
0.364255
0.365481
0.369363
0.37013
0.374388
0.374337
0.378822
0.378404
0.38366
0.38372
0.385496
0.383335
0.367167
0.35471
0.324234
0.33684
0.35117
0.359003
0.359561
0.361451
0.358268
0.35885
0.355536
0.356177
0.353675
0.3542
0.352337
0.352499
0.350937
0.350925
0.349837
0.349623
0.348675
0.348203
0.347338
0.346716
0.345927
0.34534
0.344755
0.344289
0.343855
0.343436
0.343073
0.342634
0.342301
0.341831
0.341495
0.340947
0.340571
0.339955
0.339519
0.338866
0.338359
0.337726
0.337158
0.336714
0.33631
0.336189
0.336609
0.336877
0.338384
0.344253
0.346357
0.344331
0.342222
0.341292
0.341111
0.341074
0.341107
0.341143
0.341223
0.341316
0.341443
0.341591
0.341766
0.341967
0.342194
0.342449
0.342732
0.343046
0.343392
0.343774
0.344191
0.344652
0.345148
0.345713
0.346295
0.347003
0.347681
0.348577
0.349368
0.350519
0.351468
0.352946
0.35402
0.355949
0.357166
0.359696
0.360992
0.364226
0.365451
0.369327
0.370091
0.37434
0.374284
0.378759
0.378336
0.383578
0.383627
0.385377
0.383205
0.366873
0.354463
0.323663
0.336342
0.350965
0.358857
0.359499
0.361376
0.358223
0.358793
0.3555
0.356129
0.353637
0.354154
0.352301
0.352462
0.350905
0.350891
0.349809
0.349594
0.348652
0.348179
0.34732
0.346695
0.345911
0.345321
0.34474
0.344274
0.343843
0.343425
0.343063
0.342625
0.342293
0.341823
0.341489
0.340941
0.340566
0.339949
0.339513
0.338861
0.338354
0.337721
0.337153
0.336709
0.336305
0.336185
0.336605
0.336874
0.338425
0.344278
0.346352
0.34432
0.342215
0.341289
0.34111
0.341074
0.341107
0.341143
0.341222
0.341316
0.341443
0.34159
0.341765
0.341966
0.342193
0.342447
0.34273
0.343044
0.34339
0.343771
0.344187
0.344648
0.345144
0.345708
0.346289
0.346997
0.347674
0.348569
0.349359
0.350508
0.351456
0.352931
0.354004
0.35593
0.357145
0.359671
0.360965
0.364195
0.365417
0.369287
0.370048
0.374288
0.374227
0.378691
0.378263
0.383491
0.383527
0.385252
0.383071
0.366568
0.354219
0.323087
0.335847
0.350774
0.358717
0.359443
0.361303
0.358179
0.358735
0.355463
0.35608
0.353598
0.354106
0.352263
0.352423
0.350872
0.350855
0.349778
0.349564
0.348628
0.348153
0.3473
0.346674
0.345893
0.345301
0.344723
0.344258
0.34383
0.343412
0.343053
0.342614
0.342285
0.341815
0.341482
0.340935
0.34056
0.339944
0.339508
0.338856
0.338348
0.337716
0.337148
0.336704
0.3363
0.33618
0.336601
0.336871
0.33847
0.344305
0.346345
0.344308
0.342207
0.341285
0.341108
0.341073
0.341106
0.341142
0.341222
0.341315
0.341442
0.341589
0.341764
0.341964
0.342191
0.342445
0.342728
0.343041
0.343386
0.343768
0.344183
0.344644
0.345138
0.345702
0.346283
0.346989
0.347665
0.34856
0.349349
0.350496
0.351442
0.352915
0.353986
0.355909
0.357122
0.359644
0.360936
0.36416
0.36538
0.369243
0.370002
0.374232
0.374165
0.378619
0.378185
0.383399
0.383424
0.385124
0.382935
0.366259
0.353986
0.322519
0.335369
0.350605
0.35859
0.359397
0.361236
0.358139
0.35868
0.355427
0.356031
0.353557
0.354056
0.352224
0.352382
0.350836
0.350816
0.349745
0.349531
0.348602
0.348125
0.347278
0.34665
0.345874
0.34528
0.344706
0.34424
0.343816
0.343398
0.343042
0.342603
0.342275
0.341806
0.341475
0.340928
0.340553
0.339937
0.339502
0.33885
0.338342
0.33771
0.337142
0.336699
0.336294
0.336174
0.336596
0.336867
0.338519
0.344333
0.346337
0.344293
0.342198
0.341281
0.341106
0.341072
0.341105
0.341141
0.341221
0.341314
0.341441
0.341587
0.341763
0.341962
0.342189
0.342443
0.342725
0.343038
0.343383
0.343764
0.344179
0.344639
0.345133
0.345695
0.346275
0.346981
0.347656
0.34855
0.349337
0.350482
0.351427
0.352897
0.353966
0.355886
0.357098
0.359615
0.360905
0.364124
0.365341
0.369197
0.369952
0.374174
0.374099
0.378543
0.378103
0.383304
0.383318
0.384995
0.3828
0.365951
0.353771
0.32197
0.334921
0.350466
0.35848
0.359362
0.361176
0.358103
0.358627
0.355393
0.355982
0.353517
0.354006
0.352183
0.35234
0.3508
0.350777
0.349712
0.349497
0.348574
0.348096
0.347256
0.346626
0.345854
0.345257
0.344687
0.344222
0.343801
0.343384
0.34303
0.342591
0.342265
0.341797
0.341467
0.34092
0.340547
0.339931
0.339496
0.338844
0.338336
0.337705
0.337136
0.336693
0.336289
0.336169
0.336591
0.336864
0.338571
0.344364
0.346328
0.344277
0.342188
0.341276
0.341104
0.34107
0.341104
0.34114
0.341219
0.341313
0.341439
0.341586
0.341761
0.34196
0.342186
0.34244
0.342722
0.343035
0.343379
0.343759
0.344174
0.344633
0.345126
0.345688
0.346268
0.346972
0.347646
0.348539
0.349325
0.350468
0.35141
0.352878
0.353946
0.355862
0.357072
0.359585
0.360872
0.364086
0.3653
0.36915
0.369901
0.374113
0.374031
0.378466
0.37802
0.383208
0.383211
0.384867
0.382669
0.36565
0.353581
0.321453
0.334517
0.350362
0.358392
0.359343
0.361126
0.358073
0.358578
0.355361
0.355935
0.353477
0.353956
0.352143
0.352297
0.350762
0.350736
0.349677
0.349462
0.348545
0.348066
0.347232
0.3466
0.345833
0.345234
0.344667
0.344203
0.343785
0.343369
0.343017
0.342579
0.342254
0.341787
0.341459
0.340912
0.34054
0.339924
0.339489
0.338837
0.33833
0.337699
0.33713
0.336687
0.336283
0.336163
0.336585
0.33686
0.338627
0.344396
0.346317
0.344259
0.342177
0.34127
0.341101
0.341068
0.341103
0.341139
0.341218
0.341311
0.341437
0.341584
0.341758
0.341958
0.342184
0.342437
0.342718
0.343031
0.343375
0.343754
0.344168
0.344627
0.345119
0.345681
0.346259
0.346962
0.347636
0.348527
0.349312
0.350453
0.351393
0.352858
0.353924
0.355837
0.357044
0.359553
0.360838
0.364046
0.365257
0.369101
0.369848
0.374051
0.373962
0.378388
0.377935
0.383112
0.383105
0.384741
0.382544
0.36536
0.353421
0.320979
0.334167
0.350299
0.358328
0.35934
0.361086
0.358051
0.358534
0.355333
0.355889
0.353439
0.353907
0.352103
0.352255
0.350725
0.350695
0.349642
0.349427
0.348516
0.348036
0.347208
0.346574
0.345811
0.345211
0.344647
0.344183
0.343769
0.343353
0.343004
0.342566
0.342243
0.341777
0.34145
0.340904
0.340532
0.339917
0.339483
0.338831
0.338324
0.337693
0.337124
0.336681
0.336277
0.336157
0.33658
0.336855
0.338687
0.344431
0.346305
0.344239
0.342164
0.341264
0.341098
0.341066
0.341101
0.341137
0.341216
0.341309
0.341435
0.341582
0.341756
0.341955
0.342181
0.342434
0.342715
0.343027
0.34337
0.343749
0.344162
0.34462
0.345112
0.345673
0.34625
0.346952
0.347625
0.348515
0.349299
0.350437
0.351376
0.352838
0.353902
0.355811
0.357017
0.359521
0.360803
0.364006
0.365214
0.369051
0.369794
0.373988
0.373892
0.378309
0.37785
0.383017
0.383001
0.38462
0.382427
0.365086
0.353295
0.320556
0.333882
0.350282
0.358292
0.359355
0.361058
0.358035
0.358496
0.355308
0.355846
0.353402
0.353858
0.352063
0.352212
0.350688
0.350655
0.349608
0.349391
0.348487
0.348005
0.347183
0.346548
0.345789
0.345187
0.344627
0.344164
0.343753
0.343338
0.342991
0.342553
0.342232
0.341766
0.341441
0.340896
0.340525
0.33991
0.339476
0.338825
0.338318
0.337687
0.337118
0.336676
0.336271
0.336152
0.336574
0.336851
0.33875
0.344467
0.346292
0.344217
0.34215
0.341258
0.341095
0.341064
0.341099
0.341135
0.341214
0.341307
0.341433
0.341579
0.341753
0.341952
0.342178
0.34243
0.342711
0.343023
0.343365
0.343744
0.344156
0.344614
0.345105
0.345665
0.346241
0.346942
0.347614
0.348502
0.349285
0.350421
0.351358
0.352818
0.35388
0.355785
0.356988
0.359488
0.360768
0.363965
0.36517
0.369001
0.36974
0.373925
0.373822
0.378231
0.377766
0.382923
0.382899
0.384504
0.382319
0.364831
0.353207
0.320191
0.33367
0.350312
0.358286
0.359388
0.361042
0.358028
0.358463
0.355288
0.355806
0.353367
0.353812
0.352025
0.35217
0.350651
0.350615
0.349573
0.349356
0.348458
0.347975
0.347158
0.346521
0.345767
0.345163
0.344606
0.344144
0.343736
0.343322
0.342977
0.34254
0.34222
0.341756
0.341433
0.340888
0.340518
0.339903
0.339469
0.338818
0.338312
0.337681
0.337112
0.33667
0.336265
0.336146
0.336568
0.336847
0.338817
0.344505
0.346277
0.344193
0.342136
0.341251
0.341091
0.341062
0.341097
0.341133
0.341212
0.341305
0.341431
0.341577
0.341751
0.341949
0.342174
0.342427
0.342707
0.343018
0.34336
0.343739
0.34415
0.344607
0.345098
0.345656
0.346232
0.346932
0.347603
0.34849
0.349271
0.350405
0.35134
0.352797
0.353857
0.355758
0.35696
0.359455
0.360733
0.363925
0.365127
0.368951
0.369687
0.373863
0.373752
0.378154
0.377683
0.382833
0.382802
0.384394
0.382221
0.364598
0.353159
0.319889
0.333535
0.35039
0.358309
0.35944
0.361039
0.358029
0.358437
0.355272
0.35577
0.353336
0.353768
0.351989
0.35213
0.350616
0.350575
0.349539
0.349321
0.348429
0.347945
0.347134
0.346495
0.345745
0.345139
0.344585
0.344124
0.343719
0.343306
0.342964
0.342527
0.342209
0.341746
0.341424
0.34088
0.340511
0.339896
0.339463
0.338812
0.338305
0.337675
0.337106
0.336664
0.33626
0.33614
0.336563
0.336842
0.338887
0.344544
0.346261
0.344167
0.34212
0.341243
0.341087
0.341059
0.341095
0.341131
0.34121
0.341303
0.341428
0.341574
0.341748
0.341946
0.342171
0.342423
0.342703
0.343014
0.343355
0.343733
0.344144
0.3446
0.34509
0.345648
0.346223
0.346921
0.347591
0.348477
0.349257
0.350388
0.351322
0.352776
0.353835
0.355732
0.356932
0.359423
0.360698
0.363885
0.365084
0.368902
0.369634
0.373802
0.373684
0.37808
0.377603
0.382745
0.38271
0.384292
0.382135
0.364388
0.353152
0.319655
0.33348
0.350517
0.358363
0.35951
0.361048
0.358037
0.358417
0.35526
0.355737
0.353306
0.353725
0.351954
0.352091
0.350582
0.350537
0.349507
0.349287
0.348401
0.347916
0.34711
0.346469
0.345723
0.345116
0.344565
0.344104
0.343703
0.343291
0.342951
0.342514
0.342198
0.341735
0.341415
0.340872
0.340503
0.339889
0.339457
0.338806
0.3383
0.33767
0.3371
0.336659
0.336254
0.336135
0.336557
0.336838
0.338961
0.344585
0.346244
0.34414
0.342103
0.341235
0.341083
0.341057
0.341092
0.341129
0.341208
0.3413
0.341426
0.341571
0.341745
0.341943
0.342168
0.34242
0.342699
0.343009
0.34335
0.343727
0.344138
0.344593
0.345083
0.34564
0.346214
0.346911
0.34758
0.348464
0.349243
0.350372
0.351304
0.352756
0.353812
0.355706
0.356904
0.359391
0.360664
0.363845
0.365043
0.368854
0.369583
0.373743
0.373617
0.378007
0.377526
0.382662
0.382622
0.384198
0.38206
0.364205
0.353185
0.319487
0.333506
0.350689
0.358445
0.359597
0.361069
0.358053
0.358403
0.355253
0.355708
0.35328
0.353686
0.351921
0.352053
0.350549
0.3505
0.349475
0.349255
0.348373
0.347888
0.347086
0.346444
0.345701
0.345093
0.344545
0.344085
0.343686
0.343275
0.342938
0.342502
0.342187
0.341725
0.341407
0.340864
0.340497
0.339882
0.339451
0.3388
0.338294
0.337664
0.337094
0.336653
0.336249
0.33613
0.336552
0.336834
0.339038
0.344628
0.346225
0.344111
0.342085
0.341227
0.341079
0.341054
0.34109
0.341127
0.341205
0.341298
0.341423
0.341569
0.341742
0.34194
0.342164
0.342416
0.342695
0.343005
0.343345
0.343722
0.344132
0.344587
0.345075
0.345632
0.346205
0.346901
0.347569
0.348452
0.34923
0.350357
0.351287
0.352736
0.353791
0.355681
0.356877
0.35936
0.360631
0.363807
0.365002
0.368808
0.369534
0.373685
0.373553
0.377938
0.377452
0.382583
0.382541
0.384113
0.381997
0.364047
0.353258
0.319387
0.33361
0.350903
0.358554
0.359699
0.3611
0.358076
0.358395
0.35525
0.355682
0.353257
0.353649
0.351891
0.352018
0.350518
0.350465
0.349445
0.349223
0.348347
0.347861
0.347064
0.34642
0.345681
0.345071
0.344525
0.344066
0.343671
0.343261
0.342925
0.342489
0.342176
0.341715
0.341399
0.340856
0.34049
0.339876
0.339445
0.338795
0.338289
0.337659
0.337089
0.336649
0.336244
0.336125
0.336547
0.33683
0.339119
0.344673
0.346206
0.344081
0.342066
0.341218
0.341075
0.341051
0.341087
0.341124
0.341203
0.341295
0.341421
0.341566
0.341739
0.341937
0.342161
0.342412
0.342691
0.343
0.343341
0.343717
0.344126
0.34458
0.345068
0.345624
0.346196
0.346891
0.347558
0.34844
0.349217
0.350341
0.35127
0.352716
0.35377
0.355656
0.356851
0.35933
0.360599
0.363771
0.364963
0.368763
0.369486
0.37363
0.373492
0.377871
0.377382
0.382508
0.382466
0.384036
0.381945
0.363914
0.353367
0.31935
0.333788
0.351156
0.358687
0.359814
0.361141
0.358105
0.358392
0.355251
0.35566
0.353236
0.353614
0.351862
0.351984
0.350489
0.350432
0.349417
0.349193
0.348322
0.347835
0.347042
0.346397
0.345661
0.345049
0.344507
0.344048
0.343655
0.343246
0.342913
0.342478
0.342166
0.341706
0.341391
0.340849
0.340484
0.33987
0.33944
0.33879
0.338284
0.337655
0.337084
0.336644
0.336239
0.33612
0.336542
0.336826
0.339204
0.344719
0.346184
0.344048
0.342047
0.341209
0.34107
0.341048
0.341085
0.341122
0.3412
0.341293
0.341418
0.341563
0.341736
0.341934
0.342157
0.342408
0.342687
0.342996
0.343336
0.343711
0.34412
0.344574
0.345061
0.345616
0.346187
0.346881
0.347547
0.348428
0.349204
0.350327
0.351253
0.352697
0.353749
0.355633
0.356826
0.359301
0.360568
0.363735
0.364926
0.368721
0.369441
0.373578
0.373433
0.377808
0.377316
0.382438
0.382396
0.383967
0.381905
0.363807
0.35351
0.319373
0.334033
0.35144
0.358841
0.359941
0.361189
0.358138
0.358394
0.355256
0.355641
0.353218
0.353583
0.351836
0.351952
0.350462
0.350401
0.34939
0.349165
0.348298
0.347811
0.347021
0.346375
0.345642
0.345029
0.344489
0.344031
0.343641
0.343233
0.342901
0.342467
0.342156
0.341697
0.341383
0.340842
0.340478
0.339864
0.339435
0.338785
0.33828
0.33765
0.33708
0.33664
0.336235
0.336116
0.336538
0.336822
0.339291
0.344767
0.346162
0.344014
0.342026
0.341199
0.341065
0.341045
0.341082
0.341119
0.341198
0.34129
0.341415
0.34156
0.341733
0.34193
0.342154
0.342405
0.342683
0.342992
0.343331
0.343706
0.344115
0.344567
0.345054
0.345608
0.346179
0.346872
0.347537
0.348417
0.349192
0.350312
0.351237
0.352679
0.35373
0.35561
0.356802
0.359273
0.360539
0.363702
0.36489
0.36868
0.369399
0.373528
0.373378
0.377749
0.377254
0.382374
0.382333
0.383907
0.381876
0.363723
0.353683
0.31945
0.334337
0.351752
0.359012
0.360076
0.361245
0.358176
0.358399
0.355263
0.355624
0.353203
0.353553
0.351812
0.351923
0.350437
0.350371
0.349366
0.349138
0.348276
0.347788
0.347002
0.346354
0.345624
0.34501
0.344471
0.344014
0.343627
0.34322
0.34289
0.342456
0.342147
0.341689
0.341376
0.340836
0.340473
0.339859
0.33943
0.338781
0.338276
0.337647
0.337076
0.336636
0.336231
0.336112
0.336534
0.336819
0.339382
0.344817
0.346138
0.343978
0.342004
0.341189
0.34106
0.341042
0.341079
0.341117
0.341195
0.341288
0.341412
0.341557
0.34173
0.341927
0.342151
0.342401
0.342679
0.342987
0.343326
0.343701
0.344109
0.344562
0.345048
0.345601
0.346171
0.346863
0.347527
0.348406
0.34918
0.350299
0.351222
0.352662
0.353711
0.355589
0.356779
0.359247
0.360511
0.36367
0.364857
0.368643
0.369359
0.373482
0.373326
0.377693
0.377196
0.382314
0.382276
0.383854
0.381856
0.363661
0.353881
0.319574
0.334689
0.352083
0.359196
0.360217
0.361305
0.358216
0.358408
0.355273
0.355611
0.35319
0.353527
0.351791
0.351896
0.350414
0.350344
0.349343
0.349113
0.348255
0.347767
0.346983
0.346334
0.345606
0.344992
0.344455
0.343999
0.343614
0.343208
0.34288
0.342446
0.342138
0.341681
0.34137
0.34083
0.340468
0.339855
0.339426
0.338777
0.338272
0.337643
0.337072
0.336633
0.336227
0.336109
0.336531
0.336815
0.339477
0.344868
0.346113
0.343941
0.341981
0.341178
0.341055
0.341038
0.341077
0.341114
0.341193
0.341285
0.34141
0.341554
0.341727
0.341924
0.342147
0.342398
0.342675
0.342983
0.343322
0.343696
0.344104
0.344556
0.345041
0.345594
0.346164
0.346855
0.347518
0.348396
0.349169
0.350286
0.351208
0.352645
0.353693
0.355568
0.356757
0.359222
0.360485
0.36364
0.364825
0.368607
0.369322
0.373438
0.373277
0.377641
0.377143
0.382259
0.382225
0.38381
0.381845
0.36362
0.354101
0.319738
0.335081
0.352428
0.359389
0.360362
0.361369
0.358259
0.358419
0.355285
0.355599
0.35318
0.353502
0.351771
0.35187
0.350393
0.350319
0.349322
0.34909
0.348236
0.347747
0.346966
0.346316
0.345591
0.344975
0.34444
0.343984
0.343601
0.343197
0.34287
0.342437
0.34213
0.341673
0.341364
0.340825
0.340463
0.33985
0.339423
0.338773
0.338269
0.33764
0.337069
0.33663
0.336224
0.336106
0.336528
0.336812
0.339574
0.344921
0.346087
0.343902
0.341958
0.341167
0.34105
0.341035
0.341074
0.341111
0.34119
0.341282
0.341407
0.341552
0.341724
0.341921
0.342144
0.342394
0.342671
0.342979
0.343318
0.343692
0.344099
0.34455
0.345035
0.345588
0.346156
0.346847
0.347509
0.348386
0.349158
0.350274
0.351195
0.35263
0.353677
0.355549
0.356737
0.359198
0.360461
0.363613
0.364796
0.368574
0.369287
0.373398
0.373232
0.377593
0.377094
0.382209
0.38218
0.383772
0.381842
0.363596
0.354337
0.319935
0.335501
0.35278
0.359589
0.360508
0.361435
0.358302
0.358432
0.355298
0.35559
0.353171
0.35348
0.351753
0.351847
0.350374
0.350295
0.349302
0.349069
0.348218
0.347729
0.34695
0.346299
0.345576
0.344959
0.344425
0.34397
0.34359
0.343186
0.342861
0.342429
0.342123
0.341667
0.341358
0.34082
0.340459
0.339847
0.33942
0.338771
0.338266
0.337638
0.337067
0.336627
0.336222
0.336104
0.336525
0.33681
0.339675
0.344975
0.346059
0.343861
0.341933
0.341156
0.341045
0.341032
0.341071
0.341109
0.341187
0.34128
0.341404
0.341549
0.341721
0.341918
0.342141
0.342391
0.342668
0.342976
0.343314
0.343687
0.344094
0.344545
0.34503
0.345581
0.34615
0.346839
0.347501
0.348376
0.349148
0.350262
0.351182
0.352615
0.353661
0.355531
0.356718
0.359177
0.360438
0.363587
0.364769
0.368544
0.369255
0.37336
0.37319
0.377549
0.377048
0.382163
0.382139
0.383741
0.381846
0.363589
0.354586
0.320158
0.335939
0.353134
0.35979
0.360653
0.361501
0.358345
0.358446
0.355313
0.355583
0.353164
0.353459
0.351737
0.351825
0.350356
0.350274
0.349285
0.34905
0.348202
0.347713
0.346936
0.346284
0.345562
0.344945
0.344412
0.343958
0.343579
0.343176
0.342853
0.342421
0.342116
0.34166
0.341353
0.340815
0.340455
0.339843
0.339417
0.338768
0.338264
0.337636
0.337065
0.336626
0.33622
0.336102
0.336523
0.336807
0.339779
0.345031
0.34603
0.343819
0.341907
0.341144
0.341039
0.341028
0.341068
0.341106
0.341185
0.341277
0.341401
0.341546
0.341719
0.341915
0.342138
0.342388
0.342664
0.342972
0.34331
0.343683
0.344089
0.34454
0.345024
0.345576
0.346143
0.346832
0.347493
0.348368
0.349139
0.350252
0.35117
0.352601
0.353646
0.355514
0.3567
0.359156
0.360417
0.363563
0.364744
0.368515
0.369227
0.373326
0.373151
0.377508
0.377007
0.382122
0.382104
0.383716
0.381857
0.363596
0.354843
0.320399
0.336385
0.353484
0.35999
0.360795
0.361567
0.358387
0.358462
0.355328
0.355576
0.353158
0.353441
0.351723
0.351805
0.350341
0.350255
0.349269
0.349032
0.348187
0.347698
0.346922
0.346269
0.345549
0.344932
0.3444
0.343946
0.343569
0.343167
0.342845
0.342414
0.342109
0.341655
0.341348
0.340811
0.340452
0.33984
0.339415
0.338766
0.338262
0.337634
0.337063
0.336624
0.336218
0.336101
0.336522
0.336805
0.339887
0.345089
0.346
0.343775
0.341881
0.341132
0.341033
0.341025
0.341065
0.341103
0.341182
0.341274
0.341399
0.341543
0.341716
0.341913
0.342135
0.342385
0.342661
0.342968
0.343306
0.343679
0.344085
0.344535
0.345019
0.34557
0.346137
0.346825
0.347486
0.34836
0.34913
0.350241
0.351159
0.352589
0.353633
0.355498
0.356683
0.359137
0.360398
0.36354
0.364722
0.36849
0.3692
0.373295
0.373116
0.37747
0.37697
0.382085
0.382073
0.383697
0.381873
0.363615
0.355105
0.320652
0.336831
0.353826
0.360186
0.360934
0.361631
0.358428
0.358477
0.355344
0.355571
0.353154
0.353424
0.35171
0.351787
0.350327
0.350237
0.349255
0.349016
0.348174
0.347684
0.34691
0.346256
0.345538
0.34492
0.344388
0.343935
0.34356
0.343159
0.342838
0.342407
0.342104
0.34165
0.341344
0.340808
0.34045
0.339838
0.339413
0.338764
0.338261
0.337633
0.337062
0.336623
0.336217
0.3361
0.336521
0.336803
0.339997
0.345147
0.345968
0.343729
0.341853
0.341119
0.341027
0.341021
0.341062
0.341101
0.341179
0.341272
0.341396
0.341541
0.341713
0.34191
0.342132
0.342382
0.342658
0.342965
0.343302
0.343675
0.344081
0.344531
0.345015
0.345565
0.346131
0.346819
0.347479
0.348352
0.349122
0.350232
0.351148
0.352577
0.35362
0.355483
0.356668
0.35912
0.36038
0.36352
0.364701
0.368466
0.369176
0.373266
0.373083
0.377435
0.376935
0.382051
0.382046
0.383683
0.381893
0.363643
0.355369
0.320911
0.337268
0.354155
0.360375
0.361066
0.361693
0.358467
0.358493
0.35536
0.355567
0.353151
0.353408
0.351698
0.35177
0.350315
0.350221
0.349242
0.349001
0.348162
0.347672
0.346899
0.346244
0.345527
0.344909
0.344378
0.343925
0.343551
0.343152
0.342831
0.342402
0.342099
0.341645
0.341341
0.340805
0.340448
0.339836
0.339412
0.338763
0.338261
0.337633
0.337061
0.336623
0.336217
0.3361
0.336521
0.336802
0.340111
0.345208
0.345935
0.343682
0.341825
0.341106
0.341021
0.341018
0.341059
0.341098
0.341177
0.341269
0.341393
0.341538
0.34171
0.341907
0.342129
0.342379
0.342655
0.342962
0.343299
0.343671
0.344077
0.344527
0.34501
0.34556
0.346126
0.346813
0.347472
0.348345
0.349114
0.350223
0.351139
0.352565
0.353608
0.35547
0.356653
0.359104
0.360363
0.363501
0.364682
0.368445
0.369155
0.37324
0.373053
0.377404
0.376905
0.382021
0.382023
0.383673
0.381917
0.36368
0.35563
0.321172
0.33769
0.354469
0.360555
0.361191
0.361752
0.358504
0.358507
0.355376
0.355564
0.353148
0.353394
0.351688
0.351755
0.350304
0.350207
0.349231
0.348988
0.348151
0.347662
0.346889
0.346234
0.345517
0.344899
0.344368
0.343916
0.343543
0.343145
0.342825
0.342396
0.342094
0.341641
0.341338
0.340802
0.340446
0.339835
0.339411
0.338763
0.33826
0.337633
0.337061
0.336623
0.336217
0.336101
0.336521
0.336801
0.340227
0.345269
0.345901
0.343633
0.341796
0.341093
0.341015
0.341014
0.341056
0.341095
0.341174
0.341266
0.341391
0.341535
0.341708
0.341904
0.342127
0.342376
0.342652
0.342959
0.343296
0.343668
0.344073
0.344523
0.345006
0.345555
0.346121
0.346808
0.347466
0.348338
0.349107
0.350215
0.351129
0.352555
0.353597
0.355457
0.35664
0.359089
0.360348
0.363484
0.364664
0.368425
0.369135
0.373216
0.373026
0.377375
0.376877
0.381994
0.382004
0.383667
0.381944
0.363724
0.355888
0.321431
0.338091
0.354764
0.360726
0.361309
0.361807
0.358538
0.358522
0.355391
0.355561
0.353147
0.353381
0.351679
0.351741
0.350294
0.350195
0.349221
0.348976
0.348141
0.347652
0.34688
0.346224
0.345509
0.34489
0.344359
0.343908
0.343536
0.343139
0.34282
0.342392
0.34209
0.341638
0.341335
0.3408
0.340444
0.339834
0.339411
0.338762
0.33826
0.337633
0.337061
0.336623
0.336217
0.336101
0.336521
0.3368
0.340347
0.345332
0.345865
0.343583
0.341765
0.341079
0.341009
0.34101
0.341053