/*--------------------------------*- C++ -*----------------------------------*\
| =========                 |                                                 |
| \\      /  F ield         | OpenFOAM: The Open Source CFD Toolbox           |
|  \\    /   O peration     | Version:  2412                                  |
|   \\  /    A nd           | Website:  www.openfoam.com                      |
|    \\/     M anipulation  |                                                 |
\*---------------------------------------------------------------------------*/
FoamFile
{
    version     2.0;
    format      ascii;
    arch        "LSB;label=32;scalar=64";
    class       volScalarField;
    location    "0.1";
    object      p;
}
// * * * * * * * * * * * * * * * * * * * * * * * * * * * * * * * * * * * * * //

dimensions      [0 2 -2 0 0 0 0];

internalField   nonuniform List<scalar> 
13068
(
125294
125305
125281
125255
125192
125119
125019
124904
124766
124606
124426
124219
123991
123732
123449
123133
122787
122408
121990
121537
121042
120490
119943
119193
118765
117470
117633
115213
116349
112849
114208
110753
111434
107702
109402
102748
107727
96782.6
105226
90074.5
101738
81721.1
97546.4
70201.3
92529.3
53430.7
86060.4
28985
76989.4
-5416.29
64141.5
-50698.6
48564.4
-99196.8
34359.4
-78560.7
30740.7
-48256.7
34367.7
-21755.3
38892.3
-390.581
43180.6
16603.8
47071.5
29394.2
51092
38821.2
54621.9
46104.2
57248.3
52431
58960.7
57392.2
61400.3
60428.4
64133.4
63108.9
66020.8
65884.8
67504.3
68183.4
69053.7
70012.3
70565.2
71586.3
71999.8
73042.8
73322.3
74430.1
74610.4
75761.1
75836.7
77079.7
77034
78342.4
78186.2
79599.2
79236.7
125294
125306
125281
125255
125192
125119
125020
124904
124766
124606
124426
124219
123991
123732
123449
123133
122787
122408
121990
121537
121042
120490
119943
119193
118765
117470
117633
115213
116349
112849
114208
110753
111434
107702
109402
102748
107727
96782.5
105226
90074.3
101738
81721.3
97546.6
70201.5
92529.9
53430.9
86060.3
28985.1
76988
-5416.73
64139.9
-50699.7
48565
-99197.6
34358.4
-78562.3
30739.3
-48256.9
34366.9
-21754.6
38890.9
-390.399
43180.3
16603.2
47070.9
29394.1
51091.2
38820.7
54621.6
46103.6
57247.9
52430.6
58960.1
57391.8
61399.5
60427.9
64132.6
63108.1
66020.1
65883.9
67503.6
68182.4
69052.9
70011.5
70564.4
71585.5
71999.2
73042.1
73322.1
74429.4
74610.8
75760.3
75837.8
77078.6
77035.8
78340.8
78188.7
79596.9
79239.5
125294
125306
125281
125255
125192
125119
125020
124904
124766
124606
124426
124219
123991
123732
123449
123133
122787
122408
121990
121537
121042
120491
119943
119193
118765
117470
117633
115213
116349
112849
114208
110753
111434
107702
109402
102748
107727
96782.4
105226
90074.1
101739
81721.5
97546.8
70201.8
92530.5
53431.2
86060.4
28985.3
76986.6
-5417.06
64138.5
-50701
48565.6
-99199.5
34357
-78564.4
30737.6
-48257.2
34365.9
-21754
38889.5
-390.202
43179.9
16602.6
47070.5
29394.1
51090.4
38820.3
54621.3
46103
57247.6
52430.3
58959.6
57391.4
61398.8
60427.4
64131.9
63107.4
66019.4
65883
67502.9
68181.5
69052.1
70010.6
70563.6
71584.7
71998.6
73041.4
73321.9
74428.7
74611.2
75759.5
75838.8
77077.6
77037.6
78339.2
78191
79594.6
79242.2
125294
125306
125282
125256
125192
125119
125020
124904
124767
124606
124426
124219
123991
123732
123449
123133
122788
122408
121990
121537
121042
120491
119944
119193
118765
117470
117633
115213
116349
112849
114208
110753
111434
107702
109402
102748
107726
96782.5
105226
90074.1
101739
81721.9
97547
70202.2
92531.2
53431.7
86060.6
28985.6
76985.4
-5417.26
64137.1
-50702.4
48566.2
-99202.5
34355.1
-78567
30735.6
-48257.7
34364.9
-21753.4
38888
-389.99
43179.6
16602.1
47070
29394.1
51089.7
38820
54621
46102.5
57247.2
52430
58959
57391
61398.1
60426.9
64131.2
63106.7
66018.8
65882.2
67502.2
68180.6
69051.3
70009.7
70562.8
71583.9
71998
73040.7
73321.7
74428.1
74611.5
75758.8
75839.9
77076.5
77039.3
78337.6
78193.4
79592.3
79244.8
125295
125306
125282
125256
125192
125119
125020
124904
124767
124607
124427
124219
123991
123732
123449
123133
122788
122408
121990
121537
121042
120491
119944
119194
118765
117470
117633
115214
116349
112849
114208
110754
111434
107702
109401
102748
107726
96782.5
105226
90074.1
101739
81722.3
97547.3
70202.8
92532.1
53432.4
86060.9
28986.1
76984.3
-5417.35
64135.9
-50704
48566.8
-99206.5
34352.9
-78570
30733.3
-48258.1
34363.7
-21752.7
38886.6
-389.766
43179.3
16601.6
47069.5
29394.2
51088.9
38819.8
54620.7
46102.1
57246.8
52429.7
58958.5
57390.7
61397.4
60426.4
64130.4
63106
66018.1
65881.3
67501.5
68179.7
69050.6
70008.9
70562.1
71583.1
71997.5
73040
73321.5
74427.4
74611.9
75758
75840.9
77075.4
77041
78336
78195.7
79589.9
79247.5
125295
125306
125282
125256
125193
125120
125020
124904
124767
124607
124427
124219
123991
123732
123450
123133
122788
122408
121990
121537
121042
120491
119944
119194
118765
117470
117633
115214
116349
112850
114207
110754
111434
107702
109401
102748
107726
96782.7
105227
90074.2
101739
81722.8
97547.6
70203.4
92533
53433.2
86061.3
28986.7
76983.4
-5417.35
64134.7
-50705.8
48567.3
-99211.6
34350.2
-78573.4
30730.7
-48258.7
34362.5
-21752.1
38885.1
-389.531
43178.9
16601.2
47069.1
29394.3
51088.2
38819.6
54620.4
46101.8
57246.4
52429.4
58958
57390.3
61396.6
60426
64129.6
63105.4
66017.4
65880.5
67500.8
68178.8
69049.8
70008
70561.3
71582.3
71996.9
73039.3
73321.3
74426.7
74612.3
75757.2
75841.9
77074.4
77042.7
78334.3
78198.1
79587.6
79250.2
125295
125307
125282
125256
125193
125120
125021
124905
124767
124607
124427
124220
123992
123732
123450
123134
122788
122409
121991
121538
121043
120491
119944
119194
118765
117470
117633
115214
116349
112850
114207
110754
111434
107702
109401
102748
107726
96782.9
105227
90074.4
101739
81723.4
97548
70204.2
92534
53434.1
86061.8
28987.5
76982.5
-5417.26
64133.6
-50707.7
48567.7
-99217.7
34347.2
-78577.1
30727.9
-48259.2
34361.1
-21751.5
38883.6
-389.281
43178.6
16600.7
47068.7
29394.5
51087.4
38819.5
54620
46101.5
57246
52429.2
58957.6
57390
61395.9
60425.6
64128.9
63104.7
66016.7
65879.7
67500.1
68177.9
69049
70007.2
70560.5
71581.5
71996.3
73038.6
73321.1
74426
74612.6
75756.4
75842.9
77073.3
77044.4
78332.7
78200.4
79585.3
79252.8
125296
125307
125283
125257
125193
125120
125021
124905
124767
124607
124427
124220
123992
123733
123450
123134
122788
122409
121991
121538
121043
120491
119944
119194
118766
117470
117633
115214
116349
112850
114207
110754
111434
107702
109401
102749
107726
96783.2
105227
90074.7
101739
81724.1
97548.5
70205.2
92535.1
53435.2
86062.5
28988.4
76981.7
-5417.09
64132.5
-50709.9
48568.1
-99224.9
34343.7
-78581.2
30724.8
-48259.8
34359.7
-21750.9
38882.2
-389.016
43178.3
16600.4
47068.3
29394.8
51086.7
38819.5
54619.7
46101.3
57245.6
52429
58957.1
57389.7
61395.2
60425.3
64128.1
63104.1
66016
65879
67499.5
68177
69048.3
70006.3
70559.8
71580.7
71995.7
73037.9
73320.9
74425.3
74613
75755.6
75843.9
77072.2
77046.1
78331.1
78202.8
79583
79255.5
125296
125307
125283
125257
125194
125120
125021
124905
124768
124608
124428
124220
123992
123733
123450
123134
122789
122409
121991
121538
121043
120492
119944
119194
118766
117471
117633
115214
116349
112850
114207
110754
111434
107702
109401
102749
107725
96783.5
105227
90075
101740
81724.9
97549
70206.2
92536.3
53436.4
86063.3
28989.4
76981
-5416.84
64131.5
-50712.3
48568.3
-99233
34340
-78585.7
30721.5
-48260.4
34358.2
-21750.3
38880.7
-388.731
43178
16600
47067.8
29395.1
51085.9
38819.6
54619.3
46101.1
57245.2
52428.9
58956.7
57389.4
61394.5
60424.9
64127.3
63103.6
66015.3
65878.2
67498.8
68176.1
69047.5
70005.5
70559
71579.9
71995.1
73037.2
73320.6
74424.6
74613.3
75754.8
75844.9
77071.1
77047.8
78329.5
78205.1
79580.7
79258.2
125296
125308
125283
125257
125194
125121
125021
124905
124768
124608
124428
124220
123992
123733
123451
123134
122789
122409
121991
121538
121043
120492
119945
119195
118766
117471
117633
115215
116349
112851
114207
110755
111434
107702
109401
102749
107725
96783.9
105227
90075.4
101740
81725.8
97549.5
70207.4
92537.6
53437.8
86064.1
28990.6
76980.4
-5416.53
64130.4
-50714.9
48568.3
-99242.2
34335.9
-78590.4
30718.1
-48261.1
34356.6
-21749.6
38879.2
-388.427
43177.8
16599.7
47067.5
29395.4
51085.2
38819.7
54618.9
46101
57244.8
52428.8
58956.2
57389.2
61393.8
60424.6
64126.5
63103
66014.6
65877.5
67498.1
68175.3
69046.8
70004.7
70558.2
71579.1
71994.5
73036.4
73320.4
74423.9
74613.6
75754
75845.9
77070
77049.5
78327.8
78207.4
79578.4
79260.8
125297
125308
125284
125258
125194
125121
125022
124906
124768
124608
124428
124221
123993
123734
123451
123135
122789
122410
121992
121539
121044
120492
119945
119195
118766
117471
117634
115215
116350
112851
114207
110755
111434
107702
109401
102750
107725
96784.4
105227
90075.9
101740
81726.7
97550.1
70208.7
92539
53439.3
86065.1
28991.9
76979.9
-5416.16
64129.4
-50717.9
48568.2
-99252.4
34331.5
-78595.5
30714.4
-48261.7
34355
-21749
38877.7
-388.098
43177.5
16599.4
47067.1
29395.8
51084.4
38819.9
54618.6
46101
57244.4
52428.7
58955.8
57388.9
61393.1
60424.4
64125.6
63102.5
66013.9
65876.7
67497.5
68174.4
69046
70003.8
70557.5
71578.3
71993.9
73035.7
73320.2
74423.2
74613.9
75753.2
75846.8
77068.9
77051.2
78326.2
78209.7
79576.1
79263.4
125297
125309
125284
125258
125195
125121
125022
124906
124769
124609
124429
124221
123993
123734
123451
123135
122789
122410
121992
121539
121044
120492
119945
119195
118766
117471
117634
115215
116350
112852
114207
110755
111435
107703
109401
102750
107725
96784.9
105227
90076.4
101740
81727.7
97550.8
70210.1
92540.5
53441
86066.3
28993.3
76979.5
-5415.74
64128.4
-50721.1
48567.8
-99263.6
34326.9
-78600.7
30710.5
-48262.3
34353.3
-21748.2
38876.2
-387.744
43177.3
16599.2
47066.7
29396.3
51083.7
38820.1
54618.2
46101.1
57244
52428.6
58955.4
57388.6
61392.4
60424.1
64124.8
63102.1
66013.2
65876
67496.8
68173.6
69045.3
70003
70556.7
71577.5
71993.3
73035
73319.9
74422.4
74614.2
75752.3
75847.8
77067.8
77052.8
78324.5
78212
79573.8
79266.1
125298
125309
125285
125258
125195
125122
125023
124907
124769
124609
124429
124221
123993
123734
123452
123136
122790
122410
121992
121539
121044
120493
119945
119196
118767
117472
117634
115215
116350
112852
114207
110756
111435
107703
109401
102750
107725
96785.5
105227
90077
101741
81728.8
97551.5
70211.7
92542
53442.8
86067.5
28994.8
76979.1
-5415.29
64127.3
-50724.7
48567.2
-99275.8
34322
-78606.3
30706.6
-48262.9
34351.6
-21747.5
38874.7
-387.362
43177.1
16599
47066.4
29396.8
51083
38820.4
54617.8
46101.2
57243.5
52428.5
58955.1
57388.4
61391.7
60423.9
64123.9
63101.6
66012.5
65875.3
67496.1
68172.7
69044.5
70002.2
70555.9
71576.7
71992.7
73034.2
73319.6
74421.7
74614.5
75751.5
75848.7
77066.7
77054.5
78322.9
78214.3
79571.5
79268.7
125299
125310
125285
125259
125196
125122
125023
124907
124770
124609
124429
124222
123994
123735
123452
123136
122790
122411
121993
121540
121045
120493
119946
119196
118767
117472
117634
115216
116350
112853
114207
110756
111435
107703
109402
102751
107724
96786.2
105227
90077.7
101741
81730
97552.3
70213.3
92543.7
53444.7
86068.8
28996.4
76978.9
-5414.81
64126.3
-50728.6
48566.3
-99288.9
34316.8
-78612
30702.4
-48263.4
34349.8
-21746.7
38873.2
-386.95
43176.9
16598.8
47066.1
29397.4
51082.3
38820.8
54617.3
46101.3
57243.1
52428.5
58954.7
57388.2
61391
60423.7
64123
63101.2
66011.8
65874.7
67495.5
68171.9
69043.8
70001.3
70555.2
71575.9
71992.1
73033.4
73319.4
74420.9
74614.8
75750.6
75849.7
77065.6
77056.1
78321.3
78216.6
79569.2
79271.4
125299
125311
125286
125259
125196
125123
125024
124907
124770
124610
124430
124222
123994
123735
123453
123136
122791
122411
121993
121540
121045
120494
119946
119196
118767
117472
117635
115216
116350
112853
114207
110757
111435
107703
109402
102751
107724
96787
105227
90078.5
101741
81731.2
97553.1
70215.1
92545.4
53446.7
86070.2
28998.1
76978.6
-5414.31
64125.2
-50732.8
48565.1
-99303.1
34311.5
-78618
30698.2
-48264
34348
-21745.9
38871.8
-386.507
43176.7
16598.7
47065.8
29398.1
51081.5
38821.3
54616.9
46101.6
57242.7
52428.6
58954.3
57388
61390.3
60423.5
64122.2
63100.8
66011.1
65874
67494.8
68171.1
69043
70000.5
70554.4
71575.1
71991.5
73032.7
73319.1
74420.1
74615
75749.8
75850.6
77064.5
77057.8
78319.6
78218.9
79566.9
79274
125300
125311
125286
125260
125197
125123
125024
124908
124771
124610
124430
124223
123995
123736
123453
123137
122791
122412
121994
121541
121045
120494
119946
119197
118768
117473
117635
115217
116350
112854
114207
110757
111435
107703
109402
102752
107724
96787.8
105227
90079.4
101742
81732.6
97553.9
70217
92547.2
53448.9
86071.7
29000
76978.5
-5413.79
64124
-50737.5
48563.6
-99318.2
34306
-78624.1
30693.8
-48264.5
34346.2
-21745
38870.3
-386.032
43176.6
16598.7
47065.5
29398.8
51080.8
38821.9
54616.5
46101.9
57242.3
52428.6
58954
57387.8
61389.6
60423.3
64121.3
63100.4
66010.3
65873.3
67494.2
68170.3
69042.3
69999.7
70553.6
71574.3
71990.9
73031.9
73318.8
74419.4
74615.3
75748.9
75851.5
77063.4
77059.4
78318
78221.2
79564.6
79276.6
125301
125312
125287
125261
125197
125124
125025
124908
124771
124611
124431
124223
123995
123736
123454
123137
122792
122412
121994
121541
121046
120494
119947
119197
118768
117473
117635
115217
116350
112854
114207
110758
111435
107704
109402
102752
107724
96788.6
105227
90080.3
101742
81734
97554.8
70219
92549.1
53451.2
86073.3
29001.9
76978.4
-5413.26
64122.8
-50742.6
48561.7
-99334.3
34300.3
-78630.4
30689.3
-48264.9
34344.3
-21744.1
38868.9
-385.524
43176.4
16598.6
47065.2
29399.6
51080.2
38822.5
54616.1
46102.3
57241.8
52428.7
58953.7
57387.6
61388.8
60423.2
64120.3
63100.1
66009.6
65872.7
67493.5
68169.5
69041.6
69998.8
70552.9
71573.4
71990.2
73031.1
73318.5
74418.6
74615.5
75748
75852.4
77062.2
77061
78316.3
78223.5
79562.3
79279.2
125301
125313
125288
125261
125198
125124
125025
124909
124772
124611
124431
124224
123996
123737
123454
123138
122792
122413
121994
121542
121046
120495
119947
119198
118768
117474
117635
115218
116350
112855
114207
110758
111436
107704
109402
102753
107724
96789.6
105227
90081.2
101742
81735.4
97555.8
70221.1
92551.1
53453.6
86075
29004
76978.3
-5412.74
64121.5
-50748
48559.5
-99351.4
34294.5
-78636.9
30684.7
-48265.3
34342.4
-21743.2
38867.5
-384.983
43176.4
16598.7
47065
29400.4
51079.5
38823.2
54615.6
46102.7
57241.4
52428.8
58953.4
57387.4
61388.1
60423.1
64119.4
63099.8
66008.9
65872.1
67492.9
68168.7
69040.9
69998
70552.1
71572.6
71989.6
73030.3
73318.2
74417.8
74615.7
75747.1
75853.2
77061.1
77062.6
78314.7
78225.8
79560
79281.9
125302
125313
125288
125262
125198
125125
125026
124910
124772
124612
124432
124224
123996
123737
123455
123138
122793
122413
121995
121542
121047
120495
119948
119198
118769
117474
117636
115218
116350
112856
114207
110759
111436
107704
109403
102754
107723
96790.6
105226
90082.3
101743
81737
97556.7
70223.3
92553.2
53456.2
86076.8
29006.1
76978.3
-5412.21
64120.2
-50753.9
48556.9
-99369.4
34288.4
-78643.6
30680
-48265.7
34340.5
-21742.2
38866.1
-384.409
43176.3
16598.7
47064.8
29401.3
51078.8
38823.9
54615.2
46103.2
57241
52429
58953.1
57387.3
61387.4
60423.1
64118.5
63099.5
66008.1
65871.5
67492.2
68167.9
69040.1
69997.2
70551.3
71571.8
71989
73029.5
73317.9
74417
74616
75746.2
75854.1
77059.9
77064.2
78313
78228
79557.7
79284.5
125303
125314
125289
125263
125199
125126
125026
124910
124773
124613
124433
124225
123997
123738
123455
123139
122793
122414
121996
121543
121047
120496
119948
119199
118769
117475
117636
115219
116350
112857
114207
110759
111436
107704
109403
102754
107723
96791.6
105226
90083.4
101743
81738.6
97557.8
70225.6
92555.3
53458.8
86078.7
29008.3
76978.3
-5411.68
64118.8
-50760.3
48554
-99388.4
34282.3
-78650.5
30675.2
-48266
34338.5
-21741.2
38864.7
-383.802
43176.3
16598.8
47064.6
29402.3
51078.1
38824.8
54614.7
46103.8
57240.5
52429.1
58952.8
57387.1
61386.7
60423
64117.5
63099.2
66007.4
65870.9
67491.6
68167.1
69039.4
69996.4
70550.5
71570.9
71988.3
73028.7
73317.6
74416.2
74616.2
75745.3
75855
77058.8
77065.8
78311.4
78230.3
79555.4
79287.1
125304
125315
125290
125263
125200
125126
125027
124911
124773
124613
124433
124226
123998
123738
123456
123140
122794
122414
121996
121543
121048
120496
119949
119199
118770
117475
117636
115220
116351
112857
114207
110760
111436
107705
109403
102755
107723
96792.7
105226
90084.6
101744
81740.3
97558.8
70228
92557.5
53461.6
86080.7
29010.6
76978.4
-5411.15
64117.3
-50767
48550.7
-99408.4
34275.9
-78657.5
30670.3
-48266.3
34336.5
-21740.1
38863.3
-383.163
43176.2
16599
47064.4
29403.3
51077.5
38825.7
54614.2
46104.4
57240.1
52429.3
58952.6
57387
61386.1
60423
64116.6
63099
66006.6
65870.4
67491
68166.3
69038.7
69995.6
70549.8
71570.1
71987.7
73027.9
73317.3
74415.3
74616.3
75744.4
75855.8
77057.6
77067.4
78309.7
78232.6
79553.1
79289.7
125305
125316
125290
125264
125200
125127
125028
124912
124774
124614
124434
124226
123998
123739
123456
123140
122794
122415
121997
121544
121049
120497
119949
119200
118770
117476
117637
115220
116351
112858
114207
110761
111437
107705
109403
102756
107723
96793.9
105226
90085.9
101744
81742.1
97560
70230.6
92559.8
53464.5
86082.7
29013
76978.5
-5410.63
64115.8
-50774.2
48547.1
-99429.3
34269.4
-78664.8
30665.2
-48266.5
34334.5
-21739
38861.9
-382.493
43176.3
16599.2
47064.3
29404.4
51076.8
38826.7
54613.8
46105.1
57239.7
52429.6
58952.3
57386.9
61385.4
60423
64115.6
63098.8
66005.8
65869.8
67490.3
68165.5
69038
69994.7
70549
71569.2
71987.1
73027
73317
74414.5
74616.5
75743.5
75856.6
77056.5
77068.9
78308
78234.8
79550.8
79292.3
125306
125317
125291
125265
125201
125128
125028
124912
124775
124614
124435
124227
123999
123740
123457
123141
122795
122416
121997
121544
121049
120498
119950
119200
118771
117476
117637
115221
116351
112859
114207
110762
111437
107705
109404
102756
107723
96795.2
105226
90087.2
101744
81744
97561.1
70233.2
92562.2
53467.5
86084.9
29015.5
76978.7
-5410.11
64114.2
-50781.8
48543.1
-99451.2
34262.7
-78672.2
30660
-48266.7
34332.4
-21737.9
38860.6
-381.792
43176.3
16599.4
47064.2
29405.5
51076.2
38827.7
54613.3
46105.9
57239.2
52429.8
58952.1
57386.8
61384.7
60423.1
64114.6
63098.6
66005.1
65869.3
67489.7
68164.8
69037.2
69993.9
70548.2
71568.4
71986.4
73026.2
73316.6
74413.6
74616.7
75742.5
75857.5
77055.3
77070.5
78306.4
78237.1
79548.5
79294.9
125307
125318
125292
125266
125202
125128
125029
124913
124776
124615
124435
124228
124000
123740
123458
123142
122796
122416
121998
121545
121050
120498
119951
119201
118771
117477
117638
115222
116351
112860
114207
110762
111437
107706
109404
102757
107722
96796.5
105226
90088.6
101745
81745.9
97562.3
70236
92564.6
53470.7
86087.1
29018.1
76978.9
-5409.6
64112.5
-50789.8
48538.8
-99474.1
34255.8
-78679.9
30654.7
-48266.9
34330.3
-21736.7
38859.2
-381.062
43176.3
16599.7
47064.1
29406.7
51075.5
38828.8
54612.8
46106.7
57238.8
52430.1
58951.9
57386.7
61384
60423.1
64113.6
63098.5
66004.3
65868.7
67489.1
68164
69036.5
69993.1
70547.5
71567.5
71985.7
73025.4
73316.3
74412.8
74616.9
75741.6
75858.3
77054.1
77072
78304.7
78239.3
79546.2
79297.5
125308
125318
125293
125266
125203
125129
125030
124914
124776
124616
124436
124228
124000
123741
123459
123142
122797
122417
121999
121546
121050
120499
119951
119202
118772
117478
117638
115223
116351
112861
114207
110763
111438
107706
109405
102758
107722
96797.9
105225
90090.1
101745
81747.9
97563.5
70238.8
92567.1
53473.9
86089.5
29020.8
76979.2
-5409.08
64110.8
-50798.2
48534.2
-99497.9
34248.7
-78687.9
30649.2
-48267.1
34328.1
-21735.5
38857.9
-380.302
43176.4
16600.1
47064
29408
51074.9
38830
54612.3
46107.6
57238.4
52430.5
58951.7
57386.7
61383.3
60423.2
64112.6
63098.4
66003.5
65868.2
67488.5
68163.3
69035.8
69992.3
70546.7
71566.7
71985.1
73024.5
73315.9
74411.9
74617
75740.6
75859.1
77052.9
77073.6
78303.1
78241.5
79543.9
79300.1
125309
125319
125294
125267
125203
125130
125031
124914
124777
124617
124437
124229
124001
123742
123459
123143
122797
122418
122000
121546
121051
120500
119952
119202
118772
117478
117639
115223
116351
112862
114207
110764
111438
107706
109405
102759
107722
96799.3
105225
90091.6
101746
81750
97564.8
70241.8
92569.7
53477.3
86091.9
29023.6
76979.5
-5408.57
64109
-50807.1
48529.4
-99522.7
34241.3
-78696.1
30643.5
-48267.3
34325.9
-21734.3
38856.5
-379.517
43176.5
16600.4
47063.9
29409.3
51074.3
38831.3
54611.9
46108.6
57237.9
52430.8
58951.5
57386.6
61382.6
60423.4
64111.6
63098.3
66002.7
65867.8
67487.8
68162.5
69035.1
69991.5
70545.9
71565.8
71984.4
73023.6
73315.5
74411.1
74617.1
75739.7
75859.8
77051.8
77075.1
78301.4
78243.8
79541.6
79302.7
125310
125320
125295
125268
125204
125131
125031
124915
124778
124617
124438
124230
124002
123743
123460
123144
122798
122418
122000
121547
121052
120500
119953
119203
118773
117479
117639
115224
116352
112863
114207
110765
111438
107707
109405
102760
107722
96800.8
105225
90093.2
101746
81752.1
97566.1
70244.9
92572.4
53480.8
86094.4
29026.4
76979.9
-5408.05
64107.2
-50816.3
48524.2
-99548.5
34233.7
-78704.6
30637.6
-48267.5
34323.6
-21733
38855.2
-378.704
43176.7
16600.9
47063.9
29410.7
51073.7
38832.7
54611.4
46109.7
57237.5
52431.2
58951.4
57386.5
61381.9
60423.5
64110.5
63098.2
66001.9
65867.3
67487.2
68161.8
69034.4
69990.7
70545.1
71564.9
71983.7
73022.8
73315.2
74410.2
74617.2
75738.7
75860.6
77050.6
77076.6
78299.7
78246
79539.3
79305.3
125311
125322
125296
125269
125205
125132
125032
124916
124779
124618
124438
124231
124003
123744
123461
123145
122799
122419
122001
121548
121053
120501
119953
119204
118774
117480
117640
115225
116352
112864
114207
110766
111439
107707
109406
102761
107721
96802.4
105225
90094.9
101747
81754.3
97567.5
70248.1
92575.1
53484.4
86097
29029.4
76980.3
-5407.53
64105.4
-50825.9
48518.8
-99575.3
34225.8
-78713.3
30631.6
-48267.7
34321.3
-21731.8
38853.8
-377.866
43176.8
16601.3
47063.9
29412.1
51073.1
38834.1
54610.9
46110.8
57237.1
52431.6
58951.2
57386.5
61381.2
60423.7
64109.5
63098.2
66001.1
65866.8
67486.6
68161.1
69033.7
69989.9
70544.4
71564.1
71983.1
73021.9
73314.8
74409.3
74617.4
75737.7
75861.3
77049.4
77078.1
78298.1
78248.2
79537
79307.9
125312
125323
125297
125270
125206
125133
125033
124917
124780
124619
124439
124232
124004
123744
123462
123145
122800
122420
122002
121549
121053
120502
119954
119204
118774
117481
117640
115226
116352
112866
114207
110767
111439
107708
109406
102761
107721
96804
105224
90096.7
101747
81756.6
97568.9
70251.4
92577.9
53488.2
86099.7
29032.4
76980.8
-5407
64103.5
-50836
48513.2
-99603
34217.7
-78722.4
30625.3
-48267.9
34318.9
-21730.5
38852.5
-377.003
43177
16601.8
47063.9
29413.6
51072.5
38835.6
54610.3
46111.9
57236.6
52432.1
58951.1
57386.5
61380.6
60423.9
64108.4
63098.2
66000.3
65866.4
67486
68160.4
69033
69989
70543.6
71563.2
71982.4
73021
73314.4
74408.4
74617.4
75736.8
75862.1
77048.2
77079.6
78296.4
78250.4
79534.7
79310.5
125313
125324
125298
125271
125207
125133
125034
124918
124780
124620
124440
124232
124004
123745
123463
123146
122801
122421
122003
121550
121054
120503
119955
119205
118775
117481
117641
115227
116352
112867
114207
110768
111440
107708
109407
102762
107721
96805.7
105224
90098.5
101748
81759
97570.3
70254.8
92580.8
53492
86102.5
29035.5
76981.3
-5406.47
64101.6
-50846.3
48507.3
-99631.7
34209.2
-78731.8
30618.8
-48268.1
34316.4
-21729.2
38851.2
-376.117
43177.2
16602.4
47063.9
29415.2
51072
38837.1
54609.8
46113.2
57236.2
52432.6
58951
57386.5
61379.9
60424.1
64107.3
63098.2
65999.5
65866
67485.4
68159.7
69032.3
69988.2
70542.8
71562.3
71981.7
73020.1
73314
74407.5
74617.5
75735.8
75862.8
77047
77081
78294.7
78252.6
79532.5
79313.1
125314
125325
125299
125272
125208
125134
125035
124919
124781
124621
124441
124233
124005
123746
123463
123147
122801
122422
122004
121550
121055
120503
119955
119206
118776
117482
117641
115228
116352
112868
114207
110769
111440
107709
109408
102763
107721
96807.4
105224
90100.4
101748
81761.4
97571.8
70258.3
92583.8
53496
86105.3
29038.8
76981.9
-5405.92
64099.6
-50857.1
48501.2
-99661.4
34200.4
-78741.6
30612.1
-48268.4
34313.9
-21727.8
38849.8
-375.206
43177.4
16603
47064
29416.8
51071.4
38838.8
54609.3
46114.5
57235.7
52433.1
58950.9
57386.5
61379.2
60424.3
64106.2
63098.3
65998.7
65865.6
67484.8
68159
69031.6
69987.4
70542.1
71561.4
71981
73019.2
73313.6
74406.5
74617.6
75734.8
75863.5
77045.8
77082.5
78293
78254.8
79530.2
79315.7
125316
125326
125300
125273
125209
125135
125036
124920
124782
124622
124442
124234
124006
123747
123464
123148
122802
122423
122004
121551
121056
120504
119956
119207
118776
117483
117642
115229
116353
112869
114207
110770
111441
107709
109408
102764
107721
96809.2
105223
90102.3
101749
81763.9
97573.3
70261.9
92586.8
53500.1
86108.3
29042.1
76982.5
-5405.35
64097.6
-50868.2
48494.9
-99692.1
34191.2
-78751.7
30605.2
-48268.7
34311.2
-21726.5
38848.5
-374.274
43177.6
16603.6
47064
29418.5
51070.9
38840.5
54608.8
46115.9
57235.3
52433.6
58950.8
57386.5
61378.5
60424.6
64105.1
63098.3
65997.9
65865.2
67484.2
68158.3
69030.9
69986.6
70541.3
71560.5
71980.3
73018.3
73313.1
74405.6
74617.7
75733.8
75864.2
77044.6
77084
78291.4
78257
79527.9
79318.3
125317
125327
125301
125274
125210
125136
125037
124921
124783
124623
124443
124235
124007
123748
123465
123149
122803
122424
122005
121552
121057
120505
119957
119208
118777
117484
117642
115230
116353
112871
114207
110771
111441
107710
109409
102765
107720
96811.1
105223
90104.3
101749
81766.5
97574.9
70265.6
92590
53504.3
86111.4
29045.5
76983.2
-5404.77
64095.6
-50879.6
48488.3
-99723.8
34181.8
-78762.1
30598
-48268.9
34308.5
-21725.1
38847.1
-373.318
43177.9
16604.2
47064.1
29420.2
51070.3
38842.3
54608.3
46117.3
57234.9
52434.2
58950.7
57386.6
61377.9
60424.9
64104
63098.4
65997.1
65864.8
67483.6
68157.6
69030.2
69985.8
70540.5
71559.6
71979.6
73017.4
73312.7
74404.7
74617.7
75732.8
75864.9
77043.3
77085.4
78289.7
78259.2
79525.6
79320.9
125318
125329
125302
125275
125211
125137
125038
124922
124784
124624
124444
124236
124008
123749
123466
123150
122804
122425
122006
121553
121058
120506
119958
119209
118778
117485
117643
115231
116353
112872
114206
110772
111442
107710
109409
102766
107720
96813.1
105223
90106.4
101750
81769.2
97576.5
70269.4
92593.2
53508.7
86114.5
29049
76984
-5404.17
64093.5
-50891.4
48481.6
-99756.5
34172
-78772.9
30590.7
-48269.3
34305.7
-21723.7
38845.8
-372.34
43178.1
16605
47064.2
29422
51069.8
38844.1
54607.7
46118.8
57234.4
52434.8
58950.7
57386.6
61377.2
60425.3
64102.9
63098.6
65996.3
65864.4
67483
68156.9
69029.6
69985
70539.7
71558.7
71978.9
73016.4
73312.3
74403.7
74617.7
75731.7
75865.6
77042.1
77086.8
78288
78261.3
79523.3
79323.5
125320
125330
125303
125276
125212
125139
125039
124923
124785
124625
124445
124237
124009
123750
123467
123151
122805
122426
122007
121554
121059
120507
119959
119210
118779
117486
117644
115232
116353
112874
114207
110774
111442
107711
109410
102768
107720
96815.1
105222
90108.6
101750
81771.9
97578.2
70273.4
92596.4
53513.1
86117.8
29052.7
76984.8
-5403.55
64091.5
-50903.6
48474.7
-99790.2
34161.8
-78784
30583
-48269.6
34302.9
-21722.3
38844.4
-371.34
43178.4
16605.7
47064.3
29423.9
51069.2
38846
54607.2
46120.4
57234
52435.4
58950.7
57386.7
61376.5
60425.6
64101.8
63098.7
65995.4
65864.1
67482.4
68156.2
69028.9
69984.2
70538.9
71557.8
71978.2
73015.5
73311.8
74402.8
74617.7
75730.7
75866.2
77040.9
77088.3
78286.3
78263.5
79521
79326.1
125321
125331
125305
125278
125213
125140
125040
124924
124786
124626
124446
124238
124010
123751
123468
123152
122806
122427
122008
121555
121060
120508
119960
119210
118780
117487
117644
115233
116353
112875
114207
110775
111443
107712
109411
102769
107720
96817.1
105222
90110.8
101751
81774.7
97579.9
70277.4
92599.8
53517.7
86121.1
29056.4
76985.7
-5402.91
64089.4
-50916.1
48467.6
-99824.9
34151.3
-78795.5
30575.1
-48270
34299.9
-21720.9
38843.1
-370.318
43178.7
16606.5
47064.5
29425.8
51068.7
38848
54606.6
46122
57233.5
52436.1
58950.7
57386.7
61375.9
60426
64100.6
63098.9
65994.6
65863.8
67481.8
68155.6
69028.2
69983.4
70538.2
71556.9
71977.5
73014.6
73311.3
74401.8
74617.7
75729.7
75866.9
77039.7
77089.7
78284.7
78265.7
79518.8
79328.6
125323
125333
125306
125279
125214
125141
125041
124925
124787
124627
124447
124239
124011
123752
123469
123153
122807
122428
122009
121556
121061
120509
119961
119211
118781
117488
117645
115235
116354
112877
114207
110776
111443
107712
109411
102770
107719
96819.2
105221
90113.1
101752
81777.6
97581.6
70281.6
92603.2
53522.4
86124.6
29060.2
76986.6
-5402.25
64087.3
-50928.9
48460.4
-99860.6
34140.4
-78807.3
30567
-48270.4
34296.9
-21719.4
38841.7
-369.273
43179
16607.3
47064.6
29427.7
51068.2
38850.1
54606.1
46123.7
57233.1
52436.8
58950.7
57386.8
61375.2
60426.4
64099.4
63099.1
65993.8
65863.4
67481.2
68154.9
69027.5
69982.6
70537.4
71556
71976.8
73013.6
73310.9
74400.8
74617.7
75728.6
75867.5
77038.4
77091.1
78283
78267.8
79516.5
79331.2
125324
125334
125307
125280
125215
125142
125042
124926
124789
124628
124448
124240
124012
123753
123471
123154
122808
122429
122010
121557
121062
120510
119962
119212
118781
117489
117646
115236
116354
112878
114207
110778
111444
107713
109412
102771
107719
96821.4
105221
90115.5
101752
81780.5
97583.4
70285.9
92606.8
53527.3
86128.1
29064.1
76987.6
-5401.56
64085.2
-50942
48452.9
-99897.3
34129.1
-78819.5
30558.7
-48270.8
34293.8
-21718
38840.4
-368.207
43179.4
16608.2
47064.8
29429.8
51067.7
38852.2
54605.5
46125.5
57232.6
52437.5
58950.7
57386.9
61374.6
60426.8
64098.3
63099.4
65992.9
65863.1
67480.6
68154.3
69026.8
69981.8
70536.6
71555.1
71976.1
73012.6
73310.4
74399.8
74617.7
75727.6
75868.1
77037.2
77092.5
78281.3
78270
79514.2
79333.8
125326
125335
125308
125281
125217
125143
125044
124927
124790
124629
124449
124242
124014
123754
123472
123155
122809
122430
122011
121558
121063
120511
119963
119213
118782
117490
117646
115237
116354
112880
114207
110779
111444
107713
109413
102772
107719
96823.7
105221
90117.9
101753
81783.6
97585.2
70290.2
92610.4
53532.3
86131.7
29068.1
76988.7
-5400.84
64083
-50955.4
48445.3
-99935
34117.6
-78832
30550.1
-48271.2
34290.7
-21716.5
38839
-367.118
43179.7
16609.1
47065
29431.9
51067.2
38854.5
54604.9
46127.3
57232.2
52438.3
58950.7
57387
61373.9
60427.3
64097.1
63099.7
65992.1
65862.9
67480
68153.6
69026.2
69981
70535.8