/*--------------------------------*- C++ -*----------------------------------*\
| =========                 |                                                 |
| \\      /  F ield         | OpenFOAM: The Open Source CFD Toolbox           |
|  \\    /   O peration     | Version:  2412                                  |
|   \\  /    A nd           | Website:  www.openfoam.com                      |
|    \\/     M anipulation  |                                                 |
\*---------------------------------------------------------------------------*/
FoamFile
{
    version     2.0;
    format      ascii;
    arch        "LSB;label=32;scalar=64";
    class       surfaceScalarField;
    location    "0.1";
    object      phi;
}
// * * * * * * * * * * * * * * * * * * * * * * * * * * * * * * * * * * * * * //

dimensions      [0 3 -1 0 0 0 0];

oriented        oriented;

internalField   nonuniform List<scalar> 
25905
(
0.00748976
0.000171761
0.00748577
1.53436e-05
0.00754347
-0.000105931
0.00761434
-0.000134066
0.00767534
-0.000115431
0.00772502
-9.28146e-05
0.00776722
-7.76795e-05
0.0078035
-6.57929e-05
0.00783484
-5.61242e-05
0.00786166
-4.73836e-05
0.00788467
-4.04164e-05
0.00790426
-3.39124e-05
0.00792094
-2.89478e-05
0.00793502
-2.38911e-05
0.0079469
-2.06104e-05
0.00795679
-1.67253e-05
0.00796495
-1.47988e-05
0.00797163
-1.20066e-05
0.00797702
-1.13583e-05
0.00798134
-9.40165e-06
0.00798476
-9.54922e-06
0.00798741
-8.04763e-06
0.00798938
-8.2229e-06
0.00799092
-7.1732e-06
0.00799201
-6.7133e-06
0.00799297
-5.77938e-06
0.00799354
-3.88645e-06
0.00799461
-2.60963e-06
0.00799488
1.63627e-06
0.00799683
2.62428e-06
0.00799722
6.79796e-06
0.00800067
9.3036e-07
0.00800196
1.70545e-06
0.00800775
-1.35224e-05
0.00801082
-1.49635e-05
0.00802028
-4.35898e-05
0.00802599
-4.45861e-05
0.00804116
-9.39191e-05
0.00805052
-9.26785e-05
0.00807284
-0.000163043
0.0080859
-0.000152541
0.00811405
-0.000234713
0.00812674
-0.000182225
0.00815366
-0.000262879
0.00815571
-0.000117787
0.00816776
-0.000140613
0.00814545
0.000169421
0.0081306
0.000119429
0.00807976
0.000415263
0.00800841
0.000184202
0.00788652
0.000416011
0.00763551
0.000280242
0.00723857
0.000654996
0.00723861
0.000187507
0.00750232
-0.00047702
0.0076509
-0.000330323
0.00771804
0.000224
0.00775953
9.22712e-05
0.0077714
0.000233319
0.00778684
8.41081e-05
0.00778573
0.000191277
0.00779713
4.06549e-05
0.00779706
6.92022e-05
0.00780781
-8.48304e-06
0.00780681
5.05065e-06
0.00781343
-9.00763e-05
0.00780869
-0.000116523
0.00780924
-0.000241535
0.00780039
-0.000238937
0.00779483
-0.000333269
0.0077824
-0.000308769
0.00777206
-0.00037589
0.00775758
-0.000339788
0.00774534
-0.000382416
0.00773157
-0.000357206
0.00772033
-0.000409678
0.00770886
-0.000409183
0.00769902
-0.0004696
0.0076896
-0.000484765
0.0076809
-0.00055882
0.0076727
-0.000598374
0.00766463
-0.000693022
0.00765736
-0.000773366
0.00765035
-0.000894561
0.00764481
-0.00101595
0.00764036
-0.0011496
0.00763842
-0.00130397
0.00763911
-0.00142668
0.00764369
-0.00159879
0.00765302
-0.00167896
0.0076678
-0.00185316
0.00769029
-0.00184481
0.00771996
-0.00199975
0.00776094
-0.00183423
0.00781091
-0.00194361
0.00787585
-0.00155189
0.00795174
-0.00159626
0.00804561
-0.00095726
-0.000869545
0.00748975
0.000257768
0.00748574
1.93535e-05
0.00754341
-0.000163609
0.00761428
-0.000204943
0.00767529
-0.000176441
0.00772498
-0.000142502
0.00776717
-0.000119879
0.00780346
-0.000102078
0.0078348
-8.74691e-05
0.00786163
-7.42148e-05
0.00788464
-6.34322e-05
0.00790423
-5.35034e-05
0.00792091
-4.56365e-05
0.007935
-3.79744e-05
0.00794688
-3.24943e-05
0.00795677
-2.66258e-05
0.00796493
-2.29624e-05
0.00797161
-1.86902e-05
0.00797701
-1.67608e-05
0.00798133
-1.37214e-05
0.00798475
-1.29729e-05
0.0079874
-1.07002e-05
0.00798937
-1.02004e-05
0.00799092
-8.7177e-06
0.007992
-7.80113e-06
0.00799297
-6.75313e-06
0.00799354
-4.45715e-06
0.00799461
-3.68599e-06
0.00799489
1.35629e-06
0.00799684
6.64643e-07
0.00799724
6.39382e-06
0.00800069
-2.52518e-06
0.00800197
4.16375e-07
0.00800778
-1.93303e-05
0.00801084
-1.80305e-05
0.0080203
-5.30591e-05
0.00802601
-5.0303e-05
0.00804118
-0.000109088
0.00805054
-0.000102046
0.00807286
-0.000185367
0.00808592
-0.000165604
0.00811408
-0.000262872
0.00812677
-0.00019492
0.00815369
-0.000289801
0.00815573
-0.000119831
0.00816778
-0.000152656
0.00814545
0.000191739
0.00813058
0.000134295
0.0080797
0.000466128
0.00800834
0.000255563
0.00788639
0.000537935
0.00763539
0.00053124
0.00723858
0.00105177
0.00723852
0.000187586
0.0075022
-0.000740714
0.00765082
-0.000478921
0.00771796
0.00015685
0.00775948
5.0775e-05
0.00777133
0.000221461
0.00778681
6.86476e-05
0.00778571
0.00019237
0.00779713
2.92488e-05
0.00779706
6.92719e-05
0.00780781
-1.92258e-05
0.00780682
6.04179e-06
0.00781346
-9.6711e-05
0.00780872
-0.000111786
0.00780927
-0.000242084
0.00780043
-0.000230091
0.00779486
-0.000327704
0.00778243
-0.000296341
0.00777209
-0.000365545
0.0077576
-0.000325291
0.00774537
-0.000370174
0.00773159
-0.000343431
0.00772035
-0.000398429
0.00770888
-0.000397706
0.00769903
-0.000459751
0.00768961
-0.000475339
0.00768091
-0.000550116
0.00767271
-0.000590166
0.00766463
-0.000684936
0.00765736
-0.000766092
0.00765036
-0.000887549
0.00764481
-0.0010104
0.00764036
-0.00114515
0.00763841
-0.00130202
0.0076391
-0.00142737
0.00764368
-0.00160337
0.00765303
-0.00168829
0.00766782
-0.00186795
0.00769035
-0.00186733
0.00772005
-0.00202945
0.00776108
-0.00187526
0.00781113
-0.00199365
0.00787613
-0.00161689
0.00795211
-0.00167224
0.00804603
-0.00105117
-0.000979976
0.00748973
0.000343793
0.00748567
2.34082e-05
0.00754332
-0.000221259
0.00761419
-0.000275818
0.00767521
-0.000237459
0.0077249
-0.000192198
0.00776711
-0.000162086
0.0078034
-0.00013837
0.00783475
-0.00011882
0.00786158
-0.000101052
0.0078846
-8.6454e-05
0.0079042
-7.31003e-05
0.00792089
-6.23307e-05
0.00793497
-5.20631e-05
0.00794686
-4.43831e-05
0.00795676
-3.65308e-05
0.00796493
-3.11302e-05
0.00797161
-2.53778e-05
0.00797702
-2.21667e-05
0.00798134
-1.80446e-05
0.00798476
-1.6399e-05
0.00798741
-1.3356e-05
0.00798939
-1.21784e-05
0.00799094
-1.02669e-05
0.00799202
-8.88633e-06
0.00799299
-7.73381e-06
0.00799356
-5.02644e-06
0.00799464
-4.76584e-06
0.00799492
1.06743e-06
0.00799688
-1.29299e-06
0.00799729
5.97484e-06
0.00800074
-5.98255e-06
0.00800202
-8.697e-07
0.00800784
-2.51493e-05
0.00801089
-2.10883e-05
0.00802036
-6.25333e-05
0.00802607
-5.60183e-05
0.00804123
-0.000124254
0.00805059
-0.000111414
0.00807291
-0.000207689
0.00808597
-0.000178665
0.00811413
-0.000291032
0.00812681
-0.000207611
0.00815373
-0.000316726
0.00815576
-0.000121864
0.0081678
-0.000164691
0.00814544
0.000214085
0.00813056
0.000149185
0.00807961
0.000517055
0.00800822
0.000326951
0.00788619
0.000659939
0.0076352
0.000782234
0.00723854
0.00144841
0.00723837
0.000187772
0.00750202
-0.00100438
0.00765069
-0.000627569
0.00771784
8.96945e-05
0.0077594
9.23962e-06
0.00777124
0.00020961
0.00778677
5.31378e-05
0.0077857
0.000193437
0.00779715
1.78155e-05
0.00779708
6.93424e-05
0.00780784
-2.99846e-05
0.00780686
7.02214e-06
0.00781353
-0.000103371
0.0078088
-0.000107057
0.00780935
-0.000242633
0.00780051
-0.000221249
0.00779495
-0.00032214
0.00778252
-0.000283915
0.00777218
-0.000355199
0.00775768
-0.000310786
0.00774545
-0.000357935
0.00773168
-0.000329656
0.00772043
-0.000387176
0.00770896
-0.000386228
0.00769911
-0.000449899
0.00768968
-0.000465907
0.00768098
-0.000541409
0.00767277
-0.00058195
0.00766469
-0.00067685
0.00765742
-0.000758815
0.00765041
-0.000880534
0.00764486
-0.00100485
0.0076404
-0.00114068
0.00763845
-0.00130006
0.00763914
-0.00142805
0.00764371
-0.00160794
0.00765307
-0.00169764
0.00766787
-0.00188275
0.00769043
-0.00188988
0.00772017
-0.00205918
0.00776125
-0.00191634
0.00781136
-0.00204375
0.00787643
-0.00168196
0.00795249
-0.00174829
0.00804646
-0.00114514
-0.00109047
0.00748971
0.000429835
0.00748561
2.75052e-05
0.00754323
-0.000278881
0.00761411
-0.000346693
0.00767513
-0.000298487
0.00772483
-0.000241902
0.00776705
-0.000204299
0.00780334
-0.000174669
0.0078347
-0.000150178
0.00786154
-0.000127897
0.00788457
-0.000109483
0.00790417
-9.27047e-05
0.00792087
-7.90323e-05
0.00793496
-6.61589e-05
0.00794685
-5.62788e-05
0.00795676
-4.64424e-05
0.00796493
-3.93041e-05
0.00797162
-3.20713e-05
0.00797703
-2.75781e-05
0.00798136
-2.2373e-05
0.00798479
-1.98297e-05
0.00798744
-1.60169e-05
0.00798942
-1.41594e-05
0.00799097
-1.1822e-05
0.00799205
-9.97184e-06
0.00799304
-8.72273e-06
0.00799361
-5.59625e-06
0.00799469
-5.85226e-06
0.00799498
7.70365e-07
0.00799694
-3.25237e-06
0.00799737
5.54051e-06
0.00800082
-9.44129e-06
0.00800211
-2.15683e-06
0.00800793
-3.09767e-05
0.00801097
-2.41384e-05
0.00802045
-7.20133e-05
0.00802615
-6.17299e-05
0.00804131
-0.000139417
0.00805067
-0.00012078
0.00807299
-0.000230006
0.00808604
-0.000191722
0.0081142
-0.000319191
0.00812687
-0.000220292
0.0081538
-0.000343651
0.00815581
-0.000123879
0.00816784
-0.000176714
0.00814544
0.000236468
0.00813052
0.000164106
0.0080795
0.00056806
0.00800808
0.000398375
0.00788595
0.000782044
0.00763495
0.00103324
0.00723844
0.00184489
0.00723815
0.000188074
0.00750178
-0.00126801
0.0076505
-0.000776274
0.00771767
2.25258e-05
0.00775928
-3.23544e-05
0.00777113
0.00019775
0.00778672
3.75609e-05
0.00778569
0.000194465
0.00779718
6.34244e-06
0.00779711
6.94061e-05
0.0078079
-4.07675e-05
0.00780694
7.98529e-06
0.00781364
-0.000110063
0.00780892
-0.000102338
0.00780947
-0.000243186
0.00780063
-0.000212412
0.00779508
-0.000316583
0.00778265
-0.000271492
0.00777231
-0.000344854
0.00775781
-0.000296275
0.00774558
-0.0003457
0.00773181
-0.000315882
0.00772056
-0.000375918
0.00770908
-0.000374748
0.00769923
-0.000440045
0.0076898
-0.000456471
0.00768109
-0.000532697
0.00767288
-0.000573727
0.00766479
-0.000668761
0.00765752
-0.000751535
0.00765051
-0.000873517
0.00764495
-0.000999288
0.00764049
-0.00113621
0.00763853
-0.00129809
0.00763921
-0.00142872
0.00764378
-0.00161251
0.00765314
-0.00170699
0.00766796
-0.00189756
0.00769054
-0.00191245
0.00772032
-0.00208895
0.00776145
-0.00195747
0.00781161
-0.00209391
0.00787675
-0.00174708
0.00795289
-0.00182443
0.0080469
-0.00123915
-0.00120102
0.0074897
0.000515893
0.00748556
3.16423e-05
0.00754315
-0.000336475
0.00761402
-0.000417565
0.00767506
-0.000359522
0.00772477
-0.000291615
0.00776698
-0.00024652
0.00780329
-0.000210974
0.00783465
-0.000181542
0.0078615
-0.000154748
0.00788453
-0.00013252
0.00790414
-0.000112317
0.00792085
-9.57412e-05
0.00793495
-8.02618e-05
0.00794685
-6.81812e-05
0.00795677
-5.63605e-05
0.00796495
-4.74844e-05
0.00797164
-3.87709e-05
0.00797706
-3.29952e-05
0.00798139
-2.67072e-05
0.00798482
-2.32653e-05
0.00798749
-1.8683e-05
0.00798947
-1.61441e-05
0.00799103
-1.3383e-05
0.00799211
-1.10589e-05
0.00799311
-9.71993e-06
0.00799367
-6.16727e-06
0.00799476
-6.94689e-06
0.00799506
4.66589e-07
0.00799703
-5.21684e-06
0.00799747
5.09205e-06
0.00800093
-1.29024e-05
0.00800221
-3.44767e-06
0.00800804
-3.68109e-05
0.00801108
-2.71829e-05
0.00802056
-8.14993e-05
0.00802627
-6.74364e-05
0.00804142
-0.00015458
0.00805078
-0.000130142
0.00807309
-0.000252321
0.00808614
-0.000204773
0.00811429
-0.000347348
0.00812696
-0.000232962
0.00815388
-0.000370574
0.00815587
-0.00012587
0.00816788
-0.000188722
0.00814544
0.000258898
0.00813048
0.000179064
0.00807936
0.00061916
0.00800789
0.000469844
0.00788565
0.000904264
0.00763463
0.00128427
0.0072383
0.00224119
0.00723788
0.000188504
0.00750147
-0.00153161
0.00765026
-0.000925038
0.00771744
-4.46606e-05
0.00775912
-7.40196e-05
0.007771
0.000185874
0.00778666
2.19045e-05
0.00778569
0.000195443
0.00779722
-5.17803e-06
0.00779717
6.9458e-05
0.00780799
-5.15801e-05
0.00780705
8.92634e-06
0.00781378
-0.000116791
0.00780907
-9.76321e-05
0.00780964
-0.000243744
0.0078008
-0.000203581
0.00779525
-0.000311032
0.00778283
-0.000259071
0.00777249
-0.00033451
0.00775798
-0.000281759
0.00774576
-0.000333469
0.00773199
-0.000302108
0.00772073
-0.000364657
0.00770925
-0.000363265
0.0076994
-0.000430189
0.00768996
-0.000447029
0.00768125
-0.00052398
0.00767303
-0.000565497
0.00766494
-0.00066067
0.00765766
-0.00074425
0.00765064
-0.000866495
0.00764508
-0.00099372
0.00764061
-0.00113174
0.00763864
-0.00129612
0.00763932
-0.00142939
0.00764389
-0.00161708
0.00765325
-0.00171635
0.00766808
-0.00191239
0.00769068
-0.00193505
0.00772049
-0.00211876
0.00776167
-0.00199864
0.0078119
-0.00214413
0.00787709
-0.00181228
0.00795331
-0.00190064
0.00804737
-0.00133321
-0.00131162
0.00748968
0.000601963
0.00748551
3.58154e-05
0.00754308
-0.000394043
0.00761394
-0.000488435
0.00767498
-0.000420565
0.0077247
-0.000341335
0.00776693
-0.000288747
0.00780324
-0.000247287
0.00783461
-0.000212914
0.00786146
-0.000181608
0.00788451
-0.000155564
0.00790413
-0.000131937
0.00792084
-0.000112459
0.00793495
-9.43733e-05
0.00794686
-8.00919e-05
0.00795678
-6.62869e-05
0.00796497
-5.56725e-05
0.00797167
-4.54782e-05
0.00797709
-3.84198e-05
0.00798143
-3.10485e-05
0.00798487
-2.67078e-05
0.00798754
-2.13559e-05
0.00798953
-1.81346e-05
0.00799109
-1.49512e-05
0.00799218
-1.21502e-05
0.00799319
-1.07264e-05
0.00799376
-6.74196e-06
0.00799486
-8.0515e-06
0.00799517
1.55625e-07
0.00799714
-7.18955e-06
0.00799759
4.62975e-06
0.00800105
-1.63672e-05
0.00800235
-4.7443e-06
0.00800818
-4.26501e-05
0.00801122
-3.0224e-05
0.0080207
-9.09907e-05
0.0080264
-7.31374e-05
0.00804156
-0.000169742
0.00805091
-0.000139497
0.00807322
-0.000274633
0.00808625
-0.000217815
0.00811441
-0.000375501
0.00812706
-0.000245618
0.00815397
-0.000397492
0.00815593
-0.000127833
0.00816792
-0.00020071
0.00814543
0.000281384
0.00813043
0.000194068
0.0080792
0.000670368
0.00800768
0.000541368
0.0078853
0.00102662
0.00763424
0.00153533
0.00723811
0.00263729
0.00723755
0.000189069
0.00750111
-0.00179518
0.00764996
-0.00107386
0.00771716
-0.000111872
0.00775893
-0.000115773
0.00777084
0.000173966
0.0077866
6.15273e-06
0.00778568
0.000196359
0.00779727
-1.67571e-05
0.00779724
6.94906e-05
0.00780809
-6.24295e-05
0.00780718
9.83964e-06
0.00781396
-0.000123559
0.00780926
-9.29424e-05
0.00780984
-0.000244312
0.00780101
-0.000194756
0.00779547
-0.000305491
0.00778305
-0.000246654
0.00777271
-0.000324167
0.0077582
-0.000267241
0.00774598
-0.00032124
0.00773221
-0.000288335
0.00772095
-0.000353393
0.00770947
-0.000351779
0.00769961
-0.000420332
0.00769017
-0.000437582
0.00768145
-0.000515257
0.00767322
-0.000557259
0.00766513
-0.000652574
0.00765784
-0.00073696
0.00765082
-0.000859467
0.00764525
-0.000988143
0.00764077
-0.00112725
0.00763879
-0.00129414
0.00763946
-0.00143006
0.00764402
-0.00162164
0.00765339
-0.00172571
0.00766823
-0.00192722
0.00769086
-0.00195768
0.0077207
-0.00214859
0.00776192
-0.00203986
0.00781221
-0.00219441
0.00787746
-0.00187753
0.00795376
-0.00197693
0.00804786
-0.00142731
-0.00142227
0.00748967
0.000688046
0.00748546
4.00217e-05
0.00754301
-0.000451587
0.00761387
-0.000559301
0.00767492
-0.000481612
0.00772464
-0.000391061
0.00776687
-0.00033098
0.00780319
-0.000283606
0.00783457
-0.000244293
0.00786143
-0.000208475
0.00788448
-0.000178617
0.00790411
-0.000151566
0.00792083
-0.000129184
0.00793495
-0.000108493
0.00794687
-9.20107e-05
0.0079568
-7.62212e-05
0.00796499
-6.38685e-05
0.00797171
-5.21933e-05
0.00797714
-4.38518e-05
0.00798148
-3.53972e-05
0.00798493
-3.01572e-05
0.00798761
-2.40358e-05
0.0079896
-2.01313e-05
0.00799117
-1.65267e-05
0.00799227
-1.32464e-05
0.00799328
-1.1742e-05
0.00799386
-7.32116e-06
0.00799497
-9.16665e-06
0.00799528
-1.61987e-07
0.00799726
-9.17258e-06
0.00799773
4.15498e-06
0.0080012
-1.98375e-05
0.0080025
-6.04749e-06
0.00800834
-4.84939e-05
0.00801137
-3.32634e-05
0.00802086
-0.000100487
0.00802655
-7.88322e-05
0.00804171
-0.000184904
0.00805106
-0.000148845
0.00807336
-0.000296942
0.00808639
-0.000230846
0.00811454
-0.000403651
0.00812717
-0.000258256
0.00815408
-0.000424404
0.00815601
-0.000129762
0.00816797
-0.000212676
0.00814542
0.000303934
0.00813036
0.000209121
0.00807902
0.000721698
0.00800743
0.000612953
0.00788491
0.00114912
0.0076338
0.00178645
0.00723788
0.00303319
0.00723717
0.000189781
0.00750069
-0.00205871
0.00764961
-0.00122276
0.00771684
-0.00017911
0.00775871
-0.000157627
0.00777065
0.000162023
0.00778652
-9.70526e-06
0.00778568
0.000197205
0.00779733
-2.84014e-05
0.00779732
6.94999e-05
0.00780822
-7.33207e-05
0.00780734
1.07212e-05
0.00781416
-0.000130372
0.00780949
-8.82709e-05
0.00781007
-0.00024489
0.00780125
-0.000185938
0.00779572
-0.00029996
0.00778331
-0.000234241
0.00777297
-0.000313826
0.00775845
-0.000252721
0.00774623
-0.000309016
0.00773246
-0.000274562
0.0077212
-0.000342126
0.00770972
-0.000340287
0.00769986
-0.000410473
0.00769041
-0.000428128
0.00768169
-0.000506528
0.00767345
-0.000549012
0.00766535
-0.000644473
0.00765806
-0.000729664
0.00765103
-0.000852433
0.00764545
-0.000982557
0.00764096
-0.00112275
0.00763897
-0.00129214
0.00763963
-0.00143071
0.00764419
-0.00162619
0.00765355
-0.00173507
0.0076684
-0.00194207
0.00769105
-0.00198032
0.00772093
-0.00217846
0.00776219
-0.00208112
0.00781253
-0.00224475
0.00787785
-0.00194284
0.00795422
-0.00205329
0.00804837
-0.00152146
-0.00153299
0.00748966
0.000774139
0.00748543
4.42574e-05
0.00754294
-0.000509107
0.0076138
-0.000630162
0.00767485
-0.000542663
0.00772458
-0.000440793
0.00776682
-0.00037322
0.00780314
-0.000319931
0.00783453
-0.000275679
0.0078614
-0.00023535
0.00788446
-0.000201678
0.00790409
-0.000171204
0.00792083
-0.00014592
0.00793495
-0.000122622
0.00794688
-0.000103939
0.00795682
-8.61648e-05
0.00796502
-7.20736e-05
0.00797174
-5.89174e-05
0.00797718
-4.92927e-05
0.00798154
-3.97547e-05
0.00798499
-3.36152e-05
0.00798768
-2.67242e-05
0.00798968
-2.21359e-05
0.00799126
-1.81107e-05
0.00799236
-1.43498e-05
0.00799338
-1.27677e-05
0.00799397
-7.90715e-06
0.00799509
-1.02934e-05
0.00799541
-4.87577e-07
0.0079974
-1.11678e-05
0.00799789
3.66773e-06
0.00800136
-2.3315e-05
0.00800267
-7.35793e-06
0.00800851
-5.43416e-05
0.00801154
-3.63028e-05
0.00802104
-0.000109987
0.00802672
-8.45213e-05
0.00804188
-0.000200066
0.00805122
-0.000158184
0.00807352
-0.000319248
0.00808654
-0.000243866
0.00811468
-0.000431796
0.00812729
-0.000270876
0.0081542
-0.000451306
0.00815608
-0.000131652
0.00816802
-0.000224616
0.0081454
0.000326554
0.00813029
0.000224231
0.00807881
0.000773161
0.00800715
0.000684607
0.00788448
0.00127177
0.00763331
0.00203762
0.00723761
0.00342887
0.00723675
0.000190645
0.00750023
-0.0023222
0.00764921
-0.00137171
0.00771647
-0.000246382
0.00775846
-0.000199595
0.00777045
0.00015003
0.00778643
-2.56832e-05
0.00778567
0.000197969
0.0077974
-4.01203e-05
0.00779742
6.94792e-05
0.00780836
-8.42598e-05
0.00780752
1.15663e-05
0.00781439
-0.000137235
0.00780973
-8.36198e-05
0.00781033
-0.000245483
0.00780152
-0.000177129
0.007796
-0.000294441
0.00778359
-0.000221833
0.00777326
-0.000303486
0.00775874
-0.000238201
0.00774653
-0.000296795
0.00773276
-0.000260789
0.00772149
-0.000330856
0.00771
-0.00032879
0.00770014
-0.000400612
0.00769069
-0.000418668
0.00768195
-0.000497793
0.0076737
-0.000540758
0.0076656
-0.000636366
0.0076583
-0.000722362
0.00765127
-0.000845392
0.00764568
-0.000976962
0.00764118
-0.00111825
0.00763917
-0.00129013
0.00763982
-0.00143136
0.00764437
-0.00163074
0.00765374
-0.00174443
0.0076686
-0.00195692
0.00769127
-0.00200299
0.00772117
-0.00220836
0.00776248
-0.00212243
0.00781288
-0.00229514
0.00787825
-0.00200821
0.0079547
-0.00212974
0.00804889
-0.00161564
-0.00164374
0.00748966
0.000860239
0.00748539
4.852e-05
0.00754289
-0.000566603
0.00761374
-0.000701015
0.00767479
-0.000603716
0.00772452
-0.000490529
0.00776676
-0.000415464
0.00780309
-0.000356262
0.00783448
-0.000307072
0.00786136
-0.000262232
0.00788443
-0.000224747
0.00790408
-0.00019085
0.00792082
-0.000162663
0.00793495
-0.00013676
0.00794689
-0.000115876
0.00795684
-9.61173e-05
0.00796505
-8.02874e-05
0.00797178
-6.56504e-05
0.00797723
-5.47422e-05
0.00798159
-4.41208e-05
0.00798506
-3.70816e-05
0.00798775
-2.9421e-05
0.00798976
-2.41485e-05
0.00799135
-1.97033e-05
0.00799246
-1.54606e-05
0.00799349
-1.38034e-05
0.00799408
-8.50044e-06
0.00799522
-1.14318e-05
0.00799555
-8.20984e-07
0.00799756
-1.31763e-05
0.00799805
3.16892e-06
0.00800153
-2.68013e-05
0.00800285
-8.67541e-06
0.00800869
-6.01935e-05
0.00801173
-3.93429e-05
0.00802123
-0.00011949
0.00802691
-9.02046e-05
0.00804207
-0.000215228
0.00805139
-0.000167513
0.00807369
-0.000341552
0.00808669
-0.000256871
0.00811483
-0.000459937
0.00812742
-0.000283474
0.00815431
-0.000478197
0.00815616
-0.000133499
0.00816807
-0.000236529
0.00814537
0.000349252
0.0081302
0.000239401
0.00807858
0.000824769
0.00800685
0.000756334
0.007884
0.0013946
0.00763276
0.00228886
0.0072373
0.00382431
0.00723628
0.000191671
0.00749972
-0.00258565
0.00764876
-0.00152074
0.00771607
-0.000313687
0.00775817
-0.000241686
0.00777022
0.000137985
0.00778633
-4.17892e-05
0.00778566
0.000198645
0.00779747
-5.19194e-05
0.00779752
6.94255e-05
0.00780852
-9.52508e-05
0.00780772
1.23717e-05
0.00781464
-0.000144149
0.00781001
-7.89908e-05
0.00781062
-0.00024609
0.00780181
-0.000168329
0.00779631
-0.000288934
0.00778391
-0.000209431
0.00777357
-0.000293149
0.00775906
-0.000223682
0.00774685
-0.000284578
0.00773308
-0.000247016
0.00772181
-0.000319583
0.00771031
-0.000317286
0.00770045
-0.000390749
0.00769099
-0.000409202
0.00768225
-0.00048905
0.00767399
-0.000532493
0.00766588
-0.000628252
0.00765858
-0.000715052
0.00765153
-0.000838343
0.00764593
-0.000971355
0.00764142
-0.00111373
0.0076394
-0.00128811
0.00764004
-0.00143199
0.00764458
-0.00163528
0.00765395
-0.0017538
0.00766881
-0.00197177
0.0076915
-0.00202568
0.00772143
-0.00223829
0.00776279
-0.00216378
0.00781324
-0.00234559
0.00787867
-0.00207364
0.00795519
-0.00220625
0.00804942
-0.00170987
-0.00175455
0.00748965
0.000946346
0.00748536
5.28061e-05
0.00754283
-0.000624076
0.00761368
-0.00077186
0.00767473
-0.000664769
0.00772446
-0.000540268
0.00776671
-0.000457712
0.00780304
-0.000392599
0.00783444
-0.000338471
0.00786133
-0.000289122
0.0078844
-0.000247825
0.00790406
-0.000210505
0.00792081
-0.000179417
0.00793495
-0.000150908
0.0079469
-0.000127822
0.00795686
-0.00010608
0.00796508
-8.85111e-05
0.00797182
-7.23933e-05
0.00797728
-6.02017e-05
0.00798165
-4.84968e-05
0.00798512
-4.05577e-05
0.00798783
-3.21274e-05
0.00798984
-2.61706e-05
0.00799144
-2.13055e-05
0.00799256
-1.65805e-05
0.00799361
-1.485e-05
0.0079942
-9.10301e-06
0.00799535
-1.25826e-05
0.00799569
-1.16371e-06
0.00799771
-1.51988e-05
0.00799822
2.65811e-06
0.00800171
-3.02976e-05
0.00800303
-1.00001e-05
0.00800888
-6.60498e-05
0.00801192
-4.23845e-05
0.00802142
-0.000128995
0.00802709
-9.58823e-05
0.00804225
-0.00023039
0.00805157
-0.000176831
0.00807386
-0.000363853
0.00808685
-0.000269862
0.00811498
-0.000488073
0.00812755
-0.000296048
0.00815443
-0.000505077
0.00815623
-0.000135301
0.00816812
-0.000248412
0.00814533
0.000372033
0.00813009
0.000254635
0.00807832
0.000876528
0.00800651
0.000828138
0.00788349
0.00151761
0.00763218
0.00254017
0.00723697
0.00421951
0.00723578
0.000192862
0.00749918
-0.00284905
0.00764829
-0.00166983
0.00771563
-0.000381031
0.00775787
-0.000283912
0.00776997
0.000125875
0.00778623
-5.80344e-05
0.00778565
0.000199223
0.00779755
-6.38059e-05
0.00779764
6.93333e-05
0.00780869
-0.000106298
0.00780793
1.31337e-05
0.0078149
-0.00015112
0.0078103
-7.43857e-05
0.00781092
-0.000246715
0.00780213
-0.000159539
0.00779664
-0.00028344
0.00778424
-0.000197036
0.00777391
-0.000282814
0.0077594
-0.000209164
0.00774719
-0.000272366
0.00773342
-0.000233241
0.00772215
-0.000308307
0.00771064
-0.000305777
0.00770078
-0.000380884
0.00769131
-0.000399729
0.00768257
-0.0004803
0.0076743
-0.000524221
0.00766618
-0.000620131
0.00765887
-0.000707734
0.00765181
-0.000831284
0.0076462
-0.000965738
0.00764168
-0.0011092
0.00763965
-0.00128608
0.00764027
-0.00143261
0.00764481
-0.0016398
0.00765417
-0.00176316
0.00766904
-0.00198664
0.00769175
-0.00204838
0.00772171
-0.00226824
0.0077631
-0.00220517
0.0078136
-0.00239609
0.00787909
-0.00213913
0.00795569
-0.00228285
0.00804995
-0.00180413
-0.0018654
0.00748964
0.00103246
0.00748534
5.7114e-05
0.00754278
-0.000681526
0.00761362
-0.000842694
0.00767466
-0.000725819
0.0077244
-0.000590007
0.00776665
-0.000499962
0.00780299
-0.000428939
0.00783439
-0.000369874
0.00786129
-0.000316017
0.00788437
-0.000270909
0.00790403
-0.000230169
0.00792079
-0.000196178
0.00793495
-0.000165065
0.0079469
-0.000139778
0.00795687
-0.000116051
0.0079651
-9.6744e-05
0.00797185
-7.91456e-05
0.00797732
-6.56704e-05
0.0079817
-5.28821e-05
0.00798518
-4.4043e-05
0.0079879
-3.48431e-05
0.00798992
-2.82016e-05
0.00799153
-2.29171e-05
0.00799266
-1.77095e-05
0.00799372
-1.59073e-05
0.00799432
-9.71482e-06
0.00799548
-1.37454e-05
0.00799583
-1.5156e-06
0.00799787
-1.72356e-05
0.00799839
2.13603e-06
0.00800189
-3.38048e-05
0.00800322
-1.13315e-05
0.00800907
-7.1911e-05
0.00801211
-4.54276e-05
0.00802162
-0.000138503
0.00802728
-0.000101554
0.00804244
-0.00024555
0.00805174
-0.000186137
0.00807404
-0.000386151
0.00808701
-0.000282836
0.00811513
-0.000516203
0.00812768
-0.000308598
0.00815455
-0.000531945
0.0081563
-0.000137053
0.00816815
-0.000260265
0.00814528
0.000394902
0.00812997
0.000269935
0.00807804
0.000928447
0.00800616
0.000900021
0.00788295
0.00164079
0.00763157
0.00279155
0.00723662
0.00461444
0.00723526
0.000194224
0.0074986
-0.0031124
0.00764777
-0.00181898
0.00771515
-0.000448411
0.00775753
-0.000326279
0.00776971
0.000113701
0.00778611
-7.44243e-05
0.00778563
0.000199699
0.00779762
-7.57836e-05
0.00779775
6.92009e-05
0.00780887
-0.000117406
0.00780815
1.38504e-05
0.00781518
-0.000158147
0.0078106
-6.98056e-05
0.00781125
-0.000247357
0.00780247
-0.00015076
0.00779699
-0.00027796
0.0077846
-0.000184648
0.00777427
-0.000272482
0.00775976
-0.000194647
0.00774756
-0.000260159
0.00773378
-0.000219465
0.00772251
-0.000297028
0.007711
-0.00029426
0.00770113
-0.000371016
0.00769166
-0.000390249
0.0076829
-0.000471541
0.00767462
-0.000515938
0.0076665
-0.000612001
0.00765918
-0.000700406
0.00765211
-0.000824216
0.00764649
-0.000960108
0.00764195
-0.00110466
0.0076399
-0.00128403
0.00764052
-0.00143322
0.00764504
-0.00164432
0.0076544
-0.00177252
0.00766927
-0.0020015
0.007692
-0.0020711
0.00772198
-0.00229822
0.00776342
-0.00224659
0.00781397
-0.00244664
0.00787952
-0.00220467
0.00795618
-0.0023595
0.00805049
-0.00189844
-0.00197631
0.00748964
0.00111857
0.00748531
6.14406e-05
0.00754274
-0.000738953
0.00761356
-0.000913517
0.0076746
-0.000786865
0.00772434
-0.000639747
0.00776659
-0.000542214
0.00780293
-0.000465282
0.00783434
-0.000401283
0.00786124
-0.000342919
0.00788433
-0.000294001
0.007904
-0.000249841
0.00792077
-0.000212949
0.00793493
-0.000179231
0.00794689
-0.000151743
0.00795687
-0.000126033
0.00796511
-0.000104987
0.00797187
-8.59081e-05
0.00797735
-7.11494e-05
0.00798174
-5.72778e-05
0.00798524
-4.75386e-05
0.00798796
-3.75691e-05
0.00799
-3.02429e-05
0.00799162
-2.4539e-05
0.00799275
-1.88488e-05
0.00799382
-1.6976e-05
0.00799444
-1.03374e-05
0.00799561
-1.49209e-05
0.00799597
-1.87799e-06
0.00799802
-1.92871e-05
0.00799855
1.60196e-06
0.00800207
-3.73235e-05
0.0080034
-1.26696e-05
0.00800926
-7.77771e-05
0.0080123
-4.84724e-05
0.00802181
-0.000148011
0.00802747
-0.000107221
0.00804262
-0.000260708
0.00805191
-0.000195432
0.0080742
-0.000408445
0.00808716
-0.000295793
0.00811528
-0.000544327
0.0081278
-0.000321122
0.00815465
-0.0005588
0.00815635
-0.000138755
0.00816817
-0.000272086
0.00814521
0.000417862
0.00812984
0.000285304
0.00807774
0.000980529
0.00800578
0.000971983
0.00788239
0.00176417
0.00763093
0.00304301
0.00723624
0.00500911
0.00723471
0.000195761
0.007498
-0.00337569
0.00764724
-0.0019682
0.00771465
-0.00051583
0.00775718
-0.000368795
0.00776943
0.000101453
0.00778598
-9.09666e-05
0.00778561
0.000200065
0.0077977
-8.78578e-05
0.00779787
6.9024e-05
0.00780905
-0.000128576
0.00780838
1.45188e-05
0.00781547
-0.000165235
0.00781092
-6.52523e-05
0.00781158
-0.00024802
0.00780281
-0.000141992
0.00779735
-0.000272493
0.00778497
-0.000172267
0.00777464
-0.000262153
0.00776013
-0.000180132
0.00774793
-0.000247957
0.00773416
-0.000205687
0.00772288
-0.000285745
0.00771136
-0.000282737
0.00770149
-0.000361144
0.00769201
-0.000380763
0.00768325
-0.000462775
0.00767496
-0.000507646
0.00766683
-0.000603862
0.00765949
-0.000693069
0.00765242
-0.000817137
0.00764678
-0.000954467
0.00764223
-0.0011001
0.00764017
-0.00128196
0.00764077
-0.00143382
0.00764528
-0.00164883
0.00765464
-0.00178187
0.00766951
-0.00201637
0.00769225
-0.00209384
0.00772226
-0.00232823
0.00776373
-0.00228806
0.00781434
-0.00249725
0.00787994
-0.00227027
0.00795668
-0.00243624
0.00805102
-0.00199277
-0.00208726
0.00748964
0.00120469
0.0074853
6.57849e-05
0.0075427
-0.000796356
0.0076135
-0.000984324
0.00767454
-0.000847904
0.00772427
-0.000689483
0.00776652
-0.000584466
0.00780287
-0.000501628
0.00783428
-0.000432695
0.00786118
-0.000369826
0.00788428
-0.000317099
0.00790396
-0.00026952
0.00792073
-0.000229727
0.00793491
-0.000193405
0.00794688
-0.000163717
0.00795687
-0.000136023
0.00796512
-0.000113239
0.00797189
-9.26799e-05
0.00797737
-7.66378e-05
0.00798178
-6.1683e-05
0.00798528
-5.10438e-05
0.00798801
-4.03047e-05
0.00799006
-3.22937e-05
0.00799169
-2.61709e-05
0.00799284
-1.9998e-05
0.00799391
-1.80557e-05
0.00799454
-1.09704e-05
0.00799573
-1.61085e-05
0.0079961
-2.25046e-06
0.00799816
-2.13528e-05
0.0079987
1.05658e-06
0.00800223
-4.08539e-05
0.00800357
-1.40138e-05
0.00800944
-8.36486e-05
0.00801248
-5.15184e-05
0.00802199
-0.000157521
0.00802764
-0.000112882
0.00804279
-0.000275864
0.00805207
-0.000204714
0.00807436
-0.000430735
0.0080873
-0.000308733
0.00811541
-0.000572446
0.00812791
-0.00033362
0.00815475
-0.000585642
0.00815639
-0.000140403
0.00816818
-0.000283876
0.00814512
0.000440916
0.00812968
0.000300742
0.00807742
0.00103278
0.00800538
0.00104402
0.0078818
0.00188773
0.00763027
0.00329454
0.00723586
0.00540351
0.00723415
0.000197476
0.00749738
-0.00363893
0.00764668
-0.00211748
0.00771413
-0.000583283
0.00775681