/*--------------------------------*- C++ -*----------------------------------*\
| =========                 |                                                 |
| \\      /  F ield         | OpenFOAM: The Open Source CFD Toolbox           |
|  \\    /   O peration     | Version:  2412                                  |
|   \\  /    A nd           | Website:  www.openfoam.com                      |
|    \\/     M anipulation  |                                                 |
\*---------------------------------------------------------------------------*/
FoamFile
{
    version     2.0;
    format      ascii;
    arch        "LSB;label=32;scalar=64";
    class       volVectorField;
    location    "0.1";
    object      U;
}
// * * * * * * * * * * * * * * * * * * * * * * * * * * * * * * * * * * * * * //

dimensions      [0 1 -1 0 0 0 0];

internalField   nonuniform List<vector> 
13068
(
(99.9006 -0.0208443 0)
(100.655 -0.0984922 -8.76953e-19)
(102.71 -0.161026 -4.29557e-19)
(105.264 -0.178559 0)
(107.84 -0.17276 0)
(110.286 -0.164723 0)
(112.706 -0.16033 -1.23006e-18)
(115.103 -0.157562 8.06712e-19)
(117.518 -0.156004 0)
(119.943 -0.154925 7.79229e-19)
(122.4 -0.154877 -3.82583e-19)
(124.891 -0.155039 -3.75444e-19)
(127.432 -0.156142 -7.36406e-19)
(130.029 -0.157161 0)
(132.694 -0.159318 0)
(135.435 -0.16113 0)
(138.264 -0.164333 0)
(141.188 -0.166951 -6.60967e-19)
(144.22 -0.171099 -3.22637e-19)
(147.37 -0.174458 3.14694e-19)
(150.651 -0.179307 9.19969e-19)
(154.07 -0.183252 -8.95421e-19)
(157.66 -0.188535 2.90382e-19)
(161.381 -0.193041 0)
(165.381 -0.198343 2.74041e-19)
(169.395 -0.203291 -5.2805e-19)
(173.977 -0.208323 -2.57831e-19)
(178.247 -0.21325 -4.91341e-19)
(183.591 -0.217888 -4.82035e-19)
(188.189 -0.222952 4.55605e-19)
(194.342 -0.229025 -2.22565e-19)
(199.499 -0.239063 -2.10354e-19)
(206.544 -0.248758 0)
(212.342 -0.265396 0)
(220.716 -0.278593 3.74979e-19)
(227.027 -0.304412 -1.69302e-19)
(237.313 -0.319848 0)
(244.189 -0.359633 4.44067e-19)
(256.91 -0.377527 3.05909e-19)
(264.596 -0.431051 3.80766e-19)
(280.394 -0.448447 -4.04391e-19)
(289.131 -0.510513 -1.05168e-19)
(308.823 -0.506686 0)
(318.717 -0.570261 0)
(343.209 -0.513548 -1.99876e-19)
(354.213 -0.541033 0)
(384.386 -0.38457 -2.48155e-19)
(396.617 -0.432952 -3.00002e-20)
(433.822 -0.29576 0)
(448.598 -0.479622 0)
(491.964 -0.398141 -9.36487e-20)
(509.549 -0.559013 0)
(546.735 -0.450217 3.21537e-20)
(559.839 0.16659 1.04952e-20)
(539.941 0.195351 6.73161e-20)
(534.221 0.267868 0)
(499.763 0.573274 0)
(487.562 0.468676 -9.19689e-20)
(455.302 0.525445 2.5088e-20)
(443.352 0.418948 -1.49372e-20)
(416.137 0.461762 0)
(405.297 0.359104 -2.05851e-21)
(383.097 0.355568 -3.7427e-20)
(373.273 0.300816 0)
(355.05 0.291365 0)
(345.825 0.223897 8.8018e-20)
(330.613 0.190873 0)
(321.805 0.104057 0)
(308.924 0.0921405 0)
(300.523 0.0248573 1.04097e-19)
(289.489 0.0298197 -1.33062e-19)
(281.492 -0.0199024 1.87564e-19)
(272.012 -0.0052795 0)
(264.486 -0.0385058 0)
(256.276 -0.0292094 1.60504e-19)
(249.421 -0.0680879 -1.6385e-19)
(242.2 -0.0738481 8.87775e-20)
(236.024 -0.117593 0)
(229.641 -0.132594 1.9347e-19)
(224.013 -0.185115 9.88433e-20)
(218.337 -0.215369 -2.08086e-19)
(213.191 -0.281233 0)
(208.064 -0.337402 1.11613e-19)
(203.397 -0.420215 -3.47237e-19)
(198.713 -0.502571 0)
(194.531 -0.592792 3.71427e-19)
(190.257 -0.696049 -3.82102e-19)
(186.569 -0.778154 -2.63963e-19)
(182.712 -0.892197 0)
(179.537 -0.945453 0)
(176.138 -1.06001 -4.31048e-19)
(173.498 -1.05415 1.48845e-19)
(170.623 -1.15518 0)
(168.555 -1.04523 1.57631e-19)
(166.283 -1.11554 -1.60619e-19)
(164.818 -0.856393 4.99212e-19)
(163.222 -0.883172 3.38102e-19)
(162.398 -0.461348 -1.74858e-19)
(161.502 -0.399666 0)
(99.9006 -0.034534 0)
(100.655 -0.167302 2.6308e-18)
(102.709 -0.272449 0)
(105.263 -0.300891 0)
(107.839 -0.29074 -1.68736e-18)
(110.286 -0.277337 0)
(112.705 -0.270088 8.20013e-19)
(115.103 -0.265502 -8.06687e-19)
(117.518 -0.262816 0)
(119.942 -0.260893 -7.7921e-19)
(122.399 -0.260521 0)
(124.89 -0.260639 0)
(127.431 -0.262107 7.36392e-19)
(130.029 -0.263742 0)
(132.694 -0.26684 0)
(135.435 -0.269828 0)
(138.263 -0.274481 0)
(141.188 -0.278773 6.60959e-19)
(144.22 -0.284839 0)
(147.37 -0.290343 -6.29381e-19)
(150.651 -0.297567 -6.13305e-19)
(154.07 -0.304126 5.96941e-19)
(157.66 -0.312251 1.16151e-18)
(161.381 -0.31984 0)
(165.381 -0.328489 5.48076e-19)
(169.395 -0.337027 5.28043e-19)
(173.978 -0.345929 5.15656e-19)
(178.247 -0.355135 1.474e-18)
(183.592 -0.364052 1.44609e-18)
(188.189 -0.374466 4.55598e-19)
(194.343 -0.385015 0)
(199.499 -0.401898 0)
(206.545 -0.416452 0)
(212.342 -0.441485 7.63012e-19)
(220.717 -0.460327 3.74971e-19)
(227.028 -0.496293 -6.77195e-19)
(237.314 -0.518377 0)
(244.189 -0.570858 -2.96038e-19)
(256.911 -0.596192 -3.05902e-19)
(264.597 -0.665568 -2.53838e-19)
(280.395 -0.690767 2.69587e-19)
(289.132 -0.771106 2.1033e-19)
(308.824 -0.774352 -4.6837e-19)
(318.718 -0.856815 0)
(343.211 -0.80505 -1.99874e-19)
(354.213 -0.849639 2.28959e-19)
(384.388 -0.696917 1.65433e-19)
(396.615 -0.761936 0)
(433.822 -0.633708 -2.58651e-19)
(448.592 -0.817858 5.32143e-21)
(491.961 -0.741246 9.36487e-20)
(509.535 -0.831824 0)
(546.734 -0.688209 -1.92926e-19)
(559.842 0.197485 6.99942e-21)
(539.925 0.303661 -1.24607e-24)
(534.221 0.461306 -9.20819e-20)
(499.752 0.799961 0)
(487.563 0.705513 6.13137e-20)
(455.295 0.764096 0)
(443.352 0.648824 -2.98765e-20)
(416.134 0.687617 0)
(405.299 0.57101 1.37236e-21)
(383.096 0.562923 0)
(373.274 0.495821 0)
(355.05 0.48416 8.80059e-20)
(345.826 0.406726 -5.86785e-20)
(330.614 0.372889 1.02681e-19)
(321.806 0.277847 -8.26055e-20)
(308.925 0.265042 0)
(300.525 0.191118 -1.56471e-24)
(289.49 0.194566 1.33062e-19)
(281.493 0.139183 -2.50082e-19)
(272.013 0.15137 0)
(264.487 0.112601 1.46183e-19)
(256.277 0.11847 -1.60504e-19)
(249.422 0.0742124 1.6385e-19)
(242.201 0.0647106 1.77552e-19)
(236.025 0.0165185 0)
(229.641 -0.00218547 -1.9347e-19)
(224.013 -0.0582135 1.97681e-19)
(218.338 -0.0918616 2.08087e-19)
(213.191 -0.160588 0)
(208.064 -0.220063 2.23221e-19)
(203.397 -0.30557 2.3149e-19)
(198.713 -0.391414 0)
(194.531 -0.484608 -4.95229e-19)
(190.257 -0.591853 5.09465e-19)
(186.568 -0.677631 2.63963e-19)
(182.712 -0.796295 2.70822e-19)
(179.537 -0.854369 0)
(176.138 -0.974315 2.87364e-19)
(173.499 -0.974916 2.97682e-19)
(170.625 -1.08218 0)
(168.557 -0.98072 0)
(166.288 -1.05816 3.21245e-19)
(164.823 -0.809525 -6.65587e-19)
(163.23 -0.844307 -3.38091e-19)
(162.406 -0.434634 6.99409e-19)
(161.512 -0.384209 0)
(99.9006 -0.0482129 0)
(100.654 -0.236084 -3.50763e-18)
(102.708 -0.383852 0)
(105.262 -0.423221 0)
(107.838 -0.408724 1.68726e-18)
(110.284 -0.389955 0)
(112.704 -0.379849 -1.63997e-18)
(115.102 -0.373444 0)
(117.517 -0.369629 0)
(119.942 -0.366863 0)
(122.398 -0.366167 0)
(124.89 -0.366242 -1.50171e-18)
(127.431 -0.368076 -1.47275e-18)
(130.028 -0.370325 0)
(132.694 -0.374366 0)
(135.435 -0.378528 1.38342e-18)
(138.263 -0.384631 0)
(141.188 -0.390597 -1.3219e-18)
(144.22 -0.398581 0)
(147.37 -0.40623 1.25874e-18)
(150.651 -0.415828 1.22659e-18)
(154.07 -0.425002 0)
(157.66 -0.435968 -4.49401e-26)
(161.381 -0.446642 0)
(165.381 -0.458635 -1.49506e-25)
(169.395 -0.470767 0)
(173.978 -0.483535 -1.0313e-18)
(178.247 -0.497023 -9.82653e-19)
(183.593 -0.510222 -9.64042e-19)
(188.19 -0.52598 1.47357e-25)
(194.344 -0.541017 8.90228e-19)
(199.501 -0.564734 0)
(206.546 -0.584149 0)
(212.344 -0.617583 -7.62998e-19)
(220.719 -0.642057 -1.56756e-24)
(227.029 -0.688179 6.77182e-19)
(237.316 -0.716908 0)
(244.19 -0.782081 0)
(256.913 -0.814861 6.11794e-19)
(264.598 -0.900084 5.07666e-19)
(280.397 -0.933088 -5.39163e-19)
(289.133 -1.0317 4.20655e-19)
(308.827 -1.04202 9.36723e-19)
(318.719 -1.14337 0)
(343.213 -1.09655 -3.25319e-24)
(354.214 -1.15824 -2.28961e-19)
(384.39 -1.00925 0)
(396.613 -1.0909 0)
(433.821 -0.971615 2.58655e-19)
(448.583 -1.15606 -5.32173e-21)
(491.957 -1.08429 0)
(509.515 -1.1046 0)
(546.727 -0.926277 2.57277e-19)
(559.842 0.228447 4.6894e-25)
(539.902 0.411958 4.49042e-20)
(534.218 0.654707 -9.21109e-20)
(499.738 1.02662 0)
(487.562 0.942329 0)
(455.286 1.00274 0)
(443.351 0.878671 8.9634e-20)
(416.131 0.913458 0)
(405.301 0.782901 -2.74516e-21)
(383.095 0.770282 0)
(373.276 0.690821 0)
(355.051 0.676953 -8.80084e-20)
(345.829 0.589545 0)
(330.617 0.554907 -1.02682e-19)
(321.81 0.451645 8.26061e-20)
(308.928 0.437947 2.35964e-19)
(300.528 0.357386 -1.04096e-19)
(289.493 0.359318 -2.66125e-19)
(281.497 0.298276 3.75119e-19)
(272.015 0.30803 0)
(264.49 0.263711 -1.46182e-19)
(256.279 0.266155 3.21004e-19)
(249.424 0.216521 0)
(242.203 0.203276 -1.77553e-19)
(236.028 0.150638 0)
(229.643 0.128232 0)
(224.016 0.0686979 -1.97681e-19)
(218.339 0.031656 0)
(213.193 -0.0399338 -4.29954e-19)
(208.065 -0.102716 2.23216e-19)
(203.398 -0.190916 0)
(198.715 -0.280248 0)
(194.532 -0.376415 2.47613e-19)
(190.258 -0.487646 -7.64187e-19)
(186.569 -0.577101 0)
(182.713 -0.700387 2.70819e-19)
(179.537 -0.763287 0)
(176.139 -0.888626 -5.7473e-19)
(173.5 -0.895699 2.97673e-19)
(170.628 -1.0092 0)
(168.56 -0.916242 0)
(166.292 -1.00082 -3.21239e-19)
(164.828 -0.762693 3.32781e-19)
(163.237 -0.805497 0)
(162.414 -0.407946 3.49664e-19)
(161.521 -0.368786 0)
(99.9007 -0.0618797 0)
(100.654 -0.304837 3.50751e-18)
(102.707 -0.495235 1.71794e-18)
(105.261 -0.545548 1.70276e-18)
(107.836 -0.526712 -1.68718e-18)
(110.283 -0.502576 0)
(112.703 -0.489613 3.27981e-18)
(115.101 -0.481388 1.61327e-18)
(117.516 -0.476445 0)
(119.941 -0.472836 0)
(122.398 -0.471815 -1.53023e-18)
(124.889 -0.471848 1.50168e-18)
(127.431 -0.474048 1.47272e-18)
(130.028 -0.476912 0)
(132.693 -0.481894 1.41358e-18)
(135.435 -0.487232 -1.3834e-18)
(138.263 -0.494785 -1.35286e-18)
(141.188 -0.502425 1.32188e-18)
(144.22 -0.512326 0)
(147.37 -0.522121 -2.51746e-18)
(150.652 -0.534093 4.20692e-25)
(154.07 -0.545881 0)
(157.661 -0.559688 1.91722e-25)
(161.382 -0.57345 1.12669e-18)
(165.382 -0.588783 5.49373e-26)
(169.396 -0.604515 0)
(173.98 -0.621143 9.76208e-26)
(178.248 -0.638918 0)
(183.594 -0.656401 0)
(188.191 -0.677498 4.67702e-25)
(194.345 -0.697035 -8.90217e-19)
(199.503 -0.727574 0)
(206.548 -0.75185 0)
(212.346 -0.793693 7.6299e-19)
(220.722 -0.823787 -1.49984e-18)
(227.031 -0.880077 -6.77177e-19)
(237.319 -0.915444 0)
(244.192 -0.99331 -5.92056e-19)
(256.916 -1.03354 -6.1179e-19)
(264.6 -1.13461 -1.01532e-18)
(280.4 -1.17542 -2.94675e-26)
(289.135 -1.2923 2.30818e-24)
(308.83 -1.30969 -4.68361e-19)
(318.721 -1.42994 3.28763e-19)
(343.217 -1.38805 7.99498e-19)
(354.214 -1.46684 -2.28974e-19)
(384.392 -1.32157 0)
(396.611 -1.41984 0)
(433.82 -1.30947 0)
(448.572 -1.49421 0)
(491.95 -1.42726 0)
(509.49 -1.37732 0)
(546.716 -1.16441 -1.28674e-19)
(559.838 0.259483 -1.40196e-20)
(539.874 0.520239 -8.98745e-20)
(534.211 0.848061 1.84272e-19)
(499.719 1.25325 0)
(487.559 1.1791 -1.22656e-19)
(455.274 1.24137 0)
(443.349 1.10848 2.03474e-24)
(416.128 1.13927 -1.23896e-19)
(405.304 0.994774 2.74525e-21)
(383.096 0.977641 1.49707e-19)
(373.279 0.885811 6.25714e-20)
(355.053 0.869738 1.76024e-19)
(345.834 0.772353 1.17357e-19)
(330.622 0.736924 -2.05364e-19)
(321.815 0.625448 1.65214e-19)
(308.932 0.610855 -1.13429e-24)
(300.533 0.523656 0)
(289.498 0.524075 5.3226e-19)
(281.502 0.457372 -1.6371e-24)
(272.02 0.464699 0)
(264.494 0.414823 -2.92363e-19)
(256.284 0.413842 -3.21009e-19)
(249.428 0.358836 -3.27694e-19)
(242.207 0.341844 3.55104e-19)
(236.032 0.284758 3.60218e-19)
(229.646 0.258653 0)
(224.019 0.19561 0)
(218.342 0.155178 0)
(213.196 0.0807174 5.9175e-24)
(208.068 0.0146307 -8.92875e-19)
(203.401 -0.0762649 0)
(198.717 -0.169082 0)
(194.534 -0.268223 -4.95214e-19)
(190.26 -0.38344 5.09457e-19)
(186.571 -0.476573 0)
(182.714 -0.604481 -5.4164e-19)
(179.539 -0.672214 0)
(176.141 -0.802947 -1.90215e-24)
(173.502 -0.816503 -5.9535e-19)
(170.631 -0.936233 0)
(168.563 -0.851797 0)
(166.298 -0.943515 0)
(164.833 -0.715898 0)
(163.245 -0.766718 0)
(162.422 -0.381277 -2.02095e-23)
(161.531 -0.353371 0)
(99.9007 -0.0755356 0)
(100.653 -0.37356 1.75368e-18)
(102.706 -0.606599 -1.71784e-18)
(105.259 -0.667874 -1.70266e-18)
(107.835 -0.644704 -1.6871e-18)
(110.282 -0.615201 0)
(112.702 -0.599379 -1.63985e-18)
(115.1 -0.589336 -1.61322e-18)
(117.515 -0.583265 0)
(119.94 -0.578814 3.1166e-18)
(122.397 -0.577469 1.53019e-18)
(124.889 -0.577458 -3.0033e-18)
(127.43 -0.580024 2.9454e-18)
(130.028 -0.583504 0)
(132.693 -0.589428 -1.41356e-18)
(135.435 -0.595941 -2.76676e-18)
(138.263 -0.604943 4.05852e-18)
(141.188 -0.614258 0)
(144.221 -0.626076 0)
(147.371 -0.638016 1.25871e-18)
(150.653 -0.652363 -1.22657e-18)
(154.071 -0.666766 0)
(157.662 -0.683412 1.16148e-18)
(161.383 -0.700263 -1.12668e-18)
(165.383 -0.718933 -1.09612e-18)
(169.397 -0.738271 0)
(173.981 -0.758755 1.03128e-18)
(178.249 -0.780822 0)
(183.596 -0.802588 0)
(188.193 -0.829021 -9.11162e-19)
(194.348 -0.85307 0)
(199.506 -0.89042 0)
(206.551 -0.91956 0)
(212.349 -0.969816 -7.62987e-19)
(220.725 -1.00552 2.24975e-18)
(227.034 -1.07199 6.77176e-19)
(237.323 -1.11399 0)
(244.195 -1.20454 1.77617e-18)
(256.92 -1.25222 -1.22359e-18)
(264.603 -1.36913 5.07666e-19)
(280.404 -1.41775 5.39165e-19)
(289.138 -1.55291 -4.20663e-19)
(308.834 -1.57736 -9.36747e-19)
(318.723 -1.71651 -3.28773e-19)
(343.221 -1.67955 -1.1993e-18)
(354.215 -1.77543 6.86967e-19)
(384.395 -1.63387 0)
(396.607 -1.74875 0)
(433.819 -1.64727 5.1737e-19)
(448.558 -1.83231 0)
(491.943 -1.77014 0)
(509.46 -1.64996 0)
(546.702 -1.40261 0)
(559.83 0.290592 2.80726e-20)
(539.84 0.628498 8.99459e-20)
(534.202 1.04136 -1.84369e-19)
(499.695 1.47984 0)
(487.554 1.41582 1.2267e-19)
(455.261 1.47997 0)
(443.347 1.33823 -5.97664e-20)
(416.124 1.36504 1.23908e-19)
(405.307 1.20662 -2.74598e-21)
(383.096 1.185 -1.49718e-19)
(373.284 1.08079 -6.25742e-20)
(355.056 1.06252 -7.00828e-25)
(345.84 0.955149 -1.10795e-24)
(330.628 0.918941 4.10742e-19)
(321.822 0.799258 -1.6522e-19)
(308.938 0.78377 -2.35981e-19)
(300.54 0.689932 0)
(289.504 0.688841 -1.43797e-24)
(281.509 0.616478 -2.50086e-19)
(272.026 0.62138 0)
(264.5 0.565943 1.82069e-24)
(256.289 0.561536 3.2101e-19)
(249.434 0.501164 2.10862e-24)
(242.212 0.480421 -4.44387e-24)
(236.037 0.418889 -3.60225e-19)
(229.651 0.389086 0)
(224.024 0.322534 3.95355e-19)
(218.347 0.278711 0)
(213.2 0.201377 4.29954e-19)
(208.072 0.131986 8.92874e-19)
(203.404 0.0383944 -4.6296e-19)
(198.721 -0.0579065 0)
(194.537 -0.160022 9.90426e-19)
(190.263 -0.279224 5.0945e-19)
(186.573 -0.376038 5.27903e-19)
(182.717 -0.508571 5.41637e-19)
(179.541 -0.581143 0)
(176.144 -0.717274 5.74729e-19)
(173.504 -0.737321 5.95334e-19)
(170.635 -0.863292 0)
(168.567 -0.787379 0)
(166.304 -0.886241 6.42497e-19)
(164.839 -0.669138 -6.65489e-19)
(163.254 -0.727988 0)
(162.431 -0.354629 -1.39852e-18)
(161.541 -0.337981 0)
(99.9007 -0.0891821 0)
(100.653 -0.442258 6.15268e-24)
(102.705 -0.717944 0)
(105.258 -0.790196 3.40516e-18)
(107.834 -0.762699 3.37405e-18)
(110.281 -0.72783 0)
(112.701 -0.70915 0)
(115.099 -0.697287 0)
(117.515 -0.690089 0)
(119.94 -0.684795 -3.11652e-18)
(122.397 -0.683127 0)
(124.888 -0.683073 6.00647e-18)
(127.43 -0.686006 3.23451e-24)
(130.028 -0.690101 0)
(132.693 -0.696967 0)
(135.435 -0.704655 -2.81023e-24)
(138.264 -0.715107 -2.70564e-18)
(141.189 -0.726096 0)
(144.221 -0.739832 0)
(147.371 -0.753918 0)
(150.653 -0.770638 0)
(154.072 -0.787657 0)
(157.663 -0.807142 -2.32293e-18)
(161.384 -0.827085 0)
(165.385 -0.849089 0)
(169.399 -0.872037 0)
(173.983 -0.896372 0)
(178.251 -0.922736 -1.96526e-18)
(183.599 -0.948786 0)
(188.195 -0.980554 1.82232e-18)
(194.351 -1.00912 0)
(199.509 -1.05327 -1.68275e-18)
(206.554 -1.08728 -1.63289e-18)
(212.352 -1.14595 0)
(220.729 -1.18726 -1.49984e-18)
(227.037 -1.26391 -1.35437e-18)
(237.328 -1.31253 0)
(244.199 -1.41579 -1.18413e-18)
(256.925 -1.47091 2.44722e-18)
(264.607 -1.60367 0)
(280.409 -1.66009 0)
(289.141 -1.81352 0)
(308.839 -1.84504 9.3678e-19)
(318.726 -2.00308 0)
(343.226 -1.97103 7.99585e-19)
(354.216 -2.08402 -4.58018e-19)
(384.399 -1.94613 -6.61842e-19)
(396.603 -2.07763 0)
(433.818 -1.985 -5.17436e-19)
(448.542 -2.17034 0)
(491.934 -2.11292 -3.74771e-19)
(509.426 -1.9225 2.25382e-19)
(546.683 -1.64089 -2.5758e-19)
(559.82 0.321781 -5.62199e-20)
(539.801 0.736729 -9.00433e-20)
(534.189 1.23459 -1.19216e-23)
(499.668 1.70638 0)
(487.546 1.65247 0)
(455.245 1.71854 0)
(443.344 1.56793 5.97761e-20)
(416.119 1.59078 0)
(405.311 1.41844 2.74616e-21)
(383.098 1.39234 1.49724e-19)
(373.289 1.27575 6.25732e-20)
(355.061 1.25529 -1.76049e-19)
(345.848 1.13793 -1.17368e-19)
(330.636 1.10096 -2.05382e-19)
(321.83 0.973077 1.65227e-19)
(308.946 0.956694 0)
(300.549 0.856215 0)
(289.512 0.853617 -1.49287e-24)
(281.517 0.775596 -2.50091e-19)
(272.033 0.778077 0)
(264.508 0.717073 2.92374e-19)
(256.297 0.70924 -3.2102e-19)
(249.441 0.643505 3.27704e-19)
(242.219 0.61901 -3.5512e-19)
(236.044 0.553031 0)
(229.657 0.519533 0)
(224.03 0.44947 -3.95361e-19)
(218.352 0.402259 -4.16169e-19)
(213.205 0.322047 0)
(208.077 0.249353 -4.74595e-24)
(203.409 0.153065 4.62965e-19)
(198.725 0.0532821 0)
(194.541 -0.0518094 -4.95213e-19)
(190.267 -0.174995 -5.09453e-19)
(186.577 -0.275493 -5.27905e-19)
(182.72 -0.412652 -5.41639e-19)
(179.544 -0.490069 0)
(176.148 -0.631601 -5.74733e-19)
(173.508 -0.65815 -5.95333e-19)
(170.639 -0.790368 0)
(168.571 -0.722985 0)
(166.31 -0.829 -1.28499e-18)
(164.846 -0.622409 6.65474e-19)
(163.263 -0.689299 0)
(162.44 -0.327997 6.99221e-19)
(161.552 -0.322614 0)
(99.9008 -0.10282 0)
(100.652 -0.510933 -7.01401e-18)
(102.704 -0.829271 0)
(105.257 -0.912515 -3.405e-18)
(107.833 -0.880698 0)
(110.28 -0.840464 0)
(112.7 -0.818924 -3.27949e-18)
(115.099 -0.805243 0)
(117.514 -0.796917 0)
(119.939 -0.790782 3.11645e-18)
(122.396 -0.78879 3.06025e-18)
(124.888 -0.788694 3.87361e-24)
(127.43 -0.791994 -2.94529e-18)
(130.028 -0.796704 0)
(132.693 -0.804511 0)
(135.435 -0.813375 5.53338e-18)
(138.264 -0.825277 0)
(141.189 -0.837941 -2.64368e-18)
(144.222 -0.853594 2.58092e-18)
(147.372 -0.869827 0)
(150.654 -0.888921 0)
(154.073 -0.908555 -2.38765e-18)
(157.664 -0.930879 2.32293e-18)
(161.385 -0.953914 -2.25335e-18)
(165.386 -0.979252 0)
(169.4 -1.00581 0)
(173.986 -1.034 0)
(178.253 -1.06466 1.96526e-18)
(183.602 -1.09499 0)
(188.198 -1.1321 2.8191e-24)
(194.354 -1.16519 -1.78042e-18)
(199.512 -1.21614 1.68276e-18)
(206.558 -1.25501 1.6329e-18)
(212.357 -1.3221 1.526e-18)
(220.733 -1.369 0)
(227.042 -1.45584 1.35439e-18)
(237.333 -1.51109 0)
(244.203 -1.62704 0)
(256.93 -1.6896 -1.22364e-18)
(264.611 -1.83821 1.01539e-18)
(280.414 -1.90243 -1.0784e-18)
(289.145 -2.07414 8.4141e-19)
(308.845 -2.11272 0)
(318.729 -2.28966 -6.5764e-19)
(343.231 -2.26251 0)
(354.216 -2.39259 0)
(384.402 -2.25837 6.61913e-19)
(396.598 -2.40645 -2.40138e-19)
(433.817 -2.32265 -5.17511e-19)
(448.523 -2.50828 1.06394e-20)
(491.923 -2.45557 3.74861e-19)
(509.387 -2.19492 -4.51046e-19)
(546.661 -1.87924 2.57721e-19)
(559.806 0.353057 2.81522e-20)
(539.758 0.844924 0)
(534.173 1.42775 1.84572e-19)
(499.636 1.93285 0)
(487.536 1.88904 -2.45444e-19)
(455.228 1.95706 0)
(443.34 1.79754 -5.97827e-20)
(416.114 1.81646 0)
(405.315 1.63023 0)
(383.099 1.59968 -1.4974e-19)
(373.296 1.4707 -6.25779e-20)
(355.066 1.44805 0)
(345.857 1.3207 2.3475e-19)
(330.644 1.28298 4.10781e-19)
(321.84 1.1469 -1.65237e-19)
(308.955 1.12963 0)
(300.559 1.02251 0)
(289.521 1.01841 -2.66163e-19)
(281.527 0.934727 7.50303e-19)
(272.042 0.934788 0)
(264.517 0.868214 0)
(256.305 0.856958 6.42053e-19)
(249.45 0.785862 0)
(242.227 0.757615 7.10248e-19)
(236.051 0.687187 7.20468e-19)
(229.665 0.649995 -7.73899e-19)
(224.037 0.576422 0)
(218.359 0.525823 4.16179e-19)
(213.211 0.44273 -8.59899e-19)
(208.083 0.366733 -4.46444e-19)
(203.415 0.267749 0)
(198.73 0.164485 0)
(194.546 0.0564175 9.90412e-19)
(190.272 -0.0707508 -1.0189e-18)
(186.581 -0.174936 0)
(182.725 -0.316721 1.08328e-18)
(179.548 -0.39899 0)
(176.152 -0.545929 -5.74738e-19)
(173.512 -0.578986 1.19064e-18)
(170.644 -0.717457 0)
(168.576 -0.658612 0)
(166.317 -0.771787 6.42492e-19)
(164.853 -0.57571 1.33086e-18)
(163.272 -0.650649 0)
(162.45 -0.301383 0)
(161.563 -0.307268 0)
(99.9008 -0.116452 3.60417e-18)
(100.652 -0.579588 3.50679e-18)
(102.703 -0.940581 0)
(105.256 -1.03483 3.40488e-18)
(107.832 -0.998698 0)
(110.28 -0.9531 -3.33069e-18)
(112.7 -0.928701 6.55877e-18)
(115.098 -0.913202 -3.22616e-18)
(117.513 -0.903748 -3.17164e-18)
(119.938 -0.896772 -6.23276e-18)
(122.396 -0.894458 -3.06019e-18)
(124.888 -0.894321 -6.00626e-18)
(127.43 -0.897987 -2.94525e-18)
(130.028 -0.903313 0)
(132.694 -0.912063 2.82702e-18)
(135.435 -0.922102 -2.76666e-18)
(138.265 -0.935454 0)
(141.19 -0.949793 2.64365e-18)
(144.223 -0.967363 3.33062e-24)
(147.373 -0.985743 0)
(150.655 -1.00721 -2.45309e-18)
(154.075 -1.02946 2.38764e-18)
(157.666 -1.05462 2.28442e-24)
(161.387 -1.08075 4.50669e-18)
(165.388 -1.10942 2.19222e-18)
(169.402 -1.1396 0)
(173.988 -1.17163 0)
(178.256 -1.2066 0)
(183.605 -1.24121 0)
(188.201 -1.28366 -1.82233e-18)
(194.358 -1.32127 1.78044e-18)
(199.516 -1.37902 0)
(206.562 -1.42276 1.63293e-18)
(212.361 -1.49826 -3.05205e-18)
(220.738 -1.55076 1.49989e-18)
(227.046 -1.64779 0)
(237.338 -1.70965 1.36608e-18)
(244.208 -1.8383 -1.1842e-18)
(256.936 -1.9083 0)
(264.616 -2.07275 -2.03088e-18)
(280.42 -2.14479 2.15691e-18)
(289.149 -2.33477 -8.41462e-19)
(308.851 -2.38039 9.3691e-19)
(318.732 -2.57624 6.57697e-19)
(343.237 -2.55397 -7.99759e-19)
(354.217 -2.70114 4.58151e-19)
(384.406 -2.57057 -6.62009e-19)
(396.592 -2.73523 2.40178e-19)
(433.815 -2.6602 5.17608e-19)
(448.503 -2.84613 -5.80746e-25)
(491.911 -2.79809 -3.74962e-19)
(509.343 -2.46721 2.2568e-19)
(546.636 -2.11766 0)
(559.79 0.384425 -5.64045e-20)
(539.71 0.953081 1.80508e-19)
(534.154 1.62084 0)
(499.601 2.15924 -1.66301e-19)
(487.525 2.12552 2.45487e-19)
(455.209 2.19553 -2.0084e-19)
(443.336 2.02708 0)
(416.109 2.04208 0)
(405.32 1.84197 0)
(383.101 1.807 0)
(373.303 1.66563 0)
(355.072 1.64079 0)
(345.867 1.50345 -2.3477e-19)
(330.654 1.465 -4.10816e-19)
(321.851 1.32074 0)
(308.965 1.30257 0)
(300.57 1.18881 0)
(289.531 1.18321 0)
(281.537 1.09387 -1.00045e-18)
(272.052 1.09151 0)
(264.527 1.01937 0)
(256.315 1.00469 -6.42083e-19)
(249.459 0.928235 0)
(242.235 0.896237 -7.10279e-19)
(236.06 0.821357 -7.20493e-19)
(229.673 0.780474 7.73926e-19)
(224.045 0.70339 -7.90734e-19)
(218.366 0.649404 8.32363e-19)
(213.218 0.563428 1.12848e-23)
(208.09 0.484128 0)
(203.421 0.382447 0)
(198.737 0.275704 9.55188e-19)
(194.552 0.16466 -1.19574e-23)
(190.277 0.0335093 9.15802e-24)
(186.586 -0.0743656 1.05579e-18)
(182.729 -0.220779 -2.16656e-18)
(179.552 -0.307906 0)
(176.156 -0.460254 1.14948e-18)
(173.516 -0.49983 -1.19064e-18)
(170.65 -0.644558 0)
(168.582 -0.594261 0)
(166.324 -0.714601 -1.28502e-18)
(164.86 -0.529041 -1.33084e-18)
(163.281 -0.612037 0)
(162.459 -0.274783 0)
(161.574 -0.291942 0)
(99.9008 -0.130077 -3.60358e-18)
(100.652 -0.648223 3.50657e-18)
(102.702 -1.05188 3.43512e-18)
(105.255 -1.15714 7.1154e-24)
(107.831 -1.1167 0)
(110.279 -1.06574 3.33057e-18)
(112.699 -1.03848 -3.27928e-18)
(115.097 -1.02116 6.45214e-18)
(117.513 -1.01058 3.17156e-18)
(119.938 -1.00277 6.23262e-18)
(122.395 -1.00013 0)
(124.887 -0.999953 3.00308e-18)
(127.429 -1.00399 2.94521e-18)
(130.027 -1.00993 0)
(132.694 -1.01962 4.73655e-24)
(135.436 -1.03084 0)
(138.265 -1.04564 -2.70558e-18)
(141.19 -1.06165 0)
(144.223 -1.08114 -2.58089e-18)
(147.374 -1.10167 -2.51737e-18)
(150.657 -1.12551 4.90617e-18)
(154.076 -1.15038 -2.38765e-18)
(157.667 -1.17838 -2.32292e-18)
(161.389 -1.2076 -2.25335e-18)
(165.39 -1.2396 2.15379e-24)
(169.405 -1.2734 0)
(173.99 -1.30927 0)
(178.258 -1.34855 1.96529e-18)
(183.608 -1.38744 0)
(188.204 -1.43523 1.82236e-18)
(194.362 -1.47737 0)
(199.52 -1.54191 0)
(206.567 -1.59052 -1.63296e-18)
(212.366 -1.67443 3.05212e-18)
(220.743 -1.73252 -2.99986e-18)
(227.051 -1.83975 0)
(237.344 -1.90822 -2.02149e-24)
(244.213 -2.04958 1.18425e-18)
(256.942 -2.12701 1.22376e-18)
(264.621 -2.30731 1.0155e-18)
(280.427 -2.38714 -1.07852e-18)
(289.154 -2.5954 8.4154e-19)
(308.857 -2.64807 5.80992e-24)
(318.736 -2.86281 0)
(343.244 -2.84542 7.99854e-19)
(354.217 -3.00967 -4.58217e-19)
(384.41 -2.88272 6.6211e-19)
(396.585 -3.06395 0)
(433.812 -2.99765 0)
(448.48 -3.18388 -1.06444e-20)
(491.898 -3.14046 7.50148e-19)
(509.297 -2.73935 0)
(546.608 -2.35617 -5.16097e-19)
(559.771 0.41589 5.6501e-20)
(539.658 1.0612 -1.80765e-19)
(534.133 1.81384 0)
(499.562 2.38556 3.32718e-19)
(487.512 2.3619 2.4555e-19)
(455.188 2.43393 4.01756e-19)
(443.331 2.25652 -1.19605e-19)
(416.103 2.26764 2.479e-19)
(405.325 2.05367 0)
(383.104 2.01431 0)
(373.311 1.86053 1.25166e-19)
(355.079 1.83353 3.52208e-19)
(345.878 1.68619 2.3479e-19)
(330.665 1.64703 -4.10843e-19)
(321.863 1.49458 3.30524e-19)
(308.976 1.47552 0)
(300.582 1.35512 -4.16483e-19)
(289.542 1.34802 5.32392e-19)
(281.549 1.25303 5.00254e-19)
(272.062 1.24826 0)
(264.538 1.17053 -5.84805e-19)
(256.325 1.15244 0)
(249.47 1.07063 0)
(242.245 1.03488 7.10296e-19)
(236.07 0.955542 7.20511e-19)
(229.682 0.91097 0)
(224.054 0.830375 7.90759e-19)
(218.374 0.773002 -8.32388e-19)
(213.226 0.684142 8.59927e-19)
(208.097 0.601539 -8.92902e-19)
(203.428 0.49716 0)
(198.743 0.386939 -1.9104e-18)
(194.558 0.272918 -9.90427e-19)
(190.283 0.137786 1.01891e-18)
(186.591 0.0262194 -2.1116e-18)
(182.734 -0.124824 1.08329e-18)
(179.556 -0.216815 0)
(176.161 -0.374577 -1.14949e-18)
(173.521 -0.420681 0)
(170.655 -0.571671 0)
(168.587 -0.529929 0)
(166.332 -0.657443 1.285e-18)
(164.868 -0.4824 0)
(163.291 -0.573461 0)
(162.47 -0.248199 0)
(161.586 -0.276636 0)
(99.9008 -0.143698 3.60296e-18)
(100.652 -0.716843 -3.50632e-18)
(102.702 -1.16315 -3.435e-18)
(105.255 -1.27945 -3.40467e-18)
(107.83 -1.2347 0)
(110.278 -1.17838 0)
(112.698 -1.14826 -3.27919e-18)
(115.096 -1.12913 -6.45197e-18)
(117.512 -1.11742 3.17149e-18)
(119.937 -1.10877 -3.11625e-18)
(122.395 -1.10581 0)
(124.887 -1.10559 0)
(127.429 -1.10999 0)
(130.027 -1.11655 0)
(132.694 -1.12718 -2.82696e-18)
(135.436 -1.13957 -2.76662e-18)
(138.265 -1.15583 5.41112e-18)
(141.191 -1.17352 0)
(144.224 -1.19492 2.58089e-18)
(147.375 -1.2176 -4.3304e-24)
(150.658 -1.24381 -2.45308e-18)
(154.077 -1.2713 2.38764e-18)
(157.669 -1.30214 0)
(161.391 -1.33446 -4.50672e-18)
(165.392 -1.36979 -2.19223e-18)
(169.407 -1.40721 0)
(173.993 -1.44692 0)
(178.261 -1.49052 -1.96531e-18)
(183.611 -1.53369 0)
(188.207 -1.58682 1.82239e-18)
(194.366 -1.63349 3.56097e-18)
(199.524 -1.70481 3.36569e-18)
(206.572 -1.7583 -3.266e-18)
(212.37 -1.85061 -1.5261e-18)
(220.749 -1.9143 1.49998e-18)
(227.057 -2.03172 0)
(237.35 -2.10679 -4.09856e-18)
(244.219 -2.26086 0)
(256.949 -2.34572 -3.67148e-18)
(264.626 -2.54188 -2.03115e-18)
(280.433 -2.6295 0)
(289.159 -2.85603 -8.41612e-19)
(308.864 -2.91575 -9.37084e-19)
(318.739 -3.14939 -1.31573e-18)
(343.25 -3.13685 0)
(354.217 -3.31819 -9.16628e-19)
(384.414 -3.19483 -1.32447e-18)
(396.578 -3.3926 0)
(433.809 -3.33499 0)
(448.455 -3.52152 -2.12953e-20)
(491.884 -3.48269 -3.75193e-19)
(509.247 -3.01134 4.52133e-19)
(546.577 -2.59476 5.16432e-19)
(559.75 0.447458 -5.6613e-20)
(539.604 1.16927 0)
(534.109 2.00677 0)
(499.521 2.6118 -1.66416e-19)
(487.497 2.59817 -2.45592e-19)
(455.165 2.67226 -2.00916e-19)
(443.325 2.48587 1.1962e-19)
(416.097 2.49313 -4.95868e-19)
(405.329 2.26533 0)
(383.106 2.22159 0)
(373.319 2.05541 -3.90507e-24)
(355.086 2.02624 -3.52254e-19)
(345.889 1.8689 -2.34813e-19)
(330.676 1.82905 4.10885e-19)
(321.876 1.66843 -3.30554e-19)
(308.988 1.64848 0)
(300.594 1.52144 1.3662e-24)
(289.555 1.51284 -1.06487e-18)
(281.562 1.41221 -5.00284e-19)
(272.074 1.40501 -5.84989e-19)
(264.55 1.32172 5.84836e-19)
(256.336 1.3002 0)
(249.481 1.21303 0)
(242.256 1.17354 -7.10335e-19)
(236.08 1.08974 -4.94051e-24)
(229.692 1.04148 7.73965e-19)
(224.063 0.957379 7.90769e-19)
(218.383 0.896619 -8.324e-19)
(213.235 0.804872 0)
(208.105 0.718966 8.92926e-19)
(203.436 0.61189 0)
(198.751 0.498192 9.55216e-19)
(194.565 0.381194 -9.90419e-19)
(190.289 0.242081 0)
(186.597 0.12682 1.05581e-18)
(182.74 -0.0288554 0)
(179.561 -0.125717 0)
(176.167 -0.288896 1.14949e-18)
(173.526 -0.341536 0)
(170.661 -0.498795 0)
(168.593 -0.465617 0)
(166.339 -0.600311 0)
(164.876 -0.435788 0)
(163.301 -0.534923 0)
(162.48 -0.221629 0)
(161.597 -0.26135 0)
(99.9009 -0.157315 -3.60228e-18)
(100.652 -0.785447 0)
(102.701 -1.27442 0)
(105.254 -1.40174 0)
(107.829 -1.3527 0)
(110.277 -1.29102 0)
(112.697 -1.25804 3.27909e-18)
(115.096 -1.23709 3.2259e-18)
(117.511 -1.22426 3.17143e-18)
(119.937 -1.21477 6.23238e-18)
(122.394 -1.21149 0)
(124.887 -1.21123 6.00599e-18)
(127.429 -1.216 5.89027e-18)
(130.027 -1.22317 0)
(132.694 -1.23475 0)
(135.436 -1.24832 2.76659e-18)
(138.266 -1.26602 2.70555e-18)
(141.192 -1.28539 0)
(144.225 -1.30871 -2.58088e-18)
(147.376 -1.33354 2.51736e-18)
(150.659 -1.36213 0)
(154.079 -1.39223 0)
(157.671 -1.42591 4.64588e-18)
(161.392 -1.46132 4.50674e-18)
(165.394 -1.49999 -4.3845e-18)
(169.409 -1.54103 4.22428e-18)
(173.996 -1.58459 0)
(178.264 -1.6325 0)
(183.614 -1.67994 0)
(188.211 -1.73843 -3.64483e-18)
(194.37 -1.78961 -3.56104e-18)
(199.528 -1.86773 -3.36577e-18)
(206.577 -1.92609 3.26609e-18)
(212.375 -2.0268 3.05232e-18)
(220.754 -2.09609 0)
(227.062 -2.2237 0)
(237.356 -2.30537 2.73251e-18)
(244.224 -2.47216 -2.36879e-18)
(256.955 -2.56444 -2.20995e-24)
(264.631 -2.77645 2.0313e-18)
(280.44 -2.87186 0)
(289.163 -3.11667 0)
(308.871 -3.18341 -1.8744e-18)
(318.742 -3.43596 -2.16316e-23)
(343.256 -3.42826 1.60023e-18)
(354.217 -3.62667 9.16786e-19)
(384.418 -3.50689 1.32472e-18)
(396.569 -3.72119 4.80731e-19)
(433.806 -3.67222 1.03591e-18)
(448.429 -3.85905 2.13019e-20)
(491.868 -3.82475 0)
(509.194 -3.28316 -9.05025e-19)
(546.545 -2.83345 0)
(559.728 0.47913 5.67144e-20)
(539.546 1.2773 -1.81234e-19)
(534.084 2.19962 -3.70126e-19)
(499.477 2.83796 0)
(487.48 2.83432 0)
(455.141 2.91051 -2.00936e-19)
(443.318 2.71511 -1.1964e-19)
(416.091 2.71854 4.95924e-19)
(405.334 2.47692 -5.50089e-21)
(383.109 2.42885 0)