/*--------------------------------*- C++ -*----------------------------------*\
| =========                 |                                                 |
| \\      /  F ield         | OpenFOAM: The Open Source CFD Toolbox           |
|  \\    /   O peration     | Version:  2412                                  |
|   \\  /    A nd           | Website:  www.openfoam.com                      |
|    \\/     M anipulation  |                                                 |
\*---------------------------------------------------------------------------*/
FoamFile
{
    version     2.0;
    format      ascii;
    arch        "LSB;label=32;scalar=64";
    class       volScalarField;
    location    "1";
    object      epsilon;
}
// * * * * * * * * * * * * * * * * * * * * * * * * * * * * * * * * * * * * * //

dimensions      [0 2 -3 0 0 0 0];

internalField   nonuniform List<scalar> 
13077
(
418.342
470.994
538.083
627.391
751.983
917.602
1115.66
1324.73
1519.12
1683.95
1815.82
1922.09
2013.47
2101.92
2196.96
2306.37
2433.21
2576.23
2723.24
2853.5
2941.22
2980.82
2987.27
2991.85
3011.11
3057.21
3124.13
3216.96
3326.51
3466.37
3627.29
3834.46
4073.62
4385.78
4743.79
5215.2
5747.22
6458.87
7250.3
419.145
472.866
541.398
632.57
759.52
927.878
1128.65
1340.05
1536.07
1701.98
1834.7
1942.07
2035.19
2126.27
2224.92
2338.81
2470.69
2619.01
2771.46
2907.75
3001.95
3047.14
3056.49
3060.96
3077.83
3120.52
3183.62
3272.69
3378.41
3514.6
3671.77
3875.47
4111.21
4420.56
4776.12
5246.14
5777.49
6490.16
7283.8
8382.41
9599.7
11399.1
13471.8
16841.3
20957
27948.5
36574.1
51349
68605.7
96773.3
123842
165395
317534
426207
480374
512094
527471
540668
529431
508983
471322
435716
400511
376051
357920
347177
338707
331810
323762
419.967
474.786
544.804
637.895
767.272
938.451
1142.05
1355.87
1553.64
1720.75
1854.46
1963.08
2058.1
2152.03
2254.53
2373.22
2510.51
2664.5
2822.74
2965.27
3066.12
3117.14
3129.69
3134.26
3148.8
3188.02
3247.13
3332.24
3433.9
3566.2
3719.37
3919.37
4151.47
4457.81
4810.71
5279.2
5809.77
6523.41
7319.26
8422.86
9646.74
11456.3
13538.9
16920.7
21046.3
28053.9
36710.5
51574.3
69061
97781.4
125591
168214
323293
436600
494545
528372
544821
559140
548218
527651
488873
451764
414572
388302
368566
356668
347376
339933
331501
322299
311372
299370
286042
271966
257118
241934
226464
211026
195747
180846
166460
152719
139776
127661
116525
106280
97063.2
88668.3
81246.2
74437.6
68470.2
62839
57930.6
53074.1
48915.6
44590.1
41074.4
37278.4
34485
420.812
476.758
548.304
643.372
775.247
949.335
1155.85
1372.21
1571.86
1740.29
1875.13
1985.14
2082.25
2179.23
2285.86
2409.65
2552.74
2712.81
2877.18
3026.21
3133.88
3190.96
3207
3211.91
3224.21
3259.9
3314.86
3395.8
3493.17
3621.33
3770.27
3966.33
4194.54
4497.63
4847.68
5314.46
5844.12
6558.67
7356.72
8465.46
9696.14
11516.2
13609.3
17004.2
21140.3
28164.8
36852.6
51804
69519.5
98796.6
127372
171105
329183
447359
509249
545220
562730
578165
567574
546908
507030
468411
429179
401011
379559
366396
356184
348117
339242
329694
318468
306175
292563
278197
263064
247597
231855
216153
200624
185481
170863
156896
143733
131403
120056
109607
100193
91615.2
84021.7
77063.6
70963.5
65227.5
60229.4
55308.7
51092.1
46720.5
43154.8
39299.3
36435.7
421.679
478.782
551.902
649.007
783.453
960.541
1170.08
1389.1
1590.75
1760.64
1896.74
2008.32
2107.69
2207.94
2318.95
2448.18
2597.44
2764.03
2934.91
3090.7
3205.39
3268.78
3288.61
3294.13
3304.29
3336.39
3387.05
3463.61
3556.43
3680.22
3824.64
4016.5
4240.56
4540.18
4887.14
5352.03
5880.63
6596.01
7396.23
8510.23
9747.92
11578.9
13683
17091.7
21239.1
28281.2
37000.3
52038.1
69981
99817.5
129182
174066
335208
458491
524495
562644
581199
597739
587488
566743
525788
485655
444340
414194
390916
376378
365143
356372
346991
337054
325498
312892
298982
284317
268894
253142
237129
221166
205391
190011
175166
160979
147602
135062
123509
112861
103254
94494.9
86730.8
79623.3
73389.3
67547.5
62458.9
57475.7
53203.4
48793.4
45185.3
41284.5
38361
422.569
480.862
555.602
654.805
791.9
972.08
1184.75
1406.55
1610.33
1781.82
1919.34
2032.63
2134.46
2238.2
2353.86
2488.87
2644.71
2818.25
2996.06
3158.91
3280.83
3350.78
3374.7
3381.1
3389.25
3417.75
3463.95
3535.92
3623.94
3743.07
3882.7
4070.09
4289.72
4585.6
4929.22
5392.04
5919.39
6635.52
7437.89
8557.21
9802.1
11644.4
13760
17183.3
21342.8
28403.1
37153.8
52276.7
70445.2
100843
131022
177098
341370
470007
540295
580652
600228
617855
607949
587145
545137
503497
460063
427865
402654
386631
374269
364709
354756
344382
332462
319522
305298
290324
274607
258567
242283
226060
210041
194429
179362
164962
151377
138634
126881
116039
106242
97303.8
89370.4
82113.5
75744.3
69795.3
64614.4
59569
55241.9
50799.2
47154.3
43220.7
40246.8
423.482
482.997
559.407
660.773
800.595
983.965
1199.88
1424.58
1630.64
1803.87
1942.96
2058.15
2162.61
2270.07
2390.67
2531.8
2694.62
2875.57
3060.76
3231
3360.38
3437.13
3465.47
3473.05
3479.35
3504.24
3545.83
3612.99
3695.94
3810.14
3944.68
4127.3
4342.19
4634.06
4974.09
5434.61
5960.54
6677.29
7481.75
8606.47
9858.75
11712.7
13840.4
17279
21451.3
28530.6
37313.2
52519.9
70912.1
101872
132889
180201
347673
481917
556660
599250
619818
638505
628947
608100
565071
521934
476355
442039
414793
397174
383579
373142
362547
351686
339367
326066
311513
296220
280201
263869
247313
230833
214573
198732
183449
168841
155054
142115
130167
119136
109153
100040
91938.6
84532.4
78027
71969
66693.5
61584.9
57202.7
52730.8
49053.1
45096.9
42080.8
424.421
485.192
563.321
666.916
809.548
996.209
1215.48
1443.22
1651.7
1826.83
1967.65
2084.9
2192.2
2303.62
2429.44
2577.02
2747.26
2936.1
3129.12
3307.12
3444.22
3528.04
3561.12
3570.2
3574.82
3596.11
3632.96
3695.09
3772.7
3881.68
4010.8
4188.35
4398.17
4685.75
5021.89
5479.87
6004.18
6721.44
7527.92
8658.08
9917.91
11783.9
13924.2
17378.8
21564.8
28663.9
37478.7
52767.9
71381.5
102904
134782
183375
354120
494230
573600
618445
639969
659684
650469
629593
585576
540961
493221
456728
427349
408026
393089
381687
370377
358975
346216
332530
317628
302004
285675
269049
252220
235482
218984
202918
187425
172615
158632
145502
133366
122151
111987
102702
94434.5
86879.6
80236.9
74068.1
68695.4
63521.7
59082.6
54583.3
50874.9
46904.2
43852.7
425.386
487.448
567.349
673.242
818.769
1008.82
1231.58
1462.49
1673.53
1850.72
1993.44
2112.94
2223.29
2338.89
2470.22
2624.62
2802.7
2999.92
3201.27
3387.43
3532.52
3623.69
3661.86
3672.77
3675.92
3693.65
3725.62
3782.52
3854.49
3957.95
4081.32
4253.46
4457.89
4740.85
5072.79
5527.99
6050.44
6768.07
7576.49
8712.12
9979.65
11858
14011.4
17482.9
21683.4
28803
37650.3
53020.8
71853.4
103938
136701
186621
360713
506957
591126
638241
660680
681380
672500
651608
606639
560571
510663
471943
440341
419208
402820
390359
378259
366259
353020
338919
323648
307679
291033
274107
257002
240008
223273
206987
191286
176280
162108
148793
136475
125082
114742
105288
96857.4
89154.7
82374.2
76092.8
70620.1
65378.5
60880.2
56353.3
52615
48635.4
45553.8
426.378
489.768
571.495
679.757
828.266
1021.82
1248.19
1482.41
1696.18
1875.6
2020.39
2142.31
2255.92
2375.96
2513.09
2674.67
2861.02
3067.13
3277.32
3472.08
3625.48
3724.28
3767.88
3780.98
3782.9
3797.13
3824.13
3875.57
3941.62
4039.23
4156.5
4322.89
4521.55
4799.56
5126.97
5579.11
6099.46
6817.29
7627.54
8768.67
10044
11935.1
14102.2
17591.2
21807
28948
37828.2
53278.8
72327.9
104972
138642
189938
367457
520106
609246
658644
681948
703586
695026
674126
628243
580754
528681
487693
453784
430738
412791
399177
386208
373550
359787
345240
329578
313251
296277
279046
261662
244410
227440
210936
195033
179836
165480
151987
139493
127928
117417
107798
99207
91357.8
84439.5
78043.7
72468.4
67155.7
62595.1
58039.3
54270.1
50285.4
47177.5
427.398
492.154
575.764
686.469
838.051
1035.22
1265.32
1503.02
1719.67
1901.49
2048.53
2173.08
2290.15
2414.88
2558.11
2727.23
2922.29
3137.81
3357.4
3561.22
3723.27
3830.02
3879.4
3895.06
3896.02
3906.84
3928.77
3974.55
4034.38
4125.83
4236.62
4396.9
4589.39
4862.1
5184.62
5633.4
6151.38
6869.23
7681.19
8827.81
10111.1
12015.3
14196.5
17703.8
21935.8
29099
38012.5
53542
72804.8
106007
140605
193327
374356
533687
627969
679657
703771
726288
718027
697126
650369
601495
547270
503986
467693
442635
423021
408159
394239
380862
366528
351502
335426
318723
301412
283868
266202
248691
231486
214767
198665
183281
168747
155083
142419
130687
120010
110232
101483
93489.3
86433.4
79922
74241.6
68854.6
64228.1
59640.6
55838.8
51850.5
48718.5
428.447
494.608
580.159
693.385
848.135
1049.04
1283.01
1524.32
1744.04
1928.43
2077.92
2205.29
2326.05
2455.72
2605.35
2782.39
2986.61
3212.07
3441.6
3654.99
3826.08
3941.09
3996.62
4015.25
4015.53
4023.07
4039.87
4079.79
4133.11
4218.05
4321.98
4475.75
4661.67
4928.68
5245.94
5691.04
6206.36
6924.01
7737.55
8889.63
10181
12098.5
14294.4
17820.7
22069.8
29256.1
38203.4
53810.7
73284.3
107041
142589
196788
381411
547708
647300
701280
726144
749476
741486
720584
672995
622778
566424
520824
482082
454920
433532
417325
402371
388210
373255
357715
341199
324104
306442
288578
270625
252852
235413
218479
202182
186616
171909
158079
145251
133359
122522
112588
103686
95549.7
88357
81729.2
75941.6
70476.9
65780.7
61158.2
57320.8
53328.8
50173.5
429.526
497.134
584.687
700.513
858.527
1063.28
1301.26
1546.36
1769.31
1956.46
2108.59
2238.99
2363.67
2498.54
2654.89
2840.2
3054.04
3289.97
3530.04
3753.53
3934.06
4057.68
4119.74
4141.75
4141.69
4146.11
4157.73
4191.62
4238.12
4316.21
4412.88
4559.73
4738.65
4999.56
5311.13
5752.21
6264.54
6981.78
7796.71
8954.21
10253.7
12184.8
14395.9
17941.9
22208.9
29419.2
38400.9
54084.8
73766.2
108073
144591
200320
388628
562176
667246
723516
749062
773135
765383
744475
696097
644584
586133
538209
496963
467609
444344
426695
410622
395611
379983
363893
346908
329402
311375
293182
274935
256898
239223
222076
205586
189841
174966
160975
147989
135943
124951
114867
105815
97539.5
90211.4
83466.8
77570.3
72024.7
67255.1
62593.5
58716.8
54719.7
51540.6
430.638
499.734
589.352
707.861
869.241
1077.96
1320.1
1569.15
1795.52
1985.63
2140.6
2274.25
2403.07
2543.41
2706.78
2900.75
3124.66
3371.6
3622.8
3856.97
4047.39
4179.99
4248.97
4274.8
4274.76
4276.24
4282.68
4310.37
4349.77
4420.66
4509.64
4649.15
4820.6
5074.97
5380.43
5817.1
6326.1
7042.68
7858.8
9021.66
10329.4
12274.4
14501
18067.6
22353.4
29588.6
38605
54364.7
74250.8
109103
146610
203922
396009
577098
687810
746364
772519
797251
789696
768775
719649
666891
606386
556141
512345
480720
455478
436292
419013
403083
386728
370047
352565
334626
316219
297687
279139
260833
242920
225559
208877
192957
177918
163772
150634
138439
127298
117069
107872
99459.3
91997.7
85136.5
79129.9
73500.5
68653.8
63948.8
60028.8
56023.6
52819.3
431.782
502.412
594.16
715.438
880.288
1093.11
1339.56
1592.73
1822.71
2015.98
2174
2311.11
2444.32
2590.39
2761.1
2964.1
3198.53
3457.04
3719.99
3965.42
4166.22
4308.2
4384.51
4414.61
4414.97
4413.77
4415.04
4436.38
4468.4
4531.73
4612.59
4744.32
4907.81
5155.18
5454.06
5885.92
6391.22
7106.84
7923.95
9092.07
10408
12367.1
14609.9
18197.7
22503.1
29764.1
38816
54650.5
74738
110130
148644
207595
403558
592480
708995
769821
796507
821811
814403
793455
743622
689674
627165
574612
528234
494269
466955
446137
427565
410645
393507
376193
358182
339788
320985
302101
283244
264664
246508
228933
212060
195967
180767
166470
153185
140847
129563
119194
109855
101310
93717.1
86740
80622.6
74907
69979.8
65226.9
61259.3
57242.3
54010.2
432.961
505.17
599.116
723.252
891.68
1108.74
1359.65
1617.12
1850.9
2047.55
2208.83
2349.64
2487.47
2639.56
2817.92
3030.33
3275.74
3546.36
3821.67
4079
4290.69
4442.49
4526.55
4561.38
4562.57
4558.95
4555.13
4570.02
4594.37
4649.79
4722.1
4845.57
5000.59
5240.48
5532.27
5958.89
6460.07
7174.44
7992.28
9165.55
10489.7
12463.2
14722.5
18332.1
22658.1
29945.9
39033.8
54942.2
75227.9
111153
150691
211337
411279
608328
730801
793884
821018
846796
839482
818485
767986
712907
648451
593617
544636
508269
478795
456253
436300
418318
400338
382349
363775
344901
325683
306434
287258
268396
249995
232203
215137
198872
183515
169070
155643
143168
131745
121241
111767
103092
95370.8
88278.9
82050.7
76246.8
71236.3
66431.2
62411.4
58378.2
55115.1
434.176
508.012
604.227
731.313
903.432
1124.86
1380.4
1642.36
1880.15
2080.39
2245.16
2389.89
2532.6
2690.97
2877.3
3099.51
3356.35
3639.63
3927.94
4197.8
4420.95
4583.01
4675.26
4715.32
4717.8
4712.08
4703.27
4711.61
4728.05
4775.2
4838.51
4953.24
5099.26
5331.15
5615.32
6036.24
6532.86
7245.64
8063.92
9242.19
10574.5
12562.6
14838.8
18471
22818.4
30133.9
39258.5
55240
75720.7
112172
152749
215148
419174
624645
753228
818547
846042
872192
864907
843838
792709
736558
670222
613144
561552
522734
491018
466662
445241
426125
407243
388532
369360
349981
330327
310698
291192
272040
253387
235374
218114
201677
186164
171575
158009
145401
133846
123213
113607
104807
96959.9
89754.9
83416.2
77522.7
72426.4
67564.9
63488.7
59434.4
56136.5
435.428
510.941
609.498
739.632
915.557
1141.5
1401.83
1668.47
1910.49
2114.54
2283.03
2431.92
2579.76
2744.7
2939.33
3171.7
3440.43
3736.91
4038.86
4321.91
4557.1
4729.91
4830.82
4876.62
4880.86
4873.42
4859.76
4861.52
4869.82
4908.36
4962.2
5067.71
5204.15
5427.49
5703.49
6118.2
6609.79
7320.61
8139.03
9322.13
10662.6
12665.3
14958.9
18614.3
22984
30328.1
39490.1
55544
76216.2
113186
154817
219027
427247
641436
776274
843806
871569
897981
890656
869481
817758
760592
692453
633177
578982
537673
503640
477388
454412
434089
414243
394763
374955
355042
334931
314906
295056
275605
256692
238453
220997
204387
188718
173987
160287
147550
135866
125108
115376
106454
98485.7
91169.6
84721.4
78737.4
73553.3
68631.7
64494.9
60414.4
57077.8
436.719
513.961
614.937
748.217
928.069
1158.67
1423.97
1695.49
1941.96
2150.05
2322.51
2475.8
2629.03
2800.82
3004.06
3246.98
3528.05
3838.27
4154.48
4451.42
4699.26
4883.35
4993.39
5045.45
5051.98
5043.21
5024.9
5020.09
5020.03
5049.64
5093.57
5189.33
5315.62
5529.85
5797.06
6205.04
6691.09
7399.54
8217.75
9405.47
10754
12771.5
15082.8
18762.1
23154.8
30528.6
39728.6
55854.2
76714.7
114195
156893
222972
435502
658702
799933
869650
897588
924146
916704
895384
843099
784974
715116
653701
596920
553093
516681
488451
463839
442235
421362
401064
380581
360105
339513
319073
298865
279103
259921
241450
223793
207007
191182
176310
162477
149615
137808
126930
117075
108037
99949.4
92524.7
85968.4
79893.4
74620.2
69635.1
65433.9
61322.3
57942.7
438.052
517.076
620.55
757.08
940.983
1176.4
1446.84
1723.46
1974.59
2186.97
2363.63
2521.58
2680.47
2859.39
3071.58
3325.42
3619.26
3943.76
4274.86
4586.37
4847.52
5043.43
5163.11
5221.97
5231.33
5221.69
5199
5187.64
5179.07
5199.44
5232.99
5318.51
5434.04
5638.54
5896.34
6297.02
6776.97
7482.62
8300.25
9492.33
10848.8
12881.2
15210.5
18914.3
23330.9
30735.2
39973.9
56170.8
77216.3
115197
158974
226982
443941
676445
824200
896071
924085
950668
943026
921517
868698
809670
738181
674693
615360
569001
530154
499875
473545
450589
428625
407459
386260
365188
344090
323216
302633
282547
263086
244374
226509
209544
193561
178548
164585
151600
139673
128678
118706
109554
101352
93821.7
87159
80993.3
75630.1
70578.7
66309.8
62162.1
58735.4
439.427
520.29
626.344
766.232
954.316
1194.7
1470.47
1752.39
2008.44
2225.35
2406.48
2569.34
2734.14
2920.5
3141.95
3407.08
3714.12
4053.43
4400.06
4726.82
5001.95
5210.27
5340.12
5406.33
5419.09
5409.08
5382.31
5364.52
5347.29
5358.15
5380.88
5455.63
5559.78
5753.93
6001.65
6394.42
6867.69
7570.05
8386.67
9582.86
10947.1
12994.5
15342.1
19070.8
23512.2
30947.9
40226.2
56493.8
77720.9
116194
161059
231056
452567
694665
849067
923056
951049
977530
969597
947846
894517
834642
761615
696131
634290
585398
544074
511680
483555
459176
436058
413972
392015
370315
348682
327352
306376
285951
266199
247236
229156
212006
195862
180707
166613
153508
141463
130356
120270
111009
102696
95062.3
88295.3
82039.5
76585.9
71466
67126.5
62938.1
59460.2
440.847
523.608
632.327
775.685
968.083
1213.61
1494.9
1782.34
2043.54
2265.25
2451.09
2619.14
2790.13
2984.2
3215.23
3492.02
3812.71
4167.33
4530.09
4872.82
5162.6
5383.94
5524.51
5598.67
5615.41
5605.58
5575.09
5551.02
5525.07
5526.15
5537.64
5601.1
5693.23
5876.38
6113.31
6497.53
6963.49
7662.06
8477.21
9677.18
11049
13111.3
15477.5
19231.8
23698.7
31166.6
40485.2
56823.1
78228.7
117184
163146
235191
461385
713361
874523
950593
978464
1.00471e+06
996392
974342
920523
859851
785383
717987
653697
602285
558452
523885
493895
468023
443689
420630
397870
375507
353312
331502
310113
289333
269274
250050
231745
214403
198092
182792
168567
155342
143182
131965
121769
112403
103982
96248.2
89379.3
83034.2
77490.4
72300.2
67887.8
63654.4
60121.7
442.313
527.033
638.507
785.452
982.302
1233.13
1520.14
1813.34
2079.94
2306.71
2497.54
2671.04
2848.5
3050.58
3291.52
3580.32
3915.06
4285.5
4665.01
5024.38
5329.53
5564.52
5716.38
5799.07
5820.43
5811.35
5777.57
5747.44
5712.74
5703.85
5703.68
5755.33
5834.79
6006.27
6231.68
6606.67
7064.64
7758.86
8572.04
9775.43
11154.6
13231.9
15616.8
19397.1
23890.3
31391.3
40750.9
57158.8
78739.7
118167
165233
239385
470396
732531
900557
978667
1.00631e+06
1.0322e+06
1.02339e+06
1.00097e+06
946673
885258
809448
740233
673565
619656
573297
536511
504589
477159
451544
427461
403854
380792
358003
335688
313864
292710
272329
252828
234288
216745
200261
184812
170453
157108
144834
133510
123206
113738
105213
97381.2
90412.8
83979.8
78346.3
73084.6
68597.4
64315.4
60724.3
443.829
530.571
644.892
795.544
996.991
1253.3
1546.23
1845.42
2117.69
2349.78
2545.88
2725.11
2909.32
3119.7
3370.86
3672.03
4021.25
4407.99
4804.82
5181.52
5502.75
5752.06
5915.8
6007.63
6034.24
6026.54
5989.94
5954.04
5910.64
5891.6
5879.42
5918.76
5984.9
6144.01
6357.11
6722.16
7171.43
7860.7
8671.36
9877.78
11264
13356.1
15760
19566.7
24086.9
31621.8
41023.2
57500.7
79253.9
119143
167318
243638
479604
752173
927156
1.00726e+06
1.03459e+06
1.05997e+06
1.05056e+06
1.02771e+06
972933
910825
833773
762838
693873
637508
588617
549572
515661
486611
459655
434495
409995
386196
362780
339934
317651
296102
275381
255589
236799
219044
202379
186774
172278
158811
146422
134992
124584
115016
106390
98463.3
91397.9
84878.5
79156.2
73822.3
69259
64925.1
61272.5
445.396
534.227
651.492
805.976
1012.17
1274.13
1573.21
1878.63
2156.83
2394.53
2596.18
2781.41
2972.66
3191.64
3453.34
3767.23
4131.3
4534.82
4949.54
5344.25
5682.27
5946.57
6122.82
6224.42
6256.94
6251.27
6212.4
6171.07
6119.06
6089.79
6065.24
6091.8
6143.95
6289.99
6489.99
6844.34
7284.14
7967.82
8775.37
9984.37
11377.3
13484.1
15907.1
19740.6
24288.5
31858
41302
57848.9
79771.4
120112
169400
247946
489012
772280
954302
1.03636e+06
1.06326e+06
1.088e+06
1.07788e+06
1.05452e+06
999266
936511
858319
785767
714599
655828
604414
563085
527133
496406
468050
441762
416322
391747
367671
344264
321496
299531
278449
258347
239293
221313
204456
188688
174049
160457
147953
136417
125905
116240
107515
99496.7
92336.7
85732.5
79922.5
74516.1
69875.8
65487.3
61770.8
447.017
538.006
658.314
816.763
1027.86
1295.67
1601.09
1913
2197.42
2441.02
2648.51
2840.03
3038.59
3266.47
3539.01
3865.97
4245.28
4666.02
5099.19
5512.56
5868.08
6148.05
6337.45
6449.45
6488.56
6485.62
6445.06
6398.74
6338.3
6298.75
6261.55
6274.88
6312.4
6444.63
6630.71
6973.56
7403.08
8080.48
8884.27
10095.4
11494.7
13616
16058.1
19918.7
24494.9
32099.8
41587
58203.1
80292
121073
171476
252306
498622
792849
981979
1.06594e+06
1.09232e+06
1.11628e+06
1.10534e+06
1.08138e+06
1.02564e+06
962277
883047
808986
735717
674606
620691
577062
539028
506571
476760
449292
422866
397476
372705
348706
325427
303019
281554
261124
241787
223567
206506
190565
175777
162055
149433
137790
127175
117414
108592
100484
93231.6
86544.2
80647.9
75168.9
70451.3
66005.9
62223.3
448.694
541.913
665.369
827.918
1044.07
1317.92
1629.93
1948.58
2239.49
2489.29
2702.91
2901.03
3107.2
3344.26
3627.96
3968.3
4363.23
4801.62
5253.76
5686.43
6060.15
6356.51
6559.69
6682.76
6729.14
6729.65
6688.05
6637.22
6568.6
6518.8
6468.73
6468.41
6490.66
6608.37
6779.66
7110.19
7528.57
8198.95
8998.3
10210.9
11616.2
13751.8
16213.1
20101
24706.1
32346.9
41878.1
58563.3
80815.8
122027
173545
256717
508437
813871
1.01017e+06
1.09597e+06
1.12174e+06
1.14479e+06
1.1329e+06
1.10825e+06
1.05201e+06
988083
907915
832457
757200
693825
637445
591515
551366
517134
485815
457119
429660
403415
377912
353290
329468
306593
284721
263939
244300
225823
208543
192417
177470
163611
150868
139116
128397
118540
109624
101427
94084.9
87315.9
81334.7
75783.4
70988.4
66484.4
62634.1
450.43
545.955
672.668
839.458
1060.84
1340.93
1659.75
1985.41
2283.11
2539.41
2759.48
2964.48
3178.54
3425.08
3720.24
4074.29
4485.19
4941.65
5413.25
5865.83
6258.45
6571.89
6789.52
6924.31
6978.67
6983.37
6941.42
6886.65
6810.18
6750.24
6687.13
6672.8
6679.18
6781.64
6937.26
7254.6
7660.95
8323.53
9117.68
10331.3
11741.9
13891.5
16372
20287.4
24921.9
32599.3
42175.1
58929.1
81342.6
122973
175605
261176
518460
835340
1.03884e+06
1.12645e+06
1.15151e+06
1.1735e+06
1.16054e+06
1.13512e+06
1.07836e+06
1.01389e+06
932884
856144
779019
713468
654673
606451
564165
528120
495246
465275
436738
409597
383324
358045
333651
310278
287972
266815
246852
228098
210582
194257
179141
165137
152266
140401
129578
119625
110614
102330
94899.5
88050.3
81985.6
76362.5
71490.2
66926.2
63007.1
452.228
550.138
680.221
851.4
1078.18
1364.72
1690.6
2023.54
2328.33
2591.44
2818.26
3030.45
3252.71
3509.02
3815.93
4184
4611.2
5086.11
5577.65
6050.72
6462.91
6794.14
7026.9
7174.07
7237.12
7246.77
7205.2
7147.11
7063.22
6993.33
6917.09
6888.45
6878.38
6964.88
7103.94
7407.2
7800.56
8454.5
9242.66
10456.6
11872.1
14035.3
16534.8
20478
25142.2
32856.7
42477.7
59300.4
81872.3
123912
177655
265679
528692
857244
1.06798e+06
1.15734e+06
1.1816e+06
1.2024e+06
1.18825e+06
1.16195e+06
1.10464e+06
1.03967e+06
957913
880007
801141
733513
672368
621877
577443
539555
505082
473792
444133
416055
388975
363004
338003
314103
291334
269775
249463
230410
212640
196100
180801
166642
153636
141653
130722
120672
111567
103196
95678.3
88750.1
82603.3
76908.8
71959.7
67334.8
63346.1
454.091
554.469
688.038
863.76
1096.12
1389.32
1722.5
2063.01
2375.19
2645.44
2879.33
3099.01
3329.77
3596.13
3915.08
4297.48
4741.3
5235.03
5746.95
6241.06
6673.48
7023.18
7271.74
7431.98
7504.43
7519.8
7479.38
7418.66
7327.85
7248.3
7158.93
7115.72
7088.69
7158.52
7280.12
7568.38
7947.76
8592.19
9373.49
10587
12006.8
14183.3
16701.6
20672.5
25366.9
33118.8
42785.6
59676.8
82404.7
124842
179693
270224
539136
879574
1.09757e+06
1.18861e+06
1.21199e+06
1.23147e+06
1.216e+06
1.18873e+06
1.13083e+06
1.06537e+06
982963
904009
823533
753939
690519
637795
591215
551462
515355
482705
451880
422826
394899
368200
342559
318098
294835
272845
252157
232782
214736
197962
182464
168139
154988
142881
131837
121687
112486
104030
96424.8
89418.3
83190.4
77425.1
72399.8
67713.3
63654.5
456.022
558.954
696.133
876.557
1114.68
1414.77
1755.51
2103.87
2423.77
2701.48
2942.77
3170.25
3409.79
3686.5
4017.77
4414.77
4875.52
5388.41
5921.12
6436.79
6890.07
7258.92
7523.96
7697.93
7780.49
7802.37
7763.9
7701.31
7604.14
7515.31
7412.9
7354.98
7310.5
7363.02
7466.25
7738.56
8102.93
8736.9
9510.44
10722.9
12146.2
14335.4
16872.3
20870.9
25595.9
33385.5
43098.4
60058
82939.5
125765
181717
274807
549795
902319
1.12756e+06
1.22024e+06
1.24266e+06
1.26069e+06
1.24378e+06
1.21542e+06
1.15691e+06
1.09097e+06
1.00799e+06
928109
846162
774719
709115
654207
605493
563863
526092
492047
460016
429946
401132
373668
347350
322295
298505
276052
254960
235234
216888
199860
184146
169639
156333
144093
132931
122677
113379
104834
97142.7
90058.2
83750.1
77914.4
72813.5
68064.8
63936
458.026
563.601
704.518
889.811
1133.9
1441.09
1789.65
2146.18
2474.11
2759.62
3008.63
3244.24
3492.85
3780.19
4124.05
4535.93
5013.9
5546.25
6100.15
6637.86
7112.58
7501.26
7783.44
7971.82
8065.2
8094.38
8058.68
7995
7892.15
7794.49
7679.24
7606.54
7544.22
7578.79
7662.77
7918.16
8266.44
8888.98
9653.78
10864.2
12290.5
14491.9
17047
21073.2
25829
33656.5
43416
60443.6
83476.4
126681
183726
279425
560670
925465
1.15795e+06
1.25219e+06
1.27359e+06
1.29004e+06
1.27156e+06
1.24202e+06
1.18283e+06
1.11643e+06
1.03297e+06
952269
868993
795829
728141
671111
620289
576779
537322
501850
468575
437451
407710
379443
352411
326726
302374
279425
257896
237791
219118
201812
185863
171157
157683
145300
134012
123648
114249
105615
97836.3
90673.5
84285.6
78379.7
73203.7
68392.6
64193.7
460.105
568.418
713.206
903.542
1153.79
1468.33
1824.99
2189.97
2526.28
2819.92
3077
3321.05
3579.04
3877.27
4234
4661.02
5156.45
5708.57
6283.99
6844.2
7340.93
7750.06
8050.05
8253.5
8358.41
8395.67
8363.58
8299.65
8191.84
8085.92
7958.13
7870.68
7790.2
7806.25
7870.11
8107.62
8438.7
9048.78
9803.8
11011.4
12439.7
14652.7
17225.7
21279.3
26065.9
33931.5
43737.9
60833.2
84015.1
127588
185720
284074
571762
948999
1.18869e+06
1.28445e+06
1.30475e+06
1.31951e+06
1.29933e+06
1.26849e+06
1.20858e+06
1.14171e+06
1.05785e+06
976452
891991
817238
747579
688503
635610
590230
549071
512147
477593
445378
414673
385564
357779
331426
306474
282994
260993
240478
221448
203838
187631
172709
159050
146512
135090
124610
115105
106378
98510.3
91268.2
84800.6
78824.3
73573.6
68699.7
64431.2
462.263
573.414
722.211
917.77
1174.38
1496.53
1861.55
2235.31
2580.33
2882.47
3147.95
3400.75
3668.41
3977.82
4347.67
4790.07
5303.22
5875.36
6472.62
7055.73
7575
8005.19
8323.63
8542.8
8659.94
8706.05
8678.43
8615.12
8503.15
8389.63
8249.69
8147.63
8048.78
8045.81
8088.71
8307.37
8620.11
9216.64
9960.81
11164.7
12594.1
14818.1
17408.5
21489.1
26306.7
34210.2
44063.6
61226.2
84555.1
128487
187695
288752
583074
972905
1.21975e+06
1.31697e+06
1.33611e+06
1.34906e+06
1.32707e+06
1.29482e+06
1.23413e+06
1.1668e+06
1.08261e+06
1.00062e+06
915120
838919
767413
706377
651464
604232
561366
522969
487106
453764
422057
392068
363490
336430
310839
286789
264281
243320
223903
205960
189471
174310
160450
147742
136174
125569
115954
107129
99170.1
91846.9
85298.9
79251.7
73926.5
68989.3
64651.5
464.505
578.597
731.547
932.519
1195.71
1525.71
1899.39
2282.26
2636.33
2947.31
3221.55
3483.43
3761.06
4081.91
4465.12
4923.13
5454.22
6046.62
6665.99
7272.38
7814.67
8266.51
8604.01
8839.55
8969.59
9025.32
9003.01
8941.22
8825.95
8705.56
8554
8437.59
8320.24
8297.85
8319
8517.84
8811.08
9392.94
10125.1
11324.2
12753.9
14987.9
17595.2
21702.6
26551
34492.3
44392.9
61622.1
85095.9
129378
189652
293454
594606
997169
1.25111e+06
1.34972e+06
1.36765e+06
1.37868e+06
1.35476e+06
1.321e+06
1.25947e+06
1.19167e+06
1.10721e+06
1.02474e+06
938345
860843
787620
724724
667854
618801
574231
534347
497148
462649
429900
398993
369582
341773
315503
290844
267789
246346
226507
208200
191401
175978
161897
149003
137277
126537
116803
107875
99821.3
92414.5
85784.8
79665.8
74265.9
69264.8
64858.2
466.835
583.976
741.232
947.813
1217.82
1555.92
1938.57
2330.86
2694.35
3014.54
3297.87
3569.17
3857.06
4189.61
4586.4
5060.24
5609.47
6222.34
6864.08
7494.07
8059.82
8533.85
8891.02
9143.55
9287.15
9353.25
9337.09
9277.73
9160.06
9033.63
8871.07
8740.68
8604.86
8562.71
8561.37
8739.46
9012.01
9578.06
10297
11490.2
12919.2
15162.5
17786
21919.6
26798.7
34777.5
44725.1
62020.3
85637
130260
191589
298176
606361
1.02177e+06
1.28273e+06
1.38266e+06
1.39934e+06
1.40836e+06
1.38239e+06
1.34701e+06
1.28457e+06
1.21628e+06
1.13161e+06
1.04877e+06
961633
882978
808181
743533
684782
633948
587687
546310
507753
472067
438243
406378
376092
347494
320502
295191
271549
249583
229286
210582
193443
177731
163407
150309
138409
127523
117662
108624
100471
92976.5
86263.2
80070.6
74595.6
69529.8
65054.5
469.258
589.562
751.28
963.676
1240.72
1587.21
1979.12
2381.18
2754.44
3084.21
3377.01
3658.03
3956.47
4300.99
4711.59
5201.44
5768.99
6402.51
7066.82
7720.7
8310.32
8807.05
9184.45
9454.57
9612.37
9689.56
9680.39
9624.38
9505.25
9373.67
9200.83
9056.97
8902.81
8840.7
8816.24
8972.66
9223.35
9772.37
10476.8
11663.1
13090.3
15341.9
17980.9
22140
27049.6
35065.4
45059.9
62420.3
86177.8
131133
193504
302915
618338
1.0467e+06
1.31457e+06
1.41577e+06
1.43116e+06
1.43807e+06
1.40995e+06
1.37283e+06
1.30942e+06
1.24062e+06
1.1558e+06
1.07269e+06
984949
905296
829073
762794
702247
649686
601756
558886
518955
482056
447121
414261
383060
353629
325871
299865
275592
253063
232268
213131
195619
179590
164998
151675
139586
128539
118540
109384
101125
93539
86739.1
80470.8
74919.5
69787.8
65244.1
471.778
595.365
761.71
980.135
1264.47
1619.62
2021.1
2433.28
2816.69
3156.41
3459.02
3750.11
4059.39
4416.1
4840.73
5346.78
5932.8
6587.12
7274.18
7952.2
8566.04
9085.93
9484.11
9772.38
9945
10034
10032.6
9980.85
9861.24
9725.46
9543.19
9386.48
9214.25
9132.09
9083.94
9217.86
9445.49
9976.28
10664.9
11843
13267.2
15526.2
18179.8
22363.9
27303.5
35355.8
45396.8
62821.3
86717.4
131997
195396
307667
630539
1.07193e+06
1.34661e+06
1.44901e+06
1.46307e+06
1.46779e+06
1.43742e+06
1.39845e+06
1.33399e+06
1.26466e+06
1.17974e+06
1.09646e+06
1.00826e+06
927768
850273
782493
720249
666024
616456
572101
530787
492651
456574
422682
390524
360216
331648
304901
279952
256816
235481
215872
197952
181576
166689
153118
140820
129598
119448
110164
101792
94108.6
87218.5
80871.2
75242.2
70042.9
65430.7
474.402
601.397
772.54
997.218
1289.09
1653.2
2064.58
2487.22
2881.15
3231.21
3544
3845.48
4165.88
4535.04
4973.88
5496.28
6100.91
6776.14
7486.11
8188.47
8826.84
9370.31
9789.76
10096.7
10284.8
10386.2
10393.4
10346.8
10227.7
10088.7
9897.94
9729.12
9539.26
9437.09
9364.82
9475.43
9678.85
10190.2
10861.6
12030.3
13450.3
15715.5
18382.9
22591
27560.3
35648.3
45735.2
63222.6
87255.2
132852
197265
312428
642964
1.09744e+06
1.3788e+06
1.48234e+06
1.49505e+06
1.4975e+06
1.46478e+06
1.42387e+06
1.35829e+06
1.2884e+06
1.20341e+06
1.12005e+06
1.03154e+06
950364
871759
802616
738783
682968
631805
585981
543277
503887
466639
431678
398522
367294
337869
310334
284663
260873
238955
218833
200467
183709
168499
154654
142126
130711
120397
110974
102480
94692.5
87707.4
81277.3
75568.3
70299.2
65618
477.135
607.669
783.789
1014.95
1314.63
1688
2109.6
2543.07
2947.9
3308.68
3632.02
3944.22
4276.02