/*--------------------------------*- C++ -*----------------------------------*\
| =========                 |                                                 |
| \\      /  F ield         | OpenFOAM: The Open Source CFD Toolbox           |
|  \\    /   O peration     | Version:  2412                                  |
|   \\  /    A nd           | Website:  www.openfoam.com                      |
|    \\/     M anipulation  |                                                 |
\*---------------------------------------------------------------------------*/
FoamFile
{
    version     2.0;
    format      ascii;
    arch        "LSB;label=32;scalar=64";
    class       volScalarField;
    location    "1";
    object      k;
}
// * * * * * * * * * * * * * * * * * * * * * * * * * * * * * * * * * * * * * //

dimensions      [0 2 -2 0 0 0 0];

internalField   nonuniform List<scalar> 
13077
(
40.1926
43.6632
47.8899
53.1306
59.6824
67.2279
74.8066
81.257
85.7074
87.9947
88.4299
87.6101
86.1177
84.4556
82.9885
82.0082
81.7155
82.2432
83.5213
85.2753
87.0836
88.7673
90.4129
92.2946
94.5128
97.1442
100.087
103.421
107.032
111.123
115.534
120.615
126.065
132.449
139.203
147.27
155.638
165.912
176.385
40.2424
43.7751
48.0736
53.3889
60.0118
67.6154
75.228
81.6855
86.1198
88.3797
88.7883
87.9519
86.4563
84.8029
83.3499
82.3796
82.081
82.5791
83.8082
85.5124
87.2844
88.9396
90.5497
92.3851
94.554
97.1403
100.046
103.349
106.935
111.002
115.394
120.455
125.887
132.253
138.992
147.041
155.396
165.651
176.11
189.548
203.221
222.074
241.744
270.398
300.179
342.474
383.676
441.636
496.343
580.194
660.542
792.937
1182.25
1266.43
1162.37
1061.84
983.017
914.983
844.514
777.705
711.802
656.126
609.394
574.771
548.165
527.609
509.34
492.065
474.334
40.2935
43.8895
48.2612
53.6524
60.3475
68.0103
75.6577
82.1235
86.5434
88.7777
89.1616
88.3104
86.8138
85.1714
83.7354
82.7782
82.477
82.9483
84.1288
85.7806
87.512
89.1347
90.7065
92.4928
94.6096
97.1477
100.014
103.284
106.842
110.885
115.256
120.295
125.709
132.055
138.779
146.81
155.151
165.388
175.833
189.246
202.894
221.689
241.279
269.763
299.336
341.297
382.227
439.866
494.653
578.838
659.833
793.752
1186.77
1274.08
1171.3
1071.21
992.627
924.975
854.593
787.611
721.02
664.398
616.472
580.812
553.407
532.408
513.967
496.692
479.048
461.143
442.681
424.119
405.369
386.772
368.258
350.046
332.075
314.504
297.365
280.776
264.821
249.587
235.214
221.727
209.29
197.825
187.494
178.091
169.789
162.214
155.611
149.445
144.14
138.988
134.725
130.468
127.314
124.274
122.391
40.3457
44.0064
48.453
53.9214
60.6897
68.4126
76.0959
82.5713
86.9783
89.1889
89.5499
88.6859
87.1904
85.5615
84.1451
83.2044
82.9041
83.3515
84.4843
86.0814
87.7679
89.3541
90.8844
92.619
94.6805
97.1671
99.9909
103.224
106.754
110.77
115.118
120.135
125.531
131.856
138.565
146.577
154.905
165.122
175.555
188.942
202.568
221.305
240.814
269.129
298.494
340.118
380.769
438.073
492.924
577.422
659.074
794.512
1191.2
1281.77
1180.35
1080.71
1002.35
935.078
864.808
797.688
730.443
672.892
623.756
587.011
558.735
537.22
518.545
501.224
483.636
465.806
447.406
428.868
410.115
391.479
372.908
354.619
336.562
318.893
301.648
284.94
268.855
253.475
238.939
225.273
212.642
200.972
190.428
180.817
172.313
164.557
157.793
151.501
146.092
140.869
136.545
132.241
129.035
125.922
123.966
40.3992
44.126
48.6489
54.1959
61.0385
68.8224
76.5426
83.029
87.4248
89.6134
89.9535
89.0788
87.5864
85.9733
84.5795
83.6584
83.3626
83.7893
84.8758
86.4166
88.054
89.5995
91.0851
92.765
94.768
97.1997
99.9775
103.172
106.671
110.658
114.983
119.976
125.352
131.656
138.348
146.341
154.656
164.854
175.273
188.637
202.24
220.919
240.35
268.495
297.652
338.936
379.303
436.258
491.155
575.946
658.261
795.214
1195.54
1289.5
1189.53
1090.33
1012.17
945.279
875.146
807.919
740.062
681.602
631.247
593.375
564.158
542.056
523.082
505.668
488.103
470.328
451.981
433.464
414.707
396.036
377.413
359.052
340.915
323.155
305.812
288.995
272.789
257.274
242.588
228.754
215.938
204.073
193.324
183.508
174.804
166.865
159.936
153.51
147.989
142.689
138.299
133.949
130.691
127.514
125.487
40.454
44.2484
48.849
54.4761
61.3941
69.24
76.9982
83.4969
87.8832
90.0517
90.3727
89.4893
88.0022
86.4074
85.0389
84.1408
83.8532
84.2626
85.3045
86.7877
88.3723
89.8729
91.3102
92.9323
94.8734
97.2467
99.975
103.128
106.592
110.549
114.848
119.816
125.172
131.454
138.13
146.103
154.404
164.582
174.989
188.328
201.91
220.533
239.886
267.863
296.811
337.752
377.829
434.423
489.348
574.407
657.393
795.855
1199.77
1297.26
1198.83
1100.07
1022.09
955.566
885.592
818.29
749.866
690.524
638.948
599.911
569.69
546.93
527.589
510.033
492.455
474.714
456.408
437.906
419.145
400.441
381.768
363.34
345.129
327.285
309.852
292.935
276.618
260.979
246.152
232.161
219.172
207.121
196.175
186.16
177.257
169.135
162.036
155.471
149.83
144.447
139.983
135.584
132.274
129.038
126.944
40.5102
44.3735
49.0536
54.7621
61.7565
69.6654
77.4627
83.9751
88.3536
90.5039
90.808
89.9179
88.4383
86.8641
85.5237
84.6519
84.3762
84.7721
85.7717
87.1965
88.7247
90.1761
91.5616
93.1227
94.9984
97.3094
99.9845
103.092
106.52
110.444
114.717
119.658
124.992
131.251
137.909
145.862
154.149
164.307
174.702
188.017
201.578
220.145
239.423
267.23
295.97
336.565
376.349
432.567
487.502
572.806
656.467
796.434
1203.91
1305.06
1208.25
1109.91
1032.1
965.929
896.133
828.79
759.842
699.651
646.861
606.629
575.342
551.855
532.081
514.329
496.7
478.968
460.69
442.197
423.429
404.692
385.973
367.481
349.202
331.28
313.764
296.755
280.337
264.583
249.627
235.491
222.339
210.111
198.976
188.769
179.671
171.365
164.094
157.384
151.615
146.141
141.597
137.146
133.779
130.489
128.329
40.5677
44.5015
49.2626
55.0539
62.1259
70.0989
77.9363
84.4639
88.8363
90.9705
91.2597
90.365
88.8951
87.3439
86.0343
85.1921
84.9322
85.3184
86.2784
87.6446
89.1132
90.5113
91.8411
93.338
95.1445
97.3892
100.007
103.066
106.455
110.343
114.587
119.5
124.811
131.046
137.686
145.618
153.891
164.029
174.411
187.703
201.244
219.756
238.959
266.598
295.131
335.378
374.863
430.694
485.619
571.143
655.483
796.949
1207.94
1312.89
1217.8
1119.87
1042.19
976.358
906.756
839.402
769.981
708.977
654.984
613.535
581.128
556.845
536.57
518.567
500.847
483.098
464.831
446.339
427.561
408.79
390.027
371.476
353.133
335.139
317.546
300.453
283.942
268.084
253.008
238.738
225.434
213.04
201.725
191.332
182.043
173.555
166.109
159.25
153.347
147.773
143.141
138.633
135.205
131.863
129.636
40.6267
44.6325
49.4763
55.3518
62.5023
70.5403
78.4191
84.9634
89.3317
91.4517
91.7282
90.831
89.3729
87.8471
86.5712
85.7617
85.5215
85.9022
86.8255
88.1335
89.5398
90.8805
92.1509
93.5799
95.3135
97.4877
100.044
103.051
106.397
110.248
114.46
119.343
124.631
130.84
137.461
145.371
153.63
163.748
174.118
187.385
200.908
219.365
238.495
265.967
294.292
334.191
373.373
428.804
483.701
569.417
654.439
797.401
1211.86
1320.75
1227.46
1129.94
1052.36
986.842
917.448
850.112
780.267
718.493
663.317
620.636
587.058
561.915
541.07
522.762
504.907
487.112
468.839
450.337
431.544
412.74
393.933
375.325
356.921
338.86
321.197
304.027
287.432
271.478
256.293
241.898
228.452
215.902
204.416
193.845
184.371
175.703
168.082
161.069
155.027
149.346
144.618
140.046
136.551
133.156
130.861
40.6871
44.7665
49.6946
55.6558
62.886
70.9901
78.9112
85.4738
89.8398
91.9479
92.2137
91.3162
89.8722
88.3742
87.1346
86.3613
86.1446
86.524
87.414
88.6646
90.0064
91.2858
92.4929
93.8505
95.5072
97.6066
100.098
103.048
106.347
110.157
114.337
119.188
124.45
130.633
137.234
145.121
153.366
163.463
173.821
187.064
200.569
218.972
238.031
265.336
293.455
333.003
371.879
426.899
481.75
567.63
653.334
797.787
1215.68
1328.64
1237.24
1140.11
1062.59
997.37
928.193
860.905
790.688
728.188
671.857
627.935
593.144
567.079
545.597
526.927
508.892
491.02
472.72
454.198
435.384
416.543
397.692
379.03
360.569
342.445
324.716
307.476
290.803
274.762
259.477
244.968
231.391
218.696
207.047
196.305
186.652
177.808
170.013
162.844
156.656
150.862
146.029
141.387
137.818
134.368
132.002
40.7491
44.9036
49.9178
55.966
63.277
71.4481
79.413
85.9953
90.361
92.4593
92.7168
91.8211
90.3933
88.9255
87.7249
86.9909
86.8016
87.184
88.0446
89.2392
90.5148
91.7293
92.8693
94.1518
95.7275
97.7476
100.168
103.057
106.307
110.074
114.217
119.034
124.269
130.424
137.005
144.869
153.098
163.174
173.521
186.74
200.228
218.577
237.566
264.705
292.62
331.816
370.383
424.981
479.767
565.782
652.168
798.107
1219.4
1336.56
1247.13
1150.37
1072.89
1007.93
938.979
871.765
801.228
738.052
680.6
635.438
599.397
572.351
550.166
531.075
512.814
494.832
476.483
457.927
439.084
420.204
401.309
382.592
364.076
345.893
328.104
310.798
294.055
277.936
262.559
247.946
234.247
221.416
209.615
198.711
188.884
179.869
171.9
164.575
158.237
152.323
147.379
142.658
139.008
135.499
133.059
40.8127
45.044
50.1458
56.2827
63.6754
71.9147
79.9243
86.5281
90.8955
92.9863
93.2376
92.3461
90.9367
89.5014
88.3424
87.6508
87.4929
87.8828
88.7179
89.8586
91.0668
92.2131
93.2822
94.4859
95.9765
97.9126
100.258
103.082
106.278
109.997
114.102
118.883
124.089
130.215
136.774
144.613
152.827
162.881
173.217
186.412
199.884
218.18
237.1
264.075
291.786
330.631
368.886
423.052
477.755
563.874
650.941
798.361
1223
1344.5
1257.12
1160.73
1083.24
1018.51
949.791
882.675
811.871
748.071
689.538
643.144
605.824
577.747
554.793
535.224
516.687
498.561
480.138
461.534
442.653
423.728
404.787
386.017
367.447
349.207
331.361
313.995
297.188
280.997
265.538
250.829
237.018
224.061
212.116
201.058
191.066
181.883
173.745
166.262
159.772
153.732
148.669
143.862
140.124
136.55
134.031
40.8779
45.1877
50.379
56.6058
64.0815
72.3898
80.4455
87.0723
91.4436
93.5291
93.7767
92.8915
91.5027
90.1021
88.9874
88.3414
88.2185
88.6204
89.4344
90.5238
91.664
92.7392
93.7337
94.8549
96.2562
98.1036
100.368
103.122
106.26
109.928
113.992
118.734
123.91
130.005
136.541
144.355
152.553
162.585
172.909
186.08
199.536
217.78
236.634
263.445
290.955
329.448
367.389
421.114
475.714
561.907
649.652
798.547
1226.49
1352.46
1267.22
1171.18
1093.64
1029.11
960.615
893.618
822.601
758.231
698.665
651.054
612.435
583.277
559.494
539.388
520.526
502.218
483.697
465.028
446.098
427.123
408.132
389.307
370.684
352.389
334.489
317.067
300.201
283.945
268.41
253.615
239.702
226.627
214.549
203.346
193.195
183.852
175.546
167.906
161.263
155.092
149.904
145.003
141.169
137.525
134.921
40.9448
45.3348
50.6173
56.9356
64.4952
72.8737
80.9767
87.6282
92.0055
94.088
94.3342
93.4576
92.0917
90.7281
89.66
89.0627
88.9787
89.3971
90.1946
91.2357
92.3079
93.3096
94.2261
95.261
96.5688
98.3226
100.502
103.18
106.255
109.869
113.888
118.589
123.732
129.794
136.306
144.093
152.275
162.284
172.597
185.744
199.185
217.378
236.167
262.816
290.126
328.267
365.892
419.168
473.649
559.883
648.3
798.665
1229.87
1360.43
1277.42
1181.71
1104.08
1039.71
971.437
904.579
833.4
768.518
707.971
659.167
619.235
588.957
564.285
543.585
524.346
505.82
487.171
468.419
449.428
430.396
411.35
392.469
373.792
355.442
337.491
320.016
303.096
286.78
271.177
256.303
242.296
229.114
216.911
205.572
195.27
185.771
177.303
169.508
162.71
156.406
151.088
146.085
142.148
138.426
135.731
41.0135
45.4854
50.8608
57.2722
64.9168
73.3664
81.5179
88.196
92.5814
94.6634
94.9106
94.0448
92.7039
91.3795
90.3607
89.8148
89.7734
90.2128
90.9987
91.9949
92.9998
93.9261
94.7613
95.7065
96.9165
98.5718
100.66
103.258
106.265
109.819
113.79
118.447
123.555
129.582
136.07
143.829
151.994
161.979
172.281
185.403
198.831
216.972
235.699
262.187
289.299
327.089
364.397
417.216
471.559
557.805
646.886
798.714
1233.14
1368.42
1287.71
1192.32
1114.56
1050.3
982.243
915.539
844.25
778.915
717.445
667.478
626.231
594.796
569.181
547.831
528.164
509.38
490.574
471.719
452.653
433.555
414.45
395.509
376.776
358.373
340.37
322.845
305.873
289.503
273.838
258.892
244.799
231.519
219.2
207.733
197.288
187.641
179.016
171.068
164.116
157.675
152.222
147.112
143.064
139.257
136.465
41.084
45.6396
51.1098
57.6156
65.3463
73.8681
82.0694
88.7757
93.1715
95.2555
95.5061
94.6534
93.3397
92.0567
91.0894
90.5979
90.6026
91.0676
91.8467
92.802
93.741
94.5905
95.3414
96.1935
97.3016
98.8534
100.844
103.356
106.29
109.781
113.7
118.309
123.38
129.37
135.831
143.562
151.709
161.67
171.96
185.058
198.472
216.563
235.229
261.557
288.474
325.915
362.904
415.26
469.449
555.673
645.41
798.694
1236.3
1376.4
1298.08
1202.99
1125.06
1060.87
993.019
926.483
855.133
789.405
727.074
675.983
633.424
600.806
574.197
552.144
531.998
512.914
493.92
474.941
455.784
436.611
417.439
398.435
379.644
361.185
343.131
325.557
308.536
292.115
276.393
261.382
247.211
233.84
221.414
209.828
199.248
189.46
180.683
172.587
165.481
158.902
153.311
148.087
143.922
140.024
137.128
41.1564
45.7975
51.3643
57.9661
65.7838
74.3789
82.6313
89.3677
93.7761
95.8645
96.121
95.2838
93.9994
92.7599
91.8464
91.412
91.4663
91.9612
92.7385
93.6573
94.5323
95.3042
95.9684
96.7241
97.7263
99.1697
101.058
103.477
106.333
109.756
113.618
118.177
123.207
129.159
135.592
143.291
151.42
161.356
171.635
184.707
198.109
216.151
234.757
260.928
287.652
324.745
361.415
413.303
467.321
553.49
643.872
798.606
1239.34
1384.39
1308.53
1213.73
1135.58
1071.41
1003.75
937.393
866.031
799.97
736.845
684.674
640.817
606.996
579.349
556.54
535.864
516.441
497.225
478.098
458.835
439.574
420.328
401.255
382.401
363.885
345.779
328.156
311.088
294.619
278.845
263.774
249.531
236.077
223.552
211.855
201.149
191.227
182.303
174.062
166.806
160.089
154.357
149.015
144.726
140.73
137.723
41.2307
45.9593
51.6245
58.3237
66.2296
74.8989
83.2037
89.9719
94.3953
96.4908
96.7556
95.9362
94.6832
93.4892
92.6317
92.257
92.3642
92.8934
93.6741
94.561
95.3746
96.0686
96.644
97.3005
98.1928
99.523
101.303
103.624
106.395
109.744
113.546
118.05
123.037
128.947
135.35
143.018
151.127
161.038
171.305
184.352
197.742
215.734
234.283
260.299
286.832
323.578
359.931
411.345
465.176
551.259
642.273
798.447
1242.27
1392.37
1319.05
1224.53
1146.11
1081.92
1014.43
948.254
876.925
810.59
746.742
693.543
648.41
613.375
584.651
561.037
539.781
519.976
500.505
481.206
461.818
442.458
423.128
403.979
385.059
366.481
348.321
330.647
313.533
297.018
281.194
266.069
251.76
238.23
225.614
213.814
202.989
192.94
183.876
175.496
168.092
161.237
155.363
149.899
145.482
141.38
138.256
41.307
46.125
51.8905
58.6887
66.6837
75.4283
83.7868
90.5887
95.0295
97.1345
97.4103
96.6109
95.3913
94.2449
93.4455
93.1329
93.2962
93.864
94.6531
95.5131
96.2683
96.885
97.37
97.9247
98.7035
99.9156
101.581
103.798
106.478
109.748
113.484
117.93
122.871
128.737
135.108
142.742
150.831
160.714
170.97
183.991
197.37
215.313
233.807
259.668
286.014
322.417
358.452
409.389
463.018
548.982
640.614
798.219
1245.09
1400.34
1329.62
1235.38
1156.64
1092.38
1025.04
959.049
887.797
821.247
756.749
702.579
656.201
619.947
590.114
565.652
543.767
523.539
503.778
484.282
464.748
445.275
425.851
406.618
387.625
368.982
350.763
333.038
315.877
299.316
283.445
268.268
253.899
240.299
227.599
215.703
204.767
194.598
185.402
176.886
169.338
162.347
156.331
150.741
146.192
141.98
138.733
41.3855
46.2947
52.1624
59.0611
67.1463
75.9671
84.3807
91.2182
95.6787
97.7959
98.0852
97.3081
96.1241
95.027
94.2877
94.0395
94.262
94.8723
95.675
96.5133
97.2137
97.7542
98.1478
98.5984
99.2604
100.35
101.895
104.001
106.584
109.769
113.435
117.817
122.708
128.527
134.864
142.463
150.53
160.386
170.629
183.625
196.993
214.888
233.328
259.037
285.198
321.26
356.979
407.436
460.849
546.663
638.896
797.922
1247.79
1408.29
1340.24
1246.26
1167.18
1102.78
1035.56
969.764
898.629
831.921
766.849
711.771
664.186
626.718
595.752
570.401
547.842
527.148
507.062
487.342
467.642
448.041
428.51
409.185
390.111
371.397
353.116
335.335
318.124
301.518
285.6
270.375
255.949
242.285
229.506
217.523
206.482
196.201
186.878
178.234
170.546
163.42
157.263
151.546
146.861
142.533
139.157
41.4661
46.4686
52.4403
59.441
67.6174
76.5155
84.9855
91.8605
96.3431
98.4753
98.7806
98.0281
96.8816
95.8358
95.1584
94.9768
95.2612
95.918
96.7392
97.5611
98.2109
98.6769
98.9787
99.3234
99.8656
100.828
102.248
104.236
106.715
109.808
113.398
117.713
122.551
128.32
134.62
142.181
150.226
160.052
170.283
183.252
196.61
214.457
232.846
258.405
284.384
320.108
355.512
405.489
458.672
544.304
637.121
797.556
1250.38
1416.2
1350.91
1257.18
1177.7
1113.12
1046
980.383
909.403
842.592
777.024
721.104
672.359
633.691
601.574
575.3
552.022
530.824
510.377
490.404
470.517
450.77
431.12
411.692
392.53
373.737
355.387
337.547
320.283
303.629
287.665
272.393
257.913
244.189
231.338
219.273
208.135
197.749
188.306
179.538
171.715
164.458
158.16
152.315
147.493
143.043
139.535
41.549
46.6468
52.7244
59.8286
68.0973
77.0737
85.6013
92.5158
97.023
99.1728
99.4967
98.7711
97.6641
96.6713
96.0575
95.9445
96.2935
97.0004
97.845
98.656
99.2596
99.6536
99.8637
100.101
100.521
101.353
102.641
104.505
106.873
109.869
113.376
117.619
122.399
128.114
134.375
141.896
149.917
159.714
169.932
182.874
196.221
214.021
232.36
257.771
283.573
318.961
354.053
403.548
456.488
541.909
635.29
797.12
1252.85
1424.08
1361.59
1268.12
1188.21
1123.39
1056.33
990.892
920.1
853.241
787.255
730.566
680.714
640.867
607.589
580.363
556.327
534.585
513.741
493.488
473.39
453.481
433.696
414.155
394.894
376.014
357.589
339.683
322.362
305.657
289.645
274.326
259.795
246.014
233.095
220.953
209.724
199.24
189.683
180.798
172.845
165.46
159.024
153.051
148.09
143.516
139.872
41.6342
46.8294
53.0149
60.2241
68.586
77.6417
86.2283
93.1842
97.7186
99.8886
100.234
99.5373
98.4717
97.5334
96.9848
96.9423
97.3584
98.1189
98.9917
99.7971
100.36
100.684
100.804
100.933
101.229
101.926
103.077
104.81
107.06
109.952
113.371
117.536
122.253
127.911
134.13
141.61
149.605
159.37
169.574
182.488
195.826
213.579
231.87
257.135
282.762
317.819
352.602
401.615
454.302
539.482
633.405
796.617
1255.2
1431.92
1372.3
1279.07
1198.69
1133.59
1066.55
1001.28
930.704
863.85
797.524
740.139
689.241
648.245
613.806
585.605
560.774
538.451
517.176
496.614
476.281
456.191
436.257
416.59
397.218
378.242
359.734
341.755
324.37
307.609
291.547
276.179
261.597
247.762
234.779
222.566
211.252
200.675
191.011
182.014
173.936
166.427
159.857
153.756
148.655
143.955
140.171
41.7219
47.0165
53.3118
60.6276
69.0836
78.2196
86.8667
93.8659
98.4299
100.623
100.992
100.327
99.3044
98.4223
97.9404
97.9699
98.4553
99.2726
100.178
100.984
101.51
101.769
101.799
101.821
101.99
102.549
103.558
105.155
107.28
110.059
113.383
117.465
122.114
127.711
133.886
141.32
149.288
159.02
169.211
182.096
195.425
213.13
231.376
256.497
281.953
316.683
351.159
399.692
452.115
537.026
631.468
796.046
1257.45
1439.71
1383
1290.02
1209.15
1143.7
1076.65
1011.53
941.197
874.398
807.812
749.807
697.93
655.822
620.23
591.037
565.38
542.442
520.701
499.803
479.21
458.92
438.819
419.012
399.518
380.436
361.833
343.773
326.317
309.495
293.377
277.959
263.326
249.437
236.393
224.112
212.718
202.054
192.289
183.186
174.989
167.361
160.658
154.431
149.191
144.364
140.437
41.8121
47.2083
53.6153
61.0393
69.5904
78.8076
87.5164
94.561
99.1571
101.376
101.771
101.14
100.162
99.3379
98.924
99.027
99.5836
100.461
101.403
102.214
102.71
102.907
102.85
102.764
102.806
103.225
104.087
105.541
107.533
110.194
113.416
117.407
121.984
127.516
133.642
141.029
148.968
158.665
168.841
181.697
195.016
212.675
230.876
255.856
281.145
315.551
349.725
397.78
449.93
534.546
629.482
795.408
1259.58
1447.43
1393.7
1300.97
1219.56
1153.71
1086.62
1021.63
951.565
884.868
818.098
759.553
706.768
663.594
626.864
596.671
570.162
546.578
524.338
503.074
482.198
461.687
441.402
421.44
401.811
382.61
363.902
345.75
328.215
311.325
295.146
279.673
264.987
251.044
237.94
225.595
214.125
203.379
193.518
184.315
176.003
168.26
161.429
155.079
149.701
144.745
140.674
41.9049
47.4049
53.9256
61.4592
70.1064
79.4059
88.1778
95.2696
99.9004
102.148
102.572
101.976
101.046
100.28
99.9353
100.113
100.743
101.683
102.666
103.488
103.958
104.098
103.956
103.764
103.678
103.954
104.666
105.971
107.824
110.358
113.47
117.365
121.864
127.325
133.399
140.736
148.644
158.304
168.464
181.29
194.6
212.212
230.371
255.211
280.337
314.425
348.3
395.88
447.749
532.044
627.45
794.704
1261.6
1455.08
1404.37
1311.9
1229.93
1163.64
1096.45
1031.58
961.791
895.241
828.363
769.358
715.743
671.555
633.712
602.516
575.134
550.876
528.108
506.451
485.265
464.513
444.026
423.894
404.114
384.781
365.956
347.702
330.076
313.109
296.862
281.33
266.586
252.588
239.425
227.017
215.475
204.65
194.699
185.401
176.98
169.127
162.172
155.7
150.186
145.101
140.887
42.0003
47.6065
54.2428
61.8876
70.6319
80.0145
88.8508
95.9918
100.66
102.938
103.394
102.837
101.954
101.249
100.974
101.228
101.932
102.937
103.966
104.803
105.254
105.342
105.118
104.821
104.607
104.739
105.296
106.447
108.153
110.553
113.548
117.34
121.754
127.14
133.158
140.441
148.316
157.937
168.081
180.875
194.176
211.741
229.86
254.563
279.529
313.303
346.884
393.994
445.575
529.525
625.374
793.936
1263.51
1462.65
1415
1322.8
1240.25
1173.45
1106.14
1041.35
971.863
905.501
838.588
779.205
724.839
679.697
640.773
608.581
580.312
555.356
532.03
509.954
488.434
467.42
446.712
426.392
406.447
386.968
368.012
349.642
331.915
314.86
298.536
282.937
268.131
254.076
240.853
228.383
216.77
205.871
195.833
186.444
177.919
169.961
162.885
156.296
150.649
145.436
141.077
42.0987
47.8131
54.5671
62.3245
71.1668
80.6336
89.5355
96.7278
101.436
103.748
104.238
103.721
102.888
102.244
102.04
102.371
103.151
104.223
105.3
106.158
106.595
106.635
106.333
105.934
105.593
105.581
105.98
106.971
108.524
110.782
113.652
117.333
121.657
126.962
132.919
140.146
147.984
157.565
167.691
180.451
193.744
211.262
229.342
253.91
278.72
312.186
345.477
392.122
443.409
526.994
623.258
793.105
1265.31
1470.14
1425.58
1333.66
1250.51
1183.17
1115.68
1050.95
981.767
915.629
848.755
789.074
734.042
688.01
648.046
614.872
585.708
560.035
536.126
513.606
491.728
470.43
449.482
428.957
408.83
389.19
370.088
351.588
333.746
316.591
300.18
284.506
269.632
255.514
242.228
229.696
218.014
207.043
196.922
187.447
178.823
170.763
163.572
156.868
151.09
145.751
141.25
42.1999
48.025
54.8986
62.7703
71.7114
81.2632
90.2322
97.4777
102.228
104.577
105.104
104.628
103.847
103.265
103.133
103.541
104.398
105.54
106.668
107.552
107.98
107.978
107.603
107.103
106.637
106.48
106.719
107.546
108.938
111.048
113.784
117.347
121.573
126.792
132.684
139.849
147.648
157.186
167.293
180.02
193.303
210.774
228.817
253.252
277.911
311.073
344.08
390.265
441.254
524.454
621.104
792.213
1267
1477.53
1436.09
1344.47
1260.7
1192.76
1125.06
1060.37
991.491
925.612
858.843
798.946
743.336
696.484
655.527
621.392
591.333
564.929
540.415
517.427
495.168
473.566
452.357
431.611
411.284
391.465
372.201
353.557
335.585
318.317
301.807
286.047
271.097
256.911
243.559
230.963
219.212
208.17
197.969
188.411
179.691
171.534
164.232
157.418
151.512
146.048
141.406
42.3042
48.2423
55.2374
63.2249
72.2658
81.9036
90.9409
98.2415
103.037
105.425
105.991
105.56
104.831
104.312
104.253
104.739
105.674
106.886
108.069
108.983
109.408
109.369
108.924
108.328
107.739
107.437
107.514
108.174
109.399
111.352
113.947
117.384
121.505
126.63
132.452
139.552
147.31
156.802
166.888
179.579
192.853
210.277
228.284
252.588
277.1
309.963
342.692
388.424
439.112
521.909
618.918
791.261
1268.59
1484.81
1446.52
1355.22
1270.82
1202.24
1134.27
1069.59
1001.02
935.433
868.837
808.802
752.702
705.107
663.213
628.146
597.197
570.053
544.917
521.441
498.777
476.85
455.361
434.374
413.83
393.816
374.373
355.567
337.45
320.053
303.43
287.573
272.537
258.276
244.853
232.189
220.368
209.256
198.977
189.338
180.527
172.277
164.867
157.946
151.916
146.33
141.55
42.4116
48.4652
55.5838
63.6886
72.8302
82.5548
91.6617
99.0194
103.862
106.293
106.9
106.515
105.84
105.385
105.398
105.962
106.976
108.26
109.5
110.448
110.876
110.806
110.296
109.608
108.897
108.452
108.366
108.855
109.909
111.697
114.143
117.445
121.453
126.479
132.225
139.255
146.968
156.412
166.475
179.129
192.394
209.77
227.742
251.918
276.287
308.857
341.313
386.599
436.985
519.363
616.701
790.251
1270.07
1491.97
1456.85
1365.88
1280.86
1211.6
1143.32
1078.61
1010.35
945.079
878.717
818.624
762.125
713.865
671.095
635.133
603.309
575.422
549.648
525.666
502.579
480.307
458.518
437.271
416.49
396.263
376.622
357.637
339.357
321.816
305.066
289.098
273.965
259.619
246.118
233.383
221.489
210.306
199.949
190.232
181.332
172.992
165.479
158.453
152.303
146.599
141.683
42.5223
48.6937
55.9379
64.1615
73.4046
83.2169
92.3948
99.8113
104.704
107.179
107.831
107.494
106.874
106.484
106.569
107.212
108.304
109.661
110.961
111.947
112.382
112.286
111.718
110.94
110.112
109.525
109.276
109.592
110.468
112.086
114.373
117.534
121.42
126.34
132.004
138.959
146.623
156.015
166.055
178.67
191.924
209.252
227.192
251.24
275.471
307.753
339.942
384.791
434.874
516.82
614.459
789.186
1271.45
1499.01
1467.08
1376.46
1290.8
1220.83
1152.2
1087.43
1019.47
954.537
888.469
828.394
771.586
722.744
679.167
642.352
609.673
581.047
554.627
530.124
506.594
483.959
461.85
440.325
419.289
398.829
378.972
359.789
341.327
323.624
306.729
290.636
275.393
260.951
247.364
234.551
222.581
211.325
200.89
191.096
182.109
173.682
166.069
158.943
152.676
146.856
141.807
42.6364
48.9282
56.2999
64.6438
73.9893
83.8902
93.1401
100.618
105.562
108.085
108.784
108.496
107.933
107.607
107.765
108.486
109.657
111.088
112.45
113.477
113.924
113.808
113.185
112.324
111.382
110.656
110.245
110.385
111.08
112.521
114.642
117.651
121.408
126.214
131.789
138.665
146.275
155.614
165.627
178.201
191.443
208.723
226.631
250.555
274.651
306.651
338.58
383
432.78
514.285
612.195
788.069
1272.74
1505.92
1477.17
1386.93
1300.65
1229.93
1160.91
1096.04
1028.38
963.794
898.075
838.094
781.068
731.729
687.418
649.802
616.296
586.94
559.869
534.834
510.845
487.829
465.381
443.559
422.249
401.537
381.444
362.043
343.38
325.494
308.437
292.201
276.834
262.285
248.601
235.703
223.652
212.319
201.806
191.934
182.861
174.349
166.639
159.416
153.037
147.103
141.926
42.754
49.1687
56.6699
65.1357
74.5845
84.5747
93.8979
101.438
106.437
109.011
109.758
109.521
109.016
108.755
108.986
109.784
111.034
112.539
113.964
115.036
115.5
115.37
114.698
113.758
112.705
111.843
111.271
111.236
111.745
113.003
114.95
117.8
121.419
126.103
131.583
138.372
145.926
155.206
165.191
177.722
190.952
208.182
226.059
249.861
273.826
305.551
337.226
381.226
430.705
511.759
609.913
786.901
1273.92
1512.69
1487.13
1397.29
1310.39
1238.9
1169.44
1104.44
1037.05
972.841
907.522
847.706
790.552
740.805
695.838
657.478
623.18
593.11
565.389
539.813
515.351
491.939
469.135
446.998
425.394
404.411
384.06
364.42
345.535
327.447
310.207
293.811
278.303
263.632
249.842
236.848
224.709
213.295
202.701
192.75
183.593
174.997
167.193
159.876
153.386
147.343
142.04
42.8753
49.4155
57.0481
65.6374
75.1902
85.2705
94.6682
102.273
107.329
109.955
110.754
110.57
110.122
109.927
110.23
111.106
112.434
114.014
115.503
116.622
117.108
116.968
116.253
115.239
114.081
113.086
112.355
112.144
112.465
113.535
115.301
117.983
121.454
126.008
131.385
138.083
145.575
154.793
164.747
177.233
190.45
207.629
225.477
249.157
272.996
304.45
335.878
379.469
428.65
509.248
607.617
785.685
1275.02
1519.31
1496.93
1407.52
1320.02
1247.72
1177.8
1112.62
1045.5
981.667
916.794
857.214
800.023
749.956
704.415
665.373
630.326
599.563
571.199
545.079
520.134
496.311
473.134
450.664
428.747
407.472
386.844
366.944
347.814
329.502
312.059
295.483
279.817
265.009
251.097
237.999
225.763
214.263
203.582
193.551
184.309
175.63
167.733
160.324
153.727
147.578
142.154
43.0005
49.6688
57.4347
66.1489
75.8066
85.9779
95.4511
103.122
108.238
110.919
111.771
111.642
111.253
111.123
111.498
112.45
113.855
115.51
117.065
118.234
118.745
118.601
117.848
116.765
115.506
114.383
113.496
113.11
113.241
114.118
115.696
118.202
121.517
125.932
131.198
137.798
145.222
154.374
164.294
176.733
189.935
207.063
224.882
248.443
272.16
303.35
334.537
377.729
426.615
506.754
605.311
784.426
1276.03
1525.77
1506.56
1417.6
1329.52
1256.41
1185.97
1120.58
1053.71
990.263
925.881
866.602
809.461
759.167
713.138
673.482
637.733
606.306
577.311
550.648
525.212
500.966
477.401
454.581
432.332
410.746
389.819
369.636
350.239
331.68
314.012
297.235
281.391
266.428
252.381
239.165
226.824
215.229
204.458
194.343
185.014
176.252
168.263
160.763
154.063
147.81
142.268
43.1296
49.9286
57.83
66.6706
76.434
86.6968
96.2466
103.985
109.163
111.902
112.809
112.736
112.407
112.342
112.788
113.815
115.298
117.027
118.649
119.869
120.409
120.265
119.48
118.334
116.98
115.733
114.693
114.133
114.073
114.755
116.137
118.459
121.608
125.876
131.023
137.518
144.87
153.951
163.834
176.222
189.408
206.483
224.274
247.718
271.317
302.247
333.202
376.004
424.602
504.279
602.999
783.125
1276.95
1532.06
1516
1427.54
1338.9
1264.94
1193.96
1128.33
1061.67
998.622
934.769
875.855
818.852
768.42
721.992
681.795
645.399
613.343
583.734
556.532
530.601
505.923
481.957
458.771
436.172
414.255
393.007
372.519
352.832
334.003
316.086
299.085
283.042
267.906
253.708
240.36
227.902
216.204
205.337
195.133
185.715
176.867
168.787
161.198
154.396
148.041
142.386
43.2628
50.1953
58.2339
67.2026
77.0724
87.4275
97.055
104.863
110.105
112.903
113.868
113.852
113.583
113.583
114.099
115.202
116.76
118.563
120.251
121.525
122.097
121.959
121.147
119.943
118.498
117.132
115.944
115.213
114.962
115.445
116.626
118.756
121.731
125.842
130.862
137.244
144.517
153.523
163.365
175.699
188.869
205.889
223.653
246.981
270.466
301.143
331.872
374.295
422.609
501.827
600.685
781.786
1277.79
1538.19
1525.25
1437.3
1348.13
1273.33
1201.76
1135.85
1069.4
1006.74
943.448
884.96
828.179
777.7
730.964
690.304
653.32
620.676
590.475
562.745
536.319
511.202
486.822
463.256
440.29
418.022
396.433
375.617
355.615
336.491
318.301
301.053
284.79
269.46
255.092
241.598
229.011
217.198
206.227
195.928
186.417
177.482
169.31
161.632
154.73
148.276
142.51
43.4003
50.4691
58.6469
67.7451
77.7221
88.1701
97.8762
105.755
111.063
113.924
114.948
114.991
114.782
114.846
115.432
116.607