/*--------------------------------*- C++ -*----------------------------------*\
| =========                 |                                                 |
| \\      /  F ield         | OpenFOAM: The Open Source CFD Toolbox           |
|  \\    /   O peration     | Version:  2412                                  |
|   \\  /    A nd           | Website:  www.openfoam.com                      |
|    \\/     M anipulation  |                                                 |
\*---------------------------------------------------------------------------*/
FoamFile
{
    version     2.0;
    format      ascii;
    arch        "LSB;label=32;scalar=64";
    class       volScalarField;
    location    "1";
    object      nut;
}
// * * * * * * * * * * * * * * * * * * * * * * * * * * * * * * * * * * * * * //

dimensions      [0 2 -1 0 0 0 0];

internalField   nonuniform List<scalar> 
13077
(
0.347538
0.364299
0.383602
0.404943
0.426312
0.443289
0.451432
0.448576
0.435199
0.413834
0.387585
0.359399
0.3315
0.305411
0.282135
0.262439
0.246986
0.236297
0.230543
0.229357
0.232053
0.23791
0.24628
0.256245
0.266991
0.277812
0.288583
0.299237
0.309942
0.320606
0.331192
0.341463
0.351114
0.359991
0.367632
0.374281
0.379327
0.383566
0.386198
0.347734
0.364719
0.384184
0.405542
0.426753
0.443449
0.451274
0.448137
0.434548
0.413042
0.386713
0.358482
0.330546
0.3044
0.281021
0.261148
0.245419
0.23434
0.22809
0.226331
0.228409
0.233637
0.241431
0.250951
0.261431
0.272154
0.28296
0.293734
0.304629
0.315523
0.326388
0.336953
0.346926
0.356101
0.364037
0.370918
0.376166
0.380516
0.383225
0.385756
0.387186
0.389374
0.390418
0.390728
0.386968
0.377694
0.362242
0.341853
0.323181
0.313064
0.317084
0.342136
0.39616
0.338676
0.253135
0.198157
0.164879
0.13936
0.12124
0.106947
0.0967485
0.088923
0.0834496
0.079065
0.0755579
0.0721634
0.068934
0.0656747
0.0625438
0.347933
0.365144
0.384769
0.406137
0.427181
0.443588
0.451091
0.447671
0.433869
0.412224
0.385816
0.357544
0.329574
0.303377
0.279901
0.259859
0.243863
0.232403
0.225664
0.223335
0.224796
0.229393
0.236602
0.245654
0.255839
0.266432
0.277247
0.288118
0.299187
0.3103
0.321438
0.332293
0.342591
0.352073
0.360314
0.367439
0.372902
0.377376
0.380171
0.38268
0.384063
0.386091
0.386988
0.387069
0.383165
0.373693
0.358174
0.337637
0.318868
0.30839
0.311998
0.337092
0.392087
0.33462
0.249673
0.195458
0.162765
0.137715
0.119897
0.105808
0.0957064
0.0879401
0.082503
0.0781889
0.0747855
0.0715267
0.0684404
0.0653166
0.0623038
0.0593822
0.0566426
0.0540766
0.0517027
0.0495036
0.0474694
0.0455821
0.0438244
0.0421852
0.0406561
0.0392331
0.0379173
0.0367108
0.0356235
0.0346593
0.0338315
0.0331402
0.0325957
0.0321928
0.0319344
0.0318146
0.0318291
0.0319874
0.0322779
0.0327579
0.0333957
0.0343567
0.0355157
0.037286
0.0390943
0.348136
0.365575
0.385356
0.406727
0.427595
0.443705
0.450881
0.447177
0.433162
0.411379
0.384895
0.356582
0.328584
0.30234
0.278774
0.258572
0.24232
0.230489
0.223268
0.220375
0.221224
0.22519
0.231805
0.240369
0.25023
0.260662
0.271455
0.2824
0.293625
0.304942
0.316344
0.327488
0.338112
0.347906
0.356462
0.363843
0.369533
0.374142
0.377036
0.379534
0.380876
0.38275
0.383506
0.38336
0.379317
0.369653
0.354077
0.333405
0.314555
0.30373
0.306929
0.332033
0.387951
0.330528
0.246227
0.192792
0.160687
0.136109
0.118593
0.104711
0.0947069
0.0869973
0.0815894
0.0773355
0.0740244
0.0708918
0.0679423
0.0649503
0.0620541
0.0592299
0.056569
0.0540655
0.0517409
0.0495802
0.0475758
0.0457111
0.04397
0.042342
0.0408186
0.0393957
0.0380741
0.0368552
0.0357487
0.034758
0.0338965
0.0331646
0.0325735
0.0321183
0.0318043
0.0316245
0.031578
0.0316696
0.0318922
0.032291
0.0328428
0.0336876
0.034724
0.0363131
0.0379594
0.348343
0.366011
0.385946
0.407311
0.427994
0.443799
0.450644
0.446653
0.432424
0.410505
0.383946
0.355598
0.327574
0.301289
0.27764
0.257287
0.24079
0.228601
0.22091
0.21746
0.217701
0.221039
0.227052
0.23511
0.244618
0.254856
0.265599
0.276591
0.28795
0.299456
0.311111
0.322538
0.333489
0.343599
0.35248
0.360127
0.366059
0.370815
0.37382
0.376316
0.377627
0.379352
0.379972
0.379604
0.375426
0.365578
0.349952
0.329161
0.310242
0.299088
0.301881
0.326961
0.383756
0.326403
0.242802
0.190162
0.158645
0.13454
0.117329
0.103655
0.0937494
0.0860947
0.0807099
0.0765062
0.0732759
0.0702598
0.06744
0.0645759
0.0617943
0.0590671
0.0564853
0.0540449
0.0517703
0.049649
0.0476754
0.0458345
0.0441113
0.0424958
0.0409798
0.039559
0.0382339
0.0370055
0.0358829
0.0348693
0.0339782
0.0332098
0.0325766
0.0320734
0.0317081
0.0314725
0.0313689
0.0313983
0.0315577
0.0318817
0.0323548
0.0330947
0.0340202
0.0354461
0.0369444
0.348553
0.366452
0.386537
0.40789
0.428376
0.443869
0.450377
0.446097
0.431656
0.409602
0.382971
0.354589
0.326544
0.300224
0.276501
0.256008
0.239278
0.226743
0.218593
0.214596
0.214235
0.216947
0.222354
0.229889
0.239017
0.24903
0.259689
0.270702
0.282172
0.293848
0.305745
0.317447
0.328723
0.339154
0.348368
0.356292
0.362477
0.367394
0.370522
0.373027
0.374316
0.3759
0.376388
0.375803
0.371493
0.36147
0.345804
0.324907
0.305933
0.294467
0.296858
0.321882
0.379503
0.322251
0.239402
0.18757
0.156641
0.133008
0.116103
0.102639
0.0928332
0.0852321
0.0798651
0.0757024
0.0725416
0.0696321
0.0669346
0.0641937
0.0615243
0.0588933
0.0563906
0.0540138
0.0517902
0.049709
0.0477672
0.045951
0.044247
0.0426453
0.0411382
0.0397214
0.0383949
0.0371594
0.0360238
0.0349907
0.0340736
0.0332727
0.0326012
0.0320544
0.0316415
0.0313541
0.0311972
0.0311684
0.0312686
0.0315237
0.0319245
0.0325691
0.0333939
0.0346726
0.0360357
0.348767
0.366898
0.38713
0.40846
0.428741
0.443913
0.45008
0.44551
0.430857
0.408669
0.381968
0.353556
0.325495
0.299146
0.275356
0.254734
0.237785
0.224918
0.216322
0.211789
0.210835
0.212926
0.217724
0.224721
0.233441
0.243197
0.253741
0.264745
0.276301
0.288128
0.30025
0.312218
0.323816
0.334569
0.344123
0.352335
0.358788
0.363878
0.367141
0.369667
0.370943
0.372395
0.372757
0.371959
0.367523
0.357331
0.341634
0.320646
0.30163
0.289869
0.291863
0.316799
0.375195
0.318077
0.236031
0.185018
0.154676
0.131513
0.114914
0.101662
0.0919574
0.0844093
0.0790556
0.0749253
0.0718231
0.0690099
0.0664268
0.0638042
0.0612444
0.0587085
0.0562848
0.053972
0.0517998
0.0497596
0.0478505
0.04606
0.0443761
0.0427894
0.0412927
0.0398815
0.0385556
0.0373155
0.0361694
0.0351197
0.03418
0.0333503
0.0326444
0.0320577
0.0316011
0.0312655
0.0310587
0.0309754
0.0310202
0.0312113
0.0315452
0.032103
0.0328361
0.0339817
0.0352213
0.348985
0.367348
0.387723
0.409023
0.429086
0.443929
0.449751
0.44489
0.430025
0.407705
0.380937
0.352499
0.324427
0.298055
0.274208
0.253468
0.236313
0.22313
0.214104
0.209046
0.207509
0.208985
0.213172
0.219618
0.227906
0.237373
0.247768
0.258732
0.270347
0.282303
0.294633
0.306856
0.318771
0.329847
0.339748
0.348257
0.354989
0.360266
0.363678
0.366236
0.36751
0.368837
0.369079
0.368075
0.363517
0.353165
0.337446
0.316381
0.297337
0.285298
0.286901
0.311719
0.370836
0.313885
0.232693
0.182507
0.152749
0.130054
0.113762
0.100722
0.0911211
0.0836259
0.078282
0.0741761
0.0711219
0.0683947
0.0659179
0.0634082
0.0609549
0.0585126
0.0561676
0.053919
0.0517989
0.0498003
0.0479247
0.0461608
0.0444979
0.0429274
0.0414424
0.0400382
0.0387147
0.037472
0.0363179
0.0352546
0.0342953
0.0334401
0.0327034
0.0320804
0.0315835
0.0312033
0.0309497
0.0308154
0.0308081
0.0309395
0.0312113
0.0316897
0.0323388
0.0333638
0.0344902
0.349206
0.367803
0.388316
0.409576
0.429411
0.443918
0.44939
0.444236
0.429159
0.406709
0.379878
0.351418
0.323339
0.296953
0.273057
0.25221
0.234864
0.221382
0.211941
0.206374
0.204263
0.205132
0.208709
0.214592
0.222426
0.231572
0.241785
0.252677
0.264322
0.276382
0.288902
0.301367
0.313591
0.324989
0.335241
0.344057
0.35108
0.356557
0.360132
0.362734
0.364017
0.365228
0.365358
0.364153
0.359478
0.348974
0.333242
0.312114
0.293055
0.280757
0.281975
0.306645
0.366428
0.309681
0.229391
0.180039
0.150862
0.128632
0.112645
0.0998179
0.0903232
0.0828812
0.0775443
0.0734559
0.0704394
0.0677882
0.0654091
0.0630066
0.0606563
0.0583059
0.056039
0.0538546
0.051787
0.0498307
0.0479893
0.0462527
0.0446119
0.0430585
0.0415863
0.0401906
0.0388712
0.0376278
0.0364679
0.0353935
0.0344175
0.03354
0.0327755
0.0321197
0.0315859
0.0311643
0.0308671
0.0306849
0.0306285
0.0307041
0.0309178
0.0313232
0.0318951
0.0328104
0.0338329
0.349432
0.368263
0.388909
0.410118
0.429715
0.443876
0.448994
0.443547
0.42826
0.405682
0.37879
0.350312
0.322233
0.295838
0.271904
0.250963
0.233441
0.219676
0.209838
0.203776
0.201105
0.201375
0.204344
0.209658
0.217015
0.225811
0.235807
0.246595
0.258239
0.270378
0.283065
0.295755
0.30828
0.319997
0.330603
0.339735
0.347062
0.352751
0.356503
0.359162
0.360465
0.36157
0.361595
0.360196
0.35541
0.344763
0.329027
0.307849
0.288789
0.276247
0.277088
0.301581
0.361973
0.305469
0.226128
0.177616
0.149014
0.127244
0.111563
0.0989491
0.0895623
0.0821746
0.0768428
0.0727655
0.0697773
0.0671918
0.0649018
0.0626004
0.0603493
0.0580888
0.0558991
0.0537789
0.0517641
0.0498505
0.0480439
0.0463355
0.0447175
0.0431822
0.0417238
0.0403379
0.039024
0.0377817
0.0366181
0.0355349
0.0345448
0.0336478
0.0328588
0.0321732
0.0316056
0.0311458
0.0308077
0.0305808
0.0304781
0.0305013
0.0306606
0.0309984
0.0314989
0.0323141
0.0332408
0.349661
0.368727
0.389501
0.410649
0.429995
0.443803
0.448563
0.442821
0.427326
0.404623
0.377673
0.349182
0.321108
0.294713
0.27075
0.249728
0.232046
0.218016
0.2078
0.201259
0.198042
0.197723
0.200089
0.204826
0.211687
0.220105
0.22985
0.240499
0.252112
0.2643
0.277132
0.290029
0.302841
0.314874
0.325837
0.33529
0.342933
0.348848
0.35279
0.35552
0.356855
0.357864
0.357791
0.356206
0.351315
0.340534
0.324802
0.30359
0.28454
0.271772
0.272245
0.296532
0.357477
0.301254
0.222908
0.175239
0.147205
0.125891
0.110513
0.0981138
0.0888373
0.081505
0.0761771
0.0721058
0.0691369
0.0666073
0.0643974
0.0621907
0.0600346
0.0578616
0.0557482
0.0536918
0.0517299
0.0498595
0.0480883
0.0464086
0.0448142
0.0432978
0.0418543
0.0404793
0.0391723
0.0379327
0.0367673
0.0356774
0.0346757
0.0337619
0.032951
0.0322387
0.0316402
0.0311452
0.0307691
0.0305001
0.0303537
0.0303277
0.0304359
0.0307107
0.0311449
0.0318684
0.0327067
0.349894
0.369194
0.39009
0.411166
0.430251
0.443698
0.448096
0.442059
0.426356
0.403531
0.376528
0.348028
0.319965
0.293577
0.269596
0.248506
0.23068
0.216404
0.205828
0.198827
0.195078
0.194183
0.195951
0.200108
0.206457
0.214468
0.22393
0.234406
0.245953
0.258162
0.271111
0.284195
0.297282
0.309623
0.320943
0.330725
0.338694
0.344848
0.348995
0.351808
0.353188
0.354112
0.35395
0.352186
0.347197
0.33629
0.320572
0.299338
0.280312
0.267335
0.267449
0.291503
0.35294
0.29704
0.219731
0.172908
0.145436
0.124572
0.109495
0.0973105
0.0881465
0.0808713
0.0755471
0.0714772
0.0685195
0.0660363
0.0638975
0.0617788
0.0597132
0.0576251
0.0555866
0.0535936
0.0516846
0.0498577
0.0481224
0.046472
0.0449018
0.0434051
0.0419773
0.0406142
0.0393153
0.0380799
0.0369144
0.0358199
0.0348087
0.0338806
0.0330505
0.0323143
0.0316875
0.0311602
0.0307486
0.0304404
0.0302528
0.0301804
0.0302403
0.0304565
0.0308287
0.0314677
0.032224
0.35013
0.369666
0.390677
0.411669
0.43048
0.443559
0.447592
0.441258
0.42535
0.402406
0.375353
0.346849
0.318804
0.292432
0.268444
0.247299
0.229344
0.214842
0.203926
0.196485
0.19222
0.190762
0.19194
0.195514
0.201336
0.208916
0.218062
0.228332
0.239778
0.251976
0.265015
0.278264
0.291609
0.304248
0.315925
0.32604
0.334345
0.34075
0.345116
0.348027
0.349465
0.350315
0.350074
0.34814
0.343057
0.332036
0.316339
0.295097
0.276107
0.262938
0.262702
0.286497
0.348368
0.292832
0.216602
0.170624
0.143706
0.123285
0.108508
0.0965375
0.0874886
0.0802724
0.0749522
0.0708803
0.0679263
0.0654802
0.0634037
0.0613659
0.059386
0.0573799
0.0554147
0.0534845
0.0516283
0.0498451
0.0481459
0.0465254
0.0449799
0.0435036
0.0420924
0.0407421
0.0394525
0.0382226
0.0370584
0.0359612
0.0349425
0.0340024
0.0331555
0.032398
0.0317457
0.0311886
0.0307442
0.0303992
0.0301728
0.0300567
0.0300709
0.0302321
0.0305464
0.0311072
0.0317872
0.350371
0.37014
0.39126
0.412157
0.430682
0.443384
0.447048
0.440419
0.424307
0.401248
0.37415
0.345647
0.317627
0.291279
0.267293
0.246107
0.228041
0.213331
0.202097
0.194234
0.189472
0.187465
0.188062
0.191054
0.196338
0.203464
0.212263
0.222291
0.233603
0.245757
0.258854
0.272243
0.285827
0.298755
0.310784
0.321236
0.329886
0.336556
0.341155
0.344178
0.345687
0.346476
0.346164
0.344069
0.338901
0.327773
0.312107
0.290871
0.271928
0.258583
0.258007
0.281519
0.343762
0.288634
0.213521
0.168389
0.142016
0.122031
0.10755
0.0957935
0.0868618
0.0797068
0.0743918
0.0703151
0.0673584
0.0649407
0.0629175
0.0609537
0.0590542
0.0571268
0.0552332
0.0533648
0.0515612
0.0498217
0.048159
0.0465687
0.0450485
0.0435931
0.0421991
0.0408626
0.0395832
0.03836
0.0371987
0.0361003
0.0350761
0.0341261
0.0332647
0.0324883
0.031813
0.0312287
0.0307538
0.0303745
0.0301115
0.0299542
0.0299251
0.0300347
0.0302944
0.0307826
0.0313913
0.350616
0.370618
0.391838
0.412627
0.430855
0.443172
0.446464
0.439539
0.423227
0.400056
0.372918
0.344422
0.316432
0.290118
0.266146
0.244932
0.226771
0.211873
0.200342
0.192079
0.186838
0.184297
0.184324
0.186738
0.191474
0.198125
0.206547
0.2163
0.227441
0.239517
0.252643
0.266144
0.279946
0.293149
0.305525
0.316316
0.32532
0.332265
0.337112
0.340261
0.341855
0.342595
0.342224
0.339976
0.334729
0.323506
0.307879
0.286662
0.267777
0.254273
0.253368
0.276572
0.339128
0.284449
0.210491
0.166202
0.140365
0.120808
0.106621
0.0950768
0.0862646
0.0791732
0.0738649
0.0697817
0.0668166
0.0644192
0.0624407
0.0605435
0.058719
0.0568669
0.0550427
0.0532351
0.0514836
0.0497877
0.0481617
0.0466019
0.0451075
0.0436735
0.0422973
0.0409752
0.039707
0.0384916
0.0373345
0.0362364
0.0352085
0.0342504
0.0333767
0.0325836
0.0318876
0.0312786
0.0307755
0.0303643
0.0300668
0.0298708
0.0298006
0.0298615
0.0300697
0.0304903
0.0310321
0.350864
0.371098
0.39241
0.413079
0.430998
0.442922
0.445839
0.438619
0.422109
0.39883
0.371656
0.343174
0.315223
0.28895
0.265003
0.243775
0.225535
0.210469
0.198662
0.190022
0.184321
0.181264
0.180733
0.182573
0.186755
0.192913
0.20093
0.210376
0.221311
0.233274
0.246393
0.259978
0.273975
0.287436
0.300151
0.311282
0.320646
0.327878
0.332987
0.336278
0.33797
0.338675
0.338254
0.335864
0.330547
0.319237
0.303658
0.282473
0.263658
0.250011
0.248786
0.271661
0.334468
0.280283
0.207513
0.164063
0.138752
0.119615
0.105717
0.0943858
0.0856953
0.0786701
0.0733707
0.0692799
0.0663018
0.0639172
0.0619748
0.0601369
0.0583818
0.0566012
0.054844
0.053096
0.0513959
0.0497435
0.0481542
0.0466251
0.0451567
0.0437446
0.0423868
0.0410798
0.0398235
0.0386168
0.0374651
0.0363687
0.0353386
0.0343744
0.0334903
0.0326828
0.0319682
0.0313367
0.0308077
0.0303668
0.030037
0.0298044
0.0296953
0.0297103
0.0298698
0.0302271
0.0307059
0.351116
0.371581
0.392976
0.413511
0.431107
0.442632
0.445172
0.437658
0.420952
0.397571
0.370366
0.341903
0.313998
0.287776
0.263865
0.242636
0.224335
0.20912
0.19706
0.188063
0.181923
0.178368
0.177294
0.178567
0.18219
0.18784
0.195427
0.204533
0.215227
0.227041
0.240119
0.253757
0.267922
0.281624
0.294668
0.306137
0.315867
0.323397
0.328781
0.332228
0.334034
0.334717
0.334258
0.331737
0.326356
0.314971
0.299448
0.278308
0.259572
0.245797
0.244265
0.26679
0.329786
0.276139
0.204589
0.161974
0.137178
0.118452
0.10484
0.0937189
0.0851522
0.0781957
0.0729081
0.0688094
0.0658144
0.0634358
0.0615214
0.0597355
0.0580439
0.0563308
0.054638
0.052948
0.0512985
0.0496893
0.0481367
0.0466384
0.0451963
0.0438064
0.0424674
0.041176
0.0399324
0.0387354
0.03759
0.0364967
0.0354658
0.0344971
0.0336044
0.0327844
0.0320533
0.0314016
0.0308488
0.0303805
0.0300204
0.0297533
0.0296073
0.0295789
0.0296922
0.0299901
0.0304095
0.351372
0.372065
0.393534
0.413921
0.431183
0.442301
0.44446
0.436654
0.419757
0.396277
0.369048
0.340611
0.312758
0.286596
0.262733
0.241517
0.223171
0.207826
0.195535
0.186205
0.179647
0.175611
0.174009
0.174725
0.177789
0.182918
0.190052
0.198788
0.209205
0.220835
0.233836
0.247494
0.261798
0.27572
0.289081
0.300884
0.310985
0.318823
0.324495
0.328113
0.330048
0.330722
0.330237
0.327596
0.32216
0.31071
0.295252
0.274169
0.255523
0.241635
0.239807
0.261961
0.325086
0.27202
0.201719
0.159933
0.135641
0.117318
0.103986
0.0930748
0.0846336
0.0777488
0.0724757
0.0683697
0.0653548
0.0629761
0.0610822
0.059341
0.0577069
0.056057
0.0544257
0.0527921
0.0511922
0.0496257
0.0481095
0.0466421
0.0452264
0.0438589
0.0425391
0.0412639
0.0400335
0.0388468
0.0377088
0.0366196
0.0355893
0.0346176
0.0337181
0.0328874
0.0321419
0.0314719
0.0308974
0.0304037
0.0300152
0.0297159
0.0295349
0.0294655
0.0295349
0.0297769
0.0301401
0.351632
0.37255
0.394083
0.414308
0.431223
0.441926
0.443704
0.435607
0.418523
0.394949
0.367702
0.339296
0.311505
0.285413
0.261608
0.240419
0.222043
0.206588
0.194087
0.184446
0.177492
0.172997
0.170882
0.171052
0.173559
0.178157
0.184817
0.193155
0.203261
0.214671
0.227558
0.241201
0.255615
0.269734
0.283397
0.295529
0.306002
0.314157
0.320131
0.323935
0.326012
0.326694
0.326194
0.323444
0.317962
0.306458
0.291072
0.270059
0.251512
0.237527
0.235414
0.25718
0.320371
0.267929
0.198904
0.157941
0.134142
0.116211
0.103155
0.0924517
0.0841379
0.0773276
0.0720724
0.0679601
0.0649233
0.0625393
0.0606586
0.0589549
0.0573723
0.0557811
0.0542083
0.052629
0.0510776
0.049553
0.048073
0.0466365
0.0452471
0.0439023
0.0426019
0.0413431
0.0401266
0.0389509
0.037821
0.036737
0.0357085
0.0347353
0.0338305
0.0329909
0.0322327
0.0315464
0.0309521
0.030435
0.0300202
0.0296905
0.0294765
0.0293683
0.029396
0.0295853
0.0298952
0.351895
0.373036
0.394621
0.41467
0.431226
0.441508
0.442902
0.434516
0.417249
0.393587
0.366327
0.337961
0.310239
0.284226
0.26049
0.239341
0.220951
0.205405
0.192716
0.182788
0.17546
0.170525
0.167916
0.167551
0.169505
0.173566
0.179734
0.187648
0.197412
0.208566
0.221301
0.234894
0.249384
0.263674
0.277622
0.290075
0.300922
0.3094
0.315688
0.319693
0.321929
0.322632
0.322131
0.319284
0.313765
0.302217
0.286913
0.265982
0.247543
0.233474
0.231087
0.252448
0.315646
0.263871
0.196145
0.155998
0.132679
0.115131
0.102346
0.0918484
0.0836633
0.0769304
0.0716966
0.0675797
0.0645198
0.0621261
0.0602519
0.058579
0.0570416
0.0555045
0.0539868
0.0524597
0.0509554
0.0494721
0.0480278
0.0466218
0.0452589
0.0439367
0.0426559
0.0414139
0.0402115
0.0390475
0.0379264
0.0368485
0.0358229
0.0348494
0.0339407
0.0330939
0.0323247
0.031624
0.0310118
0.0304733
0.0300339
0.0296759
0.0294306
0.0292858
0.0292738
0.0294134
0.0296725
0.352162
0.373522
0.395148
0.415006
0.431189
0.441043
0.442053
0.43338
0.415934
0.392191
0.364925
0.336606
0.308961
0.283036
0.259381
0.238285
0.219897
0.204277
0.191421
0.181228
0.173549
0.168195
0.165111
0.164226
0.165634
0.169155
0.174815
0.182282
0.191671
0.202534
0.21508
0.228586
0.243118
0.257552
0.271763
0.284527
0.295747
0.304556
0.31117
0.315389
0.3178
0.31854
0.31805
0.315119
0.309571
0.297992
0.282776
0.261939
0.243617
0.229479
0.22683
0.24777
0.310914
0.259847
0.193442
0.154102
0.131253
0.114077
0.101558
0.0912633
0.0832082
0.0765556
0.071347
0.0672276
0.0641443
0.0617371
0.0598635
0.0582147
0.0567164
0.0552287
0.0537625
0.0522854
0.0508266
0.0493836
0.0479743
0.0465986
0.0452619
0.0439624
0.0427013
0.0414763
0.0402883
0.0391364
0.0380248
0.0369537
0.0359321
0.0349594
0.0340482
0.0331956
0.032417
0.0317037
0.0310753
0.0305173
0.0300551
0.0296707
0.0293959
0.0292166
0.0291668
0.0292594
0.0294703
0.352433
0.374007
0.395662
0.415313
0.431111
0.440531
0.441155
0.432199
0.41458
0.390761
0.363496
0.335231
0.307672
0.281844
0.258281
0.23725
0.218878
0.203204
0.190201
0.179767
0.171759
0.166008
0.162467
0.161079
0.161948
0.164928
0.17007
0.177068
0.186054
0.196593
0.208911
0.222293
0.23683
0.251377
0.26583
0.278893
0.290482
0.299627
0.306577
0.311026
0.313625
0.314418
0.313953
0.31095
0.305384
0.293784
0.278665
0.257934
0.239737
0.225543
0.222643
0.243148
0.306179
0.255861
0.190795
0.152253
0.129862
0.113048
0.100789
0.0906951
0.082771
0.0762014
0.0710219
0.0669028
0.0637963
0.0613728
0.0594945
0.0578637
0.0563985
0.0549551
0.0535369
0.052107
0.050692
0.0492882
0.0479133
0.0465675
0.0452567
0.0439798
0.0427383
0.0415303
0.0403571
0.0392175
0.038116
0.0370525
0.0360355
0.0350648
0.0341523
0.0332953
0.0325089
0.0317845
0.0311416
0.0305659
0.0300827
0.0296736
0.0293712
0.0291592
0.0290737
0.0291217
0.0292867
0.352707
0.374491
0.396162
0.415589
0.430991
0.43997
0.440209
0.430972
0.413185
0.389298
0.362041
0.333837
0.306372
0.280651
0.25719
0.236237
0.217896
0.202183
0.189055
0.178401
0.170087
0.16396
0.159983
0.158108
0.158451
0.160892
0.165507
0.172019
0.180574
0.190756
0.20281
0.216029
0.230534
0.245162
0.259831
0.273178
0.28513
0.294615
0.301911
0.306603
0.309407
0.310268
0.309842
0.306781
0.301206
0.289597
0.274583
0.253969
0.235906
0.221667
0.218528
0.238585
0.301445
0.251915
0.188203
0.150451
0.128506
0.112044
0.100038
0.0901425
0.0823504
0.0758663
0.0707199
0.066604
0.0634754
0.0610336
0.0591459
0.0575272
0.0560892
0.0546855
0.0533112
0.0519259
0.0505528
0.0491868
0.0478455
0.0465289
0.0452438
0.0439892
0.0427672
0.0415763
0.0404178
0.039291
0.0381999
0.0371445
0.036133
0.0351652
0.0342525
0.0333923
0.0325995
0.0318656
0.0312098
0.030618
0.0301156
0.0296837
0.0293552
0.0291126
0.028993
0.028999
0.0291201
0.352984
0.374973
0.396645
0.415834
0.430826
0.439359
0.439212
0.429698
0.41175
0.3878
0.360559
0.332425
0.305062
0.279458
0.256109
0.235245
0.21695
0.201215
0.18798
0.177128
0.168531
0.162051
0.157658
0.155314
0.155143
0.15705
0.161134
0.167143
0.175245
0.185039
0.196792
0.20981
0.224243
0.238919
0.253776
0.267389
0.279698
0.289524
0.297174
0.302123
0.305147
0.306092
0.305718
0.302614
0.29704
0.285433
0.270533
0.250046
0.232124
0.217854
0.214487
0.234085
0.296715
0.248012
0.185667
0.148695
0.127184
0.111063
0.0993054
0.0896043
0.0819447
0.0755485
0.0704393
0.0663299
0.0631809
0.0607196
0.0588187
0.0572067
0.0557903
0.0544212
0.0530869
0.0517434
0.05041
0.0490805
0.0477716
0.0464837
0.0452236
0.043991
0.0427883
0.0416144
0.0404708
0.0393568
0.0382764
0.0372296
0.0362243
0.0352601
0.0343483
0.0334861
0.0326881
0.0319462
0.031279
0.0306729
0.0301527
0.0296997
0.0293469
0.0290755
0.0289237
0.0288899
0.0289693
0.353264
0.375451
0.397111
0.416044
0.430614
0.438697
0.438163
0.428377
0.410274
0.38627
0.359052
0.330995
0.303744
0.278265
0.255039
0.234276
0.216039
0.200298
0.186974
0.175946
0.167088
0.160276
0.155488
0.152696
0.152025
0.153406
0.156955
0.162451
0.170077
0.179455
0.190871
0.203651
0.217973
0.232659
0.247676
0.261534
0.274189
0.284357
0.29237
0.297588
0.300846
0.301892
0.301585
0.298451
0.292888
0.281296
0.266517
0.246169
0.228394
0.214105
0.210521
0.22965
0.291994
0.244153
0.183186
0.146984
0.125896
0.110106
0.0985888
0.0890793
0.0815527
0.0752466
0.0701785
0.0660792
0.0629121
0.0604307
0.0585134
0.0569034
0.0555032
0.0541639
0.0528656
0.0515607
0.0502648
0.0489702
0.0476927
0.0464326
0.045197
0.0439859
0.0428022
0.0416451
0.0405162
0.0394151
0.0383456
0.0373079
0.0363093
0.0353495
0.0344393
0.0335763
0.0327743
0.0320256
0.0313485
0.0307295
0.0301932
0.0297208
0.0293453
0.0290469
0.0288647
0.0287932
0.0288329
0.353547
0.375926
0.397558
0.416218
0.430354
0.437981
0.437062
0.427008
0.408757
0.384706
0.357519
0.329548
0.302417
0.277073
0.253979
0.233328
0.215162
0.19943
0.186036
0.174851
0.165754
0.158633
0.153472
0.150249
0.149096
0.149961
0.152976
0.15795
0.165081
0.174018
0.185064
0.197567
0.211738
0.226398
0.24154
0.255622
0.268611
0.279119
0.287499
0.292999
0.296506
0.297669
0.297443
0.294294
0.288753
0.277188
0.262537
0.242339
0.224719
0.210422
0.206632
0.225281
0.287286
0.24034
0.180759
0.145317
0.12464
0.10917
0.0978879
0.0885664
0.0811728
0.0749588
0.0699359
0.0658505
0.062668
0.0601666
0.0582306
0.0566184
0.0552293
0.0539151
0.0526487
0.0513793
0.0501185
0.048857
0.0476096
0.0463763
0.0451645
0.0439745
0.0428093
0.0416687
0.0405544
0.0394661
0.0384077
0.0373792
0.0363877
0.0354329
0.0345252
0.0336623
0.0328574
0.0321032
0.0314175
0.0307871
0.0302361
0.0297461
0.0293494
0.0290258
0.0288148
0.0287079
0.0287097
0.353833
0.376396
0.397983
0.416354
0.430044
0.43721
0.435908
0.425592
0.407199
0.383109
0.355962
0.328086
0.301082
0.275882
0.25293
0.232401
0.214317
0.198609
0.185162
0.173841
0.164526
0.157117
0.151604
0.147972
0.146353
0.146714
0.149199
0.153646
0.160268
0.168739
0.179383
0.191573
0.205552
0.220147
0.23538
0.249662
0.262968
0.273812
0.282565
0.288358
0.292128
0.293424
0.293295
0.290144
0.284638
0.273111
0.258597
0.238559
0.221099
0.206805
0.20282
0.220983
0.282593
0.236576
0.178386
0.143692
0.123416
0.108255
0.0972017
0.0880644
0.0808038
0.0746838
0.06971
0.0656423
0.0624475
0.0599271
0.0579706
0.0563526
0.0549701
0.0536763
0.0524378
0.0512006
0.0499723
0.0487421
0.0475234
0.0463159
0.0451271
0.0439574
0.0428103
0.0416857
0.0405857
0.0395101
0.0384627
0.0374436
0.0364596
0.0355104
0.0346058
0.0337438
0.0329371
0.0321785
0.0314855
0.030845
0.0302809
0.0297746
0.0293583
0.0290112
0.0287731
0.0286329
0.0285987
0.354121
0.37686
0.398385
0.416449
0.429682
0.436383
0.4347
0.424126
0.4056
0.381479
0.354381
0.326607
0.29974
0.274692
0.251892
0.231496
0.213505
0.197833
0.18435
0.172911
0.163399
0.155724
0.14988
0.14586
0.143794
0.143664
0.145627
0.149545
0.155644
0.16363
0.173843
0.185685
0.199431
0.213922
0.229209
0.243662
0.257269
0.268443
0.277572
0.283667
0.287714
0.289159
0.289142
0.286005
0.280543
0.269067
0.254698
0.23483
0.217537
0.203256
0.199086
0.216756
0.27792
0.232861
0.176065
0.14211
0.122222
0.107362
0.0965293
0.0875725
0.0804445
0.0744201
0.0694991
0.0654532
0.0622497
0.0597115
0.0577337
0.0561068
0.0547267
0.0534491
0.0522343
0.0510261
0.0498277
0.0486268
0.0474351
0.0462523
0.0450854
0.0439354
0.0428057
0.0416967
0.0406106
0.0395474
0.0385109
0.0375013
0.036525
0.0355817
0.0346809
0.0338205
0.0330128
0.032251
0.0315517
0.0309026
0.0303266
0.0298056
0.0293713
0.0290023
0.0287388
0.0285671
0.0284989
0.354412
0.377316
0.398763
0.416502
0.429267
0.435499
0.433437
0.422612
0.40396
0.379818
0.352777
0.325114
0.298392
0.273505
0.250865
0.23061
0.212724
0.197101
0.183596
0.172058
0.162369
0.154448
0.148295
0.143907
0.141415
0.14081
0.142259
0.145648
0.151218
0.1587
0.168455
0.179915
0.193389
0.207735
0.223038
0.237633
0.251521
0.263017
0.272522
0.278928
0.283266
0.284876
0.284985
0.281878
0.276472
0.265059
0.250842
0.231155
0.214034
0.199777
0.195432
0.212603
0.273271
0.229197
0.173796
0.140568
0.121059
0.106488
0.0958702
0.0870897
0.0800937
0.0741662
0.0693018
0.0652816
0.0620732
0.0595192
0.0575198
0.0558818
0.0545002
0.0532347
0.0520398
0.0508573
0.0496861
0.0485123
0.047346
0.0461865
0.0450406
0.0439093
0.0427963
0.0417023
0.0406296
0.0395785
0.0385527
0.0375525
0.036584
0.035647
0.0347504
0.0338922
0.0330844
0.0323202
0.0316158
0.0309592
0.0303726
0.0298384
0.0293874
0.0289984
0.0287109
0.0285098
0.0284093
0.354704
0.377765
0.399114
0.41651
0.428795
0.434556
0.432117
0.421048
0.402278
0.378124
0.351149
0.323606
0.297038
0.27232
0.249848
0.229743
0.211971
0.196409
0.182897
0.171277
0.161431
0.153285
0.146843
0.142109
0.139209
0.138147
0.139093
0.141958
0.146993
0.153958
0.16323
0.174277
0.18744
0.201602
0.216881
0.231586
0.245731
0.257538
0.267418
0.274145
0.278785
0.280576
0.280826
0.277764
0.272426
0.261089
0.247032
0.227535
0.210592
0.196368
0.191857
0.208525
0.268649
0.225585
0.171577
0.139066
0.119925
0.105633
0.0952236
0.0866151
0.0797502
0.0739209
0.0691165
0.065126
0.0619167
0.0593494
0.0573287
0.0556778
0.0542917
0.0530345
0.0518557
0.0506956
0.0495487
0.0483999
0.0472573
0.0461197
0.0449936
0.04388
0.042783
0.0417031
0.0406433
0.0396038
0.0385884
0.0375974
0.0366367
0.0357061
0.0348141
0.0339588
0.0331515
0.0323859
0.0316774
0.0310144
0.0304185
0.0298723
0.0294061
0.0289985
0.0286887
0.0284601
0.028329
0.354998
0.378204
0.399436
0.416471
0.428266
0.433552
0.430741
0.419434
0.400556
0.376399
0.349499
0.322085
0.295678
0.271137
0.248842
0.228896
0.211247
0.195757
0.182251
0.170565
0.16058
0.152229
0.145519
0.14046
0.137173
0.135672
0.136129
0.138477
0.142973
0.14941
0.158179
0.168784
0.181599
0.195536
0.21075
0.22553
0.239907
0.252013
0.262266
0.269319
0.274273
0.27626
0.276666
0.273664
0.268406
0.257157
0.243268
0.223971
0.207212
0.193029
0.188363
0.204524
0.264057
0.222026
0.169408
0.137602
0.11882
0.104798
0.0945887
0.086148
0.079413
0.0736829
0.0689418
0.064985
0.061779
0.0592011
0.0571602
0.0554953
0.0541019
0.0528496
0.0516833
0.0505424
0.0494172
0.0482911
0.0471702
0.0460531
0.0449454
0.0438486
0.0427664
0.0417001
0.0406523
0.0396239
0.0386184
0.0376364
0.0366834
0.0357594
0.0348721
0.0340201
0.033214
0.0324477
0.0317359
0.0310676
0.0304636
0.0299068
0.0294267
0.029002
0.0286715
0.0284172
0.0282573
0.355292
0.378632
0.399727
0.416383
0.427677
0.432488
0.429308
0.41777
0.398793
0.374642
0.347827
0.32055
0.294313
0.269957
0.247846
0.228065
0.210549
0.19514
0.181654
0.169917
0.159811
0.151273
0.144316
0.138952
0.135299
0.133378
0.133362
0.135201
0.139162
0.145063
0.153311
0.163448
0.175878
0.18955
0.204659
0.219479
0.23406
0.246448
0.257069
0.264453
0.269732
0.271929
0.272507
0.269581
0.264415
0.253267
0.239554
0.220466
0.203894
0.189763
0.184951
0.200603
0.259499
0.218521
0.167286
0.136175
0.117742
0.10398
0.093965
0.0856876
0.0790812
0.073451
0.0687763
0.064857
0.0616587
0.0590734
0.0570138
0.0553343
0.0539316
0.0526812
0.0515241
0.0503992
0.0492928
0.0481871
0.047086
0.0459877
0.0448973
0.0438159
0.0427477
0.0416939
0.0406574
0.0396394
0.0386433
0.0376699
0.0367244
0.0358068
0.0349246
0.0340762
0.0332717
0.0325053
0.0317912
0.0311186
0.0305074
0.0299413
0.0294486
0.0290083
0.0286585
0.0283803
0.0281933
0.355588
0.379047
0.399984
0.416244
0.427028
0.43136
0.427816
0.416055
0.396989
0.372855
0.346134
0.319003
0.292943
0.26878
0.246859
0.227252
0.209875
0.194558
0.181102
0.169329
0.159118
0.150413
0.143227
0.137579
0.133582
0.131261
0.130788
0.132131
0.13556
0.140921
0.148634
0.158278
0.170291
0.18366
0.198619
0.213443
0.228197
0.24085
0.251832
0.25955
0.265163
0.267586
0.26835
0.265516
0.260454
0.249419
0.235889
0.21702
0.200641
0.18657
0.18162
0.196761
0.254979
0.215071
0.16521