/*--------------------------------*- C++ -*----------------------------------*\
| =========                 |                                                 |
| \\      /  F ield         | OpenFOAM: The Open Source CFD Toolbox           |
|  \\    /   O peration     | Version:  2412                                  |
|   \\  /    A nd           | Website:  www.openfoam.com                      |
|    \\/     M anipulation  |                                                 |
\*---------------------------------------------------------------------------*/
FoamFile
{
    version     2.0;
    format      ascii;
    arch        "LSB;label=32;scalar=64";
    class       volScalarField;
    location    "1";
    object      p;
}
// * * * * * * * * * * * * * * * * * * * * * * * * * * * * * * * * * * * * * //

dimensions      [0 2 -2 0 0 0 0];

internalField   nonuniform List<scalar> 
13077
(
105855
105684
105574
105313
105149
104863
104652
104351
104096
103779
103503
103187
102917
102613
102358
102056
101808
101485
101225
100845
100547
100068
99719.2
99115.2
98727.5
97970.5
97558.2
96598.4
96180.4
94939.8
94548.7
92910
92603
90389.8
90266.9
87209.1
87440.6
83117.5
83989.3
105874
105700
105590
105326
105161
104873
104661
104359
104103
103785
103508
103191
102920
102615
102360
102058
101810
101487
101227
100848
100551
100073
99724.5
99121.7
98733.9
97978.2
97565.5
96607.3
96188.4
94950
94557.3
92921.7
92612.2
90403.2
90276.6
87224.7
87451
83136.1
84000.8
77759.8
79734
70504.6
74371.5
60430.3
67539.3
46134.4
58909.8
25609.6
48144.7
-5043.53
33439.7
-56695.2
9330.87
-154874
-15876.2
-76132.2
1342.08
-34748.9
14521.6
-7102.1
24318.4
11664.5
31727.9
24843.7
37952.3
34750.4
43604.1
42598
48756.6
105894
105717
105607
105339
105173
104883
104670
104366
104109
103790
103512
103195
102924
102618
102362
102060
101811
101489
101230
100852
100555
100078
99729.8
99128.1
98740.2
97985.9
97572.7
96616.3
96196.4
94960.3
94566
92933.5
92621.4
90416.7
90286.4
87240.4
87461.5
83154.8
84012.4
77782.5
79747.1
70532.4
74386.6
60464.1
67556.5
46174
58930.2
25655.3
48173.6
-4992.24
33484.3
-56684.9
9331.02
-155392
-16017.4
-76150.5
1324.22
-34732.9
14520.9
-7086.31
24318.4
11677.7
31729
24856.3
37955.3
34762
43608.2
42608
48761
48976.5
53376.3
54218.3
57443.9
58554.2
60969.7
62142
63986.1
65115.5
66549.6
67594
68730
69684.4
70597.3
71477.3
72216.3
73047.2
73639.6
74451.9
74902.5
75731
76019.6
76910.2
76985.6
78015.9
77778.1
79096.7
78348.3
80267.6
78584.8
105913
105735
105623
105353
105185
104894
104679
104374
104116
103796
103517
103199
102927
102621
102364
102062
101813
101491
101232
100855
100558
100083
99734.9
99134.4
98746.6
97993.5
97580
96625.2
96204.5
94970.6
94574.8
92945.3
92630.8
90430.3
90296.4
87256.2
87472.1
83173.6
84024
77805.2
79760.3
70560.4
74401.8
60498
67573.8
46214
58950.9
25701.4
48202.6
-4940.94
33528.7
-56674.4
9331.32
-155915
-16159.3
-76168
1306.71
-34716.6
14520.4
-7070.48
24318.4
11691
31730.2
24869
37958.4
34773.8
43612.3
42618.1
48765.6
48985
53380.8
54225.3
57447.9
58559.7
60973.1
62146.2
63988.7
65118.6
66551.7
67596.4
68731.9
69686.4
70599.3
71479.1
72218.6
73049
73642.3
74453.4
74905.5
75732
76022.9
76910.3
76989.4
78014.6
77782.9
79093.5
78355.1
80262
78594.8
105933
105752
105639
105366
105198
104904
104689
104382
104123
103802
103522
103203
102930
102623
102367
102064
101815
101493
101234
100858
100562
100087
99740
99140.7
98752.9
98001.2
97587.3
96634.3
96212.6
94981
94583.6
92957.3
92640.2
90444
90306.4
87272.2
87482.8
83192.5
84035.7
77828.1
79773.5
70588.4
74417
60532.2
67591.4
46254.2
58971.9
25747.7
48231.8
-4889.63
33573.1
-56663.7
9331.79
-156441
-16301.9
-76184.7
1289.53
-34700.1
14520
-7054.6
24318.4
11704.3
31731.5
24881.7
37961.5
34785.5
43616.4
42628.3
48770.1
48993.5
53385.4
54232.3
57452
58565.2
60976.5
62150.3
63991.4
65121.7
66553.9
67598.7
68733.8
69688.4
70601.3
71481
72220.9
73050.8
73645
74455
74908.5
75733
76026.1
76910.4
76993.1
78013.3
77787.8
79090.4
78362
80256.4
78604.9
105953
105769
105656
105379
105210
104914
104698
104390
104130
103808
103527
103207
102933
102626
102369
102066
101817
101495
101236
100861
100565
100092
99745
99147
98759.2
98008.9
97594.6
96643.3
96220.8
94991.5
94592.5
92969.3
92649.8
90457.9
90316.5
87288.3
87493.6
83211.5
84047.5
77851.1
79786.8
70616.6
74432.4
60566.5
67609.1
46294.7
58993
25794.2
48261.1
-4838.29
33617.5
-56652.5
9332.58
-156971
-16445
-76200.7
1272.64
-34683.3
14519.7
-7038.58
24318.6
11717.7
31732.8
24894.4
37964.8
34797.4
43620.6
42638.4
48774.7
49002
53389.9
54239.3
57456.1
58570.8
60979.9
62154.5
63994
65124.8
66556
67601.1
68735.8
69690.4
70603.4
71482.9
72223.3
73052.6
73647.7
74456.6
74911.5
75734.1
76029.4
76910.5
76996.9
78012.1
77792.6
79087.3
78368.8
80250.9
78614.9
105974
105787
105673
105393
105223
104925
104707
104398
104137
103814
103532
103211
102937
102629
102371
102068
101819
101497
101239
100864
100569
100097
99750
99153.2
98765.4
98016.5
97601.9
96652.4
96229
95002.1
94601.5
92981.5
92659.5
90471.8
90326.8
87304.5
87504.5
83230.6
84059.4
77874.2
79800.2
70644.9
74447.9
60601
67626.9
46335.3
59014.2
25840.9
48290.4
-4786.91
33661.9
-56641
9333.7
-157505
-16588.8
-76215.8
1256.05
-34666.3
14519.6
-7022.42
24318.9
11731.2
31734.3
24907.3
37968.1
34809.2
43624.9
42648.6
48779.3
49010.6
53394.5
54246.4
57460.2
58576.3
60983.3
62158.7
63996.7
65127.9
66558.2
67603.4
68737.7
69692.4
70605.4
71484.7
72225.6
73054.4
73650.4
74458.2
74914.5
75735.2
76032.7
76910.7
77000.7
78011
77797.4
79084.3
78375.6
80245.4
78624.9
105994
105804
105689
105407
105235
104935
104717
104406
104143
103820
103537
103216
102940
102632
102373
102070
101820
101499
101241
100866
100572
100101
99754.9
99159.3
98771.6
98024.2
97609.2
96661.5
96237.3
95012.7
94610.6
92993.7
92669.2
90485.9
90337.1
87320.8
87515.6
83249.9
84071.4
77897.4
79813.7
70673.3
74463.4
60635.6
67644.9
46376.1
59035.6
25887.7
48319.7
-4735.53
33706.3
-56629.1
9335.13
-158043
-16733.1
-76230.2
1239.75
-34649.1
14519.7
-7006.11
24319.4
11744.8
31735.8
24920.2
37971.4
34821.1
43629.1
42658.8
48783.9
49019.1
53399
54253.4
57464.4
58581.9
60986.7
62162.9
63999.4
65131
66560.4
67605.8
68739.7
69694.4
70607.5
71486.6
72228
73056.2
73653.1
74459.9
74917.5
75736.3
76036
76910.9
77004.5
78009.9
77802.2
79081.4
78382.4
80239.9
78634.9
106014
105822
105706
105420
105248
104946
104726
104414
104150
103826
103542
103220
102943
102635
102376
102072
101822
101501
101243
100869
100575
100106
99759.7
99165.4
98777.8
98031.8
97616.5
96670.6
96245.6
95023.3
94619.8
93006
92679.1
90500.1
90347.6
87337.2
87526.7
83269.3
84083.5
77920.8
79827.3
70701.9
74479.1
60670.4
67663
46417.2
59057.1
25934.7
48349.1
-4684.15
33750.6
-56616.8
9336.85
-158585
-16878
-76243.7
1223.76
-34631.6
14520
-6989.68
24319.9
11758.6
31737.5
24933.2
37974.8
34833.1
43633.4
42669.1
48788.5
49027.7
53403.6
54260.5
57468.5
58587.4
60990.1
62167.1
64002.2
65134.1
66562.6
67608.2
68741.7
69696.4
70609.6
71488.5
72230.3
73058.1
73655.8
74461.5
74920.5
75737.4
76039.3
76911.2
77008.3
78008.8
77807
79078.4
78389.2
80234.5
78645
106035
105840
105723
105434
105261
104956
104735
104422
104157
103832
103547
103224
102947
102638
102378
102074
101824
101503
101245
100872
100579
100110
99764.4
99171.4
98783.9
98039.3
97623.8
96679.7
96253.9
95034
94629
93018.4
92689.1
90514.4
90358.2
87353.8
87538
83288.8
84095.8
77944.2
79841
70730.6
74494.9
60705.3
67681.2
46458.4
59078.7
25981.8
48378.5
-4632.78
33794.8
-56604.3
9338.84
-159130
-17023.4
-76256.3
1208.07
-34613.9
14520.4
-6973.11
24320.7
11772.4
31739.3
24946.3
37978.3
34845
43637.8
42679.3
48793.2
49036.3
53408.2
54267.6
57472.7
58593
60993.6
62171.3
64004.9
65137.2
66564.8
67610.6
68743.7
69698.4
70611.6
71490.4
72232.7
73060
73658.6
74463.2
74923.6
75738.6
76042.7
76911.4
77012.1
78007.8
77811.8
79075.6
78396
80229.1
78655
106056
105858
105740
105448
105274
104967
104745
104430
104164
103838
103552
103228
102950
102641
102380
102076
101826
101505
101247
100875
100582
100114
99769.1
99177.3
98789.9
98046.8
97631
96688.8
96262.2
95044.7
94638.3
93030.9
92699.1
90528.8
90368.9
87370.5
87549.4
83308.4
84108.1
77967.8
79854.8
70759.4
74510.8
60740.4
67699.5
46499.7
59100.5
26029
48407.9
-4581.43
33839
-56591.5
9341.1
-159680
-17169.3
-76268.2
1192.68
-34596
14520.9
-6956.41
24321.5
11786.3
31741.2
24959.4
37981.9
34857.1
43642.2
42689.6
48797.8
49044.9
53412.9
54274.6
57476.8
58598.6
60997
62175.5
64007.6
65140.4
66567
67613
68745.7
69700.5
70613.7
71492.4
72235.1
73061.8
73661.3
74464.8
74926.6
75739.7
76046
76911.7
77015.9
78006.8
77816.5
79072.7
78402.8
80223.7
78665
106077
105876
105758
105462
105286
104978
104754
104438
104171
103844
103557
103233
102954
102644
102383
102078
101828
101507
101249
100877
100585
100118
99773.6
99183.1
98795.9
98054.2
97638.2
96697.8
96270.6
95055.5
94647.6
93043.4
92709.3
90543.3
90379.7
87387.3
87560.8
83328.2
84120.5
77991.5
79868.7
70788.3
74526.8
60775.6
67718
46541.3
59122.4
26076.4
48437.4
-4530.12
33883.1
-56578.4
9343.6
-160234
-17315.8
-76279.1
1177.6
-34577.8
14521.7
-6939.58
24322.6
11800.3
31743.2
24972.6
37985.6
34869.2
43646.6
42699.9
48802.5
49053.5
53417.5
54281.7
57481
58604.2
61000.5
62179.7
64010.4
65143.5
66569.3
67615.4
68747.7
69702.5
70615.8
71494.3
72237.5
73063.7
73664.1
74466.5
74929.6
75740.9
76049.3
76912
77019.6
78005.8
77821.3
79069.9
78409.5
80218.3
78674.9
106099
105894
105775
105476
105299
104988
104764
104446
104178
103850
103562
103237
102957
102647
102385
102080
101830
101509
101251
100880
100588
100122
99778.1
99188.9
98801.7
98061.6
97645.4
96706.8
96278.9
95066.2
94657
93056
92719.5
90557.9
90390.7
87404.3
87572.5
83348.1
84133.1
78015.4
79882.7
70817.4
74542.8
60811
67736.5
46583
59144.3
26123.9
48466.8
-4478.85
33927.1
-56565.1
9346.33
-160792
-17462.8
-76289.2
1162.82
-34559.4
14522.6
-6922.63
24323.7
11814.5
31745.3
24985.9
37989.3
34881.3
43651.1
42710.2
48807.2
49062.1
53422.1
54288.8
57485.2
58609.8
61004
62184
64013.2
65146.7
66571.5
67617.9
68749.8
69704.6
70618
71496.3
72239.9
73065.6
73666.8
74468.2
74932.7
75742.1
76052.6
76912.4
77023.4
78004.9
77826
79067.2
78416.2
80213
78684.9
106120
105912
105792
105490
105312
104999
104773
104454
104185
103856
103567
103242
102961
102650
102388
102083
101831
101511
101253
100882
100590
100126
99782.4
99194.5
98807.5
98068.9
97652.5
96715.8
96287.2
95077
94666.4
93068.7
92729.8
90572.6
90401.7
87421.3
87584.2
83368.1
84145.7
78039.3
79896.7
70846.5
74558.9
60846.4
67755.2
46624.8
59166.3
26171.4
48496.2
-4427.63
33970.9
-56551.5
9349.27
-161355
-17610.3
-76298.4
1148.35
-34540.8
14523.6
-6905.55
24325
11828.7
31747.6
24999.3
37993.1
34893.5
43655.6
42720.5
48812
49070.8
53426.8
54295.9
57489.4
58615.4
61007.5
62188.2
64015.9
65149.9
66573.8
67620.3
68751.8
69706.7
70620.1
71498.2
72242.3
73067.6
73669.6
74470
74935.7
75743.4
76055.9
76912.8
77027.2
78004
77830.8
79064.5
78422.9
80207.6
78694.8
106142
105931
105810
105504
105325
105010
104783
104463
104193
103862
103572
103246
102965
102653
102390
102085
101833
101513
101255
100885
100593
100130
99786.7
99200.1
98813.3
98076.1
97659.6
96724.8
96295.5
95087.8
94675.8
93081.4
92740.2
90587.3
90412.8
87438.5
87596
83388.2
84158.5
78063.3
79910.9
70875.8
74575.2
60882
67773.9
46666.8
59188.5
26219.1
48525.6
-4376.48
34014.6
-56537.8
9352.4
-161921
-17758.2
-76306.6
1134.18
-34522
14524.8
-6888.36
24326.4
11843.1
31749.9
25012.7
37997
34905.7
43660.1
42730.9
48816.8
49079.4
53431.5
54303
57493.6
58621
61011
62192.5
64018.7
65153.1
66576
67622.8
68753.9
69708.7
70622.2
71500.2
72244.7
73069.5
73672.3
74471.7
74938.7
75744.6
76059.2
76913.1
77030.9
78003.1
77835.5
79061.8
78429.5
80202.3
78704.7
106164
105950
105828
105519
105338
105021
104792
104471
104200
103868
103578
103250
102968
102656
102393
102087
101835
101515
101257
100887
100596
100134
99790.8
99205.5
98818.9
98083.3
97666.5
96733.7
96303.8
95098.5
94685.3
93094.1
92750.6
90602.2
90424.1
87455.7
87607.9
83408.5
84171.3
78087.5
79925.1
70905.1
74591.5
60917.7
67792.8
46708.9
59210.7
26266.9
48555
-4325.4
34058.2
-56523.9
9355.7
-162492
-17906.7
-76314
1120.32
-34502.9
14526.1
-6871.04
24327.9
11857.5
31752.4
25026.2
38001
34917.9
43664.8
42741.3
48821.6
49088.1
53436.2
54310.1
57497.9
58626.6
61014.5
62196.7
64021.5
65156.2
66578.3
67625.2
68755.9
69710.8
70624.4
71502.2
72247.1
73071.4
73675.1
74473.4
74941.8
75745.9
76062.5
76913.6
77034.7
78002.3
77840.2
79059.2
78436.1
80197
78714.6
106186
105968
105846
105533
105351
105032
104802
104479
104207
103874
103583
103255
102972
102659
102395
102089
101837
101517
101258
100890
100599
100137
99794.9
99210.8
98824.4
98090.3
97673.4
96742.5
96312
95109.2
94694.7
93106.9
92761.1
90617.1
90435.4
87473.1
87620
83428.8
84184.2
78111.8
79939.4
70934.6
74607.8
60953.5
67811.7
46751.2
59233
26314.7
48584.3
-4274.39
34101.6
-56509.8
9359.16
-163066
-18055.7
-76320.4
1106.77
-34483.7
14527.6
-6853.62
24329.6
11872
31754.9
25039.8
38005
34930.2
43669.4
42751.7
48826.4
49096.7
53440.9
54317.3
57502.1
58632.2
61018
62201
64024.4
65159.4
66580.6
67627.7
68758
69712.9
70626.5
71504.2
72249.6
73073.4
73677.9
74475.2
74944.8
75747.2
76065.8
76914
77038.4
78001.5
77844.8
79056.6
78442.7
80191.7
78724.4
106209
105987
105864
105547
105365
105043
104812
104488
104214
103881
103588
103260
102976
102662
102398
102092
101839
101519
101260
100892
100601
100141
99798.8
99216
98829.8
98097.2
97680.2
96751.2
96320.1
95119.9
94704.2
93119.6
92771.7
90632.1
90446.8
87490.6
87632.1
83449.3
84197.3
78136.1
79953.8
70964.1
74624.3
60989.5
67830.7
46793.5
59255.3
26362.6
48613.6
-4223.47
34144.8
-56495.7
9362.76
-163645
-18205.1
-76325.9
1093.52
-34464.2
14529.3
-6836.08
24331.4
11886.6
31757.6
25053.4
38009.2
34942.6
43674.2
42762.2
48831.3
49105.4
53445.7
54324.4
57506.4
58637.9
61021.6
62205.3
64027.2
65162.6
66582.9
67630.1
68760.1
69715
70628.7
71506.2
72252
73075.3
73680.6
74477
74947.9
75748.5
76069.1
76914.5
77042.1
78000.7
77849.5
79054
78449.3
80186.5
78734.2
106231
106006
105882
105562
105378
105054
104822
104496
104221
103887
103593
103264
102980
102666
102400
102094
101841
101521
101262
100894
100604
100144
99802.6
99221.2
98835.1
98104
97686.9
96759.8
96328.2
95130.5
94713.6
93132.4
92782.3
90647.2
90458.3
87508.1
87644.3
83469.8
84210.4
78160.6
79968.2
70993.8
74640.8
61025.5
67849.7
46836
59277.7
26410.6
48642.8
-4172.64
34187.9
-56481.4
9366.47
-164228
-18355
-76330.4
1080.57
-34444.5
14531.1
-6818.43
24333.3
11901.3
31760.4
25067.1
38013.4
34955
43678.9
42772.6
48836.2
49114.1
53450.4
54331.5
57510.7
58643.5
61025.2
62209.6
64030
65165.9
66585.2
67632.6
68762.2
69717.2
70630.8
71508.2
72254.4
73077.3
73683.4
74478.8
74950.9
75749.8
76072.4
76914.9
77045.8
77999.9
77854.1
79051.5
78455.8
80181.2
78743.9
106254
106025
105900
105576
105391
105065
104831
104504
104229
103893
103599
103269
102983
102669
102403
102096
101843
101523
101264
100896
100606
100148
99806.4
99226.1
98840.3
98110.7
97693.5
96768.4
96336.3
95141.1
94723
93145.2
92792.9
90662.3
90469.8
87525.8
87656.7
83490.5
84223.6
78185.2
79982.8
71023.5
74657.3
61061.6
67868.8
46878.6
59300.2
26458.6
48672
-4121.91
34230.8
-56467
9370.27
-164816
-18505.4
-76333.9
1067.93
-34424.6
14533
-6800.68
24335.4
11916.1
31763.3
25080.9
38017.7
34967.5
43683.8
42783.1
48841.1
49122.8
53455.2
54338.7
57515
58649.2
61028.7
62213.9
64032.9
65169.1
66587.5
67635.1
68764.3
69719.3
70633
71510.2
72256.9
73079.3
73686.2
74480.5
74953.9
75751.1
76075.7
76915.4
77049.6
77999.2
77858.7
79049
78462.3
80176
78753.7
106277
106045
105919
105591
105405
105076
104841
104513
104236
103900
103604
103273
102987
102672
102406
102099
101845
101525
101266
100899
100608
100151
99810
99231
98845.3
98117.3
97700
96776.8
96344.2
95151.6
94732.4
93157.9
92803.5
90677.4
90481.5
87543.5
87669.1
83511.3
84236.9
78209.8
79997.4
71053.3
74673.9
61097.8
67888
46921.3
59322.7
26506.7
48701.1
-4071.29
34273.4
-56452.5
9374.16
-165407
-18656.3
-76336.5
1055.59
-34404.5
14535
-6782.83
24337.6
11931
31766.3
25094.7
38022.1
34980
43688.7
42793.7
48846.1
49131.5
53460
54345.9
57519.3
58654.8
61032.3
62218.2
64035.8
65172.3
66589.9
67637.6
68766.4
69721.4
70635.2
71512.2
72259.3
73081.2
73689
74482.3
74957
75752.4
76079
76916
77053.3
77998.5
77863.3
79046.5
78468.7
80170.8
78763.4
106300
106064
105937
105606
105418
105087
104851
104521
104243
103906
103610
103278
102991
102676
102408
102101
101847
101527
101267
100901
100611
100154
99813.5
99235.8
98850.3
98123.8
97706.4
96785.2
96352
95162
94741.7
93170.6
92814.1
90692.6
90493.1
87561.3
87681.6
83532.1
84250.3
78234.6
80012.1
71083.3
74690.6
61134.1
67907.3
46964
59345.2
26554.8
48730.2
-4020.77
34315.9
-56437.9
9378.1
-166003
-18807.6
-76338.1
1043.56
-34384.1
14537.2
-6764.87
24339.9
11946
31769.4
25108.6
38026.5
34992.5
43693.6
42804.2
48851.1
49140.3
53464.9
54353
57523.6
58660.5
61035.9
62222.5
64038.6
65175.6
66592.2
67640.1
68768.5
69723.5
70637.4
71514.2
72261.8
73083.2
73691.7
74484.2
74960
75753.8
76082.3
76916.5
77056.9
77997.9
77867.9
79044.1
78475.1
80165.6
78773
106324
106084
105956
105621
105432
105098
104861
104530
104251
103913
103615
103283
102995
102679
102411
102104
101849
101528
101269
100903
100613
100157
99816.9
99240.5
98855.1
98130.2
97712.7
96793.4
96359.8
95172.3
94750.9
93183.3
92824.8
90707.8
90504.9
87579.2
87694.2
83553.1
84263.8
78259.5
80026.8
71113.2
74707.3
61170.4
67926.5
47006.9
59367.8
26603
48759.2
-3970.36
34358.1
-56423.4
9382.08
-166604
-18959.5
-76338.7
1031.83
-34363.6
14539.6
-6746.82
24342.3
11961
31772.6
25122.6
38031.1
35005.1
43698.6
42814.8
48856.1
49149
53469.7
54360.2
57528
58666.2
61039.6
62226.8
64041.5
65178.8
66594.6
67642.6
68770.6
69725.7
70639.5
71516.3
72264.3
73085.2
73694.5
74486
74963.1
75755.2
76085.5
76917.1
77060.6
77997.3
77872.5
79041.7
78481.5
80160.4
78782.6
106348
106104
105975
105635
105445
105110
104871
104538
104258
103919
103621
103288
102999
102682
102414
102106
101851
101530
101271
100905
100615
100160
99820.3
99245
98859.9
98136.4
97718.8
96801.5
96367.4
95182.6
94760.1
93195.9
92835.4
90723
90516.7
87597.1
87706.9
83574.2
84277.4
78284.4
80041.6
71143.3
74724.1
61206.8
67945.9
47049.8
59390.4
26651.2
48788.1
-3920.07
34400.1
-56408.7
9386.07
-167209
-19111.8
-76338.3
1020.4
-34342.9
14542
-6728.67
24344.8
11976.2
31775.9
25136.6
38035.7
35017.8
43703.7
42825.5
48861.2
49157.8
53474.6
54367.4
57532.4
58671.9
61043.2
62231.1
64044.5
65182.1
66596.9
67645.2
68772.8
69727.9
70641.8
71518.3
72266.7
73087.2
73697.3
74487.8
74966.1
75756.5
76088.8
76917.7
77064.3
77996.7
77877
79039.3
78487.9
80155.2
78792.2
106372
106123
105994
105650
105459
105121
104881
104547
104265
103926
103626
103293
103003
102686
102417
102109
101853
101532
101273
100907
100617
100163
99823.5
99249.5
98864.5
98142.5
97724.8
96809.5
96375
95192.7
94769.2
93208.5
92846
90738.1
90528.5
87615.1
87719.7
83595.3
84291.1
78309.4
80056.5
71173.4
74740.9
61243.3
67965.2
47092.8
59413
26699.5
48816.9
-3869.9
34441.9
-56394.1
9390.05
-167818
-19264.6
-76336.9
1009.27
-34322
14544.6
-6710.43
24347.4
11991.4
31779.4
25150.7
38040.4
35030.4
43708.8
42836.1
48866.3
49166.6
53479.5
54374.6
57536.8
58677.6
61046.9
62235.5
64047.4
65185.3
66599.3
67647.7
68774.9
69730
70644
71520.4
72269.2
73089.3
73700.1
74489.6
74969.2
75757.9
76092.1
76918.3
77067.9
77996.1
77881.5
79037
78494.2
80150.1
78801.7
106396
106143
106013
105666
105472
105132
104891
104555
104273
103932
103632
103297
103007
102689
102420
102111
101855
101534
101274
100909
100619
100166
99826.7
99253.8
98869
98148.5
97730.7
96817.3
96382.4
95202.7
94778.2
93221
92856.5
90753.3
90540.3
87633.2
87732.5
83616.5
84304.8
78334.6
80071.4
71203.6
74757.7
61279.9
67984.6
47135.9
59435.6
26747.7
48845.6
-3819.85
34483.5
-56379.5
9394.01
-168431
-19418
-76334.5
998.434
-34300.9
14547.4
-6692.1
24350.2
12006.7
31782.9
25164.8
38045.2
35043.1
43714
42846.8
48871.5
49175.5
53484.5
54381.9
57541.2
58683.3
61050.5
62239.8
64050.3
65188.6
66601.7
67650.2
68777.1
69732.2
70646.2
71522.4
72271.7
73091.3
73702.9
74491.5
74972.2
75759.3
76095.3
76918.9
77071.6
77995.5
77886
79034.7
78500.5
80145
78811.2
106421
106164
106032
105681
105486
105144
104901
104564
104280
103939
103637
103302
103011
102693
102422
102114
101857
101536
101276
100911
100621
100169
99829.7
99258
98873.4
98154.4
97736.5
96825.1
96389.7
95212.6
94787.1
93233.4
92867
90768.5
90552.2
87651.2
87745.4
83637.8
84318.6
78359.8
80086.4
71233.9
74774.6
61316.5
68004
47179.1
59458.2
26796
48874.3
-3769.92
34524.8
-56364.9
9397.93
-169050
-19571.8
-76331
987.901
-34279.6
14550.2
-6673.68
24353.1
12022
31786.5
25179
38050.1
35055.9
43719.3
42857.5
48876.7
49184.3
53489.5
54389.1
57545.6
58689
61054.2
62244.2
64053.3
65191.9
66604.1
67652.8
68779.3
69734.4
70648.4
71524.5
72274.1
73093.3
73705.7
74493.4
74975.2
75760.8
76098.6
76919.5
77075.2
77995
77890.5
79032.5
78506.7
80139.9
78820.6
106446
106184
106052
105696
105500
105155
104911
104573
104288
103945
103643
103307
103015
102696
102425
102116
101859
101538
101278
100913
100623
100172
99832.7
99262.2
98877.7
98160.1
97742.2
96832.6
96396.8
95222.4
94795.9
93245.7
92877.4
90783.6
90564
87669.3
87758.3
83659.2
84332.5
78385
80101.5
71264.2
74791.5
61353.1
68023.5
47222.2
59480.9
26844.3
48902.8
-3720.12
34565.9
-56350.3
9401.77
-169672
-19726.2
-76326.5
977.665
-34258.1
14553.2
-6655.17
24356.1
12037.5
31790.2
25193.2
38055
35068.7
43724.6
42868.3
48882
49193.2
53494.5
54396.4
57550.1
58694.8
61058
62248.6
64056.3
65195.2
66606.5
67655.4
68781.4
69736.6
70650.6
71526.6
72276.6
73095.4
73708.5
74495.2
74978.3
75762.2
76101.9
76920.2
77078.9
77994.5
77894.9
79030.3
78512.9
80134.8
78830
106471
106204
106071
105711
105514
105167
104921
104581
104295
103952
103649
103312
103019
102700
102428
102119
101861
101540
101279
100915
100625
100174
99835.6
99266.2
98881.8
98165.7
97747.7
96840.1
96403.8
95232
94804.6
93257.9
92887.8
90798.6
90575.9
87687.5
87771.3
83680.6
84346.4
78410.4
80116.6
71294.6
74808.5
61389.9
68043
47265.5
59503.5
26892.6
48931.3
-3670.45
34606.8
-56335.7
9405.53
-170299
-19881.1
-76320.9
967.723
-34236.4
14556.4
-6636.57
24359.2
12053
31794
25207.5
38060
35081.5
43730
42879.1
48887.3
49202.1
53499.5
54403.7
57554.6
58700.5
61061.7
62253
64059.2
65198.5
66609
67657.9
68783.6
69738.8
70652.9
71528.7
72279.1
73097.4
73711.3
74497.1
74981.3
75763.6
76105.1
76920.9
77082.5
77994.1
77899.4
79028.1
78519.1
80129.7
78839.4
106496
106225
106091
105727
105528
105178
104931
104590
104303
103959
103654
103317
103024
102704
102431
102122
101863
101543
101281
100917
100627
100177
99838.4
99270.2
98885.9
98171.2
97753.1
96847.4
96410.7
95241.5
94813.2
93269.9
92898.1
90813.6
90587.7
87705.6
87784.3
83702
84360.4
78435.8
80131.8
71325
74825.5
61426.6
68062.4
47308.8
59526.1
26940.9
48959.6
-3620.9
34647.5
-56321.2
9409.18
-170931
-20036.6
-76314.3
958.076
-34214.5
14559.6
-6617.89
24362.4
12068.5
31797.9
25221.8
38065.1
35094.4
43735.5
42889.9
48892.7
49211
53504.6
54411
57559.1
58706.3
61065.5
62257.4
64062.3
65201.9
66611.4
67660.5
68785.8
69741
70655.1
71530.8
72281.6
73099.5
73714.1
74499
74984.4
75765.1
76108.4
76921.6
77086.1
77993.6
77903.8
79025.9
78525.2
80124.7
78848.7
106522
106246
106111
105742
105542
105190
104941
104599
104311
103965
103660
103322
103028
102707
102434
102124
101865
101545
101283
100919
100629
100180
99841.2
99274.1
98889.9
98176.6
97758.4
96854.6
96417.5
95250.8
94821.6
93281.9
92908.3
90828.5
90599.5
87723.7
87797.4
83723.5
84374.5
78461.2
80147
71355.5
74842.5
61463.4
68081.9
47352.1
59548.7
26989.2
48987.9
-3571.48
34687.9
-56306.7
9412.7
-171567
-20192.5
-76306.7
948.72
-34192.4
14563
-6599.13
24365.7
12084.1
31801.8
25236.2
38070.3
35107.3
43741
42900.7
48898.1
49219.9
53509.8
54418.3
57563.7
58712.1
61069.3
62261.8
64065.3
65205.2
66613.9
67663.1
68788
69743.2
70657.4
71532.9
72284.1
73101.5
73716.9
74500.9
74987.4
75766.6
76111.6
76922.3
77089.7
77993.2
77908.2
79023.8
78531.3
80119.7
78858
106548
106267
106131
105758
105556
105202
104951
104608
104318
103972
103666
103327
103032
102711
102437
102127
101868
101547
101285
100921
100631
100182
99843.9
99277.9
98893.8
98181.9
97763.5
96861.6
96424.1
95260
94829.9
93293.7
92918.4
90843.4
90611.3
87741.8
87810.5
83745.1
84388.6
78486.8
80162.3
71386.1
74859.5
61500.3
68101.4
47395.5
59571.3
27037.6
49016
-3522.18
34728.1
-56292.2
9416.06
-172208
-20349.1
-76298
939.655
-34170.1
14566.5
-6580.29
24369.1
12099.8
31805.9
25250.6
38075.5
35120.2
43746.5
42911.6
48903.6
49228.9
53514.9
54425.6
57568.3
58717.9
61073.1
62266.2
64068.3
65208.6
66616.4
67665.7
68790.3
69745.4
70659.6
71535
72286.6
73103.6
73719.7
74502.8
74990.4
75768.1
76114.9
76923.1
77093.3
77992.9
77912.5
79021.7
78537.4
80114.7
78867.2
106574
106288
106151
105773
105570
105213
104961
104617
104326
103979
103672
103333
103036
102715
102440
102130
101870
101549
101286
100923
100632
100185
99846.5
99281.6
98897.6
98187.1
97768.6
96868.5
96430.6
95269
94838
93305.4
92928.4
90858.1
90623
87759.8
87823.5
83766.7
84402.8
78512.4
80177.6
71416.7
74876.5
61537.1
68120.9
47438.9
59593.9
27085.9
49044
-3473
34768
-56277.9
9419.26
-172854
-20506.2
-76288.2
930.878
-34147.7
14570.1
-6561.37
24372.6
12115.6
31810.1
25265
38080.8
35133.2
43752.2
42922.5
48909.1
49237.9
53520.1
54433
57572.9
58723.7
61076.9
62270.7
64071.4
65211.9
66618.9
67668.4
68792.5
69747.7
70661.9
71537.1
72289.1
73105.7
73722.5
74504.7
74993.5
75769.6
76118.1
76923.8
77096.8
77992.5
77916.9
79019.7
78543.4
80109.8
78876.4
106600
106309
106171
105789
105584
105225
104971
104625
104334
103986
103678
103338
103041
102719
102443
102132
101872
101551
101288
100925
100634
100187
99849.1
99285.3
98901.3
98192.2
97773.5
96875.3
96436.9
95277.9
94846.1
93316.9
92938.2
90872.7
90634.6
87777.8
87836.6
83788.3
84417
78538
80192.9
71447.3
74893.6
61574
68140.4
47482.3
59616.5
27134.2
49071.9
-3423.94
34807.7
-56263.5
9422.27
-173504
-20664
-76277.3
922.389
-34125
14573.9
-6542.36
24376.2
12131.4
31814.3
25279.5
38086.1
35146.2
43757.9
42933.4
48914.7
49246.9
53525.4
54440.4
57577.6
58729.6
61080.8
62275.2
64074.5
65215.3
66621.4
67671
68794.8
69749.9
70664.2
71539.3
72291.7
73107.8
73725.4
74506.6
74996.5
75771.1
76121.3
76924.6
77100.4
77992.2
77921.2
79017.7
78549.4
80104.8
78885.5
106627
106330
106192
105805
105598
105237
104982
104634
104341
103992
103684
103343
103045
102722
102446
102135
101874
101553
101290
100927
100636
100190
99851.7
99288.9
98905
98197.2
97778.4
96881.9
96443.1
95286.6
94853.9
93328.3
92947.9
90887.2
90646.2
87795.8
87849.7
83809.9
84431.3
78563.7
80208.3
71478
74910.7
61611
68159.9
47525.8
59639.1
27182.5
49099.8
-3375.01
34847.2
-56249.3
9425.06
-174160
-20822.3
-76265.3
914.184
-34102.2
14577.7
-6523.28
24379.9
12147.2
31818.6
25294
38091.6
35159.2
43763.6
42944.4
48920.3
49255.9
53530.7
54447.8
57582.3
58735.5
61084.7
62279.7
64077.6
65218.7
66623.9
67673.6
68797
69752.2
70666.5
71541.4
72294.2
73109.9
73728.2
74508.6
74999.5
75772.6
76124.6
76925.4
77104
77991.9
77925.5
79015.7
78555.3
80099.9
78894.6
106654
106352
106213
105821
105613
105249
104992
104643
104349
103999
103689
103348
103049
102726
102450
102138
101876
101555
101291
100928
100638
100192
99854.2
99292.4
98908.5
98202.1
97783.1
96888.5
96449.2
95295.2
94861.6
93339.5
92957.5
90901.6
90657.7
87813.7
87862.8
83831.5
84445.5
78589.4
80223.7
71508.7
74927.8
61647.9
68179.4
47569.3
59661.6
27230.8
49127.5
-3326.18
34886.5
-56235.1
9427.63
-174819
-20981.3
-76252.2
906.262
-34079.2
14581.7
-6504.13
24383.7
12163.2
31823
25308.5
38097
35172.2
43769.4
42955.4
48926
49265
53536
54455.2
57587
58741.3
61088.6
62284.2
64080.8
65222.2
66626.5
67676.3
68799.3
69754.5
70668.8
71543.6
72296.7
73112
73731
74510.5
75002.6
75774.2
76127.8
76926.2
77107.5
77991.6
77929.8
79013.8
78561.3
80095
78903.7
106682
106374
106233
105837
105627
105261
105002
104652
104357
104006
103695
103353
103054
102730
102453
102141
101879
101557
101293
100930
100639
100195
99856.6
99295.9
98912
98207
97787.7
96894.9
96455.1
95303.7
94869.2
93350.5
92967
90915.8
90669
87831.5
87875.8
83853.1
84459.8
78615.1
80239.2
71539.5
74944.9
61684.9
68198.9
47612.8
59684.1
27279.1
49155.1
-3277.46
34925.6
-56220.9
9429.95
-175484
-21140.8
-76238
898.62
-34056
14585.9
-6484.89
24387.6
12179.1
31827.5
25323.1
38102.6
35185.3
43775.2
42966.4
48931.7
49274.1
53541.4
54462.7
57591.8
58747.3
61092.6
62288.7
64084
65225.6
66629
67679
68801.6
69756.8
70671.1
71545.7
72299.3
73114.2
73733.8
74512.5
75005.6
75775.7
76131
76927.1
77111.1
77991.4
77934.1
79011.9
78567.1
80090.1
78912.7
106710
106396
106254
105853
105641
105273
105012
104661
104365
104013
103701
103359
103058
102734
102456
102144
101881
101559
101295
100932
100641
100197
99859.1
99299.3
98915.5
98211.7
97792.3
96901.2
96461
95312
94876.6
93361.4
92976.3
90929.9
90680.3
87849.2
87888.8
83874.7
84474.2
78640.9
80254.7
71570.3
74962
61722
68218.4
47656.3
59706.5
27327.4
49182.6
-3228.85
34964.4
-56206.8
9432
-176154
-21301.1
-76222.8
891.257
-34032.6
14590.1
-6465.58
24391.6
12195.1
31832
25337.7
38108.2
35198.4
43781.1
42977.4
48937.5
49283.2
53546.8
54470.2
57596.6
58753.2
61096.6
62293.3
64087.2
65229.1
66631.6
67681.7
68803.9
69759.1
70673.5
71547.9
72301.8
73116.3
73736.7
74514.5
75008.6
75777.3
76134.2
76927.9
77114.6
77991.2
77938.4
79010
78573
80085.3
78921.6
106738
106418
106275
105869
105656
105285
105023
104670
104372
104020
103707
103364
103063
102738
102459
102146
101883
101562
101297
100934
100643
100199
99861.5
99302.7
98918.9
98216.4
97796.8
96907.4
96466.7
95320.1
94883.9
93372.1
92985.4
90943.8
90691.5
87866.8
87901.7
83896.2
84488.5
78666.7
80270.2
71601.1
74979.2
61759
68237.9
47699.9
59729
27375.7
49210
-3180.34
35003.1
-56192.8
9433.77
-176828
-21461.9
-76206.4
884.17
-34009.1
14594.5
-6446.2
24395.7
12211.2
31836.7
25352.3
38113.8
35211.4
43787.1
42988.5
48943.3
49292.3
53552.3
54477.7
57601.4
58759.2
61100.6
62297.9
64090.4
65232.6
66634.3
67684.4
68806.3
69761.4
70675.8
71550.1
72304.4
73118.4
73739.5
74516.4
75011.7
75778.9
76137.4
76928.8
77118.1
77991
77942.6
79008.2
78578.8
80080.5
78930.6
106766
106440
106297
105886
105670
105297
105033
104679
104380
104027
103713
103369
103067
102742
102463
102149