/*--------------------------------*- C++ -*----------------------------------*\
| =========                 |                                                 |
| \\      /  F ield         | OpenFOAM: The Open Source CFD Toolbox           |
|  \\    /   O peration     | Version:  2412                                  |
|   \\  /    A nd           | Website:  www.openfoam.com                      |
|    \\/     M anipulation  |                                                 |
\*---------------------------------------------------------------------------*/
FoamFile
{
    version     2.0;
    format      ascii;
    arch        "LSB;label=32;scalar=64";
    class       surfaceScalarField;
    location    "1";
    object      phi;
}
// * * * * * * * * * * * * * * * * * * * * * * * * * * * * * * * * * * * * * //

dimensions      [0 3 -1 0 0 0 0];

oriented        oriented;

internalField   nonuniform List<scalar> 
25922
(
0.00749475
0.025281
0.00745048
0.0203476
0.00743771
0.0158991
0.00744419
0.0124418
0.00746484
0.00961754
0.00749348
0.00762159
0.00752382
0.0060149
0.00754897
0.00453654
0.00756145
0.00284241
0.00755665
0.000812293
0.00753236
-0.00147834
0.00748999
-0.00389769
0.00743274
-0.00621177
0.00736556
-0.00830522
0.00729413
-0.0100019
0.00722552
-0.0112639
0.00716799
-0.0119185
0.00713066
-0.0120132
0.00711917
-0.0114018
0.007132
-0.0103797
0.00715948
-0.0090461
0.0071906
-0.00789262
0.00721784
-0.00679955
0.00724024
-0.0061357
0.00725831
-0.00538919
0.00727458
-0.00503082
0.0072887
-0.00439074
0.00730247
-0.00419182
0.007314
-0.0035236
0.00732562
-0.00349064
0.00733434
-0.00273116
0.00734375
-0.00286938
0.00734952
-0.00195583
0.00735718
-0.00233843
0.00736032
-0.0012034
0.00736702
-0.00189256
0.00736786
-0.000412768
0.00737442
-0.00153225
0.000467494
0.00749513
0.0253617
0.00745154
0.0203912
0.00743967
0.0159109
0.00744706
0.0124344
0.00746857
0.00959603
0.00749802
0.00759213
0.00752913
0.00598379
0.00755499
0.00451069
0.00756809
0.00282931
0.00756376
0.000816621
0.00753976
-0.00145434
0.00749746
-0.00385539
0.00744005
-0.00615435
0.00737246
-0.00823763
0.00730031
-0.00992976
0.00723062
-0.0111942
0.00717154
-0.0118594
0.00713221
-0.0119739
0.00711851
-0.0113881
0.00712942
-0.0103906
0.00715567
-0.00907235
0.00718628
-0.00792323
0.00721348
-0.00682676
0.00723599
-0.00615821
0.00725419
-0.00540738
0.00727053
-0.00504716
0.00728473
-0.00440494
0.00729855
-0.00420564
0.00731017
-0.00353521
0.00732186
-0.00350233
0.00733066
-0.00273996
0.00734014
-0.00287887
0.00734598
-0.00196167
0.00735368
-0.00234613
0.00735687
-0.0012066
0.00736361
-0.0018993
0.0073645
-0.000413657
0.00737112
-0.00153886
0.00736976
0.000468852
0.00737667
-0.00119089
0.0073719
0.00150588
0.00737725
-0.000910455
0.00736417
0.00249341
0.00736307
-0.00120337
0.00733711
0.00253758
0.00733139
-0.00310075
0.00730275
0.000981354
0.00731652
-0.00546649
0.00732535
0.000702179
0.0074016
-0.000867525
0.00747403
0.00992234
0.0075719
0.0312539
0.00760365
0.0607201
0.00764268
-0.0195327
0.0076384
-0.0481236
0.00767951
-0.029094
0.00770737
-0.0110225
0.00775913
-0.0108437
0.0078113
-0.00377192
0.00788181
-0.00433351
0.00795313
0.00160125
0.00802462
0.00121403
0.00808123
0.00498387
0.0081206
0.00348101
0.00814062
0.00496576
0.00814483
0.00286512
0.00813891
0.00328725
0.00812575
0.00150605
0.0016896
0.00749552
0.0254419
0.00745262
0.0204341
0.00744168
0.0159219
0.00744999
0.0124261
0.00747235
0.00957367
0.00750263
0.00756186
0.0075345
0.00595192
0.00756108
0.00448411
0.0075748
0.00281559
0.00757096
0.00082046
0.00754727
-0.00143065
0.00750506
-0.00381319
0.00744751
-0.0060968
0.00737953
-0.00816965
0.0073067
-0.00985693
0.00723596
-0.0111234
0.00717536
-0.0117988
0.00713405
-0.0119326
0.00711814
-0.0113722
0.00712706
-0.0103996
0.00715198
-0.00909727
0.00718201
-0.00795326
0.00720913
-0.00685387
0.00723173
-0.00618082
0.00725005
-0.0054257
0.00726646
-0.00506358
0.00728073
-0.00441921
0.00729462
-0.00421954
0.00730632
-0.00354691
0.00731809
-0.0035141
0.00732698
-0.00274885
0.00733654
-0.00288842
0.00734244
-0.00196757
0.00735019
-0.00235388
0.00735343
-0.00120984
0.00736022
-0.00190608
0.00736116
-0.000414597
0.00736784
-0.00154555
0.00736657
0.000470127
0.0073736
-0.00119791
0.00736898
0.00151049
0.00737454
-0.000916011
0.00736167
0.00250628
0.00736073
-0.00120243
0.00733473
0.00256358
0.00732874
-0.00309476
0.00729943
0.00101066
0.00731233
-0.00547939
0.00732022
0.000694295
0.0073965
-0.000943807
0.00747011
0.00984873
0.00757102
0.031153
0.00760632
0.0606848
0.0076438
-0.0195702
0.00763534
-0.0481151
0.00767393
-0.0291326
0.0077006
-0.0110491
0.00775189
-0.010895
0.0078044
-0.00382443
0.0078759
-0.004405
0.00794907
0.00152807
0.00802303
0.00114008
0.00808268
0.00492422
0.00812506
0.00343862
0.00814794
0.00494289
0.00815446
0.0028586
0.00815039
0.00329132
0.00813856
0.00151788
0.00812449
0.00170367
0.00810786
0.000450289
0.00809271
0.000600364
0.00807714
-0.000144352
0.00806445
9.75945e-05
0.00805256
-0.000195771
0.00804409
0.000200825
0.00803706
0.000278646
0.00803317
0.000808312
0.00803063
0.00115521
0.00803035
0.00172427
0.00803085
0.00217176
0.0080321
0.00269537
0.00803315
0.00313607
0.00803308
0.00349626
0.00803172
0.00383485
0.00802716
0.00396055
0.0080205
0.00417538
0.0080086
0.0040703
0.00799479
0.00420719
0.00797433
0.00387734
0.00795357
0.00409311
0.00792529
0.003588
0.00789992
0.00401258
0.00786629
0.00330315
0.00783941
0.00407926
0.00780306
0.00305265
0.00777544
0.00430566
0.00773784
0.00270216
0.00770169
0.0045851
0.00182952
0.00749591
0.0255218
0.00745374
0.0204762
0.00744372
0.0159319
0.00745296
0.0124169
0.0074762
0.00955043
0.0075073
0.00753075
0.00753994
0.00591928
0.00756724
0.00445682
0.00758159
0.00280124
0.00757824
0.000823804
0.00755487
-0.00140727
0.00751278
-0.0037711
0.00745511
-0.00603913
0.00738676
-0.0081013
0.00731328
-0.00978345
0.00724153
-0.0110517
0.00717945
-0.0117368
0.00713618
-0.0118893
0.00711804
-0.011354
0.00712492
-0.0104064
0.00714845
-0.00912079
0.00717781
-0.00798263
0.0072048
-0.00688086
0.00722747
-0.0062035
0.00724589
-0.00544411
0.00726237
-0.00508006
0.00727672
-0.00443355
0.00729068
-0.0042335
0.00730246
-0.0035587
0.00731432
-0.00352596
0.0073233
-0.00275784
0.00733294
-0.00289805
0.00733892
-0.00197355
0.00734672
-0.00236168
0.00735002
-0.00121313
0.00735685
-0.00191292
0.00735784
-0.000415591
0.00736459
-0.0015523
0.0073634
0.000471317
0.00737055
-0.00120506
0.0073661
0.00151494
0.00737187
-0.000921783
0.00735922
0.00251893
0.00735845
-0.00120166
0.00733242
0.00258961
0.00732616
-0.00308851
0.00729619
0.00104064
0.00730821
-0.00549141
0.00731512
0.000687386
0.00739138
-0.00102006
0.00746614
0.00977396
0.00757011
0.031049
0.00760902
0.0606459
0.00764497
-0.0196062
0.00763225
-0.0481024
0.00766826
-0.0291686
0.00769368
-0.0110746
0.00774444
-0.0109458
0.00779722
-0.00387721
0.00786963
-0.00447741
0.0079446
0.0014531
0.00802099
0.00106369
0.00808366
0.00486155
0.0081291
0.00339319
0.00815488
0.0049171
0.00816379
0.00284969
0.00816164
0.00329347
0.0081512
0.00152833
0.00813815
0.00171671
0.00812224
0.000466195
0.00810764
0.000614968
0.00809249
-0.000129198
0.00808013
0.00010995
0.00806852
-0.000184163
0.00806028
0.00020907
0.00805345
0.000285476
0.00804972
0.000812044
0.00804731
0.00115761
0.00804715
0.00172443
0.00804778
0.00217113
0.00804917
0.00269398
0.0080504
0.00313484
0.00805058
0.00349607
0.00804959
0.00383585
0.00804553
0.0039646
0.00803952
0.00418139
0.00802842
0.00408139
0.00801556
0.00422005
0.00799615
0.00389675
0.0079765
0.00411276
0.0079493
0.0036152
0.00792499
0.00403688
0.00789223
0.00333592
0.0078662
0.00410529
0.00783031
0.00308854
0.00780334
0.00433262
0.00776576
0.00273975
0.00773029
0.00462056
0.00188706
0.00749633
0.0256012
0.00745488
0.0205177
0.0074458
0.015941
0.00745599
0.0124067
0.0074801
0.00952632
0.00751203
0.00749882
0.00754544
0.00588586
0.00757346
0.0044288
0.00758845
0.00278625
0.00758562
0.000826637
0.00756258
-0.00138423
0.00752062
-0.00372914
0.00746285
-0.00598136
0.00739416
-0.00803261
0.00732006
-0.00970935
0.00724732
-0.0109789
0.00718381
-0.0116732
0.00713861
-0.0118441
0.00711824
-0.0113337
0.00712304
-0.0104112
0.00714508
-0.00914283
0.00717371
-0.00801125
0.0072005
-0.00690765
0.00722322
-0.00622621
0.00724172
-0.00546262
0.00725827
-0.00509662
0.00727269
-0.00444796
0.00728672
-0.00424753
0.00729859
-0.00357057
0.00731054
-0.0035379
0.00731962
-0.00276692
0.00732934
-0.00290777
0.0073354
-0.00197961
0.00734326
-0.00236955
0.00734661
-0.00121649
0.00735349
-0.0019198
0.00735455
-0.000416642
0.00736136
-0.00155911
0.00736026
0.000472418
0.00736753
-0.00121234
0.00736325
0.00151922
0.00736924
-0.000927775
0.00735681
0.00253136
0.00735622
-0.00120107
0.00733017
0.00261566
0.00732366
-0.003082
0.00729303
0.00107127
0.00730415
-0.00550254
0.00731005
0.000681488
0.00738623
-0.00109625
0.00746212
0.00969807
0.00756919
0.0309419
0.00761177
0.0606033
0.00764618
-0.0196406
0.00762915
-0.0480854
0.00766252
-0.0292019
0.00768662
-0.0110987
0.00773678
-0.0109959
0.00778977
-0.0039302
0.00786302
-0.00455067
0.00793972
0.00137641
0.00801849
0.00098492
0.00808417
0.00479586
0.00813267
0.00334469
0.00816142
0.00488835
0.00817277
0.00283834
0.00817261
0.00329363
0.00816362
0.00153732
0.00815167
0.00172867
0.00813654
0.000481322
0.00812252
0.000628986
0.00810782
-0.000114495
0.00809582
0.000121946
0.00808452
-0.000172857
0.00807652
0.000217067
0.00806991
0.000292089
0.00806635
0.000815598
0.00806411
0.00115985
0.00806408
0.00172446
0.00806485
0.00217036
0.00806638
0.00269245
0.0080678
0.00313342
0.00806823
0.00349564
0.00806758
0.0038365
0.008064
0.00396818
0.0080586
0.00418679
0.00804828
0.00409172
0.00803633
0.004232
0.00801795
0.00391513
0.00799941
0.0041313
0.00797333
0.00364128
0.00795013
0.00406009
0.00791831
0.00336773
0.00789321
0.00413039
0.00785792
0.00312383
0.0078317
0.00435884
0.00779427
0.00277718
0.00775957
0.00465526
0.00194433
0.00749675
0.0256802
0.00745604
0.0205584
0.00744793
0.0159491
0.00745908
0.0123955
0.00748407
0.00950133
0.00751683
0.00746606
0.00755101
0.00585168
0.00757976
0.00440005
0.00759539
0.00277063
0.00759307
0.000828953
0.00757038
-0.00136154
0.00752857
-0.00368733
0.00747073
-0.00592352
0.00740172
-0.00796361
0.00732703
-0.00963465
0.00725334
-0.0109052
0.00718843
-0.0116083
0.00714134
-0.011797
0.00711874
-0.0113111
0.00712141
-0.0104139
0.00714189
-0.00916332
0.0071697
-0.00803906
0.00719625
-0.0069342
0.00721897
-0.00624893
0.00723755
-0.0054812
0.00725416
-0.00511323
0.00726864
-0.00446244
0.00728274
-0.00426162
0.00729471
-0.00358255
0.00730674
-0.00354994
0.00731593
-0.00277611
0.00732573
-0.00291757
0.00733188
-0.00198575
0.00733981
-0.00237748
0.00734323
-0.0012199
0.00735016
-0.00192673
0.00735127
-0.000417753
0.00735816
-0.001566
0.00735715
0.000473429
0.00736455
-0.00121974
0.00736043
0.00152334
0.00736665
-0.000933992
0.00735445
0.00254355
0.00735404
-0.00120066
0.00732799
0.00264171
0.00732123
-0.00307524
0.00728994
0.00110256
0.00730016
-0.00551275
0.00730501
0.000676635
0.00738107
-0.00117231
0.00745806
0.00962108
0.00756824
0.0308318
0.00761456
0.060557
0.00764743
-0.0196734
0.00762605
-0.048064
0.00765672
-0.0292326
0.00767943
-0.0111214
0.00772893
-0.0110454
0.00778204
-0.00398332
0.00785607
-0.00462469
0.00793443
0.00129805
0.00801553
0.000903817
0.00808419
0.0047272
0.00813577
0.00329311
0.00816753
0.00485659
0.00818138
0.00282449
0.00818328
0.00329173
0.0081758
0.00154479
0.008165
0.00173947
0.0081507
0.000495624
0.0081373
0.000642381
0.00812308
-0.000100273
0.00811147
0.000133555
0.00810049
-0.000161877
0.00809276
0.000224796
0.00808639
0.000298465
0.00808303
0.000818957
0.00808096
0.00116192
0.00808109
0.00172434
0.008082
0.00216944
0.00808369
0.00269076
0.00808529
0.00313182
0.00808597
0.00349496
0.00808565
0.00383682
0.00808252
0.00397131
0.0080777
0.00419161
0.00806812
0.00410129
0.00805705
0.00424307
0.00803969
0.00393249
0.00802224
0.00414875
0.00799729
0.00366623
0.00797523
0.00408215
0.00794443
0.00339853
0.00792033
0.00415449
0.00788575
0.00315841
0.00786037
0.00438422
0.00782323
0.00281431
0.00778938
0.00468912
0.00200117
0.00749718
0.0257588
0.00745724
0.0205983
0.0074501
0.0159562
0.00746222
0.0123834
0.0074881
0.00947546
0.0075217
0.00743246
0.00755665
0.00581672
0.00758613
0.00437057
0.00760241
0.00275435
0.00760062
0.000830741
0.00757829
-0.00133922
0.00753664
-0.00364569
0.00747875
-0.00586562
0.00740945
-0.00789431
0.00733419
-0.00955939
0.0072596
-0.0108307
0.00719333
-0.0115421
0.00714437
-0.0117481
0.00711955
-0.0112863
0.00712006
-0.0104144
0.00713891
-0.00918217
0.00716582
-0.00806597
0.00719205
-0.00696043
0.00721474
-0.00627162
0.00723338
-0.00549984
0.00725004
-0.00512989
0.00726458
-0.00447699
0.00727874
-0.00427578
0.00729081
-0.00359461
0.00730294
-0.00356206
0.00731224
-0.00278541
0.00732213
-0.00292747
0.00732838
-0.001992
0.00733637
-0.00238547
0.00733986
-0.00122339
0.00734684
-0.00193372
0.00734802
-0.000418928
0.00735498
-0.00157296
0.00735406
0.000474347
0.00736159
-0.00122726
0.00735764
0.00152728
0.00736409
-0.000940437
0.00735213
0.00255551
0.00735192
-0.00120045
0.00732588
0.00266775
0.00731888
-0.00306824
0.00728694
0.00113449
0.00729625
-0.00552206
0.00730002
0.000672862
0.0073759
-0.00124819
0.00745394
0.00954304
0.00756727
0.0307184
0.00761739
0.0605068
0.00764874
-0.0197048
0.00762296
-0.0480382
0.00765085
-0.0292605
0.00767212
-0.0111426
0.00772089
-0.0110942
0.00777406
-0.00403649
0.00784879
-0.00469942
0.00792873
0.00121811
0.00801211
0.000820439
0.00808372
0.00465559
0.00813838
0.00323845
0.00817317
0.0048218
0.00818959
0.00280807
0.00819361
0.00328771
0.00818771
0.00155069
0.00817811
0.00174907
0.00816468
0.000509054
0.00815195
0.000655111
0.00813824
-8.65641e-05
0.00812705
0.000144751
0.00811642
-0.000151246
0.00810898
0.000232234
0.00810286
0.000304583
0.00809972
0.000822099
0.00809785
0.00116379
0.00809814
0.00172405
0.00809922
0.00216836
0.00810107
0.00268891
0.00810286
0.00313003
0.00810378
0.00349404
0.00810377
0.00383683
0.00810108
0.00397401
0.00809681
0.00419588
0.00808794
0.00411016
0.00807771
0.0042533
0.00806134
0.00394886
0.00804497
0.00416513
0.00802116
0.00369003
0.00800025
0.00410307
0.00797053
0.00342824
0.00794749
0.00417753
0.00791373
0.00319218
0.00788926
0.00440869
0.00785256
0.002851
0.00781963
0.00472206
0.00205746
0.00749763
0.0258369
0.00745846
0.0206375
0.00745232
0.0159624
0.00746542
0.0123703
0.00749219
0.00944869
0.00752663
0.00739802
0.00756236
0.00578099
0.00759258
0.00434036
0.0076095
0.00273742
0.00760825
0.000831991
0.0075863
-0.00131726
0.00754484
-0.00360422
0.00748691
-0.0058077
0.00741734
-0.00782474
0.00734155
-0.0094836
0.00726609
-0.0107552
0.00719851
-0.0114745
0.00714772
-0.0116973
0.00712069
-0.0112592
0.007119
-0.0104127
0.00713615
-0.00919931
0.00716206
-0.00809189
0.00718791
-0.00698628
0.00721053
-0.00629424
0.00722921
-0.00551851
0.00724591
-0.00514659
0.00726051
-0.00449159
0.00727473
-0.00429
0.00728689
-0.00360677
0.00729912
-0.00357429
0.00730853
-0.00279482
0.00731853
-0.00293746
0.00732487
-0.00199834
0.00733294
-0.00239355
0.0073365
-0.00122694
0.00734355
-0.00194076
0.00734479
-0.000420169
0.00735182
-0.00157999
0.007351
0.00047517
0.00735865
-0.00123492
0.00735488
0.00153105
0.00736156
-0.000947115
0.00734985
0.00256722
0.00734985
-0.00120045
0.00732383
0.00269377
0.00731661
-0.00306101
0.00728403
0.00116707
0.00729241
-0.00553044
0.00729507
0.000670201
0.00737072
-0.00132384
0.00744978
0.00946398
0.00756627
0.030602
0.00762028
0.0604528
0.0076501
-0.0197346
0.00761987
-0.048008
0.00764494
-0.0292856
0.0076647
-0.0111624
0.00771267
-0.0111422
0.00776583
-0.00408966
0.00784119
-0.00477478
0.00792263
0.00113667
0.00800821
0.00073485
0.00808272
0.00458108
0.00814047
0.00318071
0.00817834
0.00478393
0.00819737
0.00278903
0.00820358
0.00328151
0.00819932
0.00155495
0.00819099
0.00175741
0.00817847
0.000521565
0.00816645
0.000667137
0.00815328
-7.33986e-05
0.00814253
0.000155507
0.00813227
-0.000140986
0.00812514
0.00023936
0.0081193
0.000310424
0.00811639
0.000825005
0.00811474
0.00116544
0.00811522
0.00172357
0.00811648
0.00216711
0.00811851
0.00268689
0.00812049
0.00312804
0.00812165
0.00349288
0.00812194
0.00383654
0.00811965
0.0039763
0.0081159
0.00419963
0.00810771
0.00411835
0.0080983
0.00426271
0.00808288
0.00396427
0.00806757
0.00418044
0.0080449
0.0037127
0.00802515
0.00412282
0.00799656
0.00345683
0.00797463
0.00419946
0.00794178
0.00322503
0.0079183
0.00443217
0.00788217
0.00288714
0.00785023
0.00475399
0.00211305
0.00749809
0.0259146
0.00745971
0.0206759
0.00745458
0.0159675
0.00746868
0.0123562
0.00749635
0.00942102
0.00753163
0.00736273
0.00756814
0.00574447
0.00759909
0.00430941
0.00761668
0.00271983
0.00761598
0.000832693
0.00759442
-0.0012957
0.00755315
-0.00356296
0.00749521
-0.00574975
0.00742541
-0.00775494
0.00734911
-0.0094073
0.00727281
-0.0106789
0.00720396
-0.0114056
0.00715138
-0.0116447
0.00712216
-0.01123
0.00711825
-0.0104088
0.00713362
-0.00921468
0.00715846
-0.00811673
0.00718386
-0.00701168
0.00720636
-0.00631674
0.00722504
-0.0055372
0.00724177
-0.00516332
0.00725643
-0.00450624
0.00727071
-0.00430428
0.00728296
-0.00361903
0.00729529
-0.00358662
0.00730483
-0.00280436
0.00731492
-0.00294756
0.00732137
-0.00200479
0.00732953
-0.0024017
0.00733316
-0.00123058
0.00734027
-0.00194787
0.00734158
-0.00042148
0.00734869
-0.00158709
0.00734796
0.000475894
0.00735575
-0.00124271
0.00735216
0.00153464
0.00735907
-0.000954028
0.00734762
0.00257867
0.00734783
-0.00120066
0.00732185
0.00271975
0.00731441
-0.00305357
0.0072812
0.00120029
0.00728865
-0.00553789
0.00729017
0.000668684
0.00736553
-0.0013992
0.00744557
0.00938394
0.00756524
0.0304823
0.0076232
0.0603949
0.00765153
-0.0197629
0.0076168
-0.0479733
0.00763899
-0.0293078
0.00765717
-0.0111806
0.00770428
-0.0111893
0.00775735
-0.00414273
0.00783325
-0.00485068
0.00791612
0.00105381
0.00800385
0.000647118
0.00808121
0.00450372
0.00814203
0.00311989
0.008183
0.00474296
0.0082047
0.00276732
0.00821316
0.00327305
0.00821061
0.0015575
0.00820359
0.00176442
0.00819205
0.00053311
0.00818077
0.000678419
0.00816818
-6.08088e-05
0.00815789
0.000165795
0.00814802
-0.00013112
0.00814123
0.000246153
0.00813569
0.000315968
0.00813303
0.000827655
0.00813162
0.00116686
0.0081323
0.00172288
0.00813375
0.00216565
0.00813596
0.00268468
0.00813815
0.00312585
0.00813954
0.00349149
0.00814013
0.00383595
0.00813823
0.0039782
0.00813499
0.00420287
0.00812744
0.0041259
0.00811879
0.00427136
0.00810431
0.00397875
0.00809002
0.00419473
0.00806849
0.00373423
0.00804991
0.0041414
0.00802248
0.00348426
0.0080017
0.00422024
0.00796984
0.00325689
0.00794742
0.00445458
0.00791196
0.0029226
0.0078811
0.00478485
0.00216782
0.00749856
0.0259918
0.007461
0.0207135
0.00745689
0.0159716
0.007472
0.0123411
0.00750058
0.00939245
0.0075367
0.00732661
0.00757399
0.00570718
0.00760568
0.00427773
0.00762393
0.00270158
0.00762379
0.000832836
0.00760263
-0.00127455
0.00756159
-0.00352191
0.00750366
-0.00569182
0.00743363
-0.00768492
0.00735687
-0.00933053
0.00727977
-0.0106018
0.00720969
-0.0113356
0.00715537
-0.0115904
0.00712397
-0.0111986
0.00711781
-0.0104027
0.00713134
-0.00922821
0.00715503
-0.00814042
0.0071799
-0.00703655
0.00720223
-0.00633907
0.0072209
-0.00555587
0.00723764
-0.00518005
0.00725233
-0.00452094
0.00726666
-0.00431862
0.00727902
-0.00363139
0.00729144
-0.00359904
0.0073011
-0.00281403
0.00731131
-0.00295777
0.00731788
-0.00201135
0.00732612
-0.00240994
0.00732983
-0.0012343
0.00733701
-0.00195505
0.00733839
-0.000422865
0.00734558
-0.00159427
0.00734495
0.000476518
0.00735287
-0.00125063
0.00734946
0.00153805
0.00735662
-0.000961183
0.00734543
0.00258986
0.00734587
-0.0012011
0.00731994
0.00274568
0.00731229
-0.00304593
0.00727845
0.00123412
0.00728497
-0.00554441
0.00728532
0.00066834
0.00736034
-0.00147423
0.00744132
0.00930297
0.00756419
0.0303594
0.00762618
0.0603329
0.00765302
-0.0197898
0.00761375
-0.047934
0.007633
-0.029327
0.00764956
-0.0111971
0.00769573
-0.0112354
0.00774864
-0.00419564
0.00782501
-0.00492705
0.0079092
0.000969617
0.007999
0.000557319
0.00807917
0.00442355
0.00814305
0.00305601
0.00818713
0.00469888
0.00821156
0.0027429
0.00822233
0.00326228
0.00822154
0.00155829
0.0082159
0.00177006
0.00820537
0.00054364
0.00819488
0.000688917
0.00818289
-4.88277e-05
0.0081731
0.000175588
0.00816365
-0.000121672
0.00815722
0.000252591
0.00815199
0.000321196
0.00814961
0.000830031
0.00814845
0.00116803
0.00814935
0.00172197
0.00815102
0.00216399
0.00815343
0.00268226
0.00815583
0.00312345
0.00815746
0.00348986
0.00815834
0.00383506
0.00815682
0.00397972
0.00815404
0.00420565
0.0081471
0.00413283
0.0081392
0.00427927
0.00812561
0.00399234
0.00811232
0.00420802
0.00809191
0.00375465
0.00807448
0.00415882
0.00804824
0.0035105
0.00802864
0.00423984
0.00799785
0.00328769
0.00797655
0.00447587
0.00794188
0.00295727
0.00791216
0.00481457
0.00222166
0.00749905
0.0260685
0.00746231
0.0207502
0.00745925
0.0159746
0.00747538
0.012325
0.00750487
0.00936296
0.00754185
0.00728963
0.00757992
0.00566911
0.00761234
0.0042453
0.00763127
0.00268266
0.00763169
0.000832413
0.00761096
-0.00125381
0.00757015
-0.0034811
0.00751225
-0.00563392
0.00744203
-0.0076147
0.00736482
-0.00925332
0.00728696
-0.0105239
0.0072157
-0.0112643
0.00715967
-0.0115344
0.00712613
-0.0111651
0.0071177
-0.0103942
0.00712933
-0.00923984
0.00715178
-0.00816287
0.00717605
-0.00706082
0.00719816
-0.00636118
0.00721678
-0.00557449
0.00723351
-0.00519678
0.00724823
-0.00453566
0.00726261
-0.004333
0.00727505
-0.00364383
0.00728758
-0.00361156
0.00729737
-0.00282382
0.0073077
-0.0029681
0.00731438
-0.00201803
0.00732271
-0.00241828
0.00732652
-0.0012381
0.00733377
-0.00196229
0.00733523
-0.000424328
0.00734249
-0.00160154
0.00734197
0.000477039
0.00735003
-0.00125869
0.0073468
0.00154128
0.0073542
-0.000968582
0.00734328
0.00260079
0.00734396
-0.00120177
0.00731809
0.00277154
0.00731025
-0.00303809
0.0072758
0.00126858
0.00728138
-0.00554999
0.00728052
0.000669199
0.00735516
-0.00154887
0.00743701
0.00922111
0.00756312
0.0302333
0.00762921
0.0602668
0.00765458
-0.0198151
0.00761073
-0.0478902
0.00762699
-0.0293433
0.00764186
-0.011212
0.00768703
-0.0112806
0.0077397
-0.00424831
0.00781646
-0.0050038
0.0079019
0.000884178
0.00799368
0.00046553
0.00807659
0.00434064
0.0081435
0.0029891
0.00819072
0.00465166
0.00821791
0.0027157
0.00823105
0.00324914
0.0082321
0.00155724
0.00822789
0.00177427
0.00821842
0.000553106
0.00820875
0.000698587
0.00819741
-3.74875e-05
0.00818814
0.000184857
0.00817914
-0.000112664
0.00817308
0.000258653
0.00816818
0.000326088
0.0081661
0.000832113
0.00816521
0.00116892
0.00816635
0.00172083
0.00816825
0.0021621
0.00817087
0.00267964
0.00817349
0.00312083
0.00817537
0.00348798
0.00817654
0.0038339
0.00817538
0.00398088
0.00817305
0.00420797
0.00816671
0.00413918
0.0081595
0.00428647
0.00814678
0.00400506
0.00813445
0.00422034
0.00811514
0.00377396
0.00809886
0.00417509
0.00807382
0.00353554
0.00805543
0.00425824
0.00802575
0.00331736
0.00800563
0.004496
0.00797183
0.00299107
0.00794333
0.00484308
0.00227446
0.00749956
0.0261447
0.00746366
0.0207861
0.00746166
0.0159766
0.00747883
0.0123078
0.00750924
0.00933255
0.00754707
0.0072518
0.00758592
0.00563026
0.00761908
0.00421214
0.00763868
0.00266306
0.00763969
0.00083141
0.00761938
-0.00123351
0.00757883
-0.00344055
0.00752098
-0.00557608
0.0074506
-0.00754432
0.00737298
-0.00917569
0.00729439
-0.0104454
0.00722199
-0.0111919
0.00716431
-0.0114767
0.00712864
-0.0111294
0.00711794
-0.0103835
0.00712761
-0.00924951
0.00714873
-0.00818399
0.00717232
-0.0070844
0.00719415
-0.00638301
0.00721269
-0.00559304
0.00722938
-0.00521348
0.00724413
-0.0045504
0.00725854
-0.00434741
0.00727108
-0.00365637
0.0072837
-0.00362419
0.00729363
-0.00283375
0.00730407
-0.00297854
0.00731089
-0.00202484
0.00731932
-0.00242671
0.00732322
-0.00124201
0.00733054
-0.00196961
0.00733209
-0.000425872
0.00733943
-0.00160888
0.00733902
0.000477453
0.00734721
-0.00126688
0.00734417
0.00154432
0.00735182
-0.000976229
0.00734118
0.00261143
0.0073421
-0.00120269
0.00731631
0.00279732
0.00730829
-0.00303007
0.00727324
0.00130363
0.00727788
-0.00555464
0.00727579
0.000671289
0.00734998
-0.00162306
0.00743267
0.00913843
0.00756201
0.030104
0.00763228
0.0601965
0.00765621
-0.0198391
0.00760775
-0.0478417
0.00762096
-0.0293565
0.00763409
-0.0112251
0.00767819
-0.0113247
0.00773054
-0.00430067
0.0078076
-0.00508086
0.0078942
0.000797585
0.00798789
0.000371833
0.00807347
0.00425506
0.00814339
0.00291918
0.00819374
0.0046013
0.00822373
0.00268571
0.00823931
0.00323356
0.00824224
0.00155431
0.00823953
0.00177698
0.00823117
0.00056146
0.00822237
0.000707388
0.00821171
-2.68219e-05
0.00820299
0.000193575
0.00819445
-0.00010412
0.00818878
0.000264317
0.00818424
0.000330625
0.00818248
0.000833881
0.00818187
0.00116953
0.00818328
0.00171942
0.00818542
0.00215996
0.00818827
0.00267678
0.00819113
0.00311798
0.00819325
0.00348586
0.0081947
0.00383245
0.0081939
0.00398169
0.00819201
0.00420986
0.00818623
0.00414496
0.0081797
0.00429301
0.0081678
0.00401696
0.00815641
0.00423173
0.00813817
0.00379221
0.00812303
0.00419024
0.00809919
0.00355938
0.00808201
0.00427542
0.00805351
0.00334587
0.00803459
0.00451491
0.00800177
0.00302389
0.00797453
0.00487032
0.00232611
0.00750008
0.0262203
0.00746504
0.0208211
0.00746412
0.0159776
0.00748234
0.0122896
0.00751368
0.00930121
0.00755236
0.00721312
0.00759199
0.00559063
0.0076259
0.00417823
0.00764618
0.00264278
0.00764777
0.000829822
0.00762792
-0.00121366
0.00758764
-0.00340027
0.00752987
-0.00551831
0.00745935
-0.0074738
0.00738134
-0.00909768
0.00730206
-0.0103661
0.00722856
-0.0111184
0.00716927
-0.0114174
0.00713151
-0.0110917
0.00711853
-0.0103705
0.00712619
-0.00925717
0.00714591
-0.00820371
0.00716873
-0.00710723
0.00719023
-0.0064045
0.00720864
-0.00561145
0.00722528
-0.00523011
0.00724002
-0.00456515
0.00725446
-0.00436185
0.00726708
-0.00366899
0.00727981
-0.00363691
0.00728988
-0.00284381
0.00730044
-0.00298911
0.00730739
-0.00203179
0.00731593
-0.00243524
0.00731993
-0.00124602
0.00732733
-0.00197701
0.00732896
-0.000427504
0.00733639
-0.00161631
0.00733609
0.000477758
0.00734442
-0.00127521
0.00734157
0.00154716
0.00734947
-0.000984127
0.00733911
0.00262178
0.00734029
-0.00120387
0.0073146
0.00282301
0.00730642
-0.00302188
0.00727077
0.00133928
0.00727448
-0.00555834
0.00727113
0.000674636
0.00734481
-0.00169674
0.00742828
0.00905497
0.00756088
0.0299714
0.00763541
0.060122
0.00765792
-0.0198616
0.00760481
-0.0477886
0.00761492
-0.0293666
0.00762625
-0.0112365
0.00766922
-0.0113677
0.00772118
-0.00435263
0.00779846
-0.00515814
0.00788611
0.000709933
0.00798163
0.000276318
0.0080698
0.00416689
0.00814269
0.0028463
0.00819618
0.00454782
0.00822901
0.00265288
0.00824706
0.00321551
0.00825194
0.00154943
0.00825078
0.00177814
0.00824359
0.000568651
0.0082357
0.000715277
0.00822574
-1.68649e-05
0.00821761
0.000201712
0.00820955
-9.60628e-05
0.0082043
0.000269563
0.00820014
0.000334788
0.00819871
0.000835316
0.00819841
0.00116982
0.0082001
0.00171773
0.0082025
0.00215756
0.0082056
0.00267368
0.0082087
0.00311488
0.00821108
0.00348347
0.00821283
0.0038307
0.00821237
0.00398214
0.00821091
0.00421132
0.00820566
0.00415021
0.00819977
0.0042989
0.00818867
0.00402805
0.00817818
0.00424222
0.00816099
0.0038094
0.00814696
0.00420427
0.00812432
0.00358202
0.00810837
0.00429138
0.00808107
0.00337317
0.0080634
0.00453258
0.00803162
0.00305566
0.0080057
0.00489624
0.00237653
0.00750061
0.0262955
0.00746646
0.0208553
0.00746664
0.0159774
0.00748593
0.0122703
0.00751819
0.00926895
0.00755773
0.00717358
0.00759814
0.00555022
0.0076328
0.00414357
0.00765376
0.00262181
0.00765595
0.000827634
0.00763656
-0.00119427
0.00759657
-0.00336029
0.0075389
-0.00546063
0.00746826
-0.00740317
0.00738989
-0.00901931
0.00730997
-0.0102862
0.00723541
-0.0110438
0.00717455
-0.0113565
0.00713475
-0.0110519
0.00711948
-0.0103553
0.00712509
-0.00926278
0.00714332
-0.00822195
0.00716531
-0.00712921
0.0071864
-0.00642559
0.00720465
-0.0056297
0.0072212
-0.00524667
0.00723592
-0.00457987
0.00725038
-0.0043763
0.00726308
-0.00368169
0.0072759
-0.00364973
0.00728611
-0.00285402
0.0072968
-0.0029998
0.0073039
-0.00203888
0.00731254
-0.00244389
0.00731666
-0.00125013
0.00732414
-0.00198449
0.00732586
-0.000429227
0.00733338
-0.00162382
0.00733318
0.000477951
0.00734165
-0.00128368
0.007339
0.00154982
0.00734715
-0.00099228
0.00733709
0.00263184
0.00733854
-0.00120532
0.00731296
0.00284859
0.00730462
-0.00301355
0.0072684
0.0013755
0.00727117
-0.0055611
0.00726654
0.000679263
0.00733966
-0.00176987
0.00742384
0.00897079
0.00755972
0.0298355
0.00763859
0.0600431
0.00765971
-0.0198827
0.00760191
-0.0477308
0.00760889
-0.0293736
0.00761837
-0.0112459
0.00766013
-0.0114094
0.00771163
-0.00440412
0.00778904
-0.00523556
0.00787766
0.000621318
0.0079749
0.000179074
0.00806559
0.0040762
0.0081414
0.00277049
0.00819801
0.0044912
0.00823371
0.00261719
0.00825429
0.00319493
0.00826118
0.00154254
0.00826163
0.00177769
0.00825565
0.00057463
0.00824871
0.000722213
0.0082395
-7.65055e-06
0.00823197
0.000209241
0.00822442
-8.85166e-05
0.00821962
0.000274368
0.00821585
0.000338556
0.00821477
0.000836399
0.0082148
0.00116979
0.00821678
0.00171575
0.00821947
0.00215488
0.00822283
0.00267031
0.00822619
0.00311152
0.00822885
0.00348082
0.00823088
0.00382867
0.00823077
0.00398225
0.00822972
0.00421237
0.008225
0.00415493
0.00821972
0.00430417
0.00820939
0.00403838
0.00819977
0.00425184
0.00818359
0.00382558
0.00817064
0.00421721
0.0081492
0.00360346
0.00813446
0.00430612
0.0081084
0.00339923
0.008092
0.00454898
0.00806134
0.00308633
0.00803679
0.00492079
0.00242564
0.00750116
0.0263701
0.00746792
0.0208885
0.00746921
0.0159761
0.00748958
0.0122499
0.00752278
0.00923574
0.00756318
0.00713319
0.00760437
0.00550903
0.00763977
0.00410817
0.00766143
0.00260016
0.00766422
0.000824841
0.00764531
-0.00117535
0.00760563
-0.00332061
0.00754807
-0.00540308
0.00747735
-0.00733244
0.00739865
-0.00894062
0.00731811
-0.0102056
0.00724254
-0.0109682
0.00718017
-0.0112942
0.00713835
-0.01101
0.0071208
-0.0103377
0.00712432