/*--------------------------------*- C++ -*----------------------------------*\
| =========                 |                                                 |
| \\      /  F ield         | OpenFOAM: The Open Source CFD Toolbox           |
|  \\    /   O peration     | Version:  2412                                  |
|   \\  /    A nd           | Website:  www.openfoam.com                      |
|    \\/     M anipulation  |                                                 |
\*---------------------------------------------------------------------------*/
FoamFile
{
    version     2.0;
    format      ascii;
    arch        "LSB;label=32;scalar=64";
    class       volVectorField;
    location    "1";
    object      U;
}
// * * * * * * * * * * * * * * * * * * * * * * * * * * * * * * * * * * * * * //

dimensions      [0 1 -1 0 0 0 0];

internalField   nonuniform List<vector> 
13077
(
(100.032 -1.92399 0)
(100.649 -5.37248 8.12985e-17)
(101.759 -8.59354 -7.631e-17)
(103.294 -11.2502 0)
(105.051 -13.5299 0)
(107.089 -15.3272 0)
(109.22 -16.8851 0)
(111.448 -18.3822 0)
(113.587 -20.0174 0)
(115.587 -21.8495 -6.3037e-17)
(117.355 -23.8191 0)
(118.887 -25.8271 0)
(120.215 -27.7305 0)
(121.38 -29.4556 -7.8323e-17)
(122.494 -30.9055 0)
(123.614 -32.072 0)
(124.937 -32.8812 9.0393e-17)
(126.555 -33.3679 9.22801e-17)
(128.749 -33.5034 2.16198e-21)
(131.481 -33.4754 9.07526e-17)
(134.827 -33.3674 0)
(138.394 -33.4403 8.33292e-17)
(142.235 -33.6202 -7.85236e-17)
(145.999 -34.0653 -7.33625e-17)
(150.048 -34.5298 0)
(154.02 -35.2373 0)
(158.449 -35.8569 -5.97421e-17)
(162.763 -36.762 5.56223e-17)
(167.708 -37.4865 4.30192e-21)
(172.427 -38.5926 9.67797e-17)
(178.001 -39.4076 0)
(183.176 -40.7496 0)
(189.531 -41.6487 0)
(195.229 -43.2801 3.64748e-17)
(202.581 -44.2586 -3.45419e-17)
(208.889 -46.2516 0)
(217.542 -47.3023 3.02904e-17)
(224.56 -49.7452 0)
(234.921 -50.8611 -2.65289e-17)
(100.033 -1.94139 0)
(100.657 -5.41651 1.30021e-20)
(101.779 -8.66168 7.62091e-17)
(103.328 -11.3352 -7.11748e-17)
(105.097 -13.6282 0)
(107.149 -15.4352 0)
(109.292 -16.9985 0)
(111.532 -18.4965 -6.03603e-17)
(113.683 -20.1275 0)
(115.693 -21.952 6.31488e-17)
(117.468 -23.9119 0)
(119.005 -25.9103 6.97797e-17)
(120.335 -27.8056 0)
(121.498 -29.5248 -1.95307e-21)
(122.605 -30.9717 0)
(123.712 -32.1387 0)
(125.014 -32.9526 9.09574e-17)
(126.602 -33.4481 0)
(128.757 -33.595 -9.34335e-17)
(131.449 -33.5776 2.93515e-21)
(134.763 -33.476 0)
(138.313 -33.5511 -8.48233e-17)
(142.148 -33.7308 -4.21751e-21)
(145.912 -34.1761 0)
(149.962 -34.6414 0)
(153.933 -35.3512 0)
(158.361 -35.9731 -6.0918e-17)
(162.675 -36.8816 0)
(167.619 -37.6089 -5.29972e-17)
(172.337 -38.7191 -4.91579e-17)
(177.911 -39.537 -4.60372e-17)
(183.085 -40.8839 4.25683e-17)
(189.439 -41.786 4.00009e-17)
(195.135 -43.4234 -3.68646e-17)
(202.486 -44.4051 0)
(208.791 -46.4056 3.19798e-17)
(217.443 -47.4598 -6.10811e-17)
(224.457 -49.9122 -2.76696e-17)
(234.818 -51.0319 5.34627e-17)
(242.655 -54.0471 -6.86831e-21)
(255.28 -55.2353 0)
(264.021 -58.9833 1.94892e-17)
(279.576 -60.3809 0)
(289.16 -65.2326 3.03219e-17)
(308.518 -67.2858 -3.25215e-17)
(318.995 -73.667 1.07894e-17)
(343.897 -76.8124 -4.68377e-21)
(356.381 -84.2369 0)
(390.826 -88.2028 0)
(409.202 -93.7572 1.10469e-18)
(459.917 -98.4268 -6.71188e-18)
(489.086 -91.1108 0)
(557.853 -95.4676 -1.24913e-18)
(605.089 -3.72502 0)
(556.097 44.932 -6.43759e-18)
(537.411 58.2853 2.09582e-17)
(500.487 64.4718 4.72261e-19)
(485.351 62.4251 1.52093e-17)
(457.625 63.0709 7.68879e-18)
(445.519 60.9739 4.47881e-18)
(424.638 61.8395 1.7718e-17)
(414.343 60.1256 0)
(397.209 60.1272 2.90796e-17)
(386.629 57.6268 2.50223e-17)
(370.986 56.3534 0)
(359.767 53.3701 -4.13337e-17)
(345.449 51.5957 -5.62202e-17)
(334.487 48.8616 0)
(321.866 47.1624 6.78093e-21)
(100.034 -1.95904 0)
(100.667 -5.46107 -1.62216e-16)
(101.8 -8.73053 -7.60848e-17)
(103.363 -11.421 7.1063e-17)
(105.144 -13.7273 0)
(107.209 -15.5439 0)
(109.364 -17.1126 -6.10424e-17)
(111.617 -18.6116 6.04153e-17)
(113.779 -20.2383 0)
(115.8 -22.0551 0)
(117.583 -24.0053 0)
(119.126 -25.9941 -6.99533e-17)
(120.457 -27.8811 7.42408e-17)
(121.618 -29.5944 7.88298e-17)
(122.719 -31.0382 0)
(123.814 -32.2056 0)
(125.096 -33.0239 -9.15215e-17)
(126.654 -33.5281 0)
(128.771 -33.6863 0)
(131.421 -33.6794 2.88568e-21)
(134.703 -33.5844 9.04188e-17)
(138.233 -33.6619 8.63709e-17)
(142.061 -33.8414 8.16818e-17)
(145.824 -34.2868 0)
(149.875 -34.7529 0)
(153.846 -35.4648 0)
(158.274 -36.0891 -4.62423e-21)
(162.586 -37.001 0)
(167.53 -37.7311 5.39542e-17)
(172.247 -38.8454 0)
(177.821 -39.6663 4.67339e-17)
(182.994 -41.0181 5.48484e-21)
(189.347 -41.9232 -4.04973e-17)
(195.042 -43.5666 0)
(202.392 -44.5516 3.52393e-17)
(208.694 -46.5596 -3.22757e-17)
(217.344 -47.6173 3.08035e-17)
(224.355 -50.0791 5.57948e-17)
(234.716 -51.2027 -2.69427e-17)
(242.55 -54.2299 2.38112e-17)
(255.178 -55.4222 -2.33406e-17)
(263.917 -59.1846 1.96667e-17)
(279.48 -60.5855 1.9762e-17)
(289.062 -65.4535 -1.53057e-17)
(308.426 -67.5086 -4.19887e-21)
(318.882 -73.9082 -1.09028e-17)
(343.772 -77.0573 1.3726e-17)
(356.187 -84.5065 -5.96615e-18)
(390.594 -88.4908 -1.11247e-17)
(408.873 -94.0855 -1.12121e-18)
(459.65 -98.812 6.81992e-18)
(488.851 -91.5478 0)
(557.963 -96.0329 1.26174e-18)
(605.384 -3.71193 0)
(555.977 45.208 -2.9067e-20)
(537.085 58.5044 4.98068e-21)
(500.062 64.6639 4.65661e-19)
(484.906 62.5902 0)
(457.196 63.2229 0)
(445.147 61.1154 0)
(424.361 61.9824 0)
(414.19 60.2805 -9.78021e-18)
(397.205 60.3039 -2.94097e-17)
(386.77 57.8298 0)
(371.264 56.5802 0)
(360.146 53.6157 0)
(345.905 51.8516 5.66146e-17)
(334.989 49.1229 0)
(322.399 47.4226 -7.4453e-17)
(312.325 45.1692 0)
(301.407 43.6987 -9.55311e-17)
(292.337 41.9114 -1.04759e-16)
(282.898 40.7156 0)
(274.811 39.3618 -1.30715e-16)
(266.639 38.4484 0)
(259.464 37.4679 0)
(252.356 36.7938 0)
(245.981 36.093 1.88576e-16)
(239.737 35.5759 -2.04473e-16)
(234.034 35.0504 -2.19934e-16)
(228.461 34.5916 2.36219e-16)
(223.29 34.1354 2.52413e-16)
(218.214 33.6408 0)
(213.442 33.175 2.85134e-16)
(208.707 32.5759 3.00909e-16)
(204.218 32.0701 0)
(199.697 31.34 -3.3087e-16)
(195.416 30.8234 -3.44961e-16)
(191.025 29.9763 3.56889e-16)
(186.938 29.5288 3.68605e-16)
(182.641 28.5807 3.7744e-16)
(178.813 28.3068 0)
(174.583 27.2354 -1.91596e-20)
(171.156 27.2485 -3.96354e-16)
(166.884 25.9564 0)
(164.115 26.382 0)
(159.425 24.6657 0)
(157.844 25.657 0)
(151.669 22.9754 -3.69157e-16)
(100.035 -1.97697 0)
(100.676 -5.50615 8.10084e-17)
(101.82 -8.8001 7.59837e-17)
(103.398 -11.5076 7.09702e-17)
(105.192 -13.8272 0)
(107.27 -15.6535 6.30861e-17)
(109.438 -17.2276 6.10634e-17)
(111.703 -18.7275 -6.04832e-17)
(113.877 -20.3499 -6.13395e-17)
(115.908 -22.159 0)
(117.7 -24.0994 -6.64154e-17)
(119.248 -26.0786 0)
(120.582 -27.9572 -1.48911e-16)
(121.741 -29.6645 0)
(122.835 -31.1051 0)
(123.919 -32.2727 -8.83086e-17)
(125.182 -33.0952 0)
(126.712 -33.6079 0)
(128.79 -33.7771 9.5408e-17)
(131.399 -33.7808 -9.43708e-17)
(134.646 -33.6925 -9.18483e-17)
(138.155 -33.7725 4.15018e-21)
(141.976 -33.952 8.33513e-17)
(145.737 -34.3974 0)
(149.788 -34.8643 -7.30907e-17)
(153.758 -35.5784 0)
(158.186 -36.205 6.34627e-17)
(162.497 -37.1202 0)
(167.441 -37.8532 -5.49598e-17)
(172.157 -38.9716 0)
(177.731 -39.7955 0)
(182.903 -41.1521 -4.37816e-17)
(189.256 -42.0604 0)
(194.948 -43.7098 0)
(202.297 -44.6981 -3.56122e-17)
(208.597 -46.7136 3.25994e-17)
(217.246 -47.7748 0)
(224.254 -50.2461 6.3724e-21)
(234.615 -51.3736 2.71688e-17)
(242.446 -54.4128 0)
(255.077 -55.6093 2.35313e-17)
(263.815 -59.3862 -1.98346e-17)
(279.386 -60.7904 -3.98792e-17)
(288.965 -65.6748 0)
(308.338 -67.7318 -4.28783e-21)
(318.773 -74.1498 1.10389e-17)
(343.65 -77.3024 1.38919e-17)
(355.997 -84.776 1.20921e-17)
(390.365 -88.7783 1.12752e-17)
(408.543 -94.4132 0)
(459.381 -99.1969 0)
(488.612 -91.9855 -9.97888e-18)
(558.075 -96.601 0)
(605.685 -3.69776 1.47249e-18)
(555.858 45.4868 3.352e-18)
(536.756 58.7243 4.82732e-21)
(499.629 64.8553 -6.23979e-21)
(484.448 62.7535 -1.55461e-17)
(456.751 63.372 0)
(444.758 61.2533 4.54256e-18)
(424.062 62.1208 1.80979e-17)
(414.014 60.4303 -1.12462e-20)
(397.179 60.4753 -2.97378e-17)
(386.89 58.0279 -2.56136e-17)
(371.523 56.8028 -4.23478e-17)
(360.509 53.8581 0)
(346.351 52.1052 0)
(335.483 49.3828 0)
(322.926 47.682 0)
(312.866 45.4268 0)
(301.955 43.9506 -8.06798e-21)
(292.884 42.1585 -1.35421e-20)
(283.444 40.9556 0)
(275.351 39.596 1.3053e-16)
(267.173 38.6752 0)
(259.989 37.6886 1.58374e-16)
(252.873 37.0076 0)
(246.49 36.301 1.87891e-16)
(240.237 35.7779 2.03659e-16)
(234.525 35.2475 2.1903e-16)
(228.945 34.7841 -2.35269e-16)
(223.767 34.3242 -2.51451e-16)
(218.686 33.8269 -2.67868e-16)
(213.911 33.3589 -5.68677e-16)
(209.177 32.7595 -3.00352e-16)
(204.693 32.2532 0)
(200.18 31.5252 3.31056e-16)
(195.91 31.0092 -7.23068e-21)
(191.535 30.1663 -3.58269e-16)
(187.462 29.7188 -3.70683e-16)
(183.183 28.7758 -3.80279e-16)
(179.366 28.4996 0)
(175.151 27.4337 -1.94264e-20)
(171.727 27.4409 4.01753e-16)
(167.468 26.1545 -4.02616e-16)
(164.689 26.5716 4.04011e-16)
(160.009 24.861 0)
(158.409 25.8474 0)
(152.244 23.1784 3.79713e-16)
(100.036 -1.99517 0)
(100.686 -5.55177 8.09276e-17)
(101.842 -8.87041 -1.5173e-16)
(103.434 -11.595 -7.08607e-17)
(105.241 -13.9279 -6.6488e-17)
(107.332 -15.7639 -6.30655e-17)
(109.512 -17.3433 0)
(111.789 -18.8442 6.05463e-17)
(113.976 -20.4623 6.14354e-17)
(116.017 -22.2637 0)
(117.818 -24.1941 6.65699e-17)
(119.372 -26.1636 0)
(120.708 -28.0338 1.49355e-16)
(121.866 -29.7351 0)
(122.955 -31.1723 0)
(124.028 -32.3401 -1.76831e-21)
(125.273 -33.1666 0)
(126.774 -33.6875 -9.53147e-17)
(128.814 -33.8677 -9.64017e-17)
(131.382 -33.8819 0)
(134.592 -33.8004 0)
(138.079 -33.883 -8.95771e-17)
(141.891 -34.0625 4.29571e-21)
(145.65 -34.5079 7.98682e-17)
(149.701 -34.9755 1.49486e-16)
(153.671 -35.6917 0)
(158.097 -36.3206 0)
(162.407 -37.2393 0)
(167.351 -37.9751 5.60352e-17)
(172.067 -39.0976 -5.17733e-17)
(177.64 -39.9245 4.82723e-17)
(182.811 -41.2861 4.44531e-17)
(189.164 -42.1975 -4.15949e-17)
(194.855 -43.8529 3.82018e-17)
(202.203 -44.8445 0)
(208.5 -46.8675 -3.29285e-17)
(217.148 -47.9323 3.13778e-17)
(224.153 -50.4131 -2.83889e-17)
(234.514 -51.5446 -5.47981e-17)
(242.343 -54.5958 -2.42256e-17)
(254.977 -55.7965 0)
(263.714 -59.588 0)
(279.294 -60.9957 -4.14067e-21)
(288.871 -65.8965 1.5627e-17)
(308.251 -67.9554 -4.37261e-21)
(318.666 -74.3917 -2.23293e-17)
(343.531 -77.5476 -1.40528e-17)
(355.811 -85.0455 -6.12827e-18)
(390.139 -89.0655 0)
(408.213 -94.7403 0)
(459.109 -99.5816 0)
(488.37 -92.424 1.01311e-17)
(558.188 -97.172 0)
(605.991 -3.68246 -1.49104e-18)
(555.741 45.7684 0)
(536.423 58.945 4.66901e-21)
(499.189 65.046 -9.36403e-19)
(483.98 62.9151 1.5725e-17)
(456.293 63.5185 0)
(444.351 61.3877 -1.03753e-20)
(423.743 62.2548 -1.82817e-17)
(413.815 60.5751 1.00001e-17)
(397.129 60.6413 6.01182e-17)
(386.988 58.2209 5.17888e-17)
(371.762 57.0208 4.27725e-17)
(360.856 54.097 4.24866e-17)
(346.784 52.3561 0)
(335.967 49.6408 0)
(323.446 47.9402 -7.50597e-17)
(313.402 45.6838 0)
(302.501 44.2024 -8.12763e-21)
(293.43 42.4059 1.04815e-16)
(283.989 41.196 0)
(275.891 39.8306 -1.30338e-16)
(267.708 38.9025 0)
(260.517 37.91 -1.57934e-16)
(253.394 37.2221 0)
(247.002 36.5099 8.89507e-21)
(240.741 35.9809 2.02866e-16)
(235.02 35.4456 0)
(229.432 34.9777 2.3429e-16)
(224.247 34.514 2.50437e-16)
(219.162 34.0139 2.66875e-16)
(214.383 33.5436 2.83441e-16)
(209.651 32.9437 -9.64242e-21)
(205.169 32.4367 3.15908e-16)
(200.665 31.7107 -3.31014e-16)
(196.405 31.1949 3.46122e-16)
(192.045 30.3561 7.18529e-16)
(187.986 29.9085 -5.15651e-21)
(183.725 28.9709 3.82632e-16)
(179.92 28.6925 0)
(175.722 27.6323 3.99642e-16)
(172.303 27.634 0)
(168.057 26.3538 4.08342e-16)
(165.272 26.7626 -4.1084e-16)
(160.604 25.0584 0)
(158.987 26.0398 0)
(152.835 23.384 0)
(100.037 -2.01366 0)
(100.696 -5.59794 -1.61652e-16)
(101.863 -8.94147 1.51505e-16)
(103.471 -11.6832 0)
(105.29 -14.0294 6.64214e-17)
(107.395 -15.8752 0)
(109.588 -17.4599 6.1133e-17)
(111.877 -18.9617 6.06228e-17)
(114.075 -20.5755 0)
(116.127 -22.3691 0)
(117.937 -24.2896 -6.6736e-17)
(119.497 -26.2493 -7.05176e-17)
(120.836 -28.1109 -7.49037e-17)
(121.994 -29.8061 7.96335e-17)
(123.078 -31.2399 -8.45217e-17)
(124.14 -32.4077 1.78337e-16)
(125.368 -33.238 0)
(126.842 -33.767 9.60754e-17)
(128.845 -33.9579 -9.74027e-17)
(131.37 -33.9827 -9.68623e-17)
(134.544 -33.9081 0)
(138.007 -33.9934 0)
(141.807 -34.173 4.32967e-21)
(145.564 -34.6184 -1.63309e-16)
(149.614 -35.0867 4.83729e-21)
(153.583 -35.8049 0)
(158.009 -36.4361 -6.63076e-17)
(162.318 -37.3582 0)
(167.261 -38.0968 -5.71647e-17)
(171.976 -39.2234 5.27453e-17)
(177.55 -40.0534 -4.91058e-17)
(182.72 -41.4199 -4.51539e-17)
(189.073 -42.3346 -4.38175e-21)
(194.762 -43.996 -3.86931e-17)
(202.11 -44.9909 0)
(208.404 -47.0214 3.32878e-17)
(217.052 -48.0898 -6.33664e-17)
(224.053 -50.5801 0)
(234.415 -51.7156 2.76393e-17)
(242.24 -54.779 2.44343e-17)
(254.878 -55.9839 0)
(263.614 -59.7901 0)
(279.203 -61.2012 -4.20914e-21)
(288.779 -66.1185 8.96394e-21)
(308.168 -68.1795 1.69398e-17)
(318.562 -74.634 -9.89729e-21)
(343.416 -77.793 -1.42288e-17)
(355.629 -85.315 0)
(389.916 -89.3523 1.16096e-17)
(407.884 -95.067 1.12572e-18)
(458.835 -99.966 0)
(488.123 -92.8632 0)
(558.301 -97.7459 1.30269e-18)
(606.303 -3.66606 -1.52043e-18)
(555.625 46.0529 0)
(536.088 59.1668 -2.21396e-17)
(498.742 65.2361 6.17441e-21)
(483.502 63.0751 0)
(455.82 63.6623 8.0237e-18)
(443.927 61.5187 -1.0567e-20)
(423.404 62.3844 0)
(413.594 60.7149 -1.01239e-17)
(397.055 60.8019 -3.03745e-17)
(387.062 58.4086 -2.61727e-17)
(371.98 57.2341 4.32051e-17)
(361.185 54.3319 -4.28617e-17)
(347.202 52.6041 5.78749e-17)
(336.44 49.8968 6.11462e-17)
(323.958 48.197 1.50756e-16)
(313.932 45.9401 0)
(303.043 44.4538 9.59288e-17)
(293.973 42.653 0)
(284.533 41.4363 0)
(276.43 40.0655 0)
(268.243 39.1302 0)
(261.045 38.1319 1.57539e-16)
(253.915 37.4373 -1.72553e-16)
(247.515 36.7195 -3.73097e-16)
(241.247 36.1847 -4.04165e-16)
(235.518 35.6446 0)
(229.923 35.172 2.33323e-16)
(224.73 34.7045 0)
(219.64 34.2016 0)
(214.858 33.7289 0)
(210.126 33.1284 5.97612e-16)
(205.647 32.6204 7.82499e-21)
(201.15 31.8962 6.61481e-16)
(196.898 31.3805 0)
(192.553 30.5455 -7.19894e-16)
(188.508 30.0979 3.73627e-16)
(184.265 29.1654 0)
(180.473 28.885 0)
(176.293 27.8309 4.03125e-16)
(172.88 27.8272 0)
(168.649 26.5537 0)
(165.861 26.9545 0)
(161.208 25.2575 0)
(159.575 26.2337 0)
(153.439 23.5919 0)
(100.038 -2.03244 0)
(100.706 -5.64467 8.0724e-17)
(101.886 -9.0133 -7.56338e-17)
(103.508 -11.7722 0)
(105.34 -14.1317 0)
(107.46 -15.9872 0)
(109.664 -17.5772 -1.22337e-16)
(111.966 -19.08 4.62579e-21)
(114.176 -20.6895 0)
(116.239 -22.4752 0)
(118.058 -24.3857 6.69014e-17)
(119.624 -26.3356 7.07136e-17)
(120.967 -28.1886 0)
(122.124 -29.8775 -7.99094e-17)
(123.204 -31.3079 8.48609e-17)
(124.256 -32.4755 1.82221e-21)
(125.467 -33.3095 0)
(126.915 -33.8464 -9.68385e-17)
(128.881 -34.048 9.83999e-17)
(131.364 -34.0832 -2.80133e-21)
(134.5 -34.0156 9.62907e-17)
(137.937 -34.1038 0)
(141.726 -34.2835 -1.77314e-16)
(145.478 -34.7289 8.35042e-17)
(149.527 -35.1978 -7.82717e-17)
(153.495 -35.918 7.28253e-17)
(157.92 -36.5515 1.35681e-16)
(162.227 -37.4769 0)
(167.17 -38.2184 0)
(171.885 -39.3491 0)
(177.459 -40.1822 -4.99996e-17)
(182.629 -41.5537 4.59094e-17)
(188.982 -42.4716 4.28201e-17)
(194.67 -44.139 3.92257e-17)
(202.017 -45.1373 0)
(208.309 -47.1753 -6.73143e-17)
(216.956 -48.2473 6.40125e-17)
(223.954 -50.7472 0)
(234.316 -51.8867 0)
(242.139 -54.9622 0)
(254.78 -56.1714 -2.41632e-17)
(263.515 -59.9924 0)
(279.114 -61.4072 -4.27881e-21)
(288.688 -66.341 -1.59511e-17)
(308.086 -68.4039 0)
(318.462 -74.8766 1.14328e-17)
(343.306 -78.0387 1.43996e-17)
(355.451 -85.5845 -6.32259e-18)
(389.697 -89.6389 -2.3553e-17)
(407.556 -95.3931 -1.14334e-18)
(458.558 -100.35 -7.33272e-18)
(487.872 -93.3031 0)
(558.415 -98.3228 1.6928e-22)
(606.62 -3.64856 3.08588e-18)
(555.512 46.3405 -3.61908e-18)
(535.752 59.3898 2.24497e-17)
(498.29 65.4258 4.70652e-19)
(483.015 63.2337 0)
(455.334 63.8036 -8.10562e-18)
(443.487 61.6462 -4.65544e-18)
(423.045 62.5097 0)
(413.35 60.8496 2.04561e-17)
(396.957 60.9569 -3.06853e-17)
(387.112 58.5908 0)
(372.176 57.4424 3.80652e-21)
(361.495 54.5628 0)
(347.604 52.8489 5.66647e-21)
(336.9 50.1504 -1.23029e-16)
(324.46 48.4523 7.12527e-21)
(314.454 46.1953 0)
(303.579 44.7046 0)
(294.512 42.8999 0)
(285.074 41.6766 0)
(276.966 40.3005 0)
(268.777 39.3582 1.44624e-16)
(261.572 38.3541 -1.57151e-16)
(254.437 37.6529 1.72038e-16)
(248.029 36.9296 -8.89312e-21)
(241.754 36.389 2.01322e-16)
(236.017 35.8442 0)
(230.415 35.3671 6.66063e-21)
(225.216 34.8958 2.4839e-16)
(220.121 34.39 -2.64801e-16)
(215.334 33.9148 0)
(210.602 33.3135 9.67719e-21)
(206.124 32.8044 -3.14572e-16)
(201.634 32.0816 1.21346e-20)
(197.391 31.5659 0)
(193.059 30.7346 3.60339e-16)
(189.027 30.2867 3.7459e-16)
(184.802 29.3595 3.86187e-16)
(181.024 29.0771 0)
(176.862 28.0291 1.99964e-20)
(173.457 28.0204 0)
(169.244 26.754 4.18245e-16)
(166.453 27.147 4.22706e-16)
(161.817 25.4579 4.19674e-16)
(160.171 26.4289 4.18966e-16)
(154.054 23.8017 4.08004e-16)
(100.04 -2.05153 0)
(100.717 -5.69198 8.06412e-17)
(101.908 -9.08591 -7.55336e-17)
(103.547 -11.8621 0)
(105.392 -14.2349 -6.63205e-17)
(107.525 -16.1001 0)
(109.741 -17.6954 6.12083e-17)
(112.056 -19.1991 -1.21556e-16)
(114.278 -20.8043 6.1768e-17)
(116.352 -22.5821 0)
(118.18 -24.4826 6.7079e-17)
(119.753 -26.4225 7.09212e-17)
(121.099 -28.2669 0)
(122.256 -29.9495 -8.01951e-17)
(123.332 -31.3763 0)
(124.376 -32.5437 1.85042e-21)
(125.57 -33.3812 9.43729e-17)
(126.993 -33.9258 9.75942e-17)
(128.923 -34.1378 -9.93987e-17)
(131.363 -34.1835 -2.77946e-21)
(134.46 -34.1229 -1.95607e-16)
(137.871 -34.2141 0)
(141.645 -34.394 -4.3805e-21)
(145.393 -34.8394 0)
(149.441 -35.3089 0)
(153.407 -36.0309 -7.45843e-17)
(157.831 -36.6667 -6.94537e-17)
(162.137 -37.5954 0)
(167.079 -38.3398 0)
(171.793 -39.4746 0)
(177.368 -40.3109 -4.91344e-21)
(182.537 -41.6873 -4.66985e-17)
(188.891 -42.6085 0)
(194.577 -44.2819 -3.97772e-17)
(201.924 -45.2836 0)
(208.213 -47.3292 6.80996e-17)
(216.86 -48.4049 -6.46917e-17)
(223.855 -50.9143 0)
(234.218 -52.0579 -2.81601e-17)
(242.038 -55.1456 2.48996e-17)
(254.683 -56.3592 2.4384e-17)
(263.417 -60.1949 2.06078e-17)
(279.026 -61.6134 2.07174e-17)
(288.6 -66.5639 1.61347e-17)
(308.008 -68.6288 -1.73182e-17)
(318.365 -75.1196 0)
(343.199 -78.2846 0)
(355.277 -85.854 -1.16179e-20)
(389.481 -89.9252 -7.25794e-21)
(407.229 -95.7188 0)
(458.28 -100.734 7.45801e-18)
(487.617 -93.7436 0)
(558.53 -98.9026 -1.33251e-18)
(606.944 -3.62995 -1.56613e-18)
(555.401 46.6312 -3.18321e-20)
(535.413 59.614 4.14595e-21)
(497.832 65.6153 -4.64201e-19)
(482.519 63.391 -1.62279e-17)
(454.836 63.9425 0)
(443.03 61.7705 0)
(422.666 62.6306 0)
(413.083 60.9792 1.20332e-20)
(396.834 61.1062 3.09858e-17)
(387.138 58.7675 0)
(372.349 57.6456 -4.40565e-17)
(361.785 54.7894 0)
(347.99 53.0902 -1.17505e-16)
(337.347 50.4016 -1.48107e-20)
(324.952 48.7057 -1.52135e-16)
(314.968 46.4492 0)
(304.109 44.9545 9.63016e-17)
(295.046 43.1462 0)
(285.611 41.9167 -1.19205e-16)
(277.5 40.5354 -1.29956e-16)
(269.308 39.5862 -2.88774e-16)
(262.098 38.5766 0)
(254.958 37.8688 0)
(248.543 37.1401 3.70634e-16)
(242.262 36.5939 0)
(236.517 36.0443 2.15542e-16)
(230.909 35.5628 -4.62814e-16)
(225.702 35.0877 -2.47357e-16)
(220.603 34.579 2.63725e-16)
(215.812 34.1011 0)
(211.079 33.4989 -5.93804e-16)
(206.603 32.9885 -3.13742e-16)
(202.118 32.2671 -6.59385e-16)
(197.883 31.7511 -3.45949e-16)
(193.563 30.9233 0)
(189.543 30.475 -3.75242e-16)
(185.336 29.5529 -3.8741e-16)
(181.571 29.2686 0)
(177.429 28.227 -8.17444e-16)
(174.034 28.2134 0)
(169.839 26.9544 -4.22414e-16)
(167.048 27.3399 -8.55702e-16)
(162.43 25.6592 -4.25744e-16)
(160.774 26.6249 -4.26242e-16)
(154.678 24.0131 -4.16189e-16)
(100.041 -2.07092 0)
(100.727 -5.73989 1.35375e-20)
(101.932 -9.15931 7.54097e-17)
(103.586 -11.9529 7.0484e-17)
(105.444 -14.3389 6.6263e-17)
(107.591 -16.2138 0)
(109.82 -17.8144 0)
(112.148 -19.3191 6.08619e-17)
(114.381 -20.9198 -6.18836e-17)
(116.467 -22.6898 0)
(118.304 -24.5802 -6.72561e-17)
(119.884 -26.5101 -7.11292e-17)
(121.234 -28.3458 0)
(122.392 -30.0221 -2.29067e-21)
(123.464 -31.4451 0)
(124.499 -32.6123 -1.8095e-16)
(125.678 -33.4532 -9.49386e-17)
(127.076 -34.0051 0)
(128.971 -34.2274 -2.04348e-21)
(131.369 -34.2836 2.01277e-16)
(134.426 -34.2302 -3.1534e-21)
(137.808 -34.3244 0)
(141.568 -34.5046 9.24256e-17)
(145.308 -34.9499 -8.73956e-17)
(149.354 -35.4199 0)
(153.319 -36.1438 -7.64353e-17)
(157.741 -36.7817 0)
(162.046 -37.7137 -6.5752e-17)
(166.988 -38.4611 6.09861e-17)
(171.702 -39.6 -5.60508e-17)
(177.276 -40.4395 -5.04575e-21)
(182.445 -41.8208 4.75481e-17)
(188.8 -42.7453 -4.42071e-17)
(194.485 -44.4247 0)
(201.832 -45.43 0)
(208.119 -47.4831 -3.44607e-17)
(216.765 -48.5625 3.27009e-17)
(223.757 -51.0815 2.95331e-17)
(234.121 -52.2292 2.84315e-17)
(241.938 -55.3291 -5.02771e-17)
(254.587 -56.5472 2.46215e-17)
(263.32 -60.3977 -2.08073e-17)
(278.94 -61.8201 0)
(288.513 -66.7871 -3.26199e-17)
(307.931 -68.8541 -4.69969e-21)
(318.271 -75.3631 1.1733e-17)
(343.095 -78.5308 0)
(355.108 -86.1236 1.30208e-17)
(389.27 -90.2113 1.21275e-17)
(406.903 -96.044 0)
(458 -101.118 0)
(487.357 -94.1849 0)
(558.646 -99.4855 0)
(607.274 -3.61024 0)
(555.293 46.9252 -3.24069e-20)
(535.074 59.8395 -2.30659e-17)
(497.369 65.8045 9.33824e-19)
(482.014 63.547 8.336e-21)
(454.325 64.0791 0)
(442.557 61.8916 0)
(422.266 62.7472 1.89733e-17)
(412.793 61.1037 -1.0434e-17)
(396.686 61.2498 0)
(387.138 58.9384 -2.70199e-17)
(372.498 57.8434 0)
(362.054 55.0115 -4.40641e-17)
(348.358 53.3279 -5.8565e-21)
(337.779 50.65 6.22916e-17)
(325.432 48.957 1.52868e-16)
(315.473 46.7018 -8.26172e-17)
(304.631 45.2035 -1.9302e-16)
(295.575 43.3919 0)
(286.143 42.1563 1.19214e-16)
(278.031 40.77 2.5974e-16)
(269.837 39.8142 -8.14429e-21)
(262.621 38.7991 1.56494e-16)
(255.477 38.0849 1.71121e-16)
(249.056 37.3509 -3.69498e-16)
(242.769 36.7991 1.99904e-16)
(237.017 36.2449 7.6218e-21)
(231.403 35.759 -6.69183e-21)
(226.19 35.2801 -2.4635e-16)
(221.086 34.7685 -2.62662e-16)
(216.291 34.288 2.79314e-16)
(211.557 33.6847 5.91727e-16)
(207.081 33.1729 3.12809e-16)
(202.602 32.4525 3.2896e-16)
(198.372 31.936 3.45497e-16)
(194.065 31.1115 -3.60435e-16)
(190.057 30.6627 3.75641e-16)
(185.867 29.7456 -3.88358e-16)
(182.116 29.4594 4.01411e-16)
(177.993 28.4242 8.21867e-16)
(174.608 28.406 0)
(170.433 27.1548 0)
(167.644 27.5329 4.32506e-16)
(163.046 25.8611 0)
(161.38 26.8216 0)
(155.309 24.2257 0)
(100.043 -2.09064 0)
(100.738 -5.7884 -8.04333e-17)
(101.955 -9.23352 -7.53106e-17)
(103.626 -12.0445 -7.03832e-17)
(105.497 -14.4438 6.62248e-17)
(107.657 -16.3284 0)
(109.899 -17.9343 0)
(112.24 -19.4399 0)
(114.486 -21.0362 -6.20128e-17)
(116.582 -22.7982 -6.42475e-17)
(118.429 -24.6785 6.74457e-17)
(120.016 -26.5984 -7.13493e-17)
(121.371 -28.4253 0)
(122.529 -30.0952 8.07758e-17)
(123.599 -31.5145 0)
(124.626 -32.6812 9.09116e-17)
(125.791 -33.5253 -9.55044e-17)
(127.165 -34.0846 9.90941e-17)
(129.025 -34.317 2.02745e-16)
(131.382 -34.3835 2.73097e-21)
(134.398 -34.3373 1.00856e-16)
(137.75 -34.4348 0)
(141.492 -34.6153 9.43736e-17)
(145.226 -35.0604 8.94185e-17)
(149.268 -35.5308 8.41215e-17)
(153.231 -36.2565 7.83553e-17)
(157.652 -36.8967 0)
(161.955 -37.8319 6.73494e-17)
(166.897 -38.5822 -6.24014e-17)
(171.609 -39.7252 -6.44922e-21)
(177.185 -40.5679 5.29978e-17)
(182.354 -41.9542 -9.68785e-17)
(188.708 -42.882 -4.86041e-21)
(194.393 -44.5675 0)
(201.74 -45.5763 0)
(208.025 -47.637 3.49041e-17)
(216.671 -48.7201 0)
(223.66 -51.2487 -5.96974e-17)
(234.025 -52.4005 -2.87233e-17)
(241.839 -55.5127 2.53871e-17)
(254.492 -56.7353 -2.4859e-17)
(263.225 -60.6008 0)
(278.855 -62.027 2.11511e-17)
(288.428 -67.0109 3.29907e-17)
(307.858 -69.0799 1.77107e-17)
(318.18 -75.607 1.05577e-20)
(342.996 -78.7773 0)
(354.943 -86.3933 -6.60519e-18)
(389.062 -90.4972 1.23192e-17)
(406.579 -96.3689 0)
(457.718 -101.501 0)
(487.093 -94.6268 0)
(558.763 -100.072 -1.36507e-18)
(607.61 -3.58943 0)
(555.189 47.2225 3.841e-18)
(534.735 60.0666 0)
(496.903 65.9937 -4.69569e-19)
(481.502 63.702 1.65727e-17)
(453.802 64.2135 0)
(442.069 62.0096 0)
(421.848 62.8596 -1.91337e-17)
(412.48 61.2232 0)
(396.513 61.3877 0)
(387.112 59.1035 2.72737e-17)
(372.622 58.0357 4.49037e-17)
(362.301 55.2289 4.44477e-17)
(348.707 53.5618 5.96577e-17)
(338.196 50.8954 0)
(325.899 49.2062 -7.68118e-17)
(315.968 46.9527 8.29108e-17)
(305.146 45.4513 9.67387e-17)
(296.096 43.6368 1.05354e-16)
(286.669 42.3954 0)
(278.557 41.0044 -1.29811e-16)
(270.362 40.042 -8.16541e-21)
(263.142 39.0215 -1.56198e-16)
(255.995 38.3011 -1.70702e-16)
(249.567 37.5619 -8.89829e-21)
(243.276 37.0047 -3.98476e-16)
(237.517 36.4459 7.62648e-21)
(231.898 35.9556 -6.70493e-21)
(226.678 35.473 2.45349e-16)
(221.569 34.9585 2.61591e-16)
(216.77 34.4752 -2.78211e-16)
(212.035 33.8707 -2.94784e-16)
(207.559 33.3574 0)
(203.084 32.6379 0)
(198.86 32.1207 3.44916e-16)
(194.564 31.2992 -1.4536e-20)
(190.567 30.8498 -3.75793e-16)
(186.394 29.9376 -1.69282e-20)
(182.656 29.6494 -4.02636e-16)
(178.554 28.6207 -4.12781e-16)
(175.179 28.598 0)
(171.024 27.3547 4.29508e-16)
(168.239 27.7257 0)
(163.664 26.0634 0)
(161.99 27.0187 0)
(155.945 24.4392 0)
(100.044 -2.11069 0)
(100.75 -5.83753 0)
(101.98 -9.30856 1.50388e-16)
(103.666 -12.137 0)
(105.551 -14.5495 -6.61742e-17)
(107.725 -16.4438 0)
(109.98 -18.055 0)
(112.333 -19.5615 6.1054e-17)
(114.591 -21.1534 6.21394e-17)
(116.699 -22.9075 1.28815e-16)
(118.556 -24.7776 -6.76348e-17)
(120.151 -26.6875 7.15697e-17)
(121.51 -28.5055 -7.61333e-17)
(122.67 -30.1689 0)
(123.737 -31.5844 0)
(124.757 -32.7506 0)
(125.908 -33.5978 9.60626e-17)
(127.259 -34.1641 -1.99659e-16)
(129.085 -34.4065 -1.02343e-16)
(131.4 -34.4833 -1.0314e-16)
(134.376 -34.4444 -1.02389e-16)
(137.696 -34.5452 0)
(141.42 -34.726 -9.63451e-17)
(145.144 -35.1711 0)
(149.183 -35.6418 -8.62053e-17)
(153.143 -36.3691 0)
(157.562 -37.0114 0)
(161.864 -37.9499 0)
(166.805 -38.7031 6.39069e-17)
(171.517 -39.8503 5.85808e-17)
(177.093 -40.6961 0)
(182.261 -42.0874 4.93842e-17)
(188.617 -43.0187 9.15173e-17)
(194.301 -44.7103 -4.16623e-17)
(201.648 -45.7225 0)
(207.931 -47.7908 -7.07232e-17)
(216.577 -48.8778 0)
(223.564 -51.4159 6.03662e-17)
(233.929 -52.572 5.80433e-17)
(241.741 -55.6964 2.56574e-17)
(254.399 -56.9237 2.5114e-17)
(263.131 -60.8041 0)
(278.771 -62.2344 4.56667e-21)
(288.345 -67.235 9.65478e-21)
(307.786 -69.3062 0)
(318.092 -75.8513 -2.40701e-17)
(342.901 -79.0242 0)
(354.782 -86.6631 0)
(388.859 -90.7829 -1.25007e-17)
(406.257 -96.6934 1.15374e-18)
(457.435 -101.885 0)
(486.825 -95.0694 0)
(558.88 -100.661 -3.39267e-22)
(607.954 -3.56753 1.65416e-18)
(555.089 47.5232 0)
(534.396 60.2953 0)
(496.432 66.1829 4.63202e-19)
(480.982 63.856 0)
(453.268 64.3457 -8.42496e-18)
(441.566 62.1245 0)
(421.41 62.9679 1.92906e-17)
(412.145 61.3376 0)
(396.314 61.5198 0)
(387.059 59.2627 -2.75497e-17)
(372.72 58.2223 -4.53132e-17)
(362.524 55.4412 0)
(349.035 53.7915 6.01256e-17)
(338.596 51.1376 -6.31301e-17)
(326.352 49.4529 7.72143e-17)
(316.451 47.2018 -8.325e-17)
(305.65 45.6978 0)
(296.61 43.8807 -2.11035e-16)
(287.19 42.6338 0)
(279.077 41.2382 -1.29798e-16)
(270.883 40.2694 1.43862e-16)
(263.659 39.2438 0)
(256.509 38.5172 1.70332e-16)
(250.076 37.7729 1.83713e-16)
(243.78 37.2103 3.97224e-16)
(238.016 36.6471 -4.26386e-16)
(232.391 36.1525 4.57435e-16)
(227.166 35.6662 2.44387e-16)
(222.052 35.1487 2.60549e-16)
(217.249 34.6627 -2.77122e-16)
(212.512 34.057 -2.93698e-16)
(208.036 33.5419 0)
(203.565 32.8232 0)
(199.346 32.3052 -3.44198e-16)
(195.06 31.4865 7.19498e-16)
(191.074 31.0362 -3.7575e-16)
(186.917 30.1288 7.78818e-16)
(183.192 29.8386 0)
(179.109 28.8163 -4.14337e-16)
(175.747 28.7892 0)
(171.613 27.5542 -8.64861e-16)
(168.833 27.9183 0)
(164.281 26.2658 0)
(162.601 27.2159 0)
(156.585 24.6533 0)
(100.046 -2.13108 0)
(100.762 -5.88729 8.02505e-17)
(102.004 -9.38444 -1.50168e-16)
(103.708 -12.2304 0)
(105.606 -14.6561 0)
(107.795 -16.5602 0)
(110.061 -18.1765 0)
(112.427 -19.6839 4.76565e-21)
(114.697 -21.2715 0)
(116.817 -23.0176 -6.45734e-17)
(118.684 -24.8775 0)
(120.287 -26.7772 -7.18025e-17)
(121.651 -28.5863 -2.63687e-21)
(122.813 -30.2432 -8.13818e-17)
(123.877 -31.6549 0)
(124.891 -32.8204 0)
(126.029 -33.6705 9.66189e-17)
(127.358 -34.2438 1.00555e-16)
(129.152 -34.496 -1.03303e-16)
(131.426 -34.583 -1.04378e-16)
(134.359 -34.5514 2.07824e-16)
(137.646 -34.6557 0)
(141.35 -34.837 9.83521e-17)
(145.065 -35.2818 0)
(149.099 -35.7528 -8.83655e-17)
(153.056 -36.4817 0)
(157.473 -37.1261 0)
(161.772 -38.0677 0)
(166.712 -38.8239 -6.54838e-17)
(171.424 -39.9751 5.99667e-17)
(177.001 -40.8243 0)
(182.169 -42.2206 -5.03961e-17)
(188.526 -43.1553 5.12474e-21)
(194.209 -44.8529 8.47216e-17)
(201.557 -45.8688 0)
(207.837 -47.9447 7.16958e-17)
(216.484 -49.0354 0)
(223.468 -51.5832 7.26579e-21)
(233.834 -52.7435 -2.93332e-17)
(241.644 -55.8802 -2.59226e-17)
(254.306 -57.1122 4.42311e-21)
(263.037 -61.0077 2.14824e-17)
(278.689 -62.4421 -2.16036e-17)
(288.263 -67.4596 -1.68784e-17)
(307.718 -69.533 0)
(318.008 -76.0962 1.21899e-17)
(342.81 -79.2715 0)
(354.627 -86.9332 0)
(388.66 -91.0686 -1.27022e-17)
(405.936 -97.0176 -2.33213e-18)
(457.151 -102.268 0)
(486.552 -95.5126 0)
(558.998 -101.253 1.39948e-18)
(608.304 -3.54456 -1.67755e-18)
(554.992 47.8274 0)
(534.058 60.5256 -2.40185e-17)
(495.959 66.3723 -5.92727e-21)
(480.456 64.0091 0)
(452.723 64.476 1.70047e-17)
(441.049 62.2365 0)
(420.954 63.0722 -1.94411e-17)
(411.787 61.4471 0)
(396.089 61.6462 0)
(386.98 59.4159 5.55943e-17)
(372.792 58.403 0)
(362.722 55.6484 0)
(349.343 54.0168 -6.05847e-17)
(338.978 51.3763 -1.53254e-20)
(326.791 49.6969 -7.76149e-17)
(316.922 47.4489 -1.46639e-20)
(306.145 45.9427 0)
(297.115 44.1235 1.05704e-16)
(287.703 42.8713 0)
(279.591 41.4713 1.29788e-16)
(271.398 40.4964 0)
(264.172 39.4657 1.55734e-16)
(257.019 38.733 -1.69982e-16)