/*--------------------------------*- C++ -*----------------------------------*\
| =========                 |                                                 |
| \\      /  F ield         | OpenFOAM: The Open Source CFD Toolbox           |
|  \\    /   O peration     | Version:  2412                                  |
|   \\  /    A nd           | Website:  www.openfoam.com                      |
|    \\/     M anipulation  |                                                 |
\*---------------------------------------------------------------------------*/
FoamFile
{
    version     2.0;
    format      ascii;
    arch        "LSB;label=32;scalar=64";
    class       volScalarField;
    location    "0.5";
    object      epsilon;
}
// * * * * * * * * * * * * * * * * * * * * * * * * * * * * * * * * * * * * * //

dimensions      [0 2 -3 0 0 0 0];

internalField   nonuniform List<scalar> 
13077
(
419.139
506.675
677.415
937.714
1234.9
1478.88
1611.93
1629.09
1558.73
1434.58
1280.52
1114.14
960.898
852.912
800.255
789.355
801.564
824.976
853.013
883.807
916.019
950.752
987.368
1028.03
1071.67
1121.62
1175.75
1239.37
1308.22
1390.95
1479.36
1588.03
1701.14
1845.19
1991.29
2188.61
2382.31
2661.78
2936.66
419.881
508.405
680.295
941.182
1237.8
1480.39
1612.08
1628.51
1558.06
1434.23
1280.8
1115.22
962.441
854.252
801.112
789.842
801.863
825.192
853.182
883.935
916.104
950.789
987.358
1027.98
1071.58
1121.53
1175.66
1239.32
1308.23
1391.08
1479.64
1588.54
1701.92
1846.35
1992.83
2190.76
2385.03
2665.5
2941.07
3400.66
3920.27
4869.83
6008.31
7988.22
10184.4
13588.3
16199.6
19110.6
20019.5
24849
32065.7
52978.1
153360
185770
161676
145065
128557
114150
98330
85432.2
69550.7
57215
44561.9
36721
29649.1
25409.7
21387
18632.9
15686.3
420.642
510.172
683.226
944.691
1240.71
1481.86
1612.15
1627.86
1557.36
1433.93
1281.2
1116.5
964.236
855.856
802.211
790.543
802.353
825.583
853.518
884.223
916.341
950.973
987.492
1028.07
1071.65
1121.58
1175.73
1239.43
1308.43
1391.41
1480.15
1589.32
1703
1847.89
1994.81
2193.47
2388.42
2670.06
2946.51
3407.67
3928.56
4882.36
6028.04
8028.22
10260.9
13750.8
16488.5
19567.1
20513.2
25336.4
32593.2
53919.6
156044
187662
164778
149414
133075
119066
103757
91787.8
76423.7
64354.8
51057.3
42596.4
34602.2
29756.8
25060.4
21855.9
18382.9
15452.2
12546.2
10227.6
8293.55
6844.78
5730.82
4909.82
4279.97
3783.94
3368.58
3009.16
2693.65
2422.4
2196.36
2014.66
1872.26
1762.18
1675.98
1608.68
1553.7
1512.28
1478.28
1460.8
1448.41
1464.58
1486.56
1579.14
1716.08
2117.66
2625.02
421.423
511.981
686.216
948.252
1243.62
1483.29
1612.15
1627.14
1556.64
1433.68
1281.72
1117.98
966.294
857.742
803.571
791.474
803.049
826.166
854.033
884.68
916.74
951.313
987.778
1028.31
1071.86
1121.79
1175.95
1239.72
1308.81
1391.96
1480.9
1590.39
1704.42
1849.82
1997.27
2196.75
2392.5
2675.5
2953.02
3416.07
3938.55
4897.07
6050.56
8072.26
10343.4
13924.1
16796.4
20058.9
21051.5
25869.4
33164
54902.2
158764
189578
168078
154104
137931
124324
109557
98605.4
83892.7
72255.2
58424.2
49391.2
40431.1
34921.5
29457.8
25731.2
21648.3
18182.2
14673.2
11850.2
9485.01
7721.71
6374.75
5395.01
4655.46
4086.22
3619.77
3223.12
2877.69
2580.78
2332.12
2130.49
1971.13
1846.77
1749.15
1672.65
1610.78
1563.87
1526.02
1505.52
1491.43
1506.69
1529.09
1624.37
1765.8
2180.83
2703.46
422.224
513.832
689.269
951.874
1246.57
1484.7
1612.11
1626.38
1555.92
1433.49
1282.4
1119.69
968.638
859.932
805.215
792.658
803.973
826.956
854.743
885.322
917.315
951.823
988.227
1028.71
1072.23
1122.15
1176.35
1240.18
1309.39
1392.72
1481.9
1591.74
1706.18
1852.17
2000.22
2200.64
2397.33
2681.87
2960.67
3425.95
3950.33
4914.11
6076.03
8120.58
10432.3
14108.4
17124.3
20588.1
21637.7
26451.9
33781.6
55928.4
161522
191525
171597
159170
143157
129949
115748
105899
91971.9
80935.1
66703.9
57170.4
47225.3
41002.9
34680.5
30356.1
25576.4
21495.5
17275.6
13841.1
10942.9
8787.7
7150.27
5973.45
5098.65
4439.97
3911.87
3470.98
3090.47
2763.74
2488.83
2263.99
2084.83
1943.73
1832.71
1745.42
1675.44
1622.08
1579.7
1555.65
1539.53
1553.64
1576.38
1674.37
1820.44
2249.21
2787.55
423.047
515.729
692.39
955.564
1249.54
1486.09
1612.01
1625.58
1555.2
1433.38
1283.24
1121.64
971.298
862.457
807.172
794.12
805.146
827.977
855.668
886.169
918.085
952.518
988.855
1029.28
1072.77
1122.7
1176.92
1240.84
1310.18
1393.72
1483.17
1593.42
1708.31
1854.96
2003.71
2205.18
2402.94
2689.23
2969.55
3437.4
3964.03
4933.62
6104.67
8173.49
10527.9
14304.6
17473.1
21156.8
22275.7
27088.4
34450.1
57001.8
164320
193514
175360
164653
148790
135970
122351
113685
100675
90407.4
75925.9
65983.5
55060.9
48090
40824.8
35824.4
30260.7
25485.9
20444.5
16279.9
12728.9
10087.2
8087.81
6665.82
5623.76
4855.38
4252.54
3758.84
3337.08
2975.6
2670.13
2418.23
2215.89
2055.14
1928.37
1828.35
1748.81
1687.87
1640.16
1611.94
1593.4
1606.05
1629.03
1729.73
1880.62
2323.44
2878.04
423.892
517.674
695.582
959.325
1252.56
1487.49
1611.89
1624.75
1554.51
1433.38
1284.28
1123.88
974.306
865.351
809.473
795.89
806.595
829.252
856.832
887.24
919.068
953.418
989.679
1030.05
1073.51
1123.43
1177.7
1241.72
1311.2
1394.98
1484.74
1595.43
1710.84
1858.24
2007.76
2210.43
2409.4
2697.67
2979.75
3450.53
3979.79
4955.82
6136.74
8231.32
10630.8
14513.3
17844
21767.6
22969.6
27783.8
35174.3
58126
167164
195558
179391
170597
154871
142419
129390
121980
110012
100679
86106.7
75861.5
63994.3
56253.9
47973.3
42218.6
35786.4
30242.8
24274.4
19255.7
14915.7
11674.4
9225
7497.83
6248.39
5344.99
4651.18
4094.13
3623.68
3221.57
2880.48
2596.94
2367.41
2183.53
2038.16
1923.11
1832.28
1762.39
1708.4
1675.25
1653.81
1664.66
1687.77
1791.16
1947.07
2404.27
2975.78
424.76
519.669
698.85
963.165
1255.62
1488.88
1611.74
1623.91
1553.85
1433.51
1285.54
1126.44
977.7
868.652
812.155
797.999
808.349
830.807
858.258
888.56
920.287
954.543
990.72
1031.03
1074.45
1124.38
1178.69
1242.82
1312.46
1396.52
1486.61
1597.81
1713.79
1862.02
2012.43
2216.43
2416.76
2707.25
2991.36
3465.48
3997.77
4980.9
6172.49
8294.46
10741.5
14735.3
18238.2
22423.1
23724.1
28543.7
35959.3
59305.3
170057
197669
183722
177053
161447
149331
136889
130799
119993
111749
97250.2
86816.3
74058.9
65542
56188.2
49602.8
42222.2
35842.5
28855.1
22862.1
17585.8
13613.8
10607.7
8501.1
6994.2
5924.14
5119.17
4485.84
3957.67
3507.95
3125.23
2804.62
2543.11
2331.93
2164.55
2031.71
1927.48
1847.02
1785.58
1746.61
1721.72
1730.32
1753.41
1859.45
2020.61
2492.54
3081.76
425.653
521.715
702.197
967.088
1258.74
1490.29
1611.58
1623.07
1553.26
1433.79
1287.07
1129.35
981.52
872.401
815.257
800.484
810.441
832.674
859.975
890.154
921.766
955.916
991.998
1032.24
1075.61
1125.55
1179.91
1244.17
1314
1398.35
1488.82
1600.57
1717.2
1866.36
2017.75
2223.23
2425.11
2718.06
3004.48
3482.37
4018.14
5009.09
6212.22
8363.3
10860.4
14971.4
18657.1
23126.3
24544.2
29374.3
36810.8
60544.6
173006
199862
188384
184077
168571
156748
144874
140157
130624
123613
109349
98841.5
85264
75974.9
65505.9
58016.6
49613.4
42338.6
34261.8
27189.3
20828
15979.3
12290.8
9714.07
7887.66
6611.53
5670.31
4944.75
4347.92
3842.26
3410.83
3046.72
2747.52
2504.02
2310.52
2156.53
2036.39
1943.37
1873.1
1827.23
1798.2
1804.04
1826.92
1935.55
2102.22
2589.27
3197.12
426.571
523.816
705.627
971.101
1261.92
1491.72
1611.42
1622.25
1552.75
1434.27
1288.89
1132.65
985.811
876.643
818.821
803.384
812.907
834.884
862.013
892.052
923.533
957.563
993.538
1033.7
1077.03
1126.97
1181.39
1245.78
1315.82
1400.5
1491.39
1603.76
1721.1
1871.28
2023.77
2230.89
2434.49
2730.19
3019.23
3501.34
4041.08
5040.64
6256.24
8438.29
10988.3
15222.6
19102.1
23880.1
25435.3
30282.4
37735.3
61848.9
176015
202155
193411
191729
176300
164713
153373
150070
141908
136262
122385
111916
97596.5
87547.2
75935.2
67472.9
57977.7
49755.4
40543.8
32313.5
24730.8
18852.3
14337.9
11182.8
8960.77
7429.78
6321.22
5483.78
4805.03
4233.5
3744.98
3329.77
2986.07
2704.24
2479.67
2300.47
2161.35
2053.38
1972.6
1918.51
1884.53
1886.98
1909.42
2020.54
2193
2695.57
3323.18
427.515
525.973
709.145
975.21
1265.17
1493.19
1611.28
1621.47
1552.36
1434.95
1291.05
1136.4
990.62
881.427
822.897
806.743
815.786
837.473
864.405
894.284
925.615
959.51
995.365
1035.44
1078.71
1128.66
1183.14
1247.68
1317.95
1402.99
1494.34
1607.39
1725.52
1876.83
2030.54
2239.47
2444.99
2743.72
3035.72
3522.55
4066.78
5075.79
6304.89
8519.91
11125.8
15489.9
19574.6
24687.7
26403.2
31275.4
38739.6
63224
179093
204563
198843
200078
184701
173275
162417
160554
153847
149681
136335
126005
111025
100230
87458.6
77958.5
67305.5
58085.4
47717.3
38285.1
29372.6
22316.5
16820.3
12960.9
10251.7
8406.01
7091.77
6118.34
5341.58
4692.35
4136.9
3661.63
3265.34
2937.96
2676.33
2467
2305.18
2179.35
2086.03
2022.14
1982.22
1980.5
2002.21
2115.67
2294.26
2812.79
3461.46
428.487
528.19
712.754
979.423
1268.5
1494.7
1611.17
1620.75
1552.09
1435.89
1293.58
1140.63
996
886.809
827.534
810.608
819.121
840.483
867.19
896.885
928.047
961.789
997.508
1037.48
1080.69
1130.65
1185.19
1249.9
1320.41
1405.85
1497.71
1611.5
1730.5
1883.05
2038.11
2249.03
2456.67
2758.76
3054.06
3546.15
4095.44
5114.83
6358.53
8608.67
11273.7
15774.4
20076.4
25552.4
27454.1
32361.5
39831.5
64676
182245
207107
204719
209197
193845
182490
172038
171623
166442
163854
151168
141068
125503
113977
100037
89437.7
77563.1
67292.6
55761.8
45119
34810.8
26449.9
19813.7
15109.5
11805.2
9572.34
8005.54
6866.62
5972.39
5231.43
4597.49
4051.66
3593.23
3211.67
2905.75
2660.33
2471.29
2324.07
2215.71
2140.11
2093.02
2086.21
2106.81
2222.4
2407.48
2942.43
3613.71
429.488
530.469
716.461
983.745
1271.92
1496.27
1611.1
1620.11
1551.99
1437.12
1296.54
1145.41
1002.01
892.846
832.792
815.032
822.961
843.957
870.408
899.894
930.865
964.433
999.997
1039.85
1083
1132.95
1187.57
1252.45
1323.23
1409.11
1501.51
1616.12
1736.07
1889.97
2046.52
2259.64
2469.63
2775.4
3074.38
3572.32
4127.27
5158.05
6417.55
8705.12
11432.6
16077.3
20609.3
26477.7
28594.9
33549.9
41019.4
66211.8
185481
209809
211085
219168
203815
192419
182273
183295
179693
178762
166851
157058
140976
128729
113614
101858
88699.5
77319.7
64624.9
52790.6
41070.1
31314.9
23392
17694.3
13671.9
10966.1
9090.11
7749.91
6714.78
5865.48
5139.63
4511.01
3979.18
3533.16
3174.27
2885.53
2663.75
2490.82
2364.41
2274.75
2219.04
2205.97
2225
2342.45
2534.42
3086.25
3781.94
430.518
532.812
720.27
988.187
1275.44
1497.92
1611.1
1619.57
1552.09
1438.67
1299.97
1150.78
1008.71
899.603
838.733
820.075
827.36
847.944
874.104
903.354
934.106
967.478
1002.87
1042.59
1085.66
1135.61
1190.29
1255.37
1326.43
1412.78
1505.79
1621.28
1742.27
1897.66
2055.85
2271.36
2483.94
2793.74
3096.82
3601.22
4162.51
5205.77
6482.36
8809.89
11603.5
16400
21175.2
27467.3
29832.6
34850.6
42312.8
67838.8
188808
212690
217991
230080
214699
203130
193161
195585
193596
194387
183348
173924
157385
144419
128124
115158
100653
88097.3
74231
61238.5
48136.2
36946.8
27619.7
20782.1
15907.5
12629.6
10377.2
8792.71
7588.71
6611.56
5778.27
5052.78
4434.47
3911.82
3489.52
3148.71
2887.49
2683.61
2535.44
2428.88
2362.73
2342.01
2358.87
2477.79
2677.1
3246.3
3968.5
431.58
535.224
724.187
992.755
1279.07
1499.65
1611.19
1619.16
1552.41
1440.6
1303.93
1156.81
1016.16
907.15
845.425
825.8
832.376
852.498
878.329
907.31
937.816
970.966
1006.16
1045.73
1088.7
1138.64
1193.39
1258.67
1330.05
1416.91
1510.57
1627.02
1749.15
1906.16
2066.13
2284.26
2499.68
2813.91
3121.52
3633.04
4201.41
5258.31
6553.41
8923.61
11787.4
16743.8
21776.1
28525
31175
36274.4
43721.9
69565.4
192239
215777
225488
242029
226598
214701
204745
208513
208151
210707
200621
191616
174668
160980
143497
129268
113358
99552.5
84493.7
70374.8
55955.4
43345.5
32541.5
24434.5
18569.6
14609.1
11902.2
10022.8
8616.78
7489.06
6530.6
5692.23
4972.34
4358.8
3860.69
3457.26
3148.47
2907.22
2732.78
2605.82
2527.02
2496.92
2510.86
2630.74
2837.88
3424.92
4176.05
432.675
537.707
728.217
997.46
1282.83
1501.49
1611.39
1618.9
1552.99
1442.94
1308.46
1163.57
1024.44
915.566
852.947
832.279
838.075
857.681
883.139
911.816
942.042
974.941
1009.91
1049.31
1092.16
1142.08
1196.91
1262.4
1334.12
1421.52
1515.89
1633.38
1756.74
1915.51
2077.44
2298.42
2516.96
2836.02
3148.63
3667.99
4244.2
5316.03
6631.17
9046.99
11985.1
17110.4
22414.5
29655
32630.1
37833.7
45258.4
71400.4
195782
219098
233635
255119
239621
227216
217075
222099
223355
227701
218633
210083
192763
178344
159661
144121
126748
111616
95327.1
80099
64442.2
50471.7
38173.5
28699.9
21713.2
16952.9
13703.8
11470.5
9824.03
8519.57
7415.92
6446.75
5608.24
4887.3
4298.73
3820.05
3453.83
3167.41
2961.17
2809.56
2715.39
2673.78
2683.86
2804.02
3019.5
3624.85
4407.71
433.803
540.265
732.367
1002.31
1286.72
1503.46
1611.71
1618.83
1553.87
1445.74
1313.65
1171.12
1033.64
924.933
861.381
839.591
844.529
863.558
888.595
916.928
946.838
979.453
1014.16
1053.37
1096.09
1145.98
1200.87
1266.59
1338.66
1426.65
1521.78
1640.4
1765.09
1925.77
2089.84
2313.92
2535.87
2860.19
3178.3
3706.28
4291.18
5379.32
6716.17
9180.82
12197.9
17501.6
23092.8
30861.5
34206.8
39541.6
46934.8
73353.7
199450
222682
242494
269462
253889
240770
230204
236366
239206
245348
237347
229276
211611
196446
176549
159649
140761
124225
106653
90311.4
73492.4
58251.2
44497.1
33605.2
25385.2
19708
15821.8
13168.5
11237.4
9726.48
8455.46
7335.84
6359.76
5512.67
4816.59
4247.65
3812.13
3471.07
3226.29
3044.82
2931.95
2876.23
2881.24
3000.78
3225.16
3849.22
4667.01
434.968
542.901
736.643
1007.32
1290.77
1505.56
1612.19
1618.98
1555.09
1449.06
1319.54
1179.55
1043.83
935.344
870.82
847.825
851.82
870.204
894.767
922.709
952.262
984.556
1018.97
1057.96
1100.51
1150.36
1205.31
1271.27
1343.71
1432.34
1528.28
1648.11
1774.25
1936.99
2103.38
2330.84
2556.5
2886.54
3210.7
3748.11
4342.62
5448.58
6808.96
9325.91
12426.9
17919.3
23813.9
32149.2
35914.3
41412.8
48765.2
75436.4
203256
226564
252131
285174
269534
255470
244193
251340
255704
263626
256725
249146
231156
215223
194095
175790
155338
137324
118407
100923
82997.7
66584.7
51458.6
39148.6
29617.1
22915.6
18294.9
15149.5
12884.6
11134.3
9671.74
8380.66
7246.58
6252.47
5429.36
4752.56
4233.6
3826.46
3534.95
3317.27
3181.59
3108.55
3106.98
3224.74
3458.58
4101.67
4958.03
436.17
545.619
741.053
1012.49
1294.99
1507.83
1612.86
1619.38
1556.7
1452.96
1326.22
1188.94
1055.1
946.901
881.366
857.076
860.037
877.701
901.729
929.231
958.38
990.31
1024.4
1063.12
1105.49
1155.28
1210.28
1276.47
1349.31
1438.61
1535.43
1656.56
1784.26
1949.24
2118.15
2349.25
2578.96
2915.22
3245.99
3793.73
4398.84
5524.25
6910.13
9483.17
12673.5
18365.7
24580.8
33523.1
37762.2
43463.4
50765.3
77660.3
207215
230779
262619
302382
286698
271432
259111
267052
272850
282517
276731
269648
251342
234618
212239
192487
170428
150866
130536
111863
92858.1
75362.1
58975.5
45297.5
34418.9
26606.1
21157.1
17444.8
14793.1
12767.4
11087.7
9603.38
8289.94
7126.32
6154.35
5349.4
4730.3
4243.39
3895.23
3633.6
3470.11
3375.8
3365.73
3480.21
3724.06
4386.39
5285.42
437.411
548.423
745.603
1017.84
1299.39
1510.28
1613.73
1620.07
1558.74
1457.49
1333.76
1199.39
1067.58
959.714
893.131
867.452
869.279
886.14
909.566
936.572
965.264
996.783
1030.49
1068.92
1111.07
1160.77
1215.81
1282.25
1355.5
1445.52
1543.28
1665.8
1795.19
1962.56
2134.21
2369.26
2603.37
2946.37
3284.37
3843.39
4460.17
5606.79
7020.33
9653.59
12939.2
18843.2
25397.1
34988.5
39761
45710.9
52952.3
80038.6
211341
235367
274035
321214
305535
288785
275034
283536
290645
302000
297330
290735
272119
254577
230925
209684
185980
164810
142998
123075
102990
84476.3
66947
51989.5
39774.9
30793.2
24434
20080.9
16987.4
14648.8
12725.5
11026
9511.86
8155.36
7010.87
6054.9
5316.3
4733.41
4316.69
4001.76
3804.33
3683.92
3662.95
3772.22
4026.6
4708.17
5654.46
438.694
551.318
750.302
1023.38
1303.99
1512.94
1614.85
1621.09
1561.27
1462.72
1342.23
1210.99
1081.35
973.904
906.241
879.074
879.658
895.625
918.373
944.818
972.995
1004.05
1037.33
1075.42
1117.3
1166.9
1221.96
1288.65
1362.33
1453.1
1551.85
1675.88
1807.07
1977.03
2151.63
2390.95
2629.83
2980.13
3326.02
3897.33
4526.93
5696.69
7140.23
9838.24
13225.5
19354.3
26266.5
36551
41921.5
48174.5
55345.4
82586
215652
240373
286461
341805
326207
307672
292048
300833
309096
322058
318487
312364
293437
275049
250101
227333
201951
179120
155763
134520
113329
93833
75267.2
59140.4
45643.4
35471
28138.3
23077
19487.5
16797.7
14604.4
12669.1
10933.9
9361.47
8019.8
6887.8
6007.74
5309.97
4810.54
4431.08
4192.28
4039.89
4005.01
4106.59
4371.93
5072.5
6071.09
440.019
554.308
755.158
1029.13
1308.82
1515.84
1616.24
1622.48
1564.33
1468.72
1351.74
1223.84
1096.55
989.604
920.833
892.073
891.296
906.269
928.255
954.067
981.661
1012.19
1044.98
1082.68
1124.26
1173.71
1228.78
1295.71
1369.84
1461.4
1561.22
1686.84
1819.96
1992.71
2170.49
2414.42
2658.47
3016.66
3371.14
3955.84
4599.51
5794.48
7270.59
10038.3
13534.2
19902.2
27193.3
38217
44255.3
50875.2
57966
85318.3
220167
245843
299986
364289
348886
328246
310248
318990
328211
342673
340167
334492
315247
295985
269718
245388
218297
193760
168801
146170
123828
103357
83836.4
66654.1
51960.2
40611.4
32266.7
26441.3
22305.5
19227.7
16739.6
14549.6
12575.6
10765.9
9202.7
7868.37
6822.65
5988.45
5389.78
4932.46
4643.33
4451.8
4399.26
4490.06
4766.62
5485.61
6541.97
441.39
557.399
760.18
1035.1
1313.88
1519
1617.94
1624.28
1567.98
1475.57
1362.38
1238.07
1113.31
1006.96
937.057
906.598
904.333
918.198
939.328
964.426
991.363
1021.29
1053.53
1090.78
1132.01
1181.28
1236.32
1303.5
1378.08
1470.48
1571.41
1698.73
1833.93
2009.66
2190.87
2439.76
2689.41
3056.13
3419.93
4019.2
4678.29
5900.73
7412.18
10255
13867.3
20490.1
28182.4
39993.5
46774.4
53835.5
60837.5
88253.3
224904
251832
314704
388802
373749
350674
329743
338061
348003
363832
362339
357075
337503
317338
289732
263806
234982
208700
182089
158004
134457
112992
92569.3
74434
58646.3
46166.9
36798.8
30168.9
25444
21944.9
19139.4
16679.2
14452.2
12387.5
10580.5
9017.62
7780.58
6786.05
6069.17
5518.39
5168.27
4929.03
4854.19
4930.3
5218.14
5954.48
7074.45
442.808
560.594
765.377
1041.3
1319.21
1522.45
1619.99
1626.55
1572.29
1483.34
1374.24
1253.8
1131.78
1026.13
955.083
922.814
918.922
931.556
951.723
976.016
1002.21
1031.46
1063.08
1099.8
1140.62
1189.67
1244.66
1312.06
1387.1
1480.37
1582.5
1711.62
1849.04
2027.95
2212.86
2467.09
2722.77
3098.69
3472.63
4087.7
4763.68
6016.02
7565.87
10489.7
14226.8
21121.7
29239.2
41887.9
49491.6
57080.1
63986.1
91410.6
229887
258396
330713
415475
400978
375133
350649
358109
368489
385524
384971
380074
360159
339064
310099
282546
251966
223908
195605
170006
145195
122700
101399
82391.5
65616.1
52075.1
41697.6
34240.7
28893.8
24945.5
21804
19062.2
16573.1
14240.8
12171.6
10356
8901.8
7721.37
6865.17
6203.03
5779.4
5482.26
5379.45
5436.06
5734.86
6486.93
7676.53
444.276
563.9
770.76
1047.75
1324.83
1526.22
1622.43
1629.34
1577.32
1492.11
1387.44
1271.17
1152.1
1047.3
975.096
940.903
935.236
946.501
965.587
988.971
1014.33
1042.81
1073.71
1109.85
1150.18
1198.95
1253.85
1321.46
1396.97
1491.15
1594.52
1725.56
1865.34
2047.67
2236.54
2496.5
2758.7
3144.52
3529.46
4161.68
4856.1
6141
7732.56
10743.9
14615.1
21801
30369.8
43909
52420.5
60635.3
67440.9
94811.7
235138
265600
348118
444436
430754
401811
373099
379206
389693
407739
408033
403448
383170
361119
330775
301570
269215
239353
209325
182161
156028
132458
110276
90452.4
72786.6
58265.1
46913.3
38624.3
32634.1
28215.4
24724
21694.1
18939.6
16333.8
13990.1
11901.5
10206.1
8813.73
7795.49
7002
6490.48
6123.52
5985.87
6017.09
6326.07
7091.5
8356.8
445.796
567.323
776.339
1054.47
1330.76
1530.35
1625.3
1632.69
1583.14
1501.98
1402.08
1290.32
1174.46
1070.65
997.301
961.07
953.467
963.213
981.084
1003.44
1027.85
1055.47
1085.56
1121.01
1160.78
1209.21
1263.97
1331.78
1407.75
1502.87
1607.55
1740.61
1882.91
2068.87
2262
2528.1
2797.33
3193.82
3590.66
4241.46
4956.01
6276.32
7913.24
11019.2
15034.8
22532.6
31581.1
46066.3
55575.3
64529.5
71233.8
98480.5
240684
273514
367029
475802
463253
430903
397233
401435
411645
430476
431499
427158
406493
383459
351722
320840
286694
255007
223226
194453
166946
142250
119170
98559.6
80083.7
64665.2
52388.5
43277.1
36633
31729.9
27880
24560.6
21543.5
18666
16043.1
13668.1
11711
10082
8878.45
7932.04
7316.48
6866.05
6685.43
6684.15
7001.88
7777.44
9124.21
447.371
570.868
782.125
1061.48
1337.03
1534.88
1628.64
1636.67
1589.82
1513.03
1418.31
1311.4
1199.04
1096.41
1021.93
983.542
973.832
981.891
998.398
1019.6
1042.93
1069.57
1098.74
1133.41
1172.53
1220.55
1275.11
1343.08
1419.51
1515.6
1621.65
1756.85
1901.81
2091.65
2289.34
2562.02
2838.81
3246.76
3656.47
4327.38
5063.88
6422.72
8108.94
11317.4
15488.6
23321.7
32880.8
48370.6
58971.4
68792.8
75400.2
102443
246552
282215
387561
509678
498643
462609
423207
424888
434382
453733
455343
451167
430084
406041
372898
340318
304368
270838
237283
206866
177939
152069
128059
106673
87446.3
71208.4
58063.5
48150.1
40850.5
35455.6
31243.3
27637.9
24366.9
21227.2
18329.5
15662.9
13430
11543.2
10131.9
9010.33
8273.24
7724.06
7490.99
7448.85
7773.09
8554.49
9987.85
449.004
574.543
788.13
1068.79
1343.67
1539.83
1632.52
1641.34
1597.45
1525.38
1436.24
1334.6
1226.05
1124.79
1049.22
1008.57
996.573
1002.76
1017.74
1037.63
1059.75
1085.28
1113.4
1147.18
1185.54
1233.06
1287.36
1355.45
1432.32
1529.41
1636.88
1774.33
1922.12
2116.09
2318.64
2598.38
2883.29
3303.55
3727.16
4419.82
5180.23
6580.93
8320.78
11640.3
15979.7
24173.8
34277.6
50834.2
62625.1
73457.2
79979.2
106729
252773
291788
409833
546157
537078
497129
451187
449672
457951
477518
479546
475439
453901
428823
394263
359969
322205
286816
251470
219382
188998
161908
136935
114765
94828
77837.5
63882.4
53193.5
45242.4
39352.3
34777.7
30893.6
27382.5
23997.5
20838.3
17884.9
15370.4
13210.5
11571.8
10253.5
9376.73
8712.31
8416.05
8323.35
8650.88
9432.67
10956.6
450.697
578.353
794.368
1076.42
1350.7
1545.25
1636.97
1646.77
1606.1
1539.13
1456.02
1360.1
1255.7
1156.06
1079.47
1036.45
1021.96
1026.07
1039.33
1057.75
1078.5
1102.77
1129.69
1162.45
1199.93
1246.87
1300.81
1368.98
1446.27
1544.37
1653.33
1793.13
1943.92
2142.26
2350.02
2637.28
2930.91
3364.38
3803
4519.13
5305.56
6751.76
8549.94
11990
16511.3
25095.4
35781.4
53471.2
66554.1
78556.5
85013.5
111371
259379
302326
433969
585313
578691
534659
481347
475903
482406
501845
504089
499940
477902
451763
415778
379757
340169
302909
265762
231981
200111
171765
145792
122823
102197
84506.4
69796.1
58360.9
49764.5
43377.7
38442
34288.9
30555.1
26947.7
23548.7
20323.6
17531.6
15091.3
13210.7
11676.4
10642.2
9845.4
9474.12
9319.98
9646.41
10421.9
12038.8
452.454
582.308
800.85
1084.41
1358.16
1551.19
1642.06
1653.02
1615.86
1554.39
1477.8
1388.08
1288.25
1190.49
1112.98
1067.48
1050.3
1052.12
1063.44
1080.2
1099.4
1122.23
1147.8
1179.39
1215.86
1262.09
1315.59
1383.77
1461.45
1560.58
1671.06
1813.34
1967.29
2170.26
2383.57
2678.87
2981.85
3429.47
3884.26
4625.72
5440.43
6936.03
8797.7
12368.7
17087.1
26093.3
37403.2
56297.7
70777.6
84125.9
90550.2
116404
266407
313931
460098
627202
623589
575383
513870
503711
507816
526734
528962
524640
502048
474819
437403
399644
358228
319088
280130
244643
211266
181636
154631
130842
109533
91181.4
75764.9
63612.7
54377.2
47490.6
42194.1
37781.4
33843.8
30041.1
26431
22959
19903.8
17185.9
15055.6
13290.6
12082.7
11136.9
10678.1
10450.7
10770.4
11531.5
13241.6
454.279
586.413
807.593
1092.77
1366.08
1557.69
1647.84
1660.17
1626.83
1571.28
1501.74
1418.76
1323.94
1228.4
1150.08
1102.02
1081.94
1081.21
1090.37
1105.25
1122.69
1143.9
1167.93
1198.17
1233.47
1278.86
1331.82
1399.93
1477.96
1578.11
1690.17
1835.03
1992.3
2200.19
2419.39
2723.26
3036.26
3499.04
3971.23
4739.99
5585.41
7134.61
9065.37
12778.8
17711.2
27175.3
39155.6
59331.7
75316.8
90202.1
96640.6
121868
273894
326716
488353
671861
671851
619472
548945
533237
534256
552216
554157
549513
526300
497951
459099
419595
376349
335320
294547
257346
222450
191515
163455
138822
116827
97840.2
81758.9
68917.8
59048.3
51655.3
45994.1
41328.8
37205.5
33236.2
29448.3
25762.3
22468.5
19486
17106.9
15102.7
13708.4
12598.2
12039.4
11726.2
12032.2
12769.6
14570.5
456.174
590.678
814.61
1101.52
1374.5
1564.79
1654.38
1668.3
1639.11
1589.94
1528.01
1452.37
1363.07
1270.11
1191.15
1140.47
1117.26
1113.72
1120.45
1133.2
1148.65
1168.02
1190.3
1219
1252.95
1297.35
1349.63
1417.59
1495.9
1597.08
1710.74
1858.3
2019.06
2232.14
2457.61
2770.6
3094.3
3573.29
4064.21
4862.36
5741.08
7348.42
9354.37
13222.7
18388
28350.2
41052.5
62594.2
80194.8
96823.3
103341
127806
281883
340803
518870
719308
723521
667070
586760
564634
561816
578330
579676
574537
550624
521120
480828
439575
394497
351577
308987
270068
233650
201400
172264
146768
124079
104471
87757.5
74254.1
63754.6
55844.1
49808.4
44891.9
40597.7
36489.8
32559.6
28698.4
25198.6
21975
19357.4
17113.3
15524.4
14237.4
13566.7
13155.4
13439.5
14142.9
16028.8
458.144
595.112
821.918
1110.69
1383.46
1572.56
1661.74
1677.48
1652.79
1610.48
1556.79
1489.14
1405.94
1316
1236.61
1183.25
1156.68
1150.05
1154.06
1164.4
1177.59
1194.88
1215.16
1242.1
1274.5
1317.73
1369.18
1436.88
1515.4
1617.58
1732.88
1883.23
2047.65
2266.2
2498.32
2821.02
3156.16
3652.47
4163.48
4993.24
5908.05
7578.39
9666.18
13703.2
19122.1
29627.2
43109.4
66108.7
85437.6
104028
110710
134267
290419
356326
551789
769541
778605
718295
627499
598064
590597
605125
605528
599695
574987
544288
502552
459548
412640
367827
323421
282788
244853
211286
181065
154689
131293
111069
93748.7
79607.2
68481.8
60039.5
53612.1
48438.4
43982.1
39760.2
35722.7
31727.9
28061.2
24628.8
21792.1
19316
17530.3
16058.4
15265.4
14744.3
14997.4
15655.5
17617.3
460.193
599.723
829.534
1120.32
1392.99
1581.04
1669.99
1687.82
1667.99
1633.07
1588.26
1529.33
1452.88
1366.44
1286.9
1230.85
1200.7
1190.66
1191.61
1199.24
1209.88
1224.79
1242.79
1267.73
1298.33
1340.2
1390.64
1457.95
1536.59
1639.74
1756.69
1909.93
2078.18
2302.49
2541.65
2874.65
3222
3736.78
4269.38
5133.08
6086.95
7825.51
10002.3
14223.1
19918.7
31016.8
45343.7
69901.8
91074.2
111858
118814
141304
299550
373430
587255
822543
837071
773230
671340
633697
620715
632665
631729
624978
599362
567420
524236
479479
430747
384041
337826
295488
256046
221170
189861
162593
138478
117637
99727.4
84969.6
73223.6
64233.4
57390.8
51945
47327.5
43010.1
38897.4
34811
31019.9
27417.7
24389.3
21697.7
19719.6
18059.5
17136.5
16495.3
16707.5
17308.8
19333.8
462.325
604.522
837.476
1130.42
1403.15
1590.29
1679.21
1699.39
1684.83
1657.84
1622.63
1573.22
1504.24
1421.89
1342.51
1283.8
1249.85
1236.07
1233.6
1238.17
1245.9
1258.11
1273.53
1296.17
1324.7
1364.96
1414.2
1480.97
1559.61
1663.68
1782.29
1938.51
2110.75
2341.11
2587.72
2931.63
3291.99
3826.48
4382.19
5282.31
6278.41
8090.78
10364.5
14785.5
20783.3
32530.4
47774.5
74003.5
97136.6
120352
127722
148976
309330
392273
625413
878283
898850
831916
718445
671709
652295
661024
658308
650384
623726
590485
545845
499335
448786
400193
352178
308151
267221
231051
198659
170494
145647
124183
105694
90339
77979.8
68426.5
61140.6
55399.1
50611.8
46209.6
42048.4
37909.9
34037.7
30308.9
27122.3
24239.2
22079.6
20234
19176.1
18406.9
18568.1
19101.2
21173.2
464.545
609.519
845.762
1141.04
1413.97
1600.38
1689.48
1712.31
1703.43
1684.95
1660.11
1621.08
1560.39
1482.78
1403.99
1342.7
1304.73
1286.86
1280.57
1281.68
1286.12
1295.26
1307.73
1327.73
1353.89
1392.28
1440.07
1506.12
1584.62
1689.56
1809.8
1969.09
2145.47
2382.17
2636.64
2992.12
3366.33
3921.78
4502.24
5441.37
6483.06
8375.2
10754.3
15393.5
21721.8
34180.4
50423.1
78446.9
103661
129554
137506
157347
319816
413022
666414
936723
963838
894353
768954
712277
685475
690289
685304
675919
648062
613455
567343
519084
466727
416257
366456
320762
278370
240929
207467
178402
152813
130719
111655
95717.2
82754
72625.7
64866.8
58798.9
53823.9
49338.3
45147.9
40992.2
37080.6
33269.4
29962
26917.2
24592.7
22569.8
21375.7
20473.1
20573.6
21027.7
23127.5
466.857
614.726
854.414
1152.2
1425.5
1611.37
1700.86
1726.66
1723.91
1714.57
1700.91
1673.22
1621.74
1549.62
1471.92
1408.18
1366.01
1343.67
1333.13
1330.34
1331.04
1336.69
1345.8
1362.8
1386.21
1422.43
1468.5
1533.61
1611.82
1717.52
1839.38
2001.79
2182.47
2425.8
2688.55
3056.26
3445.17
4022.91
4629.83
5610.72
6701.58
8679.82
11173.4
16050.5
22740.6
35979.9
53312.2
83268.9
110688
139506
148242
166487
331069
435859
710412
997816
1.0319e+06
960481
822984
755575
720405
720561
712767
701601
672360
636306
588698
538696
484543
432210
380644
333312
289491
250809
216292
186331
159992
137258
117618
101109
87552.5
76842.1
68582.3
62152.7
56963.3
52386.1
48177.5
44032.7
40119.5
36269
32879.6
29706.3
27238
25050.9
23722.7
22684.3
22714.8
23079
25186
469.267
620.155
863.451
1163.93
1437.8
1623.32
1713.47
1742.56
1746.42
1746.88
1745.27
1729.95
1688.7
1622.94
1546.91
1480.95
1434.42
1407.25
1391.98
1384.78
1381.26
1382.94
1388.21
1401.76
1422.03
1455.71
1499.74
1563.67
1641.38
1747.74
1871.16
2036.75
2221.86
2472.12
2743.57
3124.18
3528.7
4130.11
4765.27
5790.77
6934.58
9005.67
11623.6
16759.9
23846.2
37943.2
56466.9
88509.2
118261
150252
160009
176474
343155
460973
757561
1.06152e+06
1.10286e+06
1.0302e+06
880617
801769
757240
751954
740762
727451
696619
659021
609886
558146
502210
448031
394726
345794
300585
260698
225148
194297
167200
143815
123594
106521
92382.8
81088.5
72304.4
65476.9
60040.2
55353.9
51129
47015.7
43133
39282.7
35848.9
32581.6
29993.2
27658.4
26201.2
25027.4
24979.9
25243.7
27336.5
471.78
625.817
872.898
1176.29
1450.92
1636.32
1727.38
1760.13
1771.09
1782.05
1793.43
1791.61
1761.72
1703.29
1629.65
1561.78
1510.79
1478.41
1457.88
1445.74
1437.42
1434.59
1435.5
1445.1
1461.76
1492.49
1534.11
1596.57
1673.55
1780.41
1905.31
2074.12
2263.78
2521.26
2801.84
3196.04
3617.09
4243.6
4908.88
5981.97
7182.72
9353.76
12106.7
17525.3
25045.7
40085.4
59913.6
94210.9
126429
161837
172886
187391
356147
488566
808018
1.12779e+06
1.17656e+06
1.10337e+06
941900
851013
796144
784596
769366
753508
720844
681590
630886
577410
519707
463706
408695
358208
311658
270606
234049
202316
174455
150407
129597
111963
97252.9
85377.7
76052.7
68793.7
63073.4
58253.1
54005.3
49935.3
46108.6
42292.7
38849.1
35520.9
32836.8
30373.1
28793.9
27487.5
27355.2
27509
29565.8
474.402
631.727
882.777
1189.3
1464.92
1650.43
1742.7