/*--------------------------------*- C++ -*----------------------------------*\
| =========                 |                                                 |
| \\      /  F ield         | OpenFOAM: The Open Source CFD Toolbox           |
|  \\    /   O peration     | Version:  2412                                  |
|   \\  /    A nd           | Website:  www.openfoam.com                      |
|    \\/     M anipulation  |                                                 |
\*---------------------------------------------------------------------------*/
FoamFile
{
    version     2.0;
    format      ascii;
    arch        "LSB;label=32;scalar=64";
    class       volScalarField;
    location    "0.5";
    object      k;
}
// * * * * * * * * * * * * * * * * * * * * * * * * * * * * * * * * * * * * * //

dimensions      [0 2 -2 0 0 0 0];

internalField   nonuniform List<scalar> 
13077
(
40.2485
45.5244
53.9997
64.2601
73.1279
77.748
77.5897
73.9247
68.5909
63.1539
58.6536
55.6117
54.0561
53.7335
54.2229
55.1381
56.2079
57.3338
58.462
59.6191
60.7886
62.0282
63.3087
64.7107
66.1789
67.8318
69.5673
71.5683
73.6504
76.1005
78.5956
81.6032
84.5639
88.2833
91.8192
96.5342
100.792
106.883
112.424
40.2914
45.6122
54.121
64.3771
73.2006
77.7639
77.5623
73.8757
68.5328
63.0896
58.5852
55.5481
54.0024
53.6842
54.173
55.088
56.1593
57.2869
58.4164
59.5738
60.7431
61.9818
63.2611
64.6611
66.1272
67.7773
69.5099
71.5073
73.5855
76.0309
78.5211
81.5228
84.4767
88.1878
91.7141
96.4169
100.66
106.731
112.245
121.348
130.671
146.402
162.567
186.816
208.054
234.418
247.072
263.411
273.149
321.667
379.765
503.538
901.692
963.396
788.874
640.694
531.691
442.602
368.587
306.605
252.507
211.396
180.46
159.542
143.977
132.425
123.316
116.082
110.122
40.3354
45.7018
54.2444
64.4954
73.2733
77.7785
77.5332
73.8252
68.4743
63.0262
58.5186
55.4864
53.9507
53.6366
54.1244
55.0388
56.1113
57.2405
58.3712
59.529
60.698
61.9357
63.2136
64.6118
66.0757
67.723
69.4526
71.4464
73.5207
75.9615
78.4468
81.4425
84.3898
88.0925
91.6093
96.3
100.529
106.58
112.067
121.126
130.399
146.059
162.168
186.35
207.606
234.045
247.001
263.531
273.224
321.479
379.885
505.693
908.466
966.764
792.071
644.689
535.931
447.591
374.486
313.642
259.929
218.621
186.435
164.479
147.781
135.569
125.823
118.222
111.837
106.434
102.049
98.5466
96.0335
94.0368
92.4724
90.7275
88.6377
85.8858
82.6678
79.182
75.8304
72.9149
70.6297
69.022
67.9471
67.2953
66.8233
66.5391
66.2359
66.1217
65.927
66.0968
66.1248
66.8728
67.3545
69.3065
71.1423
76.8703
81.5957
40.3804
45.7933
54.3701
64.6155
73.3463
77.792
77.5024
73.7733
68.4155
62.9637
58.4538
55.4267
53.9009
53.5907
54.0769
54.9904
56.0639
57.1945
58.3262
59.4843
60.653
61.8897
63.1662
64.5624
66.0241
67.6687
69.3952
71.3854
73.4558
75.8919
78.3723
81.362
84.3028
87.9973
91.5045
96.1832
100.398
106.429
111.89
120.906
130.126
145.713
161.762
185.87
207.14
233.65
246.92
263.663
273.325
321.29
379.988
507.795
915.099
969.874
795.213
648.753
540.256
452.696
380.567
320.948
267.767
226.422
193.099
170.115
152.218
139.263
128.787
120.751
113.884
108.071
103.206
99.3365
96.5351
94.3754
92.721
90.956
88.8816
86.1647
82.9751
79.4963
76.1234
73.1623
70.8208
69.1574
68.0382
67.3544
66.8657
66.5733
66.2723
66.161
65.975
66.1491
66.1869
66.939
67.4301
69.4001
71.2444
77.0454
81.7946
40.4266
45.8868
54.4983
64.7375
73.4198
77.8047
77.4699
73.72
68.3564
62.9022
58.3908
55.3691
53.8531
53.5465
54.0308
54.9427
56.0169
57.1489
58.2816
59.4398
60.6081
61.8438
63.1189
64.5131
65.9725
67.6143
69.3378
71.3242
73.3907
75.8222
78.2976
81.2814
84.2156
87.9019
91.3998
96.0664
100.267
106.279
111.713
120.686
129.854
145.364
161.349
185.376
206.656
233.231
246.826
263.805
273.451
321.1
380.071
509.84
921.579
972.731
798.31
652.9
544.671
457.915
386.819
328.507
275.997
234.774
200.452
176.477
157.341
143.568
132.267
123.719
116.308
110.036
104.626
100.316
97.1593
94.7913
93.0191
91.2211
89.1575
86.4765
83.3185
79.85
76.4563
73.4469
71.0437
69.318
68.1483
67.4272
66.9181
66.6152
66.3152
66.2059
66.0288
66.2069
66.2548
67.0105
67.5108
69.4968
71.3475
77.2133
81.979
40.474
45.9826
54.6291
64.8617
73.4941
77.8167
77.4361
73.6656
68.2971
62.842
58.3301
55.3138
53.8075
53.5042
53.9861
54.896
55.9705
57.1036
58.2371
59.3955
60.5633
61.7979
63.0715
64.4636
65.9208
67.5597
69.2801
71.2629
73.3255
75.7523
78.2227
81.2006
84.1283
87.8064
91.2951
95.9498
100.137
106.129
111.538
120.467
129.582
145.011
160.929
184.868
206.152
232.786
246.717
263.955
273.602
320.91
380.133
511.822
927.901
975.343
801.375
657.146
549.186
463.248
393.234
336.303
284.594
243.647
208.481
183.576
163.189
148.536
136.32
127.178
119.157
112.376
106.354
101.525
97.9357
95.3033
93.3778
91.529
89.4696
86.8249
83.7017
80.2467
76.8334
73.7733
71.3028
69.5074
68.2803
67.5161
66.9822
66.6658
66.3653
66.2572
66.0889
66.2708
66.3291
67.0878
67.5975
69.5974
71.4526
77.3748
82.1499
40.5226
46.0805
54.7627
64.9882
73.5693
77.8282
77.4011
73.6103
68.2382
62.7835
58.272
55.2613
53.7643
53.4641
53.9429
54.8503
55.9247
57.0587
58.193
59.3514
60.5187
61.752
63.0241
64.4141
65.869
67.505
69.2224
71.2015
73.2601
75.6822
78.1477
81.1197
84.041
87.711
91.1905
95.8335
100.008
105.98
111.364
120.249
129.31
144.656
160.503
184.346
205.628
232.314
246.591
264.112
273.779
320.721
380.174
513.738
934.057
977.716
804.421
661.51
553.814
468.697
399.807
344.319
293.533
253.005
217.16
191.406
169.783
154.203
140.995
131.173
122.471
115.133
108.44
103.012
98.9004
95.935
93.8111
91.8881
89.8232
87.2139
84.1286
80.6911
77.2598
74.1469
71.6034
69.7304
68.4379
67.6237
67.0603
66.7269
66.4238
66.3159
66.1562
66.3416
66.4107
67.1719
67.6912
69.7028
71.5609
77.5306
82.3088
40.5724
46.1808
54.8993
65.1172
73.6456
77.8395
77.365
73.5543
68.1797
62.7271
58.2169
55.2118
53.7239
53.4262
53.9013
54.8056
55.8796
57.0142
58.1492
59.3075
60.4742
61.7063
62.9768
64.3646
65.8172
67.4502
69.1645
71.1399
73.1946
75.612
78.0726
81.0387
83.9537
87.6157
91.0863
95.7176
99.8792
105.832
111.191
120.033
129.039
144.298
160.07
183.81
205.085
231.815
246.446
264.275
273.984
320.533
380.194
515.584
940.044
979.859
807.462
666.012
558.57
474.265
406.528
352.538
302.785
262.808
226.451
199.94
177.124
160.59
146.326
135.74
126.286
118.341
110.926
104.824
100.095
96.7157
94.3367
92.309
90.2251
87.6486
84.6039
81.1883
77.7415
74.5741
71.9515
69.9924
68.6256
67.7537
67.1547
66.8003
66.4924
66.3833
66.2319
66.4205
66.5007
67.264
67.7931
69.8142
71.6737
77.682
82.4573
40.6236
46.2835
55.0389
65.2489
73.7232
77.8507
77.3283
73.4979
68.1222
62.6732
58.1654
55.1659
53.6865
53.3908
53.8617
54.7622
55.8352
56.9703
58.1057
59.2638
60.4298
61.6606
62.9295
64.3151
65.7652
67.3954
69.1065
71.0782
73.1289
75.5417
77.9974
80.9577
83.8665
87.5206
90.9825
95.6023
99.7514
105.686
111.021
119.818
128.769
143.938
159.632
183.26
204.522
231.288
246.281
264.442
274.218
320.35
380.194
517.359
945.854
981.784
810.515
670.676
563.47
479.957
413.392
360.943
312.321
273.012
236.306
209.137
185.193
167.694
152.332
140.903
130.626
122.026
113.851
107.011
101.567
97.6804
94.9767
92.8045
90.683
88.1348
85.1329
81.7439
78.2848
75.0619
72.3545
70.2999
68.8488
67.9101
67.2688
66.8884
66.5728
66.4608
66.3172
66.5087
66.6004
67.3652
67.9047
69.933
71.7927
77.8303
82.5974
40.6761
46.3887
55.1818
65.3834
73.8023
77.8621
77.2911
73.4416
68.0661
62.6223
58.1179
55.1238
53.6525
53.3582
53.8241
54.7201
55.7918
56.927
58.0627
59.2205
60.3857
61.6151
62.8823
64.2656
65.7133
67.3405
69.0485
71.0165
73.0633
75.4714
77.9222
80.8769
83.7795
87.426
90.8793
95.4877
99.6249
105.541
110.853
119.606
128.501
143.577
159.189
182.697
203.94
230.732
246.095
264.612
274.483
320.172
380.172
519.058
951.485
983.502
813.595
675.526
568.533
485.779
420.391
369.515
322.111
283.572
246.671
218.944
193.951
175.495
159.01
146.672
135.504
126.2
117.239
109.612
103.365
98.8696
95.758
93.3906
91.2066
88.6789
85.7211
82.3638
78.8967
75.6182
72.8205
70.6605
69.1139
68.0981
67.4064
66.9941
66.6673
66.5502
66.4137
66.6077
66.7113
67.4772
68.0274
70.0609
71.9197
77.9772
82.7315
40.7301
46.4965
55.3279
65.5209
73.8832
77.8738
77.2537
73.3856
68.0117
62.5749
58.0749
55.0862
53.6222
53.3287
53.7887
54.6795
55.7493
56.8843
58.0202
59.1776
60.3419
61.5698
62.8351
64.2162
65.6614
67.2856
68.9904
70.9547
72.9976
75.4011
77.8472
80.7962
83.6929
87.3318
90.7769
95.3742
99.4999
105.398
110.687
119.396
128.235
143.215
158.741
182.121
203.338
230.147
245.886
264.783
274.779
320.003
380.13
520.679
956.932
985.027
816.721
680.589
573.782
491.737
427.516
378.233
332.121
294.44
257.487
229.3
203.346
183.952
166.34
153.039
140.92
130.861
121.098
112.658
105.534
100.328
96.7123
94.0867
91.8072
89.2884
86.3748
83.0545
79.5845
76.2516
73.3586
71.0829
69.4285
68.3236
67.5722
67.1209
66.7786
66.6537
66.5234
66.7191
66.835
67.6015
68.1632
70.1996
72.0569
78.1246
82.8626
40.7856
46.6071
55.4776
65.6617
73.966
77.8863
77.2165
73.3303
67.9596
62.5317
58.0372
55.0536
53.596
53.3025
53.7559
54.6406
55.7079
56.8424
57.9782
59.135
60.2984
61.5247
62.7882
64.1668
65.6095
67.2307
68.9324
70.8929
72.9319
75.3309
77.7723
80.7157
83.6067
87.2382
90.6754
95.2619
99.3766
105.257
110.525
119.189
127.972
142.853
158.289
181.533
202.718
229.533
245.652
264.954
275.11
319.844
380.069
522.219
962.192
986.371
819.909
685.893
579.241
497.841
434.762
387.079
342.32
305.571
268.695
240.139
213.314
193.01
174.285
159.983
146.861
135.999
125.423
116.163
108.112
102.1
97.8763
94.9158
92.4979
89.9714
87.1
83.8221
80.3559
76.9713
73.979
71.5772
69.8014
68.594
67.7716
67.2732
66.9099
66.7739
66.6483
66.8449
66.9735
67.7401
68.314
70.3512
72.2066
78.2749
82.9938
40.8425
46.7205
55.6309
65.8059
74.051
77.8999
77.1798
73.2762
67.9102
62.4931
58.0054
55.0266
53.5745
53.28
53.7259
54.6036
55.6677
56.8013
57.9369
59.093
60.2552
61.4798
62.7414
64.1176
65.5577
67.1758
68.8743
70.8312
72.8664
75.2608
77.6976
80.6357
83.5211
87.1454
90.5751
95.1509
99.2553
105.119
110.366
118.987
127.713
142.492
157.834
180.933
202.079
228.889
245.392
265.123
275.475
319.699
379.988
523.676
967.262
987.552
823.179
691.466
584.937
504.102
442.121
396.033
352.675
316.919
280.236
251.394
223.786
202.609
182.796
167.469
153.306
141.593
130.193
120.12
111.124
104.23
99.2896
95.905
93.2944
90.737
87.9033
84.6731
81.2183
77.7866
74.6926
72.1547
70.2431
68.9177
68.0115
67.4559
67.0652
66.9138
66.7912
66.9876
67.129
67.8953
68.4823
70.518
72.3717
78.4308
83.1289
40.9011
46.8369
55.7881
65.9538
74.1385
77.9147
77.1441
73.2237
67.8642
62.4599
57.9801
55.0058
53.5582
53.2616
53.6989
54.5687
55.629
56.7613
57.8963
59.0515
60.2125
61.4353
62.6948
64.0685
65.506
67.121
68.8164
70.7696
72.801
75.191
77.6233
80.5561
83.4362
87.0535
90.476
95.0416
99.1363
104.983
110.211
118.788
127.458
142.132
157.377
180.323
201.423
228.216
245.105
265.288
275.877
319.572
379.89
525.046
972.138
988.584
826.549
697.341
590.9
510.535
449.588
405.074
363.155
328.439
292.051
263
234.695
212.68
191.814
175.453
160.223
147.615
135.38
124.51
114.577
106.75
100.993
97.0847
94.2146
91.5949
88.7908
85.613
82.1788
78.7069
75.511
72.8278
70.7653
69.3049
68.3
67.6753
67.2493
67.0773
66.9552
67.1497
67.3042
68.0696
68.6708
70.7028
72.5553
78.5952
83.2722
40.9614
46.9563
55.9493
66.1055
74.2288
77.9312
77.1096
73.1733
67.822
62.4327
57.9622
54.9921
53.5475
53.2478
53.6754
54.5362
55.5919
56.7223
57.8565
59.0107
60.1703
61.3912
62.6486
64.0196
65.4545
67.0664
68.7586
70.7081
72.7358
75.1214
77.5494
80.477
83.352
86.9627
90.3785
94.9342
99.0198
104.851
110.061
118.594
127.208
141.775
156.92
179.703
200.75
227.513
244.791
265.447
276.316
319.466
379.774
526.328
976.82
989.486
830.039
703.55
597.164
517.155
457.16
414.184
373.727
340.089
304.086
274.894
245.97
223.157
201.277
183.884
167.575
154.036
140.952
129.299
118.46
109.68
103.024
98.4879
95.2788
92.5559
89.7685
86.6466
83.2434
79.741
76.446
73.6101
71.3814
69.7675
68.6466
67.9388
67.4679
67.2689
67.144
67.3347
67.5022
68.2659
68.8823
70.9085
72.7609
78.7719
83.4286
41.0234
47.0789
56.1146
66.2614
74.3222
77.9497
77.077
73.1256
67.7844
62.4123
57.9524
54.986
53.5432
53.239
53.6557
54.5064
55.5565
56.6846
57.8177
58.9706
60.1286
61.3475
62.6026
63.971
65.4031
67.0119
68.7009
70.6468
72.6708
75.0522
77.476
80.3986
83.2689
86.8732
90.2827
94.8289
98.9062
104.722
109.915
118.405
126.964
141.421
156.462
179.074
200.061
226.783
244.448
265.597
276.795
319.385
379.644
527.52
981.306
990.277
833.668
710.124
603.764
523.985
464.833
423.346
384.361
351.829
316.29
287.017
257.548
233.974
211.122
192.709
175.322
160.823
146.873
134.449
122.744
113.025
105.412
100.148
96.5094
93.6312
90.8416
87.7774
84.4167
80.8963
77.5085
74.5154
72.1063
70.3189
69.0627
68.2555
67.728
67.494
67.3621
67.5464
67.7264
68.4876
69.1205
71.1388
72.9925
78.9648
83.6036
41.0872
47.2048
56.2843
66.4217
74.4189
77.9707
77.0465
73.0811
67.752
62.3994
57.9517
54.9887
53.5459
53.2358
53.6402
54.4796
55.5233
56.6484
57.7799
58.9313
60.0877
61.3043
62.5571
63.9227
65.352
66.9575
68.6434
70.5858
72.6062
74.9834
77.4031
80.321
83.1868
86.785
90.1887
94.7259
98.7959
104.597
109.775
118.223
126.727
141.071
156.005
178.438
199.358
226.024
244.076
265.738
277.314
319.336
379.5
528.619
985.595
990.976
837.457
717.096
610.739
531.046
472.609
432.543
395.03
363.621
328.612
299.313
269.366
245.07
221.29
201.875
183.42
167.943
153.111
139.92
127.394
116.77
108.176
102.096
97.9305
94.833
92.0144
89.0067
85.7006
82.1781
78.7082
75.5576
72.9556
70.9743
69.5614
68.6359
68.038
67.7591
67.6148
67.7892
67.981
68.7386
69.3892
71.3974
73.2545
79.1784
83.8031
41.1528
47.3342
56.4586
66.5866
74.5194
77.9945
77.0189
73.0404
67.7256
62.395
57.961
55.0008
53.5565
53.2387
53.6294
54.4561
55.4923
56.6138
57.7434
58.893
60.0474
61.2617
62.512
63.8747
65.3011
66.9034
68.5862
70.5249
72.5419
74.915
77.3309
80.2442
83.1059
86.6984
90.097
94.6256
98.6891
104.477
109.64
118.047
126.496
140.726
155.551
177.797
198.642
225.24
243.676
265.866
277.875
319.323
379.346
529.623
989.686
991.605
841.425
724.499
618.131
538.368
480.491
441.76
405.704
375.428
341.009
311.733
281.371
256.387
231.721
211.328
191.826
175.364
159.637
145.676
132.367
120.886
111.319
104.358
99.5666
96.1741
93.2904
90.3337
87.0942
83.5885
80.0525
76.7491
73.9453
71.7505
70.1579
69.0925
68.4077
68.0722
67.9085
68.0686
68.271
69.0234
69.693
71.6889
73.5519
79.418
84.034
41.2204
47.4672
56.6376
66.7564
74.6239
78.0216
76.9945
73.0041
67.7058
62.3999
57.9814
55.0236
53.5757
53.2485
53.6239
54.4364
55.464
56.5811
57.7083
58.8558
60.0081
61.2198
62.4674
63.8271
65.2506
66.8496
68.5292
70.4645
72.478
74.8471
77.2594
80.1684
83.0263
86.6135
90.0075
94.5282
98.5861
104.361
109.512
117.878
126.274
140.388
155.1
177.151
197.914
224.432
243.247
265.981
278.479
319.353
379.183
530.532
993.581
992.186
845.592
732.363
625.983
545.981
488.485
450.985
416.358
387.216
353.436
324.229
293.51
267.874
242.365
221.021
200.496
183.052
166.421
151.685
137.622
125.337
114.831
106.95
101.441
97.6682
94.6719
91.7547
88.5928
85.1254
81.5445
78.0997
75.0907
72.6649
70.8689
69.6396
68.8489
68.4424
68.2509
68.3909
68.6019
69.3473
70.037
72.0183
73.8904
79.6893
84.3035
41.2901
47.604
56.8217
66.9315
74.733
78.0524
76.9739
72.973
67.6935
62.4151
58.0138
55.0581
53.6046
53.2659
53.6242
54.4209
55.4386
56.5505
57.6749
58.8198
59.9697
61.1786
62.4235
63.78
65.2004
66.7962
68.4726
70.4043
72.4146
74.7799
77.1888
80.0937
82.9483
86.5306
89.9207
94.434
98.4874
104.25
109.391
117.717
126.061
140.058
154.655
176.503
197.178
223.602
242.792
266.08
279.127
319.433
379.017
531.345
997.278
992.741
849.978
740.716
634.34
553.921
496.601
460.21
426.968
398.953
365.856
336.759
305.736
279.485
253.173
230.906
209.391
190.974
173.438
157.918
143.121
130.081
118.686
109.878
103.575
99.3297
96.1614
93.2639
90.1876
86.7818
83.1826
79.6154
76.4046
73.7347
71.7123
70.2937
69.3752
68.8809
68.6507
68.7637
68.9802
69.7162
70.427
72.3913
74.2761
79.9986
84.6197
41.3618
47.7446
57.0109
67.1121
74.8468
78.0876
76.9578
72.9478
67.6895
62.4415
58.0595
55.1055
53.6442
53.2917
53.6311
54.4103
55.4167
56.5224
57.6432
58.7853
59.9325
61.1384
62.3803
63.7334
65.1507
66.743
68.4163
70.3446
72.3517
74.7133
77.1191
80.0202
82.8719
86.4497
89.8366
94.3432
98.3932
104.145
109.276
117.565
125.858
139.736
154.216
175.855
196.435
222.752
242.311
266.165
279.819
319.571
378.851
532.06
1000.78
993.295
854.6
749.584
643.246
562.229
504.854
469.428
437.514
410.611
378.231
349.282
318.008
291.176
264.102
240.943
218.471
199.098
180.663
164.353
148.834
135.077
122.852
113.135
105.984
101.174
97.7618
94.8535
91.866
88.5453
84.959
81.2963
77.896
74.9755
72.7065
71.0723
70.0021
69.4004
69.1186
69.1956
69.4137
70.1369
70.8695
72.8142
74.7158
80.353
84.991
41.4358
47.8893
57.2056
67.2985
74.966
78.1275
76.9469
72.9292
67.6948
62.4803
58.1198
55.1671
53.6957
53.327
53.6453
54.405
55.3986
56.4971
57.6137
58.7524
59.8966
61.0992
62.3379
63.6875
65.1016
66.6904
68.3605
70.2853
72.2893
74.6475
77.0503
79.9479
82.7973
86.3712
89.7557
94.2562
98.304
104.046
109.17
117.422
125.666
139.425
153.786
175.209
195.688
221.887
241.808
266.234
280.559
319.777
378.692
532.678
1004.09
993.873
859.478
758.988
652.746
570.947
513.263
478.636
447.976
422.162
390.527
361.762
330.286
302.909
275.113
251.093
227.7
207.395
188.071
170.969
154.734
140.291
127.293
116.706
108.676
103.216
99.4776
96.5153
93.612
90.3979
86.8591
83.1355
79.568
76.3996
73.869
71.9941
70.7466
70.0154
69.6666
69.6967
69.911
70.6174
71.3719
73.2942
75.2169
80.7602
85.4264
41.5121
48.0382
57.406
67.4912
75.0909
78.1728
76.9418
72.9181
67.7103
62.5324
58.1958
55.2443
53.7603
53.3728
53.6676
54.4058
55.3849
56.4749
57.5866
58.7214
59.8622
61.0611
62.2964
63.6423
65.053
66.6382
68.3051
70.2266
72.2276
74.5824
76.9827
79.8771
82.7245
86.295
89.6779
94.1733
98.2201
103.954
109.073
117.289
125.486
139.125
153.367
174.568
194.94
221.01
241.286
266.288
281.346
320.059
378.545
533.198
1007.21
994.503
864.629
768.943
662.883
580.122
521.852
487.836
458.339
433.581
402.713
374.165
342.534
314.649
286.171
261.322
237.045
215.835
195.639
177.746
160.8
145.691
131.973
120.564
111.653
105.471
101.316
98.2422
95.4077
92.3172
88.8614
85.1182
81.4161
78.0136
75.2145
73.0774
71.6271
70.7421
70.3086
70.2787
70.4822
71.1664
71.9423
73.8389
75.7872
81.2284
85.9353
41.5907
48.1915
57.6123
67.6904
75.222
78.2241
76.9432
72.9152
67.737
62.5992
58.289
55.3387
53.8396
53.4302
53.6992
54.4136
55.3762
56.4564
57.5622
58.6926
59.8295
61.0244
62.2559
63.5979
65.005
66.5865
68.2503
70.1683
72.1666
74.5182
76.9162
79.8077
82.6539
86.2215
89.6038
94.0947
98.142
103.869
108.985
117.167
125.319
138.838
152.96
173.934
194.195
220.126
240.75
266.331
282.183
320.43
378.418
533.623
1010.14
995.211
870.07
779.46
673.696
589.803
530.651
497.036
468.592
444.848
414.761
386.459
354.72
326.364
297.243
271.599
246.476
224.389
203.345
184.666
167.013
151.254
136.857
124.681
114.907
107.95
103.289
100.031
97.2357
94.2776
90.9387
87.2214
83.4271
79.8167
76.753
74.3387
72.6618
71.598
71.0597
70.9545
71.1384
71.7937
72.5897
74.457
76.4353
81.7663
86.527
41.6718
48.3494
57.8248
67.8964
75.3598
78.2819
76.9519
72.9216
67.776
62.6818
58.4008
55.4519
53.9351
53.5008
53.741
54.4291
55.3732
56.4421
57.541
58.6662
59.7987
60.9892
62.2167
63.5544
64.9579
66.5355
68.1961
70.1107
72.1064
74.4549
76.8509
79.74
82.5854
86.1508
89.5333
94.0208
98.0699
103.791
108.906
117.057
125.166
138.567
152.567
173.312
193.457
219.24
240.205
266.366
283.073
320.901
378.323
533.953
1012.89
996.026
875.816
790.539
685.218
600.04
539.692
506.245
478.726
455.942
426.643
398.615
366.812
338.023
308.301
281.895
255.964
233.033
211.164
191.711
173.358
156.959
141.918
129.027
118.426
110.664
105.409
101.883
99.0812
96.2528
93.0593
89.4151
85.5786
81.7991
78.4876
75.7907
73.868
72.601
71.9365
71.7386
71.892
72.5103
73.3239
75.1575
77.1699
82.3829
87.2105
41.7556
48.512
58.0437
68.1098
75.5047
78.347
76.9687
72.9381
67.8283
62.7816
58.5329
55.5857
54.0486
53.5859
53.7945
54.4534
55.3766
56.4325
57.5234
58.6426
59.7701
60.9558
62.1789
63.5121
64.9116
66.4852
68.1425
70.0538
72.0469
74.3926
76.787
79.674
82.5193
86.0831
89.4669
93.9519
98.0044
103.721
108.838
116.96
125.029
138.311
152.191
172.703
192.729
218.361
239.659
266.398
284.018
321.486
378.269
534.191
1015.45
996.98
881.883
802.178
697.477
610.885
549.015
515.482
488.737
466.849
438.335
410.606
378.782
349.6
319.317
292.185
265.483
241.741
219.076
198.865
179.82
162.79
147.132
133.574
122.191
113.616
107.695
103.806
100.935
98.2188
95.1902
91.6637
87.8398
83.9412
80.4126
77.4402
75.26
73.7684
72.9559
72.6463
72.7564
73.3279
74.1552
75.95
77.9999
83.0875
87.9946
41.842
48.6796
58.2694
68.3308
75.6574
78.4201
76.9944
72.9658
67.895
62.8998
58.6867
55.742
54.1819
53.6873
53.8609
54.4877
55.3875
56.4285
57.51
58.6222
59.7441
60.9244
62.1426
63.4709
64.8662
66.4357
68.0896
69.9975
71.9882
74.3313
76.7244
79.6098
82.4556
86.0186
89.4047
93.8883
97.9459
103.66
108.781
116.876
124.908
138.074
151.835
172.112
192.018
217.494
239.119
266.435
285.025
322.198
378.271
534.34
1017.85
998.102
888.283
814.361
710.49
622.386
558.664
524.768
498.626
477.555
449.818
422.406
390.603
361.068
330.267
302.445
275.01
250.49
227.061
206.111
186.386
168.734
152.481
138.296
126.182
116.805
110.161
105.816
102.797
100.156
97.2994
93.9292
90.1736
86.2142
82.5126
79.286
76.8472
75.1152
74.1345
73.6935
73.7458
74.2591
75.0944
76.8444
78.9342
83.8892
88.8867
41.9313
48.8524
58.502
68.5599
75.8183
78.5017
77.0299
73.0056
67.9775
63.0378
58.864
55.9227
54.3373
53.8068
53.9419
54.5333
55.4069
56.4307
57.5013
58.6055
59.721
60.8952
62.1081
63.4312
64.822
66.387
68.0375
69.942
71.9304
74.2711
76.6633
79.5474
82.3946
85.9574
89.347
93.8303
97.8946
103.608
108.736
116.806
124.805
137.857
151.5
171.543
191.329
216.649
238.598
266.488
286.097
323.053
378.345
534.407
1020.07
999.427
895.032
827.067
724.266
634.59
568.686
534.132
508.398
488.054
461.072
433.994
402.251
372.403
341.128
312.653
284.524
259.26
235.097
213.431
193.042
174.78
157.951
143.173
130.376
120.226
112.824
107.934
104.675
102.055
99.3597
96.1741
92.5392
88.5821
84.7629
81.3182
78.6325
76.653
75.4873
74.8958
74.8743
75.3165
76.1527
77.8508
79.9811
84.7965
89.8933
42.0235
49.0304
58.742
68.7974
75.9881
78.5928
77.0762
73.0587
68.0768
63.1971
59.0665
56.1301
54.517
53.9467
54.0393
54.5918
55.4359
56.4401
57.4981
58.593
59.7012
60.8687
62.0757
63.393
64.779
66.3394
67.9863
69.8873
71.8736
74.2119
76.6038
79.487
82.3362
85.8997
89.294
93.7783
97.8512
103.566
108.703
116.752
124.721
137.662
151.19
171
190.667
215.836
238.106
266.57
287.245
324.069
378.51
534.396
1022.13
1000.99
902.14
840.267
738.803
647.537
579.133
543.608
518.066
498.341
472.082
445.349
413.702
383.583
351.877
322.788
294.003
268.031
243.168
220.811
199.777
180.918
163.528
148.187
134.754
123.868
115.696
110.184
106.586
103.914
101.352
98.3648
94.8954
91.004
87.1305
83.5174
80.6105
78.3875
77.0261
76.2672
76.1559
76.5127
77.3406
78.9787
81.1484
85.8174
91.0187
42.1187
49.2141
58.9895
69.0439
76.1673
78.694
77.1342
73.1261
68.1943
63.3793
59.2962
56.3664
54.7235
54.1093
54.1553
54.6648
55.476
56.4579
57.5012
58.5855
59.6852
60.8451
62.0457
63.3567
64.7375
66.2928
67.9361
69.8335
71.8178
74.154
76.5458
79.4287
82.2807
85.8457
89.246
93.7325
97.8159
103.533
108.684
116.715
124.657
137.491
150.908
170.489
190.041
215.066
237.658
266.697
288.478
325.263
378.788
534.317
1024.03
1002.82
909.62
853.925
754.083
661.26
590.056
553.236
527.644
508.416
482.837
456.453
424.936
394.587
362.494
332.831
303.43
276.785
251.255
228.235
206.579
187.139
169.206
153.327
139.299
127.719
118.782
112.591
108.556
105.744
103.267
100.475
97.2047
93.4378
89.5771
85.8563
82.7677
80.318
78.7586
77.8197
77.6028
77.8597
78.6682
80.2371
82.4426
86.9583
92.2654
42.2172
49.4035
59.245
69.2997
76.3565
78.8062
77.2049
73.2091
68.3313
63.5857
59.5548
56.634
54.9596
54.2972
54.2922
54.7544
55.5287
56.4852
57.5116
58.5835
59.6737
60.825
62.0183
63.3224
64.6975
66.2475
67.8868
69.7806
71.763
74.0973
76.4894
79.3725
82.228
85.7955
89.203
93.6932
97.7892
103.512
108.678
116.694
124.615
137.346
150.656
170.014
189.457
214.351
237.27
266.889
289.81
326.656
379.205
534.178
1025.78
1004.96
917.485
867.997
770.08
675.784
601.511
563.061
537.158
518.286
493.328
467.292
435.934
405.395
372.961
342.765
312.787
285.505
259.344
235.691
213.438
193.435
174.977
158.583
143.996
131.766
122.086
115.179
110.617
107.567
105.107
102.489
99.4363
95.8444
92.0627
88.3018
85.0831
82.4367
80.6868
79.5613
79.2252
79.3679
80.1444
81.6338
83.8689
88.2245
93.6335
42.319
49.599
59.5086
69.5654
76.5565
78.9303
77.2893
73.3088
68.4893
63.818
59.8443
56.9354
55.2282
54.5134
54.4524
54.8628
55.596
56.5235
57.5304
58.5881
59.6672
60.8089
61.994
63.2905
64.6594
66.2036
67.8388
69.7288
71.7093
74.0418
76.4347
79.3184
82.1784
85.7492
89.1655
93.6608
97.7715
103.502
108.688
116.692
124.596
137.23
150.438
169.582
188.923
213.708
236.962
267.171
291.258
328.269
379.789
533.993
1027.38
1007.44
925.747
882.438
786.751
691.122
613.549
573.133
546.634
527.96
503.553
477.852
446.678
415.989
383.26
352.572
322.058
294.177
267.419
243.166
220.344
199.803
180.837
163.947
148.833
135.996
125.604
117.964
112.801
109.413
106.889
104.403
101.569
98.1903
94.5488
90.8181
87.5298
84.729
82.8068
81.496
81.0305
81.0456
81.7763
83.1752
85.4306
89.6192
95.1207
42.4243
49.8007
59.7808
69.8413
76.7678
79.067
77.3885
73.4265
68.6695
64.0779
60.1668
57.2733
55.5324
54.761
54.6391
54.9925
55.6798
56.5744
57.5588
58.6001
59.6665
60.7973
61.9732
63.2612
64.6233
66.1613
67.792
69.678
71.6567
73.9875
76.3817
79.2665
82.1319
85.707
89.1335
93.6356
97.7632
103.504
108.712
116.71
124.602
137.145
150.258
169.198
188.449
213.15
236.755
267.57
292.844
330.127
380.573
533.776
1028.86
1010.31
934.421
897.197
804.046
707.274
626.22
583.508
556.11
537.456
513.512
488.127
457.155
426.353
393.374
362.238
331.23
302.787
275.47
250.651
227.291
206.235
186.783
169.417
153.802
140.397
129.331
120.961
115.141
111.319
108.637
106.223
103.592
100.451
97.0023
93.3706
90.0782
87.1751
85.1093
83.6229
83.0222
82.8986
83.569
84.8656
87.1293
91.1439
96.7226
42.5331
50.0089
60.0619
70.1279
76.9911
79.2173
77.5036
73.5634
68.8734
64.367
60.5242
57.6503
55.8756
55.0436
54.8555
55.1464
55.7826
56.6399
57.5984
58.6207
59.6725
60.7909
61.9565
63.2351
64.5896
66.1207
67.7467
69.6284
71.6053
73.9346
76.3304
79.2169
82.0886
85.669
89.1072
93.6177
97.7647
103.518
108.753
116.748
124.634
137.092
150.119
168.869
188.045
212.695
236.672
268.119
294.594
332.255
381.596
533.544
1030.2
1013.61
943.523
912.226
821.901
724.229
639.569
594.242
565.625
546.796
523.21
498.11
467.353
436.473
403.288
371.749
340.289
311.324
283.487
258.138
234.273
212.731
192.813
174.989
158.899
144.959
133.259
124.176
117.664
113.325
110.388
107.972
105.509
102.613
99.3984
95.9288
92.6994
89.7527
87.5807
85.9368
85.2004
84.9299
85.5254
86.7077
88.9647
92.798
98.4332
42.6458
50.2239
60.3522
70.4259
77.2272
79.3822
77.6357
73.7208
69.1025
64.687
60.9188
58.0693
56.2613
55.365
55.1053
55.3278
55.9072
56.7223
57.651
58.6513
59.6864
60.7905
61.9444
63.2125
64.5587
66.0821
67.7029
69.5801
71.5552
73.8831
76.2808
79.1696
82.0484
85.6352
89.0868
93.6074
97.7763
103.545
108.81
116.807
124.693
137.075
150.024
168.601
187.721
212.364
236.741
268.855
296.54
334.682
382.899
533.32
1031.44
1017.37
953.071
927.477
840.246
741.96
653.636
605.397
575.228
556.01
532.658
507.801
477.262
446.335
412.989
381.091
349.223
319.778
291.46
265.621
241.288
219.288
198.927
180.665
164.118
149.673
137.379
127.611
120.392
115.47
112.183
109.681
107.336
104.676
101.723
98.47
95.368
92.4394
90.2051
88.429
87.5618
87.1396
87.646
88.702
90.935
94.5795
100.245
42.7624
50.4458
60.652
70.7355
77.4767
79.5626
77.786
73.9002
69.3583
65.0396
61.3526
58.533
56.6932
55.7294
55.3924
55.5404
56.0567
56.824
57.7184
58.6935
59.7092
60.7972
61.9378
63.194
64.5308
66.0459
67.6609
69.5331
71.5064
73.8328
76.2331
79.1245
82.0115
85.6057
89.0724
93.6051
97.7984
103.586
108.885
116.889
124.781
137.096
149.978
168.402
187.489
212.176
236.992
269.82
298.716
337.44
384.528
533.128
1032.56
1021.63
963.086
942.908
859.005
760.429
668.45
617.03
584.971
565.131
541.873
517.204
486.877
455.931
422.464
390.254
358.022
328.141
299.385
273.097
248.333
225.909
205.129
186.445
169.46
154.535
141.681
131.261
123.34
117.787
114.066
111.389
109.099
106.651
103.973
100.981
98.0652
95.2157
92.9664
91.0891
90.1009
89.5256
89.9299
90.8477
93.0373
96.4854
102.151
42.8831
50.675
60.9617
71.0575
77.7404
79.7594
77.9558
74.1028
69.6424
65.4266
61.8278
59.0444
57.1752
56.1411
55.7214
55.7883
56.2347
56.948
57.8032
58.749
59.7424
60.8118
61.9373
63.1802
64.5064
66.0122
67.6208
69.4877
71.4589
73.784
76.1871
79.0817
81.9778
85.5806
89.064
93.6107
97.8313
103.64
108.978
116.995
124.899
137.158
149.984
168.278
187.36
212.154
237.457
271.06
301.167
340.564
386.533
532.998
1033.6
1026.45
973.593
958.481
878.097
779.58
684.032
629.201
594.911
574.203
550.877
526.327
496.197
465.252
431.702
399.227
366.678
336.407
307.258
280.567
255.412
232.596
211.421
192.333
174.924
159.54
146.158
135.122
126.515
120.305
116.08
113.142
110.835
108.562
106.159
103.46
100.781
98.0679
95.8513
93.9066
92.811
92.0844
92.3745
93.1426
95.268
98.5108
104.144
43.0081
50.9118
61.2817
71.3922
78.0191
79.9737
78.1462
74.3302
69.9563
65.8496
62.3464
59.6064
57.7112
56.6049
56.0971
56.076
56.4451
57.0977
57.9079
58.8201
59.7876
60.8358
61.944
63.1719
64.4862
65.9815
67.583
69.4439
71.4129
73.7366
76.1428
79.0411
81.9473
85.5599
89.0619
93.6247
97.8753
103.709
109.089
117.125
125.05
137.262
150.047
168.239
187.348
212.321
238.17
272.625
303.939
344.094
388.968
532.964
1034.55
1031.85
984.619
974.168
897.445
799.352
700.39
641.966
605.109
583.271
559.698
535.183
505.222
474.295
440.696
408.003
375.185
344.572
315.078
288.031
262.528
239.355
217.809
198.332
180.512
164.685
150.802
139.185
129.919
123.044
118.265
114.987
112.591
110.445
108.304
105.918
103.516
100.99
98.8507
96.8731
95.6858
94.8119
94.9771
95.5846
97.6241
100.652
106.217
43.1375
51.1564
61.6122
71.7402
78.3135
80.2066
78.3586
74.5836
70.3016
66.3106
62.9106
60.2218
58.3053
57.1257
56.5247
56.4087
56.6927