/*--------------------------------*- C++ -*----------------------------------*\
| =========                 |                                                 |
| \\      /  F ield         | OpenFOAM: The Open Source CFD Toolbox           |
|  \\    /   O peration     | Version:  2412                                  |
|   \\  /    A nd           | Website:  www.openfoam.com                      |
|    \\/     M anipulation  |                                                 |
\*---------------------------------------------------------------------------*/
FoamFile
{
    version     2.0;
    format      ascii;
    arch        "LSB;label=32;scalar=64";
    class       volScalarField;
    location    "0.5";
    object      nut;
}
// * * * * * * * * * * * * * * * * * * * * * * * * * * * * * * * * * * * * * //

dimensions      [0 2 -1 0 0 0 0];

internalField   nonuniform List<scalar> 
13077
(
0.347843
0.368131
0.38741
0.396328
0.389741
0.367865
0.336128
0.301909
0.271646
0.250218
0.241794
0.249825
0.273687
0.30467
0.330659
0.346636
0.354731
0.35861
0.360607
0.361956
0.363063
0.364212
0.365335
0.366599
0.36781
0.369201
0.370457
0.37195
0.373175
0.374718
0.375806
0.377397
0.37833
0.380153
0.381044
0.38321
0.383789
0.386266
0.387356
0.34797
0.368294
0.387505
0.396306
0.389601
0.367639
0.33586
0.301617
0.271303
0.249769
0.241178
0.249012
0.272706
0.303634
0.329697
0.345793
0.353986
0.35793
0.359973
0.361354
0.362486
0.363653
0.364788
0.366055
0.367262
0.368639
0.369873
0.371331
0.372513
0.373999
0.375024
0.376532
0.37738
0.379093
0.379879
0.381903
0.38235
0.384631
0.385543
0.389711
0.391997
0.396115
0.39587
0.393205
0.382525
0.363963
0.339144
0.326766
0.335419
0.374754
0.404792
0.430736
0.47714
0.449653
0.346426
0.254672
0.197909
0.154452
0.124347
0.0990331
0.0825065
0.0702951
0.065772
0.0623845
0.0629243
0.0621128
0.0639926
0.065087
0.0695778
0.348099
0.368461
0.387604
0.396287
0.389462
0.367414
0.335594
0.301325
0.270962
0.24932
0.240555
0.248175
0.271677
0.302527
0.328654
0.34487
0.353166
0.357181
0.359274
0.360693
0.361854
0.363042
0.364192
0.365464
0.366669
0.368031
0.369243
0.370664
0.371802
0.373227
0.374185
0.375605
0.376363
0.37796
0.378634
0.380508
0.380813
0.382886
0.383611
0.387493
0.389542
0.393251
0.39264
0.389296
0.378041
0.358518
0.333011
0.319433
0.327527
0.367115
0.398492
0.426844
0.476005
0.448235
0.342666
0.250353
0.194252
0.151432
0.121645
0.096455
0.0795656
0.0668416
0.0612688
0.0571596
0.0568041
0.0555874
0.0568554
0.0575536
0.0612353
0.0659805
0.0747046
0.0854575
0.10008
0.116273
0.134292
0.150888
0.165211
0.175445
0.182586
0.187521
0.192127
0.197529
0.204416
0.212822
0.221931
0.231292
0.23979
0.247701
0.254133
0.260194
0.264613
0.269161
0.271694
0.274807
0.274659
0.273759
0.265436
0.251133
0.228268
0.34823
0.368632
0.387705
0.39627
0.389322
0.367187
0.335325
0.301033
0.270622
0.248869
0.239923
0.247313
0.270598
0.301345
0.327523
0.343858
0.352262
0.356356
0.358506
0.359966
0.361161
0.362373
0.363541
0.364821
0.366025
0.367374
0.368563
0.369946
0.371038
0.372399
0.373286
0.374614
0.375275
0.376749
0.377304
0.379019
0.379175
0.381028
0.381555
0.385134
0.386934
0.390215
0.389224
0.385182
0.373344
0.352865
0.326691
0.311913
0.319388
0.359128
0.391845
0.422698
0.474707
0.446566
0.338609
0.245804
0.19045
0.148355
0.118977
0.0940182
0.076919
0.0638575
0.0574392
0.0527322
0.0515777
0.0499832
0.0506738
0.0509988
0.0539191
0.0578111
0.065333
0.0749436
0.088425
0.103812
0.121377
0.138011
0.152723
0.163523
0.171181
0.176465
0.181232
0.186666
0.193559
0.202041
0.211365
0.221086
0.23005
0.238472
0.245398
0.25191
0.25671
0.26158
0.264353
0.267656
0.26762
0.266856
0.258704
0.24497
0.222727
0.348365
0.368806
0.38781
0.396255
0.389182
0.366958
0.335055
0.30074
0.27028
0.248416
0.239281
0.246423
0.269465
0.300082
0.326297
0.34275
0.351269
0.355447
0.357659
0.359167
0.3604
0.361642
0.362831
0.364121
0.365327
0.366663
0.367829
0.369174
0.370218
0.371511
0.372323
0.373553
0.374113
0.375455
0.375884
0.37743
0.377429
0.37905
0.379369
0.382628
0.384168
0.387
0.385617
0.380859
0.368433
0.347004
0.320192
0.304224
0.31102
0.350806
0.384849
0.418289
0.473235
0.444635
0.334253
0.241032
0.186509
0.145224
0.116344
0.0917148
0.074541
0.0612923
0.0542139
0.0490283
0.0471793
0.0452424
0.0454003
0.0453804
0.0476018
0.0506949
0.057028
0.065435
0.0776384
0.0920247
0.108909
0.125374
0.140315
0.151586
0.159714
0.165326
0.170233
0.175668
0.182515
0.191011
0.200485
0.210512
0.219905
0.228817
0.236233
0.243201
0.248391
0.253592
0.256619
0.260122
0.260213
0.25961
0.251666
0.238559
0.216982
0.348503
0.368983
0.387918
0.396241
0.389041
0.366726
0.334781
0.300444
0.269936
0.247959
0.238627
0.245502
0.268272
0.298732
0.324967
0.341537
0.350176
0.354447
0.356728
0.358289
0.359566
0.360842
0.362057
0.36336
0.36457
0.365894
0.367038
0.368343
0.369337
0.370559
0.371292
0.372419
0.372872
0.374076
0.374371
0.375739
0.375571
0.376948
0.377048
0.379971
0.381236
0.383602
0.381813
0.376323
0.363308
0.340941
0.313523
0.296384
0.302447
0.342158
0.377505
0.41361
0.471579
0.44243
0.329598
0.236046
0.182435
0.142045
0.113746
0.0895362
0.0724057
0.0590963
0.0515211
0.0459664
0.043529
0.0412904
0.0409675
0.0406336
0.0422279
0.0445954
0.049794
0.0569822
0.067816
0.0810377
0.0970284
0.113111
0.128105
0.139736
0.148273
0.154186
0.159212
0.164614
0.171366
0.179807
0.189358
0.199625
0.209398
0.218771
0.226664
0.234084
0.23967
0.245209
0.2485
0.252214
0.252449
0.252028
0.24433
0.231905
0.211038
0.348643
0.369165
0.388029
0.396229
0.388899
0.366491
0.334504
0.300146
0.269591
0.247498
0.237959
0.244548
0.267015
0.297286
0.323525
0.34021
0.348975
0.353345
0.355704
0.357325
0.358652
0.359966
0.361212
0.362532
0.363748
0.365063
0.366185
0.36745
0.368392
0.36954
0.370191
0.371208
0.371549
0.372606
0.37276
0.373938
0.373596
0.374716
0.374585
0.377157
0.378134
0.380014
0.377808
0.371571
0.357966
0.334679
0.306692
0.28841
0.29369
0.3332
0.369813
0.408653
0.469728
0.439939
0.324644
0.230857
0.178238
0.138823
0.111184
0.0874733
0.0704877
0.057222
0.0492908
0.0434641
0.0405404
0.0380431
0.037295
0.0366796
0.0377217
0.0394472
0.0435984
0.0495972
0.0590193
0.0709513
0.0858587
0.10135
0.116212
0.128076
0.136951
0.143131
0.148252
0.153589
0.160193
0.16851
0.178058
0.188487
0.19858
0.208372
0.21672
0.224583
0.230566
0.236447
0.240011
0.243945
0.24434
0.244123
0.236708
0.225012
0.204896
0.348787
0.36935
0.388143
0.396218
0.388756
0.366254
0.334223
0.299845
0.269242
0.247031
0.237276
0.243556
0.265688
0.295736
0.32196
0.338758
0.347656
0.352135
0.354578
0.356266
0.35765
0.359009
0.36029
0.361632
0.362858
0.364164
0.365266
0.366489
0.367378
0.368449
0.369014
0.369916
0.370138
0.37104
0.371046
0.372025
0.371499
0.372349
0.371977
0.374179
0.374856
0.376232
0.373598
0.366601
0.35241
0.328222
0.299711
0.280322
0.284776
0.323951
0.361779
0.403411
0.467674
0.437151
0.319393
0.225477
0.173927
0.135561
0.108657
0.0855169
0.0687628
0.0556257
0.0474571
0.0414418
0.038126
0.0354127
0.0342959
0.0334311
0.0339948
0.0351653
0.0383785
0.0432564
0.0512753
0.0618383
0.0755061
0.0902101
0.104751
0.11671
0.125841
0.132247
0.137439
0.14268
0.149087
0.157206
0.166667
0.177171
0.187512
0.197669
0.206441
0.214728
0.221104
0.227327
0.231171
0.235331
0.235901
0.235909
0.228812
0.217892
0.198565
0.348934
0.36954
0.388261
0.396208
0.388611
0.366013
0.333939
0.29954
0.268891
0.246558
0.236575
0.242524
0.264286
0.294076
0.320264
0.337171
0.346209
0.350804
0.353342
0.355105
0.356553
0.357963
0.359286
0.360653
0.361892
0.363194
0.364276
0.365458
0.366291
0.367283
0.367757
0.368539
0.368636
0.369376
0.369225
0.369994
0.369275
0.369842
0.369218
0.371033
0.371397
0.372251
0.369178
0.361411
0.346639
0.321578
0.292591
0.272142
0.275731
0.31443
0.353408
0.397879
0.465404
0.434054
0.313849
0.219922
0.169512
0.132265
0.106164
0.0836577
0.0672083
0.0542676
0.0459598
0.0398257
0.0362015
0.0333127
0.0318817
0.0307987
0.0309532
0.0316526
0.0340493
0.0379052
0.0445762
0.0537403
0.0660538
0.0797956
0.0938311
0.105739
0.115035
0.121621
0.126857
0.131976
0.138138
0.145989
0.155273
0.165758
0.176263
0.186719
0.195874
0.204559
0.211316
0.217875
0.222003
0.226395
0.227155
0.227406
0.220661
0.210554
0.192051
0.349085
0.369733
0.388381
0.396199
0.388464
0.365768
0.333651
0.299232
0.268535
0.246077
0.235855
0.241448
0.262802
0.292296
0.318424
0.335438
0.344621
0.349344
0.351985
0.353832
0.355352
0.356821
0.358191
0.359589
0.360846
0.362145
0.36321
0.36435
0.365128
0.366037
0.366416
0.367073
0.367039
0.367608
0.367292
0.367841
0.366919
0.36719
0.366302
0.367715
0.367752
0.368067
0.364546
0.356001
0.340655
0.314753
0.285343
0.26389
0.266585
0.304663
0.344711
0.392051
0.462909
0.430635
0.308019
0.21421
0.165007
0.128941
0.103705
0.0818864
0.0658031
0.0531122
0.0447455
0.0385494
0.0346892
0.0316614
0.0299672
0.0286951
0.0285028
0.0288084
0.0305113
0.0334639
0.0388822
0.0466663
0.0575583
0.070194
0.0835507
0.0952593
0.104621
0.111336
0.116591
0.121561
0.127438
0.134953
0.14397
0.154336
0.164912
0.17559
0.185073
0.194121
0.201242
0.208126
0.212539
0.217165
0.218127
0.218639
0.212275
0.203014
0.185366
0.349238
0.369931
0.388505
0.396191
0.388316
0.36552
0.333358
0.29892
0.268175
0.245587
0.235114
0.240324
0.261231
0.290387
0.316432
0.333546
0.342882
0.347741
0.350496
0.352437
0.354038
0.355573
0.356998
0.358433
0.359714
0.361013
0.362062
0.363161
0.363883
0.364706
0.364988
0.365513
0.365342
0.365731
0.365243
0.365561
0.364428
0.364389
0.363227
0.364221
0.363919
0.363677
0.3597
0.350371
0.334463
0.307755
0.277981
0.255589
0.257368
0.294677
0.335701
0.385923
0.460179
0.426885
0.301912
0.20836
0.160423
0.125595
0.101278
0.0801939
0.0645276
0.052128
0.0437669
0.0375545
0.0335192
0.0303844
0.028473
0.0270386
0.0265544
0.0265338
0.0276593
0.029836
0.0341258
0.0405937
0.0500464
0.0614699
0.0739943
0.0853577
0.0946807
0.101469
0.106716
0.111519
0.117076
0.124194
0.132858
0.143001
0.153546
0.164357
0.174105
0.183469
0.190928
0.198121
0.202814
0.207673
0.208849
0.209635
0.203681
0.195291
0.178525
0.349396
0.370132
0.388632
0.396184
0.388166
0.365267
0.33306
0.298602
0.26781
0.245087
0.234348
0.239149
0.259566
0.288342
0.314274
0.331484
0.340979
0.345986
0.348865
0.35091
0.352601
0.35421
0.355698
0.357178
0.358487
0.359791
0.360828
0.361887
0.362552
0.363287
0.363468
0.363856
0.363541
0.363743
0.363074
0.36315
0.361796
0.361435
0.359988
0.360546
0.359893
0.359079
0.354639
0.344522
0.328066
0.300593
0.270517
0.247259
0.248111
0.284505
0.326393
0.379494
0.457205
0.422793
0.29554
0.202395
0.155778
0.122232
0.0988828
0.0785717
0.063364
0.0512874
0.0429834
0.0367907
0.0326306
0.0294162
0.0273278
0.0257555
0.0250265
0.0247371
0.0253897
0.0269163
0.0302189
0.0354709
0.0435144
0.0536624
0.0652279
0.0761086
0.085288
0.0920909
0.0973038
0.101925
0.107137
0.113804
0.122036
0.131851
0.142259
0.153105
0.163042
0.172666
0.18043
0.187908
0.192874
0.19796
0.19936
0.20043
0.19491
0.187405
0.171546
0.349557
0.370338
0.388761
0.396177
0.388013
0.36501
0.332757
0.29828
0.267438
0.244576
0.233557
0.237919
0.257803
0.286151
0.311941
0.329238
0.338899
0.344064
0.34708
0.349239
0.351031
0.352725
0.354284
0.355815
0.35716
0.358473
0.359501
0.360521
0.361129
0.361774
0.361851
0.362096
0.361633
0.361639
0.36078
0.360604
0.35902
0.358324
0.356581
0.356688
0.355672
0.354272
0.349362
0.338456
0.32147
0.293277
0.262966
0.238922
0.238846
0.274179
0.316806
0.372762
0.453975
0.418349
0.288917
0.196339
0.151086
0.118859
0.0965168
0.0770114
0.0622962
0.0505663
0.0423604
0.0362154
0.0319716
0.0287002
0.0264695
0.0247808
0.0238472
0.0233364
0.0236057
0.0245989
0.0270604
0.031223
0.0379299
0.0467835
0.0572959
0.0675708
0.0765038
0.08326
0.0884134
0.0928428
0.0976935
0.103872
0.111598
0.120987
0.131149
0.141924
0.151965
0.161782
0.169808
0.17754
0.182767
0.188071
0.189701
0.191061
0.185995
0.179384
0.164449
0.349721
0.370548
0.388893
0.396171
0.387857
0.364748
0.332448
0.297952
0.267059
0.244052
0.232738
0.236629
0.255935
0.283806
0.309421
0.326796
0.336628
0.341963
0.345128
0.347413
0.349317
0.351105
0.352746
0.354337
0.355724
0.357053
0.358075
0.359059
0.35961
0.360163
0.360133
0.360231
0.359613
0.359415
0.358359
0.357919
0.356096
0.355053
0.353004
0.352645
0.351254
0.349255
0.34387
0.332179
0.31468
0.285818
0.255341
0.230601
0.229605
0.263736
0.306963
0.365729
0.450482
0.413545
0.28206
0.190219
0.146366
0.115483
0.094179
0.075505
0.0613096
0.0499441
0.0418682
0.0357927
0.0314982
0.0281885
0.0258448
0.0240586
0.0229542
0.0222608
0.0222212
0.0227837
0.0245452
0.0277586
0.0332357
0.0408183
0.0502199
0.0597856
0.0683753
0.0750237
0.0800929
0.0843265
0.0888107
0.0944727
0.101634
0.110508
0.120314
0.130909
0.14096
0.150895
0.159132
0.16708
0.172549
0.178058
0.179921
0.181573
0.176977
0.171256
0.15726
0.349889
0.370761
0.389028
0.396165
0.387698
0.36448
0.332133
0.297618
0.266673
0.243514
0.231889
0.235278
0.253956
0.281298
0.306703
0.324144
0.334153
0.33967
0.342996
0.34542
0.347447
0.349342
0.351074
0.352734
0.354171
0.355522
0.356544
0.357493
0.357989
0.358449
0.358309
0.358255
0.357478
0.357067
0.355807
0.355093
0.353022
0.35162
0.349255
0.348415
0.34664
0.344029
0.338166
0.325695
0.307706
0.278228
0.247658
0.222316
0.220419
0.253215
0.296889
0.358396
0.446716
0.408373
0.274989
0.184062
0.141636
0.112112
0.0918682
0.0740452
0.060391
0.0494025
0.0414821
0.0354929
0.0311742
0.0278414
0.0254091
0.0235418
0.0222951
0.0214503
0.0211621
0.0213804
0.0225705
0.0249779
0.0293547
0.0357276
0.043998
0.0527749
0.0609343
0.0674153
0.0723764
0.076415
0.0805376
0.0856712
0.0922256
0.100504
0.109854
0.120156
0.130118
0.140085
0.148475
0.156594
0.162282
0.167975
0.170073
0.172013
0.167898
0.163055
0.150005
0.350061
0.370979
0.389165
0.396158
0.387535
0.364207
0.331812
0.297277
0.266277
0.24296
0.231006
0.23386
0.251862
0.278621
0.303775
0.321269
0.331459
0.337169
0.34067
0.343246
0.34541
0.347422
0.349258
0.350997
0.352494
0.353874
0.354901
0.355819
0.356262
0.356628
0.356376
0.356165
0.355223
0.354593
0.35312
0.352123
0.349795
0.348023
0.345332
0.343998
0.341829
0.338596
0.332252
0.319009
0.300556
0.270521
0.239931
0.214088
0.21132
0.242657
0.286613
0.350767
0.442669
0.402827
0.267726
0.177896
0.136915
0.108753
0.0895835
0.0726252
0.0595287
0.0489262
0.041181
0.0352911
0.0309695
0.0276261
0.0251253
0.0231911
0.021826
0.0208551
0.0203662
0.020311
0.0210414
0.0227794
0.0261975
0.0314518
0.0386063
0.0465415
0.0541963
0.0604538
0.0652843
0.0691326
0.0729081
0.0775165
0.0834377
0.0910578
0.0998594
0.109761
0.119531
0.12944
0.137915
0.146153
0.152029
0.157884
0.160213
0.162433
0.158805
0.154817
0.142718
0.350237
0.371201
0.389304
0.39615
0.387369
0.363927
0.331483
0.296928
0.265872
0.242389
0.230089
0.232374
0.249648
0.275765
0.300627
0.318157
0.328532
0.334446
0.338137
0.340878
0.343192
0.345335
0.347287
0.349116
0.350683
0.3521
0.353139
0.354031
0.354422
0.354694
0.354329
0.353958
0.352845
0.351988
0.350296
0.349005
0.346413
0.34426
0.341235
0.339396
0.336822
0.332959
0.326135
0.312131
0.293241
0.262709
0.232175
0.205936
0.202337
0.232104
0.276167
0.342851
0.438335
0.396902
0.260296
0.171751
0.132224
0.105416
0.0873243
0.0712386
0.0587123
0.0485018
0.0409475
0.035167
0.0308597
0.0275156
0.0249631
0.0229742
0.0215107
0.0204344
0.0197826
0.0195102
0.0198746
0.0210668
0.0236685
0.0279161
0.0340015
0.0410695
0.0481613
0.0541442
0.0588227
0.0624884
0.0659395
0.0700405
0.0753215
0.0822401
0.0904149
0.0998152
0.109289
0.119046
0.127533
0.135832
0.141861
0.147849
0.1504
0.152888
0.149747
0.146583
0.135433
0.350416
0.371427
0.389444
0.396141
0.387197
0.36364
0.331146
0.29657
0.265455
0.241799
0.229135
0.230815
0.247308
0.272726
0.297249
0.314796
0.325357
0.331487
0.335381
0.338302
0.340781
0.343068
0.345149
0.347081
0.348729
0.350192
0.351251
0.352121
0.352464
0.352642
0.352164
0.351628
0.350341
0.34925
0.347332
0.345739
0.342874
0.340331
0.336964
0.334609
0.331624
0.327122
0.31982
0.30507
0.285772
0.254808
0.224407
0.197878
0.193498
0.221599
0.265585
0.334654
0.433705
0.390598
0.252724
0.165656
0.127582
0.102108
0.0850902
0.06988
0.0579325
0.0481178
0.0407666
0.0351037
0.0308245
0.0274882
0.0248977
0.0228646
0.0213195
0.0201548
0.0193701
0.0189247
0.0189992
0.0197525
0.0216733
0.0250366
0.030125
0.0363268
0.0428141
0.0484778
0.0529845
0.0564772
0.0596331
0.0632572
0.0679096
0.0741039
0.0815919
0.0904016
0.0994816
0.10899
0.117411
0.125706
0.131847
0.137936
0.140696
0.143434
0.140777
0.138395
0.128187
0.3506
0.371656
0.389586
0.39613
0.38702
0.363346
0.3308
0.296202
0.265026
0.241189
0.228142
0.229181
0.244841
0.269496
0.293632
0.311173
0.321919
0.328276
0.332387
0.335503
0.338162
0.340608
0.342833
0.344881
0.346622
0.348141
0.349228
0.350083
0.350383
0.350469
0.349876
0.349173
0.347708
0.346377
0.344226
0.342322
0.339179
0.336237
0.33252
0.32964
0.326237
0.321093
0.313314
0.297836
0.278164
0.246834
0.216642
0.189932
0.184829
0.211184
0.254903
0.326188
0.428774
0.383913
0.245041
0.159639
0.123011
0.098841
0.0828817
0.0685443
0.057181
0.0477643
0.0406262
0.0350872
0.0308476
0.027526
0.0249091
0.0228406
0.0212283
0.0199893
0.0190955
0.0185115
0.0183568
0.0187607
0.0201227
0.0227263
0.0269076
0.0322677
0.0381266
0.0434344
0.0477508
0.0510808
0.0539746
0.0571633
0.0612158
0.0666848
0.0734465
0.0815926
0.0901878
0.099353
0.107628
0.115852
0.122059
0.128211
0.131165
0.134129
0.131948
0.130297
0.121019
0.350787
0.371889
0.389729
0.396117
0.386837
0.363043
0.330444
0.295824
0.264583
0.240556
0.227106
0.22747
0.242241
0.266072
0.289767
0.307276
0.318206
0.324798
0.329141
0.332467
0.335321
0.337941
0.340325
0.342504
0.344352
0.345939
0.347064
0.34791
0.348172
0.348168
0.347462
0.346589
0.344944
0.343366
0.340977
0.338755
0.335326
0.331977
0.327906
0.324493
0.320666
0.314879
0.306628
0.290442
0.270429
0.238803
0.208894
0.182114
0.176355
0.200901
0.244161
0.317465
0.423537
0.37685
0.237275
0.153727
0.118529
0.0956233
0.0806996
0.0672274
0.0564508
0.0474329
0.0405157
0.0351061
0.0309155
0.0276147
0.0249808
0.0228848
0.0212174
0.0199161
0.0189322
0.0182364
0.0179002
0.0180274
0.0189369
0.0209001
0.0242741
0.0288367
0.0340604
0.0389839
0.0430932
0.0462699
0.0489367
0.0517389
0.0552352
0.0599988
0.0660172
0.073446
0.0814782
0.0902124
0.0982612
0.106343
0.112568
0.11874
0.121868
0.125031
0.123311
0.122336
0.113971
0.350978
0.372125
0.389873
0.3961
0.386647
0.36273
0.330078
0.295433
0.264124
0.239898
0.226028
0.22568
0.239509
0.26245
0.285648
0.303095
0.314203
0.321039
0.325627
0.329179
0.332244
0.335055
0.337614
0.339938
0.341909
0.343576
0.34475
0.345596
0.345825
0.345735
0.344917
0.343874
0.342045
0.340217
0.337585
0.335037
0.331318
0.327556
0.323126
0.319175
0.31492
0.308488
0.299772
0.282902
0.262584
0.230732
0.201182
0.174439
0.168098
0.190792
0.233399
0.308502
0.417991
0.369414
0.229457
0.147947
0.114157
0.0924657
0.0785453
0.0659256
0.0557355
0.0471162
0.0404264
0.0351507
0.0310173
0.0277424
0.0250999
0.022983
0.0212708
0.0199175
0.018859
0.0180722
0.0175917
0.0175005
0.0180469
0.0194785
0.0221484
0.025972
0.0305691
0.0350889
0.038976
0.0420073
0.0444813
0.0469503
0.0499456
0.0540427
0.0593233
0.0660028
0.0734097
0.0816345
0.0893796
0.0972498
0.103439
0.109589
0.112865
0.116196
0.11492
0.114558
0.107083
0.351174
0.372364
0.390016
0.39608
0.38645
0.362407
0.3297
0.29503
0.263649
0.239215
0.224903
0.223809
0.236642
0.258628
0.281271
0.298621
0.309897
0.316984
0.32183
0.325623
0.328916
0.331935
0.334686
0.337172
0.33928
0.341042
0.342278
0.343133
0.343338
0.343165
0.342238
0.341023
0.339009
0.336927
0.334048
0.331169
0.327155
0.322975
0.318183
0.31369
0.309005
0.301931
0.292758
0.275231
0.254647
0.22264
0.193519
0.166921
0.160076
0.180897
0.222659
0.299316
0.412132
0.361615
0.221621
0.14232
0.109913
0.0893787
0.0764211
0.0646362
0.0550298
0.0468081
0.0403508
0.035213
0.0311438
0.0278996
0.0252554
0.0231237
0.0213757
0.0199791
0.0188587
0.0179977
0.0174019
0.0171381
0.0173949
0.0183907
0.0204567
0.0236096
0.0276019
0.0317067
0.0353585
0.0382499
0.0405628
0.0427527
0.0453098
0.0487949
0.0533644
0.0592859
0.0660239
0.073674
0.0810441
0.0886347
0.0947338
0.100816
0.104212
0.107679
0.106822
0.107007
0.100397
0.351373
0.372606
0.390158
0.396054
0.386243
0.362073
0.32931
0.294612
0.263155
0.238503
0.223732
0.221856
0.233641
0.254607
0.276631
0.293845
0.305279
0.31262
0.317737
0.321786
0.325323
0.328566
0.331528
0.334193
0.336456
0.338327
0.339639
0.340514
0.340703
0.340453
0.33942
0.338036
0.335836
0.333497
0.330367
0.327153
0.32284
0.318239
0.313083
0.308047
0.302932
0.295221
0.2856
0.267447
0.246634
0.214546
0.185921
0.159572
0.152306
0.171252
0.211985
0.289927
0.405961
0.353463
0.213796
0.136868
0.105812
0.0863729
0.0743297
0.0633572
0.0543292
0.0465032
0.0402828
0.0352865
0.0312877
0.0280785
0.0254388
0.0232975
0.0215214
0.0200892
0.0189178
0.0179958
0.0173074
0.0169068
0.0169334
0.0175754
0.0191311
0.0216858
0.0251054
0.0287925
0.0321977
0.0349521
0.0371314
0.0390941
0.041279
0.0442179
0.0481217
0.0532987
0.0593451
0.0663715
0.0733043
0.0805522
0.086508
0.0924763
0.095961
0.0995267
0.0990647
0.0997273
0.0939493
0.351576
0.372851
0.390299
0.396023
0.386026
0.361727
0.328905
0.294179
0.262641
0.237761
0.222512
0.219822
0.230508
0.250387
0.27173
0.288764
0.300338
0.307936
0.313334
0.317652
0.32145
0.324935
0.328125
0.330989
0.333424
0.335421
0.336824
0.337731
0.337914
0.337595
0.336461
0.334908
0.332524
0.329926
0.326543
0.32299
0.318376
0.313353
0.307832
0.302255
0.296711
0.288372
0.278315
0.259569
0.238567
0.206469
0.178406
0.152404
0.144801
0.161892
0.201419
0.280359
0.399477
0.344974
0.206015
0.131609
0.101871
0.0834585
0.0722748
0.0620873
0.05363
0.0461971
0.040217
0.0353656
0.0314427
0.0282725
0.0256429
0.0234968
0.0216995
0.0202385
0.0190252
0.018053
0.0172899
0.0167806
0.0166243
0.0169809
0.0181104
0.0201401
0.0230271
0.0263007
0.0294502
0.0320676
0.0341353
0.0359182
0.0377966
0.0402619
0.0435598
0.0480266
0.0533798
0.0597517
0.066197
0.0730464
0.0788075
0.0846165
0.0881567
0.0917845
0.0916871
0.0927581
0.0877769
0.351783
0.373098
0.390437
0.395984
0.385799
0.361366
0.328485
0.293727
0.262104
0.236988
0.221242
0.217707
0.227245
0.245975
0.266568
0.283374
0.295067
0.30292
0.308607
0.313209
0.317284
0.321028
0.324465
0.327545
0.330172
0.332314
0.333824
0.334778
0.334967
0.334585
0.333357
0.331639
0.329072
0.326214
0.322578
0.318684
0.313769
0.308323
0.30244
0.296325
0.290355
0.281398
0.270919
0.251615
0.230466
0.19843
0.170987
0.145427
0.137574
0.152848
0.191005
0.270636
0.392682
0.336167
0.198309
0.126555
0.0981005
0.0806458
0.0702604
0.0608261
0.052929
0.0458859
0.0401491
0.0354455
0.0316037
0.0284764
0.0258618
0.0237154
0.0219028
0.0204191
0.0191718
0.0181586
0.0173352
0.0167392
0.0164375
0.0165647
0.0173415
0.0189168
0.021316
0.024187
0.0270741
0.0295518
0.0315242
0.0331682
0.0348018
0.0368682
0.0396301
0.0434382
0.0481168
0.053823
0.0597444
0.0661494
0.0716682
0.0772753
0.0808362
0.084489
0.0847237
0.0861348
0.0819106
0.351994
0.373346
0.390572
0.395937
0.385558
0.36099
0.328048
0.293257
0.261544
0.236181
0.219922
0.215512
0.223858
0.241376
0.261151
0.277675
0.289461
0.297563
0.303547
0.308444
0.31281
0.31683
0.320535
0.323851
0.32669
0.328995
0.33063
0.331645
0.331854
0.331421
0.330105
0.328226
0.32548
0.322363
0.318474
0.314238
0.309022
0.303157
0.296914
0.290267
0.283877
0.274317
0.263431
0.243607
0.222351
0.190449
0.163682
0.13865
0.130633
0.144148
0.180783
0.260786
0.385581
0.327066
0.190706
0.121719
0.0945113
0.0779438
0.0682913
0.0595738
0.052224
0.0455665
0.0400752
0.0355225
0.0317664
0.0286858
0.0260908
0.0239481
0.0221257
0.0206248
0.0193504
0.018304
0.0174319
0.0167666
0.0163491
0.0162924
0.0167795
0.017966
0.0199248
0.0224094
0.0250298
0.0273629
0.0292506
0.0307892
0.0322336
0.0339737
0.0362745
0.0394882
0.0435289
0.0485774
0.0539543
0.0598804
0.0651152
0.0704814
0.074028
0.0776696
0.0782017
0.0798873
0.0763764
0.352209
0.373595
0.390703
0.395881
0.385304
0.360598
0.327593
0.292766
0.260957
0.235338
0.21855
0.213241
0.220352
0.2366
0.255487
0.271673
0.283519
0.291861
0.298143
0.303345
0.308017
0.31233
0.31632
0.319893
0.322965
0.325454
0.327233
0.328327
0.328569
0.328096
0.326703
0.32467
0.321748
0.318374
0.314234
0.309658
0.304143
0.297862
0.291265
0.284096
0.277292
0.267146
0.255871
0.235568
0.214247
0.182548
0.156506
0.132082
0.123984
0.135814
0.170796
0.250839
0.378179
0.317696
0.183234
0.117106
0.0911105
0.0753613
0.0663729
0.0583315
0.0515134
0.0452366
0.0399923
0.0355931
0.0319272
0.0288969
0.0263259
0.0241908
0.0223636
0.0208504
0.0195551
0.0184822
0.017571
0.0168503
0.0163405
0.0161364
0.0163868
0.0172439
0.0188103
0.0209291
0.0232813
0.0254634
0.0272713
0.0287302
0.0300331
0.0315143
0.0334297
0.0361214
0.0395752
0.0439917
0.0488193
0.0542452
0.0591618
0.0642534
0.0677515
0.0713474
0.0721405
0.074039
0.0711942
0.352427
0.373845
0.390828
0.395814
0.385034
0.360187
0.327117
0.292251
0.260342
0.234458
0.217127
0.210895
0.216736
0.231658
0.24959
0.265374
0.277243
0.285809
0.29239
0.297904
0.302894
0.307516
0.311809
0.315659
0.318986
0.32168
0.323624
0.324815
0.325108
0.324607
0.323147
0.320967
0.317876
0.314251
0.309862
0.304949
0.299139
0.292448
0.285503
0.277824
0.270617
0.259904
0.248258
0.227521
0.206175
0.174747
0.149474
0.125731
0.117631
0.127866
0.16108
0.240826
0.370484
0.30809
0.175919
0.112721
0.0879026
0.0729054
0.0645107
0.0571011
0.0507963
0.044894
0.0398978
0.0356546
0.032083
0.0291066
0.0265638
0.02444
0.0226125
0.0210917
0.0197812
0.0186877
0.0177456
0.0169807
0.0163973
0.016075
0.0161325
0.0167128
0.0179335
0.0197107
0.0217962
0.02382
0.0255483
0.0269457
0.0281462
0.0294285
0.0310307
0.0332761
0.0362044
0.0400296
0.0443188
0.0492362
0.0538093
0.0585988
0.0620161
0.0655346
0.0665514
0.0686063
0.0663773
0.352648
0.374094
0.390947
0.395734
0.384747
0.359756
0.326619
0.291712
0.259697
0.23354
0.215654
0.20848
0.21302
0.226566
0.243474
0.258791
0.270639
0.279408
0.286283
0.292113
0.297432
0.302375
0.306991
0.311137
0.314741
0.317662
0.319794
0.321102
0.321463
0.32095
0.319436
0.317119
0.313867
0.309995
0.305363
0.300117
0.294016
0.286925
0.279642
0.271467
0.263868
0.252612
0.240617
0.21949
0.198159
0.167069
0.142602
0.119604
0.111576
0.120319
0.151674
0.23078
0.362506
0.29828
0.168784
0.108565
0.0848893
0.0705821
0.0627106
0.055885
0.0500724
0.0445375
0.0397896
0.0357048
0.0322314
0.0293124
0.0268017
0.0246929
0.0228692
0.0213452
0.0200245
0.018916
0.0179499
0.0171502
0.016508
0.016091
0.0159915
0.0163407
0.0172601
0.0187223
0.0205457
0.022404
0.0240491
0.0253962
0.0265246
0.0276593
0.0290145
0.0308884
0.0333584
0.0366445
0.0404198
0.0448341
0.0490478
0.0535151
0.0568222
0.0602348
0.061438
0.0635985
0.0619326
0.352873
0.374343
0.391058
0.39564
0.384441
0.359303
0.326097
0.291146
0.25902
0.232582
0.214131
0.206001
0.209214
0.22134
0.237159
0.251941
0.263717
0.272663
0.279822
0.285969
0.291623
0.296901
0.301854
0.306317
0.31022
0.313391
0.315734
0.31718
0.31763
0.317122
0.315568
0.313125
0.309721
0.30561
0.300741
0.295169
0.288786
0.281304
0.273694
0.265041
0.257064
0.245291
0.232968
0.2115
0.190225
0.159535
0.135906
0.113707
0.105821
0.113183
0.142609
0.220736
0.354257
0.288306
0.16185
0.104634
0.0820696
0.0683959
0.0609784
0.0546866
0.0493423
0.0441661
0.039666
0.0357416
0.0323701
0.0295121
0.0270373
0.0249469
0.0231313
0.0216081
0.0202821
0.0191635
0.0181796
0.0173527
0.0166639
0.0161709
0.0159439
0.0161008
0.0167601
0.0179353
0.0195044
0.0211908
0.0227464
0.0240482
0.0251268
0.0261561
0.0273227
0.0288958
0.0309762
0.0337829
0.0370802
0.0410088
0.0448571
0.0489896
0.0521611
0.0554432
0.0567958
0.0590175
0.0578601
0.353101
0.374589
0.391159
0.395529
0.384113
0.358825
0.325549
0.29055
0.258309
0.231583
0.212559
0.203464
0.205334
0.216002
0.230669
0.244844
0.256492
0.265583
0.27301
0.279469
0.285462
0.291084
0.296391
0.301188
0.305413
0.308857
0.311435
0.313043
0.313604
0.313118
0.311541
0.308986
0.305441
0.3011
0.296003
0.290114
0.283456
0.275598
0.267673
0.258561
0.250223
0.237962
0.225336
0.203575
0.182395
0.152167
0.1294
0.108048
0.100364
0.106465
0.133915
0.21073
0.345752
0.278207
0.155134
0.100925
0.0794402
0.0663494
0.0593199
0.0535097
0.0486068
0.0437796
0.0395259
0.0357635
0.0324975
0.0297039
0.0272686
0.0252002
0.0233964
0.0218781
0.0205512
0.0194272
0.0184311
0.0175837
0.0168581
0.0163041
0.0159734
0.015971
0.0164074
0.0173242
0.0186498
0.0201598
0.0216176
0.0228742
0.023918
0.0248751
0.025903
0.0272393
0.0289971
0.0313879
0.0342512
0.0377218
0.0412081
0.0450011
0.0480159
0.0511476
0.0526138
0.0548584
0.054154
0.353332
0.374833
0.391248
0.3954
0.383762
0.358321
0.324971
0.289922
0.257561
0.230542
0.210941
0.200878
0.201393
0.210575
0.224032
0.237528
0.248987
0.25818
0.265855
0.272618
0.27895
0.284922
0.290594
0.295743
0.30031
0.304052
0.30689
0.308684
0.309379
0.308937
0.307354
0.304702
0.30103
0.296471
0.291155
0.28496
0.278038
0.269818
0.261593
0.252046
0.243365
0.230647
0.217743
0.195741
0.174694
0.144986
0.123101
0.102633
0.0952035
0.100167
0.125619
0.200799
0.337007
0.268028
0.148651
0.0974307
0.0769957
0.0644437
0.0577405
0.0523584
0.0478677
0.0433779
0.0393684
0.0357694
0.032612
0.0298861
0.0274941
0.0254511
0.0236629
0.0221534
0.0208299
0.0197049
0.0187016
0.0178396
0.0170853
0.0164823
0.0160673
0.0159331
0.0161796
0.0168665
0.017962
0.0192931
0.0206444
0.0218523
0.0228697
0.0237798
0.0247101
0.025866
0.0273639
0.029402
0.0318807
0.0349287
0.0380649
0.0415211
0.0443633
0.0473288
0.0488748
0.05111
0.0508031
0.353565
0.375072
0.391325
0.395251
0.383384
0.357788
0.324363
0.289261
0.256774
0.229458
0.209279
0.198249
0.197409
0.205084
0.217279
0.230024
0.241226
0.250475
0.258369
0.265421
0.272087
0.278412
0.284458
0.289974
0.294905
0.298967
0.302092
0.304097
0.30495
0.304575
0.303007
0.300275
0.29649
0.291727
0.286204
0.279717
0.272543
0.263979
0.25547
0.245514
0.236508
0.223369
0.210214
0.188023
0.167146
0.138013
0.117022
0.097467
0.0903373
0.0942871
0.117742
0.190981
0.328041
0.257814
0.142415
0.0941427
0.0747287
0.062678
0.0562448
0.0512375
0.0471273
0.0429618
0.0391931
0.0357583
0.0327123
0.0300575
0.0277123
0.0256981
0.0239293
0.0224323
0.0211166
0.0199949
0.018989
0.0181175
0.0173413
0.0166992
0.0162154
0.0159723
0.0160578
0.0165418
0.0174231
0.0185757
0.0198123
0.0209649
0.0219593