/*--------------------------------*- C++ -*----------------------------------*\
| =========                 |                                                 |
| \\      /  F ield         | OpenFOAM: The Open Source CFD Toolbox           |
|  \\    /   O peration     | Version:  2412                                  |
|   \\  /    A nd           | Website:  www.openfoam.com                      |
|    \\/     M anipulation  |                                                 |
\*---------------------------------------------------------------------------*/
FoamFile
{
    version     2.0;
    format      ascii;
    arch        "LSB;label=32;scalar=64";
    class       volScalarField;
    location    "0.5";
    object      p;
}
// * * * * * * * * * * * * * * * * * * * * * * * * * * * * * * * * * * * * * //

dimensions      [0 2 -2 0 0 0 0];

internalField   nonuniform List<scalar> 
13077
(
109089
108925
108810
108542
108359
108066
107865
107613
107441
107238
107086
106890
106722
106489
106285
106002
105766
105425
105159
104744
104449
103937
103613
102971
102625
101807
101449
100390
100043
98648.8
98356.3
96486.3
96321.9
93768.8
93857.1
90305.9
90853.8
85819.1
87173.3
109107
108941
108824
108554
108369
108073
107870
107617
107444
107240
107088
106893
106726
106494
106289
106006
105770
105429
105164
104749
104454
103943
103619
102978
102631
101815
101455
100399
100050
98658.5
98363.8
96497.5
96329.9
93782
93865.5
90321.4
90862.5
85837.4
87182
79917.6
82648.2
71965.9
77169.1
61318
71080.5
47291.9
64892.5
27912.7
56882.6
-3682.55
41350.3
-59016.3
14363.9
-159946
-8905.4
-75002.1
8470.39
-34032.8
16652.2
-10051.9
22854.6
8300.95
30478.7
23141.9
37781
34659.7
44533.4
43870.6
50648.7
109126
108957
108839
108565
108379
108080
107875
107621
107447
107242
107090
106897
106730
106498
106293
106011
105775
105434
105168
104754
104459
103948
103624
102984
102637
101822
101462
100407
100057
98668.2
98371.3
96508.8
96337.9
93795.3
93874
90337.1
90871.3
85855.9
87190.9
79939.2
82656.2
71989.9
77175.3
61344.9
71089.7
47329
64919.7
27972.4
56939.6
-3608.2
41416.6
-59011
14343.8
-160493
-9058.85
-75017.4
8449.62
-34024.1
16639
-10042.6
22849.1
8312.56
30472.8
23149.1
37774.1
34664.3
44527
43873
50642
51082.3
55634.4
56426.8
59532.8
60449.9
62646.3
63553
65138
65977.5
67172.4
67983.7
68971.5
69813.3
70687.6
71565.7
72318.1
73192.1
73770
74623.2
74988.8
75859.5
75980.3
76951.4
76764.1
77973.5
77347.3
79045.8
77731.7
80419.7
77948.1
109144
108973
108854
108577
108389
108087
107881
107625
107450
107245
107093
106899
106733
106502
106297
106015
105779
105439
105173
104759
104464
103954
103630
102991
102642
101829
101468
100416
100064
98678
98378.8
96520.2
96345.9
93808.6
93882.5
90352.8
90880.2
85874.6
87199.9
79961
82664.5
72014.4
77182
61372.6
71099.7
47366.9
64947.5
28032.4
56996.9
-3532.84
41484.5
-59003.8
14325
-161044
-9213.97
-75033.5
8427.58
-34015.9
16626
-10032.5
22844.8
8325.57
30468.6
23157.8
37768.8
34670.4
44522
43876.7
50636.5
51082.2
55626.7
56422.7
59523.2
60443.3
62636.6
63546
65129.5
65971.1
67165.2
67977.6
68965.2
69807.5
70682.3
71560.7
72314.2
73188.1
73767.6
74619.7
74987.3
75855.8
75979.4
76946.6
76763.4
77966.9
77346.7
79036.9
77731.4
80410.6
77948.4
109163
108989
108869
108588
108399
108095
107886
107629
107453
107247
107095
106902
106737
106506
106302
106020
105783
105443
105177
104765
104469
103960
103635
102997
102648
101837
101474
100424
100071
98687.8
98386.3
96531.6
96354
93822
93891.1
90368.7
90889.2
85893.4
87209.1
79983.2
82673
72039.4
77189.4
61401
71110.4
47405.5
64975.8
28092.5
57054.5
-3456.47
41554.1
-58994.7
14307.7
-161599
-9370.76
-75050.4
8404.38
-34008.1
16613.2
-10021.6
22841.6
8339.83
30465.8
23168.1
37765.2
34678
44518.5
43881.6
50632.1
51083.2
55619.9
56419.3
59514.2
60437
62626.9
63539
65121
65964.6
67158
67971.5
68958.8
69801.8
70677
71555.7
72310.2
73183.9
73765
74616
74985.7
75851.8
75978.4
76941.7
76762.6
77960.3
77346
79028.1
77731.4
80401.7
77949.1
109182
109005
108884
108600
108409
108102
107892
107633
107456
107250
107098
106905
106741
106510
106306
106024
105788
105448
105182
104770
104474
103966
103640
103004
102654
101844
101481
100433
100078
98697.7
98393.9
96543.1
96362.1
93835.5
93899.8
90384.7
90898.3
85912.5
87218.5
80005.6
82681.9
72064.8
77197.1
61429.9
71121.8
47444.7
65004.6
28152.9
57112.5
-3378.91
41625.5
-58983.5
14291.8
-162157
-9529.28
-75067.7
8380.43
-34000.6
16600.6
-10010.1
22839.3
8355.16
30464.3
23179.6
37762.9
34686.8
44516.2
43887.7
50629
51085.1
55614.2
56416.9
59505.9
60431.2
62617.7
63532.1
65112.5
65958.1
67150.8
67965.5
68952.6
69796.2
70671.7
71550.7
72306.2
73179.6
73762.2
74612.1
74983.8
75847.7
75977.1
76936.7
76761.8
77953.6
77345.5
79019.4
77731.5
80392.9
77950.1
109201
109021
108899
108612
108419
108109
107898
107637
107459
107252
107100
106908
106744
106514
106310
106028
105792
105453
105187
104775
104479
103971
103646
103011
102660
101852
101488
100441
100085
98707.6
98401.6
96554.7
96370.4
93849.1
93908.6
90400.9
90907.6
85931.7
87228
80028.3
82691
72090.6
77205.2
61459.4
71133.7
47484.5
65033.8
28213.5
57171
-3300.21
41698.6
-58970.2
14277.3
-162719
-9689.54
-75085.4
8355.79
-33993.3
16588.2
-9998.06
22837.8
8371.42
30464
23192.3
37762
34696.9
44515.2
43894.8
50626.8
51088.1
55609.4
56415.3
59498.6
60426.2
62608.9
63525.5
65104.2
65951.8
67143.7
67959.7
68946.6
69790.7
70666.6
71545.7
72302.1
73175.2
73759.2
74608
74981.8
75843.5
75975.7
76931.5
76760.8
77946.9
77344.9
79010.7
77731.8
80384
77951.4
109220
109037
108915
108624
108429
108117
107904
107641
107462
107255
107103
106911
106748
106519
106314
106033
105796
105458
105191
104780
104484
103977
103651
103017
102666
101859
101494
100450
100092
98717.7
98409.3
96566.4
96378.7
93862.9
93917.5
90417.2
90917
85951.1
87237.8
80051.3
82700.4
72116.8
77213.8
61489.5
71146.2
47524.9
65063.6
28274.2
57229.9
-3220.46
41773.5
-58954.6
14264.4
-163284
-9851.51
-75103.4
8330.46
-33986.2
16576.1
-9985.4
22837.1
8388.49
30464.6
23205.9
37762.1
34707.9
44515.3
43902.9
50625.7
51092
55605.7
56414.7
59492.1
60421.9
62600.7
63519.4
65096.2
65945.7
67136.9
67954
68940.7
69785.4
70661.6
71540.7
72298
73170.7
73756.2
74603.9
74979.6
75839.1
75974.2
76926.3
76759.7
77940.1
77344.3
79002
77732.3
80375.1
77952.8
109239
109054
108930
108636
108440
108124
107909
107645
107465
107257
107105
106914
106751
106523
106319
106038
105801
105463
105196
104786
104489
103983
103657
103024
102672
101867
101501
100459
100100
98727.7
98417.1
96578.2
96387.1
93876.7
93926.5
90433.6
90926.5
85970.8
87247.7
80074.5
82710.2
72143.4
77222.8
61520.1
71159.3
47565.8
65093.7
28335
57288.9
-3139.78
41850.1
-58936.8
14253.2
-163853
-10015.2
-75121.6
8304.48
-33979.2
16564.2
-9972.18
22837.1
8406.28
30466.1
23220.4
37763.3
34719.9
44516.3
43911.7
50625.4
51096.6
55602.8
56415
59486.5
60418.4
62593.2
63513.7
65088.5
65939.9
67130.3
67948.7
68935.2
69780.4
70656.7
71536
72293.9
73166.2
73753
74599.6
74977.3
75834.6
75972.5
76921
76758.6
77933.3
77343.8
78993.3
77732.8
80366.1
77954.5
109259
109071
108946
108648
108450
108132
107915
107649
107468
107260
107107
106917
106755
106527
106323
106042
105805
105468
105201
104791
104494
103989
103663
103031
102679
101875
101507
100468
100107
98737.9
98425
96590
96395.6
93890.7
93935.6
90450.2
90936.2
85990.6
87257.9
80098.1
82720.2
72170.4
77232.3
61551.3
71173.1
47607.2
65124.2
28395.8
57348
-3058.27
41928.4
-58916.6
14243.7
-164426
-10180.4
-75140.1
8277.89
-33972.4
16552.5
-9958.45
22837.7
8424.69
30468.3
23235.5
37765.2
34732.6
44518.2
43921.3
50625.9
51102
55600.8
56416.1
59481.9
60415.7
62586.4
63508.7
65081.4
65934.5
67124.1
67943.7
68929.9
69775.7
70652.2
71531.4
72290
73161.8
73749.8
74595.2
74974.8
75829.9
75970.8
76915.6
76757.4
77926.4
77343.2
78984.7
77733.6
80357.2
77956.4
109279
109087
108962
108660
108460
108140
107921
107653
107471
107262
107110
106920
106759
106532
106327
106047
105810
105472
105206
104796
104499
103995
103668
103037
102685
101882
101514
100476
100114
98748.1
98432.9
96602
96404.1
93904.8
93944.8
90467
90946
86010.7
87268.2
80121.9
82730.5
72197.9
77242.2
61583.1
71187.4
47649.2
65155.1
28456.5
57407.1
-2976.07
42008.2
-58894.2
14235.9
-165002
-10347.3
-75158.8
8250.73
-33965.7
16541.1
-9944.22
22838.9
8443.64
30471.1
23251.3
37767.9
34745.9
44520.8
43931.5
50627.1
51108
55599.5
56418
59478.1
60413.9
62580.5
63504.3
65074.8
65929.5
67118.3
67939.1
68925.1
69771.3
70647.9
71527
72286.2
73157.4
73746.6
74590.8
74972.3
75825.3
75968.9
76910.1
76756.2
77919.6
77342.8
78976.1
77734.5
80348.2
77958.5
109299
109104
108978
108672
108471
108147
107927
107657
107474
107265
107112
106923
106762
106536
106332
106052
105815
105477
105211
104802
104505
104001
103674
103044
102691
101890
101521
100485
100122
98758.4
98440.9
96614
96412.8
93919
93954.1
90483.9
90956
86030.9
87278.8
80146.1
82741.1
72225.8
77252.6
61615.5
71202.3
47691.7
65186.2
28517
57466.1
-2893.33
42089.6
-58869.3
14230.1
-165582
-10515.7
-75177.5
8223.06
-33959.1
16529.9
-9929.54
22840.5
8463.05
30474.4
23267.5
37771.1
34759.7
44524
43942.2
50628.8
51114.4
55598.8
56420.5
59475.1
60412.8
62575.3
63500.6
65068.8
65925.1
67113
67935
68920.7
69767.4
70644
71522.9
72282.6
73153.1
73743.4
74586.3
74969.8
75820.5
75967
76904.6
76754.9
77912.8
77342.4
78967.6
77735.6
80339.3
77960.9
109319
109122
108994
108685
108482
108155
107933
107661
107477
107267
107114
106926
106766
106540
106336
106056
105819
105483
105216
104807
104510
104008
103680
103051
102697
101898
101528
100494
100129
98768.8
98449
96626.1
96421.5
93933.3
93963.5
90501
90966.2
86051.4
87289.6
80170.6
82752.1
72254.1
77263.5
61648.5
71217.8
47734.6
65217.6
28577.3
57524.8
-2810.2
42172.4
-58842.1
14226.3
-166166
-10685.6
-75196.2
8194.93
-33952.7
16519
-9914.42
22842.6
8482.87
30478.2
23284.1
37774.9
34773.9
44527.7
43953.3
50631.1
51121.3
55598.7
56423.6
59472.8
60412.5
62570.9
63497.7
65063.5
65921.3
67108.3
67931.4
68916.8
69763.9
70640.6
71519.2
72279.2
73149
73740.3
74582
74967.2
75815.8
75965
76899.1
76753.6
77906
77342
78959.3
77736.9
80330.4
77963.6
109340
109139
109010
108697
108492
108163
107939
107666
107480
107270
107117
106929
106770
106545
106341
106061
105824
105488
105221
104813
104515
104014
103686
103058
102704
101906
101535
100503
100137
98779.3
98457.1
96638.3
96430.4
93947.7
93973.1
90518.3
90976.5
86072.1
87300.6
80195.4
82763.4
72282.9
77274.9
61682
71233.9
47778
65249.3
28637.1
57583.1
-2726.84
42256.5
-58812.5
14224.4
-166753
-10856.8
-75214.8
8166.39
-33946.3
16508.3
-9898.89
22845.1
8503.04
30482.3
23301.1
37779
34788.5
44531.9
43964.8
50633.8
51128.6
55599
56427.1
59471.1
60412.9
62567.3
63495.4
65058.8
65918
67104
67928.3
68913.4
69761
70637.5
71515.9
72276.2
73145.2
73737.4
74577.7
74964.6
75811.1
75963.1
76893.7
76752.4
77899.3
77341.8
78951.1
77738.5
80321.6
77966.5
109361
109156
109026
108710
108503
108171
107944
107670
107483
107272
107119
106932
106773
106549
106345
106066
105829
105493
105226
104819
104521
104020
103692
103065
102710
101914
101542
100512
100144
98789.8
98465.3
96650.7
96439.3
93962.3
93982.8
90535.7
90986.9
86093.1
87311.8
80220.4
82775
72312.2
77286.7
61716.2
71250.6
47821.8
65281.1
28696.6
57640.9
-2643.43
42341.8
-58780.5
14224.7
-167344
-11029.3
-75233.1
8137.53
-33939.9
16497.8
-9882.98
22848
8523.51
30486.8
23318.3
37783.5
34803.4
44536.4
43976.6
50636.9
51136.2
55599.7
56430.9
59469.9
60413.8
62564.3
63493.9
65054.9
65915.4
67100.4
67925.8
68910.6
69758.5
70635
71513
72273.5
73141.6
73734.6
74573.6
74962.2
75806.4
75961.1
76888.3
76751.2
77892.8
77341.7
78943.1
77740.3
80313
77969.8
109382
109174
109043
108722
108514
108179
107950
107674
107486
107275
107121
106935
106777
106554
106350
106071
105834
105498
105231
104824
104526
104026
103698
103072
102716
101922
101549
100522
100152
98800.5
98473.6
96663.1
96448.3
93977
93992.6
90553.2
90997.6
86114.2
87323.3
80245.8
82786.9
72341.8
77299.1
61750.9
71267.9
47866
65313
28755.6
57698.1
-2560.16
42428.1
-58746.2
14227.1
-167938
-11203
-75251.2
8108.41
-33933.6
16487.5
-9866.71
22851.2
8544.24
30491.5
23335.7
37788.3
34818.4
44541.2
43988.6
50640.3
51144
55600.8
56435.1
59469.1
60415.2
62562
63492.9
65051.5
65913.4
67097.4
67923.8
68908.3
69756.6
70632.9
71510.6
72271.2
73138.3
73732.1
74569.6
74959.8
75801.9
75959.3
76883
76750.2
77886.4
77341.8
78935.3
77742.5
80304.4
77973.3
109403
109191
109060
108735
108525
108186
107956
107678
107489
107277
107124
106937
106781
106558
106355
106076
105838
105503
105236
104830
104532
104033
103704
103080
102723
101930
101556
100531
100159
98811.2
98482
96675.6
96457.4
93991.8
94002.5
90571
91008.3
86135.6
87335
80271.5
82799.2
72372
77311.9
61786.2
71285.7
47910.6
65345.1
28814
57754.5
-2477.21
42515.3
-58709.6
14231.8
-168536
-11377.7
-75268.8
8079.1
-33927.4
16477.5
-9850.11
22854.7
8565.2
30496.5
23353.3
37793.3
34833.7
44546.3
44000.8
50644
51152
55602.2
56439.6
59468.7
60417
62560.2
63492.6
65048.9
65912
67095
67922.5
68906.5
69755.2
70631.4
71508.6
72269.2
73135.4
73729.9
74565.9
74957.6
75797.5
75957.5
76877.8
76749.2
77880.1
77342.1
78927.7
77744.9
80296.1
77977.3
109424
109209
109076
108748
108536
108194
107962
107682
107492
107279
107126
106940
106784
106563
106359
106081
105843
105509
105241
104836
104538
104039
103710
103087
102730
101938
101563
100540
100167
98822
98490.5
96688.3
96466.7
94006.8
94012.6
90588.9
91019.3
86157.2
87346.9
80297.5
82811.8
72402.5
77325.2
61822
71304.1
47955.4
65377.1
28871.7
57810.1
-2394.77
42603.2
-58670.7
14238.7
-169137
-11553.4
-75285.9
8049.68
-33921
16467.6
-9833.2
22858.5
8586.36
30501.7
23371.1
37798.5
34849
44551.6
44013.1
50647.9
51160.2
55603.8
56444.2
59468.7
60419.1
62558.9
63492.8
65046.8
65911.3
67093.1
67921.6
68905.3
69754.4
70630.3
71507.1
72267.8
73132.9
73727.9
74562.5
74955.6
75793.3
75955.9
76872.9
76748.4
77874.1
77342.6
78920.5
77747.6
80287.9
77981.6
109446
109227
109093
108761
108547
108202
107968
107687
107495
107282
107128
106943
106788
106567
106364
106086
105848
105514
105247
104842
104543
104046
103716
103094
102736
101947
101570
100550
100175
98832.9
98499
96701
96476
94021.9
94022.7
90606.9
91030.4
86179
87359
80323.8
82824.7
72433.5
77339
61858.3
71323
48000.6
65409.2
28928.8
57864.7
-2313.03
42691.6
-58629.6
14248
-169742
-11729.9
-75302.3
8020.23
-33914.7
16458
-9815.99
22862.4
8607.68
30507
23389
37803.9
34864.5
44557.1
44025.5
50652.1
51168.5
55605.6
56449
59468.9
60421.5
62557.9
63493.4
65045.2
65911
67091.8
67921.4
68904.6
69754
70629.8
71506.1
72266.7
73130.8
73726.3
74559.3
74953.9
75789.4
75954.5
76868.1
76747.7
77868.3
77343.4
78913.5
77750.7
80280
77986.2
109468
109246
109110
108774
108558
108211
107975
107691
107498
107284
107130
106946
106792
106572
106369
106091
105853
105520
105252
104848
104549
104053
103722
103102
102743
101955
101577
100559
100183
98843.9
98507.7
96713.8
96485.4
94037.1
94033.1
90625.2
91041.7
86201
87371.3
80350.4
82837.9
72464.9
77353.3
61895.2
71342.4
48046
65441.2
28985.1
57918.3
-2232.17
42780.4
-58586.3
14259.7
-170351
-11907.1
-75318
7990.82
-33908.3
16448.6
-9798.51
22866.7
8629.16
30512.5
23407
37809.4
34880
44562.7
44038.1
50656.4
51176.9
55607.6
56454
59469.3
60424.1
62557.3
63494.4
65044.1
65911.2
67091
67921.6
68904.5
69754.2
70629.7
71505.6
72266.1
73129.1
73725.1
74556.5
74952.4
75785.7
75953.3
76863.5
76747.3
77862.8
77344.4
78906.9
77754.2
80272.4
77991.3
109490
109264
109128
108787
108569
108219
107981
107695
107501
107287
107133
106949
106795
106576
106374
106096
105859
105525
105258
104854
104555
104059
103728
103109
102750
101963
101585
100569
100191
98854.9
98516.4
96726.8
96494.9
94052.4
94043.5
90643.6
91053.1
86223.2
87383.9
80377.3
82851.5
72496.7
77368
61932.5
71362.3
48091.5
65473.2
29040.6
57970.7
-2152.38
42869.3
-58541.1
14273.7
-170963
-12084.8
-75332.8
7961.53
-33901.8
16439.4
-9780.77
22871.1
8650.75
30518.1
23425
37815
34895.6
44568.5
44050.7
50660.9
51185.5
55609.8
56459
59469.9
60426.9
62556.9
63495.7
65043.4
65911.9
67090.7
67922.3
68904.8
69754.8
70630.1
71505.5
72265.9
73127.8
73724.2
74554.1
74951.2
75782.3
75952.3
76859.3
76747
77857.6
77345.7
78900.6
77758.1
80265
77996.8
109513
109282
109145
108800
108580
108227
107987
107699
107504
107289
107135
106952
106799
106581
106379
106102
105864
105531
105263
104860
104561
104066
103735
103117
102757
101972
101592
100579
100199
98866.1
98525.2
96739.8
96504.6
94067.9
94054
90662.1
91064.7
86245.6
87396.6
80404.5
82865.3
72528.9
77383.2
61970.4
71382.7
48137.3
65505
29095.3
58022
-2073.84
42958.2
-58493.9
14290.2
-171579
-12263
-75346.7
7932.45
-33895.1
16430.5
-9762.78
22875.6
8672.46
30523.8
23443.2
37820.8
34911.2
44574.4
44063.3
50665.6
51194.1
55612.2
56464.2
59470.7
60429.8
62556.8
63497.2
65043
65913
67090.8
67923.4
68905.5
69755.9
70630.9
71505.8
72266.2
73126.9
73723.7
74552
74950.3
75779.2
75951.6
76855.3
76747.1
77852.7
77347.3
78894.7
77762.3
80258
78002.7
109535
109301
109163
108813
108591
108235
107993
107704
107507
107292
107137
106954
106802
106586
106384
106107
105869
105537
105269
104867
104567
104073
103741
103124
102764
101980
101600
100588
100207
98877.4
98534.1
96753
96514.3
94083.5
94064.7
90680.8
91076.4
86268.3
87409.6
80431.9
82879.5
72561.5
77398.8
62008.6
71403.4
48183.1
65536.6
29149.1
58072.1
-1996.71
43046.8
-58445
14309.1
-172199
-12441.4
-75359.6
7903.62
-33888.3
16421.7
-9744.57
22880.4
8694.27
30529.6
23461.3
37826.6
34926.8
44580.3
44076
50670.4
51202.8
55614.7
56469.4
59471.6
60432.9
62556.8
63499
65042.9
65914.3
67091.3
67925
68906.6
69757.3
70632.1
71506.5
72266.7
73126.4
73723.6
74550.2
74949.8
75776.4
75951.2
76851.6
76747.4
77848.1
77349.2
78889.2
77767
80251.4
78009.1
109558
109320
109181
108827
108603
108243
107999
107708
107510
107294
107139
106957
106806
106590
106389
106112
105875
105543
105274
104873
104573
104080
103748
103132
102771
101989
101608
100598
100216
98888.7
98543.1
96766.2
96524.1
94099.2
94075.5
90699.7
91088.3
86291.1
87422.7
80459.6
82893.9
72594.4
77414.8
62047.3
71424.5
48229
65568
29201.9
58120.9
-1921.13
43135
-58394.4
14330.5
-172822
-12619.9
-75371.4
7875.13
-33881.4
16413.2
-9726.14
22885.3
8716.16
30535.5
23479.5
37832.5
34942.5
44586.4
44088.7
50675.3
51211.6
55617.4
56474.7
59472.6
60436
62557
63500.9
65043.1
65916
67092.1
67926.8
68908.1
69759.1
70633.7
71507.6
72267.7
73126.2
73723.7
74548.8
74949.6
75774
75951
76848.3
76748
77843.9
77351.5
78884.2
77772
80245.1
78016
109582
109339
109198
108840
108614
108252
108005
107713
107513
107296
107142
106960
106809
106595
106394
106118
105880
105549
105280
104880
104579
104087
103755
103140
102778
101998
101615
100608
100224
98900.2
98552.2
96779.6
96534
94115
94086.4
90718.7
91100.4
86314.1
87436.1
80487.5
82908.6
72627.7
77431.1
62086.3
71446
48274.9
65599.1
29253.8
58168.3
-1847.26
43222.4
-58342.3
14354.3
-173449
-12798.4
-75382
7847.03
-33874.2
16404.9
-9707.5
22890.4
8738.12
30541.4
23497.8
37838.4
34958.1
44592.5
44101.5
50680.3
51220.4
55620.1
56480.1
59473.8
60439.2
62557.4
63502.9
65043.5
65917.9
67093.2
67929
68909.9
69761.2
70635.5
71508.9
72269
73126.4
73724.3
74547.8
74949.7
75771.9
75951.2
76845.3
76748.9
77840.1
77354.1
78879.5
77777.5
80239.2
78023.3
109605
109358
109217
108854
108626
108260
108012
107717
107516
107299
107144
106962
106813
106599
106399
106123
105885
105555
105286
104886
104586
104094
103761
103148
102785
102007
101623
100618
100232
98911.7
98561.4
96793.1
96544.1
94131
94097.4
90737.9
91112.5
86337.3
87449.6
80515.7
82923.6
72661.3
77447.9
62125.7
71467.8
48320.8
65629.9
29304.8
58214.4
-1775.21
43309
-58288.9
14380.4
-174080
-12976.8
-75391.3
7819.37
-33866.7
16396.9
-9688.66
22895.6
8760.14
30547.5
23516
37844.4
34973.8
44598.6
44114.2
50685.4
51229.3
55623
56485.5
59475.1
60442.5
62557.9
63505.1
65044
65920
67094.5
67931.4
68912
69763.6
70637.7
71510.6
72270.5
73126.8
73725.1
74547.1
74950.1
75770.2
75951.7
76842.7
76750.2
77836.6
77357
78875.3
77783.4
80233.7
78031
109629
109377
109235
108867
108637
108269
108018
107721
107520
107301
107146
106965
106816
106604
106404
106129
105891
105561
105292
104893
104592
104102
103768
103156
102793
102016
101631
100628
100241
98923.4
98570.7
96806.7
96554.2
94147.1
94108.6
90757.2
91124.8
86360.7
87463.3
80544.1
82938.7
72695.1
77465
62165.4
71489.9
48366.6
65660.4
29354.7
58259.1
-1705.08
43394.5
-58234.3
14408.9
-174714
-13154.9
-75399.5
7792.18
-33859.1
16389.2
-9669.62
22900.9
8782.22
30553.5
23534.3
37850.5
34989.4
44604.9
44127
50690.6
51238.2
55626
56491
59476.5
60445.8
62558.5
63507.3
65044.7
65922.2
67096.1
67934
68914.3
69766.2
70640
71512.5
72272.3
73127.5
73726.1
74546.6
74950.8
75768.8
75952.5
76840.3
76751.7
77833.5
77360.3
78871.5
77789.7
80228.6
78039.3
109653
109397
109253
108881
108649
108277
108024
107726
107523
107304
107148
106968
106820
106608
106409
106134
105897
105567
105298
104899
104599
104109
103775
103164
102800
102025
101639
100639
100250
98935.1
98580
96820.4
96564.4
94163.3
94119.8
90776.6
91137.3
86384.2
87477.1
80572.6
82954.1
72729.2
77482.3
62205.4
71512.2
48412.3
65690.5
29403.6
58302.4
-1636.97
43478.8
-58178.9
14439.8
-175352
-13332.7
-75406.3
7765.52
-33851.1
16381.7
-9650.4
22906.3
8804.35
30559.6
23552.6
37856.6
35005.1
44611.1
44139.7
50695.9
51247.2
55629.1
56496.5
59478
60449.2
62559.2
63509.6
65045.5
65924.5
67097.8
67936.9
68916.8
69769
70642.6
71514.6
72274.3
73128.5
73727.5
74546.5
74951.7
75767.7
75953.5
76838.4
76753.5
77830.8
77363.9
78868.2
77796.4
80223.9
78047.9
109677
109416
109272
108895
108661
108286
108031
107730
107526
107306
107150
106970
106823
106613
106414
106140
105902
105573
105304
104906
104605
104117
103782
103172
102808
102034
101647
100649
100258
98947
98589.5
96834.2
96574.8
94179.6
94131.2
90796.2
91149.8
86407.8
87491.1
80601.3
82969.7
72763.6
77500
62245.5
71534.7
48457.9
65720.2
29451.5
58344.4
-1570.93
43561.6
-58122.7
14472.8
-175995
-13510
-75411.8
7739.4
-33842.8
16374.5
-9631
22911.9
8826.52
30565.8
23570.9
37862.7
35020.7
44617.4
44152.5
50701.3
51256.2
55632.3
56502.1
59479.6
60452.7
62560
63512
65046.4
65927
67099.7
67939.8
68919.5
69772
70645.3
71516.9
72276.4
73129.6
73729
74546.5
74952.9
75766.8
75954.8
76836.7
76755.6
77828.5
77367.9
78865.2
77803.4
80219.7
78057.1
109702
109436
109290
108909
108673
108294
108037
107735
107529
107308
107152
106973
106826
106617
106419
106146
105908
105579
105311
104913
104612
104124
103790
103181
102816
102043
101655
100660
100267
98958.9
98599.1
96848
96585.2
94196
94142.6
90815.8
91162.5
86431.6
87505.2
80630.2
82985.4
72798.1
77517.9
62285.9
71557.3
48503.2
65749.5
29498.3
58385
-1507.02
43642.9
-58066.1
14508
-176641
-13686.7
-75416
7713.85
-33834.2
16367.6
-9611.42
22917.6
8848.72
30572
23589.2
37868.8
35036.3
44623.8
44165.2
50706.7
51265.2
55635.6
56507.7
59481.3
60456.2
62561
63514.5
65047.5
65929.6
67101.7
67943
68922.3
69775.2
70648.2
71519.3
72278.8
73131
73730.7
74546.8
74954.3
75766.3
75956.4
76835.4
76758
77826.4
77372.1
78862.7
77810.8
80215.8
78066.6
109727
109456
109309
108923
108685
108303
108044
107739
107532
107311
107154
106975
106829
106621
106424
106151
105914
105586
105317
104920
104619
104132
103797
103189
102823
102053
101664
100670
100276
98971
98608.7
96862
96595.7
94212.5
94154.2
90835.6
91175.2
86455.5
87519.4
80659.2
83001.3
72832.8
77536
62326.3
71580
48548.2
65778.2
29544.1
58424.3
-1445.27
43722.4
-58009.1
14545.2
-177291
-13862.7
-75418.9
7688.87
-33825.3
16361
-9591.66
22923.5
8870.97
30578.2
23607.5
37875
35051.8
44630.2
44178
50712.2
51274.2
55639
56513.4
59483
60459.7
62561.9
63517
65048.6
65932.2
67103.8
67946.2
68925.3
69778.5
70651.3
71521.9
72281.2
73132.4
73732.5
74547.3
74955.9
75765.9
75958.2
76834.3
76760.6
77824.8
77376.6
78860.5
77818.5
80212.3
78076.5
109752
109476
109328
108937
108697
108312
108050
107744
107535
107313
107156
106977
106832
106626
106429
106157
105920
105592
105323
104927
104626
104140
103804
103198
102831
102062
101672
100681
100285
98983.1
98618.4
96876.1
96606.3
94229.1
94165.8
90855.5
91188.1
86479.5
87533.6
80688.3
83017.3
72867.6
77554.3
62366.9
71602.8
48592.9
65806.5
29588.8
58462.3
-1385.68
43800
-57952.2
14584.4
-177946
-14038
-75420.4
7664.47
-33816
16354.8
-9571.73
22929.5
8893.24
30584.5
23625.7
37881.2
35067.4
44636.6
44190.7
50717.8
51283.3
55642.5
56519
59484.9
60463.3
62563
63519.6
65049.8
65934.9
67105.9
67949.5
68928.4
69781.9
70654.4
71524.6
72283.8
73134
73734.5
74547.9
74957.6
75765.8
75960.2
76833.5
76763.4
77823.4
77381.4
78858.7
77826.6
80209.1
78086.8
109778
109496
109348
108951
108709
108321
108057
107749
107538
107316
107158
106980
106835
106630
106433
106163
105925
105598
105330
104934
104633
104148
103812
103207
102839
102072
101681
100692
100294
98995.4
98628.3
96890.3
96616.9
94245.8
94177.5
90875.5
91201
86503.6
87548
80717.5
83033.4
72902.5
77572.7
62407.5
71625.6
48637.3
65834.1
29632.4
58498.9
-1328.25
43875.7
-57895.5
14625.3
-178604
-14212.5
-75420.6
7640.66
-33806.4
16348.9
-9551.63
22935.6
8915.54
30590.9
23644
37887.5
35082.9
44643
44203.4
50723.4
51292.4
55646
56524.8
59486.8
60467
62564.2
63522.2
65051.1
65937.6
67108.2
67952.9
68931.6
69785.4
70657.7
71527.4
72286.5
73135.7
73736.5
74548.6
74959.5
75765.8
75962.3
76832.9
76766.5
77822.3
77386.4
78857.2
77834.9
80206.3
78097.4
109804
109517
109367
108966
108721
108330
108064
107753
107542
107318
107160
106982
106838
106634
106438
106168
105931
105605
105336
104942
104640
104156
103820
103215
102847
102082
101689
100702
100304
99007.8
98638.2
96904.6
96627.7
94262.6
94189.3
90895.5
91213.9
86527.7
87562.4
80746.7
83049.6
72937.5
77591.2
62448.1
71648.3
48681.3
65861.3
29675
58534.3
-1272.94
43949.2
-57839.3
14667.9
-179267
-14386.2
-75419.6
7617.43
-33796.4
16343.3
-9531.35
22941.8
8937.87
30597.2
23662.3
37893.7
35098.4
44649.4
44216.1
50729.1
51301.5
55649.7
56530.5
59488.8
60470.6
62565.4
63524.9
65052.5
65940.4
67110.6
67956.4
68934.8
69789
70661.1
71530.3
72289.2
73137.5
73738.7
74549.5
74961.5
75766
75964.6
76832.5
76769.7
77821.4
77391.6
78856.1
77843.4
80203.7
78108.3
109830
109537
109387
108980
108733
108339
108070
107758
107545
107321
107162
106984
106841
106638
106443
106174
105937
105611
105343
104949
104647
104164
103827
103224
102856
102092
101698
100714
100313
99020.2
98648.2
96918.9
96638.5
94279.4
94201.1
90915.6
91227
86551.9
87576.8
80775.9
83065.8
72972.5
77609.7
62488.6
71671
48724.9
65887.8
29716.6
58568.4
-1219.73
44020.7
-57783.7
14711.9
-179934
-14558.9
-75417.2
7594.77
-33786.1
16338.1
-9510.9
22948.2
8960.23
30603.6
23680.5
37900
35113.9
44655.9
44228.8
50734.9
51310.7
55653.4
56536.3
59490.9
60474.4
62566.8
63527.6
65053.9
65943.3
67113
67959.9
68938.2
69792.7
70664.5
71533.2
72292.1
73139.4
73741
74550.5
74963.5
75766.3
75967
76832.3
76773.1
77820.8
77397
78855.2
77852.1
80201.5
78119.5
109857
109558
109406
108995
108745
108348
108077
107763
107548
107323
107164
106986
106843
106641
106447
106179
105943
105618
105349
104956
104654
104172
103835
103233
102864
102102
101707
100725
100322
99032.8
98658.3
96933.4
96649.4
94296.4
94213
90935.8
91240
86576.2
87591.3
80805.2
83082
73007.5
77628.3
62529.1
71693.5
48768
65913.7
29757
58601.4
-1168.56
44090
-57729.1
14757.3
-180605
-14730.7
-75413.5
7572.68
-33775.5
16333.3
-9490.29
22954.8
8982.61
30610.1
23698.8
37906.3
35129.3
44662.4
44241.5
50740.7
51319.8
55657.2
56542.2
59493.1
60478.1
62568.2
63530.4
65055.4
65946.2
67115.4
67963.4
68941.6
69796.4
70668
71536.3
72295
73141.3
73743.3
74551.5
74965.7
75766.8
75969.5
76832.3
76776.6
77820.4
77402.6
78854.5
77861
80199.5
78130.9
109883
109579
109426
109010
108758
108357
108084
107768
107551
107326
107166
106988
106846
106645
106452
106184
105949
105624
105356
104964
104662
104180
103843
103243
102873
102112
101716
100736
100332
99045.4
98668.5
96947.9
96660.4
94313.4
94224.9
90956
91253.1
86600.4
87605.7
80834.5
83098.1
73042.5
77646.9
62569.4
71715.8
48810.6
65939
29796.5
58633.2
-1119.37
44157
-57675.7
14803.7
-181281
-14901.5
-75408.5
7551.15
-33764.6
16328.8
-9469.5
22961.5
9005.02
30616.6
23717
37912.6
35144.7
44668.9
44254.2
50746.5
51329
55661.1
56548.1
59495.4
60481.9
62569.6
63533.2
65057
65949.1
67118
67967
68945
69800.2
70671.5
71539.4
72297.9
73143.4
73745.6
74552.7
74967.9
75767.3
75972.2
76832.4
76780.2
77820.2
77408.3
78854.1
77870.1
80197.7
78142.5
109911
109600
109447
109025
108770
108366
108091
107773
107555
107328
107168
106991
106848
106648
106456
106190
105954
105631
105363
104971
104669
104188
103851
103252
102881
102122
101725
100747
100341
99058.2
98678.7
96962.5
96671.4
94330.4
94236.9
90976.2
91266.2
86624.7
87620.2
80863.7
83114.3
73077.4
77665.4
62609.6
71738
48852.7
65963.6
29834.9
58663.8
-1072.08
44221.9
-57623.6
14851
-181961
-15071.3
-75402.2
7530.16
-33753.3
16324.7
-9448.55
22968.4
9027.45
30623.1
23735.2
37919
35160.1
44675.5
44266.8
50752.5
51338.3
55665
56554
59497.7
60485.8
62571.2
63536.1
65058.7
65952.1
67120.5
67970.7
68948.5
69804
70675.1
71542.5
72301
73145.5
73748.1
74553.9
74970.3
75768
75974.8
76832.6
76783.9
77820.1
77414.1
78853.9
77879.3
80196
78154.3
109938
109622
109467
109040
108783
108376
108097
107777
107558
107330
107170
106993
106851
106652
106460
106195
105960
105637
105369
104978
104676
104197
103859
103261
102890
102132
101734
100759
100351
99071
98689.1
96977.2
96682.5
94347.5
94248.9
90996.5
91279.3
86648.9
87634.6
80892.8
83130.4
73112.2
77683.8
62649.6
71759.9
48894.2
65987.6
29872.2
58693.4
-1026.63
44284.5
-57573.2
14899.1
-182645
-15240.1
-75394.7
7509.7
-33741.8
16321
-9427.44
22975.4
9049.91
30629.7
23753.4
37925.3
35175.4
44682
44279.5
50758.4
51347.5
55669
56559.9
59500.1
60489.7
62572.8
63539
65060.4
65955.1
67123.2
67974.3
68952
69807.9
70678.8
71545.7
72304
73147.6
73750.6
74555.2
74972.6
75768.7
75977.6
76832.9
76787.7
77820.2
77420
78853.9
77888.6
80194.6
78166.2
109966
109643
109487
109055
108796
108385
108104
107782
107561
107333
107172
106994
106853
106655
106464
106200
105965
105643
105376
104986
104684
104205
103867
103270
102899
102143
101744
100770
100361
99083.9
98699.5
96991.9
96693.6
94364.7
94260.9
91016.8
91292.3
86673.1
87648.9
80921.9
83146.3
73146.9
77702.2
62689.3
71781.5
48935.1
66010.9
29908.6
58721.9
-982.913
44345.1
-57524.5
14947.6