/*--------------------------------*- C++ -*----------------------------------*\
| =========                 |                                                 |
| \\      /  F ield         | OpenFOAM: The Open Source CFD Toolbox           |
|  \\    /   O peration     | Version:  2412                                  |
|   \\  /    A nd           | Website:  www.openfoam.com                      |
|    \\/     M anipulation  |                                                 |
\*---------------------------------------------------------------------------*/
FoamFile
{
    version     2.0;
    format      ascii;
    arch        "LSB;label=32;scalar=64";
    class       surfaceScalarField;
    location    "0.5";
    object      phi;
}
// * * * * * * * * * * * * * * * * * * * * * * * * * * * * * * * * * * * * * //

dimensions      [0 3 -1 0 0 0 0];

oriented        oriented;

internalField   nonuniform List<scalar> 
25922
(
0.00749676
0.0255255
0.00745567
0.0213492
0.00744156
0.0176558
0.00743315
0.0140385
0.00741762
0.00932088
0.00738652
0.00377616
0.00733958
-0.00211425
0.00728299
-0.00742525
0.00722683
-0.0115202
0.00718532
-0.0139268
0.00717007
-0.0143459
0.00718062
-0.0130566
0.00720216
-0.0109516
0.0072213
-0.00913821
0.0072351
-0.00787134
0.00724657
-0.00703618
0.00725733
-0.00628962
0.0072682
-0.00571833
0.00727854
-0.00510173
0.00728866
-0.00465887
0.00729772
-0.00411156
0.00730637
-0.00376582
0.00731349
-0.00322076
0.00732025
-0.00298331
0.00732509
-0.00242653
0.0073298
-0.00229053
0.00733222
-0.00169753
0.00733496
-0.00168745
0.00733492
-0.00100726
0.007336
-0.00119013
0.00733366
-0.000369211
0.00733352
-0.000775775
0.00732885
0.00026572
0.00732773
-0.000456883
0.00732031
0.000892007
0.00731819
-0.000242035
0.00730728
0.00153482
0.00730385
-0.000180248
0.00213676
0.00749718
0.0256041
0.00745691
0.0213895
0.00744395
0.0176687
0.00743663
0.0140458
0.00742183
0.00933568
0.00739093
0.00380706
0.00734355
-0.00206687
0.00728592
-0.00736762
0.00722819
-0.0114624
0.00718476
-0.0138834
0.00716772
-0.0143289
0.0071772
-0.0130661
0.00719845
-0.0109729
0.00721761
-0.00915737
0.0072314
-0.00788513
0.00724276
-0.00704754
0.00725341
-0.00630027
0.00726418
-0.0057291
0.00727445
-0.00511199
0.00728451
-0.00466893
0.00729353
-0.00412058
0.00730214
-0.00377443
0.00730923
-0.00322786
0.00731596
-0.00299004
0.00732079
-0.00243136
0.00732548
-0.00229522
0.00732789
-0.00169994
0.00733062
-0.00169018
0.00733057
-0.00100722
0.00733166
-0.00119122
0.00732932
-0.00036687
0.00732919
-0.000775644
0.00732453
0.00027038
0.00732343
-0.000455784
0.00731603
0.000899409
0.00731394
-0.000239948
0.00730306
0.00154571
0.00729968
-0.000176867
0.00728332
0.00215312
0.00727625
-0.000398436
0.00725223
0.00224851
0.00724364
-0.00172196
0.00722064
0.000716675
0.00722512
-0.00497412
0.00722321
-0.00258324
0.00726228
-0.00866787
0.00730016
-0.00377098
0.00736893
-0.00603782
0.00739715
0.00367543
0.00744042
0.00577264
0.00747477
0.0151046
0.00755926
0.0368756
0.00765799
0.0627515
0.00780965
-0.0174059
0.00787015
-0.0498154
0.00789384
-0.0293431
0.00784153
-0.0049549
0.00777613
0.000163286
0.00768412
0.00917705
0.0075982
0.00488915
0.00752427
0.00625545
0.00747865
0.000426101
0.00745519
0.00205037
0.00744388
-0.00158686
0.0074382
0.000162668
0.00743661
-0.00253036
0.00744125
-0.00113286
0.00745392
-0.00283163
-0.0012722
0.0074976
0.0256823
0.00745818
0.0214289
0.00744638
0.0176805
0.00744018
0.014052
0.00742613
0.00934973
0.00739544
0.00383775
0.00734763
-0.00201906
0.00728897
-0.00730896
0.00722965
-0.0114031
0.00718426
-0.013838
0.00716539
-0.01431
0.00717376
-0.0130745
0.00719471
-0.0109938
0.0072139
-0.00917657
0.00722767
-0.0078989
0.00723893
-0.0070588
0.00724947
-0.00631081
0.00726015
-0.00573979
0.00727035
-0.00512219
0.00728036
-0.00467894
0.00728933
-0.00412956
0.00729791
-0.00378301
0.00730498
-0.00323492
0.00731169
-0.00299675
0.0073165
-0.00243617
0.00732118
-0.00229989
0.00732357
-0.00170233
0.0073263
-0.0016929
0.00732625
-0.00100717
0.00732734
-0.00119231
0.007325
-0.00036453
0.00732488
-0.000775523
0.00732023
0.000275025
0.00731916
-0.00045471
0.00731178
0.000906786
0.00730973
-0.000237897
0.00729888
0.00155655
0.00729556
-0.000173545
0.00727925
0.00216943
0.00727223
-0.000391415
0.00724814
0.00227259
0.00723941
-0.00171322
0.00721606
0.000740017
0.00722007
-0.00497813
0.0072175
-0.00258067
0.00725592
-0.0087063
0.0072937
-0.00380876
0.00736327
-0.00610739
0.00739289
0.00364581
0.00743702
0.00572851
0.00747192
0.0150697
0.00755861
0.0367889
0.0076607
0.0626494
0.00781179
-0.017557
0.00787
-0.0498736
0.00789415
-0.0293673
0.0078439
-0.00490466
0.00778079
0.000226406
0.0076911
0.00926673
0.00760601
0.00497424
0.00753158
0.00632987
0.00748327
0.000474406
0.00745787
0.00207578
0.00744386
-0.00157287
0.00743697
0.000169566
0.00743294
-0.00252634
0.00743645
-0.00113637
0.00744769
-0.00284286
0.0074667
-0.0012912
0.00748732
-0.00184821
0.00750334
-0.000111906
0.00751253
2.17648e-05
0.0075132
0.00159865
0.00750807
0.00199781
0.00749599
0.0032841
0.00747936
0.0036836
0.00745729
0.00448928
0.00743233
0.0045675
0.00740533
0.00468827
0.00737949
0.00429811
0.00735651
0.00391908
0.00733844
0.00339005
0.00732541
0.0029517
0.00731656
0.00269541
0.00730991
0.00250446
0.00730287
0.00264236
0.00729393
0.00263708
0.00728119
0.00297687
0.00726537
0.00288005
0.00724448
0.00326907
0.00722135
0.00290416
0.00719153
0.00322585
0.00716118
0.00242475
0.00712001
0.00252508
0.00708213
0.00105536
0.00702297
0.000508571
0.00697501
-0.00196536
0.00687303
-0.0037926
-0.00815823
0.00749803
0.02576
0.00745948
0.0214674
0.00744886
0.0176912
0.00744379
0.0140571
0.00743051
0.00936301
0.00740004
0.00386822
0.00735181
-0.00197084
0.00729211
-0.00724926
0.00723119
-0.0113422
0.00718382
-0.0137907
0.00716309
-0.0142893
0.00717032
-0.0130817
0.00719094
-0.0110144
0.00721017
-0.0091958
0.00722393
-0.00791266
0.0072351
-0.00706997
0.00724553
-0.00632124
0.00725612
-0.00575038
0.00726625
-0.00513232
0.0072762
-0.00468889
0.00728514
-0.0041385
0.00729369
-0.00379156
0.00730072
-0.00324196
0.00730741
-0.00300344
0.00731221
-0.00244097
0.00731687
-0.00230456
0.00731927
-0.00170473
0.00732199
-0.00169562
0.00732194
-0.00100712
0.00732303
-0.0011934
0.0073207
-0.000362196
0.00732059
-0.000775418
0.00731596
0.000279655
0.00731492
-0.000453666
0.00730757
0.000914135
0.00730556
-0.000235887
0.00729475
0.00156737
0.00729149
-0.000170285
0.00727524
0.00218568
0.00726827
-0.000384445
0.00724413
0.00229673
0.00723525
-0.00170434
0.00721155
0.000763713
0.00721507
-0.00498164
0.0072118
-0.0025774
0.00724953
-0.00874402
0.00728715
-0.00384638
0.00735751
-0.00617775
0.0073886
0.00361472
0.00743366
0.00568345
0.00746912
0.0150342
0.00755795
0.0367
0.00766334
0.062544
0.00781371
-0.0177074
0.0078696
-0.0499295
0.00789431
-0.029392
0.00784631
-0.00485665
0.00778564
0.000287078
0.00769844
0.00935393
0.00761434
0.00505833
0.00753959
0.00640462
0.00748871
0.000525281
0.00746131
0.0021032
0.00744445
-0.00155601
0.00743617
0.000177842
0.00742943
-0.0025196
0.00743157
-0.0011385
0.00744103
-0.00285232
0.00746044
-0.00131061
0.00748188
-0.00186965
0.00749992
-0.000129945
0.00751057
1.11114e-05
0.00751263
0.00159658
0.00750829
0.00200215
0.00749688
0.00329552
0.00748065
0.00369982
0.00745888
0.00451105
0.00743398
0.0045924
0.00740683
0.00471543
0.00738055
0.00432439
0.00735694
0.00394269
0.00733815
0.00340884
0.00732449
0.00296536
0.0073152
0.00270469
0.00730837
0.00251129
0.00730138
0.00264936
0.0072926
0.00264586
0.00728008
0.00298939
0.00726445
0.00289568
0.00724374
0.00328978
0.00722073
0.00292717
0.00719102
0.00325557
0.00716071
0.00245506
0.00711953
0.00256625
0.00708153
0.00109336
0.00702189
0.00056821
0.0069732
-0.00191667
0.006869
-0.0036884
-0.00806917
0.00749848
0.0258373
0.0074608
0.0215051
0.00745138
0.0177006
0.00744746
0.014061
0.00743497
0.0093755
0.00740474
0.00389845
0.0073561
-0.0019222
0.00729536
-0.00718852
0.00723283
-0.0112797
0.00718346
-0.0137413
0.00716082
-0.0142667
0.00716686
-0.0130878
0.00718714
-0.0110347
0.00720641
-0.00921507
0.00722018
-0.00792643
0.00723126
-0.00708105
0.00724158
-0.00633155
0.00725208
-0.00576088
0.00726214
-0.00514238
0.00727204
-0.00469879
0.00728094
-0.0041474
0.00728946
-0.00380007
0.00729647
-0.00324897
0.00730314
-0.00301011
0.00730793
-0.00244576
0.00731258
-0.00230922
0.00731497
-0.00170711
0.00731769
-0.00169835
0.00731764
-0.00100707
0.00731875
-0.0011945
0.00731642
-0.000359871
0.00731633
-0.000775331
0.00731172
0.000284264
0.00731071
-0.000452654
0.0073034
0.000921451
0.00730143
-0.000233921
0.00729066
0.00157813
0.00728747
-0.000167094
0.00727128
0.00220187
0.00726437
-0.000377535
0.0072402
0.0023209
0.00723117
-0.00169531
0.00720711
0.000787768
0.00721012
-0.00498465
0.00720613
-0.00257341
0.0072431
-0.00878099
0.00728052
-0.0038838
0.00735165
-0.00624889
0.00738429
0.00358208
0.00743033
0.0056374
0.00746637
0.0149982
0.0075573
0.0366091
0.00766589
0.0624354
0.00781544
-0.0178569
0.00786896
-0.049983
0.00789432
-0.0294174
0.00784872
-0.00481106
0.00779066
0.000345141
0.00770609
0.0094385
0.00762315
0.00514127
0.00754826
0.0064795
0.00749497
0.000578567
0.00746555
0.00213263
0.00744573
-0.0015362
0.00743591
0.000187665
0.00742619
-0.00250988
0.00742668
-0.00113898
0.007434
-0.00285964
0.0074536
-0.00133021
0.00747576
-0.0018918
0.00749601
-0.000150201
0.00750835
-1.22933e-06
0.00751206
0.00159287
0.00750866
0.00200555
0.00749803
0.00330615
0.00748226
0.00371559
0.00746083
0.00453248
0.00743603
0.0046172
0.00740873
0.00474272
0.007382
0.00435112
0.00735772
0.00396698
0.00733815
0.00342841
0.00732378
0.00297973
0.007314
0.00271447
0.00730694
0.00251835
0.00729997
0.00265633
0.00729136
0.00265447
0.00727908
0.00300167
0.00726366
0.0029111
0.00724315
0.00331029
0.00722028
0.00295005
0.00719069
0.00328515
0.00716044
0.00248531
0.00711929
0.00260741
0.00708119
0.00113145
0.0070211
0.000628304
0.00697168
-0.00186726
0.0068653
-0.00358201
-0.00797765
0.00749894
0.0259141
0.00746215
0.0215419
0.00745395
0.0177088
0.00745121
0.0140637
0.00743952
0.00938718
0.00740955
0.00392842
0.0073605
-0.00187315
0.00729872
-0.00712674
0.00723457
-0.0112155
0.00718318
-0.0136899
0.00715858
-0.0142421
0.0071634
-0.0130926
0.00718332
-0.0110546
0.00720263
-0.00923438
0.00721641
-0.00794021
0.00722741
-0.00709205
0.00723762
-0.00634177
0.00724804
-0.0057713
0.00725803
-0.00515237
0.00726789
-0.00470865
0.00727675
-0.00415626
0.00728523
-0.00380856
0.00729222
-0.00325596
0.00729888
-0.00301677
0.00730365
-0.00245053
0.0073083
-0.00231387
0.00731069
-0.0017095
0.00731341
-0.00170107
0.00731337
-0.00100702
0.00731448
-0.00119561
0.00731217
-0.00035756
0.0073121
-0.000775266
0.00730752
0.000288849
0.00730654
-0.000451678
0.00729926
0.000928731
0.00729734
-0.000232005
0.00728663
0.00158885
0.00728351
-0.000163975
0.00726739
0.00221799
0.00726055
-0.000370693
0.00723634
0.00234511
0.00722717
-0.00168614
0.00720275
0.000812189
0.00720522
-0.00498712
0.00720048
-0.00256867
0.00723665
-0.00881716
0.0072738
-0.00392095
0.00734569
-0.00632077
0.00737994
0.00354783
0.00742702
0.00559032
0.00746366
0.0149615
0.00755666
0.0365161
0.00766836
0.0623237
0.00781696
-0.0180055
0.00786806
-0.0500341
0.00789414
-0.0294435
0.00785112
-0.00476804
0.00779583
0.000400436
0.00771405
0.00952028
0.00763242
0.00522289
0.00755756
0.00655437
0.00750205
0.000634078
0.00747062
0.00216406
0.00744779
-0.00151338
0.00743626
0.000199196
0.00742334
-0.00249696
0.00742191
-0.00113754
0.00742669
-0.00286441
0.00744621
-0.00134973
0.00746892
-0.00191451
0.00749155
-0.000172827
0.0075058
-1.54789e-05
0.00751144
0.00158723
0.00750916
0.00200783
0.00749944
0.00331587
0.00748421
0.00373082
0.00746316
0.00455353
0.00743848
0.00464189
0.00741104
0.00477016
0.00738386
0.00437831
0.00735887
0.00399196
0.00733846
0.00344882
0.00732331
0.00299488
0.00731297
0.00272481
0.00730563
0.00252569
0.00729866
0.0026633
0.00729021
0.00266293
0.00727818
0.00301369
0.007263
0.00292628
0.00724272
0.00333057
0.00721999
0.00297278
0.00719056
0.00331458
0.00716039
0.00251548
0.00711928
0.00264852
0.0070811
0.00116964
0.00702058
0.000688823
0.00697046
-0.00181713
0.00686195
-0.0034735
-0.00788367
0.00749941
0.0259904
0.00746352
0.0215778
0.00745656
0.0177157
0.00745502
0.0140653
0.00744416
0.00939804
0.00741445
0.00395813
0.00736501
-0.0018237
0.0073022
-0.00706393
0.00723641
-0.0111497
0.00718298
-0.0136365
0.00715639
-0.0142155
0.00715993
-0.0130961
0.00717948
-0.0110742
0.00719883
-0.00925374
0.00721264
-0.00795401
0.00722356
-0.00710296
0.00723367
-0.00635187
0.00724399
-0.00578163
0.00725392
-0.0051623
0.00726373
-0.00471845
0.00727255
-0.00416508
0.00728101
-0.00381702
0.00728798
-0.00326293
0.00729462
-0.00302341
0.00729939
-0.00245529
0.00730403
-0.00231852
0.00730642
-0.00171188
0.00730915
-0.0017038
0.00730911
-0.00100699
0.00731024
-0.00119673
0.00730794
-0.000355263
0.0073079
-0.000775224
0.00730334
0.000293403
0.0073024
-0.00045074
0.00729517
0.000935969
0.0072933
-0.000230141
0.00728264
0.00159951
0.0072796
-0.000160934
0.00726357
0.00223402
0.0072568
-0.000363926
0.00723257
0.00236934
0.00722325
-0.00167682
0.00719846
0.000836981
0.00720039
-0.00498905
0.00719486
-0.00256314
0.00723017
-0.00885248
0.007267
-0.00395778
0.00733961
-0.00639339
0.00737555
0.00351189
0.00742374
0.00554213
0.00746099
0.0149243
0.00755602
0.0364211
0.00767075
0.062209
0.00781826
-0.018153
0.00786689
-0.0500827
0.00789377
-0.0294703
0.0078535
-0.00472777
0.00780115
0.000452796
0.0077223
0.00959912
0.00764215
0.00530304
0.00756748
0.00662904
0.00750994
0.00069161
0.00747655
0.00219746
0.00745072
-0.00148756
0.00743733
0.000212583
0.00742104
-0.00248067
0.00741738
-0.00113388
0.00741923
-0.00286626
0.00743832
-0.00136883
0.00746134
-0.00193754
0.00748643
-0.000197915
0.0075028
-3.1852e-05
0.00751072
0.00157932
0.00750977
0.00200878
0.00750113
0.00332451
0.0074865
0.00374545
0.00746591
0.00457412
0.00744137
0.00466642
0.00741382
0.0047977
0.00738616
0.00440596
0.00736043
0.0040177
0.00733912
0.00347013
0.00732311
0.00301088
0.00731214
0.00273579
0.00730447
0.00253335
0.00729747
0.0026703
0.00728917
0.00267123
0.00727741
0.00302545
0.00726247
0.00294123
0.00724244
0.0033506
0.00721989
0.00299533
0.00719064
0.00334382
0.00716056
0.00254556
0.00711952
0.00268956
0.00708128
0.00120788
0.00702036
0.00074974
0.00696955
-0.00176632
0.00685896
-0.00336291
-0.00778722
0.00749989
0.0260663
0.00746493
0.0216127
0.00745923
0.0177214
0.0074589
0.0140656
0.00744889
0.00940805
0.00741947
0.00398755
0.00736963
-0.00177387
0.00730579
-0.00700009
0.00723837
-0.0110823
0.00718286
-0.0135809
0.00715424
-0.0141869
0.00715646
-0.0130983
0.0071756
-0.0110933
0.00719501
-0.00927315
0.00720885
-0.00796785
0.00721969
-0.00711381
0.0072297
-0.00636188
0.00723995
-0.00579187
0.00724981
-0.00517216
0.00725957
-0.00472822
0.00726836
-0.00417386
0.00727679
-0.00382545
0.00728375
-0.00326989
0.00729037
-0.00303004
0.00729513
-0.00246005
0.00729978
-0.00232317
0.00730216
-0.00171427
0.0073049
-0.00170654
0.00730487
-0.00100696
0.00730602
-0.00119788
0.00730374
-0.000352984
0.00730372
-0.00077521
0.0072992
0.000297928
0.00729831
-0.000449848
0.00729111
0.000943161
0.00728931
-0.000228335
0.0072787
0.00161012
0.00727575
-0.000157976
0.0072598
0.00224996
0.00725312
-0.000357242
0.00722887
0.00239359
0.00721941
-0.00166736
0.00719425
0.000862149
0.00719561
-0.00499042
0.00718926
-0.00255679
0.00722367
-0.00888688
0.00726011
-0.00399422
0.00733342
-0.0064667
0.00737112
0.00347419
0.00742048
0.00549277
0.00745838
0.0148864
0.0075554
0.036324
0.00767306
0.0620914
0.00781934
-0.0182993
0.00786543
-0.0501288
0.00789319
-0.0294981
0.00785585
-0.00469043
0.00780659
0.000502055
0.00773083
0.00967488
0.0076523
0.00538157
0.00757798
0.00670335
0.00751864
0.000750951
0.00748334
0.00223276
0.00745456
-0.00145878
0.0074392
0.000227945
0.00741942
-0.00246088
0.00741326
-0.00112772
0.00741179
-0.00286478
0.00743004
-0.00138707
0.00745305
-0.00196055
0.0074806
-0.000225464
0.00749928
-5.05332e-05
0.00750981
0.00156879
0.00751045
0.00200813
0.00750309
0.00333187
0.00748918
0.00375936
0.00746911
0.0045942
0.00744475
0.00469078
0.0074171
0.00482535
0.00738897
0.00443409
0.00736246
0.00404421
0.00734018
0.00349241
0.00732323
0.00302783
0.00731153
0.00274748
0.00730346
0.00254142
0.0072964
0.00267737
0.00728824
0.00267939
0.00727676
0.00303693
0.00726208
0.0029559
0.00724233
0.00337035
0.00721997
0.00301769
0.00719092
0.00337287
0.00716096
0.00257552
0.00712002
0.00273049
0.00708173
0.00124617
0.00702046
0.000811016
0.00696897
-0.00171484
0.00685638
-0.00325032
-0.00768833
0.00750038
0.0261417
0.00746636
0.0216468
0.00746194
0.0177259
0.00746286
0.0140647
0.00745372
0.0094172
0.00742459
0.00401668
0.00737438
-0.00172365
0.0073095
-0.00693521
0.00724043
-0.0110132
0.00718284
-0.0135234
0.00715215
-0.0141562
0.00715299
-0.0130992
0.0071717
-0.011112
0.00719116
-0.00929261
0.00720504
-0.00798173
0.00721583
-0.00712459
0.00722573
-0.00637179
0.00723589
-0.00580203
0.0072457
-0.00518197
0.00725541
-0.00473793
0.00726417
-0.00418262
0.00727258
-0.00383386
0.00727952
-0.00327682
0.00728614
-0.00303666
0.00729089
-0.0024648
0.00729554
-0.00232782
0.00729793
-0.00171666
0.00730068
-0.00170929
0.00730066
-0.00100695
0.00730182
-0.00119904
0.00729957
-0.000350728
0.00729958
-0.000775225
0.00729509
0.000302417
0.00729425
-0.000449004
0.00728711
0.000950302
0.00728536
-0.000226591
0.00727483
0.00162066
0.00727196
-0.000155108
0.00725611
0.00226581
0.00724952
-0.000350651
0.00722527
0.00241784
0.00721567
-0.00165777
0.00719012
0.000887698
0.0071909
-0.0049912
0.00718371
-0.0025496
0.00721714
-0.00892031
0.00725313
-0.00403022
0.00732709
-0.00654066
0.00736663
0.00343465
0.00741724
0.00544215
0.00745582
0.0148478
0.00755478
0.0362251
0.00767527
0.0619709
0.00782019
-0.0184442
0.00786368
-0.0501723
0.00789237
-0.0295268
0.00785813
-0.00465619
0.00781215
0.000548041
0.00773963
0.0097474
0.00766286
0.00545834
0.00758906
0.00677715
0.00752812
0.000811887
0.007491
0.00226988
0.00745937
-0.00142716
0.00744194
0.000245377
0.00741861
-0.00243755
0.00740971
-0.00111881
0.00740458
-0.00285965
0.00742152
-0.00140401
0.00744412
-0.00198315
0.00747401
-0.000255352
0.00749513
-7.1652e-05
0.00750863
0.00155528
0.00751116
0.00200561
0.00750534
0.00333769
0.00749227
0.00377244
0.00747279
0.00461367
0.00744866
0.00471492
0.00742094
0.00485306
0.00739233
0.0044627
0.007365
0.00407153
0.00734169
0.00351573
0.0073237
0.00304582
0.00731119
0.00275999
0.00730264
0.00254997
0.00729547
0.00268454
0.00728744
0.00268742
0.00727624
0.00304812
0.00726185
0.0029703
0.0072424
0.00338981
0.00722025
0.00303983
0.00719144
0.00340168
0.00716161
0.00260535
0.00712081
0.0027713
0.00708248
0.00128449
0.00702089
0.000872613
0.00696876
-0.00166271
0.00685423
-0.00313579
-0.007587
0.00750089
0.0262166
0.00746783
0.0216798
0.0074647
0.017729
0.00746689
0.0140625
0.00745863
0.00942546
0.00742983
0.00404548
0.00737924
-0.00167307
0.00731333
-0.0068693
0.00724262
-0.0109425
0.00718291
-0.0134636
0.00715011
-0.0141234
0.00714953
-0.0130986
0.00716778
-0.0111303
0.00718729
-0.00931211
0.00720123
-0.00799567
0.00721195
-0.00713532
0.00722176
-0.0063816
0.00723184
-0.00581211
0.00724158
-0.00519171
0.00725126
-0.0047476
0.00725998
-0.00419134
0.00726837
-0.00384226
0.00727529
-0.00328375
0.00728191
-0.00304327
0.00728666
-0.00246955
0.00729131
-0.00233247
0.00729371
-0.00171905
0.00729647
-0.00171205
0.00729647
-0.00100695
0.00729765
-0.00120022
0.00729542
-0.000348499
0.00729547
-0.000775277
0.00729102
0.000306866
0.00729023
-0.000448211
0.00728315
0.000957386
0.00728147
-0.000224914
0.007271
0.00163112
0.00726823
-0.000152333
0.00725249
0.00228154
0.007246
-0.000344161
0.00722175
0.0024421
0.00721202
-0.00164803
0.00718608
0.000913633
0.00718627
-0.00499138
0.00717819
-0.00254152
0.00721059
-0.00895272
0.00724606
-0.00406568
0.00732063
-0.00661523
0.00736207
0.00339322
0.00741401
0.00539021
0.00745331
0.0148085
0.00755417
0.0361242
0.0076774
0.0618476
0.0078208
-0.0185876
0.00786162
-0.0502131
0.0078913
-0.0295565
0.00786034
-0.00462524
0.0078178
0.000590581
0.00774868
0.00981652
0.00767382
0.00553319
0.00760067
0.00685029
0.00753836
0.000874204
0.0074995
0.00230874
0.00746515
-0.00139281
0.00744559
0.000264941
0.00741873
-0.00241069
0.00740687
-0.00110695
0.00739782
-0.0028506
0.00741296
-0.00141915
0.00743471
-0.0020049
0.00746668
-0.000287324
0.00749028
-9.52511e-05
0.00750709
0.00153847
0.00751184
0.00200086
0.00750785
0.00334168
0.00749578
0.00378451
0.00747702
0.00463243
0.00745315
0.00473879
0.00742539
0.00488082
0.0073963
0.0044918
0.00736813
0.00409969
0.00734371
0.00354015
0.00732459
0.00306494
0.00731116
0.00277342
0.00730205
0.00255908
0.00729472
0.00269187
0.00728678
0.00269536
0.00727588
0.00305903
0.00726178
0.0029844
0.00724266
0.00340893
0.00722075
0.00306174
0.0071922
0.00343024
0.00716253
0.00263502
0.00712188
0.00281194
0.00708356
0.00132282
0.00702168
0.000934489
0.00696892
-0.00160996
0.00685255
-0.00301941
-0.00748326
0.00750141
0.0262909
0.00746932
0.0217119
0.00746752
0.0177308
0.007471
0.014059
0.00746365
0.00943281
0.00743518
0.00407395
0.00738423
-0.00162212
0.0073173
-0.00680236
0.00724493
-0.0108702
0.00718309
-0.0134018
0.00714813
-0.0140884
0.00714608
-0.0130966
0.00716383
-0.011148
0.00718339
-0.00933167
0.00719739
-0.00800968
0.00720807
-0.00714599
0.00721779
-0.00639132
0.00722778
-0.0058221
0.00723747
-0.0052014
0.0072471
-0.00475723
0.0072558
-0.00420004
0.00726417
-0.00385063
0.00727108
-0.00329066
0.00727769
-0.00304988
0.00728244
-0.00247429
0.00728709
-0.00233712
0.0072895
-0.00172146
0.00729228
-0.00171483
0.0072923
-0.00100697
0.00729351
-0.00120142
0.00729131
-0.000346297
0.0072914
-0.000775366
0.007287
0.000311271
0.00728626
-0.000447475
0.00727924
0.000964409
0.00727763
-0.000223309
0.00726724
0.00164151
0.00726457
-0.000149659
0.00724895
0.00229717
0.00724257
-0.00033778
0.00721833
0.00246633
0.00720847
-0.00163817
0.00718214
0.000939958
0.0071817
-0.00499094
0.00717271
-0.00253253
0.00720403
-0.00898403
0.0072389
-0.00410055
0.00731403
-0.00669036
0.00735743
0.00334981
0.00741079
0.00533685
0.00745085
0.0147685
0.00755357
0.0360215
0.00767944
0.0617218
0.00782117
-0.0187294
0.00785922
-0.0502511
0.00788994
-0.0295872
0.00786244
-0.00459774
0.00782353
0.000629496
0.00775796
0.00988209
0.00768514
0.00560601
0.0076128
0.00692263
0.00754931
0.000937695
0.00750882
0.00234923
0.00747191
-0.0013559
0.00745018
0.000286669
0.00741986
-0.00238037
0.00740489
-0.00109197
0.00739173
-0.00283743
0.00740461
-0.00143202
0.007425
-0.00202529
0.00745867
-0.000320991
0.00748468
-0.000121261
0.00750508
0.00151807
0.0075124
0.00199354
0.00751059
0.00334348
0.00749972
0.00379537
0.00748181
0.00465034
0.00745827
0.00476233
0.00743051
0.00490859
0.00740094
0.00452136
0.00737191
0.00412873
0.00734631
0.00356575
0.00732596
0.00308529
0.0073115
0.00278788
0.00730172
0.00256886
0.00729416
0.00269943
0.0072863
0.00270322
0.00727569
0.00306963
0.0072619
0.00299818
0.00724313
0.0034277
0.00722148
0.00308338
0.00719322
0.0034585
0.00716372
0.00266452
0.00712328
0.00285239
0.00708497
0.00136113
0.00702286
0.000996599
0.0069695
-0.00155661
0.00685137
-0.00290128
-0.00737712
0.00750194
0.0263647
0.00747085
0.021743
0.0074704
0.0177312
0.00747519
0.0140542
0.00746877
0.00943923
0.00744065
0.00410207
0.00738935
-0.00157083
0.0073214
-0.00673441
0.00724737
-0.0107961
0.00718339
-0.0133378
0.00714622
-0.0140512
0.00714264
-0.013093
0.00715986
-0.0111653
0.00717946
-0.00935127
0.00719354
-0.00802376
0.00720417
-0.00715662
0.0072138
-0.00640095
0.00722372
-0.00583202
0.00723335
-0.00521103
0.00724294
-0.00476683
0.00725162
-0.00420872
0.00725997
-0.00385898
0.00726688
-0.00329756
0.00727348
-0.00305648
0.00727823
-0.00247905
0.0072829
-0.00234179
0.00728532
-0.00172388
0.00728812
-0.00171763
0.00728817
-0.00100702
0.0072894
-0.00120266
0.00728723
-0.000344128
0.00728737
-0.000775498
0.00728301
0.000315627
0.00728234
-0.0004468
0.00727538
0.000971364
0.00727385
-0.00022178
0.00726355
0.00165182
0.00726098
-0.000147091
0.00724548
0.00231266
0.00723922
-0.000331519
0.00721501
0.00249055
0.00720502
-0.00162818
0.0071783
0.000966677
0.00717722
-0.00498986
0.00716728
-0.0025226
0.00719745
-0.0090142
0.00723165
-0.00413475
0.00730727
-0.00676598
0.00735271
0.00330437
0.00740757
0.00528199
0.00744845
0.0147276
0.00755298
0.035917
0.00768139
0.0615933
0.00782129
-0.0188692
0.00785648
-0.0502863
0.00788828
-0.029619
0.00786442
-0.00457387
0.00782931
0.000664605
0.00776745
0.00994395
0.00769681
0.00567664
0.00762541
0.00699403
0.00756094
0.00100216
0.00751894
0.00239124
0.00747962
-0.00131658
0.00745572
0.000310562
0.00742207
-0.00234672
0.00740388
-0.00107378
0.0073865
-0.00282005
0.00739669
-0.00144221
0.00741526
-0.00204386
0.00745012
-0.000355848
0.00747834
-0.000149482
0.00750249
0.00149392
0.00751273
0.0019833
0.00751352
0.0033427
0.00750411
0.00380478
0.00748721
0.00466725
0.00746408
0.00478545
0.00743636
0.00493631
0.00740634
0.00455139
0.00737642
0.00415865
0.00734958
0.00359258
0.00732788
0.00310699
0.00731227
0.0028035
0.0073017
0.00257942
0.00729383
0.0027073
0.007286
0.00271105
0.00727568
0.00307995
0.00726222
0.00301165
0.00724383
0.00344609
0.00722247
0.00310475
0.00719453
0.00348644
0.00716523
0.00269382
0.00712502
0.0028926
0.00708674
0.00139941
0.00702445
0.00105889
0.00697052
-0.00150268
0.00685074
-0.00278149
-0.00726861
0.00750249
0.026438
0.00747241
0.0217731
0.00747332
0.0177303
0.00747946
0.0140481
0.00747398
0.00944471
0.00744623
0.00412982
0.0073946
-0.0015192
0.00732563
-0.00666543
0.00724995
-0.0107204
0.0071838
-0.0132717
0.00714439
-0.0140118
0.00713921
-0.0130878
0.00715586
-0.0111819
0.0071755
-0.00937091
0.00718968
-0.00803794
0.00720028
-0.00716722
0.00720982
-0.00641049
0.00721966
-0.00584186
0.00722923
-0.0052206
0.00723879
-0.00477639
0.00724744
-0.00421736
0.00725578
-0.00386732
0.00726268
-0.00330446
0.00726928
-0.00306308
0.00727404
-0.0024838
0.00727872
-0.00234647
0.00728116
-0.00172632
0.00728398
-0.00172045
0.00728405
-0.00100709
0.00728532
-0.00120393
0.00728319
-0.000341997
0.00728337
-0.000775674
0.00727907
0.000319928
0.00727846
-0.000446191
0.00727157
0.00097825
0.00727013
-0.000220334
0.00725991
0.00166203
0.00725746
-0.000144635
0.00724209
0.00232803
0.00723596
-0.000325385
0.00721178
0.00251472
0.00720167
-0.00161807
0.00717456
0.000993792
0.00717282
-0.00498812
0.00716191
-0.00251169
0.00719087
-0.00904316
0.00722431
-0.00416819
0.00730035
-0.00684202
0.00734788
0.00325683
0.00740434
0.00522554
0.0074461
0.0146858
0.00755241
0.0358107
0.00768326
0.0614625
0.00782115
-0.0190071
0.00785338
-0.0503186
0.00788629
-0.0296519
0.00786624
-0.00455383
0.00783512
0.000695723
0.00777713
0.0100019
0.00770881
0.00574497
0.00763848
0.00706435
0.00757322
0.00106742
0.00752981
0.00243465
0.00748825
-0.00127503
0.00746221
0.000336602
0.00742537
-0.00230988
0.00740393
-0.00105234
0.00738232
-0.00279843
0.00738946
-0.00144935
0.00740577
-0.00206016
0.00744123
-0.000391312
0.00747134
-0.00017959
0.00749927
0.00146599
0.00751274
0.00196982
0.00751655
0.00333889
0.00750892
0.00381241
0.00749324
0.00468292
0.00747064
0.00480806
0.00744302
0.00496392
0.00741255
0.00458185
0.00738173
0.00418947
0.00735359
0.00362072
0.00733045
0.00313013
0.00731354
0.00282041
0.00730206
0.00259091
0.00729379
0.00271557
0.00728593
0.00271891
0.00727589
0.00308998
0.00726275
0.00302478
0.00724478
0.00346406
0.00722372
0.00312582
0.00719614
0.00351402
0.00716706
0.0027229
0.00712712
0.00293254
0.0070889
0.00143764
0.00702648
0.0011213
0.00697202
-0.00144822
0.00685069
-0.00266016
-0.00715776
0.00750305
0.0265107
0.007474
0.0218021
0.00747631
0.017728
0.00748381
0.0140406
0.0074793
0.00944921
0.00745195
0.00415718
0.00739999
-0.00146725
0.00733001
-0.00659545
0.00725266
-0.0106431
0.00718434
-0.0132033
0.00714264
-0.0139701
0.00713581
-0.013081
0.00715184
-0.0111979
0.00717151
-0.00939058
0.00718579
-0.00805221
0.00719637
-0.0071778
0.00720583
-0.00641995
0.00721559
-0.00585162
0.00722512
-0.00523013
0.00723464
-0.00478591
0.00724327
-0.00422599
0.0072516
-0.00387565
0.0072585
-0.00331136
0.0072651
-0.00306969
0.00726987
-0.00248857
0.00727456
-0.00235116
0.00727702
-0.00172878
0.00727987
-0.0017233
0.00727997
-0.0010072
0.00728128
-0.00120524
0.00727919
-0.000339909
0.00727942
-0.000775901
0.00727517
0.000324173
0.00727463
-0.00044565
0.00726783
0.000985055
0.00726647
-0.000218975
0.00725635
0.00167215
0.00725401
-0.000142297
0.00723879
0.00234325
0.0072328
-0.00031939
0.00720867
0.00253885
0.00719843
-0.00160783
0.00717092
0.00102131
0.00716851
-0.00498571
0.00715659
-0.00249977
0.00718428
-0.00907085
0.00721688
-0.00420079
0.00729326
-0.0069184
0.00734295
0.00320714
0.00740109
0.00516739
0.00744381
0.0146431
0.00755186
0.0357026
0.00768503
0.0613293
0.00782075
-0.0191429
0.00784989
-0.0503477
0.00788392
-0.0296859
0.00786787
-0.00453778
0.00784093
0.000722663
0.00778698
0.0100559
0.0077211
0.00581085
0.00765197
0.00713348
0.0075861
0.00113329
0.0075414
0.00247935
0.00749777
-0.0012314
0.00746963
0.000364747
0.00742977
-0.00227003
0.00740509
-0.00102766
0.0073793
-0.00277264
0.00738313
-0.00145318
0.00739679
-0.00207382
0.00743225
-0.000426768
0.0074638
-0.000211149
0.00749537
0.00143443
0.00751231
0.00195287
0.00751958
0.00333163
0.0075141
0.00381789
0.00749993
0.00469709
0.00747797
0.00483002
0.00745055
0.00499135
0.00741967
0.00461273
0.00738795
0.00422119
0.00735845
0.00365021
0.00733375
0.00315483
0.0073154
0.00283876
0.00730285
0.00260346
0.00729407
0.00272436
0.00728611
0.00272687
0.00727634
0.00309975
0.00726354
0.00303759
0.007246
0.0034816
0.00722526
0.00314656
0.00719807
0.0035412
0.00716924
0.00275174
0.00712961
0.00297216
0.00709147
0.00147578
0.007029
0.00118378
0.00697402
-0.00139324
0.00685128
-0.00253742
-0.00704459
0.00750363
0.0265828
0.00747564
0.0218301
0.00747935
0.0177243
0.00748824
0.0140317
0.00748473
0.00945271
0.00745778
0.00418413
0.00740552
-0.00141499
0.00733454
-0.00652446
0.00725553
-0.0105641
0.00718501
-0.0131328
0.00714099
-0.0139261
0.00713244
-0.0130724
0.00714781
-0.0112133
0.0071675
-0.00941027
0.00718188
-0.0080666
0.00719245