/*--------------------------------*- C++ -*----------------------------------*\
| =========                 |                                                 |
| \\      /  F ield         | OpenFOAM: The Open Source CFD Toolbox           |
|  \\    /   O peration     | Version:  2412                                  |
|   \\  /    A nd           | Website:  www.openfoam.com                      |
|    \\/     M anipulation  |                                                 |
\*---------------------------------------------------------------------------*/
FoamFile
{
    version     2.0;
    format      ascii;
    arch        "LSB;label=32;scalar=64";
    class       volVectorField;
    location    "0.5";
    object      U;
}
// * * * * * * * * * * * * * * * * * * * * * * * * * * * * * * * * * * * * * //

dimensions      [0 1 -1 0 0 0 0];

internalField   nonuniform List<vector> 
13077
(
(100.037 -1.7626 0)
(100.697 -4.71751 8.28673e-17)
(101.852 -7.4481 -7.78016e-17)
(103.308 -10.2002 0)
(104.728 -13.6771 0)
(106.071 -17.7015 0)
(107.154 -21.9049 0)
(108.113 -25.7021 0)
(108.997 -28.6834 0)
(110.038 -30.5687 -1.0629e-16)
(111.459 -31.2119 0)
(113.418 -30.8239 0)
(115.805 -29.9881 0)
(118.29 -29.372 -8.12217e-17)
(120.802 -29.1264 0)
(123.309 -29.1738 0)
(125.96 -29.3185 6.57975e-17)
(128.663 -29.5855 6.36479e-17)
(131.562 -29.8687 2.69487e-21)
(134.493 -30.2756 6.0193e-17)
(137.665 -30.6626 0)
(140.835 -31.1955 5.6892e-17)
(144.314 -31.6672 -5.53069e-17)
(147.742 -32.3271 -5.35354e-17)
(151.578 -32.8738 0)
(155.29 -33.6761 0)
(159.551 -34.2926 -4.85543e-17)
(163.58 -35.2642 4.66393e-17)
(168.363 -35.947 3.12348e-21)
(172.746 -37.1262 8.62258e-17)
(178.181 -37.8706 0)
(182.963 -39.3077 0)
(189.228 -40.1014 0)
(194.45 -41.8573 3.58703e-17)
(201.773 -42.6857 -3.46646e-17)
(207.46 -44.8412 0)
(216.15 -45.7003 3.10976e-17)
(222.315 -48.3552 0)
(232.775 -49.2791 -2.74362e-17)
(100.038 -1.78133 0)
(100.707 -4.76392 1.19281e-20)
(101.876 -7.51623 7.77935e-17)
(103.35 -10.2769 -7.49908e-17)
(104.784 -13.7529 0)
(106.135 -17.7699 0)
(107.217 -21.9635 0)
(108.167 -25.7533 -9.21253e-17)
(109.031 -28.732 0)
(110.045 -30.6228 1.0647e-16)
(111.435 -31.2787 0)
(113.369 -30.905 1.02805e-16)
(115.745 -30.0768 0)
(118.23 -29.4612 -3.22369e-21)
(120.741 -29.2141 0)
(123.246 -29.2617 0)
(125.893 -29.4076 6.59287e-17)
(128.592 -29.6764 0)
(131.489 -29.9612 -6.2004e-17)
(134.417 -30.37 2.96248e-21)
(137.586 -30.7585 0)
(140.754 -31.2936 -5.69696e-17)
(144.23 -31.7667 -2.88011e-21)
(147.656 -32.429 0)
(151.489 -32.9773 0)
(155.199 -33.7823 0)
(159.457 -34.4004 -4.86289e-17)
(163.483 -35.3753 0)
(168.263 -36.0599 -4.51989e-17)
(172.644 -37.2432 -4.31905e-17)
(178.076 -37.9894 -4.17618e-17)
(182.855 -39.4318 3.96251e-17)
(189.116 -40.2273 3.82959e-17)
(194.335 -41.9896 -3.59641e-17)
(201.655 -42.8196 0)
(207.339 -44.9831 3.21862e-17)
(216.025 -45.8433 -6.24205e-17)
(222.186 -48.5079 -2.82751e-17)
(232.644 -49.4319 5.51221e-17)
(239.228 -52.768 -6.46453e-21)
(251.937 -54.0065 0)
(258.936 -58.4082 1.95505e-17)
(274.824 -60.5222 0)
(282.825 -66.3524 3.05449e-17)
(303.656 -69.6318 -3.45919e-17)
(314.092 -76.2945 1.14584e-17)
(342.544 -79.6811 -6.57561e-21)
(357.426 -84.8396 0)
(395.125 -87.171 0)
(412.75 -90.1063 6.61941e-19)
(460.943 -95.1856 -6.49223e-18)
(488.21 -87.1272 0)
(556.955 -93.8578 -1.59635e-18)
(614.502 -2.18312 0)
(571.98 46.0282 -2.66458e-18)
(554.791 60.6144 1.60854e-17)
(511.98 70.0435 2.47135e-18)
(490.991 70.3656 1.34709e-17)
(453.982 70.9394 8.58868e-18)
(434.343 65.332 6.78779e-18)
(404.518 61.9475 1.94148e-17)
(389.055 55.9562 0)
(367.376 53.9248 3.51471e-17)
(355.601 49.8702 2.92037e-17)
(338.96 48.6362 0)
(328.663 45.4035 -4.71385e-17)
(315.275 44.4037 -6.09655e-17)
(306.353 42.0187 0)
(295.745 41.5073 -9.31932e-21)
(100.039 -1.80035 0)
(100.717 -4.81096 -1.65575e-16)
(101.9 -7.58525 -7.77637e-17)
(103.393 -10.3545 7.49846e-17)
(104.84 -13.8294 0)
(106.201 -17.8386 0)
(107.282 -22.0221 -8.46737e-17)
(108.222 -25.8041 9.2205e-17)
(109.067 -28.7799 0)
(110.053 -30.6758 0)
(111.411 -31.3445 0)
(113.319 -30.9853 -1.03131e-16)
(115.685 -30.1651 9.26457e-17)
(118.168 -29.5502 8.17622e-17)
(120.679 -29.3017 0)
(123.182 -29.3493 0)
(125.825 -29.4964 -6.60692e-17)
(128.522 -29.7671 0)
(131.415 -30.0535 0)
(134.34 -30.4643 2.95888e-21)
(137.507 -30.8543 5.87828e-17)
(140.672 -31.3914 5.70618e-17)
(144.146 -31.8661 5.54642e-17)
(147.57 -32.5307 0)
(151.4 -33.0806 0)
(155.108 -33.8883 0)
(159.363 -34.5081 -3.07035e-21)
(163.387 -35.4864 0)
(168.164 -36.1727 4.52838e-17)
(172.542 -37.3601 0)
(177.971 -38.1082 4.18481e-17)
(182.747 -39.5558 4.66188e-21)
(189.005 -40.3531 -3.83924e-17)
(194.221 -42.122 0)
(201.538 -42.9535 3.48818e-17)
(207.218 -45.125 -3.22983e-17)
(215.902 -45.9863 3.13316e-17)
(222.059 -48.6608 5.68032e-17)
(232.515 -49.5849 -2.76957e-17)
(239.094 -52.9321 2.41715e-17)
(251.8 -54.1699 -2.38404e-17)
(258.785 -58.5853 1.9702e-17)
(274.663 -60.7015 2.02056e-17)
(282.631 -66.5501 -1.54257e-17)
(303.441 -69.8386 -2.36442e-21)
(313.818 -76.5252 -1.16295e-17)
(342.246 -79.9307 1.62246e-17)
(357.101 -85.1179 -6.86913e-18)
(394.875 -87.4722 -1.27637e-17)
(412.529 -90.4406 -6.75504e-19)
(460.767 -95.5669 6.59284e-18)
(488.021 -87.5648 0)
(557.05 -94.4636 1.59976e-18)
(614.825 -2.2419 0)
(571.983 46.2867 -2.3174e-20)
(554.761 60.896 3.49638e-21)
(512.059 70.3654 2.50486e-18)
(491.211 70.7049 0)
(454.335 71.2953 0)
(434.788 65.6867 0)
(404.948 62.2769 0)
(389.378 56.244 -9.13285e-18)
(367.546 54.1649 -3.77353e-17)
(355.661 50.0803 0)
(338.929 48.8207 0)
(328.555 45.5688 0)
(315.091 44.5469 6.85221e-17)
(306.115 42.1438 0)
(295.497 41.6211 -7.73089e-17)
(287.837 40.1665 0)
(278.916 40.0128 -7.43797e-17)
(271.609 39.0472 -6.81163e-17)
(263.388 38.8903 0)
(256.225 38.1175 -5.70646e-17)
(248.582 37.8548 0)
(241.695 37.1232 0)
(234.582 36.6245 0)
(228.043 35.7244 4.62826e-17)
(221.469 34.8655 -4.64647e-17)
(215.432 33.7464 -4.69602e-17)
(209.54 32.6539 4.76525e-17)
(204.213 31.5453 4.80465e-17)
(199.106 30.5276 0)
(194.517 29.7025 4.78635e-17)
(190.048 28.9366 4.7432e-17)
(185.968 28.4402 0)
(181.822 27.8307 -4.67535e-17)
(178.007 27.512 -4.6744e-17)
(173.97 26.8681 4.67331e-17)
(170.349 26.5995 4.70979e-17)
(166.331 25.7838 4.73074e-17)
(162.951 25.5053 0)
(158.839 24.3927 3.88219e-22)
(155.798 24.0172 -4.94547e-17)
(151.359 22.4152 0)
(148.877 21.7026 0)
(143.579 19.3344 0)
(142.112 17.9132 0)
(134.452 13.9756 -6.46646e-17)
(100.04 -1.81966 0)
(100.728 -4.85861 8.27438e-17)
(101.925 -7.65516 7.77547e-17)
(103.436 -10.4331 7.49939e-17)
(104.898 -13.9068 0)
(106.267 -17.9079 7.86723e-17)
(107.348 -22.081 8.47323e-17)
(108.278 -25.8547 -9.22918e-17)
(109.104 -28.8271 -1.00423e-16)
(110.063 -30.7278 0)
(111.388 -31.4091 -1.08636e-16)
(113.27 -31.0647 0)
(115.624 -30.253 -1.85992e-16)
(118.107 -29.639 0)
(120.617 -29.389 0)
(123.117 -29.4367 -6.92514e-17)
(125.757 -29.585 0)
(128.451 -29.8576 0)
(131.341 -30.1456 6.2243e-17)
(134.264 -30.5583 -6.04992e-17)
(137.428 -30.95 -5.88851e-17)
(140.591 -31.4892 3.16023e-21)
(144.062 -31.9654 5.55594e-17)
(147.484 -32.6323 0)
(151.311 -33.1838 -5.2191e-17)
(155.017 -33.9943 0)
(159.269 -34.6157 4.87881e-17)
(163.291 -35.5973 0)
(168.065 -36.2854 -4.53692e-17)
(172.44 -37.477 0)
(177.866 -38.2269 0)
(182.64 -39.6798 -3.98186e-17)
(188.895 -40.4789 0)
(194.108 -42.2543 0)
(201.422 -43.0874 -3.49982e-17)
(207.099 -45.267 3.24304e-17)
(215.78 -46.1295 0)
(221.933 -48.8138 6.2419e-21)
(232.387 -49.7381 2.78451e-17)
(238.961 -53.0964 0)
(251.666 -54.3336 2.3996e-17)
(258.637 -58.7627 -1.98512e-17)
(274.505 -60.8808 -4.0759e-17)
(282.44 -66.7478 0)
(303.227 -70.0449 -2.59107e-21)
(313.543 -76.755 1.18318e-17)
(341.945 -80.179 1.65485e-17)
(356.771 -85.3949 1.40805e-17)
(394.621 -87.7731 1.30853e-17)
(412.309 -90.7753 0)
(460.595 -95.9491 0)
(487.834 -88.004 -8.15295e-18)
(557.143 -95.0714 0)
(615.136 -2.30038 1.1266e-18)
(571.968 46.544 1.3975e-18)
(554.715 61.1749 3.73001e-21)
(512.133 70.6855 -6.9085e-21)
(491.439 71.044 -1.40087e-17)
(454.706 71.6525 0)
(435.257 66.0449 7.12685e-18)
(405.412 62.6118 2.08106e-17)
(389.741 56.5398 -1.59522e-20)
(367.756 54.4124 -4.02545e-17)
(355.754 50.297 -3.4589e-17)
(338.921 49.0096 -5.98233e-17)
(328.461 45.7377 0)
(314.908 44.6911 0)
(305.865 42.2681 0)
(295.229 41.7315 0)
(287.602 40.276 0)
(278.751 40.1304 1.05487e-20)
(271.514 39.1751 4.76984e-21)
(263.349 39.0272 0)
(256.222 38.2594 6.37438e-17)
(248.603 38.0005 0)
(241.731 37.2702 5.35162e-17)
(234.629 36.7728 0)
(228.094 35.8716 4.95762e-17)
(221.519 35.0103 4.9498e-17)
(215.471 33.8857 4.98459e-17)
(209.562 32.7858 -5.04549e-17)
(204.215 31.6682 -5.07834e-17)
(199.089 30.6416 -5.07585e-17)
(194.485 29.8091 -1.0074e-16)
(190.008 29.0383 -4.97553e-17)
(185.928 28.5397 0)
(181.787 27.9298 4.86971e-17)
(177.977 27.6123 2.37909e-21)
(173.946 26.9691 -4.83649e-17)
(170.33 26.7025 -4.8614e-17)
(166.316 25.8867 -4.87369e-17)
(162.938 25.6111 0)
(158.828 24.4969 4.70232e-22)
(155.788 24.1269 5.07536e-17)
(151.347 22.5202 -5.13071e-17)
(148.865 21.82 5.35309e-17)
(143.546 19.4388 0)
(142.074 18.0518 0)
(134.325 14.0874 6.62485e-17)
(100.042 -1.83926 0)
(100.739 -4.9069 8.27175e-17)
(101.95 -7.72598 -1.55458e-16)
(103.48 -10.5126 -7.4987e-17)
(104.957 -13.985 -7.5322e-17)
(106.336 -17.9778 -7.8709e-17)
(107.415 -22.1399 0)
(108.336 -25.905 9.23724e-17)
(109.143 -28.8736 1.00539e-16)
(110.074 -30.7787 0)
(111.366 -31.4726 1.0891e-16)
(113.221 -31.1434 0)
(115.563 -30.3405 1.86737e-16)
(118.045 -29.7277 0)
(120.555 -29.4762 0)
(123.053 -29.5239 -2.89232e-21)
(125.69 -29.6734 0)
(128.38 -29.9479 -6.41801e-17)
(131.267 -30.2376 -6.23785e-17)
(134.188 -30.6523 0)
(137.349 -31.0455 0)
(140.51 -31.5867 -5.72653e-17)
(143.979 -32.0645 2.91379e-21)
(147.398 -32.7338 5.38791e-17)
(151.222 -33.2868 1.04566e-16)
(154.926 -34.1001 0)
(159.176 -34.7232 0)
(163.195 -35.7082 0)
(167.966 -36.398 4.54681e-17)
(172.339 -37.5938 -4.3474e-17)
(177.762 -38.3456 4.20522e-17)
(182.533 -39.8037 3.99339e-17)
(188.785 -40.6047 -3.86189e-17)
(193.996 -42.3867 3.63134e-17)
(201.307 -43.2214 0)
(206.981 -45.4091 -3.25608e-17)
(215.659 -46.2728 3.16095e-17)
(221.808 -48.9669 -2.86873e-17)
(232.262 -49.8915 -5.60025e-17)
(238.831 -53.2611 -2.44893e-17)
(251.533 -54.4975 0)
(258.491 -58.9404 0)
(274.35 -61.0603 -2.0327e-21)
(282.251 -66.9454 1.57821e-17)
(303.015 -70.2508 -2.79684e-21)
(313.269 -76.9837 -2.40669e-17)
(341.641 -80.4262 -1.68803e-17)
(356.434 -85.6704 -7.22386e-18)
(394.363 -88.0737 0)
(412.09 -91.1104 0)
(460.427 -96.332 0)
(487.65 -88.4448 8.23658e-18)
(557.235 -95.6812 0)
(615.436 -2.35851 -1.13143e-18)
(571.932 46.8001 0)
(554.654 61.4511 3.92804e-21)
(512.203 71.0034 -5.19422e-18)
(491.672 71.3825 1.4308e-17)
(455.092 72.0106 0)
(435.747 66.4059 -8.24443e-21)
(405.906 62.9518 -2.14736e-17)
(390.144 56.8431 9.98339e-18)
(368.009 54.6673 8.53306e-17)
(355.884 50.521 7.445e-17)
(338.941 49.2034 6.54103e-17)
(328.385 45.911 6.45996e-17)
(314.732 44.837 0)
(305.608 42.3924 0)
(294.939 41.8385 -9.91154e-17)
(287.34 40.381 0)
(278.564 40.2432 1.03254e-20)
(271.406 39.3001 8.85332e-17)
(263.305 39.1627 0)
(256.221 38.4012 -7.17317e-17)
(248.631 38.1468 0)
(241.777 37.4185 -5.87936e-17)
(234.687 36.9225 0)
(228.156 36.0205 -5.23633e-21)
(221.58 35.1569 5.29726e-17)
(215.521 34.027 0)
(209.595 32.9197 5.36582e-17)
(204.225 31.7929 5.39095e-17)
(199.078 30.7571 5.37786e-17)
(194.458 29.9168 5.32282e-17)
(189.973 29.1406 2.92786e-21)
(185.89 28.6396 5.16317e-17)
(181.753 28.029 -5.09023e-17)
(177.949 27.7127 5.05302e-17)
(173.925 27.0704 1.00419e-16)
(170.314 26.8058 2.68111e-21)
(166.304 25.9901 5.03426e-17)
(162.929 25.7173 0)
(158.822 24.6018 5.11478e-17)
(155.783 24.2374 0)
(151.341 22.626 5.27463e-17)
(148.858 21.9387 -5.50039e-17)
(143.518 19.5445 0)
(142.041 18.1927 0)
(134.205 14.2017 0)
(100.043 -1.85918 0)
(100.749 -4.95584 -1.65345e-16)
(101.976 -7.79772 1.55417e-16)
(103.525 -10.5932 0)
(105.016 -14.064 7.53386e-17)
(106.405 -18.0481 0)
(107.485 -22.1989 8.4865e-17)
(108.396 -25.955 9.24608e-17)
(109.184 -28.9194 0)
(110.086 -30.8286 0)
(111.345 -31.5349 -1.09196e-16)
(113.172 -31.2212 -1.04201e-16)
(115.501 -30.4276 -9.37636e-17)
(117.982 -29.8162 8.27561e-17)
(120.493 -29.5633 -7.4721e-17)
(122.988 -29.611 1.39393e-16)
(125.622 -29.7617 0)
(128.309 -30.038 6.43485e-17)
(131.194 -30.3294 -6.25347e-17)
(134.112 -30.746 -6.07685e-17)
(137.27 -31.1408 0)
(140.429 -31.6842 0)
(143.895 -32.1635 2.94147e-21)
(147.312 -32.8351 -1.07968e-16)
(151.134 -33.3898 3.04488e-21)
(154.835 -34.2058 0)
(159.083 -34.8306 -4.89828e-17)
(163.1 -35.8189 0)
(167.868 -36.5105 -4.55685e-17)
(172.239 -37.7105 4.35779e-17)
(177.658 -38.4642 -4.21614e-17)
(182.428 -39.9276 -4.00482e-17)
(188.676 -40.7305 -3.29957e-21)
(193.885 -42.5191 -3.64405e-17)
(201.192 -43.3554 0)
(206.864 -45.5513 3.27127e-17)
(215.54 -46.4162 -6.35224e-17)
(221.685 -49.1202 0)
(232.137 -50.0451 2.81693e-17)
(238.702 -53.426 2.46556e-17)
(251.404 -54.6618 0)
(258.349 -59.1183 0)
(274.199 -61.24 -2.1638e-21)
(282.065 -67.1429 7.62168e-21)
(302.805 -70.4563 1.82039e-17)
(312.994 -77.2115 -1.02051e-20)
(341.335 -80.6722 -1.72503e-17)
(356.092 -85.9446 0)
(394.101 -88.3739 1.38524e-17)
(411.871 -91.4458 6.62852e-19)
(460.261 -96.7159 0)
(487.467 -88.8872 0)
(557.326 -96.2931 1.60597e-18)
(615.725 -2.41621 -1.14486e-18)
(571.877 47.0549 0)
(554.575 61.7243 -1.73465e-17)
(512.266 71.3189 7.73601e-21)
(491.911 71.7203 0)
(455.492 72.3695 9.344e-18)
(436.259 66.7698 -8.89498e-21)
(406.43 63.2968 0)
(390.585 57.154 -1.03961e-17)
(368.304 54.9301 -4.49133e-17)
(356.054 50.7527 -3.97342e-17)
(338.994 49.4029 7.09137e-17)
(328.333 46.0895 -7.07636e-17)
(314.567 44.9855 9.48524e-17)
(305.348 42.5174 9.71023e-17)
(294.632 41.9427 2.23176e-16)
(287.051 40.4815 0)
(278.35 40.3508 1.10876e-16)
(271.281 39.4215 0)
(263.256 39.2963 0)
(256.223 38.5429 0)
(248.666 38.2938 0)
(241.833 37.568 6.50118e-17)
(234.756 37.0737 -6.05488e-17)
(228.231 36.1712 -1.15658e-16)
(221.653 35.3056 -1.13953e-16)
(215.584 34.1705 0)
(209.639 33.0558 5.72969e-17)
(204.246 31.9195 0)
(199.075 30.8741 0)
(194.436 30.0255 0)
(189.94 29.2435 1.10867e-16)
(185.856 28.7398 -3.26767e-21)
(181.722 28.1285 1.06824e-16)
(177.924 27.8134 0)
(173.907 27.1719 -1.04585e-16)
(170.301 26.9095 5.22505e-17)
(166.296 26.0938 0)
(162.924 25.8241 0)
(158.821 24.7072 5.27917e-17)
(155.784 24.3485 0)
(151.339 22.7326 0)
(148.856 22.0583 0)
(143.496 19.6515 0)
(142.016 18.3358 0)
(134.092 14.3184 0)
(100.044 -1.87941 0)
(100.761 -5.00544 8.26263e-17)
(102.002 -7.87041 -7.76818e-17)
(103.571 -10.6747 0)
(105.077 -14.1439 0)
(106.476 -18.119 0)
(107.555 -22.2581 -1.69856e-16)
(108.458 -26.0047 3.50343e-21)
(109.226 -28.9646 0)
(110.1 -30.8775 0)
(111.325 -31.5962 1.09484e-16)
(113.123 -31.2981 1.04586e-16)
(115.439 -30.5142 0)
(117.919 -29.9045 -8.31383e-17)
(120.43 -29.6502 7.50364e-17)
(122.924 -29.6979 2.96638e-21)
(125.554 -29.8497 0)
(128.238 -30.1279 -6.45417e-17)
(131.12 -30.421 6.27023e-17)
(134.035 -30.8396 -3.06254e-21)
(137.192 -31.236 5.92751e-17)
(140.348 -31.7815 0)
(143.811 -32.2624 -1.11789e-16)
(147.226 -32.9363 5.4099e-17)
(151.046 -33.4926 -5.24956e-17)
(154.745 -34.3114 5.06572e-17)
(158.99 -34.9378 9.81794e-17)
(163.004 -35.9296 0)
(167.77 -36.623 0)
(172.139 -37.8272 0)
(177.555 -38.5828 -4.22859e-17)
(182.322 -40.0515 4.01812e-17)
(188.568 -40.8563 3.88744e-17)
(193.774 -42.6515 3.65881e-17)
(201.079 -43.4895 0)
(206.748 -45.6935 -6.57337e-17)
(215.422 -46.5597 6.38519e-17)
(221.564 -49.2738 0)
(232.015 -50.199 0)
(238.576 -53.5913 0)
(251.277 -54.8264 -2.45492e-17)
(258.209 -59.2966 0)
(274.05 -61.4199 -2.30056e-21)
(281.882 -67.3403 -1.61769e-17)
(302.597 -70.6614 0)
(312.719 -77.4383 1.24856e-17)
(341.027 -80.9169 1.76301e-17)
(355.744 -86.2172 -7.66469e-18)
(393.834 -88.6736 -2.85373e-17)
(411.651 -91.7816 -6.80457e-19)
(460.099 -97.1006 -7.15595e-18)
(487.287 -89.3313 0)
(557.415 -96.9068 -1.48891e-21)
(616.002 -2.47339 2.30651e-18)
(571.802 47.3084 -1.55702e-18)
(554.477 61.9942 1.77393e-17)
(512.322 71.6316 2.70472e-18)
(492.153 72.057 0)
(455.906 72.7289 -9.55675e-18)
(436.791 67.1362 -7.63869e-18)
(406.984 63.6464 0)
(391.063 57.4721 2.15005e-17)
(368.643 55.2007 -4.69652e-17)
(356.266 50.9926 0)
(339.084 49.6089 -2.4272e-22)
(328.309 46.2744 0)
(314.419 45.1378 -4.74929e-22)
(305.09 42.6444 -2.14962e-16)
(294.311 42.0448 -3.35333e-21)
(286.736 40.5776 0)
(278.109 40.4526 0)
(271.135 39.5386 0)
(263.198 39.4273 0)
(256.225 38.6839 0)
(248.708 38.4413 8.1654e-17)
(241.899 37.7187 -7.23824e-17)
(234.837 37.2266 6.66059e-17)
(228.319 36.3238 5.879e-21)
(221.74 35.4564 6.15886e-17)
(215.66 34.3164 0)
(209.696 33.1943 -5.2414e-21)
(204.276 32.0483 6.15069e-17)
(199.08 30.9929 -6.11284e-17)
(194.42 30.1355 0)
(189.912 29.3472 -3.33925e-21)
(185.824 28.8404 -5.7556e-17)
(181.693 28.2282 -2.32088e-21)
(177.901 27.9142 0)
(173.891 27.2736 5.46504e-17)
(170.291 27.0135 5.44177e-17)
(166.292 26.1981 5.41673e-17)
(162.924 25.9314 0)
(158.824 24.8133 -7.09013e-22)
(155.789 24.4604 0)
(151.343 22.84 5.61221e-17)
(148.861 22.1791 5.84241e-17)
(143.48 19.7598 6.02763e-17)
(141.997 18.4813 6.66304e-17)
(133.986 14.4378 7.19256e-17)
(100.045 -1.89997 0)
(100.772 -5.05572 8.25982e-17)
(102.028 -7.94407 -7.76712e-17)
(103.618 -10.7573 0)
(105.139 -14.2246 -7.53939e-17)
(106.548 -18.1904 0)
(107.628 -22.3174 8.49924e-17)
(108.521 -26.0542 -1.85264e-16)
(109.27 -29.009 1.00907e-16)
(110.115 -30.9253 0)
(111.306 -31.6563 1.09787e-16)
(113.075 -31.3742 1.04995e-16)
(115.377 -30.6005 0)
(117.855 -29.9927 -8.35595e-17)
(120.367 -29.737 0)
(122.859 -29.7846 3.00683e-21)
(125.486 -29.9376 6.70634e-17)
(128.167 -30.2177 6.475e-17)
(131.046 -30.5124 -6.28942e-17)
(133.959 -30.9331 -3.09713e-21)
(137.113 -31.331 -1.18862e-16)
(140.266 -31.8786 0)
(143.728 -32.3611 -3.00113e-21)
(147.141 -33.0375 0)
(150.958 -33.5953 0)
(154.655 -34.4169 -5.07729e-17)
(158.897 -35.0451 -4.92059e-17)
(162.91 -36.0402 0)
(167.673 -36.7354 0)
(172.039 -37.9439 0)
(177.453 -38.7014 -3.34577e-21)
(182.218 -40.1754 -4.03141e-17)
(188.461 -40.9822 0)
(193.664 -42.784 -3.67355e-17)
(200.967 -43.6237 0)
(206.633 -45.8359 6.6071e-17)
(215.305 -46.7034 -6.42061e-17)
(221.444 -49.4275 0)
(231.895 -50.3532 -2.85508e-17)
(238.453 -53.7569 2.50485e-17)
(251.153 -54.9914 2.47584e-17)
(258.073 -59.4753 2.06083e-17)
(273.904 -61.6 2.12209e-17)
(281.701 -67.5377 1.64085e-17)
(302.392 -70.8661 -1.87681e-17)
(312.445 -77.664 0)
(340.717 -81.1603 0)
(355.388 -86.4881 -1.69213e-20)
(393.562 -88.9727 -1.51214e-20)
(411.432 -92.1176 0)
(459.941 -97.4863 7.31246e-18)
(487.11 -89.7769 0)
(557.503 -97.5224 -1.61704e-18)
(616.266 -2.52998 -1.16254e-18)
(571.704 47.5605 -2.61912e-20)
(554.361 62.2607 4.43151e-21)
(512.369 71.9413 -2.75426e-18)
(492.399 72.3925 -1.53052e-17)
(456.333 73.0887 0)
(437.342 67.5051 0)
(407.565 64.0005 0)
(391.577 57.7973 2.31389e-20)
(369.025 55.4791 4.87994e-17)
(356.52 51.2409 0)
(339.213 49.8219 -8.10551e-17)
(328.32 46.4663 0)
(314.296 45.2949 -2.26564e-16)
(304.843 42.7746 -2.32427e-20)
(293.982 42.1457 -2.76732e-16)
(286.398 40.6699 0)
(277.838 40.5483 1.43402e-16)
(270.966 39.6507 0)
(263.127 39.555 -1.21796e-16)
(256.227 38.8241 -1.05832e-16)
(248.756 38.5892 -1.85146e-16)
(241.976 37.8709 0)
(234.932 37.3813 0)
(228.422 36.4786 1.37934e-16)
(221.843 35.6096 0)
(215.751 34.4648 6.61373e-17)
(209.767 33.3354 -1.32388e-16)
(204.32 32.1796 -6.61264e-17)
(199.095 31.1138 6.56036e-17)
(194.411 30.247 0)
(189.889 29.4519 -1.25682e-16)
(185.795 28.9415 -6.11608e-17)
(181.668 28.3282 -1.19063e-16)
(177.882 28.0153 -5.83369e-17)
(173.879 27.3757 0)
(170.286 27.1178 -5.68726e-17)
(166.292 26.3028 -5.64473e-17)
(162.928 26.0392 0)
(158.831 24.92 -1.13371e-16)
(155.799 24.573 0)
(151.353 22.9483 -5.81012e-17)
(148.872 22.3011 -1.20853e-16)
(143.471 19.8696 -6.23307e-17)
(141.985 18.6292 -6.87822e-17)
(133.89 14.5599 -7.41828e-17)
(100.046 -1.92086 0)
(100.784 -5.10668 1.25883e-20)
(102.055 -8.01869 7.76379e-17)
(103.665 -10.8409 7.49979e-17)
(105.203 -14.3062 7.54112e-17)
(106.622 -18.2625 0)
(107.702 -22.3769 0)
(108.586 -26.1034 9.27183e-17)
(109.315 -29.0528 -1.01029e-16)
(110.132 -30.9722 0)
(111.289 -31.7152 -1.10095e-16)
(113.027 -31.4494 -1.0542e-16)
(115.314 -30.6863 0)
(117.791 -30.0807 -3.36816e-21)
(120.303 -29.8237 0)
(122.794 -29.8711 -1.41118e-16)
(125.418 -30.0252 -6.73286e-17)
(128.096 -30.3072 0)
(130.972 -30.6037 -2.86136e-21)
(133.882 -31.0264 1.22569e-16)
(137.034 -31.4259 -2.93687e-21)
(140.185 -31.9757 0)
(143.644 -32.4597 5.61773e-17)
(147.055 -33.1385 -5.4371e-17)
(150.87 -33.6979 0)
(154.565 -34.5224 -5.09068e-17)
(158.804 -35.1522 0)
(162.815 -36.1508 -4.74371e-17)
(167.576 -36.8478 4.59356e-17)
(171.94 -38.0605 -4.39605e-17)
(177.351 -38.8199 -3.38529e-21)
(182.114 -40.2993 4.0467e-17)
(188.354 -41.108 -3.9177e-17)
(193.556 -42.9165 0)
(200.856 -43.758 0)
(206.52 -45.9785 -3.32134e-17)
(215.19 -46.8473 3.22915e-17)
(221.326 -49.5815 2.94114e-17)
(231.777 -50.5077 2.8758e-17)
(238.331 -53.9229 -5.05186e-17)
(251.031 -55.1569 2.49893e-17)
(257.94 -59.6544 -2.08242e-17)
(273.762 -61.7804 0)
(281.524 -67.735 -3.32889e-17)
(302.189 -71.0705 -3.60112e-21)
(312.171 -77.8887 1.30207e-17)
(340.404 -81.4024 0)
(355.027 -86.7574 1.62884e-17)
(393.284 -89.2712 1.52127e-17)
(411.211 -92.4538 0)
(459.786 -97.873 0)
(486.935 -90.2242 0)
(557.59 -98.1398 0)
(616.519 -2.58589 0)
(571.585 47.811 -2.69148e-20)
(554.223 62.5233 -1.86134e-17)
(512.406 72.2477 5.64171e-18)
(492.646 72.7265 3.21123e-21)
(456.772 73.4488 0)
(437.912 67.8762 0)
(408.173 64.3588 2.38014e-17)
(392.126 58.1292 -1.13749e-17)
(369.45 55.7654 0)
(356.819 51.4978 -4.60529e-17)
(339.385 50.0425 0)
(328.368 46.666 -8.78684e-17)
(314.203 45.4579 -4.51956e-21)
(304.613 42.9094 1.27906e-16)
(293.653 42.247 3.03777e-16)
(286.041 40.7592 -1.54299e-16)
(277.538 40.6379 -3.22934e-16)
(270.768 39.7571 0)
(263.041 39.6786 1.39744e-16)
(256.225 38.9627 2.42838e-16)
(248.811 38.7373 1.16237e-20)
(242.065 38.0245 9.14088e-17)
(235.041 37.538 8.20667e-17)
(228.54 36.6358 -1.51905e-16)
(221.961 35.7655 7.3041e-17)
(215.858 34.6161 -5.36129e-21)
(209.853 33.4794 5.51349e-21)
(204.376 32.3136 -7.13831e-17)
(199.121 31.237 -7.07025e-17)
(194.41 30.3602 6.9311e-17)
(189.871 29.5577 1.34736e-16)
(185.771 29.0433 6.52979e-17)
(181.645 28.4286 6.32627e-17)
(177.865 28.1166 6.16977e-17)
(173.87 27.4781 -6.03593e-17)
(170.284 27.2226 5.96443e-17)
(166.297 26.408 -5.9016e-17)
(162.937 26.1476 5.90744e-17)
(158.844 25.0274 1.17978e-16)
(155.816 24.6864 0)
(151.369 23.0576 0)
(148.89 22.4244 6.26507e-17)
(143.469 19.9808 0)
(141.981 18.7796 0)
(133.802 14.6848 0)
(100.048 -1.94209 0)
(100.796 -5.15834 -8.25025e-17)
(102.083 -8.09432 -7.76264e-17)
(103.714 -10.9256 -7.49898e-17)
(105.267 -14.3887 7.54434e-17)
(106.697 -18.3351 0)
(107.778 -22.4366 0)
(108.653 -26.1525 0)
(109.363 -29.0959 -1.01158e-16)
(110.151 -31.0179 -1.07985e-16)
(111.272 -31.773 1.10418e-16)
(112.979 -31.5237 -1.05873e-16)
(115.251 -30.7717 0)
(117.727 -30.1686 8.45022e-17)
(120.24 -29.9102 0)
(122.729 -29.9574 7.09075e-17)
(125.35 -30.1127 -6.76288e-17)
(128.025 -30.3966 6.52477e-17)
(130.898 -30.6948 1.2667e-16)
(133.806 -31.1195 3.1742e-21)
(136.955 -31.5207 5.97957e-17)
(140.104 -32.0726 0)
(143.561 -32.5582 5.63442e-17)
(146.97 -33.2394 5.45213e-17)
(150.782 -33.8005 5.29007e-17)
(154.475 -34.6277 5.10446e-17)
(158.712 -35.2593 0)
(162.721 -36.2613 4.75725e-17)
(167.479 -36.9601 -4.60735e-17)
(171.842 -38.1771 -4.55213e-21)
(177.25 -38.9385 4.27048e-17)
(182.011 -40.4233 -8.12471e-17)
(188.249 -41.234 -3.48155e-21)
(193.448 -43.0492 0)
(200.747 -43.8924 0)
(206.408 -46.1212 3.34135e-17)
(215.077 -46.9914 0)
(221.21 -49.7358 -5.92425e-17)
(231.661 -50.6626 -2.89875e-17)
(238.212 -54.0894 2.54856e-17)
(250.913 -55.3228 -2.52313e-17)
(257.81 -59.8339 0)
(273.624 -61.9612 2.1746e-17)
(281.35 -67.9325 3.3804e-17)
(301.988 -71.2745 1.94105e-17)
(311.897 -78.1124 1.16587e-20)
(340.09 -81.6432 0)
(354.658 -87.0248 -8.4053e-18)
(392.999 -89.569 1.57625e-17)
(410.988 -92.7901 0)
(459.634 -98.2606 0)
(486.763 -90.6731 0)
(557.676 -98.7589 -1.6294e-18)
(616.758 -2.64104 0)
(571.443 48.0598 1.69431e-18)
(554.063 62.7818 0)
(512.432 72.5503 -2.89258e-18)
(492.895 73.0587 1.60805e-17)
(457.222 73.8088 0)
(438.499 68.2492 0)
(408.805 64.7212 -2.43057e-17)
(392.707 58.4674 0)
(369.916 56.0593 0)
(357.162 51.7633 4.76054e-17)
(339.601 50.271 8.92155e-17)
(328.458 46.874 9.24941e-17)
(314.147 45.6278 1.29734e-16)
(304.41 43.0501 0)
(293.332 42.35 -1.64904e-16)
(285.674 40.8469 1.69413e-16)
(277.211 40.7219 1.8006e-16)
(270.542 39.8574 1.71566e-16)
(262.934 39.7973 0)
(256.216 39.0992 -1.39413e-16)
(248.871 38.8852 1.17941e-20)
(242.166 38.1794 -1.03594e-16)
(235.166 37.6967 -9.19098e-17)
(228.676 36.7956 6.45172e-21)
(222.098 35.9242 -1.6029e-16)
(215.983 34.7705 -5.39968e-21)
(209.956 33.6266 5.56765e-21)
(204.448 32.4507 7.73856e-17)
(199.159 31.3628 7.65323e-17)
(194.419 30.4754 -7.48783e-17)
(189.86 29.6648 -7.25608e-17)
(185.751 29.1458 0)
(181.626 28.5294 0)
(177.852 28.2183 6.55304e-17)
(173.865 27.5809 2.11696e-21)
(170.286 27.3277 -6.27956e-17)
(166.306 26.5138 1.47897e-21)
(162.952 26.2567 -6.17954e-17)
(158.863 25.1356 -6.15738e-17)
(155.838 24.8007 0)
(151.392 23.1678 6.27656e-17)
(148.914 22.5489 0)
(143.475 20.0935 0)
(141.986 18.9324 0)
(133.724 14.8127 0)
(100.049 -1.96367 0)
(100.808 -5.21072 0)
(102.111 -8.17096 1.55195e-16)
(103.763 -11.0114 0)
(105.333 -14.4722 -7.54615e-17)
(106.774 -18.4084 0)
(107.855 -22.4966 0)
(108.721 -26.2013 9.29024e-17)
(109.412 -29.1384 1.01284e-16)
(110.172 -31.0627 2.16379e-16)
(111.257 -31.8297 -1.10748e-16)
(112.932 -31.5971 1.06345e-16)
(115.188 -30.8566 -9.61913e-17)
(117.661 -30.2563 0)
(120.176 -29.9966 0)
(122.663 -30.0436 0)
(125.281 -30.2 6.79553e-17)
(127.954 -30.4859 -1.3107e-16)
(130.824 -30.7858 -6.35914e-17)
(133.73 -31.2125 -6.1727e-17)
(136.876 -31.6153 -6.00111e-17)
(140.024 -32.1694 0)
(143.478 -32.6566 -5.65212e-17)
(146.885 -33.3402 0)
(150.695 -33.9029 -5.30571e-17)
(154.386 -34.733 0)
(158.621 -35.3663 0)
(162.628 -36.3717 0)
(167.383 -37.0724 4.62293e-17)
(171.744 -38.2937 4.42591e-17)
(177.15 -39.057 0)
(181.909 -40.5473 4.07917e-17)
(188.144 -41.36 7.90408e-17)
(193.342 -43.1819 -3.72696e-17)
(200.638 -44.0269 0)
(206.298 -46.2641 -6.72368e-17)
(214.965 -47.1358 0)
(221.096 -49.8904 5.96996e-17)
(231.547 -50.8178 5.84566e-17)
(238.096 -54.2563 2.57401e-17)
(250.798 -55.4892 2.54977e-17)
(257.684 -60.0139 0)
(273.489 -62.1422 2.92926e-21)
(281.179 -68.1299 8.97412e-21)
(301.79 -71.4782 0)
(311.625 -78.3351 -2.72319e-17)
(339.773 -81.8826 0)
(354.282 -87.2903 0)
(392.707 -89.8658 -1.63223e-17)
(410.764 -93.1265 6.74543e-19)
(459.486 -98.6493 0)
(486.594 -91.1238 0)
(557.761 -99.3797 7.22915e-22)
(616.985 -2.69533 1.20693e-18)
(571.276 48.307 0)
(553.878 63.0359 0)
(512.444 72.8489 2.95491e-18)
(493.143 73.3888 0)
(457.682 74.1686 -1.04418e-17)
(439.103 68.6241 0)
(409.462 65.0872 2.47841e-17)
(393.32 58.8118 0)
(370.422 56.3606 0)
(357.547 52.0371 -4.89591e-17)
(339.861 50.5075 -9.23865e-17)
(328.592 47.0907 0)
(314.131 45.8055 1.36629e-16)
(304.24 43.198 -1.45772e-16)
(293.03 42.4566 1.77001e-16)
(285.304 40.9346 -1.83892e-16)
(276.864 40.8011 0)
(270.286 39.9515 -3.84517e-16)
(262.805 39.9103 0)
(256.198 39.2328 -1.59811e-16)
(248.934 39.0325 1.38272e-16)
(242.278 38.3356 0)
(235.307 37.8576 1.03448e-16)
(228.83 36.9582 9.36132e-17)
(222.254 36.086 1.7671e-16)
(216.129 34.9284 -1.71456e-16)
(210.079 33.7773 1.69656e-16)
(204.538 32.5912 8.42113e-17)
(199.213 31.4917 8.31717e-17)
(194.439 30.593 -8.12376e-17)
(189.858 29.7736 -7.85115e-17)
(185.737 29.2494 0)
(181.611 28.6309 0)
(177.843 28.3204 -6.9927e-17)
(173.864 27.6841 1.3553e-16)
(170.293 27.4334 -6.63685e-17)
(166.32 26.6202 1.30412e-16)
(162.972 26.3664 0)
(158.888 25.2446 -6.44769e-17)
(155.867 24.9158 0)
(151.421 23.2791 -1.31027e-16)
(148.947 22.6747 0)
(143.488 20.2079 0)
(142 19.0877 0)
(133.656 14.9436 0)
(100.05 -1.98562 0)
(100.821 -5.26383 8.24293e-17)
(102.14 -8.24863 -1.55148e-16)
(103.813 -11.0983 0)
(105.4 -14.5565 0)
(106.852 -18.4823 0)
(107.935 -22.5568 0)
(108.792 -26.2499 3.58845e-21)
(109.464 -29.1802 0)
(110.194 -31.1065 -1.08399e-16)
(111.244 -31.8851 0)
(112.886 -31.6695 -1.06849e-16)
(115.125 -30.941 -3.28049e-21)
(117.596 -30.3438 -8.56237e-17)
(120.111 -30.0829 0)
(122.598 -30.1296 0)
(125.213 -30.2871 6.83234e-17)
(127.882 -30.5749 6.58532e-17)
(130.75 -30.8766 -6.388e-17)
(133.653 -31.3054 -6.19884e-17)
(136.797 -31.7099 1.20489e-16)
(139.943 -32.266 0)
(143.395 -32.7549 5.67223e-17)
(146.8 -33.4409 0)
(150.607 -34.0053 -5.32346e-17)
(154.297 -34.8382 0)
(158.53 -35.4732 0)
(162.535 -36.4822 0)
(167.288 -37.1847 -4.63904e-17)
(171.647 -38.4103 4.44329e-17)
(177.051 -39.1757 0)
(181.807 -40.6713 -4.09799e-17)
(188.041 -41.4861 3.5861e-21)
(193.237 -43.3148 7.49377e-17)
(200.531 -44.1617 0)
(206.189 -46.4073 6.76824e-17)
(214.855 -47.2804 0)
(220.984 -50.0453 7.1339e-21)
(231.436 -50.9735 -2.94866e-17)
(237.983 -54.4237 -2.59969e-17)
(250.686 -55.6562 3.38882e-21)
(257.561 -60.1944 2.16067e-17)
(273.359 -62.3237 -2.23462e-17)
(281.011 -68.3275 -1.74703e-17)
(301.596 -71.6817 0)
(311.353 -78.5568 1.39426e-17)
(339.455 -82.1206 0)
(353.898 -87.5538 0)
(392.407 -90.1617 -1.69611e-17)
(410.537 -93.4628 -1.37696e-18)
(459.341 -99.039 0)
(486.428 -91.576 0)
(557.845 -100.002 1.64808e-18)
(617.199 -2.74867 -1.2185e-18)
(571.086 48.5523 0)
(553.668 63.2853 -2.02229e-17)
(512.442 73.143 -1.03559e-20)
(493.389 73.7165 0)
(458.152 74.5278 2.13751e-17)
(439.722 69.0005 0)
(410.142 65.4568 -2.52338e-17)
(393.962 59.1619 0)
(370.965 56.669 0)
(357.974 52.3191 1.00034e-16)
(340.166 50.7521 0)
(328.77 47.3164 0)
(314.159 45.9917 -1.42437e-16)
(304.11 43.3542 -3.83897e-20)
(292.756 42.5684 -1.87824e-16)
(284.944 41.0241 -2.63905e-20)
(276.505 40.877 0)
(270.005 40.0398 2.12996e-16)
(262.649 40.0169 0)
(256.165 39.3625 1.82418e-16)
(248.997 39.1786 0)
(242.402 38.4928 1.34573e-16)
(235.466 38.0208 -1.1697e-16)