/*--------------------------------*- C++ -*----------------------------------*\
| =========                 |                                                 |
| \\      /  F ield         | OpenFOAM: The Open Source CFD Toolbox           |
|  \\    /   O peration     | Version:  2412                                  |
|   \\  /    A nd           | Website:  www.openfoam.com                      |
|    \\/     M anipulation  |                                                 |
\*---------------------------------------------------------------------------*/
FoamFile
{
    version     2.0;
    format      ascii;
    arch        "LSB;label=32;scalar=64";
    class       volScalarField;
    location    "0.4";
    object      epsilon;
}
// * * * * * * * * * * * * * * * * * * * * * * * * * * * * * * * * * * * * * //

dimensions      [0 2 -3 0 0 0 0];

internalField   nonuniform List<scalar> 
13079
(
431.802
580.988
865.027
1225.8
1522.96
1650.08
1608.92
1458.43
1256.98
1044.29
857.389
732.091
672.527
656.947
663.227
679.053
698.413
719.504
741.261
764.296
788.181
814.249
841.799
872.824
906.005
944.43
985.586
1034.51
1086.46
1149.85
1215.77
1298.79
1382.23
1492.48
1599.81
1751.1
1891.26
2104.88
2313.24
2687.41
3107.62
3855.69
4681.77
6026.82
7236.39
8793.67
9288.2
10391.8
11513
16339.5
21382.3
34591
116356
149468
115471
86468.3
62072.8
41058.1
24269.7
14712.4
9802.1
7494.64
6092.82
5172.14
4465.12
3948.43
3546.57
3242.13
2996.37
2784.27
2602.68
2435.09
2292.14
2154.97
2024.46
1884.33
1739.43
431.066
579.08
861.863
1222.38
1520.35
1648.51
1608.02
1457.92
1256.77
1044.35
857.717
732.716
673.354
657.84
664.105
679.896
699.225
720.302
742.056
765.102
789.004
815.098
842.676
873.735
906.95
945.412
986.603
1035.57
1087.55
1150.97
1216.92
1299.95
1383.43
1493.69
1601.09
1752.37
1892.65
2106.3
2315.02
2689.22
3109.29
3855.12
4676.5
6008.66
7197.94
8717.86
9186.99
10285.5
11426.2
16234.6
21227.9
34091
114222
147804
113717
84396.1
59931.7
38932.6
22607.4
13541.5
9069.18
6965.81
5706.19
4851.13
4204.42
3720.08
3353.9
3073.09
2853.63
2661.56
2500.06
2348.53
2220.12
2094.36
1973.43
1840.91
1702.54
430.345
577.197
858.709
1218.91
1517.62
1646.77
1606.97
1457.3
1256.52
1044.42
858.086
733.394
674.232
658.778
665.024
680.777
700.075
721.136
742.889
765.945
789.865
815.987
843.595
874.691
907.942
946.447
987.679
1036.69
1088.71
1152.17
1218.16
1301.23
1384.77
1495.08
1602.59
1753.89
1894.35
2108.11
2317.28
2691.61
3111.66
3855.52
4672.58
5992.78
7163.27
8649.09
9096.17
10191.7
11350.9
16140.4
21084.9
33606.6
112097
146092
112007
82432.3
57935.4
36998.5
21142.4
12540.7
8451.09
6521.71
5380.79
4580.75
3984.3
3526.99
3190.45
2929.3
2731.7
2556.35
2411.7
2273.73
2157.66
2041.66
1928.99
1803.05
1670.4
429.64
575.341
855.575
1215.41
1514.79
1644.88
1605.77
1456.57
1256.21
1044.46
858.473
734.111
675.149
659.752
665.976
681.69
700.956
722.001
743.751
766.818
790.757
816.906
844.545
875.681
908.972
947.524
988.802
1037.86
1089.93
1153.45
1219.5
1302.61
1386.23
1496.61
1604.25
1755.63
1896.3
2110.25
2319.93
2694.5
3114.63
3856.74
4669.84
5978.93
7132
8586.67
9014.71
10109.1
11285.7
16055.5
20951.7
33136.4
109981
144332
110332
80565.2
56070
35235.9
19848.8
11682.7
7927.59
6146.94
5105.59
4351.9
3797.54
3362.93
3051.16
2806.44
2627.13
2465.79
2335.36
2208.9
2103.36
1995.74
1890.2
1770
1642.36
428.949
573.513
852.462
1211.88
1511.86
1642.85
1604.41
1455.71
1255.81
1044.48
858.869
734.855
676.099
660.757
666.958
682.63
701.863
722.892
744.637
767.715
791.673
817.851
845.523
876.7
910.033
948.635
989.963
1039.08
1091.21
1154.79
1220.9
1304.08
1387.79
1498.27
1606.06
1757.55
1898.47
2112.67
2322.92
2697.83
3118.12
3858.68
4668.13
5966.89
7103.83
8530.07
8941.77
10036.5
11229.5
15978.8
20827.3
32679.2
107873
142521
108685
78785.2
54323.4
33627.4
18704.6
10944.9
7482.51
5829.35
4871.88
4157.41
3638.46
3222.97
2932
2701.08
2537.16
2387.63
2269.25
2152.59
2056.07
1955.66
1856.3
1741.12
1617.89
1487.06
1364.18
1254.18
1162.85
1091.52
1038.9
1002.51
976.854
959.421
944.492
933.478
920.892
912.752
901.549
900.007
895.352
911.308
924.713
979.754
1041.21
1189.04
1266.19
428.273
571.712
849.371
1208.33
1508.83
1640.66
1602.9
1454.73
1255.34
1044.46
859.267
735.622
677.077
661.789
667.964
683.595
702.793
723.804
745.546
768.634
792.61
818.818
846.523
877.743
911.12
949.775
991.157
1040.34
1092.53
1156.17
1222.36
1305.62
1389.44
1500.03
1608
1759.63
1900.84
2115.35
2326.22
2701.54
3122.06
3861.27
4667.35
5956.5
7078.49
8478.82
8876.59
9972.97
11181.4
15909.3
20710.7
32234.2
105774
140661
107061
77083.8
52684.9
32157.3
17690.6
10308.7
7102.78
5559.21
4672.72
3991.53
3502.5
3103.17
2829.75
2610.47
2459.53
2320
2211.87
2103.6
2014.84
1920.65
1826.65
1715.86
1596.51
1469.12
1349.12
1241.53
1152.14
1082.35
1030.94
995.489
970.543
953.672
939.178
928.548
916.266
908.413
897.425
896.063
891.501
907.389
920.646
974.907
1035.59
1180.04
1253.98
427.612
569.938
846.3
1204.74
1505.71
1638.33
1601.24
1453.63
1254.79
1044.4
859.662
736.407
678.079
662.845
668.993
684.581
703.743
724.736
746.473
769.571
793.565
819.803
847.542
878.806
912.229
950.94
992.378
1041.63
1093.88
1157.6
1223.87
1307.23
1391.16
1501.89
1610.04
1761.85
1903.38
2118.24
2329.78
2705.59
3126.41
3864.42
4667.39
5947.6
7055.75
8432.48
8818.52
9917.64
11140.5
15846.3
20601
31800.5
103685
138752
105455
75453.5
51144.8
30811.5
16790.4
9758.68
6777.77
5328.66
4502.47
3849.62
3385.95
3000.32
2741.76
2532.35
2392.41
2261.37
2161.99
2060.93
1978.84
1890.04
1800.7
1693.77
1577.85
1453.53
1336.09
1230.61
1142.93
1074.47
1024.1
989.442
965.086
948.68
934.543
924.23
912.198
904.583
893.77
892.548
888.05
903.837
916.924
970.387
1030.29
1171.42
1242.25
426.964
568.189
843.248
1201.13
1502.49
1635.86
1599.43
1452.4
1254.15
1044.29
860.051
737.207
679.101
663.921
670.042
685.585
704.712
725.685
747.416
770.524
794.537
820.805
848.578
879.887
913.357
952.126
993.623
1042.94
1095.27
1159.07
1225.43
1308.88
1392.95
1503.82
1612.18
1764.19
1906.06
2121.33
2333.57
2709.92
3131.1
3868.07
4668.17
5940.06
7035.39
8390.66
8766.93
9869.71
11106.1
15789
20497.5
31377.6
101607
136796
103863
73887.3
49694.2
29577.3
15989.5
9281.74
6498.77
5131.31
4356.52
3727.9
3285.79
2911.82
2665.89
2464.85
2334.27
2210.46
2118.58
2023.71
1947.39
1863.26
1777.99
1674.43
1561.55
1439.97
1324.81
1221.19
1135.01
1067.71
1018.23
984.24
960.374
944.348
930.499
920.446
908.616
901.196
890.522
889.406
884.944
900.602
913.498
966.148
1025.24
1163.12
1230.96
426.329
566.464
840.213
1197.5
1499.17
1633.25
1597.47
1451.06
1253.43
1044.15
860.432
738.019
680.143
665.017
671.109
686.607
705.696
726.65
748.374
771.491
795.522
821.82
849.628
880.983
914.501
953.33
994.888
1044.28
1096.68
1160.57
1227.02
1310.59
1394.79
1505.83
1614.41
1766.63
1908.87
2124.59
2337.56
2714.51
3136.09
3872.15
4669.6
5933.75
7017.2
8352.99
8721.27
9828.46
11077.4
15736.7
20399.4
30964.9
99540.8
134793
102281
72378.8
48324.7
28443.1
15275.2
8867.04
6258.59
4961.94
4231.12
3623.24
3199.54
2835.51
2600.34
2406.44
2283.84
2166.21
2080.77
1991.24
1919.9
1839.82
1758.09
1657.51
1547.31
1428.19
1315.05
1213.08
1128.22
1061.92
1013.2
979.778
956.313
940.594
926.975
917.131
905.462
898.198
887.632
886.59
882.14
897.644
910.331
962.152
1020.43
1155.11
1220.05
425.707
564.762
837.195
1193.83
1495.77
1630.5
1595.37
1449.59
1252.63
1043.96
860.803
738.841
681.2
666.129
672.193
687.644
706.695
727.628
749.345
772.47
796.519
822.847
850.69
882.092
915.658
954.549
996.169
1045.64
1098.12
1162.1
1228.64
1312.33
1396.68
1507.89
1616.7
1769.17
1911.79
2128
2341.72
2719.32
3141.35
3876.62
4671.61
5928.55
7001
8319.13
8681.01
9793.23
11053.8
15688.7
20306.3
30561.9
97487.4
132745
100707
70922.4
47028.8
27398.5
14636.7
8505.45
6051.29
4816.21
4123.13
3533.08
3125.13
2769.6
2543.63
2355.83
2240.05
2127.71
2047.8
1962.89
1895.86
1819.3
1740.66
1642.7
1534.88
1417.95
1306.61
1206.11
1122.4
1056.99
1008.91
975.964
952.824
937.349
923.908
914.229
902.684
895.543
885.057
884.061
879.601
894.929
907.389
958.369
1015.81
1147.36
1209.49
425.097
563.082
834.191
1190.13
1492.26
1627.62
1593.13
1448.01
1251.75
1043.73
861.162
739.671
682.272
667.257
673.29
688.695
707.707
728.617
750.327
773.46
797.526
823.884
851.762
883.211
916.827
955.78
997.464
1047.01
1099.57
1163.65
1230.29
1314.1
1398.6
1510
1619.05
1771.78
1914.81
2131.53
2346.04
2724.31
3146.82
3881.41
4674.12
5924.35
6986.63
8288.77
8645.67
9763.41
11034.7
15644.7
20217.6
30168.1
95448.3
130655
99136.5
69512.6
45799.4
26434
14064.3
8189.29
5871.93
4690.55
4029.97
3455.27
3060.84
2712.59
2494.51
2311.93
2201.99
2094.18
2019.05
1938.13
1874.84
1801.33
1725.4
1629.74
1524.04
1409.06
1299.34
1200.14
1117.45
1052.79
1005.28
972.719
949.837
934.551
921.243
911.69
900.238
893.19
882.759
881.784
877.295
892.424
904.644
954.771
1011.36
1139.83
1199.26
424.499
561.424
831.201
1186.41
1488.67
1624.6
1590.75
1446.32
1250.79
1043.45
861.508
740.507
683.356
668.397
674.401
689.758
708.729
729.617
751.318
774.458
798.541
824.929
852.843
884.339
918.004
957.021
998.77
1048.4
1101.04
1165.22
1231.96
1315.9
1400.56
1512.15
1621.45
1774.46
1917.9
2135.16
2350.47
2729.47
3152.48
3886.48
4677.08
5921.04
6973.9
8261.6
8614.81
9738.46
11019.7
15604.1
20132.7
29783.1
93424.7
128525
97568.6
68144.6
44630.1
25541.1
13549.7
7912.07
5716.38
4581.98
3949.48
3388.03
3005.23
2663.22
2451.93
2273.83
2168.9
2064.98
1993.97
1916.5
1856.45
1785.59
1712.02
1618.4
1514.58
1401.35
1293.07
1195.03
1113.24
1049.25
1002.21
969.974
947.293
932.147
918.934
909.473
898.085
891.103
880.705
879.728
875.193
890.105
902.069
951.334
1007.07
1132.51
1189.32
423.912
559.785
828.223
1182.65
1484.99
1621.45
1588.24
1444.51
1249.74
1043.12
861.84
741.347
684.451
669.55
675.523
690.831
709.762
730.626
752.317
775.464
799.563
825.981
853.929
885.473
919.189
958.27
1000.08
1049.79
1102.51
1166.8
1233.65
1317.73
1402.54
1514.34
1623.89
1777.18
1921.06
2138.89
2355.02
2734.76
3158.3
3891.8
4680.43
5918.54
6962.68
8237.36
8588.02
9717.88
11008.2
15566.5
20051.3
29406.5
91417.9
126357
96000.9
66813.8
43514.9
24712.2
13085.6
7668.3
5581.18
4488.01
3879.82
3329.84
2957.09
2620.46
2415
2240.75
2140.12
2039.54
1972.09
1897.61
1840.37
1771.8
1700.29
1608.47
1506.32
1394.66
1287.69
1190.68
1109.7
1046.29
999.644
967.668
945.137
930.09
916.938
907.539
896.19
889.25
878.866
877.867
873.269
887.947
899.644
948.037
1002.9
1125.37
1179.64
423.337
558.166
825.256
1178.86
1481.21
1618.17
1585.59
1442.59
1248.62
1042.75
862.157
742.191
685.555
670.714
676.656
691.915
710.804
731.643
753.324
776.477
800.592
827.038
855.021
886.613
920.379
959.524
1001.4
1051.2
1104
1168.39
1235.35
1319.56
1404.55
1516.55
1626.36
1779.96
1924.27
2142.69
2359.65
2740.15
3164.24
3897.31
4684.11
5916.76
6952.83
8215.79
8564.92
9701.22
10999.9
15531.4
19973
29038.1
89429.4
124153
94431.7
65516.1
42448.5
23940.3
12665.9
7453.33
5463.41
4406.53
3819.46
3279.45
2915.38
2583.38
2382.98
2212.02
2115.1
2017.39
1953.01
1881.11
1826.3
1759.73
1690.02
1599.78
1499.13
1388.87
1283.07
1187
1106.72
1043.82
997.515
965.747
943.323
928.339
915.217
905.854
894.522
887.603
877.215
876.176
871.5
885.929
897.347
944.862
998.84
1118.4
1170.21
422.771
556.565
822.3
1175.04
1477.35
1614.77
1582.82
1440.56
1247.42
1042.34
862.458
743.036
686.668
671.887
677.798
693.007
711.853
732.667
754.337
777.495
801.625
828.099
856.117
887.756
921.572
960.783
1002.73
1052.6
1105.49
1169.99
1237.06
1321.42
1406.56
1518.78
1628.85
1782.76
1927.53
2146.55
2364.35
2745.64
3170.28
3902.99
4688.07
5915.61
6944.21
8196.65
8545.15
9688.05
10994.4
15498.6
19897.4
28677.6
87460.4
121916
92859.7
64247.7
41425.9
23219.4
12284.9
7263.18
5360.6
4335.77
3767.11
3235.76
2879.23
2551.24
2355.2
2187.09
2093.34
1998.09
1936.37
1866.71
1814
1749.15
1681.01
1592.16
1492.86
1383.87
1279.13
1183.89
1104.25
1041.79
995.769
964.164
941.809
926.855
913.739
904.388
893.054
886.136
875.729
874.634
869.867
884.033
895.161
941.791
994.878
1111.57
1161
422.216
554.981
819.353
1171.19
1473.4
1611.25
1579.92
1438.43
1246.15
1041.88
862.743
743.883
687.789
673.069
678.948
694.106
712.909
733.697
755.355
778.517
802.661
829.164
857.216
888.901
922.768
962.043
1004.06
1054.01
1106.99
1171.59
1238.78
1323.28
1408.59
1521.03
1631.37
1785.59
1930.81
2150.46
2369.1
2751.19
3176.39
3908.8
4692.27
5915.03
6936.71
8179.71
8528.41
9678
10991.2
15467.8
19824.2
28324.7
85512.4
119649
91283.6
63005.1
40442.5
22543.8
11938
7094.47
5270.67
4274.24
3721.64
3197.87
2847.9
2523.38
2331.12
2165.45
2074.44
1981.3
1921.86
1854.14
1803.24
1739.88
1673.1
1585.5
1487.39
1379.54
1275.77
1181.29
1102.21
1040.14
994.359
962.876
940.558
925.608
912.473
903.114
891.762
884.828
874.387
873.22
868.352
882.242
893.071
938.811
990.998
1104.88
1152
421.67
553.414
816.415
1167.31
1469.37
1607.61
1576.9
1436.2
1244.8
1041.38
863.012
744.73
688.916
674.258
680.106
695.213
713.972
734.732
756.377
779.542
803.7
830.23
858.316
890.048
923.964
963.305
1005.38
1055.43
1108.49
1173.19
1240.49
1325.14
1410.63
1523.29
1633.89
1788.44
1934.13
2154.4
2373.89
2756.79
3182.57
3914.71
4696.67
5914.95
6930.22
8164.78
8514.39
9670.73
10990.2
15438.7
19753.1
27979.1
83586.8
117356
89702.6
61785.2
39494.3
21908.8
11620.8
6944.33
5191.83
4220.64
3682.13
3164.99
2820.73
2499.24
2310.26
2146.7
2058.03
1966.69
1909.23
1843.18
1793.84
1731.75
1666.17
1579.65
1482.62
1375.81
1272.91
1179.12
1100.56
1038.82
993.241
961.847
939.537
924.566
911.395
902.01
890.623
883.659
873.172
871.92
866.939
880.541
891.063
935.908
987.188
1098.31
1143.2
421.134
551.863
813.484
1163.4
1465.25
1603.85
1573.76
1433.87
1243.38
1040.83
863.265
745.577
690.048
675.455
681.271
696.326
715.04
735.772
757.402
780.57
804.741
831.298
859.416
891.195
925.161
964.566
1006.71
1056.84
1109.98
1174.8
1242.21
1327
1412.66
1525.55
1636.42
1791.31
1937.45
2158.37
2378.71
2762.43
3188.78
3920.71
4701.24
5915.31
6924.63
8151.67
8502.83
9665.92
10991
15411
19684
27640.7
81684.9
115038
88116.1
60585.1
38577.4
21309.9
11329.9
6810.27
5122.56
4173.88
3647.75
3136.44
2797.19
2478.33
2292.21
2130.46
2043.79
1954
1898.24
1833.62
1785.62
1724.63
1660.08
1574.53
1478.46
1372.59
1270.5
1177.34
1099.23
1037.8
992.378
961.044
938.718
923.706
910.48
901.053
889.618
882.61
872.066
870.716
865.614
878.918
889.124
933.071
983.438
1091.85
1134.57
420.606
550.328
810.56
1159.46
1461.06
1599.97
1570.5
1431.44
1241.88
1040.24
863.5
746.423
691.186
676.658
682.442
697.445
716.112
736.815
758.431
781.601
805.783
832.367
860.517
892.342
926.356
965.825
1008.03
1058.25
1111.47
1176.4
1243.92
1328.87
1414.7
1527.81
1638.95
1794.17
1940.79
2162.36
2383.55
2768.09
3195.01
3926.75
4705.93
5916.04
6919.84
8140.2
8493.46
9663.29
10993.4
15384.6
19616.5
27309.3
79808
112700
86523.6
59402.1
37688.6
20743.2
11062
6690.16
5061.56
4133.03
3617.81
3111.64
2776.8
2460.24
2276.61
2116.42
2031.47
1942.98
1888.68
1825.3
1778.44
1718.39
1654.72
1570.03
1474.83
1369.82
1268.47
1175.88
1098.19
1037.02
991.737
960.437
938.075
923.003
909.708
900.225
888.731
881.667
871.055
869.597
864.364
877.36
887.244
930.291
979.738
1085.48
1126.1
420.088
548.807
807.643
1155.48
1456.78
1595.99
1567.13
1428.91
1240.32
1039.61
863.72
747.268
692.327
677.867
683.619
698.568
717.188
737.862
759.461
782.632
806.826
833.435
861.616
893.487
927.549
967.082
1009.36
1059.65
1112.96
1178
1245.64
1330.73
1416.73
1530.07
1641.48
1797.04
1944.13
2166.36
2388.39
2773.75
3201.24
3932.83
4710.73
5917.1
6915.78
8130.21
8486.08
9662.58
10997.2
15359.2
19550.6
26984.7
77957.5
110344
84924.9
58234
36824.9
20205.3
10814.3
6582.17
5007.71
4097.29
3591.72
3090.11
2759.14
2444.61
2263.15
2104.3
2020.81
1933.43
1880.38
1818.05
1772.16
1712.91
1650.01
1566.07
1471.66
1367.44
1266.76
1174.7
1097.4
1036.47
991.288
960.001
937.584
922.439
909.061
899.51
887.945
880.814
870.126
868.549
863.178
875.858
885.413
927.558
976.081
1079.21
1117.79
419.578
547.3
804.731
1151.47
1452.42
1591.9
1563.65
1426.3
1238.69
1038.93
863.923
748.111
693.473
679.081
684.801
699.696
718.268
738.911
760.493
783.664
807.868
834.502
862.714
894.629
928.739
968.336
1010.67
1061.05
1114.45
1179.59
1247.34
1332.59
1418.76
1532.33
1644
1799.91
1947.47
2170.35
2393.24
2779.42
3207.47
3938.93
4715.6
5918.45
6912.37
8121.55
8480.47
9663.56
11002.2
15334.8
19486.1
26666.8
76134.5
107973
83319.9
57078.7
35983.6
19693.2
10584.6
6484.73
4960.04
4065.96
3568.96
3071.4
2743.87
2431.13
2251.56
2093.86
2011.61
1925.16
1873.17
1811.74
1766.68
1708.09
1645.86
1562.59
1468.89
1365.39
1265.34
1173.77
1096.82
1036.1
991.007
959.714
937.227
921.994
908.523
898.892
887.248
880.041
869.267
867.563
862.046
874.403
883.623
924.865
972.459
1073.02
1109.62
419.076
545.807
801.824
1147.44
1447.99
1587.7
1560.06
1423.59
1236.99
1038.22
864.11
748.952
694.622
680.299
685.987
700.828
719.351
739.962
761.526
784.696
808.91
835.567
863.81
895.769
929.926
969.585
1011.99
1062.45
1115.93
1181.18
1249.04
1334.43
1420.77
1534.58
1646.52
1802.77
1950.8
2174.35
2398.07
2785.07
3213.67
3945.03
4720.52
5920.04
6909.52
8114.09
8476.44
9666.02
11008.1
15311.1
19422.7
26355.4
74340.3
105591
81708.7
55934.4
35162.2
19204.2
10370.6
6396.48
4917.73
4038.45
3549.08
3055.14
2730.66
2419.51
2241.61
2084.89
2003.69
1918.02
1866.93
1806.25
1761.88
1703.86
1642.19
1559.51
1466.46
1363.62
1264.17
1173.05
1096.42
1035.89
990.869
959.555
936.986
921.653
908.079
898.36
886.628
879.335
868.469
866.629
860.961
872.987
881.866
922.205
968.868
1066.91
1101.58
418.581
544.327
798.922
1143.37
1443.48
1583.4
1556.37
1420.8
1235.24
1037.47
864.282
749.791
695.774
681.522
687.178
701.964
720.437
741.014
762.561
785.729
809.951
836.631
864.903
896.905
931.108
970.829
1013.29
1063.84
1117.4
1182.76
1250.73
1336.27
1422.78
1536.81
1649.02
1805.61
1954.11
2178.33
2402.89
2790.7
3219.85
3951.11
4725.48
5921.83
6907.18
8107.7
8473.81
9669.77
11014.9
15288.1
19360.4
26050.4
72576
103200
80091.7
54799.4
34358.7
18736
10170.6
6316.23
4880.07
4014.24
3531.7
3041.02
2719.27
2409.53
2233.09
2077.21
1996.89
1911.86
1861.53
1801.49
1757.69
1700.12
1638.95
1556.79
1464.33
1362.11
1263.2
1172.51
1096.18
1035.82
990.855
959.507
936.844
921.403
907.717
897.901
886.073
878.687
867.723
865.74
859.913
871.602
880.136
919.572
965.301
1060.86
1093.67
418.095
542.859
796.024
1139.28
1438.89
1579
1552.58
1417.93
1233.42
1036.68
864.439
750.628
696.929
682.748
688.372
703.102
721.525
742.069
763.595
786.76
810.99
837.692
865.992
898.037
932.285
972.068
1014.59
1065.22
1118.86
1184.33
1252.4
1338.1
1424.78
1539.04
1651.51
1808.45
1957.42
2182.3
2407.69
2796.31
3225.99
3957.16
4730.44
5923.78
6905.29
8102.27
8472.43
9674.66
11022.4
15265.6
19299.2
25751.8
70842.6
100805
78469.3
53672.4
33571.3
18286.4
9982.97
6242.97
4846.44
3992.9
3516.49
3028.75
2709.45
2400.98
2225.81
2070.65
1991.06
1906.56
1856.86
1797.35
1754.02
1696.83
1636.07
1554.38
1462.46
1360.8
1262.41
1172.13
1096.08
1035.87
990.947
959.553
936.788
921.23
907.425
897.505
885.576
878.089
867.021
864.887
858.897
870.244
878.428
916.962
961.755
1054.88
1085.88
417.615
541.403
793.13
1135.15
1434.24
1574.5
1548.69
1414.97
1231.54
1035.86
864.58
751.462
698.086
683.979
689.57
704.244
722.615
743.124
764.629
787.791
812.027
838.751
867.078
899.165
933.458
973.301
1015.89
1066.59
1120.31
1185.89
1254.07
1339.92
1426.76
1541.25
1653.98
1811.26
1960.7
2186.25
2412.46
2801.88
3232.09
3963.18
4735.41
5925.88
6903.78
8097.7
8472.17
9680.51
11030.5
15243.6
19238.8
25459.2
69141.1
98408.6
76842
52552.3
32798.5
17853.7
9806.35
6175.83
4816.31
3974.03
3503.16
3018.09
2700.99
2393.67
2219.63
2065.08
1986.09
1902.01
1852.84
1793.76
1750.81
1693.92
1633.51
1552.22
1460.8
1359.68
1261.77
1171.87
1096.09
1036.02
991.13
959.682
936.806
921.124
907.194
897.163
885.126
877.533
866.355
864.065
857.907
868.906
876.736
914.37
958.226
1048.97
1078.2
417.143
539.959
790.239
1131
1429.51
1569.9
1544.71
1411.93
1229.6
1035
864.708
752.294
699.245
685.212
690.771
705.388
723.707
744.179
765.663
788.82
813.062
839.807
868.161
900.289
934.625
974.527
1017.17
1067.96
1121.76
1187.43
1255.73
1341.72
1428.73
1543.44
1656.44
1814.06
1963.97
2190.17
2417.2
2807.41
3238.13
3969.15
4740.35
5928.09
6902.62
8093.89
8472.88
9687.21
11039.1
15222
19179.2
25172.8
67472.5
96013.5
75210.5
51437.9
32038.7
17436.3
9639.54
6114.05
4789.21
3957.3
3491.45
3008.83
2693.74
2387.44
2214.4
2060.36
1981.87
1898.11
1849.38
1790.64
1747.99
1691.34
1631.22
1550.3
1459.33
1358.71
1261.27
1171.73
1096.2
1036.26
991.39
959.879
936.887
921.075
907.015
896.867
884.718
877.013
865.72
863.268
856.938
867.584
875.057
911.793
954.711
1043.11
1070.63
416.678
538.525
787.351
1126.81
1424.72
1565.22
1540.64
1408.82
1227.61
1034.11
864.822
753.124
700.406
686.449
691.975
706.534
724.8
745.236
766.697
789.848
814.095
840.859
869.239
901.407
935.786
975.747
1018.45
1069.32
1123.19
1188.97
1257.37
1343.51
1430.68
1545.62
1658.88
1816.84
1967.21
2194.07
2421.91
2812.9
3244.12
3975.07
4745.27
5930.38
6901.76
8090.75
8474.46
9694.62
11048.1
15200.7
19120.4
24892.4
65837.4
93623.1
73575.8
50328.7
31291.1
17033
9481.51
6056.96
4764.74
3942.44
3481.15
3000.78
2687.51
2382.16
2210.01
2056.39
1978.3
1894.79
1846.4
1787.94
1745.52
1689.05
1629.16
1548.57
1458.03
1357.87
1260.87
1171.67
1096.38
1036.57
991.715
960.136
937.022
921.075
906.88
896.611
884.345
876.522
865.11
862.492
855.985
866.274
873.387
909.227
951.208
1037.3
1063.16
416.219
537.103
784.467
1122.6
1419.86
1560.44
1536.47
1405.64
1225.56
1033.19
864.922
753.951
701.569
687.688
693.181
707.682
725.894
746.292
767.73
790.874
815.125
841.908
870.313
902.52
936.941
976.96
1019.72
1070.67
1124.61
1190.5
1259
1345.28
1432.62
1547.78
1661.29
1819.6
1970.43
2197.95
2426.58
2818.35
3250.05
3980.92
4750.15
5932.74
6901.15
8088.22
8476.79
9702.65
11057.4
15179.7
19062.2
24617.8
64236.8
91240.7
71938.8
49224
30554.5
16642.5
9331.36
6004.01
4742.58
3929.19
3472.08
2993.79
2682.2
2377.72
2206.34
2053.08
1975.29
1891.97
1843.85
1785.59
1743.35
1687
1627.31
1547
1456.86
1357.14
1260.56
1171.7
1096.64
1036.94
992.094
960.442
937.202
921.116
906.783
896.388
884.001
876.056
864.522
861.731
855.044
864.973
871.722
906.67
947.713
1031.55
1055.79
415.766
535.69
781.585
1118.37
1414.94
1555.58
1532.23
1402.39
1223.47
1032.23
865.01
754.776
702.733
688.929
694.39
708.832
726.989
747.348
768.761
791.898
816.152
842.953
871.382
903.628
938.089
978.165
1020.99
1072
1126.03
1192.01
1260.62
1347.05
1434.54
1549.93
1663.69
1822.34
1973.62
2201.79
2431.21
2823.74
3255.92
3986.71
4754.99
5935.14
6900.76
8086.21
8479.79
9711.19
11066.9
15158.9
19004.7
24349
62671.1
88869.3
70300.5
48123.5
29828.4
16263.9
9188.32
5954.69
4722.41
3917.34
3464.07
2987.72
2677.67
2373.99
2203.31
2050.35
1972.79
1889.58
1841.66
1783.56
1741.43
1685.16
1625.63
1545.58
1455.8
1356.51
1260.33
1171.79
1096.95
1037.36
992.519
960.79
937.421
921.193
906.717
896.193
883.682
875.611
863.95
860.983
854.113
863.678
870.06
904.119
944.226
1025.84
1048.52
415.32
534.288
778.705
1114.1
1409.95
1550.64
1527.89
1399.07
1221.32
1031.25
865.086
755.599
703.899
690.173
695.601
709.983
728.084
748.404
769.792
792.921
817.177
843.994
872.447
904.73
939.231
979.363
1022.24
1073.33
1127.43
1193.52
1262.22
1348.79
1436.44
1552.05
1666.06
1825.05
1976.78
2205.61
2435.8
2829.09
3261.72
3992.43
4759.77
5937.58
6900.57
8084.67
8483.37
9720.18
11076.6
15138.3
18947.9
24086
61140.9
86511.9
68662.1
47026.8
29112.1
15896.5
9051.73
5908.58
4703.98
3906.7
3456.99
2982.44
2673.82
2370.89
2200.83
2048.11
1970.71
1887.57
1839.8
1781.8
1739.74
1683.51
1624.11
1544.28
1454.85
1355.95
1260.16
1171.93
1097.31
1037.83
992.982
961.172
937.672
921.299
906.678
896.022
883.383
875.182
863.391
860.244
853.187
862.386
868.4
901.573
940.746
1020.18
1041.33
414.88
532.895
775.828
1109.81
1404.9
1545.61
1523.48
1395.68
1219.13
1030.24
865.151
756.42
705.066
691.42
696.814
711.136
729.181
749.46
770.821
793.941
818.198
845.032
873.506
905.826
940.367
980.554
1023.49
1074.65
1128.82
1195.01
1263.81
1350.52
1438.33
1554.16
1668.42
1827.74
1979.92
2209.39
2440.35
2834.38
3267.45
3998.08
4764.49
5940.03
6900.54
8083.54
8487.46
9729.52
11086.5
15117.9
18891.6
23828.5
59646.7
84171.6
67024.9
45934
28405.3
15539.4
8921.01
5865.33
4687.07
3897.11
3450.7
2977.86
2670.58
2368.34
2198.84
2046.3
1969.01
1885.89
1838.22
1780.28
1738.24
1682.02
1622.71
1543.09
1453.98
1355.46
1260.04
1172.11
1097.7
1038.32
993.475
961.583
937.949
921.429
906.662
895.869
883.1
874.766
862.843
859.512
852.266
861.095
866.738
899.03
937.27
1014.57
1034.23
414.445
531.512
772.953
1105.5
1399.8
1540.51
1518.99
1392.23
1216.89
1029.2
865.205
757.238
706.234
692.668
698.029
712.29
730.277
750.515
771.849
794.958
819.216
846.065
874.561
906.917
941.496
981.737
1024.72
1075.96
1130.2
1196.48
1265.39
1352.24
1440.2
1556.24
1670.75
1830.4
1983.03
2213.14
2444.86
2839.61
3273.12
4003.65
4769.15
5942.49
6900.65
8082.77
8491.99
9739.17
11096.4
15097.6
18835.8
23576.6
58188.8
81851.3
65390.2
44845.1
27707.6
15192.2
8795.66
5824.61
4671.5
3888.44
3445.11
2973.88
2667.85
2366.26
2197.26
2044.87
1967.64
1884.5
1836.88
1778.96
1736.91
1680.66
1621.42
1541.99
1453.18
1355.03
1259.97
1172.33
1098.13
1038.84
993.993
962.016
938.248
921.579
906.664
895.733
882.831
874.36
862.302
858.785
851.346
859.804
865.075
896.489
933.799
1009
1027.22
414.017
530.138
770.08
1101.16
1394.63
1535.32
1514.43
1388.72
1214.61
1028.13
865.249
758.055
707.403
693.918
699.246
713.445
731.374
751.57
772.876
795.974
820.231
847.094
875.611
908.002
942.618
982.913
1025.95
1077.26
1131.57
1197.95
1266.95
1353.94
1442.05
1558.31
1673.06
1833.04
1986.12
2216.86
2449.33
2844.79
3278.72
4009.15
4773.74
5944.95
6900.88
8082.32
8496.91
9749.06
11106.4
15077.5
18780.6
23330.2
56767.4
79553.7
63759.4
43760.3
27019.1
14854.3
8675.27
5786.15
4657.09
3880.57
3440.12
2970.42
2665.57
2364.6
2196.05
2043.77
1966.55
1883.35
1835.74
1777.81
1735.72
1679.42
1620.23
1540.96
1452.44
1354.64
1259.93
1172.58
1098.58
1039.39
994.53
962.468
938.564
921.746
906.68
895.609
882.572
873.963
861.767
858.06
850.427
858.511
863.407
893.949
930.332
1003.47
1020.28
413.593
528.772
767.209
1096.8
1389.41
1530.07
1509.8
1385.16
1212.28
1027.05
865.284
758.87
708.574
695.17
700.464
714.602
732.472
752.624
773.901
796.987
821.242
848.119
876.656
909.081
943.734
984.08
1027.17
1078.55
1132.93
1199.4
1268.5
1355.63
1443.89
1560.36
1675.34
1835.66
1989.17
2220.54
2453.76
2849.92
3284.25
4014.57
4778.26
5947.39
6901.2
8082.14
8502.15
9759.14
11116.4
15057.4
18725.8
23089.1
55382.8
77281.6
62134.1
42680.1
26339.5
14525.4
8559.46
5749.72
4643.7
3873.39
3435.66
2967.43
2663.69
2363.31
2195.16
2042.95
1965.71
1882.42
1834.79
1776.81
1734.66
1678.29
1619.12
1539.99
1451.75
1354.28
1259.92
1172.85
1099.04
1039.95
995.083
962.935
938.895
921.925
906.709
895.495
882.322
873.571
861.235
857.336
849.506
857.214
861.735
891.41
926.869
997.989
1013.43
413.175
527.415
764.34
1092.41
1384.14
1524.75
1505.1
1381.53
1209.92
1025.94
865.309
759.684
709.746
696.424
701.684
715.759
733.569
753.677
774.924
797.997
822.25
849.14
877.696
910.154
944.843
985.241
1028.38
1079.83
1134.28
1200.85
1270.04
1357.3
1445.71
1562.39
1677.61
1838.25
1992.2
2224.19
2458.14
2854.99
3289.71
4019.92
4782.72
5949.82
6901.61
8082.21
8507.67
9769.38
11126.4
15037.5
18671.6
22853.3
54035
75037.6
60515.7
41604.8
25669.1
14205.2
8447.94
5715.11
4631.22
3866.83
3431.66
2964.83
2662.15
2362.33
2194.55
2042.38
1965.08
1881.67
1834
1775.95
1733.7
1677.23
1618.08
1539.08
1451.1
1353.96
1259.93
1173.13
1099.52
1040.52
995.647
963.412
939.237
922.116
906.747
895.389
882.078
873.183
860.706
856.611
848.583
855.914
860.057
888.87
923.409
992.544
1006.65
412.763
526.066
761.473
1088
1378.81
1519.35
1500.33
1377.86
1207.52
1024.8
865.327
760.496
710.918
697.679
702.905
716.917
734.666
754.73
775.946
799.005
823.255
850.157
878.731
911.222
945.945
986.394
1029.58
1081.1
1135.61
1202.28
1271.56
1358.96
1447.51
1564.4
1679.86
1840.82
1995.2
2227.81
2462.48
2860.01
3295.1
4025.19
4787.11
5952.22
6902.09
8082.49
8513.44
9779.74
11136.5
15017.7
18617.9
22622.7
52723.9
72824.2
58905.8
40535.1
25008.1
13893.5
8340.42
5682.17
4619.54
3860.8
3428.07
2962.58
2660.92
2361.62
2194.18
2042.03
1964.64
1881.09
1833.35
1775.2
1732.84
1676.26
1617.09
1538.22
1450.49
1353.66
1259.96
1173.43
1100.01
1041.1
996.219
963.898
939.587
922.314
906.793
895.29
881.839
872.798
860.177
855.885
847.656
854.609
858.374
886.331
919.952
987.14
999.951
412.355
524.725
758.608
1083.58
1373.44
1513.89
1495.5
1374.13
1205.09
1023.65
865.337
761.307
712.092
698.936
704.128
718.075
735.763
755.781
776.966
800.01
824.257
851.169
879.761
912.283
947.041
987.539
1030.78
1082.37
1136.94
1203.69
1273.07
1360.6
1449.3
1566.39
1682.08
1843.36
1998.17
2231.4
2466.78
2864.98
3300.43
4030.38
4791.42
5954.59
6902.63
8082.96
8519.42
9790.18
11146.4
14998
18564.6
22397.1
51449.5
70643.8
57306.1
39471.6
24356.6
13590
8236.7
5650.72
4608.58
3855.24
3424.83
2960.64
2659.94
2361.16
2194.02
2041.86
1964.36
1880.65
1832.81
1774.55
1732.05
1675.35
1616.16
1537.39
1449.9
1353.38
1260
1173.73
1100.51
1041.68
996.797
964.39
939.943
922.519
906.845
895.195
881.603
872.414
859.648
855.156
846.725
853.298
856.684
883.79
916.499
981.776
993.324
411.952
523.392
755.745
1079.13
1368.01
1508.37
1490.61
1370.36
1202.62
1022.48
865.34
762.117
713.267
700.195
705.352
719.234
736.86
756.832
777.984
801.013
825.255
852.178
880.786
913.339
948.131
988.677
1031.96
1083.62
1138.26
1205.1
1274.57
1362.23
1451.07
1568.36
1684.28
1845.89
2001.12
2234.96
2471.04
2869.89
3305.7
4035.5
4795.67
5956.94
6903.22
8083.59
8525.57
9800.69
11156.4
14978.3
18511.9
22176.6
50211.6
68498.6
55718.1
38415.2
23715
13294.5
8136.56
5620.66
4598.25
3850.1
3421.91
2958.96
2659.2
2360.9
2194.04
2041.86
1964.22
1880.33
1832.37
1773.98
1731.34
1674.49
1615.28
1536.6
1449.34
1353.12
1260.05
1174.05
1101.01
1042.27
997.378
964.885
940.304
922.728
906.9
895.103
881.368
872.03
859.118
854.425
845.789
851.982
854.988
881.25
913.05
976.451
986.77
411.554
522.067
752.884
1074.66
1362.54
1502.79
1485.66
1366.54
1200.12
1021.29
865.337
762.926
714.442
701.454
706.576
720.394
737.957
757.881
779
802.013
826.249
853.182
881.806
914.39
949.214
989.808
1033.14
1084.86