/*--------------------------------*- C++ -*----------------------------------*\
| =========                 |                                                 |
| \\      /  F ield         | OpenFOAM: The Open Source CFD Toolbox           |
|  \\    /   O peration     | Version:  2412                                  |
|   \\  /    A nd           | Website:  www.openfoam.com                      |
|    \\/     M anipulation  |                                                 |
\*---------------------------------------------------------------------------*/
FoamFile
{
    version     2.0;
    format      ascii;
    arch        "LSB;label=32;scalar=64";
    class       volScalarField;
    location    "0.4";
    object      k;
}
// * * * * * * * * * * * * * * * * * * * * * * * * * * * * * * * * * * * * * //

dimensions      [0 2 -2 0 0 0 0];

internalField   nonuniform List<scalar> 
13079
(
40.8695
48.7242
60.5333
71.8937
77.9594
77.269
71.9203
64.8573
58.2857
53.3786
50.4918
49.4187
49.5076
50.1318
50.9245
51.7676
52.6095
53.4653
54.3212
55.2166
56.1315
57.1233
58.1532
59.3032
60.5049
61.8818
63.3129
64.9945
66.7125
68.7844
70.8384
73.4008
75.8332
79.0383
81.952
86.0469
89.5194
94.8567
99.6663
108.186
116.753
130.95
144.473
164.123
178.112
193.927
196.06
210.823
226.697
279.986
324.938
418.807
785.632
872.32
663.244
491.032
372.328
277.184
209.64
166.087
144.997
130.041
120.946
111.213
104.648
98.0953
94.3631
90.9038
89.2263
87.352
86.3686
85.0665
84.2071
82.8274
81.2149
78.8185
76.0239
40.8307
48.6425
60.428
71.8096
77.9207
77.2685
71.9425
64.8954
58.3386
53.44
50.5519
49.4744
49.56
50.181
50.9706
51.8114
52.6518
53.5071
54.3628
55.2588
56.1746
57.1677
58.1993
59.3514
60.5553
61.935
63.369
65.0542
66.776
68.8524
70.9114
73.4798
75.9192
79.1327
82.0565
86.1629
89.651
95.009
99.8463
108.4
116.998
131.225
144.753
164.394
178.32
194.073
196.154
211.053
227.02
280.176
324.741
416.491
777.949
866.619
658.948
486.856
368.36
273.462
206.973
164.464
144.23
129.566
120.67
110.972
104.487
97.9495
94.2768
90.8372
89.1998
87.3347
86.3669
85.0623
84.2012
82.8108
81.1899
78.7875
75.9951
40.7927
48.5618
60.3229
71.7241
77.879
77.2644
71.9619
64.9318
58.391
53.5015
50.6125
49.5309
49.6129
50.2306
51.0172
51.8557
52.6945
53.5491
54.4047
55.3013
56.2179
57.2124
58.2456
59.3997
60.6058
61.9883
63.4252
65.1139
66.8395
68.9204
70.9842
73.5585
76.005
79.2268
82.1606
86.2784
89.782
95.1605
100.025
108.611
117.239
131.494
145.025
164.655
178.52
194.216
196.258
211.29
227.345
280.349
324.529
414.161
770.181
860.623
654.528
482.695
364.504
269.956
204.559
163.049
143.579
129.166
120.441
110.772
104.358
97.8312
94.2108
90.7872
89.1845
87.3257
86.3706
85.0625
84.1989
82.7985
81.1702
78.7629
75.9734
40.7554
48.4822
60.2185
71.6375
77.8344
77.2566
71.9781
64.9662
58.4425
53.5629
50.6735
49.5878
49.6662
50.2805
51.064
51.9001
52.7374
53.5912
54.4468
55.3438
56.2612
57.2571
58.2918
59.4479
60.6562
62.0414
63.4811
65.1733
66.9026
68.9879
71.0566
73.6366
76.09
79.32
82.2638
86.3928
89.9119
95.3107
100.202
108.82
117.476
131.756
145.288
164.905
178.711
194.355
196.368
211.532
227.668
280.503
324.299
411.819
762.335
854.335
649.981
478.542
360.749
266.649
202.369
161.812
143.025
128.827
120.251
110.605
104.253
97.7358
94.1614
90.7507
89.178
87.3233
86.3784
85.0661
84.1995
82.7895
81.1545
78.7435
75.9576
40.719
48.4039
60.1146
71.5499
77.7869
77.2452
71.991
64.9984
58.4928
53.6239
50.7346
49.6451
49.7199
50.3307
51.1109
51.9446
52.7803
53.6334
54.4888
55.3863
56.3045
57.3017
58.3379
59.496
60.7064
62.0942
63.5368
65.2323
66.9652
69.0549
71.1282
73.714
76.1741
79.4123
82.3658
86.5059
90.0403
95.4592
100.378
109.025
117.709
132.012
145.543
165.145
178.892
194.488
196.484
211.777
227.988
280.637
324.051
409.466
754.418
847.763
645.305
474.392
357.087
263.523
200.377
160.725
142.551
128.539
120.094
110.467
104.171
97.6595
94.1259
90.7257
89.1787
87.3263
86.3894
85.0724
84.2022
82.7831
81.1422
78.7285
75.9466
72.7845
69.7444
66.9536
64.6312
62.8323
61.5426
60.6973
60.1178
59.758
59.4162
59.1943
58.8663
58.7193
58.4199
58.5373
58.4919
59.3056
59.9468
62.2028
64.5285
69.547
71.1963
40.6833
48.3266
60.0113
71.4612
77.7366
77.2302
72.0006
65.0283
58.5419
53.6845
50.7958
49.7027
49.7738
50.3811
51.158
51.9893
52.8233
53.6756
54.5308
55.4287
56.3477
57.3462
58.3838
59.5439
60.7563
62.1467
63.592
65.2909
67.0273
69.1212
71.1992
73.7905
76.2573
79.5034
82.4666
86.6176
90.1671
95.606
100.551
109.227
117.937
132.261
145.79
165.374
179.065
194.617
196.606
212.024
228.304
280.752
323.785
407.105
746.438
840.917
640.499
470.245
353.511
260.565
198.563
159.769
142.143
128.294
119.963
110.354
104.106
97.5997
94.1022
90.7103
89.1854
87.3337
86.4031
85.0808
84.2067
82.779
81.1327
78.7171
75.9397
72.7882
69.7577
66.9753
64.6588
62.8632
61.5741
60.7274
60.1442
59.78
59.4326
59.2062
58.8729
58.722
58.4177
58.5307
58.4796
59.2837
59.9149
62.1429
64.4484
69.3795
70.9645
40.6483
48.2504
59.9086
71.3714
77.6835
77.2116
72.0069
65.0558
58.5897
53.7445
50.857
49.7606
49.828
50.4316
51.2053
52.034
52.8664
53.7179
54.5728
55.4711
56.3908
57.3905
58.4295
59.5915
60.8059
62.1989
63.6468
65.349
67.0888
69.1869
71.2693
73.8662
76.3395
79.5934
82.566
86.7278
90.2924
95.7509
100.721
109.426
118.16
132.502
146.028
165.593
179.229
194.742
196.731
212.273
228.615
280.848
323.502
404.737
738.406
833.804
635.565
466.096
350.015
257.76
196.906
158.923
141.792
128.085
119.856
110.26
104.057
97.5538
94.0885
90.7031
89.1971
87.3448
86.4188
85.0909
84.2125
82.7766
81.1256
78.7088
75.9363
72.7957
69.7746
67.0002
64.689
62.8961
61.6071
60.7584
60.1711
59.8022
59.4492
59.2181
58.8796
58.7246
58.4154
58.5239
58.4668
59.2609
59.8818
62.081
64.3651
69.2085
70.7297
40.614
48.1752
59.8064
71.2805
77.6276
77.1895
72.0099
65.0811
58.6362
53.8039
50.9182
49.8187
49.8824
50.4823
51.2526
52.0788
52.9095
53.7601
54.6147
55.5133
56.4338
57.4346
58.475
59.6388
60.8552
62.2507
63.7012
65.4066
67.1497
69.2518
71.3387
73.9409
76.4206
79.6823
82.6641
86.8366
90.4159
95.8939
100.89
109.621
118.378
132.737
146.258
165.802
179.385
194.862
196.861
212.522
228.921
280.926
323.202
402.365
730.329
826.437
630.504
461.944
346.593
255.096
195.388
158.174
141.488
127.906
119.768
110.184
104.021
97.5201
94.0833
90.7029
89.2129
87.3588
86.4361
85.1024
84.2193
82.7756
81.1204
78.7031
75.9358
72.8062
69.7944
67.0275
64.7212
62.9305
61.6411
60.7901
60.1982
59.8243
59.4657
59.2297
58.8859
58.7269
58.4129
58.5165
58.4533
59.237
59.8472
62.0169
64.2785
69.034
70.4921
40.5805
48.1011
59.7046
71.1885
77.5689
77.1638
72.0098
65.1041
58.6814
53.8628
50.9794
49.8771
49.9371
50.5332
51.3001
52.1236
52.9526
53.8023
54.6566
55.5555
56.4766
57.4786
58.5203
59.6859
60.9042
62.3022
63.7552
65.4637
67.21
69.3161
71.4073
74.0148
76.5007
79.77
82.7608
86.9437
90.5377
96.0349
101.055
109.813
118.592
132.965
146.48
166.001
179.534
194.978
196.995
212.772
229.222
280.986
322.887
399.992
722.216
818.825
625.318
457.787
343.238
252.56
193.993
157.506
141.224
127.753
119.696
110.123
103.996
97.4968
94.0854
90.7088
89.2321
87.3754
86.4546
85.1149
84.2269
82.7757
81.1167
78.6994
75.9376
72.819
69.8163
67.0567
64.7549
62.966
61.6759
60.822
60.2253
59.8462
59.4818
59.241
58.892
58.7287
58.4098
58.5085
58.4391
59.2118
59.811
61.9506
64.1887
68.8563
70.2517
40.5475
48.0278
59.6033
71.0954
77.5075
77.1347
72.0065
65.1249
58.7253
53.9211
51.0405
49.9357
49.992
50.5842
51.3476
52.1686
52.9957
53.8444
54.6984
55.5976
56.5192
57.5223
58.5653
59.7327
60.9529
62.3532
63.8087
65.5203
67.2697
69.3797
71.475
74.0877
76.5797
79.8565
82.8561
87.0494
90.6578
96.1739
101.219
110.001
118.8
133.187
146.694
166.191
179.674
195.09
197.132
213.021
229.516
281.028
322.557
397.62
714.078
810.981
620.009
453.622
339.945
250.142
192.708
156.91
140.994
127.622
119.638
110.075
103.981
97.4826
94.0938
90.7197
89.2541
87.3939
86.4741
85.1282
84.235
82.7767
81.1142
78.6974
75.9414
72.8335
69.8399
67.0873
64.7898
63.0025
61.7112
60.8542
60.2524
59.8679
59.4976
59.2519
58.8977
58.7301
58.4063
58.4997
58.4241
59.1855
59.7734
61.882
64.0957
68.6756
70.0089
40.5152
47.9555
59.5023
71.0011
77.4433
77.1022
72.0002
65.1435
58.7679
53.9788
51.1016
49.9944
50.0471
50.6354
51.3952
52.2135
53.0388
53.8866
54.7401
55.6395
56.5617
57.5659
58.6101
59.7792
61.0012
62.4038
63.8617
65.5763
67.3288
69.4426
71.5419
74.1597
76.6576
79.9417
82.95
87.1534
90.7761
96.3108
101.379
110.186
119.004
133.402
146.9
166.373
179.808
195.199
197.272
213.27
229.805
281.053
322.213
395.252
705.923
802.915
614.579
449.449
336.709
247.83
191.518
156.374
140.792
127.51
119.591
110.038
103.973
97.4762
94.1075
90.7351
89.2784
87.4139
86.4942
85.142
84.2435
82.7782
81.1126
78.6968
75.9466
72.8494
69.8647
67.119
64.8256
63.0395
61.7468
60.8863
60.2793
59.8892
59.513
59.2623
58.9028
58.7309
58.4022
58.4903
58.4082
59.1579
59.7341
61.8114
63.9997
68.492
69.7639
40.4836
47.884
59.4016
70.9056
77.3765
77.0664
71.9908
65.16
58.8093
54.0359
51.1626
50.0534
50.1023
50.6867
51.4429
52.2585
53.0819
53.9287
54.7817
55.6813
56.6041
57.6093
58.6547
59.8255
61.0491
62.4541
63.9142
65.6318
67.3872
69.5048
71.608
74.2308
76.7345
80.0258
83.0426
87.2559
90.8926
96.4457
101.538
110.367
119.204
133.611
147.099
166.546
179.934
195.303
197.414
213.517
230.086
281.062
321.856
392.889
697.76
794.64
609.032
445.265
333.523
245.615
190.414
155.892
140.615
127.413
119.554
110.011
103.973
97.4765
94.1258
90.7541
89.3045
87.4352
86.5146
85.1561
84.252
82.78
81.1117
78.6971
75.953
72.8662
69.8905
67.1515
64.862
63.0771
61.7827
60.9185
60.3059
59.9102
59.528
59.2723
58.9076
58.7312
58.3976
58.48
58.3915
59.129
59.6934
61.7387
63.9008
68.3057
69.5169
40.4525
47.8134
59.3011
70.8089
77.3069
77.0273
71.9786
65.1744
58.8493
54.0924
51.2235
50.1125
50.1578
50.7381
51.4907
52.3036
53.1251
53.9707
54.8233
55.723
56.6463
57.6524
58.6989
59.8714
61.0967
62.5039
63.9663
65.6867
67.445
69.5662
71.6733
74.301
76.8103
80.1086
83.1337
87.3569
91.0073
96.5785
101.693
110.545
119.398
133.814
147.29
166.71
180.054
195.405
197.558
213.763
230.361
281.056
321.486
390.533
689.597
786.167
603.369
441.068
330.383
243.487
189.384
155.455
140.459
127.329
119.525
109.991
103.978
97.4826
94.1479
90.7762
89.332
87.4574
86.5353
85.1703
84.2605
82.782
81.1111
78.6981
75.9603
72.8838
69.917
67.1845
64.8989
63.1149
61.8187
60.9505
60.3323
59.9307
59.5425
59.2817
58.9118
58.7309
58.3923
58.469
58.3738
59.099
59.6512
61.664
63.7992
68.1171
69.2684
40.4219
47.7434
59.2009
70.711
77.2348
76.9849
71.9634
65.1867
58.8882
54.1483
51.2843
50.1718
50.2134
50.7896
51.5386
52.3487
53.1682
54.0128
54.8647
55.7646
56.6882
57.6953
58.743
59.917
61.144
62.5533
64.0179
65.7411
67.5022
69.627
71.7377
74.3702
76.8851
80.1903
83.2234
87.4562
91.1203
96.7093
101.846
110.719
119.588
134.01
147.475
166.867
180.168
195.502
197.704
214.006
230.629
281.034
321.104
388.187
681.444
777.508
597.594
436.856
327.285
241.437
188.419
155.057
140.32
127.256
119.503
109.978
103.989
97.4936
94.1732
90.801
89.3606
87.4803
86.556
85.1844
84.2687
82.784
81.1108
78.6995
75.968
72.9017
69.9438
67.2179
64.936
63.1529
61.8546
60.9823
60.3583
59.9508
59.5566
59.2907
58.9155
58.73
58.3864
58.4571
58.3552
59.0677
59.6075
61.5875
63.6949
67.9262
69.0184
40.3919
47.6743
59.1008
70.6118
77.1599
76.9395
71.9455
65.197
58.9258
54.2036
51.345
50.2312
50.2691
50.8413
51.5865
52.3938
53.2113
54.0547
54.9061
55.806
56.7301
57.738
58.7867
59.9623
61.1909
62.6024
64.069
65.7949
67.5587
69.687
71.8013
74.4385
76.9587
80.2707
83.3118
87.554
91.2315
96.838
101.997
110.89
119.774
134.201
147.653
167.016
180.276
195.597
197.851
214.247
230.89
280.998
320.711
385.852
673.308
768.677
591.711
432.628
324.222
239.458
187.513
154.693
140.195
127.193
119.486
109.97
104.003
97.5089
94.2013
90.8279
89.39
87.5035
86.5765
85.1984
84.2767
82.7857
81.1104
78.7011
75.9761
72.9198
69.9708
67.2515
64.9733
63.1909
61.8904
61.0139
60.3839
59.9705
59.5702
59.2991
58.9187
58.7285
58.3799
58.4445
58.3358
59.0353
59.5624
61.5092
63.5882
67.7334
68.7672
40.3625
47.6058
59.0009
70.5113
77.0825
76.8909
71.9248
65.2053
58.9622
54.2583
51.4056
50.2907
50.325
50.893
51.6345
52.4389
53.2544
54.0966
54.9474
55.8473
56.7717
57.7805
58.8302
60.0073
61.2374
62.6509
64.1196
65.8482
67.6146
69.7462
71.864
74.5058
77.0313
80.3499
83.3987
87.6503
91.3409
96.9647
102.145
111.057
119.955
134.386
147.824
167.158
180.377
195.689
197.999
214.486
231.144
280.948
320.308
383.53
665.198
759.685
585.723
428.383
321.192
237.543
186.657
154.358
140.083
127.138
119.474
109.968
104.021
97.5279
94.2316
90.8566
89.4199
87.5269
86.5967
85.212
84.2841
82.7871
81.1098
78.7027
75.9842
72.9379
69.9977
67.285
65.0105
63.2288
61.9261
61.0451
60.4091
59.9896
59.5833
59.3069
58.9213
58.7264
58.3727
58.4311
58.3154
59.0017
59.5159
61.4291
63.4791
67.5388
68.5151
40.3335
47.5379
58.901
70.4096
77.0026
76.8393
71.9014
65.2118
58.9974
54.3125
51.4661
50.3504
50.3811
50.9448
51.6825
52.484
53.2975
54.1384
54.9885
55.8884
56.8131
57.8228
58.8735
60.052
61.2835
62.6991
64.1698
65.9009
67.6698
69.8048
71.926
74.5723
77.1028
80.428
83.4843
87.745
91.4485
97.0893
102.29
111.221
120.131
134.565
147.989
167.294
180.474
195.777
198.148
214.721
231.39
280.885
319.896
381.223
657.121
750.544
579.632
424.118
318.191
235.686
185.846
154.048
139.982
127.09
119.466
109.969
104.042
97.5498
94.2637
90.8866
89.45
87.5504
86.6165
85.2252
84.2911
82.7881
81.1089
78.7042
75.9922
72.9557
70.0245
67.3183
65.0476
63.2665
61.9614
61.076
60.4339
60.0083
59.5959
59.3143
58.9234
58.7237
58.3649
58.4168
58.2941
58.9669
59.468
61.3474
63.3678
67.3426
68.2622
40.305
47.4707
58.8013
70.3067
76.9201
76.7847
71.8754
65.2164
59.0315
54.366
51.5265
50.4101
50.4373
50.9967
51.7306
52.5292
53.3405
54.1802
55.0296
55.9294
56.8544
57.8648
58.9164
60.0963
61.3293
62.7468
64.2194
65.9531
67.7245
69.8626
71.9871
74.6378
77.1733
80.5048
83.5685
87.8382
91.5545
97.2118
102.433
111.382
120.303
134.739
148.147
167.422
180.565
195.862
198.297
214.953
231.629
280.81
319.475
378.932
649.086
741.267
573.444
419.833
315.215
233.879
185.074
153.761
139.889
127.046
119.46
109.974
104.065
97.5743
94.2973
90.9178
89.4803
87.5737
86.6357
85.2378
84.2974
82.7885
81.1075
78.7053
76
72.9732
70.0509
67.3513
65.0843
63.3038
61.9964
61.1064
60.4582
60.0264
59.6079
59.321
58.925
58.7203
58.3564
58.4018
58.272
58.931
59.4188
61.2641
63.2544
67.145
68.0088
40.277
47.4041
58.7015
70.2024
76.8351
76.7272
71.8468
65.2191
59.0645
54.4189
51.5867
50.47
50.4936
51.0488
51.7788
52.5743
53.3835
54.2219
55.0705
55.9702
56.8954
57.9066
58.9591
60.1403
61.3747
62.7941
64.2686
66.0047
67.7784
69.9197
72.0474
74.7024
77.2428
80.5805
83.6514
87.9299
91.6587
97.3324
102.573
111.539
120.471
134.907
148.3
167.544
180.651
195.945
198.446
215.181
231.861
280.723
319.045
376.658
641.1
731.867
567.162
415.526
312.26
232.12
184.337
153.492
139.803
127.008
119.457
109.981
104.089
97.6009
94.3319
90.9497
89.5105
87.5967
86.6544
85.2499
84.303
82.7883
81.1056
78.706
76.0073
72.9902
70.0768
67.3839
65.1207
63.3408
62.031
61.1363
60.482
60.044
59.6194
59.3273
58.9259
58.7163
58.3472
58.386
58.2489
58.894
59.3684
61.1794
63.139
66.9462
67.7551
40.2494
47.338
58.6018
70.0969
76.7476
76.6669
71.8158
65.2202
59.0964
54.4713
51.6468
50.5299
50.55
51.1008
51.8269
52.6195
53.4265
54.2635
55.1113
56.0108
56.9363
57.9481
59.0014
60.184
61.4197
62.841
64.3173
66.0558
67.8318
69.9762
72.1069
74.7661
77.3112
80.6551
83.733
88.0201
91.7612
97.451
102.711
111.693
120.635
135.07
148.447
167.66
180.732
196.025
198.595
215.406
232.086
280.625
318.608
374.404
633.169
722.356
560.79
411.197
309.325
230.402
183.63
153.24
139.724
126.973
119.455
109.991
104.115
97.6292
94.3675
90.9823
89.5405
87.6194
86.6724
85.2612
84.3078
82.7874
81.1031
78.7061
76.0142
73.0066
70.1022
67.4159
65.1566
63.3774
62.0651
61.1657
60.5052
60.0611
59.6304
59.3329
58.9264
58.7117
58.3374
58.3694
58.225
58.8559
59.3166
61.0932
63.0218
66.7463
67.5013
40.2223
47.2725
58.502
69.9901
76.6578
76.6037
71.7823
65.2194
59.1272
54.5232
51.7068
50.59
50.6065
51.153
51.8751
52.6647
53.4694
54.305
55.152
56.0513
56.9769
57.9894
59.0435
60.2274
61.4644
62.8875
64.3654
66.1063
67.8845
70.0319
72.1656
74.8289
77.3786
80.7285
83.8132
88.1089
91.862
97.5676
102.846
111.844
120.795
135.229
148.588
167.769
180.808
196.102
198.743
215.627
232.304
280.517
318.165
372.169
625.301
712.746
554.333
406.845
306.408
228.722
182.95
153.002
139.649
126.94
119.455
110.001
104.143
97.6589
94.4036
91.0151
89.5701
87.6415
86.6897
85.2719
84.3119
82.7857
81.0999
78.7056
76.0204
73.0222
70.1268
67.4473
65.1919
63.4134
62.0987
61.1946
60.528
60.0777
59.6409
59.338
58.9262
58.7065
58.3269
58.3519
58.2002
58.8168
59.2637
61.0057
62.9028
66.5455
67.2474
40.1956
47.2074
58.4022
69.882
76.5655
76.5379
71.7464
65.2171
59.157
54.5745
51.7666
50.6501
50.6631
51.2052
51.9234
52.7098
53.5123
54.3465
55.1926
56.0917
57.0174
58.0305
59.0853
60.2704
61.5087
62.9335
64.4132
66.1563
67.9366
70.0869
72.2235
74.8909
77.445
80.8008
83.8922
88.1962
91.9612
97.6824
102.979
111.992
120.951
135.382
148.724
167.874
180.88
196.176
198.891
215.845
232.514
280.399
317.715
369.956
617.503
703.05
547.794
402.469
303.505
227.077
182.294
152.776
139.579
126.91
119.455
110.014
104.171
97.6895
94.4401
91.0482
89.5993
87.6632
86.7063
85.2818
84.3152
82.7833
81.096
78.7043
76.0259
73.0372
70.1507
67.478
65.2266
63.4489
62.1317
61.223
60.5502
60.0936
59.6508
59.3426
58.9255
58.7007
58.3158
58.3338
58.1745
58.7767
59.2096
60.9169
62.7822
66.3439
66.9937
40.1693
47.1429
58.3023
69.7727
76.4709
76.4693
71.7083
65.2131
59.1858
54.6253
51.8264
50.7103
50.7198
51.2575
51.9716
52.7549
53.5551
54.3878
55.233
56.1319
57.0576
58.0713
59.1269
60.3131
61.5526
62.9791
64.4604
66.2057
67.9881
70.1412
72.2807
74.9519
77.5105
80.872
83.9699
88.2822
92.0588
97.7952
103.109
112.137
121.104
135.531
148.855
167.973
180.948
196.247
199.038
216.058
232.718
280.272
317.259
367.765
609.78
693.279
541.179
398.07
300.615
225.464
181.66
152.561
139.512
126.882
119.456
110.027
104.199
97.721
94.4768
91.0813
89.628
87.6842
86.7221
85.2909
84.3176
82.7801
81.0913
78.7024
76.0308
73.0513
70.1739
67.5079
65.2607
63.4837
62.1642
61.2508
60.5718
60.1091
59.6602
59.3466
58.9243
58.6943
58.304
58.3148
58.1481
58.7355
59.1544
60.827
62.6601
66.1417
66.7403
40.1433
47.0788
58.2023
69.662
76.374
76.3981
71.6679
65.2075
59.2136
54.6755
51.886
50.7705
50.7767
51.3099
52.0199
52.8001
53.5979
54.4291
55.2734
56.1719
57.0976
58.1118
59.1681
60.3555
61.5961
63.0243
64.5071
66.2546
68.039
70.1949
72.3371
75.0122
77.575
80.9421
84.0465
88.3668
92.1548
97.9062
103.238
112.279
121.252
135.676
148.981
168.067
181.011
196.316
199.184
216.267
232.916
280.136
316.799
365.597
602.139
683.447
534.493
393.647
297.738
223.879
181.044
152.355
139.448
126.855
119.458
110.041
104.227
97.753
94.5135
91.1143
89.6561
87.7046
86.7371
85.2992
84.3192
82.776
81.0858
78.6997
76.0348
73.0645
70.1961
67.5371
65.294
63.5179
62.1961
61.278
60.5929
60.124
59.6691
59.3501
58.9225
58.6872
58.2916
58.2952
58.1208
58.6934
59.098
60.7359
62.5366
65.9391
66.4874
40.1178
47.0151
58.1023
69.5502
76.2748
76.3244
71.6253
65.2004
59.2404
54.7253
51.9454
50.8309
50.8335
51.3623
52.0682
52.8452
53.6406
54.4703
55.3136
56.2117
57.1374
58.1521
59.2091
60.3976
61.6393
63.0691
64.5534
66.303
68.0893
70.2479
72.3928
75.0716
77.6386
81.0112
84.1218
88.45
92.2493
98.0154
103.364
112.418
121.397
135.816
149.102
168.156
181.071
196.383
199.328
216.472
233.106
279.993
316.335
363.454
594.584
673.564
527.74
389.201
294.872
222.322
180.445
152.157
139.386
126.829
119.459
110.055
104.256
97.7854
94.5502
91.1471
89.6835
87.7243
86.7512
85.3068
84.3199
82.7712
81.0795
78.6961
76.038
73.0768
70.2175
67.5654
65.3266
63.5514
62.2273
61.3046
60.6135
60.1384
59.6775
59.3531
58.9201
58.6796
58.2786
58.2747
58.0927
58.6504
59.0406
60.6437
62.4118
65.736
66.235
40.0926
46.9518
58.002
69.437
76.1734
76.2482
71.5807
65.1918
59.2663
54.7745
52.0047
50.8912
50.8905
51.4147
52.1166
52.8903
53.6833
54.5113
55.3536
56.2514
57.1771
58.1922
59.2498
60.4393
61.6821
63.1135
64.5993
66.3509
68.139
70.3003
72.4477
75.1302
77.7012
81.0793
84.1959
88.532
92.3423
98.1229
103.488
112.555
121.539
135.952
149.219
168.24
181.127
196.447
199.471
216.674
233.291
279.843
315.866
361.334
587.122
663.643
520.925
384.732
292.017
220.79
179.862
151.966
139.326
126.804
119.46
110.069
104.285
97.818
94.5866
91.1796
89.7103
87.7433
86.7646
85.3135
84.3199
82.7655
81.0724
78.6918
76.0404
73.0883
70.238
67.5929
65.3584
63.5842
62.2579
61.3306
60.6334
60.1522
59.6853
59.3555
58.9173
58.6714
58.2649
58.2536
58.0638
58.6065
58.9822
60.5505
62.2857
65.5328
65.9833
40.0677
46.889
57.9017
69.3227
76.0698
76.1695
71.5339
65.1818
59.2914
54.8233
52.0639
50.9516
50.9476
51.4672
52.1649
52.9354
53.7259
54.5523
55.3935
56.2909
57.2165
58.232
59.2902
60.4808
61.7246
63.1574
64.6446
66.3982
68.1882
70.352
72.5019
75.1881
77.763
81.1463
84.269
88.6127
92.4339
98.2286
103.609
112.688
121.677
136.084
149.331
168.32
181.18
196.509
199.613
216.871
233.469
279.686
315.395
359.241
579.756
653.696
514.054
380.241
289.172
219.281
179.292
151.781
139.267
126.779
119.46
110.083
104.313
97.8507
94.6228
91.2117
89.7364
87.7616
86.7772
85.3194
84.319
82.759
81.0645
78.6867
76.042
73.0988
70.2575
67.6195
65.3895
63.6163
62.2879
61.356
60.6529
60.1655
59.6927
59.3574
58.9139
58.6626
58.2507
58.2318
58.0341
58.5617
58.9228
60.4564
62.1585
65.3293
65.7324
40.0432
46.8264
57.8012
69.207
75.964
76.0884
71.4851
65.1705
59.3155
54.8717
52.123
51.0121
51.0047
51.5198
52.2133
52.9804
53.7685
54.5932
55.4333
56.3302
57.2557
58.2716
59.3303
60.5219
61.7667
63.201
64.6896
66.4451
68.2368
70.4031
72.5554
75.2451
77.8239
81.2124
84.3409
88.6921
92.524
98.3327
103.729
112.819
121.813
136.212
149.439
168.396
181.23
196.569
199.754
217.064
233.642
279.523
314.921
357.173
572.491
643.734
507.133
375.729
286.337
217.796
178.736
151.602
139.21
126.755
119.461
110.097
104.341
97.8833
94.6586
91.2434
89.7618
87.7791
86.789
85.3246
84.3173
82.7517
81.0559
78.6807
76.0427
73.1085
70.2761
67.6452
65.4197
63.6477
62.3172
61.3808
60.6717
60.1783
59.6996
59.3588
58.91
58.6532
58.2358
58.2093
58.0037
58.5161
58.8625
60.3614
62.0303
65.1259
65.4824
40.019
46.7643
57.7005
69.0902
75.8561
76.005
71.4344
65.1577
59.3389
54.9195
52.1819
51.0726
51.0619
51.5723
52.2616
53.0254
53.811
54.634
55.473
56.3693
57.2947
58.311
59.3701
60.5627
61.8084
63.2442
64.7341
66.4914
68.2848
70.4536
72.6083
75.3014
77.8839
81.2776
84.4117
88.7704
92.6128
98.4352
103.847
112.948
121.945
136.337
149.544
168.468
181.276
196.627
199.893
217.253
233.809
279.354
314.444
355.132
565.332
633.768
500.166
371.199
283.514
216.333
178.192
151.427
139.153
126.73
119.46
110.111
104.369
97.9158
94.694
91.2745
89.7865
87.796
86.8001
85.329
84.3149
82.7437
81.0465
78.674
76.0427
73.1172
70.2938
67.6701
65.4491
63.6784
62.3459
61.405
60.6901
60.1906
59.7059
59.3597
58.9056
58.6433
58.2204
58.1861
57.9726
58.4696
58.8013
60.2655
61.9012
64.9225
65.2333
39.9951
46.7024
57.5996
68.9721
75.7462
75.9193
71.3819
65.1437
59.3614
54.967
52.2407
51.1331
51.1191
51.625
52.31
53.0704
53.8534
54.6747
55.5125
56.4083
57.3335
58.3501
59.4097
60.6032
61.8498
63.287
64.7781
66.5373
68.3324
70.5035
72.6605
75.357
77.9432
81.3418
84.4816
88.8475
92.7002
98.5361
103.963
113.074
122.074
136.458
149.644
168.536
181.32
196.683
200.03
217.439
233.971
279.18
313.966
353.117
558.282
623.811
493.16
366.651
280.702
214.89
177.659
151.257
139.097
126.706
119.46
110.125
104.396
97.9481
94.729
91.3052
89.8105
87.8122
86.8104
85.3327
84.3118
82.7349
81.0363
78.6666
76.0418
73.125
70.3106
67.694
65.4777
63.7083
62.3738
61.4287
60.7079
60.2024
59.7119
59.3601
58.9007
58.6329
58.2044
58.1623
57.9408
58.4224
58.7392
60.1689
61.7711
64.7193
64.9854
39.9715
46.6409
57.4985
68.8529
75.6342
75.8315
71.3274
65.1285
59.3832
55.014
52.2994
51.1937
51.1764
51.6776
52.3583
53.1154
53.8958
54.7153
55.5519
56.4472
57.3721
58.389
59.449
60.6434
61.8909
63.3294
64.8218
66.5828
68.3794
70.5529
72.712
75.4119
78.0016
81.4052
84.5504
88.9236
92.7864
98.6355
104.077
113.198
122.2
136.576
149.741
168.601
181.361
196.736
200.166
217.621
234.128
279.002
313.486
351.13
551.343
613.872
486.121
362.087
277.902
213.469
177.137
151.091
139.042
126.682
119.458
110.138
104.423
97.9801
94.7635
91.3354
89.8338
87.8277
86.8201
85.3357
84.3079
82.7255
81.0255
78.6584
76.0402
73.132
70.3266
67.7171
65.5055
63.7375
62.4012
61.4517
60.7252
60.2137
59.7173
59.3601
58.8954
58.622
58.1879
58.1379
57.9082
58.3744
58.6763
60.0715
61.6403
64.5163
64.7385
39.9482
46.5797
57.3972
68.7324
75.5202
75.7414
71.2713
65.112
59.4042
55.0606
52.3579
51.2543
51.2338
51.7303
52.4067
53.1603
53.9381
54.7558
55.5912
56.4858
57.4105
58.4277
59.4881
60.6833
61.9316
63.3715
64.865
66.6277
68.4258
70.6016
72.763
75.4661
78.0593
81.4677
84.6182
88.9985
92.8713
98.7334
104.189
113.32
122.324
136.69
149.835
168.663
181.399
196.788
200.301
217.799
234.28
278.819
313.006
349.17
544.519
603.963
479.055
357.51
275.116
212.069
176.624
150.929
138.988
126.657
119.457
110.151
104.449
98.0118
94.7975
91.3651
89.8565
87.8426
86.829
85.3381
84.3035
82.7154
81.014
78.6495
76.0379
73.1382
70.3416
67.7393
65.5325
63.7659
62.4279
61.4741
60.742
60.2246
59.7223
59.3597
58.8896
58.6106
58.1708
58.1128
57.8751
58.3257
58.6126
59.9735
61.5088
64.3136
64.4929
39.9252
46.5187
57.2957
68.6108
75.4042
75.6493
71.2133
65.0944
59.4244
55.1067
52.4164
51.3149
51.2912
51.783
52.4551
53.2052
53.9803
54.7962
55.6303
56.5243
57.4487
58.4661
59.5269
60.7229
61.972
63.4132
64.9078
66.6722
68.4718
70.6499
72.8133
75.5196
78.1162
81.5293
84.6852
89.0724
92.9551
98.83
104.299
113.439
122.445
136.802
149.926
168.721
181.435
196.839
200.434
217.974
234.427
278.633
312.525
347.238
537.813
594.095
471.968
352.922
272.344
210.69
176.122
150.77
138.934
126.633
119.455
110.164
104.475
98.0433
94.8311
91.3942
89.8785
87.8569
86.8374
85.3398
84.2984
82.7048
81.0019
78.64
76.0348
73.1436
70.3558
67.7607
65.5587
63.7937
62.4539
61.496
60.7582
60.235
59.7269
59.3588
58.8834
58.5987
58.1532
58.0872
57.8413
58.2763
58.5481
59.8749
61.3766
64.1113
64.2486
39.9024
46.458
57.194
68.488
75.2864
75.5551
71.1538
65.0757
59.444
55.1526
52.4747
51.3755
51.3486
51.8357
52.5034
53.2501
54.0225
54.8365
55.6693
56.5627
57.4867
58.5043
59.5654
60.7623
62.0121
63.4545
64.9503
66.7163
68.5174
70.6976
72.8631
75.5725
78.1725
81.5902
84.7512
89.1453
93.0377
98.9252
104.408
113.557
122.564
136.911
150.013
168.777
181.469
196.887
200.565
218.145
234.57
278.444
312.044
345.333
531.225
584.277
464.866
348.327
269.589
209.332
175.629
150.614
138.88
126.608
119.452
110.176
104.5
98.0744
94.8642
91.4228
89.9
87.8706
86.8453
85.341
84.2928
82.6936
80.9893
78.6298
76.0311
73.1482
70.3692
67.7813
65.5842
63.8207
62.4794
61.5174
60.7741
60.2449
59.7311
59.3575
58.8767
58.5863
58.1351
58.0611
57.8069
58.2262
58.483
59.7757
61.2438
63.9094
64.0055
39.88
46.3976
57.092
68.3641
75.1666
75.4588
71.0926
65.0559
59.463
55.198
52.5329
51.4361
51.4061
51.8885
52.5518
53.2949
54.0646
54.8767
55.7082
56.6008
57.5246
58.5423
59.6037
60.8013
62.0519
63.4955
64.9923
66.76
68.5624
70.7448
72.9122
75.6247
78.228
81.6503
84.8164
89.2173
93.1193
99.0191
104.515
113.672
122.68
137.017
150.098
168.829
181.501
196.935
200.695
218.314
234.709
278.252
311.563
343.457
524.759
574.52
457.756
343.727
266.852
207.994
175.146
150.462
138.827
126.583
119.449
110.188
104.525
98.1053
94.8968
91.4509
89.9209
87.8838
86.8526
85.3417
84.2866
82.6818
80.9761
78.6191
76.0268
73.1521
70.3818
67.8011
65.6089
63.8471
62.5042
61.5382
60.7894
60.2545
59.7349
59.3557
58.8697
58.5735
58.1166
58.0344
57.7719
58.1755
58.4171
59.6759
61.1105
63.7081
63.7639
39.8577
46.3374
56.9898
68.239
75.0451
75.3607
71.0298
65.0351
59.4812
55.2431
52.5909
51.4968
51.4636
51.9413
52.6001
53.3397
54.1067
54.9169
55.7469
56.6389
57.5622
58.58
59.6417
60.8401
62.0914
63.5362
65.034
66.8033
68.607
70.7914
72.9609
75.6764
78.2829
81.7097
84.8808
89.2884
93.1998
99.1117
104.62
113.786
122.794
137.121
150.18
168.88
181.531
196.981
200.823
218.479
234.845
278.058
311.082
341.609
518.414
564.833
450.645
339.125
264.134
206.679
174.672
150.312
138.775
126.559
119.446
110.2
104.55
98.1358
94.929
91.4786
89.9413
87.8966
86.8594
85.3419
84.2801
82.6697
80.9625
78.6079
76.0219
73.1553
70.3937
67.8202
65.6329
63.8728
62.5285
61.5585
60.8043
60.2636
59.7384
59.3537
58.8622
58.5603
58.0976
58.0071
57.7363
58.1242
58.3506
59.5757
60.9768
63.5073
63.5237
39.8357
46.2775
56.8874
68.1128
74.9217
75.2607
70.9656
65.0132
59.4989
55.2878
52.6489
51.5574
51.5211
51.9941
52.6484
53.3844
54.1486
54.9569
55.7856
56.6767
57.5997
58.6176
59.6795
60.8786
62.1306
63.5765
65.0754
66.8461
68.6512
70.8377
73.009
75.7275
78.3371
81.7684
84.9444
89.3586
93.2793
99.2032
104.725
113.898
122.906
137.222
150.26
168.928
181.559
197.025
200.95
218.641
234.976
277.862
310.602
339.788
512.192
555.227
443.539
334.526
261.439
205.385
174.207
150.165
138.723
126.534
119.443
110.212
104.574
98.1661
94.9608
91.5059
89.9612
87.9089
86.8658
85.3418
84.2731
82.6571
80.9484
78.5962
76.0164
73.1578
70.4049
67.8385
65.6563
63.8979
62.5522
61.5783
60.8188
60.2724
59.7414
59.3512
58.8544
58.5467
58.0782
57.9794
57.7002
58.0723
58.2835
59.4751
60.8426
63.3071
63.285
39.814
46.2177
56.7847
67.9856
74.7966
75.1588
70.8999
64.9905
59.516
55.3322
52.7067
51.6181
51.5787
52.0469
52.6968
53.4291
54.1905
54.9968
55.8241
56.7144
57.6369
58.655
59.7171
60.9169
62.1695
63.6166
65.1164
66.8886
68.6949
70.8834
73.0566
75.7781
78.3908
81.8264
85.0072
89.4279
93.3578
99.2936
104.827
114.008
123.017
137.321
150.337
168.974
181.586
197.069
201.075
218.8
235.105
277.664
310.124
337.996
506.094
545.709
436.445
329.932
258.768
204.113
173.751
150.021
138.672
126.51
119.439
110.223
104.598
98.1962
94.9923
91.5327
89.9807
87.9208
86.8718
85.3412
84.2658
82.6442
80.934
78.5841
76.0105
73.1598
70.4154
67.8561
65.6789
63.9224
62.5753
61.5976
60.8329
60.2808
59.7441
59.3484
58.8462
58.5327
58.0583
57.9513
57.6636
58.0199
58.2158
59.3741
60.7082
63.1077
63.0477
39.7925
46.1582
56.6818
67.8572
74.6697
75.0551
70.8328
64.9668
59.5325
55.3763
52.7644
51.6788
51.6363