/*--------------------------------*- C++ -*----------------------------------*\
| =========                 |                                                 |
| \\      /  F ield         | OpenFOAM: The Open Source CFD Toolbox           |
|  \\    /   O peration     | Version:  2412                                  |
|   \\  /    A nd           | Website:  www.openfoam.com                      |
|    \\/     M anipulation  |                                                 |
\*---------------------------------------------------------------------------*/
FoamFile
{
    version     2.0;
    format      ascii;
    arch        "LSB;label=32;scalar=64";
    class       volScalarField;
    location    "0.4";
    object      nut;
}
// * * * * * * * * * * * * * * * * * * * * * * * * * * * * * * * * * * * * * //

dimensions      [0 2 -1 0 0 0 0];

internalField   nonuniform List<scalar> 
13079
(
0.348143
0.36776
0.381243
0.379493
0.359163
0.325647
0.289342
0.259581
0.243243
0.245559
0.267612
0.300234
0.328003
0.3443
0.351911
0.355185
0.356663
0.357564
0.358269
0.359022
0.359774
0.360671
0.361561
0.362637
0.363658
0.364921
0.366043
0.367501
0.368675
0.370323
0.371474
0.37334
0.374439
0.376711
0.377828
0.380541
0.381351
0.384726
0.386473
0.391969
0.394775
0.400267
0.401244
0.402247
0.394556
0.3849
0.372469
0.384935
0.401739
0.431793
0.444414
0.456359
0.477413
0.458189
0.342861
0.250961
0.200998
0.168414
0.162978
0.168745
0.193037
0.203074
0.216077
0.215221
0.220735
0.219338
0.225963
0.229391
0.23913
0.246648
0.257949
0.267451
0.278419
0.286516
0.293228
0.296716
0.299044
0.348075
0.367735
0.381312
0.379667
0.359423
0.325954
0.289683
0.259978
0.243723
0.246109
0.268147
0.300655
0.328293
0.344508
0.352084
0.355346
0.356823
0.357726
0.358434
0.359192
0.35995
0.360857
0.361758
0.362848
0.363884
0.365169
0.366314
0.367802
0.369008
0.370696
0.37189
0.37381
0.374964
0.377305
0.378488
0.381292
0.382192
0.385702
0.387571
0.393253
0.39622
0.402009
0.403252
0.404797
0.397591
0.388833
0.376934
0.389763
0.405948
0.435174
0.447106
0.457944
0.476866
0.457312
0.343651
0.252768
0.203766
0.172871
0.170537
0.17977
0.206436
0.216896
0.229663
0.228468
0.233702
0.23211
0.238508
0.241654
0.250942
0.257917
0.268526
0.277281
0.287411
0.29469
0.300624
0.303477
0.305293
0.348009
0.367712
0.381383
0.379841
0.359682
0.326263
0.290028
0.26038
0.24421
0.246662
0.268675
0.301063
0.328566
0.344699
0.35224
0.355492
0.356968
0.357873
0.358585
0.359348
0.360113
0.361027
0.361938
0.363042
0.364093
0.365397
0.366564
0.368079
0.369314
0.37104
0.372272
0.374243
0.375447
0.377852
0.379096
0.381982
0.382967
0.386601
0.388583
0.394437
0.397553
0.403618
0.405108
0.407159
0.400411
0.392503
0.381099
0.394234
0.409811
0.438254
0.449551
0.459363
0.47625
0.456289
0.344233
0.254385
0.206397
0.177274
0.178125
0.190791
0.21954
0.230237
0.242629
0.241081
0.246002
0.244227
0.250375
0.253238
0.262052
0.268477
0.278388
0.286404
0.295715
0.302207
0.307401
0.309655
0.31099
0.347944
0.367691
0.381455
0.380016
0.359942
0.326572
0.290376
0.260787
0.244703
0.247217
0.269201
0.301461
0.328825
0.344875
0.352381
0.355624
0.357099
0.358007
0.358723
0.359491
0.360262
0.361185
0.362105
0.36322
0.364286
0.365608
0.366794
0.368334
0.369596
0.371355
0.372624
0.37464
0.375891
0.378354
0.379654
0.382617
0.38368
0.38743
0.389516
0.395528
0.398783
0.405103
0.40682
0.409344
0.403026
0.39592
0.384975
0.398367
0.41335
0.441055
0.451766
0.460628
0.475574
0.455132
0.344621
0.25582
0.208892
0.181609
0.185693
0.201706
0.232234
0.242994
0.254902
0.252997
0.257585
0.255642
0.261531
0.264112
0.272443
0.278321
0.28754
0.294835
0.303353
0.309093
0.313589
0.315281
0.316167
0.347881
0.367671
0.381528
0.38019
0.360199
0.32688
0.290725
0.261199
0.245201
0.247777
0.269727
0.301852
0.329073
0.345038
0.35251
0.355744
0.357219
0.35813
0.358849
0.359622
0.360399
0.36133
0.362258
0.363385
0.364464
0.365802
0.367006
0.368569
0.369856
0.371646
0.372947
0.375005
0.376299
0.378815
0.380167
0.383201
0.384337
0.388192
0.390375
0.396534
0.399916
0.406471
0.408399
0.411362
0.405447
0.399095
0.388575
0.402177
0.416585
0.443597
0.453769
0.461751
0.474847
0.45385
0.344827
0.257083
0.211253
0.18586
0.193194
0.212422
0.244418
0.255089
0.266431
0.264173
0.268421
0.266327
0.271955
0.274262
0.282109
0.287453
0.295994
0.302592
0.31035
0.315379
0.319219
0.320389
0.320857
0.320621
0.320915
0.321684
0.323299
0.325521
0.328111
0.330744
0.332981
0.334985
0.336398
0.33783
0.338662
0.339979
0.340702
0.342658
0.343907
0.347352
0.349758
0.355423
0.359921
0.366103
0.360295
0.347819
0.367652
0.381603
0.380363
0.360456
0.327188
0.291077
0.261616
0.245705
0.248342
0.270253
0.302237
0.329311
0.34519
0.352628
0.355853
0.357328
0.358241
0.358965
0.359743
0.360525
0.361463
0.3624
0.363538
0.364628
0.365981
0.367202
0.368785
0.370095
0.371914
0.373245
0.375341
0.376674
0.379239
0.380639
0.383737
0.38494
0.388894
0.391167
0.397459
0.400958
0.40773
0.409852
0.413223
0.407685
0.402041
0.391911
0.405684
0.419537
0.445899
0.455576
0.462742
0.474079
0.452453
0.344864
0.258182
0.213482
0.190018
0.200584
0.222854
0.256015
0.266466
0.277185
0.274584
0.278496
0.27627
0.28164
0.283685
0.291057
0.295882
0.303768
0.3097
0.316735
0.321095
0.324324
0.325011
0.325093
0.32457
0.32462
0.325174
0.326581
0.3286
0.330982
0.333407
0.33544
0.337252
0.338489
0.33976
0.340449
0.341634
0.342242
0.34409
0.345246
0.348594
0.35093
0.356503
0.360976
0.367119
0.361439
0.347758
0.367635
0.381677
0.380536
0.36071
0.327495
0.29143
0.262036
0.246215
0.248912
0.27078
0.302619
0.329541
0.345332
0.352736
0.355953
0.357427
0.358344
0.359071
0.359855
0.360642
0.361587
0.362531
0.363679
0.36478
0.366147
0.367383
0.368985
0.370315
0.37216
0.373519
0.37565
0.377018
0.379629
0.381072
0.38423
0.385496
0.38954
0.391897
0.398311
0.401918
0.408889
0.411187
0.414937
0.409749
0.404767
0.394997
0.408904
0.422226
0.447979
0.457201
0.463611
0.473277
0.450952
0.344742
0.259127
0.215583
0.194071
0.207825
0.232931
0.266967
0.27709
0.287152
0.284225
0.28781
0.285472
0.290593
0.292391
0.299301
0.30363
0.310889
0.316189
0.322541
0.326277
0.32894
0.329182
0.32891
0.328119
0.327945
0.328303
0.329521
0.331356
0.333551
0.335788
0.337639
0.339279
0.340358
0.341484
0.342044
0.34311
0.343615
0.345364
0.346436
0.349694
0.351964
0.35745
0.361898
0.368001
0.362441
0.347699
0.367619
0.381753
0.380709
0.360963
0.327802
0.291784
0.262461
0.246731
0.249487
0.271309
0.302997
0.329764
0.345466
0.352836
0.356043
0.357518
0.358438
0.359169
0.359957
0.36075
0.361701
0.362653
0.363809
0.36492
0.3663
0.36755
0.36917
0.370519
0.372387
0.373771
0.375934
0.377336
0.379988
0.381471
0.384683
0.386007
0.390135
0.392568
0.399095
0.4028
0.409953
0.412414
0.416513
0.411651
0.407287
0.397847
0.411857
0.424671
0.449855
0.45866
0.464369
0.472449
0.449354
0.344475
0.259927
0.217558
0.198012
0.214883
0.242595
0.277236
0.286944
0.296335
0.293102
0.296377
0.293945
0.298831
0.300396
0.306864
0.310723
0.317385
0.32209
0.327803
0.330959
0.333099
0.332934
0.332339
0.331302
0.330926
0.331104
0.33215
0.333819
0.335845
0.337914
0.339601
0.341087
0.342026
0.343023
0.343467
0.344426
0.344838
0.346497
0.347493
0.350667
0.352876
0.358277
0.3627
0.368761
0.363313
0.347641
0.367604
0.381829
0.38088
0.361215
0.328108
0.29214
0.26289
0.247253
0.250068
0.271841
0.303373
0.329981
0.345592
0.352927
0.356126
0.357601
0.358524
0.359259
0.360053
0.36085
0.361808
0.362766
0.363931
0.365051
0.366442
0.367705
0.369341
0.370706
0.372596
0.374004
0.376196
0.377628
0.380318
0.381837
0.385099
0.386478
0.390683
0.393187
0.399815
0.403611
0.41093
0.413539
0.41796
0.4134
0.409611
0.400473
0.414558
0.426891
0.451543
0.459966
0.465025
0.471603
0.44767
0.344071
0.26059
0.219414
0.201835
0.221732
0.251802
0.286802
0.29603
0.304752
0.301235
0.30422
0.301712
0.306378
0.307727
0.313775
0.31719
0.323292
0.327439
0.332557
0.335177
0.336838
0.336301
0.335412
0.334153
0.333591
0.333608
0.334499
0.336018
0.337892
0.33981
0.341351
0.3427
0.343513
0.344394
0.344735
0.345598
0.345925
0.347502
0.348428
0.351524
0.353676
0.358996
0.363394
0.369409
0.364065
0.347584
0.36759
0.381906
0.381051
0.361465
0.328413
0.292499
0.263324
0.247782
0.250655
0.272376
0.303748
0.330194
0.345712
0.353012
0.356202
0.357677
0.358604
0.359343
0.360141
0.360943
0.361907
0.362871
0.364044
0.365172
0.366574
0.367848
0.369499
0.37088
0.37279
0.374218
0.376438
0.377897
0.380621
0.382175
0.385482
0.386912
0.391188
0.393757
0.400478
0.404355
0.411826
0.41457
0.419286
0.415006
0.411751
0.40289
0.417025
0.428903
0.453058
0.461131
0.465586
0.470745
0.445907
0.343542
0.261125
0.221155
0.205537
0.228348
0.260523
0.295661
0.304361
0.31243
0.308652
0.311371
0.308802
0.313264
0.314414
0.320067
0.323067
0.328644
0.332272
0.336838
0.338965
0.34019
0.339316
0.338161
0.3367
0.335971
0.335842
0.336594
0.337978
0.339716
0.341499
0.342909
0.344135
0.344836
0.345614
0.345862
0.346639
0.346889
0.348392
0.349254
0.352277
0.354376
0.359616
0.363989
0.369955
0.364708
0.347529
0.367576
0.381983
0.381221
0.361714
0.328718
0.292859
0.263762
0.248316
0.251248
0.272914
0.304122
0.330402
0.345826
0.35309
0.356272
0.357748
0.358678
0.359421
0.360223
0.36103
0.361999
0.362969
0.364149
0.365285
0.366697
0.367982
0.369645
0.371041
0.372969
0.374416
0.37666
0.378146
0.380901
0.382486
0.385835
0.387311
0.391653
0.394283
0.401088
0.405039
0.412648
0.415514
0.420501
0.416478
0.413719
0.405111
0.419276
0.430724
0.454414
0.462167
0.466061
0.469883
0.444073
0.342898
0.261541
0.222788
0.209117
0.234718
0.268737
0.303822
0.311964
0.319402
0.31539
0.317866
0.315251
0.319526
0.320493
0.325776
0.328389
0.333479
0.336626
0.340683
0.342359
0.343187
0.342009
0.340615
0.338972
0.338094
0.337833
0.33846
0.339723
0.341339
0.343
0.344294
0.345412
0.346013
0.346699
0.346863
0.347562
0.347744
0.349179
0.349981
0.352936
0.354985
0.360147
0.364495
0.370409
0.36525
0.347475
0.367564
0.382061
0.38139
0.361961
0.329023
0.293221
0.264205
0.248857
0.251847
0.273456
0.304495
0.330607
0.345936
0.353164
0.356337
0.357813
0.358746
0.359493
0.360299
0.361111
0.362085
0.36306
0.364247
0.36539
0.366811
0.368106
0.369782
0.37119
0.373135
0.3746
0.376866
0.378375
0.381159
0.382772
0.38616
0.38768
0.392082
0.394767
0.401648
0.405667
0.4134
0.416376
0.42161
0.417826
0.415525
0.407149
0.421325
0.432369
0.455626
0.463087
0.466457
0.469022
0.442176
0.342146
0.261847
0.22432
0.212575
0.24083
0.276438
0.311305
0.31887
0.325711
0.321488
0.323745
0.321096
0.325201
0.326
0.33094
0.333195
0.337833
0.340538
0.344127
0.345392
0.345861
0.344409
0.3428
0.340996
0.339983
0.339606
0.340121
0.341275
0.342781
0.344335
0.345524
0.346545
0.347057
0.347661
0.34775
0.348379
0.348499
0.349872
0.350621
0.353511
0.355513
0.360599
0.36492
0.370778
0.365701
0.347421
0.367553
0.382139
0.381559
0.362207
0.329328
0.293585
0.264653
0.249405
0.252452
0.274002
0.304869
0.330809
0.346041
0.353233
0.356397
0.357873
0.35881
0.35956
0.360371
0.361187
0.362166
0.363146
0.364339
0.365489
0.366918
0.368221
0.369908
0.371328
0.373288
0.374769
0.377057
0.378587
0.381398
0.383037
0.386459
0.38802
0.392478
0.395214
0.402164
0.406243
0.414089
0.417163
0.422623
0.419057
0.41718
0.409016
0.423189
0.433855
0.456706
0.463899
0.466782
0.468169
0.440224
0.341297
0.262052
0.225757
0.215915
0.246679
0.283629
0.318137
0.32512
0.331398
0.326987
0.329051
0.326377
0.330328
0.330974
0.335597
0.337523
0.341745
0.344042
0.347205
0.348096
0.348241
0.346544
0.344744
0.342796
0.341663
0.341181
0.341596
0.342654
0.344062
0.345518
0.346615
0.347549
0.347983
0.348513
0.348535
0.349101
0.349165
0.350481
0.351181
0.35401
0.355967
0.360978
0.365272
0.371072
0.366068
0.347369
0.367542
0.382217
0.381727
0.362452
0.329632
0.293951
0.265105
0.249958
0.253064
0.274552
0.305243
0.331008
0.346143
0.353297
0.356452
0.357929
0.358869
0.359623
0.360438
0.361258
0.362242
0.363226
0.364426
0.365581
0.367018
0.368329
0.370027
0.371457
0.373431
0.374927
0.377233
0.378783
0.381618
0.383281
0.386736
0.388335
0.392843
0.395627
0.402638
0.406771
0.414719
0.417881
0.423546
0.420181
0.418695
0.410725
0.424883
0.435193
0.457666
0.464613
0.467041
0.467329
0.438225
0.340359
0.262163
0.227107
0.21914
0.252265
0.290317
0.324351
0.330754
0.33651
0.331934
0.333825
0.331136
0.334948
0.335455
0.339785
0.341408
0.345249
0.347175
0.349948
0.350502
0.350355
0.348439
0.34647
0.344394
0.343155
0.342581
0.342906
0.343877
0.345197
0.346567
0.347581
0.348439
0.348802
0.349267
0.349229
0.349739
0.349752
0.351016
0.351669
0.354441
0.356356
0.361293
0.365558
0.371296
0.36636
0.347318
0.367532
0.382295
0.381894
0.362696
0.329936
0.294319
0.265562
0.250518
0.253682
0.275107
0.305618
0.331206
0.346241
0.353358
0.356504
0.357981
0.358924
0.359682
0.360501
0.361325
0.362313
0.363302
0.364507
0.365668
0.367112
0.36843
0.370137
0.371577
0.373564
0.375073
0.377396
0.378964
0.381822
0.383507
0.386991
0.388626
0.393181
0.396007
0.403074
0.407256
0.415294
0.418535
0.424386
0.421205
0.420079
0.412288
0.426419
0.436399
0.458516
0.465238
0.467241
0.466507
0.436184
0.33934
0.262189
0.228379
0.222255
0.257592
0.296521
0.329986
0.335819
0.341092
0.33637
0.33811
0.335413
0.339101
0.339481
0.343542
0.344888
0.348381
0.349968
0.352387
0.352636
0.35223
0.35012
0.348
0.345811
0.344479
0.343822
0.344069
0.344962
0.346203
0.347495
0.348435
0.349225
0.349525
0.349932
0.349841
0.3503
0.350267
0.351483
0.352094
0.354811
0.356686
0.361549
0.365785
0.371458
0.366582
0.347267
0.367522
0.382374
0.38206
0.362938
0.33024
0.294689
0.266023
0.251085
0.254307
0.275665
0.305994
0.331402
0.346337
0.353416
0.356552
0.35803
0.358976
0.359737
0.360561
0.361388
0.362381
0.363374
0.364583
0.365749
0.3672
0.368525
0.37024
0.37169
0.373688
0.375209
0.377548
0.379133
0.382011
0.383716
0.387228
0.388895
0.393494
0.39636
0.403476
0.4077
0.41582
0.41913
0.42515
0.422137
0.421343
0.413716
0.427812
0.437483
0.459267
0.465784
0.467387
0.465709
0.434109
0.338247
0.262138
0.22958
0.225268
0.262665
0.302259
0.33508
0.340358
0.345189
0.34034
0.341948
0.339248
0.342824
0.343088
0.346905
0.347998
0.351174
0.352452
0.354552
0.354527
0.353888
0.351606
0.349354
0.347067
0.345652
0.344924
0.3451
0.345923
0.347093
0.348316
0.34919
0.349919
0.350164
0.350518
0.350379
0.350792
0.350718
0.35189
0.352463
0.355127
0.356962
0.361753
0.365958
0.371563
0.366742
0.347218
0.367513
0.382453
0.382225
0.36318
0.330544
0.295062
0.266489
0.251658
0.254938
0.276228
0.306372
0.331598
0.346431
0.353471
0.356598
0.358076
0.359025
0.35979
0.360617
0.361448
0.362445
0.363442
0.364656
0.365826
0.367283
0.368614
0.370337
0.371794
0.373803
0.375336
0.37769
0.37929
0.382186
0.38391
0.387447
0.389145
0.393784
0.396685
0.403845
0.408108
0.416299
0.419672
0.425843
0.422984
0.422495
0.41502
0.429073
0.438457
0.459928
0.466256
0.467484
0.464939
0.432007
0.337087
0.262018
0.230719
0.228187
0.267493
0.307558
0.339675
0.344417
0.348844
0.343885
0.345378
0.342679
0.346155
0.346315
0.349907
0.35077
0.353659
0.354658
0.356469
0.356198
0.355354
0.35292
0.350552
0.348179
0.346692
0.3459
0.346013
0.346775
0.347881
0.349041
0.349856
0.350531
0.350726
0.351034
0.350852
0.351224
0.351112
0.352243
0.35278
0.355393
0.357192
0.361911
0.366083
0.371618
0.366845
0.347169
0.367504
0.382531
0.38239
0.36342
0.330848
0.295437
0.266961
0.252237
0.255575
0.276796
0.306751
0.331792
0.346522
0.353523
0.356641
0.358118
0.359071
0.359839
0.36067
0.361505
0.362505
0.363506
0.364725
0.365899
0.367362
0.368698
0.370429
0.371893
0.373911
0.375454
0.377822
0.379436
0.382349
0.38409
0.38765
0.389377
0.394053
0.396987
0.404186
0.408483
0.416737
0.420163
0.426471
0.423752
0.423544
0.41621
0.430215
0.439331
0.460507
0.466661
0.467536
0.4642
0.429883
0.335869
0.261836
0.231805
0.231018
0.272088
0.312442
0.343812
0.348039
0.352099
0.347044
0.348439
0.345744
0.349129
0.349194
0.352582
0.353237
0.355865
0.356613
0.358163
0.357673
0.356645
0.354078
0.351609
0.349162
0.347613
0.346764
0.346822
0.347528
0.348577
0.349681
0.350443
0.35107
0.35122
0.351487
0.351267
0.351601
0.351455
0.352548
0.353051
0.355616
0.357378
0.362026
0.366165
0.371627
0.366897
0.347121
0.367496
0.38261
0.382554
0.363659
0.331153
0.295815
0.267436
0.252822
0.256218
0.277367
0.307131
0.331986
0.346612
0.353574
0.356681
0.358159
0.359115
0.359886
0.360721
0.361559
0.362563
0.363567
0.36479
0.365968
0.367436
0.368778
0.370515
0.371986
0.374013
0.375565
0.377945
0.379572
0.382501
0.384258
0.387839
0.389593
0.394302
0.397267
0.4045
0.408826
0.417137
0.420609
0.427039
0.424448
0.424498
0.417295
0.431248
0.440114
0.461012
0.467008
0.467549
0.463497
0.427745
0.334597
0.261599
0.232844
0.233771
0.276462
0.316941
0.34753
0.351265
0.354993
0.349856
0.351165
0.348475
0.35178
0.351757
0.354961
0.355427
0.357821
0.358341
0.359657
0.358971
0.357783
0.355099
0.352543
0.350031
0.348428
0.34753
0.347539
0.348194
0.349191
0.350245
0.35096
0.351543
0.351654
0.351884
0.351629
0.35193
0.351753
0.352811
0.353282
0.355801
0.357528
0.362104
0.366208
0.371595
0.366902
0.347074
0.367488
0.382688
0.382717
0.363898
0.331458
0.296194
0.267917
0.253414
0.256868
0.277944
0.307513
0.33218
0.3467
0.353622
0.35672
0.358197
0.359156
0.359931
0.360769
0.36161
0.362618
0.363625
0.364852
0.366034
0.367507
0.368853
0.370596
0.372073
0.374108
0.375669
0.378061
0.3797
0.382643
0.384414
0.388015
0.389794
0.394535
0.397527
0.40479
0.409141
0.417501
0.421013
0.427553
0.425078
0.425365
0.418285
0.432182
0.440816
0.461451
0.4673
0.467525
0.462833
0.425597
0.333279
0.261315
0.233847
0.236455
0.280628
0.321083
0.350869
0.354133
0.357562
0.352354
0.35359
0.350907
0.354139
0.354037
0.357072
0.357367
0.35955
0.359866
0.360973
0.360112
0.358782
0.355997
0.353365
0.350799
0.349149
0.348208
0.348173
0.348784
0.349733
0.350741
0.351413
0.351959
0.352034
0.352231
0.351946
0.352215
0.35201
0.353035
0.353477
0.35595
0.357643
0.362149
0.366217
0.371527
0.366866
0.347028
0.36748
0.382766
0.382879
0.364135
0.331763
0.296577
0.268403
0.254012
0.257524
0.278524
0.307897
0.332373
0.346787
0.353669
0.356756
0.358234
0.359195
0.359973
0.360815
0.361659
0.362671
0.363681
0.364911
0.366097
0.367574
0.368924
0.370673
0.372155
0.374198
0.375767
0.378169
0.379819
0.382776
0.38456
0.388179
0.389982
0.394751
0.397769
0.405058
0.40943
0.417832
0.421379
0.428016
0.425648
0.426153
0.419187
0.433025
0.441445
0.461831
0.467543
0.467469
0.46221
0.423446
0.331921
0.260991
0.234821
0.239079
0.284601
0.324895
0.353863
0.356681
0.35984
0.354571
0.355743
0.353068
0.356234
0.356059
0.358942
0.359083
0.361077
0.361209
0.362129
0.361113
0.359659
0.356787
0.35409
0.351477
0.349786
0.348808
0.348735
0.349305
0.350212
0.351178
0.351811
0.352322
0.352367
0.352534
0.35222
0.352462
0.352231
0.353226
0.353639
0.356069
0.357728
0.362164
0.366194
0.371425
0.366793
0.346982
0.367472
0.382844
0.38304
0.364372
0.332068
0.296962
0.268893
0.254617
0.258185
0.279109
0.308283
0.332566
0.346873
0.353714
0.356791
0.358268
0.359233
0.360014
0.360859
0.361707
0.362721
0.363734
0.364968
0.366157
0.367638
0.368992
0.370746
0.372233
0.374283
0.375859
0.378271
0.379931
0.3829
0.384697
0.388332
0.390158
0.394954
0.397994
0.405306
0.409696
0.418135
0.421711
0.428434
0.426162
0.426868
0.42001
0.433788
0.442006
0.462156
0.467743
0.467383
0.461632
0.421298
0.330529
0.260632
0.235775
0.241653
0.288393
0.328406
0.356548
0.358941
0.361858
0.356537
0.357655
0.354985
0.358093
0.357851
0.360596
0.360599
0.362423
0.36239
0.363142
0.361989
0.360427
0.357479
0.354728
0.352075
0.350351
0.34934
0.349232
0.349765
0.350634
0.351562
0.35216
0.35264
0.352656
0.352797
0.352459
0.352675
0.35242
0.353386
0.353773
0.35616
0.357787
0.362152
0.366143
0.371294
0.366686
0.346937
0.367464
0.382922
0.3832
0.364607
0.332374
0.29735
0.269388
0.255227
0.258853
0.279697
0.30867
0.332759
0.346959
0.353758
0.356824
0.358301
0.359268
0.360053
0.360902
0.361752
0.36277
0.363785
0.365023
0.366214
0.367699
0.369056
0.370815
0.372307
0.374364
0.375946
0.378367
0.380037
0.383017
0.384825
0.388476
0.390322
0.395143
0.398204
0.405535
0.40994
0.41841
0.42201
0.42881
0.426626
0.427516
0.42076
0.434476
0.442509
0.462433
0.467904
0.467271
0.461101
0.419158
0.329107
0.260246
0.236716
0.244186
0.29202
0.331642
0.358955
0.360945
0.363644
0.358278
0.359349
0.356686
0.359739
0.359436
0.362056
0.361934
0.363607
0.363427
0.364029
0.362755
0.361098
0.358086
0.355289
0.352603
0.35085
0.349811
0.349673
0.350173
0.351005
0.351899
0.352466
0.352918
0.352909
0.353026
0.352664
0.352858
0.352581
0.353519
0.353882
0.356226
0.357821
0.362117
0.366068
0.371137
0.366549
0.346892
0.367456
0.382999
0.383359
0.364842
0.33268
0.29774
0.269888
0.255844
0.259527
0.28029
0.309059
0.332952
0.347043
0.353801
0.356856
0.358333
0.359303
0.36009
0.360942
0.361796
0.362816
0.363835
0.365075
0.366269
0.367758
0.369118
0.370882
0.372377
0.37444
0.376028
0.378458
0.380136
0.383127
0.384946
0.388611
0.390477
0.395321
0.3984
0.405748
0.410165
0.418661
0.42228
0.429147
0.427043
0.428104
0.421445
0.435099
0.442957
0.462666
0.468029
0.467135
0.460618
0.417031
0.327663
0.259839
0.237653
0.246685
0.295495
0.334628
0.361114
0.362721
0.365225
0.359819
0.360849
0.358191
0.361195
0.360835
0.363343
0.363109
0.364646
0.364335
0.364805
0.363423
0.361685
0.358618
0.355782
0.353069
0.351292
0.350229
0.350064
0.350533
0.351332
0.352194
0.352732
0.353159
0.353127
0.353223
0.352841
0.353013
0.352716
0.353629
0.353968
0.356271
0.357835
0.362061
0.365971
0.370957
0.366386
0.346848
0.367449
0.383076
0.383518
0.365076
0.332987
0.298133
0.270393
0.256467
0.260206
0.280887
0.30945
0.333146
0.347127
0.353842
0.356887
0.358363
0.359336
0.360126
0.360982
0.361838
0.362861
0.363882
0.365126
0.366322
0.367814
0.369177
0.370945
0.372444
0.374513
0.376106
0.378544
0.38023
0.383231
0.38506
0.388738
0.390622
0.395487
0.398584
0.405945
0.410372
0.418889
0.422524
0.42945
0.427419
0.428636
0.422071
0.435661
0.443358
0.46286
0.468122
0.466976
0.460185
0.414922
0.3262
0.259417
0.238592
0.249161
0.298831
0.337387
0.363051
0.364294
0.366622
0.361182
0.362178
0.359523
0.362482
0.36207
0.364476
0.364141
0.365558
0.365129
0.365481
0.364005
0.362196
0.359083
0.356216
0.353481
0.351683
0.3506
0.35041
0.350851
0.351621
0.352453
0.352964
0.353369
0.353316
0.353393
0.352992
0.353145
0.352829
0.353718
0.354034
0.356297
0.357829
0.361986
0.365854
0.370755
0.366199
0.346805
0.367441
0.383152
0.383675
0.365309
0.333294
0.298529
0.270903
0.257096
0.260891
0.281487
0.309842
0.33334
0.34721
0.353883
0.356916
0.358392
0.359367
0.360161
0.361019
0.361878
0.362905
0.363928
0.365174
0.366373
0.367868
0.369234
0.371006
0.372508
0.374582
0.376181
0.378626
0.38032
0.383329
0.385167
0.388857
0.39076
0.395644
0.398756
0.406128
0.410562
0.419098
0.422744
0.429722
0.427756
0.429119
0.422642
0.43617
0.443715
0.463019
0.468187
0.466799
0.459803
0.412838
0.324724
0.258985
0.239542
0.251621
0.30204
0.339942
0.36479
0.365688
0.367857
0.362388
0.363352
0.360701
0.363618
0.363157
0.365471
0.365046
0.366356
0.365822
0.366069
0.36451
0.362641
0.35949
0.356596
0.353844
0.35203
0.350928
0.350717
0.351133
0.351874
0.35268
0.353167
0.35355
0.353479
0.353538
0.35312
0.353255
0.352923
0.353787
0.354082
0.356305
0.357807
0.361894
0.365719
0.370536
0.365991
0.346762
0.367432
0.383227
0.383832
0.365542
0.333603
0.298928
0.271418
0.25773
0.261581
0.282091
0.310236
0.333534
0.347293
0.353923
0.356945
0.35842
0.359398
0.360194
0.361056
0.361918
0.362947
0.363972
0.365222
0.366422
0.367921
0.369289
0.371064
0.37257
0.374648
0.376252
0.378704
0.380404
0.383422
0.385269
0.388971
0.39089
0.395792
0.398918
0.406299
0.410738
0.419287
0.422942
0.429964
0.428059
0.429556
0.423166
0.43663
0.444033
0.463148
0.468226
0.466603
0.459473
0.410781
0.32324
0.25855
0.24051
0.254072
0.305133
0.342312
0.366354
0.366923
0.368949
0.363454
0.364391
0.361742
0.36462
0.364114
0.366344
0.365838
0.367053
0.366426
0.366579
0.364948
0.363028
0.359844
0.356931
0.354164
0.352337
0.351221
0.35099
0.351382
0.352098
0.352878
0.353342
0.353706
0.353619
0.353662
0.353229
0.353347
0.352999
0.353841
0.354114
0.356299
0.35777
0.361788
0.365569
0.3703
0.365764
0.346719
0.367424
0.383302
0.383987
0.365774
0.333912
0.299329
0.271938
0.258371
0.262277
0.282699
0.310632
0.333728
0.347375
0.353962
0.356973
0.358447
0.359427
0.360227
0.361092
0.361956
0.362988
0.364016
0.365267
0.36647
0.367971
0.369342
0.37112
0.372629
0.374712
0.376319
0.378778
0.380485
0.383511
0.385365
0.389078
0.391013
0.395932
0.399071
0.406458
0.410901
0.41946
0.42312
0.430181
0.428331
0.429952
0.423645
0.437047
0.444317
0.463248
0.468243
0.466391
0.459195
0.408758
0.321753
0.258116
0.241503
0.256522
0.308122
0.344515
0.367762
0.368018
0.369915
0.364396
0.36531
0.36266
0.365502
0.364954
0.367108
0.366531
0.367661
0.366951
0.367022
0.365327
0.363363
0.360154
0.357225
0.354448
0.35261
0.35148
0.351233
0.351603
0.352294
0.353051
0.353494
0.353841
0.353738
0.353766
0.35332
0.353422
0.353059
0.353879
0.354132
0.356279
0.357719
0.361669
0.365404
0.37005
0.365521
0.346677
0.367415
0.383376
0.384142
0.366005
0.334221
0.299734
0.272462
0.259017
0.262978
0.28331
0.311029
0.333923
0.347457
0.354001
0.356999
0.358473
0.359456
0.360258
0.361126
0.361993
0.363028
0.364057
0.365312
0.366516
0.36802
0.369393
0.371174
0.372685
0.374773
0.376384
0.378849
0.380562
0.383595
0.385457
0.38918
0.39113
0.396065
0.399215
0.406607
0.411051
0.419618
0.423281
0.430375
0.428575
0.430312
0.424085
0.437425
0.44457
0.463323
0.468239
0.466165
0.458969
0.406773
0.320267
0.257691
0.242527
0.258977
0.311016
0.34657
0.369033
0.368989
0.370769
0.365229
0.366122
0.363471
0.366279
0.365691
0.367777
0.367135
0.368191
0.367407
0.367404
0.365654
0.363654
0.360423
0.357483
0.354698
0.352853
0.351712
0.351449
0.351799
0.352467
0.353201
0.353625
0.353956
0.353839
0.353854
0.353395
0.353483
0.353105
0.353905
0.354138
0.356247
0.357657
0.361538
0.365228
0.369788
0.365263
0.346636
0.367406
0.383449
0.384295
0.366235
0.334532
0.300141
0.272992
0.25967
0.263683
0.283924
0.311427
0.334117
0.347539
0.354039
0.357026
0.358499
0.359484
0.360289
0.36116
0.362029
0.363067
0.364098
0.365355
0.366561
0.368068
0.369442
0.371226
0.37274
0.374831
0.376447
0.378917
0.380636
0.383676
0.385545
0.389277
0.391242
0.396191
0.399351
0.406747
0.41119
0.419762
0.423425
0.430547
0.428793
0.430638
0.424489
0.437767
0.444796
0.463377
0.468217
0.465925
0.458794
0.404829
0.318788
0.257277
0.24359
0.261442
0.313823
0.34849
0.370181
0.369851
0.371525
0.365966
0.366839
0.364186
0.366962
0.366338
0.368361
0.367662
0.368651
0.367801
0.367734
0.365935
0.363904
0.360658
0.357709
0.35492
0.353069
0.351918
0.351642
0.351973
0.352619
0.353332
0.353738
0.354054
0.353924
0.353927
0.353456
0.353531
0.35314
0.353919
0.354133
0.356204
0.357585
0.361398
0.365041
0.369515
0.364993
0.346594
0.367396
0.383522
0.384447
0.366465
0.334843
0.300551
0.273526
0.260327
0.264394
0.28454
0.311826
0.334313
0.347621
0.354076
0.357051
0.358523
0.359511
0.360319
0.361193
0.362064
0.363104
0.364138
0.365397
0.366605
0.368114
0.36949
0.371277
0.372793
0.374888
0.376507
0.378983
0.380707
0.383753
0.385629
0.38937
0.391348
0.396311
0.39948
0.406877
0.411319
0.419893
0.423555
0.4307
0.428989
0.430933
0.424861
0.438079
0.444996
0.46341
0.468179
0.465673
0.45867
0.402933
0.317318
0.256882
0.244696
0.263924
0.316552
0.35029
0.371222
0.370618
0.372194
0.366618
0.367474
0.364817
0.367563
0.366904
0.368871
0.368119
0.369051
0.368143
0.368018
0.366176
0.364121
0.360862
0.357908
0.355116
0.353261
0.352103
0.351814
0.352128
0.352753
0.353446
0.353835
0.354137
0.353996
0.353987
0.353505
0.353567
0.353163
0.353923
0.354118
0.356152
0.357503
0.361248
0.364844
0.369232
0.364713
0.346553
0.367386
0.383593
0.384599
0.366694
0.335155
0.300964
0.274065
0.260991
0.265109
0.28516
0.312227
0.334508
0.347702
0.354113
0.357076
0.358547
0.359537
0.360348
0.361224
0.362098
0.363141
0.364177
0.365438
0.366648
0.368159
0.369536
0.371326
0.372844
0.374943
0.376565
0.379046
0.380775
0.383827
0.385709
0.389459
0.39145
0.396426
0.399602
0.407
0.411438
0.420013
0.423671
0.430836
0.429163
0.431202
0.425205
0.438363
0.445175
0.463426
0.468127
0.465409
0.458596
0.401087
0.315864
0.25651
0.245852
0.266427
0.31921
0.351981
0.372168
0.371301
0.372788
0.367195
0.368035
0.365374
0.36809
0.367399
0.369314
0.368517
0.369397
0.368437
0.368261
0.366383
0.364306
0.361039
0.358083
0.35529
0.353433
0.352268
0.351968
0.352265
0.352871
0.353545
0.353918
0.354207
0.354054
0.354036
0.353543
0.353593
0.353177
0.353918
0.354095
0.356092
0.357413
0.361091
0.364639
0.368941
0.364422
0.346512
0.367375
0.383664
0.384749
0.366923
0.335468
0.301381
0.274609
0.26166
0.265829
0.285782
0.312628
0.334704
0.347783
0.35415
0.3571
0.35857
0.359562
0.360376
0.361256
0.362132
0.363177
0.364214
0.365478
0.366689
0.368203
0.369582
0.371374
0.372894
0.374996
0.376621
0.379107
0.380841
0.383899
0.385786
0.389544
0.391548
0.396535
0.399719
0.407116
0.41155
0.420123
0.423775
0.430956
0.42932
0.431447
0.425523
0.438621
0.445334
0.463427
0.468062
0.465135
0.45857
0.399295
0.314429
0.256165
0.247063
0.268954
0.321801
0.353575
0.37303
0.37191
0.373315
0.367707
0.368532
0.365864
0.368554
0.367831
0.3697
0.368861
0.369696
0.36869
0.368469
0.366559
0.364466
0.361193
0.358237
0.355445
0.353587
0.352417
0.352106
0.352388
0.352975
0.353631
0.353988
0.354265
0.354102
0.354074
0.353572
0.35361
0.353183
0.353905
0.354064
0.356025
0.357316
0.360927
0.364426
0.368642
0.364124
0.346472
0.367364
0.383733
0.384898
0.367151
0.335783
0.3018
0.275158
0.262334
0.266553
0.286407
0.313031
0.3349
0.347864
0.354186
0.357124
0.358593
0.359587
0.360403
0.361286
0.362165
0.363213
0.364252
0.365517
0.36673
0.368245
0.369626
0.37142
0.372942
0.375047
0.376675
0.379166
0.380904
0.383968
0.38586
0.389626
0.391641
0.39664
0.399831
0.407226
0.411654
0.420223
0.423869
0.431062
0.42946
0.43167
0.425818
0.438857
0.445476
0.463414
0.467985
0.464851
0.45859
0.397561
0.313017
0.255854
0.248335
0.271509
0.324333
0.355081
0.373817
0.372454
0.373784
0.368161
0.368971
0.366298
0.36896
0.368208
0.370035
0.369159
0.369954
0.368906
0.368646
0.366708
0.364602
0.361326
0.358372
0.355582
0.353725
0.35255
0.35223
0.352497
0.353067
0.353705
0.354048
0.354313
0.354141
0.354103
0.353592
0.35362
0.353182
0.353885
0.354026
0.355951
0.357213