/*--------------------------------*- C++ -*----------------------------------*\
| =========                 |                                                 |
| \\      /  F ield         | OpenFOAM: The Open Source CFD Toolbox           |
|  \\    /   O peration     | Version:  2412                                  |
|   \\  /    A nd           | Website:  www.openfoam.com                      |
|    \\/     M anipulation  |                                                 |
\*---------------------------------------------------------------------------*/
FoamFile
{
    version     2.0;
    format      ascii;
    arch        "LSB;label=32;scalar=64";
    class       volScalarField;
    location    "0.4";
    object      p;
}
// * * * * * * * * * * * * * * * * * * * * * * * * * * * * * * * * * * * * * //

dimensions      [0 2 -2 0 0 0 0];

internalField   nonuniform List<scalar> 
13079
(
109965
109808
109691
109430
109262
109003
108847
108643
108510
108331
108188
107986
107814
107576
107375
107089
106861
106514
106257
105829
105544
105009
104697
104020
103687
102817
102480
101344
101032
99526.2
99292.1
97265.3
97198.8
94425.1
94678
90815.5
91642.1
86162.8
87991.7
80057.8
83618.4
71945.8
78600.7
61281.3
73309.6
47236.5
67601.4
27294.9
58610.9
-5534.66
42279
-60313.2
15264.8
-159391
-5394.2
-74301.9
9496.42
-36536
15022
-12228.1
22791.2
8094.19
31278.4
23799.1
39303.4
35900.4
46128.6
44820.4
51621.9
51463
56068.2
56474.5
59637.1
60258.6
62463.8
63136.9
64736.9
109948
109793
109678
109421
109255
108998
108843
108640
108507
108328
108184
107982
107810
107571
107371
107084
106856
106509
106252
105824
105538
105003
104691
104013
103681
102809
102473
101335
101025
99516.2
99284.8
97253.9
97191.5
94412.1
94670.8
90800.6
91635.3
86145.7
87985.7
80038.7
83614.4
71925.8
78598.1
61258.6
73300.5
47201.7
67571.8
27238.4
58563.5
-5588.75
42233.9
-60302.8
15305.3
-158848
-5261.21
-74300.7
9519.36
-36530.7
15056.2
-12211.6
22827.7
8107.63
31306
23805.5
39320.8
35901.8
46140.5
44821.3
51631.1
51463.8
56074.8
56474.8
59641.4
60258.7
62467.1
63138.1
64741
109931
109779
109665
109411
109247
108993
108838
108636
108503
108324
108180
107978
107806
107567
107367
107080
106852
106503
106247
105818
105533
104997
104685
104006
103675
102801
102467
101326
101018
99506.3
99277.7
97242.6
97184.2
94399.3
94663.7
90785.9
91628.6
86128.8
87979.8
80019.8
83610.4
71906
78595.5
61236.2
73291.9
47167.7
67543.2
27183.3
58517.7
-5641.23
42190.3
-60290.7
15346.2
-158310
-5129.8
-74299.2
9541.93
-36525.7
15090.7
-12194.9
22863.8
8120.26
31332.6
23810.8
39337.1
35902.2
46151.3
44821.3
51639.3
51463.6
56080.4
56474.2
59645
60258.1
62469.9
63138.8
64744.6
109915
109765
109652
109401
109238
108987
108834
108633
108500
108321
108177
107974
107802
107563
107363
107075
106847
106499
106242
105813
105528
104991
104680
103999
103669
102793
102460
101317
101011
99496.4
99270.5
97231.5
97177
94386.5
94656.6
90771.2
91622
86112
87974.1
80001.1
83606.5
71886.4
78593.1
61214
73283.5
47134.3
67515.6
27129.5
58473.3
-5692.24
42148.2
-60277
15387.5
-157776
-4999.91
-74297.4
9564.1
-36520.9
15125.3
-12177.9
22899.3
8131.95
31358
23815.1
39352.4
35901.7
46161.2
44820.3
51646.5
51462.6
56085.2
56472.8
59647.8
60256.8
62472
63139
64747.7
109898
109751
109639
109392
109230
108981
108829
108629
108497
108318
108173
107970
107798
107559
107358
107071
106843
106494
106237
105807
105522
104985
104674
103992
103663
102786
102454
101309
101004
99486.7
99263.5
97220.4
97169.9
94373.9
94649.6
90756.7
91615.4
86095.3
87968.4
79982.5
83602.8
71867
78590.8
61192.2
73275.6
47101.5
67488.7
27076.8
58430
-5741.97
42107.5
-60261.9
15429.1
-157245
-4871.57
-74295.8
9585.57
-36516.5
15160
-12160.9
22934.1
8142.62
31382.3
23818.3
39366.5
35900.1
46169.9
44818.2
51652.6
51460.5
56089
56470.5
59649.8
60254.9
62473.6
63138.7
64750.4
65468.6
66762.8
67585.2
68728.3
69642.4
70650.8
71585.5
72413
73314.1
73925.9
74795.4
75176.2
76064.8
76192.5
77188.5
77002.8
78246.7
77611.1
79342.6
77980.4
80637.5
78041.9
109882
109737
109626
109382
109222
108975
108825
108626
108494
108314
108169
107966
107794
107554
107354
107066
106838
106489
106233
105802
105517
104979
104668
103985
103657
102778
102447
101300
100997
99476.9
99256.4
97209.3
97162.8
94361.3
94642.7
90742.3
91609
86078.8
87962.8
79964.1
83599.2
71847.8
78588.8
61170.8
73268.1
47069.4
67462.5
27025.1
58387.7
-5790.51
42067.9
-60245.6
15471.1
-156719
-4744.76
-74294.4
9606.31
-36512.4
15194.8
-12144.1
22967.9
8152.14
31405.3
23820.4
39379.5
35897.4
46177.6
44815.1
51657.7
51457.5
56091.9
56467.5
59651.1
60252.4
62474.6
63137.9
64752.6
65470.3
66766.3
67587.8
68730.9
69643.8
70651.2
71584.9
72411.2
73312.3
73922.8
74793.6
75172.7
76063.9
76189.2
77189.1
76999.9
78249.5
77608.6
79347.9
77978.8
80644
78042.2
109866
109723
109614
109372
109214
108970
108820
108622
108491
108311
108166
107962
107790
107550
107350
107062
106834
106484
106228
105796
105512
104973
104663
103979
103651
102770
102441
101292
100991
99467.3
99249.4
97198.3
97155.7
94348.7
94635.8
90727.9
91602.6
86062.3
87957.4
79945.9
83595.7
71828.9
78586.9
61149.7
73261
47037.9
67437.1
26974.3
58346.4
-5837.92
42029.4
-60228.2
15513.3
-156196
-4619.4
-74293.1
9626.37
-36508.7
15229.4
-12127.6
23000.7
8160.43
31427
23821.4
39391.4
35893.6
46184.1
44811
51661.8
51453.6
56093.9
56463.7
59651.7
60249.2
62475.1
63136.7
64754.5
65471.5
66769.4
67590
68733.2
69644.9
70651.3
71584.2
72409.2
73310.5
73919.6
74791.7
75169.3
76062.9
76185.8
77189.6
76996.9
78252.1
77606
79352.9
77977
80650.2
78042.3
109850
109710
109601
109363
109206
108964
108816
108619
108487
108308
108162
107958
107786
107546
107346
107057
106830
106479
106223
105791
105507
104967
104657
103972
103645
102763
102434
101283
100984
99457.6
99242.5
97187.4
97148.7
94336.3
94629
90713.7
91596.2
86046.1
87952
79927.8
83592.3
71810.1
78585.3
61129
73254.3
47006.9
67412.3
26924.4
58306
-5884.28
41992
-60209.6
15555.6
-155677
-4495.46
-74291.9
9645.76
-36505.4
15263.7
-12111.7
23032.3
8167.42
31447.4
23821.2
39402.1
35888.8
46189.6
44805.9
51665
51448.9
56095.1
56459.1
59651.6
60245.6
62475.2
63135.1
64756.1
65472.5
66772.1
67592
68735.3
69645.9
70651.3
71583.4
72407.1
73308.6
73916.4
74789.8
75165.7
76061.8
76182.4
77190.1
76993.8
78254.6
77603.3
79357.7
77975.2
80655.9
78042.4
109835
109696
109589
109354
109198
108958
108811
108615
108484
108304
108159
107954
107782
107542
107342
107053
106825
106474
106218
105786
105502
104961
104652
103965
103639
102755
102428
101274
100977
99448
99235.6
97176.5
97141.7
94323.9
94622.2
90699.5
91589.9
86029.9
87946.7
79909.9
83589
71791.6
78583.8
61108.6
73247.8
46976.5
67388.2
26875.3
58266.5
-5929.64
41955.6
-60190.1
15598.1
-155162
-4372.87
-74290.7
9664.53
-36502.7
15297.6
-12096.5
23062.6
8173.12
31466.5
23819.9
39411.7
35883.1
46194.1
44799.9
51667.2
51443.3
56095.6
56453.9
59651
60241.4
62474.8
63133.2
64757.3
65473.1
66774.7
67593.7
68737.2
69646.6
70651.1
71582.5
72405
73306.6
73913.1
74787.7
75162.1
76060.6
76179
77190.5
76990.6
78257
77600.6
79362.4
77973.3
80661.5
78042.4
109819
109683
109576
109344
109191
108953
108807
108611
108481
108301
108155
107950
107778
107538
107338
107048
106821
106469
106214
105780
105497
104955
104646
103958
103633
102748
102422
101266
100970
99438.5
99228.7
97165.7
97134.8
94311.6
94615.4
90685.4
91583.7
86013.8
87941.4
79892.1
83585.9
71773.3
78582.5
61088.4
73241.7
46946.6
67364.6
26827.1
58227.7
-5974.06
41920.2
-60169.5
15640.7
-154651
-4251.61
-74289.5
9682.71
-36500.4
15331
-12082.1
23091.6
8177.53
31484.4
23817.6
39420.2
35876.3
46197.6
44793.1
51668.6
51437
56095.3
56448.1
59649.7
60236.7
62473.9
63130.9
64758.3
65473.6
66777
67595.3
68738.9
69647.3
70650.9
71581.5
72402.7
73304.5
73909.7
74785.7
75158.5
76059.4
76175.5
77190.8
76987.5
78259.4
77597.9
79367
77971.4
80667
78042.6
109804
109669
109564
109335
109183
108947
108802
108608
108478
108298
108151
107946
107774
107533
107333
107044
106816
106464
106209
105775
105492
104949
104641
103952
103627
102740
102415
101258
100964
99429
99221.8
97155
97127.9
94299.3
94608.7
90671.4
91577.5
85997.9
87936.3
79874.5
83582.8
71755.2
78581.3
61068.5
73235.9
46917.1
67341.6
26779.7
58189.7
-6017.59
41885.6
-60148
15683.3
-154143
-4131.62
-74288.2
9700.34
-36498.6
15363.8
-12068.6
23119.3
8180.69
31501
23814.2
39427.7
35868.7
46200.2
44785.4
51669.1
51429.9
56094.4
56441.8
59648
60231.7
62472.8
63128.3
64759
65473.8
66779.2
67596.8
68740.6
69647.8
70650.5
71580.4
72400.4
73302.4
73906.3
74783.5
75154.7
76058.2
76171.9
77191.1
76984.3
78261.7
77595.2
79371.6
77969.6
80672.3
78042.8
109789
109656
109552
109326
109175
108942
108798
108604
108474
108294
108148
107942
107770
107529
107329
107040
106812
106460
106204
105770
105487
104943
104635
103945
103621
102733
102409
101249
100957
99419.5
99215
97144.2
97121
94287.1
94602.1
90657.5
91571.4
85982
87931.1
79857
83579.8
71737.2
78580.2
61048.9
73230.4
46888.2
67319.2
26732.9
58152.5
-6060.3
41851.8
-60125.7
15725.8
-153639
-4012.88
-74286.8
9717.46
-36497.4
15396
-12056.1
23145.6
8182.64
31516.5
23809.9
39434.3
35860.3
46202
44777
51669
51422.3
56092.9
56434.9
59645.9
60226.3
62471.3
63125.5
64759.5
65473.8
66781.1
67598
68742
69648.3
70650.1
71579.2
72398
73300.2
73902.9
74781.4
75151
76056.9
76168.4
77191.3
76981.1
78263.9
77592.4
79376
77967.7
80677.4
78043
109774
109643
109540
109317
109167
108936
108793
108601
108471
108291
108144
107938
107766
107525
107325
107035
106808
106455
106200
105764
105481
104937
104630
103939
103615
102725
102403
101241
100951
99410.1
99208.2
97133.6
97114.2
94275
94595.5
90643.7
91565.3
85966.3
87926.1
79839.7
83576.9
71719.4
78579.3
61029.5
73225.1
46859.6
67297.2
26686.9
58115.9
-6102.22
41818.9
-60102.6
15768.4
-153139
-3895.33
-74285.2
9734.11
-36496.6
15427.5
-12044.5
23170.7
8183.46
31530.9
23804.7
39440.1
35851
46203
44767.8
51668.1
51414
56090.8
56427.5
59643.3
60220.5
62469.5
63122.4
64759.7
65473.7
66782.9
67599.2
68743.4
69648.6
70649.6
71577.9
72395.6
73297.9
73899.3
74779.2
75147.2
76055.6
76164.8
77191.5
76977.8
78266.1
77589.6
79380.3
77965.9
80682.4
78043.3
109759
109630
109528
109308
109160
108931
108789
108597
108468
108288
108141
107934
107762
107521
107321
107031
106803
106450
106195
105759
105476
104931
104624
103932
103609
102718
102396
101233
100944
99400.7
99201.4
97123
97107.4
94262.9
94588.9
90629.9
91559.3
85950.6
87921.1
79822.5
83574.1
71701.8
78578.4
61010.3
73220
46831.4
67275.7
26641.5
58079.9
-6143.41
41786.6
-60078.7
15810.8
-152643
-3778.95
-74283.4
9750.33
-36496.2
15458.3
-12034
23194.6
8183.21
31544.3
23798.6
39445
35841.1
46203.3
44758.1
51666.6
51405.2
56088.2
56419.8
59640.3
60214.4
62467.4
63119.1
64759.8
65473.3
66784.6
67600.2
68744.7
69648.8
70649
71576.6
72393.1
73295.6
73895.8
74776.9
75143.4
76054.2
76161.2
77191.7
76974.6
78268.2
77586.9
79384.6
77964
80687.2
78043.6
109744
109618
109516
109299
109152
108925
108784
108594
108465
108285
108137
107930
107758
107517
107317
107026
106799
106445
106190
105754
105471
104925
104619
103925
103603
102711
102390
101224
100937
99391.4
99194.7
97112.4
97100.7
94250.9
94582.3
90616.2
91553.3
85935.1
87916.2
79805.4
83571.3
71684.3
78577.7
60991.3
73215.1
46803.7
67254.6
26596.7
58044.6
-6183.89
41755.1
-60054
15853.1
-152151
-3663.71
-74281.4
9766.16
-36496.3
15488.4
-12024.4
23217.3
8181.97
31556.7
23791.8
39449.2
35830.6
46202.9
44747.7
51664.6
51395.9
56085.1
56411.6
59637
60208.1
62465.1
63115.6
64759.6
65472.9
66786.1
67601.1
68745.8
69649
70648.3
71575.3
72390.6
73293.3
73892.2
74774.6
75139.6
76052.8
76157.5
77191.8
76971.3
78270.3
77584.1
79388.7
77962.2
80691.9
78044
109730
109605
109505
109290
109145
108920
108780
108590
108461
108281
108133
107927
107755
107513
107313
107022
106795
106441
106186
105749
105466
104919
104613
103919
103597
102703
102384
101216
100931
99382.1
99188
97101.9
97093.9
94239
94575.8
90602.6
91547.3
85919.6
87911.3
79788.4
83568.6
71667
78577
60972.5
73210.4
46776.2
67234
26552.6
58009.8
-6223.73
41724.2
-60028.8
15895.2
-151662
-3549.56
-74279.1
9781.66
-36496.8
15517.8
-12015.7
23238.9
8179.82
31568.4
23784.3
39452.7
35819.4
46201.9
44736.8
51662
51386.1
56081.6
56403.2
59633.4
60201.5
62462.6
63111.9
64759.3
65472.3
66787.5
67601.9
68746.9
69649.1
70647.6
71573.9
72388
73291
73888.6
74772.3
75135.7
76051.4
76153.9
77191.9
76968
78272.3
77581.3
79392.8
77960.4
80696.4
78044.5
109715
109593
109493
109281
109137
108914
108775
108586
108458
108278
108130
107923
107751
107509
107309
107018
106791
106436
106181
105743
105461
104914
104608
103912
103592
102696
102378
101208
100925
99372.9
99181.3
97091.4
97087.2
94227.1
94569.4
90589
91541.4
85904.2
87906.5
79771.6
83566
71649.8
78576.4
60953.9
73205.9
46749.1
67213.7
26508.9
57975.5
-6262.94
41693.9
-60002.8
15937.1
-151177
-3436.48
-74276.5
9796.85
-36497.7
15546.5
-12008
23259.5
8176.84
31579.2
23776.2
39455.6
35807.8
46200.4
44725.5
51659
51376
56077.8
56394.4
59629.5
60194.7
62459.9
63108.1
64758.9
65471.6
66788.8
67602.6
68747.9
69649.1
70646.8
71572.4
72385.4
73288.6
73885
74770
75131.8
76050
76150.2
77191.9
76964.7
78274.3
77578.5
79396.8
77958.6
80700.9
78045
109701
109580
109482
109272
109130
108909
108771
108583
108455
108275
108126
107919
107747
107505
107305
107013
106786
106431
106177
105738
105456
104908
104602
103906
103586
102689
102372
101200
100918
99363.7
99174.7
97081
97080.6
94215.2
94562.9
90575.6
91535.6
85889
87901.7
79754.8
83563.4
71632.7
78575.9
60935.5
73201.5
46722.3
67193.8
26465.8
57941.7
-6301.56
41664.2
-59976.3
15978.9
-150695
-3324.44
-74273.6
9811.78
-36499
15574.5
-12001.1
23279.1
8173.1
31589.3
23767.6
39457.9
35795.6
46198.4
44713.7
51655.5
51365.5
56073.6
56385.4
59625.4
60187.8
62457.1
63104.2
64758.4
65470.7
66790
67603.2
68748.8
69649.1
70646
71571
72382.8
73286.2
73881.4
74767.7
75128
76048.5
76146.5
77192
76961.4
78276.2
77575.7
79400.7
77956.8
80705.1
78045.5
109687
109568
109470
109263
109122
108904
108766
108579
108452
108271
108123
107915
107743
107501
107301
107009
106782
106427
106172
105733
105452
104902
104597
103899
103580
102682
102365
101192
100912
99354.5
99168.1
97070.6
97074
94203.5
94556.5
90562.2
91529.7
85873.8
87897
79738.2
83560.8
71615.8
78575.4
60917.2
73197.2
46695.8
67174.2
26423.2
57908.4
-6339.62
41635
-59949.2
16020.3
-150217
-3213.41
-74270.3
9826.5
-36500.6
15601.9
-11995
23297.9
8168.68
31598.8
23758.4
39459.8
35783.1
46196
44701.6
51651.6
51354.7
56069.2
56376.1
59621
60180.7
62454.1
63100.1
64757.7
65469.8
66791.1
67603.8
68749.7
69649.1
70645.1
71569.5
72380.2
73283.8
73877.7
74765.3
75124.1
76047.1
76142.8
77192
76958.1
78278.1
77573
79404.5
77955.1
80709.3
78046.1
109673
109556
109459
109255
109115
108898
108762
108576
108448
108268
108119
107911
107739
107497
107297
107005
106778
106422
106167
105728
105447
104896
104592
103893
103574
102674
102359
101183
100905
99345.4
99161.5
97060.3
97067.4
94191.7
94550.1
90548.8
91523.9
85858.6
87892.3
79721.6
83558.3
71598.9
78575
60899.1
73193.1
46669.5
67154.9
26381.1
57875.5
-6377.16
41606.4
-59921.5
16061.5
-149743
-3103.37
-74266.7
9841.04
-36502.5
15628.7
-11989.7
23315.9
8163.66
31607.7
23748.8
39461.1
35770.2
46193.1
44689.1
51647.5
51343.7
56064.4
56366.6
59616.5
60173.4
62450.9
63095.9
64757
65468.8
66792.1
67604.3
68750.5
69648.9
70644.2
71567.9
72377.5
73281.4
73874
74762.9
75120.2
76045.6
76139.1
77192
76954.8
78280
77570.2
79408.2
77953.3
80713.3
78046.7
109659
109544
109448
109246
109108
108893
108758
108572
108445
108265
108116
107908
107736
107493
107293
107001
106774
106417
106163
105723
105442
104891
104586
103887
103569
102667
102353
101175
100899
99336.3
99154.9
97050
97060.8
94180.1
94543.8
90535.5
91518.2
85843.6
87887.6
79705.2
83555.8
71582.2
78574.6
60881.1
73189.1
46643.5
67136
26339.3
57843
-6414.19
41578.2
-59893.4
16102.4
-149273
-2994.29
-74262.6
9855.43
-36504.6
15654.9
-11985.1
23333.1
8158.09
31616
23738.8
39462.1
35756.9
46190
44676.4
51643
51332.3
56059.5
56357
59611.8
60166
62447.7
63091.7
64756.1
65467.7
66793
67604.7
68751.2
69648.8
70643.3
71566.4
72374.9
73278.9
73870.4
74760.6
75116.3
76044.1
76135.4
77191.9
76951.5
78281.8
77567.4
79411.9
77951.6
80717.2
78047.4
109646
109532
109437
109237
109100
108888
108753
108569
108442
108261
108112
107904
107732
107489
107289
106996
106770
106413
106158
105718
105437
104885
104581
103880
103563
102660
102347
101167
100893
99327.2
99148.4
97039.8
97054.2
94168.5
94537.5
90522.3
91512.4
85828.7
87883
79688.9
83553.4
71565.6
78574.2
60863.2
73185.1
46617.8
67117.2
26298.1
57810.9
-6450.75
41550.5
-59864.8
16143.1
-148806
-2886.14
-74258.2
9869.72
-36506.9
15680.6
-11981.1
23349.8
8152.03
31623.9
23728.5
39462.7
35743.4
46186.5
44663.4
51638.2
51320.8
56054.3
56347.2
59607
60158.5
62444.3
63087.4
64755.2
65466.6
66793.9
67605
68751.9
69648.6
70642.3
71564.8
72372.2
73276.5
73866.7
74758.2
75112.4
76042.6
76131.7
77191.9
76948.2
78283.6
77564.7
79415.5
77949.9
80721
78048.1
109632
109520
109426
109229
109093
108882
108749
108565
108438
108258
108109
107900
107728
107485
107285
106992
106765
106408
106154
105713
105432
104879
104576
103874
103557
102653
102341
101159
100886
99318.2
99141.9
97029.6
97047.7
94156.9
94531.2
90509.2
91506.7
85813.8
87878.4
79672.6
83551
71549.1
78573.9
60845.5
73181.3
46592.2
67098.8
26257.2
57779.2
-6486.84
41523.3
-59835.7
16183.3
-148342
-2778.9
-74253.3
9883.94
-36509.4
15705.7
-11977.7
23365.8
8145.55
31631.4
23717.8
39463
35729.7
46182.7
44650.1
51633.2
51309.1
56048.9
56337.3
59602.1
60151
62440.9
63083
64754.2
65465.3
66794.7
67605.3
68752.5
69648.4
70641.3
71563.2
72369.5
73274
73863.1
74755.8
75108.5
76041.1
76128
77191.8
76944.9
78285.3
77561.9
79419
77948.2
80724.6
78048.9
109619
109508
109415
109220
109086
108877
108744
108562
108435
108255
108105
107897
107724
107481
107281
106988
106761
106403
106149
105708
105427
104874
104571
103868
103552
102646
102335
101151
100880
99309.2
99135.4
97019.5
97041.2
94145.4
94524.9
90496.1
91501.1
85799
87873.8
79656.5
83548.6
71532.7
78573.6
60827.8
73177.5
46566.9
67080.5
26216.6
57747.8
-6522.5
41496.5
-59806.2
16223.3
-147882
-2672.55
-74247.9
9898.12
-36512.1
15730.4
-11974.9
23381.2
8138.7
31638.5
23706.9
39463.1
35715.7
46178.7
44636.7
51628
51297.3
56043.4
56327.3
59597
60143.3
62437.4
63078.5
64753.1
65464.1
66795.4
67605.6
68753.1
69648.1
70640.3
71561.7
72366.8
73271.6
73859.4
74753.5
75104.6
76039.6
76124.3
77191.7
76941.6
78287
77559.2
79422.5
77946.6
80728.1
78049.7
109605
109496
109405
109212
109079
108872
108740
108558
108432
108252
108102
107893
107721
107477
107278
106984
106757
106399
106145
105703
105422
104868
104565
103861
103546
102639
102329
101143
100874
99300.3
99129
97009.4
97034.8
94133.9
94518.7
90483.1
91495.4
85784.3
87869.3
79640.5
83546.3
71516.4
78573.3
60810.3
73173.8
46541.7
67062.5
26176.5
57716.8
-6557.74
41470.1
-59776.2
16262.9
-147426
-2567.07
-74242.1
9912.29
-36514.9
15754.6
-11972.5
23396.2
8131.52
31645.2
23695.8
39462.8
35701.6
46174.4
44623.1
51622.7
51285.3
56037.8
56317.2
59591.9
60135.6
62433.8
63074
64752
65462.8
66796.1
67605.8
68753.7
69647.8
70639.3
71560.1
72364.1
73269.2
73855.8
74751.1
75100.7
76038.1
76120.6
77191.6
76938.3
78288.7
77556.4
79425.9
77944.9
80731.6
78050.6
109592
109485
109394
109204
109072
108866
108736
108554
108429
108248
108098
107889
107717
107473
107274
106980
106753
106394
106141
105698
105417
104863
104560
103855
103540
102632
102323
101136
100867
99291.4
99122.6
96999.3
97028.3
94122.5
94512.5
90470.1
91489.8
85769.7
87864.8
79624.5
83543.9
71500.1
78573
60792.9
73170.1
46516.7
67044.6
26136.7
57686.1
-6592.58
41444.1
-59745.9
16302.2
-146973
-2462.43
-74235.7
9926.49
-36517.8
15778.4
-11970.7
23410.8
8124.05
31651.7
23684.4
39462.4
35687.3
46170
44609.4
51617.1
51273.3
56032.1
56307
59586.7
60127.9
62430.2
63069.5
64750.8
65461.4
66796.7
67605.9
68754.2
69647.5
70638.3
71558.5
72361.4
73266.7
73852.1
74748.7
75096.8
76036.5
76117
77191.5
76935
78290.3
77553.7
79429.2
77943.3
80734.9
78051.5
109579
109473
109383
109196
109065
108861
108731
108551
108425
108245
108095
107886
107713
107469
107270
106975
106749
106390
106136
105693
105413
104857
104555
103849
103535
102625
102317
101128
100861
99282.6
99116.2
96989.3
97021.9
94111.2
94506.4
90457.2
91484.2
85755.1
87860.4
79608.6
83541.6
71484
78572.8
60775.5
73166.5
46491.9
67027
26097.2
57655.7
-6627.03
41418.5
-59715.2
16341.2
-146523
-2358.62
-74228.9
9940.74
-36520.7
15801.8
-11969.2
23424.9
8116.34
31657.9
23672.9
39461.7
35672.9
46165.4
44595.6
51611.5
51261.1
56026.2
56296.7
59581.4
60120.1
62426.6
63064.9
64749.6
65460
66797.3
67606.1
68754.7
69647.2
70637.3
71556.9
72358.7
73264.3
73848.5
74746.4
75092.9
76035
76113.3
77191.4
76931.7
78292
77551
79432.4
77941.7
80738
78052.4
109566
109462
109373
109187
109058
108856
108727
108547
108422
108242
108091
107882
107710
107465
107266
106971
106745
106385
106132
105688
105408
104851
104550
103843
103529
102618
102311
101120
100855
99273.7
99109.8
96979.3
97015.6
94099.9
94500.2
90444.4
91478.6
85740.6
87855.9
79592.9
83539.4
71467.9
78572.5
60758.2
73163
46467.3
67009.5
26058
57625.6
-6661.11
41393.3
-59684.2
16379.8
-146077
-2255.61
-74221.6
9955.06
-36523.7
15824.9
-11968.1
23438.7
8108.41
31663.8
23661.3
39460.9
35658.3
46160.7
44581.7
51605.7
51248.8
56020.3
56286.4
59576.1
60112.3
62422.9
63060.3
64748.3
65458.5
66797.8
67606.2
68755.1
69646.8
70636.2
71555.3
72356.1
73261.9
73844.8
74744
75089.1
76033.5
76109.6
77191.2
76928.5
78293.5
77548.3
79435.6
77940.1
80741.1
78053.4
109554
109451
109363
109179
109051
108851
108723
108544
108419
108238
108088
107878
107706
107462
107262
106967
106741
106381
106127
105683
105403
104846
104545
103837
103524
102611
102306
101112
100849
99265
99103.4
96969.4
97009.2
94088.6
94494.1
90431.6
91473.1
85726.2
87851.5
79577.2
83537.1
71452
78572.2
60741.1
73159.4
46442.7
66992.2
26019.2
57595.8
-6694.82
41368.4
-59652.8
16418
-145634
-2153.38
-74213.8
9969.48
-36526.7
15847.6
-11967.3
23452.2
8100.3
31669.6
23649.6
39459.9
35643.7
46155.9
44567.7
51599.8
51236.6
56014.3
56276.1
59570.7
60104.4
62419.1
63055.7
64747
65457
66798.3
67606.2
68755.6
69646.4
70635.1
71553.7
72353.4
73259.5
73841.2
74741.6
75085.2
76032
76105.9
77191.1
76925.2
78295.1
77545.6
79438.7
77938.6
80744.1
78054.4
109541
109440
109352
109171
109044
108846
108718
108540
108415
108235
108085
107875
107702
107458
107258
106963
106737
106376
106123
105678
105398
104840
104540
103830
103518
102604
102300
101104
100843
99256.2
99097.1
96959.5
97002.9
94077.4
94488
90418.9
91467.6
85711.9
87847.1
79561.6
83534.8
71436.1
78572
60724
73155.9
46418.4
66975.1
25980.6
57566.2
-6728.18
41343.8
-59621.1
16455.9
-145195
-2051.92
-74205.4
9984.01
-36529.6
15870.1
-11966.8
23465.4
8092.03
31675.1
23637.7
39458.8
35629.1
46150.9
44553.6
51593.8
51224.2
56008.2
56265.8
59565.3
60096.6
62415.4
63051.1
64745.7
65455.5
66798.8
67606.3
68755.9
69646
70634
71552
72350.7
73257.1
73837.6
74739.3
75081.4
76030.4
76102.3
77190.9
76921.9
78296.6
77542.9
79441.8
77937
80747
78055.5
109529
109429
109342
109163
109037
108841
108714
108537
108412
108232
108081
107871
107699
107454
107255
106959
106733
106372
106119
105673
105394
104835
104535
103824
103513
102597
102294
101097
100837
99247.5
99090.8
96949.7
96996.6
94066.3
94481.9
90406.3
91462.1
85697.6
87842.8
79546
83532.6
71420.3
78571.7
60706.9
73152.4
46394.1
66958.1
25942.3
57536.9
-6761.21
41319.6
-59589.1
16493.4
-144759
-1951.2
-74196.5
9998.69
-36532.6
15892.2
-11966.6
23478.3
8083.64
31680.5
23625.8
39457.6
35614.4
46145.9
44539.5
51587.8
51211.8
56002.1
56255.4
59559.9
60088.8
62411.6
63046.4
64744.4
65454
66799.2
67606.3
68756.3
69645.6
70633
71550.4
72348
73254.7
73834
74737
75077.5
76028.9
76098.6
77190.7
76918.7
78298.1
77540.2
79444.8
77935.5
80749.8
78056.6
109516
109418
109332
109155
109030
108836
108710
108533
108409
108229
108078
107868
107695
107450
107251
106955
106729
106367
106114
105668
105389
104829
104529
103818
103507
102590
102288
101089
100830
99238.8
99084.6
96939.9
96990.3
94055.2
94475.9
90393.7
91456.7
85683.4
87838.4
79530.6
83530.4
71404.5
78571.5
60690
73148.9
46370
66941.2
25904.3
57507.9
-6793.9
41295.6
-59556.7
16530.6
-144326
-1851.2
-74187.1
10013.5
-36535.5
15914.1
-11966.6
23491
8075.13
31685.7
23613.8
39456.3
35599.6
46140.8
44525.4
51581.7
51199.5
55996
56245
59554.4
60080.9
62407.8
63041.8
64743
65452.5
66799.6
67606.2
68756.7
69645.2
70631.9
71548.8
72345.4
73252.3
73830.4
74734.6
75073.7
76027.4
76095
77190.6
76915.4
78299.5
77537.6
79447.7
77934
80752.4
78057.7
109504
109407
109322
109147
109024
108830
108705
108530
108406
108225
108074
107864
107692
107446
107247
106951
106725
106363
106110
105663
105384
104824
104524
103812
103502
102583
102282
101081
100824
99230.2
99078.3
96930.2
96984.1
94044.1
94469.9
90381.1
91451.2
85669.3
87834.1
79515.2
83528.2
71388.9
78571.2
60673.1
73145.5
46346
66924.5
25866.5
57479.1
-6826.27
41272
-59524.1
16567.5
-143897
-1751.92
-74177.1
10028.5
-36538.4
15935.7
-11966.9
23503.5
8066.53
31690.8
23601.7
39454.9
35584.9
46135.6
44511.3
51575.6
51187.1
55989.8
56234.7
59548.9
60073.1
62404
63037.1
64741.6
65450.9
66800
67606.2
68757
69644.8
70630.8
71547.2
72342.7
73249.9
73826.9
74732.3
75069.9
76025.9
76091.4
77190.4
76912.2
78300.9
77534.9
79450.5
77932.6
80755
78058.9
109492
109396
109312
109140
109017
108825
108701
108526
108402
108222
108071
107861
107688
107443
107243
106947
106721
106359
106106
105658
105380
104819
104519
103806
103496
102577
102276
101074
100818
99221.6
99072.1
96920.4
96977.9
94033.1
94463.9
90368.6
91445.8
85655.2
87829.8
79499.9
83526
71373.3
78570.9
60656.2
73142
46322.1
66907.9
25829
57450.5
-6858.33
41248.7
-59491.3
16604.1
-143471
-1653.32
-74166.6
10043.7
-36541.2
15957.1
-11967.4
23515.8
8057.86
31695.8
23589.7
39453.5
35570.1
46130.4
44497.1
51569.4
51174.7
55983.6
56224.3
59543.5
60065.2
62400.2
63032.4
64740.2
65449.3
66800.3
67606.1
68757.3
69644.4
70629.7
71545.6
72340.1
73247.5
73823.3
74730
75066.1
76024.4
76087.8
77190.2
76909
78302.3
77532.3
79453.3
77931.1
80757.5
78060.1
109480
109385
109302
109132
109010
108820
108697
108523
108399
108219
108068
107857
107685
107439
107240
106943
106717
106354
106101
105653
105375
104813
104514
103800
103491
102570
102271
101066
100812
99213.1
99065.9
96910.8
96971.7
94022.2
94457.9
90356.2
91440.4
85641.2
87825.6
79484.7
83523.8
71357.8
78570.6
60639.5
73138.6
46298.3
66891.4
25791.8
57422.2
-6890.08
41225.7
-59458.1
16640.3
-143048
-1555.4
-74155.5
10059.1
-36543.9
15978.3
-11968
23527.9
8049.13
31700.7
23577.6
39451.9
35555.4
46125.2
44483
51563.2
51162.3
55977.4
56213.9
59538
60057.4
62396.4
63027.8
64738.8
65447.7
66800.7
67606
68757.6
69643.9
70628.6
71544
72337.5
73245.2
73819.8
74727.7
75062.3
76022.9
76084.2
77189.9
76905.8
78303.7
77529.7
79456.1
77929.7
80759.9
78061.3
109468
109375
109293
109124
109003
108815
108692
108519
108396
108216
108064
107853
107681
107435
107236
106939
106713
106350
106097
105648
105370
104808
104509
103794
103486
102563
102265
101058
100806
99204.5
99059.8
96901.2
96965.5
94011.3
94452
90343.9
91435.1
85627.3
87821.3
79469.6
83521.6
71342.4
78570.3
60622.7
73135.1
46274.6
66875
25754.8
57394.1
-6921.54
41203
-59424.7
16676.2
-142628
-1458.12
-74143.9
10074.8
-36546.5
15999.3
-11968.8
23539.8
8040.36
31705.4
23565.5
39450.4
35540.6
46119.9
44468.9
51557
51149.9
55971.2
56203.6
59532.5
60049.6
62392.6
63023.1
64737.3
65446
66800.9
67605.9
68757.8
69643.4
70627.5
71542.5
72334.9
73242.8
73816.2
74725.4
75058.6
76021.4
76080.6
77189.7
76902.6
78305
77527.1
79458.7
77928.3
80762.2
78062.5
109456
109364
109283
109117
108997
108810
108688
108516
108392
108212
108061
107850
107677
107431
107232
106935
106709
106346
106093
105644
105366
104802
104504
103788
103480
102556
102259
101051
100800
99196
99053.6
96891.6
96959.3
94000.4
94446.1
90331.6
91429.8
85613.5
87817.1
79454.6
83519.5
71327
78570
60606.1
73131.6
46251
66858.7
25718
57366.2
-6952.69
41180.6
-59391.1
16711.9
-142212
-1361.49
-74131.7
10090.6
-36549.1
16020.1
-11969.7
23551.6
8031.55
31710.1
23553.4
39448.7
35525.9
46114.6
44454.8
51550.7
51137.5
55964.9
56193.3
59527
60041.8
62388.8
63018.4
64735.9
65444.4
66801.2
67605.7
68758.1
69643
70626.4
71540.9
72332.2
73240.5
73812.7
74723.2
75054.8
76019.9
76077
77189.5
76899.4
78306.3
77524.5
79461.4
77926.9
80764.4
78063.8
109445
109354
109274
109109
108990
108805
108684
108512
108389
108209
108057
107846
107674
107428
107228
106931
106705
106341
106089
105639
105361
104797
104499
103782
103475
102550
102254
101043
100794
99187.6
99047.5
96882
96953.2
93989.6
94440.2
90319.3
91424.4
85599.7
87812.9
79439.6
83517.3
71311.7
78569.6
60589.5
73128.2
46227.5
66842.6
25681.5
57338.6
-6983.56
41158.4
-59357.2
16747.3
-141798
-1265.47
-74119
10106.6
-36551.6
16040.6
-11970.8
23563.3
8022.71
31714.7
23541.2
39447.1
35511.2
46109.3
44440.7
51544.5
51125.2
55958.7
56183
59521.5
60034
62385
63013.8
64734.4
65442.7
66801.4
67605.6
68758.3
69642.5
70625.2
71539.3
72329.6
73238.2
73809.3
74720.9
75051.1
76018.4
76073.4
77189.3
76896.2
78307.6
77521.9
79463.9
77925.6
80766.5
78065.1
109433
109344
109264
109101
108984
108800
108680
108509
108386
108206
108054
107843
107670
107424
107225
106927
106701
106337
106084
105634
105357
104792
104494
103776
103470
102543
102248
101036
100788
99179.2
99041.4
96872.5
96947.1
93978.9
94434.3
90307.1
91419.2
85586
87808.7
79424.7
83515.2
71296.4
78569.3
60572.9
73124.7
46204.1
66826.5
25645.2
57311.1
-7014.15
41136.5
-59323.1
16782.4
-141388
-1170.05
-74105.7
10122.9
-36554
16061
-11972.1
23574.9
8013.86
31719.3
23529.1
39445.4
35496.5
46104
44426.6
51538.2
51112.8
55952.5
56172.7
59516.1
60026.2
62381.1
63009.1
64732.9
65441
66801.7
67605.4
68758.5
69642
70624.1
71537.7
72327.1
73235.9
73805.8
74718.7
75047.4
76016.9
76069.9
77189
76893
78308.9
77519.4
79466.4
77924.2
80768.5
78066.5
109422
109334
109255
109094
108977
108796
108675
108505
108383
108203
108051
107840
107667
107420
107221
106923
106697
106333
106080
105629
105352
104787
104490
103770
103464
102537
102242
101029
100783
99170.8
99035.3
96863.1
96941.1
93968.2
94428.5
90295
91413.9
85572.3
87804.6
79409.9
83513