/*--------------------------------*- C++ -*----------------------------------*\
| =========                 |                                                 |
| \\      /  F ield         | OpenFOAM: The Open Source CFD Toolbox           |
|  \\    /   O peration     | Version:  2412                                  |
|   \\  /    A nd           | Website:  www.openfoam.com                      |
|    \\/     M anipulation  |                                                 |
\*---------------------------------------------------------------------------*/
FoamFile
{
    version     2.0;
    format      ascii;
    arch        "LSB;label=32;scalar=64";
    class       surfaceScalarField;
    location    "0.4";
    object      phi;
}
// * * * * * * * * * * * * * * * * * * * * * * * * * * * * * * * * * * * * * //

dimensions      [0 3 -1 0 0 0 0];

oriented        oriented;

internalField   nonuniform List<scalar> 
25926
(
0.00749644
-0.0256484
0.00745099
-0.0217658
0.00742502
-0.0174703
0.00739769
-0.0119896
0.00736184
-0.00495497
0.00731654
0.00225558
0.00726862
0.00852659
0.00722993
0.0127754
0.00721164
0.0144563
0.00721567
0.0136769
0.00723011
0.0115259
0.00724359
0.00950306
0.00725354
0.00810953
0.00726235
0.00720868
0.00727108
0.00644233
0.00728017
0.00581644
0.00728895
0.00516551
0.00729762
0.0046746
0.00730543
0.00410813
0.00731284
0.00372168
0.00731894
0.00319984
0.00732455
0.00290209
0.00732842
0.00236915
0.00733196
0.00218342
0.00733341
0.00162945
0.00733486
0.00155726
0.00733383
0.000958157
0.0073334
0.00103186
0.00732994
0.000334638
0.00732804
0.000628997
0.00732233
-0.00022265
0.00731943
0.000333083
0.00731141
-0.00075111
0.0073078
0.000169476
0.00729714
-0.00122458
0.007293
0.000159703
0.00727918
-0.00165163
0.00727396
0.000342818
0.00725488
-0.00193658
0.00724702
0.000946464
0.00722471
-0.00142084
0.00722201
0.00285036
0.00721096
0.000706297
0.00723035
0.00611538
0.0072471
0.00333774
0.00729908
0.00812656
0.00733164
0.00177315
0.00737396
0.00316846
0.0073733
-0.00562595
0.00741367
-0.00601028
0.00745899
-0.0143382
0.00755425
-0.0366456
0.00768036
-0.0629511
0.00784644
0.0161487
0.00787485
0.0490538
0.00782553
0.0261942
0.00769328
0.000973103
0.00757544
-0.00161031
0.00748006
-0.00682965
0.00744421
-0.000347321
0.00742445
-0.00270672
0.0074284
0.00197822
0.00742601
-0.000621273
0.00743894
0.00298408
0.00744698
0.00100885
0.00746546
0.0035437
0.00747737
0.00153529
0.00749321
0.00272102
0.00749962
0.000531262
0.00750509
0.000811748
0.00750092
-0.00123512
0.00749399
-0.00143502
0.00747843
-0.00313182
0.00745957
-0.00343253
0.00743446
-0.00458101
0.00740816
-0.00459775
-0.004961
0.007496
-0.0255687
0.00744969
-0.0217195
0.0074227
-0.0174433
0.00739467
-0.0119616
0.00735874
-0.00491904
0.00731402
0.00230031
0.00726725
0.00857335
0.0072301
0.0128125
0.00721337
0.0144731
0.00721845
0.0136718
0.00723333
0.011511
0.00724696
0.00948944
0.00725705
0.00809944
0.00726602
0.0071997
0.00727491
0.00643344
0.00728411
0.00580723
0.00729299
0.00515664
0.00730175
0.00466585
0.00730962
0.00410025
0.00731708
0.00371421
0.00732324
0.00319369
0.00732889
0.00289644
0.0073328
0.00236523
0.00733637
0.00217985
0.00733786
0.00162797
0.00733934
0.00155578
0.00733834
0.000959152
0.00733794
0.00103226
0.00733451
0.00033807
0.00733264
0.000630864
0.00732695
-0.000216961
0.00732407
0.000335959
0.00731607
-0.00074311
0.00731247
0.000173074
0.00730184
-0.00121394
0.00729771
0.000163832
0.00728391
-0.00163783
0.00727867
0.000348051
0.00725963
-0.00191754
0.00725183
0.000954269
0.00722969
-0.00139869
0.00722719
0.00285286
0.00721642
0.00071706
0.0072361
0.00609571
0.00725306
0.00332077
0.00730498
0.00807464
0.00733698
0.00174115
0.00737867
0.00312677
0.00737777
-0.00562505
0.00741791
-0.00605041
0.00746266
-0.0143829
0.00755508
-0.036738
0.00767637
-0.0630724
0.00784156
0.0159835
0.0078722
0.0490232
0.00782349
0.0262429
0.00769087
0.00110573
0.00757339
-0.00149283
0.00747923
-0.00673549
0.00744533
-0.000313417
0.00742635
-0.00268774
0.00743087
0.0019737
0.00742848
-0.000618883
0.00744156
0.002971
0.00744945
0.00100096
0.00746796
0.00352519
0.00747972
0.00152353
0.00749549
0.00270526
0.00750165
0.000525093
0.00750695
0.000806456
0.00750256
-0.00123074
0.00749549
-0.00142796
0.00747982
-0.00311614
0.00746093
-0.00341364
0.00743583
-0.00455592
0.00740965
-0.00457157
-0.00493368
0.00749557
-0.0254885
0.00744842
-0.0216723
0.00742042
-0.0174153
0.00739172
-0.0119329
0.00735572
-0.00488304
0.00731156
0.00234447
0.00726594
0.00861897
0.00723032
0.0128481
0.0072151
0.0144883
0.00722121
0.0136657
0.00723652
0.0114957
0.0072503
0.00947565
0.00726054
0.0080892
0.00726969
0.00719056
0.00727872
0.00642441
0.00728805
0.00579791
0.00729702
0.00514766
0.00730586
0.00465701
0.0073138
0.00409231
0.00732132
0.00370669
0.00732752
0.00318748
0.00733322
0.00289075
0.00733718
0.00236128
0.00734079
0.00217624
0.0073423
0.00162645
0.00734382
0.00155427
0.00734286
0.000960113
0.00734249
0.00103263
0.00733909
0.00034147
0.00733724
0.000632707
0.00733159
-0.000211303
0.00732873
0.000338816
0.00732076
-0.000735137
0.00731717
0.00017666
0.00730656
-0.00120333
0.00730244
0.000167954
0.00728866
-0.00162405
0.00728343
0.000353287
0.00726443
-0.00189854
0.00725669
0.000962012
0.00723471
-0.00137672
0.00723241
0.00285516
0.00722192
0.00072755
0.00724186
0.00607577
0.00725901
0.00330362
0.00731085
0.0080228
0.0073423
0.0017097
0.00738342
0.00308566
0.0073823
-0.00562394
0.00742218
-0.00609029
0.00746634
-0.0144271
0.00755589
-0.0368276
0.00767232
-0.0631889
0.00783657
0.0158193
0.00786946
0.0489903
0.0078215
0.0262909
0.00768869
0.00123855
0.00757169
-0.00137584
0.00747876
-0.00664255
0.00744663
-0.000281289
0.00742834
-0.00266945
0.00743333
0.0019687
0.00743094
-0.00061649
0.00744413
0.0029578
0.0074519
0.000993199
0.00747043
0.00350666
0.00748206
0.0015119
0.00749775
0.00268957
0.0075037
0.00051914
0.00750883
0.000801322
0.00750426
-0.00122617
0.00749708
-0.00142077
0.00748131
-0.00310037
0.0074624
-0.00339473
0.00743734
-0.00453085
0.00741128
-0.0045455
-0.00490653
0.00749515
-0.0254079
0.00744718
-0.0216244
0.0074182
-0.0173864
0.00738884
-0.0119035
0.00735278
-0.00484698
0.00730918
0.00238806
0.00726469
0.00866346
0.00723056
0.0128823
0.00721684
0.014502
0.00722396
0.0136586
0.0072397
0.01148
0.00725364
0.00946171
0.00726403
0.00807881
0.00727334
0.00718125
0.00728252
0.00641522
0.00729197
0.00578846
0.00730105
0.00513859
0.00730996
0.0046481
0.00731797
0.0040843
0.00732555
0.00369912
0.00733181
0.00318122
0.00733755
0.00288501
0.00734155
0.00235728
0.00734519
0.00217259
0.00734675
0.00162489
0.0073483
0.00155272
0.00734738
0.000961037
0.00734704
0.00103297
0.00734367
0.000344833
0.00734186
0.000634522
0.00733623
-0.000205679
0.0073334
0.00034165
0.00732545
-0.000727192
0.00732188
0.000180231
0.0073113
-0.00119275
0.00730719
0.000172065
0.00729344
-0.0016103
0.00728821
0.000358522
0.00726926
-0.0018796
0.00726159
0.00096969
0.00723978
-0.00135491
0.00723768
0.00285726
0.00722745
0.000737775
0.00724763
0.0060556
0.00726495
0.0032863
0.00731669
0.00797105
0.00734762
0.00167877
0.00738818
0.0030451
0.00738687
-0.00562263
0.00742648
-0.0061299
0.00747003
-0.0144706
0.00755669
-0.0369142
0.00766823
-0.0633004
0.00783148
0.015656
0.00786665
0.0489551
0.00781956
0.0263379
0.0076867
0.0013714
0.00757029
-0.00125944
0.00747859
-0.00655085
0.0074481
-0.000250795
0.00743041
-0.00265176
0.0074358
0.00196331
0.00743339
-0.000614085
0.00744668
0.00294452
0.00745432
0.000985552
0.00747287
0.00348811
0.00748439
0.00150039
0.0075
0.00267396
0.00750576
0.000513382
0.00751075
0.000796331
0.00750601
-0.00122143
0.00749873
-0.0014135
0.00748289
-0.00308453
0.00746398
-0.00337582
0.00743896
-0.00450584
0.00741302
-0.00451956
-0.00487954
0.00749474
-0.0253269
0.00744596
-0.0215756
0.00741602
-0.0173564
0.00738602
-0.0118735
0.0073499
-0.00481085
0.00730686
0.0024311
0.00726349
0.00870682
0.00723084
0.0129149
0.00721858
0.0145142
0.00722669
0.0136505
0.00724285
0.0114638
0.00725696
0.0094476
0.0072675
0.00806827
0.00727698
0.00717177
0.00728632
0.00640588
0.00729589
0.00577889
0.00730506
0.00512941
0.00731406
0.0046391
0.00732214
0.00407621
0.00732978
0.00369148
0.00733609
0.00317491
0.00734187
0.00287922
0.00734592
0.00235324
0.00734961
0.0021689
0.0073512
0.00162329
0.00735279
0.00155114
0.0073519
0.000961924
0.00735159
0.00103328
0.00734826
0.000348163
0.00734648
0.000636305
0.00734089
-0.000200088
0.00733808
0.000344462
0.00733016
-0.000719278
0.00732661
0.000183785
0.00731606
-0.0011822
0.00731196
0.000176164
0.00729825
-0.00159659
0.00729302
0.000363752
0.00727413
-0.00186071
0.00726652
0.000977297
0.00724488
-0.00133327
0.00724297
0.00285917
0.007233
0.000747742
0.00725341
0.00603519
0.00727088
0.00326883
0.00732251
0.00791943
0.00735293
0.00164834
0.00739296
0.00300507
0.00739148
-0.00562115
0.00743081
-0.00616922
0.00747372
-0.0145135
0.00755747
-0.036998
0.00766409
-0.063407
0.00782628
0.0154938
0.00786376
0.0489177
0.00781764
0.0263841
0.0076849
0.00150414
0.00756917
-0.0011437
0.0074787
-0.00646038
0.0074497
-0.000221801
0.00743254
-0.0026346
0.00743826
0.00195759
0.00743584
-0.000611664
0.00744919
0.00293117
0.00745674
0.000978005
0.0074753
0.00346955
0.00748671
0.00148898
0.00750225
0.00265843
0.00750783
0.000507802
0.00751269
0.000791468
0.00750782
-0.00121656
0.00750046
-0.00140614
0.00748456
-0.00306863
0.00746565
-0.00335691
0.00744068
-0.00448087
0.00741487
-0.00449375
0.00738806
-0.00485273
0.00736501
-0.00438894
0.00734623
-0.00408211
0.00733384
-0.00335464
0.00732662
-0.00285008
0.00732396
-0.0022982
0.00732349
-0.00198307
0.0073234
-0.00184042
0.00732198
-0.00180066
0.00731786
-0.00200373
0.00731101
-0.00209196
0.0073004
-0.00244928
0.00728745
-0.0024402
0.00727005
-0.00284011
0.00725145
-0.00259351
0.00722671
-0.0029375
0.00720226
-0.00233196
0.00716722
-0.00251257
0.00713486
-0.00142617
0.00708302
-0.00110338
0.00703897
0.000660263
0.00696451
0.00242872
0.00662099
0.00749434
-0.0252455
0.00744477
-0.021526
0.00741389
-0.0173255
0.00738327
-0.0118429
0.00734709
-0.00477467
0.00730461
0.00247359
0.00726235
0.00874909
0.00723114
0.0129461
0.00722033
0.0145251
0.00722941
0.0136414
0.00724599
0.0114472
0.00726027
0.00943332
0.00727097
0.00805757
0.00728062
0.00716212
0.00729011
0.0063964
0.0072998
0.0057692
0.00730907
0.00512014
0.00731815
0.00463003
0.0073263
0.00406806
0.00733399
0.00368378
0.00734036
0.00316855
0.00734619
0.00287338
0.00735028
0.00234915
0.00735401
0.00216517
0.00735565
0.00162165
0.00735727
0.00154952
0.00735642
0.000962774
0.00735615
0.00103356
0.00735286
0.000351453
0.00735111
0.000638057
0.00734555
-0.000194532
0.00734276
0.000347247
0.00733488
-0.000711396
0.00733135
0.000187318
0.00732084
-0.00117169
0.00731675
0.000180247
0.00730307
-0.0015829
0.00729785
0.000368974
0.00727902
-0.00184188
0.00727149
0.000984831
0.00725002
-0.0013118
0.0072483
0.00286088
0.00723858
0.000757459
0.0072592
0.00601457
0.0072768
0.00325123
0.0073283
0.00786793
0.00735824
0.0016184
0.00739777
0.00296555
0.00739614
-0.00561952
0.00743516
-0.00620824
0.00747741
-0.0145558
0.00755825
-0.0370788
0.00765991
-0.0635087
0.00782101
0.0153327
0.00786079
0.0488779
0.00781576
0.0264291
0.00768327
0.00163664
0.0075683
-0.00102873
0.00747905
-0.00637113
0.00745143
-0.000194184
0.00743473
-0.0026179
0.00744073
0.0019516
0.00743829
-0.000609224
0.00745169
0.00291776
0.00745915
0.000970549
0.00747773
0.00345097
0.00748904
0.00147766
0.00750451
0.00264296
0.00750992
0.000502382
0.00751467
0.000786721
0.00750967
-0.00121156
0.00750225
-0.00139872
0.00748631
-0.00305269
0.00746741
-0.00333801
0.00744251
-0.00445596
0.00741682
-0.00446807
0.00739018
-0.00482609
0.00736733
-0.00436609
0.00734873
-0.00406351
0.00733647
-0.00334239
0.00732931
-0.00284292
0.00732664
-0.00229553
0.00732611
-0.00198254
0.00732593
-0.00184024
0.00732442
-0.00179914
0.00732023
-0.00199954
0.00731334
-0.00208507
0.00730271
-0.00243865
0.00728979
-0.00242728
0.00727244
-0.00282276
0.00725393
-0.002575
0.0072293
-0.00291286
0.00720502
-0.00230768
0.0071702
-0.00247775
0.00713811
-0.00139408
0.0070868
-0.00105207
0.00704327
0.00070379
0.00697028
0.0025017
0.00666888
0.00749395
-0.0251637
0.0074436
-0.0214757
0.0074118
-0.0172937
0.00738058
-0.0118117
0.00734435
-0.00473845
0.00730242
0.00251552
0.00726125
0.00879026
0.00723148
0.0129759
0.00722208
0.0145344
0.00723212
0.0136314
0.00724912
0.0114302
0.00726357
0.00941887
0.00727443
0.00804671
0.00728425
0.0071523
0.00729388
0.00638676
0.0073037
0.00575939
0.00731307
0.00511077
0.00732223
0.00462087
0.00733045
0.00405984
0.00733821
0.00367603
0.00734463
0.00316213
0.00735051
0.0028675
0.00735464
0.00234502
0.00735842
0.0021614
0.00736009
0.00161998
0.00736175
0.00154786
0.00736094
0.000963583
0.00736071
0.00103379
0.00735745
0.000354705
0.00735573
0.000639778
0.00735022
-0.000189015
0.00734746
0.000350006
0.00733961
-0.000703549
0.0073361
0.000190831
0.00732562
-0.00116121
0.00732156
0.000184312
0.00730791
-0.00156926
0.0073027
0.000374183
0.00728394
-0.00182312
0.00727648
0.000992287
0.00725518
-0.0012905
0.00725365
0.00286241
0.00724418
0.000766934
0.007265
0.00599374
0.00728272
0.00323351
0.00733407
0.00781658
0.00736354
0.00158894
0.00740259
0.00292649
0.00740082
-0.00561775
0.00743953
-0.00624695
0.00748111
-0.0145974
0.00755902
-0.0371567
0.0076557
-0.0636054
0.00781565
0.0151728
0.00785776
0.0488358
0.00781391
0.0264729
0.0076818
0.00176875
0.00756766
-0.000914593
0.00747963
-0.00628309
0.00745327
-0.000167828
0.00743698
-0.00260161
0.0074432
0.00194537
0.00744074
-0.000606761
0.00745419
0.00290432
0.00746156
0.000963171
0.00748014
0.00343239
0.00749137
0.00146643
0.00750676
0.00262757
0.00751204
0.000497109
0.00751668
0.000782078
0.00751157
-0.00120645
0.0075041
-0.00139124
0.00748813
-0.00303672
0.00746926
-0.00331914
0.00744442
-0.00443113
0.00741886
-0.00444251
0.0073924
-0.00479962
0.00736973
-0.00434342
0.00735129
-0.00404507
0.00733914
-0.00333024
0.00733203
-0.0028358
0.00732934
-0.00229285
0.00732874
-0.00198194
0.00732848
-0.00183998
0.00732688
-0.00179754
0.00732261
-0.00199528
0.00731569
-0.00207815
0.00730505
-0.00242801
0.00729216
-0.00241439
0.00727486
-0.00280546
0.00725645
-0.00255658
0.00723194
-0.00288835
0.00720782
-0.00228356
0.00717323
-0.00244316
0.00714143
-0.00136228
0.00709064
-0.00100128
0.00704765
0.000746782
0.00697612
0.00257323
0.00671543
0.00749357
-0.0250815
0.00744246
-0.0214246
0.00740976
-0.017261
0.00737795
-0.0117799
0.00734168
-0.00470218
0.0073003
0.00255691
0.0072602
0.00883035
0.00723185
0.0130042
0.00722384
0.0145425
0.00723481
0.0136204
0.00725223
0.0114128
0.00726685
0.00940425
0.00727788
0.00803568
0.00728786
0.00714231
0.00729765
0.00637697
0.00730759
0.00574945
0.00731706
0.0051013
0.0073263
0.00461162
0.0073346
0.00405155
0.00734241
0.00366821
0.00734889
0.00315566
0.00735482
0.00286156
0.007359
0.00234084
0.00736281
0.00215759
0.00736453
0.00161826
0.00736623
0.00154616
0.00736547
0.000964351
0.00736526
0.001034
0.00736205
0.000357916
0.00736037
0.000641463
0.00735489
-0.000183536
0.00735216
0.000352737
0.00734435
-0.000695739
0.00734086
0.00019432
0.00733042
-0.00115078
0.00732638
0.000188359
0.00731277
-0.00155565
0.00730758
0.000379377
0.00728888
-0.00180442
0.0072815
0.000999663
0.00726038
-0.00126937
0.00725904
0.00286376
0.0072498
0.000776171
0.00727081
0.00597273
0.00728863
0.00321569
0.00733983
0.00776538
0.00736884
0.00155993
0.00740744
0.00288789
0.00740554
-0.00561586
0.00744392
-0.00628533
0.0074848
-0.0146382
0.00755978
-0.0372317
0.00765146
-0.063697
0.00781023
0.015014
0.00785467
0.0487913
0.00781209
0.0265155
0.00768048
0.00190035
0.00756725
-0.000801364
0.00748041
-0.00619624
0.00745521
-0.000142627
0.00743927
-0.00258567
0.00744569
0.00193895
0.0074432
-0.000604275
0.00745667
0.00289084
0.00746398
0.000955865
0.00748256
0.00341381
0.00749371
0.00145529
0.00750903
0.00261225
0.00751417
0.00049197
0.00751872
0.000777528
0.00751352
-0.00120125
0.007506
-0.00138372
0.00749002
-0.00302074
0.00747118
-0.0033003
0.00744642
-0.00440636
0.00742099
-0.00441708
0.00739469
-0.00477332
0.0073722
-0.00432094
0.00735391
-0.00402677
0.00734185
-0.00331818
0.00733477
-0.00282872
0.00733205
-0.00229013
0.00733139
-0.00198127
0.00733103
-0.00183962
0.00732935
-0.00179586
0.00732502
-0.00199095
0.00731806
-0.00207119
0.00730742
-0.00241737
0.00729456
-0.00240154
0.00727732
-0.00278822
0.007259
-0.00253826
0.00723461
-0.00286397
0.00721066
-0.0022596
0.00717631
-0.00240881
0.00714479
-0.00133076
0.00709454
-0.000951022
0.00705209
0.00078923
0.006982
0.00264332
0.00676067
0.0074932
-0.0249989
0.00744134
-0.0213727
0.00740776
-0.0172275
0.00737537
-0.0117475
0.00733908
-0.00466589
0.00729824
0.00259775
0.00725921
0.00886938
0.00723224
0.0130312
0.0072256
0.0145491
0.0072375
0.0136085
0.00725532
0.011395
0.00727013
0.00938944
0.00728132
0.00802449
0.00729148
0.00713216
0.00730141
0.00636703
0.00731147
0.00573939
0.00732104
0.00509172
0.00733037
0.0046023
0.00733873
0.00404319
0.00734662
0.00366033
0.00735314
0.00314913
0.00735913
0.00285558
0.00736335
0.00233661
0.00736721
0.00215373
0.00736897
0.00161649
0.00737071
0.00154442
0.00736998
0.000965079
0.00736982
0.00103416
0.00736665
0.000361089
0.007365
0.000643111
0.00735956
-0.000178098
0.00735686
0.000355441
0.00734909
-0.000687967
0.00734562
0.000197784
0.00733523
-0.00114038
0.00733121
0.000192383
0.00731764
-0.00154208
0.00731247
0.000384552
0.00729384
-0.0017858
0.00728655
0.00100695
0.0072656
-0.00124842
0.00726444
0.00286491
0.00725543
0.000785179
0.00727662
0.00595154
0.00729453
0.00319779
0.00734556
0.00771435
0.00737414
0.00153135
0.00741231
0.00284972
0.00741029
-0.00561384
0.00744833
-0.00632337
0.00748849
-0.0146784
0.00756052
-0.0373038
0.0076472
-0.0637837
0.00780474
0.0148565
0.00785152
0.0487446
0.00781028
0.0265568
0.0076793
0.00203134
0.00756704
-0.000689105
0.00748137
-0.00611058
0.00745723
-0.000118486
0.0074416
-0.00257004
0.00744818
0.00193238
0.00744567
-0.000601765
0.00745916
0.00287735
0.0074664
0.000948624
0.00748498
0.00339523
0.00749605
0.00144422
0.0075113
0.002597
0.00751632
0.000486954
0.00752079
0.000773062
0.00751551
-0.00119597
0.00750796
-0.00137617
0.00749197
-0.00300475
0.00747317
-0.00328151
0.00744849
-0.00438168
0.00742319
-0.00439179
0.00739705
-0.00474719
0.00737474
-0.00429862
0.00735657
-0.0040086
0.0073446
-0.00330621
0.00733753
-0.00282165
0.00733478
-0.00228739
0.00733404
-0.00198053
0.0073336
-0.00183917
0.00733183
-0.00179409
0.00732744
-0.00198657
0.00732046
-0.00206421
0.00730981
-0.00240672
0.00729699
-0.00238872
0.00727981
-0.00277103
0.00726159
-0.00252003
0.00723732
-0.00283971
0.00721354
-0.00223582
0.00717943
-0.0023747
0.0071482
-0.00129953
0.00709848
-0.000901306
0.00705658
0.000831129
0.00698793
0.00271197
0.00680461
0.00749283
-0.024916
0.00744025
-0.0213201
0.00740581
-0.017193
0.00737286
-0.0117145
0.00733653
-0.00462957
0.00729624
0.00263805
0.00725826
0.00890735
0.00723267
0.0130568
0.00722737
0.0145544
0.00724017
0.0135957
0.0072584
0.0113768
0.00727339
0.00937445
0.00728474
0.00801313
0.00729508
0.00712182
0.00730516
0.00635694
0.00731535
0.00572921
0.00732502
0.00508205
0.00733443
0.00459289
0.00734287
0.00403475
0.00735081
0.00365238
0.00735739
0.00314254
0.00736343
0.00284955
0.0073677
0.00233234
0.0073716
0.00214983
0.00737341
0.00161468
0.00737519
0.00154264
0.0073745
0.000965763
0.00737438
0.00103428
0.00737125
0.000364216
0.00736964
0.000644723
0.00736424
-0.0001727
0.00736157
0.00035811
0.00735383
-0.000680234
0.0073504
0.000201222
0.00734005
-0.00113003
0.00733604
0.000196385
0.00732252
-0.00152856
0.00731737
0.000389705
0.00729882
-0.00176725
0.00729162
0.00101416
0.00727084
-0.00122765
0.00726987
0.00286589
0.00726108
0.000793961
0.00728244
0.00593018
0.00730042
0.0031798
0.00735128
0.00766348
0.00737943
0.00150321
0.00741719
0.00281196
0.00741507
-0.00561173
0.00745275
-0.00636104
0.00749217
-0.0147178
0.00756126
-0.0373728
0.00764292
-0.0638654
0.00779919
0.0147002
0.00784831
0.0486954
0.0078085
0.0265966
0.00767824
0.00216159
0.00756702
-0.000577876
0.0074825
-0.00602607
0.00745933
-9.53148e-05
0.00744398
-0.00255469
0.00745068
0.00192568
0.00744815
-0.000599232
0.00746166
0.00286384
0.00746884
0.000941442
0.00748741
0.00337666
0.00749841
0.00143322
0.00751359
0.00258181
0.00751849
0.000482049
0.00752289
0.00076867
0.00751754
-0.00119063
0.00750997
-0.0013686
0.00749398
-0.00298876
0.00747523
-0.00326276
0.00745063
-0.00435708
0.00742546
-0.00436662
0.00739948
-0.00472121
0.00737732
-0.00427646
0.00735928
-0.00399055
0.00734737
-0.0032943
0.00734032
-0.0028146
0.00733753
-0.00228459
0.00733671
-0.00197972
0.00733617
-0.00183863
0.00733432
-0.00179224
0.00732987
-0.00198212
0.00732287
-0.0020572
0.00731222
-0.00239608
0.00729944
-0.00237593
0.00728232
-0.00275391
0.0072642
-0.00250191
0.00724006
-0.00281557
0.00721645
-0.0022122
0.00718258
-0.00234084
0.00715164
-0.00126859
0.00710247
-0.000852133
0.00706112
0.000872471
0.0069939
0.0027792
0.00684727
0.00749248
-0.0248327
0.00743918
-0.0212668
0.00740389
-0.0171577
0.0073704
-0.011681
0.00733406
-0.00459323
0.00729429
0.00267781
0.00725736
0.00894429
0.00723311
0.013081
0.00722914
0.0145584
0.00724283
0.013582
0.00726146
0.0113581
0.00727664
0.00935927
0.00728817
0.00800161
0.00729867
0.00711132
0.00730891
0.0063467
0.00731921
0.00571891
0.00732899
0.00507228
0.00733848
0.00458339
0.00734699
0.00402624
0.00735499
0.00364438
0.00736164
0.0031359
0.00736772
0.00284346
0.00737204
0.00232802
0.00737599
0.00214588
0.00737784
0.00161283
0.00737966
0.00154082
0.00737902
0.000966404
0.00737893
0.00103437
0.00737585
0.000367302
0.00737427
0.000646301
0.00736891
-0.000167346
0.00736628
0.000360746
0.00735858
-0.00067254
0.00735517
0.000204632
0.00734487
-0.00111973
0.00734089
0.000200362
0.00732742
-0.00151509
0.00732229
0.000394834
0.00730382
-0.00174878
0.0072967
0.00102127
0.00727611
-0.00120706
0.00727531
0.00286669
0.00726675
0.000802524
0.00728826
0.00590867
0.00730631
0.00316176
0.00735699
0.0076128
0.00738473
0.00147547
0.00742209
0.0027746
0.00741987
-0.00560951
0.00745718
-0.00639835
0.00749585
-0.0147565
0.00756199
-0.037439
0.00763862
-0.063942
0.00779359
0.0145452
0.00784505
0.048644
0.00780673
0.0266349
0.00767731
0.00229101
0.00756716
-0.000467731
0.00748379
-0.00594269
0.00746151
-7.30323e-05
0.00744638
-0.00253957
0.0074532
0.00191886
0.00745064
-0.000596675
0.00746415
0.00285033
0.00747128
0.000934314
0.00748984
0.0033581
0.00750077
0.00142229
0.00751588
0.0025667
0.00752069
0.000477248
0.00752501
0.000764345
0.00751961
-0.00118523
0.00751203
-0.00136101
0.00749605
-0.00297278
0.00747735
-0.00324406
0.00745284
-0.00433257
0.0074278
-0.00434157
0.00740197
-0.00469538
0.00737996
-0.00425445
0.00736202
-0.00397262
0.00735017
-0.00328246
0.00734312
-0.00280754
0.00734028
-0.00228176
0.00733938
-0.00197882
0.00733875
-0.001838
0.00733683
-0.00179032
0.00733233
-0.00197762
0.0073253
-0.00205017
0.00731466
-0.00238544
0.00730192
-0.00236319
0.00728486
-0.00273686
0.00726683
-0.00248388
0.00724283
-0.00279157
0.00721939
-0.00218875
0.00718576
-0.00230722
0.00715512
-0.00123794
0.00710649
-0.000803507
0.00706571
0.000913252
0.00699989
0.00284502
0.00688866
0.00749213
-0.0247491
0.00743813
-0.0212128
0.00740201
-0.0171216
0.00736799
-0.011647
0.00733164
-0.00455687
0.00729241
0.00271703
0.0072565
0.0089802
0.00723359
0.013104
0.00723091
0.0145611
0.00724547
0.0135674
0.00726451
0.0113391
0.00727987
0.00934391
0.00729158
0.00798991
0.00730225
0.00710065
0.00731264
0.00633631
0.00732307
0.00570848
0.00733295
0.0050624
0.00734252
0.00457381
0.0073511
0.00401766
0.00735917
0.00363631
0.00736587
0.0031292
0.007372
0.00283733
0.00737637
0.00232365
0.00738036
0.00214189
0.00738226
0.00161093
0.00738412
0.00153896
0.00738352
0.000967002
0.00738348
0.00103441
0.00738044
0.000370342
0.0073789
0.000647838
0.00737359
-0.000162033
0.00737099
0.00036335
0.00736334
-0.000664889
0.00735996
0.000208012
0.0073497
-0.00110947
0.00734575
0.000204311
0.00733232
-0.00150166
0.00732722
0.000399936
0.00730883
-0.00173039
0.00730181
0.0010283
0.00728139
-0.00118664
0.00728077
0.00286731
0.00727242
0.000810873
0.00729409
0.005887
0.00731219
0.00314366
0.00736268
0.00756231
0.00739002
0.00144813
0.00742701
0.00273761
0.0074247
-0.0056072
0.00746162
-0.00643526
0.00749952
-0.0147944
0.00756272
-0.0375022
0.00763432
-0.0640136
0.00778794
0.0143916
0.00784174
0.0485902
0.00780497
0.0266717
0.00767648
0.0024195
0.00756747
-0.00035872
0.00748521
-0.00586043
0.00746374
-5.1566e-05
0.00744883
-0.00252465
0.00745572
0.00191197
0.00745314
-0.000594097
0.00746666
0.00283681
0.00747374
0.000927237
0.00749228
0.00333956
0.00750314
0.00141143
0.00751819
0.00255165
0.0075229
0.000472541
0.00752716
0.00076008
0.00752172
-0.00117979
0.00751413
-0.00135342
0.00749817
-0.00295683
0.00747953
-0.00322542
0.00745511
-0.00430815
0.0074302
-0.00431666
0.00740452
-0.0046697
0.00738264
-0.00423257
0.0073648
-0.00395478
0.007353
-0.00327066
0.00734594
-0.00280048
0.00734305
-0.00227886
0.00734207
-0.00197784
0.00734134
-0.00183728
0.00733934
-0.00178832
0.00733479
-0.00197306
0.00732774
-0.00204312
0.00731711
-0.00237481
0.00730441
-0.00235049
0.00728742
-0.00271987
0.0072695
-0.00246596
0.00724562
-0.0027677
0.00722235
-0.00216548
0.00718898
-0.00227385
0.00715863
-0.00120759
0.00711055
-0.000755432
0.00707034
0.000953468
0.00700591
0.00290944
0.00692881
0.00749179
-0.0246651
0.0074371
-0.0211581
0.00740017
-0.0170847
0.00736564
-0.0116125
0.00732928
-0.00452051
0.00729058
0.00275573
0.00725569
0.00901509
0.00723409
0.0131256
0.00723269
0.0145625
0.00724811
0.013552
0.00726754
0.0113197
0.0072831
0.00932835
0.00729497
0.00797803
0.00730582
0.0070898
0.00731636
0.00632577
0.00732692
0.00569792
0.0073369
0.00505242
0.00734656
0.00456415
0.00735521
0.00400901
0.00736334
0.00362818
0.0073701
0.00312245
0.00737628
0.00283114
0.0073807
0.00231923
0.00738474
0.00213786
0.00738668
0.00160899
0.00738858
0.00153706
0.00738803
0.000967555
0.00738803
0.00103442
0.00738503
0.000373341
0.00738353
0.000649334
0.00737826
-0.000156765
0.0073757
0.000365919
0.00736809
-0.000657281
0.00736474
0.000211361
0.00735453
-0.00109926
0.0073506
0.000208233
0.00733723
-0.00148829
0.00733216
0.000405008
0.00731386
-0.0017121
0.00730693
0.00103522
0.00728669
-0.0011664
0.00728625
0.00286775
0.00727811
0.000819012
0.00729991
0.0058652
0.00731806
0.00312551
0.00736835
0.00751202
0.00739531
0.00142117
0.00743194
0.00270098
0.00742954
-0.0056048
0.00746606
-0.00647178
0.00750318
-0.0148315
0.00756343
-0.0375624
0.00763001
-0.0640802
0.00778226
0.0142394
0.00783839
0.0485341
0.00780323
0.0267068
0.00767575
0.00254698
0.00756792
-0.000250888
0.00748676
-0.00577927
0.00746604
-3.08478e-05
0.0074513
-0.00250991
0.00745826
0.001905
0.00745566
-0.000591497
0.00746918
0.0028233
0.00747621
0.000920208
0.00749473
0.00332104
0.00750553
0.00140063
0.00752051
0.00253666
0.00752513
0.000467921
0.00752934
0.000755867
0.00752386
-0.00117431
0.00751627
-0.00134582
0.00750033
-0.00294089
0.00748176
-0.00320685
0.00745743
-0.00428383
0.00743264
-0.00429187
0.00740711
-0.00464416
0.00738536
-0.00421082
0.00736761
-0.00393703
0.00735585
-0.00325889
0.00734877
-0.0027934
0.00734582
-0.00227591
0.00734476
-0.00197678
0.00734394
-0.00183646
0.00734187
-0.00178624
0.00733726
-0.00196846
0.0073302
-0.00203606
0.00731958
-0.00236419
0.00730692
-0.00233783
0.00729
-0.00270294
0.00727218
-0.00244813
0.00724844
-0.00274396
0.00722534
-0.00214238
0.00719222
-0.00224073
0.00716217
-0.00117754
0.00711465
-0.000707911
0.007075
0.000993114
0.00701196
0.00297248
0.00696773
0.00749145
-0.0245808
0.00743609
-0.0211028
0.00739837
-0.017047
0.00736334
-0.0115774
0.00732698
-0.00448414
0.00728881
0.00279389
0.00725492
0.00904897
0.00723462
0.0131459
0.00723447
0.0145626
0.00725074
0.0135357
0.00727056
0.0112999
0.00728631
0.00931259
0.00729837
0.00796598
0.00730938
0.00707879
0.00732008
0.00631508
0.00733075
0.00568725
0.00734083
0.00504234
0.00735058
0.0045544
0.00735931
0.00400029
0.0073675
0.00361999
0.00737432
0.00311564
0.00738055
0.0028249
0.00738502
0.00231476
0.0073891
0.00213377
0.00739109
0.001607
0.00739304
0.00153511
0.00739253
0.000968062
0.00739257
0.00103438
0.00738962
0.000376291
0.00738816
0.000650791
0.00738294
-0.000151542
0.0073804
0.000368452
0.00737284
-0.000649717
0.00736952
0.000214679
0.00735936
-0.00108909
0.00735547
0.000212125
0.00734214
-0.00147496
0.0073371
0.000410047
0.00731889
-0.00169389
0.00731206
0.00104205
0.00729201
-0.00114634
0.00729174
0.00286802
0.0072838
0.000826945
0.00730574
0.00584327
0.00732392
0.00310733
0.00737402
0.00746192
0.00740061
0.00139457
0.00743689
0.0026647
0.0074344
-0.00560231
0.00747051
-0.00650789
0.00750683
-0.0148678
0.00756415
-0.0376198
0.0076257
-0.0641417
0.00777654
0.0140885
0.00783499
0.0484756
0.00780149
0.0267403
0.00767511
0.00267336
0.0075685
-0.00014428
0.00748841
-0.00569918
0.00746838
-1.08175e-05
0.00745379
-0.00249531
0.00746081
0.00189798
0.00745819
-0.000588877
0.0074717
0.00280979
0.00747869
0.000913222
0.00749719
0.00330254
0.00750792
0.0013899
0.00752284
0.00252174
0.00752738
0.000463381
0.00753154
0.000751702
0.00752604
-0.0011688
0.00751845
-0.00133823
0.00750254
-0.00292499
0.00748403
-0.00318834
0.0074598
-0.0042596
0.00743514
-0.00426721
0.00740974
-0.00461876
0.00738812
-0.0041892
0.00737045
-0.00391936
0.00735872
-0.00324716
0.00735162
-0.0027863
0.0073486
-0.00227289
0.00734745
-0.00197563
0.00734655
-0.00183556
0.0073444
-0.00178409
0.00733975
-0.00196381
0.00733267
-0.00202898
0.00732206
-0.00235358
0.00730945
-0.00232522
0.00729259
-0.00268609
0.00727488
-0.00243042
0.00725127
-0.00272036
0.00722835
-0.00211945
0.00719548
-0.00220786
0.00716573
-0.00114779
0.00711877
-0.000660947
0.00707969
0.00103219
0.00701802
0.00303415
0.00700544
0.00749113
-0.0244962
0.0074351
-0.0210467
0.00739661
-0.0170085
0.00736109
-0.0115419
0.00732473
-0.00444778
0.00728709
0.00283153
0.0072542
0.00908187
0.00723517
0.0131649
0.00723626
0.0145615
0.00725335
0.0135187
0.00727356
0.0112796
0.00728952
0.00929664
0.00730175
0.00795375
0.00731294
0.00706759
0.00732378
0.00630424
0.00733458
0.00567644