/*--------------------------------*- C++ -*----------------------------------*\
| =========                 |                                                 |
| \\      /  F ield         | OpenFOAM: The Open Source CFD Toolbox           |
|  \\    /   O peration     | Version:  2412                                  |
|   \\  /    A nd           | Website:  www.openfoam.com                      |
|    \\/     M anipulation  |                                                 |
\*---------------------------------------------------------------------------*/
FoamFile
{
    version     2.0;
    format      ascii;
    arch        "LSB;label=32;scalar=64";
    class       volVectorField;
    location    "0.4";
    object      U;
}
// * * * * * * * * * * * * * * * * * * * * * * * * * * * * * * * * * * * * * //

dimensions      [0 1 -1 0 0 0 0];

internalField   nonuniform List<vector> 
13079
(
(100.043 1.62987 0)
(100.684 4.41057 -8.36035e-17)
(101.739 7.53631 -9.65092e-21)
(102.966 11.4808 0)
(104.079 16.4296 0)
(105.136 21.4959 0)
(106.07 25.9177 0)
(107.116 29.0273 0)
(108.412 30.494 -1.1228e-16)
(110.16 30.4141 1.09196e-16)
(112.27 29.4972 0)
(114.489 28.6812 0)
(116.744 28.2949 0)
(119.022 28.2434 7.28626e-17)
(121.43 28.3083 0)
(123.896 28.4861 0)
(126.53 28.691 -6.61814e-17)
(129.202 29.0056 -6.45385e-17)
(132.076 29.3168 -2.95994e-21)
(134.961 29.752 -6.1345e-17)
(138.1 30.1486 0)
(141.209 30.701 -5.80685e-17)
(144.65 31.1718 5.64917e-17)
(148.002 31.8505 0)
(151.798 32.3895 0)
(155.418 33.2152 0)
(159.642 33.8183 4.96553e-17)
(163.559 34.8227 -4.76659e-17)
(168.315 35.4864 -3.22595e-21)
(172.561 36.7119 0)
(177.988 37.4312 0)
(182.597 38.9329 0)
(188.881 39.6986 0)
(193.881 41.5417 0)
(201.267 42.3484 3.52643e-17)
(206.668 44.6133 -3.24831e-17)
(215.488 45.4705 -3.15687e-17)
(221.288 48.2384 -2.83829e-17)
(231.944 49.2204 2.77595e-17)
(238.082 52.6815 -2.39472e-17)
(251.115 54.156 0)
(257.813 58.6982 -1.93508e-17)
(274.357 61.1325 -2.01431e-17)
(282.532 66.8241 -2.98452e-17)
(304.376 70.0474 3.45871e-17)
(315.402 75.9878 0)
(344.56 78.5223 -1.51243e-17)
(358.447 82.8711 0)
(394.618 85.4149 0)
(410.69 89.1519 0)
(459.836 95.0789 -6.04492e-18)
(487.318 86.7157 0)
(557.135 93.3279 0)
(617.792 1.46256 0)
(574.281 -46.5121 1.65033e-18)
(553.12 -62.1337 0)
(504.372 -71.3356 6.7057e-21)
(479.599 -69.4772 -1.32137e-17)
(440.919 -67.3604 1.30476e-20)
(423.945 -60.6931 -4.83632e-18)
(397.744 -58.4745 -8.25323e-18)
(385.576 -53.6914 0)
(365.51 -52.5259 0)
(354.896 -48.659 2.62764e-21)
(338.989 -47.6812 1.47239e-17)
(329.614 -44.6876 1.40435e-17)
(316.677 -44.1547 -1.81785e-17)
(308.091 -42.1558 -1.80167e-17)
(297.086 -42.0039 2.06059e-17)
(288.901 -40.6656 -2.05877e-17)
(279.136 -40.6084 2.21413e-17)
(271.25 -39.6169 -3.91273e-22)
(262.4 -39.4639 0)
(254.824 -38.5801 0)
(246.714 -38.1743 2.44068e-17)
(239.545 -37.1631 2.50581e-17)
(232.195 -36.3525 -2.61755e-17)
(100.042 1.61163 0)
(100.673 4.36749 8.35996e-17)
(101.714 7.47672 -1.59392e-16)
(102.927 11.418 0)
(104.034 16.37 0)
(105.093 21.4417 0)
(106.04 25.8664 0)
(107.106 28.9725 0)
(108.427 30.4291 -1.12069e-16)
(110.197 30.3373 0)
(112.319 29.414 0)
(114.542 28.5975 0)
(116.799 28.2121 0)
(119.081 28.1601 0)
(121.493 28.2237 0)
(123.962 28.3997 0)
(126.599 28.6031 2.8435e-21)
(129.274 28.916 6.45194e-17)
(132.152 29.2258 -6.29749e-17)
(135.039 29.6592 0)
(138.181 30.0545 -5.97598e-17)
(141.292 30.6049 5.80409e-17)
(144.736 31.0745 0)
(148.091 31.7509 -5.46649e-17)
(151.889 32.2886 0)
(155.512 33.1116 0)
(159.74 33.7134 -3.21891e-21)
(163.66 34.7144 4.76348e-17)
(168.42 35.3767 -4.61047e-17)
(172.669 36.598 0)
(178.1 37.316 4.25234e-17)
(182.713 38.8124 0)
(189.001 39.5768 0)
(194.005 41.4134 0)
(201.396 42.2191 -2.68544e-21)
(206.802 44.4759 3.2425e-17)
(215.626 45.3328 0)
(221.433 48.0911 0)
(232.093 49.0737 2.76825e-17)
(238.241 52.5239 -2.38622e-17)
(251.281 53.9979 2.37283e-17)
(257.998 58.5251 1.92601e-17)
(274.553 60.9529 6.76571e-22)
(282.758 66.623 5.48475e-21)
(304.615 69.832 -1.71642e-17)
(315.673 75.7456 1.07056e-17)
(344.822 78.2657 0)
(358.699 82.5933 5.48191e-18)
(394.845 85.1282 0)
(410.952 88.8305 -8.80578e-19)
(460.07 94.7043 6.00996e-18)
(487.552 86.2829 7.704e-18)
(557.021 92.7018 -1.70635e-18)
(617.291 1.39735 0)
(574.042 -46.2012 -1.98785e-20)
(552.982 -61.7814 -1.60693e-17)
(504.232 -70.9563 6.45468e-21)
(479.437 -69.1178 0)
(440.822 -67.0459 -1.12991e-17)
(423.96 -60.4429 0)
(397.837 -58.2595 0)
(385.693 -53.502 -2.74183e-18)
(365.634 -52.3437 0)
(355.02 -48.4927 -8.28631e-18)
(339.105 -47.5191 -1.39198e-17)
(329.724 -44.5368 0)
(316.78 -44.0054 -4.36207e-21)
(308.188 -42.0129 1.71172e-17)
(297.171 -41.8592 1.96579e-17)
(288.976 -40.5233 -1.97027e-17)
(279.2 -40.4637 -4.25673e-17)
(271.307 -39.4736 2.14129e-17)
(262.45 -39.3188 2.24691e-17)
(254.87 -38.4365 -2.27945e-17)
(246.758 -38.0306 1.22398e-21)
(239.591 -37.0229 -2.45096e-17)
(232.244 -36.216 2.56493e-17)
(100.041 1.59369 0)
(100.663 4.32505 -8.36174e-17)
(101.69 7.41792 7.96876e-17)
(102.888 11.3559 0)
(103.99 16.3106 0)
(105.051 21.3872 0)
(106.01 25.8144 0)
(107.096 28.9167 0)
(108.443 30.3633 1.11863e-16)
(110.234 30.2597 1.08735e-16)
(112.367 29.3304 0)
(114.593 28.5136 0)
(116.854 28.1291 -7.77861e-17)
(119.14 28.0765 0)
(121.555 28.1388 -6.98806e-17)
(124.028 28.3131 6.78144e-17)
(126.668 28.515 6.61425e-17)
(129.346 28.8261 0)
(132.227 29.1347 -6.29523e-17)
(135.117 29.5662 0)
(138.261 29.9602 5.97422e-17)
(141.375 30.5087 -1.16042e-16)
(144.822 30.9769 0)
(148.179 31.6512 5.46443e-17)
(151.981 32.1876 -5.30562e-17)
(155.607 33.0078 5.11658e-17)
(159.838 33.6083 -4.95976e-17)
(163.761 34.6059 0)
(168.525 35.2669 0)
(172.777 36.484 0)
(178.212 37.2006 -4.24869e-17)
(182.829 38.6917 0)
(189.122 39.4549 -3.88477e-17)
(194.13 41.2849 0)
(201.525 42.0898 -3.51565e-17)
(206.937 44.3385 -3.23616e-17)
(215.766 45.195 3.14403e-17)
(221.579 47.9438 2.82389e-17)
(232.243 48.927 -2.76157e-17)
(238.402 52.3664 2.37951e-17)
(251.448 53.8398 -2.36534e-17)
(258.185 58.3519 -1.91871e-17)
(274.751 60.773 6.55004e-22)
(282.985 66.4215 2.94763e-17)
(304.855 69.6161 1.70431e-17)
(315.943 75.5028 -1.06082e-17)
(345.082 78.0086 0)
(358.953 82.3155 -1.08316e-17)
(395.075 84.8419 1.04928e-17)
(411.218 88.5096 1.75736e-18)
(460.305 94.33 0)
(487.785 85.8517 -7.68192e-18)
(556.905 92.0788 1.70891e-18)
(616.781 1.33278 1.081e-18)
(573.793 -45.8905 -7.92187e-19)
(552.841 -61.4294 3.19388e-17)
(504.101 -70.5782 6.26714e-21)
(479.294 -68.7617 -1.25519e-17)
(440.749 -66.7357 5.41704e-18)
(423.993 -60.1963 -4.26593e-18)
(397.938 -58.046 7.30571e-18)
(385.813 -53.3131 2.58571e-18)
(365.756 -52.1614 -9.88385e-18)
(355.141 -48.3262 0)
(339.219 -47.3566 0)
(329.833 -44.3857 1.2638e-17)
(316.882 -43.8559 1.64391e-17)
(308.284 -41.8698 0)
(297.256 -41.7143 -1.88386e-17)
(289.052 -40.381 1.19669e-22)
(279.266 -40.3189 4.10893e-17)
(271.366 -39.3304 0)
(262.504 -39.174 -2.18495e-17)
(254.921 -38.2933 2.22381e-17)
(246.807 -37.8876 -2.33029e-17)
(239.641 -36.8832 0)
(232.298 -36.0801 0)
(100.04 1.57603 0)
(100.653 4.28321 0)
(101.666 7.35993 0)
(102.851 11.2944 0)
(103.946 16.2517 0)
(105.011 21.3328 0)
(105.982 25.7621 0)
(107.088 28.8602 0)
(108.459 30.2965 0)
(110.271 30.1813 -1.0851e-16)
(112.415 29.2463 -9.80783e-17)
(114.645 28.4294 0)
(116.909 28.0459 7.77374e-17)
(119.198 27.9927 7.2763e-17)
(121.618 28.0537 2.73632e-21)
(124.094 28.2263 -2.86764e-21)
(126.738 28.4267 0)
(129.418 28.7361 6.44794e-17)
(132.302 29.0433 1.25873e-16)
(135.194 29.4731 6.12806e-17)
(138.342 29.8657 0)
(141.458 30.4123 1.16002e-16)
(144.908 30.8792 5.64211e-17)
(148.268 31.5512 0)
(152.073 32.0863 5.30364e-17)
(155.701 32.9039 -5.11445e-17)
(159.936 33.503 4.9568e-17)
(163.862 34.4973 0)
(168.63 35.1569 0)
(172.885 36.3699 -4.39078e-17)
(178.324 37.085 0)
(182.945 38.5709 0)
(189.242 39.3328 3.88086e-17)
(194.255 41.1563 0)
(201.655 41.9604 -3.51058e-17)
(207.072 44.2009 3.23136e-17)
(215.905 45.0571 -3.13877e-17)
(221.726 47.7964 -5.63619e-17)
(232.394 48.7803 -2.75512e-17)
(238.564 52.2088 0)
(251.616 53.6817 2.35829e-17)
(258.373 58.1786 1.91101e-17)
(274.95 60.593 1.98776e-17)
(283.213 66.2197 -2.93146e-17)
(305.095 69.3997 -1.8806e-21)
(316.211 75.2593 0)
(345.34 77.7512 0)
(359.206 82.0376 5.35571e-18)
(395.307 84.5557 -2.08036e-17)
(411.487 88.189 -8.77365e-19)
(460.542 93.9559 0)
(488.018 85.4219 0)
(556.788 91.459 -1.72081e-18)
(616.266 1.26886 -1.08378e-18)
(573.534 -45.5804 0)
(552.699 -61.0778 -1.58819e-17)
(503.978 -70.2015 -2.64929e-18)
(479.168 -68.4085 1.45411e-21)
(440.696 -66.4292 0)
(424.039 -59.9527 4.03784e-18)
(398.044 -57.8335 -6.91296e-18)
(385.933 -53.1245 -2.45958e-18)
(365.879 -51.979 -7.60511e-21)
(355.261 -48.1594 7.50218e-18)
(339.332 -47.1938 0)
(329.941 -44.2344 -1.20841e-17)
(316.983 -43.7061 0)
(308.379 -41.7265 0)
(297.342 -41.5693 0)
(289.128 -40.2386 3.6564e-17)
(279.334 -40.1743 -1.9903e-17)
(271.427 -39.1875 0)
(262.56 -39.0295 -2.13117e-17)
(254.974 -38.1506 2.17512e-17)
(246.859 -37.7451 2.28539e-17)
(239.695 -36.7442 2.36106e-17)
(232.355 -35.9448 -2.4789e-17)
(100.039 1.55866 0)
(100.643 4.24196 0)
(101.643 7.30269 0)
(102.814 11.2336 0)
(103.904 16.1931 0)
(104.971 21.2783 8.92311e-17)
(105.955 25.7092 0)
(107.08 28.8028 0)
(108.475 30.2288 0)
(110.308 30.1022 -1.08278e-16)
(112.462 29.1618 1.95808e-16)
(114.697 28.345 8.60998e-17)
(116.963 27.9625 -7.76855e-17)
(119.257 27.9087 -7.27398e-17)
(121.68 27.9683 6.98453e-17)
(124.16 28.1393 -6.77839e-17)
(126.807 28.3382 0)
(129.49 28.6459 -2.97193e-21)
(132.377 28.9517 -6.29223e-17)
(135.272 29.3797 -3.1441e-21)
(138.422 29.7711 0)
(141.541 30.3158 -5.79852e-17)
(144.994 30.7814 -3.03407e-21)
(148.357 31.4512 0)
(152.165 31.9849 0)
(155.796 32.7998 5.11178e-17)
(160.035 33.3975 -4.95472e-17)
(163.963 34.3886 0)
(168.735 35.0467 0)
(172.994 36.2556 4.38806e-17)
(178.437 36.9693 -4.24151e-17)
(183.062 38.4499 -4.01226e-17)
(189.363 39.2106 -3.87675e-17)
(194.381 41.0276 -3.62558e-17)
(201.785 41.8308 2.59298e-21)
(207.208 44.0633 3.22597e-17)
(216.046 44.919 0)
(221.874 47.6489 2.81279e-17)
(232.546 48.6334 2.74958e-17)
(238.727 52.0512 0)
(251.786 53.5234 -1.06029e-21)
(258.563 58.0052 -1.90495e-17)
(275.151 60.4128 1.98035e-17)
(283.442 66.0175 1.45859e-17)
(305.336 69.1829 -1.77183e-21)
(316.479 75.0152 -1.04161e-17)
(345.597 77.4933 0)
(359.459 81.7598 5.28574e-18)
(395.541 84.2697 1.03198e-17)
(411.757 87.8686 0)
(460.779 93.582 0)
(488.25 84.9936 0)
(556.67 90.8424 1.7238e-18)
(615.745 1.20563 -1.07959e-18)
(573.267 -45.2708 0)
(552.554 -60.7267 0)
(503.863 -69.8259 0)
(479.058 -68.058 2.39482e-17)
(440.661 -66.1262 5.03254e-18)
(424.097 -59.7118 0)
(398.155 -57.622 0)
(386.055 -52.9362 4.69312e-18)
(366.002 -51.7964 9.02347e-18)
(355.381 -47.9925 -7.19067e-18)
(339.445 -47.0308 0)
(330.049 -44.0829 0)
(317.084 -43.5561 0)
(308.474 -41.5831 0)
(297.427 -41.424 0)
(289.206 -40.0962 -7.70199e-22)
(279.403 -40.0296 1.93474e-17)
(271.491 -39.0448 0)
(262.619 -38.8853 -6.50883e-22)
(255.031 -38.0083 -7.27331e-22)
(246.914 -37.603 5.14708e-22)
(239.752 -36.6057 -2.32421e-17)
(232.415 -35.81 2.44345e-17)
(225.918 -34.5842 0)
(219.523 -33.4922 2.65076e-17)
(213.894 -32.2278 1.11967e-21)
(208.451 -31.1332 1.16425e-21)
(203.623 -30.094 5.86028e-17)
(198.904 -29.2252 6.03486e-17)
(194.618 -28.5302 3.10167e-17)
(190.309 -27.8998 3.1853e-17)
(186.327 -27.4738 6.54926e-17)
(182.22 -26.9459 3.35745e-17)
(178.451 -26.6598 -3.45196e-17)
(174.457 -26.0941 -1.57832e-21)
(170.907 -25.8574 3.62909e-17)
(166.965 -25.1437 -7.39663e-17)
(163.687 -24.9092 -3.79581e-17)
(159.682 -23.9524 1.46476e-21)
(156.756 -23.6623 -3.93871e-17)
(152.446 -22.3407 -7.90312e-17)
(150.016 -21.8027 4.0467e-17)
(144.959 -19.9417 3.99662e-17)
(143.325 -18.5682 -4.1299e-17)
(136.973 -14.9377 -4.12372e-17)
(100.038 1.54156 8.93024e-17)
(100.633 4.2013 0)
(101.621 7.24621 7.96386e-17)
(102.778 11.1734 0)
(103.863 16.1347 -8.22423e-17)
(104.932 21.2235 -8.91565e-17)
(105.929 25.6557 0)
(107.073 28.7446 0)
(108.491 30.1602 0)
(110.344 30.0223 1.08051e-16)
(112.509 29.077 -1.95456e-16)
(114.748 28.2604 -8.60048e-17)
(117.018 27.8788 2.88062e-21)
(119.315 27.8244 -7.27131e-17)
(121.742 27.8828 0)
(124.225 28.052 0)
(126.875 28.2495 0)
(129.562 28.5555 -2.96003e-21)
(132.451 28.8599 0)
(135.349 29.2862 -6.12532e-17)
(138.502 29.6763 5.96894e-17)
(141.624 30.219 5.7966e-17)
(145.08 30.6833 -3.02131e-21)
(148.445 31.3509 5.45809e-17)
(152.257 31.8833 0)
(155.89 32.6955 -1.02198e-16)
(160.133 33.2919 -4.95223e-17)
(164.064 34.2796 0)
(168.84 34.9363 0)
(173.102 36.1411 -4.38475e-17)
(178.55 36.8534 2.99828e-21)
(183.178 38.3288 4.00934e-17)
(189.485 39.0883 3.87355e-17)
(194.507 40.8987 7.2438e-17)
(201.915 41.701 3.50248e-17)
(207.344 43.9255 -3.22203e-17)
(216.187 44.7809 0)
(222.022 47.5013 -2.80714e-17)
(232.699 48.4865 -2.74418e-17)
(238.892 51.8934 0)
(251.957 53.3649 -2.34631e-17)
(258.754 57.8315 0)
(275.352 60.2322 -1.97371e-17)
(283.671 65.8149 0)
(305.576 68.9655 -3.34911e-17)
(316.746 74.7706 2.06775e-17)
(345.854 77.2352 0)
(359.713 81.4819 -5.24141e-18)
(395.777 83.9838 1.02349e-17)
(412.03 87.5484 0)
(461.017 93.2084 0)
(488.482 84.5667 0)
(556.55 90.2292 1.73624e-18)
(615.219 1.14311 1.08295e-18)
(572.991 -44.9619 0)
(552.406 -60.3761 0)
(503.754 -69.4515 0)
(478.963 -67.7103 -1.17135e-17)
(440.643 -65.8265 -4.84912e-18)
(424.165 -59.4733 3.64445e-18)
(398.269 -57.4114 0)
(386.178 -52.7482 -4.50188e-18)
(366.124 -51.6138 0)
(355.499 -47.8254 0)
(339.557 -46.8675 -1.17409e-17)
(330.156 -43.9313 0)
(317.185 -43.4059 -1.46569e-17)
(308.569 -41.4395 0)
(297.513 -41.2787 1.70011e-17)
(289.284 -39.9537 -1.06262e-21)
(279.474 -39.8851 -1.88611e-17)
(271.557 -38.9022 0)
(262.68 -38.7414 2.04289e-17)
(255.091 -37.8663 -2.09533e-17)
(246.973 -37.4613 3.13562e-22)
(239.813 -36.4676 0)
(232.479 -35.6757 -2.41249e-17)
(225.986 -34.4565 0)
(219.595 -33.3714 2.62142e-17)
(213.969 -32.1146 -2.71521e-17)
(208.527 -31.0263 -2.81596e-17)
(203.698 -29.9926 -5.8067e-17)
(198.976 -29.1274 -2.99185e-17)
(194.687 -28.4345 -3.07743e-17)
(190.374 -27.8048 0)
(186.388 -27.3788 -3.25313e-17)
(182.278 -26.851 0)
(178.508 -26.5642 3.4329e-17)
(174.512 -25.9989 -3.51305e-17)
(170.963 -25.7614 3.61196e-17)
(167.02 -25.0489 3.68212e-17)
(163.745 -24.8126 3.78056e-17)
(159.74 -23.8582 3.83e-17)
(156.819 -23.5635 3.92522e-17)
(152.511 -22.2464 3.93884e-17)
(150.089 -21.6981 -4.035e-17)
(145.044 -19.8466 -3.98533e-17)
(143.417 -18.4555 4.11881e-17)
(137.114 -14.8517 4.11108e-17)
(100.037 1.52472 -8.93332e-17)
(100.623 4.16121 -8.36322e-17)
(101.598 7.19045 -7.96344e-17)
(102.743 11.1138 0)
(103.823 16.0765 8.2197e-17)
(104.895 21.1687 0)
(105.903 25.6018 -9.78965e-17)
(107.066 28.6856 0)
(108.508 30.0906 0)
(110.381 29.9418 0)
(112.556 28.9917 9.75542e-17)
(114.799 28.1755 -8.59049e-17)
(117.072 27.7949 2.86529e-21)
(119.373 27.7399 7.26941e-17)
(121.804 27.797 0)
(124.291 27.9646 0)
(126.944 28.1606 0)
(129.634 28.465 -1.28881e-16)
(132.526 28.768 6.28939e-17)
(135.426 29.1925 0)
(138.582 29.5813 -1.19355e-16)
(141.707 30.1221 -5.7955e-17)
(145.166 30.5851 -5.63746e-17)
(148.533 31.2504 -5.45682e-17)
(152.348 31.7815 0)
(155.985 32.5911 5.10818e-17)
(160.231 33.186 3.10268e-21)
(164.165 34.1705 0)
(168.945 34.8258 4.59601e-17)
(173.211 36.0264 8.76469e-17)
(178.663 36.7373 4.23612e-17)
(183.295 38.2075 0)
(189.606 38.9657 -3.8701e-17)
(194.633 40.7696 -7.23661e-17)
(202.046 41.5711 0)
(207.481 43.7875 0)
(216.328 44.6426 3.1248e-17)
(222.171 47.3536 5.60542e-17)
(232.852 48.3394 2.73958e-17)
(239.057 51.7355 2.35538e-17)
(252.129 53.2063 2.34096e-17)
(258.946 57.6576 -1.8929e-17)
(275.555 60.0514 0)
(283.901 65.6118 0)
(305.817 68.7478 1.66639e-17)
(317.012 74.5254 -1.0268e-17)
(346.109 76.9768 0)
(359.968 81.204 5.18188e-18)
(396.015 83.698 -1.01722e-17)
(412.305 87.2284 0)
(461.256 92.8348 0)
(488.714 84.1412 7.60838e-18)
(556.431 89.6193 -1.73954e-18)
(614.688 1.0813 -1.07936e-18)
(572.708 -44.6538 0)
(552.257 -60.0261 1.5684e-17)
(503.652 -69.0783 2.59007e-18)
(478.882 -67.365 0)
(440.641 -65.5297 0)
(424.243 -59.2369 -6.97333e-18)
(398.388 -57.2015 -6.06433e-18)
(386.302 -52.5604 -2.15523e-21)
(366.247 -51.431 0)
(355.618 -47.6582 6.69448e-18)
(339.668 -46.704 -3.40036e-21)
(330.262 -43.7796 0)
(317.286 -43.2556 1.42135e-17)
(308.664 -41.2958 0)
(297.6 -41.1332 1.2418e-21)
(289.363 -39.8113 -1.67821e-17)
(279.546 -39.7406 -1.84384e-17)
(271.624 -38.7598 1.88186e-17)
(262.744 -38.5977 -2.00689e-17)
(255.153 -37.7246 2.06254e-17)
(247.035 -37.3201 -2.18102e-17)
(239.876 -36.33 -2.26339e-17)
(232.545 -35.5418 2.38515e-17)
(226.057 -34.3294 0)
(219.67 -33.2508 -5.19106e-17)
(214.046 -32.0016 -2.69015e-17)
(208.604 -30.9196 0)
(203.774 -29.8912 -4.64475e-22)
(199.048 -29.0294 2.96942e-17)
(194.756 -28.3386 3.05618e-17)
(190.438 -27.7098 3.14224e-17)
(186.45 -27.2838 -3.2341e-17)
(182.337 -26.756 3.31906e-17)
(178.565 -26.4687 0)
(174.568 -25.9038 0)
(171.02 -25.6655 -3.59695e-17)
(167.076 -24.9543 3.66762e-17)
(163.804 -24.7162 -3.7672e-17)
(159.799 -23.7643 0)
(156.883 -23.4649 -3.91367e-17)
(152.578 -22.1524 -3.92751e-17)
(150.163 -21.5939 0)
(145.13 -19.7519 0)
(143.51 -18.3438 0)
(137.256 -14.7665 0)
(100.037 1.50815 0)
(100.614 4.12168 1.67287e-16)
(101.577 7.13542 0)
(102.708 11.0548 -7.88072e-17)
(103.784 16.0187 0)
(104.858 21.1137 -8.89943e-17)
(105.878 25.5473 9.77882e-17)
(107.06 28.6257 1.06287e-16)
(108.525 30.0201 1.10785e-16)
(110.417 29.8605 0)
(112.603 28.906 0)
(114.85 28.0904 8.58124e-17)
(117.126 27.7108 7.75539e-17)
(119.431 27.6552 0)
(121.866 27.711 0)
(124.356 27.8769 0)
(127.013 28.0715 0)
(129.705 28.3742 1.2886e-16)
(132.6 28.6759 -6.28861e-17)
(135.503 29.0987 0)
(138.662 29.4861 1.19332e-16)
(141.789 30.025 0)
(145.251 30.4867 5.63583e-17)
(148.622 31.1498 -5.45499e-17)
(152.44 31.6795 0)
(156.079 32.4865 -5.10608e-17)
(160.329 33.08 4.94877e-17)
(164.266 34.0612 0)
(169.05 34.7151 -4.59421e-17)
(173.319 35.9115 -4.38016e-17)
(178.776 36.6211 0)
(183.412 38.086 0)
(189.728 38.843 3.8675e-17)
(194.759 40.6404 3.61526e-17)
(202.177 41.441 0)
(207.618 43.6494 0)
(216.47 44.5041 -3.12122e-17)
(222.321 47.2057 -5.59679e-17)
(233.006 48.1922 0)
(239.223 51.5775 -4.70183e-17)
(252.302 53.0475 -2.33628e-17)
(259.139 57.4834 1.88834e-17)
(275.758 59.8703 0)
(284.131 65.4084 0)
(306.058 68.5295 -1.65873e-17)
(317.277 74.2797 -1.01934e-17)
(346.364 76.718 1.41384e-17)
(360.222 80.9261 -5.14602e-18)
(396.255 83.4123 -1.0102e-17)
(412.582 86.9086 -8.979e-19)
(461.495 92.4615 -5.82701e-18)
(488.944 83.7172 -7.59752e-18)
(556.31 89.0129 1.75237e-18)
(614.154 1.02025 3.59158e-21)
(572.418 -44.3466 -6.77795e-19)
(552.106 -59.6768 -1.56376e-17)
(503.556 -68.7063 -2.56677e-18)
(478.814 -67.0223 -1.12417e-17)
(440.653 -65.2357 0)
(424.33 -59.0024 6.69078e-18)
(398.509 -56.9922 5.84382e-18)
(386.426 -52.3727 2.09654e-18)
(366.37 -51.2482 -8.15212e-18)
(355.736 -47.4909 -6.49562e-18)
(339.78 -46.5405 1.10487e-17)
(330.369 -43.6277 0)
(317.387 -43.1052 0)
(308.759 -41.1519 1.38203e-17)
(297.687 -40.9876 -1.61419e-17)
(289.444 -39.6688 0)
(279.62 -39.5962 -3.40096e-22)
(271.694 -38.6176 -3.69594e-17)
(262.81 -38.4543 1.97534e-17)
(255.218 -37.5832 -2.03399e-17)
(247.099 -37.1791 0)
(239.943 -36.1928 2.23848e-17)
(232.614 -35.4084 0)
(226.13 -34.2025 0)
(219.746 -33.1305 2.5728e-17)
(214.124 -31.8887 2.66797e-17)
(208.682 -30.8128 0)
(203.851 -29.7898 2.85919e-17)
(199.121 -28.9314 4.43748e-24)
(194.825 -28.2426 0)
(190.503 -27.6147 -3.1246e-17)
(186.512 -27.1887 3.21746e-17)
(182.396 -26.661 -3.30338e-17)
(178.623 -26.3732 0)
(174.624 -25.8088 0)
(171.077 -25.5697 0)
(167.133 -24.8598 -3.65511e-17)
(163.863 -24.62 -2.08682e-22)
(159.859 -23.6704 3.80582e-17)
(156.948 -23.3666 3.90334e-17)
(152.646 -22.0586 3.91787e-17)
(150.238 -21.4901 0)
(145.217 -19.6577 3.96684e-17)
(143.605 -18.2331 -4.10204e-17)
(137.398 -14.6821 0)
(100.036 1.49183 0)
(100.605 4.0827 -1.02612e-20)
(101.555 7.08108 -7.95985e-17)
(102.675 10.9963 7.87834e-17)
(103.746 15.961 -8.20897e-17)
(104.822 21.0587 4.60604e-21)
(105.855 25.4923 -9.76716e-17)
(107.054 28.565 -1.06127e-16)
(108.542 29.9487 -1.10568e-16)
(110.453 29.7786 0)
(112.65 28.8199 0)
(114.9 28.005 -8.57144e-17)
(117.18 27.6265 0)
(119.489 27.5702 7.26527e-17)
(121.928 27.6248 0)
(124.421 27.7891 0)
(127.081 27.9822 0)
(129.776 28.2832 -1.28842e-16)
(132.675 28.5836 0)
(135.58 29.0046 0)
(138.742 29.3907 -5.96568e-17)
(141.872 29.9277 5.79272e-17)
(145.337 30.3881 -2.98286e-21)
(148.71 31.049 3.50433e-21)
(152.531 31.5774 -5.29477e-17)
(156.174 32.3816 5.10488e-17)
(160.427 32.9738 0)
(164.367 33.9517 0)
(169.155 34.6042 0)
(173.428 35.7965 4.37755e-17)
(178.889 36.5046 0)
(183.529 37.9643 -4.00038e-17)
(189.849 38.7201 0)
(194.885 40.511 0)
(202.309 41.3108 -3.49229e-17)
(207.755 43.5111 3.21026e-17)
(216.612 44.3654 -3.11754e-17)
(222.471 47.0577 5.58886e-17)
(233.161 48.0447 2.73109e-17)
(239.389 51.4192 2.34683e-17)
(252.476 52.8885 2.33184e-17)
(259.332 57.3091 0)
(275.963 59.6889 1.95706e-17)
(284.362 65.2046 0)
(306.298 68.3108 1.40946e-21)
(317.541 74.0334 6.52443e-21)
(346.618 76.459 -1.40489e-17)
(360.478 80.6482 0)
(396.496 83.1266 1.00518e-17)
(412.86 86.5888 1.79635e-18)
(461.734 92.0883 5.81171e-18)
(489.174 83.2945 -7.58348e-18)
(556.189 88.4099 -1.75586e-18)
(613.617 0.959954 1.08372e-18)
(572.121 -44.0403 6.78654e-19)
(551.952 -59.3282 0)
(503.464 -68.3356 -2.5552e-18)
(478.758 -66.682 2.20609e-17)
(440.678 -64.9443 0)
(424.424 -58.7696 -3.22284e-18)
(398.634 -56.7833 0)
(386.552 -52.1852 0)
(366.493 -51.0653 7.93127e-18)
(355.854 -47.3235 0)
(339.892 -46.3767 0)
(330.476 -43.4758 0)
(317.488 -42.9546 0)
(308.855 -41.008 -2.69927e-17)
(297.774 -40.8419 1.57944e-17)
(289.525 -39.5263 0)
(279.695 -39.4518 1.77446e-17)
(271.765 -38.4755 1.8183e-17)
(262.878 -38.311 0)
(255.285 -37.4421 0)
(247.166 -37.0385 0)
(240.012 -36.056 -2.21648e-17)
(232.686 -35.2753 -2.34021e-17)
(226.206 -34.076 0)
(219.824 -33.0105 2.55298e-17)
(214.204 -31.776 0)
(208.761 -30.7062 -2.75136e-17)
(203.928 -29.6883 0)
(199.194 -28.8333 -2.93232e-17)
(194.895 -28.1465 -3.02094e-17)
(190.568 -27.5194 0)
(186.575 -27.0936 -3.20264e-17)
(182.455 -26.566 0)
(178.682 -26.2777 -3.38787e-17)
(174.681 -25.7138 -3.47022e-17)
(171.135 -25.4739 0)
(167.19 -24.7654 -3.64378e-17)
(163.924 -24.5238 3.74504e-17)
(159.92 -23.5768 -3.79608e-17)
(157.014 -23.2685 -3.89457e-17)
(152.714 -21.9651 0)
(150.314 -21.3867 0)
(145.305 -19.5638 -3.95961e-17)
(143.7 -18.1234 4.09515e-17)
(137.541 -14.5984 4.08258e-17)
(100.035 1.47576 0)
(100.596 4.04425 -1.0169e-20)
(101.535 7.02743 7.9594e-17)
(102.642 10.9384 0)
(103.708 15.9036 8.20455e-17)
(104.787 21.0034 8.88427e-17)
(105.832 25.4367 9.75628e-17)
(107.05 28.5036 0)
(108.559 29.8765 0)
(110.489 29.6959 -1.07115e-16)
(112.696 28.7335 -9.70233e-17)
(114.95 27.9195 8.56233e-17)
(117.234 27.542 0)
(119.547 27.485 -2.79952e-21)
(121.989 27.5384 0)
(124.486 27.701 6.77298e-17)
(127.149 27.8928 0)
(129.848 28.1921 1.28827e-16)
(132.749 28.491 0)
(135.657 28.9104 -6.12066e-17)
(138.822 29.2952 5.96445e-17)
(141.954 29.8302 -5.792e-17)
(145.422 30.2893 -5.63384e-17)
(148.798 30.948 5.45278e-17)
(152.623 31.475 5.29381e-17)
(156.268 32.2766 5.10308e-17)
(160.525 32.8674 0)
(164.469 33.842 4.744e-17)
(169.26 34.493 0)
(173.537 35.6812 -4.37597e-17)
(179.002 36.3879 -4.2291e-17)
(183.646 37.8424 3.99846e-17)
(189.971 38.597 0)
(195.012 40.3814 -3.60901e-17)
(202.44 41.1803 3.4898e-17)
(207.893 43.3726 -3.20761e-17)
(216.755 44.2266 3.11459e-17)
(222.621 46.9095 -2.79105e-17)
(233.316 47.8971 -2.72764e-17)
(239.557 51.2608 2.34232e-17)
(252.651 52.7293 -8.87147e-22)
(259.527 57.1344 0)
(276.168 59.5071 -3.2262e-22)
(284.593 65.0004 0)
(306.539 68.0917 1.33642e-21)
(317.805 73.7867 6.38522e-21)
(346.871 76.1996 0)
(360.733 80.3702 0)
(396.739 82.8409 0)
(413.139 86.2691 -8.98787e-19)
(461.974 91.7151 0)
(489.403 82.8732 7.57585e-18)
(556.068 87.8106 -1.76894e-18)
(613.077 0.900443 0)
(571.819 -43.7351 0)
(551.797 -58.9804 0)
(503.378 -67.966 2.53529e-18)
(478.714 -66.3439 -5.44481e-22)
(440.715 -64.6552 0)
(424.525 -58.5383 3.10916e-18)
(398.761 -56.575 0)
(386.679 -51.9977 1.9829e-18)
(366.617 -50.8823 0)
(355.973 -47.156 6.17371e-18)
(340.005 -46.2129 0)
(330.584 -43.3239 -1.00326e-17)
(317.59 -42.804 0)
(308.95 -40.8639 1.32139e-17)
(297.863 -40.6962 3.5686e-22)
(289.607 -39.3838 0)
(279.772 -39.3075 1.74613e-17)
(271.838 -38.3335 -1.79204e-17)
(262.948 -38.168 0)
(255.354 -37.3013 0)
(247.235 -36.8983 0)
(240.083 -35.9194 4.39449e-17)
(232.759 -35.1425 2.32169e-17)
(226.283 -33.9498 2.41923e-17)
(219.903 -32.8907 -2.5354e-17)
(214.284 -31.6634 0)
(208.84 -30.5995 2.73472e-17)
(204.005 -29.5868 0)
(199.268 -28.7351 0)
(194.964 -28.0503 3.00646e-17)
(190.634 -27.4241 0)
(186.638 -26.9984 6.37937e-17)
(182.515 -26.471 0)
(178.741 -26.1823 9.30667e-22)
(174.739 -25.6188 1.68424e-21)
(171.194 -25.3782 0)
(167.248 -24.671 3.6341e-17)
(163.985 -24.4277 0)
(159.981 -23.4832 0)
(157.08 -23.1705 3.88672e-17)
(152.784 -21.8718 0)
(150.39 -21.2837 0)
(145.395 -19.4703 0)
(143.797 -18.0147 0)
(137.685 -14.5155 -4.07573e-17)
(100.034 1.45993 -8.93898e-17)
(100.587 4.00633 -8.36654e-17)
(101.514 6.97445 0)
(102.609 10.8811 0)
(103.672 15.8465 0)
(104.754 20.948 0)
(105.809 25.3807 0)
(107.045 28.4413 0)
(108.577 29.8034 1.1012e-16)
(110.525 29.6126 2.13761e-16)
(112.742 28.6467 1.93696e-16)
(115.001 27.8336 0)
(117.288 27.4572 0)
(119.604 27.3996 -2.78725e-21)
(122.051 27.4517 0)
(124.551 27.6127 -6.77262e-17)
(127.218 27.8031 0)
(129.919 28.1007 -6.44082e-17)
(132.823 28.3984 0)
(135.734 28.8159 6.12017e-17)
(138.902 29.1994 -2.86759e-21)
(142.036 29.7326 0)
(145.507 30.1903 -5.63257e-17)
(148.886 30.8468 5.45133e-17)
(152.714 31.3725 0)
(156.362 32.1714 -5.10215e-17)
(160.623 32.7608 -4.94401e-17)
(164.57 33.7321 -4.74285e-17)
(169.365 34.3817 0)
(173.645 35.5657 4.37372e-17)
(179.115 36.2711 2.91687e-21)
(183.764 37.7203 -3.99585e-17)
(190.093 38.4736 3.86004e-17)
(195.139 40.2516 7.21343e-17)
(202.572 41.0496 3.48706e-17)
(208.031 43.2339 0)
(216.898 44.0875 0)
(222.772 46.7611 0)
(233.472 47.7493 0)
(239.724 51.1022 -5.15242e-21)
(252.827 52.5698 -2.32439e-17)
(259.722 56.9594 1.87513e-17)
(276.374 59.325 -1.94845e-17)
(284.825 64.7957 0)
(306.78 67.872 1.26955e-21)
(318.068 73.5395 1.00289e-17)
(347.123 75.94 0)
(360.99 80.0921 0)
(396.983 82.5551 0)
(413.42 85.9494 0)
(462.214 91.3421 5.77183e-18)
(489.631 82.4533 0)
(555.946 87.2147 -4.77851e-21)
(612.535 0.84173 0)
(571.511 -43.431 0)
(551.64 -58.6334 0)
(503.296 -67.5977 0)
(478.68 -66.008 -3.95014e-22)
(440.763 -64.3684 4.20712e-18)
(424.631 -58.3083 -3.01568e-18)
(398.89 -56.3669 -5.36926e-18)
(386.807 -51.8104 -1.93555e-18)
(366.742 -50.6993 -7.58739e-18)
(356.092 -46.9885 -1.20881e-17)
(340.118 -46.049 0)
(330.691 -43.1718 2.10942e-21)
(317.692 -42.6532 -1.29558e-17)
(309.047 -40.7198 0)
(297.951 -40.5504 -1.52238e-17)
(289.69 -39.2413 0)
(279.849 -39.1633 -3.44262e-17)
(271.913 -38.1917 2.02352e-21)
(263.02 -38.0251 1.90214e-17)
(255.426 -37.1607 0)
(247.306 -36.7582 0)
(240.156 -35.7832 -2.18037e-17)
(232.835 -35.01 -2.30549e-17)
(226.362 -33.8238 -2.40347e-17)
(219.983 -32.771 0)
(214.366 -31.5508 -2.61656e-17)
(208.92 -30.4929 0)
(204.083 -29.4852 0)
(199.341 -28.6368 -2.90359e-17)
(195.034 -27.9541 0)
(190.7 -27.3288 0)
(186.701 -26.9031 -3.17828e-17)
(182.575 -26.3759 0)
(178.801 -26.0868 3.36614e-17)
(174.797 -25.5239 6.89912e-17)
(171.253 -25.2826 0)
(167.307 -24.5768 3.62527e-17)
(164.047 -24.3318 -3.72802e-17)
(160.043 -23.3898 0)
(157.147 -23.0727 0)
(152.854 -21.7787 0)
(150.468 -21.1811 0)
(145.485 -19.3772 -3.94801e-17)
(143.895 -17.907 -4.08549e-17)
(137.828 -14.4333 0)
(100.034 1.44435 8.94191e-17)
(100.579 3.96893 8.36608e-17)
(101.494 6.92213 0)
(102.578 10.8242 0)
(103.636 15.7895 -8.19405e-17)
(104.721 20.8925 8.86829e-17)
(105.788 25.3242 -9.7332e-17)
(107.042 28.3782 0)
(108.594 29.7294 -1.09898e-16)
(110.561 29.5287 -1.06644e-16)
(112.788 28.5594 -9.66724e-17)
(115.05 27.7476 8.5433e-17)
(117.341 27.3722 0)
(119.661 27.314 -7.26071e-17)
(122.112 27.3648 0)
(124.616 27.5242 0)
(127.286 27.7132 -6.6047e-17)
(129.989 28.0092 0)
(132.897 28.3055 0)
(135.81 28.7213 0)
(138.981 29.1035 -1.1926e-16)
(142.119 29.6347 0)
(145.593 30.0911 5.63199e-17)
(148.974 30.7454 -5.45067e-17)
(152.805 31.2697 0)
(156.456 32.066 0)
(160.72 32.654 4.9431e-17)
(164.671 33.6219 0)
(169.47 34.2702 0)
(173.754 35.4501 -4.14678e-21)
(179.228 36.154 8.45142e-17)
(183.881 37.598 4.39392e-21)
(190.215 38.3501 -3.85834e-17)
(195.265 40.1216 -3.60463e-17)
(202.704 40.9186 -2.45606e-21)
(208.169 43.095 -3.20157e-17)
(217.041 43.9482 0)
(222.923 46.6125 0)
(233.629 47.6013 0)
(239.893 50.9433 -2.3358e-17)
(253.003 52.41 2.32105e-17)
(259.918 56.7841 -1.87206e-17)
(276.581 59.1426 1.94472e-17)
(285.057 64.5906 0)
(307.021 67.652 1.20848e-21)
(318.33 73.2918 0)
(347.375 75.68 0)
(361.246 79.8139 -4.99034e-18)
(397.228 82.2693 -9.90513e-18)
(413.702 85.6297 0)
(462.454 90.9692 -4.6205e-21)
(489.858 82.0348 0)
(555.825 86.6226 1.78092e-18)
(611.992 0.783831 1.08294e-18)
(571.197 -43.1281 0)
(551.48 -58.2873 0)
(503.218 -67.2305 0)
(478.655 -65.6741 -1.04775e-17)
(440.82 -64.0837 -4.10186e-18)
(424.743 -58.0796 -2.92687e-18)
(399.022 -56.1592 5.24281e-18)
(386.935 -51.6231 1.89562e-18)
(366.867 -50.5162 7.44344e-18)
(356.211 -46.8209 1.06537e-21)
(340.231 -45.885 1.01432e-17)
(330.8 -43.0197 9.65406e-18)
(317.795 -42.5023 1.27342e-17)
(309.143 -40.5755 0)
(298.041 -40.4044 0)
(289.774 -39.0988 0)
(279.928 -39.0191 3.39909e-17)
(271.989 -38.05 1.74927e-17)
(263.093 -37.8824 -1.88356e-17)
(255.499 -37.0203 0)
(247.38 -36.6184 0)
(240.231 -35.6472 0)
(232.912 -34.8778 4.58245e-17)
(226.442 -33.698 0)
(220.065 -32.6515 -2.50661e-17)
(214.448 -31.4384 2.60333e-17)
(209.001 -30.3862 0)
(204.161 -29.3835 -2.7987e-17)
(199.415 -28.5384 1.69099e-22)
(195.105 -27.8577 0)
(190.765 -27.2333 3.07234e-17)
(186.764 -26.8078 -3.16811e-17)
(182.636 -26.2808 0)
(178.861 -25.9913 0)
(174.855 -25.429 -3.44109e-17)
(171.313 -25.187 3.54452e-17)