/*--------------------------------*- C++ -*----------------------------------*\
| =========                 |                                                 |
| \\      /  F ield         | OpenFOAM: The Open Source CFD Toolbox           |
|  \\    /   O peration     | Version:  2412                                  |
|   \\  /    A nd           | Website:  www.openfoam.com                      |
|    \\/     M anipulation  |                                                 |
\*---------------------------------------------------------------------------*/
FoamFile
{
    version     2.0;
    format      ascii;
    arch        "LSB;label=32;scalar=64";
    class       volScalarField;
    location    "0.1";
    object      epsilon;
}
// * * * * * * * * * * * * * * * * * * * * * * * * * * * * * * * * * * * * * //

dimensions      [0 2 -3 0 0 0 0];

internalField   nonuniform List<scalar> 
13077
(
1135.69
1403.88
1021.96
665.008
491.412
432.282
418.144
417.516
419.914
423.207
426.53
430.026
433.504
437.15
440.874
444.817
448.942
453.361
458.073
463.199
468.745
474.851
481.488
488.834
496.808
505.713
515.264
526.038
537.325
550.248
563.82
580.231
597.717
620.176
642.512
671.7
700.243
747.786
800.818
1140.12
1410.16
1026.17
666.782
491.808
432.188
417.932
417.298
419.707
423.013
426.345
429.845
433.323
436.966
440.683
444.618
448.732
453.137
457.833
462.94
468.464
474.548
481.159
488.476
496.419
505.288
514.799
525.528
536.759
549.617
563.104
579.425
596.801
619.159
641.338
670.333
698.563
745.831
798.541
884.677
965.506
1108.71
1209.44
1374.09
1388.92
1433.39
1347.06
1673.26
1940.44
2822.02
3582.75
9334.84
25368.6
45586.1
35869.1
12898.3
4135.26
1996.78
1457.11
1234.1
1105.29
950.748
903.147
823.981
791.206
742.729
732.053
710.174
701.642
1144.56
1416.4
1030.34
668.553
492.206
432.097
417.723
417.082
419.503
422.822
426.162
429.667
433.145
436.785
440.496
444.422
448.525
452.916
457.596
462.685
468.188
474.249
480.834
488.123
496.034
504.868
514.338
525.022
536.199
548.989
562.392
578.622
595.888
618.143
640.166
668.964
696.88
743.864
796.259
882.173
962.974
1106.25
1207.41
1372.53
1387.83
1430.83
1342.96
1667.62
1938.33
2824.7
3600.45
9451.23
25591.5
45481.1
35455
12803
4131.67
2000.07
1457.5
1234.28
1104.32
949.488
901.542
822.533
789.83
741.561
731.073
709.313
700.93
678.476
672.505
658.96
647.779
630.566
609.36
582.32
558.632
543.114
532.166
523.987
520.205
518.621
515.872
511.541
505.984
502.229
497.162
495.249
489.905
489.441
484.232
487.036
485.687
490.023
497.57
491.569
516.501
508.134
453.184
1149.02
1422.59
1034.45
670.295
492.593
432.003
417.513
416.866
419.3
422.632
425.98
429.489
432.968
436.605
440.31
444.227
448.32
452.698
457.361
462.432
467.914
473.952
480.512
487.773
495.652
504.45
513.881
524.519
535.642
548.365
561.683
577.822
594.978
617.128
638.997
667.592
695.196
741.888
793.976
879.666
960.416
1103.73
1205.3
1370.91
1386.6
1428.01
1338.49
1661.51
1935.4
2826.3
3615.23
9553.59
25760.5
45255.6
34947.1
12678.5
4120.08
2000.51
1456.54
1233.41
1102.64
947.752
899.549
820.763
788.193
740.188
729.918
708.295
700.08
677.768
671.947
658.399
647.247
630.017
608.743
581.574
557.849
542.422
531.574
523.481
519.822
518.342
515.653
511.315
505.756
502.007
496.969
495.085
489.766
489.344
484.149
487.082
485.789
490.427
498.178
492.532
518.815
511.506
456.237
1153.51
1428.71
1038.48
671.996
492.964
431.905
417.303
416.651
419.098
422.443
425.799
429.313
432.792
436.426
440.125
444.034
448.116
452.481
457.129
462.181
467.643
473.659
480.194
487.427
495.275
504.037
513.429
524.021
535.091
547.746
560.981
577.028
594.075
616.12
637.837
666.226
693.521
739.914
791.707
877.163
957.838
1101.17
1203.13
1369.2
1385.21
1424.93
1333.65
1654.92
1931.6
2826.76
3626.87
9641.71
25877.3
44913.5
34353
12526.2
4100.59
1998.07
1454.23
1231.47
1100.25
945.54
897.174
818.675
786.299
738.611
728.591
707.119
699.093
676.957
671.295
657.761
646.644
629.41
608.075
580.784
557.026
541.694
530.951
522.948
519.414
518.045
515.417
511.075
505.518
501.776
496.771
494.918
489.625
489.248
484.069
487.135
485.902
490.852
498.817
493.544
521.272
515.255
460.042
1158.02
1434.75
1042.43
673.653
493.317
431.8
417.092
416.436
418.895
422.254
425.618
429.136
432.616
436.248
439.941
443.842
447.914
452.266
456.899
461.934
467.376
473.37
479.881
487.086
494.904
503.631
512.985
523.531
534.55
547.137
560.291
576.245
593.187
615.126
636.695
664.876
691.866
737.956
789.47
874.679
955.258
1098.57
1200.9
1367.43
1383.69
1421.59
1328.44
1647.89
1926.96
2826.08
3635.28
9715.61
25945.1
44460.1
33681
12348
4073.48
1992.8
1450.59
1228.49
1097.18
942.876
894.442
816.289
784.166
736.844
727.101
705.796
697.974
676.04
670.55
657.045
645.971
628.746
607.359
579.953
556.163
540.933
530.297
522.388
518.983
517.729
515.166
510.823
505.269
501.538
496.567
494.747
489.485
489.154
483.993
487.196
486.029
491.298
499.49
494.61
523.887
519.484
464.885
1162.55
1440.73
1046.31
675.267
493.652
431.69
416.879
416.221
418.693
422.064
425.437
428.96
432.441
436.07
439.759
443.653
447.715
452.055
456.673
461.691
467.114
473.087
479.574
486.753
494.542
503.234
512.552
523.053
534.023
546.542
559.617
575.479
592.319
614.153
635.579
663.551
690.243
736.028
787.282
872.235
952.701
1095.97
1198.64
1365.63
1382.05
1418.03
1322.9
1640.46
1921.51
2824.32
3640.42
9775.45
25968.4
43902.1
32940.1
12146
4039.13
1984.76
1445.67
1224.5
1093.46
939.79
891.382
813.63
781.813
734.904
725.462
704.34
696.737
675.025
669.718
656.258
645.235
628.034
606.602
579.088
555.269
540.142
529.617
521.805
518.532
517.396
514.901
510.561
505.012
501.295
496.36
494.577
489.347
489.065
483.925
487.268
486.173
491.772
500.204
495.74
526.679
524.347
471.181
1167.08
1446.64
1050.12
676.839
493.967
431.573
416.664
416.005
418.49
421.876
425.257
428.785
432.267
435.895
439.579
443.465
447.518
451.847
456.451
461.453
466.858
472.811
479.276
486.429
494.191
502.85
512.133
522.589
533.512
545.964
558.964
574.735
591.477
613.208
634.498
662.26
688.662
734.143
785.16
869.851
950.191
1093.39
1196.39
1363.84
1380.33
1414.27
1317.06
1632.7
1915.31
2821.55
3642.33
9821.53
25952
43247.9
32140
11922.5
3997.96
1974.08
1439.55
1219.56
1089.14
936.321
888.031
810.728
779.267
732.813
723.693
702.766
695.394
673.923
668.806
655.409
644.446
627.282
605.814
578.199
554.35
539.33
528.916
521.203
518.063
517.05
514.626
510.292
504.751
501.05
496.154
494.411
489.215
488.985
483.87
487.358
486.341
492.279
500.966
496.942
529.67
530.053
479.517
1171.63
1452.49
1053.86
678.37
494.265
431.451
416.448
415.789
418.288
421.687
425.077
428.611
432.095
435.721
439.401
443.281
447.326
451.644
456.235
461.222
466.609
472.543
478.987
486.117
493.852
502.479
511.729
522.143
533.02
545.408
558.335
574.017
590.668
612.297
633.457
661.014
687.134
732.314
783.117
867.547
947.752
1090.87
1194.18
1362.08
1378.56
1410.35
1310.97
1624.68
1908.42
2817.87
3641.09
9854.18
25902
42506.9
31290.1
11679.7
3950.48
1960.91
1432.31
1213.74
1084.28
932.511
884.428
807.618
776.556
730.592
721.811
701.091
693.961
672.744
667.828
654.51
643.613
626.501
605.004
577.294
553.415
538.504
528.202
520.587
517.582
516.695
514.344
510.02
504.489
500.807
495.953
494.252
489.094
488.919
483.832
487.469
486.536
492.827
501.782
498.227
532.885
536.889
490.736
1176.17
1458.26
1057.54
679.862
494.544
431.322
416.23
415.572
418.086
421.499
424.898
428.438
431.924
435.549
439.225
443.1
447.137
451.446
456.025
460.997
466.369
472.285
478.71
485.816
493.526
502.124
511.343
521.716
532.552
544.877
557.735
573.33
589.894
611.426
632.464
659.817
685.666
730.552
781.168
865.339
945.404
1088.43
1192.04
1360.39
1376.77
1406.32
1304.67
1616.45
1900.93
2813.36
3636.82
9873.84
25824.6
41689.7
30400.3
11420
3897.19
1945.42
1424.06
1207.12
1078.95
928.408
880.615
804.333
773.706
728.265
719.835
699.334
692.453
671.501
666.794
653.572
642.748
625.702
604.183
576.385
552.473
537.669
527.478
519.963
517.093
516.335
514.061
509.75
504.231
500.57
495.76
494.105
488.987
488.869
483.814
487.605
486.765
493.419
502.66
499.603
536.35
545.246
506.048
1180.71
1463.98
1061.16
681.315
494.806
431.187
416.011
415.356
417.884
421.311
424.72
428.266
431.755
435.38
439.053
442.923
446.954
451.253
455.821
460.78
466.137
472.038
478.444
485.53
493.217
501.786
510.976
521.311
532.107
544.372
557.166
572.677
589.16
610.599
631.523
658.677
684.267
728.864
779.322
863.243
943.166
1086.1
1189.99
1358.79
1375
1402.2
1298.2
1608.08
1892.9
2808.15
3629.69
9880.98
25726.6
40808.5
29480.1
11145.7
3838.67
1927.82
1414.9
1199.78
1073.19
924.059
876.633
800.908
770.748
725.853
717.787
697.511
690.886
670.207
665.716
652.605
641.861
624.896
603.362
575.481
551.532
536.834
526.753
519.336
516.601
515.975
513.78
509.484
503.979
500.343
495.579
493.973
488.897
488.841
483.821
487.771
487.03
494.06
503.603
501.078
540.093
555.658
527.216
1185.25
1469.62
1064.72
682.733
495.052
431.047
415.791
415.139
417.682
421.124
424.543
428.095
431.587
435.212
438.883
442.749
446.774
451.066
455.624
460.572
465.915
471.801
478.19
485.257
492.923
501.466
510.63
520.929
531.688
543.896
556.629
572.06
588.469
609.818
630.638
657.598
682.939
727.258
777.586
861.27
941.053
1083.89
1188.05
1357.32
1373.26
1398.04
1291.6
1599.63
1884.42
2802.35
3619.88
9876.16
25615.2
39876.3
28538.9
10859.3
3775.5
1908.31
1404.94
1191.81
1067.09
919.512
872.524
797.38
767.71
723.38
715.684
695.642
689.275
668.875
664.605
651.622
640.965
624.092
602.55
574.589
550.6
536.006
526.031
518.711
516.11
515.619
513.504
509.227
503.738
500.129
495.412
493.858
488.828
488.836
483.854
487.97
487.335
494.754
504.616
502.659
544.148
568.86
556.843
1189.77
1475.2
1068.22
684.116
495.282
430.902
415.569
414.922
417.481
420.938
424.367
427.926
431.422
435.048
438.717
442.58
446.6
450.885
455.434
460.371
465.702
471.575
477.949
484.998
492.646
501.165
510.304
520.571
531.297
543.45
556.127
571.481
587.822
609.087
629.812
656.583
681.689
725.738
775.967
859.428
939.076
1081.82
1186.26
1355.99
1371.59
1393.86
1284.92
1591.17
1875.58
2796.06
3607.61
9859.99
25497.7
38907.3
27585.9
10563
3708.3
1887.13
1394.31
1183.3
1060.72
914.817
868.331
793.783
764.62
720.868
713.546
693.744
687.636
667.518
663.474
650.633
640.068
623.3
601.756
573.718
549.684
535.188
525.318
518.091
515.623
515.269
513.237
508.982
503.509
499.93
495.263
493.765
488.782
488.858
483.917
488.203
487.682
495.504
505.701
504.35
548.553
585.86
598.84
1194.28
1480.71
1071.67
685.465
495.496
430.752
415.346
414.706
417.28
420.752
424.192
427.758
431.258
434.885
438.554
442.414
446.431
450.709
455.251
460.179
465.499
471.36
477.721
484.754
492.385
500.883
510.001
520.236
530.932
543.034
555.659
570.94
587.219
608.406
629.045
655.633
680.517
724.307
774.466
857.724
937.244
1079.9
1184.61
1354.82
1370.01
1389.7
1278.2
1582.75
1866.47
2789.42
3593.15
9833.17
25381.4
37916.7
26629.9
10259.2
3637.71
1864.53
1383.14
1174.37
1054.13
910.022
864.093
790.151
761.506
718.34
711.392
691.833
685.983
666.148
662.332
649.648
639.18
622.529
600.988
572.875
548.789
534.389
524.617
517.482
515.145
514.929
512.982
508.75
503.296
499.749
495.134
493.693
488.761
488.907
484.011
488.472
488.073
496.31
506.859
506.156
553.354
608.044
659.217
1198.77
1486.15
1075.06
686.781
495.696
430.597
415.122
414.489
417.079
420.566
424.017
427.591
431.096
434.725
438.394
442.252
446.266
450.54
455.075
459.994
465.305
471.156
477.505
484.525
492.141
500.62
509.718
519.925
530.594
542.648
555.226
570.437
586.662
607.776
628.339
654.75
679.423
722.967
773.086
856.16
935.563
1078.14
1183.12
1353.83
1368.54
1385.58
1271.47
1574.42
1857.16
2782.52
3576.75
9796.47
25273.5
36920.5
25679.2
9950.32
3564.39
1840.76
1371.54
1165.1
1047.4
905.174
859.851
786.517
758.394
715.815
709.239
689.927
684.331
664.776
661.192
648.677
638.311
621.786
600.254
572.067
547.922
533.611
523.935
516.887
514.678
514.602
512.742
508.535
503.101
499.587
495.025
493.645
488.765
488.985
484.137
488.778
488.508
497.174
508.092
508.079
558.605
637.323
747.424
1203.24
1491.52
1078.4
688.065
495.881
430.437
414.897
414.272
416.879
420.381
423.844
427.426
430.936
434.567
438.236
442.094
446.106
450.376
454.905
459.817
465.12
470.962
477.301
484.31
491.912
500.374
509.456
519.638
530.283
542.292
554.826
569.973
586.149
607.196
627.691
653.932
678.407
721.716
771.824
854.737
934.035
1076.56
1181.81
1353.03
1367.2
1381.54
1264.77
1566.23
1847.74
2775.48
3558.69
9750.76
25181
35935.2
24741.7
9638.68
3489.02
1816.08
1359.65
1155.59
1040.6
900.316
855.64
782.911
755.308
713.313
707.104
688.039
682.693
663.414
660.063
647.729
637.469
621.079
599.559
571.299
547.087
532.859
523.274
516.308
514.226
514.291
512.518
508.339
502.925
499.446
494.939
493.623
488.797
489.093
484.295
489.122
488.987
498.096
509.397
510.122
564.376
676.341
878.667
1207.69
1496.82
1081.69
689.319
496.054
430.273
414.672
414.055
416.679
420.197
423.671
427.262
430.777
434.411
438.081
441.939
445.95
450.216
454.741
459.648
464.944
470.779
477.109
484.107
491.699
500.146
509.214
519.372
529.997
541.964
554.459
569.545
585.678
606.664
627.1
653.177
677.467
720.552
770.677
853.452
932.659
1075.14
1180.67
1352.42
1365.99
1377.59
1258.13
1558.22
1838.28
2768.41
3539.29
9696.98
25110.5
34977.7
23825
9326.65
3412.27
1790.76
1347.59
1145.95
1033.78
895.492
851.493
779.361
752.271
710.852
705.003
686.185
681.082
662.072
658.954
646.812
636.66
620.414
598.91
570.575
546.289
532.137
522.637
515.75
513.791
513.997
512.314
508.163
502.769
499.327
494.876
493.625
488.855
489.23
484.485
489.502
489.508
499.073
510.775
512.284
570.748
728.775
1077.86
1212.11
1502.04
1084.92
690.542
496.213
430.106
414.445
413.839
416.479
420.014
423.499
427.099
430.62
434.257
437.929
441.787
445.797
450.062
454.583
459.485
464.776
470.604
476.928
483.918
491.501
499.935
508.99
519.128
529.735
541.663
554.123
569.151
585.248
606.178
626.564
652.484
676.599
719.473
769.641
852.301
931.432
1073.88
1179.71
1352.02
1364.94
1373.75
1251.59
1550.41
1828.86
2761.4
3518.82
9636.19
25068.1
34064.8
22936.2
9016.52
3334.85
1765.05
1335.47
1136.26
1027.01
890.739
847.443
775.892
749.302
708.448
702.948
684.377
679.509
660.76
657.874
645.933
635.891
619.796
598.31
569.899
545.53
531.448
522.027
515.214
513.375
513.723
512.129
508.008
502.634
499.231
494.836
493.653
488.94
489.395
484.705
489.917
490.071
500.104
512.221
514.567
577.827
799.755
1386
1216.51
1507.19
1088.1
691.736
496.36
429.935
414.219
413.623
416.28
419.831
423.328
426.936
430.464
434.105
437.779
441.638
445.649
449.912
454.43
459.329
464.615
470.438
476.757
483.739
491.315
499.738
508.784
518.903
529.495
541.387
553.816
568.789
584.855
605.734
626.079
651.847
675.799
718.472
768.708
851.278
930.349
1072.8
1178.93
1351.81
1364.04
1370.06
1245.16
1542.85
1819.54
2754.55
3497.59
9569.52
25059.3
33212.6
22081.7
8710.6
3257.41
1739.2
1323.41
1126.62
1020.34
886.092
843.515
772.528
746.421
706.115
700.954
682.627
677.985
659.486
656.831
645.099
635.168
619.229
597.763
569.274
544.813
530.794
521.448
514.702
512.981
513.471
511.966
507.874
502.521
499.157
494.819
493.705
489.051
489.589
484.955
490.366
490.673
501.188
513.733
516.968
585.737
896.442
1869.38
1220.88
1512.26
1091.22
692.901
496.496
429.761
413.992
413.407
416.082
419.648
423.157
426.775
430.309
433.954
437.631
441.492
445.503
449.766
454.282
459.177
464.46
470.28
476.594
483.571
491.141
499.554
508.593
518.695
529.275
541.133
553.534
568.457
584.497
605.331
625.641
651.264
675.062
717.545
767.871
850.375
929.403
1071.87
1178.32
1351.8
1363.31
1366.51
1238.88
1535.54
1810.38
2747.95
3475.88
9498.2
25089.1
32436.5
21267.5
8411.11
3180.62
1713.47
1311.51
1117.11
1013.83
881.582
839.733
769.287
743.643
703.865
699.032
680.944
676.518
658.258
655.831
644.314
634.496
618.716
597.271
568.701
544.141
530.178
520.899
514.218
512.61
513.241
511.825
507.763
502.43
499.105
494.825
493.782
489.187
489.809
485.233
490.846
491.312
502.32
515.307
519.485
594.636
1028.77
2628.54
1225.21
1517.24
1094.29
694.038
496.621
429.584
413.765
413.192
415.884
419.466
422.987
426.614
430.154
433.804
437.484
441.347
445.36
449.622
454.137
459.031
464.311
470.128
476.439
483.411
490.977
499.383
508.416
518.503
529.073
540.9
553.276
568.152
584.17
604.963
625.246
650.73
674.381
716.686
767.121
849.583
928.584
1071.09
1177.88
1351.99
1362.75
1363.12
1232.75
1528.52
1801.43
2741.65
3453.99
9423.53
25161.5
31750.6
20499.2
8120.18
3105.11
1688.07
1299.86
1107.79
1007.5
877.236
836.119
766.188
740.981
701.71
697.19
679.338
675.116
657.083
654.88
643.584
633.878
618.262
596.838
568.182
543.514
529.6
520.385
513.761
512.263
513.035
511.708
507.675
502.36
499.075
494.853
493.882
489.347
490.054
485.537
491.356
491.984
503.497
516.939
522.117
604.712
1210.25
3795.96
1229.52
1522.15
1097.3
695.147
496.735
429.405
413.538
412.977
415.687
419.285
422.818
426.454
430.001
433.655
437.338
441.204
445.218
449.482
453.996
458.888
464.166
469.982
476.29
483.259
490.822
499.222
508.25
518.325
528.887
540.685
553.039
567.869
583.87
604.627
624.889
650.238
673.751
715.887
766.45
848.893
927.882
1070.46
1177.6
1352.37
1362.37
1359.91
1226.79
1521.78
1792.74
2735.74
3432.16
9346.88
25280
31166.9
19781.7
7839.84
3031.47
1663.22
1288.56
1098.74
1001.41
873.079
832.69
763.243
738.448
699.659
695.438
677.815
673.787
655.968
653.985
642.914
633.318
617.867
596.463
567.718
542.935
529.063
519.906
513.335
511.943
512.854
511.615
507.609
502.311
499.066
494.901
494.003
489.529
490.322
485.865
491.891
492.687
504.717
518.625
524.86
616.19
1458.61
5501.05
1233.8
1526.97
1100.26
696.229
496.839
429.223
413.311
412.763
415.49
419.104
422.649
426.294
429.848
433.507
437.193
441.062
445.079
449.343
453.857
458.748
464.025
469.84
476.147
483.113
490.675
499.069
508.095
518.158
528.714
540.485
552.819
567.607
583.593
604.319
624.566
649.785
673.166
715.142
765.847
848.294
927.287
1069.95
1177.47
1352.94
1362.16
1356.89
1221.02
1515.33
1784.35
2730.25
3410.65
9269.63
25447.2
30695.7
19119.3
7571.97
2960.26
1639.11
1277.68
1090.03
995.59
869.129
829.459
760.466
736.054
697.719
693.783
676.382
672.535
654.916
653.149
642.305
632.819
617.533
596.148
567.309
542.403
528.568
519.463
512.94
511.651
512.699
511.547
507.565
502.284
499.077
494.97
494.145
489.732
490.611
486.213
492.451
493.416
505.974
520.359
527.709
629.332
1795.42
7795.42
1238.04
1531.7
1103.16
697.284
496.934
429.04
413.084
412.55
415.294
418.923
422.48
426.135
429.695
433.359
437.049
440.921
444.94
449.205
453.72
458.61
463.886
469.701
476.007
482.973
490.533
498.923
507.947
518.001
528.552
540.297
552.614
567.361
583.337
604.034
624.27
649.365
672.619
714.444
765.305
847.778
926.787
1069.57
1177.49
1353.69
1362.12
1354.06
1215.45
1509.18
1776.28
2725.24
3389.69
9193.21
25665
30344.7
18515.6
7318.29
2891.96
1615.92
1267.28
1081.69
990.064
865.404
826.438
757.866
733.806
695.898
692.23
675.045
671.367
653.933
652.376
641.762
632.383
617.263
595.894
566.956
541.92
528.116
519.06
512.579
511.389
512.572
511.503
507.545
502.276
499.107
495.058
494.305
489.953
490.918
486.58
493.031
494.169
507.266
522.138
530.659
644.433
2243.78
10588.9
1242.26
1536.34
1106
698.312
497.02
428.855
412.858
412.337
415.098
418.743
422.312
425.976
429.543
433.211
436.905
440.78
444.802
449.069
453.584
458.474
463.75
469.565
475.871
482.835
490.395
498.783
507.806
517.85
528.398
540.119
552.421
567.128
583.096
603.769
623.999
648.972
672.104
713.785
764.813
847.336
926.373
1069.31
1177.63
1354.61
1362.26
1351.45
1210.09
1503.32
1768.55
2720.73
3369.47
9119.02
25934.6
30119.3
17973.8
7080.33
2827.03
1593.79
1257.42
1073.79
984.86
861.918
823.637
755.45
731.713
694.201
690.787
673.808
670.287
653.023
651.672
641.286
632.012
617.057
595.701
566.659
541.487
527.709
518.698
512.255
511.159
512.475
511.486
507.547
502.289
499.156
495.163
494.483
490.19
491.241
486.963
493.629
494.941
508.589
523.958
533.706
661.811
2822.63
13672.2
1246.43
1540.89
1108.78
699.314
497.098
428.668
412.633
412.125
414.903
418.563
422.144
425.817
429.39
433.063
436.761
440.639
444.664
448.933
453.448
458.339
463.615
469.43
475.736
482.7
490.261
498.645
507.669
517.705
528.251
539.949
552.237
566.906
582.868
603.519
623.747
648.603
671.615
713.162
764.365
846.958
926.034
1069.15
1177.91
1355.71
1362.59
1349.05
1204.95
1497.76
1761.19
2716.75
3350.17
9048.42
26256.3
30022.7
17496.2
6859.4
2765.84
1572.86
1248.15
1066.36
979.998
858.683
821.065
753.226
729.78
692.634
689.457
672.674
669.298
652.189
651.038
640.882
631.71
616.916
595.571
566.419
541.106
527.35
518.38
511.97
510.964
512.408
511.497
507.572
502.321
499.223
495.284
494.677
490.443
491.579
487.359
494.242
495.731
509.939
525.814
536.845
681.787
3537.87
16810.8
1250.58
1545.35
1111.51
700.29
497.167
428.481
412.408
411.914
414.709
418.384
421.976
425.658
429.238
432.915
436.617
440.498
444.526
448.796
453.313
458.203
463.48
469.296
475.603
482.567
490.128
498.511
507.535
517.564
528.109
539.784
552.059
566.692
582.65
603.281
623.51
648.253
671.148
712.567
763.952
846.641
925.763
1069.1
1178.3
1356.99
1363.11
1346.9
1200.04
1492.48
1754.21
2713.32
3331.94
8982.73
26630.1
30055.6
17084.6
6656.59
2708.72
1553.24
1239.51
1059.43
975.498
855.711
818.728
751.201
728.015
691.202
688.247
671.649
668.404
651.437
650.479
640.552
631.479
616.844
595.505
566.238
540.779
527.043
518.11
511.729
510.809
512.377
511.537
507.62
502.373
499.306
495.421
494.885
490.71
491.928
487.767
494.867
496.536
511.314
527.704
540.072
704.672
4373.46
19821.3
1254.69
1549.71
1114.17
701.24
497.228
428.293
412.185
411.705
414.516
418.206
421.809
425.499
429.085
432.766
436.472
440.357
444.388
448.659
453.176
458.068
463.344
469.161
475.469
482.433
489.995
498.377
507.402
517.424
527.969
539.623
551.885
566.483
582.437
603.052
623.284
647.918
670.697
711.998
763.569
846.38
925.554
1069.15
1178.81
1358.46
1363.83
1345.01
1195.37
1487.48
1747.62
2710.45
3314.91
8923.15
27054.9
30216.5
16740
6472.81
2655.93
1535.01
1231.54
1053.04
971.379
853.013
816.636
749.382
726.426
689.912
687.163
670.738
667.612
650.769
650
640.299
631.323
616.844
595.507
566.119
540.512
526.792
517.896
511.538
510.697
512.384
511.609
507.694
502.445
499.407
495.573
495.106
490.988
492.289
488.185
495.503
497.351
512.711
529.624
543.386
730.746
5288.24
22593.3
1258.77
1553.96
1116.78
702.164
497.282
428.104
411.962
411.496
414.324
418.027
421.642
425.339
428.931
432.617
436.326
440.214
444.248
448.522
453.039
457.931
463.208
469.026
475.335
482.299
489.862
498.242
507.27
517.285
527.83
539.463
551.714
566.276
582.229
602.829
623.067
647.595
670.261
711.451
763.212
846.174
925.405
1069.3
1179.44
1360.13
1364.77
1343.41
1190.96
1482.76
1741.41
2708.14
3299.19
8870.81
27529.6
30502.2
16463.2
6308.72
2607.69
1518.25
1224.27
1047.22
967.658
850.603
814.798
747.778
725.022
688.773
686.213
669.946
666.925
650.192
649.606
640.13
631.248
616.921
595.581
566.067
540.309
526.606
517.743
511.405
510.638
512.435
511.717
507.796
502.539
499.525
495.74
495.341
491.279
492.659
488.611
496.148
498.178
514.128
531.575
546.791
760.255
6222.89
25084.6
1262.81
1558.12
1119.32
703.063
497.329
427.915
411.74
411.288
414.132
417.85
421.474
425.18
428.777
432.467
436.18
440.071
444.108
448.382
452.901
457.793
463.07
468.889
475.199
482.163
489.728
498.107
507.136
517.146
527.691
539.304
551.543
566.071
582.022
602.609
622.856
647.283
669.836
710.927
762.88
846.027
925.317
1069.57
1180.2
1362.03
1365.97
1342.15
1186.84
1478.33
1735.61
2706.39
3284.86
8826.7
28052.4
30907.7
16254.1
6164.86
2564.17
1503.04
1217.73
1042
964.358
848.499
813.229
746.403
723.817
687.796
685.408
669.282
666.353
649.713
649.305
640.051
631.261
617.081
595.734
566.089
540.18
526.493
517.663
511.339
510.639
512.538
511.868
507.93
502.656
499.661
495.923
495.588
491.58
493.038
489.044
496.8
499.013
515.566
533.556
550.297
793.425
7115.28
27313.9
1266.82
1562.17
1121.79
703.936
497.37
427.726
411.52
411.081
413.941
417.672
421.307
425.02
428.623
432.316
436.032
439.926
443.966
448.242
452.761
457.653
462.93
468.75
475.06
482.025
489.592
497.969
507.001
517.004
527.55
539.144
551.372
565.866
581.816
602.393
622.65
646.98
669.421
710.425
762.574
845.947
925.297
1069.98
1181.09
1364.2
1367.45
1341.27
1183.03
1474.19
1730.2
2705.2
3271.98
8791.71
28621.1
31426.6
16112.7
6041.6
2525.48
1489.43
1211.95
1037.42
961.505
846.721
811.948
745.272
722.829
686.998
684.762
668.757
665.904
649.342
649.105
640.072
631.372
617.336
595.976
566.196
540.136
526.467
517.671
511.356
510.715
512.703
512.068
508.1
502.802
499.819
496.122
495.849
491.893
493.426
489.485
497.46
499.857
517.023
535.57
553.924
830.484
7917.23
29359.3
1270.8
1566.11
1124.21
704.784
497.403
427.537
411.301
410.876
413.751
417.496
421.14
424.861
428.468
432.165
435.884
439.78
443.822
448.1
452.619
457.511
462.788
468.608
474.92
481.885
489.453
497.829
506.863
516.861
527.408
538.982
551.2
565.661
581.61
602.178
622.448
646.687
669.019
709.951
762.298
845.947
925.358
1070.55
1182.16
1366.69
1369.28
1340.85
1179.58
1470.36
1725.21
2704.57
3260.62
8766.56
29233.3
32051.6
16038.4
5939.24
2491.76
1477.48
1206.99
1033.53
959.133
845.303
810.98
744.412
722.082
686.398
684.295
668.388
665.594
649.091
649.02
640.206
631.595
617.698
596.321
566.401
540.194
526.546
517.784
511.473
510.88
512.945
512.329
508.316
502.981
500.001
496.342
496.126
492.219
493.824
489.935
498.129
500.711
518.503
537.622
557.705
871.705
8606.03
31352.8
1274.74
1569.95
1126.55
705.606
497.43
427.348
411.084
410.672
413.562
417.319
420.974
424.701
428.313
432.013
435.734
439.633
443.677
447.956
452.475
457.367
462.643
468.464
474.777
481.741
489.311
497.686
506.722
516.715
527.263
538.819
551.026
565.454
581.403
601.966
622.25
646.407
668.631
709.512
762.061
846.049
925.521
1071.32
1183.43
1369.58
1371.54
1340.98
1176.55
1466.86
1720.65
2704.52
3250.82
8751.86
29886.2
32774.3
16030.8
5858.04
2463.08
1467.25
1202.88
1030.38
957.289
844.285
810.363
743.854
721.608
686.027
684.032
668.194
665.44
648.979
649.066
640.471
631.95
618.188
596.787
566.725
540.374
526.753
518.026
511.714
511.157
513.28
512.664
508.586
503.2
500.214
496.585
496.422
492.561
494.234
490.394
498.807
501.577
520.01
539.722
561.687
917.452
9187.84
33467.6
1278.64
1573.67
1128.83
706.402
497.451
427.159
410.868
410.47
413.375
417.144
420.807
424.54
428.157
431.86
435.583
439.485
443.531
447.81
452.329
457.22
462.496
468.318
474.631
481.595
489.166
497.54
506.579
516.567
527.116
538.654
550.852
565.248
581.197
601.758
622.059
646.142
668.263
709.117
761.876
846.279
925.817
1072.36
1184.95
1372.97
1374.32
1341.78
1174.01
1463.75
1716.54
2705.05
3242.62
8748.11
30577.2
33586.1
16089.4
5798.29
2439.57
1458.83
1199.69
1028.05
956.037
843.726
810.148
743.645
721.453
685.924
684.01
668.206
665.467
649.027
649.266
640.889
632.459
618.83
597.401
567.193
540.705
527.117
518.428
512.109
511.573
513.734
513.092
508.927
503.471
500.464
496.858
496.74
492.922
494.66
490.868
499.5
502.46
521.549
541.884
565.943
968.235
9694.32
35894.7
1282.51
1577.27
1131.04
707.173
497.466
426.971
410.653
410.269
413.188
416.969
420.641
424.38
428.001
431.706
435.432
439.335
443.383
447.663
452.181
457.072
462.347
468.169
474.482
481.446
489.018
497.392
506.433
516.417
526.969
538.489
550.678
565.044
580.993
601.557
621.879
645.9
667.923
708.782
761.761
846.678
926.29
1073.72
1186.81
1377.01
1377.76
1343.41
1172.06
1461.08
1712.91
2706.18
3236.07
8755.68
31303.3
34478
16214.1
5760.37
2421.36
1452.33
1197.53
1026.66
955.462
843.706
810.402
743.848
721.674
686.142
684.274
668.461
665.71
649.267
649.65
641.492
633.156
619.657
598.194
567.839
541.222
527.676
519.03
512.696
512.163
514.334
513.639
509.356
503.808
500.763
497.169
497.089
493.309
495.106
491.36
500.211
503.367
523.131
544.13
570.569
1024.76
10175.3
38815
1286.34
1580.75
1133.19
707.917
497.476
426.783
410.441
410.069
413.002
416.795
420.475
424.22
427.844
431.551
435.279
439.184
443.234
447.513
452.032
456.921
462.196
468.017
474.331
481.295
488.869
497.241
506.286
516.266
526.821
538.326
550.506
564.844
580.795
601.366
621.713
645.688
667.624
708.527
761.743
847.295
926.995
1075.52
1189.09
1381.86
1382.04
1346.06
1170.83
1458.93
1709.83
2707.97
3231.22
8774.86
32061.7
35441.2
16405.5
5744.87
2408.64
1447.9
1196.52
1026.32
955.678
844.33
811.218
744.545
722.35
686.748
684.886
669.011
666.212
649.739
650.256
642.319
634.081
620.71
599.209
568.706
541.971
528.479
519.88
513.524
512.973
515.122
514.335
509.898
504.23
501.126
497.529
497.478
493.729
495.579
491.879
500.95
504.306
524.769
546.489
575.701
1088.01
10690.3
42376.4
1290.14
1584.11
1135.26
708.636
497.479
426.596
410.23
409.871
412.818
416.622
420.31
424.06
427.687
431.396
435.126
439.032
443.083
447.363
451.88
456.768
462.042
467.864
474.178
481.142
488.717
497.09
506.139
516.116
526.675
538.166
550.34
564.652
580.608
601.192
621.571
645.519
667.379
708.377
761.855
848.195
928.008
1077.87
1191.92
1387.77
1387.4
1349.99
1170.49
1457.44
1707.36
2710.49
3228.16
8805.87
32849.6
36467.6
16664.8
5752.64
2401.68
1445.73
1196.84
1027.24
956.837
845.74
812.717
745.848
723.581
687.835
685.924
669.922
667.03
650.495
651.133
643.42
635.287
622.044
600.499
569.848
543.01
529.585
521.04
514.654
514.058
516.145
515.222
510.587
504.761
501.57
497.955
497.918
494.194
496.091
492.434
501.726
505.292
526.482
549.002
581.516
1159.27
11301.1
46685.4
1293.9
1587.34
1137.25
709.329
497.477
426.41
410.021
409.675
412.635
416.45
420.146
423.9
427.53
431.241
434.972
438.879
442.932
447.211
451.728
456.615
461.887
467.709
474.024
480.988
488.566
496.939
505.993
515.969
526.534
538.014
550.184
564.474
580.436
601.043
621.461
645.407
667.211
708.367
762.141
849.457
929.425
1080.94
1195.48
1395.03
1394.12
1355.52
1171.26
1456.75
1705.6
2713.82
3227
8848.87
33664.4
37549.4
16994.3
5784.93
2400.86
1446.11
1198.71
1029.67
959.142
848.124
815.058
747.901
725.501
689.519
687.491
671.281
668.238
651.602
652.343
644.859
636.839
623.726
602.133
571.336
544.41
531.07
522.588
516.161
515.489
517.466
516.351
511.463
505.436
502.122
498.465
498.426
494.717
496.654
493.04
502.554
506.341
528.295
551.726
588.253
1240.3
12065.4
51814.5
1297.63
1590.44
1139.18
709.995
497.47
426.225
409.814
409.48
412.454
416.279
419.982
423.741
427.373
431.085
434.817