/*--------------------------------*- C++ -*----------------------------------*\
| =========                 |                                                 |
| \\      /  F ield         | OpenFOAM: The Open Source CFD Toolbox           |
|  \\    /   O peration     | Version:  2412                                  |
|   \\  /    A nd           | Website:  www.openfoam.com                      |
|    \\/     M anipulation  |                                                 |
\*---------------------------------------------------------------------------*/
FoamFile
{
    version     2.0;
    format      ascii;
    arch        "LSB;label=32;scalar=64";
    class       volScalarField;
    location    "0.1";
    object      k;
}
// * * * * * * * * * * * * * * * * * * * * * * * * * * * * * * * * * * * * * //

dimensions      [0 2 -2 0 0 0 0];

internalField   nonuniform List<scalar> 
13077
(
66.377
72.5642
57.5689
45.7188
40.9279
39.6508
39.4881
39.6044
39.7572
39.9307
40.0981
40.274
40.4473
40.6294
40.8142
41.0099
41.2137
41.4316
41.6628
41.9137
42.1836
42.4797
42.799
43.1505
43.529
43.9486
44.3944
44.8931
45.4094
45.9959
46.6047
47.3355
48.1028
49.0772
50.0241
51.2438
52.4074
54.3225
56.3794
66.4924
72.7146
57.6617
45.7475
40.9249
39.6393
39.4758
39.5931
39.7468
39.921
40.0888
40.2649
40.4382
40.6201
40.8047
41
41.2032
41.4205
41.651
41.901
42.17
42.465
42.7832
43.1334
43.5105
43.9286
44.3727
44.8695
45.3835
45.9672
46.5726
47.2998
48.0628
49.0336
49.9745
51.1872
52.3391
54.2455
56.2924
59.5312
62.4033
67.312
70.4799
75.5222
75.7173
77.0165
74.2846
83.988
90.8992
111.785
126.528
210.155
355
469.275
433.876
193.088
114.656
86.3966
75.8427
69.9982
66.2042
61.0976
59.6783
56.7661
55.6345
53.7852
53.4548
52.5905
52.268
66.6075
72.8636
57.7535
45.7762
40.922
39.628
39.4636
39.5819
39.7365
39.9114
40.0796
40.2559
40.4293
40.6111
40.7953
40.9902
41.1929
41.4095
41.6393
41.8885
42.1565
42.4504
42.7675
43.1165
43.4922
43.9088
44.3511
44.846
45.3577
45.9387
46.5405
47.2642
48.0229
48.9899
49.9249
51.1304
52.2705
54.1678
56.2051
59.4404
62.3158
67.2323
70.4174
75.4777
75.6867
76.9396
74.1563
83.8317
90.8447
111.846
126.87
211.753
357.343
468.973
431.315
192.778
114.786
86.4956
75.8509
70.0047
66.1712
61.0541
59.6205
56.7128
55.5828
53.7404
53.4165
52.5563
52.2397
51.3199
51.1153
50.5435
50.085
49.3479
48.4302
47.2424
46.2114
45.5438
45.0614
44.698
44.543
44.4769
44.3469
44.1382
43.8781
43.708
43.4673
43.3888
43.1247
43.1244
42.8582
43.0329
42.9465
43.1914
43.5435
43.2295
44.498
43.8761
41.0171
66.7226
73.0102
57.843
45.8041
40.9189
39.6166
39.4514
39.5707
39.7262
39.9018
40.0704
40.247
40.4204
40.602
40.786
40.9805
41.1827
41.3987
41.6277
41.876
42.1431
42.436
42.7519
43.0997
43.474
43.889
44.3297
44.8226
45.3321
45.9103
46.5086
47.2286
47.983
48.9463
49.8754
51.0733
52.2017
54.0896
56.1176
59.3493
62.2272
67.1506
70.3523
75.4308
75.6517
76.855
74.0164
83.6624
90.769
111.883
127.154
213.14
359.251
467.79
427.842
192.183
114.8
86.5322
75.8241
69.9793
66.1165
60.9948
59.5492
56.6477
55.5215
53.6878
53.3715
52.5159
52.206
51.2916
51.0927
50.5202
50.0626
49.3246
48.4034
47.2093
46.1762
45.5129
45.0347
44.6751
44.5258
44.4645
44.337
44.1276
43.8675
43.6977
43.4584
43.3812
43.1182
43.12
42.8543
43.0357
42.9515
43.2116
43.5722
43.2757
44.6055
44.0095
41.0927
66.838
73.154
57.9299
45.8308
40.9154
39.6052
39.4392
39.5596
39.7159
39.8923
40.0613
40.2381
40.4115
40.593
40.7767
40.9708
41.1725
41.3879
41.6161
41.8637
42.1298
42.4217
42.7365
43.0831
43.456
43.8695
44.3085
44.7995
45.3067
45.882
46.4769
47.1932
47.9434
48.9028
49.8261
51.0164
52.1332
54.0113
56.0305
59.2581
62.1375
67.067
70.2845
75.3814
75.6118
76.7621
73.8648
83.4799
90.6711
111.896
127.377
214.313
360.743
465.77
423.514
191.313
114.701
86.5057
75.762
69.9218
66.04
60.9198
59.4647
56.5712
55.4507
53.6275
53.3199
52.4693
52.1668
51.2592
51.0663
50.4937
50.0374
49.299
48.3744
47.1742
46.1393
45.4804
45.0066
44.651
44.5074
44.4512
44.3263
44.1165
43.8564
43.6869
43.4492
43.3735
43.1117
43.1156
42.8506
43.0387
42.9571
43.2328
43.6024
43.3241
44.7189
44.1511
41.1746
66.9535
73.2952
58.0142
45.8563
40.9114
39.5936
39.427
39.5484
39.7057
39.8827
40.0521
40.2292
40.4026
40.584
40.7674
40.9612
41.1624
41.3772
41.6047
41.8514
42.1167
42.4076
42.7213
43.0666
43.4383
43.8502
44.2876
44.7766
45.2817
45.8542
46.4456
47.1583
47.9043
48.8598
49.7776
50.96
52.0653
53.9335
55.9444
59.1674
62.0475
66.9821
70.2147
75.3298
75.5675
76.6613
73.7017
83.2852
90.5513
111.884
127.536
215.274
361.849
462.966
418.397
190.184
114.491
86.4168
75.6655
69.8328
65.9426
60.8297
59.3678
56.4837
55.3712
53.5599
53.2619
52.4169
52.1225
51.2226
51.0361
50.4641
50.0093
49.271
48.3433
47.1374
46.1006
45.4464
44.9771
44.6256
44.488
44.437
44.3149
44.1048
43.8447
43.6758
43.4397
43.3656
43.1052
43.1113
42.847
43.042
42.9633
43.2549
43.634
43.3749
44.8387
44.3015
41.2632
67.0691
73.4338
58.0961
45.8806
40.9069
39.5819
39.4147
39.5373
39.6954
39.8732
40.043
40.2203
40.3938
40.5751
40.7583
40.9516
41.1524
41.3666
41.5935
41.8394
42.1038
42.3937
42.7064
43.0506
43.4209
43.8313
44.2672
44.7543
45.2573
45.8269
46.4151
47.124
47.8661
48.8177
49.73
50.9045
51.9986
53.8568
55.8602
59.0779
61.9581
66.8968
70.1438
75.2771
75.5195
76.5535
73.5283
83.0798
90.4107
111.85
127.632
216.03
362.604
459.443
412.563
188.813
114.176
86.2673
75.5361
69.7134
65.8255
60.7258
59.2595
56.3863
55.2836
53.4858
53.1982
52.3592
52.0736
51.182
51.0023
50.4316
49.9786
49.241
48.3105
47.0991
46.0604
45.411
44.9464
44.5991
44.4677
44.4221
44.3029
44.0926
43.8327
43.6645
43.4302
43.3577
43.0987
43.1072
42.8439
43.046
42.9703
43.2783
43.6675
43.4287
44.9655
44.4621
41.3595
67.1846
73.5698
58.1758
45.9037
40.902
39.57
39.4025
39.5261
39.6851
39.8636
40.0339
40.2114
40.385
40.5662
40.7492
40.9422
41.1426
41.3562
41.5825
41.8276
42.0911
42.3802
42.6919
43.0349
43.404
43.813
44.2474
44.7326
45.2336
45.8004
46.3854
47.0907
47.8289
48.7767
49.6839
50.8504
51.9336
53.7816
55.7783
58.9904
61.8701
66.8121
70.0729
75.2243
75.4687
76.4396
73.3455
82.8652
90.2507
111.793
127.666
216.585
363.054
455.279
406.089
187.218
113.762
86.0599
75.3756
69.5654
65.6902
60.6091
59.1412
56.2801
55.1889
53.4059
53.1295
52.2968
52.0205
51.1379
50.9654
50.3966
49.9457
49.2094
48.2764
47.0598
46.0192
45.3747
44.9147
44.5717
44.4465
44.4066
44.2904
44.0801
43.8205
43.653
43.4206
43.35
43.0926
43.1036
42.8413
43.0507
42.9783
43.3033
43.7032
43.4857
45.1002
44.6346
41.4647
67.2999
73.7034
58.2533
45.9256
40.8967
39.558
39.3902
39.5149
39.6748
39.8541
40.0248
40.2026
40.3763
40.5574
40.7402
40.9329
41.1329
41.3461
41.5717
41.8162
42.0789
42.3671
42.6778
43.0198
43.3877
43.7953
44.2283
44.7117
45.2108
45.7748
46.3568
47.0585
47.7931
48.7372
49.6394
50.798
51.8706
53.7085
55.6994
58.9057
61.7842
66.729
70.0029
75.1722
75.4161
76.3208
73.1546
82.6432
90.0731
111.717
127.638
216.949
363.247
450.558
399.058
185.422
113.254
85.7979
75.1865
69.3909
65.5386
60.4813
59.0143
56.1663
55.0881
53.321
53.0564
52.2305
51.9638
51.0908
50.9258
50.3596
49.911
49.1766
48.2415
47.0198
45.9772
45.3377
44.8824
44.5438
44.4248
44.3907
44.2776
44.0675
43.8083
43.6417
43.4113
43.3426
43.087
43.1006
42.8395
43.0564
42.9877
43.3301
43.7413
43.5465
45.2432
44.8209
41.5803
67.4149
73.8347
58.3288
45.9465
40.8908
39.5459
39.3778
39.5037
39.6645
39.8445
40.0157
40.1938
40.3676
40.5487
40.7313
40.9238
41.1234
41.3361
41.5612
41.805
42.067
42.3544
42.6643
43.0052
43.3721
43.7784
44.21
44.6916
45.1889
45.7503
46.3295
47.0276
47.7589
48.6993
49.5968
50.7477
51.81
53.6379
55.6239
58.8243
61.7014
66.6482
69.9347
75.122
75.3626
76.1981
72.957
82.4157
89.8799
111.624
127.553
217.131
363.237
445.376
391.555
183.447
112.661
85.4852
74.9715
69.1922
65.3724
60.3437
58.88
56.0462
54.9822
53.2321
52.9797
52.1609
51.9043
51.0411
50.884
50.3211
49.875
49.1432
48.2061
46.9796
45.9349
45.3003
44.8497
44.5154
44.4027
44.3746
44.2647
44.0549
43.7962
43.6307
43.4023
43.3358
43.082
43.0984
42.8387
43.0633
42.9987
43.3591
43.7823
43.6115
45.3953
45.0235
41.7087
67.5294
73.9636
58.4025
45.9664
40.8846
39.5336
39.3654
39.4925
39.6543
39.835
40.0067
40.1851
40.359
40.5401
40.7226
40.9148
41.1142
41.3264
41.551
41.7942
42.0555
42.3422
42.6512
42.9912
43.3571
43.7622
44.1925
44.6726
45.1682
45.727
46.3035
46.9981
47.7263
48.6632
49.5565
50.6996
51.752
53.5702
55.5523
58.7468
61.6222
66.5707
69.8692
75.0744
75.3091
76.0725
72.7539
82.1843
89.673
111.515
127.413
217.14
363.08
439.835
383.666
181.313
111.991
85.1263
74.7333
68.9719
65.1938
60.1981
58.74
55.9209
54.8723
53.1399
52.9002
52.0888
51.8424
50.9894
50.8404
50.2815
49.8382
49.1094
48.1707
46.9397
45.8926
45.2629
44.8168
44.4869
44.3805
44.3584
44.2519
44.0426
43.7845
43.6201
43.3939
43.3297
43.0778
43.0972
42.839
43.0716
43.0114
43.3903
43.8263
43.681
45.5569
45.2451
41.8529
67.6434
74.0904
58.4744
45.9853
40.8779
39.5212
39.353
39.4813
39.644
39.8255
39.9977
40.1764
40.3505
40.5316
40.714
40.9061
41.1052
41.317
41.5411
41.7838
42.0445
42.3305
42.6388
42.978
43.3429
43.7468
44.1761
44.6545
45.1486
45.7049
46.2789
46.9703
47.6956
48.6291
49.5184
50.654
51.697
53.5056
55.4849
58.6737
61.5472
66.497
69.8072
75.0302
75.2566
75.9452
72.5467
81.9507
89.4546
111.395
127.221
216.99
362.834
434.045
375.479
179.047
111.252
84.7259
74.4752
68.7327
65.0047
60.046
58.5958
55.7919
54.7595
53.0454
52.8185
52.0148
51.7788
50.9362
50.7955
50.2412
49.801
49.0759
48.1357
46.9003
45.8507
45.2257
44.7841
44.4584
44.3583
44.3424
44.2394
44.0307
43.7732
43.6101
43.3862
43.3245
43.0747
43.0971
42.8406
43.0814
43.026
43.424
43.8736
43.7553
45.7285
45.4896
42.0179
67.7568
74.2149
58.5446
46.0032
40.8709
39.5087
39.3406
39.4701
39.6338
39.8161
39.9887
40.1679
40.3421
40.5233
40.7056
40.8975
41.0964
41.3079
41.5316
41.7738
42.0339
42.3194
42.627
42.9654
43.3295
43.7324
44.1606
44.6376
45.1303
45.6843
46.2559
46.9441
47.6668
48.5971
49.4828
50.6109
51.645
53.4443
55.4219
58.6053
61.4768
66.4278
69.7493
74.9901
75.2057
75.8171
72.3367
81.7167
89.227
111.264
126.983
216.693
362.559
428.118
367.084
176.67
110.453
84.2893
74.2003
68.4777
64.8074
59.8892
58.4486
55.6604
54.6448
52.9494
52.7355
51.9397
51.7141
50.8819
50.7498
50.2007
49.7639
49.0428
48.1016
46.8618
45.8094
45.1891
44.7518
44.4301
44.3362
44.3267
44.2273
44.0194
43.7625
43.6008
43.3794
43.3202
43.0726
43.0982
42.8436
43.0929
43.0425
43.4603
43.9241
43.8346
45.9104
45.7618
42.2106
67.8695
74.3373
58.6133
46.0203
40.8635
39.4961
39.3282
39.4589
39.6235
39.8066
39.9799
40.1593
40.3338
40.515
40.6973
40.8891
41.0878
41.2991
41.5224
41.7642
42.0238
42.3087
42.6158
42.9534
43.3168
43.7188
44.146
44.6218
45.1132
45.6649
46.2344
46.9196
47.6399
48.5673
49.4497
50.5706
51.5962
53.3865
55.3635
58.5418
61.4114
66.3634
69.6959
74.9547
75.1571
75.6892
72.1252
81.4838
88.9923
111.125
126.704
216.262
362.312
422.174
358.566
174.208
109.605
83.8219
73.9119
68.2096
64.6039
59.7291
58.3001
55.5275
54.5291
52.8527
52.6519
51.8641
51.6489
50.827
50.7038
50.1605
49.7271
49.0107
48.0686
46.8246
45.7691
45.1531
44.72
44.4023
44.3146
44.3115
44.2158
44.0087
43.7526
43.5924
43.3734
43.317
43.0717
43.1007
42.8481
43.1061
43.0612
43.4993
43.9781
43.919
46.1028
46.068
42.4425
67.9815
74.4576
58.6805
46.0365
40.8557
39.4834
39.3157
39.4477
39.6133
39.7972
39.971
40.1509
40.3256
40.5069
40.6892
40.8809
41.0795
41.2906
41.5136
41.755
42.0142
42.2987
42.6051
42.9422
43.305
43.7061
44.1325
44.607
45.0973
45.6469
46.2144
46.8967
47.615
48.5396
49.4191
50.533
51.5505
53.3322
55.3096
58.4833
61.3511
66.3042
69.6476
74.9245
75.1116
75.5623
71.9132
81.2533
88.7527
110.982
126.389
215.713
362.151
416.33
350.013
171.686
108.716
83.3296
73.6133
67.9316
64.3964
59.5673
58.1515
55.3946
54.4135
52.7562
52.5682
51.7886
51.5837
50.7721
50.6577
50.1209
49.6911
48.9799
48.037
46.7888
45.73
45.1182
44.689
44.3751
44.2934
44.2969
44.2049
43.9987
43.7434
43.5849
43.3684
43.3149
43.072
43.1045
42.8541
43.121
43.0819
43.541
44.0355
44.0086
46.3059
46.4169
42.7316
68.0927
74.5758
58.7462
46.052
40.8477
39.4706
39.3033
39.4365
39.6031
39.7879
39.9622
40.1425
40.3175
40.4989
40.6812
40.8729
41.0714
41.2823
41.5051
41.7461
42.005
42.2891
42.5951
42.9317
43.2938
43.6942
44.12
44.5933
45.0826
45.6303
46.1959
46.8756
47.592
48.514
49.3911
50.4981
51.508
53.2814
55.2602
58.4299
61.2961
66.2504
69.6045
74.8996
75.0695
75.4371
71.7019
81.0265
88.5102
110.836
126.043
215.062
362.129
410.706
341.508
169.128
107.797
82.8179
73.3077
67.6466
64.1867
59.4053
58.0041
55.2626
54.2989
52.6605
52.4853
51.7139
51.5191
50.7176
50.6122
50.0822
49.6563
48.9505
48.0072
46.7548
45.6922
45.0843
44.6588
44.3486
44.2728
44.2829
44.1947
43.9896
43.7352
43.5783
43.3645
43.3139
43.0735
43.1097
42.8616
43.1377
43.1048
43.5854
44.0963
44.1035
46.5198
46.8196
43.1069
68.2032
74.6919
58.8105
46.0667
40.8393
39.4578
39.2908
39.4254
39.593
39.7785
39.9534
40.1342
40.3094
40.491
40.6733
40.8651
41.0635
41.2743
41.4968
41.7377
41.9962
42.28
42.5856
42.9218
43.2835
43.6832
44.1083
44.5807
45.0691
45.615
46.1789
46.856
47.5708
48.4905
49.3654
50.4658
51.4686
53.2341
55.2152
58.3816
61.2463
66.202
69.5669
74.8805
75.0313
75.3144
71.4922
80.8044
88.2667
110.689
125.672
214.324
362.296
405.416
333.133
166.559
106.857
82.2926
72.9984
67.3575
63.9769
59.2444
57.859
55.1327
54.1859
52.5662
52.4036
51.6405
51.4555
50.6638
50.5675
50.0449
49.6228
48.9229
47.9792
46.7227
45.656
45.0517
44.6297
44.3229
44.253
44.2698
44.1854
43.9815
43.7279
43.5728
43.3616
43.3142
43.0764
43.1163
42.8706
43.1562
43.1297
43.6325
44.1604
44.2036
46.7444
47.2914
43.6161
68.3128
74.806
58.8734
46.0807
40.8307
39.4449
39.2784
39.4142
39.5828
39.7692
39.9447
40.1259
40.3014
40.4832
40.6656
40.8574
41.0559
41.2665
41.4889
41.7295
41.9878
42.2713
42.5767
42.9124
43.2738
43.6729
44.0976
44.569
45.0567
45.6008
46.1633
46.838
47.5515
48.469
49.342
50.436
51.4321
53.19
55.1745
58.338
61.2017
66.1591
69.5349
74.8671
74.9973
75.1948
71.285
80.5881
88.0242
110.544
125.282
213.517
362.696
400.57
324.964
164.004
105.906
81.7593
72.6883
67.0671
63.7686
59.086
57.7173
55.0056
54.0754
52.4741
52.3237
51.5689
51.3934
50.6112
50.5239
50.0091
49.591
48.8973
47.9533
46.6926
45.6214
45.0204
44.6018
44.2982
44.234
44.2575
44.177
43.9742
43.7215
43.5683
43.3599
43.3156
43.0805
43.1243
42.8811
43.1763
43.1565
43.6821
44.2277
44.3087
46.9797
47.8527
44.3365
68.4216
74.9179
58.9349
46.0941
40.8218
39.4319
39.266
39.4031
39.5727
39.7599
39.936
40.1176
40.2935
40.4754
40.658
40.8499
41.0484
41.259
41.4812
41.7217
41.9798
42.2631
42.5682
42.9037
43.2647
43.6634
44.0876
44.5583
45.0453
45.5878
46.149
46.8214
47.5337
48.4494
49.3208
50.4086
51.3983
53.149
55.1377
58.299
61.162
66.1214
69.5083
74.8595
74.9677
75.0787
71.0811
80.3781
87.7843
110.403
124.879
212.66
363.37
396.272
317.077
161.486
104.955
81.2236
72.3802
66.7779
63.5636
58.9311
57.5799
54.8822
53.9681
52.3845
52.246
51.4995
51.3331
50.5601
50.4818
49.9751
49.5611
48.8738
47.9297
46.6646
45.5886
44.9907
44.5751
44.2745
44.2159
44.2461
44.1696
43.968
43.7162
43.5649
43.3592
43.3182
43.0858
43.1335
42.893
43.198
43.1852
43.7341
44.2979
44.4186
47.2255
48.5304
45.3896
68.5295
75.0277
58.9951
46.1067
40.8127
39.4189
39.2536
39.392
39.5626
39.7507
39.9274
40.1095
40.2857
40.4678
40.6505
40.8425
41.041
41.2516
41.4738
41.7141
41.9721
42.2552
42.5602
42.8954
43.2562
43.6545
44.0784
44.5483
45.0348
45.5759
46.1359
46.8061
47.5175
48.4314
49.3016
50.3834
51.367
53.1109
55.1045
58.2643
61.1269
66.0888
69.4871
74.8576
74.9428
74.9666
70.8811
80.175
87.5484
110.267
124.468
211.769
364.35
392.612
309.539
159.029
104.012
80.6904
72.0766
66.4924
63.3631
58.7807
57.4476
54.7632
53.8644
52.298
52.171
51.4327
51.275
50.5107
50.4414
49.9431
49.5331
48.8525
47.9083
46.6388
45.5576
44.9624
44.5497
44.2519
44.1987
44.2357
44.1632
43.9628
43.7118
43.5624
43.3595
43.322
43.0923
43.1441
42.9063
43.2212
43.2157
43.7884
44.371
44.5331
47.4819
49.3593
46.9512
68.6365
75.1354
59.0539
46.1188
40.8034
39.4059
39.2412
39.381
39.5526
39.7415
39.9188
40.1013
40.2778
40.4602
40.6431
40.8352
41.0338
41.2444
41.4665
41.7068
41.9646
42.2477
42.5525
42.8876
43.2482
43.6461
44.0698
44.5391
45.0252
45.5648
46.1238
46.792
47.5027
48.415
49.2843
50.3601
51.3381
53.0754
55.0746
58.2336
61.0961
66.061
69.471
74.8613
74.9225
74.8587
70.6854
79.9792
87.3179
110.137
124.053
210.863
365.663
389.671
302.415
156.654
103.086
80.1646
71.78
66.2126
63.1686
58.6356
57.321
54.6492
53.7648
52.215
52.099
51.3688
51.2194
50.4633
50.4029
49.9133
49.5074
48.8335
47.8893
46.6152
45.5285
44.9357
44.5256
44.2304
44.1826
44.2262
44.1577
43.9585
43.7084
43.561
43.3609
43.3268
43.0999
43.1557
42.9207
43.2458
43.2477
43.8448
44.4467
44.6518
47.7489
50.3828
49.2333
68.7427
75.241
59.1115
46.1303
40.7939
39.3929
39.2289
39.37
39.5426
39.7323
39.9102
40.0932
40.2701
40.4527
40.6357
40.828
41.0267
41.2373
41.4594
41.6996
41.9574
42.2404
42.5452
42.8801
43.2406
43.6383
44.0618
44.5305
45.0163
45.5546
46.1127
46.779
47.489
48.4
49.2685
50.3387
51.3111
53.0422
55.0476
58.2064
61.0692
66.0375
69.4597
74.8702
74.9069
74.7553
70.4946
79.791
87.0937
110.016
123.642
209.962
367.33
387.512
295.76
154.381
102.185
79.6506
71.4924
65.9406
62.981
58.4965
57.2007
54.5405
53.6696
52.1356
52.0302
51.3081
51.1665
50.4181
50.3665
49.8857
49.4838
48.8168
47.8726
46.5937
45.5012
44.9106
44.5028
44.21
44.1674
44.2178
44.1533
43.9552
43.7059
43.5605
43.3632
43.3326
43.1086
43.1685
42.9363
43.2716
43.2811
43.9032
44.5247
44.7742
48.027
51.6509
52.4024
68.848
75.3443
59.1677
46.1412
40.7843
39.3799
39.2165
39.359
39.5326
39.7231
39.9016
40.0851
40.2623
40.4452
40.6284
40.8208
41.0197
41.2303
41.4525
41.6927
41.9504
42.2334
42.5381
42.8729
43.2334
43.6309
44.0542
44.5225
45.008
45.5451
46.1023
46.7668
47.4764
48.3861
49.2541
50.3188
51.2859
53.011
55.023
58.1823
61.0457
66.018
69.4529
74.8841
74.8958
74.6566
70.3087
79.6102
86.8768
109.904
123.237
209.082
369.365
386.185
289.624
152.23
101.316
79.1523
71.2155
65.678
62.8013
58.364
57.0869
54.4376
53.5793
52.0602
51.9649
51.2507
51.1165
50.3752
50.3323
49.8605
49.4626
48.8024
47.8582
46.5744
45.4757
44.8869
44.4813
44.1906
44.1532
44.2103
44.1498
43.9529
43.7043
43.5609
43.3665
43.3393
43.1181
43.1822
42.9528
43.2985
43.3158
43.9633
44.6049
44.8999
48.3172
53.2134
56.4389
68.9524
75.4455
59.2226
46.1516
40.7745
39.3669
39.2043
39.348
39.5226
39.7139
39.8931
40.0771
40.2546
40.4377
40.6211
40.8137
41.0127
41.2235
41.4456
41.6858
41.9435
42.2265
42.5312
42.866
43.2264
43.6238
44.0471
44.5149
45.0002
45.5362
46.0926
46.7553
47.4647
48.3733
49.2409
50.3003
51.2622
52.9816
55.0006
58.1608
61.0252
66.002
69.4501
74.9027
74.8892
74.5625
70.1281
79.4369
86.6678
109.802
122.843
208.24
371.776
385.724
284.049
150.215
100.485
78.6731
70.9508
65.4262
62.6302
58.2385
56.9801
54.3406
53.4938
51.9888
51.9032
51.1967
51.0695
50.3349
50.3005
49.8377
49.4436
48.7904
47.846
46.5571
45.4519
44.8648
44.4612
44.1724
44.14
44.2039
44.1472
43.9514
43.7036
43.5621
43.3705
43.3468
43.1285
43.1967
42.9701
43.3263
43.3516
44.0249
44.6868
45.0281
48.6207
55.104
61.0545
69.056
75.5443
59.2762
46.1614
40.7646
39.354
39.1921
39.3371
39.5127
39.7048
39.8846
40.069
40.2469
40.4302
40.6139
40.8066
41.0058
41.2166
41.4388
41.679
41.9367
42.2198
42.5245
42.8592
43.2197
43.6169
44.0402
44.5076
44.9928
45.5277
46.0834
46.7445
47.4536
48.3613
49.2287
50.2828
51.2397
52.9535
54.9798
58.1415
61.007
65.9891
69.4508
74.9256
74.8867
74.4732
69.9528
79.2708
86.4672
109.711
122.463
207.454
374.564
386.144
279.069
148.352
99.6994
78.2158
70.6994
65.1863
62.4682
58.1202
56.8803
54.2497
53.4134
51.9216
51.8452
51.1463
51.0255
50.297
50.271
49.8173
49.4269
48.7805
47.836
46.5417
45.4298
44.844
44.4422
44.1553
44.1277
44.1983
44.1456
43.9507
43.7036
43.5641
43.3752
43.3551
43.1397
43.2119
42.9882
43.355
43.3883
44.0879
44.7704
45.1583
48.9396
57.316
65.7843
69.1586
75.6409
59.3284
46.1708
40.7547
39.3411
39.1799
39.3263
39.5028
39.6957
39.8761
40.061
40.2392
40.4228
40.6066
40.7995
40.9989
41.2098
41.432
41.6723
41.93
42.2131
42.5179
42.8526
43.2131
43.6102
44.0336
44.5006
44.9857
45.5195
46.0747
46.7341
47.443
48.3499
49.2173
50.2663
51.2181
52.9265
54.9601
58.1239
60.9907
65.9786
69.4547
74.9523
74.8883
74.3886
69.7826
79.1114
86.2752
109.63
122.101
206.738
377.725
387.448
274.707
146.65
98.9624
77.7828
70.4624
64.9592
62.3158
58.0092
56.7875
54.1648
53.3381
51.8585
51.7909
51.0994
50.9846
50.2617
50.2439
49.7992
49.4124
48.7728
47.8279
46.5281
45.4093
44.8246
44.4245
44.1391
44.1164
44.1937
44.1448
43.9508
43.7042
43.5667
43.3806
43.364
43.1514
43.2278
43.0068
43.3842
43.4256
44.152
44.8552
45.2895
49.2762
59.7756
70.1738
69.2604
75.7351
59.3793
46.1796
40.7446
39.3282
39.1679
39.3155
39.4929
39.6866
39.8676
40.0529
40.2315
40.4153
40.5993
40.7924
40.9919
41.203
41.4253
41.6655
41.9233
42.2065
42.5113
42.8461
43.2066
43.6036
44.0271
44.4938
44.9788
45.5116
46.0662
46.7239
47.4329
48.3389
49.2064
50.2503
51.1971
52.9002
54.9413
58.1076
60.9756
65.97
69.461
74.9823
74.8935
74.3085
69.6177
78.9585
86.0919
109.56
121.76
206.106
381.25
389.618
270.98
145.12
98.278
77.376
70.2402
64.7455
62.173
57.9057
56.7018
54.0861
53.2679
51.7995
51.7403
51.0559
50.9468
50.229
50.2192
49.7834
49.4001
48.767
47.8218
46.5162
45.3901
44.8064
44.4079
44.124
44.106
44.1899
44.1448
43.9516
43.7056
43.5699
43.3866
43.3735
43.1637
43.244
43.0259
43.414
43.4635
44.217
44.941
45.421
49.633
62.3296
73.8938
69.3612
75.8268
59.4288
46.188
40.7345
39.3154
39.1559
39.3047
39.4831
39.6776
39.8591
40.0449
40.2237
40.4078
40.5921
40.7853
40.985
41.1961
41.4185
41.6588
41.9166
42.1998
42.5047
42.8395
43.2001
43.5971
44.0206
44.487
44.972
45.5038
46.0578
46.714
47.4229
48.3283
49.1959
50.2348
51.1765
52.8744
54.9228
58.092
60.9612
65.9629
69.4693
75.0154
74.9022
74.2329
69.4577
78.8113
85.9172
109.501
121.44
205.57
385.127
392.629
267.895
143.766
97.6491
76.9966
70.0332
64.5457
62.04
57.8095
56.6229
54.0132
53.2027
51.7446
51.6934
51.0159
50.9121
50.1987
50.1968
49.7698
49.3898
48.7632
47.8173
46.5057
45.3723
44.7894
44.3923
44.1097
44.0964
44.1869
44.1455
43.9529
43.7074
43.5735
43.393
43.3833
43.1763
43.2607
43.0452
43.4441
43.5018
44.2828
45.0276
45.5518
50.0124
64.7637
76.7536
69.4612
75.9161
59.4769
46.1959
40.7243
39.3027
39.1439
39.294
39.4733
39.6685
39.8506
40.0368
40.216
40.4003
40.5847
40.7782
40.978
41.1892
41.4117
41.652
41.9098
42.1931
42.4981
42.8329
43.1936
43.5905
44.0141
44.4802
44.9652
45.496
46.0495
46.7041
47.413
48.3178
49.1855
50.2196
51.156
52.8488
54.9042
58.0769
60.947
65.9568
69.479
75.0509
74.914
74.1617
69.3026
78.6692
85.7508
109.453
121.145
205.14
389.337
396.437
265.451
142.594
97.0774
76.6456
69.8416
64.3599
61.9167
57.7205
56.5508
53.9461
53.1423
51.6935
51.65
50.9792
50.8802
50.1709
50.1767
49.7583
49.3815
48.761
47.8145
46.4966
45.3557
44.7734
44.3777
44.0963
44.0876
44.1846
44.1469
43.9549
43.7097
43.5776
43.3998
43.3936
43.1893
43.2775
43.0648
43.4743
43.5403
44.3491
45.1146
45.6811
50.4156
66.8502
78.68
69.5603
76.0029
59.5237
46.2034
40.7141
39.29
39.1321
39.2834
39.4636
39.6595
39.8422
40.0287
40.2082
40.3927
40.5774
40.771
40.971
41.1823
41.4048
41.6451
41.903
42.1864
42.4914
42.8262
43.187
43.5839
44.0076
44.4734
44.9584
45.4882
46.0411
46.6942
47.403
48.3072
49.1752
50.2044
51.1353
52.8231
54.8852
58.0618
60.9323
65.951
69.4895
75.0886
74.9285
74.0947
69.152
78.5317
85.5925
109.414
120.874
204.825
393.861
400.992
263.64
141.603
96.5641
76.3234
69.6654
64.1881
61.803
57.6385
56.4851
53.8844
53.0867
51.6461
51.61
50.9456
50.8513
50.1454
50.1587
49.7488
49.375
48.7604
47.813
46.4886
45.3401
44.7584
44.3639
44.0836
44.0796
44.1831
44.149
43.9573
43.7124
43.582
43.4069
43.404
43.2024
43.2945
43.0844
43.5047
43.5789
44.4158
45.2017
45.8079
50.8429
68.4056
79.7045
69.6585
76.0871
59.569
46.2104
40.7038
39.2774
39.1203
39.2728
39.4539
39.6505
39.8337
40.0207
40.2004
40.3851
40.5699
40.7637
40.9639
41.1753
41.3978
41.6382
41.8961
42.1795
42.4845
42.8194
43.1803
43.5771
44.0009
44.4664
44.9514
45.4802
46.0326
46.684
47.3929
48.2966
49.1648
50.1891
51.1144
52.7971
54.8653
58.0463
60.9167
65.9452
69.5003
75.1279
74.9455
74.0317
69.0058
78.398
85.4415
109.385
120.629
204.631
398.675
406.232
262.445
140.793
96.1095
76.03
69.5042
64.0303
61.6987
57.5631
56.4256
53.8281
53.0357
51.6023
51.5733
50.9151
50.825
50.1222
50.1429
49.7412
49.3702
48.7613
47.8128
46.4815
45.3255
44.7442
44.351
44.0717
44.0722
44.1821
44.1515
43.9601
43.7154
43.5867
43.4142
43.4146
43.2157
43.3114
43.104
43.535
43.6173
44.4827
45.2887
45.9315
51.2928
69.3308
79.9591
69.7558
76.1685
59.6129
46.2169
40.6936
39.2649
39.1086
39.2623
39.4442
39.6415
39.8252
40.0126
40.1926
40.3775
40.5625
40.7564
40.9567
41.1682
41.3907
41.6311
41.889
42.1725
42.4776
42.8125
43.1734
43.5702
43.994
44.4592
44.9442
45.472
46.0238
46.6737
47.3824
48.2857
49.1541
50.1736
51.0928
52.7706
54.8442
58.0301
60.8995
65.9388
69.5107
75.1684
74.9647
73.9726
68.8636
78.2673
85.2975
109.365
120.41
204.562
403.754
412.089
261.847
140.163
95.7134
75.7651
69.3578
63.8862
61.6035
57.4942
56.372
53.7767
52.9891
51.5619
51.5398
50.8874
50.8014
50.101
50.129
49.7353
49.3669
48.7633
47.8136
46.4753
45.3117
44.7308
44.3388
44.0605
44.0655
44.1818
44.1546
43.9632
43.7187
43.5915
43.4217
43.4253
43.229
43.3283
43.1234
43.5651
43.6556
44.5497
45.3753
46.051
51.7622
69.6228
79.6667
69.8522
76.2473
59.6553
46.2231
40.6833
39.2525
39.097
39.2518
39.4346
39.6326
39.8168
40.0045
40.1847
40.3698
40.5549
40.749
40.9494
41.161
41.3835
41.6239
41.8818
42.1654
42.4705
42.8054
43.1663
43.563
43.9869
44.4518
44.9368
45.4636
46.0148
46.663
47.3716
48.2744
49.143
50.1577
51.0706
52.7434
54.8216
58.013
60.8804
65.9315
69.5201
75.2099
74.9858
73.9173
68.7254
78.1388
85.1595
109.353
120.216
204.622
409.073
418.491
261.821
139.709
95.3749
75.5284
69.2257
63.7554
61.517
57.4313
56.324
53.73
52.9467
51.5247
51.5093
50.8624
50.7802
50.0819
50.117
49.731
49.3651
48.7665
47.8154
46.4698
45.2986
44.718
44.3273
44.0499
44.0594
44.182
44.1581
43.9666
43.7221
43.5964
43.4292
43.436
43.2422
43.3451
43.1426
43.595
43.6936
44.6166
45.4611
46.166
52.2465
69.3639
79.1169
69.9477
76.3232
59.6963
46.2288
40.673
39.2403
39.0855
39.2414
39.425
39.6237
39.8083
39.9964
40.1768
40.362
40.5473
40.7416
40.9421
41.1536
41.3762
41.6166
41.8745
42.158
42.4632
42.798
43.1591
43.5556
43.9796
44.4442
44.9291
45.4549
46.0054
46.652
47.3604
48.2627
49.1314
50.1414
51.0475
52.7154
54.797
57.9947
60.8587
65.9229
69.5281
75.252
75.0085
73.8659
68.5908
78.012
85.027
109.347
120.047
204.811
414.604
425.36
262.338
139.425
95.0927
75.3189
69.1073
63.6376
61.4389
57.3743
56.2813
53.6877
52.9085
51.4904
51.4817
50.8399
50.7614
50.0646
50.1068
49.7281
49.3647
48.7706
47.8179
46.4649
45.2861
44.7058
44.3164
44.0398
44.0539
44.1826
44.162
43.9701
43.7257
43.6013
43.4367
43.4466
43.2554
43.3616
43.1615
43.6245
43.7312
44.6832
45.5458
46.2759
52.7399
68.6955
78.6241
70.0423
76.3962
59.7357
46.2341
40.6627
39.2281
39.0741
39.2311
39.4155
39.6148
39.7999
39.9882
40.1689
40.3542
40.5397
40.734
40.9346
41.1462
41.3688
41.6091
41.867
42.1506
42.4557
42.7905
43.1515
43.548
43.972
44.4362
44.921
45.4458
45.9956
46.6405
47.3486
48.2505
49.1192
50.1245
51.0234
52.6864
54.7703
57.9749
60.834
65.9125
69.5341
75.2944
75.0326
73.8182
68.4598
77.8859
84.899
109.347
119.902
205.127
420.32
432.618
263.369
139.309
94.8655
75.136
69.0021
63.5323
61.3688
57.3227
56.2438
53.6496
52.8743
51.4591
51.4569
50.8197
50.7448
50.0491
50.0983
49.7267
49.3655
48.7756
47.8211
46.4604
45.2742
44.6942
44.3061
44.0304
44.0489
44.1837
44.1662
43.9739
43.7293
43.6063
43.4442
43.4571
43.2683
43.3778
43.18
43.6536
43.7682
44.7495
45.6291
46.3805
53.2362
67.7902
78.4794
70.136
76.4663
59.7736
46.2389
40.6525
39.216
39.0628
39.2209
39.4061
39.6059
39.7915
39.9801
40.161
40.3464
40.532
40.7264
40.9271
41.1387
41.3612
41.6015
41.8593
42.1429
42.448
42.7828
43.1438
43.5401
43.9641
44.428
44.9127
45.4363
45.9854
46.6285
47.3363
48.2378
49.1063
50.1071
50.9981
52.6562
54.7411
57.9536
60.8059
65.9002
69.5374
75.3368
75.058
73.7743
68.3323
77.76
84.7747
109.352
119.78
205.57
426.194
440.187
264.884
139.353
94.6915
74.9787
68.9095
63.4392
61.3064
57.2764
56.211
53.6155
52.8441
51.4304
51.4349
50.8017
50.7304
50.0352
50.0913
49.7265
49.3675
48.7814
47.8249
46.4564
45.2629
44.6832
44.2964
44.0215
44.0444
44.1853
44.1707
43.9777
43.733
43.6111
43.4516
43.4674
43.281
43.3936
43.1981
43.6822
43.8046
44.8151
45.7107
46.4795
53.7292
66.8254
78.907
70.2288
76.5333
59.8099
46.2434
40.6422
39.2041
39.0516
39.2107
39.3966
39.5971
39.783
39.9719
40.153
40.3385
40.5242
40.7187
40.9195
41.1311
41.3535
41.5938
41.8515
42.135
42.4401
42.7748
43.1358
43.532
43.9559
44.4194
44.9039
45.4264
45.9747
46.616
47.3233
48.2244
49.0927
50.089
50.9715
52.6249
54.709
57.9307
60.774
65.8856
69.5377
75.3791
75.0846
73.7343
68.2085
77.6335
84.6533
109.36
119.68
206.135
432.197
447.993
266.853
139.555
94.569
74.8461
68.8291
63.358
61.2514
57.2351
56.1831
53.5851
52.8177
51.4044
51.4154
50.7858
50.718
50.0229
50.0859
49.7275
49.3706
48.7878
47.8292
46.4526
45.2521
44.6727
44.2874
44.0133
44.0405
44.1872
44.1754
43.9817
43.7366
43.6158
43.4588
43.4774
43.2935
43.409
43.2157
43.7102
43.8404
44.8801
45.7903
46.5732
54.2133
65.9633
80.0463
70.3207
76.5972
59.8446
46.2474
40.632
39.1923
39.0405
39.2006
39.3873
39.5883
39.7746
39.9638
40.145
40.3306
40.5163
40.7109
40.9118
41.1234
41.3457
41.5859
41.8435
42.127
42.432
42.7666
43.1275
43.5235
43.9474
44.4104
44.8947
45.4162
45.9635
46.6029
47.3096
48.2104
49.0783
50.0702
50.9435
52.5923
54.6739
57.906
60.738
65.8685
69.5345
75.4211
75.1124
73.6985
68.0885
77.5059
84.5339
109.369
119.601
206.817
438.305
455.961
269.249
139.909
94.4965
74.7374
68.7604
63.2884
61.2037
57.1989
56.1597
53.5586
52.7953
51.381
51.3986
50.7718
50.7075
50.012
50.0819
49.7296
49.3748
48.7949
47.834
46.4492
45.2419
44.6628
44.2789
44.0057
44.0372
44.1896
44.1805
43.9857
43.7402
43.6204
43.4659
43.4872
43.3056
43.424
43.2329
43.7376
43.8754
44.9442
45.8676
46.6617
54.6837
65.3374
81.9578
70.4117
76.6578
59.8777
46.251
40.6219
39.1806
39.0295
39.1906
39.378
39.5795
39.7662
39.9556
40.1369
40.3227
40.5084
40.7031
40.904
41.1155
41.3378
41.5779
41.8354