/*--------------------------------*- C++ -*----------------------------------*\
| =========                 |                                                 |
| \\      /  F ield         | OpenFOAM: The Open Source CFD Toolbox           |
|  \\    /   O peration     | Version:  2412                                  |
|   \\  /    A nd           | Website:  www.openfoam.com                      |
|    \\/     M anipulation  |                                                 |
\*---------------------------------------------------------------------------*/
FoamFile
{
    version     2.0;
    format      ascii;
    arch        "LSB;label=32;scalar=64";
    class       volScalarField;
    location    "0.1";
    object      nut;
}
// * * * * * * * * * * * * * * * * * * * * * * * * * * * * * * * * * * * * * //

dimensions      [0 2 -1 0 0 0 0];

internalField   nonuniform List<scalar> 
13077
(
0.349156
0.337565
0.291865
0.282881
0.306785
0.327325
0.335622
0.338109
0.338778
0.339082
0.339266
0.339466
0.339647
0.339854
0.340056
0.340282
0.340514
0.340769
0.34104
0.34134
0.34166
0.342016
0.342393
0.34281
0.34325
0.343739
0.344246
0.344813
0.34538
0.346037
0.346706
0.347549
0.348408
0.349533
0.350525
0.351845
0.353004
0.355161
0.357231
0.349009
0.337457
0.291608
0.282484
0.306494
0.327207
0.335582
0.338093
0.338766
0.339072
0.339255
0.339456
0.339637
0.339843
0.340045
0.34027
0.340501
0.340755
0.341025
0.341324
0.341643
0.341998
0.342373
0.342789
0.343228
0.343715
0.34422
0.344785
0.345349
0.346003
0.346668
0.347507
0.348363
0.349485
0.350471
0.351783
0.35293
0.355082
0.357145
0.360534
0.362997
0.367796
0.369649
0.373574
0.371497
0.37243
0.368683
0.379414
0.383234
0.398522
0.402161
0.42581
0.4471
0.434776
0.472339
0.260146
0.286112
0.336438
0.355286
0.357327
0.356893
0.353367
0.354909
0.351969
0.35208
0.35054
0.351296
0.350503
0.350428
0.348858
0.337347
0.291352
0.282089
0.306203
0.327089
0.335543
0.338077
0.338755
0.339062
0.339245
0.339446
0.339626
0.339832
0.340033
0.340257
0.340488
0.340741
0.34101
0.341308
0.341626
0.34198
0.342354
0.342768
0.343205
0.343691
0.344194
0.344756
0.345318
0.345968
0.34663
0.347465
0.348317
0.349436
0.350417
0.35172
0.352856
0.355002
0.357059
0.360456
0.362931
0.367743
0.369614
0.373557
0.371489
0.372353
0.368532
0.379281
0.383191
0.398576
0.40235
0.426987
0.449072
0.435217
0.472231
0.261243
0.287007
0.336656
0.355268
0.357341
0.35685
0.353332
0.354852
0.351926
0.352038
0.350508
0.351264
0.350473
0.350404
0.349366
0.349663
0.348911
0.348522
0.347576
0.346419
0.344942
0.344044
0.343725
0.343403
0.343162
0.343262
0.343291
0.343105
0.342761
0.342454
0.342344
0.342035
0.342117
0.341651
0.34197
0.341395
0.342203
0.341776
0.342626
0.342953
0.342152
0.345027
0.340973
0.334117
0.348706
0.337233
0.291095
0.281699
0.305916
0.326972
0.335504
0.33806
0.338744
0.339052
0.339235
0.339435
0.339615
0.33982
0.340021
0.340245
0.340475
0.340727
0.340994
0.341292
0.341608
0.341961
0.342334
0.342747
0.343182
0.343666
0.344167
0.344728
0.345286
0.345933
0.346591
0.347423
0.348271
0.349387
0.350361
0.351657
0.35278
0.354921
0.356971
0.360375
0.362863
0.367687
0.369574
0.373536
0.371476
0.372266
0.368369
0.37914
0.383131
0.398616
0.402503
0.427961
0.450904
0.435183
0.471409
0.262183
0.287886
0.336866
0.35525
0.357335
0.356802
0.353292
0.354789
0.351876
0.351991
0.350471
0.351227
0.350437
0.350376
0.349345
0.349643
0.348886
0.348498
0.347551
0.346386
0.344899
0.344003
0.343696
0.343379
0.343142
0.34325
0.343283
0.343097
0.342749
0.342442
0.342334
0.342027
0.342111
0.341646
0.341968
0.341392
0.342214
0.341785
0.342665
0.342987
0.342213
0.345149
0.340789
0.333105
0.348551
0.337114
0.290837
0.281314
0.305633
0.326858
0.335465
0.338044
0.338732
0.339041
0.339225
0.339425
0.339604
0.339809
0.340009
0.340232
0.340461
0.340713
0.340979
0.341275
0.341591
0.341942
0.342314
0.342725
0.343159
0.343641
0.344141
0.344698
0.345255
0.345898
0.346552
0.34738
0.348224
0.349337
0.350306
0.351593
0.352704
0.354839
0.356884
0.360294
0.362792
0.367627
0.36953
0.373511
0.371455
0.372171
0.368194
0.378991
0.383056
0.398642
0.402617
0.42873
0.452606
0.434719
0.469909
0.262974
0.288755
0.33707
0.355233
0.357309
0.35675
0.353247
0.354719
0.35182
0.351941
0.35043
0.351186
0.350397
0.350345
0.349321
0.349621
0.348858
0.348471
0.347524
0.34635
0.344856
0.34396
0.343666
0.343352
0.34312
0.343237
0.343275
0.343089
0.342736
0.342429
0.342322
0.342019
0.342104
0.34164
0.341966
0.341389
0.342224
0.341793
0.342703
0.343021
0.342275
0.34527
0.340489
0.331668
0.348396
0.33699
0.290579
0.280934
0.305355
0.326745
0.335427
0.338028
0.338721
0.339031
0.339214
0.339414
0.339593
0.339797
0.339997
0.340219
0.340447
0.340698
0.340964
0.341259
0.341573
0.341924
0.342293
0.342704
0.343136
0.343616
0.344114
0.344669
0.345223
0.345863
0.346512
0.347337
0.348177
0.349287
0.35025
0.351528
0.352628
0.354756
0.356797
0.360212
0.36272
0.367564
0.369482
0.373483
0.371428
0.372066
0.368008
0.378836
0.382964
0.398655
0.402693
0.429297
0.454193
0.43388
0.467773
0.263629
0.289616
0.337268
0.355218
0.357264
0.356695
0.353199
0.354644
0.351759
0.351886
0.350386
0.351141
0.350353
0.350311
0.349295
0.349595
0.348829
0.348442
0.347496
0.346314
0.344811
0.343916
0.343635
0.343325
0.343097
0.343222
0.343266
0.34308
0.342723
0.342416
0.342311
0.34201
0.342097
0.341635
0.341963
0.341386
0.342235
0.341803
0.342743
0.343056
0.34234
0.34539
0.340022
0.329627
0.348239
0.336861
0.290319
0.280559
0.305082
0.326635
0.33539
0.338012
0.338709
0.33902
0.339203
0.339403
0.339582
0.339785
0.339984
0.340206
0.340434
0.340684
0.340948
0.341242
0.341556
0.341905
0.342273
0.342682
0.343113
0.343591
0.344087
0.34464
0.345191
0.345827
0.346474
0.347294
0.348131
0.349238
0.350195
0.351464
0.352553
0.354674
0.356711
0.36013
0.362645
0.367498
0.36943
0.373452
0.371396
0.371953
0.367811
0.378676
0.382859
0.398655
0.40273
0.429668
0.455684
0.432733
0.465048
0.264162
0.290474
0.337464
0.355208
0.357204
0.356639
0.353149
0.354564
0.351693
0.351829
0.350339
0.351093
0.350305
0.350274
0.349267
0.349567
0.348798
0.348411
0.347467
0.346276
0.344765
0.343871
0.343603
0.343297
0.343073
0.343207
0.343256
0.34307
0.34271
0.342403
0.342299
0.342002
0.34209
0.341629
0.341961
0.341383
0.342247
0.341812
0.342784
0.343093
0.342406
0.345507
0.339316
0.326742
0.348081
0.336729
0.29006
0.28019
0.304813
0.326528
0.335354
0.337996
0.338697
0.339009
0.339192
0.339392
0.339571
0.339774
0.339972
0.340193
0.34042
0.340669
0.340933
0.341226
0.341538
0.341886
0.342253
0.342661
0.34309
0.343566
0.344061
0.344612
0.34516
0.345793
0.346435
0.347252
0.348086
0.349189
0.350141
0.351401
0.352479
0.354592
0.356627
0.360048
0.362571
0.367432
0.369376
0.373418
0.371359
0.371833
0.367607
0.378512
0.38274
0.398643
0.402729
0.429855
0.457102
0.431352
0.461785
0.264589
0.291337
0.33766
0.355204
0.357129
0.356582
0.353097
0.354483
0.351623
0.35177
0.35029
0.351043
0.350254
0.350235
0.349236
0.349537
0.348765
0.348379
0.347437
0.346238
0.344719
0.343824
0.34357
0.343267
0.343048
0.343191
0.343246
0.34306
0.342696
0.34239
0.342287
0.341993
0.342084
0.341624
0.341959
0.34138
0.342258
0.341823
0.342826
0.343131
0.342476
0.345616
0.338273
0.322697
0.347922
0.336594
0.289801
0.279825
0.30455
0.326423
0.335318
0.33798
0.338686
0.338998
0.339182
0.339381
0.339559
0.339762
0.33996
0.34018
0.340406
0.340655
0.340917
0.341209
0.341521
0.341868
0.342234
0.34264
0.343068
0.343542
0.344035
0.344584
0.34513
0.345759
0.346398
0.347211
0.348041
0.349141
0.350088
0.351339
0.352406
0.354512
0.356546
0.359968
0.362496
0.367364
0.369321
0.373384
0.371317
0.371707
0.367395
0.378347
0.382611
0.398622
0.402693
0.429871
0.458473
0.429818
0.458045
0.264932
0.292214
0.337861
0.355209
0.357043
0.356528
0.353045
0.3544
0.351551
0.35171
0.350239
0.35099
0.3502
0.350195
0.349203
0.349506
0.348732
0.348346
0.347407
0.346199
0.344672
0.343777
0.343536
0.343237
0.343023
0.343174
0.343235
0.343049
0.342682
0.342376
0.342275
0.341985
0.342078
0.341619
0.341958
0.341379
0.342271
0.341835
0.342869
0.343172
0.342549
0.345714
0.33676
0.317081
0.347763
0.336455
0.289542
0.279465
0.304291
0.32632
0.335283
0.337964
0.338674
0.338987
0.339171
0.33937
0.339548
0.33975
0.339947
0.340167
0.340393
0.340641
0.340902
0.341193
0.341504
0.34185
0.342215
0.342619
0.343046
0.343519
0.34401
0.344556
0.3451
0.345726
0.346361
0.347171
0.347998
0.349095
0.350038
0.351278
0.352335
0.354434
0.356468
0.35989
0.362423
0.367297
0.369265
0.373349
0.371272
0.371575
0.367178
0.378182
0.382474
0.398593
0.402625
0.429733
0.459821
0.42822
0.453889
0.265213
0.293116
0.338073
0.355227
0.356949
0.356477
0.352994
0.354317
0.351479
0.35165
0.350187
0.350936
0.350146
0.350153
0.34917
0.349473
0.348698
0.348312
0.347377
0.346161
0.344626
0.34373
0.343502
0.343207
0.342997
0.343157
0.343225
0.343039
0.342669
0.342363
0.342264
0.341977
0.342072
0.341615
0.341957
0.341378
0.342285
0.341849
0.342915
0.343215
0.342625
0.345793
0.334602
0.309388
0.347603
0.336314
0.289284
0.27911
0.304037
0.326219
0.335249
0.337949
0.338662
0.338977
0.33916
0.339359
0.339537
0.339738
0.339935
0.340154
0.34038
0.340627
0.340887
0.341178
0.341487
0.341832
0.342196
0.3426
0.343025
0.343496
0.343985
0.34453
0.345072
0.345694
0.346326
0.347132
0.347957
0.34905
0.349988
0.35122
0.352267
0.354358
0.356394
0.359814
0.362351
0.36723
0.369209
0.373314
0.371224
0.371439
0.366957
0.378018
0.38233
0.398558
0.402529
0.429461
0.461173
0.42665
0.449387
0.265456
0.294054
0.338301
0.35526
0.35685
0.356432
0.352946
0.354237
0.351406
0.35159
0.350135
0.350882
0.35009
0.350111
0.349135
0.349439
0.348664
0.348279
0.347348
0.346123
0.344581
0.343683
0.343469
0.343177
0.342971
0.34314
0.343214
0.343028
0.342656
0.34235
0.342253
0.34197
0.342067
0.341612
0.341958
0.341379
0.342301
0.341864
0.342964
0.343261
0.342706
0.345846
0.331572
0.299024
0.347443
0.336171
0.289028
0.278759
0.303787
0.32612
0.335216
0.337933
0.33865
0.338966
0.339149
0.339348
0.339525
0.339726
0.339923
0.340142
0.340367
0.340613
0.340873
0.341163
0.341471
0.341815
0.342178
0.34258
0.343004
0.343474
0.343962
0.344505
0.345044
0.345663
0.346292
0.347094
0.347917
0.349008
0.349942
0.351163
0.352201
0.354285
0.356323
0.359741
0.362281
0.367165
0.369153
0.373279
0.371174
0.3713
0.366733
0.377857
0.382182
0.398518
0.402409
0.429076
0.462551
0.425203
0.444608
0.265689
0.295041
0.338552
0.35531
0.35675
0.356394
0.352902
0.354158
0.351334
0.351531
0.350084
0.350827
0.350035
0.350069
0.3491
0.349406
0.348631
0.348245
0.34732
0.346087
0.344537
0.343636
0.343435
0.343146
0.342945
0.343123
0.343204
0.343018
0.342644
0.342337
0.342243
0.341964
0.342064
0.34161
0.341959
0.341381
0.342318
0.341882
0.343015
0.343311
0.342791
0.345859
0.327387
0.28535
0.347284
0.336027
0.288772
0.278413
0.303542
0.326024
0.335183
0.337918
0.338639
0.338955
0.339138
0.339337
0.339514
0.339715
0.339911
0.34013
0.340354
0.340599
0.340859
0.341148
0.341455
0.341799
0.342161
0.342562
0.342985
0.343453
0.34394
0.34448
0.345018
0.345634
0.34626
0.347059
0.347879
0.348967
0.349897
0.351109
0.352138
0.354214
0.356256
0.359672
0.362214
0.367103
0.3691
0.373246
0.371123
0.371158
0.366509
0.3777
0.382031
0.398476
0.402269
0.428602
0.463979
0.423973
0.439628
0.265939
0.296091
0.338832
0.35538
0.356652
0.356363
0.352862
0.354084
0.351263
0.351474
0.350033
0.350773
0.349979
0.350027
0.349064
0.349372
0.348599
0.348213
0.347293
0.346052
0.344494
0.343589
0.343402
0.343116
0.342919
0.343105
0.343194
0.343009
0.342632
0.342326
0.342234
0.341958
0.342061
0.341609
0.341962
0.341384
0.342336
0.341902
0.343069
0.343365
0.342881
0.345816
0.321703
0.267778
0.347125
0.335882
0.288519
0.278071
0.3033
0.32593
0.335151
0.337903
0.338627
0.338944
0.339127
0.339326
0.339503
0.339704
0.339899
0.340118
0.340341
0.340586
0.340845
0.341133
0.34144
0.341783
0.342144
0.342544
0.342966
0.343433
0.343918
0.344457
0.344993
0.345606
0.346229
0.347025
0.347843
0.348928
0.349855
0.351057
0.352078
0.354147
0.356194
0.359606
0.36215
0.367042
0.369048
0.373215
0.371072
0.371014
0.366285
0.377548
0.38188
0.398432
0.402115
0.428065
0.465471
0.423052
0.434523
0.266235
0.297217
0.339147
0.355472
0.356558
0.356342
0.352827
0.354014
0.351196
0.35142
0.349984
0.35072
0.349925
0.349986
0.349029
0.349339
0.348568
0.348181
0.347269
0.346019
0.344453
0.343544
0.343369
0.343086
0.342893
0.343088
0.343185
0.343
0.342621
0.342315
0.342225
0.341953
0.342059
0.341609
0.341967
0.341389
0.342357
0.341924
0.343127
0.343422
0.342975
0.345696
0.314128
0.245933
0.346967
0.335736
0.288268
0.277734
0.303063
0.325838
0.335119
0.337888
0.338616
0.338933
0.339117
0.339315
0.339492
0.339692
0.339888
0.340106
0.340329
0.340574
0.340832
0.34112
0.341426
0.341768
0.342128
0.342527
0.342948
0.343414
0.343898
0.344436
0.34497
0.345579
0.3462
0.346992
0.34781
0.348892
0.349816
0.351008
0.352021
0.354082
0.356136
0.359544
0.362088
0.366985
0.368999
0.373186
0.37102
0.370869
0.366062
0.377401
0.38173
0.398389
0.401951
0.42749
0.467043
0.422523
0.429369
0.266608
0.29843
0.339503
0.355587
0.356471
0.35633
0.352798
0.35395
0.351131
0.351367
0.349936
0.350669
0.349871
0.349946
0.348994
0.349306
0.348539
0.348151
0.347245
0.345987
0.344413
0.343499
0.343337
0.343056
0.342867
0.343071
0.343176
0.342992
0.342611
0.342305
0.342218
0.34195
0.342059
0.341611
0.341973
0.341396
0.34238
0.341949
0.343188
0.343484
0.343073
0.34547
0.304253
0.219874
0.34681
0.33559
0.288019
0.277402
0.30283
0.325747
0.335089
0.337874
0.338604
0.338923
0.339106
0.339305
0.339482
0.339682
0.339877
0.340094
0.340317
0.340561
0.340819
0.341106
0.341412
0.341753
0.342113
0.342511
0.342931
0.343396
0.343879
0.344415
0.344948
0.345554
0.346173
0.346962
0.347778
0.348857
0.349779
0.350962
0.351967
0.35402
0.356081
0.359485
0.362031
0.36693
0.368952
0.37316
0.370969
0.370724
0.365841
0.37726
0.381582
0.398348
0.401781
0.426904
0.468701
0.422458
0.424243
0.267088
0.299743
0.339903
0.355725
0.356394
0.356328
0.352775
0.353891
0.35107
0.351317
0.34989
0.350618
0.34982
0.349907
0.34896
0.349275
0.348511
0.348123
0.347224
0.345957
0.344375
0.343455
0.343305
0.343027
0.342842
0.343054
0.343168
0.342984
0.342602
0.342295
0.342212
0.341948
0.34206
0.341614
0.34198
0.341405
0.342405
0.341976
0.343252
0.343551
0.343175
0.345104
0.291697
0.190332
0.346654
0.335445
0.287773
0.277075
0.302601
0.325659
0.335059
0.337859
0.338593
0.338912
0.339096
0.339294
0.339471
0.339671
0.339866
0.340083
0.340306
0.34055
0.340807
0.341093
0.341399
0.341739
0.342098
0.342496
0.342915
0.34338
0.343861
0.344396
0.344927
0.345531
0.346147
0.346933
0.347748
0.348825
0.349744
0.350918
0.351916
0.353962
0.356031
0.35943
0.361976
0.366878
0.368909
0.373136
0.370919
0.370578
0.365623
0.377125
0.381439
0.39831
0.401611
0.426332
0.47045
0.422914
0.419221
0.267702
0.301164
0.340351
0.355887
0.356327
0.356336
0.352757
0.353837
0.351012
0.35127
0.349846
0.35057
0.34977
0.34987
0.348926
0.349245
0.348484
0.348095
0.347205
0.345929
0.344338
0.343412
0.343274
0.342998
0.342816
0.343038
0.34316
0.342977
0.342593
0.342287
0.342206
0.341946
0.342062
0.341618
0.341989
0.341415
0.342432
0.342007
0.34332
0.343621
0.343278
0.344554
0.276194
0.158846
0.346501
0.3353
0.28753
0.276752
0.302376
0.325573
0.335029
0.337845
0.338581
0.338901
0.339085
0.339284
0.339461
0.33966
0.339855
0.340072
0.340295
0.340538
0.340795
0.341081
0.341386
0.341726
0.342085
0.342482
0.3429
0.343364
0.343845
0.344377
0.344907
0.345508
0.346123
0.346906
0.347721
0.348796
0.349712
0.350876
0.351867
0.353906
0.355984
0.359379
0.361924
0.366829
0.368868
0.373115
0.370869
0.370433
0.365407
0.376996
0.3813
0.398275
0.401444
0.425798
0.472288
0.423931
0.414374
0.268479
0.302699
0.340848
0.356072
0.356272
0.356354
0.352746
0.353789
0.350958
0.351225
0.349804
0.350522
0.349722
0.349833
0.348893
0.349215
0.34846
0.34807
0.347187
0.345903
0.344302
0.343369
0.343243
0.342968
0.34279
0.343021
0.343152
0.34297
0.342585
0.34228
0.342202
0.341946
0.342066
0.341624
0.342
0.341427
0.342461
0.342039
0.343391
0.343695
0.343383
0.343768
0.257691
0.127644
0.346349
0.335156
0.28729
0.276434
0.302155
0.325488
0.335001
0.337831
0.33857
0.338891
0.339075
0.339274
0.33945
0.33965
0.339844
0.340061
0.340284
0.340527
0.340783
0.341069
0.341374
0.341714
0.342071
0.342468
0.342886
0.343349
0.343829
0.34436
0.344889
0.345488
0.3461
0.346881
0.347695
0.348768
0.349683
0.350837
0.351821
0.353853
0.355941
0.35933
0.361876
0.366783
0.368831
0.373096
0.37082
0.370287
0.365195
0.376873
0.381167
0.398245
0.401284
0.425326
0.47421
0.425527
0.40977
0.269441
0.304353
0.341395
0.356277
0.35623
0.356379
0.352738
0.353747
0.350907
0.351182
0.349763
0.350477
0.349676
0.349798
0.348861
0.349187
0.348436
0.348045
0.347171
0.345878
0.344267
0.343327
0.343211
0.342939
0.342763
0.343003
0.343144
0.342964
0.342578
0.342273
0.342199
0.341947
0.342071
0.341631
0.342012
0.34144
0.342491
0.342074
0.343465
0.343773
0.343486
0.342684
0.236454
0.0991874
0.346199
0.335012
0.287053
0.276121
0.301938
0.325406
0.334973
0.337817
0.338559
0.33888
0.339065
0.339264
0.33944
0.339639
0.339834
0.340051
0.340274
0.340516
0.340772
0.341058
0.341362
0.341702
0.342059
0.342455
0.342873
0.343334
0.343814
0.344344
0.344872
0.345468
0.346079
0.346857
0.347671
0.348742
0.349655
0.3508
0.351777
0.353802
0.3559
0.359284
0.361829
0.366739
0.368796
0.373079
0.370771
0.37014
0.364985
0.376754
0.381039
0.39822
0.401134
0.424938
0.476206
0.427697
0.405469
0.270607
0.306124
0.341988
0.356501
0.356198
0.356412
0.352735
0.353708
0.350859
0.351141
0.349723
0.350432
0.349631
0.349764
0.348829
0.34916
0.348414
0.348021
0.347155
0.345854
0.344233
0.343284
0.343179
0.342908
0.342736
0.342985
0.343136
0.342958
0.342572
0.342267
0.342196
0.341948
0.342077
0.341639
0.342025
0.341455
0.342524
0.342111
0.343543
0.343855
0.343585
0.34123
0.213139
0.075478
0.346052
0.334871
0.286819
0.275813
0.301724
0.325325
0.334945
0.337803
0.338548
0.33887
0.339055
0.339254
0.33943
0.339629
0.339824
0.340041
0.340263
0.340506
0.340762
0.341047
0.341351
0.34169
0.342047
0.342443
0.34286
0.343321
0.3438
0.344329
0.344856
0.34545
0.346059
0.346834
0.347648
0.348717
0.349629
0.350765
0.351735
0.353753
0.355861
0.35924
0.361783
0.366696
0.368763
0.373064
0.370723
0.369992
0.364778
0.376641
0.380917
0.398199
0.400996
0.42465
0.478265
0.430414
0.401524
0.271993
0.308009
0.342624
0.35674
0.356178
0.35645
0.352735
0.353673
0.350812
0.3511
0.349683
0.350389
0.349588
0.349731
0.348797
0.349133
0.348393
0.347998
0.34714
0.34583
0.344199
0.34324
0.343145
0.342876
0.342707
0.342966
0.343128
0.342952
0.342565
0.342261
0.342194
0.341951
0.342083
0.341648
0.342039
0.341471
0.342558
0.34215
0.343623
0.34394
0.343678
0.339329
0.188769
0.0574698
0.345907
0.33473
0.286589
0.27551
0.301515
0.325246
0.334918
0.337789
0.338537
0.33886
0.339045
0.339244
0.33942
0.339619
0.339814
0.340031
0.340253
0.340495
0.340751
0.341036
0.34134
0.341679
0.342036
0.342431
0.342848
0.343308
0.343787
0.344315
0.344841
0.345432
0.346041
0.346813
0.347627
0.348695
0.349605
0.350731
0.351695
0.353705
0.355824
0.359196
0.361738
0.366653
0.368731
0.373048
0.370673
0.369842
0.364572
0.37653
0.380801
0.398183
0.400871
0.424479
0.480374
0.433629
0.397976
0.273605
0.309998
0.343298
0.356991
0.356166
0.356491
0.352735
0.35364
0.350767
0.351059
0.349643
0.350345
0.349545
0.349697
0.348765
0.349107
0.348371
0.347974
0.347125
0.345806
0.344164
0.343195
0.343109
0.342841
0.342675
0.342944
0.343118
0.342945
0.342558
0.342255
0.342193
0.341954
0.342091
0.341658
0.342054
0.341488
0.342593
0.342191
0.343706
0.344027
0.343759
0.336899
0.164611
0.0449262
0.345765
0.334591
0.286363
0.275212
0.301309
0.325169
0.334892
0.337776
0.338526
0.33885
0.339035
0.339234
0.339411
0.33961
0.339804
0.340021
0.340244
0.340486
0.340741
0.341026
0.341329
0.341668
0.342025
0.34242
0.342836
0.343296
0.343774
0.344302
0.344827
0.345416
0.346023
0.346793
0.347607
0.348673
0.349582
0.350699
0.351655
0.353657
0.355787
0.359151
0.361692
0.366609
0.368699
0.37303
0.370622
0.369687
0.364366
0.37642
0.380689
0.398171
0.40076
0.424435
0.48252
0.437277
0.394857
0.275443
0.31208
0.344002
0.357249
0.35616
0.356533
0.352735
0.353607
0.35072
0.351016
0.349601
0.3503
0.349502
0.349663
0.348731
0.349079
0.348349
0.34795
0.347108
0.345781
0.344126
0.343147
0.343069
0.342802
0.342639
0.34292
0.343105
0.342937
0.34255
0.342249
0.342191
0.341957
0.342099
0.341668
0.34207
0.341506
0.34263
0.342234
0.343791
0.344115
0.343825
0.333861
0.141944
0.0367756
0.345625
0.334453
0.286141
0.27492
0.301107
0.325094
0.334866
0.337763
0.338515
0.338839
0.339025
0.339224
0.339401
0.3396
0.339795
0.340012
0.340234
0.340476
0.340731
0.341016
0.341319
0.341658
0.342014
0.342409
0.342825
0.343285
0.343763
0.344289
0.344813
0.3454
0.346006
0.346773
0.347587
0.348652
0.349561
0.350667
0.351616
0.35361
0.355748
0.359104
0.361644
0.366561
0.368665
0.373009
0.370565
0.369526
0.364157
0.376311
0.380581
0.398163
0.400665
0.424526
0.48469
0.441279
0.392185
0.277498
0.314236
0.344726
0.357508
0.356157
0.356572
0.352731
0.353572
0.35067
0.350969
0.349556
0.350252
0.349457
0.349627
0.348696
0.34905
0.348325
0.347923
0.347089
0.345752
0.344085
0.343094
0.343024
0.342757
0.342597
0.34289
0.34309
0.342926
0.342541
0.342242
0.342189
0.34196
0.342107
0.341679
0.342086
0.341524
0.342667
0.342277
0.343877
0.344204
0.34387
0.330147
0.121795
0.031683
0.345489
0.334317
0.285922
0.274632
0.300909
0.32502
0.334841
0.33775
0.338504
0.338829
0.339015
0.339215
0.339391
0.33959
0.339785
0.340002
0.340225
0.340466
0.340722
0.341006
0.341309
0.341648
0.342004
0.342399
0.342815
0.343274
0.343751
0.344276
0.3448
0.345385
0.345989
0.346754
0.347568
0.348632
0.349539
0.350636
0.351576
0.353561
0.355707
0.359054
0.36159
0.366508
0.368627
0.372982
0.370502
0.369355
0.363943
0.376198
0.380476
0.398158
0.400583
0.424754
0.486872
0.44555
0.389964
0.279752
0.316444
0.345461
0.357763
0.356152
0.356604
0.35272
0.353533
0.350616
0.350916
0.349505
0.3502
0.34941
0.349588
0.348657
0.349018
0.348298
0.347891
0.347065
0.345719
0.344038
0.343034
0.342971
0.342705
0.342548
0.342854
0.343069
0.342912
0.34253
0.342234
0.342186
0.341962
0.342114
0.341689
0.342102
0.341543
0.342705
0.342321
0.343965
0.344292
0.343886
0.325709
0.104747
0.0284871
0.345355
0.334182
0.285707
0.27435
0.300715
0.324948
0.334816
0.337737
0.338494
0.338819
0.339005
0.339205
0.339382
0.339581
0.339776
0.339993
0.340215
0.340457
0.340712
0.340997
0.341299
0.341638
0.341994
0.342389
0.342804
0.343263
0.34374
0.344264
0.344787
0.34537
0.345973
0.346735
0.34755
0.348612
0.349518
0.350604
0.351535
0.353509
0.355662
0.358996
0.361528
0.366445
0.368582
0.372944
0.370429
0.36917
0.363721
0.37608
0.380371
0.398154
0.400513
0.425119
0.489057
0.450006
0.388185
0.282178
0.318681
0.346194
0.358007
0.35614
0.356626
0.352699
0.353485
0.350552
0.350854
0.349445
0.350141
0.349356
0.349544
0.348613
0.348982
0.348264
0.347854
0.347033
0.345678
0.343982
0.342965
0.342907
0.342641
0.342488
0.342809
0.343041
0.342893
0.342514
0.342223
0.342182
0.341964
0.342121
0.341699
0.342117
0.341561
0.342742
0.342364
0.344052
0.344378
0.343866
0.320529
0.0908969
0.0263636
0.345224
0.334049
0.285496
0.274072
0.300525
0.324877
0.334792
0.337724
0.338483
0.338809
0.338996
0.339196
0.339372
0.339572
0.339766
0.339984
0.340206
0.340448
0.340703
0.340987
0.34129
0.341629
0.341984
0.342379
0.342794
0.343252
0.343729
0.344252
0.344775
0.345355
0.345956
0.346716
0.347531
0.348592
0.349496
0.350571
0.351492
0.353453
0.35561
0.358929
0.361456
0.366369
0.368527
0.372891
0.37034
0.368964
0.363485
0.375952
0.380264
0.398149
0.400454
0.425613
0.491237
0.454565
0.386824
0.284737
0.320916
0.346911
0.358231
0.356114
0.356631
0.352662
0.353424
0.350475
0.350779
0.349373
0.350071
0.349295
0.349492
0.348561
0.348938
0.348223
0.347808
0.346992
0.345628
0.343916
0.342883
0.342829
0.342563
0.342414
0.342752
0.343004
0.342866
0.342493
0.342208
0.342175
0.341963
0.342126
0.341707
0.342131
0.341578
0.342778
0.342407
0.344139
0.34446
0.343799
0.314628
0.0799478
0.0247929
0.345095
0.333918
0.285288
0.2738
0.300338
0.324808
0.334768
0.337711
0.338472
0.338799
0.338986
0.339186
0.339363
0.339562
0.339757
0.339974
0.340197
0.340438
0.340693
0.340978
0.34128
0.341619
0.341975
0.342369
0.342784
0.343242
0.343718
0.34424
0.344762
0.34534
0.34594
0.346697
0.347511
0.348571
0.349473
0.350536
0.351444
0.35339
0.355549
0.358848
0.361367
0.366273
0.368455
0.372817
0.37023
0.368731
0.36323
0.37581
0.380151
0.398142
0.400403
0.42623
0.493405
0.459158
0.385848
0.287385
0.323118
0.347597
0.358428
0.356067
0.356613
0.352602
0.353345
0.35038
0.350686
0.349284
0.349987
0.349221
0.34943
0.348498
0.348884
0.34817
0.347749
0.346937
0.345563
0.343833
0.342783
0.342731
0.342464
0.34232
0.342678
0.342953
0.342829
0.342465
0.342188
0.342164
0.341959
0.342129
0.341714
0.342144
0.341593
0.342813
0.342447
0.344223
0.344534
0.343674
0.308057
0.0713828
0.0234671
0.34497
0.333787
0.285085
0.273534
0.300156
0.324741
0.334745
0.337699
0.338462
0.338789
0.338976
0.339177
0.339354
0.339553
0.339748
0.339965
0.340188
0.340429
0.340684
0.340968
0.341271
0.341609
0.341965
0.342359
0.342773
0.343231
0.343706
0.344228
0.344749
0.345324
0.345922
0.346676
0.347491
0.348548
0.349448
0.350497
0.351391
0.353319
0.355474
0.358748
0.361256
0.366151
0.368361
0.372711
0.37009
0.368461
0.362947
0.375648
0.38003
0.398129
0.400355
0.426954
0.495557
0.463724
0.385211
0.290069
0.325254
0.348236
0.358587
0.355988
0.356563
0.352513
0.35324
0.350259
0.350568
0.349171
0.349884
0.349131
0.349352
0.348421
0.348815
0.348102
0.347673
0.346864
0.345478
0.343729
0.34266
0.342608
0.342339
0.342201
0.342581
0.342884
0.342778
0.342426
0.34216
0.342147
0.341951
0.342128
0.341717
0.342153
0.341605
0.342845
0.342485
0.344303
0.344598
0.343474
0.300894
0.0646331
0.0222108
0.344847
0.333658
0.284885
0.273272
0.299977
0.324675
0.334722
0.337687
0.338451
0.33878
0.338967
0.339167
0.339344
0.339543
0.339738
0.339956
0.340179
0.34042
0.340675
0.340959
0.341261
0.3416
0.341955
0.342348
0.342763
0.34322
0.343695
0.344215
0.344734
0.345307
0.345903
0.346654
0.347468
0.348523
0.34942
0.350454
0.351331
0.353236
0.355383
0.358624
0.361117
0.365994
0.368236
0.372565
0.369911
0.368142
0.362627
0.375458
0.379894
0.398107
0.400308
0.42777
0.497689
0.468216
0.384857
0.292727
0.327286
0.348809
0.358695
0.355863
0.356471
0.352384
0.3531
0.350103
0.350417
0.349026
0.349753
0.349018
0.349254
0.348324
0.348728
0.348012
0.347574
0.346765
0.345368
0.343597
0.342507
0.342451
0.34218
0.342049
0.342455
0.34279
0.342709
0.342374
0.342122
0.342123
0.341937
0.342122
0.341716
0.342158
0.341613
0.342873
0.342518
0.344377
0.344646
0.343183
0.293223
0.0591881
0.0209326
0.344727
0.33353
0.284689
0.273016
0.299801
0.324611
0.3347
0.337674
0.338441
0.33877
0.338957
0.339157
0.339335
0.339534
0.339729
0.339947
0.340169
0.34041
0.340665
0.340949
0.341251
0.341589
0.341944
0.342338
0.342752
0.343208
0.343682
0.344201
0.344719
0.345289
0.345882
0.34663
0.347442
0.348494
0.349387
0.350405
0.35126
0.353138
0.355268
0.358466
0.360939
0.365791
0.36807
0.372362
0.369677
0.367756
0.362257
0.375231
0.379737
0.398072
0.400255
0.428659
0.499797
0.472598
0.384725
0.295294
0.329178
0.349295
0.358739
0.355679
0.356323
0.352201
0.352912
0.349901
0.350221
0.34884
0.349585
0.348873
0.349129
0.3482
0.348615
0.347893
0.347445
0.346634
0.345225
0.343429
0.342313
0.342251
0.341976
0.341853
0.34229
0.342665
0.342615
0.342302
0.34207
0.342088
0.341915
0.34211
0.341708
0.342157
0.341615
0.342895
0.342543
0.344441
0.344673
0.342778
0.285118
0.0546413
0.0195989
0.34461
0.333404
0.284497
0.272765
0.29963
0.324548
0.334678
0.337662
0.338431
0.33876
0.338947
0.339148
0.339325
0.339524
0.33972
0.339937
0.34016
0.340401
0.340655
0.340939
0.341241
0.341579
0.341934
0.342326
0.34274
0.343195
0.343668
0.344185
0.344702
0.345268
0.345859
0.346602
0.347412
0.348461
0.349348
0.350347
0.351176
0.353019
0.355123
0.358267
0.360712
0.365525
0.367849
0.372085
0.369371
0.367284
0.361821
0.374955
0.379553
0.398016
0.400189
0.429601
0.50188
0.476843
0.384748
0.2977
0.330889
0.349672
0.3587
0.355413
0.356102
0.351948
0.352663
0.349637
0.349968
0.348598
0.349369
0.348686
0.348967
0.348041
0.348468
0.347738
0.347277
0.34646
0.345037
0.343213
0.342068
0.341994
0.341713
0.3416
0.342075
0.342498
0.342488
0.342206
0.342
0.342038
0.341881
0.342087
0.341692
0.342148
0.341609
0.342909
0.34256
0.344493
0.34467
0.342229
0.27663
0.0506924
0.0182188
0.344495
0.333278
0.284308
0.27252
0.299462
0.324487
0.334657
0.33765
0.33842
0.33875
0.338938
0.339138
0.339316
0.339515
0.33971
0.339928
0.34015
0.340391
0.340645
0.340929
0.34123
0.341568
0.341922
0.342314
0.342727
0.343181
0.343653
0.344168
0.344683
0.345245
0.345832
0.34657
0.347378
0.348421
0.349301
0.350277
0.351074
0.352874
0.354941
0.358012
0.360421
0.365181
0.367555
0.37171
0.368971
0.366701
0.361299
0.374617
0.37933
0.397934
0.400103
0.430573
0.503934
0.480929
0.384854
0.299872
0.332377
0.349912
0.358556
0.355041
0.355786
0.351602
0.35233
0.349292
0.349639
0.348282
0.34909
0.348444
0.348757
0.347835
0.348277
0.347534
0.347057
0.34623
0.344793
0.342936
0.341756
0.341665
0.341376
0.341275
0.341795
0.342277
0.342319
0.342076
0.341904
0.34197
0.341832
0.342052
0.341664
0.342129
0.341593
0.342912
0.342563
0.344527
0.344629
0.341502
0.267777
0.0471299
0.0168328
0.344383
0.333153
0.284124
0.27228
0.299298
0.324427
0.334636
0.337638
0.33841
0.33874
0.338928
0.339128
0.339306
0.339505
0.3397
0.339918
0.340141
0.340381
0.340635
0.340918
0.341219
0.341556
0.34191
0.342301
0.342713
0.343165
0.343636
0.344148
0.34466
0.345218
0.3458
0.346532
0.347336
0.348373
0.349243
0.350193
0.350949
0.352695
0.354709
0.357689
0.360049
0.364733
0.367166
0.371207
0.368447
0.365972
0.360665
0.374196
0.379056
0.397816
0.399988
0.431552
0.505956
0.484837
0.384969
0.301735
0.333598
0.349982
0.358278
0.354531
0.355348
0.351136
0.35189
0.34884
0.349209
0.347872
0.348728
0.34813
0.348484
0.347569
0.348027
0.347267
0.346771
0.34593
0.344475
0.34258
0.341359
0.341243
0.340944
0.340857
0.341431
0.341985
0.342092
0.341903
0.341776
0.341876
0.341763
0.341999
0.341621
0.342095
0.341563
0.3429
0.342549
0.344537
0.344534
0.34055
0.258547
0.0438109