/*--------------------------------*- C++ -*----------------------------------*\
| =========                 |                                                 |
| \\      /  F ield         | OpenFOAM: The Open Source CFD Toolbox           |
|  \\    /   O peration     | Version:  2412                                  |
|   \\  /    A nd           | Website:  www.openfoam.com                      |
|    \\/     M anipulation  |                                                 |
\*---------------------------------------------------------------------------*/
FoamFile
{
    version     2.0;
    format      ascii;
    arch        "LSB;label=32;scalar=64";
    class       volScalarField;
    location    "0.1";
    object      p;
}
// * * * * * * * * * * * * * * * * * * * * * * * * * * * * * * * * * * * * * //

dimensions      [0 2 -2 0 0 0 0];

internalField   nonuniform List<scalar> 
13077
(
126597
126506
126467
126343
126287
126149
126065
125913
125787
125610
125440
125226
125004
124742
124462
124141
123795
123406
122983
122512
122004
121434
120854
120116
119570
118466
118181
116466
116535
114287
114399
111816
112086
108424
109909
104018
107516
98613.8
104715
126608
126513
126476
126352
126296
126157
126073
125920
125795
125618
125448
125234
125012
124750
124470
124149
123803
123414
122991
122520
122012
121441
120861
120123
119575
118474
118185
116476
116536
114297
114402
111823
112091
108430
109911
104028
107515
98626.1
104711
91897.8
101859
83926.3
98946.5
73616.1
95931.6
58603.3
89877.8
33247.7
79158.8
-3037.16
64904.1
-60537.5
40530
-141442
22716.1
-88564.4
23865.8
-47228.7
32005.7
-20149
38261.2
703.296
43637.5
17988.2
47639.8
31391
51287.9
41238.3
54332.4
126619
126522
126485
126360
126305
126165
126081
125928
125803
125626
125455
125241
125020
124758
124478
124157
123811
123422
122998
122528
122019
121449
120868
120131
119581
118483
118188
116487
116537
114307
114404
111830
112096
108437
109913
104039
107513
98638.5
104706
91907.4
101857
83938.1
98954.4
73637.9
95958.7
58650.8
89911.7
33283.5
79177.3
-3009.94
64926.1
-60601.3
40447.1
-141810
22613.3
-88619.9
23828.5
-47210.5
31992.3
-20134.8
38257.2
711.62
43641.2
18000.1
47645
31407.1
51291.3
41258.3
54330.7
48248
56998.3
53570
59134.4
57711.7
61195.8
60998
63529.1
63863.8
65699.3
66292.9
67452.2
68230.7
68937.5
69750.4
70268.8
71139.7
71560.4
72489
72805.4
73836.6
74063.9
75257.2
75375.5
76781.9
76773.3
78299.8
78278.6
79519
79895.1
126630
126532
126495
126368
126314
126173
126089
125936
125810
125634
125463
125249
125028
124766
124486
124165
123819
123429
123006
122535
122027
121456
120875
120138
119587
118491
118192
116497
116538
114318
114407
111837
112101
108444
109915
104050
107512
98651
104702
91917.1
101855
83949.9
98962.4
73659.6
95985.6
58698.2
89945.2
33319.4
79196.2
-2982.63
64949
-60663.7
40365.7
-142187
22505.7
-88676
23792.2
-47192.6
31979.6
-20120.7
38253.5
719.987
43645.1
18011.9
47650.4
31423.1
51294.8
41278.1
54329.1
48265
56996.6
53579.9
59134.8
57713.7
61194
61001.1
63525.1
63870.6
65697.9
66297.7
67453
68232.3
68937.2
69748.5
70266.4
71136.1
71556.6
72484.3
72800.3
73831.1
74057.4
75252.3
75368.7
76779.8
76766.2
78303.9
78271.7
79528.9
79892
126642
126541
126505
126376
126322
126181
126097
125944
125818
125641
125471
125257
125036
124774
124494
124173
123827
123437
123014
122543
122035
121464
120882
120145
119593
118499
118195
116507
116540
114328
114410
111844
112107
108451
109917
104062
107511
98663.6
104698
91926.9
101853
83961.8
98970.4
73681.2
96012.2
58745.5
89978.6
33355.5
79215.3
-2955.03
64972.5
-60724.3
40285.1
-142571
22393.5
-88732.5
23756.6
-47174.8
31967.3
-20106.7
38250
728.447
43649
18023.7
47655.9
31439.1
51298.3
41297.8
54327.5
48282
56995
53589.9
59135.1
57715.6
61192.3
61004.2
63521.3
63877.5
65696.6
66302.6
67453.7
68233.9
68937
69746.7
70264.1
71132.6
71553
72479.7
72795.3
73825.7
74051.2
75247.5
75362.1
76778
76759.3
78308.3
78265
79539.4
79888.6
126654
126551
126515
126384
126331
126188
126105
125951
125826
125649
125479
125265
125044
124782
124502
124181
123835
123445
123022
122551
122042
121471
120889
120153
119599
118507
118199
116517
116541
114338
114413
111851
112112
108458
109919
104073
107509
98676.2
104694
91936.8
101851
83973.7
98978.3
73702.9
96038.8
58793.1
90012.1
33391.7
79234.6
-2927.18
64996.6
-60783.5
40205
-142960
22276.9
-88789.4
23720.9
-47156.9
31955.2
-20092.8
38246.6
736.898
43653
18035.6
47661.3
31455.2
51301.9
41317.6
54325.9
48298.9
56993.3
53599.8
59135.4
57717.6
61190.7
61007.3
63517.5
63884.4
65695.4
66307.5
67454.5
68235.6
68936.7
69745
70261.8
71129.1
71549.4
72475.2
72790.5
73820.4
74045.1
75242.9
75355.7
76776.3
76752.6
78313
78258.3
79550.5
79885.2
126666
126560
126525
126392
126340
126196
126113
125959
125834
125657
125487
125273
125052
124790
124510
124189
123843
123453
123030
122559
122050
121479
120896
120160
119605
118516
118202
116528
116542
114349
114416
111858
112117
108465
109921
104084
107508
98688.8
104689
91946.6
101849
83985.5
98986.2
73724.6
96065.6
58841
90045.9
33428.1
79254
-2899.12
65021.3
-60841.3
40125.1
-143352
22156.3
-88846.5
23685
-47139
31943.1
-20078.9
38243.3
745.326
43657.1
18047.4
47666.8
31471.3
51305.4
41337.5
54324.4
48315.8
56991.6
53609.8
59135.6
57719.6
61189.1
61010.4
63513.8
63891.3
65694.1
66312.4
67455.3
68237.3
68936.5
69743.2
70259.5
71125.6
71545.9
72470.6
72785.6
73815
74039
75238.2
75349.2
76774.6
76745.9
78317.8
78251.7
79561.9
79881.8
126678
126570
126535
126400
126348
126204
126121
125967
125842
125665
125495
125281
125060
124798
124518
124197
123851
123461
123038
122567
122058
121486
120904
120167
119611
118524
118205
116538
116543
114359
114419
111865
112122
108472
109922
104095
107507
98701.5
104685
91956.3
101847
83997.4
98994
73746.3
96092.4
58889.2
90079.9
33464.6
79273.6
-2870.84
65046.6
-60897.7
40045.1
-143749
22031.7
-88903.9
23648.8
-47121
31931.2
-20065.1
38240
753.751
43661.1
18059.4
47672.3
31487.6
51309.1
41357.4
54322.8
48332.8
56989.9
53619.8
59135.8
57721.6
61187.5
61013.5
63510.1
63898.2
65692.9
66317.3
67456.2
68238.9
68936.2
69741.5
70257.3
71122.2
71542.3
72466.1
72780.7
73809.7
74032.9
75233.5
75342.8
76772.9
76739.2
78322.7
78244.9
79573.8
79878.5
126690
126580
126545
126408
126357
126212
126129
125975
125850
125673
125503
125289
125068
124806
124526
124205
123859
123469
123046
122575
122065
121494
120911
120175
119617
118532
118209
116548
116545
114370
114422
111872
112127
108479
109924
104106
107506
98714.2
104681
91966.1
101845
84009.2
99001.9
73768
96119.4
58937.7
90114.1
33501.3
79293.2
-2842.32
65072.3
-60952.7
39964.7
-144151
21903.3
-88961.1
23612.4
-47102.8
31919.4
-20051.2
38236.7
762.176
43665.3
18071.3
47677.8
31503.9
51312.7
41377.4
54321.2
48349.9
56988.2
53629.9
59136
57723.6
61185.8
61016.6
63506.4
63905.2
65691.7
66322.3
67457
68240.7
68936
69739.7
70255
71118.6
71538.7
72461.5
72775.8
73804.3
74026.7
75228.8
75336.3
76771.1
76732.4
78327.5
78238
79586.1
79875.5
126702
126589
126555
126416
126366
126220
126137
125983
125858
125681
125511
125297
125076
124814
124534
124214
123867
123478
123054
122582
122073
121502
120918
120182
119623
118541
118212
116559
116546
114380
114425
111879
112132
108486
109926
104118
107505
98727
104676
91975.8
101843
84020.9
99009.6
73789.7
96146.4
58986.5
90148.6
33538.1
79312.9
-2813.55
65098.6
-61006.3
39883.6
-144558
21771.4
-89018.2
23575.8
-47084.5
31907.6
-20037.3
38233.5
770.627
43669.4
18083.3
47683.4
31520.2
51316.4
41397.5
54319.6
48367
56986.5
53640
59136.2
57725.6
61184.1
61019.7
63502.6
63912.3
65690.5
66327.3
67457.9
68242.4
68935.7
69737.9
70252.7
71115.1
71535.1
72456.9
72770.8
73798.8
74020.5
75223.9
75329.7
76769.3
76725.5
78332.5
78231
79599
79872.9
126714
126599
126565
126424
126375
126228
126145
125990
125866
125689
125519
125305
125084
124822
124542
124222
123875
123486
123062
122590
122081
121509
120925
120190
119629
118549
118216
116569
116547
114390
114428
111886
112137
108493
109928
104129
107503
98739.8
104672
91985.4
101841
84032.6
99017.4
73811.4
96173.4
59035.6
90183.3
33575.1
79332.7
-2784.54
65125.3
-61058.7
39801.5
-144970
21636.3
-89074.8
23539
-47065.9
31895.9
-20023.4
38230.2
779.098
43673.6
18095.4
47689
31536.7
51320.2
41417.7
54318
48384.2
56984.8
53650.2
59136.4
57727.6
61182.4
61022.8
63498.9
63919.3
65689.4
66332.4
67458.8
68244.1
68935.5
69736.1
70250.3
71111.6
71531.5
72452.2
72765.9
73793.3
74014.3
75219.1
75323.1
76767.4
76718.6
78337.4
78223.9
79612.7
79871
126727
126609
126575
126432
126384
126236
126153
125998
125873
125697
125527
125313
125092
124830
124551
124230
123883
123494
123070
122598
122089
121517
120933
120198
119635
118558
118219
116580
116549
114401
114431
111893
112142
108500
109929
104141
107502
98752.6
104668
91995.1
101839
84044.3
99025.1
73833.1
96200.6
59085
90218.2
33612.3
79352.5
-2755.27
65152.4
-61110
39718.1
-145386
21498.1
-89130.9
23502.1
-47047.1
31884.3
-20009.3
38227
787.61
43677.8
18107.6
47694.6
31553.2
51323.9
41438
54316.4
48401.4
56983.1
53660.4
59136.5
57729.6
61180.6
61025.8
63495.2
63926.4
65688.2
66337.5
67459.7
68245.9
68935.2
69734.2
70248
71108
71527.9
72447.5
72760.8
73787.7
74008
75214.2
75316.5
76765.5
76711.6
78342.5
78216.8
79627.3
79870.1
126739
126618
126586
126441
126392
126244
126162
126006
125881
125704
125535
125321
125100
124838
124559
124238
123892
123502
123078
122606
122097
121525
120940
120205
119641
118566
118223
116590
116550
114411
114434
111901
112147
108507
109931
104152
107501
98765.5
104663
92004.7
101836
84055.9
99032.7
73854.8
96227.8
59134.7
90253.3
33649.6
79372.4
-2725.76
65180
-61160.3
39633.4
-145808
21357.4
-89186.4
23465.1
-47027.9
31872.7
-19995.2
38223.7
796.151
43682.1
18119.8
47700.2
31569.9
51327.7
41458.4
54314.8
48418.7
56981.4
53670.7
59136.7
57731.6
61178.9
61028.9
63491.4
63933.6
65687.1
66342.6
67460.6
68247.7
68935
69732.4
70245.6
71104.4
71524.2
72442.8
72755.8
73782.1
74001.7
75209.2
75309.8
76763.6
76704.5
78347.5
78209.6
79643
79870.4
126752
126628
126596
126449
126401
126252
126170
126014
125889
125713
125543
125329
125108
124847
124567
124247
123900
123510
123087
122615
122105
121532
120947
120213
119647
118575
118226
116601
116551
114422
114437
111908
112152
108515
109933
104164
107500
98778.4
104659
92014.3
101834
84067.5
99040.3
73876.5
96255.1
59184.7
90288.6
33687.1
79392.3
-2696.01
65207.9
-61209.7
39547
-146234
21214.3
-89240.9
23428
-47008.4
31861.2
-19981.1
38220.5
804.738
43686.3
18132.1
47705.9
31586.6
51331.6
41478.8
54313.2
48436.1
56979.8
53681.1
59136.7
57733.6
61177.1
61031.9
63487.7
63940.8
65685.9
66347.8
67461.5
68249.5
68934.7
69730.5
70243.2
71100.8
71520.5
72438.1
72750.7
73776.5
73995.3
75204.2
75303.1
76761.6
76697.4
78352.6
78202.3
79660.2
79872.3
126765
126638
126606
126457
126410
126260
126178
126022
125898
125721
125551
125338
125117
124855
124575
124255
123908
123519
123095
122623
122113
121540
120955
120220
119653
118584
118230
116611
116553
114432
114440
111915
112158
108522
109934
104175
107499
98791.4
104654
92023.8
101832
84079
99047.9
73898.2
96282.4
59235
90324.1
33724.7
79412.2
-2666.04
65236.3
-61258.5
39458.8
-146666
21069.3
-89294.5
23391
-46988.6
31849.8
-19966.8
38217.3
813.357
43690.7
18144.4
47711.5
31603.4
51335.5
41499.4
54311.6
48453.6
56978.1
53691.5
59136.8
57735.6
61175.3
61034.9
63483.9
63948
65684.8
66353
67462.5
68251.3
68934.5
69728.6
70240.8
71097.1
71516.9
72433.3
72745.6
73770.8
73988.9
75199.1
75296.3
76759.6
76690.3
78357.8
78195.1
79679.2
79876
126778
126648
126617
126465
126419
126268
126186
126030
125906
125729
125559
125346
125125
124863
124584
124263
123917
123527
123103
122631
122121
121548
120962
120228
119659
118592
118233
116622
116554
114443
114443
111922
112163
108529
109936
104187
107498
98804.4
104650
92033.3
101829
84090.5
99055.3
73919.9
96309.8
59285.7
90359.8
33762.5
79432.1
-2635.82
65264.9
-61306.8
39368.9
-147101
20922.7
-89346.8
23353.9
-46968.4
31838.4
-19952.4
38214.1
822.026
43695
18156.8
47717.2
31620.2
51339.4
41520
54310
48471.1
56976.4
53701.9
59136.9
57737.6
61173.5
61037.9
63480.2
63955.3
65683.7
66358.2
67463.4
68253.1
68934.2
69726.7
70238.4
71093.5
71513.2
72428.5
72740.5
73765.1
73982.4
75193.9
75289.5
76757.5
76683.1
78362.9
78187.9
79700.3
79881.4
126791
126658
126627
126473
126428
126276
126195
126038
125914
125737
125567
125354
125133
124871
124592
124272
123925
123535
123111
122639
122129
121556
120969
120236
119665
118601
118237
116633
116555
114453
114447
111929
112168
108537
109938
104198
107497
98817.4
104645
92042.7
101827
84101.9
99062.8
73941.6
96337.2
59336.6
90395.7
33800.5
79452.1
-2605.39
65293.9
-61354.7
39277.1
-147541
20775.1
-89397.9
23316.9
-46947.8
31827.1
-19937.9
38210.9
830.729
43699.4
18169.3
47722.9
31637.2
51343.4
41540.7
54308.4
48488.6
56974.7
53712.4
59136.9
57739.6
61171.7
61040.9
63476.5
63962.6
65682.7
66363.5
67464.4
68255
68934
69724.8
70236
71089.8
71509.4
72423.7
72735.4
73759.3
73975.9
75188.7
75282.7
76755.4
76675.8
78368.2
78180.8
79724
79888.2
126804
126668
126638
126482
126437
126284
126203
126046
125922
125745
125575
125362
125142
124880
124600
124280
123933
123544
123120
122647
122137
121564
120977
120244
119671
118610
118240
116644
116557
114464
114450
111936
112173
108544
109939
104210
107495
98830.5
104641
92052.2
101824
84113.3
99070.2
73963.3
96364.7
59387.9
90431.8
33838.6
79472.1
-2574.73
65323.2
-61402.6
39183.5
-147985
20626.7
-89447.5
23280
-46926.7
31815.9
-19923.3
38207.7
839.481
43703.8
18181.9
47728.6
31654.3
51347.4
41561.5
54306.8
48506.3
56973
53722.9
59136.9
57741.5
61169.8
61043.8
63472.7
63970
65681.6
66368.9
67465.4
68256.9
68933.7
69722.9
70233.5
71086.1
71505.7
72418.9
72730.2
73753.4
73969.4
75183.5
75275.8
76753.2
76668.5
78373.4
78173.9
79750.6
79895.8
126817
126678
126648
126490
126446
126292
126211
126054
125930
125753
125583
125371
125150
124888
124609
124288
123942
123552
123128
122655
122145
121572
120984
120251
119677
118619
118244
116654
116558
114475
114453
111944
112178
108552
109941
104222
107494
98843.7
104636
92061.5
101822
84124.7
99077.5
73984.9
96392.3
59439.4
90468.2
33876.9
79492
-2543.85
65352.8
-61450.5
39088.2
-148433
20478
-89495.5
23243.2
-46905.3
31804.7
-19908.7
38204.5
848.265
43708.2
18194.5
47734.4
31671.4
51351.4
41582.4
54305.2
48523.9
56971.3
53733.5
59136.8
57743.5
61168
61046.8
63469
63977.4
65680.5
66374.2
67466.5
68258.8
68933.4
69721
70231.1
71082.4
71501.9
72414
72724.9
73747.6
73962.8
75178.1
75268.9
76751
76661.1
78378.7
78167.3
79780.4
79903.4
126831
126688
126659
126498
126455
126300
126219
126062
125938
125761
125592
125379
125158
124897
124617
124297
123950
123560
123136
122664
122153
121580
120992
120259
119683
118627
118247
116665
116560
114485
114456
111951
112183
108559
109942
104234
107493
98856.9
104632
92070.9
101819
84136
99084.7
74006.6
96419.9
59491.3
90504.8
33915.4
79512
-2512.74
65382.7
-61498.6
38991.3
-148883
20329.3
-89542
23206.3
-46883.4
31793.6
-19893.9
38201.3
857.094
43712.7
18207.3
47740.1
31688.7
51355.5
41603.3
54303.5
48541.7
56969.6
53744.2
59136.8
57745.5
61166.1
61049.7
63465.2
63984.8
65679.5
66379.6
67467.5
68260.7
68933.2
69719
70228.6
71078.6
71498.1
72409.1
72719.7
73741.6
73956.2
75172.8
75261.9
76748.7
76653.7
78384
78161.1
79813.4
79909.9
126845
126698
126669
126506
126464
126308
126228
126070
125946
125769
125600
125387
125167
124905
124626
124305
123959
123569
123145
122672
122161
121588
120999
120267
119690
118636
118251
116676
116561
114496
114460
111958
112188
108567
109944
104246
107492
98870.1
104627
92080.2
101816
84147.2
99091.9
74028.2
96447.6
59543.5
90541.5
33954
79532
-2481.43
65412.9
-61547
38893
-149337
20181.1
-89586.8
23169.5
-46861.1
31782.5
-19879
38198.1
865.951
43717.2
18220
47745.9
31706
51359.6
41624.4
54301.9
48559.5
56967.9
53754.9
59136.7
57747.5
61164.1
61052.6
63461.5
63992.3
65678.5
66385.1
67468.6
68262.6
68932.9
69717
70226
71074.8
71494.3
72404.1
72714.4
73735.6
73949.5
75167.3
75254.9
76746.4
76646.2
78389.3
78155.5
79849.3
79914.6
126858
126708
126680
126515
126473
126317
126236
126079
125954
125778
125608
125396
125175
124914
124634
124314
123967
123577
123153
122680
122169
121596
121007
120275
119696
118645
118254
116687
116562
114507
114463
111965
112193
108575
109945
104258
107491
98883.4
104622
92089.4
101814
84158.4
99099.1
74049.8
96475.3
59596
90578.5
33992.8
79552
-2449.88
65443.4
-61595.9
38793.5
-149793
20033.7
-89629.9
23132.6
-46838.4
31771.5
-19864
38194.9
874.847
43721.7
18232.9
47751.7
31723.4
51363.7
41645.5
54300.2
48577.4
56966.2
53765.6
59136.6
57749.4
61162.2
61055.5
63457.7
63999.8
65677.5
66390.5
67469.6
68264.6
68932.6
69715
70223.5
71071
71490.5
72399.2
72709.1
73729.6
73942.8
75161.8
75247.8
76744
76638.6
78394.7
78150.6
79887.6
79916.8
126872
126718
126691
126523
126482
126325
126245
126087
125963
125786
125617
125404
125183
124922
124643
124322
123976
123586
123162
122689
122177
121604
121015
120283
119702
118654
118258
116698
116564
114517
114466
111973
112199
108582
109947
104270
107490
98896.7
104618
92098.7
101811
84169.6
99106.2
74071.5
96503.1
59648.9
90615.8
34031.8
79571.9
-2418.13
65474.1
-61645.4
38692.9
-150251
19887.3
-89671.5
23095.5
-46815.4
31760.4
-19848.9
38191.7
883.763
43726.2
18245.8
47757.4
31740.9
51367.9
41666.8
54298.6
48595.3
56964.5
53776.4
59136.4
57751.3
61160.2
61058.3
63454
64007.4
65676.5
66396.1
67470.7
68266.5
68932.3
69713
70220.9
71067.2
71486.7
72394.2
72703.8
73723.5
73936.1
75156.2
75240.7
76741.5
76631
78400.1
78146.6
79927.2
79916.6
126886
126728
126701
126531
126491
126333
126253
126095
125971
125794
125625
125413
125192
124931
124651
124331
123984
123594
123170
122697
122186
121612
121022
120291
119708
118663
118261
116709
116565
114528
114470
111980
112204
108590
109948
104282
107489
98910.1
104613
92107.8
101808
84180.7
99113.2
74093.1
96530.9
59702.1
90653.2
34071
79591.9
-2386.14
65505.2
-61695.5
38591.4
-150710
19742.1
-89711.6
23058.2
-46792
31749.4
-19833.7
38188.4
892.71
43730.8
18258.8
47763.2
31758.4
51372.1
41688.1
54296.9
48613.3
56962.8
53787.3
59136.2
57753.3
61158.2
61061.1
63450.2
64015
65675.6
66401.6
67471.8
68268.5
68932
69710.9
70218.4
71063.4
71482.8
72389.1
72698.4
73717.4
73929.3
75150.6
75233.6
76739
76623.4
78405.5
78143.6
79967.1
79914.1
126901
126739
126712
126539
126501
126341
126261
126103
125979
125803
125633
125421
125201
124939
124660
124340
123993
123603
123179
122706
122194
121620
121030
120299
119714
118672
118265
116720
116567
114539
114473
111987
112209
108598
109949
104294
107488
98923.6
104608
92117
101805
84191.8
99120.2
74114.7
96558.9
59755.6
90690.9
34110.3
79611.9
-2353.92
65536.5
-61746.3
38489.1
-151171
19598.3
-89750.3
23020.6
-46768.2
31738.4
-19818.4
38185.2
901.665
43735.3
18271.8
47769
31776.1
51376.4
41709.5
54295.2
48631.4
56961.1
53798.2
59136
57755.2
61156.2
61063.9
63446.5
64022.7
65674.6
66407.2
67473
68270.5
68931.7
69708.8
70215.7
71059.5
71479
72384.1
72693
73711.2
73922.5
75144.9
75226.4
76736.4
76615.6
78411
78141.7
80006.1
79909.8
126915
126749
126723
126548
126510
126350
126270
126111
125988
125811
125642
125430
125209
124948
124669
124348
124002
123612
123187
122714
122202
121628
121037
120307
119720
118681
118268
116731
116568
114549
114477
111995
112214
108606
109951
104306
107487
98937.1
104604
92126.1
101802
84202.8
99127.1
74136.3
96586.9
59809.5
90728.9
34149.9
79631.9
-2321.47
65568.1
-61797.9
38386.1
-151633
19455.8
-89788
22982.6
-46744.2
31727.3
-19803.1
38181.8
910.636
43739.9
18284.9
47774.8
31793.8
51380.6
41730.9
54293.6
48649.5
56959.4
53809.1
59135.8
57757.1
61154.1
61066.7
63442.7
64030.3
65673.7
66412.8
67474.1
68272.6
68931.4
69706.7
70213.1
71055.6
71475.1
72379
72687.5
73704.9
73915.6
75139.1
75219.2
76733.8
76607.9
78416.5
78140.9
80043.5
79904.2
126930
126759
126734
126556
126519
126358
126278
126120
125996
125819
125650
125438
125218
124957
124677
124357
124010
123620
123196
122723
122211
121636
121045
120315
119727
118690
118272
116742
116570
114560
114480
112002
112219
108614
109952
104318
107486
98950.6
104599
92135.2
101799
84213.9
99134
74158
96614.9
59863.7
90767.1
34189.6
79651.9
-2288.78
65600.1
-61850.1
38282.6
-152095
19314.6
-89824.8
22943.9
-46720
31716.2
-19787.7
38178.5
919.6
43744.5
18298.1
47780.6
31811.6
51384.9
41752.5
54291.9
48667.6
56957.7
53820.1
59135.5
57759
61152
61069.4
63438.9
64038.1
65672.7
66418.4
67475.2
68274.6
68931.1
69704.6
70210.5
71051.7
71471.2
72373.8
72682
73698.6
73908.7
75133.3
75211.9
76731
76600
78422.1
78140.9
80079.1
79897.7
126944
126769
126745
126564
126528
126366
126287
126128
126004
125828
125659
125447
125226
124965
124686
124366
124019
123629
123205
122731
122219
121645
121053
120323
119733
118699
118275
116753
116571
114571
114484
112009
112224
108622
109953
104331
107485
98964.3
104594
92144.3
101796
84224.9
99140.9
74179.7
96643.1
59918.4
90805.6
34229.6
79671.9
-2255.84
65632.4
-61902.9
38178.5
-152559
19174.6
-89861.1
22904.5
-46695.5
31704.9
-19772.4
38175
928.559
43749.1
18311.3
47786.4
31829.4
51389.2
41774.1
54290.1
48685.8
56955.9
53831.1
59135.1
57760.9
61149.9
61072.1
63435.1
64045.8
65671.8
66424.1
67476.4
68276.6
68930.8
69702.5
70207.8
71047.7
71467.2
72368.7
72676.5
73692.3
73901.7
75127.4
75204.6
76728.2
76592.1
78427.8
78141.4
80112.9
79890.5
126959
126780
126756
126573
126537
126375
126295
126136
126013
125836
125667
125455
125235
124974
124695
124375
124028
123638
123213
122740
122227
121653
121061
120331
119739
118709
118279
116765
116573
114582
114487
112017
112229
108630
109955
104343
107484
98977.9
104589
92153.3
101793
84235.9
99147.7
74201.4
96671.4
59973.4
90844.4
34269.9
79692
-2222.64
65665.1
-61956.3
38073.9
-153023
19035.5
-89897.2
22864.3
-46670.9
31693.6
-19757
38171.5
937.484
43753.6
18324.5
47792.2
31847.3
51393.6
41795.7
54288.4
48704
56954.2
53842.2
59134.7
57762.7
61147.7
61074.8
63431.3
64053.6
65670.9
66429.8
67477.6
68278.7
68930.5
69700.3
70205.1
71043.7
71463.3
72363.5
72671
73685.8
73894.7
75121.4
75197.2
76725.4
76584.2
78433.6
78141.7
80145.3
79883
126975
126790
126767
126581
126547
126383
126304
126145
126021
125845
125676
125464
125244
124983
124703
124383
124037
123647
123222
122748
122236
121661
121068
120339
119745
118718
118282
116776
116574
114592
114491
112024
112235
108638
109956
104355
107483
98991.7
104585
92162.3
101790
84246.9
99154.5
74223.1
96699.8
60028.9
90883.6
34310.3
79712.1
-2189.16
65698.1
-62010.1
37968.9
-153489
18896.9
-89933.5
22823.1
-46646.1
31682.2
-19741.6
38167.9
946.371
43758.1
18337.7
47797.9
31865.3
51397.9
41817.5
54286.6
48722.3
56952.4
53853.2
59134.3
57764.5
61145.4
61077.4
63427.5
64061.4
65670
66435.5
67478.7
68280.8
68930.1
69698.1
70202.3
71039.7
71459.3
72358.2
72665.4
73679.4
73887.6
75115.4
75189.8
76722.4
76576.1
78439.4
78141.2
80176.8
79875
126990
126800
126778
126589
126556
126392
126312
126153
126029
125853
125684
125473
125252
124992
124712
124392
124045
123655
123231
122757
122244
121669
121076
120348
119752
118727
118286
116787
116576
114603
114495
112032
112240
108646
109957
104368
107483
99005.5
104580
92171.4
101787
84257.9
99161.3
74245
96728.3
60084.8
90923
34351.1
79732.3
-2155.39
65731.6
-62064.2
37863.4
-153954
18758.6
-89970.5
22780.8
-46621.4
31670.5
-19726.3
38164.1
955.183
43762.6
18350.9
47803.5
31883.3
51402.2
41839.2
54284.8
48740.6
56950.6
53864.3
59133.7
57766.3
61143.1
61080
63423.6
64069.2
65669
66441.3
67479.9
68282.8
68929.7
69695.9
70199.6
71035.7
71455.3
72353
72659.8
73672.8
73880.5
75109.2
75182.4
76719.4
76568
78445.3
78139.5
80207.8
79866.7
127005
126811
126789
126598
126565
126400
126321
126161
126038
125862
125693
125481
125261
125000
124721
124401
124054
123664
123240
122766
122253
121678
121084
120356
119758
118737
118289
116799
116577
114614
114498
112039
112245
108654
109958
104380
107482
99019.4
104575
92180.4
101784
84269
99168.1
74267
96757.1
60141.3
90962.9
34392.2
79752.6
-2121.3
65765.5
-62118.5
37757.4
-154421
18619.9
-90008.4
22737.2
-46596.6
31658.7
-19711.1
38160.1
963.901
43767
18364.1
47809.1
31901.3
51406.5
41861
54282.9
48758.9
56948.8
53875.4
59133.1
57768
61140.7
61082.5
63419.7
64077
65668.1
66447
67481
68284.9
68929.3
69693.6
70196.8
71031.6
71451.3
72347.7
72654.1
73666.2
73873.3
75103
75174.9
76716.3
76559.9
78451.3
78136.1
80238.6
79858.1
127021
126821
126800
126606
126574
126408
126329
126170
126046
125870
125701
125490
125270
125009
124730
124410
124063
123673
123249
122775
122261
121686
121092
120364
119764
118746
118293
116810
116579
114625
114502
112047
112250
108663
109959
104393
107481
99033.4
104571
92189.5
101781
84280.1
99175
74289.1
96786.1
60198.3
91003.1
34433.6
79773
-2086.87
65800
-62172.8
37651
-154889
18480.5
-90047.8
22692.2
-46572
31646.5
-19696.1
38156
972.476
43771.2
18377.2
47814.6
31919.2
51410.7
41882.8
54280.9
48777.3
56946.9
53886.5
59132.5
57769.6
61138.3
61084.9
63415.8
64084.8
65667.1
66452.7
67482.2
68286.9
68928.9
69691.3
70193.9
71027.5
71447.2
72342.3
72648.4
73659.6
73866.1
75096.8
75167.3
76713.2
76551.7
78457.4
78131.2
80269.2
79849.4
127037
126832
126811
126614
126584
126417
126338
126178
126055
125879
125710
125499
125279
125018
124739
124419
124072
123682
123257
122783
122270
121695
121100
120372
119771
118755
118296
116821
116580
114636
114506
112054
112255
108671
109961
104405
107480
99047.5
104566
92198.6
101778
84291.4
99182
74311.5
96815.3
60255.9
91043.9
34475.4
79793.6
-2052.05
65834.9
-62226.9
37544.1
-155358
18339.7
-90089
22645.6
-46547.6
31634.1
-19681.4
38151.5
980.87
43775.3
18390.3
47819.9
31937.2
51414.9
41904.6
54278.9
48795.6
56944.9
53897.6
59131.7
57771.2
61135.7
61087.3
63411.8
64092.6
65666.1
66458.4
67483.3
68288.9
68928.4
69688.9
70191.1
71023.4
71443.1
72337
72642.7
73652.9
73858.9
75090.4
75159.7
76709.9
76543.4
78463.6
78124.6
80299.9
79840.5
127053
126842
126822
126623
126593
126425
126347
126187
126063
125887
125719
125508
125287
125027
124748
124428
124081
123691
123266
122792
122279
121703
121108
120381
119777
118765
118300
116833
116582
114646
114509
112062
112260
108680
109962
104418
107479
99061.7
104561
92207.7
101776
84302.8
99189.1
74334.2
96845
60314.3
91085.1
34517.7
79814.4
-2016.81
65870.5
-62280.6
37436.8
-155828
18197
-90132.5
22597.4
-46523.5
31621.1
-19667
38146.8
989.007
43779.2
18403.2
47825.1
31955
51418.9
41926.3
54276.8
48813.9
56942.9
53908.7
59130.8
57772.7
61133.1
61089.5
63407.8
64100.3
65665.1
66464.1
67484.3
68290.9
68927.9
69686.5
70188.1
71019.2
71439
72331.5
72636.9
73646.1
73851.6
75084
75152.1
76706.5
76535.1
78469.9
78116.9
80330.7
79831.6
127070
126853
126833
126631
126602
126434
126355
126195
126072
125896
125727
125516
125296
125036
124757
124437
124090
123700
123275
122801
122287
121711
121116
120389
119783
118774
118303
116844
116583
114657
114513
112069
112266
108688
109963
104431
107479
99075.9
104557
92217
101773
84314.5
99196.4
74357.3
96875
60373.4
91127
34560.5
79835.4
-1981.08
65906.8
-62333.7
37329.1
-156299
18051.7
-90178.7
22547.4
-46499.9
31607.7
-19653
38141.5
996.818
43782.8
18415.8
47830
31972.8
51422.8
41948
54274.5
48832.1
56940.8
53919.6
59129.7
57774.1
61130.3
61091.6
63403.7
64108
65663.9
66469.7
67485.3
68292.9
68927.3
69684
70185.2
71014.9
71434.9
72326.1
72631.1
73639.2
73844.2
75077.5
75144.4
76703.1
76526.7
78476.2
78108.5
80361.7
79822.5
127086
126863
126844
126639
126612
126443
126364
126204
126080
125905
125736
125525
125305
125045
124766
124446
124099
123709
123284
122810
122296
121720
121124
120398
119790
118784
118307
116856
116585
114668
114517
112077
112271
108697
109964
104444
107478
99090.4
104552
92226.4
101770
84326.4
99204
74381
96905.7
60433.5
91169.5
34603.9
79856.7
-1944.78
65943.9
-62386.1
37221
-156772
17903.1
-90227.9
22495.4
-46477
31593.6
-19639.7
38135.8
1004.19
43786
18428.2
47834.6
31990.3
51426.5
41969.5
54272.1
48850.2
56938.5
53930.5
59128.5
57775.3
61127.4
61093.6
63399.4
64115.6
65662.7
66475.2
67486.2
68294.7
68926.7
69681.4
70182.1
71010.7
71430.7
72320.5
72625.2
73632.3
73836.8
75070.9
75136.6
76699.6
76518.3
78482.5
78099.6
80393.1
79813.5
127103
126874
126856
126648
126621
126451
126372
126212
126089
125913
125745
125534
125314
125054
124775
124455
124108
123718
123293
122819
122305
121729
121132
120406
119796
118793
118310
116867
116587
114679
114521
112085
112276
108705
109965
104457
107478
99104.9
104548
92236
101768
84338.8
99212
74405.3
96937
60494.7
91212.8
34648.1
79878.5
-1907.81
65981.8
-62437.5
37112.7
-157247
17750.4
-90280.5
22441.2
-46454.9
31578.5
-19627.1
38129.3
1011.01
43788.7
18440.2
47838.8
32007.5
51429.9
41990.8
54269.4
48868.2
56936
53941.3
59127.1
57776.4
61124.2
61095.4
63395.1
64123.1
65661.4
66480.7
67487
68296.5
68925.9
69678.8
70179
71006.3
71426.5
72315
72619.3
73625.3
73829.3
75064.2
75128.8
76695.9
76509.8
78489
78090.9
80425.1
79804.4
127120
126885
126867
126656
126630
126460
126381
126221
126097
125922
125754
125543
125323
125063
124784
124464
124117
123727
123302
122828
122313
121737
121140
120415
119802
118803
118314
116879
116588
114690
114525
112092
112281
108714
109966
104470
107477
99119.7
104544
92245.8
101766
84351.6
99220.4
74430.5
96969.2
60557.2
91257
34693.1
79900.8
-1870.08
66020.8
-62487.7
37004.3
-157723
17592.8
-90336.9
22384.6
-46434
31562.5
-19615.7
38121.9
1017.09
43790.8
18451.7
47842.5
32024.4
51433
42011.9
54266.5
48885.9
56933.4
53951.9
59125.4
57777.2
61120.9
61097
63390.5
64130.5
65659.9
66485.9
67487.6
68298.2
68925
69676
70175.8
71001.9
71422.2
72309.3
72613.3
73618.2
73821.7
75057.4
75121
76692.2
76501.3
78495.5
78082.5
80457.8
79795.3
127138
126895
126878
126664
126640
126469
126390
126230
126106
125931
125763
125552
125332
125072
124793
124473
124126
123736
123311
122837
122322
121746
121148
120423
119809
118813
118317
116891
116590
114701
114529
112100
112286
108723
109967
104483
107477
99134.6
104540
92255.9
101765
84365
99229.4
74456.9
97002.5
60621.1
91302.4
34739.2
79923.8
-1831.4
66060.9
-62536.3
36895.8
-158202
17429.5
-90397.4
22325.3
-46414.5
31545
-19605.5
38113.4
1022.26
43792.1
18462.6
47845.6
32040.8
51435.6
42032.6
54263.2
48903.4
56930.4
53962.2
59123.4
57777.8
61117.3
61098.4
63385.8
64137.6
65658.2
66491
67488.1
68299.7
68924
69673.1
70172.5
70997.4
71417.9
72303.6