/*--------------------------------*- C++ -*----------------------------------*\
| =========                 |                                                 |
| \\      /  F ield         | OpenFOAM: The Open Source CFD Toolbox           |
|  \\    /   O peration     | Version:  2412                                  |
|   \\  /    A nd           | Website:  www.openfoam.com                      |
|    \\/     M anipulation  |                                                 |
\*---------------------------------------------------------------------------*/
FoamFile
{
    version     2.0;
    format      ascii;
    arch        "LSB;label=32;scalar=64";
    class       surfaceScalarField;
    location    "0.1";
    object      phi;
}
// * * * * * * * * * * * * * * * * * * * * * * * * * * * * * * * * * * * * * //

dimensions      [0 3 -1 0 0 0 0];

oriented        oriented;

internalField   nonuniform List<scalar> 
25922
(
0.00748776
0.0227581
0.00743578
0.00492844
0.00741542
-0.0083656
0.00740768
-0.0117468
0.00740176
-0.0100591
0.00739541
-0.00797613
0.00738985
-0.00676067
0.00738566
-0.00583459
0.007382
-0.00503413
0.00737901
-0.00430438
0.00737601
-0.00364916
0.00737305
-0.00306781
0.00736971
-0.00254044
0.00736603
-0.00207174
0.00736178
-0.00165063
0.00735696
-0.00127169
0.00735145
-0.000918007
0.00734532
-0.000618617
0.00733851
-0.000347478
0.00733113
-0.000118871
0.00732322
7.27866e-05
0.0073149
0.000237064
0.0073062
0.000380762
0.00729739
0.000460572
0.00728832
0.000562207
0.00727959
0.000547214
0.00727041
0.000669181
0.00726233
0.000487679
0.00725294
0.000760937
0.00724553
0.000300035
0.00723554
0.000808141
0.00722825
4.45503e-05
0.00721717
0.000780902
0.00721043
-0.000374621
0.00719829
0.000616258
0.00719198
-0.00107148
0.00717612
0.000329437
0.00716904
-0.00231071
-0.000756211
0.00748779
0.022846
0.00743527
0.00498096
0.00741426
-0.00834458
0.00740597
-0.0117385
0.00739963
-0.0100528
0.00739291
-0.00796942
0.00738704
-0.00675479
0.00738259
-0.00583014
0.00737872
-0.00503026
0.00737555
-0.0043012
0.0073724
-0.00364601
0.0073693
-0.00306471
0.00736585
-0.00253699
0.00736206
-0.00206795
0.00735772
-0.00164629
0.00735282
-0.00126679
0.00734722
-0.000912415
0.00734101
-0.0006124
0.00733412
-0.000340598
0.00732667
-0.000111414
0.00731868
8.07662e-05
0.00731029
0.000245458
0.00730152
0.00038953
0.00729263
0.000469457
0.00728349
0.000571343
0.0072747
0.000556009
0.00726545
0.000678431
0.00725731
0.000495816
0.00724786
0.000770384
0.00724039
0.0003075
0.00723033
0.000818197
0.00722298
5.18971e-05
0.00721182
0.000792058
0.00720502
-0.000367824
0.00719279
0.000628489
0.00718639
-0.0010651
0.00717037
0.000345454
0.00716308
-0.00230342
0.00714819
-0.000741324
0.0071549
-0.00498338
0.0071575
-0.00293383
0.00719104
-0.0083566
0.00721885
-0.00505552
0.00728216
-0.0103906
0.00732593
-0.00343523
0.00737227
-0.00566523
0.00734231
0.00641055
0.00733905
0.00202541
0.00731791
0.0104889
0.0073708
0.0068537
0.00743601
0.0165127
0.00757262
0.0360515
0.00780661
0.0572352
0.00791799
-0.00476874
0.00775339
-0.038231
0.00758992
-0.0182081
0.00748243
-0.00360423
0.00745141
-0.00513338
0.00742862
0.00036069
0.0074274
-0.00282487
0.00741446
0.000923902
0.00742164
-0.00306899
0.00742187
-5.12815e-05
0.00743782
-0.00328761
0.00744071
-0.000203914
0.00745303
-0.00261028
0.00745032
0.000743546
0.00745205
-0.000615667
0.00224929
0.00748781
0.022934
0.00743476
0.00503401
0.00741309
-0.00832291
0.00740426
-0.0117297
0.00739748
-0.010046
0.00739041
-0.00796235
0.00738422
-0.0067486
0.00737951
-0.00582544
0.00737544
-0.00502619
0.00737209
-0.00429786
0.00736879
-0.00364271
0.00736556
-0.00306149
0.007362
-0.00253343
0.00735811
-0.00206406
0.00735367
-0.00164185
0.00734869
-0.0012618
0.00734301
-0.000906742
0.00733672
-0.000606105
0.00732976
-0.000333645
0.00732223
-0.000103881
0.00731417
8.88194e-05
0.00730571
0.000253924
0.00729686
0.000398372
0.00728791
0.000478409
0.0072787
0.00058055
0.00726984
0.000564868
0.00726052
0.000687749
0.00725233
0.000504013
0.00724282
0.000779891
0.00723529
0.000315023
0.00722517
0.000828316
0.00721776
5.93083e-05
0.00720652
0.000803292
0.00719966
-0.00036096
0.00718734
0.000640806
0.00718086
-0.00105862
0.00716468
0.000361631
0.00715717
-0.00229591
0.00714201
-0.00072617
0.00714851
-0.0049899
0.00715095
-0.00293627
0.00718443
-0.00839009
0.00721227
-0.00508334
0.0072759
-0.0104542
0.00732017
-0.00347951
0.00736683
-0.0057119
0.00733668
0.00644072
0.00733316
0.0020289
0.00731198
0.0105101
0.00736534
0.00680031
0.00743214
0.0164459
0.00757315
0.0359104
0.00781323
0.0569951
0.00792555
-0.00488109
0.00775599
-0.0380613
0.00758897
-0.0180411
0.00748025
-0.00349541
0.0074488
-0.00510198
0.00742591
0.000383624
0.0074246
-0.00282361
0.0074117
0.000936821
0.00741894
-0.00307622
0.00741918
-5.14809e-05
0.00743517
-0.00330362
0.00743816
-0.000206883
0.00745055
-0.00262267
0.00744783
0.000746289
0.00744955
-0.000617395
0.00743696
0.00226188
0.00742899
0.00126595
0.00740966
0.0035418
0.00739035
0.00306636
0.00736499
0.00434572
0.00734267
0.00362896
0.00732256
0.00384305
0.00731226
0.00264944
0.00730795
0.00229089
0.00730668
0.00161855
0.00730421
0.0015841
0.00730042
0.00146036
0.00729239
0.00162933
0.00727941
0.00185666
0.00726308
0.00190812
0.00724532
0.00192266
0.00722785
0.00156145
0.00720959
0.00132807
0.00719209
0.000624586
0.00717338
9.02734e-05
0.00715731
-0.00108506
0.00714062
-0.00209345
0.00712978
-0.00383709
0.00711921
-0.00563006
0.00711874
-0.00801667
0.00712662
-0.0112726
0.00715382
-0.0144344
0.00722666
-0.0202873
0.00733383
-0.0242086
0.00759464
-0.032507
-0.0358801
0.00748782
0.0230219
0.00743425
0.00508758
0.00741192
-0.00830059
0.00740255
-0.0117203
0.00739534
-0.0100388
0.00738791
-0.00795492
0.0073814
-0.00674209
0.00737645
-0.00582049
0.00737216
-0.0050219
0.00736863
-0.00429433
0.00736518
-0.00363926
0.00736183
-0.00305814
0.00735816
-0.00252975
0.00735417
-0.00206006
0.00734964
-0.00163733
0.00734457
-0.00125674
0.00733882
-0.000900989
0.00733245
-0.000599736
0.00732542
-0.000326616
0.00731781
-9.6277e-05
0.00730969
9.69429e-05
0.00730115
0.000262459
0.00729223
0.000407285
0.00728321
0.00048743
0.00727393
0.000589827
0.00726501
0.00057379
0.00725563
0.000697131
0.00724737
0.000512269
0.0072378
0.000789455
0.00723023
0.0003226
0.00722005
0.000838492
0.00721257
6.6778e-05
0.00720126
0.000814605
0.00719433
-0.000354032
0.00718192
0.000653207
0.00717536
-0.00105206
0.00715902
0.000377967
0.0071513
-0.00228819
0.00713588
-0.00071075
0.00714217
-0.00499621
0.00714444
-0.00293854
0.00717784
-0.0084235
0.00720571
-0.0051112
0.00726967
-0.0105182
0.00731445
-0.00352428
0.00736143
-0.0057589
0.00733108
0.00647109
0.00732729
0.00203267
0.00730604
0.0105313
0.00735984
0.00674648
0.00742811
0.0163777
0.0075735
0.0357648
0.0078198
0.0567488
0.00793298
-0.00499429
0.00775834
-0.0378866
0.00758782
-0.0178706
0.00747795
-0.00338545
0.00744614
-0.00507021
0.00742317
0.000406636
0.00742179
-0.00282226
0.00740895
0.000949679
0.00741625
-0.00308352
0.00741652
-5.17095e-05
0.00743256
-0.00331967
0.00743564
-0.000209949
0.00744812
-0.00263514
0.0074454
0.000749032
0.0074471
-0.000619105
0.00743447
0.00227452
0.00742644
0.00127397
0.00740703
0.00356122
0.00738762
0.00308577
0.00736215
0.00437119
0.00733973
0.00365138
0.00731957
0.00386322
0.00730931
0.0026597
0.00730513
0.00229507
0.00730398
0.0016197
0.0073016
0.00158648
0.00729786
0.0014641
0.00728984
0.00163735
0.0072768
0.0018697
0.00726037
0.00192455
0.00724251
0.00194052
0.00722495
0.00157901
0.00720659
0.00134643
0.00718898
0.000642203
0.00717012
0.000109135
0.00715386
-0.0010688
0.00713694
-0.00207652
0.00712585
-0.003826
0.0071149
-0.00561911
0.00711404
-0.0080158
0.00712129
-0.0112798
0.00714801
-0.0144611
0.00722045
-0.0203597
0.00732802
-0.0243162
0.00759309
-0.032772
-0.0361316
0.00748784
0.0231098
0.00743376
0.00514167
0.00741078
-0.00827762
0.00740085
-0.0117104
0.00739319
-0.0100311
0.0073854
-0.00794713
0.00737858
-0.00673527
0.00737338
-0.00581528
0.00736888
-0.0050174
0.00736519
-0.00429064
0.00736159
-0.00363566
0.00735811
-0.00305467
0.00735433
-0.00252597
0.00735024
-0.00205598
0.00734562
-0.00163271
0.00734047
-0.00125158
0.00733463
-0.000895159
0.00732819
-0.000593291
0.00732109
-0.000319516
0.00731341
-8.86025e-05
0.00730522
0.000105138
0.00729661
0.000271067
0.00728762
0.000416267
0.00727854
0.000496516
0.00726919
0.000599173
0.0072602
0.000582775
0.00725075
0.00070658
0.00724244
0.000520578
0.00723282
0.000799075
0.00722519
0.000330234
0.00721495
0.000848727
0.00720742
7.43088e-05
0.00719603
0.000825993
0.00718903
-0.000347039
0.00717654
0.000665692
0.0071699
-0.00104542
0.0071534
0.000394464
0.00714546
-0.00228024
0.00712977
-0.000695065
0.00713586
-0.0050023
0.00713796
-0.00294064
0.00717128
-0.00845682
0.00719919
-0.0051391
0.00726348
-0.0105825
0.00730876
-0.00356956
0.00735606
-0.0058062
0.0073255
0.00650167
0.00732142
0.00203673
0.00730009
0.0105527
0.00735431
0.00669224
0.00742393
0.0163081
0.00757368
0.035615
0.00782633
0.0564962
0.00794028
-0.00510826
0.00776042
-0.0377066
0.00758647
-0.0176967
0.00747554
-0.00327446
0.00744343
-0.00503812
0.0074204
0.000429688
0.00741896
-0.00282084
0.0074062
0.000962444
0.0074136
-0.00309091
0.0074139
-5.19778e-05
0.00742998
-0.00333577
0.00743316
-0.000213124
0.00744574
-0.00264771
0.00744302
0.000751768
0.0074447
-0.000620798
0.00743202
0.0022872
0.00742395
0.00128204
0.00740445
0.00358072
0.00738495
0.00310528
0.00735938
0.00439676
0.00733686
0.00367391
0.00731663
0.00388345
0.00730641
0.00266991
0.00730236
0.00229912
0.00730133
0.00162073
0.00729904
0.00158877
0.00729536
0.00146778
0.00728735
0.00164537
0.00727424
0.00188281
0.0072577
0.00194109
0.00723975
0.00195848
0.0072221
0.00159666
0.00720364
0.00136489
0.00718591
0.000659943
0.00716689
0.00012815
0.00715045
-0.00105236
0.00713329
-0.00205936
0.00712194
-0.00381464
0.00711061
-0.00560777
0.00710935
-0.00801454
0.00711596
-0.0112864
0.00714219
-0.0144873
0.00721418
-0.0204317
0.00732215
-0.0244241
0.00759158
-0.0330415
-0.0363866
0.00748788
0.0231977
0.00743328
0.00519626
0.00740965
-0.00825399
0.00739915
-0.0116999
0.00739105
-0.010023
0.0073829
-0.00793899
0.00737576
-0.00672814
0.00737031
-0.00580983
0.0073656
-0.00501269
0.00736174
-0.00428678
0.007358
-0.00363192
0.0073544
-0.00305107
0.00735051
-0.00252208
0.00734632
-0.00205179
0.00734161
-0.001628
0.00733637
-0.00124634
0.00733046
-0.00088925
0.00732394
-0.000586774
0.00731677
-0.000312345
0.00730903
-8.08567e-05
0.00730076
0.000113403
0.00729208
0.000279742
0.00728303
0.000425317
0.00727388
0.000505669
0.00726446
0.000608585
0.00725542
0.00059182
0.00724591
0.000716091
0.00723754
0.000528945
0.00722786
0.000808748
0.00722017
0.000337922
0.00720988
0.000859016
0.00720229
8.18981e-05
0.00719083
0.000837454
0.00718377
-0.000339984
0.0071712
0.000678257
0.00716448
-0.0010387
0.00714782
0.000411119
0.00713966
-0.00227209
0.00712371
-0.000679116
0.00712959
-0.00500819
0.00713151
-0.00294257
0.00716475
-0.00849007
0.00719269
-0.00516703
0.00725733
-0.0106472
0.00730311
-0.00361535
0.00735071
-0.0058538
0.00731993
0.00653245
0.00731556
0.00204109
0.00729412
0.0105741
0.00734873
0.00663762
0.00741958
0.0162373
0.00757368
0.0354608
0.00783282
0.056237
0.00794746
-0.0052229
0.00776223
-0.0375213
0.00758491
-0.0175194
0.00747302
-0.00316252
0.00744067
-0.00500579
0.00741761
0.00045277
0.00741611
-0.00281936
0.00740346
0.000975102
0.00741096
-0.0030984
0.0074113
-5.22884e-05
0.00742743
-0.00335191
0.00743072
-0.000216409
0.00744339
-0.00266037
0.00744068
0.000754499
0.00744235
-0.000622472
0.00742963
0.00229992
0.00742152
0.00129016
0.00740193
0.00360031
0.00738233
0.00312488
0.00735665
0.00442244
0.00733402
0.00369653
0.00731374
0.00390374
0.00730357
0.00268009
0.00729964
0.00230305
0.00729874
0.00162164
0.00729653
0.00159098
0.00729292
0.00147139
0.0072849
0.00165338
0.00727173
0.00189599
0.00725508
0.00195773
0.00723703
0.00197654
0.00721929
0.0016144
0.00720074
0.00138345
0.00718288
0.000677805
0.0071637
0.000147324
0.00714708
-0.00103573
0.00712968
-0.00204196
0.00711807
-0.00380303
0.00710634
-0.00559604
0.00710467
-0.00801286
0.00711064
-0.0112924
0.00713636
-0.014513
0.00720788
-0.0205033
0.00731626
-0.0245325
0.00759015
-0.0333153
-0.036645
0.00748793
0.0232856
0.00743283
0.00525136
0.00740853
-0.00822969
0.00739745
-0.0116888
0.00738889
-0.0100145
0.00738039
-0.00793049
0.00737294
-0.00672069
0.00736725
-0.00580413
0.00736233
-0.00500778
0.0073583
-0.00428275
0.00735441
-0.00362804
0.00735069
-0.00304735
0.00734669
-0.00251808
0.0073424
-0.00204751
0.00733761
-0.00162321
0.00733229
-0.00124103
0.0073263
-0.000883265
0.00731971
-0.000580182
0.00731247
-0.000305104
0.00730465
-7.30428e-05
0.00729632
0.000121738
0.00728757
0.000288484
0.00727845
0.000434435
0.00726924
0.000514886
0.00725976
0.000618062
0.00725065
0.000600926
0.00724108
0.000725665
0.00723266
0.000537363
0.00722292
0.000818479
0.00721519
0.000345659
0.00720484
0.000869362
0.00719719
8.95464e-05
0.00718565
0.000848986
0.00717853
-0.000332862
0.00716588
0.000690903
0.00715908
-0.00103191
0.00714226
0.000427935
0.00713388
-0.00226371
0.00711767
-0.000662904
0.00712335
-0.00501388
0.0071251
-0.00294432
0.00715825
-0.00852322
0.00718622
-0.00519501
0.0072512
-0.0107122
0.00729749
-0.00366164
0.00734538
-0.0059017
0.00731439
0.00656346
0.0073097
0.00204577
0.00728814
0.0105957
0.00734313
0.00658262
0.00741507
0.0161653
0.00757348
0.0353023
0.00783928
0.0559712
0.00795452
-0.00533813
0.00776375
-0.0373305
0.00758314
-0.0173388
0.00747039
-0.00304972
0.00743786
-0.00497327
0.00741479
0.000475851
0.00741324
-0.00281783
0.00740072
0.000987627
0.00740835
-0.00310601
0.00740873
-5.26473e-05
0.00742491
-0.00336809
0.00742832
-0.000219812
0.00744109
-0.00267313
0.00743838
0.000757222
0.00744004
-0.000624129
0.00742728
0.00231268
0.00741913
0.00129832
0.00739945
0.00361998
0.00737975
0.00314458
0.00735396
0.00444823
0.00733124
0.00371926
0.00731089
0.00392408
0.00730077
0.00269021
0.00729697
0.00230684
0.00729619
0.00162242
0.00729407
0.0015931
0.00729052
0.00147495
0.0072825
0.0016614
0.00726926
0.00190923
0.00725251
0.00197448
0.00723436
0.0019947
0.00721653
0.00163223
0.00719787
0.00140211
0.00717988
0.000695793
0.00716055
0.000166659
0.00714374
-0.00101892
0.00712609
-0.00202431
0.00711422
-0.00379116
0.0071021
-0.00558392
0.00710002
-0.00801078
0.00710532
-0.0112977
0.00713053
-0.0145382
0.00720155
-0.0205743
0.00731035
-0.0246413
0.00758878
-0.0335938
-0.036907
0.00748799
0.0233733
0.0074324
0.00530695
0.00740743
-0.00820472
0.00739576
-0.0116771
0.00738674
-0.0100055
0.00737788
-0.00792163
0.00737012
-0.00671294
0.00736418
-0.00579819
0.00735906
-0.00500266
0.00735485
-0.00427854
0.00735082
-0.00362401
0.00734698
-0.0030435
0.00734287
-0.00251398
0.00733849
-0.00204313
0.00733361
-0.00161833
0.00732821
-0.00123563
0.00732215
-0.000877207
0.00731549
-0.000573521
0.00730817
-0.000297791
0.00730029
-6.51608e-05
0.00729189
0.00013014
0.00728308
0.000297293
0.00727389
0.000443619
0.00726461
0.000524169
0.00725506
0.000627604
0.0072459
0.000610091
0.00723626
0.000735301
0.00722779
0.000545834
0.007218
0.000828263
0.00721022
0.000353443
0.00719982
0.000879763
0.00719211
9.72508e-05
0.0071805
0.00086059
0.00717332
-0.00032568
0.00716059
0.000703626
0.00715371
-0.00102503
0.00713674
0.000444908
0.00712814
-0.00225511
0.00711166
-0.000646431
0.00711714
-0.00501936
0.00711871
-0.0029459
0.00715176
-0.00855627
0.00717978
-0.00522302
0.00724511
-0.0107775
0.0072919
-0.00370843
0.00734008
-0.00594988
0.00730886
0.00659469
0.00730384
0.00205077
0.00728215
0.0106174
0.00733749
0.00652727
0.00741039
0.0160924
0.00757308
0.0351396
0.0078457
0.0556985
0.00796144
-0.00545386
0.00776499
-0.037134
0.00758116
-0.0171549
0.00746765
-0.00293617
0.007435
-0.00494062
0.00741194
0.00049892
0.00741036
-0.00281626
0.00739799
0.00100001
0.00740575
-0.00311377
0.00740619
-5.30598e-05
0.00742241
-0.00338432
0.00742594
-0.000223337
0.00743883
-0.00268601
0.00743613
0.000759936
0.00743776
-0.000625764
0.00742497
0.00232546
0.00741678
0.00130651
0.00739702
0.00363974
0.00737722
0.00316437
0.00735133
0.00447413
0.0073285
0.00374209
0.00730809
0.00394449
0.00729801
0.0027003
0.00729435
0.0023105
0.00729369
0.00162308
0.00729166
0.00159513
0.00728816
0.00147845
0.00728014
0.00166942
0.00726683
0.00192254
0.00724997
0.00199134
0.00723172
0.00201296
0.00721379
0.00165015
0.00719504
0.00142087
0.00717692
0.000713906
0.00715743
0.000186151
0.00714042
-0.0010019
0.00712254
-0.00200642
0.0071104
-0.00377903
0.00709788
-0.00557139
0.00709538
-0.00800829
0.00710001
-0.0113023
0.00712469
-0.0145629
0.00719519
-0.0206448
0.0073044
-0.0247505
0.00758746
-0.0338768
-0.0371726
0.00748807
0.023461
0.00743198
0.00536303
0.00740634
-0.00817908
0.00739406
-0.0116649
0.00738458
-0.00999597
0.00737536
-0.00791241
0.0073673
-0.00670487
0.00736111
-0.005792
0.00735578
-0.00499733
0.00735141
-0.00427417
0.00734724
-0.00361984
0.00734327
-0.00303954
0.00733906
-0.00250976
0.00733459
-0.00203865
0.00732962
-0.00161336
0.00732414
-0.00123015
0.007318
-0.000871072
0.00731127
-0.000566787
0.00730389
-0.000290413
0.00729594
-5.72096e-05
0.00728747
0.00013861
0.00727859
0.000306169
0.00726934
0.000452868
0.00725999
0.000533514
0.00725038
0.000637211
0.00724116
0.000619314
0.00723146
0.000744997
0.00722294
0.000554357
0.0072131
0.0008381
0.00720527
0.000361278
0.00719481
0.000890216
0.00718705
0.000105014
0.00717537
0.000872264
0.00716812
-0.000318436
0.00715532
0.000716427
0.00714837
-0.00101808
0.00713123
0.000462041
0.00712241
-0.00224629
0.00710568
-0.000629697
0.00711095
-0.00502464
0.00711235
-0.0029473
0.0071453
-0.00858923
0.00717336
-0.00525107
0.00723903
-0.0108432
0.00728633
-0.00375574
0.0073348
-0.00599835
0.00730334
0.00662616
0.00729799
0.00205611
0.00727614
0.0106392
0.00733181
0.00647159
0.00740554
0.0160187
0.00757248
0.0349726
0.0078521
0.0554189
0.00796825
-0.00557001
0.00776595
-0.0369317
0.00757899
-0.016968
0.00746481
-0.00282195
0.00743209
-0.00490792
0.00740907
0.000521949
0.00740746
-0.00281466
0.00739525
0.00101222
0.00740317
-0.00312168
0.00740366
-5.35293e-05
0.00741994
-0.0034006
0.0074236
-0.000226991
0.0074366
-0.00269901
0.00743391
0.000762638
0.00743552
-0.000627382
0.00742271
0.00233828
0.00741448
0.00131474
0.00739463
0.00365959
0.00737474
0.00318427
0.00734873
0.00450014
0.00732579
0.00376503
0.00730533
0.00396495
0.00729529
0.00271033
0.00729176
0.00231404
0.00729123
0.00162361
0.00728929
0.00159708
0.00728585
0.00148189
0.00727783
0.00167744
0.00726445
0.00193592
0.00724747
0.00200832
0.00722911
0.00203132
0.00721109
0.00166818
0.00719224
0.00143973
0.007174
0.00073215
0.00715434
0.00020581
0.00713714
-0.000984701
0.00711901
-0.00198829
0.0071066
-0.00376662
0.00709367
-0.00555846
0.00709076
-0.00800537
0.0070947
-0.0113063
0.00711884
-0.014587
0.00718878
-0.0207147
0.0072984
-0.0248601
0.00758616
-0.0341646
-0.0374419
0.00748815
0.0235486
0.00743159
0.0054196
0.00740525
-0.00815274
0.00739237
-0.011652
0.00738241
-0.00998602
0.00737284
-0.00790283
0.00736447
-0.00669651
0.00735803
-0.00578556
0.0073525
-0.0049918
0.00734797
-0.00426964
0.00734365
-0.00361552
0.00733957
-0.00303545
0.00733525
-0.00250545
0.00733068
-0.00203409
0.00732563
-0.00160831
0.00732007
-0.00122459
0.00731386
-0.000864865
0.00730706
-0.000559984
0.00729961
-0.000282964
0.00729159
-4.91932e-05
0.00728305
0.000147146
0.00727411
0.000315109
0.00726479
0.000462182
0.00725538
0.000542923
0.00724572
0.000646878
0.00723643
0.000628597
0.00722667
0.000754752
0.0072181
0.000562932
0.00720821
0.000847988
0.00720033
0.00036916
0.00718982
0.000900722
0.007182
0.000112829
0.00717025
0.000884006
0.00716295
-0.000311131
0.00715007
0.000729302
0.00714304
-0.00101106
0.00712575
0.000479331
0.00711671
-0.00223725
0.00709971
-0.000612705
0.00710479
-0.00502972
0.007106
-0.00294852
0.00713885
-0.00862208
0.00716695
-0.00527916
0.00723298
-0.0109093
0.00728078
-0.00380354
0.00732953
-0.00604709
0.00729783
0.00665786
0.00729214
0.00206179
0.00727011
0.0106613
0.00732611
0.00641559
0.00740052
0.0159443
0.00757167
0.0348014
0.00785846
0.0551321
0.00797495
-0.00568648
0.00776662
-0.0367233
0.00757661
-0.016778
0.00746187
-0.00270717
0.00742915
-0.00487521
0.00740618
0.000544927
0.00740455
-0.00281305
0.00739253
0.00102425
0.00740061
-0.00312975
0.00740116
-5.40623e-05
0.00741748
-0.00341693
0.00742127
-0.000230776
0.0074344
-0.00271212
0.00743172
0.000765329
0.00743331
-0.000628977
0.00742047
0.00235112
0.00741221
0.00132301
0.00739228
0.00367952
0.00737228
0.00320426
0.00734616
0.00452626
0.00732312
0.00378807
0.0073026
0.00398548
0.00729261
0.00272032
0.00728921
0.00231743
0.00728881
0.00162401
0.00728695
0.00159893
0.00728357
0.00148527
0.00727555
0.00168547
0.00726209
0.00194938
0.00724501
0.0020254
0.00722654
0.00204979
0.00720843
0.00168629
0.00718947
0.00145869
0.00717109
0.000750523
0.00715127
0.00022563
0.00713388
-0.000967302
0.0071155
-0.00196991
0.00710282
-0.00375394
0.00708948
-0.00554511
0.00708614
-0.00800202
0.00708938
-0.0113095
0.00711298
-0.0146106
0.00718233
-0.0207841
0.00729234
-0.0249701
0.00758485
-0.0344571
-0.0377147
0.00748826
0.0236361
0.00743121
0.00547665
0.00740418
-0.00812571
0.00739067
-0.0116385
0.00738024
-0.00997559
0.00737031
-0.0078929
0.00736163
-0.00668783
0.00735495
-0.00577889
0.00734922
-0.00498607
0.00734452
-0.00426494
0.00734007
-0.00361107
0.00733586
-0.00303125
0.00733144
-0.00250102
0.00732678
-0.00202942
0.00732164
-0.00160317
0.007316
-0.00121895
0.00730972
-0.000858584
0.00730284
-0.000553111
0.00729533
-0.000275449
0.00728724
-4.11086e-05
0.00727864
0.000155747
0.00726963
0.000324116
0.00726025
0.00047156
0.00725078
0.000552394
0.00724105
0.000656609
0.00723171
0.000637936
0.00722189
0.000764567
0.00721327
0.000571555
0.00720332
0.00085793
0.0071954
0.000377085
0.00718484
0.000911283
0.00717696
0.000120699
0.00716515
0.000895818
0.00715778
-0.000303765
0.00714483
0.000742253
0.00713773
-0.00100396
0.00712028
0.000496779
0.00711102
-0.00222799
0.00709377
-0.000595455
0.00709864
-0.0050346
0.00709967
-0.00294955
0.00713242
-0.00865483
0.00716055
-0.0053073
0.00722694
-0.0109757
0.00727525
-0.00385186
0.00732427
-0.00609611
0.00729233
0.0066898
0.00728629
0.00206783
0.00726407
0.0106835
0.00732037
0.00635929
0.00739534
0.0158693
0.00757065
0.034626
0.00786479
0.0548379
0.00798153
-0.0058032
0.00776701
-0.0365088
0.00757406
-0.016585
0.00745883
-0.00259192
0.00742617
-0.00484254
0.00740327
0.000567833
0.00740163
-0.00281142
0.0073898
0.00103608
0.00739806
-0.003138
0.00739868
-5.46606e-05
0.00741505
-0.0034333
0.00741897
-0.000234697
0.00743222
-0.00272536
0.00742956
0.000768005
0.00743113
-0.000630553
0.00741827
0.00236398
0.00740998
0.0013313
0.00738996
0.00369954
0.00736986
0.00322436
0.00734363
0.00455249
0.00732048
0.00381122
0.0072999
0.00400607
0.00728996
0.00273026
0.00728669
0.0023207
0.00728642
0.00162429
0.00728465
0.0016007
0.00728133
0.00148859
0.0072733
0.0016935
0.00725977
0.00196292
0.00724257
0.0020426
0.007224
0.00206836
0.00720578
0.00170451
0.00718672
0.00147776
0.00716822
0.000769028
0.00714823
0.000245618
0.00713063
-0.000949701
0.00711201
-0.00195128
0.00709906
-0.00374099
0.00708531
-0.00553136
0.00708153
-0.00799824
0.00708407
-0.011312
0.0071071
-0.0146337
0.00717583
-0.0208528
0.00728621
-0.0250805
0.00758348
-0.0347544
-0.0379912
0.00748838
0.0237235
0.00743085
0.00553417
0.00740311
-0.00809798
0.00738897
-0.0116243
0.00737806
-0.00996467
0.00736777
-0.00788262
0.00735879
-0.00667885
0.00735187
-0.00577197
0.00734593
-0.00498014
0.00734107
-0.00426007
0.00733647
-0.00360648
0.00733215
-0.00302692
0.00732762
-0.0024965
0.00732287
-0.00202467
0.00731764
-0.00159795
0.00731193
-0.00121324
0.00730557
-0.000852231
0.00729863
-0.000546169
0.00729105
-0.000267867
0.0072829
-3.29585e-05
0.00727423
0.000164413
0.00726515
0.000333189
0.00725571
0.000481001
0.00724618
0.000561928
0.00723639
0.000666399
0.00722699
0.000647334
0.00721711
0.000774439
0.00720844
0.000580231
0.00719845
0.00086792
0.00719047
0.000385058
0.00717986
0.000921894
0.00717193
0.000128621
0.00716005
0.000907697
0.00715262
-0.00029634
0.0071396
0.000755275
0.00713243
-0.000996789
0.00711482
0.000514382
0.00710533
-0.00221851
0.00708783
-0.000577949
0.0070925
-0.00503929
0.00709335
-0.0029504
0.00712599
-0.00868747
0.00715416
-0.00533548
0.00722091
-0.0110424
0.00726974
-0.00390069
0.00731903
-0.0061454
0.00728684
0.00672199
0.00728044
0.00207422
0.00725802
0.0107059
0.00731461
0.00630269
0.00739001
0.0157939
0.00756944
0.0344466
0.00787109
0.0545362
0.007988
-0.0059201
0.00776715
-0.0362879
0.00757132
-0.0163892
0.00745572
-0.00247629
0.00742315
-0.00480998
0.00740033
0.000590655
0.00739869
-0.00280978
0.00738707
0.00104771
0.00739552
-0.00314644
0.00739621
-5.53307e-05
0.00741262
-0.00344972
0.00741669
-0.000238756
0.00743007
-0.00273874
0.00742742
0.000770666
0.00742897
-0.000632104
0.00741608
0.00237686
0.00740777
0.00133962
0.00738767
0.00371964
0.00736747
0.00324456
0.00734112
0.00457883
0.00731787
0.00383448
0.00729722
0.00402671
0.00728733
0.00274015
0.0072842
0.00232382
0.00728405
0.00162444
0.00728238
0.00160238
0.00727912
0.00149185
0.00727108
0.00170153
0.00725747
0.00197653
0.00724015
0.00205992
0.00722147
0.00208704
0.00720316
0.00172282
0.00718399
0.00149692
0.00716536
0.000787664
0.0071452
0.000265774
0.00712741
-0.000931906
0.00710853
-0.0019324
0.00709531
-0.00372777
0.00708114
-0.00551719
0.00707693
-0.00799403
0.00707874
-0.0113138
0.00710119
-0.0146561
0.00716926
-0.0209209
0.00727998
-0.0251912
0.007582
-0.0350564
-0.0382712
0.00748851
0.0238107
0.0074305
0.00559218
0.00740205
-0.00806952
0.00738727
-0.0116095
0.00737587
-0.00995327
0.00736522
-0.00787197
0.00735594
-0.00666957
0.00734878
-0.00576481
0.00734264
-0.004974
0.00733761
-0.00425504
0.00733288
-0.00360175
0.00732843
-0.00302248
0.0073238
-0.00249187
0.00731896
-0.00201983
0.00731365
-0.00159264
0.00730785
-0.00120744
0.00730143
-0.000845804
0.00729442
-0.000539158
0.00728676
-0.000260216
0.00727855
-2.47437e-05
0.00726981
0.000173146
0.00726068
0.000342323
0.00725117
0.000490508
0.00724158
0.000571523
0.00723172
0.000676253
0.00722227
0.000656788
0.00721233
0.000784369
0.00720361
0.000588955
0.00719357
0.000877962
0.00718555
0.000393075
0.00717488
0.000932558
0.0071669
0.000136598
0.00715496
0.000919643
0.00714747
-0.000288857
0.00713437
0.000768374
0.00712713
-0.000989547
0.00710936
0.000532142
0.00709965
-0.0022088
0.00708189
-0.000560186
0.00708637
-0.00504377
0.00708703
-0.00295106
0.00711956
-0.00871999
0.00714778
-0.0053637
0.00721489
-0.0111095
0.00726423
-0.00395003
0.00731379
-0.00619496
0.00728135
0.00675443
0.00727459
0.00208097
0.00725194
0.0107285
0.00730882
0.00624581
0.00738453
0.0157182
0.00756804
0.034263
0.00787737
0.0542269
0.00799438
-0.0060371
0.00776703
-0.0360605
0.00756842
-0.0161906
0.00745252
-0.00236037
0.0074201
-0.00477756
0.00739738
0.000613378
0.00739575
-0.00280815
0.00738434
0.00105912
0.00739299
-0.00315508
0.00739374
-5.60724e-05
0.00741021
-0.00346618
0.00741441
-0.000242955
0.00742793
-0.00275224
0.00742529
0.000773311
0.00742682
-0.000633636
0.00741392
0.00238976
0.00740558
0.00134795
0.0073854
0.00373983
0.0073651
0.00326486
0.00733864
0.00460529
0.00731527
0.00385784
0.00729456
0.00404742
0.00728472
0.00275
0.00728173
0.00232681
0.00728171
0.00162446
0.00728012
0.00160397
0.00727692
0.00149505
0.00726888
0.00170957
0.00725519
0.00199022
0.00723775
0.00207736
0.00721897
0.00210583
0.00720056
0.00174123
0.00718128
0.0015162
0.00716251
0.000806436
0.00714219
0.000286101
0.00712419
-0.000913907
0.00710506
-0.00191327
0.00709156
-0.00371426
0.00707697
-0.00550261
0.00707232
-0.00798937
0.00707339
-0.0113149
0.00709526
-0.014678
0.00716263
-0.0209883
0.00727362
-0.0253022
0.00758032
-0.0353631
-0.0385548
0.00748866
0.0238978
0.00743018
0.00565065
0.00740099
-0.00804034
0.00738556
-0.0115941
0.00737366
-0.00994138
0.00736267
-0.00786098
0.00735308
-0.00665998
0.00734568
-0.00575741
0.00733934
-0.00496766
0.00733414
-0.00424984
0.00732927
-0.00359688
0.00732471
-0.00301792
0.00731998
-0.00248714
0.00731504
-0.00201489
0.00730964
-0.00158725
0.00730377
-0.00120157
0.00729727
-0.000839306
0.00729019
-0.000532078
0.00728248
-0.000252501
0.00727419
-1.64637e-05
0.0072654
0.000181944
0.00725619
0.000351523
0.00724662
0.000500076
0.00723697
0.000581181
0.00722705
0.000686166
0.00721754
0.000666299
0.00720755
0.000794356
0.00719877
0.00059773
0.00718868
0.000888052
0.00718062
0.000401139
0.0071699
0.000943269
0.00716187
0.000144625
0.00714986
0.000931657
0.00714231
-0.000281313
0.00712914
0.00078154
0.00712183
-0.000982236
0.00710391
0.000550057
0.00709397
-0.00219887
0.00707596
-0.000542169
0.00708024
-0.00504806
0.00708071
-0.00295154
0.00711312
-0.0087524
0.00714139
-0.00539196
0.00720887
-0.011177
0.00725872
-0.00399989
0.00730855
-0.00624479
0.00727586
0.00678712
0.00726874
0.00208809
0.00724585
0.0107514
0.007303
0.00618866
0.00737891
0.0156423
0.00756645
0.0340754
0.00788361
0.0539097
0.00800066
-0.00615413
0.00776667
-0.0358265
0.00756537
-0.0159893
0.00744926
-0.00224424
0.00741703
-0.00474532
0.00739442
0.000635996
0.00739279
-0.00280652
0.0073816
0.00107031
0.00739046
-0.00316393
0.00739129
-5.68916e-05
0.0074078
-0.0034827
0.00741215
-0.000247294
0.0074258
-0.00276588
0.00742318
0.000775938
0.00742468
-0.000635142
0.00741177
0.00240267
0.00740342
0.00135631
0.00738315
0.0037601
0.00736274
0.00328527
0.00733617
0.00463187
0.00731269
0.00388132
0.00729192
0.00406819
0.00728213
0.00275979
0.00727928
0.00232966
0.00727939
0.00162435
0.00727789
0.00160548
0.00727475
0.00149819
0.0072667
0.00171762
0.00725293
0.002004
0.00723537
0.00209492
0.00721647
0.00212473
0.00719797
0.00175974
0.00717859
0.00153558
0.00715968
0.000825343
0.00713919
0.000306596
0.00712099
-0.000895706
0.0071016
-0.00189388
0.00708782
-0.00370048
0.00707281
-0.00548759
0.0070677
-0.00798426
0.00706803
-0.0113152
0.00708929
-0.0146992
0.00715593
-0.0210549
0.00726709
-0.0254134
0.00757833
-0.0356743
-0.0388416
0.00748882
0.0239848
0.00742986
0.00570961
0.00739994
-0.00801042
0.00738384
-0.011578