/*--------------------------------*- C++ -*----------------------------------*\
| =========                 |                                                 |
| \\      /  F ield         | OpenFOAM: The Open Source CFD Toolbox           |
|  \\    /   O peration     | Version:  2412                                  |
|   \\  /    A nd           | Website:  www.openfoam.com                      |
|    \\/     M anipulation  |                                                 |
\*---------------------------------------------------------------------------*/
FoamFile
{
    version     2.0;
    format      ascii;
    arch        "LSB;label=32;scalar=64";
    class       volVectorField;
    location    "0.1";
    object      U;
}
// * * * * * * * * * * * * * * * * * * * * * * * * * * * * * * * * * * * * * //

dimensions      [0 1 -1 0 0 0 0];

internalField   nonuniform List<vector> 
13077
(
(99.9932 -3.5888 0)
(100.504 -15.5544 1.13231e-16)
(101.506 -24.615 -1.28455e-16)
(102.934 -27.2088 0)
(104.389 -26.4505 0)
(105.959 -25.4621 0)
(107.52 -25.0428 0)
(109.219 -24.843 0)
(110.948 -24.7399 0)
(112.788 -24.7032 -9.90141e-17)
(114.676 -24.7329 0)
(116.66 -24.8285 0)
(118.705 -24.9781 0)
(120.838 -25.1859 -9.17075e-17)
(123.045 -25.4411 0)
(125.342 -25.7496 0)
(127.724 -26.1025 8.59594e-17)
(130.203 -26.5059 8.3988e-17)
(132.782 -26.9546 4.88913e-21)
(135.468 -27.4548 7.99735e-17)
(138.274 -28.004 0)
(141.201 -28.6078 7.5821e-17)
(144.281 -29.2643 -7.37371e-17)
(147.481 -29.9813 -7.15381e-17)
(150.913 -30.7473 0)
(154.401 -31.6016 0)
(158.304 -32.4569 -6.52564e-17)
(162.086 -33.5027 6.26087e-17)
(166.583 -34.3947 7.64525e-22)
(170.711 -35.7062 1.16249e-16)
(175.887 -36.5988 0)
(180.424 -38.2243 0)
(186.44 -39.1645 0)
(191.361 -41.1427 4.85536e-17)
(198.561 -42.1837 -4.75186e-17)
(203.805 -44.6101 0)
(212.548 -45.7302 4.31146e-17)
(217.995 -48.8478 0)
(228.751 -50.34 -3.85509e-17)
(99.9952 -3.60166 0)
(100.502 -15.5909 6.85472e-21)
(101.494 -24.6713 1.28572e-16)
(102.914 -27.2734 -1.29873e-16)
(104.361 -26.5163 0)
(105.926 -25.528 0)
(107.481 -25.1095 0)
(109.176 -24.9113 -1.02686e-16)
(110.9 -24.8094 0)
(112.736 -24.774 9.90041e-17)
(114.621 -24.8047 0)
(116.602 -24.9016 9.54052e-17)
(118.644 -25.0522 0)
(120.774 -25.2611 -5.43712e-21)
(122.978 -25.5173 0)
(125.272 -25.827 0)
(127.651 -26.181 8.59612e-17)
(130.127 -26.5856 0)
(132.703 -27.0356 -8.19921e-17)
(135.386 -27.5371 4.72199e-21)
(138.189 -28.0878 0)
(141.113 -28.6933 -7.58137e-17)
(144.19 -29.3517 -3.99496e-21)
(147.386 -30.0707 0)
(150.814 -30.8388 0)
(154.298 -31.6957 0)
(158.196 -32.5532 -6.52543e-17)
(161.975 -33.6024 0)
(166.467 -34.4963 -6.08749e-17)
(170.591 -35.8122 -5.81231e-17)
(175.761 -36.7064 -5.63491e-17)
(180.294 -38.3368 5.35152e-17)
(186.303 -39.2785 5.18888e-17)
(191.218 -41.2628 -4.85527e-17)
(198.411 -42.3048 0)
(203.648 -44.7386 4.34468e-17)
(212.382 -45.8577 -8.62321e-17)
(217.817 -48.9837 -3.81413e-17)
(228.558 -50.477 7.71068e-17)
(234.499 -54.8024 -2.71622e-21)
(248.531 -56.7228 0)
(255.597 -62.1117 2.6947e-17)
(274.337 -64.2721 0)
(283.086 -70.0302 4.2828e-17)
(308.073 -71.1768 -5.2053e-17)
(318.381 -75.235 1.58042e-17)
(348.26 -74.1433 -7.72536e-21)
(355.766 -79.063 0)
(393.778 -82.2963 0)
(405.458 -87.7139 -7.78528e-19)
(460.031 -94.0177 -1.12693e-17)
(484.183 -86.7391 0)
(562.716 -98.9403 -5.367e-18)
(631.607 6.18112 0)
(571.322 53.3923 5.58395e-18)
(538.544 65.4706 1.7962e-17)
(487.107 67.3422 5.1248e-18)
(470.007 63.9198 8.09462e-18)
(435.379 62.5482 5.98039e-18)
(423.646 58.7987 3.48128e-18)
(396.145 57.2846 7.69112e-18)
(386.133 53.2722 0)
(364.281 52.1061 9.56156e-18)
(355.704 48.7773 4.29672e-18)
(338.103 48.2642 0)
(329.909 45.5245 -7.91956e-18)
(315.329 45.6217 -1.31549e-17)
(307.152 43.5631 0)
(294.721 43.6367 -6.95868e-23)
(99.997 -3.61436 0)
(100.501 -15.6267 -2.26558e-16)
(101.481 -24.727 -1.28671e-16)
(102.894 -27.3376 1.30035e-16)
(104.334 -26.5818 0)
(105.893 -25.5937 0)
(107.442 -25.176 -1.05109e-16)
(109.132 -24.9795 1.02677e-16)
(110.852 -24.8786 0)
(112.685 -24.8447 0)
(114.566 -24.8765 0)
(116.543 -24.9745 -9.53952e-17)
(118.583 -25.1261 9.35693e-17)
(120.71 -25.3361 9.16941e-17)
(122.911 -25.5934 0)
(125.202 -25.9042 0)
(127.579 -26.2594 -8.59525e-17)
(130.052 -26.6652 0)
(132.625 -27.1165 0)
(135.305 -27.6194 4.70204e-21)
(138.105 -28.1716 7.79136e-17)
(141.025 -28.7788 7.58148e-17)
(144.099 -29.439 7.3727e-17)
(147.291 -30.16 0)
(150.715 -30.9302 0)
(154.196 -31.7898 0)
(158.089 -32.6494 -1.56716e-21)
(161.865 -33.7021 0)
(166.351 -34.5979 6.08722e-17)
(170.472 -35.9182 0)
(175.636 -36.8139 5.63462e-17)
(180.164 -38.4493 2.57477e-21)
(186.167 -39.3924 -5.1887e-17)
(191.077 -41.3827 0)
(198.262 -42.4259 4.75179e-17)
(203.492 -44.867 -4.34473e-17)
(212.217 -45.9851 4.31174e-17)
(217.641 -49.1195 7.62914e-17)
(228.366 -50.6137 -3.85557e-17)
(234.291 -54.9555 3.25487e-17)
(248.308 -56.8823 -3.40192e-17)
(255.359 -62.2949 2.6952e-17)
(274.088 -64.4655 2.97101e-17)
(282.826 -70.2533 -2.1414e-17)
(307.824 -71.411 -6.49881e-21)
(318.137 -75.4814 -1.58046e-17)
(348.012 -74.3637 2.2057e-17)
(355.474 -79.2986 -8.54081e-18)
(393.468 -82.5494 -1.65665e-17)
(405.12 -88.0216 7.78295e-19)
(459.727 -94.3899 1.12622e-17)
(483.994 -87.2094 0)
(562.971 -99.6826 5.34268e-18)
(632.374 6.15512 0)
(571.703 53.8497 -1.11941e-20)
(538.532 65.8689 1.23344e-20)
(486.989 67.6596 5.09367e-18)
(469.846 64.1713 0)
(435.223 62.7763 0)
(423.489 59.0062 0)
(395.993 57.4856 0)
(385.993 53.4564 -4.45223e-19)
(364.146 52.2839 -9.56242e-18)
(355.577 48.9411 0)
(337.983 48.4281 0)
(329.8 45.6792 0)
(315.223 45.779 1.31552e-17)
(307.049 43.7135 0)
(294.622 43.79 -1.49395e-17)
(286.441 41.9767 0)
(275.859 41.9346 -1.67407e-17)
(267.801 40.4704 -1.62561e-17)
(258.492 39.9625 0)
(250.862 38.4012 -1.85917e-17)
(242.83 37.389 0)
(236.101 35.6444 0)
(229.54 34.4737 0)
(223.82 33.2026 2.31516e-17)
(218.102 32.3663 -2.44482e-17)
(212.83 31.5303 -2.52755e-17)
(207.597 30.8865 2.63475e-17)
(202.549 30.3083 2.72529e-17)
(197.529 29.619 0)
(192.744 28.9408 2.91811e-17)
(188.075 28.0344 3.00764e-17)
(183.718 27.2562 0)
(179.373 26.1641 -3.19846e-17)
(175.43 25.2583 -3.30578e-17)
(171.335 23.9051 3.39083e-17)
(167.86 22.7485 3.50111e-17)
(163.996 21.0591 3.58387e-17)
(161.106 19.4752 0)
(157.455 17.3991 3.56634e-21)
(155.31 14.9713 -3.89881e-17)
(152.152 12.4561 0)
(151.104 8.51309 0)
(149.887 5.79457 0)
(150.445 0.517802 0)
(155.31 -0.990136 -4.46879e-17)
(99.9988 -3.62726 0)
(100.499 -15.6626 1.13302e-16)
(101.469 -24.7825 1.28788e-16)
(102.874 -27.4014 1.3021e-16)
(104.306 -26.6468 0)
(105.86 -25.659 1.0937e-16)
(107.403 -25.2422 1.05107e-16)
(109.088 -25.0473 -1.0268e-16)
(110.804 -24.9476 -1.00812e-16)
(112.633 -24.9151 0)
(114.511 -24.948 -9.72207e-17)
(116.485 -25.0473 0)
(118.522 -25.1999 -1.87125e-16)
(120.646 -25.411 0)
(122.845 -25.6694 0)
(125.133 -25.9813 -8.78912e-17)
(127.507 -26.3376 0)
(129.977 -26.7447 0)
(132.547 -27.1973 8.19906e-17)
(135.224 -27.7016 -7.99601e-17)
(138.021 -28.2553 -7.79056e-17)
(140.938 -28.8641 4.35736e-21)
(144.008 -29.5261 7.37278e-17)
(147.197 -30.2493 0)
(150.617 -31.0215 -6.95035e-17)
(154.094 -31.8837 0)
(157.983 -32.7455 6.52451e-17)
(161.756 -33.8017 0)
(166.236 -34.6994 -6.08678e-17)
(170.354 -36.0241 0)
(175.512 -36.9213 0)
(180.036 -38.5617 -5.35131e-17)
(186.033 -39.5062 0)
(190.936 -41.5027 0)
(198.114 -42.5469 -4.75173e-17)
(203.338 -44.9953 4.34571e-17)
(212.053 -46.1125 0)
(217.465 -49.2551 4.33497e-21)
(228.175 -50.7502 3.85564e-17)
(234.084 -55.1084 0)
(248.087 -57.0415 3.40197e-17)
(255.121 -62.4778 -2.69512e-17)
(273.84 -64.6588 -5.94182e-17)
(282.568 -70.4764 0)
(307.577 -71.6455 -6.42322e-21)
(317.895 -75.7282 1.58284e-17)
(347.766 -74.5838 2.2078e-17)
(355.184 -79.5339 1.70926e-17)
(393.159 -82.8018 1.6566e-17)
(404.781 -88.3288 0)
(459.419 -94.7618 0)
(483.789 -87.6785 -7.32595e-18)
(563.217 -100.428 0)
(633.14 6.12847 9.85778e-19)
(572.066 54.3081 -2.78066e-18)
(538.503 66.2673 1.23788e-20)
(486.861 67.9761 -7.24961e-21)
(469.681 64.4223 -8.07371e-18)
(435.065 63.0041 0)
(423.33 59.2133 3.47278e-18)
(395.842 57.6864 7.68856e-18)
(385.855 53.6405 -2.05954e-21)
(364.014 52.4617 -9.56442e-18)
(355.452 49.1051 -4.30568e-18)
(337.865 48.5919 -1.13587e-17)
(329.692 45.8342 0)
(315.12 45.9365 0)
(306.949 43.8641 0)
(294.524 43.9436 0)
(286.344 42.1228 0)
(275.764 42.0827 5.96964e-22)
(267.703 40.6139 -3.53107e-21)
(258.395 40.105 0)
(250.763 38.5373 1.8593e-17)
(242.732 37.5193 0)
(236.004 35.7649 2.09351e-17)
(229.45 34.5877 0)
(223.736 33.3123 2.31564e-17)
(218.024 32.4746 2.44481e-17)
(212.755 31.6371 2.52752e-17)
(207.525 30.9937 -2.63469e-17)
(202.477 30.416 -2.7253e-17)
(197.457 29.7261 -2.81898e-17)
(192.671 29.046 -5.83591e-17)
(188.001 28.137 -3.0073e-17)
(183.642 27.3568 0)
(179.298 26.2617 3.19828e-17)
(175.352 25.3542 2.17137e-21)
(171.256 23.9969 -3.39016e-17)
(167.776 22.8382 -3.50037e-17)
(163.909 21.1424 -3.58302e-17)
(161.014 19.5562 0)
(157.353 17.4701 3.50253e-21)
(155.205 15.0352 3.89809e-17)
(152.027 12.5028 -3.95796e-17)
(150.983 8.53007 4.1074e-17)
(149.749 5.78581 0)
(150.346 0.413576 0)
(155.346 -1.06359 4.47929e-17)
(100.001 -3.6401 0)
(100.498 -15.6981 1.13339e-16)
(101.457 -24.8376 -2.57785e-16)
(102.855 -27.4649 -1.30369e-16)
(104.278 -26.7116 -1.18437e-16)
(105.827 -25.724 -1.09393e-16)
(107.364 -25.3082 0)
(109.045 -25.1149 1.02672e-16)
(110.756 -25.0164 1.00802e-16)
(112.582 -24.9854 0)
(114.457 -25.0194 9.72106e-17)
(116.427 -25.1198 0)
(118.461 -25.2735 1.87116e-16)
(120.583 -25.4858 0)
(122.778 -25.7452 0)
(125.063 -26.0583 -5.21793e-21)
(127.435 -26.4158 0)
(129.902 -26.8241 -8.39797e-17)
(132.469 -27.2779 -8.19826e-17)
(135.144 -27.7837 0)
(137.937 -28.3389 0)
(140.851 -28.9494 -7.58041e-17)
(143.917 -29.6132 4.00769e-21)
(147.103 -30.3384 7.15323e-17)
(150.52 -31.1128 1.38998e-16)
(153.993 -31.9776 0)
(157.877 -32.8415 0)
(161.647 -33.9013 0)
(166.122 -34.8008 6.08653e-17)
(170.237 -36.1299 -5.81294e-17)
(175.388 -37.0287 5.63463e-17)
(179.908 -38.6741 5.35161e-17)
(185.898 -39.6199 -5.18898e-17)
(190.796 -41.6226 4.85626e-17)
(197.967 -42.6678 0)
(203.184 -45.1235 -4.34578e-17)
(211.89 -46.2397 4.31193e-17)
(217.291 -49.3906 -3.81569e-17)
(227.986 -50.8865 -7.71176e-17)
(233.878 -55.2611 -3.25603e-17)
(247.867 -57.2006 0)
(254.885 -62.6607 0)
(273.593 -64.8518 -2.4522e-21)
(282.311 -70.6996 2.14252e-17)
(307.331 -71.8802 -6.39128e-21)
(317.654 -75.975 -3.16705e-17)
(347.52 -74.8034 -2.20843e-17)
(354.895 -79.7687 -8.55193e-18)
(392.849 -83.0536 0)
(404.441 -88.6355 0)
(459.108 -95.1334 0)
(483.567 -88.1462 7.31171e-18)
(563.456 -101.176 0)
(633.908 6.10176 -9.86937e-19)
(572.409 54.7674 0)
(538.455 66.6653 1.24057e-20)
(486.723 68.2917 -1.0104e-17)
(469.51 64.6726 8.06845e-18)
(434.906 63.2315 0)
(423.169 59.42 -2.61507e-21)
(395.69 57.887 -7.68909e-18)
(385.717 53.8246 4.47321e-19)
(363.883 52.6396 1.91317e-17)
(355.328 49.269 8.61489e-18)
(337.748 48.7558 1.13595e-17)
(329.587 45.9892 7.93518e-18)
(315.019 46.0942 0)
(306.851 44.0149 0)
(294.428 44.0973 -1.49395e-17)
(286.249 42.2692 0)
(275.67 42.2311 5.99325e-22)
(267.608 40.7576 1.62595e-17)
(258.3 40.2477 0)
(250.666 38.6736 -1.85929e-17)
(242.635 37.6499 0)
(235.909 35.8855 -2.09361e-17)
(229.361 34.7017 0)
(223.653 33.422 2.30233e-21)
(217.947 32.5829 2.44472e-17)
(212.681 31.7439 0)
(207.455 31.1011 2.63458e-17)
(202.407 30.524 2.72516e-17)
(197.386 29.8335 2.81882e-17)
(192.598 29.1515 2.91779e-17)
(187.929 28.2397 1.00742e-21)
(183.568 27.4574 3.10987e-17)
(179.223 26.3595 -3.19776e-17)
(175.275 25.4503 3.30515e-17)
(171.177 24.0888 6.77973e-17)
(167.693 22.9282 2.59769e-21)
(163.822 21.2259 3.58281e-17)
(160.923 19.6374 0)
(157.252 17.5414 3.77283e-17)
(155.1 15.0996 0)
(151.902 12.5498 3.95725e-17)
(150.861 8.54718 -4.10624e-17)
(149.609 5.77653 0)
(150.246 0.306413 0)
(155.385 -1.13882 0)
(100.003 -3.65295 0)
(100.497 -15.7333 -2.26732e-16)
(101.445 -24.8922 2.58004e-16)
(102.835 -27.528 0)
(104.25 -26.776 1.18525e-16)
(105.793 -25.7887 0)
(107.325 -25.3738 1.05122e-16)
(109.001 -25.1823 1.02675e-16)
(110.708 -25.0851 0)
(112.53 -25.0555 0)
(114.402 -25.0906 -9.72116e-17)
(116.37 -25.1923 -9.53873e-17)
(118.4 -25.347 -9.35508e-17)
(120.519 -25.5605 9.1687e-17)
(122.712 -25.8209 -8.98024e-17)
(124.994 -26.1352 1.75762e-16)
(127.363 -26.4938 0)
(129.827 -26.9033 8.39713e-17)
(132.392 -27.3585 -8.19843e-17)
(135.063 -27.8656 -7.9959e-17)
(137.854 -28.4224 0)
(140.764 -29.0346 0)
(143.828 -29.7002 4.0227e-21)
(147.01 -30.4274 -1.43055e-16)
(150.423 -31.2039 3.05149e-21)
(153.892 -32.0713 0)
(157.772 -32.9374 -6.5239e-17)
(161.538 -34.0007 0)
(166.008 -34.9022 -6.08609e-17)
(170.12 -36.2356 5.81258e-17)
(175.265 -37.1359 -5.63433e-17)
(179.782 -38.7864 -5.35138e-17)
(185.765 -39.7336 -2.11033e-21)
(190.657 -41.7424 -4.85616e-17)
(197.821 -42.7887 0)
(203.032 -45.2516 4.34677e-17)
(211.728 -46.3668 -8.62415e-17)
(217.118 -49.5258 0)
(227.797 -51.0225 3.85611e-17)
(233.673 -55.4136 3.2562e-17)
(247.648 -57.3595 0)
(254.65 -62.8433 0)
(273.347 -65.0447 -2.43848e-21)
(282.056 -70.9229 5.59759e-21)
(307.086 -72.1151 2.60346e-17)
(317.416 -76.222 -1.16193e-20)
(347.275 -75.0227 -2.21067e-17)
(354.607 -80.003 0)
(392.538 -83.3047 1.65784e-17)
(404.101 -88.9415 -7.97498e-19)
(458.794 -95.5046 0)
(483.328 -88.6124 0)
(563.687 -101.926 5.24229e-18)
(634.678 6.07465 -9.94614e-19)
(572.73 55.2274 0)
(538.39 67.0627 -1.77583e-17)
(486.576 68.6063 7.18017e-21)
(469.335 64.9222 0)
(434.745 63.4586 5.96832e-18)
(423.007 59.6263 -2.60324e-21)
(395.538 58.0872 0)
(385.579 54.0085 -4.51476e-19)
(363.754 52.8176 -9.56744e-18)
(355.205 49.433 -4.30928e-18)
(337.633 48.9197 1.13625e-17)
(329.483 46.1442 -7.93556e-18)
(314.92 46.252 1.31622e-17)
(306.755 44.1658 1.10994e-17)
(294.335 44.2512 2.98795e-17)
(286.155 42.4159 0)
(275.579 42.3797 1.67388e-17)
(267.514 40.9016 0)
(258.207 40.3906 0)
(250.571 38.8101 0)
(242.54 37.7805 0)
(235.815 36.0061 2.09383e-17)
(229.274 34.8158 -2.2415e-17)
(223.571 33.5318 -4.6321e-17)
(217.871 32.6914 -4.8894e-17)
(212.609 31.8509 0)
(207.386 31.2086 2.63453e-17)
(202.339 30.6321 0)
(197.317 29.9411 0)
(192.527 29.2571 0)
(187.857 28.3425 6.01377e-17)
(183.495 27.5582 -1.49831e-21)
(179.15 26.4574 6.39498e-17)
(175.199 25.5465 0)
(171.099 24.1809 -6.77891e-17)
(167.611 23.0183 3.49969e-17)
(163.736 21.3095 0)
(160.832 19.7188 0)
(157.152 17.6129 3.77178e-17)
(154.995 15.1641 0)
(151.777 12.5969 0)
(150.74 8.56432 0)
(149.468 5.76653 0)
(150.146 0.196195 0)
(155.426 -1.21589 0)
(100.005 -3.66584 0)
(100.496 -15.7681 1.13394e-16)
(101.434 -24.9465 -1.29107e-16)
(102.816 -27.5908 0)
(104.222 -26.84 0)
(105.76 -25.8532 0)
(107.286 -25.4392 -2.10245e-16)
(108.958 -25.2495 5.8236e-21)
(110.661 -25.1535 0)
(112.479 -25.1254 0)
(114.347 -25.1616 9.72015e-17)
(116.312 -25.2646 9.53773e-17)
(118.339 -25.4204 0)
(120.456 -25.635 -9.16774e-17)
(122.646 -25.8965 8.97931e-17)
(124.925 -26.2119 5.26039e-21)
(127.291 -26.5717 0)
(129.753 -26.9825 -8.3973e-17)
(132.315 -27.4389 8.19763e-17)
(134.983 -27.9475 -4.75981e-21)
(137.77 -28.5057 7.78999e-17)
(140.678 -29.1196 0)
(143.738 -29.787 -1.47432e-16)
(146.917 -30.5163 7.15229e-17)
(150.326 -31.2949 -6.94906e-17)
(153.792 -32.1649 6.71152e-17)
(157.667 -33.0332 1.30469e-16)
(161.431 -34.1 0)
(165.895 -35.0034 0)
(170.004 -36.3413 0)
(175.143 -37.243 -5.63443e-17)
(179.655 -38.8985 5.35167e-17)
(185.633 -39.8471 5.18882e-17)
(190.519 -41.862 4.85671e-17)
(197.676 -42.9094 0)
(202.88 -45.3797 -8.69413e-17)
(211.567 -46.4937 8.62438e-17)
(216.946 -49.6608 0)
(227.61 -51.1583 0)
(233.47 -55.5659 0)
(247.43 -57.5181 -3.40214e-17)
(254.416 -63.0258 0)
(273.102 -65.2374 -2.42716e-21)
(281.801 -71.1464 -2.1426e-17)
(306.843 -72.3502 0)
(317.178 -76.469 1.58559e-17)
(347.031 -75.2416 2.21143e-17)
(354.319 -80.2368 -8.57926e-18)
(392.227 -83.5551 -3.31636e-17)
(403.758 -89.247 7.97358e-19)
(458.477 -95.8754 -1.1263e-17)
(483.071 -89.0769 0)
(563.908 -102.679 -9.37386e-21)
(635.452 6.04725 1.99766e-18)
(573.029 55.6883 2.7685e-18)
(538.306 67.4596 1.77466e-17)
(486.42 68.9201 5.01149e-18)
(469.155 65.1711 0)
(434.583 63.6853 -5.96806e-18)
(422.843 59.8323 -3.46808e-18)
(395.386 58.2873 0)
(385.443 54.1923 9.05072e-19)
(363.626 52.9956 -9.56998e-18)
(355.084 49.5969 0)
(337.519 49.0837 1.08063e-21)
(329.381 46.2994 0)
(314.823 46.4101 1.38618e-21)
(306.66 44.3169 -2.22049e-17)
(294.242 44.4053 -5.64934e-23)
(286.064 42.5628 0)
(275.489 42.5286 0)
(267.422 41.0458 0)
(258.115 40.5337 0)
(250.477 38.9469 0)
(242.447 37.9114 2.03408e-17)
(235.722 36.1269 -2.09394e-17)
(229.189 34.9299 2.24162e-17)
(223.491 33.6416 -2.32127e-21)
(217.797 32.7999 2.4447e-17)
(212.538 31.958 0)
(207.318 31.3162 2.35544e-22)
(202.271 30.7403 2.72511e-17)
(197.249 30.0488 -2.81849e-17)
(192.457 29.3628 0)
(187.787 28.4455 -1.00205e-21)
(183.423 27.6592 -3.10942e-17)
(179.078 26.5554 -1.6437e-21)
(175.123 25.6429 0)
(171.021 24.2731 3.38916e-17)
(167.53 23.1086 3.49896e-17)
(163.65 21.3933 3.58145e-17)
(160.742 19.8005 0)
(157.052 17.6846 -3.36348e-21)
(154.89 15.2291 0)
(151.651 12.6442 3.95469e-17)
(150.618 8.58163 4.10442e-17)
(149.326 5.75595 4.12334e-17)
(150.047 0.0829803 4.32612e-17)
(155.47 -1.29486 4.54902e-17)
(100.007 -3.67879 0)
(100.495 -15.8027 1.13435e-16)
(101.423 -25.0004 -1.29227e-16)
(102.796 -27.6531 0)
(104.194 -26.9037 -1.18721e-16)
(105.727 -25.9173 0)
(107.247 -25.5043 1.05123e-16)
(108.914 -25.3164 -2.05333e-16)
(110.613 -25.2217 1.00795e-16)
(112.427 -25.1951 0)
(114.292 -25.2325 9.72027e-17)
(116.254 -25.3367 9.53785e-17)
(118.279 -25.4936 0)
(120.392 -25.7093 -9.16787e-17)
(122.58 -25.972 0)
(124.857 -26.2885 5.28096e-21)
(127.22 -26.6494 8.59396e-17)
(129.679 -27.0615 8.39645e-17)
(132.237 -27.5192 -8.1978e-17)
(134.903 -28.0292 -4.77939e-21)
(137.688 -28.5889 -1.55788e-16)
(140.592 -29.2045 0)
(143.648 -29.8737 -4.05214e-21)
(146.824 -30.6051 0)
(150.229 -31.3857 0)
(153.693 -32.2585 -6.71092e-17)
(157.563 -33.1289 -6.52296e-17)
(161.323 -34.1993 0)
(165.782 -35.1044 0)
(169.888 -36.4468 0)
(175.021 -37.35 -2.05797e-21)
(179.53 -39.0105 -5.35143e-17)
(185.501 -39.9604 0)
(190.382 -41.9816 -4.85659e-17)
(197.531 -43.0299 0)
(202.729 -45.5076 8.69516e-17)
(211.407 -46.6204 -8.62457e-17)
(216.775 -49.7956 0)
(227.423 -51.2937 -3.85628e-17)
(233.268 -55.718 3.25737e-17)
(247.213 -57.6764 3.40224e-17)
(254.183 -63.2079 2.69646e-17)
(272.858 -65.4299 2.97118e-17)
(281.548 -71.3698 2.1435e-17)
(306.601 -72.5855 -2.6049e-17)
(316.942 -76.7162 0)
(346.788 -75.4601 0)
(354.032 -80.4701 -7.84991e-21)
(391.916 -83.8047 -3.87176e-21)
(403.415 -89.5519 0)
(458.158 -96.2457 1.1261e-17)
(482.795 -89.5394 0)
(564.121 -103.435 -5.19822e-18)
(636.23 6.01966 -1.00363e-18)
(573.304 56.1498 -1.36849e-20)
(538.203 67.8558 1.24284e-20)
(486.254 69.2328 -4.9823e-18)
(468.971 65.4193 -8.04062e-18)
(434.42 63.9116 0)
(422.677 60.0379 0)
(395.234 58.487 0)
(385.307 54.376 2.05868e-21)
(363.5 53.1737 9.57147e-18)
(354.963 49.7609 0)
(337.406 49.2476 -1.13656e-17)
(329.28 46.4545 0)
(314.728 46.5683 -2.6332e-17)
(306.567 44.4681 -4.81556e-21)
(294.152 44.5596 -2.98811e-17)
(285.975 42.7098 0)
(275.401 42.6776 1.67371e-17)
(267.332 41.1902 0)
(258.025 40.677 -1.84941e-17)
(250.385 39.0838 -1.85959e-17)
(242.354 38.0424 -4.06825e-17)
(235.631 36.2477 0)
(229.104 35.044 0)
(223.413 33.7515 4.6332e-17)
(217.724 32.9084 0)
(212.469 32.0651 2.52845e-17)
(207.252 31.4239 -5.26879e-17)
(202.205 30.8487 -2.72498e-17)
(197.181 30.1566 2.81834e-17)
(192.387 29.4687 0)
(187.717 28.5486 -6.01286e-17)
(183.352 27.7602 -3.10897e-17)
(179.006 26.6536 -6.39359e-17)
(175.049 25.7394 -3.30368e-17)
(170.945 24.3655 0)
(167.45 23.199 -3.49874e-17)
(163.566 21.4772 -3.58122e-17)
(160.653 19.8824 0)
(156.952 17.7565 -7.54101e-17)
(154.786 15.2944 0)
(151.526 12.6917 -3.95393e-17)
(150.496 8.59912 -8.20656e-17)
(149.183 5.74478 -4.12151e-17)
(149.947 -0.0333094 -4.33651e-17)
(155.516 -1.37576 -4.59672e-17)
(100.009 -3.6918 0)
(100.495 -15.8371 8.06198e-21)
(101.412 -25.0538 1.29328e-16)
(102.777 -27.7151 1.31023e-16)
(104.166 -26.9671 1.18805e-16)
(105.693 -25.9812 0)
(107.208 -25.5692 0)
(108.87 -25.3831 1.0266e-16)
(110.565 -25.2897 -1.00785e-16)
(112.376 -25.2647 0)
(114.238 -25.3032 -9.71926e-17)
(116.196 -25.4087 -9.53685e-17)
(118.218 -25.5667 0)
(120.329 -25.7836 -5.48048e-21)
(122.514 -26.0473 0)
(124.788 -26.365 -1.75739e-16)
(127.148 -26.7271 -8.59308e-17)
(129.605 -27.1403 0)
(132.161 -27.5994 -4.95088e-21)
(134.823 -28.1107 1.59895e-16)
(137.605 -28.672 -4.60324e-21)
(140.506 -29.2892 0)
(143.559 -29.9603 7.37076e-17)
(146.732 -30.6937 -7.15217e-17)
(150.133 -31.4764 0)
(153.593 -32.3518 -6.71124e-17)
(157.459 -33.2244 0)
(161.216 -34.2983 -6.26165e-17)
(165.669 -35.2054 6.08508e-17)
(169.773 -36.5522 -5.81317e-17)
(174.9 -37.4569 -2.0718e-21)
(179.404 -39.1224 5.3517e-17)
(185.369 -40.0737 -5.18902e-17)
(190.245 -42.101 0)
(197.387 -43.1503 0)
(202.579 -45.6353 -4.34785e-17)
(211.248 -46.7469 4.31238e-17)
(216.604 -49.9301 3.8188e-17)
(227.237 -51.4288 3.8565e-17)
(233.066 -55.8698 -6.51532e-17)
(246.997 -57.8345 3.40229e-17)
(253.95 -63.3899 -2.69646e-17)
(272.614 -65.6221 0)
(281.296 -71.5933 -4.28713e-17)
(306.36 -72.821 -6.46049e-21)
(316.707 -76.9635 1.58956e-17)
(346.545 -75.6781 0)
(353.746 -80.7028 1.71906e-17)
(391.604 -84.0537 1.6592e-17)
(403.07 -89.8561 0)
(457.835 -96.6154 0)
(482.501 -89.9999 0)
(564.323 -104.194 0)
(637.014 5.99194 0)
(573.557 56.6121 -1.4191e-20)
(538.083 68.2513 -1.7706e-17)
(486.079 69.5444 9.92762e-18)
(468.783 65.6667 3.24829e-21)
(434.255 64.1376 0)
(422.51 60.243 0)
(395.081 58.6865 7.68639e-18)
(385.171 54.5595 -4.55688e-19)
(363.375 53.3517 0)
(354.844 49.9248 -4.32226e-18)
(337.295 49.4115 0)
(329.181 46.6097 -7.95222e-18)
(314.634 46.7266 -1.41112e-21)
(306.475 44.6195 1.11113e-17)
(294.063 44.714 2.98821e-17)
(285.887 42.857 -1.38394e-17)
(275.314 42.8268 -3.34739e-17)
(267.244 41.3347 0)
(257.936 40.8205 1.84943e-17)
(250.294 39.2208 3.71928e-17)
(242.263 38.1735 1.93379e-22)
(235.541 36.3685 2.09433e-17)
(229.021 35.1582 2.24163e-17)
(223.335 33.8614 -4.63376e-17)
(217.653 33.017 2.44461e-17)
(212.4 32.1723 2.08149e-21)
(207.187 31.5317 -2.484e-22)
(202.139 30.9573 -2.72501e-17)
(197.115 30.2647 -2.81817e-17)
(192.319 29.5747 2.91695e-17)
(187.649 28.6518 6.01239e-17)
(183.282 27.8614 3.10882e-17)
(178.935 26.7518 3.19653e-17)
(174.975 25.8361 3.30347e-17)
(170.869 24.458 -3.38808e-17)
(167.37 23.2896 3.49799e-17)
(163.481 21.5614 -3.58037e-17)
(160.564 19.9646 3.69439e-17)
(156.853 17.8286 7.53952e-17)
(154.682 15.3601 0)
(151.401 12.7393 0)
(150.373 8.6168 4.1021e-17)
(149.038 5.73297 0)
(149.847 -0.152762 0)
(155.563 -1.45871 0)
(100.011 -3.70488 0)
(100.495 -15.8711 -1.13496e-16)
(101.401 -25.1068 -1.29448e-16)
(102.758 -27.7766 -1.31172e-16)
(104.138 -27.03 1.18902e-16)
(105.66 -26.0447 0)
(107.168 -25.6338 0)
(108.827 -25.4496 0)
(110.517 -25.3575 -1.00787e-16)
(112.324 -25.334 -9.89737e-17)
(114.183 -25.3737 9.71937e-17)
(116.139 -25.4805 -9.53697e-17)
(118.157 -25.6396 0)
(120.266 -25.8576 9.16649e-17)
(122.448 -26.1224 0)
(124.719 -26.4413 8.78631e-17)
(127.077 -26.8045 -8.59323e-17)
(129.531 -27.219 8.39627e-17)
(132.084 -27.6794 1.63938e-16)
(134.744 -28.1921 4.81879e-21)
(137.522 -28.7549 7.78846e-17)
(140.42 -29.3738 0)
(143.47 -30.0467 7.37081e-17)
(146.639 -30.7822 7.15145e-17)
(150.037 -31.567 6.9483e-17)
(153.494 -32.4451 6.71061e-17)
(157.355 -33.3197 0)
(161.11 -34.3973 6.26111e-17)
(165.557 -35.3061 -6.08459e-17)
(169.658 -36.6574 -4.30982e-21)
(174.779 -37.5636 5.63383e-17)
(179.279 -39.2342 -1.07031e-16)
(185.238 -40.1867 -2.10131e-21)
(190.108 -42.2202 0)
(197.244 -43.2706 0)
(202.43 -45.7629 4.34879e-17)
(211.089 -46.8731 0)
(216.434 -50.0643 -7.63842e-17)
(227.051 -51.5635 -3.85645e-17)
(232.866 -56.0212 3.25793e-17)
(246.782 -57.9922 -3.40238e-17)
(253.719 -63.5715 0)
(272.37 -65.814 2.9717e-17)
(281.045 -71.8168 4.28782e-17)
(306.12 -73.0566 2.60516e-17)
(316.473 -77.2107 1.18998e-20)
(346.302 -75.8957 0)
(353.461 -80.935 -8.6014e-18)
(391.293 -84.3019 1.66027e-17)
(402.725 -90.1596 0)
(457.511 -96.9845 0)
(482.188 -90.4584 0)
(564.516 -104.955 -5.13795e-18)
(637.802 5.96415 0)
(573.787 57.0754 -2.80847e-18)
(537.945 68.6461 0)
(485.895 69.855 -4.94502e-18)
(468.591 65.9135 8.02701e-18)
(434.089 64.3631 0)
(422.341 60.4479 0)
(394.929 58.8856 -7.68689e-18)
(385.036 54.7428 0)
(363.251 53.5297 0)
(354.725 50.0887 4.32282e-18)
(337.185 49.5754 1.1371e-17)
(329.083 46.7648 7.95277e-18)
(314.542 46.8851 1.31701e-17)
(306.385 44.7709 0)
(293.975 44.8685 -1.49416e-17)
(285.8 43.0043 1.38396e-17)
(275.229 42.9762 1.67368e-17)
(267.156 41.4795 1.62818e-17)
(257.849 40.9642 0)
(250.204 39.358 -1.85968e-17)
(242.174 38.3047 1.99693e-22)
(235.452 36.4894 -2.09444e-17)
(228.939 35.2723 -2.24176e-17)
(223.259 33.9713 -2.36064e-21)
(217.582 33.1257 -4.88923e-17)
(212.333 32.2795 2.09606e-21)
(207.123 31.6397 -2.54864e-22)
(202.075 31.0659 2.72487e-17)
(197.05 30.3728 2.81803e-17)
(192.252 29.6808 -2.91682e-17)
(187.581 28.7551 -3.00601e-17)
(183.213 27.9626 0)
(178.865 26.8502 0)
(174.902 25.9329 3.30282e-17)
(170.794 24.5506 2.40709e-21)
(167.29 23.3804 -3.49776e-17)
(163.398 21.6457 3.13492e-21)
(160.475 20.047 -3.69399e-17)
(156.754 17.9009 -3.76917e-17)
(154.578 15.4262 0)
(151.275 12.7872 3.95122e-17)
(150.251 8.63466 0)
(148.891 5.7205 0)
(149.747 -0.275467 0)
(155.611 -1.54386 0)
(100.013 -3.71804 0)
(100.496 -15.9049 0)
(101.39 -25.1594 2.59107e-16)
(102.738 -27.8377 0)
(104.11 -27.0926 -1.18983e-16)
(105.626 -26.1079 0)
(107.129 -25.6981 0)
(108.783 -25.5158 1.0266e-16)
(110.469 -25.425 1.00777e-16)
(112.273 -25.4032 1.97933e-16)
(114.128 -25.444 -9.71835e-17)
(116.081 -25.5522 9.53595e-17)
(118.097 -25.7123 -9.35347e-17)
(120.202 -25.9315 0)
(122.382 -26.1974 0)
(124.651 -26.5174 0)
(127.006 -26.8819 8.59233e-17)
(129.457 -27.2976 -1.67913e-16)
(132.007 -27.7592 -8.19631e-17)
(134.664 -28.2734 -7.99388e-17)
(137.439 -28.8377 -7.78855e-17)
(140.334 -29.4583 0)
(143.381 -30.133 -7.37004e-17)
(146.547 -30.8705 0)
(149.941 -31.6574 -6.9476e-17)
(153.394 -32.5381 0)
(157.251 -33.4149 0)
(161.003 -34.496 0)
(165.444 -35.4067 6.08427e-17)
(169.543 -36.7625 5.81275e-17)
(174.658 -37.6701 0)
(179.155 -39.3457 5.35137e-17)
(185.107 -40.2996 1.03776e-16)
(189.972 -42.3392 -4.85746e-17)
(197.1 -43.3905 0)
(202.28 -45.8903 -8.69802e-17)
(210.931 -46.9991 0)
(216.265 -50.1982 7.63963e-17)
(226.866 -51.6979 7.71306e-17)
(232.666 -56.1724 3.25859e-17)
(246.567 -58.1496 3.40239e-17)
(253.488 -63.7528 0)
(272.127 -66.0057 2.38067e-21)
(280.794 -72.0403 5.59818e-21)
(305.88 -73.2923 0)
(316.239 -77.4579 -3.18375e-17)
(346.06 -76.1129 0)
(353.176 -81.1665 0)
(390.98 -84.5494 -1.66058e-17)
(402.377 -90.4624 -8.22515e-19)
(457.184 -97.3529 0)
(481.857 -90.9149 0)
(564.699 -105.719 9.57732e-21)
(638.596 5.93635 1.02723e-18)
(573.994 57.5396 0)
(537.79 69.0402 0)
(485.703 70.1645 4.91483e-18)
(468.396 66.1594 0)
(433.922 64.5882 -5.95491e-18)
(422.171 60.6523 0)
(394.776 59.0844 7.68526e-18)
(384.901 54.9259 0)
(363.128 53.7078 0)
(354.607 50.2526 -4.32916e-18)
(337.075 49.7392 -1.13721e-17)
(328.986 46.9199 0)
(314.451 47.0436 1.3174e-17)
(306.295 44.9224 -1.11276e-17)
(293.888 45.0231 1.49421e-17)
(285.714 43.1517 -1.38494e-17)
(275.145 43.1258 0)
(267.07 41.6243 -3.25677e-17)
(257.762 41.108 0)
(250.116 39.4953 -1.85983e-17)
(242.085 38.436 2.03425e-17)
(235.364 36.6103 0)
(228.858 35.3864 2.24172e-17)
(223.184 34.0812 2.31733e-17)
(217.513 33.2343 4.8892e-17)
(212.267 32.3868 -5.0579e-17)
(207.06 31.7477 5.26847e-17)
(202.012 31.1747 2.7249e-17)
(196.986 30.4811 2.81786e-17)
(192.185 29.7871 -2.91655e-17)
(187.514 28.8585 -3.00567e-17)
(183.144 28.064 0)
(178.796 26.9487 0)
(174.83 26.0298 -3.30258e-17)
(170.719 24.6434 6.77464e-17)
(167.211 23.4713 -3.49698e-17)
(163.314 21.7301 7.15879e-17)
(160.387 20.1296 0)
(156.656 17.9735 -3.76803e-17)
(154.475 15.4926 0)
(151.149 12.8352 -7.90035e-17)
(150.127 8.65272 0)
(148.743 5.70737 0)
(149.645 -0.401516 0)
(155.657 -1.63139 0)
(100.015 -3.73129 0)
(100.496 -15.9385 1.13577e-16)
(101.38 -25.2115 -2.59327e-16)
(102.719 -27.8983 0)
(104.082 -27.1549 0)
(105.592 -26.1708 0)
(107.09 -25.7621 0)
(108.739 -25.5818 5.91939e-21)
(110.421 -25.4924 0)
(112.221 -25.4721 -9.89589e-17)
(114.073 -25.5142 0)
(116.023 -25.6236 -9.53607e-17)
(118.036 -25.7849 -5.6027e-21)
(120.139 -26.0053 -9.16619e-17)
(122.316 -26.2723 0)
(124.582 -26.5934 0)
(126.934 -26.959 8.59247e-17)
(129.383 -27.376 8.39503e-17)
(131.93 -27.8389 -8.19646e-17)
(134.584 -28.3545 -7.99403e-17)
(137.357 -28.9203 1.55759e-16)
(140.249 -29.5425 0)
(143.292 -30.2191 7.37007e-17)
(146.455 -30.9586 0)
(149.844 -31.7476 -6.94751e-17)
(153.295 -32.631 0)
(157.147 -33.5098 0)
(160.896 -34.5946 0)
(165.332 -35.5071 -6.08373e-17)
(169.428 -36.8673 5.81316e-17)
(174.537 -37.7765 0)
(179.03 -39.4571 -5.35158e-17)
(184.976 -40.4122 2.09314e-21)
(189.836 -42.4581 9.71483e-17)
(196.957 -43.5103 0)
(202.131 -46.0174 8.69887e-17)
(210.772 -47.1248 0)
(216.095 -50.3318 4.45876e-21)
(226.681 -51.8318 -3.85657e-17)
(232.466 -56.3231 -3.25866e-17)
(246.353 -58.3065 -3.01152e-22)
(253.257 -63.9336 2.69754e-17)
(271.884 -66.1969 -2.97173e-17)
(280.543 -72.2636 -2.14431e-17)
(305.641 -73.528 0)
(316.006 -77.705 1.59276e-17)
(345.819 -76.3295 0)
(352.891 -81.3974 0)
(390.668 -84.7962 -1.66169e-17)
(402.028 -90.7645 1.65012e-18)
(456.855 -97.7207 0)
(481.508 -91.3693 0)
(564.872 -106.485 5.09672e-18)
(639.397 5.90859 -1.0309e-18)
(574.18 58.005 0)
(537.619 69.4336 -1.77025e-17)
(485.503 70.4729 -7.26124e-21)
(468.197 66.4047 0)
(433.754 64.813 1.19052e-17)
(422.001 60.8565 0)
(394.622 59.2829 -7.68549e-18)
(384.766 55.1087 0)
(363.005 53.8857 0)
(354.49 50.4163 8.66233e-18)
(336.967 49.9028 0)
(328.889 47.075 0)
(314.36 47.2021 -1.3175e-17)
(306.206 45.0739 -4.89223e-21)
(293.802 45.1777 -1.49427e-17)
(285.63 43.2991 -4.76037e-21)
(275.063 43.2755 0)
(266.985 41.7693 1.62859e-17)
(257.677 41.2519 0)
(250.028 39.6328 1.85983e-17)
(241.997 38.5674 0)
(235.277 36.7312 2.09481e-17)