/*--------------------------------*- C++ -*----------------------------------*\
| =========                 |                                                 |
| \\      /  F ield         | OpenFOAM: The Open Source CFD Toolbox           |
|  \\    /   O peration     | Version:  2412                                  |
|   \\  /    A nd           | Website:  www.openfoam.com                      |
|    \\/     M anipulation  |                                                 |
\*---------------------------------------------------------------------------*/
FoamFile
{
    version     2.0;
    format      ascii;
    arch        "LSB;label=32;scalar=64";
    class       volScalarField;
    location    "0.3";
    object      epsilon;
}
// * * * * * * * * * * * * * * * * * * * * * * * * * * * * * * * * * * * * * //

dimensions      [0 2 -3 0 0 0 0];

internalField   nonuniform List<scalar> 
78408
(
4.35727e+06
4.76322e+06
3.59343e+06
2.91272e+06
2.62692e+06
2.49554e+06
2.42314e+06
2.37616e+06
2.34881e+06
2.33948e+06
2.347e+06
2.36515e+06
2.39104e+06
2.42041e+06
2.45494e+06
2.49274e+06
2.53968e+06
2.59272e+06
2.66006e+06
2.73639e+06
2.83397e+06
2.94295e+06
3.08418e+06
3.23826e+06
3.43935e+06
3.65365e+06
3.93846e+06
4.23189e+06
4.62872e+06
5.02963e+06
5.58574e+06
6.12959e+06
6.92216e+06
7.65026e+06
8.8062e+06
9.78953e+06
1.15955e+07
1.30755e+07
1.62886e+07
1.90821e+07
2.61357e+07
3.33789e+07
4.89878e+07
6.06009e+07
8.10189e+07
9.03971e+07
1.15527e+08
1.27121e+08
1.73165e+08
1.97308e+08
2.94891e+08
3.49284e+08
7.9209e+08
8.47556e+08
5.26345e+08
3.67503e+08
2.86926e+08
2.35287e+08
1.94197e+08
1.68425e+08
1.57721e+08
1.52241e+08
1.45126e+08
1.30768e+08
1.14162e+08
9.7518e+07
8.30015e+07
7.07186e+07
6.06197e+07
5.22245e+07
4.5343e+07
3.96835e+07
3.52229e+07
3.18979e+07
2.99415e+07
2.94763e+07
3.03937e+07
3.17757e+07
3.27423e+07
3.27078e+07
3.17154e+07
2.99916e+07
2.78541e+07
2.55594e+07
2.32651e+07
2.11065e+07
1.91018e+07
1.73212e+07
1.57046e+07
1.43142e+07
1.30474e+07
1.19848e+07
1.09818e+07
1.0174e+07
9.34563e+06
8.73577e+06
7.99148e+06
7.55639e+06
6.83968e+06
1.69651e+07
9.52942e+06
3.53226e+06
1.62049e+06
969410
739458
672698
679811
717367
764233
804694
836265
857524
874635
887714
902975
916850
936910
956182
985032
1.01246e+06
1.05398e+06
1.09136e+06
1.15057e+06
1.2013e+06
1.28538e+06
1.35356e+06
1.47398e+06
1.57304e+06
1.74743e+06
1.88649e+06
2.1409e+06
2.33031e+06
2.71147e+06
2.96938e+06
3.56876e+06
3.96076e+06
5.01068e+06
5.76592e+06
7.79794e+06
9.60559e+06
1.35218e+07
1.6739e+07
2.22859e+07
2.58052e+07
3.26762e+07
3.5834e+07
4.6229e+07
5.20171e+07
7.14859e+07
8.57119e+07
1.19283e+08
1.71895e+08
3.67598e+08
3.19955e+08
2.08695e+08
1.31468e+08
1.03299e+08
8.01878e+07
7.12696e+07
6.53356e+07
6.37951e+07
5.97414e+07
5.33397e+07
4.51883e+07
3.83784e+07
3.18262e+07
2.72202e+07
2.29452e+07
1.98996e+07
1.70915e+07
1.50307e+07
1.32537e+07
1.2002e+07
1.12212e+07
1.0995e+07
1.1225e+07
1.16437e+07
1.19424e+07
1.19257e+07
1.15691e+07
1.09465e+07
1.01627e+07
9.31243e+06
8.46094e+06
7.65399e+06
6.91151e+06
6.24657e+06
5.65744e+06
5.14207e+06
4.69266e+06
4.30039e+06
3.96965e+06
3.66443e+06
3.4318e+06
3.17847e+06
3.03455e+06
2.80109e+06
2.72908e+06
2.14255e+06
2.49318e+06
1.21543e+06
656884
411088
301353
256480
245988
253707
271279
291793
311985
329166
343894
355809
366978
376766
387776
398447
412038
425841
444351
462959
488579
513934
549480
583963
633441
680178
750599
814547
916576
1.00345e+06
1.15544e+06
1.27649e+06
1.52209e+06
1.72548e+06
2.20075e+06
2.63529e+06
3.65555e+06
4.69862e+06
6.80141e+06
8.73244e+06
1.17623e+07
1.38351e+07
1.71847e+07
1.88282e+07
2.34931e+07
2.62379e+07
3.4795e+07
4.07948e+07
5.62702e+07
6.88232e+07
1.3838e+08
1.77966e+08
1.34466e+08
8.67913e+07
6.4958e+07
5.11745e+07
4.52936e+07
4.30012e+07
4.22672e+07
3.94109e+07
3.45004e+07
2.86927e+07
2.38142e+07
1.95943e+07
1.65238e+07
1.39176e+07
1.19605e+07
1.02698e+07
8.97294e+06
7.90941e+06
7.16054e+06
6.72504e+06
6.65907e+06
6.89544e+06
7.25964e+06
7.53544e+06
7.59167e+06
7.40511e+06
7.02556e+06
6.52385e+06
5.96625e+06
5.40087e+06
4.85975e+06
4.36067e+06
3.91125e+06
3.51483e+06
3.16654e+06
2.86618e+06
2.60281e+06
2.38085e+06
2.18124e+06
2.02176e+06
1.86411e+06
1.75549e+06
1.62133e+06
1.54996e+06
272025
519223
372942
274488
210637
171598
150266
141513
141050
146098
153935
162981
171650
179651
186374
192489
197588
202916
207746
213805
219766
228091
236337
248413
260106
277633
294037
319337
341520
378045
408444
461726
502850
583240
641337
776812
885939
1.16845e+06
1.4252e+06
2.05255e+06
2.7517e+06
4.20341e+06
5.76951e+06
7.96288e+06
9.60692e+06
1.17581e+07
1.29631e+07
1.56892e+07
1.75894e+07
2.24766e+07
2.61957e+07
3.52998e+07
4.13173e+07
7.0671e+07
1.08435e+08
9.64288e+07
6.59024e+07
4.91347e+07
3.92665e+07
3.4966e+07
3.38977e+07
3.34351e+07
3.09388e+07
2.67017e+07
2.19462e+07
1.80024e+07
1.47583e+07
1.2366e+07
1.04036e+07
8.89534e+06
7.62373e+06
6.63159e+06
5.83507e+06
5.28007e+06
4.97843e+06
4.97879e+06
5.22932e+06
5.5828e+06
5.85756e+06
5.94551e+06
5.82692e+06
5.54257e+06
5.1509e+06
4.70711e+06
4.25228e+06
3.81372e+06
3.4075e+06
3.0404e+06
2.7161e+06
2.43085e+06
2.18485e+06
1.9696e+06
1.78727e+06
1.62556e+06
1.4928e+06
1.36814e+06
1.27438e+06
1.17246e+06
1.10734e+06
61020.6
139035
145754
142721
132186
120102
110581
105144
103490
104902
108198
112519
116928
121087
124533
127484
129686
131770
133382
135469
137362
140442
143392
148463
153221
161384
168704
181445
191862
211259
226156
255389
275925
321484
351602
432841
497249
677676
847483
1.27366e+06
1.83599e+06
2.99505e+06
4.39399e+06
6.20042e+06
7.63708e+06
9.25704e+06
1.02645e+07
1.21665e+07
1.37092e+07
1.70566e+07
1.98538e+07
2.61865e+07
3.06306e+07
4.60067e+07
7.26016e+07
7.31428e+07
5.34885e+07
4.0612e+07
3.29988e+07
2.9653e+07
2.90871e+07
2.86666e+07
2.62844e+07
2.24509e+07
1.8341e+07
1.49801e+07
1.22821e+07
1.02704e+07
8.6391e+06
7.36592e+06
6.3031e+06
5.46611e+06
4.80186e+06
4.34316e+06
4.10855e+06
4.14224e+06
4.40039e+06
4.74766e+06
5.02059e+06
5.12308e+06
5.03811e+06
4.80179e+06
4.46617e+06
4.08056e+06
3.68223e+06
3.29606e+06
2.93705e+06
2.61179e+06
2.32378e+06
2.07036e+06
1.85135e+06
1.66019e+06
1.49749e+06
1.35443e+06
1.23502e+06
1.12623e+06
1.04037e+06
953616
892619
25178.3
62714.8
80961.8
91210.7
94162.2
92414.1
89161.9
86622.8
85621
86274.1
88100.4
90607.9
93190.7
95561.3
97389.7
98747.7
99486.4
99965.6
100016
100196
100167
100732
101178
102802
104229
107614
110490
116554
121211
131223
138452
154363
164827
190802
207411
257259
299630
420080
549951
869258
1.36693e+06
2.36711e+06
3.66108e+06
5.24976e+06
6.56083e+06
7.89679e+06
8.79379e+06
1.02781e+07
1.16323e+07
1.42078e+07
1.6534e+07
2.14521e+07
2.53617e+07
3.50463e+07
5.33867e+07
5.80705e+07
4.52733e+07
3.53124e+07
2.92094e+07
2.64943e+07
2.61389e+07
2.56503e+07
2.3298e+07
1.97565e+07
1.61114e+07
1.3162e+07
1.08188e+07
9.04958e+06
7.61692e+06
6.48444e+06
5.54295e+06
4.79664e+06
4.2088e+06
3.80582e+06
3.61081e+06
3.66471e+06
3.9277e+06
4.27053e+06
4.54106e+06
4.65067e+06
4.58444e+06
4.37571e+06
4.07271e+06
3.72114e+06
3.35584e+06
3.00032e+06
2.66881e+06
2.3679e+06
2.10088e+06
1.86586e+06
1.66231e+06
1.48502e+06
1.33354e+06
1.20115e+06
1.08952e+06
989650
908496
830286
771882
15816.6
40017.7
55569.1
66524.7
72797.6
75124.1
75230.9
74817.3
74825.7
75643.7
77115.8
78955.7
80751.7
82278.3
83300.7
83847
83835.5
83503.5
82777.4
82022.5
81067.4
80416.4
79668.7
79612.4
79445.1
80450.8
81173.5
83804.9
85631.5
90652.5
94040.6
102639
108021
122903
132783
164418
196228
282460
392542
652194
1.11031e+06
2.01376e+06
3.23524e+06
4.68752e+06
5.91438e+06
7.07869e+06
7.90622e+06
9.15187e+06
1.03944e+07
1.25308e+07
1.45793e+07
1.86843e+07
2.23645e+07
2.93423e+07
4.24942e+07
4.80474e+07
3.95423e+07
3.17347e+07
2.67172e+07
2.44389e+07
2.41481e+07
2.35369e+07
2.11882e+07
1.78866e+07
1.4607e+07
1.19691e+07
9.87683e+06
8.27423e+06
6.97184e+06
5.93058e+06
5.06616e+06
4.37738e+06
3.83788e+06
3.47038e+06
3.30145e+06
3.36949e+06
3.63641e+06
3.97622e+06
4.24441e+06
4.35759e+06
4.30256e+06
4.11091e+06
3.82837e+06
3.49823e+06
3.15375e+06
2.81749e+06
2.5032e+06
2.2175e+06
1.9635e+06
1.7399e+06
1.54588e+06
1.37714e+06
1.23255e+06
1.10673e+06
999948
905540
827359
754443
697716
11949.6
30182.7
42813.1
52588.3
59427.8
63358.5
65285.7
66347
67311.5
68584.3
70139.8
71802
73280
74404.8
75011.7
75123.2
74704.3
73934.1
72793.5
71547
70112.1
68834
67480.2
66562.9
65591.5
65373.6
65011.6
65858.2
66252.7
68631.7
70059.4
74701.7
77481.6
86233.1
92790.7
114378
141094
208069
306375
530733
962154
1.80372e+06
2.97438e+06
4.33594e+06
5.50325e+06
6.55505e+06
7.33578e+06
8.43375e+06
9.60522e+06
1.14689e+07
1.33376e+07
1.69304e+07
2.05008e+07
2.60278e+07
3.59428e+07
4.12295e+07
3.54211e+07
2.91959e+07
2.49862e+07
2.30155e+07
2.2705e+07
2.19466e+07
1.95999e+07
1.65118e+07
1.35346e+07
1.11426e+07
9.23697e+06
7.75451e+06
6.54244e+06
5.56335e+06
4.75061e+06
4.10024e+06
3.59304e+06
3.24958e+06
3.09916e+06
3.17811e+06
3.44869e+06
3.78661e+06
4.05278e+06
4.16772e+06
4.11968e+06
3.93908e+06
3.66996e+06
3.35393e+06
3.02312e+06
2.69948e+06
2.39639e+06
2.12054e+06
1.87492e+06
1.65864e+06
1.47069e+06
1.30742e+06
1.16721e+06
1.04559e+06
941912
851010
774754
705295
649676
9929.78
24823.3
35260.9
43750.5
50351.2
54862.1
57782.9
59850.9
61618.3
63408
65220.5
66929.7
68319.6
69267.1
69661.8
69534.5
68885.1
67864.8
66488.7
64965
63263
61637.2
59951.9
58561.9
57155
56268.6
55323.3
55196.4
54823.8
55758.1
56137.8
58604.2
60007.1
65394.5
70338.6
86577.4
110634
166523
257079
459786
873309
1.67474e+06
2.81e+06
4.1091e+06
5.23291e+06
6.2068e+06
6.95463e+06
7.95618e+06
9.0804e+06
1.07638e+07
1.25081e+07
1.57557e+07
1.92719e+07
2.39553e+07
3.17912e+07
3.64896e+07
3.23966e+07
2.73359e+07
2.37374e+07
2.19821e+07
2.15989e+07
2.06861e+07
1.83512e+07
1.54615e+07
1.27418e+07
1.05491e+07
8.78702e+06
7.394e+06
6.24683e+06
5.3115e+06
4.5346e+06
3.91066e+06
3.42582e+06
3.09931e+06
2.9627e+06
3.05061e+06
3.32477e+06
3.66164e+06
3.92615e+06
4.04191e+06
3.99835e+06
3.82513e+06
3.56508e+06
3.25858e+06
2.93697e+06
2.62175e+06
2.32608e+06
2.05672e+06
1.81655e+06
1.60503e+06
1.42099e+06
1.26124e+06
1.12383e+06
1.00493e+06
903254
814650
739648
672518
617636
8685.27
21421.4
30260
37659.4
43801.9
48445.9
51903.7
54656.5
57068.5
59351.2
61479.4
63339.3
64759.3
65651.9
65948.2
65692.9
64912.8
63746.4
62231.5
60544.2
58685.3
56855.4
54976.7
53310.5
51651
50375.7
49094.3
48404.1
47592.3
47694.8
47478.8
48699.5
49339.3
52856.2
57046.9
70466.2
93036.8
142328
227710
416952
818994
1.59459e+06
2.70556e+06
3.96083e+06
5.05217e+06
5.97005e+06
6.69406e+06
7.63044e+06
8.72218e+06
1.02806e+07
1.19343e+07
1.49367e+07
1.84273e+07
2.25954e+07
2.9048e+07
3.3127e+07
3.01429e+07
2.59434e+07
2.28111e+07
2.12017e+07
2.07111e+07
1.96478e+07
1.73395e+07
1.46377e+07
1.2141e+07
1.01125e+07
8.46344e+06
7.13854e+06
6.03912e+06
5.13523e+06
4.38366e+06
3.77824e+06
3.30916e+06
2.99494e+06
2.86899e+06
2.96449e+06
3.24214e+06
3.57858e+06
3.84178e+06
3.95785e+06
3.91724e+06
3.74907e+06
3.49527e+06
3.19532e+06
2.87997e+06
2.57042e+06
2.27968e+06
2.01458e+06
1.77796e+06
1.5695e+06
1.38794e+06
1.23044e+06
1.0948e+06
977651
877249
790157
715964
650426
596036
7817.72
19019.8
26671.9
33192.4
38847.8
43426
47162.3
50380.8
53300.1
56021.2
58470.2
60523.9
62034.9
62941.3
63206.8
62890.3
62040.2
60790.2
59194.2
57409
55455.7
53501.6
51505.4
49669.9
47855.9
46341.8
44854.7
43819.8
42740.1
42336.9
41760.5
42232.7
42430.3
44889.3
48776.3
60723.4
82460.6
127725
209716
390639
785831
1.54528e+06
2.63997e+06
3.86418e+06
4.9309e+06
5.80749e+06
6.5139e+06
7.40527e+06
8.47403e+06
9.94279e+06
1.15274e+07
1.43478e+07
1.78277e+07
2.16744e+07
2.7177e+07
3.0699e+07
2.84434e+07
2.48846e+07
2.21081e+07
2.05906e+07
1.99703e+07
1.87674e+07
1.65018e+07
1.39793e+07
1.16776e+07
9.78625e+06
8.2274e+06
6.95523e+06
5.89151e+06
5.01048e+06
4.27699e+06
3.68464e+06
3.22678e+06
2.92162e+06
2.80408e+06
2.90611e+06
3.18707e+06
3.52347e+06
3.78566e+06
3.9018e+06
3.86319e+06
3.69856e+06
3.44916e+06
3.15376e+06
2.84271e+06
2.53698e+06
2.2495e+06
1.98715e+06
1.75277e+06
1.54624e+06
1.36621e+06
1.2101e+06
1.07554e+06
959481
859864
773753
700072
635630
581568
7155.62
17189.4
23938.3
29755.4
34956.2
39383.2
43248.9
46783.4
50097.7
53194.8
55944.6
58203.1
59833.6
60792.5
61068.2
60732.9
59852.2
58558.9
56918.6
55076.8
53068.1
51038.1
48969.6
47027.4
45115.8
43449.1
41830.2
40574.2
39322
38595.6
37788.3
37789.8
37723.6
39583.6
43416.4
54629.3
75936.5
118715
198561
374498
766112
1.51604e+06
2.60017e+06
3.80236e+06
4.85018e+06
5.6958e+06
6.38904e+06
7.24894e+06
8.3009e+06
9.70324e+06
1.12332e+07
1.39127e+07
1.73893e+07
2.10375e+07
2.58711e+07
2.89197e+07
2.71493e+07
2.40699e+07
2.15634e+07
2.0095e+07
1.93316e+07
1.80046e+07
1.5797e+07
1.34457e+07
1.13155e+07
9.53949e+06
8.05365e+06
6.82281e+06
5.7861e+06
4.9218e+06
4.20127e+06
3.61812e+06
3.16826e+06
2.86982e+06
2.759e+06
2.86664e+06
3.15066e+06
3.48724e+06
3.74865e+06
3.86478e+06
3.8276e+06
3.66554e+06
3.4193e+06
3.12712e+06
2.81903e+06
2.51586e+06
2.23049e+06
1.96988e+06
1.73687e+06
1.53148e+06
1.35233e+06
1.19703e+06
1.06309e+06
947677
848516
763025
689656
625971
572131
6616.18
15713.6
21757.4
27007.9
31803.4
36047.3
39955.5
43703
47322.5
50734.6
53753.9
56210.6
57970.4
59002.4
59313.1
58986.7
58101.9
56792.8
55133.7
53263.1
51224.8
49150.5
47038.8
45029.4
43055.5
41289
39583.1
38180.2
36812.2
35870.6
34908.2
34601.9
34378.8
35912.6
39838
50738.5
71877.4
113132
191695
364844
755125
1.50008e+06
2.57767e+06
3.76433e+06
4.79746e+06
5.61965e+06
6.30288e+06
7.1407e+06
8.17985e+06
9.53163e+06
1.10166e+07
1.35828e+07
1.70585e+07
2.05904e+07
2.49443e+07
2.75998e+07
2.61555e+07
2.34364e+07
2.11322e+07
1.96789e+07
1.87656e+07
1.73325e+07
1.51966e+07
1.30081e+07
1.10292e+07
9.35113e+06
7.92494e+06
6.72689e+06
5.71078e+06
4.85879e+06
4.1475e+06
3.57078e+06
3.12658e+06
2.83313e+06
2.72768e+06
2.84012e+06
3.12683e+06
3.46367e+06
3.72448e+06
3.84059e+06
3.80452e+06
3.64442e+06
3.40054e+06
3.11071e+06
2.80469e+06
2.50323e+06
2.21921e+06
1.95965e+06
1.72741e+06
1.52265e+06
1.34396e+06
1.18907e+06
1.05544e+06
940379
841457
756344
683162
619996
566317
6155.74
14473
19953.3
24742.2
29182.5
33237.1
37136.9
41025.6
44879.2
48550.4
51803.5
54442.3
56330.1
57444.1
57804.4
57505
56634.6
55329.3
53669.7
51790.3
49740.9
47644.2
45509.4
43459.4
41446.7
39614.8
37850.8
36348.2
34900
33810.3
32739.9
32226.9
31915.8
33295.1
37403.7
48242.4
69384.2
109733
187599
359410
749832
1.49286e+06
2.56665e+06
3.74245e+06
4.76405e+06
5.56844e+06
6.24399e+06
7.06634e+06
8.09517e+06
9.40736e+06
1.08538e+07
1.33255e+07
1.67996e+07
2.02725e+07
2.42788e+07
2.66108e+07
2.53862e+07
2.29383e+07
2.07825e+07
1.9317e+07
1.82526e+07
1.67328e+07
1.468e+07
1.26457e+07
1.08006e+07
9.20605e+06
7.82904e+06
6.65728e+06
5.65701e+06
4.8141e+06
4.10937e+06
3.53708e+06
3.09682e+06
2.80706e+06
2.70589e+06
2.82232e+06
3.11128e+06
3.44833e+06
3.70865e+06
3.82479e+06
3.78968e+06
3.6312e+06
3.3892e+06
3.10114e+06
2.79663e+06
2.49634e+06
2.21317e+06
1.95423e+06
1.72239e+06
1.51791e+06
1.33941e+06
1.18469e+06
1.05117e+06
936266
837451
752554
679488
616681
563132
5749.81
13397.8
18417.7
22825.5
26955.9
30827
34689
38668.1
42699.1
46579.8
50030.5
52830.2
54837.8
56035.5
56453.3
56192.4
55349.3
54062.2
52416
50542.6
48496.1
46393.2
44250.1
42178.4
40143.6
38270
36467.7
34896.7
33392.1
32198.1
31050.6
30397
30046
31385.2
35734.1
46663.3
67917.8
107761
185315
356730
748180
1.49124e+06
2.563e+06
3.73129e+06
4.74368e+06
5.53458e+06
6.20414e+06
7.01575e+06
8.03565e+06
9.31592e+06
1.07283e+07
1.3118e+07
1.65875e+07
2.00428e+07
2.37963e+07
2.58632e+07
2.47857e+07
2.25414e+07
2.04906e+07
1.89917e+07
1.77792e+07
1.61921e+07
1.42313e+07
1.23424e+07
1.06158e+07
9.093e+06
7.75692e+06
6.60651e+06
5.61858e+06
4.78241e+06
4.0823e+06
3.513e+06
3.07543e+06
2.78835e+06
2.69051e+06
2.81015e+06
3.10085e+06
3.43797e+06
3.69785e+06
3.8141e+06
3.77991e+06
3.62289e+06
3.3825e+06
3.09591e+06
2.79258e+06
2.49313e+06
2.21053e+06
1.95193e+06
1.72028e+06
1.5159e+06
1.33742e+06
1.18273e+06
1.04921e+06
934362
835583
750807
677822
615272
561850
5384.02
12444.9
17081
21169.5
25028.9
28727.4
32535
36568
40731.1
44777.6
48391
51328.4
53443.7
54721.9
55200
54985
54178.4
52920
51297.7
49442
47409.4
45312.7
43172.6
41093.3
39049
37150.7
35324.4
33707
32162.5
30894.1
29690.8
28942.5
28588.1
29966.6
34591.8
45704
67136.8
106734
184216
355814
748726
1.49296e+06
2.56366e+06
3.7268e+06
4.73171e+06
5.51246e+06
6.17727e+06
6.98146e+06
7.99306e+06
9.24675e+06
1.06279e+07
1.29441e+07
1.64042e+07
1.98725e+07
2.34432e+07
2.5293e+07
2.43119e+07
2.22197e+07
2.02388e+07
1.86901e+07
1.73358e+07
1.57005e+07
1.3838e+07
1.20855e+07
1.04642e+07
9.00342e+06
7.70178e+06
6.56899e+06
5.59079e+06
4.75971e+06
4.06284e+06
3.49553e+06
3.05973e+06
2.77457e+06
2.67924e+06
2.80132e+06
3.09316e+06
3.43011e+06
3.68956e+06
3.80601e+06
3.77278e+06
3.61719e+06
3.37833e+06
3.09307e+06
2.79077e+06
2.49203e+06
2.20987e+06
1.9515e+06
1.71993e+06
1.51556e+06
1.33706e+06
1.18233e+06
1.04878e+06
933921
835154
750450
677546
615191
561914
5049.6
11586.9
15896.7
19713.4
23334.5
26873.2
30617.2
34677.6
38936.1
43110.4
46853.6
49905
52113.5
53466
54004.2
53839
53075
51853.3
50263.2
48434.4
46424.5
44343.9
42216
40140
38095.9
36185.7
34346.2
32698.3
31126
29804.4
28561.1
27751.6
27423.4
28898.9
33821.2
45170.6
66815.1
106328
183866
355964
750425
1.49634e+06
2.56637e+06
3.72595e+06
4.72462e+06
5.49783e+06
6.15875e+06
6.95787e+06
7.96121e+06
9.19197e+06
1.05437e+07
1.27916e+07
1.62364e+07
1.97406e+07
2.31813e+07
2.48534e+07
2.39328e+07
2.19528e+07
2.00133e+07
1.84029e+07
1.69158e+07
1.525e+07
1.34901e+07
1.1865e+07
1.03374e+07
8.93066e+06
7.65834e+06
6.5404e+06
5.57007e+06
4.74294e+06
4.04838e+06
3.48239e+06
3.04772e+06
2.76386e+06
2.67031e+06
2.79406e+06
3.08639e+06
3.42285e+06
3.68182e+06
3.79856e+06
3.7664e+06
3.61232e+06
3.37501e+06
3.09111e+06
2.78984e+06
2.4918e+06
2.21006e+06
1.95191e+06
1.72044e+06
1.51608e+06
1.33755e+06
1.18279e+06
1.04921e+06
934353
835614
750972
678172
615986
562887
4741
10805.4
14832.8
18414.4
21824.6
25215.8
28891.6
32959.5
37283.3
41552.3
45395.3
48537.3
50823.4
52242.1
52837.8
52724
52006.7
50827.5
49276.2
47481.5
45501.6
43445.2
41337
39273.2
37237
35324.9
33480.5
31814.1
30223.1
28864
27593
26748.4
26471.5
28086.7
33316.3
44930.6
66795.9
106318
183959
356675
752495
1.50011e+06
2.56937e+06
3.72637e+06
4.71965e+06
5.48737e+06
6.14501e+06
6.94063e+06
7.93533e+06
9.14558e+06
1.04689e+07
1.26516e+07
1.60742e+07
1.96316e+07
2.29828e+07
2.45096e+07
2.36234e+07
2.17246e+07
1.98036e+07
1.81233e+07
1.65142e+07
1.48344e+07
1.3179e+07
1.16726e+07
1.02285e+07
8.86942e+06
7.62246e+06
6.51735e+06
5.55359e+06
4.72971e+06
4.03686e+06
3.47178e+06
3.03781e+06
2.75479e+06
2.66236e+06
2.78699e+06
3.07913e+06
3.41471e+06
3.6731e+06
3.79021e+06
3.75925e+06
3.60684e+06
3.37123e+06
3.0888e+06
2.78867e+06
2.49142e+06
2.2102e+06
1.95236e+06
1.72107e+06
1.51678e+06
1.3383e+06
1.18356e+06
1.05002e+06
935185
836520
751959
679307
617288
564416
4454.58
10088.1
13866.6
17241.7
20463.3
23718.8
27324.1
31384.3
35748.5
40083.3
43998.5
47208.8
49556.9
51032.5
51681.5
51618.9
50950.7
49818.3
48310.7
46556.2
44612.2
42586.7
40504.4
38459.8
36438
34532
32689.2
31013.5
29411.1
28026.6
26737.9
25879.8
25676.8
27463.4
33001.9
44890.5
66967.3
106542
184268
357571
754347
1.50329e+06
2.57128e+06
3.7262e+06
4.71465e+06
5.47849e+06
6.1332e+06
6.92632e+06
7.9117e+06
9.10292e+06
1.03983e+07
1.25173e+07
1.59101e+07
1.95335e+07
2.28268e+07
2.4235e+07
2.33642e+07
2.1522e+07
1.96014e+07
1.78461e+07
1.61275e+07
1.44481e+07
1.28976e+07
1.15015e+07
1.01323e+07
8.81545e+06
7.5908e+06
6.49712e+06
5.53914e+06
4.71811e+06
4.02667e+06
3.4623e+06
3.02875e+06
2.74622e+06
2.65431e+06
2.77904e+06
3.07025e+06
3.40451e+06
3.66217e+06
3.77972e+06
3.75013e+06
3.59959e+06
3.3659e+06
3.08515e+06
2.78636e+06
2.49009e+06
2.20957e+06
1.95219e+06
1.72121e+06
1.51713e+06
1.33881e+06
1.18417e+06
1.05076e+06
936026
837504
753068
680625
618794
566206
4187.83
9426.09
12982
16172.6
19224
22354
25888
29928.4
34312.2
38687.5
42649.9
45907.5
48302.2
49824.7
50522.1
50509.2
49891.1
48808.3
47348.4
45638.8
43735.7
41746.4
39695.2
37675.9
35673.8
33780.2
31944.5
30266.8
28658.5
27258.2
25960.9
25108.3
24999.2
26980.7
32822.8
44981.7
67246.5
106881
184625
358367
755526
1.50511e+06
2.57103e+06
3.72397e+06
4.70787e+06
5.46908e+06
6.12106e+06
6.91223e+06
7.88735e+06
9.06035e+06
1.03277e+07
1.23835e+07
1.57384e+07
1.94371e+07
2.26977e+07
2.40092e+07
2.31396e+07
2.13348e+07
1.94001e+07
1.75679e+07
1.57529e+07
1.40866e+07
1.26399e+07
1.13459e+07
1.00441e+07
8.7653e+06
7.5607e+06
6.47756e+06
5.5249e+06
4.70664e+06
4.01652e+06
3.45282e+06
3.01957e+06
2.73726e+06
2.64532e+06
2.76936e+06
3.05887e+06
3.39132e+06
3.64806e+06
3.76608e+06
3.73805e+06
3.58964e+06
3.35813e+06
3.07935e+06
2.78217e+06
2.48714e+06
2.20755e+06
1.95085e+06
1.72039e+06
1.51667e+06
1.33867e+06
1.18427e+06
1.05109e+06
936550
838261
754014
681854
620246
568010
3938.92
8812.85
12166.8
15190.2
18086.3
21099.6
24562.2
28573
32958.4
37352
41339.3
44624.9
47051.2
48610.7
49350.4
49384.9
48817
47785.7
46376.3
44715.2
42857
40908.5
38892.8
36903.5
34925.5
33049.5
31225.4
29551.5
27942.1
26533.9
25236.4
24406.6
24410
26602.9
32737.8
45152.7
67571.3
107244
184904
358847
755683
1.50498e+06
2.56777e+06
3.7185e+06
4.69794e+06
5.45746e+06
6.10677e+06
6.89619e+06
7.85996e+06
9.015e+06
1.02541e+07
1.2246e+07
1.55549e+07
1.93353e+07
2.2583e+07
2.38161e+07
2.29371e+07
2.11545e+07
1.91947e+07
1.72861e+07
1.53882e+07
1.37458e+07
1.24004e+07
1.12012e+07
9.96027e+06
8.71615e+06
7.52998e+06
6.45689e+06
5.50943e+06
4.69405e+06
4.00536e+06
3.44245e+06
3.00948e+06
2.7272e+06
2.63471e+06
2.7573e+06
3.04431e+06
3.3744e+06
3.63e+06
3.74852e+06
3.72222e+06
3.57621e+06
3.34722e+06
3.07073e+06
2.7755e+06
2.48201e+06
2.20365e+06
1.94789e+06
1.71818e+06
1.51504e+06
1.33753e+06
1.18352e+06
1.05072e+06
936485
838534
754556
682763
621429
569620
3706.45
8243.49
11412.1
14281.5
17034.6
19938.7
23329.8
27302.7
31674.3
36066.7
40058.7
43354.4
45798.4
47384.8
48160.9
48239.7
47721
46742.1
45385.2
43775.5
41965.3
40061.3
38084.7
36129.5
34179.2
32325
30516
28850.7
27244.2
25835
24545.6
23754.9
23887.4
26302.4
32714.8
45363.7
67893.9
107563
185006
358844
754552
1.50245e+06
2.56084e+06
3.70886e+06
4.68374e+06
5.44228e+06
6.08885e+06
6.87644e+06
7.82767e+06
8.96462e+06
1.01748e+07
1.2102e+07
1.53563e+07
1.92225e+07
2.24732e+07
2.3643e+07
2.27467e+07
2.09743e+07
1.89813e+07
1.69989e+07
1.50317e+07
1.34221e+07
1.21748e+07
1.10631e+07
9.87772e+06
8.66568e+06
7.49686e+06
6.43369e+06
5.49156e+06
4.67936e+06
3.99235e+06
3.43045e+06
2.99785e+06
2.71547e+06
2.62195e+06
2.74232e+06
3.02604e+06
3.35319e+06
3.60737e+06
3.72639e+06
3.70201e+06
3.55869e+06
3.33257e+06
3.05876e+06
2.76585e+06
2.47427e+06
2.19747e+06
1.94294e+06
1.71425e+06
1.51192e+06
1.33511e+06
1.18167e+06
1.04941e+06
935602
838107
754488
683156
622157
570854
3489.29
7714.11
10710.7
13436.8
16056.9
18857.8
22177.3
26105
30449.4
34823.3
38802.1
42091.5
44540
46144
46949.9
47069.5
46598.7
45672.3
44369.1
42812.8
41053.2
39196.5
37261.8
35343.9
33424.4
31595.4
29804.5
28151.5
26551.5
25147.5
23874.8
23138.9
23415.4
26058.1
32728.8
45583.9
68177.4
107785
184859
358235
751935
1.49715e+06
2.54973e+06
3.69431e+06
4.66439e+06
5.42242e+06
6.06611e+06
6.85155e+06
7.78899e+06
8.90742e+06
1.0088e+07
1.19489e+07
1.51404e+07
1.90943e+07
2.23607e+07
2.34798e+07
2.25601e+07
2.07886e+07
1.87568e+07
1.67049e+07
1.46819e+07
1.31123e+07
1.1959e+07
1.09284e+07
9.79392e+06
8.61201e+06
7.4599e+06
6.4068e+06
5.47033e+06
4.66177e+06
3.97683e+06
3.41626e+06
2.98417e+06
2.70162e+06
2.60665e+06
2.72405e+06
3.00364e+06
3.32725e+06
3.5797e+06
3.6992e+06
3.67692e+06
3.5366e+06
3.31373e+06
3.04301e+06
2.75282e+06
2.46355e+06
2.18866e+06
1.93571e+06
1.70832e+06
1.50706e+06
1.33118e+06
1.1785e+06
1.04694e+06
933707
836796
753639
682867
622271
571558
3286.44
7221.55
10057.4
12648.4
15143.5
17846.1
21093.6
24969.8
29275
33615.1
37564.5
40833.1
43274.1
44886.3
45716
45872.4
45447.6
44573.2
43324.2
41822.7
40115.3
38308.1
36417.7
34539.7
32653.2
30852.1
29081.5
27444.1
25853.7
24461
23214
22548.4
22981.6
25852.9
32759.5
45788.9
68393.1
107871
184409
356925
747687
1.48884e+06
2.53407e+06
3.6743e+06
4.63918e+06
5.39701e+06
6.03758e+06
6.82042e+06
7.74278e+06
8.84204e+06
9.9923e+06
1.17852e+07
1.49056e+07
1.89475e+07
2.22397e+07
2.33184e+07
2.23708e+07
2.05931e+07
1.85191e+07
1.64036e+07
1.43377e+07
1.28136e+07
1.17497e+07
1.07942e+07
9.70681e+06
8.55361e+06
7.41794e+06
6.37529e+06
5.44498e+06
4.64064e+06
3.95825e+06
3.39942e+06
2.96806e+06
2.68531e+06
2.5885e+06
2.70219e+06
2.97684e+06
3.29628e+06
3.54666e+06
3.66658e+06
3.64656e+06
3.50956e+06
3.29033e+06
3.02312e+06
2.73611e+06
2.44955e+06
2.17697e+06
1.92594e+06
1.70018e+06
1.50026e+06
1.32555e+06
1.17383e+06
1.04316e+06
930644
834449
751864
681754
621639
571601
3097.04
6763.09
9447.54
11910.2
14286.9
16895.2
20070
23888.7
28144
32436.8
36342.6
39577.1
41999.4
43611.5
44458.7
44647.9
44266.6
43443.2
42248.4
40802.3
39148.3
37392.3
35547.8
33711.4
31859.8
30088.7
28340.4
26721.1
25143.5
23768.1
22556.3
21976
22576.2
25673.2
32790.9
45959.3
68519.2
107790
183614
354850
741712
1.47733e+06
2.51358e+06
3.64839e+06
4.60758e+06
5.36536e+06
6.00252e+06
6.78214e+06
7.68816e+06
8.76744e+06
9.88651e+06
1.16096e+07
1.46511e+07
1.87795e+07
2.21053e+07
2.31523e+07
2.21736e+07
2.03844e+07
1.82667e+07
1.60943e+07
1.39978e+07
1.25235e+07
1.15441e+07
1.06582e+07
9.61468e+06
8.48923e+06
7.37005e+06
6.3384e+06
5.41492e+06
4.61547e+06
3.9362e+06
3.37956e+06
2.94921e+06
2.66628e+06
2.56726e+06
2.67654e+06
2.94545e+06
3.26006e+06
3.50802e+06
3.62828e+06
3.61066e+06
3.47729e+06
3.2621e+06
2.99886e+06
2.71546e+06
2.43206e+06
2.1622e+06
1.91345e+06
1.68964e+06
1.49135e+06
1.31806e+06
1.16752e+06
1.03792e+06
926281
830942
749043
679702
620149
570872
2920.27
6336.4
8877.64
11217.4
13481.2
15998.2
19099.3
22854.9
27050.8
31284.1
35133.6
38322.3
40716
42319.9
43178.7
43396.5
43056.2
42282.1
41140.9
39750.4
38150.5
36446.5
34649
32855.7
31040.2
29300.6
27576
25977.2
24415.4
23063.6
21897.4
21416.5
22191.7
25507.8
32809.9
46079.8
68538.8
107520
182450
351968
733957
1.46252e+06
2.4881e+06
3.61629e+06
4.5692e+06
5.32692e+06
5.96034e+06
6.73604e+06
7.62446e+06
8.68286e+06
9.76991e+06
1.14214e+07
1.43765e+07
1.85885e+07
2.1954e+07
2.29764e+07
2.19642e+07
2.01597e+07
1.79984e+07
1.57771e+07
1.36616e+07
1.22397e+07
1.13397e+07
1.05184e+07
9.51619e+06
8.4179e+06
7.31551e+06
6.29558e+06
5.37969e+06
4.58588e+06
3.91036e+06
3.35643e+06
2.9274e+06
2.64435e+06
2.5428e+06
2.64701e+06
2.90936e+06
3.21848e+06
3.46363e+06
3.58413e+06
3.56906e+06
3.43961e+06
3.22886e+06
2.97003e+06
2.69071e+06
2.41091e+06
2.14419e+06
1.8981e+06
1.67659e+06
1.48022e+06
1.3086e+06
1.15946e+06
1.03112e+06
920520
826177
745083
676616
617711
569280
2755.39
5939.34
8344.64
10566.2
12721.5
15149.4
18175.5
21862.9
25990.7
30153.8
33935.7
37068.2
39424.2
41012.7
41877.4
42119.7
41817.3
41090.8
40002.2
38666.7
37121
35469.4
33719.5
31970
30191.5
28484.4
26784.7
25208.4
23665.8
22344.2
21234.5
20866.7
21822.1
25347.4
32805.6
46138.4
68439.7
107046
180899
348257
724402
1.44436e+06
2.45754e+06
3.57782e+06
4.52378e+06
5.28132e+06
5.91059e+06
6.68162e+06
7.55125e+06
8.5878e+06
9.642e+06
1.12201e+07
1.40817e+07
1.83733e+07
2.1783e+07
2.27865e+07
2.17393e+07
1.99173e+07
1.77139e+07
1.5452e+07
1.3328e+07
1.19604e+07
1.11345e+07
1.03732e+07
9.41028e+06
8.33888e+06
7.25376e+06
6.24639e+06
5.33893e+06
4.55157e+06
3.88049e+06
3.32982e+06
2.90247e+06
2.61939e+06
2.51504e+06
2.61353e+06
2.86855e+06
3.17152e+06
3.41345e+06
3.53408e+06
3.52165e+06
3.39641e+06
3.19049e+06
2.93653e+06
2.66176e+06
2.38602e+06
2.12285e+06
1.8798e+06
1.66093e+06
1.46677e+06
1.29709e+06
1.14957e+06
1.02268e+06
913283
820078
739909
672424
614252
566753
2601.68
5570.01
7845.95
9953.33
12004
14344.4
17294
20908.1
24959.8
29043.2
32747.7
35814.7
38125.2
39691.5
40556.9
40819.5
40551.9
39870.9
38833.4
37552.1
36060
34460.7
32758.5
31053.2
29311.9
27637.9
25964.2
24412.4
22892.7
21608.6
20567
20324.5
21462.4
25184.3
32769.7
46126
68213.2
106359
178953
343712
713061
1.42286e+06
2.42191e+06
3.5329e+06
4.47116e+06
5.22828e+06
5.853e+06
6.61852e+06
7.46823e+06
8.48195e+06
9.50253e+06
1.10057e+07
1.37674e+07
1.81333e+07
2.159e+07
2.25794e+07
2.14966e+07
1.96556e+07
1.7413e+07
1.51192e+07
1.29965e+07
1.16838e+07
1.09268e+07
1.02216e+07
9.29614e+06
8.25162e+06
7.18443e+06
6.19052e+06
5.29242e+06
4.51237e+06
3.84645e+06
3.29961e+06
2.87432e+06
2.59133e+06
2.48394e+06
2.57612e+06
2.82306e+06
3.11924e+06
3.35752e+06
3.47812e+06
3.46843e+06
3.34767e+06
3.14698e+06
2.89832e+06
2.62856e+06
2.35732e+06
2.09813e+06
1.85851e+06
1.64261e+06
1.45097e+06
1.28348e+06
1.1378e+06
1.01255e+06
904521
812594
733470
667071
609721
563235
2458.43
5226.6
7379.32
9376.13
11325.3
13579.5
16450.9
19986.9
23955.4
27950.5
31568.9
34562.4
36820.2
38358.4
39219.4
39498.3
39262.5
38624.3
37636.1
36407.6
34968.3
33420.8
31766
30104.6
28400.5
26760
25113
23587.8
22095.2
20856.8
19895
19788.6
21108.7
25012.2
32695
46035.6
67853.7
105452
176615
338343
699975
1.39807e+06
2.38128e+06
3.48154e+06
4.41131e+06
5.16767e+06
5.78738e+06
6.54656e+06
7.37529e+06
8.36519e+06
9.35145e+06
1.07783e+07
1.34343e+07
1.78683e+07
2.13738e+07
2.23528e+07
2.1234e+07
1.9374e+07
1.70959e+07
1.4779e+07
1.26664e+07
1.14086e+07
1.07154e+07
1.00625e+07
9.17322e+06
8.15575e+06
7.10726e+06
6.1278e+06
5.24e+06
4.46815e+06
3.80813e+06
3.26572e+06
2.8429e+06
2.56016e+06
2.44953e+06
2.53486e+06
2.77301e+06
3.06173e+06
3.29595e+06
3.41634e+06
3.40947e+06
3.29344e+06
3.09833e+06
2.85541e+06
2.59111e+06
2.32482e+06
2.07002e+06
1.83421e+06
1.62161e+06
1.43278e+06
1.26775e+06
1.12413e+06
1.00071e+06
894206
803694
725734
660523
604083
558689
2325.02
4907.46
6942.71
8832.38
10682.9
12851.7
15642.9
19096.4
22975.1
26874.4
30399.1
33312.2
35511.2
37015.8
37867.8
38159
37951.6
37353.6
36412.5
35235.3
33847.5
32350.7
30742.5
29124.4
27457.3
25850.4
24230.9
22734.6
21274.1
20090.2
19220.1
19258.5
20757.5
24825.7
32576.2
45862.5
67358.6
104327
173890
332174
685211
1.37011e+06
2.33577e+06
3.42383e+06
4.34427e+06