/*--------------------------------*- C++ -*----------------------------------*\
| =========                 |                                                 |
| \\      /  F ield         | OpenFOAM: The Open Source CFD Toolbox           |
|  \\    /   O peration     | Version:  2412                                  |
|   \\  /    A nd           | Website:  www.openfoam.com                      |
|    \\/     M anipulation  |                                                 |
\*---------------------------------------------------------------------------*/
FoamFile
{
    version     2.0;
    format      ascii;
    arch        "LSB;label=32;scalar=64";
    class       surfaceScalarField;
    location    "0.3";
    object      phi;
}
// * * * * * * * * * * * * * * * * * * * * * * * * * * * * * * * * * * * * * //

dimensions      [0 3 -1 0 0 0 0];

oriented        oriented;

internalField   nonuniform List<scalar> 
155925
(
0.00839147
-0.000815707
0.00771948
0.000671982
0.00849672
-0.000777231
0.00875499
-0.000258277
0.0087488
6.19565e-06
0.008605
0.0001438
0.00837614
0.00022886
0.00810512
0.000271027
0.00784923
0.000255887
0.00760929
0.000239947
0.00740014
0.000209145
0.0072038
0.000196345
0.00702857
0.000175234
0.00685601
0.000172554
0.00670038
0.000155639
0.00654305
0.000157334
0.00640748
0.000135562
0.00626451
0.000142976
0.00614949
0.000115024
0.00602137
0.000128122
0.00592875
9.26169e-05
0.00581438
0.00011438
0.00574898
6.53963e-05
0.00564452
0.000104463
0.00560776
3.67569e-05
0.00550975
9.80124e-05
0.00550338
6.37784e-06
0.00540102
0.00010236
0.00542846
-2.74438e-05
0.00531036
0.000118101
0.00537899
-6.86265e-05
0.00523122
0.000147765
0.00535261
-0.000121388
0.00515172
0.000200891
0.00534746
-0.000195743
0.00506732
0.000280142
0.00538136
-0.000314046
0.00500294
0.000378419
0.00549827
-0.00049533
0.00504019
0.000458084
0.00577283
-0.000732637
0.00529333
0.000479493
0.00611825
-0.000824916
0.0054529
0.000665345
0.00622942
-0.000776516
0.00527955
0.000949871
0.00616733
-0.000887781
0.00505702
0.00111031
0.0061635
-0.00110648
0.0049451
0.0012184
0.00625096
-0.00130586
0.0053609
0.000890057
0.00774293
-0.00238203
0.00444634
0.00329659
0.00499506
-0.00054872
0.00392436
0.0010707
0.00487414
-0.000949779
0.0041609
0.000713231
0.00485604
-0.000695134
0.00428008
0.000575958
0.00490028
-0.000620196
0.00470896
0.000191317
0.0053212
-0.000612244
0.00522663
9.4575e-05
0.00562502
-0.000398398
0.00544807
0.000176959
0.00567196
-0.000223894
0.00549053
0.00018143
0.00563471
-0.000144182
0.00549717
0.000137544
0.00560339
-0.000106226
0.00551854
8.48442e-05
0.00561384
-9.52956e-05
0.00559541
1.84261e-05
0.00571567
-0.000120258
0.0057887
-7.30312e-05
0.00595607
-0.000167379
0.00608539
-0.000129316
0.00624721
-0.000161824
0.00636619
-0.000118977
0.00649224
-0.000126046
0.00658696
-9.47217e-05
0.00668028
-9.33194e-05
0.00675706
-7.67887e-05
0.00682544
-6.83764e-05
0.00689161
-6.61653e-05
0.00694107
-4.94597e-05
0.00700271
-6.16461e-05
0.00703333
-3.06146e-05
0.00709838
-6.5057e-05
0.0071082
-9.81067e-06
0.00718236
-7.41631e-05
0.00715973
2.26254e-05
0.00725346
-9.3731e-05
0.00717148
8.19822e-05
0.00730813
-0.00013665
0.00710246
0.000205679
0.00735995
-0.000257488
0.000422923
0.0110387
-0.00427862
0.0100057
0.00170494
0.00998381
-0.000755325
0.00996599
-0.000240457
0.00992341
4.87772e-05
0.00984854
0.000218672
0.0097094
0.000368002
0.00949902
0.000481398
0.00925225
0.000502665
0.00898567
0.000506524
0.00872761
0.000467209
0.00847965
0.000444307
0.00825346
0.000401427
0.00803858
0.000387437
0.00784349
0.000350723
0.00765442
0.00034641
0.00748631
0.000303675
0.00731915
0.000310138
0.00717566
0.000258509
0.00702853
0.000275253
0.00690961
0.000211544
0.00678052
0.000243469
0.00668898
0.000156936
0.0065758
0.000217644
0.00651226
0.000100302
0.00641219
0.000198077
0.00637758
4.09954e-05
0.00628674
0.000193201
0.006284
-2.47047e-05
0.0061918
0.000210301
0.00622219
-9.90162e-05
0.00611737
0.000252586
0.00618613
-0.00019015
0.00605334
0.000333684
0.00617106
-0.000313465
0.00599687
0.000454328
0.00618899
-0.000506165
0.00597543
0.000591978
0.0062743
-0.000794205
0.00606213
0.000670255
0.00647335
-0.00114386
0.00630361
0.000649233
0.00668487
-0.00120618
0.00642356
0.000926657
0.0067058
-0.00105875
0.00629497
0.0013607
0.00659874
-0.00119156
0.00613636
0.00157269
0.00656295
-0.00153307
0.00609902
0.00168233
0.00662174
-0.00182858
0.00660377
0.00090803
0.00819816
-0.00397643
0.00623448
0.00526027
0.00561541
7.03485e-05
0.00492216
0.00176395
0.0053043
-0.00133192
0.00505084
0.000966694
0.00528826
-0.00093256
0.00508507
0.000779145
0.00537073
-0.00090585
0.0054672
9.48445e-05
0.00587221
-0.00101725
0.0059937
-2.69207e-05
0.00623878
-0.000643472
0.00621768
0.000198056
0.00631693
-0.000323144
0.00624741
0.000250946
0.00629862
-0.000195394
0.00624232
0.000193845
0.00628418
-0.000148084
0.00625676
0.000112261
0.00630592
-0.000144454
0.00632046
3.87788e-06
0.00640218
-0.000201973
0.00647964
-0.000150492
0.00660705
-0.000294787
0.00673061
-0.000252884
0.00687046
-0.00030167
0.00699438
-0.000242901
0.00711708
-0.000248743
0.00722356
-0.000201205
0.00732457
-0.000194326
0.00741525
-0.000167466
0.00749908
-0.000152213
0.00757933
-0.000146415
0.00765089
-0.000121014
0.00772514
-0.000135896
0.00778522
-9.06972e-05
0.00785794
-0.000137779
0.00790602
-5.7885e-05
0.00798105
-0.0001492
0.00801088
-7.20291e-06
0.00809197
-0.000174815
0.00808832
8.56248e-05
0.00818379
-0.00023212
0.00811193
0.000277539
0.00826005
-0.000405603
0.00058794
0.00899158
-0.00569444
0.00973991
0.000956606
0.0103409
-0.00135627
0.0104089
-0.000308524
0.0103359
0.000121844
0.0102219
0.000332661
0.0100679
0.000521938
0.0098704
0.000678936
0.00964782
0.000725245
0.00940638
0.000747964
0.00916463
0.000708956
0.00892562
0.000683315
0.0087006
0.000626454
0.00848495
0.000603086
0.00828633
0.000549344
0.00809591
0.000536834
0.00792452
0.000475062
0.00775786
0.000476804
0.00761199
0.000404374
0.00746692
0.000420323
0.00734565
0.000332823
0.00721978
0.000369335
0.00712463
0.000252082
0.00701571
0.000326571
0.00694684
0.000169175
0.00685222
0.000292695
0.00681005
8.31637e-05
0.0067255
0.000277752
0.00671239
-1.15896e-05
0.00662973
0.000292964
0.0066462
-0.00011549
0.00655556
0.00034323
0.00660501
-0.000239602
0.00649326
0.000445429
0.00658389
-0.0004041
0.0064425
0.00059572
0.006595
-0.000658661
0.0064354
0.000751573
0.00666547
-0.00102428
0.00653039
0.000805341
0.0068004
-0.00141387
0.00670603
0.000743603
0.00690265
-0.0014028
0.00675174
0.00107757
0.00686296
-0.00116998
0.00661742
0.00160624
0.00673279
-0.00130693
0.00647773
0.00182775
0.00668353
-0.00173887
0.00647162
0.00189424
0.00674427
-0.00210123
0.00701475
0.000637544
0.00829608
-0.00525776
0.00689337
0.00666298
0.00601561
0.00094811
0.00537037
0.00240919
0.00555478
-0.00151633
0.00540547
0.00111601
0.00551412
-0.00104122
0.00541236
0.000880905
0.00562378
-0.00111726
0.00580204
-8.34169e-05
0.00615473
-0.00136994
0.00632847
-0.000200666
0.0065206
-0.000835596
0.00653611
0.000182544
0.00659401
-0.000381044
0.00655526
0.000289701
0.00657919
-0.000219329
0.00654822
0.000224814
0.00657288
-0.000172745
0.00656475
0.000120394
0.00660252
-0.000182227
0.00662723
-2.08277e-05
0.00669448
-0.000269226
0.0067679
-0.000223913
0.00687718
-0.000404069
0.0069938
-0.0003695
0.00712387
-0.00043174
0.00724696
-0.00036599
0.00736751
-0.000369294
0.00747677
-0.000310468
0.00757998
-0.000297531
0.00767513
-0.000262618
0.00776441
-0.000241498
0.00785021
-0.000232212
0.00793028
-0.000201084
0.00801067
-0.000216291
0.00808282
-0.000162839
0.00816105
-0.000216015
0.00822535
-0.000122183
0.00830299
-0.000226837
0.00835487
-5.90894e-05
0.00843205
-0.000251996
0.00846041
5.72666e-05
0.0085377
-0.000309408
0.00851811
0.000297132
0.00861652
-0.000504015
0.000676518
0.00890692
-0.0070256
0.00948745
0.000376076
0.0101369
-0.00200576
0.0102967
-0.000468288
0.0102997
0.000118829
0.0102258
0.000406562
0.0100957
0.000652051
0.00992083
0.000853813
0.00972067
0.000925409
0.00950326
0.000965376
0.00928294
0.000929271
0.00906319
0.000903071
0.00885275
0.000836889
0.00864986
0.000805981
0.00846071
0.000738492
0.00828005
0.000717492
0.00811595
0.000639168
0.00795847
0.000634279
0.00781907
0.000543775
0.00768326
0.000556137
0.0075677
0.000448382
0.00745122
0.000485817
0.00736034
0.000342964
0.00726079
0.000426117
0.00719427
0.000235698
0.00710881
0.000378159
0.00706676
0.000125214
0.00699099
0.000353517
0.00697528
4.12601e-06
0.00690204
0.000366201
0.00691328
-0.000126725
0.00683358
0.000422925
0.00687468
-0.000280698
0.00677687
0.000543237
0.00685517
-0.000482407
0.00673531
0.000715586
0.00686682
-0.000790175
0.00674224
0.000876156
0.00692161
-0.00120365
0.00682472
0.000902231
0.00699405
-0.0015832
0.00692439
0.000813262
0.00702498
-0.00150339
0.00691454
0.00118801
0.00694945
-0.00120488
0.00677045
0.00178524
0.006804
-0.00134048
0.00663629
0.00199546
0.00674499
-0.00184756
0.00664409
0.00199514
0.00680616
-0.00226329
0.00719837
0.000245332
0.00829828
-0.00635766
0.00727222
0.00768903
0.00629557
0.00192477
0.00566579
0.00303897
0.00573803
-0.00158858
0.00561997
0.00123407
0.0056728
-0.00109404
0.00561673
0.000936973
0.0058066
-0.00130714
0.00602159
-0.000298406
0.00635149
-0.00169984
0.00653833
-0.000387506
0.00669984
-0.000997109
0.00672322
0.000159164
0.00675963
-0.000417461
0.00673171
0.000317628
0.00674344
-0.000231063
0.0067232
0.000245051
0.00674083
-0.000190372
0.00674155
0.000119676
0.00677495
-0.000215628
0.00680437
-5.02503e-05
0.0068651
-0.00032996
0.00693591
-0.000294718
0.0070366
-0.000504758
0.00714929
-0.000482188
0.00727455
-0.000557004
0.0073965
-0.000487937
0.00751555
-0.000488348
0.00762537
-0.000420288
0.00772906
-0.000401216
0.00782576
-0.000359323
0.00791717
-0.00033291
0.00800537
-0.000320405
0.00808926
-0.000284974
0.00817279
-0.000299829
0.00825076
-0.0002408
0.00833233
-0.000297594
0.00840474
-0.000194588
0.00848487
-0.000306966
0.00854787
-0.000122094
0.00862495
-0.00032907
0.00866937
1.28434e-05
0.00874023
-0.000380262
0.00874669
0.000290666
0.00882333
-0.00058065
0.000724386
0.00893692
-0.00838677
0.00951166
-0.000198661
0.00996156
-0.00245566
0.0101252
-0.000631944
0.0101754
6.86369e-05
0.010139
0.000442999
0.0100357
0.000755373
0.00988147
0.001008
0.00969729
0.00110959
0.009495
0.00116767
0.00928845
0.00113582
0.00908236
0.00110916
0.0088839
0.00103535
0.00869267
0.000997207
0.00851337
0.000917789
0.00834284
0.000888027
0.00818699
0.00079502
0.00803899
0.000782274
0.00790694
0.00067583
0.00778053
0.000682551
0.00767167
0.000557241
0.00756491
0.000592578
0.00747979
0.000428078
0.00739048
0.000515429
0.00732848
0.000297706
0.00725364
0.000452992
0.0072145
0.000164356
0.00714961
0.000418415
0.00713444
1.9289e-05
0.00707259
0.000428052
0.00708185
-0.000135986
0.00701447
0.000490313
0.00705073
-0.000316966
0.00696744
0.000626535
0.0070372
-0.000552173
0.00693894
0.000813845
0.00705078
-0.000902014
0.0069562
0.000970738
0.00708688
-0.00133433
0.00701436
0.000974756
0.00711467
-0.00168351
0.00705623
0.000871696
0.00710456
-0.00155171
0.0070113
0.00128128
0.00700663
-0.00120022
0.00685816
0.00193372
0.00685034
-0.00133266
0.00672416
0.00212163
0.00678466
-0.00190806
0.00673793
0.00204187
0.00684706
-0.00237243
0.00729456
-0.000202166
0.00828603
-0.00734913
0.00749406
0.008481
0.00648509
0.00293374
0.00587909
0.00364496
0.00587986
-0.00158934
0.00577273
0.0013412
0.00579677
-0.00111809
0.00576897
0.000964775
0.00595451
-0.00149268
0.00619052
-0.00053441
0.00650542
-0.00201473
0.00669147
-0.000573555
0.00682972
-0.00113537
0.00685164
0.000137245
0.00687406
-0.000439879
0.00685028
0.00034141
0.00685528
-0.000236061
0.00684043
0.000259893
0.00685457
-0.000204513
0.00686014
0.000114108
0.00689169
-0.000247174
0.00692397
-8.25354e-05
0.0069817
-0.000387691
0.00705148
-0.000364496
0.0071481
-0.000601374
0.00725884
-0.000592933
0.0073815
-0.000679667
0.00750245
-0.000608886
0.00762024
-0.00060614
0.0077298
-0.000529838
0.00783322
-0.000504639
0.00793027
-0.000456374
0.00802243
-0.000425066
0.00811164
-0.000409616
0.0081974
-0.000370733
0.00828263
-0.00038506
0.00836377
-0.000321944
0.00844744
-0.000381262
0.00852446
-0.000271605
0.00860646
-0.000388967
0.00867582
-0.000191458
0.00875353
-0.00040678
0.00880705
-4.06716e-05
0.00887525
-0.000448471
0.00889627
0.000269654
0.00896168
-0.000646067
0.000748775
0.00873428
-0.00954529
0.00947462
-0.000939005
0.00983598
-0.00281702
0.00999417
-0.000790134
0.0100634
-6.16298e-07
0.0100465
0.000459899
0.00996029
0.000841615
0.00982031
0.00114798
0.00964709
0.00128281
0.00945477
0.00135999
0.00925736
0.00133323
0.00906064
0.00130588
0.00887094
0.00122505
0.0086886
0.00117955
0.00851724
0.00108914
0.00835485
0.00105042
0.00820592
0.000943954
0.00806553
0.000922665
0.00793959
0.000801768
0.00782059
0.000801548
0.00771725
0.000660586
0.00761813
0.000691699
0.00753783
0.000508378
0.00745676
0.000596493
0.00739873
0.000355741
0.00733294
0.000518781
0.00729667
0.000200627
0.00724179
0.0004733
0.00722772
3.33583e-05
0.00717713
0.000478639
0.00718524
-0.000144097
0.00713071
0.000544848
0.00716299
-0.000349251
0.00709547
0.000694055
0.00715679
-0.000613494
0.00708132
0.000889315
0.00717122
-0.000991915
0.00710281
0.00103915
0.00719227
-0.00142379
0.00713741
0.00102961
0.00719505
-0.00174115
0.0071432
0.00092354
0.00716152
-0.00157003
0.0070762
0.0013666
0.00704821
-0.00117223
0.00691521
0.00206671
0.0068836
-0.00130105
0.00677942
0.00222581
0.00681334
-0.00194198
0.00679603
0.00205918
0.00687785
-0.00245424
0.0073531
-0.00067742
0.00827941
-0.00827544
0.00762612
0.00913429
0.00661687
0.00394299
0.00603914
0.00422269
0.00599382
-0.00154402
0.00589169
0.00144333
0.00590023
-0.00112663
0.00589358
0.00097142
0.00608152
-0.00168061
0.00633079
-0.000783681
0.00663284
-0.00231679
0.00681188
-0.000752597
0.00693041
-0.00125389
0.00694753
0.000120124
0.00695974
-0.000452092
0.00693753
0.000363627
0.0069383
-0.000236833
0.00692653
0.000271657
0.00693872
-0.000216702
0.00694734
0.00010549
0.00697813
-0.000277964
0.00701251
-0.000116911
0.00706899
-0.000444179
0.00713878
-0.000434285
0.0072336
-0.000696196
0.0073435
-0.000702827
0.00746459
-0.000800757
0.00758461
-0.000728909
0.00770118
-0.000722708
0.00781002
-0.000638685
0.00791276
-0.000607373
0.00800953
-0.000553148
0.00810172
-0.000517258
0.00819124
-0.000499128
0.00827789
-0.000457389
0.00836405
-0.000471215
0.00844708
-0.000404973
0.00853209
-0.000466279
0.008612
-0.000351508
0.00869536
-0.000472336
0.00876874
-0.000264834
0.00884717
-0.000485214
0.00890635
-9.98476e-05
0.00897336
-0.00051548
0.00900326
0.00023976
0.00906214
-0.000704953
0.000758705
0.00862102
-0.0105906
0.00941088
-0.00172887
0.00973407
-0.00314021
0.00989049
-0.000946553
0.00996854
-7.86658e-05
0.00996144
0.000467002
0.00988503
0.000918021
0.00975411
0.0012789
0.00958838
0.00144854
0.00940314
0.00154522
0.00921251
0.00152386
0.00902291
0.00149549
0.00884016
0.0014078
0.00866495
0.00135476
0.0085002
0.00125389
0.00834449
0.00120613
0.00820141
0.00108704
0.00806719
0.00105688
0.00794638
0.000922583
0.00783323
0.000914691
0.00773441
0.000759408
0.00764115
0.00078496
0.00756473
0.000584801
0.00748989
0.000671332
0.00743502
0.000410614
0.00737611
0.000577689
0.0073421
0.000234634
0.00729513
0.000520273
0.00728188
4.66102e-05
0.00724073
0.000519788
0.00724763
-0.000150997
0.00720467
0.000587806
0.00723287
-0.000377453
0.00718078
0.000746143
0.0072329
-0.000665608
0.0071792
0.000943009
0.00724798
-0.00106069
0.00720112
0.00108601
0.00726131
-0.00148399
0.00721981
0.00107112
0.00725243
-0.00177377
0.00720508
0.000970892
0.00720492
-0.00156988
0.00712339
0.00144813
0.00708012
-0.00112896
0.00695557
0.00219127
0.00690874
-0.00125422
0.00681739
0.00231716
0.00683529
-0.00195989
0.00683576
0.00205871
0.00690255
-0.00252103
0.00739312
-0.00116799
0.00827738
-0.0091597
0.00770954
0.00970213
0.0067125
0.00494002
0.00616256
0.00477263
0.00608792
-0.00146938
0.00598967
0.00154159
0.00599035
-0.00112731
0.00600133
0.000960439
0.00619433
-0.00187362
0.006452
-0.00104135
0.00674156
-0.00260634
0.00691044
-0.00092148
0.0070115
-0.00135495
0.00702274
0.000108884
0.00702709
-0.000456441
0.00700537
0.000385346
0.00700327
-0.000234729
0.00699345
0.000281469
0.00700448
-0.000227728
0.00701523
9.47336e-05
0.00704583
-0.000308563
0.00708194
-0.000153025
0.00713817
-0.000500404
0.00720861
-0.000504725
0.00730286
-0.000790445
0.00741247
-0.000812445
0.00753246
-0.000920746
0.00765154
-0.000847982
0.00776682
-0.000837996
0.00787468
-0.000746541
0.00797645
-0.000709139
0.00807256
-0.000649264
0.00816437
-0.000609065
0.00825375
-0.00058851
0.00834075
-0.000544386
0.00842736
-0.000557828
0.00851154
-0.000489147
0.00859743
-0.000552176
0.00867926
-0.00043333
0.00876362
-0.000556703
0.00883972
-0.000340926
0.00891879
-0.000564284
0.00898175
-0.000162814
0.00904816
-0.000581889
0.00908387
0.000204052
0.00913853
-0.000759612
0.000759136
0.00854751
-0.0115623
0.0093402
-0.00252156
0.00964591
-0.00344593
0.00980338
-0.00110402
0.00988609
-0.000161378
0.00988395
0.000469147
0.00981296
0.000989009
0.00968756
0.0014043
0.00952688
0.00160922
0.00934685
0.00172525
0.00916159
0.00170912
0.00897785
0.00167922
0.00880102
0.00158464
0.00863193
0.00152385
0.00847296
0.00141286
0.00832305
0.00135604
0.00818514
0.00122495
0.00805623
0.0011858
0.00793994
0.00103887
0.0078317
0.00102293
0.00773682
0.000854286
0.00764831
0.000873469
0.00757523
0.000657884
0.00750526
0.000741304
0.00745308
0.000462785
0.00739943
0.000631348
0.00736733
0.00026673
0.00732636
0.000561241
0.00731381
5.91677e-05
0.00727996
0.000553633
0.00728574
-0.000156776
0.00725218
0.000621368
0.00727651
-0.000401789
0.00723787
0.000784791
0.0072813
-0.000709044
0.0072459
0.000978415
0.00729815
-0.00111294
0.00726756
0.00111659
0.00730931
-0.00152573
0.0072778
0.00110263
0.00729589
-0.00179186
0.00725179
0.00101499
0.00723945
-0.00155753
0.0071596
0.00152798
0.00710546
-0.00107482
0.00698571
0.00231102
0.00692834
-0.00119686
0.00684509
0.00240041
0.0068527
-0.00196749
0.00686497
0.00204644
0.0069232
-0.00257927
0.00742282
-0.00166761
0.0082776
-0.0100145
0.00776579
0.0102139
0.00678492
0.00592089
0.00626018
0.00529737
0.00616742
-0.00137662
0.00607351
0.0016355
0.00607123
-0.00112503
0.00609772
0.000933941
0.00629662
-0.00207251
0.00655911
-0.00130384
0.0068359
-0.00288313
0.00699297
-0.00107855
0.00707833
-0.00144032
0.00708357
0.000103652
0.00708168
-0.000454556
0.00706002
0.000407005
0.00705587
-0.000230577
0.0070474
0.000289936
0.00705772
-0.000238043
0.00707012
8.23299e-05
0.00710086
-0.000339301
0.00713854
-0.000190704
0.00719509
-0.000556958
0.00726657
-0.000576201
0.00736091
-0.000884792
0.00747051
-0.000922043
0.0075896
-0.00103983
0.00770763
-0.000966016
0.00782154
-0.000951907
0.00792819
-0.000853184
0.00802877
-0.000809723
0.00812397
-0.000744461
0.00821511
-0.000700208
0.00830408
-0.000677481
0.00839107
-0.000631374
0.00847783
-0.000644588
0.0085627
-0.000574013
0.00864916
-0.000638637
0.00873229
-0.000516466
0.00881739
-0.000641797
0.00889539
-0.000418934
0.00897497
-0.000643863
0.00904061
-0.000228446
0.00910667
-0.000647956
0.00914638
0.000164343
0.00919805
-0.000811278
0.000753086
0.00849028
-0.0124768
0.00927018
-0.00330146
0.00956684
-0.00374259
0.00972677
-0.00126395
0.00981228
-0.000246886
0.00981259
0.000468829
0.00974433
0.00105727
0.00962206
0.00152658
0.00946467
0.00176661
0.00928855
0.00190137
0.00910771
0.00188996
0.00892902
0.00185792
0.00875746
0.0017562
0.00859384
0.00168747
0.00844015
0.00156655
0.00829548
0.00150071
0.00816232
0.00135811
0.00803816
0.00130996
0.00792602
0.00115101
0.00782213
0.00112683
0.00773086
0.000945555
0.00764644
0.000957887
0.00757641
0.00072791
0.00751049
0.000807225
0.0074608
0.000512473
0.00741135
0.0006808
0.00738105
0.000297036
0.00734475
0.000597535
0.00733296
7.09579e-05
0.00730473
0.000581872
0.00730973
-0.000161779
0.00728347
0.00064763
0.00730466
-0.000422983
0.00727692
0.000812532
0.00731351
-0.000745635
0.00729213
0.000999798
0.00733314
-0.00115396
0.00731419
0.00113554
0.00734489
-0.00155643
0.00732084
0.00112668
0.00733034
-0.00180135
0.00728866
0.00105666
0.00726772
-0.00153659
0.00718839
0.0016073
0.00712602
-0.00101244
0.007009
0.00242804
0.00694389
-0.00113175
0.00686612
0.00247818
0.00686686
-0.00196823
0.00688759
0.00202571
0.00694097
-0.00263265
0.00744616
-0.0021728
0.00827874
-0.0108471
0.00780597
0.0106867
0.00684187
0.006885
0.0063393
0.00579994
0.00623597
-0.00127329
0.00614731
0.00172416
0.0061454
-0.00112312
0.00618591
0.000893426
0.00639056
-0.00227716
0.00665498
-0.00156826
0.00691857
-0.00314671
0.00706302
-0.00122301
0.00713423
-0.00151152
0.00713376
0.000104124
0.00712686
-0.000447657
0.00710509
0.000428771
0.00709944
-0.000224921
0.00709197
0.000297401
0.00710187
-0.000247947
0.00711564
6.85655e-05
0.00714673
-0.000370399
0.00718589
-0.000229862
0.00724315
-0.000614216
0.00731588
-0.000648935
0.00741068
-0.000979583
0.00752034
-0.00103171
0.00763856
-0.00115805
0.00775544
-0.0010829
0.00786785
-0.00106432
0.00797309
-0.000958423
0.00807232
-0.000908954
0.00816641
-0.000838544
0.00825669
-0.000790486
0.00834505
-0.000765843
0.00843178
-0.000718108
0.00851847
-0.000731277
0.00860372
-0.000659258
0.00869051
-0.000725429
0.00877455
-0.000600511
0.00886015
-0.000727399
0.00893955
-0.000498327
0.00901952
-0.000723835
0.00908708
-0.000296007
0.00915291
-0.000713787
0.00919547
0.00012179
0.00924485
-0.000860661
0.000742448
0.00844168
-0.0133427
0.00920276
-0.00406254
0.00949418
-0.00403401
0.0096572
-0.00142697
0.00974458
-0.000334262
0.00974598
0.000467432
0.00967877
0.00112447
0.009558
0.00164734
0.00940265
0.00192197
0.00922947
0.00207454
0.00905237
0.00206707
0.00887815
0.00203213
0.00871139
0.00192296
0.00855282
0.00184604
0.00840402
0.00171535
0.00826421
0.00164053
0.00813551
0.0014868
0.00801575
0.00142972
0.00790753
0.00125923
0.00780761
0.00122675
0.00771975
0.00103342
0.00763902
0.00103862
0.00757189
0.000795038
0.00750952
0.000869599
0.00746221
0.000559777
0.00741633
0.000726689
0.0073878
0.000325558
0.00735531
0.000630029
0.00734445
8.18204e-05
0.00732062
0.000605698
0.00732528
-0.000166437
0.00730471
0.000668203
0.00732369
-0.000441963
0.00730461
0.000831614
0.00733648
-0.000777514
0.00732543
0.00101085
0.0073593
-0.00118782
0.00734857
0.00114627
0.00737272
-0.00158059
0.00735434
0.00114506
0.00735858
-0.00180559
0.00731868
0.00109657
0.00729131
-0.00150922
0.00721181
0.0016868
0.00714288
-0.000943515
0.00702738
0.00254354
0.00695635
-0.00106072
0.00688251
0.00255202
0.00687859
-0.00196432
0.0069058
0.00199851
0.00695662
-0.00268347
0.00746526
-0.00268144
0.00828012
-0.0116619
0.00783608
0.0111308
0.00688813
0.00783294
0.00640493
0.00628314
0.00629618
-0.00116454
0.00621373
0.00180661
0.00621451
-0.00112389
0.00626781
0.000840126
0.00647753
-0.00248688
0.00674147
-0.00183221
0.00699141
-0.00339665
0.00712297
-0.00135457
0.00718141
-0.00156996
0.00717572
0.000109814
0.00716476
-0.000436696
0.00714285
0.00045068
0.00713607
-0.000218144
0.00712941
0.000304065
0.00713911
-0.00025765
0.00715407
5.36111e-05
0.00718568
-0.000402012
0.00722627
-0.000270455
0.00728447
-0.00067242
0.00735857
-0.000723035
0.00745396
-0.00107497
0.00756367
-0.00114142
0.00768097
-0.00127535
0.00779655
-0.00119847
0.00790733
-0.0011751
0.00801101
-0.0010621
0.00810874
-0.00100669
0.00820156
-0.000931361
0.00829082
-0.000879746
0.00837842
-0.000853439
0.00846472
-0.000804409
0.00855117
-0.000817734
0.00863656
-0.000744645
0.00872351
-0.000812374
0.00880817
-0.00068517
0.00889411
-0.000813345
0.00897451
-0.000578726
0.00905475
-0.000804079
0.00912374
-0.00036499
0.00918937
-0.000779416
0.00923399
7.71692e-05
0.00928151
-0.000908186
0.00072855
0.00839844
-0.0141654
0.00913814
-0.00480224
0.00942629
-0.00432216
0.00959267
-0.00159334
0.00968137
-0.00042297
0.00968302
0.000465788
0.00961579
0.0011917
0.0094954
0.00176773
0.00934116
0.00207621
0.00917022
0.00224548
0.00899632
0.00224097
0.00882616
0.0022023
0.00866386
0.00208525
0.00851
0.00199991
0.00836583
0.00185951
0.00823059
0.00177577
0.00810613
0.00161126
0.00799052
0.00154533
0.00788604
0.00136372
0.00778986
0.00132293
0.00770526
0.00111801
0.00762796
0.00111592
0.00756363
0.000859365
0.00750449
0.00092874
0.00745952
0.000604744
0.00741679
0.000769426
0.00739007
0.000352272
0.00736082
0.000659279
0.00735104
9.16026e-05
0.00733084
0.000625905
0.00733554
-0.000171143
0.00731953
0.000684211
0.00733717
-0.000459605
0.00732505
0.000843737
0.00735401
-0.000806467
0.00735055
0.00101431
0.00737997
-0.00121725
0.00737516
0.00115108
0.00739539
-0.00160081
0.0073814
0.00115905
0.00738231
-0.0018065
0.00734369
0.00113519
0.00731125
-0.00147679
0.00723113
0.00176692
0.00715678
-0.000869172
0.00704203
0.00265829
0.00696632
-0.000985009
0.00689548
0.00262286
0.00688844
-0.00195729
0.0069209
0.00196605
0.00697064
-0.0027332
0.00748135
-0.00319215
0.00828143
-0.012462
0.0078595
0.0115527
0.00692675
0.00876568
0.00646056
0.00674934
0.00634996
-0.00105395
0.00627457
0.001882
0.00627971
-0.00112903
0.00634468
0.000775155
0.00655849
-0.00270068
0.00681984
-0.00209356
0.00705578
-0.00363259
0.00717452
-0.0014733
0.00722146
-0.00161691
0.00721111
0.000120163
0.00719685
-0.000422436
0.00717482
0.000472716
0.0071672
-0.000210526
0.00716121
0.000310057
0.00717087
-0.000267309
0.00718692
3.75616e-05
0.00721916
-0.000434258
0.00726116
-0.000312459
0.00732047
-0.000731723
0.00739597
-0.000798534
0.00749199
-0.001171
0.00760163
-0.00125106
0.0077179
-0.00139162
0.00783201
-0.00131259
0.00794104
-0.00128413
0.00804301
-0.00116408
0.00813912
-0.0011028
0.00823054
-0.00102278
0.00831866
-0.000967866
0.00840538
-0.000940153
0.00849111
-0.000890138
0.00857719
-0.000903823
0.00866256
-0.000830007
0.00874951
-0.00089933
0.00883456
-0.000770217
0.0089207
-0.000899488
0.00900183
-0.000659848
0.00908223
-0.000884487
0.00915226
-0.000435019
0.00921769
-0.000844838
0.00926382
3.10347e-05
0.00930976
-0.000954126
0.000712305
0.00835888
-0.0149485
0.00907618
-0.00551955
0.00936214
-0.00460812
0.00953189
-0.00176308
0.00962156
-0.000512643
0.00962292
0.000464431
0.00955493
0.0012597
0.00943414
0.00188852
0.00928036
0.00222999
0.00911113
0.00241471
0.00894005
0.00241205
0.0087736
0.00236875
0.00861549
0.00224336
0.00846607
0.00214933
0.00832632
0.00199927
0.00819542
0.00190667
0.00807503
0.00173165
0.00796338
0.00165698
0.0078625
0.0014646
0.00776987
0.00141556
0.00768844
0.00119944
0.00761439
0.00118998
0.00755279
0.000920961
0.00749667
0.000984862
0.00745401
0.000647402
0.00741416
0.000809278
0.00738928
0.000377151
0.00736291
0.000685655
0.00735434
0.000100166
0.00733722
0.000643029
0.00734229
-0.000176218
0.0073301
0.000696403
0.00734714
-0.000476641
0.00734076
0.000850117
0.00736808
-0.000833788
0.00737031
0.00101208
0.00739698
-0.00124392
0.00739655
0.00115151
0.0074144
-0.00161867
0.00740386
0.00116959
0.00740257
-0.00180521
0.00736483
0.00117294
0.00732822
-0.00144018
0.00724718
0.00184797
0.00716822
-0.00079022
0.00705372
0.00277279
0.00697426
-0.000905545
0.00690584
0.00269128
0.0068968
-0.00194824
0.00693371
0.00192914
0.00698337
-0.00278287
0.00749519
-0.00370397
0.0082825
-0.0132493
0.00787825
0.0119569
0.00695975
0.00968419
0.00650866
0.00720043
0.00639873
-0.000944022
0.00633111
0.00194962
0.00634178
-0.0011397
0.00641735
0.000699582
0.00663409
-0.00291742
0.00689102
-0.00235049
0.00711273
-0.0038543
0.00721892
-0.0015795
0.00725556
-0.00165354
0.00724112
0.000134606
0.00722417
-0.000405494
0.00720206
0.000494835
0.00719381
-0.00020228
0.00718842
0.00031545
0.00719816
-0.000277053
0.00721524
2.04793e-05
0.00724821
-0.000467227
0.00729161
-0.000355859
0.00735211
-0.000792219
0.00742898
-0.000875406
0.00752559
-0.00126761
0.00763501
-0.00136049
0.00775011
-0.00150671
0.0078626
-0.00142508
0.00796973
-0.00139125
0.00806986
-0.00126421
0.00816424
-0.00119717
0.00825416
-0.00111271
0.00834104
-0.00105474
0.00842677
-0.00102589
0.00851182
-0.000975182
0.00859743
-0.00098944
0.00868262
-0.000915197
0.00876946
-0.000986171
0.00885472
-0.000855473
0.00894094
-0.000985707
0.00902256
-0.000741468
0.00910303
-0.00096496
0.00917383
-0.000505813
0.00923902
-0.000910027
0.00928625
-1.62027e-05
0.00933078
-0.000998652
0.000694423
0.0083221
-0.0156949
0.00901671
-0.00621415
0.00930105
-0.00489247
0.00947405
-0.00193608
0.00956439
-0.000602979
0.00956507
0.000463749
0.00949581
0.00132895
0.00937408
0.00201025
0.00922029
0.00238379
0.00905238
0.00258261
0.00888382
0.00258061
0.00872082
0.00253174
0.00856668
0.00239751
0.00842149
0.00229451
0.00828595
0.00213481
0.00815923
0.0020334
0.00804275
0.00184812
0.0079349
0.00176483
0.00783751
0.00156199
0.00774831
0.00150476
0.00766996
0.00127779
0.00759901
0.00126092
0.0075401
0.000979876
0.00748685
0.00103811
0.00744648
0.000687769
0.00740932
0.000846435
0.00738631
0.000400166
0.00736255
0.00070941
0.00735531
0.000107412
0.00734091
0.000657423
0.00734661
-0.000181912
0.00733773
0.000705278
0.00735475
-0.000493658
0.00735324
0.000851622
0.0073798
-0.000860348
0.00738639
0.00100549
0.00741134
-0.00126887
0.00741426
0.0011486
0.00743068
-0.00163508
0.0074229
0.00117736
0.00742008
-0.00180239
0.00738288
0.00121014
0.00734271
-0.00140001
0.00726053
0.00193015
0.00717756
-0.000707254
0.00706299
0.00288736
0.00698047
-0.000823026
0.00691413
0.00275763
0.00690393
-0.00193805
0.00694477
0.00188831
0.00699508
-0.00283318
0.00750727
-0.00421616
0.00828324
-0.0140253
0.00789362
0.0123466
0.00698849
0.0105893
0.00655098
0.00763794
0.00644356
-0.000836602
0.00638426
0.00200892
0.00640129
-0.00115673
0.00648641
0.000614458
0.00670483
-0.00313584
0.00695574
-0.0026014
0.00716309
-0.00406164
0.0072572
-0.0016736
0.00728461
-0.00168096
0.00726661
0.000152603
0.0072475
-0.000386377
0.00722534
0.000516989
0.00721664
-0.000193573
0.0072118
0.000320287
0.00722172
-0.000286978
0.0072398
2.39761e-06
0.00727358
-0.000500998
0.00731836
-0.000400642
0.00738009
-0.000853953
0.00745827
-0.000953582
0.00755536
-0.00136469
0.00766439
-0.00146952
0.00777815
-0.00162047
0.00788886
-0.00153579
0.00799396
-0.00149636
0.00809214
-0.00136239
0.00818469
-0.00128972
0.00827302
-0.00120104
0.00835857
-0.00114029
0.00844323
-0.00111055
0.0085275