/*--------------------------------*- C++ -*----------------------------------*\
| =========                 |                                                 |
| \\      /  F ield         | OpenFOAM: The Open Source CFD Toolbox           |
|  \\    /   O peration     | Version:  2412                                  |
|   \\  /    A nd           | Website:  www.openfoam.com                      |
|    \\/     M anipulation  |                                                 |
\*---------------------------------------------------------------------------*/
FoamFile
{
    version     2.0;
    format      ascii;
    arch        "LSB;label=32;scalar=64";
    class       volScalarField;
    location    "0.5";
    object      epsilon;
}
// * * * * * * * * * * * * * * * * * * * * * * * * * * * * * * * * * * * * * //

dimensions      [0 2 -3 0 0 0 0];

internalField   nonuniform List<scalar> 
13079
(
419.147
506.694
677.509
938.063
1235.73
1480.32
1613.91
1631.43
1561.19
1436.96
1282.67
1115.94
962.293
853.946
801.066
790.048
802.185
825.536
853.514
884.251
916.406
951.075
987.627
1028.21
1071.78
1121.64
1175.66
1239.13
1307.86
1390.58
1479.31
1588.84
1703.67
1850.36
2000.07
2201.89
2401.02
2687.31
2970.24
3438.36
3962.24
4900.62
5997.6
7866.94
9832.41
12730.9
14720.6
17218.1
18707.5
24576.1
31836.4
49479.8
146949
180102
156945
137281
116788
99272.2
81366.9
67658
52902.1
42922.7
33656.3
28177.9
23225.9
20295.8
17413
15349.8
13041.7
11098.7
9212.99
7714.32
6467.86
5518.11
4770.88
4191.84
3719.97
418.415
504.943
674.514
934.341
1232.47
1478.46
1613.54
1631.98
1562.05
1437.72
1283
1115.6
961.506
853.248
800.703
789.948
802.216
825.626
853.642
884.419
916.62
951.343
987.948
1028.59
1072.19
1122.08
1176.1
1239.56
1308.25
1390.89
1479.51
1588.85
1703.47
1849.83
1999.21
2200.47
2399.09
2684.44
2966.72
3433.61
3956.57
4891.58
5982.58
7834.87
9770.52
12603.7
14511.6
16922.1
18402.9
24252.1
31445
48682.7
144332
178137
154174
133507
112755
94744.4
76367
62098.2
47508.7
37862.1
29412.9
24481.4
20160.7
17587.3
15097.2
13302.6
11340.4
9702.48
8134.74
6887.2
5847.77
5047.27
4410.75
3908.28
3491.16
417.7
503.228
671.57
930.659
1229.2
1476.54
1613.07
1632.45
1562.88
1438.5
1283.42
1115.43
960.935
852.775
800.546
790.028
802.408
825.864
853.909
884.72
916.964
951.737
988.392
1029.08
1072.73
1122.65
1176.69
1240.14
1308.81
1391.38
1479.91
1589.1
1703.55
1849.63
1998.75
2199.55
2397.75
2682.32
2964.12
3430.01
3952.29
4884.31
5969.79
7806.04
9713.54
12485.3
14317.5
16649.8
18125.5
23955.9
31082.4
47917.4
141743
176165
151529
129967
108966
90491.3
71709
57003.2
42691.9
33454.3
25796
21372.1
17603.7
15336.7
13178.9
11612.6
9940.91
8555.7
7246.87
6202.24
5329.99
4650.53
4104.47
3665.1
3293.55
417.002
501.551
668.679
927.022
1225.94
1474.57
1612.52
1632.82
1563.64
1439.28
1283.92
1115.39
960.546
852.497
800.568
790.265
802.741
826.233
854.299
885.138
917.42
952.238
988.942
1029.68
1073.37
1123.32
1177.38
1240.84
1309.5
1392.03
1480.49
1589.56
1703.88
1849.73
1998.65
2199.07
2396.95
2680.87
2962.33
3427.45
3949.25
4878.62
5959
7780.17
9661.08
12375.1
14137.1
16399.4
17872.9
23685
30745.7
47181
139179
174180
148995
126635
105399
86493.3
67373.4
52347.3
38407.9
29632.7
22723.3
18762.1
15471.5
13466.1
11588.5
10215.8
8787.12
7610.49
6512.31
5631.96
4895.25
4314.46
3842.71
3455.65
3122.24
416.321
499.909
665.841
923.43
1222.68
1472.55
1611.87
1633.09
1564.33
1440.05
1284.46
1115.46
960.313
852.389
800.748
790.642
803.199
826.717
854.798
885.661
917.975
952.837
989.587
1030.37
1074.1
1124.1
1178.19
1241.66
1310.31
1392.82
1481.24
1590.21
1704.43
1850.11
1998.88
2198.99
2396.62
2680.04
2961.29
3425.84
3947.33
4874.37
5950.06
7757.01
9612.79
12272.4
13969.7
16169.2
17643
23437.1
30432.6
46471.5
136640
172175
146557
123491
102035
82733.4
63342.4
48104.8
34612.5
26332.3
20118.7
16572.9
13692.5
11909.7
10267.9
9058.95
7832.99
6828.27
5901.63
5154.7
4528.36
4028.43
3618.04
3274.55
2973.24
2694.95
2440.4
2205.63
1994.99
1813.31
1662.19
1541.61
1446.96
1374.74
1317.69
1274.12
1236.94
1208.98
1182.25
1166.82
1150.48
1155.67
1159.5
1209.67
1263.18
1427.65
1531.95
415.656
498.302
663.053
919.881
1219.43
1470.47
1611.13
1633.26
1564.94
1440.8
1285.03
1115.62
960.216
852.434
801.069
791.145
803.77
827.305
855.395
886.276
918.62
953.521
990.315
1031.15
1074.92
1124.96
1179.08
1242.58
1311.24
1393.74
1482.13
1591.04
1705.18
1850.73
1999.4
2199.27
2396.74
2679.76
2960.94
3425.1
3946.46
4871.44
5942.79
7736.36
9568.39
12176.8
13814.4
15957.7
17434
23210.1
30141.2
45787.1
134125
170146
144203
120516
98856.9
79196.3
59598.5
44249.7
31261.8
23490.7
17913.7
14736.5
12206.1
10612.1
9168.49
8098.23
7041.12
6178.09
5391.43
4753.27
4217.24
3783.89
3424.45
3117.44
2843.25
2585.17
2346.2
2124.33
1924.86
1752.9
1610.22
1496.9
1408.38
1341.37
1288.6
1248.64
1214.32
1188.79
1163.93
1150.12
1134.95
1141.14
1145.59
1195.8
1249.17
1410.68
1511.81
415.007
496.729
660.314
916.374
1216.17
1468.34
1610.29
1633.32
1565.47
1441.5
1285.63
1115.85
960.24
852.615
801.519
791.761
804.442
827.987
856.08
886.975
919.344
954.283
991.119
1032
1075.82
1125.9
1180.06
1243.58
1312.27
1394.77
1483.15
1592.02
1706.12
1851.58
2000.19
2199.89
2397.26
2680
2961.21
3425.14
3946.52
4869.72
5937.05
7718.02
9527.63
12088
13670.4
15763.8
17244.2
23002.3
29869.6
45126.1
131632
168091
141921
117694
95849.5
75867.8
56125
40755.7
28312.2
21049.4
16047.5
13194.4
10961.3
9527.52
8250.63
7297.7
6381.27
5635.17
4963.08
4413.96
3952.19
3573.96
3257.02
2980.71
2729.57
2488.95
2263.5
2052.93
1863.26
1699.85
1564.56
1457.6
1374.42
1311.96
1262.91
1226.08
1194.24
1170.82
1147.57
1135.17
1121.02
1128.05
1133.01
1183.17
1236.33
1394.89
1492.91
414.373
495.189
657.621
912.904
1212.91
1466.15
1609.34
1633.26
1565.91
1442.16
1286.23
1116.14
960.37
852.918
802.084
792.479
805.206
828.754
856.844
887.75
920.141
955.115
991.992
1032.92
1076.79
1126.91
1181.11
1244.68
1313.39
1395.91
1484.3
1593.15
1707.24
1852.64
2001.22
2200.81
2398.15
2680.7
2962.06
3425.92
3947.45
4869.09
5932.73
7701.82
9490.24
12005.4
13537.1
15586
17072.2
22812.1
29616.1
44487
129161
166005
139702
115009
92999.2
72734.5
52905.6
37596.2
25721.9
18954.9
14467.1
11897
9916.13
8618.15
7481.7
6628.17
5829.07
5179.68
4601.7
4125.82
3725.43
3393.05
3111.75
2861.39
2629.9
2404.38
2190.73
1990.07
1809.05
1653.17
1524.37
1423
1344.5
1286.01
1240.19
1206.09
1176.39
1154.81
1132.95
1121.77
1108.51
1116.24
1121.62
1171.64
1224.51
1380.13
1475.11
413.753
493.68
654.974
909.47
1209.64
1463.89
1608.29
1633.09
1566.26
1442.77
1286.83
1116.49
960.593
853.331
802.752
793.288
806.053
829.597
857.68
888.593
921.003
956.01
992.926
1033.9
1077.82
1127.99
1182.24
1245.85
1314.6
1397.15
1485.55
1594.41
1708.5
1853.88
2002.48
2202.01
2399.37
2681.84
2963.43
3427.36
3949.16
4869.48
5929.7
7687.6
9456.02
11928.8
13413.9
15423.4
16916.5
22637.9
29379.3
43868.6
126713
163888
137537
112448
90293.5
69784.1
49924.3
34745.1
23451.1
17158.7
13127.1
10802.9
9035.69
7853.09
6835.18
6065.98
5364.92
4795.75
4295.4
3880.05
3530.64
3236.61
2985.32
2756.98
2542.34
2329.9
2126.59
1934.66
1761.27
1612.03
1488.96
1392.49
1318.1
1263.08
1220.08
1188.35
1160.52
1140.52
1119.88
1109.75
1097.24
1105.57
1111.28
1161.09
1213.62
1366.3
1458.3
413.148
492.201
652.369
906.069
1206.37
1461.58
1607.14
1632.8
1566.51
1443.32
1287.41
1116.87
960.897
853.842
803.514
794.182
806.975
830.509
858.581
889.497
921.924
956.962
993.916
1034.94
1078.9
1129.13
1183.42
1247.08
1315.88
1398.47
1486.91
1595.79
1709.91
1855.3
2003.95
2203.46
2400.91
2683.37
2965.28
3429.41
3951.6
4870.77
5927.86
7675.21
9424.75
11857.8
13300.1
15274.9
16775.9
22478.4
29157.7
43269.6
124288
161737
135417
109999
87721
67004.8
47165.6
32176.8
21462.8
15618.2
11988.9
9877.65
8291.53
7207.1
6289.5
5592.01
4973.09
4470.67
4034.63
3669.55
3362.69
3100.88
2874.98
2665.42
2465.27
2264.2
2069.97
1885.75
1719.11
1575.75
1457.74
1365.59
1294.8
1242.81
1202.27
1172.6
1146.39
1127.77
1108.17
1098.96
1087.09
1095.92
1101.88
1151.41
1203.55
1353.29
1442.39
412.557
490.751
649.805
902.699
1203.08
1459.19
1605.87
1632.39
1566.65
1443.81
1287.98
1117.28
961.272
854.441
804.36
795.149
807.963
831.483
859.54
890.457
922.898
957.965
994.955
1036.02
1080.03
1130.32
1184.67
1248.38
1317.23
1399.88
1488.36
1597.28
1711.44
1856.87
2005.6
2205.15
2402.72
2685.27
2967.58
3432.01
3954.68
4872.91
5927.08
7664.5
9396.23
11792
13195.2
15139.4
16649.1
22332.2
28950.1
42688.8
121885
159551
133336
107651
85271.4
64385.5
44614.5
29866.3
19723.2
14296
11019.9
9092.83
7660.34
6659.66
5827.18
5190.79
4640.87
4194.22
3811.7
3488.57
3217.4
2982.77
2778.44
2584.96
2397.31
2206.16
2019.93
1842.54
1681.89
1543.73
1430.19
1341.85
1274.23
1224.89
1186.5
1158.62
1133.81
1116.38
1097.68
1089.26
1077.95
1087.17
1093.33
1142.5
1194.2
1341.02
1427.28
411.979
489.329
647.28
899.356
1199.78
1456.74
1604.5
1631.85
1566.69
1444.23
1288.52
1117.72
961.709
855.118
805.282
796.185
809.013
832.514
860.552
891.466
923.919
959.013
996.04
1037.16
1081.22
1131.56
1185.96
1249.74
1318.64
1401.35
1489.89
1598.86
1713.09
1858.58
2007.42
2207.05
2404.79
2687.48
2970.27
3435.11
3958.36
4875.79
5927.29
7655.35
9370.28
11731.2
13098.6
15016
16535
22198.4
28755.3
42125.4
119505
157331
131286
105394
82935
61915.8
42256.3
27790.2
18201.4
13159.9
10192.9
8424.98
7123.08
6194.02
5434.01
4849.81
4358.06
3958.16
3620.38
3332.42
3091.31
2879.71
2693.78
2514.12
2337.29
2154.83
1975.66
1804.33
1649
1515.47
1405.88
1320.9
1256.06
1209.04
1172.52
1146.2
1122.6
1106.21
1088.29
1080.54
1069.69
1079.24
1085.53
1134.3
1185.5
1329.42
1412.89
411.413
487.934
644.793
896.04
1196.47
1454.23
1603.01
1631.2
1566.62
1444.57
1289.03
1118.16
962.199
855.865
806.272
797.281
810.118
833.595
861.611
892.52
924.983
960.103
997.165
1038.33
1082.44
1132.84
1187.3
1251.14
1320.11
1402.89
1491.49
1600.54
1714.84
1860.42
2009.39
2209.13
2407.09
2690
2973.32
3438.67
3962.56
4879.36
5928.39
7647.63
9346.71
11675
13009.7
14903.9
16432.7
22075.6
28572.1
41578.3
117149
155075
129262
103219
80703.1
59585.8
40077.4
25926
16869.9
12182.1
9485.29
7854.84
6664.17
5796.55
5098.43
4558.93
4116.37
3755.82
3455.59
3197.24
2981.58
2789.58
2619.4
2451.64
2284.23
2109.37
1936.47
1770.53
1619.93
1490.51
1384.42
1302.41
1240.02
1195.04
1160.14
1135.17
1112.62
1097.12
1079.86
1072.69
1062.24
1072.03
1078.4
1126.71
1177.38
1318.42
1399.15
410.86
486.565
642.341
892.748
1193.13
1451.64
1601.42
1630.42
1566.44
1444.84
1289.5
1118.61
962.733
856.675
807.322
798.433
811.272
834.721
862.713
893.615
926.085
961.23
998.325
1039.54
1083.69
1134.16
1188.68
1252.59
1321.63
1404.48
1493.16
1602.29
1716.69
1862.38
2011.5
2211.39
2409.6
2692.78
2976.7
3442.65
3967.25
4883.55
5930.3
7641.22
9325.36
11623.1
12928.2
14802.2
16341.2
21963.1
28399.7
41046.7
114817
152784
127259
101117
78567.6
57386.3
38064.2
24253
15704.4
11339.1
8878.13
7366.54
6270.89
5456.11
4811.02
4309.9
3909.07
3581.76
3313.19
3079.88
2885.83
2710.57
2553.92
2396.45
2237.25
2069.1
1901.75
1740.61
1594.24
1468.47
1365.49
1286.11
1225.86
1182.66
1149.18
1125.38
1103.73
1089
1072.31
1065.63
1055.5
1065.47
1071.88
1119.68
1169.78
1307.94
1386
410.319
485.221
639.923
889.478
1189.78
1448.98
1599.71
1629.51
1566.15
1445.02
1289.92
1119.06
963.306
857.539
808.428
799.633
812.47
835.889
863.853
894.745
927.222
962.39
999.518
1040.77
1084.98
1135.51
1190.09
1254.08
1323.19
1406.13
1494.89
1604.11
1718.62
1864.43
2013.73
2213.8
2412.3
2695.81
2980.38
3446.99
3972.37
4888.29
5932.93
7636.01
9306.07
11575.3
12853.5
14710.1
16259.5
21859.8
28237
40529.8
112510
150458
125273
99082.5
76521.1
55308.4
36204.4
22751.9
14683.4
10610.9
8355.74
6947.05
5932.77
5163.59
4564.05
4095.99
3730.68
3431.54
3189.77
2977.73
2802.11
2641.19
2496.19
2347.65
2195.62
2033.38
1870.98
1714.13
1571.52
1449.01
1348.8
1271.73
1213.38
1171.74
1139.47
1116.69
1095.81
1081.74
1065.53
1059.26
1049.39
1059.5
1065.9
1113.15
1162.64
1297.95
1373.39
409.79
483.901
637.538
886.229
1186.41
1446.24
1597.89
1628.48
1565.75
1445.13
1290.3
1119.51
963.91
858.453
809.583
800.878
813.709
837.093
865.028
895.908
928.389
963.579
1000.74
1042.04
1086.3
1136.89
1191.54
1255.61
1324.79
1407.82
1496.67
1606
1720.62
1866.58
2016.07
2216.35
2415.16
2699.05
2984.32
3451.66
3977.88
4893.52
5936.22
7631.91
9288.7
11531.3
12785.2
14627.1
16186.9
21765
28083.3
40026.9
110228
148099
123300
97107.4
74556.7
53343.9
34486
21404.9
13787.9
9980.53
7905.11
6585.62
5641.22
4911.47
4351.21
3911.67
3576.69
3301.52
3082.52
2888.59
2728.74
2580.15
2445.21
2304.44
2158.7
2001.68
1843.69
1690.68
1551.45
1431.84
1334.08
1259.07
1202.37
1162.09
1130.89
1108.98
1088.76
1075.25
1059.45
1053.52
1043.87
1054.04
1060.39
1107.06
1155.91
1288.39
1361.25
409.272
482.605
635.185
882.998
1183.02
1443.44
1595.96
1627.32
1565.24
1445.14
1290.63
1119.94
964.541
859.41
810.782
802.164
814.984
838.331
866.233
897.1
929.583
964.794
1001.99
1043.34
1087.65
1138.3
1193.02
1257.16
1326.43
1409.55
1498.5
1607.94
1722.69
1868.82
2018.51
2219.03
2418.18
2702.49
2988.5
3456.64
3983.73
4899.19
5940.1
7628.82
9273.11
11490.9
12722.8
14552.2
16122.7
21677.8
27937.8
39537.3
107973
145709
121335
95186.1
72668.1
51485
32897.7
20195.8
13001.6
9433.67
7515.36
6273.33
5389.12
4693.59
4167.28
3752.41
3443.41
3188.69
2989.09
2810.65
2664.33
2526.36
2400.15
2266.14
2125.93
1973.55
1819.5
1669.93
1533.71
1416.7
1321.13
1247.93
1192.69
1153.59
1123.3
1102.14
1082.48
1069.45
1053.99
1048.35
1038.85
1049.06
1055.32
1101.37
1149.54
1279.21
1349.55
408.764
481.331
632.861
879.785
1179.61
1440.56
1593.92
1626.04
1564.61
1445.07
1290.9
1120.36
965.193
860.405
812.021
803.485
816.291
839.599
867.466
898.318
930.802
966.033
1003.25
1044.65
1089.01
1139.73
1194.52
1258.75
1328.09
1411.32
1500.37
1609.93
1724.82
1871.12
2021.04
2221.81
2421.32
2706.1
2992.89
3461.88
3989.88
4905.26
5944.51
7626.65
9259.16
11453.9
12666
14485.1
16066
21597.6
27799.7
39060.4
105745
143287
119377
93313.1
70849.4
49724.4
31429.2
19109.9
12310.2
8958.29
7177.46
6002.81
5170.59
4504.82
4007.93
3614.45
3327.75
3090.53
2907.53
2742.38
2607.71
2478.91
2360.27
2232.17
2096.82
1948.56
1798.04
1651.56
1518.04
1403.36
1309.73
1238.13
1184.18
1146.11
1116.61
1096.08
1076.89
1064.26
1049.08
1043.67
1034.29
1044.48
1050.62
1096.03
1143.5
1270.38
1338.25
408.268
480.079
630.566
876.588
1176.17
1437.61
1591.76
1624.64
1563.87
1444.92
1291.12
1120.76
965.862
861.434
813.295
804.839
817.628
840.893
868.724
899.559
932.042
967.292
1004.54
1045.98
1090.4
1141.19
1196.04
1260.35
1329.79
1413.12
1502.27
1611.96
1727
1873.49
2023.64
2224.69
2424.59
2709.86
2997.47
3467.35
3996.3
4911.67
5949.38
7625.32
9246.74
11419.9
12614.4
14425
16016.3
21523.7
27668.4
38595.6
103545
140838
117422
91483.5
69095.3
48055.3
30070.5
18134
11701.4
8544.17
6883.83
5767.92
4980.73
4340.9
3869.57
3494.67
3227.18
3004.98
2836.21
2682.47
2557.85
2437.01
2324.95
2202.02
2070.96
1926.36
1779.01
1635.3
1504.22
1391.61
1299.71
1229.54
1176.7
1139.53
1110.7
1090.71
1071.92
1059.62
1044.67
1039.44
1030.14
1040.28
1046.27
1091
1137.74
1261.85
1327.3
407.781
478.848
628.298
873.405
1172.71
1434.59
1589.5
1623.11
1563.02
1444.67
1291.28
1121.14
966.543
862.492
814.601
806.222
818.992
842.212
870.005
900.821
933.302
968.568
1005.85
1047.34
1091.8
1142.66
1197.58
1261.98
1331.5
1414.94
1504.2
1614.03
1729.22
1875.91
2026.3
2227.65
2427.95
2713.77
3002.21
3473.03
4002.95
4918.38
5954.68
7624.75
9235.73
11388.9
12567.6
14371.4
15973
21455.5
27543.4
38142.5
101374
138362
115470
89692.9
67400.7
46471.2
28812.7
17256.1
11164.4
8182.71
6628.13
5563.53
4815.44
4198.27
3749.21
3390.48
3139.55
2930.26
2773.74
2629.84
2513.91
2399.96
2293.63
2175.24
2047.97
1906.64
1762.13
1620.92
1492.03
1381.29
1290.93
1222.02
1170.16
1133.75
1105.5
1085.97
1067.51
1055.48
1040.7
1035.61
1026.36
1036.41
1042.23
1086.25
1132.24
1253.61
1316.68
407.304
477.638
626.056
870.236
1169.23
1431.5
1587.12
1621.46
1562.06
1444.34
1291.37
1121.5
967.233
863.577
815.935
807.631
820.379
843.553
871.305
902.101
934.578
969.861
1007.17
1048.7
1093.22
1144.14
1199.13
1263.62
1333.24
1416.79
1506.16
1616.13
1731.49
1878.38
2029.03
2230.68
2431.41
2717.79
3007.1
3478.9
4009.81
4925.36
5960.34
7624.87
9226.01
11360.5
12525.3
14323.8
15935.5
21392.5
27424
37700.6
99232.8
135862
113517
87937.3
65761.2
44966.1
27647.1
16465.6
10690.2
7866.6
6405.04
5385.33
4671.28
4073.95
3644.32
3299.68
3063.08
2864.92
2718.94
2583.55
2475.14
2367.17
2265.85
2151.44
2027.53
1889.12
1747.17
1608.21
1481.29
1372.22
1283.25
1215.45
1164.44
1128.7
1100.92
1081.78
1063.58
1051.77
1037.13
1032.13
1022.9
1032.83
1038.45
1081.75
1126.97
1245.61
1306.35
406.837
476.446
623.84
867.079
1165.72
1428.33
1584.64
1619.69
1560.98
1443.92
1291.41
1121.83
967.93
864.683
817.295
809.064
821.788
844.913
872.623
903.397
935.87
971.168
1008.5
1050.08
1094.65
1145.64
1200.7
1265.28
1334.99
1418.65
1508.14
1618.26
1733.78
1880.89
2031.8
2233.78
2434.95
2721.92
3012.11
3484.92
4016.84
4932.57
5966.32
7625.61
9217.49
11334.8
12487.1
14281.8
15903.2
21334.1
27309.8
37269.4
97122.3
133341
111563
86213.1
64172.6
43534.4
26566.1
15752.9
10270.6
7589.66
6210.04
5229.7
4545.36
3965.42
3552.78
3220.44
2996.26
2807.7
2670.83
2542.78
2440.91
2338.15
2241.19
2130.27
2009.34
1873.54
1733.9
1596.98
1471.84
1364.28
1276.54
1209.72
1159.45
1124.28
1096.91
1078.08
1060.09
1048.46
1033.92
1028.98
1019.74
1029.52
1034.92
1077.47
1121.89
1237.84
1296.29
406.379
475.274
621.648
863.933
1162.18
1425.09
1582.05
1617.8
1559.8
1443.4
1291.38
1122.13
968.631
865.81
818.678
810.519
823.216
846.291
873.957
904.708
937.174
972.486
1009.85
1051.47
1096.09
1147.15
1202.28
1266.95
1336.75
1420.53
1510.14
1620.41
1736.1
1883.44
2034.62
2236.94
2438.55
2726.14
3017.23
3491.07
4024.02
4939.97
5972.58
7626.91
9210.07
11311.3
12452.9
14244.8
15875.8
21279.9
27200.4
36848.6
95043.4
130801
109608
84517.1
62630.8
42170.9
25562.4
15109.5
9898.71
7346.61
6039.33
5093.58
4435.22
3870.57
3472.81
3151.21
2937.8
2757.54
2628.54
2506.87
2410.66
2312.43
2219.29
2111.45
1993.16
1859.7
1722.15
1587.07
1463.54
1357.34
1270.69
1204.74
1155.12
1120.43
1093.39
1074.82
1056.99
1045.49
1031.02
1026.11
1016.83
1026.44
1031.6
1073.38
1116.99
1230.27
1286.48
405.931
474.12
619.48
860.797
1158.62
1421.78
1579.35
1615.8
1558.51
1442.8
1291.29
1122.4
969.332
866.953
820.08
811.992
824.661
847.685
875.305
906.031
938.49
973.815
1011.2
1052.87
1097.54
1148.66
1203.87
1268.64
1338.52
1422.43
1512.15
1622.58
1738.44
1886.01
2037.47
2240.14
2442.22
2730.43
3022.45
3497.34
4031.33
4947.53
5979.09
7628.72
9203.67
11290
12422.2
14212.5
15852.7
21229.5
27095.2
36437.7
92996.8
128244
107649
82846.6
61132.5
40870.8
24629.4
14527.8
9568.66
7132.96
5889.67
4974.37
4338.77
3787.58
3402.86
3090.67
2886.61
2713.54
2591.35
2475.2
2383.92
2289.64
2199.83
2094.7
1978.75
1847.4
1711.73
1578.33
1456.26
1351.28
1265.62
1200.43
1151.37
1117.09
1090.32
1071.95
1054.24
1042.84
1028.4
1023.49
1014.16
1023.56
1028.47
1069.46
1112.24
1222.88
1276.89
405.49
472.984
617.333
857.671
1155.03
1418.39
1576.55
1613.67
1557.11
1442.11
1291.13
1122.63
970.033
868.111
821.501
813.483
826.122
849.092
876.666
907.365
939.815
975.153
1012.56
1054.27
1098.99
1150.19
1205.47
1270.32
1340.31
1424.33
1514.18
1624.77
1740.8
1888.61
2040.35
2243.38
2445.93
2734.79
3027.75
3503.71
4038.74
4955.24
5985.8
7630.98
9198.19
11270.8
12394.8
14184.5
15833.7
21182.6
26994
36036.4
90983.4
125675
105687
81198.9
59674.3
39629.5
23761
14001.2
9275.24
6944.88
5758.3
4869.84
4254.24
3714.9
3341.65
3037.69
2841.76
2674.91
2558.63
2447.27
2360.28
2269.43
2182.53
2079.78
1965.93
1836.46
1702.51
1570.63
1449.88
1346.01
1261.22
1196.72
1148.14
1114.19
1087.65
1069.43
1051.81
1040.46
1026.03
1021.1
1011.69
1020.87
1025.5
1065.7
1107.63
1215.66
1267.51
405.059
471.865
615.208
854.553
1151.41
1414.94
1573.65
1611.44
1555.6
1441.33
1290.91
1122.84
970.731
869.282
822.938
814.989
827.597
850.512
878.038
908.71
941.149
976.498
1013.93
1055.68
1100.45
1151.72
1207.07
1272.02
1342.1
1426.24
1516.21
1626.97
1743.18
1891.23
2043.25
2246.65
2449.68
2739.21
3033.11
3510.17
4046.24
4963.06
5992.69
7633.64
9193.56
11253.4
12370.5
14160.3
15818.1
21138.7
26896.3
35644.4
89003.9
123095
103723
79571.9
58253.3
38443
22951.8
13523.5
9013.95
6779.08
5642.85
4778.1
4180.1
3651.22
3288.06
2991.31
2802.45
2640.98
2529.83
2422.63
2339.37
2251.51
2167.16
2066.51
1954.51
1826.74
1694.34
1563.85
1444.31
1341.43
1257.44
1193.53
1145.36
1111.7
1085.32
1067.22
1049.65
1038.33
1023.89
1018.91
1009.4
1018.35
1022.69
1062.07
1103.14
1208.59
1258.32
404.635
470.763
613.104
851.443
1147.77
1411.42
1570.64
1609.09
1553.99
1440.47
1290.63
1123.01
971.426
870.464
824.389
816.509
829.085
851.944
879.419
910.062
942.491
977.849
1015.31
1057.1
1101.92
1153.25
1208.67
1273.72
1343.89
1428.16
1518.26
1629.17
1745.57
1893.86
2046.17
2249.94
2453.46
2743.68
3038.53
3516.68
4053.8
4970.97
5999.73
7636.66
9189.72
11237.8
12349
14139.8
15805.9
21097.5
26802
35261.5
87059
120508
101755
77963.6
56866.8
37307.3
22196.5
13089.6
8780.91
6632.73
5541.29
4697.53
4115.03
3595.41
3241.12
2950.69
2767.99
2611.19
2504.47
2400.89
2320.87
2235.61
2153.48
2054.68
1944.34
1818.1
1687.12
1557.89
1439.45
1337.48
1254.2
1190.81
1143
1109.57
1083.31
1065.28
1047.73
1036.43
1021.94
1016.89
1007.28
1015.96
1020
1058.56
1098.76
1201.65
1249.31
404.22
469.677
611.019
848.34
1144.1
1407.82
1567.54
1606.63
1552.28
1439.51
1290.28
1123.15
972.115
871.655
825.854
818.042
830.584
853.385
880.81
911.422
943.839
979.206
1016.69
1058.52
1103.39
1154.79
1210.28
1275.42
1345.69
1430.08
1520.3
1631.38
1747.96
1896.5
2049.11
2253.26
2457.27
2748.18
3043.99
3523.25
4061.42
4978.95
6006.89
7640
9186.58
11223.7
12330.1
14122.5
15796.5
21058.8
26710.6
34887.3
85149.4
117918
99783.9
76372.4
55512.4
36218.9
21490.5
12694.7
8572.73
6503.38
5451.87
4626.73
4057.92
3546.48
3200.02
2915.12
2737.79
2585.02
2482.15
2381.71
2304.5
2221.5
2141.32
2044.14
1935.27
1810.42
1680.73
1552.66
1435.23
1334.08
1251.44
1188.51
1141
1107.75
1081.58
1063.59
1046.04
1034.71
1020.18
1015.04
1005.3
1013.71
1017.43
1055.16
1094.47
1194.83
1240.45
403.812
468.606
608.954
845.243
1140.4
1404.16
1564.33
1604.06
1550.47
1438.48
1289.87
1123.26
972.797
872.854
827.33
819.585
832.094
854.836
882.208
912.789
945.192
980.567
1018.07
1059.94
1104.86
1156.32
1211.89
1277.12
1347.49
1432
1522.35
1633.6
1750.36
1899.15
2052.05
2256.59
2461.09
2752.71
3049.49
3529.87
4069.07
4986.99
6014.15
7643.62
9184.08
11211.1
12313.7
14108.2
15789.9
21022.3
26621.9
34521.5
83275.6
115326
97810.9
74796.7
54187.8
35174.6
20829.8
12334.7
8386.44
6388.93
5373.09
4564.47
4007.78
3503.59
3164.02
2883.99
2711.32
2562.05
2462.52
2364.79
2290.03
2208.99
2130.49
2034.74
1927.19
1803.6
1675.08
1548.07
1431.56
1331.17
1249.1
1186.58
1139.32
1106.21
1080.1
1062.13
1044.54
1033.18
1018.57
1013.32
1003.44
1011.56
1014.96
1051.84
1090.26
1188.12
1231.75
403.412
467.55
606.907
842.152
1136.68
1400.44
1561.03
1601.38
1548.56
1437.36
1289.4
1123.33
973.473
874.059
828.816
821.14
833.612
856.294
883.613
914.161
946.549
981.931
1019.45
1061.36
1106.33
1157.86
1213.5
1278.82
1349.28
1433.92
1524.4
1635.81
1752.76
1901.81
2055
2259.93
2464.94
2757.26
3055.01
3536.51
4076.75
4995.06
6021.48
7647.48
9182.18
11199.9
12299.4
14096.6
15785.5
20987.8
26535.8
34164.1
81438.2
112736
95836.3
73235.4
52891.1
34171.5
20210.3
12005.8
8219.48
6287.55
5303.64
4509.72
3963.76
3466
3132.53
2856.74
2688.14
2541.88
2445.24
2349.87
2277.22
2197.88
2120.86
2026.36
1919.99
1797.52
1670.08
1544.06
1428.39
1328.69
1247.14
1184.98
1137.92
1104.92
1078.83
1060.85
1043.22
1031.79
1017.1
1011.73
1001.7
1009.52
1012.57
1048.61
1086.12
1181.51
1223.18
403.019
466.509
604.877
839.066
1132.93
1396.64
1557.63
1598.61
1546.55
1436.16
1288.87
1123.37
974.141
875.27
830.311
822.703
835.139
857.76
885.024
915.538
947.909
983.297
1020.84
1062.79
1107.8
1159.4
1215.11
1280.53
1351.08
1435.84
1526.44
1638.03
1755.16
1904.46
2057.95
2263.28
2468.79
2761.83
3060.55
3543.17
4084.45
5003.15
6028.87
7651.55
9180.8
11190
12287.2
14087.4
15783.3
20955.1
26451.9
33814.6
79637.7
110151
93861.1
71687.5
51620.6
33206.8
19628.8
11704.8
8069.59
6197.65
5242.37
4461.56
3925.12
3433.07
3104.98
2832.93
2667.86
2524.2
2430.05
2336.71
2265.9
2188.02
2112.27
2018.88
1913.56
1792.12
1665.67
1540.55
1425.67
1326.6
1245.51
1183.66
1136.78
1103.85
1077.76
1059.75
1042.04
1030.54
1015.75
1010.25
1000.05
1007.56
1010.27
1045.44
1082.04
1175
1214.75
402.634
465.483
602.865
835.985
1129.15
1392.78
1554.14
1595.72
1544.44
1434.88
1288.28
1123.38
974.801
876.486
831.814
824.275
836.674
859.232
886.44
916.919
949.273
984.665
1022.22
1064.21
1109.27
1160.93
1216.72
1282.22
1352.87
1437.76
1528.48
1640.24
1757.56
1907.12
2060.91
2266.63
2472.64
2766.41
3066.11
3549.85
4092.14
5011.25
6036.3
7655.81
9179.92
11181.2
12276.8
14080.5
15783
20923.9
26370.2
33473
77874.5
107575
91886.1
70152.1
50374.7
32278.2
19081.9
11428.7
7934.79
6117.86
5188.3
4419.19
3891.21
3404.24
3080.92
2812.14
2650.13
2508.71
2416.71
2325.13
2255.9
2179.28
2104.63
2012.2
1907.82
1787.32
1661.78
1537.49
1423.33
1324.84
1244.18
1182.61
1135.86
1102.98
1076.86
1058.79
1041.01
1029.42
1014.51
1008.87
998.492
1005.67
1008.03
1042.34
1078.02
1168.57
1206.44
402.255
464.47
600.869
832.908
1125.35
1388.86
1550.56
1592.74
1542.25
1433.52
1287.62
1123.35
975.453
877.705
833.325
825.854
838.215
860.71
887.86
918.303
950.639
986.035
1023.61
1065.64
1110.74
1162.47
1218.32
1283.92
1354.66
1439.67
1530.52
1642.45
1759.96
1909.77
2063.86
2269.97
2476.5
2770.99
3071.66
3556.52
4099.83
5019.35
6043.76
7660.22
9179.46
11173.4
12268.2
14075.7
15784.4
20894.1
26290.3
33139
76148.8
105010
89912.6
68628.6
49152
31383.2
18566.8
11175
7813.37
6046.96
5140.56
4381.92
3861.48
3379.03
3059.92
2794
2634.65
2495.16
2405.01
2314.93
2247.06
2171.52
2097.82
2006.23
1902.69
1783.04
1658.34
1534.82
1421.34
1323.39
1243.11
1181.78
1135.14
1102.28
1076.12
1057.98
1040.09
1028.4
1013.37
1007.57
997.009
1003.85
1005.84
1039.29
1074.04
1162.22
1198.24
401.883
463.47
598.889
829.836
1121.52
1384.87
1546.88
1589.67
1539.96
1432.08
1286.91
1123.29
976.095
878.928
834.843
827.44
839.762
862.192
889.284
919.689
952.006
987.405
1025
1067.06
1112.21
1164
1219.92
1285.61
1356.45
1441.58
1532.56
1644.66
1762.35
1912.42
2066.8
2273.32
2480.35
2775.58
3077.22
3563.2
4107.51
5027.44
6051.23
7664.77
9179.41
11166.6
12261.1
14072.6
15787.4
20865.6
26212.3
32812.4
74461
102460
87941.7
67116.5
47951.4
30520
18081.1
10941.5
7703.8
5983.9
5098.41
4349.15
3835.43
3357.01
3041.63
2778.22
2621.17
2483.31
2394.75
2305.97
2239.26
2164.63
2091.75
2000.89
1898.1
1779.23
1655.31
1532.51
1419.65
1322.19
1242.27
1181.15
1134.59
1101.73
1075.5
1057.28
1039.29
1027.47
1012.31
1006.34
995.591
1002.09
1003.71
1036.28
1070.11
1155.94
1190.16
401.517
462.483
596.924
826.766
1117.66
1380.83
1543.12
1586.49
1537.59
1430.57
1286.15
1123.2
976.729
880.154
836.366
829.032
841.314
863.679
890.712
921.078
953.374
988.775
1026.38
1068.48
1113.67
1165.53
1221.52
1287.3
1358.23
1443.48
1534.58
1646.85
1764.73
1915.06
2069.74
2276.66
2484.2
2780.16
3082.77
3569.86
4115.16
5035.51
6058.69
7669.43
9179.71
11160.7
12255.4
14071.2
15791.6
20838.2
26135.9
32493
72811.2
99926.4
85974.8
65615.6
46771.9
29686.7
17622.2
10726
7604.75
5927.76
5061.17
4320.33
3812.62
3337.81
3025.74
2764.51
2609.44
2472.98
2385.78
2298.09
2232.37
2158.52
2086.33
1996.11
1893.99
1775.83
1652.63
1530.5
1418.23
1321.23
1241.63
1180.69
1134.2
1101.32
1075.01
1056.69
1038.57
1026.63
1011.33
1005.18
994.232
1000.38
1001.62
1033.32
1066.21
1149.73
1182.17
401.158
461.509
594.975
823.701
1113.78
1376.72
1539.28
1583.23
1535.13
1428.99
1285.32
1123.08
977.354
881.381
837.895
830.629
842.872
865.17
892.142
922.469
954.743
990.144
1027.77
1069.9
1115.13
1167.05
1223.11
1288.98
1360
1445.38
1536.6
1649.04
1767.1
1917.7
2072.67
2279.99
2488.04
2784.74
3088.31
3576.51
4122.8
5043.54
6066.15
7674.19
9180.33
11155.7
12251
14071.3
15797.1
20811.8
26061
32180.7
71199.6
97413.2
84013.3
64125.7
45612.7
28881.7
17188.2
10526.7
7515.04
5877.73
5028.27
4295.01
3792.68
3321.09
3011.95
2752.63
2599.27
2463.99
2377.94
2291.18
2226.3
2153.09
2081.49
1991.83
1890.31
1772.79
1650.27
1528.77
1417.04
1320.48
1241.17
1180.4
1133.94
1101.03
1074.63
1056.19
1037.94
1025.86
1010.41
1004.07
992.923
998.71
999.566
1030.39
1062.34
1143.58
1174.29
400.805
460.547
593.039
820.638
1109.87
1372.55
1535.35
1579.87
1532.58
1427.34
1284.45
1122.93
977.97
882.611
839.428
832.232
844.433
866.665
893.575
923.86
956.112
991.513
1029.15
1071.31
1116.59
1168.57
1224.7
1290.66
1361.77
1447.27
1538.62
1651.23
1769.47
1920.32
2075.59
2283.31
2491.87
2789.3
3093.84
3583.14
4130.39
5051.55
6073.59
7679.02
9181.23
11151.3
12247.8
14072.7
15803.6
20786.3
25987.5
31875.4
69626.2
94922.9
82058.6
62646.7
44473
28103.5
16777.2
10342.1
7433.64
5833.1
4999.19
4272.78
3775.28
3306.56
3000.03
2742.37
2590.48
2456.18
2371.1
2285.13
2220.95
2148.28
2077.17
1987.98
1887
1770.08
1648.18
1527.27
1416.06
1319.9
1240.86
1180.23
1133.8
1100.84
1074.33
1055.77
1037.38
1025.16
1009.55
1003.02
991.657
997.078
997.545
1027.49
1058.5
1137.5
1166.5
400.458
459.598
591.118
817.578
1105.94
1368.33
1531.34
1576.43
1529.96
1425.61
1283.52
1122.75
978.578
883.842
840.966
833.839
845.999
868.162
895.009
925.253
957.481
992.88
1030.53
1072.73
1118.05
1170.09
1226.28
1292.33
1363.53
1449.15
1540.62
1653.4
1771.83
1922.94
2078.5
2286.62
2495.69
2793.85
3099.35
3589.75
4137.96
5059.51
6081
7683.91
9182.4
11147.6
12245.7
14075.3
15811.1
20761.6
25915.3
31576.7
68091.1
92458
80112.3
61178.8
43352.3
27350.8
16387.3
10170.7
7359.64
5793.25
4973.5
4253.27
3760.1
3293.98
2989.76
2733.55
2582.91
2449.43
2365.16
2279.84
2216.24
2144.01
2073.3
1984.52
1884.02
1767.65
1646.34
1525.99
1415.27
1319.48
1240.69
1180.19
1133.77
1100.74
1074.12
1055.43
1036.89
1024.51
1008.74
1002.01
990.429
995.477
995.55
1024.61
1054.69
1131.47
1158.8
400.117
458.659
589.21
814.52
1101.98
1364.04
1527.25
1572.9
1527.26
1423.82
1282.54
1122.54
979.177
885.074
842.508
835.45
847.568
869.662
896.445
926.646
958.849
994.246
1031.91
1074.14
1119.5
1171.6
1227.85
1293.99
1365.29
1451.02
1542.62
1655.56
1774.17
1925.54