/*--------------------------------*- C++ -*----------------------------------*\
| =========                 |                                                 |
| \\      /  F ield         | OpenFOAM: The Open Source CFD Toolbox           |
|  \\    /   O peration     | Version:  2412                                  |
|   \\  /    A nd           | Website:  www.openfoam.com                      |
|    \\/     M anipulation  |                                                 |
\*---------------------------------------------------------------------------*/
FoamFile
{
    version     2.0;
    format      ascii;
    arch        "LSB;label=32;scalar=64";
    class       volScalarField;
    location    "0.5";
    object      k;
}
// * * * * * * * * * * * * * * * * * * * * * * * * * * * * * * * * * * * * * //

dimensions      [0 2 -2 0 0 0 0];

internalField   nonuniform List<scalar> 
13079
(
40.2484
45.5231
53.9987
64.2649
73.1445
77.7779
77.6294
73.9686
68.6331
63.1899
58.6815
55.6331
54.0746
53.7517
54.2411
55.1552
56.2228
57.3457
58.4709
59.6249
60.7911
62.0271
63.3035
64.7008
66.1637
67.8098
69.5376
71.5294
73.6034
76.0485
78.5487
81.5731
84.5684
88.3333
91.9292
96.7059
101.04
107.211
112.843
122.045
131.371
146.851
162.434
185.615
204.978
228.69
239.722
258.564
274.574
329.276
385.012
491.293
876.335
945.482
755.444
598.617
488.156
401.493
330.795
272.97
226.097
192.676
168.598
151.298
138.052
127.667
119.604
113.138
108.001
103.741
100.574
98.0096
96.2059
94.5274
92.944
90.8931
88.4131
40.2061
45.4345
53.8731
64.1405
73.0641
77.7579
77.6581
74.0245
68.7022
63.2675
58.7632
55.7087
54.1382
53.8088
54.2972
55.2107
56.2767
57.398
58.5222
59.6762
60.843
62.0802
63.3584
64.7578
66.2232
67.8725
69.6036
71.5995
73.6779
76.1283
78.6341
81.6653
84.6682
88.4424
92.049
96.8389
101.188
107.38
113.039
122.282
131.657
147.202
162.832
186.064
205.399
229.049
239.884
258.707
274.802
329.594
384.964
489.218
869.224
941.138
751.641
594.273
483.617
396.224
324.82
266.41
220.127
187.559
164.775
148.229
135.71
125.676
117.983
111.74
106.923
102.931
100.044
97.6602
95.9849
94.3606
92.7952
90.7287
88.2248
40.1647
45.3475
53.7495
64.0173
72.9835
77.7363
77.6847
74.0788
68.7708
63.3458
58.8465
55.786
54.2034
53.8674
54.3545
55.2671
56.3312
57.4508
58.574
59.7279
60.8952
62.1337
63.4134
64.8151
66.283
67.9353
69.6698
71.6697
73.7524
76.2081
78.7196
81.7574
84.7679
88.5514
92.1688
96.9718
101.336
107.549
113.235
122.519
131.941
147.549
163.222
186.499
205.805
229.393
240.043
258.857
275.039
329.898
384.895
487.108
862
936.517
747.746
589.957
479.139
391.076
319.072
260.222
214.674
183.023
161.483
145.619
133.737
123.994
116.618
110.565
106.031
102.27
99.6176
97.3784
95.806
94.2217
92.6671
90.5837
88.0573
40.1242
45.2623
53.628
63.8956
72.9028
77.7131
77.7089
74.1309
68.8383
63.4243
58.9307
55.8645
54.2701
53.9273
54.4128
55.324
56.3861
57.504
58.626
59.7797
60.9476
62.1872
63.4685
64.8724
66.3427
67.9981
69.7358
71.7397
73.8267
76.2876
78.8047
81.8492
84.8672
88.66
92.2881
97.1041
101.484
107.717
113.431
122.755
132.223
147.891
163.605
186.921
206.195
229.721
240.199
259.012
275.284
330.187
384.804
484.965
854.667
931.618
743.746
585.656
474.714
386.045
313.551
254.407
209.717
179.024
158.659
143.403
132.074
122.571
115.467
109.577
105.293
101.728
99.273
97.1505
95.6606
94.1053
92.5563
90.4553
87.908
40.0847
45.1788
53.5085
63.7752
72.822
77.6884
77.7308
74.1808
68.9045
63.5026
59.0155
55.9441
54.3379
53.9883
54.4718
55.3815
56.4413
57.5573
58.6782
59.8317
60.9999
62.2407
63.5235
64.9295
66.4022
68.0606
69.8016
71.8094
73.9007
76.3667
78.8893
81.9405
84.9659
88.7679
92.4067
97.2357
101.631
107.885
113.626
122.99
132.502
148.226
163.978
187.329
206.57
230.032
240.35
259.172
275.533
330.46
384.691
482.791
847.232
926.439
739.635
581.358
470.337
381.13
308.257
248.961
205.236
175.517
156.245
141.525
130.672
121.364
114.494
108.747
104.683
101.285
98.9945
96.9658
95.5421
94.0075
92.4602
90.3416
87.7748
84.5876
81.1638
77.6546
74.3677
71.4985
69.1582
67.3961
66.0975
65.2297
64.5736
64.1691
63.7682
63.5757
63.274
63.3373
63.2541
63.954
64.4887
66.6517
68.7176
74.0311
76.3819
40.0461
45.0969
53.3909
63.6562
72.741
77.6619
77.7501
74.2283
68.9692
63.5806
59.1007
56.0244
54.4067
54.0503
54.5315
55.4394
56.4968
57.6108
58.7305
59.8837
61.0523
62.2942
63.5785
64.9865
66.4615
68.1229
69.867
71.8788
73.9743
76.4453
78.9733
82.031
85.0639
88.8749
92.5243
97.3662
101.777
108.051
113.82
123.222
132.779
148.556
164.342
187.724
206.93
230.329
240.498
259.336
275.787
330.717
384.557
480.588
839.704
920.982
735.405
577.056
466.002
376.33
303.191
243.879
201.203
172.453
154.186
139.931
129.487
120.34
113.673
108.05
104.179
100.922
98.7693
96.816
95.4455
93.925
92.3766
90.2406
87.6562
84.4581
81.0321
77.5338
74.2673
71.4233
69.1074
67.3671
66.0845
65.2286
64.5784
64.1772
63.7743
63.5801
63.2726
63.3329
63.243
63.9391
64.4661
66.616
68.6723
73.924
76.2231
40.0083
45.0167
53.2753
63.5384
72.6597
77.6337
77.7668
74.2734
69.0323
63.6579
59.1862
56.1053
54.4764
54.1132
54.5919
55.4976
56.5525
57.6644
58.7828
59.9357
61.1047
62.3476
63.6333
65.0434
66.5206
68.1848
69.9321
71.9477
74.0473
76.5233
79.0567
82.1209
85.161
88.9811
92.641
97.4957
101.921
108.217
114.012
123.453
133.051
148.879
164.698
188.105
207.275
230.611
240.643
259.504
276.044
330.957
384.401
478.358
832.089
915.249
731.05
572.743
461.708
371.646
298.351
239.154
197.587
169.785
152.431
138.579
128.484
119.469
112.977
107.462
103.762
100.624
98.5874
96.6946
95.3668
93.8554
92.3039
90.1511
87.5505
84.3441
80.9175
77.4302
74.1828
71.3619
69.0677
67.3465
66.0777
65.232
64.5863
64.1872
63.7818
63.5853
63.2719
63.3289
63.2322
63.9239
64.4428
66.5782
68.6237
73.8115
76.0582
39.9714
44.938
53.1615
63.4217
72.5781
77.6036
77.7808
74.3158
69.0936
63.7346
59.2716
56.1867
54.5469
54.1769
54.6529
55.5563
56.6085
57.7182
58.8353
59.9877
61.157
62.4008
63.6879
65.1
66.5795
68.2465
69.9969
72.0162
74.1199
76.6008
79.1394
82.21
85.2573
89.0864
92.7567
97.6239
102.065
108.381
114.203
123.681
133.321
149.197
165.044
188.473
207.605
230.879
240.785
259.676
276.305
331.18
384.224
476.106
824.397
909.245
726.565
568.414
457.45
367.077
293.736
234.774
194.358
167.467
150.936
137.429
127.634
118.725
112.388
106.968
103.417
100.38
98.4407
96.5964
95.3029
93.7967
92.2404
90.0717
87.4566
84.2436
80.8178
77.3415
74.1121
71.3122
69.0375
67.3331
66.0762
65.2389
64.5965
64.1987
63.7902
63.591
63.2716
63.3249
63.2214
63.9081
64.4186
66.5382
68.5715
73.6934
75.8873
39.9353
44.8608
53.0495
63.3062
72.496
77.5715
77.7921
74.3557
69.153
63.8104
59.3569
56.2685
54.6181
54.2413
54.7144
55.6152
56.6646
57.7721
58.8877
60.0398
61.2092
62.454
63.7424
65.1564
66.638
68.3079
70.0612
72.0843
74.1919
76.6776
79.2214
82.2984
85.3528
89.1906
92.8712
97.751
102.207
108.543
114.392
123.907
133.586
149.507
165.381
188.827
207.922
231.134
240.925
259.851
276.568
331.387
384.027
473.832
816.636
902.974
721.948
564.062
453.227
362.621
289.34
230.727
191.483
165.456
149.661
136.449
126.91
118.089
111.888
106.551
103.132
100.18
98.3228
96.5172
95.2513
93.7472
92.1852
90.0013
87.3733
84.1552
80.7313
77.2662
74.0536
71.2728
69.0155
67.3259
66.0792
65.2489
64.6086
64.2113
63.7993
63.5969
63.2714
63.3209
63.2104
63.8915
64.3932
66.4957
68.5157
73.5699
75.7103
39.9
44.785
52.9391
63.1915
72.4134
77.5376
77.8006
74.3928
69.2106
63.8852
59.442
56.3504
54.6899
54.3064
54.7764
55.6744
56.7209
57.826
58.9402
60.0918
61.2614
62.507
63.7967
65.2126
66.6963
68.3689
70.1252
72.1519
74.2634
76.7539
79.3027
82.3859
85.4473
89.2939
92.9846
97.8767
102.348
108.704
114.58
124.13
133.848
149.812
165.71
189.169
208.224
231.376
241.063
260.03
276.832
331.577
383.81
471.542
808.815
896.44
717.195
559.684
449.036
358.278
285.16
226.995
188.927
163.712
148.574
135.612
126.294
117.545
111.463
106.2
102.897
100.017
98.2284
96.4537
95.2097
93.7056
92.1371
89.9391
87.2995
84.0778
80.6568
77.2026
74.0058
71.2425
69.0007
67.3242
66.086
65.2614
64.6224
64.2247
63.8087
63.603
63.2712
63.3165
63.1991
63.8739
64.3666
66.4507
68.4562
73.441
75.5274
39.8655
44.7106
52.8303
63.0778
72.3302
77.5015
77.8064
74.4273
69.2662
63.959
59.5268
56.4326
54.7622
54.3722
54.8388
55.7339
56.7773
57.8801
58.9928
60.1437
61.3135
62.5599
63.8508
65.2685
66.7543
68.4296
70.1888
72.2191
74.3344
76.8295
79.3833
82.4726
85.5408
89.3961
93.0968
98.0011
102.487
108.864
114.766
124.351
134.106
150.11
166.029
189.499
208.514
231.607
241.199
260.212
277.098
331.751
383.575
469.236
800.942
889.651
712.304
555.276
444.875
354.046
281.19
223.563
186.66
162.2
147.644
134.896
125.767
117.077
111.103
105.904
102.703
99.8834
98.1535
96.4033
95.1767
93.6706
92.0952
89.884
87.2342
84.01
80.5928
77.1494
73.9676
71.2202
68.9923
67.3272
66.0963
65.2762
64.6374
64.2387
63.8184
63.609
63.2709
63.3118
63.1873
63.8554
64.3387
66.4032
68.3929
73.3069
75.3389
39.8316
44.6376
52.7231
62.9649
72.2463
77.4635
77.8093
74.459
69.3198
64.0317
59.6111
56.5148
54.8351
54.4385
54.9017
55.7937
56.8339
57.9342
59.0453
60.1957
61.3654
62.6127
63.9047
65.3242
66.812
68.4899
70.252
72.2858
74.4048
76.9045
79.4632
82.5584
85.6334
89.4972
93.2078
98.1242
102.625
109.022
114.95
124.568
134.36
150.401
166.34
189.816
208.791
231.826
241.334
260.397
277.365
331.909
383.321
466.919
793.026
882.614
707.274
550.834
440.742
349.922
277.423
220.412
184.651
160.888
146.849
134.282
125.317
116.676
110.797
105.655
102.545
99.7752
98.0947
96.3637
95.1508
93.6413
92.0587
89.8353
87.1767
83.9511
80.5383
77.1057
73.9377
71.2049
68.9895
67.3344
66.1095
65.2927
64.6536
64.2532
63.8283
63.6149
63.2704
63.3067
63.175
63.8359
64.3093
66.3532
68.326
73.1677
75.1449
39.7985
44.5658
52.6172
62.8526
72.1618
77.4233
77.8094
74.488
69.3714
64.1033
59.6949
56.597
54.9083
54.5054
54.965
55.8537
56.8906
57.9884
59.0978
60.2476
61.4173
62.6653
63.9584
65.3797
66.8695
68.5499
70.3147
72.352
74.4746
76.9788
79.5423
82.6434
85.7251
89.5972
93.3175
98.2458
102.762
109.178
115.132
124.784
134.61
150.686
166.642
190.121
209.055
232.035
241.469
260.584
277.633
332.051
383.05
464.592
785.074
875.336
702.103
546.356
436.636
345.904
273.852
217.523
182.871
159.749
146.167
133.754
124.931
116.33
110.537
105.446
102.415
99.6881
98.0494
96.3332
95.1308
93.617
92.0271
89.7924
87.1261
83.9
80.4923
77.0702
73.9154
71.196
68.9917
67.3452
66.1252
65.3109
64.6706
64.2681
63.8382
63.6205
63.2697
63.3011
63.1621
63.8152
64.2785
66.3006
68.2554
73.0237
74.9457
39.7661
44.4953
52.5128
62.7411
72.0764
77.381
77.8066
74.5142
69.4209
64.1735
59.7781
56.6791
54.9819
54.5728
55.0286
55.9138
56.9474
58.0426
59.1504
60.2994
61.4691
62.7178
64.012
65.4349
66.9266
68.6095
70.377
72.4177
74.5438
77.0525
79.6206
82.7276
85.8157
89.6961
93.426
98.366
102.896
109.332
115.312
124.996
134.855
150.965
166.935
190.415
209.308
232.234
241.602
260.774
277.9
332.177
382.763
462.257
777.097
867.826
696.792
541.84
432.555
341.989
270.468
214.877
181.295
158.759
145.582
133.299
124.599
116.033
110.317
105.271
102.31
99.6186
98.0151
96.3103
95.1159
93.5969
91.9996
89.7546
87.0817
83.856
80.4538
77.0421
73.8997
71.1926
68.9982
67.3593
66.1431
65.3304
64.6883
64.2831
63.8481
63.6259
63.2686
63.2949
63.1486
63.7933
64.2461
66.2455
68.1811
72.8749
74.7416
39.7344
44.426
52.4097
62.6301
71.9903
77.3365
77.801
74.5377
69.4683
64.2425
59.8606
56.7611
55.0558
54.6406
55.0926
55.9742
57.0043
58.0968
59.2029
60.3512
61.5208
62.7701
64.0653
65.4898
66.9833
68.6688
70.4389
72.4828
74.6125
77.1255
79.6981
82.8108
85.9053
89.7938
93.5331
98.4847
103.03
109.484
115.49
125.205
135.097
151.237
167.22
190.698
209.549
232.423
241.735
260.965
278.166
332.288
382.459
459.918
769.1
860.092
691.34
537.284
428.497
338.175
267.263
212.456
179.899
157.898
145.078
132.907
124.315
115.778
110.131
105.125
102.226
99.5639
97.9902
96.2939
95.1051
93.5804
91.9758
89.7214
87.0429
83.8183
80.4222
77.0206
73.8899
71.1941
69.0086
67.3762
66.163
65.3511
64.7066
64.2983
63.8579
63.631
63.2672
63.2881
63.1344
63.7703
64.2123
66.1879
68.1033
72.7216
74.5327
39.7033
44.3579
52.3078
62.5197
71.9033
77.2899
77.7924
74.5584
69.5136
64.3102
59.9424
56.8429
55.13
54.7088
55.1569
56.0348
57.0613
58.1511
59.2554
60.4029
61.5724
62.8222
64.1184
65.5445
67.0398
68.7277
70.5003
72.5475
74.6806
77.1978
79.7748
82.8932
85.9939
89.8904
93.639
98.602
103.161
109.635
115.665
125.411
135.334
151.502
167.496
190.969
209.78
232.603
241.867
261.158
278.431
332.384
382.14
457.577
761.094
852.144
685.75
532.686
424.461
334.459
264.228
210.241
178.662
157.147
144.644
132.568
124.071
115.558
109.975
105.004
102.159
99.5218
97.9732
96.2828
95.098
93.5669
91.9552
89.6921
87.009
83.7863
80.3964
77.0048
73.8852
71.1998
69.0223
67.3955
66.1844
65.3726
64.7253
64.3135
63.8675
63.6357
63.2653
63.2807
63.1194
63.746
64.1768
66.1279
68.022
72.5639
74.3192
39.6729
44.2908
52.2071
62.4097
71.8154
77.2411
77.7811
74.5764
69.5567
64.3765
60.0235
56.9245
55.2045
54.7774
55.2214
56.0955
57.1183
58.2055
59.3079
60.4545
61.6238
62.8742
64.1712
65.5989
67.096
68.7862
70.5613
72.6117
74.748
77.2694
79.8508
82.9746
86.0815
89.9859
93.7435
98.7178
103.291
109.784
115.839
125.614
135.567
151.762
167.765
191.23
210
232.775
241.999
261.353
278.695
332.465
381.806
455.235
753.086
843.992
680.022
528.045
420.446
330.837
261.355
208.215
177.565
156.491
144.27
132.275
123.862
115.371
109.844
104.904
102.107
99.4904
97.9627
96.2763
95.0938
93.5562
91.9374
89.6664
86.9795
83.7592
80.376
76.9942
73.8851
71.2094
69.039
67.4169
66.2073
65.3949
64.7442
64.3285
63.8768
63.6399
63.263
63.2726
63.1037
63.7205
64.1398
66.0654
67.9372
72.4021
74.1016
39.643
44.2249
52.1076
62.3001
71.7265
77.19
77.7669
74.5916
69.5978
64.4414
60.1038
57.0058
55.2791
54.8464
55.2862
56.1563
57.1755
58.2598
59.3604
60.5061
61.6751
62.926
64.2239
65.653
67.1518
68.8443
70.6218
72.6754
74.8149
77.3404
79.9259
83.0552
86.1681
90.0802
93.8468
98.832
103.419
109.93
116.01
125.815
135.796
152.015
168.025
191.481
210.21
232.939
242.131
261.549
278.957
332.531
381.459
452.895
745.083
835.646
674.16
523.361
416.45
327.305
258.635
206.361
176.59
155.917
143.946
132.021
123.683
115.21
109.736
104.823
102.068
99.468
97.9578
96.2736
95.0921
93.5476
91.9219
89.6438
86.9539
83.7365
80.3602
76.988
73.8889
71.2222
69.0583
67.4402
66.2313
65.4177
64.7634
64.3435
63.8858
63.6437
63.2601
63.2637
63.0871
63.6938
64.1013
66.0005
67.8491
72.2364
73.8799
39.6138
44.16
52.0092
62.1909
71.6366
77.1368
77.7498
74.6041
69.6367
64.505
60.1832
57.0868
55.3539
54.9157
55.3513
56.2173
57.2327
58.3141
59.4128
60.5575
61.7263
62.9776
64.2763
65.7068
67.2072
68.902
70.6819
72.7385
74.8812
77.4106
80.0003
83.1349
86.2536
90.1733
93.9487
98.9448
103.546
110.075
116.179
126.012
136.02
152.262
168.278
191.722
210.41
233.095
242.262
261.746
279.217
332.583
381.098
450.56
737.094
827.117
668.165
518.633
412.473
323.861
256.057
204.664
175.723
155.415
143.667
131.802
123.53
115.074
109.647
104.758
102.04
99.4532
97.9575
96.2741
95.0925
93.5409
91.9085
89.6238
86.9316
83.7176
80.3485
76.9857
73.8962
71.2379
69.0797
67.465
66.2563
65.441
64.7826
64.3582
63.8945
63.647
63.2567
63.2541
63.0697
63.6657
64.0611
65.9332
67.7578
72.0669
73.6545
39.5851
44.096
51.9118
62.082
71.5458
77.0813
77.73
74.6139
69.6735
64.5671
60.2618
57.1674
55.4288
54.9853
55.4166
56.2784
57.2899
58.3685
59.4651
60.6089
61.7773
63.029
64.3285
65.7604
67.2624
68.9593
70.7416
72.8011
74.9468
77.4802
80.0739
83.2136
86.3381
90.2653
94.0493
99.0561
103.67
110.218
116.346
126.206
136.24
152.503
168.522
191.954
210.601
233.243
242.393
261.943
279.475
332.621
380.725
448.23
729.125
818.417
662.041
513.86
408.512
320.501
253.615
203.109
174.952
154.974
143.425
131.613
123.401
114.958
109.575
104.707
102.022
99.4451
97.9611
96.2773
95.0946
93.5358
91.8968
89.6063
86.9124
83.7022
80.3403
76.9868
73.9066
71.2561
69.1032
67.4912
66.2821
65.4647
64.8018
64.3727
63.9028
63.6498
63.2528
63.2438
63.0514
63.6364
64.0194
65.8637
67.6633
71.8938
73.4257
39.557
44.0331
51.8153
61.9734
71.4539
77.0236
77.7073
74.621
69.7083
64.6278
60.3394
57.2477
55.5039
55.0552
55.4821
56.3396
57.3472
58.4228
59.5174
60.6602
61.8282
63.0802
64.3804
65.8137
67.3172
69.0163
70.8008
72.8632
75.0119
77.5491
80.1467
83.2915
86.4216
90.3562
94.1485
99.1659
103.794
110.359
116.51
126.397
136.457
152.738
168.76
192.176
210.783
233.385
242.524
262.141
279.729
332.646
380.34
445.907
721.184
809.556
655.791
509.044
404.567
317.221
251.299
201.683
174.263
154.587
143.216
131.45
123.291
114.862
109.517
104.668
102.011
99.4425
97.968
96.2827
95.0981
93.532
91.8866
89.5907
86.8957
83.6896
80.3352
76.9909
73.9195
71.2764
69.1282
67.5185
66.3085
65.4885
64.8209
64.3868
63.9107
63.652
63.2482
63.2327
63.0323
63.6059
63.9762
65.792
67.5658
71.7174
73.1936
39.5294
43.9711
51.7199
61.8649
71.3609
76.9637
77.6819
74.6255
69.741
64.6871
60.4162
57.3276
55.579
55.1253
55.5478
56.4009
57.4046
58.4771
59.5697
60.7114
61.8789
63.1312
64.4321
65.8667
67.3717
69.0728
70.8595
72.9248
75.0764
77.6173
80.2187
83.3685
86.5041
90.4459
94.2465
99.2743
103.915
110.499
116.672
126.585
136.669
152.968
168.99
192.389
210.956
233.521
242.655
262.339
279.981
332.658
379.944
443.594
713.278
800.545
649.42
504.184
400.638
314.018
249.101
200.374
173.648
154.247
143.035
131.31
123.199
114.781
109.472
104.64
102.007
99.4448
97.9776
96.2901
95.1028
93.5292
91.8776
89.5768
86.8812
83.6796
80.3327
76.9975
73.9347
71.2986
69.1546
67.5467
66.3355
65.5125
64.8399
64.4007
63.9182
63.6537
63.2431
63.2208
63.0123
63.5741
63.9314
65.7182
67.4654
71.5379
72.9585
39.5023
43.91
51.6253
61.7566
71.2669
76.9016
77.6537
74.6273
69.7716
64.7449
60.4921
57.4071
55.6542
55.1956
55.6137
56.4623
57.4619
58.5315
59.6219
60.7624
61.9295
63.182
64.4836
65.9194
67.4258
69.129
70.9178
72.9859
75.1402
77.6848
80.2899
83.4447
86.5856
90.5345
94.3432
99.3812
104.035
110.636
116.832
126.77
136.877
153.191
169.213
192.594
211.122
233.65
242.785
262.536
280.229
332.657
379.538
441.293
705.414
791.398
642.932
499.281
396.723
310.889
247.014
199.169
173.097
153.947
142.879
131.189
123.123
114.716
109.439
104.62
102.01
99.4511
97.9896
96.2989
95.1083
93.5272
91.8696
89.5644
86.8685
83.6717
80.3325
77.0062
73.9517
71.3223
69.1823
67.5757
66.3628
65.5365
64.8588
64.4141
63.9251
63.6548
63.2374
63.2082
62.9914
63.5411
63.8851
65.6422
67.3621
71.3555
72.7207
39.4758
43.8497
51.5315
61.6485
71.1717
76.8373
77.6228
74.6266
69.8003
64.8014
60.567
57.4862
55.7294
55.2661
55.6797
56.5238
57.5193
58.5858
59.6741
60.8134
61.9799
63.2327
64.5348
65.9718
67.4796
69.1848
70.9756
73.0464
75.2035
77.7516
80.3604
83.5199
86.6661
90.622
94.4386
99.4866
104.153
110.772
116.99
126.952
137.081
153.409
169.43
192.791
211.28
233.774
242.915
262.733
280.474
332.644
379.122
439.003
697.597
782.125
636.331
494.336
392.822
307.83
245.029
198.059
172.602
153.682
142.744
131.086
123.06
114.663
109.416
104.609
102.017
99.4608
98.0034
96.309
95.1144
93.5259
91.8624
89.5532
86.8575
83.6656
80.3342
77.0167
73.9703
71.3473
69.2108
67.6052
66.3905
65.5605
64.8773
64.4271
63.9317
63.6553
63.231
63.1947
62.9696
63.5068
63.8373
65.5643
67.2562
71.1703
72.4804
39.4497
43.7903
51.4386
61.5405
71.0755
76.7708
77.5892
74.6234
69.8269
64.8564
60.641
57.5648
55.8046
55.3369
55.7459
56.5854
57.5768
58.64
59.7261
60.8642
62.0302
63.2831
64.5858
66.0239
67.5331
69.2402
71.033
73.1064
75.2662
77.8178
80.4301
83.5943
86.7457
90.7083
94.5328
99.5906
104.27
110.905
117.145
127.131
137.281
153.622
169.639
192.979
211.43
233.892
243.045
262.93
280.715
332.62
378.696
436.728
689.835
772.738
629.622
489.35
388.934
304.839
243.139
197.035
172.157
153.448
142.628
130.998
123.009
114.621
109.401
104.605
102.029
99.4736
98.0188
96.3201
95.1211
93.5251
91.8558
89.5429
86.8478
83.661
80.3374
77.0287
73.9903
71.3734
69.2402
67.6353
66.4183
65.5844
64.8957
64.4398
63.9377
63.6553
63.2241
63.1805
62.9469
63.4714
63.7881
65.4844
67.1476
70.9826
72.2379
39.4241
43.7317
51.3465
61.4325
70.9781
76.7021
77.5529
74.6176
69.8516
64.9101
60.7141
57.643
55.8799
55.4078
55.8122
56.6471
57.6342
58.6943
59.7781
60.9149
62.0803
63.3333
64.6365
66.0757
67.5862
69.2952
71.0899
73.166
75.3283
77.8833
80.499
83.6679
86.8242
90.7936
94.6257
99.6932
104.385
111.037
117.299
127.307
137.477
153.83
169.843
193.16
211.573
234.005
243.174
263.125
280.952
332.584
378.262
434.468
682.132
763.25
622.811
484.323
385.059
301.912
241.339
196.088
171.757
153.242
142.527
130.924
122.969
114.589
109.394
104.608
102.044
99.4888
98.0355
96.332
95.1281
93.5246
91.8496
89.5334
86.8392
83.6576
80.342
77.0419
74.0113
71.4003
69.2702
67.6657
66.4461
65.6082
64.9137
64.4519
63.9432
63.6546
63.2165
63.1655
62.9234
63.4348
63.7374
65.4027
67.0367
70.7926
71.9933
39.3989
43.6739
51.2551
61.3245
70.8796
76.6313
77.514
74.6094
69.8743
64.9624
60.7863
57.7208
55.9551
55.4789
55.8786
56.7088
57.6917
58.7485
59.8301
60.9656
62.1302
63.3833
64.6869
66.1272
67.6389
69.3498
71.1464
73.225
75.3898
77.9482
80.5672
83.7406
86.9019
90.8778
94.7174
99.7945
104.498
111.167
117.45
127.48
137.669
154.032
170.04
193.334
211.71
234.113
243.303
263.32
281.185
332.538
377.821
432.224
674.495
753.673
615.904
479.258
381.196
299.047
239.62
195.21
171.395
153.059
142.441
130.862
122.938
114.567
109.394
104.615
102.063
99.5062
98.0531
96.3444
95.1354
93.5243
91.8437
89.5244
86.8314
83.6553
80.3475
77.0561
74.0332
71.4279
69.3007
67.6963
66.474
65.6317
64.9313
64.4636
63.9483
63.6533
63.2082
63.1497
62.899
63.397
63.6854
65.3192
66.9234
70.6005
71.747
39.3743
43.6169
51.1644
61.2165
70.7799
76.5583
77.4725
74.5987
69.8952
65.0133
60.8575
57.798
56.0303
55.5501
55.9452
56.7705
57.7491
58.8027
59.8819
61.016
62.18
63.4331
64.7372
66.1785
67.6914
69.404
71.2025
73.2835
75.4508
78.0124
80.6347
83.8125
86.9786
90.961
94.8078
99.8943
104.61
111.295
117.599
127.651
137.858
154.229
170.231
193.501
211.84
234.216
243.432
263.513
281.415
332.481
377.372
429.999
666.928
744.018
608.907
474.157
377.346
296.241
237.979
194.394
171.066
152.897
142.367
130.81
122.915
114.552
109.4
104.628
102.084
99.5253
98.0716
96.3573
95.1427
93.524
91.838
89.5159
86.8243
83.6537
80.3539
77.071
74.0558
71.456
69.3315
67.727
66.5018
65.655
64.9486
64.4749
63.9528
63.6515
63.1994
63.1331
62.8737
63.3581
63.6321
65.2341
66.8079
70.4063
71.4991
39.35
43.5606
51.0743
61.1085
70.6791
76.4832
77.4285
74.5857
69.9141
65.0629
60.9278
57.8749
56.1054
55.6214
56.0119
56.8324
57.8066
58.8568
59.9337
61.0664
62.2296
63.4827
64.7871
66.2294
67.7435
69.4578
71.2581
73.3415
75.5112
78.076
80.7014
83.8836
87.0543
91.0432
94.8972
99.9929
104.721
111.422
117.745
127.819
138.043
154.422
170.417
193.661
211.965
234.316
243.56
263.705
281.64
332.415
376.917
427.792
659.436
734.298
601.824
469.02
373.509
293.492
236.409
193.635
170.768
152.753
142.304
130.767
122.899
114.544
109.411
104.644
102.108
99.5459
98.0907
96.3705
95.15
93.5238
91.8324
89.5077
86.8176
83.6527
80.361
77.0866
74.0788
71.4845
69.3626
67.7578
66.5295
65.6781
64.9656
64.4857
63.9568
63.6491
63.1899
63.1158
62.8476
63.3181
63.5774
65.1473
66.6902
70.2105
71.2499
39.3262
43.505
50.9849
61.0005
70.5771
76.406
77.382
74.5704
69.9313
65.1112
60.9972
57.9512
56.1805
55.6929
56.0787
56.8942
57.8641
58.9109
59.9853
61.1166
62.2791
63.5321
64.8368
66.2801
67.7952
69.5113
71.3133
73.3991
75.5711
78.139
80.7675
83.9539
87.1292
91.1243
94.9853
100.09
104.83
111.546
117.89
127.984
138.225
154.61
170.597
193.815
212.083
234.411
243.687
263.895
281.861
332.339
376.455
425.605
652.024
724.524
594.664
463.85
369.684
290.798
234.905
192.926
170.497
152.625
142.25
130.733
122.89
114.543
109.426
104.664
102.133
99.5677
98.1102
96.3839
95.1572
93.5235
91.8268
89.4997
86.8114
83.6522
80.3684
77.1025
74.1022
71.5133
69.3937
67.7886
66.5571
65.7008
64.9821
64.496
63.9604
63.6461
63.1799
63.0978
62.8206
63.277
63.5215
65.059
66.5707
70.013
70.9995
39.3027
43.45
50.8961
60.8924
70.474
76.3267
77.333
74.5528
69.9467
65.1582
61.0657
58.0271
56.2556
55.7645
56.1456
56.9561
57.9215
58.965
60.0369
61.1668
62.3284
63.5813
64.8863
66.3305
67.8467
69.5644
71.368
73.4561
75.6304
78.2013
80.8328
84.0234
87.2033
91.2044
95.0724
100.186
104.937
111.67
118.033
128.146
138.403
154.794
170.771
193.963
212.196
234.502
243.814
264.084
282.077
332.255
375.988
423.439
644.696
714.708
587.431
458.648
365.873
288.157
233.462
192.263
170.249
152.511
142.204
130.706
122.887
114.547
109.446
104.687
102.161
99.5905
98.1301
96.3973
95.1643
93.5229
91.821
89.4917
86.8053
83.6519
80.3762
77.1187
74.1259
71.5422
69.425
67.8193
66.5844
65.7231
64.9982
64.5058
63.9634
63.6425
63.1692
63.079
62.7929
63.2349
63.4644
64.9692
66.4492
69.8141
70.7482
39.2797
43.3958
50.8079
60.7841
70.3697
76.2453
77.2815
74.5329
69.9604
65.204
61.1333
58.1025
56.3306
55.8362
56.2125
57.0181
57.979
59.019
60.0885
61.2167
62.3775
63.6303
64.9355
66.3805
67.8978
69.6171
71.4224
73.5127
75.6891
78.2631
80.8975
84.0922
87.2764
91.2836
95.1583
100.281
105.043
111.791
118.174
128.306
138.578
154.973
170.941
194.105
212.304
234.589
243.941
264.271
282.29
332.162
375.517
421.294
637.457
704.862
580.134
453.419
362.075
285.566
232.077
191.641
170.022
152.41
142.166
130.685
122.888
114.555
109.469
104.713
102.189
99.6142
98.1501
96.4108
95.1711
93.5222
91.8152
89.4837
86.7994
83.6518
80.3841
77.1351
74.1496
71.5711
69.4561
67.8498
66.6114
65.7452
65.014
64.5152
63.9659
63.6384
63.1579
63.0595
62.7643
63.1919
63.4061
64.878
66.3261
69.6139
70.4961
39.2571
43.3422
50.7202
60.6758
70.2642
76.1619
77.2277
74.5109
69.9723
65.2485
61.2
58.1775
56.4055
55.9079
56.2796
57.08
58.0364
59.073
60.1399
61.2666
62.4264
63.6791
64.9845
66.4303
67.9486
69.6694
71.4763
73.5688
75.7474
78.3242
80.9615
84.1602
87.3487
91.3619
95.2432
100.374
105.148
111.911
118.312
128.463
138.749
155.148
171.105
194.242
212.407
234.673
244.066
264.456
282.498
332.062
375.041
419.171
630.308
694.997
572.777
448.163
358.291
283.025
230.746
191.056
169.813
152.319
142.134
130.669
122.894
114.569
109.495
104.741
102.219
99.6385
98.1703
96.4241
95.1777
93.5212
91.8091
89.4756
86.7935
83.6517
80.3921
77.1514
74.1733
71.6
69.4872
67.8802
66.6382
65.7668
65.0293
64.5241
63.9679
63.6337
63.1461
63.0393
62.735
63.1478
63.3467
64.7856
66.2013
69.4127
70.2435
39.2348
43.2891
50.6331
60.5673
70.1575
76.0764
77.1715
74.4867
69.9826
65.2917
61.2659
58.252
56.4803
55.9798
56.3467
57.142
58.0938
59.1269
60.1912
61.3163
62.4752
63.7276
65.0332
66.4798
67.999
69.7214
71.5298
73.6245
75.8051
78.3848
81.0249
84.2275
87.4202
91.4392
95.327
100.467
105.251
112.029
118.449
128.618
138.918
155.319
171.265
194.373
212.506
234.754
244.191
264.639
282.702
331.954
374.561
417.072
623.255
685.124
565.369
442.884
354.523
280.532
229.464
190.505
169.621
152.238
142.107
130.659
122.904
114.585
109.524
104.771
102.25
99.6633
98.1905
96.4374
95.184
93.52
91.8027
89.4674
86.7875
83.6516
80.4001
77.1678
74.197
71.6288
69.5181
67.9102
66.6647
65.7881
65.0442
64.5325
63.9695
63.6284
63.1337
63.0185
62.7049
63.1028
63.2862
64.6919
66.0749
69.2105
69.9905
39.2129
43.2367
50.5464
60.4586
70.0497
75.989
77.1131
74.4604
69.9913
65.3338
61.3309
58.326
56.5551
56.0517
56.4138
57.204
58.1512
59.1807
60.2424
61.3659
62.5238
63.776
65.0817
66.5291
68.0492
69.773
71.5829
73.6797
75.8623
78.4448
81.0876
84.2941
87.4909
91.5156
95.4099
100.558
105.353
112.146
118.585
128.771
139.083
155.486
171.421
194.5
212.6
234.832
244.315
264.82
282.902
331.839
374.077
414.996
616.299
675.255
557.917
437.584
350.771
278.086
228.229
189.985
169.443
152.165
142.085
130.653
122.917
114.605
109.555
104.803
102.282
99.6884
98.2107
96.4505
95.19
93.5183
91.7961
89.4589
86.7815
83.6514
80.4079
77.1839
74.2205
71.6574
69.5488
67.94
66.6908
65.809
65.0586
64.5405
63.9706
63.6227
63.1207
62.9969
62.6741
63.057
63.2247
64.5971
65.9472
69.0075
69.7372
39.1914
43.1849
50.4602
60.3498
69.9408
75.8996
77.0523
74.4321
69.9984
65.3748
61.395
58.3996
56.6298
56.1236
56.4811
57.2661
58.2086
59.2345
60.2936
61.4154
62.5722
63.8241
65.13
66.578
68.099
69.8243
71.6356
73.7345
75.919
78.5042
81.1497
84.36
87.5609
91.5912
95.4917
100.648
105.454
112.262
118.718
128.921
139.246
155.649
171.572
194.621
212.69
234.907
244.439
265
283.097
331.718
373.591
412.943
609.443
665.4
550.426
432.266
347.037
275.686
227.038
189.492
169.278
152.1
142.067
130.651
122.933
114.629
109.588
104.836
102.314
99.7139
98.2308
96.4633
95.1957
93.5164
91.7892
89.4503
86.7752
83.651
80.4156
77.1999
74.2438
71.6857
69.5792
67.9695
66.7166
65.8294
65.0727
64.548
63.9712
63.6164
63.1072
62.9748
62.6426
63.0102
63.1622
64.5012
65.8182
68.8038
69.4839
39.1702
43.1336
50.3745
60.2408
69.8307
75.8083
76.9894
74.4018
70.004
65.4146
61.4584
58.4728
56.7043
56.1957
56.5483
57.3281
58.266
59.2882
60.3446
61.4647
62.6205
63.8721
65.178
66.6267
68.1485
69.8752
71.6879
73.7888
75.9752
78.5631
81.2112
84.4252
87.6301
91.6659
95.5726
100.737
105.554
112.376
118.85
129.07
139.406
155.809
171.719
194.739
212.777
234.979
244.562
265.177
283.289
331.591
373.102
410.916
602.689
655.569
542.905
426.935
343.322
273.331
225.887
189.024
169.124
152.041
142.052
130.652
122.951
114.654
109.623
104.871
102.347
99.7396
98.2508
96.4759
95.201
93.5141
91.7819
89.4413
86.7687
83.6504
80.423
77.2156
74.2668
71.7138
69.6093
67.9986
66.742
65.8495
65.0863
64.5551
63.9714
63.6097
63.0932
62.952
62.6104
62.9627
63.0988
64.4042
65.6879
68.5997
69.2307
39.1493
43.0829
50.2892
60.1316
69.7194
75.7151
76.9243
74.3696
70.0081
65.4533
61.5209
58.5455
56.7788
56.2677
56.6157
57.3902
58.3233
59.3419
60.3955
61.5139
62.6686
63.9198
65.2257
66.6751
68.1977
69.9258
71.7398
73.8427
76.031
78.6215
81.2721
84.4898
87.6985
91.7398
95.6526
100.825
105.652
112.488
118.98
129.216
139.563
155.966
171.863
194.852
212.859
235.049
244.684
265.352
283.477
331.458
372.612
408.913
596.04
645.772
535.361
421.592
339.627
271.02
224.776
188.579
168.981
151.988
142.041
130.656
122.972
114.682
109.66
104.906
102.38
99.7654
98.2706
96.4883
95.2059
93.5115
91.7743
89.4321
86.762
83.6495
80.4301
77.231
74.2896
71.7416
69.6391
68.0274
66.767
65.8692
65.0995
64.5617
63.9711
63.6025
63.0787
62.9287
62.5776
62.9144
63.0345
64.3064
65.5566
68.3951
68.9776
39.1288
43.0327
50.2043
60.0221
69.607
75.62
76.857
74.3355
70.0107
65.491
61.5827
58.6177
56.8532