/*--------------------------------*- C++ -*----------------------------------*\
| =========                 |                                                 |
| \\      /  F ield         | OpenFOAM: The Open Source CFD Toolbox           |
|  \\    /   O peration     | Version:  2412                                  |
|   \\  /    A nd           | Website:  www.openfoam.com                      |
|    \\/     M anipulation  |                                                 |
\*---------------------------------------------------------------------------*/
FoamFile
{
    version     2.0;
    format      ascii;
    arch        "LSB;label=32;scalar=64";
    class       volScalarField;
    location    "0.5";
    object      nut;
}
// * * * * * * * * * * * * * * * * * * * * * * * * * * * * * * * * * * * * * //

dimensions      [0 2 -1 0 0 0 0];

internalField   nonuniform List<scalar> 
13079
(
0.347836
0.368096
0.387342
0.39624
0.389656
0.36779
0.336059
0.301836
0.271552
0.250088
0.241618
0.249613
0.273478
0.304507
0.330545
0.346546
0.354644
0.358516
0.360504
0.361844
0.36294
0.364074
0.365179
0.366419
0.367601
0.368955
0.37017
0.371616
0.3728
0.374306
0.375372
0.376927
0.377809
0.37952
0.380281
0.382256
0.382675
0.384947
0.385835
0.38988
0.392015
0.396047
0.395931
0.394152
0.384588
0.369726
0.351344
0.349457
0.362698
0.397055
0.419052
0.439031
0.470344
0.446715
0.327266
0.234925
0.183637
0.146141
0.121036
0.0991184
0.0869683
0.0778416
0.0760121
0.0731139
0.0738505
0.0722761
0.0739363
0.0750512
0.0804942
0.0872703
0.0988128
0.112068
0.128791
0.145736
0.162962
0.177378
0.189119
0.347711
0.367935
0.387254
0.39628
0.389829
0.368064
0.336385
0.30219
0.271949
0.250571
0.24223
0.250368
0.274345
0.305404
0.33138
0.347289
0.355311
0.359131
0.361084
0.362399
0.363475
0.364596
0.365693
0.366933
0.368121
0.369493
0.370732
0.372215
0.373443
0.375008
0.376139
0.377777
0.378747
0.380568
0.381437
0.383554
0.384108
0.386574
0.387635
0.39194
0.394286
0.398679
0.398872
0.39768
0.388616
0.37463
0.356886
0.355962
0.369314
0.403136
0.42416
0.442458
0.471134
0.447501
0.329802
0.238073
0.186685
0.149132
0.124343
0.102864
0.0917946
0.0836207
0.0830783
0.0807741
0.0822171
0.0808258
0.0829826
0.0844733
0.0907308
0.0982778
0.110735
0.124633
0.141794
0.15877
0.175703
0.18956
0.200657
0.34759
0.367777
0.387168
0.396321
0.390003
0.368337
0.336712
0.302546
0.272349
0.251055
0.242836
0.251102
0.275171
0.306239
0.332145
0.347963
0.355914
0.359689
0.36161
0.362903
0.363962
0.365073
0.366164
0.367406
0.368602
0.36999
0.371253
0.372772
0.374042
0.375662
0.376854
0.37857
0.379622
0.381548
0.382518
0.384769
0.385449
0.388098
0.389324
0.393874
0.39642
0.401155
0.401646
0.40102
0.392443
0.379317
0.362206
0.362202
0.375614
0.408874
0.428956
0.445657
0.471798
0.448078
0.332088
0.241019
0.189616
0.15211
0.127775
0.106914
0.0971526
0.090116
0.0909791
0.0892955
0.0914414
0.0902219
0.0928741
0.0947426
0.101784
0.110023
0.123244
0.1376
0.154989
0.171807
0.188294
0.201491
0.211889
0.34747
0.367621
0.387086
0.396364
0.390176
0.36861
0.337038
0.302903
0.272751
0.25154
0.243438
0.251819
0.27596
0.307021
0.332848
0.348576
0.356461
0.360193
0.362088
0.363362
0.364407
0.36551
0.366596
0.367841
0.369045
0.370451
0.371737
0.373289
0.374598
0.376271
0.37752
0.379311
0.380439
0.382462
0.383527
0.385904
0.386704
0.389526
0.390907
0.395687
0.398423
0.403484
0.404259
0.404176
0.396073
0.383791
0.367301
0.368175
0.381599
0.414275
0.433449
0.448639
0.472347
0.448457
0.334133
0.243766
0.192429
0.155073
0.131332
0.111277
0.10306
0.0973409
0.0997016
0.0986464
0.101472
0.100409
0.103544
0.105782
0.113552
0.122381
0.136198
0.150825
0.168242
0.184733
0.20064
0.213099
0.222758
0.347354
0.367469
0.387006
0.396408
0.390349
0.368881
0.337363
0.30326
0.273155
0.252027
0.244036
0.252521
0.276717
0.307755
0.333496
0.349134
0.356955
0.36065
0.362521
0.363779
0.364813
0.365909
0.366993
0.368242
0.369455
0.370877
0.372185
0.373769
0.375116
0.376838
0.378141
0.380001
0.3812
0.383316
0.38447
0.386964
0.387877
0.390861
0.392388
0.397386
0.400301
0.405671
0.406716
0.407155
0.399512
0.388053
0.372173
0.373878
0.387273
0.419351
0.437651
0.451413
0.47279
0.448649
0.335946
0.246317
0.195124
0.158018
0.135013
0.115962
0.109526
0.105291
0.109209
0.10877
0.112233
0.111308
0.114903
0.117491
0.125912
0.135215
0.149449
0.164163
0.181422
0.197438
0.212657
0.224319
0.233213
0.238949
0.242944
0.246062
0.249499
0.253726
0.258969
0.265178
0.271742
0.278555
0.2848
0.29086
0.295871
0.300889
0.304777
0.309426
0.312999
0.318525
0.322803
0.330521
0.336445
0.345501
0.342751
0.347239
0.367319
0.386928
0.396453
0.390522
0.36915
0.337686
0.303618
0.273561
0.252516
0.244632
0.253211
0.277446
0.308445
0.334093
0.349642
0.357404
0.361064
0.362914
0.364158
0.365184
0.366275
0.367358
0.368611
0.369833
0.371271
0.372601
0.374215
0.375597
0.377365
0.378719
0.380643
0.381911
0.384112
0.38535
0.387954
0.388972
0.39211
0.393775
0.398977
0.40206
0.407722
0.409026
0.409963
0.402764
0.392107
0.376821
0.379312
0.392638
0.424109
0.441573
0.453988
0.473136
0.448665
0.337536
0.248676
0.197702
0.160944
0.138816
0.120971
0.116546
0.113943
0.119439
0.119585
0.123628
0.122818
0.12684
0.129747
0.138726
0.148375
0.162848
0.177478
0.194413
0.20983
0.224273
0.235098
0.243216
0.248334
0.25188
0.254684
0.257892
0.261918
0.266936
0.272863
0.279076
0.285476
0.291273
0.296871
0.301441
0.306041
0.309563
0.313876
0.317168
0.322431
0.326495
0.333996
0.33977
0.348645
0.345875
0.347127
0.367172
0.386852
0.396499
0.390693
0.369417
0.338008
0.303975
0.273969
0.253007
0.245227
0.25389
0.278151
0.309098
0.334645
0.350104
0.35781
0.361439
0.36327
0.364504
0.365522
0.36661
0.367693
0.368951
0.370182
0.371636
0.372986
0.374629
0.376044
0.377856
0.379257
0.381242
0.382572
0.384854
0.38617
0.388877
0.389995
0.393276
0.395071
0.400465
0.403708
0.409645
0.411193
0.412607
0.405837
0.395957
0.381248
0.384477
0.3977
0.428561
0.445227
0.456375
0.473393
0.448516
0.338913
0.250848
0.200165
0.163849
0.142739
0.126302
0.124104
0.123254
0.130311
0.130992
0.135544
0.134825
0.139231
0.142419
0.151848
0.161711
0.176252
0.190642
0.207109
0.221826
0.23543
0.245395
0.252735
0.257238
0.260344
0.262839
0.265812
0.269627
0.274411
0.280049
0.285911
0.291905
0.29727
0.302427
0.306581
0.310789
0.313968
0.31797
0.320999
0.326017
0.329882
0.337178
0.342813
0.351521
0.348741
0.347017
0.367028
0.386778
0.396546
0.390863
0.369682
0.338329
0.304333
0.274378
0.2535
0.24582
0.25456
0.278833
0.309716
0.335157
0.350527
0.358177
0.361778
0.363594
0.364818
0.36583
0.366917
0.368
0.369265
0.370504
0.371974
0.373343
0.375013
0.37646
0.378312
0.379758
0.381799
0.383189
0.385545
0.386934
0.389738
0.390949
0.394365
0.396283
0.401856
0.405248
0.411445
0.413225
0.415093
0.408735
0.399607
0.385456
0.389376
0.402466
0.432719
0.448624
0.458581
0.473569
0.448211
0.340085
0.252837
0.202512
0.166731
0.146776
0.131947
0.132174
0.133162
0.141724
0.142876
0.147853
0.147202
0.151943
0.155366
0.16513
0.175079
0.189528
0.203542
0.219422
0.23336
0.246082
0.255178
0.261751
0.265652
0.268329
0.27052
0.273256
0.276856
0.281399
0.286745
0.292261
0.29786
0.302811
0.30755
0.311314
0.315156
0.318015
0.321727
0.324514
0.329303
0.332982
0.340087
0.345594
0.354144
0.351363
0.346909
0.366886
0.386706
0.396594
0.391033
0.369946
0.338648
0.304692
0.27479
0.253996
0.246414
0.255222
0.279496
0.310303
0.335632
0.350912
0.358511
0.362085
0.363887
0.365105
0.366113
0.367198
0.368283
0.369554
0.370802
0.372287
0.373675
0.37537
0.376846
0.378737
0.380224
0.382318
0.383762
0.386189
0.387646
0.39054
0.391839
0.395381
0.397414
0.403155
0.406687
0.413129
0.415128
0.417428
0.411465
0.403062
0.389449
0.394013
0.406944
0.436593
0.451776
0.460616
0.473672
0.44776
0.341063
0.254651
0.204747
0.169587
0.15092
0.137894
0.140714
0.143589
0.153565
0.155111
0.160426
0.159817
0.164838
0.168445
0.178429
0.188343
0.202557
0.21608
0.231276
0.244382
0.256197
0.264427
0.27025
0.273569
0.275831
0.277726
0.280226
0.283607
0.287907
0.292964
0.298141
0.303361
0.307918
0.312264
0.315661
0.319163
0.321727
0.32517
0.327731
0.332309
0.335815
0.34274
0.348128
0.356532
0.353756
0.346803
0.366746
0.386636
0.396642
0.391202
0.370207
0.338966
0.305051
0.275205
0.254495
0.247008
0.255879
0.280143
0.310862
0.336074
0.351265
0.358813
0.362364
0.364154
0.365366
0.366371
0.367456
0.368544
0.36982
0.371078
0.372577
0.373982
0.375702
0.377205
0.379131
0.380657
0.382801
0.384296
0.386788
0.38831
0.391287
0.392669
0.396329
0.398469
0.404368
0.408032
0.414702
0.416908
0.419617
0.414033
0.406328
0.393231
0.398393
0.411141
0.440197
0.454696
0.462488
0.47371
0.447173
0.341856
0.256295
0.206872
0.172416
0.155165
0.144123
0.149673
0.154444
0.165709
0.167566
0.17313
0.172539
0.177783
0.18152
0.191612
0.201379
0.215235
0.228175
0.242615
0.254852
0.265752
0.273132
0.278229
0.280989
0.282853
0.28446
0.286728
0.28989
0.293948
0.29872
0.30357
0.308426
0.312612
0.31659
0.319647
0.322833
0.325123
0.328319
0.330672
0.335053
0.338398
0.345154
0.350433
0.358698
0.355933
0.346699
0.366609
0.386568
0.396691
0.39137
0.370467
0.339283
0.30541
0.275622
0.254998
0.247604
0.25653
0.280775
0.311397
0.336487
0.351587
0.359087
0.362616
0.364396
0.365604
0.366607
0.367693
0.368784
0.370066
0.371333
0.372846
0.374268
0.376009
0.377538
0.379498
0.38106
0.38325
0.384793
0.387345
0.388927
0.391982
0.393441
0.397213
0.399454
0.405499
0.409286
0.416171
0.418572
0.421668
0.416446
0.409409
0.396807
0.402521
0.415069
0.443542
0.457396
0.464207
0.473691
0.446459
0.342474
0.257776
0.208889
0.175216
0.159502
0.150613
0.158989
0.165626
0.178032
0.180112
0.185836
0.185241
0.190648
0.194463
0.204556
0.214081
0.227476
0.239761
0.253395
0.264746
0.274736
0.281289
0.285689
0.287917
0.2894
0.290731
0.292771
0.295717
0.299537
0.304032
0.308567
0.31308
0.316916
0.320551
0.323293
0.326188
0.328226
0.331193
0.333354
0.337552
0.340749
0.347347
0.352524
0.360658
0.357909
0.346597
0.366474
0.386502
0.396741
0.391537
0.370726
0.339599
0.305771
0.276042
0.255504
0.248202
0.257179
0.281394
0.31191
0.336873
0.351883
0.359337
0.362845
0.364616
0.365821
0.366823
0.367911
0.369004
0.370294
0.371569
0.373095
0.374533
0.376296
0.377848
0.379839
0.381435
0.383667
0.385256
0.387864
0.389501
0.392629
0.394161
0.398036
0.400373
0.406553
0.410455
0.417541
0.420125
0.423587
0.418709
0.412313
0.400182
0.406405
0.418737
0.446642
0.459887
0.465781
0.47362
0.445626
0.342925
0.259101
0.210802
0.177985
0.163921
0.157333
0.168593
0.177027
0.190408
0.192623
0.198424
0.197802
0.203318
0.207157
0.217158
0.226357
0.239211
0.25079
0.263587
0.274049
0.283145
0.288903
0.292638
0.294363
0.295485
0.296551
0.29837
0.301104
0.304692
0.308921
0.313156
0.317344
0.320854
0.32417
0.326621
0.329248
0.331055
0.333812
0.335795
0.339825
0.342884
0.349333
0.354416
0.362426
0.359695
0.346496
0.366341
0.386437
0.396791
0.391703
0.370983
0.339914
0.306132
0.276465
0.256014
0.248802
0.257825
0.282003
0.312404
0.337236
0.352155
0.359563
0.363052
0.364816
0.366019
0.367021
0.368111
0.369208
0.370504
0.371788
0.373326
0.374779
0.376562
0.378137
0.380157
0.381783
0.384056
0.385686
0.388347
0.390036
0.393232
0.394831
0.398803
0.401229
0.407536
0.411545
0.418819
0.421573
0.42538
0.420829
0.415045
0.403362
0.410052
0.422157
0.449509
0.462181
0.467217
0.473506
0.444684
0.34322
0.260277
0.212614
0.180722
0.168412
0.164254
0.17841
0.188537
0.202718
0.204983
0.210782
0.210116
0.215685
0.219503
0.229327
0.238136
0.250386
0.261228
0.273174
0.282757
0.290986
0.295982
0.299089
0.30034
0.301121
0.301934
0.30354
0.306069
0.309434
0.313407
0.317358
0.321242
0.324449
0.327471
0.329654
0.332035
0.33363
0.336194
0.338015
0.341888
0.344819
0.351128
0.356122
0.364013
0.361303
0.346398
0.36621
0.386373
0.396842
0.391868
0.371239
0.340229
0.306494
0.276891
0.256529
0.249405
0.258469
0.282603
0.312881
0.337577
0.352406
0.359769
0.363241
0.364999
0.3662
0.367203
0.368296
0.369397
0.370699
0.371991
0.373541
0.375008
0.376809
0.378405
0.380452
0.382108
0.384417
0.386086
0.388796
0.390533
0.393792
0.395455
0.399517
0.402027
0.408451
0.41256
0.420008
0.422923
0.427053
0.422813
0.417611
0.406355
0.41347
0.425339
0.452156
0.464289
0.468524
0.473355
0.44364
0.343367
0.261312
0.214329
0.183426
0.172964
0.171339
0.188362
0.200051
0.21485
0.217086
0.222815
0.222087
0.227662
0.231416
0.240993
0.24936
0.260965
0.271053
0.282148
0.290873
0.298268
0.302543
0.305058
0.305865
0.306326
0.3069
0.308301
0.310633
0.313783
0.317513
0.321197
0.324797
0.327724
0.330475
0.332412
0.334568
0.335969
0.338356
0.340028
0.343756
0.346569
0.352745
0.357656
0.365434
0.362746
0.346301
0.366081
0.386311
0.396893
0.392033
0.371493
0.340542
0.306858
0.277321
0.257047
0.250012
0.259113
0.283195
0.313343
0.3379
0.352637
0.359956
0.363412
0.365165
0.366366
0.367369
0.368466
0.369571
0.37088
0.37218
0.373741
0.375221
0.37704
0.378655
0.380727
0.38241
0.384753
0.386458
0.389214
0.390996
0.394313
0.396036
0.400182
0.40277
0.409304
0.413505
0.421115
0.424179
0.428614
0.424667
0.420019
0.409166
0.416669
0.428295
0.454595
0.466223
0.46971
0.473171
0.442503
0.343374
0.262212
0.215952
0.186095
0.177565
0.178551
0.19837
0.211466
0.226704
0.228841
0.23444
0.233637
0.239174
0.242826
0.252101
0.25999
0.270925
0.280256
0.290513
0.29841
0.305009
0.308604
0.310565
0.310959
0.311118
0.311467
0.312674
0.314817
0.317762
0.321263
0.324696
0.328033
0.330701
0.333204
0.334917
0.336867
0.33809
0.340316
0.34185
0.345445
0.348148
0.354198
0.359032
0.3667
0.364035
0.346207
0.365954
0.386251
0.396945
0.392197
0.371746
0.340856
0.307223
0.277753
0.257571
0.250622
0.259757
0.28378
0.313791
0.338205
0.352851
0.360127
0.363568
0.365316
0.366517
0.367523
0.368623
0.369732
0.371047
0.372355
0.373927
0.375419
0.377254
0.378888
0.380982
0.38269
0.385066
0.386805
0.389602
0.391426
0.394798
0.396577
0.400802
0.403463
0.410097
0.414384
0.422144
0.425347
0.430067
0.426397
0.422275
0.411803
0.419656
0.431037
0.456839
0.467993
0.470781
0.472963
0.441281
0.343252
0.262986
0.217487
0.188731
0.182204
0.18585
0.208358
0.222689
0.238196
0.240171
0.245589
0.2447
0.250162
0.253682
0.262612
0.270001
0.280254
0.288838
0.298279
0.305382
0.311228
0.314185
0.315631
0.31564
0.31552
0.315657
0.31668
0.318644
0.321395
0.32468
0.32788
0.330974
0.333403
0.335679
0.337187
0.33895
0.340012
0.34209
0.343498
0.346968
0.349569
0.3555
0.360261
0.367822
0.36518
0.346113
0.365829
0.386191
0.396997
0.39236
0.371998
0.341169
0.307589
0.27819
0.258099
0.251237
0.260402
0.284361
0.314229
0.338496
0.353049
0.360284
0.363709
0.365454
0.366656
0.367664
0.368768
0.369881
0.371203
0.372518
0.3741
0.375603
0.377454
0.379104
0.381221
0.382952
0.385358
0.387127
0.389964
0.391827
0.395249
0.397081
0.401378
0.404108
0.410835
0.415202
0.4231
0.426432
0.431418
0.42801
0.424386
0.414274
0.422443
0.433576
0.458899
0.46961
0.471745
0.472734
0.439981
0.343007
0.26364
0.218937
0.191333
0.18687
0.193199
0.218253
0.233635
0.249254
0.251014
0.256212
0.255227
0.260583
0.263947
0.272501
0.279378
0.288952
0.296807
0.305463
0.311811
0.316948
0.319312
0.320279
0.319933
0.319553
0.319492
0.320341
0.322136
0.324704
0.327787
0.33077
0.33364
0.335851
0.33792
0.339241
0.340834
0.341748
0.343691
0.344984
0.348339
0.350845
0.356662
0.361354
0.368811
0.366191
0.346022
0.365706
0.386133
0.397049
0.392522
0.372248
0.341481
0.307957
0.27863
0.258632
0.251856
0.261049
0.284938
0.314656
0.338774
0.353233
0.360427
0.363838
0.36558
0.366784
0.367794
0.368902
0.370019
0.371348
0.37267
0.374261
0.375776
0.377641
0.379306
0.381443
0.383196
0.385629
0.387428
0.390301
0.392199
0.395669
0.397549
0.401916
0.404709
0.411522
0.415962
0.423989
0.427439
0.432674
0.429512
0.426358
0.416584
0.425038
0.435923
0.460787
0.471084
0.472609
0.47249
0.438611
0.342648
0.264181
0.220309
0.1939
0.19155
0.200558
0.227987
0.244233
0.25982
0.261322
0.26627
0.265184
0.270408
0.273598
0.281757
0.288121
0.297027
0.304179
0.312085
0.317721
0.322195
0.324007
0.324533
0.32386
0.32324
0.322995
0.323681
0.325316
0.327713
0.330607
0.33339
0.336053
0.338066
0.339946
0.341097
0.342536
0.343316
0.345136
0.346322
0.349571
0.351988
0.357697
0.362322
0.369677
0.367079
0.345932
0.365584
0.386075
0.397101
0.392683
0.372497
0.341793
0.308326
0.279073
0.25917
0.25248
0.261697
0.285512
0.315075
0.339039
0.353406
0.360558
0.363956
0.365696
0.366901
0.367915
0.369026
0.370148
0.371482
0.372811
0.374412
0.375937
0.377815
0.379495
0.38165
0.383423
0.385882
0.387708
0.390614
0.392546
0.396059
0.397986
0.402416
0.405269
0.412161
0.416668
0.424813
0.428374
0.43384
0.430909
0.428198
0.418743
0.427451
0.438091
0.462515
0.472424
0.473379
0.472236
0.437177
0.342184
0.264618
0.221607
0.196435
0.196235
0.207889
0.237501
0.254423
0.269852
0.271062
0.275738
0.274546
0.279622
0.282624
0.290379
0.296237
0.304494
0.310975
0.318171
0.323139
0.326995
0.328298
0.328417
0.327445
0.326602
0.326186
0.32672
0.328206
0.330443
0.333163
0.33576
0.338235
0.340065
0.341774
0.342772
0.34407
0.344728
0.346436
0.347525
0.350674
0.353009
0.358614
0.363176
0.370429
0.367851
0.345843
0.365463
0.386019
0.397154
0.392843
0.372745
0.342105
0.308698
0.279521
0.259714
0.253109
0.262348
0.286084
0.315486
0.339295
0.353567
0.360678
0.364064
0.365802
0.367009
0.368026
0.369141
0.370268
0.371608
0.372944
0.374553
0.376087
0.377978
0.379671
0.381844
0.383635
0.386118
0.387968
0.390906
0.39287
0.396423
0.398393
0.402882
0.405791
0.412755
0.417324
0.425577
0.429239
0.434921
0.432206
0.429913
0.420757
0.429692
0.44009
0.464092
0.47364
0.474061
0.471976
0.435687
0.341621
0.264957
0.222837
0.198937
0.200914
0.215158
0.246741
0.264158
0.27932
0.280214
0.284605
0.283305
0.288219
0.291026
0.298374
0.30374
0.311375
0.31722
0.323747
0.328091
0.331376
0.33221
0.331957
0.330709
0.329663
0.329089
0.329481
0.330828
0.332916
0.335474
0.337901
0.340203
0.341868
0.343422
0.34428
0.345451
0.345999
0.347604
0.348604
0.351661
0.353918
0.359422
0.363923
0.371077
0.368518
0.345756
0.365345
0.385963
0.397206
0.393003
0.372993
0.342417
0.30907
0.279972
0.260263
0.253743
0.263003
0.286654
0.315891
0.339541
0.353718
0.360789
0.364162
0.365899
0.367109
0.368129
0.369249
0.37038
0.371726
0.373067
0.374685
0.376228
0.37813
0.379836
0.382024
0.383833
0.386338
0.388211
0.391179
0.393171
0.396761
0.398772
0.403317
0.406277
0.413308
0.417934
0.426286
0.430041
0.435921
0.43341
0.431509
0.422634
0.43177
0.44193
0.465529
0.47474
0.474661
0.471715
0.434147
0.340967
0.265204
0.224003
0.20141
0.205577
0.222333
0.255663
0.273402
0.288207
0.288769
0.292867
0.291459
0.296203
0.298812
0.305759
0.310652
0.317695
0.322941
0.328842
0.332608
0.335364
0.335768
0.335175
0.333677
0.332445
0.331725
0.331986
0.333204
0.335152
0.337561
0.339832
0.341976
0.343491
0.344905
0.345637
0.346693
0.347141
0.348651
0.34957
0.35254
0.354724
0.360133
0.364574
0.371629
0.369087
0.34567
0.365227
0.385908
0.397258
0.393161
0.373239
0.342729
0.309445
0.280427
0.260817
0.254382
0.26366
0.287223
0.316291
0.339779
0.35386
0.360891
0.364253
0.365988
0.367201
0.368224
0.369349
0.370484
0.371836
0.373183
0.374809
0.37636
0.378273
0.37999
0.382193
0.384018
0.386543
0.388439
0.391433
0.393452
0.397077
0.399125
0.403722
0.406731
0.413822
0.4185
0.426942
0.430783
0.436847
0.434525
0.432994
0.424382
0.433695
0.443623
0.466836
0.475733
0.475184
0.471457
0.432565
0.34023
0.265368
0.225111
0.203854
0.210217
0.229384
0.264232
0.282131
0.296507
0.296728
0.300531
0.299017
0.303587
0.305998
0.312556
0.316997
0.323482
0.328168
0.333486
0.336717
0.338988
0.338999
0.338096
0.336371
0.334968
0.334114
0.334254
0.335352
0.337172
0.339443
0.341571
0.343571
0.344951
0.346237
0.346855
0.347807
0.348164
0.349589
0.350432
0.353321
0.355438
0.360752
0.365136
0.372092
0.369565
0.345586
0.365111
0.385854
0.39731
0.393319
0.373484
0.343041
0.309822
0.280887
0.261377
0.255027
0.264321
0.287793
0.316686
0.340011
0.353995
0.360985
0.364336
0.36607
0.367286
0.368313
0.369442
0.370582
0.371939
0.373292
0.374925
0.376484
0.378407
0.380135
0.382352
0.384191
0.386735
0.388651
0.39167
0.393714
0.397372
0.399455
0.4041
0.407154
0.414301
0.419025
0.42755
0.431468
0.437703
0.435558
0.434372
0.426008
0.435475
0.445178
0.468022
0.476626
0.475637
0.471204
0.430945
0.339415
0.265453
0.226167
0.206271
0.214824
0.236285
0.272421
0.290333
0.304222
0.304098
0.307612
0.305994
0.310389
0.312607
0.318789
0.322804
0.328766
0.332931
0.337709
0.340447
0.342273
0.341927
0.340742
0.33881
0.337253
0.336277
0.336305
0.337292
0.338994
0.341138
0.343135
0.345005
0.346261
0.347432
0.347948
0.348806
0.34908
0.350426
0.3512
0.354014
0.356065
0.36129
0.365617
0.372474
0.36996
0.345503
0.364996
0.3858
0.397362
0.393476
0.373728
0.343353
0.310201
0.28135
0.261942
0.255677
0.264986
0.288362
0.317077
0.340235
0.354123
0.361073
0.364412
0.366146
0.367365
0.368396
0.36953
0.370674
0.372036
0.373395
0.375034
0.3766
0.378532
0.38027
0.3825
0.384353
0.386915
0.388849
0.391891
0.393959
0.397646
0.399763
0.404452
0.407549
0.414746
0.419513
0.428113
0.432102
0.438493
0.436513
0.435651
0.427518
0.437121
0.446605
0.469097
0.477427
0.476022
0.47096
0.429295
0.33853
0.265468
0.227176
0.208666
0.219393
0.243015
0.28021
0.298002
0.311364
0.310897
0.314129
0.31241
0.316634
0.318663
0.324488
0.328104
0.333579
0.33726
0.341541
0.343827
0.345246
0.344575
0.343136
0.341017
0.339319
0.338231
0.338157
0.339042
0.340635
0.342662
0.344539
0.346291
0.347435
0.348503
0.348926
0.349699
0.349898
0.351173
0.351883
0.354625
0.356616
0.361752
0.366023
0.372782
0.370279
0.345421
0.364882
0.385746
0.397414
0.393631
0.373971
0.343666
0.310582
0.281818
0.262513
0.256333
0.265655
0.288932
0.317465
0.340455
0.354245
0.361154
0.364482
0.366216
0.367438
0.368473
0.369611
0.37076
0.372128
0.373491
0.375137
0.37671
0.378651
0.380398
0.38264
0.384505
0.387083
0.389034
0.392098
0.394188
0.397903
0.400051
0.404782
0.407918
0.415161
0.419966
0.428633
0.432686
0.439221
0.437395
0.436837
0.42892
0.43864
0.447912
0.470068
0.478143
0.476347
0.470729
0.427621
0.337582
0.265418
0.228143
0.211039
0.223917
0.249555
0.287587
0.305142
0.317948
0.317146
0.320106
0.318291
0.322348
0.324196
0.329685
0.332927
0.337951
0.341188
0.345011
0.346882
0.347932
0.346965
0.345297
0.34301
0.341185
0.339996
0.339828
0.340618
0.342111
0.344032
0.345799
0.347443
0.348487
0.349462
0.349801
0.350497
0.350628
0.351837
0.352488
0.355162
0.357095
0.362145
0.366361
0.373022
0.370527
0.345341
0.364769
0.385693
0.397465
0.393786
0.374213
0.343978
0.310965
0.28229
0.26309
0.256995
0.266329
0.289504
0.317851
0.34067
0.354361
0.36123
0.364547
0.366281
0.367507
0.368546
0.369688
0.370841
0.372214
0.373582
0.375235
0.376814
0.378763
0.380518
0.382771
0.384648
0.387241
0.389208
0.392292
0.394402
0.398143
0.400321
0.40509
0.408262
0.415547
0.420387
0.429114
0.433226
0.439893
0.438208
0.437934
0.43022
0.440042
0.449109
0.470943
0.47878
0.476613
0.470512
0.425927
0.336575
0.26531
0.229074
0.213396
0.228392
0.255891
0.294547
0.311764
0.323997
0.322869
0.32557
0.323663
0.32756
0.329237
0.33441
0.337307
0.341915
0.344743
0.348147
0.34964
0.350353
0.349121
0.347245
0.344807
0.342868
0.341587
0.341333
0.342037
0.343437
0.34526
0.346927
0.348474
0.349426
0.350318
0.350581
0.351208
0.351278
0.352426
0.353022
0.355633
0.35751
0.362476
0.366637
0.373199
0.370711
0.345261
0.364657
0.38564
0.397516
0.39394
0.374455
0.344291
0.311351
0.282767
0.263672
0.257663
0.267006
0.290076
0.318234
0.34088
0.354472
0.361301
0.364607
0.366341
0.36757
0.368614
0.369761
0.370918
0.372295
0.373668
0.375327
0.376911
0.378868
0.380631
0.382894
0.384782
0.38739
0.389372
0.392474
0.394602
0.398367
0.400573
0.405378
0.408584
0.415907
0.420778
0.42956
0.433723
0.44051
0.438959
0.438949
0.431426
0.441333
0.450204
0.47173
0.479345
0.476827
0.470312
0.42422
0.335517
0.265149
0.229975
0.215739
0.232813
0.262011
0.30109
0.317884
0.329536
0.328094
0.330551
0.328558
0.332303
0.333818
0.338697
0.341275
0.345501
0.347955
0.350975
0.352124
0.352533
0.351061
0.348999
0.346426
0.344384
0.34302
0.342688
0.343313
0.344628
0.346361
0.347937
0.349395
0.350266
0.351081
0.351277
0.351841
0.351854
0.352947
0.353492
0.356043
0.357867
0.36275
0.366857
0.37332
0.370835
0.345183
0.364547
0.385587
0.397567
0.394093
0.374696
0.344604
0.311738
0.283248
0.26426
0.258336
0.267689
0.29065
0.318616
0.341087
0.354579
0.361368
0.364663
0.366397
0.36763
0.368677
0.369829
0.37099
0.372372
0.37375
0.375414
0.377004
0.378968
0.380738
0.38301
0.384908
0.387529
0.389525
0.392645
0.39479
0.398578
0.400809
0.405649
0.408886
0.416242
0.421141
0.429971
0.434181
0.441078
0.439649
0.439887
0.432543
0.442522
0.451205
0.472436
0.479843
0.476991
0.47013
0.422504
0.334413
0.264941
0.230851
0.218071
0.237177
0.267909
0.307223
0.32352
0.334593
0.332851
0.335079
0.333005
0.336607
0.33797
0.342577
0.344862
0.348739
0.350851
0.353522
0.354358
0.354492
0.352804
0.350576
0.347883
0.345748
0.344309
0.343907
0.344459
0.345696
0.347347
0.34884
0.350217
0.351014
0.351761
0.351895
0.352403
0.352365
0.353407
0.353905
0.356397
0.358171
0.362973
0.367025
0.373388
0.370906
0.345106
0.364437
0.385535
0.397617
0.394245
0.374936
0.344918
0.312129
0.283733
0.264854
0.259016
0.268375
0.291226
0.318996
0.341291
0.354682
0.361431
0.364715
0.366449
0.367686
0.368737
0.369894
0.371059
0.372446
0.373827
0.375496
0.377092
0.379062
0.380839
0.38312
0.385027
0.38766
0.389669
0.392805
0.394967
0.398775
0.401031
0.405902
0.409169
0.416555
0.421478
0.430351
0.434602
0.4416
0.440285
0.440753
0.433577
0.443616
0.452118
0.473067
0.480279
0.477109
0.46997
0.420786
0.333269
0.264693
0.231709
0.220397
0.241482
0.273579
0.312954
0.328695
0.339197
0.337172
0.339186
0.337036
0.340505
0.341726
0.346082
0.348098
0.351657
0.353459
0.355811
0.356364
0.35625
0.354368
0.351992
0.349191
0.346975
0.345468
0.345002
0.345488
0.346654
0.348229
0.349645
0.35095
0.351679
0.352366
0.352445
0.352901
0.352816
0.353811
0.354265
0.356702
0.358427
0.363149
0.367146
0.37341
0.370928
0.34503
0.364327
0.385482
0.397666
0.394396
0.375175
0.345233
0.312522
0.284223
0.265454
0.259701
0.269067
0.291803
0.319375
0.341492
0.354782
0.36149
0.364764
0.366497
0.367738
0.368794
0.369955
0.371124
0.372515
0.373901
0.375575
0.377175
0.379152
0.380934
0.383224
0.38514
0.387784
0.389805
0.392956
0.395133
0.398961
0.40124
0.40614
0.409434
0.416848
0.421792
0.430703
0.43499
0.442079
0.440869
0.441552
0.434534
0.444623
0.452952
0.473629
0.48066
0.477184
0.469831
0.419069
0.33209
0.264409
0.232553
0.222721
0.245727
0.27902
0.318297
0.333436
0.343379
0.341086
0.342902
0.340682
0.344026
0.345116
0.349241
0.351013
0.354282
0.355802
0.357866
0.358162
0.357824
0.35577
0.353262
0.350366
0.348077
0.34651
0.345985
0.346411
0.347511
0.349016
0.350364
0.351603
0.352271
0.352902
0.352931
0.353341
0.353214
0.354164
0.354577
0.356961
0.358639
0.363282
0.367225
0.373389
0.370904
0.344955
0.364219
0.385429
0.397715
0.394546
0.375413
0.345548
0.312917
0.284718
0.266059
0.260392
0.269762
0.292383
0.319754
0.34169
0.354879
0.361546
0.364809
0.366543
0.367788
0.368848
0.370013
0.371186
0.372582
0.373971
0.37565
0.377255
0.379237
0.381025
0.383323
0.385246
0.387902
0.389934
0.393098
0.39529
0.399135
0.401436
0.406364
0.409683
0.417121
0.422084
0.431027
0.435347
0.442518
0.441405
0.442289
0.43542
0.445548
0.453712
0.474128
0.480988
0.47722
0.469715
0.417359
0.33088
0.264094
0.233388
0.225047
0.24991
0.284231
0.323267
0.337768
0.347169
0.344624
0.346258
0.343974
0.347202
0.34817
0.352085
0.353634
0.356641
0.357904
0.359707
0.359772
0.359233
0.357025
0.3544
0.35142
0.349066
0.347445
0.346868
0.347238
0.348278
0.34972
0.351004
0.352182
0.352796
0.353377
0.353361
0.353729
0.353563
0.354473
0.354847
0.35718
0.358812
0.363377
0.367265
0.373329
0.37084
0.344881
0.364111
0.385376
0.397763
0.394695
0.375651
0.345863
0.313315
0.285217
0.266671
0.261089
0.270463
0.292965
0.320132
0.341887
0.354973
0.361599
0.364851
0.366586
0.367834
0.368899
0.370068
0.371246
0.372645
0.374038
0.375722
0.377331
0.379318
0.381112
0.383417
0.385347
0.388013
0.390055
0.393233
0.395437
0.399299
0.401621
0.406574
0.409917
0.417376
0.422355
0.431327
0.435675
0.44292
0.441897
0.442967
0.436239
0.446398
0.454404
0.47457
0.481269
0.47722
0.469622
0.41566
0.329647
0.263755
0.234221
0.227378
0.254031
0.289216
0.327881
0.341718
0.350597
0.347817
0.349283
0.34694
0.350062
0.350917
0.35464
0.355987
0.358756
0.359788
0.361354
0.36121
0.360492
0.358146
0.355418
0.352364
0.349953
0.348284
0.34766
0.34798
0.348964
0.350348
0.351573
0.352697
0.353261
0.353797
0.353741
0.35407
0.353868
0.35474
0.355078
0.357362
0.35895
0.363437
0.36727
0.373234
0.370739
0.344808
0.364004
0.385323
0.39781
0.394843
0.375889
0.34618
0.313716
0.28572
0.267288
0.261792
0.271168
0.293548
0.320509
0.342081
0.355065
0.36165
0.364891
0.366626
0.367878
0.368947
0.370121
0.371302
0.372706
0.374103
0.37579
0.377403
0.379395
0.381194
0.383506
0.385443
0.388118
0.39017
0.39336
0.395577
0.399455
0.401796
0.406773
0.410138
0.417615
0.422608
0.431605
0.435976
0.443288
0.442348
0.443592
0.436997
0.447178
0.455033
0.474958
0.481507
0.477185
0.469554
0.413977
0.328393
0.263396
0.235057
0.229718
0.25809
0.293979
0.332159
0.345313
0.353692
0.350692
0.352006
0.349607
0.352632
0.353385
0.356932
0.358096
0.36065
0.361473
0.362826
0.362493
0.361614
0.359146
0.356327
0.353209
0.350748
0.349037
0.34837
0.348644
0.349578
0.350907
0.352079
0.353154
0.353672
0.354168
0.354074
0.354368
0.354134
0.354971
0.355274
0.35751
0.359055
0.363466
0.367244
0.373106
0.370604
0.344736
0.363897
0.38527
0.397857
0.39499
0.376125
0.346497
0.314119
0.286229
0.267911
0.262501
0.271877
0.294134
0.320886
0.342274
0.355155
0.361698
0.364929
0.366664
0.36792
0.368993
0.370171
0.371356
0.372764
0.374164
0.375856
0.377472
0.37947
0.381273
0.38359
0.385534
0.388218
0.390279
0.393481
0.395709
0.399601
0.401961
0.406961
0.410346
0.417839
0.422844
0.431861
0.436253
0.443625
0.442762
0.444168
0.437698
0.447895
0.455607
0.475298
0.481706
0.477119
0.46951
0.412314
0.327124
0.263022
0.235901
0.232072
0.262088
0.298525
0.33612
0.34858
0.356481
0.353279
0.354453
0.352004
0.354939
0.355597
0.358985
0.359983
0.362344
0.362978
0.364139
0.363636
0.362614
0.360038
0.35714
0.353964
0.351461
0.349712
0.349007
0.349239
0.350126
0.351405
0.352529
0.353557
0.354035
0.354494
0.354367