/*--------------------------------*- C++ -*----------------------------------*\
| =========                 |                                                 |
| \\      /  F ield         | OpenFOAM: The Open Source CFD Toolbox           |
|  \\    /   O peration     | Version:  2412                                  |
|   \\  /    A nd           | Website:  www.openfoam.com                      |
|    \\/     M anipulation  |                                                 |
\*---------------------------------------------------------------------------*/
FoamFile
{
    version     2.0;
    format      ascii;
    arch        "LSB;label=32;scalar=64";
    class       volScalarField;
    location    "0.5";
    object      p;
}
// * * * * * * * * * * * * * * * * * * * * * * * * * * * * * * * * * * * * * //

dimensions      [0 2 -2 0 0 0 0];

internalField   nonuniform List<scalar> 
13079
(
109090
108926
108810
108543
108360
108067
107866
107614
107442
107238
107086
106890
106722
106489
106285
106002
105766
105425
105160
104745
104450
103938
103614
102973
102626
101809
101450
100391
100044
98649.8
98355.8
96487.1
96320.6
93770.5
93856.7
90312.6
90860.2
85841.4
87199.6
79953.5
82708.2
72062.7
77296
61491.8
71234.1
47443.1
64852.5
27721.8
56297
-4240.42
40793.9
-58875.8
14609.2
-158705
-8986.84
-75229.2
8146.51
-34299.1
16150.3
-10302
22830.3
8519
30604
23323.9
37933.1
34905.9
44861
44235.3
51003.3
51354.7
55873.9
56601.7
59688.6
60554
62724
63585.4
65149.7
109072
108911
108796
108532
108351
108060
107861
107611
107439
107236
107083
106887
106718
106485
106281
105998
105762
105420
105155
104739
104445
103932
103609
102966
102620
101801
101443
100383
100037
98640.1
98348.4
96475.9
96312.7
93757.4
93848.4
90297.2
90851.6
85823.3
87191
79932.2
82700.4
72038.8
77289.7
61464.7
71224.7
47405.9
64826.2
27663.8
56245.8
-4306.04
40736.5
-58877.8
14629
-158171
-8837.3
-75214.4
8168.35
-34304.9
16166
-10309.4
22840.8
8513.11
30615.9
23321.3
37943.9
34904
44869.7
44234.8
51012.1
51357.7
55884.1
56607.6
59699.1
60560.7
62733.2
63591.6
65157.4
109054
108895
108781
108521
108341
108054
107855
107607
107436
107233
107081
106884
106715
106481
106277
105993
105758
105416
105151
104734
104440
103926
103604
102960
102614
101794
101437
100375
100030
98630.5
98341.1
96464.8
96304.9
93744.4
93840.2
90281.9
90843.1
85805.2
87182.6
79911.2
82692.8
72015.2
77283.5
61437.9
71215.7
47369.1
64800.6
27606.8
56196.1
-4369.91
40681
-58877.8
14649.8
-157640
-8689.56
-75199.7
8190.03
-34310.5
16182.2
-10315.7
22853
8509
30629.6
23320.3
37956.3
34903.5
44879.6
44235.4
51021.7
51361.3
55894.8
56613.6
59709.5
60567.2
62742.1
63597.5
65164.7
109037
108880
108767
108509
108332
108046
107850
107603
107433
107231
107078
106881
106711
106477
106273
105989
105754
105411
105146
104729
104435
103921
103598
102953
102608
101787
101431
100367
100023
98621
98333.8
96453.8
96297.2
93731.6
93832.1
90266.8
90834.8
85787.4
87174.3
79890.4
82685.3
71991.8
77277.6
61411.4
71206.9
47332.9
64775.6
27550.8
56147.6
-4432.12
40627.3
-58875.8
14671.5
-157112
-8543.56
-75185
8211.5
-34315.9
16199
-10320.9
22866.8
8506.71
30645.3
23321
37970.2
34904.2
44890.6
44236.9
51032
51365.4
55905.6
56619.7
59719.8
60573.4
62750.6
63603
65171.7
109019
108865
108753
108498
108322
108039
107844
107599
107430
107228
107076
106878
106708
106473
106269
105985
105750
105407
105142
104725
104430
103915
103593
102947
102603
101780
101424
100358
100016
98611.6
98326.6
96442.8
96289.6
93718.8
93824.1
90251.8
90826.6
85769.7
87166.1
79869.7
82678.1
71968.7
77271.9
61385.3
71198.6
47297.3
64751.4
27495.6
56100.2
-4492.88
40575.2
-58872.1
14694.1
-156588
-8399.21
-75170.5
8232.45
-34321.4
16216.3
-10324.9
22882.5
8506.3
30662.7
23323.2
37985.6
34906.1
44902.7
44239.2
51042.9
51369.8
55916.6
56625.6
59729.8
60579.2
62758.6
63608
65178.2
65987.5
67184.2
67988.9
68983.8
69827.4
70708.9
71599.2
72367.7
73272.2
73880.5
74779.8
75181.7
76102.2
76254.7
77270.3
77106
78347.5
77732.8
79426.6
78094.8
80658.3
78105.2
109002
108850
108739
108487
108312
108032
107839
107595
107427
107226
107073
106875
106704
106469
106265
105981
105746
105402
105137
104720
104426
103910
103588
102941
102597
101772
101418
100350
100010
98602.2
98319.5
96432
96282
93706.1
93816.2
90236.9
90818.5
85752.2
87158.1
79849.3
82671
71945.9
77266.5
61359.6
71190.8
47262.3
64727.7
27441.3
56053.8
-4552.23
40524.6
-58866.9
14717.4
-156068
-8256.44
-75156.2
8252.82
-34327.1
16234.1
-10327.6
22899.9
8507.74
30681.9
23326.9
38002.2
34909.1
44915.7
44242.1
51054.2
51374.3
55927.4
56631.1
59739.3
60584.4
62766.1
63612.5
65184.3
65992
67189.9
67993.8
68989.1
69832.2
70713.1
71602.9
72370
73274.5
73880.9
74781.1
75180.6
76103.3
76252.7
77272.1
77103.4
78351
77729.9
79432.3
78091.7
80665.8
78102.9
108985
108835
108725
108476
108303
108025
107833
107591
107424
107223
107071
106872
106701
106465
106261
105977
105741
105398
105133
104715
104421
103904
103583
102935
102591
101765
101412
100342
100003
98592.9
98312.4
96421.2
96274.5
93693.5
93808.3
90222.2
90810.4
85734.8
87150.2
79829.1
82664.1
71923.4
77261.4
61334.4
71183.4
47227.8
64704.7
27387.8
56008.5
-4610.21
40475.6
-58860.1
14741.5
-155552
-8115.25
-75142.2
8272.66
-34332.8
16252.4
-10329.1
22919.1
8510.93
30702.7
23331.9
38020
34913.1
44929.3
44245.4
51065.7
51378.7
55938
56636.3
59748.3
60589.1
62773
63616.4
65189.9
65996
67195.2
67998.4
68994.2
69836.7
70717.1
71606.4
72372.1
73276.6
73881
74782.2
75179.4
76104.2
76250.6
77273.8
77100.8
78354.2
77726.9
79437.8
78088.5
80673
78100.4
108968
108821
108711
108466
108294
108019
107828
107587
107421
107221
107068
106869
106698
106462
106257
105973
105737
105393
105129
104710
104416
103899
103578
102929
102586
101758
101406
100334
99996.6
98583.6
98305.3
96410.4
96267
93681
93800.5
90207.5
90802.5
85717.6
87142.5
79809.1
82657.4
71901.2
77256.5
61309.5
71176.4
47193.9
64682.4
27335.1
55964.3
-4666.84
40428
-58851.9
14766.2
-155039
-7975.61
-75128.4
8291.97
-34338.6
16271.2
-10329.3
22940.1
8515.74
30724.8
23338
38038.7
34917.7
44943.5
44249
51077.1
51382.9
55948.1
56640.9
59756.6
60593.1
62779.3
63619.8
65194.9
65999.6
67200.1
68002.7
68998.9
69841
70720.8
71609.6
72373.9
73278.4
73881
74783
75177.9
76105
76248.3
77275.4
77098
78357.3
77723.7
79443.1
78085.2
80679.9
78097.9
108951
108806
108698
108455
108284
108012
107823
107583
107418
107218
107066
106866
106694
106458
106254
105969
105733
105389
105125
104705
104412
103893
103573
102922
102580
101751
101400
100326
99990
98574.4
98298.3
96399.7
96259.6
93668.6
93792.8
90192.9
90794.7
85700.5
87134.8
79789.3
82650.8
71879.2
77251.9
61285
71169.8
47160.6
64660.7
27283.3
55921
-4722.17
40381.7
-58842.3
14791.5
-154530
-7837.48
-75114.8
8310.76
-34344.5
16290.4
-10328.3
22962.6
8522.01
30748
23344.9
38058.1
34922.8
44958
44252.7
51088.4
51386.8
55957.7
56644.9
59764.2
60596.4
62784.9
63622.6
65199.5
66002.9
67204.7
68006.6
69003.4
69845
70724.2
71612.6
72375.5
73280
73880.7
74783.7
75176.3
76105.7
76245.9
77276.8
77095.1
78360.3
77720.5
79448.2
78081.9
80686.6
78095.4
108935
108792
108684
108444
108275
108005
107817
107580
107415
107215
107063
106864
106691
106454
106250
105965
105730
105385
105120
104700
104407
103888
103568
102916
102575
101744
101394
100318
99983.5
98565.2
98291.3
96389.1
96252.2
93656.2
93785.2
90178.5
90786.9
85683.5
87127.3
79769.7
82644.4
71857.5
77247.5
61260.9
71163.5
47127.9
64639.6
27232.3
55878.8
-4776.24
40336.9
-58831.3
14817.3
-154024
-7700.83
-75101.3
8329.06
-34350.5
16310
-10326.2
22986.6
8529.56
30772.1
23352.5
38077.9
34928.3
44972.7
44256.3
51099.4
51390.1
55966.7
56648.1
59771.1
60599
62789.9
63624.9
65203.6
66005.7
67208.9
68010.3
69007.6
69848.8
70727.4
71615.4
72376.9
73281.4
73880.3
74784.3
75174.6
76106.1
76243.4
77278.1
77092.1
78363.2
77717.1
79453.2
78078.6
80693.2
78093
108918
108777
108671
108434
108266
107998
107812
107576
107412
107213
107061
106861
106688
106450
106246
105961
105726
105380
105116
104695
104402
103883
103563
102910
102569
101737
101388
100310
99977
98556.1
98284.4
96378.6
96244.9
93643.9
93777.6
90164.1
90779.2
85666.7
87119.8
79750.3
82638.2
71836.1
77243.3
61237.2
71157.6
47095.6
64619.1
27182.2
55837.6
-4829.08
40293.3
-58819
14843.6
-153522
-7565.64
-75088
8346.87
-34356.7
16329.9
-10323
23012
8538.15
30796.9
23360.5
38097.9
34933.9
44987.3
44259.7
51110
51392.8
55974.9
56650.6
59777.3
60600.9
62794.2
63626.5
65207.2
66008
67212.7
68013.7
69011.5
69852.3
70730.5
71617.9
72378.1
73282.6
73879.6
74784.6
75172.6
76106.5
76240.7
77279.3
77089
78365.9
77713.8
79458.1
78075.3
80699.6
78090.6
108902
108763
108658
108423
108257
107991
107807
107572
107409
107210
107058
106858
106684
106447
106242
105957
105722
105376
105112
104691
104398
103877
103558
102904
102564
101731
101382
100302
99970.6
98547
98277.5
96368.1
96237.7
93631.7
93770
90149.8
90771.6
85650
87112.5
79731
82632
71814.9
77239.4
61213.8
71152.1
47063.9
64599.2
27132.8
55797.3
-4880.75
40250.9
-58805.5
14870.4
-153024
-7431.89
-75074.8
8364.23
-34363.1
16350.2
-10318.8
23038.4
8547.58
30822
23368.7
38118
34939.5
45001.7
44262.7
51119.9
51394.9
55982.3
56652.3
59782.6
60602
62797.8
63627.6
65210.3
66010
67216.2
68016.7
69015.2
69855.6
70733.2
71620.3
72379.1
73283.7
73878.8
74784.8
75170.6
76106.7
76237.9
77280.4
77085.8
78368.6
77710.3
79462.9
78071.9
80705.8
78088.3
108886
108749
108644
108413
108248
107985
107801
107568
107406
107208
107056
106855
106681
106443
106239
105953
105718
105372
105108
104686
104393
103872
103553
102898
102558
101724
101376
100294
99964.2
98538
98270.7
96357.6
96230.4
93619.6
93762.5
90135.6
90764
85633.4
87105.2
79711.9
82626.1
71793.9
77235.6
61190.7
71146.9
47032.7
64579.8
27084.2
55757.9
-4931.29
40209.7
-58790.9
14897.5
-152529
-7299.53
-75061.6
8381.14
-34369.6
16370.7
-10313.8
23065.9
8557.6
30847.4
23376.9
38138
34944.9
45015.8
44265.2
51129.2
51396.1
55988.9
56653.2
59787.1
60602.5
62800.7
63628.1
65212.9
66011.6
67219.3
68019.5
69018.6
69858.7
70735.8
71622.5
72380
73284.5
73877.9
74784.9
75168.4
76106.8
76235
77281.3
77082.5
78371.1
77706.8
79467.5
78068.5
80711.8
78086.1
108870
108735
108631
108402
108239
107978
107796
107564
107403
107205
107053
106852
106678
106439
106235
105949
105714
105368
105103
104681
104389
103867
103548
102892
102553
101717
101370
100287
99957.8
98529
98263.8
96347.3
96223.2
93607.5
93755.1
90121.5
90756.5
85616.9
87098.1
79693
82620.2
71773.2
77232
61167.9
71142
47001.9
64561
27036.5
55719.4
-4980.74
40169.7
-58775.1
14925
-152038
-7168.54
-75048.5
8397.64
-34376.2
16391.5
-10308
23094
8567.98
30872.6
23384.8
38157.6
34950
45029.4
44267.1
51137.8
51396.6
55994.6
56653.3
59790.9
60602.2
62803.1
63628.2
65215
66012.8
67222.2
68022
69021.8
69861.5
70738.2
71624.5
72380.6
73285.3
73876.8
74784.8
75166.1
76106.8
76232
77282.2
77079.2
78373.6
77703.3
79472.1
78065.1
80717.7
78083.9
108855
108721
108618
108392
108230
107971
107791
107560
107400
107203
107051
106849
106674
106436
106231
105945
105710
105363
105099
104676
104384
103861
103543
102886
102547
101710
101364
100279
99951.5
98520.1
98257
96336.9
96216.1
93595.5
93747.7
90107.5
90749.1
85600.6
87091
79674.2
82614.5
71752.6
77228.6
61145.5
71137.3
46971.6
64542.8
26989.4
55681.7
-5029.14
40130.7
-58758.3
14952.8
-151550
-7038.89
-75035.4
8413.73
-34383
16412.5
-10301.5
23122.8
8578.5
30897.6
23392.4
38176.8
34954.6
45042.4
44268.4
51145.5
51396.2
55999.5
56652.5
59793.8
60601.3
62804.8
63627.6
65216.8
66013.6
67224.7
68024.2
69024.7
69864.2
70740.4
71626.4
72381.1
73285.8
73875.6
74784.6
75163.6
76106.6
76228.9
77282.9
77075.8
78376
77699.7
79476.5
78061.7
80723.5
78081.8
108839
108708
108606
108382
108221
107965
107786
107557
107397
107200
107048
106846
106671
106432
106228
105941
105706
105359
105095
104672
104380
103856
103538
102880
102542
101703
101358
100271
99945.1
98511.2
98250.3
96326.6
96209
93583.6
93740.4
90093.6
90741.8
85584.3
87084.1
79655.5
82608.9
71732.3
77225.3
61123.3
71133
46941.8
64525
26943.1
55644.9
-5076.55
40092.8
-58740.4
14980.8
-151066
-6910.55
-75022.3
8429.46
-34390
16433.5
-10294.4
23151.8
8588.96
30922.1
23399.5
38195.4
34958.7
45054.8
44268.9
51152.4
51394.9
56003.5
56650.9
59796
60599.7
62806
63626.7
65218.1
66014.1
67226.9
68026.2
69027.4
69866.6
70742.4
71628
72381.5
73286.3
73874.2
74784.3
75161.1
76106.4
76225.8
77283.6
77072.3
78378.2
77696.1
79480.9
78058.3
80729.1
78079.7
108824
108694
108593
108372
108212
107958
107781
107553
107394
107197
107046
106843
106668
106428
106224
105937
105702
105355
105091
104667
104375
103851
103533
102874
102537
101697
101353
100263
99938.8
98502.3
98243.6
96316.4
96201.9
93571.7
93733.1
90079.8
90734.5
85568.2
87077.2
79637.1
82603.3
71712.1
77222.2
61101.4
71128.9
46912.4
64507.8
26897.6
55608.9
-5122.99
40055.8
-58721.6
15009.1
-150585
-6783.5
-75009.2
8444.83
-34397.1
16454.7
-10287
23181
8599.17
30946
23406
38213.4
34962.2
45066.4
44268.6
51158.4
51392.7
56006.6
56648.5
59797.5
60597.5
62806.6
63625.2
65219
66014.3
67228.8
68027.9
69029.9
69868.9
70744.3
71629.6
72381.7
73286.6
73872.7
74783.9
75158.5
76106.1
76222.5
77284.2
77068.8
78380.4
77692.4
79485.1
78054.9
80734.6
78077.7
108808
108681
108580
108362
108203
107952
107775
107549
107391
107195
107043
106840
106665
106425
106221
105933
105699
105351
105087
104662
104371
103846
103528
102869
102531
101690
101347
100256
99932.6
98493.5
98236.9
96306.2
96194.9
93559.9
93725.9
90066
90727.2
85552.2
87070.3
79618.7
82597.9
71692.2
77219.2
61079.7
71125
46883.4
64491
26852.7
55573.6
-5168.52
40019.7
-58701.9
15037.5
-150108
-6657.7
-74996
8459.88
-34404.4
16475.9
-10279.2
23210.2
8608.97
30969.1
23411.8
38230.6
34964.9
45077.3
44267.6
51163.5
51389.8
56008.9
56645.4
59798.3
60594.6
62806.7
63623.4
65219.6
66014.1
67230.5
68029.4
69032.2
69870.9
70745.9
71631
72381.8
73286.8
73871.2
74783.4
75155.8
76105.8
76219.2
77284.8
77065.2
78382.6
77688.7
79489.2
78051.5
80739.9
78075.8
108793
108667
108568
108352
108195
107945
107770
107545
107388
107192
107041
106838
106662
106421
106217
105929
105695
105346
105083
104658
104366
103840
103523
102863
102526
101683
101341
100248
99926.3
98484.7
98230.3
96296.1
96187.9
93548.2
93718.7
90052.3
90720.1
85536.3
87063.6
79600.5
82592.6
71672.4
77216.3
61058.3
71121.3
46854.8
64474.7
26808.5
55539.1
-5213.18
39984.6
-58681.4
15066.1
-149635
-6533.14
-74982.7
8474.63
-34411.9
16497.1
-10271.3
23239.1
8618.23
30991.5
23416.8
38247
34967
45087.4
44265.8
51167.8
51386
56010.4
56641.6
59798.5
60591.3
62806.4
63621.1
65219.8
66013.7
67231.9
68030.7
69034.3
69872.9
70747.5
71632.2
72381.8
73286.9
73869.5
74782.8
75153.1
76105.3
76215.9
77285.3
77061.5
78384.6
77685
79493.3
78048.1
80745.1
78073.9
108778
108654
108555
108342
108186
107939
107765
107542
107385
107190
107038
106835
106658
106418
106213
105926
105691
105342
105079
104653
104362
103835
103518
102857
102521
101677
101335
100240
99920.1
98476
98223.6
96286
96181
93536.5
93711.5
90038.7
90712.9
85520.4
87056.9
79582.5
82587.4
71652.8
77213.6
61037.1
71117.9
46826.6
64458.8
26764.9
55505.2
-5257
39950.2
-58660
15094.8
-149164
-6409.78
-74969.4
8489.11
-34419.5
16518.3
-10263.3
23267.8
8626.82
31012.9
23420.9
38262.5
34968.3
45096.7
44263.1
51171.2
51381.4
56011.1
56637.1
59798.1
60587.4
62805.5
63618.5
65219.7
66013
67233.1
68031.8
69036.2
69874.6
70748.9
71633.4
72381.6
73287
73867.8
74782.2
75150.2
76104.8
76212.5
77285.7
77057.9
78386.6
77681.3
79497.2
78044.7
80750.1
78072.1
108763
108641
108543
108332
108178
107933
107760
107538
107382
107187
107036
106832
106655
106414
106210
105922
105687
105338
105075
104649
104357
103830
103513
102851
102515
101670
101330
100233
99914
98467.3
98217
96276
96174.1
93524.9
93704.4
90025.2
90705.9
85504.7
87050.3
79564.5
82582.2
71633.4
77211
61016.1
71114.6
46798.8
64443.2
26721.9
55472
-5300.02
39916.7
-58637.8
15123.6
-148698
-6287.59
-74955.9
8503.33
-34427.3
16539.3
-10255.3
23295.9
8634.67
31033.4
23424.3
38277.2
34968.8
45105.2
44259.7
51173.9
51376
56011.1
56632
59797
60583.1
62804.3
63615.5
65219.3
66012.1
67234
68032.7
69037.9
69876.2
70750.1
71634.4
72381.4
73286.9
73866
74781.5
75147.3
76104.3
76209
77286.1
77054.2
78388.6
77677.5
79501.1
78041.3
80755
78070.3
108749
108628
108531
108322
108169
107926
107755
107534
107379
107185
107033
106829
106652
106411
106206
105918
105683
105334
105071
104644
104353
103825
103509
102845
102510
101663
101324
100225
99907.8
98458.6
98210.5
96266
96167.2
93513.3
93697.3
90011.8
90698.8
85489.1
87043.7
79546.7
82577.2
71614.1
77208.4
60995.4
71111.6
46771.3
64428.1
26679.5
55439.4
-5342.27
39884
-58614.9
15152.4
-148234
-6166.56
-74942.3
8517.32
-34435.2
16560.3
-10247.5
23323.5
8641.71
31052.9
23426.7
38291.1
34968.6
45113
44255.6
51175.7
51369.9
56010.4
56626.3
59795.5
60578.3
62802.7
63612.2
65218.6
66011
67234.8
68033.4
69039.5
69877.7
70751.3
71635.3
72381.1
73286.7
73864.1
74780.7
75144.4
76103.6
76205.6
77286.4
77050.5
78390.5
77673.7
79504.9
78037.9
80759.8
78068.7
108734
108615
108519
108312
108161
107920
107750
107530
107376
107182
107031
106826
106649
106407
106203
105914
105680
105330
105067
104640
104349
103820
103504
102839
102505
101657
101318
100218
99901.7
98450
98204
96256.1
96160.3
93501.8
93690.3
89998.4
90691.8
85473.5
87037.2
79529
82572.2
71595
77206
60974.9
71108.6
46744.1
64413.4
26637.7
55407.5
-5383.81
39851.9
-58591.3
15181.3
-147775
-6046.66
-74928.6
8531.12
-34443.2
16581.1
-10239.8
23350.4
8647.9
31071.4
23428.3
38304.1
34967.7
45119.9
44250.7
51176.9
51363.2
56009.1
56620
59793.5
60573.1
62800.7
63608.7
65217.7
66009.6
67235.4
68034
69041
69879.1
70752.3
71636.1
72380.6
73286.5
73862.2
74779.9
75141.4
76103
76202
77286.7
77046.7
78392.3
77670
79508.6
78034.6
80764.5
78067
108720
108602
108507
108303
108152
107914
107745
107527
107373
107179
107028
106823
106646
106404
106199
105910
105676
105326
105063
104635
104344
103815
103499
102834
102500
101650
101312
100210
99895.6
98441.4
98197.5
96246.2
96153.5
93490.4
93683.3
89985.1
90684.9
85458.1
87030.8
79511.5
82567.3
71576
77203.6
60954.5
71105.9
46717.2
64399
26596.5
55376
-5424.64
39820.6
-58567
15210.2
-147318
-5927.86
-74914.6
8544.73
-34451.3
16601.7
-10232.5
23376.6
8653.21
31089
23429.1
38316.3
34966
45126.2
44245.2
51177.3
51355.8
56007.2
56613.2
59791
60567.5
62798.4
63604.9
65216.6
66008
67235.8
68034.4
69042.3
69880.3
70753.3
71636.9
72380.2
73286.2
73860.2
74779
75138.4
76102.3
76198.5
77286.9
77043
78394.1
77666.2
79512.3
78031.2
80769
78065.4
108705
108590
108495
108293
108144
107908
107740
107523
107370
107177
107026
106821
106643
106400
106196
105907
105672
105322
105059
104631
104340
103810
103494
102828
102495
101644
101307
100203
99889.5
98432.9
98191
96236.4
96146.8
93479
93676.4
89971.8
90678
85442.7
87024.4
79494
82562.4
71557.2
77201.4
60934.4
71103.3
46690.6
64384.9
26555.7
55345.2
-5464.81
39789.9
-58542.1
15239
-146865
-5810.14
-74900.5
8558.19
-34459.6
16622.2
-10225.5
23401.9
8657.63
31105.6
23429.1
38327.8
34963.7
45131.7
44239
51177.1
51347.9
56004.7
56606
59788.1
60561.6
62795.9
63600.8
65215.2
66006.3
67236
68034.7
69043.5
69881.5
70754.1
71637.5
72379.6
73285.9
73858.1
74778.1
75135.4
76101.6
76194.9
77287.1
77039.2
78395.8
77662.4
79515.8
78027.9
80773.5
78063.9
108691
108577
108483
108284
108136
107901
107735
107519
107367
107174
107023
106818
106640
106397
106192
105903
105669
105318
105055
104626
104336
103805
103490
102822
102489
101637
101301
100195
99883.5
98424.4
98184.6
96226.6
96140
93467.6
93669.5
89958.7
90671.2
85427.5
87018.1
79476.7
82557.6
71538.5
77199.2
60914.4
71100.7
46664.4
64371.1
26515.5
55314.8
-5504.35
39759.8
-58516.6
15267.9
-146415
-5693.47
-74886.1
8571.52
-34467.9
16642.4
-10218.9
23426.5
8661.18
31121.3
23428.3
38338.4
34960.8
45136.6
44232.2
51176.3
51339.5
56001.8
56598.3
59784.8
60555.4
62793
63596.5
65213.7
66004.4
67236.1
68034.8
69044.6
69882.5
70754.8
71638.1
72379
73285.5
73856
74777.1
75132.3
76100.8
76191.4
77287.3
77035.4
78397.5
77658.6
79519.3
78024.6
80777.8
78062.5
108677
108565
108472
108274
108128
107895
107730
107516
107364
107172
107021
106815
106636
106394
106189
105899
105665
105314
105051
104622
104331
103800
103485
102817
102484
101631
101296
100188
99877.5
98415.9
98178.2
96216.8
96133.3
93456.3
93662.6
89945.6
90664.4
85412.3
87011.8
79459.4
82552.9
71520
77197.1
60894.5
71098.4
46638.3
64357.6
26475.7
55284.9
-5543.29
39730.4
-58490.5
15296.7
-145969
-5577.84
-74871.5
8584.74
-34476.4
16662.3
-10212.7
23450.3
8663.87
31136
23426.7
38348.4
34957.2
45140.9
44224.9
51175
51330.5
55998.4
56590.3
59781.2
60549
62789.9
63592.1
65212
66002.4
67236.1
68034.9
69045.6
69883.5
70755.5
71638.6
72378.3
73285.1
73853.9
74776.1
75129.2
76100
76187.8
77287.5
77031.6
78399.2
77654.8
79522.7
78021.3
80782
78061.1
108663
108552
108460
108265
108119
107889
107725
107512
107361
107169
107018
106812
106633
106390
106186
105896
105661
105310
105047
104617
104327
103795
103480
102811
102479
101624
101290
100181
99871.5
98407.5
98171.8
96207.1
96126.6
93445.1
93655.7
89932.5
90657.6
85397.2
87005.5
79442.3
82548.2
71501.5
77195
60874.9
71096.1
46612.6
64344.4
26436.4
55255.5
-5581.64
39701.5
-58463.9
15325.4
-145526
-5463.23
-74856.7
8597.88
-34484.8
16682.1
-10207
23473.2
8665.74
31150
23424.5
38357.7
34953.1
45144.6
44217.1
51173.1
51321.1
55994.6
56581.9
59777.2
60542.2
62786.6
63587.4
65210.1
66000.3
67236
68034.8
69046.4
69884.3
70756.1
71639.1
72377.6
73284.6
73851.8
74775.1
75126.1
76099.2
76184.1
77287.6
77027.8
78400.8
77651.1
79526.1
78018.1
80786.1
78059.7
108649
108540
108449
108256
108111
107883
107720
107508
107358
107167
107016
106809
106630
106387
106182
105892
105658
105306
105043
104613
104323
103790
103476
102805
102474
101618
101285
100173
99865.5
98399.1
98165.4
96197.5
96120
93433.9
93648.9
89919.6
90650.9
85382.2
86999.3
79425.3
82543.6
71483.3
77193
60855.4
71093.9
46587.1
64331.4
26397.5
55226.5
-5619.44
39673.1
-58436.8
15354.1
-145086
-5349.6
-74841.6
8610.95
-34493.4
16701.5
-10201.7
23495.3
8666.81
31163.1
23421.7
38366.4
34948.4
45147.8
44208.8
51170.8
51311.4
55990.4
56573.3
59773
60535.3
62783.1
63582.6
65208.1
65998
67235.7
68034.7
69047.2
69885.1
70756.6
71639.5
72376.9
73284.1
73849.6
74774.1
75122.9
76098.4
76180.5
77287.7
77024
78402.4
77647.3
79529.4
78014.8
80790.1
78058.5
108636
108528
108437
108247
108103
107877
107715
107505
107355
107164
107013
106806
106627
106384
106179
105888
105654
105302
105039
104608
104319
103785
103471
102800
102469
101612
101279
100166
99859.5
98390.8
98159.1
96187.8
96113.3
93422.8
93642.2
89906.6
90644.2
85367.3
86993.2
79408.4
82539
71465.1
77191
60836
71091.8
46561.8
64318.6
26359
55198
-5656.71
39645.3
-58409.2
15382.7
-144650
-5236.95
-74826.3
8623.98
-34502
16720.7
-10197
23516.6
8667.12
31175.5
23418.2
38374.4
34943.3
45150.4
44200.1
51168
51301.2
55985.8
56564.3
59768.6
60528.1
62779.5
63577.7
65205.9
65995.6
67235.4
68034.5
69048
69885.8
70757.1
71639.8
72376.1
73283.6
73847.4
74773
75119.8
76097.5
76176.9
77287.7
77020.2
78403.9
77643.5
79532.6
78011.6
80794
78057.2
108622
108516
108426
108237
108095
107871
107711
107501
107352
107161
107011
106804
106624
106380
106176
105885
105651
105298
105035
104604
104314
103780
103466
102794
102464
101605
101274
100159
99853.6
98382.5
98152.8
96178.3
96106.8
93411.7
93635.4
89893.8
90637.5
85352.4
86987.1
79391.6
82534.5
71447
77189.1
60816.8
71089.7
46536.7
64306.1
26320.9
55169.8
-5693.48
39618
-58381.1
15411.2
-144216
-5125.24
-74810.7
8636.99
-34510.6
16739.6
-10192.8
23537.1
8666.73
31187.2
23414.2
38382
34937.7
45152.7
44191
51164.9
51290.8
55981
56555.1
59763.9
60520.8
62775.6
63572.6
65203.7
65993.1
67234.9
68034.2
69048.6
69886.5
70757.5
71640.1
72375.2
73283
73845.2
74771.9
75116.6
76096.7
76173.2
77287.8
77016.4
78405.4
77639.8
79535.8
78008.4
80797.7
78056.1
108609
108504
108415
108228
108087
107865
107706
107498
107349
107159
107008
106801
106621
106377
106172
105881
105647
105294
105031
104600
104310
103775
103462
102789
102459
101599
101268
100152
99847.7
98374.2
98146.5
96168.7
96100.2
93400.7
93628.7
89881
90630.9
85337.6
86981
79374.8
82530
71429.1
77187.2
60797.7
71087.8
46511.9
64293.8
26283.2
55142
-5729.75
39591.1
-58352.6
15439.6
-143786
-5014.47
-74794.8
8650
-34519.2
16758.3
-10189.1
23556.8
8665.67
31198.3
23409.7
38389
34931.7
45154.5
44181.6
51161.5
51280
55975.9
56545.7
59759
60513.3
62771.6
63567.5
65201.4
65990.6
67234.4
68033.8
69049.2
69887.1
70757.9
71640.4
72374.4
73282.4
73843
74770.9
75113.4
76095.8
76169.6
77287.8
77012.6
78406.9
77636
79538.9
78005.3
80801.4
78055
108596
108492
108404
108219
108080
107859
107701
107494
107346
107156
107006
106798
106618
106374
106169
105877
105643
105290
105028
104595
104306
103770
103457
102783
102454
101593
101263
100145
99841.9
98365.9
98140.3
96159.3
96093.7
93389.8
93622
89868.3
90624.3
85322.9
86975
79358.2
82525.5
71411.3
77185.4
60778.7
71085.9
46487.2
64281.7
26245.9
55114.6
-5765.55
39564.7
-58323.6
15467.9
-143360
-4904.6
-74778.6
8663.02
-34527.8
16776.6
-10186
23575.8
8663.99
31208.7
23404.7
38395.6
34925.4
45155.9
44171.9
51157.7
51269.1
55970.5
56536.1
59753.9
60505.7
62767.6
63562.2
65198.9
65988
67233.8
68033.3
69049.7
69887.6
70758.2
71640.6
72373.5
73281.8
73840.7
74769.8
75110.3
76094.9
76166
77287.8
77008.8
78408.4
77632.3
79541.9
78002.2
80805
78053.9
108582
108480
108393
108210
108072
107853
107696
107490
107343
107154
107003
106795
106615
106370
106166
105874
105640
105286
105024
104591
104302
103765
103453
102778
102449
101586
101257
100137
99836
98357.7
98134.1
96149.8
96087.2
93378.8
93615.4
89855.7
90617.8
85308.3
86969
79341.7
82521.1
71393.6
77183.6
60759.9
71084
46462.7
64269.8
26208.9
55087.5
-5800.91
39538.8
-58294.3
15496.1
-142936
-4795.62
-74762
8676.08
-34536.4
16794.7
-10183.3
23594.1
8661.74
31218.6
23399.3
38401.7
34918.7
45157
44161.9
51153.6
51257.9
55964.9
56526.3
59748.7
60498
62763.3
63556.9
65196.4
65985.3
67233.1
68032.8
69050.1
69888.1
70758.5
71640.8
72372.5
73281.2
73838.5
74768.6
75107.1
76094
76162.3
77287.9
77005
78409.8
77628.6
79544.9
77999.1
80808.5
78052.9
108569
108469
108382
108202
108064
107847
107691
107487
107340
107151
107000
106793
106612
106367
106162
105870
105636
105282
105020
104587
104298
103761
103448
102772
102444
101580
101252
100130
99830.2
98349.6
98127.9
96140.4
96080.7
93368
93608.7
89843.1
90611.3
85293.8
86963.1
79325.3
82516.8
71375.9
77181.8
60741.1
71082.2
46438.4
64258
26172.3
55060.7
-5835.83
39513.2
-58264.6
15524.2
-142516
-4687.51
-74745.2
8689.19
-34545
16812.5
-10181.1
23611.8
8658.97
31228
23393.5
38407.5
34911.7
45157.8
44151.7
51149.3
51246.5
55959.1
56516.4
59743.3
60490.2
62759
63551.5
65193.8
65982.5
67232.4
68032.2
69050.5
69888.6
70758.7
71641
72371.6
73280.5
73836.2
74767.5
75103.9
76093.1
76158.7
77287.8
77001.2
78411.2
77624.9
79547.8
77996
80811.8
78051.9
108557
108457
108371
108193
108056
107842
107687
107483
107337
107149
106998
106790
106609
106364
106159
105867
105633
105278
105016
104582
104293
103756
103443
102767
102439
101574
101246
100123
99824.4
98341.4
98121.7
96131
96074.2
93357.2
93602.2
89830.5
90604.8
85279.3
86957.2
79308.9
82512.4
71358.4
77180
60722.5
71080.5
46414.3
64246.4
26135.9
55034.3
-5870.33
39488.1
-58234.5
15552.2
-142098
-4580.25
-74728.1
8702.37
-34553.5
16830
-10179.4
23628.8
8655.72
31237
23387.4
38412.9
34904.5
45158.3
44141.2
51144.8
51234.9
55953.2
56506.3
59737.8
60482.2
62754.7
63546
65191.2
65979.7
67231.6
68031.6
69050.8
69889
70758.9
71641.1
72370.6
73279.9
73833.9
74766.4
75100.8
76092.2
76155.1
77287.8
76997.4
78412.5
77621.2
79550.7
77992.9
80815.1
78051
108544
108446
108361
108184
108049
107836
107682
107480
107334
107146
106995
106787
106606
106361
106156
105863
105629
105274
105012
104578
104289
103751
103439
102761
102434
101568
101241
100116
99818.6
98333.3
98115.6
96121.7
96067.8
93346.4
93595.6
89818
90598.3
85264.9
86951.3
79292.7
82508.1
71341
77178.3
60704
71078.7
46390.3
64235
26099.9
55008.2
-5904.42
39463.4
-58204.1
15580
-141684
-4473.82
-74710.6
8715.63
-34561.9
16847.3
-10178.1
23645.3
8652.03
31245.5
23381
38417.9
34897
45158.6
44130.6
51140.1
51223.2
55947.1
56496.1
59732.2
60474.3
62750.2
63540.4
65188.5
65976.9
67230.8
68031
69051.1
69889.3
70759.1
71641.2
72369.6
73279.2
73831.7
74765.3
75097.6
76091.3
76151.5
77287.8
76993.7
78413.9
77617.5
79553.5
77989.9
80818.3
78050.2
108531
108435
108350
108175
108041
107830
107677
107476
107331
107143
106993
106784
106603
106357
106152
105860
105626
105271
105009
104574
104285
103746
103434
102756
102429
101562
101236
100109
99812.9
98325.3
98109.4
96112.4
96061.4
93335.7
93589.1
89805.6
90591.9
85250.6
86945.5
79276.5
82503.9
71323.7
77176.6
60685.6
71077
46366.5
64223.7
26064.2
54982.3
-5938.13
39439
-58173.4
15607.8
-141273
-4368.21
-74692.7
8729
-34570.3
16864.3
-10177.3
23661.2
8647.94
31253.6
23374.3
38422.7
34889.3
45158.6
44119.8
51135.2
51211.4
55940.9
56485.9
59726.5
60466.2
62745.7
63534.9
65185.7
65974
67229.9
68030.3
69051.4
69889.6
70759.2
71641.3
72368.6
73278.5
73829.4
74764.1
75094.4
76090.4
76147.8
77287.8
76989.9
78415.2
77613.9
79556.3
77987
80821.5
78049.4
108519
108423
108339
108167
108034
107824
107673
107473
107328
107141
106990
106781
106600
106354
106149
105856
105622
105267
105005
104570
104281
103741
103430
102750
102424
101556
101230
100102
99807.1
98317.3
98103.4
96103.2
96055
93325
93582.6
89793.3
90585.5
85236.3
86939.7
79260.4
82499.7
71306.5
77174.9
60667.3
71075.4
46342.9
64212.5
26028.7
54956.8
-5971.45
39415
-58142.3
15635.4
-140865
-4263.39
-74674.6
8742.48
-34578.7
16881
-10176.9
23676.6
8643.49
31261.4
23367.4
38427.3
34881.5
45158.4
44108.9
51130.2
51199.5
55934.5
56475.5
59720.7
60458.1
62741.1
63529.3
65182.9
65971
67229
68029.5
69051.6
69889.9
70759.3
71641.4
72367.6
73277.8
73827.1
74763
75091.3
76089.5
76144.2
77287.7
76986.2
78416.4
77610.2
79559
77984
80824.5
78048.6
108506
108412
108329
108158
108026
107819
107668
107469
107326
107138
106988
106779
106597
106351
106146
105853
105619
105263
105001
104565
104277
103737
103426
102745
102419
101549
101225
100095
99801.4
98309.3
98097.3
96094
96048.7
93314.4
93576.1
89781
90579.2
85222.1
86933.9
79244.5
82495.5
71289.4
77173.2
60649.1
71073.7