/*--------------------------------*- C++ -*----------------------------------*\
| =========                 |                                                 |
| \\      /  F ield         | OpenFOAM: The Open Source CFD Toolbox           |
|  \\    /   O peration     | Version:  2412                                  |
|   \\  /    A nd           | Website:  www.openfoam.com                      |
|    \\/     M anipulation  |                                                 |
\*---------------------------------------------------------------------------*/
FoamFile
{
    version     2.0;
    format      ascii;
    arch        "LSB;label=32;scalar=64";
    class       surfaceScalarField;
    location    "0.5";
    object      phi;
}
// * * * * * * * * * * * * * * * * * * * * * * * * * * * * * * * * * * * * * //

dimensions      [0 3 -1 0 0 0 0];

oriented        oriented;

internalField   nonuniform List<scalar> 
25926
(
0.00749676
-0.025446
0.00745566
-0.0213068
0.00744157
-0.0176416
0.0074332
-0.0140339
0.00741774
-0.00931385
0.00738671
-0.00375695
0.00733982
0.00214822
0.00728323
0.00747007
0.00722701
0.011568
0.00718535
0.0139657
0.00716993
0.0143654
0.00718037
0.013055
0.00720189
0.0109397
0.00722106
0.00912748
0.00723493
0.0078653
0.00724645
0.00703234
0.00725727
0.00628609
0.00726821
0.00571357
0.00727861
0.00509583
0.0072888
0.00465112
0.00729793
0.00410277
0.00730663
0.00375534
0.00731378
0.00320992
0.00732055
0.00297105
0.0073254
0.00241458
0.00733009
0.0022772
0.00733248
0.00168498
0.00733515
0.0016732
0.00733501
0.000994416
0.00733594
0.00117568
0.00733339
0.000358943
0.00733297
0.000767822
0.007328
-0.000260657
0.00732656
0.000474383
0.0073189
-0.000847336
0.00731663
0.000311221
0.00730578
-0.00142755
0.00730263
0.00031323
0.00728694
-0.00197028
0.00728096
0.000579733
0.00725874
-0.00204602
0.00725238
0.00186965
0.00723215
-0.000664521
0.00723953
0.00478184
0.00724013
0.00203849
0.00727948
0.00769198
0.00731167
0.00240067
0.00736845
0.0047951
0.00738567
-0.00403975
0.00742956
-0.00504749
0.00747012
-0.0138075
0.00755819
-0.0357699
0.0076556
-0.0629584
0.00779967
0.0162932
0.00784859
0.0488498
0.00786035
0.0290229
0.00779898
0.00483074
0.00772669
1.22582e-05
0.00763444
-0.00810942
0.007559
-0.00306988
0.00750089
-0.00476958
0.00746997
0.00046105
0.00745214
-0.00157196
0.00744376
0.00199976
0.00743841
0.000375984
0.00744076
0.00319351
0.00745063
0.00184503
0.00746945
0.00339282
0.0074903
0.00162281
0.0075096
0.00194458
0.00752117
3.20309e-05
0.00752656
-0.000263395
0.00752309
-0.00195446
0.0075141
-0.00242901
0.00749789
-0.0037171
0.00747757
-0.0040649
-0.00476495
0.00749636
-0.0253666
0.00745445
-0.0212649
0.00743923
-0.0176264
0.00742979
-0.0140244
0.00741362
-0.00929768
0.00738241
-0.00372575
0.00733597
0.00219466
0.0072804
0.00752564
0.00722574
0.0116226
0.00718597
0.0140054
0.00717229
0.0143791
0.00718376
0.0130435
0.00720555
0.0109179
0.00722472
0.00910831
0.00723862
0.0078514
0.00725025
0.00702071
0.00726119
0.00627515
0.00727222
0.00570254
0.0072827
0.00508535
0.00729294
0.00464088
0.00730211
0.00409359
0.00731085
0.00374661
0.00731804
0.00320273
0.00732483
0.00296426
0.00732971
0.00240971
0.00733441
0.0022725
0.00733681
0.00168258
0.00733949
0.00167052
0.00733936
0.000994547
0.00734029
0.00117474
0.00733774
0.000361493
0.00733732
0.000768247
0.00733233
-0.000255674
0.00733089
0.000475832
0.00732321
-0.000839662
0.00732091
0.000313517
0.00731004
-0.00141668
0.00730685
0.000316423
0.00729112
-0.00195455
0.00728512
0.000585738
0.00726295
-0.00202386
0.00725675
0.00187585
0.00723683
-0.000644606
0.00724462
0.00477405
0.00724571
0.0020374
0.00728544
0.00765225
0.00731744
0.00236867
0.00737348
0.00473907
0.00738985
-0.00405613
0.00743324
-0.00509089
0.0074733
-0.0138476
0.00755898
-0.0358556
0.00765263
-0.063052
0.00779679
0.016149
0.00784786
0.0487987
0.00785933
0.0290114
0.00779598
0.00489409
0.00772156
8.66795e-05
0.00762768
-0.00801554
0.0075528
-0.002995
0.00749606
-0.00471285
0.00746783
0.000489283
0.00745131
-0.00155545
0.00744502
0.00200605
0.00744071
0.000380298
0.00744503
0.00318919
0.00745558
0.00183448
0.00747497
0.00337343
0.00749486
0.00160291
0.00751319
0.00192625
0.00752337
2.18572e-05
0.00752783
-0.000267856
0.00752351
-0.00195014
0.007514
-0.0024195
0.00749737
-0.00370047
0.00747682
-0.00404435
-0.00473983
0.00749596
-0.0252868
0.00745325
-0.0212222
0.00743693
-0.0176101
0.00742645
-0.0140139
0.00740958
-0.00928081
0.00737821
-0.00369438
0.00733221
0.00224066
0.00727767
0.00758018
0.00722456
0.0116757
0.00718665
0.0140434
0.00717465
0.0143911
0.00718711
0.0130311
0.00720918
0.0108959
0.00722835
0.00908914
0.00724229
0.00783745
0.00725403
0.00700897
0.00726509
0.00626409
0.00727622
0.00569142
0.00728677
0.0050748
0.00729707
0.00463058
0.00730629
0.00408437
0.00731507
0.00373783
0.00732229
0.00319551
0.00732911
0.00295743
0.00733401
0.00240481
0.00733873
0.00226778
0.00734115
0.00168016
0.00734384
0.00166783
0.00734372
0.000994666
0.00734466
0.0011738
0.00734211
0.000364039
0.00734169
0.000768676
0.0073367
-0.000250689
0.00733524
0.000477297
0.00732755
-0.000831978
0.00732523
0.000315835
0.00731435
-0.00140579
0.00731111
0.000319656
0.00729536
-0.00193879
0.00728933
0.000591767
0.00726724
-0.00200177
0.00726118
0.00188191
0.00724158
-0.000625001
0.00724975
0.00476588
0.00725131
0.00203584
0.00729136
0.0076122
0.00732317
0.00233686
0.00737847
0.00468377
0.00739405
-0.0040717
0.00743696
-0.0051338
0.00747651
-0.0138871
0.00755977
-0.0359388
0.00764958
-0.0631418
0.00779374
0.0160049
0.00784694
0.0487455
0.0078582
0.0290001
0.00779304
0.00495924
0.00771668
0.000163046
0.00762135
-0.00792021
0.0075472
-0.00292085
0.00749193
-0.00465757
0.00746629
0.000514914
0.00745098
-0.00154013
0.00744656
0.00201047
0.00744314
0.000383713
0.00744918
0.00318316
0.00746025
0.00182341
0.00748004
0.00335365
0.00749901
0.00158394
0.00751646
0.00190881
0.00752542
1.28961e-05
0.00752908
-0.000271517
0.00752403
-0.00194509
0.00751406
-0.00240954
0.00749706
-0.00368347
0.00747632
-0.00402361
-0.00471459
0.00749558
-0.0252066
0.00745208
-0.0211787
0.00743468
-0.0175927
0.00742317
-0.0140024
0.00740562
-0.00926326
0.00737409
-0.00366286
0.00732855
0.00228621
0.00727503
0.00763369
0.00722345
0.0117273
0.00718737
0.0140794
0.00717703
0.0144014
0.00719046
0.0130176
0.00721279
0.0108735
0.00723196
0.00906997
0.00724595
0.00782345
0.00725782
0.00699711
0.00726899
0.00625292
0.00728021
0.0056802
0.00729083
0.00506418
0.00730119
0.00462022
0.00731047
0.00407509
0.00731928
0.00372902
0.00732654
0.00318825
0.00733339
0.00295058
0.00733832
0.00239989
0.00734306
0.00226304
0.00734549
0.00167773
0.0073482
0.00166512
0.00734809
0.000994771
0.00734904
0.00117286
0.0073465
0.000366575
0.00734607
0.000769106
0.00734109
-0.000245704
0.00733961
0.000478771
0.00733192
-0.00082429
0.00732959
0.000318171
0.00731869
-0.00139489
0.00731542
0.000322925
0.00729964
-0.00192302
0.00729359
0.000597814
0.00727158
-0.00197976
0.00726568
0.00188781
0.00724638
-0.000605702
0.00725491
0.00475735
0.00725691
0.00203384
0.00729726
0.00757185
0.00732885
0.00230527
0.00738343
0.00462918
0.00739827
-0.00408654
0.00744071
-0.00517624
0.00747974
-0.0139261
0.00756056
-0.0360196
0.00764647
-0.0632277
0.00779053
0.0158608
0.00784583
0.0486902
0.00785697
0.028989
0.00779016
0.00502605
0.00771201
0.000241191
0.00761543
-0.00782363
0.00754217
-0.00284759
0.00748842
-0.00460382
0.00746528
0.000538053
0.00745105
-0.0015259
0.0074483
0.00201323
0.00744567
0.000386339
0.00745318
0.00317565
0.00746466
0.00181193
0.00748471
0.0033336
0.00750282
0.00156583
0.00751945
0.00189218
0.00752735
4.99378e-06
0.00753032
-0.000274482
0.00752463
-0.00193941
0.00751428
-0.00239918
0.00749696
-0.00366615
0.00747605
-0.0040027
-0.00468927
0.0074952
-0.025126
0.00745094
-0.0211345
0.00743247
-0.0175742
0.00741995
-0.0139899
0.00740173
-0.00924505
0.00737007
-0.00363119
0.00732498
0.0023313
0.00727248
0.00768619
0.00722242
0.0117774
0.00718814
0.0141137
0.00717942
0.0144101
0.00719378
0.0130033
0.00721637
0.0108509
0.00723555
0.00905079
0.00724961
0.0078094
0.00726159
0.00698513
0.00727288
0.00624162
0.0072842
0.00566888
0.0072949
0.00505347
0.00730532
0.0046098
0.00731464
0.00406577
0.0073235
0.00372016
0.00733079
0.00318096
0.00733768
0.00294369
0.00734262
0.00239494
0.00734739
0.00225828
0.00734985
0.00167527
0.00735257
0.0016624
0.00735247
0.000994864
0.00735343
0.0011719
0.0073509
0.000369102
0.00735048
0.000769534
0.00734549
-0.000240722
0.00734401
0.000480254
0.00733632
-0.000816599
0.00733397
0.000320522
0.00732306
-0.00138398
0.00731976
0.000326227
0.00730396
-0.00190722
0.0072979
0.000603874
0.00727598
-0.00195783
0.00727022
0.00189357
0.00725122
-0.0005867
0.0072601
0.00474847
0.00726253
0.00203141
0.00730314
0.00753123
0.00733449
0.00227392
0.00738838
0.0045753
0.00740251
-0.00410068
0.00744449
-0.00521822
0.007483
-0.0139646
0.00756135
-0.036098
0.00764331
-0.0633097
0.00778717
0.015717
0.00784455
0.0486328
0.00785565
0.0289779
0.00778733
0.00509436
0.00770757
0.000320953
0.00760992
-0.00772598
0.00753768
-0.00277535
0.00748551
-0.00455165
0.00746473
0.000558834
0.00745147
-0.00151264
0.00745019
0.00201451
0.00744825
0.000388273
0.00745704
0.00316687
0.00746883
0.00180014
0.00748903
0.0033134
0.00750633
0.00154853
0.00752223
0.00187628
0.00752921
-1.98455e-06
0.00753157
-0.000276841
0.00752533
-0.00193318
0.00751464
-0.00238849
0.00749704
-0.00364855
0.00747599
-0.00398164
0.00745062
-0.00466391
0.00742437
-0.00462112
0.0073981
-0.00463646
0.00737472
-0.00418575
0.0073551
-0.00376548
0.00734069
-0.00319345
0.00733122
-0.00268222
0.00732589
-0.00231668
0.00732316
-0.0019894
0.0073209
-0.00198931
0.00731801
-0.0018764
0.0073125
-0.00216419
0.0073049
-0.00208077
0.00729282
-0.00255328
0.00727893
-0.00233061
0.00725872
-0.00287541
0.00723808
-0.00235689
0.00720719
-0.00289146
0.00717843
-0.00193963
0.00713056
-0.00223779
0.00709038
-0.000655791
0.00701468
-4.22484e-05
0.00380232
0.00749484
-0.0250451
0.00744981
-0.0210894
0.0074303
-0.0175547
0.00741678
-0.0139764
0.00739793
-0.0092262
0.00736612
-0.00359938
0.00732149
0.00237593
0.00727
0.00773767
0.00722145
0.0118259
0.00718895
0.0141462
0.00718182
0.0144172
0.00719709
0.012988
0.00721993
0.0108281
0.00723913
0.00903159
0.00725325
0.00779527
0.00726535
0.00697303
0.00727676
0.00623021
0.00728817
0.00565747
0.00729895
0.00504269
0.00730944
0.00459932
0.00731881
0.0040564
0.00732771
0.00371126
0.00733504
0.00317363
0.00734196
0.00293678
0.00734694
0.00238996
0.00735172
0.00225349
0.0073542
0.00167279
0.00735694
0.00165967
0.00735686
0.000994936
0.00735783
0.00117093
0.00735532
0.000371617
0.00735489
0.000769958
0.00734992
-0.000235745
0.00734843
0.000481742
0.00734074
-0.000808909
0.00733838
0.000322886
0.00732747
-0.00137307
0.00732413
0.000329558
0.00730833
-0.00189142
0.00730226
0.000609941
0.00728042
-0.00193599
0.00727482
0.00189918
0.00725611
-0.00056799
0.00726533
0.00473925
0.00726815
0.0020286
0.00730899
0.00749039
0.0073401
0.00224282
0.0073933
0.0045221
0.00740678
-0.00411415
0.00744831
-0.00525975
0.00748628
-0.0140026
0.00756213
-0.0361739
0.00764009
-0.0633876
0.00778367
0.0155734
0.00784312
0.0485734
0.00785426
0.0289668
0.00778457
0.00516405
0.00770335
0.000402173
0.00760481
-0.00762743
0.00753372
-0.00270427
0.00748315
-0.00450107
0.00746458
0.000577405
0.00745218
-0.00150025
0.00745219
0.0020145
0.00745087
0.000389601
0.00746075
0.00315699
0.00747277
0.00178811
0.00749305
0.00329312
0.00750961
0.00153197
0.00752483
0.00186106
0.00753101
-8.15551e-06
0.00753283
-0.000278671
0.00752612
-0.00192646
0.00751513
-0.00237749
0.00749729
-0.00363071
0.00747612
-0.00396048
0.00745073
-0.00463852
0.0074246
-0.00459499
0.00739859
-0.00461045
0.00737558
-0.00416274
0.00735639
-0.0037463
0.0073424
-0.00317946
0.00733327
-0.00267309
0.00732815
-0.00231156
0.0073255
-0.00198675
0.00732322
-0.00198702
0.00732024
-0.00187342
0.0073146
-0.00215855
0.0073069
-0.00207306
0.00729472
-0.0025411
0.00728078
-0.00231667
0.00726055
-0.00285519
0.00723996
-0.0023363
0.00720913
-0.00286064
0.00718051
-0.001911
0.00713291
-0.0021902
0.007093
-0.000615877
0.00701839
3.23591e-05
0.00385269
0.00749448
-0.0249638
0.00744871
-0.0210437
0.00742817
-0.0175342
0.00741368
-0.0139619
0.00739419
-0.00920671
0.00736226
-0.00356745
0.00731809
0.0024201
0.00726761
0.00778815
0.00722054
0.011873
0.0071898
0.014177
0.00718422
0.0144228
0.00720038
0.0129718
0.00722346
0.010805
0.00724269
0.00901237
0.00725688
0.00778107
0.00726911
0.00696081
0.00728064
0.00621868
0.00729215
0.00564596
0.007303
0.00503184
0.00731355
0.00458877
0.00732298
0.00404697
0.00733192
0.00370231
0.00733929
0.00316626
0.00734624
0.00292983
0.00735125
0.00238495
0.00735606
0.00224868
0.00735856
0.00167029
0.00736132
0.00165691
0.00736126
0.000994991
0.00736224
0.00116995
0.00735974
0.000374115
0.00735933
0.000770376
0.00735436
-0.000230777
0.00735287
0.000483233
0.00734518
-0.000801224
0.00734281
0.000325258
0.0073319
-0.00136216
0.00732854
0.000332913
0.00731273
-0.00187561
0.00730666
0.000616009
0.00728492
-0.00191424
0.00727946
0.00190463
0.00726104
-0.000549567
0.00727058
0.0047297
0.00727377
0.0020254
0.00731482
0.00744934
0.00734567
0.00221197
0.0073982
0.00446957
0.00741106
-0.00412701
0.00745215
-0.00530084
0.00748957
-0.01404
0.00756292
-0.0362472
0.00763682
-0.0634615
0.00778004
0.0154302
0.00784153
0.0485119
0.00785278
0.0289555
0.00778188
0.00523495
0.00769936
0.000484694
0.00760009
-0.00752816
0.00753026
-0.00263445
0.00748128
-0.0044521
0.00746476
0.000593924
0.00745314
-0.00148862
0.00745428
0.00201336
0.00745349
0.000390395
0.00746431
0.00314617
0.0074765
0.00177592
0.0074968
0.00327283
0.00751268
0.00151609
0.0075273
0.00184643
0.00753277
-1.362e-05
0.00753413
-0.000280037
0.00752701
-0.00191934
0.00751574
-0.00236623
0.00749769
-0.00361266
0.00747643
-0.00393921
0.00745104
-0.00461313
0.00742505
-0.004569
0.00739928
-0.00458469
0.00737662
-0.00414008
0.00735784
-0.00372751
0.00734422
-0.00316584
0.0073354
-0.00266426
0.00733046
-0.00230662
0.00732788
-0.00198417
0.00732555
-0.0019847
0.00732248
-0.00187035
0.00731672
-0.00215279
0.00730893
-0.00206527
0.00729667
-0.00252884
0.00728269
-0.0023027
0.00726246
-0.00283495
0.00724191
-0.00231575
0.00721117
-0.0028299
0.00718268
-0.00188252
0.00713538
-0.0021429
0.00709575
-0.000576244
0.00702225
0.000105864
0.00390194
0.00749413
-0.0248822
0.00744762
-0.0209972
0.00742607
-0.0175126
0.00741063
-0.0139465
0.00739053
-0.0091866
0.00735848
-0.00353541
0.00731477
0.00246381
0.0072653
0.00783762
0.0072197
0.0119186
0.00719068
0.014206
0.00718663
0.0144269
0.00720366
0.0129548
0.00722698
0.0107817
0.00724623
0.00899311
0.00726051
0.0077668
0.00727286
0.00694846
0.00728451
0.00620703
0.00729611
0.00563436
0.00730705
0.0050209
0.00731766
0.00457817
0.00732714
0.00403749
0.00733613
0.00369332
0.00734354
0.00315885
0.00735052
0.00292285
0.00735556
0.00237991
0.0073604
0.00224384
0.00736292
0.00166776
0.0073657
0.00165414
0.00736567
0.000995023
0.00736666
0.00116896
0.00736418
0.000376599
0.00736377
0.000770786
0.00735881
-0.00022582
0.00735732
0.000484724
0.00734964
-0.000793546
0.00734727
0.000327638
0.00733636
-0.00135125
0.00733298
0.00033629
0.00731717
-0.0018598
0.00731111
0.000622074
0.00728945
-0.00189259
0.00728415
0.00190994
0.007266
-0.000531424
0.00727585
0.00471985
0.0072794
0.00202185
0.00732063
0.00740811
0.00735121
0.00218139
0.00740309
0.00441769
0.00741537
-0.00413929
0.00745603
-0.0053415
0.00749288
-0.0140769
0.0075637
-0.036318
0.0076335
-0.0635313
0.00777628
0.0152874
0.00783979
0.0484484
0.00785125
0.028944
0.00777925
0.00530695
0.00769558
0.000568362
0.00759576
-0.00742833
0.00752727
-0.00256596
0.00747988
-0.0044047
0.00746525
0.000608556
0.0074543
-0.00147767
0.00745643
0.00201122
0.00745611
0.000390718
0.00746773
0.00313454
0.00748005
0.00176361
0.00750032
0.00325256
0.00751558
0.00150083
0.00752966
0.00183235
0.00753451
-1.84652e-05
0.00753547
-0.000280995
0.00752798
-0.00191185
0.00751648
-0.00235474
0.00749825
-0.00359443
0.00747691
-0.00391787
0.00745154
-0.00458776
0.00742568
-0.00454314
0.00740016
-0.00455916
0.00737783
-0.00411775
0.00735942
-0.0037091
0.00734615
-0.00315258
0.00733759
-0.0026557
0.00733281
-0.00230184
0.00733027
-0.00198163
0.0073279
-0.00198233
0.00732475
-0.00186719
0.00731888
-0.00214692
0.00731099
-0.00205738
0.00729866
-0.0025165
0.00728466
-0.0022887
0.00726443
-0.00281471
0.00724394
-0.00229526
0.0072133
-0.00279926
0.00718496
-0.00185418
0.00713797
-0.0020959
0.00709863
-0.000536909
0.00702623
0.000178261
0.00395008
0.00749378
-0.0248002
0.00744656
-0.0209499
0.00742401
-0.0174901
0.00740764
-0.0139301
0.00738693
-0.00916589
0.00735478
-0.00350326
0.00731154
0.00250706
0.00726306
0.0078861
0.00721892
0.0119627
0.00719161
0.0142333
0.00718905
0.0144294
0.00720692
0.0129369
0.00723047
0.0107581
0.00724977
0.00897382
0.00726412
0.00775244
0.0072766
0.00693599
0.00728837
0.00619525
0.00730008
0.00562265
0.00731109
0.00500989
0.00732176
0.00456749
0.0073313
0.00402796
0.00734033
0.00368428
0.00734778
0.00315141
0.0073548
0.00291583
0.00735987
0.00237484
0.00736473
0.00223897
0.00736729
0.0016652
0.00737009
0.00165134
0.00737007
0.000995036
0.00737109
0.00116794
0.00736863
0.000379061
0.00736822
0.000771188
0.00736328
-0.000220878
0.00736179
0.000486212
0.00735413
-0.000785877
0.00735174
0.00033002
0.00734084
-0.00134035
0.00733745
0.000339684
0.00732164
-0.00184399
0.00731559
0.00062813
0.00729403
-0.00187104
0.00728888
0.0019151
0.00727101
-0.000513556
0.00728115
0.00470971
0.00728504
0.00201797
0.00732642
0.00736672
0.00735673
0.00215108
0.00740797
0.00436644
0.00741971
-0.00415103
0.00745993
-0.00538172
0.00749621
-0.0141132
0.00756447
-0.0363863
0.00763014
-0.063597
0.0077724
0.0151451
0.00783792
0.0483829
0.00784965
0.0289323
0.0077767
0.00537989
0.00769203
0.00065303
0.00759181
-0.00732811
0.00752473
-0.00249889
0.00747889
-0.00435886
0.00746598
0.00062146
0.00745563
-0.00146732
0.00745863
0.00200822
0.00745872
0.000390628
0.00747104
0.00312223
0.00748343
0.00175121
0.00750364
0.00323235
0.00751834
0.00148613
0.00753194
0.00181875
0.00753624
-2.27671e-05
0.00753684
-0.000281595
0.00752903
-0.00190404
0.00751734
-0.00234304
0.00749895
-0.00357604
0.00747755
-0.00389647
0.0074522
-0.00456241
0.00742649
-0.00451743
0.0074012
-0.00453388
0.00737919
-0.00409574
0.00736112
-0.00369102
0.00734817
-0.00313963
0.00733985
-0.00264738
0.0073352
-0.00229719
0.00733269
-0.00197912
0.00733027
-0.00197991
0.00732703
-0.00186395
0.00732106
-0.00214095
0.00731309
-0.00204942
0.00730069
-0.00250411
0.00728669
-0.0022747
0.00726646
-0.00279448
0.00724604
-0.00227484
0.0072155
-0.00276872
0.00718732
-0.001826
0.00714065
-0.00204923
0.00710162
-0.000497885
0.00703034
0.000249545
0.00399712
0.00749345
-0.0247179
0.00744551
-0.020902
0.00742199
-0.0174666
0.00740471
-0.0139128
0.00738341
-0.00914459
0.00735116
-0.00347101
0.00730838
0.00254984
0.00726089
0.00793359
0.0072182
0.0120054
0.00719257
0.0142589
0.00719147
0.0144305
0.00721016
0.0129183
0.00723395
0.0107344
0.00725328
0.00895449
0.00726773
0.007738
0.00728033
0.00692338
0.00729222
0.00618336
0.00730403
0.00561085
0.00731512
0.0049988
0.00732586
0.00455675
0.00733545
0.00401837
0.00734453
0.0036752
0.00735202
0.00314392
0.00735907
0.00290878
0.00736418
0.00236974
0.00736907
0.00223408
0.00737165
0.00166262
0.00737447
0.00164852
0.00737449
0.000995022
0.00737552
0.00116691
0.00737308
0.000381505
0.00737269
0.000771574
0.00736776
-0.000215949
0.00736628
0.000487696
0.00735862
-0.000778222
0.00735624
0.000332404
0.00734535
-0.00132946
0.00734194
0.000343092
0.00732614
-0.0018282
0.0073201
0.000634173
0.00729865
-0.00184959
0.00729364
0.00192011
0.00727605
-0.000495957
0.00728648
0.00469927
0.00729067
0.00201377
0.00733219
0.00732521
0.00736221
0.00212106
0.00741284
0.00431581
0.00742406
-0.00416225
0.00746385
-0.00542151
0.00749955
-0.0141488
0.00756525
-0.036452
0.00762674
-0.0636585
0.00776842
0.0150035
0.00783592
0.0483154
0.00784799
0.0289203
0.00777422
0.00545366
0.0076887
0.000738551
0.00758823
-0.00722764
0.00752261
-0.00243326
0.00747827
-0.00431452
0.00746694
0.000632793
0.00745711
-0.00145749
0.00746087
0.00200446
0.00746132
0.000390171
0.00747423
0.00310933
0.00748667
0.00173876
0.0075068
0.00321222
0.00752099
0.00147195
0.00753415
0.00180559
0.00753797
-2.65911e-05
0.00753826
-0.00028188
0.00753017
-0.00189595
0.0075183
-0.00233118
0.00749979
-0.00355753
0.00747834
-0.00387502
0.00745303
-0.0045371
0.00742746
-0.00449186
0.0074024
-0.00450882
0.00738069
-0.00407403
0.00736293
-0.00367326
0.00735027
-0.00312697
0.00734216
-0.00263927
0.00733762
-0.00229265
0.00733513
-0.00197664
0.00733265
-0.00197743
0.00732933
-0.00186063
0.00732326
-0.00213488
0.00731522
-0.00204138
0.00730277
-0.00249165
0.00728876
-0.00226069
0.00726855
-0.00277428
0.0072482
-0.00225449
0.00721778
-0.00273831
0.00718976
-0.00179798
0.00714342
-0.00200289
0.00710472
-0.000459188
0.00703456
0.000319713
0.00404307
0.00749312
-0.0246353
0.00744449
-0.0208534
0.00742001
-0.0174421
0.00740182
-0.0138946
0.00737995
-0.00912272
0.00734761
-0.00343867
0.0073053
0.00259216
0.0072588
0.0079801
0.00721754
0.0120467
0.00719356
0.0142829
0.0071939
0.0144302
0.00721338
0.0128988
0.0072374
0.0107103
0.00725678
0.0089351
0.00727132
0.00772346
0.00728405
0.00691065
0.00729607
0.00617134
0.00730797
0.00559895
0.00731915
0.00498763
0.00732995
0.00454595
0.0073396
0.00400872
0.00734872
0.00366607
0.00735625
0.00313639
0.00736335
0.00290168
0.00736848
0.0023646
0.00737341
0.00222916
0.00737602
0.00166001
0.00737887
0.00164568
0.0073789
0.000994983
0.00737996
0.00116585
0.00737754
0.000383924
0.00737717
0.000771946
0.00737225
-0.000211038
0.00737078
0.000489173
0.00736314
-0.000770582
0.00736075
0.000334787
0.00734987
-0.00131858
0.00734645
0.000346512
0.00733067
-0.00181242
0.00732465
0.000640199
0.00730331
-0.00182825
0.00729845
0.00192497
0.00728111
-0.000478623
0.00729182
0.00468857
0.00729631
0.00200927
0.00733793
0.0072836
0.00736767
0.00209132
0.0074177
0.00426579
0.00742844
-0.004173
0.00746781
-0.00546088
0.0075029
-0.0141839
0.00756602
-0.0365151
0.0076233
-0.0637158
0.00776433
0.0148624
0.0078338
0.0482459
0.00784628
0.0289078
0.00777182
0.00552813
0.00768559
0.000824785
0.00758501
-0.00712706
0.00752088
-0.00236913
0.00747799
-0.00427163
0.00746808
0.000642702
0.00745871
-0.00144811
0.00746313
0.00200004
0.00746391
0.000389392
0.00747731
0.00309592
0.00748979
0.00172629
0.00750982
0.00319218
0.00752354
0.00145823
0.00753631
0.00179282
0.00753971
-2.99936e-05
0.00753972
-0.000281888
0.00753139
-0.00188762
0.00751937
-0.00231916
0.00750074
-0.0035389
0.00747926
-0.00385354
0.007454
-0.00451184
0.00742858
-0.00446643
0.00740374
-0.00448398
0.00738231
-0.0040526
0.00736484
-0.0036558
0.00735244
-0.00311456
0.00734452
-0.00263135
0.00734007
-0.0022882
0.00733759
-0.00197415
0.00733506
-0.00197489
0.00733164
-0.00185721
0.00732548
-0.00212872
0.00731738
-0.00203328
0.00730488
-0.00247915
0.00729087
-0.00224668
0.00727069
-0.0027541
0.00725042
-0.00223422
0.00722013
-0.00270801
0.00719228
-0.00177013
0.00714629
-0.0019569
0.00710793
-0.000420829
0.00703888
0.000388764
0.00408794
0.00749279
-0.0245523
0.00744348
-0.0208041
0.00741806
-0.0174167
0.00739899
-0.0138756
0.00737656
-0.00910029
0.00734414
-0.00340625
0.0073023
0.002634
0.00725677
0.00802563
0.00721693
0.0120865
0.00719458
0.0143053
0.00719633
0.0144284
0.00721659
0.0128785
0.00724084
0.0106861
0.00726027
0.00891567
0.0072749
0.00770883
0.00728777
0.00689779
0.00729991
0.0061592
0.00731191
0.00558694
0.00732316
0.00497637
0.00733403
0.00453508
0.00734373
0.00399901
0.00735291
0.0036569
0.00736049
0.00312881
0.00736761
0.00289456
0.00737279
0.00235943
0.00737774
0.0022242
0.00738038
0.00165736
0.00738326
0.00164281
0.00738332
0.000994916
0.0073844
0.00116478
0.007382
0.000386321
0.00738165
0.000772302
0.00737675
-0.000206146
0.00737529
0.000490641
0.00736766
-0.000762959
0.00736528
0.000337165
0.00735442
-0.00130771
0.00735099
0.000349939
0.00733523
-0.00179666
0.00732923
0.000646202
0.007308
-0.00180702
0.00730329
0.00192968
0.00728621
-0.000461548
0.00729718
0.00467761
0.00730195
0.0020045
0.00734366
0.00724189
0.00737311
0.00206187
0.00742255
0.00421634
0.00743284
-0.00418328
0.00747178
-0.00549982
0.00750625
-0.0142184
0.00756679
-0.0365757
0.00761983
-0.0637688
0.00776014
0.0147221
0.00783157
0.0481745
0.00784453
0.0288948
0.00776949
0.00560317
0.00768268
0.000911594
0.00758213
-0.00702651
0.00751951
-0.00230651
0.007478
-0.00423013
0.00746938
0.000651329
0.00746041
-0.00143915
0.00746541
0.00199505
0.00746647
0.000388327
0.00748031
0.00308207
0.0074928
0.00171381
0.00751272
0.00317226
0.00752602
0.00144493
0.00753843
0.00178041
0.00754146
-3.30248e-05
0.00754122
-0.000281649
0.00753268
-0.00187908
0.00752053
-0.00230701
0.00750182
-0.00352019
0.00748032
-0.00383204
0.00745512
-0.00448663
0.00742983
-0.00444115
0.00740521
-0.00445935
0.00738404
-0.00403144
0.00736685
-0.00363861
0.00735469
-0.0031024
0.00734693
-0.00262359
0.00734255
-0.00228382
0.00734007
-0.00197167
0.00733747
-0.00197229
0.00733398
-0.00185373
0.00732773
-0.00212247
0.00731957
-0.00202512
0.00730704
-0.00246662
0.00729304
-0.00223267
0.00727289
-0.00273395
0.0072527
-0.00221403
0.00722254
-0.00267785
0.00719487
-0.00174247
0.00714923
-0.00191125
0.00711122
-0.000382821
0.00704329
0.000456696
0.00413176
0.00749248
-0.024469
0.00744249
-0.0207541
0.00741614
-0.0173903
0.00739621
-0.0138556
0.00737324
-0.00907732
0.00734075
-0.00337376
0.00729937
0.00267538
0.00725481
0.00807018
0.00721638
0.012125
0.00719564
0.014326
0.00719876
0.0144253
0.00721978
0.0128575
0.00724425
0.0106616
0.00726374
0.00889617
0.00727848
0.0076941
0.00729147
0.00688479
0.00730373
0.00614694
0.00731584
0.00557484
0.00732717
0.00496504
0.00733811
0.00452414
0.00734787
0.00398926
0.0073571
0.00364767
0.00736471
0.0031212
0.00737188
0.00288739
0.00737709
0.00235422
0.00738207
0.00221922
0.00738475
0.00165469
0.00738765
0.00163991
0.00738774
0.000994823
0.00738884
0.00116367
0.00738647
0.000388693
0.00738613
0.00077264
0.00738126
-0.000201276
0.0073798
0.000492099
0.0073722
-0.000755356
0.00736983
0.000339538
0.00735898
-0.00129686
0.00735555
0.00035337
0.00733981
-0.00178092
0.00733384
0.000652179
0.00731272
-0.00178591
0.00730816
0.00193424
0.00729134
-0.000444728
0.00730255
0.00466639
0.00730759
0.00199946
0.00734936
0.00720012
0.00737852
0.0020327
0.0074274
0.00416747
0.00743726
-0.00419315
0.00747577
-0.00553833
0.00750962
-0.0142523
0.00756756
-0.0366336
0.00761634
-0.0638176
0.00775587
0.0145826
0.00782922
0.0481011
0.00784273
0.0288813
0.00776724
0.00567866
0.00767998
0.000998847
0.00757958
-0.00692611
0.00751847
-0.0022454
0.00747829
-0.00418995
0.00747082
0.000658801
0.0074622
-0.00143053
0.00746771
0.00198954
0.00746902
0.000387009
0.00748324
0.00306786
0.00749571
0.00170133
0.00751552
0.00315245
0.00752844
0.00143202
0.00754053
0.00176832
0.00754323
-3.57271e-05
0.00754278
-0.000281195
0.00753405
-0.00187035
0.00752179
-0.00229475
0.007503
-0.0035014
0.0074815
-0.00381054
0.00745636
-0.00446149
0.00743122
-0.00441602
0.0074068
-0.00443493
0.00738588
-0.00401052
0.00736894
-0.00362167
0.00735699
-0.00309045
0.00734938
-0.00261598
0.00734506
-0.0022795
0.00734256
-0.00196917
0.0073399
-0.00196963
0.00733633
-0.00185016
0.00733
-0.00211615
0.00732179
-0.00201691
0.00730922
-0.00245405
0.00729524
-0.00221869
0.00727513
-0.00271384
0.00725504
-0.00219393
0.00722501
-0.00264782
0.00719753
-0.00171499
0.00715225
-0.00186598
0.00711461
-0.000345174
0.00704779
0.000523509
0.00417453
0.00749217
-0.0243854
0.00744152
-0.0207034
0.00741426
-0.017363
0.00739348
-0.0138349
0.00736997
-0.00905381
0.00733742
-0.00334121
0.00729651
0.00271629
0.00725292
0.00811377
0.00721588
0.012162
0.00719672
0.0143452
0.00720119
0.0144209
0.00722295
0.0128357
0.00724765
0.0106369
0.0072672
0.00887662
0.00728204
0.00767927
0.00729517
0.00687166
0.00730755
0.00613455
0.00731976
0.00556264
0.00733117
0.00495362
0.00734218
0.00451314
0.00735199
0.00397944
0.00736127
0.00363839
0.00736893
0.00311353
0.00737614
0.00288019
0.00738138
0.00234897
0.0073864
0.0022142
0.00738911
0.00165198
0.00739204
0.00163698
0.00739216
0.000994698
0.00739329
0.00116255
0.00739094
0.000391037
0.00739062
0.000772959
0.00738578
-0.000196429
0.00738433
0.000493544
0.00737675
-0.000747775
0.00737439
0.000341902
0.00736356
-0.00128603
0.00736012
0.000356804
0.00734442
-0.00176521
0.00733847
0.000658126
0.00731747
-0.00176491
0.00731306
0.00193866
0.00729649
-0.000428157
0.00730794
0.00465494
0.00731323
0.00199418
0.00735505
0.0071583
0.00738392
0.00200383
0.00743224
0.00411914
0.0074417
-0.0042026
0.00747979
-0.00557642
0.00751299
-0.0142855
0.00756832
-0.0366889
0.00761281
-0.0638621
0.00775151
0.0144439
0.00782678
0.0480259
0.0078409
0.0288672
0.00776506
0.0057545
0.00767749
0.00108642
0.00757735
-0.00682597
0.00751775
-0.00218579
0.00747881
-0.00415102
0.00747238
0.000665237
0.00746407
-0.00142223
0.00747002
0.0019836
0.00747156
0.000385468
0.00748609
0.00305333
0.00749855
0.00168888
0.00751824
0.00313275
0.00753081
0.00141945
0.00754261
0.00175652
0.00754502
-3.8139e-05
0.00754438
-0.00028055
0.00753549
-0.00186147
0.00752314
-0.00228239
0.00750429
-0.00348255
0.00748279
-0.00378905
0.00745772
-0.00443642
0.00743273
-0.00439103
0.00740851
-0.00441071
0.00738782
-0.00398984
0.00737111
-0.00360496
0.00735935
-0.00307869
0.00735186
-0.00260849
0.00734759
-0.00227523
0.00734507
-0.00196666
0.00734234
-0.0019669
0.00733869
-0.00184651
0.00733229
-0.00210974
0.00732404
-0.00200865
0.00731144
-0.00244146
0.00729748
-0.00220472
0.00727742
-0.00269378
0.00725742
-0.00217393
0.00722754
-0.00261794
0.00720025
-0.0016877
0.00715535
-0.00182107
0.00711807
-0.000307901
0.00705238
0.000589205
0.00421625
0.00749187
-0.0243015
0.00744057
-0.0206521
0.00741241
-0.0173349
0.0073908
-0.0138133
0.00736677
-0.00902978
0.00733416
-0.0033086
0.00729373
0.00275673
0.0072511
0.0081564
0.00721543
0.0121977
0.00719783
0.0143628
0.00720362
0.0144151
0.00722611
0.0128132
0.00725102
0.010612
0.00727065
0.00885699
0.00728559
0.00766432
0.00729886