/*--------------------------------*- C++ -*----------------------------------*\
| =========                 |                                                 |
| \\      /  F ield         | OpenFOAM: The Open Source CFD Toolbox           |
|  \\    /   O peration     | Version:  2412                                  |
|   \\  /    A nd           | Website:  www.openfoam.com                      |
|    \\/     M anipulation  |                                                 |
\*---------------------------------------------------------------------------*/
FoamFile
{
    version     2.0;
    format      ascii;
    arch        "LSB;label=32;scalar=64";
    class       volVectorField;
    location    "0.5";
    object      U;
}
// * * * * * * * * * * * * * * * * * * * * * * * * * * * * * * * * * * * * * //

dimensions      [0 1 -1 0 0 0 0];

internalField   nonuniform List<vector> 
13079
(
(100.037 1.76298 0)
(100.697 4.71833 -8.28755e-17)
(101.852 7.44811 -1.04452e-20)
(103.309 10.1977 0)
(104.729 13.6717 0)
(106.073 17.6941 0)
(107.157 21.897 0)
(108.117 25.695 0)
(109 28.6785 -1.00101e-16)
(110.04 30.5673 1.06346e-16)
(111.458 31.2145 0)
(113.415 30.8291 0)
(115.8 29.9936 0)
(118.286 29.3768 8.12639e-17)
(120.799 29.1309 0)
(123.307 29.1784 0)
(125.958 29.323 -6.58134e-17)
(128.662 29.5895 -6.36645e-17)
(131.563 29.8718 -2.69822e-21)
(134.495 30.2776 -6.02118e-17)
(137.668 30.6634 0)
(140.839 31.1953 -5.69139e-17)
(144.319 31.6658 5.53309e-17)
(147.748 32.3247 0)
(151.584 32.8704 0)
(155.297 33.6717 0)
(159.557 34.2871 4.85924e-17)
(163.585 35.2576 -4.66817e-17)
(168.366 35.939 -3.13484e-21)
(172.747 37.1174 0)
(178.177 37.8612 0)
(182.954 39.3002 0)
(189.209 40.0976 0)
(194.424 41.8626 0)
(201.736 42.7026 3.47341e-17)
(207.418 44.8771 -3.21528e-17)
(216.102 45.7544 -3.11908e-17)
(222.273 48.4331 -2.8257e-17)
(232.741 49.3726 2.75532e-17)
(239.366 52.7168 -2.40422e-17)
(252.117 53.9566 0)
(259.214 58.3471 -1.95895e-17)
(275.189 60.393 -2.00753e-17)
(283.347 66.1048 -3.05647e-17)
(304.303 69.1526 3.44917e-17)
(314.893 75.5774 0)
(343.296 78.6601 -1.53807e-17)
(357.792 83.8229 0)
(394.704 86.5074 0)
(411.935 90.0837 0)
(460.469 95.5785 -6.18114e-18)
(488.095 87.4807 0)
(556.92 93.261 0)
(614.167 1.60122 0)
(570.805 -46.164 2.84433e-18)
(552.852 -60.2327 0)
(509.411 -69.5186 6.99137e-21)
(488.091 -69.617 -1.43401e-17)
(450.885 -69.6167 8.04252e-21)
(431.692 -63.5862 -6.9469e-18)
(402.837 -60.5638 -1.83711e-17)
(388.309 -55.086 0)
(367.197 -53.4002 0)
(355.538 -49.4048 -4.26457e-21)
(338.963 -48.1035 4.20377e-17)
(328.718 -44.7998 4.08578e-17)
(315.551 -43.8018 -5.32305e-17)
(306.885 -41.5517 -5.34036e-17)
(296.45 -41.2048 5.94665e-17)
(288.755 -39.9074 -5.70699e-17)
(279.664 -39.8578 5.67786e-17)
(272.182 -38.9857 -5.18951e-21)
(263.804 -38.8956 0)
(256.499 -38.1637 0)
(248.711 -37.8946 4.37069e-17)
(241.693 -37.1213 4.18925e-17)
(234.469 -36.5491 -4.13767e-17)
(100.037 1.74454 0)
(100.687 4.67252 8.28999e-17)
(101.828 7.38085 -1.55676e-16)
(103.268 10.1219 0)
(104.675 13.5966 0)
(106.011 17.6262 0)
(107.096 21.8385 0)
(108.065 25.6435 0)
(108.968 28.6292 -9.99625e-17)
(110.034 30.5123 0)
(111.483 31.1466 0)
(113.464 30.7472 0)
(115.859 29.9046 0)
(118.346 29.2874 0)
(120.859 29.043 0)
(123.371 29.0903 0)
(126.025 29.2337 2.63348e-21)
(128.732 29.4984 6.35665e-17)
(131.636 29.7791 -6.18323e-17)
(134.571 30.1829 0)
(137.747 30.5672 -5.85405e-17)
(140.92 31.097 5.6836e-17)
(144.403 31.566 0)
(147.835 32.2227 -5.3493e-17)
(151.673 32.7668 0)
(155.388 33.5654 0)
(159.651 34.1791 -3.03505e-21)
(163.682 35.1463 4.66146e-17)
(168.466 35.8261 -4.50986e-17)
(172.85 37.0004 0)
(178.283 37.7424 4.16425e-17)
(183.063 39.1763 0)
(189.321 39.9718 0)
(194.539 41.7304 0)
(201.854 42.5689 -3.05124e-21)
(207.541 44.7353 3.20498e-17)
(216.227 45.6114 0)
(222.403 48.2804 0)
(232.874 49.2195 2.74252e-17)
(239.504 52.5524 -2.39077e-17)
(252.259 53.7924 2.35788e-17)
(259.369 58.1689 1.94511e-17)
(275.355 60.2121 1.63044e-21)
(283.543 65.9046 6.66506e-21)
(304.518 68.9427 -1.70695e-17)
(315.156 75.3423 1.11578e-17)
(343.569 78.4073 0)
(358.076 83.5427 6.09138e-18)
(394.932 86.209 0)
(412.167 89.752 -7.33953e-19)
(460.667 95.1985 6.10823e-18)
(488.302 87.0462 7.7838e-18)
(556.825 92.6589 -1.64898e-18)
(613.803 1.54764 0)
(570.73 -45.8904 -2.3205e-20)
(552.827 -59.9362 -1.72525e-17)
(509.293 -69.1853 6.76747e-21)
(487.83 -69.268 0)
(450.513 -69.2589 -1.66675e-17)
(431.294 -63.247 0)
(402.533 -60.2646 0)
(388.129 -54.8304 -7.44534e-18)
(367.134 -53.1803 0)
(355.548 -49.2084 -2.27528e-17)
(339.045 -47.9272 -3.77916e-17)
(328.865 -44.6441 0)
(315.754 -43.6652 -9.46247e-21)
(307.112 -41.4292 4.75305e-17)
(296.657 -41.0858 5.28667e-17)
(288.914 -39.7851 -5.07804e-17)
(279.769 -39.7277 -1.01519e-16)
(272.243 -38.8496 4.71763e-17)
(263.831 -38.7537 4.50971e-17)
(256.503 -38.0191 -4.21242e-17)
(248.699 -37.7474 5.89468e-21)
(241.671 -36.9739 -3.92437e-17)
(234.442 -36.4019 3.90353e-17)
(100.036 1.72636 0)
(100.678 4.62731 -8.29472e-17)
(101.806 7.31445 7.78602e-17)
(103.227 10.047 0)
(104.622 13.5222 0)
(105.949 17.5587 0)
(107.036 21.78 0)
(108.015 25.5916 0)
(108.937 28.5792 9.98268e-17)
(110.029 30.4562 1.05958e-16)
(111.508 31.0777 0)
(113.512 30.6647 0)
(115.918 29.8152 -9.15303e-17)
(118.406 29.1979 0)
(120.92 28.955 -7.31911e-17)
(123.434 29.0021 6.84837e-17)
(126.092 29.1443 6.55992e-17)
(128.802 29.4071 0)
(131.709 29.6862 -6.17477e-17)
(134.646 30.0881 0)
(137.825 30.4709 5.8472e-17)
(141.001 30.9986 -1.13539e-16)
(144.487 31.4661 0)
(147.921 32.1205 5.3433e-17)
(151.762 32.6631 -5.1853e-17)
(155.479 33.459 5.00199e-17)
(159.746 34.071 -4.84638e-17)
(163.779 35.035 0)
(168.566 35.713 0)
(172.952 36.8833 0)
(178.389 37.6235 -4.15706e-17)
(183.172 39.0522 0)
(189.434 39.846 -3.80768e-17)
(194.655 41.5982 0)
(201.974 42.4351 -3.45406e-17)
(207.664 44.5936 -3.19437e-17)
(216.354 45.4685 3.09694e-17)
(222.535 48.1278 2.80203e-17)
(233.008 49.0665 -2.73116e-17)
(239.645 52.3883 2.37949e-17)
(252.403 53.6285 -2.34567e-17)
(259.528 57.9908 -1.93349e-17)
(275.523 60.0312 1.57574e-21)
(283.742 65.7042 3.00276e-17)
(304.735 68.7322 1.69023e-17)
(315.419 75.1065 -1.10225e-17)
(343.84 78.1538 0)
(358.356 83.2619 -1.19638e-17)
(395.16 85.9107 1.09892e-17)
(412.401 89.4209 1.4583e-18)
(460.868 94.819 0)
(488.511 86.6131 -7.72983e-18)
(556.73 92.0593 1.64705e-18)
(613.43 1.49414 1.0957e-18)
(570.638 -45.616 -1.36728e-18)
(552.789 -59.6379 3.40872e-17)
(509.173 -68.8506 6.60784e-21)
(487.579 -68.9192 -1.37871e-17)
(450.161 -68.9034 8.11514e-18)
(430.927 -62.9129 -6.45378e-18)
(402.265 -59.9719 1.64686e-17)
(387.984 -54.5819 6.90856e-18)
(367.098 -52.9651 -2.55565e-17)
(355.578 -49.0159 0)
(339.136 -47.7529 0)
(329.013 -44.4895 3.28205e-17)
(315.949 -43.5277 4.25111e-17)
(307.322 -41.3046 0)
(296.845 -40.9635 -4.72126e-17)
(289.058 -39.6601 -3.26278e-21)
(279.866 -39.5954 9.13967e-17)
(272.301 -38.7126 0)
(263.86 -38.6115 -4.13246e-17)
(256.512 -37.8749 3.89831e-17)
(248.694 -37.6009 -3.79288e-17)
(241.658 -36.8276 0)
(234.424 -36.2559 0)
(100.035 1.70845 0)
(100.669 4.58266 0)
(101.783 7.24887 0)
(103.188 9.97305 0)
(104.569 13.4486 0)
(105.889 17.4917 0)
(106.977 21.7216 0)
(107.966 25.5396 0)
(108.907 28.5285 0)
(110.026 30.3992 -1.05768e-16)
(111.534 31.0078 -1.07154e-16)
(113.561 30.5813 0)
(115.976 29.7253 9.12873e-17)
(118.465 29.1081 8.06332e-17)
(120.98 28.8667 2.68814e-21)
(123.497 28.9136 -2.69035e-21)
(126.159 29.0545 0)
(128.872 29.3155 6.33928e-17)
(131.782 29.593 1.23351e-16)
(134.722 29.9931 5.99795e-17)
(137.904 30.3744 0)
(141.082 30.9001 1.13417e-16)
(144.57 31.366 5.51334e-17)
(148.007 32.0181 0)
(151.851 32.5591 5.17993e-17)
(155.571 33.3524 -4.9966e-17)
(159.84 33.9628 4.84028e-17)
(163.876 34.9235 0)
(168.666 35.5998 0)
(173.055 36.766 -4.29426e-17)
(178.495 37.5045 0)
(183.281 38.9281 0)
(189.547 39.7201 3.80017e-17)
(194.771 41.4659 0)
(202.094 42.3013 -3.445e-17)
(207.788 44.4519 3.18554e-17)
(216.482 45.3257 -3.08747e-17)
(222.668 47.9752 -5.58399e-17)
(233.143 48.9137 -2.72011e-17)
(239.787 52.2242 0)
(252.548 53.4646 2.33392e-17)
(259.688 57.8128 1.92146e-17)
(275.693 59.8503 1.96706e-17)
(283.943 65.5036 -2.97865e-17)
(304.953 68.5214 -2.01246e-21)
(315.682 74.8699 0)
(344.11 77.8995 0)
(358.634 82.9805 5.88036e-18)
(395.388 85.6124 -2.16301e-17)
(412.637 89.0901 -7.25067e-19)
(461.071 94.44 0)
(488.721 86.1815 0)
(556.633 91.4622 -1.65031e-18)
(613.048 1.44075 -1.09483e-18)
(570.531 -45.3411 0)
(552.741 -59.3379 -1.68534e-17)
(509.051 -68.5148 -2.45854e-18)
(487.336 -68.5707 -2.22283e-21)
(449.828 -68.5501 0)
(430.587 -62.5836 6.20074e-18)
(402.032 -59.6853 -1.55259e-17)
(387.87 -54.3396 -6.39224e-18)
(367.085 -52.7539 -1.2171e-20)
(355.621 -48.8266 1.86637e-17)
(339.234 -47.5801 0)
(329.16 -44.3358 -2.95356e-17)
(316.134 -43.3891 0)
(307.517 -41.178 0)
(297.017 -40.8384 0)
(289.19 -39.5327 8.18804e-17)
(279.955 -39.4615 -4.14252e-17)
(272.356 -38.5749 0)
(263.89 -38.4691 -3.81388e-17)
(256.525 -37.7311 3.631e-17)
(248.694 -37.455 3.56454e-17)
(241.651 -36.6821 3.49904e-17)
(234.413 -36.111 -3.52381e-17)
(100.034 1.69079 0)
(100.66 4.53858 0)
(101.761 7.18411 0)
(103.149 9.89991 0)
(104.518 13.3757 0)
(105.83 17.4251 7.83555e-17)
(106.92 21.6633 0)
(107.919 25.4871 0)
(108.878 28.477 0)
(110.023 30.3411 -1.05572e-16)
(111.561 30.9368 2.13816e-16)
(113.609 30.4972 1.01457e-16)
(116.033 29.6352 -9.10501e-17)
(118.524 29.0182 -8.04567e-17)
(121.041 28.7783 7.29193e-17)
(123.56 28.8249 -6.82759e-17)
(126.226 28.9646 0)
(128.942 29.2238 -2.68034e-21)
(131.855 29.4997 -6.16108e-17)
(134.798 29.8979 -2.81637e-21)
(137.982 30.2777 0)
(141.163 30.8013 -5.66542e-17)
(144.654 31.2658 -2.75015e-21)
(148.093 31.9156 0)
(151.94 32.4551 0)
(155.662 33.2456 4.99098e-17)
(159.935 33.8545 -4.83524e-17)
(163.973 34.8119 0)
(168.767 35.4865 0)
(173.159 36.6487 4.28852e-17)
(178.602 37.3853 -4.14339e-17)
(183.391 38.8039 -3.92705e-17)
(189.66 39.5942 -3.79263e-17)
(194.889 41.3336 -3.5575e-17)
(202.215 42.1675 2.92246e-21)
(207.913 44.3102 3.17633e-17)
(216.61 45.1828 0)
(222.802 47.8227 2.78268e-17)
(233.28 48.7608 2.71036e-17)
(239.931 52.0603 0)
(252.696 53.3009 -2.03839e-21)
(259.851 57.6349 -1.91147e-17)
(275.865 59.6694 1.95528e-17)
(284.145 65.3028 1.47842e-17)
(305.171 68.3102 -1.89071e-21)
(315.944 74.6326 -1.07548e-17)
(344.378 77.6446 0)
(358.909 82.6986 5.76898e-18)
(395.615 85.3143 1.06548e-17)
(412.875 88.7596 0)
(461.275 94.0614 0)
(488.931 85.7514 0)
(556.536 90.8677 1.64914e-18)
(612.657 1.38754 -1.08713e-18)
(570.41 -45.0657 0)
(552.682 -59.0365 0)
(508.928 -68.1779 0)
(487.102 -68.2226 2.65539e-17)
(449.514 -68.199 7.70634e-18)
(430.276 -62.2593 0)
(401.832 -59.4045 0)
(387.786 -54.1031 1.18219e-17)
(367.092 -52.5463 2.13304e-17)
(355.677 -48.64 -1.69446e-17)
(339.337 -47.4085 0)
(329.305 -44.1827 0)
(316.311 -43.2495 0)
(307.699 -41.0496 0)
(297.176 -40.7107 0)
(289.312 -39.4033 3.15323e-21)
(280.04 -39.3262 3.78254e-17)
(272.411 -38.4365 0)
(263.923 -38.3267 -5.82669e-21)
(256.542 -37.5876 3.16453e-21)
(248.701 -37.3098 4.23618e-21)
(241.65 -36.5375 -3.327e-17)
(234.41 -35.967 3.36849e-17)
(227.803 -35.0016 0)
(221.227 -34.0954 3.50995e-17)
(215.249 -32.9636 2.70975e-21)
(209.448 -31.8739 2.95838e-21)
(204.227 -30.7662 7.51221e-17)
(199.217 -29.7279 7.62717e-17)
(194.719 -28.8567 3.85725e-17)
(190.337 -28.0272 3.88965e-17)
(186.36 -27.4686 7.85152e-17)
(182.34 -26.8211 3.95432e-17)
(178.678 -26.5044 -4.00059e-17)
(174.814 -25.9084 -4.71233e-22)
(171.378 -25.7351 4.09581e-17)
(167.551 -25.0533 -8.26307e-17)
(164.355 -24.9612 -4.20194e-17)
(160.445 -24.0747 1.32312e-21)
(157.568 -24.022 -4.29472e-17)
(153.356 -22.802 -8.56508e-17)
(150.955 -22.6725 4.34957e-17)
(145.999 -20.9442 4.27785e-17)
(144.393 -20.3288 -4.37828e-17)
(137.923 -16.9086 -4.34031e-17)
(100.033 1.67339 8.87421e-17)
(100.651 4.49505 0)
(101.739 7.12015 7.78985e-17)
(103.111 9.82762 0)
(104.468 13.3034 -7.50924e-17)
(105.772 17.3589 -7.83105e-17)
(106.864 21.6049 0)
(107.873 25.4342 0)
(108.85 28.4249 0)
(110.021 30.2821 1.05382e-16)
(111.587 30.8648 -2.13326e-16)
(113.658 30.4124 -1.012e-16)
(116.091 29.5447 2.88076e-21)
(118.582 28.9281 -8.02862e-17)
(121.101 28.6897 0)
(123.623 28.736 0)
(126.292 28.8745 0)
(129.012 29.1319 -2.66232e-21)
(131.928 29.4063 0)
(134.873 29.8025 -5.98652e-17)
(138.061 30.1808 5.82948e-17)
(141.244 30.7024 5.66009e-17)
(144.738 31.1654 -2.73343e-21)
(148.179 31.8129 5.32716e-17)
(152.029 32.3509 0)
(155.754 33.1387 -9.97265e-17)
(160.029 33.746 -4.83005e-17)
(164.07 34.7001 0)
(168.867 35.3731 0)
(173.262 36.5312 -4.28243e-17)
(178.709 37.2661 2.99868e-21)
(183.502 38.6796 3.92108e-17)
(189.774 39.4681 3.78624e-17)
(195.006 41.2012 7.10102e-17)
(202.336 42.0336 3.42964e-17)
(208.039 44.1684 -3.16878e-17)
(216.74 45.0398 0)
(222.936 47.6701 -2.77319e-17)
(233.417 48.608 -2.70084e-17)
(240.076 51.8964 0)
(252.845 53.1372 -2.31352e-17)
(260.015 57.457 0)
(276.04 59.4883 -1.94463e-17)
(284.348 65.1017 0)
(305.391 68.0985 -3.29493e-17)
(316.205 74.3945 2.12844e-17)
(344.644 77.389 0)
(359.182 82.4163 -5.68778e-18)
(395.843 85.0162 1.04945e-17)
(413.116 88.4295 0)
(461.482 93.6832 0)
(489.142 85.3227 0)
(556.437 90.2758 1.65347e-18)
(612.259 1.33454 1.08713e-18)
(570.276 -44.79 0)
(552.613 -58.7337 0)
(508.804 -67.84 0)
(486.877 -67.8749 -1.30376e-17)
(449.218 -67.8502 -7.4963e-18)
(429.992 -61.9399 5.71031e-18)
(401.662 -59.1294 0)
(387.727 -53.8717 -1.09291e-17)
(367.115 -52.3416 0)
(355.742 -48.4556 0)
(339.444 -47.2378 -2.52947e-17)
(329.447 -44.0298 0)
(316.479 -43.1088 -3.13013e-17)
(307.869 -40.9194 0)
(297.323 -40.5809 3.48449e-17)
(289.426 -39.2723 2.92739e-21)
(280.12 -39.1897 -3.47626e-17)
(272.465 -38.2978 0)
(263.958 -38.1843 3.30942e-17)
(256.563 -37.4445 -3.20413e-17)
(248.712 -37.1651 3.73484e-21)
(241.656 -36.3937 0)
(234.412 -35.8239 -3.23289e-17)
(227.808 -34.8618 0)
(221.236 -33.9599 3.38784e-17)
(215.269 -32.8346 -3.47543e-17)
(209.478 -31.7521 -3.56736e-17)
(204.269 -30.6523 -7.2811e-17)
(199.269 -29.6213 -3.7015e-17)
(194.778 -28.7561 -3.75057e-17)
(190.398 -27.9309 0)
(186.42 -27.3747 -3.83207e-17)
(182.396 -26.7284 0)
(178.731 -26.4115 3.92085e-17)
(174.863 -25.8156 -3.96155e-17)
(171.424 -25.6408 4.02811e-17)
(167.593 -24.9594 4.06869e-17)
(164.397 -24.865 4.1434e-17)
(160.485 -23.98 4.16951e-17)
(157.61 -23.9225 4.24365e-17)
(153.398 -22.7062 4.23493e-17)
(151.001 -22.5661 -4.30522e-17)
(146.051 -20.8464 -4.23679e-17)
(144.447 -20.2093 4.33954e-17)
(138.018 -16.8141 4.30173e-17)
(100.032 1.65623 -8.87858e-17)
(100.642 4.45207 -8.30737e-17)
(101.718 7.05699 -7.7924e-17)
(103.073 9.75616 0)
(104.418 13.2318 7.50701e-17)
(105.716 17.2931 0)
(106.809 21.5466 -8.41053e-17)
(107.828 25.381 0)
(108.824 28.3719 0)
(110.02 30.222 0)
(111.615 30.7918 1.06421e-16)
(113.706 30.3269 -1.00944e-16)
(116.147 29.4539 2.85937e-21)
(118.64 28.8379 8.0132e-17)
(121.16 28.6009 0)
(123.686 28.6469 0)
(126.359 28.7841 0)
(129.082 29.0398 -1.26399e-16)
(132 29.3126 6.14963e-17)
(134.949 29.707 0)
(138.139 30.0837 -1.16498e-16)
(141.325 30.6034 -5.65583e-17)
(144.821 31.0649 -5.49904e-17)
(148.265 31.7101 -5.32311e-17)
(152.118 32.2465 0)
(155.845 33.0317 4.98206e-17)
(160.124 33.6373 2.90236e-21)
(164.168 34.5882 0)
(168.968 35.2595 4.48058e-17)
(173.366 36.4135 8.55475e-17)
(178.817 37.1467 4.13226e-17)
(183.612 38.5551 0)
(189.889 39.342 -3.77975e-17)
(195.124 41.0687 -7.08759e-17)
(202.458 41.8996 0)
(208.165 44.0265 0)
(216.87 44.8969 3.062e-17)
(223.072 47.5176 5.53036e-17)
(233.556 48.4553 2.69248e-17)
(240.222 51.7326 2.33907e-17)
(252.995 52.9736 2.30414e-17)
(260.181 57.2791 -1.89187e-17)
(276.215 59.3072 0)
(284.553 64.9003 0)
(305.612 67.8864 1.63524e-17)
(316.466 74.1558 -1.05372e-17)
(344.909 77.1328 0)
(359.454 82.1335 5.5909e-18)
(396.071 84.7182 -1.03635e-17)
(413.358 88.0997 0)
(461.69 93.3054 0)
(489.354 84.8955 7.55278e-18)
(556.338 89.6867 -1.65294e-18)
(611.854 1.28181 -1.08035e-18)
(570.128 -44.5141 0)
(552.535 -58.4298 1.63742e-17)
(508.68 -67.5014 2.38812e-18)
(486.66 -67.5278 0)
(448.941 -67.5038 0)
(429.735 -61.6254 -1.09398e-17)
(401.522 -58.8595 -1.29392e-17)
(387.691 -53.645 -2.06194e-21)
(367.152 -52.1395 0)
(355.814 -48.2731 1.41085e-17)
(339.552 -47.0678 -1.09096e-20)
(329.586 -43.8771 0)
(316.639 -42.967 2.85553e-17)
(308.029 -40.7877 0)
(297.461 -40.4492 7.14018e-21)
(289.532 -39.1399 -3.11401e-17)
(280.197 -39.0523 -3.2173e-17)
(272.519 -38.1587 3.10841e-17)
(263.995 -38.0419 -3.11089e-17)
(256.588 -37.3018 3.03423e-17)
(248.728 -37.021 -3.04708e-17)
(241.667 -36.2505 -3.04658e-17)
(234.421 -35.6817 3.11316e-17)
(227.819 -34.723 0)
(221.252 -33.8256 -6.5592e-17)
(215.294 -32.7067 -3.36978e-17)
(209.513 -31.6312 0)
(204.316 -30.5392 -2.25009e-21)
(199.323 -29.5151 3.60269e-17)
(194.838 -28.6557 3.65589e-17)
(190.459 -27.8347 3.70016e-17)
(186.481 -27.2807 -3.7493e-17)
(182.453 -26.6357 3.79113e-17)
(178.785 -26.3185 0)
(174.912 -25.7227 0)
(171.471 -25.5466 -3.96771e-17)
(167.637 -24.8657 4.01246e-17)
(164.441 -24.7689 -4.09129e-17)
(160.527 -23.8855 0)
(157.654 -23.8232 -4.19829e-17)
(153.442 -22.6108 -4.19203e-17)
(151.049 -22.4602 0)
(146.106 -20.7491 0)
(144.504 -20.0909 0)
(138.117 -16.7207 0)
(100.032 1.63931 0)
(100.633 4.40963 1.66225e-16)
(101.697 6.99459 0)
(103.037 9.68552 -7.49563e-17)
(104.37 13.1609 0)
(105.66 17.2276 -7.82065e-17)
(106.755 21.4882 8.40346e-17)
(107.784 25.3274 9.13524e-17)
(108.799 28.3183 9.91276e-17)
(110.02 30.1609 0)
(111.642 30.7178 0)
(113.754 30.2407 1.00698e-16)
(116.204 29.3628 9.04072e-17)
(118.698 28.7475 0)
(121.22 28.5119 0)
(123.749 28.5576 0)
(126.425 28.6936 0)
(129.151 28.9475 1.26295e-16)
(132.073 29.2188 -6.14514e-17)
(135.024 29.6113 0)
(138.217 29.9865 1.16413e-16)
(141.405 30.5041 0)
(144.905 30.9641 5.49478e-17)
(148.351 31.6071 -5.3188e-17)
(152.207 32.142 0)
(155.937 32.9245 -4.97765e-17)
(160.219 33.5285 4.82171e-17)
(164.265 34.4761 0)
(169.069 35.1457 -4.47636e-17)
(173.47 36.2958 -4.27271e-17)
(178.924 37.0272 0)
(183.723 38.4306 0)
(190.004 39.2157 3.77431e-17)
(195.243 40.9361 3.53781e-17)
(202.581 41.7655 0)
(208.292 43.8846 0)
(217.001 44.7538 -3.05508e-17)
(223.209 47.365 -5.51497e-17)
(233.696 48.3025 0)
(240.37 51.5688 -4.66223e-17)
(253.147 52.8099 -2.29583e-17)
(260.349 57.1012 1.88395e-17)
(276.393 59.126 0)
(284.76 64.6987 0)
(305.833 67.6739 -1.62365e-17)
(316.727 73.9164 -1.04283e-17)
(345.172 76.8761 1.39999e-17)
(359.724 81.8503 -5.52192e-18)
(396.3 84.4203 -1.02271e-17)
(413.602 87.7702 -7.41617e-19)
(461.9 92.928 -5.73232e-18)
(489.566 84.4697 -7.51815e-18)
(556.238 89.1003 1.65816e-18)
(611.443 1.22939 3.55667e-21)
(569.969 -44.238 -1.20625e-18)
(552.449 -58.1249 -1.62481e-17)
(508.556 -67.1622 -2.36072e-18)
(486.452 -67.1814 -1.25933e-17)
(448.683 -67.1599 0)
(429.504 -61.3156 1.04732e-17)
(401.408 -58.5945 1.21532e-17)
(387.675 -53.4224 4.68285e-18)
(367.2 -51.9395 -1.65227e-17)
(355.893 -48.0921 -1.29494e-17)
(339.662 -46.8983 2.12093e-17)
(329.722 -43.7244 0)
(316.792 -42.8243 0)
(308.179 -40.6547 2.61123e-17)
(297.59 -40.3159 -2.93638e-17)
(289.633 -39.0062 0)
(280.272 -38.9141 -5.33871e-21)
(272.574 -38.0193 -5.82934e-17)
(264.034 -37.8996 2.93923e-17)
(256.617 -37.1593 -2.88675e-17)
(248.749 -36.8773 0)
(241.683 -36.108 2.93174e-17)
(234.435 -35.5402 0)
(227.835 -34.5852 0)
(221.274 -33.6921 3.18372e-17)
(215.324 -32.5797 3.27565e-17)
(209.553 -31.5112 0)
(204.365 -30.4267 3.44755e-17)
(199.38 -29.4094 1.80607e-21)
(194.899 -28.5556 0)
(190.521 -27.7386 -3.62112e-17)
(186.542 -27.1867 3.67563e-17)
(182.51 -26.5429 -3.72297e-17)
(178.839 -26.2255 0)
(174.962 -25.6298 0)
(171.519 -25.4525 0)
(167.682 -24.772 -3.96238e-17)
(164.486 -24.673 -8.03221e-22)
(160.57 -23.7913 4.07659e-17)
(157.7 -23.7243 4.15731e-17)
(153.488 -22.5156 4.15384e-17)
(151.099 -22.3547 0)
(146.164 -20.6522 4.16646e-17)
(144.565 -19.9735 -4.27441e-17)
(138.217 -16.6282 0)
(100.031 1.62263 0)
(100.625 4.3677 -1.10777e-20)
(101.677 6.93296 -7.79442e-17)
(103.001 9.61567 7.49573e-17)
(104.322 13.0906 -7.50065e-17)
(105.606 17.1625 4.97273e-21)
(106.703 21.4299 -8.39559e-17)
(107.741 25.2734 -9.12547e-17)
(108.774 28.2638 -9.89903e-17)
(110.02 30.0989 0)
(111.67 30.6428 0)
(113.802 30.1539 -1.0045e-16)
(116.26 29.2714 0)
(118.756 28.6569 7.98422e-17)
(121.279 28.4228 0)
(123.811 28.4681 0)
(126.491 28.6029 0)
(129.22 28.855 -1.26203e-16)
(132.146 29.1247 0)
(135.099 29.5154 0)
(138.295 29.8891 -5.81695e-17)
(141.486 30.4047 5.64768e-17)
(144.988 30.8632 -2.68586e-21)
(148.437 31.5039 3.15757e-21)
(152.296 32.0373 -5.15784e-17)
(156.029 32.8171 4.97426e-17)
(160.314 33.4196 0)
(164.363 34.3639 0)
(169.17 35.0319 0)
(173.574 36.1779 4.26783e-17)
(179.032 36.9075 0)
(183.834 38.3058 -3.90412e-17)
(190.119 39.0892 0)
(195.361 40.8034 0)
(202.704 41.6313 -3.40999e-17)
(208.42 43.7426 3.1474e-17)
(217.133 44.6107 -3.04817e-17)
(223.346 47.2124 5.50068e-17)
(233.837 48.1497 2.6769e-17)
(240.519 51.405 2.32374e-17)
(253.301 52.6462 2.28778e-17)
(260.518 56.9232 0)
(276.572 58.9446 1.91668e-17)
(284.967 64.4968 0)
(306.056 67.4609 1.46359e-21)
(316.987 73.6763 7.25369e-21)
(345.435 76.6187 -1.38594e-17)
(359.992 81.5667 0)
(396.529 84.1225 1.0117e-17)
(413.848 87.4409 1.47906e-18)
(462.112 92.5509 5.69364e-18)
(489.778 84.0453 -7.48421e-18)
(556.138 88.5168 -1.65816e-18)
(611.025 1.17732 1.0787e-18)
(569.797 -43.9619 1.20295e-18)
(552.354 -57.8191 0)
(508.431 -66.8224 -2.3459e-18)
(486.254 -66.8358 2.47663e-17)
(448.443 -66.8184 0)
(429.299 -61.0104 -5.01131e-18)
(401.319 -58.3341 0)
(387.676 -53.2035 0)
(367.259 -51.7413 1.52628e-17)
(355.977 -47.9124 0)
(339.773 -46.7292 0)
(329.854 -43.5717 0)
(316.938 -42.6807 0)
(308.321 -40.5203 -4.8236e-17)
(297.713 -40.1811 2.72218e-17)
(289.73 -38.8716 0)
(280.346 -38.7754 2.80637e-17)
(272.629 -37.8798 2.74835e-17)
(264.075 -37.7573 0)
(256.649 -37.0173 0)
(248.774 -36.7342 0)
(241.704 -35.9662 -2.83117e-17)
(234.455 -35.3994 -2.9154e-17)
(227.857 -34.4481 0)
(221.301 -33.5595 3.09898e-17)
(215.359 -32.4535 0)
(209.597 -31.3919 -3.2884e-17)
(204.417 -30.3147 0)
(199.438 -29.3041 -3.43672e-17)
(194.962 -28.4557 -3.49784e-17)
(190.584 -27.6425 0)
(186.604 -27.0927 -3.61032e-17)
(182.568 -26.45 0)
(178.894 -26.1324 -3.73119e-17)
(175.012 -25.537 -3.78605e-17)
(171.568 -25.3583 0)
(167.728 -24.6785 -3.91735e-17)
(164.532 -24.5772 4.00263e-17)
(160.615 -23.6972 -4.03742e-17)
(157.748 -23.6256 -4.12088e-17)
(153.536 -22.4208 0)
(151.152 -22.2496 0)
(146.223 -20.5558 -4.13686e-17)
(144.628 -19.8572 4.24629e-17)
(138.32 -16.5365 4.20715e-17)
(100.03 1.60618 0)
(100.617 4.3263 -1.09886e-20)
(101.657 6.87207 7.79685e-17)
(102.965 9.54661 0)
(104.275 13.021 7.49848e-17)
(105.552 17.0977 7.81143e-17)
(106.652 21.3716 8.38861e-17)
(107.7 25.2191 0)
(108.751 28.2087 0)
(110.022 30.0358 -1.04607e-16)
(111.698 30.5669 -1.05697e-16)
(113.85 30.0664 1.00212e-16)
(116.316 29.1796 0)
(118.813 28.5662 -2.79752e-21)
(121.339 28.3335 0)
(123.874 28.3784 6.79033e-17)
(126.557 28.5119 0)
(129.29 28.7623 1.26121e-16)
(132.218 29.0305 0)
(135.174 29.4193 -5.96916e-17)
(138.373 29.7916 5.81325e-17)
(141.566 30.3052 -5.6446e-17)
(145.072 30.7622 -5.48813e-17)
(148.523 31.4006 5.31218e-17)
(152.385 31.9324 5.15482e-17)
(156.12 32.7096 4.97049e-17)
(160.408 33.3104 0)
(164.46 34.2515 4.62089e-17)
(169.271 34.9178 0)
(173.678 36.0598 -4.26407e-17)
(179.14 36.7877 -4.11791e-17)
(183.945 38.181 3.89984e-17)
(190.234 38.9627 0)
(195.481 40.6706 -3.52623e-17)
(202.827 41.497 3.40475e-17)
(208.548 43.6005 -3.14194e-17)
(217.265 44.4675 3.04227e-17)
(223.484 47.0597 -2.74397e-17)
(233.979 47.9968 -2.6703e-17)
(240.669 51.2411 2.31605e-17)
(253.456 52.4825 -1.76637e-21)
(260.688 56.7452 0)
(276.753 58.763 -1.08017e-21)
(285.176 64.2945 0)
(306.279 67.2474 1.37211e-21)
(317.247 73.4356 7.08012e-21)
(345.696 76.3609 0)
(360.258 81.2828 0)
(396.758 83.8248 0)
(414.096 87.112 -7.37934e-19)
(462.325 92.1741 0)
(489.99 83.6223 7.45554e-18)
(556.037 87.9361 -1.66412e-18)
(610.601 1.12563 0)
(569.615 -43.6858 0)
(552.252 -57.5126 0)
(508.307 -66.4823 2.32206e-18)
(486.064 -66.491 2.22418e-21)
(448.22 -66.4795 0)
(429.118 -60.7098 4.79375e-18)
(401.252 -58.0779 0)
(387.693 -52.9878 4.05167e-18)
(367.325 -51.5446 0)
(356.065 -47.7337 1.10748e-17)
(339.885 -46.5603 0)
(329.984 -43.419 -1.73412e-17)
(317.079 -42.5362 0)
(308.456 -40.3849 2.24093e-17)
(297.829 -40.0452 5.41119e-21)
(289.823 -38.7361 0)
(280.418 -38.636 2.64453e-17)
(272.685 -37.7402 -2.60531e-17)
(264.119 -37.6152 0)
(256.684 -36.8755 0)
(248.803 -36.5915 0)
(241.73 -35.8249 5.48502e-17)
(234.479 -35.2594 2.83321e-17)
(227.884 -34.3118 2.9148e-17)
(221.333 -33.4276 -3.02334e-17)
(215.398 -32.328 0)
(209.644 -31.2732 3.21508e-17)
(204.472 -30.2033 0)
(199.499 -29.1991 0)
(195.026 -28.356 3.43159e-17)
(190.648 -27.5465 0)
(186.666 -26.9986 7.10424e-17)
(182.626 -26.3571 0)
(178.949 -26.0393 -2.52203e-22)
(175.063 -25.4441 8.87615e-22)
(171.618 -25.2642 0)
(167.774 -24.585 3.87727e-17)
(164.58 -24.4815 0)
(160.661 -23.6033 0)
(157.797 -23.5271 4.08793e-17)
(153.585 -22.3262 0)
(151.206 -22.145 0)
(146.285 -20.4598 0)
(144.693 -19.7418 0)
(138.425 -16.4458 -4.18195e-17)
(100.03 1.58995 -8.88873e-17)
(100.609 4.28539 -8.32154e-17)
(101.637 6.81192 0)
(102.93 9.47831 0)
(104.23 12.9519 0)
(105.5 17.0333 0)
(106.602 21.3132 0)
(107.66 25.1643 0)
(108.729 28.1528 9.8706e-17)
(110.024 29.9718 2.08829e-16)
(111.726 30.49 2.1092e-16)
(113.898 29.9782 0)
(116.371 29.0876 0)
(118.87 28.4753 -2.77447e-21)
(121.398 28.244 0)
(123.936 28.2884 -6.7852e-17)
(126.623 28.4207 0)
(129.359 28.6693 -6.3025e-17)
(132.29 28.9361 0)
(135.249 29.323 5.96621e-17)
(138.451 29.6938 -2.55197e-21)
(141.647 30.2054 0)
(145.155 30.6609 -5.48489e-17)
(148.609 31.2971 5.30884e-17)
(152.473 31.8274 0)
(156.212 32.6019 -4.96769e-17)
(160.503 33.2011 -4.81094e-17)
(164.558 34.139 -4.61784e-17)
(169.372 34.8036 0)
(173.782 35.9416 4.25985e-17)
(179.248 36.6678 2.89448e-21)
(184.057 38.056 -3.89506e-17)
(190.35 38.836 3.75931e-17)
(195.6 40.5376 7.04303e-17)
(202.951 41.3625 3.39938e-17)
(208.676 43.4583 0)
(217.398 44.3242 0)
(223.623 46.907 0)
(234.122 47.8438 0)
(240.819 51.0772 -5.61547e-21)
(253.612 52.3187 -2.27394e-17)
(260.86 56.567 1.86135e-17)
(276.935 58.5812 -1.90154e-17)
(285.385 64.092 0)
(306.502 67.0336 1.28622e-21)
(317.506 73.1942 1.01712e-17)
(345.955 76.1025 0)
(360.524 80.9986 0)
(396.988 83.5271 0)
(414.345 86.7833 0)
(462.539 91.7977 5.60764e-18)
(490.203 83.2007 0)
(555.936 87.3584 -2.94643e-21)
(610.172 1.07437 0)
(569.423 -43.4098 0)
(552.142 -57.2054 0)
(508.184 -66.1419 0)
(485.883 -66.1471 2.23774e-21)
(448.016 -66.1432 6.57447e-18)
(428.96 -60.4136 -4.58791e-18)
(401.206 -57.8257 -1.01574e-17)
(387.723 -52.7749 -3.78067e-18)
(367.399 -51.3492 -1.32201e-17)
(356.157 -47.5559 -2.06309e-17)
(339.996 -46.3917 0)
(330.111 -43.2661 -2.61847e-21)
(317.214 -42.3909 -2.09872e-17)
(308.585 -40.2485 0)
(297.941 -39.9081 -2.3803e-17)
(289.913 -38.5999 0)
(280.489 -38.4963 -5.00928e-17)
(272.743 -37.6004 -1.00456e-21)
(264.166 -37.4731 2.55256e-17)
(256.723 -36.7341 0)
(248.836 -36.4492 0)
(241.76 -35.6842 -2.66437e-17)
(234.508 -35.12 -2.76081e-17)
(227.916 -34.1762 -2.84586e-17)
(221.369 -33.2965 0)
(215.441 -32.2033 -3.0523e-17)
(209.694 -31.1552 0)
(204.53 -30.0924 0)
(199.561 -29.0944 -3.30599e-17)
(195.09 -28.2564 0)
(190.712 -27.4505 0)
(186.728 -26.9045 -3.50034e-17)
(182.685 -26.2641 0)
(179.005 -25.9461 3.63661e-17)
(175.115 -25.3512 7.39663e-17)
(171.668 -25.1702 0)
(167.822 -24.4917 3.84115e-17)
(164.628 -24.386 -3.93165e-17)
(160.708 -23.5096 0)
(157.847 -23.4288 0)
(153.636 -22.2318 0)
(151.262 -22.0407 0)
(146.348 -20.3642 -4.0861e-17)
(144.761 -19.6274 -4.19963e-17)
(138.532 -16.3559 0)
(100.029 1.57395 8.89284e-17)
(100.601 4.24499 8.32363e-17)
(101.617 6.75249 0)
(102.896 9.41076 0)
(104.184 12.8835 -7.49227e-17)
(105.449 16.9692 7.80139e-17)
(106.553 21.2548 -8.3735e-17)
(107.621 25.1092 0)
(108.707 28.0962 -9.85673e-17)
(110.027 29.9068 -1.04221e-16)
(111.755 30.4121 -1.05223e-16)
(113.945 29.8895 9.9735e-17)
(116.426 28.9952 0)
(118.927 28.3842 -7.94683e-17)
(121.456 28.1543 0)
(123.998 28.1983 0)
(126.689 28.3294 -6.50461e-17)
(129.427 28.5762 0)
(132.362 28.8415 0)
(135.324 29.2266 0)
(138.528 29.5959 -1.1615e-16)
(141.727 30.1055 0)
(145.238 30.5595 5.48245e-17)
(148.695 31.1934 -5.3064e-17)
(152.562 31.7222 0)
(156.303 32.494 0)
(160.598 33.0916 4.80829e-17)
(164.656 34.0263 0)
(169.473 34.6892 0)
(173.886 35.8232 -3.90845e-21)
(179.356 36.5476 8.22079e-17)
(184.169 37.9308 4.22584e-21)
(190.465 38.7091 -3.75543e-17)
(195.72 40.4045 -3.51716e-17)
(203.075 41.2279 -2.72599e-21)
(208.805 43.3159 -3.13077e-17)
(217.531 44.1808 0)
(223.762 46.7541 0)
(234.265 47.6908 0)
(240.971 50.9133 -2.30386e-17)
(253.769 52.1548 2.26755e-17)
(261.033 56.3887 -1.85558e-17)
(277.118 58.3992 1.89467e-17)
(285.596 63.8891 0)
(306.726 66.8192 1.20571e-21)
(317.764 72.9522 0)
(346.214 75.8436 0)
(360.788 80.714 -5.24665e-18)
(397.219 83.2295 -9.80991e-18)
(414.597 86.4548 0)
(462.754 91.4215 -5.81716e-21)
(490.415 82.7804 0)
(555.834 86.7836 1.66809e-18)
(609.738 1.02357 1.06992e-18)
(569.22 -43.134 0)
(552.026 -56.8977 0)
(508.061 -65.8013 0)
(485.711 -65.8042 -1.18066e-17)
(447.829 -65.8094 -6.39823e-18)
(428.825 -60.1215 -4.38952e-18)
(401.179 -57.577 9.58355e-18)
(387.764 -52.5644 3.54714e-18)
(367.479 -51.1548 1.23716e-17)
(356.251 -47.3789 -3.36903e-21)
(340.108 -46.2232 1.59086e-17)
(330.235 -43.1131 1.51607e-17)
(317.345 -42.2449 1.96988e-17)
(308.709 -40.1113 0)
(298.048 -39.7702 0)
(290.002 -38.4631 0)
(280.561 -38.3562 4.76806e-17)
(272.801 -37.4606 2.37411e-17)
(264.214 -37.3312 -2.45549e-17)
(256.764 -36.5929 0)
(248.872 -36.3073 0)
(241.794 -35.544 0)
(234.542 -34.9811 5.3929e-17)
(227.952 -34.0413 0)
(221.409 -33.1661 -2.89677e-17)
(215.488 -32.0792 2.99344e-17)
(209.747 -31.0377 0)
(204.589 -29.9818 -3.17531e-17)
(199.624 -28.99 -1.26459e-21)
(195.156 -28.1569 0)
(190.776 -27.3545 3.384e-17)
(186.791 -26.8104 -3.45431e-17)
(182.744 -26.1711 0)
(179.061 -25.8529 0)
(175.168 -25.2583 -3.66137e-17)