/*--------------------------------*- C++ -*----------------------------------*\
| =========                 |                                                 |
| \\      /  F ield         | OpenFOAM: The Open Source CFD Toolbox           |
|  \\    /   O peration     | Version:  2412                                  |
|   \\  /    A nd           | Website:  www.openfoam.com                      |
|    \\/     M anipulation  |                                                 |
\*---------------------------------------------------------------------------*/
FoamFile
{
    version     2.0;
    format      ascii;
    arch        "LSB;label=32;scalar=64";
    class       volScalarField;
    location    "0.7";
    object      epsilon;
}
// * * * * * * * * * * * * * * * * * * * * * * * * * * * * * * * * * * * * * //

dimensions      [0 2 -3 0 0 0 0];

internalField   nonuniform List<scalar> 
13077
(
416.394
471.337
556.659
691.033
880.673
1101.51
1313.08
1481.43
1591.28
1646.21
1658.86
1644.23
1613.87
1573.92
1521.4
1450.41
1368.94
1303.18
1271.35
1273.98
1300.22
1341.45
1390.61
1447.03
1508.44
1578.52
1655.51
1745.98
1846.57
1967.68
2102.52
2267.86
2449.89
2676.99
2922.35
3237.94
3572.62
4024.16
4495.86
417.188
473.176
559.884
695.829
886.775
1108.06
1319
1486.12
1594.8
1649.19
1662.14
1648.59
1619.94
1582.22
1532.55
1464.6
1384.95
1319.06
1285.86
1286.91
1311.81
1352.02
1400.31
1455.98
1516.67
1586.07
1662.41
1752.34
1852.46
1973.28
2107.98
2273.44
2455.8
2683.64
2930.01
3247.23
3583.88
4038.43
4513.57
5207.03
5965.59
7231.36
8761.63
11464.9
14774.9
20436.6
26738.1
36479
44008.4
54535.6
65229.1
91945.6
216835
259987
266171
282557
279862
268030
245436
231148
221027
219769
217722
217086
211138
204812
194573
184814
172747
418.003
475.063
563.197
700.757
893.052
1114.82
1325.16
1491.07
1598.64
1652.56
1665.91
1653.6
1626.83
1591.52
1544.82
1480.02
1402.33
1336.38
1301.76
1301.14
1324.61
1363.69
1411.06
1465.9
1525.8
1594.47
1670.11
1759.44
1859.05
1979.54
2114.07
2279.66
2462.36
2690.99
2938.45
3257.41
3596.16
4053.96
4532.81
5231.76
5995.62
7269.32
8807.46
11527.2
14863.5
20590.9
27018.2
37041.1
44935.7
55854.6
66711.7
93845.9
220898
264889
273705
293345
291999
280408
256608
241453
230855
229894
228481
228609
223247
217261
207070
197140
184716
172581
158722
144912
129991
115313
100341
86040.5
72239.8
59570.8
48229.6
38754.3
31282.7
25690.2
21589.7
18501.7
16109
14097.9
12386.6
10824.6
9468.38
8224.96
7191.56
6280.42
5574.38
4987.48
4573.57
4287.09
4135.68
4222.47
4430.92
418.839
477.001
566.602
705.826
899.516
1121.81
1331.57
1496.31
1602.8
1656.34
1670.21
1659.3
1634.6
1601.87
1558.29
1496.77
1421.17
1355.22
1319.16
1316.77
1338.7
1376.57
1422.91
1476.86
1535.9
1603.77
1678.65
1767.32
1866.38
1986.51
2120.85
2286.54
2469.61
2699.07
2947.67
3268.48
3609.5
4070.77
4553.62
5258.51
6028.18
7310.52
8857.26
11594.5
14958.2
20753.3
27309.6
37622.7
45902.2
57244.7
68280.1
95831.7
225068
270035
281696
304808
304943
293642
268526
252357
241127
240353
239504
240359
235573
229922
219783
209677
196896
184289
169847
155389
139768
124362
108643
93604.7
79072.4
65667.7
53547.7
43262.2
35011.7
28755.9
24143.5
20675.9
18003.8
15769.3
13871.5
12132.4
10613.2
9206.01
8027.33
6977.25
6159.43
5472.09
4985.75
4637.23
4447.18
4503.99
4705.98
419.698
478.991
570.102
711.043
906.178
1129.04
1338.25
1501.86
1607.33
1660.56
1675.08
1665.74
1643.31
1613.35
1573.03
1514.92
1441.55
1375.7
1338.18
1333.92
1354.2
1390.75
1435.97
1488.94
1547.04
1614.04
1688.09
1776.05
1874.49
1994.22
2128.33
2294.14
2477.58
2707.9
2957.72
3280.5
3623.93
4088.9
4576.05
5287.34
6063.33
7355.05
8911.17
11667
15059.5
20924.1
27612.6
38224
46908
58708.1
69938.4
97906.8
229349
275446
290172
316980
318735
307781
281239
263898
251865
251155
250790
252324
248096
242769
232682
222396
209253
196167
181138
166026
149704
133570
117107
101339
86092.4
71982.9
59126.9
48065
39041.3
32101.1
26944.7
23067.9
20094.1
17620.7
15525.3
13599.1
11906.6
10322.4
8983.96
7778.07
6832.93
6029.56
5458.7
5037.06
4801.05
4821.1
5013.67
420.579
481.036
573.704
716.416
913.049
1136.52
1345.23
1507.74
1612.25
1665.26
1680.55
1672.96
1653.01
1626.04
1589.14
1534.58
1463.59
1397.93
1358.93
1352.71
1371.22
1406.33
1450.35
1502.24
1559.32
1625.38
1698.52
1785.69
1883.46
2002.74
2136.59
2302.48
2486.3
2717.53
2968.63
3293.49
3639.49
4108.41
4600.15
5318.3
6101.17
7403.04
8969.35
11745
15167.4
21103.7
27927.5
38845.1
47953.8
60247.1
71690.7
100076
233747
281144
299168
329897
333421
322880
294801
276122
263100
262316
262339
264496
260798
255782
245742
235267
221759
208182
192564
176792
159768
142902
125700
109206
93259.1
78470.4
64920
53123.5
43346.8
35713.5
29988.4
25676.6
22380.7
19654.4
17352.1
15231
13357.2
11584.8
10073.4
8695.03
7606.46
6670.19
6001.32
5493.91
5203.45
5178.77
5358.33
421.485
483.138
577.409
721.95
920.138
1144.27
1352.52
1513.98
1617.59
1670.48
1686.68
1681.01
1663.78
1640.02
1606.72
1555.86
1487.41
1422.04
1381.56
1373.29
1389.9
1423.46
1466.15
1516.87
1572.84
1637.85
1710
1796.32
1893.34
2012.11
2145.66
2311.63
2495.83
2727.99
2980.44
3307.51
3656.24
4129.34
4625.99
5351.48
6141.8
7454.62
9031.99
11828.7
15282.5
21292.6
28254.9
39486.5
49040.2
61864.6
73542.1
102344
238271
287152
308717
343597
349046
338992
309268
289079
274865
273853
274156
276867
273667
268939
258939
248266
234387
220307
204095
187657
169929
152331
134392
117176
100537
85089.5
70881.6
58395
47896.3
39574
33264.3
28495.9
24859.9
21868.6
19352.1
17031.1
14970.7
13002
11306.4
9740.1
8492.05
7405.08
6623.47
6016.04
5661.4
5582.69
5744.89
422.416
485.299
581.223
727.653
927.457
1152.31
1360.14
1520.6
1623.38
1676.24
1693.51
1689.97
1675.69
1655.39
1625.88
1578.88
1513.14
1448.19
1406.22
1395.8
1410.38
1442.25
1483.49
1532.94
1587.69
1651.57
1722.63
1808.01
1904.21
2022.42
2155.62
2321.64
2506.21
2739.35
2993.21
3322.6
3674.22
4151.75
4653.65
5386.96
6185.32
7509.94
9099.28
11918.4
15404.9
21491.1
28595.4
40148.6
50167.8
63563
75497.6
104718
242926
293496
318856
358120
365653
356172
324699
302818
287195
285787
286246
289435
286688
282224
272251
261368
247111
232518
215706
198597
180164
161831
143156
125220
107897
91804.6
76969.9
63836.1
52653.7
43657.5
36755.9
31514.6
27523.2
24257.1
21521.4
18998.4
16749.4
14579.6
12691.7
10924.2
9501.52
8245.78
7335.75
6612.56
6182.74
6039.26
6178.89
423.373
487.521
585.15
733.533
935.016
1160.64
1368.11
1527.63
1629.65
1682.6
1701.09
1699.88
1688.81
1672.23
1646.73
1603.76
1540.92
1476.53
1433.07
1420.41
1432.81
1462.86
1502.52
1550.58
1603.99
1666.64
1736.51
1820.85
1916.14
2033.72
2166.51
2332.56
2517.49
2751.65
3006.98
3338.81
3693.48
4175.71
4683.19
5424.82
6231.85
7569.15
9171.43
12014.3
15535.2
21699.8
28949.4
40832
51337.2
65345
77562.5
107202
247723
300204
329625
373502
383285
374474
341152
317396
300130
298142
298619
302196
299851
295619
285657
274551
259908
244791
227373
209588
190448
171379
151970
133316
115314
98585.7
83147.7
69405.2
57579.9
47933.6
40441.5
34716.5
30357.5
26809.1
23851.2
21127.1
18691
16319.5
14235.2
12256.4
10645.8
9203.76
8149.18
7293.28
6776.05
6555.56
6666.43
424.358
489.807
589.196
739.598
942.828
1169.3
1376.46
1535.09
1636.45
1689.6
1709.46
1710.81
1703.22
1690.64
1669.39
1630.65
1570.89
1507.21
1462.3
1447.3
1457.38
1485.44
1523.39
1569.92
1621.87
1683.16
1751.74
1834.95
1929.23
2046.1
2178.43
2344.47
2529.75
2764.94
3021.79
3356.19
3714.09
4201.28
4714.67
5465.16
6281.5
7632.41
9248.65
12116.8
15673.7
21919.3
29317.6
41537.1
52549.2
67213.4
79742.5
109803
252668
307304
341063
389784
401985
393948
358689
332868
313712
310944
311285
315149
313145
309108
299136
287793
272754
257103
239075
220608
200762
180955
160814
141444
122765
105408
89383.4
75064.1
62636
52369.2
44295.2
38081.1
33345.2
29508.9
26328.2
23406.5
20788.2
18219.1
15938.5
13742.7
11933.8
10289.7
9074.76
8068.42
7450.5
7139.27
7214.18
425.37
492.16
593.364
745.855
950.905
1178.28
1385.2
1543.03
1643.79
1697.27
1718.68
1722.83
1718.99
1710.73
1694
1659.69
1603.23
1540.42
1494.09
1476.66
1484.26
1510.18
1546.25
1591.11
1641.47
1701.28
1768.43
1850.39
1943.57
2059.64
2191.43
2357.41
2543.03
2779.27
3037.72
3374.79
3736.09
4228.51
4748.18
5508.07
6334.38
7699.87
9331.15
12226.1
15820.7
22150.1
29700.8
42264.5
53804.3
69170.6
82043.2
112528
257772
314826
353214
407002
421790
414643
377368
349294
327988
324221
324258
328297
326563
322679
312672
301072
285629
269434
250790
231638
211083
190539
169669
149585
130232
112250
95650.9
80779.5
67785
56929.8
48288.7
41584.6
36465.2
32337.3
28934.5
25821.2
23028.8
20270.4
17798.5
15385.2
13371.9
11512.8
10122.8
8948.24
8215.63
7798.62
7829.29
426.411
494.582
597.659
752.313
959.259
1187.62
1394.37
1551.46
1651.73
1705.66
1728.81
1735.99
1736.23
1732.62
1720.68
1691.03
1638.09
1576.35
1528.65
1508.7
1513.66
1537.26
1571.29
1614.32
1662.94
1721.13
1786.71
1867.3
1959.25
2074.43
2205.6
2371.48
2557.4
2794.72
3054.81
3394.68
3759.55
4257.47
4783.79
5553.62
6390.62
7771.69
9419.14
12342.5
15976.8
22392.7
30099.6
43015.1
55103.3
71219
84470.5
115383
263044
322804
366121
425193
442737
436603
397247
366733
343004
338008
337554
341641
340098
336315
326246
314371
298512
281762
262497
242657
221393
200115
178518
157723
137699
119096
101929
86523.4
72993.4
61581.9
52392.4
45201.4
39694
35271.7
31648.5
28351.6
25395.7
22460.3
19807
17181.3
14962.3
12879.4
11302.2
9942.45
9080.96
8542.07
8519.2
427.484
497.075
602.089
758.982
967.905
1197.33
1403.99
1560.42
1660.31
1714.83
1739.9
1750.38
1755.01
1756.4
1749.59
1724.85
1675.66
1615.2
1566.2
1543.65
1545.81
1566.9
1598.69
1639.73
1686.44
1742.85
1806.72
1885.79
1976.39
2090.57
2221.02
2386.74
2572.93
2811.34
3073.12
3415.91
3784.52
4288.23
4821.56
5601.92
6450.32
7848.04
9512.84
12466.5
16142.3
22647.9
30514.8
43789.6
56446.8
73361.1
87030.7
118377
268494
331271
379830
444394
464857
459869
418382
385245
358811
352338
351191
355189
353745
350006
339841
327669
311382
294069
274179
253649
231676
209665
187346
165844
145153
125929
108200
92273
78232.2
66294.2
56576.9
48905.4
43006.8
38287.8
34446.1
30974.2
27867.3
24770.9
21950.2
19123.1
16702.6
14392.6
12619.3
11059.5
10055.5
9378.1
9291.49
428.588
499.644
606.657
765.87
976.855
1207.43
1414.08
1569.95
1669.55
1724.82
1752.02
1766.05
1775.42
1782.2
1780.86
1761.32
1716.14
1657.18
1606.99
1581.77
1580.94
1599.32
1628.68
1667.53
1712.15
1766.61
1828.59
1906.01
1995.1
2108.16
2237.8
2403.28
2589.7
2829.2
3092.72
3438.54
3811.06
4320.85
4861.58
5653.06
6513.6
7929.06
9612.48
12598.2
16317.7
22916.2
30947.2
44588.7
57835.6
75599.1
89729.9
121516
274134
340263
394389
464639
488178
484475
440826
404892
375464
367252
365192
368949
367502
363742
353443
340950
324220
306334
285816
264594
241915
219175
196139
173935
152581
132740
114450
98009.9
83477
71038.7
60814.9
52671
46379.1
41360.5
37301.5
33663.5
30418.8
27179.7
24209.4
21197.3
18585.5
16051
14077.3
12306
11147
10314.7
10153.5
429.725
502.291
611.371
772.988
986.126
1217.95
1424.67
1580.07
1679.51
1735.68
1765.22
1783.1
1797.56
1810.14
1814.66
1800.62
1759.74
1702.54
1651.26
1623.3
1619.32
1634.78
1661.48
1697.94
1740.26
1792.59
1852.51
1928.09
2015.52
2127.33
2256.03
2421.2
2607.79
2848.38
3113.67
3462.64
3839.24
4355.39
4903.92
5707.12
6580.59
8014.92
9718.28
12738
16503.4
23198.3
31397.9
45413.7
59270.5
77935.1
92574.6
124810
279974
349817
409847
485963
512723
510449
464626
425733
393018
382791
379581
382931
381368
377515
367039
354196
337009
318540
297390
275477
252094
228630
204883
181982
159970
139515
120668
103720
88708.3
75791.3
65081.4
56474.4
49787.5
44465.5
40188.9
36392.2
33023.1
29660.9
26561.4
23385.5
20597.7
17848.1
15675.1
13685.2
12361.5
11358.8
11112
430.897
505.02
616.235
780.345
995.731
1228.9
1435.79
1590.83
1690.24
1747.47
1779.57
1801.6
1821.54
1840.35
1851.15
1842.96
1806.68
1751.52
1699.28
1668.55
1661.23
1673.54
1697.35
1731.2
1771
1820.98
1878.63
1952.19
2037.79
2148.19
2275.82
2440.58
2627.29
2868.95
3136.05
3488.26
3869.13
4391.94
4948.66
5764.19
6651.39
8105.78
9830.46
12886.3
16700
23494.9
31867.6
46265.4
60752.4
80371.3
95571.3
128267
286027
359973
426256
508397
538512
537812
489825
447825
411528
399000
394388
397150
395346
391319
380617
367394
349732
330670
308885
286281
262198
238015
213566
189975
167312
146246
126844
109391
93910.3
80532
69354.3
60294.4
53211.1
47580.2
43083.2
39133.5
35651.8
32186.5
28979.9
25664.8
22721.3
19772.2
17406.9
15197
13702
12515.8
12172.6
432.105
507.834
621.258
787.953
1005.69
1240.3
1447.48
1602.27
1701.78
1760.24
1795.15
1821.64
1847.44
1872.96
1890.51
1888.54
1857.2
1804.38
1751.37
1717.83
1706.99
1715.91
1736.56
1767.55
1804.6
1852
1907.15
1978.49
2062.05
2170.88
2297.29
2461.54
2648.28
2891
3159.92
3515.5
3900.79
4430.55
4995.87
5824.37
6726.13
8201.79
9949.23
13043.3
16907.8
23806.8
32357.5
47145.2
62282.2
82909.4
98726.9
131896
292306
370773
443666
531971
565556
566576
516459
471223
431054
415927
409643
411624
409440
405150
394167
380529
362373
342708
320284
296990
272212
247319
222174
197902
174595
152925
132971
115014
99071
85244.4
73615.2
64112.3
56631.5
50685.1
45962
41861.7
38277.1
34727.4
31435.9
28008.7
24933.3
21806.5
19261.6
16836.6
15168
13788.5
13339
433.351
510.736
626.445
795.823
1016.01
1252.18
1459.76
1614.42
1714.17
1774.06
1812.02
1843.29
1875.39
1908.1
1932.9
1937.59
1911.54
1861.41
1807.81
1771.46
1756.93
1762.2
1779.43
1807.28
1841.3
1885.88
1938.29
2007.17
2088.48
2195.55
2320.58
2484.19
2670.86
2914.61
3185.38
3544.4
3934.3
4471.29
5045.63
5887.75
6804.91
8303.12
10074.8
13209.4
17127.4
24134.7
32868.6
48054.3
63860.9
85551.3
102048
135706
298823
382259
462131
556713
593862
596746
544556
495978
451653
433623
425383
426372
423659
419008
407680
393590
374918
354637
331572
307590
282123
256526
230696
205753
181809
159541
139039
120583
104181
89915.6
77848.7
67912.6
60033.6
53763.5
48805.9
44553.6
40872.5
37255.1
33900
30388.7
27207.6
23929.3
21223
18594.5
16755.1
15176.8
14612.9
434.636
513.731
631.803
803.967
1026.73
1264.58
1472.66
1627.34
1727.48
1788.99
1830.25
1866.65
1905.48
1945.92
1978.51
1990.33
1969.97
1922.89
1868.95
1829.81
1811.42
1812.78
1826.28
1850.71
1881.41
1922.89
1972.27
2038.44
2117.26
2222.35
2345.82
2508.65
2695.16
2939.88
3212.5
3575.07
3969.72
4514.26
5098.01
5954.42
6887.85
8409.9
10207.5
13384.9
17359.2
24479.4
33402
48994.4
65489.9
88298.7
105541
139708
305592
394476
481705
582651
623434
628316
574135
522133
473382
452140
441646
441420
438013
432893
421153
406567
387355
366445
342734
318065
291917
265626
239122
213516
188947
166088
145043
126089
109232
94535.6
82042.3
71682.4
63405.1
56802.7
51599.1
47189.4
43414.1
39742.2
36342.9
32774.8
29515.5
26115.6
23270.3
20456.3
18453.9
16676.7
15992.8
435.963
516.822
637.341
812.397
1037.84
1277.5
1486.23
1641.05
1741.76
1805.09
1849.93
1891.82
1937.84
1986.56
2027.53
2047
2032.77
1989.14
1935.14
1893.25
1870.84
1868.03
1877.48
1898.16
1925.22
1963.29
2009.35
2072.53
2148.59
2251.48
2373.17
2535.06
2721.27
2966.92
3241.38
3607.57
4007.14
4559.5
5153.11
6024.46
6975.06
8522.3
10347.4
13570.1
17603.8
24841.7
33958.9
49967
67170.5
91153.1
109214
143913
312629
407470
502444
609810
654266
661274
605206
549727
496296
471533
458474
456796
452517
446811
434581
419452
399671
378118
353756
328404
301581
274607
247439
221184
195999
172557
150975
131527
114218
99096.4
86186.2
75411.4
66736.8
59793.4
54330.3
49753.5
45881.7
42164.4
38737
35137.9
31827.4
28337.6
25379.3
22403.2
20250.7
18280.4
17473.8
437.332
520.015
643.066
821.127
1049.38
1290.98
1500.5
1655.62
1757.06
1822.43
1871.13
1918.88
1972.57
2030.18
2080.16
2107.84
2100.23
2060.5
2006.75
1962.2
1935.62
1928.36
1933.43
1950.01
1973.08
2007.39
2049.8
2109.69
2182.68
2283.11
2402.79
2563.56
2749.34
2995.83
3272.1
3641.99
4046.62
4607.11
5210.98
6097.95
7066.64
8640.45
10494.7
13765.4
17861.7
25222.4
34540.7
50973.9
68904.5
94116.2
113073
148331
319948
421289
524401
638211
686350
695596
637767
578790
520448
491857
475912
472530
467189
460770
447964
432240
411859
389645
364627
338593
311103
283456
255638
228744
202955
178941
156830
136892
119134
103592
90272.7
79091.4
70021.6
62729.2
56991.8
52234.6
48259.4
44500.7
41057.5
37450.1
34114.1
30566.4
27522.7
24412.3
22127.2
19975.6
19047.3
438.747
523.312
648.986
830.169
1061.37
1305.06
1515.51
1671.08
1773.44
1841.09
1893.93
1947.93
2009.81
2076.91
2136.59
2173.11
2172.65
2137.3
2084.17
2037.09
2006.22
1994.22
1994.55
2006.66
2025.35
2055.54
2093.93
2150.17
2219.78
2317.46
2434.86
2594.32
2779.49
3026.74
3304.78
3678.43
4088.27
4657.16
5271.72
6175
7162.7
8764.49
10649.7
13971.1
18133.2
25622.3
35148.6
52017.2
70693.5
97189.5
117126
152974
327565
435982
547633
667876
719671
731250
671809
609341
545887
513169
494009
488659
482051
474780
461306
444928
423910
401018
375336
348621
320472
292163
263707
236189
209808
185233
162600
142179
123975
108016
94295.6
82716
73254.3
65606.6
59579.9
54626
50535.8
46734.5
43283
39686.1
36347.6
32773.1
29672.4
26458.5
24061.8
21746.2
20700.9
440.208
526.72
655.111
839.538
1073.82
1319.75
1531.3
1687.49
1790.97
1861.12
1918.43
1979.09
2049.66
2126.91
2197.02
2243.08
2250.34
2219.9
2167.81
2118.38
2083.12
2066.11
2061.31
2068.55
2082.44
2108.11
2142.06
2194.29
2260.14
2354.76
2469.59
2627.49
2811.88
3059.76
3339.53
3716.97
4132.15
4709.73
5335.4
6255.67
7263.33
8894.55
10812.6
14187.4
18418.9
26042.4
35783.9
53098.9
72539.8
100375
121378
157855
335497
451598
572194
698823
754209
768196
707307
641392
572655
535523
512814
505222
497128
488857
474611
457515
435822
412228
385873
358479
329677
300718
271639
243510
216550
191424
168278
147380
128736
112366
98250.2
86280.2
76431.3
68424
62094
56925
52704.2
48853.8
45396.4
41824
38502.7
34930.1
31800
28514.7
26029.9
23572.6
22418.6
441.719
530.243
661.449
849.25
1086.76
1335.09
1547.9
1704.91
1809.7
1882.62
1944.72
2012.45
2092.27
2180.35
2261.66
2317.99
2333.62
2308.67
2258.09
2206.54
2166.82
2144.53
2134.22
2136.15
2144.79
2165.49
2194.56
2242.36
2304.05
2395.25
2507.19
2663.28
2846.65
3095.04
3376.46
3757.74
4178.37
4764.9
5402.09
6340.04
7368.64
9030.76
10983.5
14414.7
18719.4
26483.4
36448.1
54221.5
74445.7
103673
125838
162985
343761
468187
598137
731071
789942
806386
744228
674941
600788
558972
532380
522261
512451
503020
487891
470006
447591
423270
396232
368156
338709
309112
279424
250699
223173
197507
173860
152492
133414
116637
102132
89780.3
79550.2
71181.5
64535.9
59132.9
54762.8
50851.6
47385.4
43846.3
40557.6
37012.2
33878.5
30553.7
28005.6
25432.5
24181.7
443.281
533.886
668.009
859.319
1100.22
1351.11
1565.38
1723.39
1829.72
1905.66
1972.88
2048.13
2137.76
2237.38
2330.71
2398.13
2422.83
2403.99
2355.44
2302.07
2257.88
2230.05
2213.82
2210
2212.88
2228.13
2251.84
2294.73
2351.82
2439.2
2547.9
2701.88
2884
3132.73
3415.69
3800.82
4227.01
4822.76
5471.88
6428.21
7478.71
9173.23
11162.6
14653.1
19034.9
26946.1
37142.6
55387.3
76414
107086
130511
168379
352375
485801
625516
764633
826841
845764
782527
709978
630317
583568
552761
539823
528054
517292
501159
482406
459219
434143
406406
377647
347561
317337
287054
257746
229669
203477
179337
157510
138003
120826
105939
93213
82609.1
73879.8
66909.1
61253.8
56713.6
52725.4
49242.3
45739.7
42494.3
38997.3
35883
32549.4
29962.7
27302.2
25969
444.898
537.655
674.802
869.762
1114.2
1367.86
1583.76
1742.98
1851.08
1930.32
2003.02
2086.23
2186.27
2298.17
2404.37
2483.76
2518.29
2506.26
2460.33
2405.49
2356.86
2323.26
2300.71
2290.64
2287.25
2296.51
2314.31
2351.8
2403.79
2486.93
2591.96
2743.51
2924.09
3172.99
3457.38
3846.34
4278.17
4883.39
5544.85
6520.23
7593.62
9322.05
11350.1
14903.1
19366.1
27431.5
37869
56599.1
78447.6
110616
135405
174050
361358
504491
654380
799525
864877
886268
822148
746476
661259
609357
574012
557957
543975
531700
514431
494727
470711
444846
416393
386947
356225
325386
294521
264647
236032
209326
184706
162427
142501
124930
109668
96576.2
85606.8
76520.3
69218.3
63294.2
58562.4
54477.5
50964.6
47495.8
44299.5
40867.2
37791.9
34477.5
31876
29157.3
27757
446.571
541.555
681.838
880.597
1128.75
1385.35
1603.1
1763.75
1873.86
1956.69
2035.22
2126.88
2237.93
2362.87
2482.85
2575.13
2620.34
2615.86
2573.21
2517.33
2464.36
2424.8
2395.5
2378.68
2368.45
2371.15
2382.46
2414
2460.34
2538.74
2639.67
2788.42
2967.15
3215.99
3501.65
3894.43
4331.97
4946.89
5621.07
6616.18
7713.45
9477.33
11546
15164.7
19713.2
27940.3
38628.6
57859.5
80550.1
114265
140527
180012
370729
524306
684778
835757
904016
927831
863026
784399
693626
636381
596186
576715
560256
546277
527731
506981
482074
455382
426192
396051
364697
333252
301820
271394
242256
215049
189959
167239
146901
128944
113316
99868
88542.6
79104.8
71468.6
65262.1
60317.7
56113.9
52554.1
49111
45964.3
42607.9
39587.1
36316.6
33722.3
30974.3
29522.6
448.304
545.594
689.128
891.841
1143.89
1403.64
1623.45
1785.76
1898.13
1984.86
2069.61
2170.19
2292.87
2431.65
2566.35
2672.52
2729.3
2733.19
2694.53
2638.13
2580.99
2535.3
2498.87
2474.79
2457.11
2452.64
2456.81
2481.77
2521.88
2595
2691.33
2836.86
3013.39
3261.92
3548.68
3945.21
4388.5
5013.34
5700.63
6716.13
7838.26
9639.13
11750.6
15438.2
20076.6
28473.3
39423.1
59171.6
82725
118035
145882
186280
380508
545296
716754
873339
944224
970382
905086
823699
727417
664675
619337
596150
576943
561058
541084
519188
493320
465758
435806
404960
372975
340932
308945
277982
248334
220640
195093
171942
151203
132868
116881
103087
91416.1
81634.9
73665.3
67166.1
61990
57644.1
54016.9
50586.4
47484.7
44210
41255
38048.8
35481
32731.2
31244.3
450.099
549.777
696.685
903.513
1159.65
1422.76
1644.86
1809.07
1923.99
2014.93
2106.28
2216.29
2351.25
2504.67
2655.07
2776.17
2845.51
2858.64
2824.77
2768.44
2707.38
2655.47
2611.53
2579.65
2553.89
2541.57
2537.92
2555.64
2588.84
2656.1
2747.27
2889.13
3063.05
3310.98
3598.62
3998.82
4447.9
5082.84
5783.59
6820.15
7968.12
9807.51
11963.9
15723.8
20456.8
29031.2
40253.9
60538.5
84976.4
121929
151477
192870
390716
567510
750349
912280
985466
1.01385e+06
948246
864315
762618
694266
643515
616319
594085
576085
554521
531370
504463
475984
445240
413675
381056
348423
315893
284406
254264
226095
200103
176532
155401
136698
120363
106232
94227.3
84112.5
75813.4
69015.2
63590.9
59079.7
55362.7
51927.3
48861.3
45668.5
42786.1
39660.2
37135.4
34408.8
32902.3
451.96
554.111
704.519
915.633
1176.05
1442.76
1667.39
1833.77
1951.49
2046.97
2145.34
2265.3
2413.2
2582.1
2749.2
2886.34
2969.28
2992.59
2964.36
2908.8
2844.16
2786.01
2734.21
2694
2659.5
2638.64
2626.4
2636.16
2661.73
2722.47
2807.86
2945.54
3116.4
3363.4
3651.67
4055.43
4510.27
5155.48
5870.04
6928.28
8103.08
9982.53
12186
16021.5
20854
29614.7
41122.5
61963.1
87308.9
125951
157320
199798
401374
590992
785598
952585
1.02771e+06
1.05815e+06
992417
906175
799207
725175
668768
637277
611735
591402
568079
543555
515524
486073
454503
422202
388943
355724
322661
290665
260042
231411
204986
181006
159493
140433
123759
109303
96976.3
86539.3
77917.6
70817.9
65132.5
60434.5
56603.9
53142.7
50098.7
46983
44175.5
41141.3
38672.4
35991.1
34479.7
453.889
558.605
712.645
928.222
1193.12
1463.67
1691.09
1859.9
1980.75
2081.11
2186.91
2317.36
2478.87
2664.1
2848.93
3003.25
3100.9
3135.42
3113.77
3059.74
2991.97
2927.63
2867.69
2818.64
2774.7
2744.55
2722.92
2723.92
2741.06
2794.56
2873.5
3006.43
3173.73
3419.42
3708.01
4115.19
4575.75
5231.38
5960.06
7040.59
8243.17
10164.2
12416.9
16331.5
21268.4
30224.5
42030.3
63448.8
89727.1
130104
163414
207079
412505
615786
822532
994257
1.07091e+06
1.10321e+06
1.0375e+06
949198
837146
757409
695137
659080
629949
607058
581796
555774
526527
496044
463607
430546
396640
362836
329249
296755
265664
236585
209738
185362
163479
144071
127070
112301
99663.9
88917.1
79982.2
72582.2
66626.9
61722.8
57755.2
54245
51205.7
48157.2
45422.6
42486.7
40083.5
37465.7
35962.9
455.891
563.264
721.075
941.301
1210.91
1485.53
1716.02
1887.56
2011.83
2117.43
2231.11
2372.58
2548.39
2750.82
2954.44
3127.14
3240.68
3287.48
3273.41
3221.79
3151.45
3081.08
3012.75
2954.36
2900.31
2860.09
2828.21
2819.58
2827.43
2872.89
2944.62
3072.16
3235.33
3479.29
3767.88
4178.27
4644.48
5310.64
6053.72
7157.13
8388.42
10352.6
12656.7
16653.8
21700.3
30861.1
42978.7
64998.8
92236.1
134393
169768
214730
424131
641932
861174
1.0373e+06
1.11503e+06
1.14896e+06
1.08341e+06
993294
876387
790969
722661
681783
648784
623106
595717
568065
537500
505918
472567
438720
404152
369763
335659
302677
271130
241616
214359
189598
167355
147613
130295
115225
102291
91247.9
82010.9
74315.5
68085.2
62959.2
58832.5
55248.8
52194.1
49199
46531.2
43695.4
41364.3
38824.4
37342.1
457.969
568.098
729.823
954.894
1229.44
1508.41
1742.24
1916.81
2044.84
2156.05
2278.05
2431.11
2621.93
2842.44
3065.91
3258.2
3388.86
3449.11
3443.69
3395.44
3323.19
3247.07
3170.21
3102.04
3037.18
2986.07
2943.02
2923.85
2921.45
2958.01
3021.7
3143.15
3301.56
3543.31
3831.49
4244.87
4716.61
5393.38
6151.11
7277.94
8538.86
10547.6
12905.3
16988.4
22149.7
31524.8
43969
66616.3
94841.2
138824
176387
222768
436275
669465
901541
1.08171e+06
1.16005e+06
1.19532e+06
1.13003e+06
1.03836e+06
916871
825841
751368
705436
668299
639603
609893
580469
548479
515723
481403
446738
411490
376511
341892
308433
276441
246502
218848
193713
171124
151058
133436
118076
104860
93533.8
84007.4
76024
69517.8
64157.9
59852.3
56170.6
53078.7
50119.4
47508.7
44770.7
42514.5
40063.3
38611.7
460.127
573.114
738.905
969.024
1248.74
1532.34
1769.83
1947.74
2079.86
2197.08
2327.86
2493.08
2699.63
2939.09
3183.51
3396.63
3545.7
3620.6
3624.98
3581.15
3507.78
3426.3
3340.88
3262.53
3186.19
3123.38
3068.19
3037.49
3023.83
3050.53
3105.27
3219.84
3372.79
3611.77
3899.1
4315.19
4792.3
5479.7
6252.31
7403.06
8694.49
10749.2
13162.7
17335.2
22616.7
32216.1
45002.3
68304.4
97547.9
143401
183278
231211
448962
698417
943641
1.12747e+06
1.20594e+06
1.24222e+06
1.17726e+06
1.0843e+06
958529
862003
781281
730090
688552
656607
624376
593032
559500
525489
490139
454618
418666
383088
347955
314025
281599
251247
223207
197710
174785
154407
136494
120858
107372
95777.3
85975.1
77713.5
70934
65332.2
60831
57028
53876.1
50932.6
48366.1
45719.4
43538.2
41182.4
39769.8
462.369
578.324
748.337
983.718
1268.86
1557.38
1798.84
1980.44
2117.01
2240.62
2380.66
2558.63
2781.63
3040.95
3307.38
3542.61
3711.41
3802.24
3817.61
3779.34
3705.76
3619.46
3525.54
3436.72
3348.26
3272.91
3204.59
3161.32
3135.29
3151.09
3195.87
3302.71
3449.41
3685.02
3970.98
4389.45
4871.71
5569.74
6357.39
7532.52
8855.31
10957.4
13428.8
17694.2
23101.3
32935.2
46079.7
70066.2
100362
148132
190445
240076
462217
728813
987476
1.17459e+06
1.25264e+06
1.28959e+06
1.22501e+06
1.131e+06
1.00128e+06
899418
812412
755788
709603
674180
639224
605805
570607
535252
498804
462382
425697
389506
353856
319459
286606
255852
227436
201589
178341
157665
139472
123573
109831
97981.3
87917.2
79388.8
72341.7
66493.9
61784.1
57838.7
54604.3
51654.7
49117.3
46552.1
44442.9
42185.8
40818.8
464.7
583.734
758.134
999
1289.84
1583.59
1829.35
2014.98
2156.37
2286.8
2436.59
2627.91
2868.08
3148.15
3437.69
3696.29
3886.17
3994.25
4021.89
3990.38
3917.62
3827.17
3724.97
3625.48
3524.34
3435.64
3353.17
3296.21
3256.63
3260.41
3294.14
3392.28
3531.87
3763.42
4047.43
4467.89
4955.04
5663.63
6466.45
7666.37
9021.3
11172.1
13703.6
18065.1
23603.3
33682.2
47202
71904.6
103289
153024
197896
249380
476064
760675
1.03304e+06
1.22305e+06
1.30015e+06
1.33736e+06
1.27318e+06
1.17835e+06
1.04503e+06
938041
844766
782568
731509
692384
654497
618844
581849
545053
507431
470056
432602
395779
359604
324742
291469
260322
231541
205355
181796
160833
142375
126225
112239
100149
89837.1
81054.2
73747.7
67653.6
62726.1
58619.9
55281.9
52303.9
49778.6
47282.4
45240
43081.3
41764.6
467.124
589.357
768.315
1014.9
1311.7
1611.01
1861.42
2051.45
2198.07
2335.74
2495.78
2701.04
2959.13
3260.84
3574.57
3857.81
4070.16
4196.85
4238.07
4214.6
4143.79
4050.03
3939.91
3829.67
3715.36
3612.54
3514.88
3443.1
3388.71
3379.26
3400.72
3489.13
3620.64
3847.36
4128.77
4550.75
5042.46
5761.51
6579.56
7804.63
9192.43
11393.1
13986.7
18447.7
24122.6
34456.9
48370
73822.1
106335
158083
205637
259141
490529
794014
1.0803e+06
1.27282e+06
1.34843e+06
1.38549e+06
1.32166e+06
1.22624e+06
1.08969e+06
977815
878336
810462
754325
711285
670259
632207
593277
554937
516057
477670
439404
401925
365213
329885
296196
264663
235527
209013
185154
163917
145205
128818
114602
102284
91738.2
82713.9
75157.7
68820.3
63669.9
59388.2
55927.6
52899.2
50368.2
47926.2
45943.3
43879.8
42616.6
469.647
595.204
778.897
1031.44
1334.51
1639.7
1895.14
2089.97
2242.19
2387.56
2558.36
2778.19
3054.93
3379.16
3718.15
4027.29
4263.49
4410.19
4466.35
4452.27
4384.64
4288.52
4171.03
4050.12
3922.25
3804.61
3690.74
3602.97
3532.44
3508.46
3516.36
3593.87
3716.23
3937.27
4215.33
4638.32
5134.2
5863.52
6696.83
7947.31
9368.66
11620.4
14278.2
18841.7
24658.8
35259.1
49584.2
75821.1
109504
163319
213674
269376
505638
828839
1.12924e+06
1.32388e+06
1.39745e+06
1.43391e+06
1.37036e+06
1.27455e+06
1.13516e+06
1.01867e+06
913104
839493
778101
730944
686576
645957
604949
564953
524726
485257
446131
407964
370698
334898
300795
268883
239401
212569
188422
166923
147970
131357
116923
104391
93624
84371.2
76576.5
70001.6
64626.6
60158.7
56559.2
53459.8
50905.5
48501.8
46569.6
44595.5
43387.2
472.273
601.284
789.901
1048.67
1358.29
1669.73
1930.59
2130.6
2288.87
2442.38
2624.47
2859.48
3155.62
3503.26
3868.54
4204.84
4466.27
4634.4
4706.88
4703.57
4640.46
4543.09
4418.92
4287.59
4145.93
4012.84
3881.79
3776.83
3688.79
3648.89
3641.81
3707.17
3819.22
4033.63
4307.51
4730.9
5230.48
5969.84
6818.33
8094.44
9549.93
11853.8
14577.6
19246.7
25211.5
36088.5
50844.6
77903.5
112804
168740
222013
280102
521417
865149
1.17982e+06
1.3762e+06
1.44719e+06
1.48257e+06
1.41921e+06
1.32317e+06
1.18132e+06
1.06054e+06
949043
869678
802885
751424
703515
660161
616926
575156
533482
492856
452813
413921
376078
339797
305278
272992
243170
216031
191607
169858
150676
133849
119209
106473
95498.2
86029.6
78008.2
71203.5
65605.8
60944.8
57193.7
54005
51410.5
49028.7
47137.3
45244.5
44090.9
475.01
607.611
801.347
1066.6
1383.1
1701.16
1967.84
2173.47
2338.22
2500.35
2694.26
2945.08
3261.34
3633.25
4025.87
4390.53
4678.57
4869.55
4959.76
4968.66
4911.44
4814.07
4684.09