/*--------------------------------*- C++ -*----------------------------------*\
| =========                 |                                                 |
| \\      /  F ield         | OpenFOAM: The Open Source CFD Toolbox           |
|  \\    /   O peration     | Version:  2412                                  |
|   \\  /    A nd           | Website:  www.openfoam.com                      |
|    \\/     M anipulation  |                                                 |
\*---------------------------------------------------------------------------*/
FoamFile
{
    version     2.0;
    format      ascii;
    arch        "LSB;label=32;scalar=64";
    class       volScalarField;
    location    "0.7";
    object      k;
}
// * * * * * * * * * * * * * * * * * * * * * * * * * * * * * * * * * * * * * //

dimensions      [0 2 -2 0 0 0 0];

internalField   nonuniform List<scalar> 
13077
(
40.0931
43.7575
48.9571
55.9897
64.1656
71.7037
76.9647
79.2667
78.864
76.5842
73.3398
69.9405
67.0247
65.0726
64.2385
64.2591
64.7305
65.5442
66.7083
68.1824
69.8274
71.5928
73.4135
75.3476
77.3598
79.5605
81.8827
84.4934
87.2598
90.4359
93.7817
97.6947
101.745
106.584
111.474
117.523
123.464
131.182
138.619
40.1417
43.8632
49.1232
56.2033
64.3957
71.91
77.1159
79.3571
78.9072
76.6014
73.3486
69.9486
67.0296
65.0679
64.2271
64.2523
64.729
65.5352
66.6835
68.1432
69.779
71.5385
73.355
75.285
77.293
79.4888
81.806
84.411
87.1719
90.3416
93.6812
97.5871
101.631
106.461
111.343
117.381
123.31
131.012
138.431
148.944
159.561
176.169
193.83
220.876
247.724
284.553
314.634
353.761
380.131
431.355
493.449
621.236
1028.94
1071.86
927.265
814.833
720.176
636.219
565.036
512.491
472.372
441.888
412.948
386.614
359.001
334.177
309.646
288.236
267.518
40.1915
43.9714
49.293
56.4217
64.6312
72.1218
77.2727
79.4533
78.9568
76.6263
73.3669
69.9685
67.0481
65.0772
64.2276
64.2548
64.735
65.5326
66.664
68.1079
69.7333
71.4863
73.2982
75.2236
77.2271
79.4177
81.7298
84.3289
87.0841
90.2473
93.5807
97.4794
101.517
106.338
111.212
117.239
123.158
130.843
138.245
148.725
159.296
175.814
193.364
220.228
246.928
283.576
313.733
353.092
379.98
431.337
493.46
622.636
1034.49
1076.24
932.432
821.822
727.684
643.544
571.551
518.666
478.726
448.94
420.889
395.329
368.25
343.649
319.102
297.488
276.453
257.497
238.888
221.574
204.535
188.592
173.289
159.282
146.46
135.241
125.746
118.222
112.546
108.262
104.793
101.604
98.4932
95.3098
92.1962
89.1729
86.4606
84.0726
82.1334
80.67
79.6248
79.2191
79.0693
80.0204
80.9226
84.5964
87.1826
40.2425
44.0822
49.4667
56.6451
64.8723
72.3396
77.4354
79.5558
79.0133
76.6594
73.3951
70.0004
67.0807
65.1011
64.2411
64.2674
64.7492
65.537
66.65
68.0768
69.6907
71.4362
73.2429
75.1633
77.1621
79.3472
81.6539
84.2469
86.9963
90.1528
93.48
97.3715
101.402
106.216
111.082
117.097
123.006
130.675
138.061
148.508
159.034
175.462
192.9
219.578
246.122
282.58
312.803
352.386
379.81
431.319
493.459
623.978
1039.91
1080.58
937.698
829.024
735.491
651.194
578.322
524.994
485.131
455.971
428.775
403.978
377.45
353.094
328.559
306.761
285.433
266.106
247.055
229.247
211.661
195.124
179.172
164.489
150.963
139.033
128.825
120.64
114.442
109.849
106.271
103.096
100.044
96.8959
93.7704
90.6624
87.8206
85.2523
83.1381
81.4883
80.3035
79.7602
79.5343
80.3985
81.2752
84.8824
87.4961
40.2947
44.1955
49.6446
56.8739
65.1193
72.5635
77.6045
79.6648
79.077
76.7009
73.4337
70.0452
67.1282
65.1407
64.2686
64.291
64.7721
65.5488
66.6422
68.0503
69.6514
71.3885
73.1893
75.1043
77.0978
79.2772
81.5783
84.165
86.9083
90.058
93.3789
97.2631
101.287
106.092
110.951
116.956
122.855
130.508
137.879
148.294
158.776
175.113
192.438
218.925
245.308
281.563
311.845
351.641
379.618
431.299
493.445
625.258
1045.21
1084.9
943.073
836.443
743.604
659.181
585.367
531.488
491.59
462.975
436.591
412.544
386.577
362.483
337.986
316.027
294.426
274.746
255.276
236.995
218.888
201.781
185.211
169.877
155.672
143.053
132.142
123.282
116.518
111.557
107.823
104.643
101.653
98.5591
95.4454
92.2745
89.3172
86.5717
84.2761
82.425
81.0836
80.3838
80.0671
80.8296
81.673
85.2009
87.8397
40.3482
44.3115
49.8266
57.108
65.3725
72.7939
77.7803
79.7808
79.1486
76.7516
73.4835
70.1036
67.1916
65.1971
64.3112
64.3266
64.8047
65.5688
66.641
68.0288
69.6157
71.3433
73.1376
75.0465
77.0346
79.2078
81.5029
84.083
86.8201
89.9628
93.2774
97.1542
101.171
105.969
110.82
116.815
122.704
130.342
137.698
148.083
158.522
174.768
191.978
218.269
244.486
280.527
310.857
350.854
379.399
431.275
493.417
626.473
1050.37
1089.21
948.566
844.083
752.03
667.518
592.702
538.163
498.109
469.95
444.329
421.01
395.612
371.796
347.361
325.259
303.408
283.39
263.521
244.787
226.184
208.532
191.373
175.416
160.56
147.274
135.679
126.141
118.776
113.391
109.451
106.237
103.307
100.284
97.2067
93.9993
90.9463
88.0332
85.5545
83.4901
81.976
81.1004
80.6769
81.3215
82.1223
85.557
88.2175
40.4031
44.4304
50.013
57.3477
65.632
73.0312
77.9632
79.9044
79.2284
76.8121
73.5451
70.1763
67.2718
65.2714
64.3703
64.3755
64.8479
65.5978
66.6473
68.013
69.5841
71.3011
73.0879
74.9903
76.9723
79.139
81.4279
84.0012
86.7319
89.8674
93.1755
97.0448
101.056
105.845
110.689
116.673
122.554
130.177
137.52
147.874
158.271
174.425
191.52
217.612
243.657
279.473
309.841
350.026
379.153
431.246
493.376
627.622
1055.4
1093.52
954.189
851.948
760.776
676.221
600.348
545.036
504.699
476.899
451.981
429.365
404.538
381.012
356.66
334.436
312.354
292.013
271.766
252.597
233.521
215.35
197.629
181.077
165.599
151.673
139.415
129.207
121.218
115.357
111.155
107.873
104.992
102.052
99.0367
95.8226
92.6994
89.6351
86.9776
84.6925
82.9916
81.9208
81.3737
81.8825
82.6301
85.9562
88.6347
40.4594
44.5521
50.2038
57.5933
65.8982
73.2756
78.1535
80.0359
79.3172
76.883
73.6193
70.2642
67.3699
65.3648
64.4472
64.439
64.9029
65.6367
66.6616
68.0035
69.5571
71.2622
73.0407
74.9358
76.9113
79.0711
81.3534
83.9195
86.6436
89.7717
93.0732
96.935
100.939
105.72
110.558
116.532
122.405
130.013
137.344
147.668
158.025
174.087
191.066
216.954
242.821
278.401
308.798
349.156
378.877
431.211
493.321
628.704
1060.29
1097.84
959.953
860.043
769.848
685.3
608.323
552.127
511.37
483.824
459.543
437.599
413.34
390.115
365.866
343.537
321.243
300.595
279.989
260.402
240.876
222.208
203.954
186.835
170.762
156.223
143.328
132.465
123.84
117.46
112.939
109.544
106.695
103.846
100.915
97.726
94.5627
91.3707
88.5456
86.0383
84.1397
82.8559
82.1677
82.5218
83.2042
86.4052
89.0964
40.5171
44.6768
50.3992
57.8448
66.1712
73.5274
78.3517
80.1759
79.4154
76.9649
73.7068
70.3682
67.4867
65.4787
64.5435
64.5184
64.9707
65.6864
66.685
68.0009
69.5353
71.2271
72.9963
74.8833
76.8518
79.0041
81.2795
83.838
86.5552
89.6758
92.9706
96.8248
100.823
105.596
110.426
116.392
122.256
129.851
137.17
147.465
157.783
173.753
190.615
216.297
241.981
277.314
307.728
348.244
378.569
431.169
493.255
629.718
1065.04
1102.19
965.868
868.368
779.247
694.767
616.647
559.455
518.137
490.731
467.013
445.703
422.005
399.088
374.959
352.543
330.058
309.116
288.168
268.184
248.228
229.085
210.324
192.666
176.027
160.902
147.397
135.9
126.638
119.703
114.806
111.248
108.405
105.645
102.818
99.6869
96.5174
93.2278
90.2537
87.5298
85.4275
83.9153
83.0691
83.2488
83.8528
86.9106
89.6084
40.5763
44.8045
50.5994
58.1025
66.4513
73.7869
78.5581
80.3249
79.5237
77.0585
73.8083
70.4892
67.6235
65.6142
64.6606
64.6154
65.0527
65.7481
66.7183
68.0061
69.5192
71.1961
72.9549
74.8331
76.7938
78.9382
81.2062
83.7568
86.4669
89.5796
92.8676
96.7141
100.706
105.471
110.295
116.251
122.108
129.69
136.998
147.265
157.545
173.424
190.169
215.64
241.137
276.212
306.633
347.29
378.228
431.119
493.177
630.663
1069.65
1106.58
971.947
876.927
788.976
704.63
625.337
567.041
525.015
497.628
474.389
453.672
430.523
407.918
383.925
361.437
338.778
317.559
296.288
275.922
255.557
235.962
216.718
198.547
181.37
165.687
151.6
139.491
129.601
122.088
116.762
112.986
110.111
107.433
104.724
101.68
98.5399
95.1885
92.0911
89.1644
86.8585
85.1069
84.0871
84.0728
84.5843
87.4798
90.1768
40.6371
44.9354
50.8044
58.3665
66.7387
74.0545
78.7733
80.4833
79.6426
77.1646
73.9247
70.628
67.7812
65.7728
64.8001
64.7315
65.1503
65.8229
66.7626
68.02
69.5096
71.17
72.917
74.7854
76.7378
78.8735
81.1338
83.6761
86.3787
89.4833
92.7644
96.603
100.588
105.345
110.164
116.111
121.962
129.53
136.829
147.069
157.312
173.101
189.728
214.985
240.29
275.098
305.515
346.295
377.853
431.061
493.089
631.538
1074.12
1111.02
978.2
885.718
799.032
714.893
634.41
574.906
532.021
504.524
481.674
461.5
438.882
416.593
392.747
370.205
347.39
325.907
304.33
283.601
262.846
242.819
223.117
204.458
186.771
170.556
155.914
143.221
132.717
124.611
118.811
114.758
111.807
109.192
106.607
103.678
100.603
97.2293
94.041
90.9337
88.4316
86.4354
85.2295
85.0026
85.4068
88.1203
90.8076
40.6994
45.0696
51.0144
58.637
67.0337
74.3305
78.9975
80.6517
79.7728
77.2838
74.0568
70.7855
67.9609
65.9558
64.9638
64.8686
65.2652
65.9123
66.8191
68.0435
69.5073
71.1492
72.8831
74.7407
76.6838
78.8104
81.0623
83.5958
86.2907
89.3869
92.6608
96.4914
100.47
105.22
110.033
115.971
121.816
129.372
136.663
146.877
157.085
172.782
189.293
214.334
239.443
273.973
304.375
345.261
377.442
430.993
492.993
632.344
1078.45
1115.54
984.64
894.741
809.411
725.559
643.881
583.073
539.174
511.431
488.871
469.184
447.076
425.099
401.413
378.83
355.876
334.147
312.28
291.205
270.079
249.64
229.504
210.382
192.211
175.49
160.321
147.07
135.971
127.27
120.958
116.572
113.491
110.911
108.447
105.653
102.676
99.3226
96.0809
92.8234
90.1404
87.9017
86.5012
86.0456
86.3279
88.8392
91.5067
40.7634
45.2071
51.2297
58.9143
67.3365
74.6152
79.2313
80.8307
79.915
77.4169
74.2054
70.9628
68.1638
66.1646
65.1533
65.0285
65.399
66.0177
66.889
68.0777
69.5132
71.1345
72.8537
74.6993
76.6323
78.749
80.992
83.5162
86.203
89.2904
92.5571
96.3795
100.352
105.094
109.902
115.831
121.671
129.216
136.499
146.688
156.863
172.47
188.865
213.687
238.596
272.839
303.215
344.188
376.996
430.915
492.889
633.081
1082.64
1120.14
991.278
903.993
820.106
736.626
653.763
591.562
546.494
518.364
495.985
476.723
455.098
433.428
409.91
387.299
364.223
342.263
320.124
298.72
277.241
256.411
235.863
216.301
197.672
180.472
164.802
151.02
139.349
130.057
123.206
118.432
115.165
112.58
110.225
107.578
104.73
101.437
98.1832
94.8129
91.9722
89.5016
87.9036
87.2071
87.354
89.6436
92.2798
40.8291
45.3481
51.4502
59.1984
67.6473
74.9089
79.4751
81.0208
80.0698
77.5647
74.3713
71.1607
68.391
66.4006
65.3705
65.2133
65.5536
66.1407
66.9738
68.124
69.5282
71.1266
72.8294
74.6616
76.5836
78.6895
80.9231
83.4374
86.1156
89.1939
92.4531
96.2672
100.234
104.968
109.77
115.692
121.527
129.061
136.338
146.503
156.646
172.165
188.444
213.045
237.75
271.699
302.038
343.078
376.513
430.825
492.781
633.749
1086.68
1124.84
998.125
913.471
831.108
748.09
664.066
600.393
554.004
525.338
503.024
484.118
462.943
441.57
418.227
395.602
372.419
350.243
327.849
306.133
284.32
263.118
242.179
222.201
203.138
185.484
169.339
155.052
142.835
132.963
125.556
120.346
116.833
114.197
111.926
109.431
106.734
103.541
100.317
96.8763
93.9085
91.2252
89.4334
88.4892
88.4893
90.539
93.1316
40.8966
45.4927
51.6762
59.4897
67.9665
75.2121
79.7293
81.2226
80.2378
77.7278
74.5554
71.3802
68.6435
66.6652
65.6173
65.4251
65.7312
66.2832
67.075
68.1835
69.5536
71.1265
72.8109
74.6283
76.5381
78.6324
80.8556
83.3595
86.0287
89.0975
92.349
96.1546
100.115
104.841
109.639
115.553
121.384
128.908
136.181
146.322
156.436
171.867
188.031
212.409
236.909
270.555
300.847
341.934
375.994
430.724
492.67
634.348
1090.57
1129.65
1005.19
923.171
842.404
759.942
674.796
609.587
561.726
532.372
509.999
491.373
470.608
449.52
426.355
403.726
380.452
358.075
335.442
313.432
291.303
269.748
248.44
228.068
208.595
190.51
173.916
159.15
146.413
135.978
128.008
122.322
118.504
115.761
113.541
111.191
108.659
105.602
102.448
98.9835
95.9248
93.0568
91.0824
89.8904
89.7354
91.5297
94.0658
40.9659
45.6409
51.9078
59.7884
68.2943
75.5249
79.9944
81.4366
80.4198
77.9072
74.7585
71.6223
68.9225
66.9599
65.8954
65.6661
65.9338
66.4471
67.1945
68.2578
69.5904
71.1351
72.799
74.5999
76.4962
78.5778
80.79
83.2827
85.9425
89.0012
92.2447
96.0416
99.9956
104.714
109.508
115.414
121.242
128.757
136.026
146.146
156.232
171.576
187.626
211.781
236.072
269.409
299.644
340.759
375.44
430.61
492.558
634.882
1094.33
1134.59
1012.49
933.086
853.978
772.168
685.955
619.16
569.682
539.485
516.921
498.493
478.092
457.273
434.286
411.662
388.31
365.747
342.893
320.606
298.178
276.291
254.634
233.889
214.028
195.538
178.518
163.298
150.067
139.09
130.557
124.366
120.187
117.28
115.067
112.844
110.483
107.588
104.543
101.101
97.9925
94.9751
92.8366
91.4044
91.0904
92.6176
95.0843
41.0371
45.793
52.1452
60.0945
68.6309
75.8479
80.2709
81.6635
80.6165
78.1035
74.9815
71.8879
69.2291
67.286
66.2069
65.9386
66.1639
66.6345
67.334
68.3487
69.6402
71.1535
72.7944
74.5769
76.4584
78.5262
80.7265
83.2073
85.8569
88.9052
92.1404
95.9282
99.876
104.587
109.377
115.276
121.102
128.607
135.874
145.973
156.034
171.293
187.231
211.162
235.242
268.264
298.433
339.556
374.851
430.483
492.449
635.35
1097.94
1139.67
1020.04
943.212
865.814
784.752
697.545
629.128
577.897
546.701
523.806
505.485
485.397
464.824
442.013
419.402
395.985
373.251
350.192
327.644
304.937
282.735
260.749
239.652
219.427
200.553
183.131
167.483
153.782
142.287
133.201
126.483
121.895
118.761
116.504
114.38
112.186
109.473
106.569
103.196
100.079
96.9539
94.6765
93.0199
92.548
93.8016
96.1868
41.1103
45.949
52.3886
60.4084
68.9767
76.1813
80.5593
81.9039
80.8286
78.3176
75.2254
72.178
69.5646
67.6451
66.5537
66.2452
66.4239
66.8479
67.4957
68.4579
69.7044
71.183
72.7982
74.5603
76.4253
78.478
80.6653
83.1333
85.7722
88.8095
92.0361
95.8146
99.7561
104.46
109.246
115.138
120.962
128.46
135.726
145.806
155.843
171.018
186.845
210.552
234.421
267.122
297.216
338.329
374.229
430.342
492.345
635.755
1101.4
1144.9
1027.84
953.541
877.893
797.674
709.558
639.504
586.393
554.041
530.671
512.359
492.525
472.173
449.532
426.938
403.467
380.576
357.327
334.536
311.568
289.07
266.776
245.348
224.779
205.543
187.743
171.689
157.545
145.556
135.93
128.676
123.638
120.219
117.861
115.796
113.755
111.232
108.496
105.233
102.152
98.9633
96.5782
94.7208
94.0978
95.0774
97.3704
41.1855
46.109
52.638
60.7303
69.3318
76.5256
80.86
82.1583
81.0567
78.5504
75.491
72.4936
69.9298
68.0386
66.9377
66.5882
66.7167
67.0897
67.6819
68.5874
69.7849
71.2249
72.8115
74.5508
76.3975
78.4336
80.6069
83.0612
85.6887
88.7142
91.9318
95.7007
99.6359
104.332
109.114
115
120.823
128.314
135.58
145.643
155.658
170.751
186.47
209.954
233.611
265.987
295.997
337.082
373.577
430.19
492.25
636.099
1104.72
1150.31
1035.9
964.066
890.192
810.91
721.987
650.296
595.194
561.532
537.534
519.128
499.482
479.32
456.838
434.265
410.749
387.715
364.292
341.275
318.063
295.289
272.706
250.966
230.074
210.498
192.342
175.905
161.343
148.884
138.738
130.946
125.427
121.667
119.147
117.096
115.181
112.85
110.299
107.183
104.176
100.972
98.5139
96.4863
95.7247
96.4367
98.6291
41.2629
46.2732
52.8937
61.0603
69.6966
76.8811
81.1736
82.4274
81.3017
78.8025
75.7792
72.8357
70.3261
68.4678
67.3608
66.9703
67.0449
67.3626
67.895
68.7396
69.8834
71.2809
72.8354
74.5494
76.3758
78.3937
80.5517
82.9911
85.6063
88.6195
91.8277
95.5865
99.5153
104.203
108.983
114.862
120.686
128.169
135.438
145.484
155.481
170.494
186.106
209.368
232.812
264.862
294.782
335.821
372.898
430.025
492.168
636.387
1107.9
1155.9
1044.24
974.779
902.689
824.433
734.818
661.511
604.321
569.198
544.418
525.806
506.276
486.268
463.931
441.379
417.826
394.66
371.079
347.852
324.414
301.382
278.529
256.497
235.303
215.408
196.916
180.119
165.162
152.259
141.614
133.291
127.27
123.121
120.38
118.288
116.464
114.313
111.957
109.016
106.121
102.946
100.453
98.292
97.4096
97.8676
99.9538
41.3425
46.4417
53.1559
61.3986
70.0713
77.2481
81.5005
82.7119
81.5644
79.0749
76.0909
73.2052
70.7545
68.9341
67.825
67.3939
67.4116
67.6696
68.1379
68.9168
70.0022
71.3527
72.8715
74.5571
76.3609
78.3588
80.5
82.9235
85.5255
88.5255
91.7237
95.4721
99.3944
104.075
108.851
114.725
120.549
128.027
135.299
145.33
155.31
170.245
185.755
208.795
232.028
263.75
293.572
334.551
372.196
429.849
492.102
636.621
1110.94
1161.68
1052.86
985.675
915.36
838.212
748.031
673.151
613.793
577.067
551.346
532.411
512.917
493.021
470.811
448.277
424.693
401.407
377.68
354.26
330.614
307.342
284.239
261.934
240.457
220.262
201.456
184.32
168.991
155.67
144.549
135.708
129.173
124.596
121.575
119.384
117.608
115.617
113.455
110.71
107.958
104.856
102.366
100.111
99.13
99.3544
101.332
41.4243
46.6146
53.4247
61.7456
70.4563
77.6271
81.8413
83.0124
81.8454
79.3685
76.427
73.6032
71.216
69.4388
68.3322
67.8618
67.8198
68.0137
68.4134
69.1218
70.1436
71.4423
72.9211
74.5752
76.3538
78.3297
80.4525
82.8586
85.4464
88.4324
91.6201
95.3575
99.2731
103.945
108.72
114.587
120.413
127.886
135.163
145.181
155.147
170.007
185.415
208.237
231.26
262.654
292.374
333.278
371.476
429.665
492.058
636.806
1113.84
1167.67
1061.78
996.745
928.18
852.216
761.605
685.212
623.628
585.164
558.343
538.962
519.417
499.587
477.48
454.959
431.346
407.949
384.09
360.492
336.655
313.162
289.827
267.269
245.528
225.053
205.951
188.498
172.819
159.104
147.533
138.191
131.14
126.104
122.752
120.403
118.625
116.762
114.784
112.247
109.662
106.671
104.221
101.914
100.861
100.878
102.75
41.5085
46.7921
53.7003
62.1013
70.8517
78.0184
82.1965
83.3295
82.1455
79.684
76.7884
74.0304
71.7118
69.9833
68.884
68.3764
68.2726
68.3982
68.7246
69.3575
70.3101
71.5517
72.9862
74.605
76.3556
78.3071
80.4097
82.7969
85.3694
88.3404
91.5168
95.2427
99.1514
103.816
108.588
114.45
120.278
127.747
135.031
145.036
154.991
169.778
185.089
207.695
230.51
261.577
291.192
332.009
370.743
429.475
492.04
636.947
1116.6
1173.87
1071.01
1007.98
941.125
866.41
775.514
697.687
633.841
593.516
565.436
545.481
525.792
505.975
483.942
461.425
437.785
414.283
390.303
366.543
342.532
318.836
295.288
272.495
250.508
229.772
210.395
192.643
176.637
162.551
150.556
140.733
133.173
127.658
123.929
121.363
119.529
117.754
115.941
113.615
111.213
108.368
105.992
103.675
102.577
102.419
104.189
41.5952
46.9744
53.9828
62.4661
71.2579
78.4225
82.5666
83.6638
82.4655
80.0223
77.1761
74.488
72.2428
70.5687
69.4823
68.9402
68.7731
68.8266
69.075
69.627
70.5047
71.6835
73.0687
74.6482
76.3674
78.292
80.3723
82.7389
85.2948
88.2496
91.4142
95.1279
99.0294
103.685
108.455
114.313
120.144
127.609
134.901
144.896
154.842
169.559
184.776
207.17
229.779
260.523
290.031
330.751
370.005
429.283
492.055
637.051
1119.22
1180.3
1080.55
1019.38
954.169
880.759
789.726
710.564
644.443
602.147
572.653
551.993
532.06
512.196
490.205
467.678
444.008
420.409
396.318
372.408
348.239
324.358
300.615
277.605
255.392
234.411
214.777
196.747
180.434
166.002
153.607
143.328
135.27
129.266
125.125
122.287
120.339
118.607
116.931
114.807
112.599
109.925
107.653
105.366
104.252
103.953
105.631
41.6845
47.1615
54.2724
62.8402
71.6752
78.8396
82.9521
84.0162
82.8062
80.3843
77.5908
74.9769
72.81
71.1963
70.1286
69.5557
69.3247
69.3023
69.468
69.9337
70.7303
71.8404
73.1707
74.7063
76.3906
78.2853
80.341
82.6852
85.2229
88.1604
91.3122
95.013
98.907
103.554
108.322
114.175
120.011
127.473
134.775
144.761
154.701
169.35
184.477
206.662
229.07
259.496
288.896
329.513
369.268
429.093
492.109
637.123
1121.7
1186.96
1090.41
1030.94
967.288
895.224
804.21
723.826
655.442
611.082
580.024
558.525
538.241
518.266
496.277
473.723
450.018
426.324
402.131
378.084
353.772
329.723
305.804
282.595
260.172
238.966
219.093
200.802
184.203
169.446
156.677
145.967
137.429
130.935
126.353
123.196
121.077
119.337
117.761
115.825
113.81
111.326
109.184
106.964
105.863
105.46
107.057
41.7763
47.3536
54.5694
63.2237
72.1038
79.2703
83.3536
84.3872
83.1683
80.7708
78.0336
75.4978
73.4143
71.867
70.8244
70.2251
69.9304
69.829
69.9073
70.2813
70.9904
72.0251
73.2946
74.7815
76.4268
78.2883
80.3168
82.6363
85.1543
88.0731
91.211
94.8982
98.7843
103.423
108.189
114.037
119.878
127.338
134.651
144.63
154.567
169.151
184.192
206.174
228.385
258.499
287.792
328.303
368.542
428.911
492.209
637.172
1124.06
1193.86
1100.59
1042.65
980.461
909.772
818.928
737.453
666.84
620.342
587.576
565.103
544.356
524.2
502.169
479.568
455.818
432.031
407.742
383.569
359.129
334.928
310.849
287.459
264.845
243.429
223.334
204.801
187.935
172.876
159.758
148.642
139.645
132.667
127.629
124.111
121.768
119.964
118.447
116.673
114.846
112.562
110.569
108.45
107.388
106.918
108.448
41.871
47.5508
54.8739
63.6168
72.5441
79.7149
83.7715
84.7775
83.5527
81.1827
78.5053
76.0518
74.0567
72.5819
71.5712
70.9505
70.5932
70.4102
70.3968
70.6735
71.2886
72.2411
73.4433
74.8758
76.4775
78.3023
80.3005
82.5931
85.0894
87.9879
91.111
94.7835
98.6612
103.29
108.055
113.899
119.745
127.204
134.53
144.503
154.44
168.963
183.922
205.705
227.726
257.535
286.724
327.13
367.835
428.744
492.362
637.206
1126.28
1201.01
1111.1
1054.5
993.664
924.364
833.843
751.419
678.638
629.947
595.34
571.758
550.432
530.018
507.895
485.222
461.415
437.532
413.15
388.862
364.306
339.968
315.748
292.194
269.404
247.796
227.496
208.739
191.624
176.283
162.84
151.346
141.915
134.465
128.962
125.05
122.434
120.512
119.007
117.364
115.708
113.629
111.798
109.807
108.809
108.31
109.787
41.9685
47.7534
55.1861
64.0199
72.9962
80.1737
84.2065
85.1877
83.9601
81.6208
79.0067
76.6397
74.738
73.3419
72.37
71.734
71.3161
71.0496
70.9404
71.1144
71.6287
72.4917
73.6197
74.9918
76.5448
78.3286
80.2934
82.5562
85.0287
87.9052
91.0122
94.6691
98.5378
103.157
107.92
113.759
119.612
127.071
134.411
144.381
154.32
168.786
183.667
205.258
227.093
256.609
285.7
326.002
367.159
428.601
492.577
637.235
1128.38
1208.4
1121.95
1066.51
1006.88
938.965
848.915
765.694
690.829
639.912
603.343
578.521
556.496
535.743
513.472
490.696
466.815
442.832
418.359
393.962
369.302
344.843
320.497
296.795
273.847
252.063
231.573
212.609
195.264
179.662
165.918
154.071
144.231
136.328
130.361
126.033
123.1
121.007
119.464
117.912
116.407
114.527
112.867
111.026
110.114
109.618
111.06
42.069
47.9615
55.5061
64.4332
73.4606
80.6472
84.6591
85.6186
84.3913
82.0859
79.5387
77.2623
75.459
74.1478
73.2221
72.5772
72.1017
71.7506
71.542
71.6081
72.0149
72.7807
73.827
75.1321
76.6309
78.3691
80.2967
82.5268
84.9731
87.8256
90.9151
94.5551
98.4142
103.023
107.785
113.62
119.479
126.939
134.294
144.262
154.206
168.618
183.427
204.832
226.489
255.724
284.723
324.931
366.525
428.492
492.863
637.268
1130.35
1216.03
1133.14
1078.65
1020.09
953.543
864.102
780.245
703.403
650.249
611.614
585.422
562.576
541.398
518.919
496.005
472.028
447.937
423.373
398.872
374.117
349.551
325.094
301.261
278.17
256.226
235.563
216.407
198.85
183.007
168.984
156.81
146.588
138.253
131.831
127.072
123.788
121.474
119.842
118.338
116.955
115.263
113.776
112.101
111.294
110.833
112.256
42.1725
48.1752
55.8342
64.8568
73.9374
81.1358
85.1298
86.0708
84.8471
82.5789
80.1021
77.9204
76.2204
75.0002
74.1281
73.4816
72.9525
72.5168
72.2057
72.1588
72.4513
73.1122
74.0688
75.2997
76.7381
78.4257
80.3118
82.5057
84.9232
87.7495
90.8198
94.4416
98.2904
102.888
107.649
113.479
119.346
126.807
134.18
144.147
154.1
168.461
183.203
204.428
225.916
254.882
283.8
323.926
365.944
428.426
493.231
637.318
1132.2
1223.91
1144.66
1090.94
1033.27
968.064
879.365
795.038
716.346
660.968
620.177
592.495
568.704
547.01
524.256
501.165
477.068
452.857
428.196
403.595
378.754
354.092
329.538
305.589
282.371
260.282
239.461
220.129
202.377
186.313
172.033
159.558
148.981
140.239
133.374
128.179
124.518
121.938
120.169
118.666
117.372
115.849
114.531
113.031
112.344
111.947
113.367
42.2793
48.3948
56.1706
65.2909
74.427
81.6399
85.6191
86.5451
85.3282
83.1006
80.6978
78.6147
77.0228
75.8999
75.0889
74.4484
73.8707
73.3511
72.9352
72.7709
72.9425
73.4905
74.3491
75.498
76.869
78.5003
80.3404
82.4943
84.8798
87.6775
90.7268
94.329
98.1664
102.753
107.511
113.337
119.213
126.675
134.067
144.035
154
168.314
182.994
204.048
225.375
254.089
282.937
322.998
365.431
428.418
493.692
637.398
1133.94
1232.04
1156.51
1103.37
1046.42
982.5
894.661
810.034
729.639
672.072
629.056
599.77
574.911
552.608
529.508
506.196
481.948
457.603
432.838
408.136
383.213
358.466
333.829
309.779
286.449
264.23
243.265
223.774
205.843
189.576
175.06
162.309
151.404
142.281
134.993
129.365
125.308
122.424
120.47
118.922
117.679
116.301
115.142
113.823
113.268
112.957
114.392
42.3893
48.6203
56.5154
65.7359
74.9297
82.1598
86.1276
87.0419
85.8353
83.6518
81.3264
79.3459
77.8669
76.8472
76.105
75.4785
74.8581
74.2566
73.7342
73.4486
73.4929
73.9202
74.6719
75.7305
77.0268
78.5955
80.3842
82.4939
84.8441
87.6103
90.6366
94.2174
98.0423
102.616
107.372
113.194
119.078
126.543
133.955
143.927
153.906
168.177
182.801
203.691
224.867
253.346
282.14
322.156
364.998
428.481
494.258
637.52
1135.56
1240.39
1168.7
1115.94
1059.53
996.824
909.953
825.193
743.257
683.56
638.271
607.279
581.232
558.223
534.7
511.118
486.686
462.187
437.306
412.501
387.501
362.677
337.967
313.831
290.403
268.068
246.975
227.339
209.246
192.794
178.063
165.058
153.852
144.375
136.686
130.634
126.173
122.955
120.774
119.132
117.902
116.639
115.626
114.486
114.07
113.866
115.331
42.5029
48.852
56.8688
66.1919
75.4457
82.696
86.6558
87.5621
86.3694
84.2332
81.9888
80.1146
78.7531
77.8425
77.1765
76.5726
75.9161
75.2356
74.6062
74.196
74.1072
74.4057
75.0416
76.0011
77.2147
78.7139
80.4454
82.506
84.817
87.5487
90.5495
94.107
97.9183
102.478
107.233
113.049
118.943
126.411
133.845
143.82
153.817
168.049
182.622
203.358
224.394
252.657
281.413
321.412
364.66
428.631
494.941
637.7
1137.08
1248.98
1181.2
1128.65
1072.58
1011.01
925.2
840.474
757.175
695.428
647.839
615.051
587.699
563.887
539.862
515.957
491.301
466.625
441.613
416.7
391.621
366.727
341.956
317.746
294.233
271.797
250.59
230.824
212.585
195.965
181.039
167.804
156.322
146.518
138.452
131.991
127.123
123.55
121.106
119.326
118.068
116.887
116.001
115.035
114.764
114.681
116.191
42.62
49.0901
57.2311
66.6592
75.9753
83.2488
87.2042
88.1063
86.931
84.8456
82.6856
80.9216
79.682
78.8861
78.3037
77.7308
77.0458
76.2902
75.5542
75.0169
74.7898
74.952
75.463
76.3142
77.4362
78.8583
80.5262
82.5325
84.7999
87.4936
90.4663
93.9984
97.7946
102.34
107.091
112.902
118.806
126.277
133.734
143.716
153.734
167.93
182.459
203.049
223.956
252.025
280.763
320.776
364.432
428.884
495.756
637.955
1138.5
1257.78
1194.01
1141.5
1085.57
1025.04
940.368
855.837
771.362
707.665
657.773
623.114
594.347
569.634
545.025
520.738
495.816
470.934
445.773
420.742
395.583
370.623
345.799
321.526
297.941
275.417
254.11
234.229
215.86
199.09
183.988
170.544
158.811
148.707
140.289
133.437
128.168
124.227
121.49
119.531
118.206
117.073
116.293
115.49
115.364
115.414
116.982
42.7408
49.3347
57.6024
67.138
76.5188
83.8187
87.7734
88.6751
87.521
85.4898
83.4175
81.7672
80.6537
79.978
79.4864
78.9534
78.2478
77.4222
76.581
75.9151
75.5452
75.5639
75.9408
76.674
77.6952
79.0321
80.6292
82.5752
84.7943
87.446
90.3875
93.8918
97.6712
102.2
106.948
112.754
118.668
126.143
133.624
143.614
153.655
167.82
182.311
202.764
223.555
251.452
280.194
320.259
364.33
429.259
496.719
638.3
1139.83
1266.78
1207.12
1154.49
1098.5
1038.9
955.422
871.241
785.784
720.258
668.083
631.494
601.209
575.499
550.219
525.491
500.254
475.136
449.802
424.64
399.395
374.37
349.499
325.174
301.53
278.931
257.538
237.555
219.071
202.168
186.908
173.276
161.315
150.937
142.195
134.973
129.314
124.998
121.948
119.775
118.344
117.224
116.527
115.873
115.891
116.08
117.719
42.8656
49.5861
57.9829
67.6285
77.0765
84.406
88.3638
89.2691
88.1399
86.1664
84.1851
82.6521
81.6686
81.1182
80.7244
80.2398
79.5222
78.6325
77.6887
76.8937
76.3773
76.246
76.4799
77.0854
77.996
79.2387
80.7573
82.6364
84.8017
87.407
90.314
93.7877
97.5485
102.06
106.804
112.603
118.528
126.007
133.514
143.512
153.58
167.718
182.177
202.503
223.191
250.941
279.712
319.869
364.367
429.774
497.846
638.756
1141.08
1275.97
1220.51
1167.61
1111.36
1052.57
970.33
886.645
800.408
733.189
678.773
640.212
608.317
581.517
555.479
530.245
504.643
479.253
453.718
428.409
403.068
377.977
353.064
328.695
305.003
282.342
260.875
240.806
222.222
205.201
189.802
176.001
163.835
153.207
144.166
136.599
130.565
125.877
122.498
120.083
118.514
117.372
116.733
116.212
116.37
116.7
118.42
42.9943
49.8445
58.3729
68.1309
77.6487
85.0111
88.9761
89.889
88.7885
86.876
84.9891
83.5765
82.7268
82.3065
82.0171
81.5896
80.8687
79.9219
78.8789
77.9555
77.2901
77.003
77.0854
77.5533
78.343
79.482
80.9135
82.7186
84.824
87.3781
90.2466
93.6867
97.4268
101.919
106.658
112.45
118.385
125.868
133.402
143.411
153.508
167.623
182.056
202.267
222.865
250.494
279.321
319.617
364.559
430.45
499.153
639.34
1142.24
1285.33
1234.16
1180.87
1124.16
1066.05
985.065
902.011
815.195
746.435
689.843
649.287
615.703
587.724
560.841
535.034
509.011
483.309
457.542
432.065
406.616
381.455
356.5
332.094
308.365
285.654
264.126
243.985
225.315
208.193
192.671
178.72
166.369
155.515
146.2
138.313
131.924
126.87
123.157
120.477
118.742
117.547
116.943
116.536
116.828
117.298
119.106
43.1272
50.11
58.7725
68.6455
78.2357
85.6343
89.6106
90.5354
89.4675
87.6195
85.8298
84.5408
83.8285
83.5427
83.3639
83.0017
82.2868
81.2902
80.1528
79.1026
78.2867
77.839
77.762
78.0825
78.7409
79.7662
81.1013
82.8245
84.8632
87.3607
90.1864
93.5895
97.3063
101.777
106.51
112.294
118.24
125.727
133.289
143.31
153.438
167.535
181.949
202.054
222.577
250.111
279.024
319.512
364.921
431.307
500.658
640.073
1143.34
1294.84
1248.04
1194.26
1136.89
1079.32
999.601
917.302
830.109
759.97
701.289
658.736
623.394
594.154
566.341
539.891
513.388
487.331
461.297
435.627
410.053
384.813
359.817
335.38
311.621
288.871
267.296
247.096
228.355
211.147
195.518
181.435
168.919
157.86
148.295
140.112
133.389
127.983
123.937
120.98
119.057
117.78
117.189
116.877
117.294
117.901
119.802
43.2645
50.3829
59.182
69.1725
78.8377
86.2761
90.2678
91.2089
90.1774
88.3972
86.7079
85.5453
84.9735
84.8263
84.764
84.4751