/*--------------------------------*- C++ -*----------------------------------*\
| =========                 |                                                 |
| \\      /  F ield         | OpenFOAM: The Open Source CFD Toolbox           |
|  \\    /   O peration     | Version:  2412                                  |
|   \\  /    A nd           | Website:  www.openfoam.com                      |
|    \\/     M anipulation  |                                                 |
\*---------------------------------------------------------------------------*/
FoamFile
{
    version     2.0;
    format      ascii;
    arch        "LSB;label=32;scalar=64";
    class       volScalarField;
    location    "0.7";
    object      nut;
}
// * * * * * * * * * * * * * * * * * * * * * * * * * * * * * * * * * * * * * //

dimensions      [0 2 -1 0 0 0 0];

internalField   nonuniform List<scalar> 
13077
(
0.347438
0.365608
0.387511
0.408281
0.420757
0.420087
0.406009
0.381718
0.351767
0.320654
0.291819
0.267755
0.25052
0.242134
0.244112
0.256224
0.275471
0.296693
0.31502
0.328416
0.337504
0.343879
0.34881
0.353104
0.357062
0.360899
0.364498
0.368001
0.371113
0.374085
0.376476
0.378763
0.3803
0.381928
0.3827
0.383901
0.384004
0.384872
0.384658
0.347618
0.36595
0.387897
0.408567
0.420865
0.420008
0.405775
0.381382
0.351373
0.320217
0.291313
0.267109
0.249619
0.240829
0.24225
0.253689
0.272273
0.293039
0.311234
0.324743
0.334056
0.340675
0.345841
0.350351
0.354513
0.358534
0.362304
0.365951
0.369187
0.372245
0.374698
0.377002
0.378532
0.380103
0.380802
0.381876
0.381846
0.382516
0.38211
0.383443
0.3841
0.386263
0.385924
0.382972
0.373815
0.356582
0.333214
0.308759
0.295511
0.307067
0.335958
0.377767
0.439434
0.397712
0.29073
0.211482
0.166792
0.135916
0.117073
0.102265
0.0908586
0.0799652
0.0704905
0.0619677
0.0549373
0.0490729
0.0443499
0.0404579
0.0372853
0.347801
0.366296
0.388287
0.408853
0.420969
0.419923
0.405534
0.381038
0.350972
0.319773
0.290798
0.26645
0.248698
0.23949
0.240329
0.251065
0.268949
0.28922
0.307251
0.320859
0.330396
0.337265
0.342677
0.347414
0.351791
0.356009
0.359963
0.363766
0.367138
0.370293
0.372817
0.375145
0.376673
0.378191
0.378818
0.379764
0.3796
0.380068
0.379466
0.380506
0.380906
0.382698
0.382072
0.378674
0.369201
0.351486
0.327873
0.302925
0.289183
0.29979
0.328507
0.371788
0.436015
0.393547
0.285887
0.207214
0.16321
0.132926
0.114573
0.100273
0.0893463
0.0789025
0.0697796
0.061527
0.0546691
0.0489207
0.0442574
0.0404023
0.0372375
0.0345776
0.0323589
0.0304914
0.0289644
0.0277595
0.0269342
0.0265384
0.026724
0.0276327
0.0295065
0.0324577
0.0364417
0.0410605
0.0457785
0.0502172
0.0541984
0.0579914
0.0617611
0.0661147
0.0710564
0.0773424
0.0844226
0.0932563
0.102363
0.113245
0.123028
0.134426
0.142507
0.152539
0.154386
0.347988
0.366648
0.388679
0.409138
0.421068
0.419831
0.405284
0.380684
0.35056
0.319318
0.290272
0.265778
0.247756
0.238118
0.238353
0.248353
0.265501
0.285237
0.303071
0.31676
0.326518
0.333642
0.339309
0.344284
0.34889
0.353316
0.357468
0.361439
0.364959
0.368222
0.370827
0.373187
0.37472
0.376188
0.376745
0.377563
0.377265
0.377527
0.376727
0.377468
0.377606
0.379019
0.378102
0.374255
0.364472
0.346289
0.322456
0.29705
0.282842
0.292486
0.320959
0.365655
0.432437
0.389169
0.280924
0.202932
0.159654
0.129971
0.112097
0.0982961
0.0878447
0.0778515
0.0690857
0.061108
0.0544297
0.0488026
0.0442053
0.0403917
0.0372403
0.0345821
0.0323423
0.030439
0.0288482
0.0275534
0.026594
0.0260146
0.0259392
0.0264928
0.0278935
0.0302772
0.0336669
0.0377665
0.0420988
0.0462656
0.0500331
0.0535848
0.0570493
0.060975
0.0654016
0.0710531
0.0774947
0.0856543
0.0942261
0.104631
0.114188
0.125452
0.133682
0.143973
0.14641
0.348179
0.367004
0.389075
0.409423
0.421161
0.41973
0.405022
0.380318
0.350137
0.318852
0.289733
0.26509
0.246793
0.236711
0.236321
0.245558
0.261932
0.281093
0.298695
0.312444
0.322417
0.3298
0.33573
0.340953
0.3458
0.350448
0.354809
0.358963
0.362644
0.366027
0.368723
0.371124
0.372668
0.374091
0.374581
0.375272
0.37484
0.374894
0.373892
0.374328
0.3742
0.375228
0.374015
0.369719
0.359631
0.340995
0.316966
0.291142
0.276496
0.285169
0.313332
0.359375
0.428697
0.384581
0.275853
0.198648
0.156133
0.12706
0.109654
0.096337
0.0863536
0.0768095
0.0684042
0.0607049
0.054212
0.0487107
0.0441853
0.040417
0.0372841
0.0346323
0.0323781
0.0304469
0.028804
0.0274344
0.0263628
0.0256292
0.0253338
0.0255862
0.0265791
0.0284584
0.0312969
0.034891
0.0388325
0.0427221
0.046282
0.049615
0.0528095
0.0563504
0.060301
0.0653451
0.0711515
0.0786119
0.0865966
0.0964481
0.105697
0.116736
0.125044
0.135514
0.138506
0.348372
0.367366
0.389473
0.409705
0.421249
0.41962
0.404749
0.379939
0.3497
0.318372
0.289181
0.264386
0.245808
0.23527
0.234236
0.242681
0.258247
0.276792
0.294124
0.307909
0.318089
0.325732
0.331934
0.337415
0.342513
0.347396
0.351981
0.35633
0.360187
0.363702
0.366501
0.368951
0.370515
0.371898
0.372324
0.372889
0.372322
0.372166
0.370961
0.371088
0.370688
0.371325
0.369814
0.365068
0.354681
0.335609
0.31141
0.285207
0.270154
0.277853
0.305638
0.352953
0.424796
0.379785
0.270684
0.194372
0.152658
0.124202
0.107247
0.0943991
0.0848732
0.0757742
0.0677312
0.0603127
0.0540102
0.0486386
0.04419
0.0404707
0.0373606
0.0347191
0.0324564
0.0305039
0.0288188
0.0273874
0.026222
0.025359
0.0248786
0.0248766
0.0255205
0.0269568
0.0292915
0.0324015
0.0359524
0.0395603
0.0429168
0.0460516
0.0490099
0.0522112
0.0557312
0.0602069
0.0653964
0.0721508
0.079512
0.0887462
0.09761
0.108336
0.116647
0.127212
0.130714
0.34857
0.367732
0.389874
0.409985
0.421329
0.419498
0.404463
0.379547
0.34925
0.317879
0.288614
0.263665
0.244801
0.233797
0.232099
0.239725
0.254451
0.272338
0.28936
0.303155
0.31353
0.321433
0.327912
0.33366
0.339022
0.344151
0.348975
0.353533
0.357579
0.361239
0.364154
0.366664
0.368255
0.369604
0.369972
0.370411
0.369711
0.369344
0.367933
0.367748
0.367073
0.367313
0.3655
0.360306
0.349627
0.330137
0.305793
0.279251
0.263827
0.270552
0.297894
0.346397
0.42073
0.374786
0.265431
0.190116
0.149236
0.121403
0.104885
0.0924862
0.0834042
0.0747442
0.0670634
0.0599272
0.0538193
0.0485809
0.0442135
0.0405463
0.037463
0.0348352
0.0325688
0.0306008
0.0288818
0.0273994
0.0261559
0.0251845
0.0245487
0.0243322
0.024679
0.0257299
0.0276103
0.0302636
0.0334289
0.0367522
0.0399078
0.0428614
0.045615
0.0485216
0.05166
0.0556148
0.0602192
0.0662779
0.0729958
0.0815645
0.0899756
0.100303
0.108541
0.119111
0.123075
0.348771
0.368103
0.390277
0.410262
0.421401
0.419365
0.404163
0.379139
0.348784
0.31737
0.28803
0.262925
0.24377
0.232291
0.229913
0.236696
0.250548
0.267738
0.284409
0.298182
0.308738
0.316899
0.323659
0.329683
0.335319
0.340707
0.345782
0.350564
0.354814
0.358634
0.361677
0.364258
0.365887
0.367208
0.367522
0.367839
0.367006
0.366427
0.36481
0.36431
0.363355
0.363195
0.361078
0.355437
0.344473
0.324584
0.30012
0.273282
0.257521
0.26328
0.290114
0.339715
0.4165
0.369588
0.260104
0.185889
0.145876
0.118671
0.102572
0.0906019
0.0819476
0.0737181
0.066398
0.0595448
0.0536348
0.0485325
0.0442504
0.0406384
0.0375854
0.0349743
0.0327086
0.0307299
0.0289842
0.02746
0.0261514
0.0250891
0.024323
0.0239259
0.0240208
0.0247389
0.0262143
0.0284423
0.031232
0.0342695
0.0372251
0.040011
0.0425876
0.0452424
0.0480488
0.0515362
0.0555976
0.0609867
0.0670582
0.0749302
0.0828324
0.0926851
0.100775
0.11126
0.115625
0.348976
0.368479
0.390681
0.410536
0.421465
0.41922
0.403848
0.378716
0.348303
0.316844
0.287429
0.262166
0.242716
0.230753
0.22768
0.233599
0.246546
0.262998
0.279275
0.292994
0.303712
0.312127
0.31917
0.325477
0.331397
0.337055
0.342395
0.347415
0.351885
0.355878
0.359064
0.361728
0.363404
0.364705
0.364971
0.365169
0.364206
0.363415
0.361591
0.360773
0.359538
0.358973
0.35655
0.350464
0.339224
0.318955
0.2944
0.267306
0.251246
0.25605
0.282314
0.332914
0.412105
0.364199
0.254717
0.181701
0.142584
0.116011
0.100315
0.0887505
0.0805048
0.0726952
0.0657328
0.0591624
0.0534531
0.0484895
0.0442963
0.0407421
0.0377227
0.0351309
0.0328697
0.0308846
0.0291183
0.02756
0.0261975
0.0250592
0.0241836
0.0236347
0.0235165
0.023949
0.0250669
0.0269039
0.0293321
0.0320843
0.0348396
0.037468
0.0398909
0.042333
0.0448561
0.0479321
0.0515002
0.0562587
0.0616966
0.0688587
0.0762092
0.0855215
0.0933902
0.1037
0.108404
0.349185
0.36886
0.391087
0.410805
0.421519
0.41906
0.403517
0.378275
0.347803
0.316301
0.28681
0.261387
0.24164
0.229186
0.225405
0.230438
0.242452
0.258128
0.273966
0.287595
0.298455
0.307114
0.314442
0.321036
0.327249
0.333189
0.338807
0.34408
0.348785
0.352967
0.35631
0.359069
0.360805
0.362094
0.362319
0.362401
0.361311
0.360308
0.358278
0.357142
0.355622
0.354651
0.351921
0.345394
0.333886
0.313257
0.288637
0.261331
0.24501
0.248875
0.27451
0.326004
0.407546
0.358624
0.249283
0.17756
0.139367
0.113429
0.0981188
0.0869358
0.0790776
0.0716753
0.0650659
0.0587773
0.0532707
0.0484482
0.0443471
0.0408535
0.0378706
0.0353007
0.0330473
0.0310595
0.0292778
0.0276921
0.026285
0.0250832
0.0241158
0.0234392
0.023141
0.0233295
0.0241343
0.025616
0.0277003
0.0301703
0.032724
0.0352016
0.0374897
0.0397536
0.0420387
0.0447595
0.0478884
0.0520657
0.0568967
0.0633531
0.070124
0.0788433
0.0864244
0.0964727
0.101448
0.349398
0.369245
0.391493
0.411069
0.421562
0.418886
0.403169
0.377816
0.347285
0.315739
0.286172
0.260588
0.24054
0.22759
0.22309
0.22722
0.238276
0.253138
0.268493
0.281992
0.292969
0.301861
0.309471
0.316356
0.322869
0.329101
0.335011
0.34055
0.345506
0.349893
0.353409
0.356277
0.358084
0.359371
0.359562
0.359534
0.35832
0.357107
0.354872
0.353416
0.351612
0.350232
0.347194
0.34023
0.328464
0.307498
0.282839
0.255364
0.23882
0.241768
0.266717
0.318994
0.402823
0.352873
0.243815
0.173475
0.13623
0.11093
0.0959882
0.085162
0.077668
0.0706584
0.0643959
0.0583873
0.053085
0.0484056
0.0443997
0.040969
0.0380253
0.0354796
0.033237
0.0312499
0.0294574
0.0278498
0.0264062
0.0251515
0.0241071
0.0233232
0.0228731
0.0228537
0.0233863
0.0245481
0.0263093
0.0285022
0.0308532
0.0331835
0.0353508
0.0374658
0.039554
0.0419735
0.0447191
0.0483714
0.0526339
0.0584045
0.0645835
0.0726724
0.0799073
0.0896141
0.0947904
0.349615
0.369634
0.3919
0.411327
0.421592
0.418695
0.402801
0.377337
0.346747
0.315157
0.285513
0.259767
0.239417
0.225968
0.220742
0.223954
0.234028
0.248041
0.262867
0.276193
0.287259
0.29637
0.304258
0.311434
0.318254
0.324785
0.330999
0.33682
0.342043
0.34665
0.350355
0.353346
0.355238
0.356533
0.3567
0.356566
0.355233
0.353813
0.351375
0.3496
0.347511
0.345721
0.342376
0.33498
0.322965
0.301683
0.277012
0.249411
0.232684
0.23474
0.258951
0.311894
0.397937
0.346955
0.238327
0.169454
0.133179
0.108518
0.0939277
0.0834332
0.0762784
0.069645
0.0637218
0.0579906
0.0528934
0.0483589
0.0444509
0.0410855
0.0381837
0.0356643
0.0334354
0.0314519
0.0296524
0.028028
0.0265547
0.025256
0.0241472
0.023273
0.0226949
0.0224988
0.0227958
0.0236723
0.0251329
0.0270568
0.0292039
0.0313881
0.0334445
0.0354344
0.0373615
0.0395296
0.0419468
0.0451337
0.0488747
0.0539936
0.0595834
0.0670203
0.0738607
0.0831551
0.0884605
0.349835
0.370027
0.392306
0.411578
0.42161
0.418487
0.402414
0.376837
0.346187
0.314553
0.284832
0.258924
0.238271
0.224322
0.218364
0.220647
0.22972
0.24285
0.257101
0.270211
0.281333
0.290644
0.298801
0.306269
0.313398
0.320238
0.326766
0.332882
0.338388
0.343231
0.347143
0.350273
0.352263
0.353577
0.353729
0.353498
0.35205
0.350427
0.347788
0.345695
0.343321
0.341123
0.33747
0.32965
0.317396
0.295821
0.271165
0.24348
0.226609
0.227803
0.251229
0.304716
0.39289
0.340881
0.232833
0.165503
0.130216
0.106195
0.0919414
0.0817534
0.0749114
0.0686359
0.0630429
0.0575857
0.0526941
0.0483059
0.0444983
0.0412003
0.0383429
0.035852
0.0336391
0.031662
0.0298591
0.0282222
0.0267249
0.0253899
0.0242273
0.0232774
0.0225913
0.0222451
0.0223392
0.0229632
0.0241472
0.025812
0.0277552
0.0297926
0.0317439
0.0336272
0.0354234
0.037385
0.0395256
0.0423076
0.0455796
0.0500916
0.0551089
0.0618883
0.0682975
0.0771198
0.0824841
0.35006
0.370424
0.392711
0.41182
0.421613
0.41826
0.402005
0.376314
0.345605
0.313926
0.284128
0.258059
0.237104
0.222654
0.215962
0.217309
0.225363
0.23758
0.251212
0.264059
0.275201
0.284689
0.293104
0.300859
0.3083
0.315454
0.322307
0.32873
0.334534
0.339632
0.343767
0.347052
0.349156
0.350502
0.350649
0.350327
0.348772
0.346949
0.344113
0.341705
0.339048
0.336443
0.332484
0.324246
0.311764
0.28992
0.265305
0.237577
0.220601
0.220967
0.243564
0.297469
0.387686
0.334663
0.227346
0.161628
0.127344
0.103963
0.0900323
0.0801264
0.0735699
0.0676325
0.0623591
0.0571715
0.0524853
0.0482446
0.0445397
0.0413113
0.0385006
0.0360401
0.0338457
0.0318773
0.0300742
0.0284284
0.0269124
0.0255476
0.0243403
0.0233267
0.0225497
0.0220763
0.0219961
0.0223979
0.0233296
0.0247476
0.0264881
0.0283769
0.0302258
0.0320158
0.0337056
0.0354997
0.0374115
0.0398471
0.042705
0.0466628
0.0511356
0.0572674
0.0632215
0.0715249
0.0768812
0.350288
0.370825
0.393114
0.412054
0.4216
0.418012
0.401573
0.375768
0.344998
0.313276
0.283401
0.257171
0.235916
0.220968
0.213542
0.213948
0.220972
0.232248
0.245217
0.257752
0.268874
0.278514
0.287172
0.295207
0.302958
0.310431
0.317617
0.324359
0.330477
0.335845
0.340222
0.343678
0.345912
0.347303
0.347458
0.347054
0.345398
0.343381
0.340352
0.337634
0.334696
0.331686
0.327424
0.318776
0.306077
0.283987
0.259438
0.231708
0.214667
0.214243
0.235973
0.290167
0.382326
0.328313
0.221881
0.157835
0.124566
0.101824
0.0882031
0.0785556
0.0722569
0.0666363
0.0616703
0.0567473
0.0522657
0.0481733
0.0445731
0.0414163
0.0386545
0.0362264
0.0340527
0.0320954
0.0302949
0.0286436
0.0271132
0.0257242
0.0244799
0.0234131
0.0225595
0.0219783
0.0217488
0.0219563
0.0226599
0.0238451
0.0253855
0.0271236
0.0288698
0.0305755
0.032178
0.0338376
0.0355628
0.0377069
0.0402055
0.0436664
0.0476322
0.0531396
0.0586272
0.0663793
0.0716661
0.35052
0.37123
0.393515
0.412277
0.42157
0.417742
0.401117
0.375195
0.344366
0.3126
0.282649
0.256259
0.234707
0.219266
0.211111
0.210576
0.216559
0.226871
0.239135
0.251309
0.262368
0.272128
0.281011
0.289316
0.297374
0.305166
0.312692
0.319765
0.326211
0.331866
0.336502
0.340147
0.342529
0.343979
0.344153
0.343677
0.34193
0.339725
0.336509
0.333485
0.330269
0.326858
0.322296
0.313248
0.300342
0.278031
0.253574
0.225882
0.208814
0.207639
0.228471
0.282822
0.376816
0.321846
0.21645
0.154129
0.121882
0.0997781
0.0864557
0.0770442
0.0709754
0.0656491
0.0609772
0.0563126
0.0520342
0.0480908
0.0445971
0.0415138
0.0388029
0.0364091
0.0342581
0.0323141
0.0305187
0.0288649
0.027324
0.0259158
0.024641
0.0235298
0.0226118
0.0219395
0.0215823
0.0216205
0.0221193
0.0230871
0.0244319
0.0260172
0.0276588
0.0292852
0.0308144
0.0323665
0.0339417
0.0358442
0.0380361
0.0410588
0.0445614
0.0494788
0.054501
0.0616836
0.0668464
0.350757
0.371637
0.393913
0.412488
0.421521
0.417449
0.400634
0.374596
0.343707
0.311897
0.281871
0.255324
0.23348
0.217553
0.208676
0.207203
0.212142
0.221469
0.232988
0.24475
0.2557
0.265547
0.27463
0.283191
0.29155
0.299661
0.307531
0.314943
0.321731
0.327689
0.332603
0.336456
0.339002
0.340527
0.340735
0.340198
0.338368
0.335982
0.332587
0.329262
0.325773
0.321966
0.317107
0.30767
0.294569
0.272061
0.247719
0.220105
0.203046
0.201164
0.22107
0.275447
0.371158
0.315276
0.211066
0.150513
0.119294
0.0978248
0.0847912
0.0755951
0.0697286
0.0646733
0.0602806
0.0558674
0.05179
0.0479958
0.0446101
0.0416021
0.0389442
0.0365864
0.0344603
0.0325315
0.0307436
0.02909
0.027542
0.0261189
0.0248194
0.0236713
0.0226993
0.0219498
0.0214837
0.021375
0.0216914
0.0224578
0.0236133
0.0250444
0.0265782
0.028127
0.0295926
0.0310585
0.0325144
0.0342195
0.0361537
0.038796
0.0418828
0.046253
0.0508214
0.0574308
0.0624237
0.350997
0.372047
0.394306
0.412687
0.421451
0.41713
0.400123
0.373968
0.343018
0.311166
0.281067
0.254366
0.232235
0.215831
0.206243
0.20384
0.207735
0.216061
0.226799
0.238099
0.248891
0.258785
0.268042
0.276842
0.28549
0.293916
0.302133
0.309891
0.317034
0.32331
0.32852
0.332599
0.335328
0.336945
0.337201
0.336616
0.334713
0.332156
0.328587
0.324969
0.321212
0.317017
0.311866
0.30205
0.288766
0.266086
0.241883
0.214382
0.19737
0.194825
0.213785
0.268054
0.365359
0.308619
0.205743
0.146991
0.116799
0.095963
0.0832102
0.0742106
0.0685197
0.0637111
0.0595816
0.0554118
0.0515327
0.0478876
0.0446112
0.04168
0.039077
0.0367571
0.0346576
0.032746
0.0309677
0.0293169
0.0277649
0.0263307
0.0250114
0.0238329
0.0228157
0.0220011
0.0214421
0.0212063
0.021361
0.0219427
0.0229168
0.0241935
0.0256158
0.0270862
0.0284938
0.0298896
0.0312516
0.0327973
0.034518
0.036835
0.0395544
0.0434259
0.0475614
0.0536064
0.0583928
0.351241
0.372459
0.394693
0.412871
0.421359
0.416784
0.399583
0.373309
0.3423
0.310406
0.280235
0.253384
0.230974
0.214105
0.20382
0.200499
0.203354
0.210669
0.220592
0.23138
0.241962
0.251861
0.26126
0.270277
0.279201
0.287935
0.296497
0.304607
0.312115
0.318725
0.32425
0.328573
0.331505
0.333231
0.333552
0.33293
0.330967
0.328248
0.324515
0.320612
0.316594
0.312017
0.306579
0.296398
0.282942
0.260114
0.236073
0.208722
0.191791
0.188629
0.206629
0.260657
0.359423
0.301892
0.200491
0.143564
0.114398
0.094191
0.0817124
0.0728926
0.0673516
0.0627652
0.0588816
0.0549463
0.051262
0.0477654
0.0445993
0.0417465
0.0392001
0.0369198
0.0348487
0.0329561
0.0311896
0.0295438
0.0279906
0.0265485
0.0252138
0.0240105
0.0229558
0.0220863
0.0214483
0.0211029
0.0211151
0.0215287
0.0223306
0.0234541
0.0247611
0.0261506
0.0275025
0.0288398
0.0301279
0.0315465
0.0330927
0.035135
0.0375348
0.0409587
0.0446891
0.0501899
0.0547429
0.35149
0.372872
0.395075
0.413039
0.421244
0.41641
0.399011
0.372618
0.34155
0.309616
0.279375
0.252378
0.229699
0.212379
0.201414
0.197192
0.199015
0.205312
0.214391
0.22462
0.234939
0.244797
0.254303
0.26351
0.272692
0.281722
0.290627
0.299092
0.306974
0.31393
0.319787
0.324375
0.327529
0.329383
0.329784
0.329142
0.32713
0.32426
0.320373
0.316195
0.311923
0.306974
0.301256
0.290722
0.277107
0.254157
0.230297
0.203131
0.186313
0.182582
0.199613
0.253271
0.353359
0.295112
0.195323
0.140236
0.112089
0.0925064
0.0802969
0.0716423
0.0662272
0.0618383
0.0581825
0.0544717
0.0509779
0.0476288
0.0445738
0.0418007
0.0393126
0.0370734
0.0350325
0.0331607
0.0314079
0.0297692
0.0282174
0.0267705
0.0254241
0.0242009
0.0231152
0.0221997
0.0214945
0.0210548
0.0209419
0.0212036
0.0218438
0.0228168
0.0240054
0.0253103
0.0266063
0.0278926
0.0291219
0.0304401
0.0318454
0.0336588
0.0357843
0.0388123
0.0421703
0.0471558
0.0514581
0.351742
0.373287
0.395449
0.41319
0.421103
0.416004
0.398407
0.371894
0.340767
0.308794
0.278487
0.25135
0.228412
0.210657
0.199033
0.193931
0.194736
0.200012
0.208222
0.217846
0.227848
0.237616
0.247189
0.256557
0.265975
0.275287
0.284527
0.293345
0.301609
0.308924
0.315131
0.320001
0.323398
0.325398
0.325899
0.325251
0.323205
0.320197
0.316165
0.311723
0.307206
0.301896
0.295904
0.285032
0.27127
0.248223
0.224565
0.197614
0.180942
0.176689
0.192749
0.245908
0.347171
0.288294
0.190249
0.137008
0.10987
0.0909063
0.0789622
0.0704606
0.0651491
0.0609334
0.0574862
0.0539891
0.0506808
0.0474777
0.0445341
0.0418418
0.0394135
0.0372171
0.035208
0.0333586
0.0316214
0.0299917
0.0284436
0.0269946
0.02564
0.0244012
0.0232902
0.0223362
0.0215742
0.0210536
0.0208314
0.0209568
0.0214463
0.0222731
0.023341
0.0245571
0.0257951
0.0270345
0.0282161
0.0294553
0.0307481
0.0323729
0.0342659
0.0369483
0.0399692
0.0444751
0.0485183
0.351997
0.373703
0.395814
0.413321
0.420935
0.415566
0.397767
0.371134
0.339949
0.307939
0.277569
0.2503
0.227114
0.208944
0.196685
0.190726
0.190531
0.194792
0.202112
0.211087
0.220719
0.230345
0.239941
0.249435
0.259062
0.268639
0.278202
0.287372
0.29602
0.303706
0.310277
0.315449
0.31911
0.321276
0.321896
0.321259
0.319193
0.316059
0.311895
0.307202
0.302449
0.296789
0.290533
0.279337
0.265442
0.242321
0.218884
0.19218
0.175681
0.170956
0.186047
0.238583
0.340869
0.281458
0.185279
0.13388
0.107739
0.0893874
0.0777064
0.0693476
0.0641197
0.0600533
0.056795
0.0534998
0.0503712
0.0473122
0.0444799
0.0418694
0.0395022
0.03735
0.0353743
0.033549
0.031829
0.0302104
0.0286681
0.0272194
0.0258596
0.024609
0.0234775
0.0224916
0.0216817
0.0210918
0.0207745
0.0207784
0.0211291
0.021815
0.0227615
0.0238846
0.0250608
0.0262546
0.027396
0.0285728
0.0297767
0.0312478
0.032946
0.0353304
0.0380506
0.0421168
0.0459003
0.352257
0.374118
0.396169
0.413432
0.420737
0.415094
0.397091
0.370337
0.339096
0.30705
0.276622
0.249229
0.225809
0.207244
0.194377
0.18759
0.186418
0.18967
0.196086
0.204374
0.213582
0.223013
0.232585
0.242166
0.251972
0.261789
0.271661
0.281175
0.29021
0.298274
0.305224
0.310717
0.314662
0.317016
0.317774
0.317165
0.315095
0.311852
0.307568
0.302637
0.297659
0.291662
0.28515
0.273647
0.259631
0.236462
0.213263
0.186834
0.170535
0.165385
0.179516
0.231309
0.334461
0.274621
0.180421
0.130852
0.105693
0.0879463
0.0765268
0.068303
0.0631409
0.059201
0.0561113
0.0530054
0.0500498
0.0471323
0.0444111
0.0418831
0.0395781
0.0374714
0.0355306
0.0337309
0.0320299
0.0304241
0.0288896
0.0274436
0.0260813
0.0248222
0.0236746
0.0226626
0.0218124
0.0211635
0.0207637
0.0206597
0.0208834
0.0214355
0.0222609
0.0232871
0.0243973
0.0255445
0.02665
0.027777
0.0289111
0.0302582
0.0317951
0.0339252
0.0363806
0.0400492
0.0435787
0.35252
0.374533
0.396513
0.41352
0.420508
0.414585
0.396376
0.369502
0.338205
0.306127
0.275646
0.248136
0.224498
0.205561
0.192116
0.184533
0.182411
0.184669
0.190171
0.197737
0.206469
0.21565
0.225147
0.234773
0.244723
0.254754
0.264915
0.274762
0.284182
0.292629
0.299973
0.305803
0.310053
0.312615
0.313532
0.312972
0.310915
0.307577
0.303188
0.298033
0.292842
0.286522
0.279764
0.267972
0.253847
0.230655
0.20771
0.181583
0.165508
0.159979
0.173165
0.224101
0.327955
0.2678
0.175683
0.127926
0.103728
0.0865791
0.0754206
0.0673259
0.0622143
0.0583791
0.0554376
0.0525077
0.0497177
0.0469386
0.0443277
0.0418825
0.0396408
0.037581
0.0356764
0.0339038
0.0322233
0.030632
0.0291073
0.027666
0.0263036
0.025039
0.0238793
0.022846
0.0219624
0.0212632
0.0207922
0.0205932
0.0207015
0.0211275
0.0218337
0.0227602
0.0237995
0.0248977
0.025969
0.0270551
0.0281345
0.0293824
0.030787
0.0327024
0.0349275
0.038241
0.0415275
0.352786
0.374946
0.396843
0.413583
0.420245
0.414038
0.39562
0.368626
0.337275
0.305168
0.274639
0.247025
0.223185
0.2039
0.189909
0.181566
0.178524
0.179806
0.184391
0.191205
0.199413
0.208288
0.217658
0.227282
0.237336
0.24755
0.257977
0.268142
0.27794
0.286775
0.294522
0.300707
0.305283
0.308074
0.309172
0.308679
0.306654
0.303238
0.298759
0.293396
0.288005
0.281378
0.274385
0.262321
0.248101
0.224909
0.202233
0.176432
0.160603
0.154743
0.167
0.216971
0.321361
0.261011
0.171072
0.125099
0.101843
0.085282
0.0743845
0.0664151
0.0613411
0.0575904
0.0547768
0.0520087
0.0493761
0.0467317
0.0442298
0.0418677
0.0396901
0.0376782
0.0358111
0.0340669
0.0324086
0.0308333
0.0293201
0.0278855
0.0265255
0.025258
0.0240895
0.0230395
0.0221281
0.0213867
0.0208544
0.0205719
0.0205764
0.0208847
0.0214749
0.0222999
0.0232638
0.0243092
0.0253459
0.0263969
0.0274332
0.0286024
0.0298998
0.0316357
0.0336627
0.0366624
0.0397206
0.353056
0.375357
0.397159
0.41362
0.419947
0.41345
0.394823
0.367708
0.336305
0.304174
0.273604
0.245895
0.221871
0.202264
0.187762
0.178697
0.174771
0.175101
0.17877
0.184807
0.192445
0.200961
0.210148
0.219722
0.229837
0.240197
0.250861
0.261326
0.271493
0.280715
0.288874
0.295428
0.300349
0.303393
0.304693
0.304289
0.302315
0.298839
0.294286
0.288732
0.283155
0.276237
0.269021
0.256704
0.242403
0.219235
0.196841
0.171389
0.155825
0.149678
0.16103
0.209934
0.314689
0.254272
0.166595
0.122373
0.100034
0.0840508
0.0734149
0.0655686
0.0605221
0.0568373
0.0541315
0.0515107
0.0490264
0.0465125
0.0441179
0.0418387
0.0397257
0.0377627
0.0359343
0.0342199
0.032585
0.0310274
0.0295275
0.0281014
0.0267457
0.025478
0.0243037
0.0232408
0.022307
0.02153
0.0209454
0.0205901
0.0205016
0.0207011
0.0211797
0.0219026
0.022787
0.0237753
0.0247755
0.0257947
0.0267962
0.0279032
0.0291146
0.0307018
0.0325603
0.0352858
0.0381341
0.353328
0.375765
0.39746
0.413628
0.419611
0.41282
0.393981
0.366747
0.335295
0.303142
0.272539
0.244748
0.220559
0.200659
0.185681
0.175936
0.171164
0.170569
0.17333
0.178573
0.1856
0.193703
0.202652
0.212124
0.222252
0.232719
0.243587
0.254327
0.264848
0.274454
0.283031
0.289968
0.295254
0.298571
0.300096
0.299803
0.297899
0.294383
0.289774
0.284047
0.278298
0.271107
0.26368
0.25113
0.236761
0.213641
0.191541
0.166459
0.151176
0.144786
0.155257
0.203003
0.307949
0.247599
0.162257
0.119745
0.0982982
0.0828818
0.0725082
0.0647843
0.0597576
0.056122
0.0535045
0.0510159
0.0486703
0.0462819
0.0439925
0.0417957
0.0397476
0.0378343
0.0360457
0.0343622
0.0327523
0.0312138
0.0297287
0.0283129
0.0269636
0.0256978
0.0245205
0.0234483
0.0224966
0.0216901
0.0210609
0.0206424
0.0204712
0.0205712
0.0209436
0.0215651
0.0223667
0.0232935
0.024254
0.0252424
0.0262149
0.0272729
0.0284158
0.0298812
0.0315979
0.0340859
0.0367443
0.353604
0.376168
0.397742
0.413605
0.419236
0.412145
0.393093
0.365741
0.334242
0.302074
0.271445
0.243586
0.219253
0.199088
0.183672
0.173289
0.167713
0.166225
0.168092
0.172529
0.178908
0.186547
0.195203
0.204518
0.21461
0.225139
0.236173
0.247161
0.258018
0.268
0.276997
0.284329
0.289997
0.293608
0.295382
0.295222
0.29341
0.289874
0.285225
0.279345
0.273442
0.265996
0.258372
0.245609
0.231184
0.208137
0.186342
0.161648
0.146661
0.140068
0.149689
0.196189
0.301152
0.241007
0.15806
0.117216
0.0966321
0.0817709
0.0716606
0.0640596
0.0590473
0.0554464
0.0528986
0.0505271
0.0483097
0.0460412
0.0438543
0.0417391
0.039756
0.0378931
0.036145
0.0344936
0.0329098
0.031392
0.0299232
0.0285194
0.0271782
0.0259165
0.0247388
0.0236604
0.0226948
0.0218643
0.0211975
0.0207244
0.0204803
0.0204897
0.0207623
0.0212842
0.0220008
0.0228617
0.0237787
0.0247357
0.0256829
0.0267017
0.0277909
0.0291575
0.0307562
0.0330406
0.0355293
0.353881
0.376566
0.398004
0.413549
0.418818
0.411423
0.392158
0.364689
0.333147
0.300969
0.270324
0.24241
0.217954
0.197555
0.18174
0.170764
0.164427
0.162082
0.163073
0.166699
0.1724
0.179529
0.187836
0.19694
0.206942
0.217485
0.228644
0.239846
0.251015
0.261361
0.270778
0.278512
0.284579
0.288506
0.290552
0.290548
0.28885
0.285315
0.280647
0.274633
0.268591
0.260911
0.253103
0.240149
0.225683
0.202731
0.181251
0.156962
0.142282
0.135525
0.144327
0.189505
0.294311
0.234509
0.154009
0.114783
0.095033
0.0807143
0.0708682
0.0633918
0.0583908
0.0548121
0.0523164
0.0500467
0.0479465
0.0457919
0.0437042
0.0416694
0.0397511
0.0379389
0.0362322
0.0346138
0.0330574
0.0315615
0.0301106
0.0287203
0.0273891
0.0261334
0.0249576
0.0238759
0.0229002
0.0220503
0.0213521
0.0208322
0.0205241
0.0204519
0.0206314
0.021057
0.0216873
0.0224785
0.0233478
0.0242715
0.0251951
0.0261823
0.0272297
0.028517
0.030019
0.0321302
0.0344693
0.354162
0.376958
0.398245
0.413458
0.418356
0.410653
0.391173
0.363589
0.332008
0.299826
0.269175
0.241223
0.216666
0.196063
0.179888
0.168365
0.161314
0.158151
0.15829
0.161105
0.166104
0.172679
0.180585
0.189422
0.19928
0.209787
0.221025
0.232402
0.243855
0.254548
0.26438
0.272524
0.279004
0.283267
0.285607
0.285783
0.284222
0.28071
0.276042
0.269916
0.263753
0.255859
0.247883
0.234758
0.220266
0.197431
0.176274
0.152406
0.138043
0.131158
0.139175
0.182964
0.287435
0.228119
0.150105
0.112445
0.0934982
0.0797084
0.0701272
0.0627778
0.0577869
0.0542201
0.0517605
0.0495773
0.047583
0.0455355
0.0435432
0.0415873
0.0397333
0.037972
0.0363071
0.0347228
0.0331948
0.031722
0.0302904
0.0289153
0.0275956
0.0263479
0.0251761
0.0240937
0.0231112
0.0222463
0.0215222
0.0209626
0.0205986
0.0204535
0.0205471
0.0208803
0.0214246
0.0221429
0.0229604
0.0238481
0.0247483
0.0257092
0.0267243
0.0279487
0.0293727
0.0313382
0.033547
0.354444
0.377342
0.398462
0.41333
0.417848
0.409832
0.390138
0.362441
0.330825
0.298646
0.268
0.240025
0.215391
0.194614
0.17812
0.166097
0.158379
0.15444
0.153755
0.155766
0.160046
0.166031
0.173485
0.182001
0.191659
0.202076
0.213341
0.224852
0.236555
0.247575
0.257812
0.266368
0.273274
0.277892
0.280549
0.280929
0.279528
0.276063
0.271415
0.265199
0.258934
0.250847
0.242719
0.229446
0.21494
0.192245
0.17142
0.147985
0.133946
0.126966
0.134235
0.176575
0.280538
0.22185
0.14635
0.110201
0.0920248
0.0787497
0.0694337
0.0622145
0.0572344
0.0536714
0.0512331
0.0491218
0.0472214
0.0452737
0.0433727
0.0414936
0.039703
0.0379926
0.03637
0.0348203
0.0333217
0.0318734
0.0304624
0.0291038
0.0277974
0.0265594
0.0253937
0.0243131
0.0233268
0.0224508
0.0217058
0.0211127
0.0207004
0.0204904
0.0205055
0.0207513
0.0212106
0.0218541
0.0226158
0.0234642
0.0243402
0.0252783
0.0262687
0.0274442
0.0288064
0.0306505
0.0327475
0.354727
0.377716
0.398653
0.413161
0.41729
0.408958
0.38905
0.361243
0.329597
0.297429
0.2668
0.23882
0.214132
0.193213
0.176438
0.163962
0.155627
0.150955
0.149479
0.1507
0.154249
0.159612
0.166568
0.174711
0.184112
0.194383
0.205624
0.217221
0.229137
0.240455
0.251085
0.260052
0.267393
0.272384
0.27538
0.275988
0.274771
0.271377
0.266771
0.260487
0.254139
0.245882
0.237617
0.224219
0.209714
0.18718
0.166693
0.143704
0.129994
0.12295
0.129507
0.170348
0.273631
0.215711
0.142743
0.108048
0.0906105
0.077835
0.0687842
0.0616986
0.0567316
0.0531663
0.0507362
0.0486825
0.0468642
0.0450086
0.043194
0.0413892
0.0396608
0.0380011
0.0364209
0.0349064
0.0334382
0.0320153
0.0306263
0.0292857
0.0279941
0.0267674
0.0256099
0.0245333
0.0235461
0.0226624
0.021901
0.0212801
0.0208263
0.0205592
0.020503
0.0206669
0.0210436
0.0216111
0.0223137
0.0231195
0.0239698
0.0248871
0.0258587
0.0269968
0.0283115
0.0300557
0.032058
0.355012
0.378081
0.398816
0.41295
0.416682
0.40803
0.387908
0.359994
0.328325
0.296176
0.265576
0.237609
0.212891
0.191861
0.174845
0.161961
0.153058
0.1477
0.145468
0.145917
0.148733
0.153449
0.159867
0.167585
0.176674
0.186743
0.197903
0.209536
0.22162
0.233208
0.24421
0.253584
0.261367
0.266746
0.270102
0.270963
0.269955
0.266655
0.262114
0.255785
0.249374
0.24097
0.232586
0.219084
0.204595
0.182244
0.162101
0.139568
0.126189
0.119109
0.124992
0.164294
0.266727
0.209712
0.139285
0.105986
0.0892527
0.0769612
0.0681749
0.0612269