/*--------------------------------*- C++ -*----------------------------------*\
| =========                 |                                                 |
| \\      /  F ield         | OpenFOAM: The Open Source CFD Toolbox           |
|  \\    /   O peration     | Version:  2412                                  |
|   \\  /    A nd           | Website:  www.openfoam.com                      |
|    \\/     M anipulation  |                                                 |
\*---------------------------------------------------------------------------*/
FoamFile
{
    version     2.0;
    format      ascii;
    arch        "LSB;label=32;scalar=64";
    class       volScalarField;
    location    "0.7";
    object      p;
}
// * * * * * * * * * * * * * * * * * * * * * * * * * * * * * * * * * * * * * //

dimensions      [0 2 -2 0 0 0 0];

internalField   nonuniform List<scalar> 
13077
(
107276
107107
106995
106730
106556
106254
106024
105716
105474
105196
104978
104736
104542
104311
104116
103856
103625
103294
103016
102609
102295
101799
101454
100842
100469
99700.7
99308.7
98327.4
97933.7
96654.8
96293.7
94592.7
94324.1
92014.9
91942.5
88741.9
89039.9
84509.2
85468.6
107295
107123
107010
106743
106567
106263
106031
105722
105478
105199
104981
104738
104544
104313
104119
103859
103629
103299
103021
102614
102301
101805
101459
100848
100475
99708
99315.1
98335.5
97940.6
96664.2
96301.2
94603.6
94332.3
92027.8
91951.5
88757.4
89049.9
84528
85479.7
78942.3
81030.9
71387.5
75433.4
60994.1
68526
46732.9
60551.7
27066.7
51400.1
-2911.52
37325.7
-56252.3
12144.3
-156723
-13295.6
-76273.3
4442.06
-33625.9
16453.4
-7316.28
24087.3
10193
30710.6
23605.6
37401.4
34299.9
43627.4
42782.7
49200.8
107315
107140
107026
106756
106579
106272
106039
105728
105483
105203
104983
104740
104545
104314
104121
103863
103633
103304
103026
102620
102306
101811
101465
100854
100481
99715.2
99321.5
98343.7
97947.6
96673.6
96308.8
94614.6
94340.6
92040.7
91960.6
88772.9
89059.9
84546.9
85491
78965.4
81043.3
71415.2
75446.5
61026.3
68539.8
46771.2
60571.8
27117.3
51439.3
-2843.63
37390.6
-56231.9
12147.4
-157249
-13449.4
-76297.4
4419.38
-33615.1
16445.4
-7303.8
24084.7
10208.3
30713.5
23621.1
37405.8
34313.2
43632.1
42793.8
49205.3
49594.9
54104.4
55086.6
58333.1
59536.7
61931.4
63146.5
64938.4
66051.1
67397.4
68371.7
69398.7
70264.4
71078.9
71890.3
72559.9
73356.3
73896.4
74699.2
75086.9
75926
76118.7
77056.3
76982.9
78128.3
77653.7
79207.9
78076.2
80451.4
78168.6
107334
107157
107042
106769
106590
106282
106047
105734
105487
105206
104986
104742
104547
104316
104124
103866
103637
103309
103031
102625
102311
101817
101471
100861
100487
99722.5
99328
98352
97954.6
96683.1
96316.4
94625.6
94348.9
92053.8
91969.7
88788.6
89070.1
84565.9
85502.3
78988.6
81056
71443.2
75459.9
61059.1
68554.2
46810.1
60592.3
27168.1
51478.5
-2776
37455.8
-56210.6
12151.4
-157778
-13604.1
-76320.9
4396.72
-33604.4
16437.2
-7291.39
24082.2
10223.8
30716.5
23636.8
37410.3
34326.7
43637
42805.1
49209.8
49603.7
54108
55093
58335.7
59541.1
61933.1
63149.4
64939.4
66052.8
67397.9
68372.7
69399.1
70264.9
71079.3
71890.3
72560.3
73355.8
73896.6
74697.7
75086.9
75923.3
76118.7
77052.3
76983.4
78123
77655.5
79200.8
78080.2
80442.3
78174.5
107353
107174
107058
106782
106602
106291
106055
105740
105492
105210
104988
104744
104549
104318
104126
103869
103641
103313
103036
102631
102316
101823
101476
100868
100493
99729.9
99334.6
98360.4
97961.7
96692.6
96324.1
94636.7
94357.2
92066.9
91978.9
88804.3
89080.3
84585
85513.7
79012
81068.7
71471.5
75473.6
61092.3
68569
46849.6
60613.3
27219
51517.6
-2708.65
37521.3
-56188.3
12156.5
-158312
-13759.5
-76343.5
4374.15
-33593.8
16428.9
-7279.01
24079.8
10239.5
30719.7
23652.7
37414.9
34340.2
43641.9
42816.4
49214.5
49612.5
54111.7
55099.5
58338.4
59545.6
61935
63152.4
64940.6
66054.7
67398.7
68373.9
69399.8
70265.6
71080
71890.7
72561
73355.5
73897.1
74696.5
75087.1
75920.9
76118.9
77048.7
76984.1
78117.8
77657.4
79193.8
78084.3
80433.5
78180.7
107373
107191
107074
106795
106614
106300
106063
105746
105497
105213
104991
104746
104551
104320
104128
103873
103645
103318
103041
102636
102322
101829
101482
100874
100499
99737.4
99341.3
98368.8
97968.8
96702.3
96331.8
94647.9
94365.7
92080.1
91988.2
88820.2
89090.6
84604.3
85525.3
79035.6
81081.7
71500
75487.5
61125.9
68584.2
46889.4
60634.6
27270
51556.6
-2641.44
37587.2
-56164.8
12162.6
-158849
-13915.8
-76365.4
4351.81
-33583.1
16420.6
-7266.55
24077.5
10255.3
30723
23668.7
37419.6
34353.8
43646.9
42827.7
49219.3
49621.4
54115.5
55106
58341.1
59550.2
61936.9
63155.5
64941.9
66056.7
67399.6
68375.2
69400.7
70266.6
71081
71891.3
72562
73355.5
73897.9
74695.5
75087.6
75918.9
76119.4
77045.3
76985
78113
77659.6
79187.2
78088.6
80424.9
78187.3
107393
107208
107091
106808
106626
106310
106071
105753
105502
105217
104994
104748
104552
104322
104131
103876
103649
103323
103046
102642
102327
101835
101488
100881
100505
99745
99348
98377.3
97976.1
96712
96339.7
94659.2
94374.2
92093.4
91997.6
88836.2
89101
84623.7
85537
79059.4
81094.8
71528.8
75501.7
61159.8
68599.6
46929.6
60656.1
27321.1
51595.6
-2574.4
37653.4
-56140.2
12169.7
-159390
-14072.9
-76386.6
4329.75
-33572.2
16412.4
-7254
24075.3
10271.3
30726.4
23684.7
37424.4
34367.5
43652
42839.2
49224.1
49630.4
54119.4
55112.6
58344
59554.9
61939
63158.7
64943.3
66058.9
67400.7
68376.8
69401.8
70267.8
71082.2
71892.2
72563.3
73355.7
73899
74694.8
75088.4
75917
76120.2
77042.2
76986.2
78108.4
77661.9
79180.8
78093.2
80416.6
78194
107413
107225
107107
106821
106638
106320
106079
105759
105507
105221
104996
104750
104554
104324
104133
103879
103653
103328
103051
102647
102333
101841
101494
100888
100512
99752.7
99354.9
98386
97983.5
96721.9
96347.6
94670.6
94382.8
92106.9
92007
88852.3
89111.5
84643.3
85548.9
79083.3
81108.1
71557.9
75516.1
61194
68615.4
46970.1
60677.8
27372.3
51634.5
-2507.62
37719.8
-56114.5
12178
-159935
-14230.8
-76406.8
4307.98
-33561
16404.3
-7241.36
24073.2
10287.4
30729.9
23700.9
37429.3
34381.3
43657.2
42850.6
49229
49639.4
54123.3
55119.2
58346.9
59559.6
61941.1
63162
64944.9
66061.2
67401.9
68378.5
69403
70269.3
71083.7
71893.3
72564.7
73356.2
73900.2
74694.4
75089.4
75915.5
76121.2
77039.4
76987.6
78104.1
77664.5
79174.7
78097.9
80408.4
78201.1
107434
107243
107124
106835
106650
106329
106087
105765
105512
105224
104999
104752
104556
104326
104135
103883
103657
103333
103056
102653
102338
101848
101500
100895
100518
99760.5
99361.8
98394.7
97990.9
96731.8
96355.6
94682.1
94391.6
92120.4
92016.6
88868.5
89122.2
84663
85560.8
79107.4
81121.5
71587.1
75530.8
61228.6
68631.5
47011
60699.8
27423.5
51673.2
-2441.14
37786.4
-56087.7
12187.4
-160484
-14389.4
-76426.3
4286.52
-33549.7
16396.3
-7228.62
24071.2
10303.5
30733.4
23717.1
37434.2
34395
43662.4
42862.2
49234
49648.4
54127.3
55125.8
58349.9
59564.4
61943.3
63165.4
64946.5
66063.5
67403.3
68380.3
69404.5
70270.9
71085.3
71894.6
72566.4
73356.9
73901.7
74694.2
75090.7
75914.2
76122.4
77036.9
76989.3
78100.1
77667.3
79168.8
78103
80400.5
78208.4
107454
107260
107140
106848
106662
106339
106095
105771
105517
105228
105002
104754
104558
104328
104138
103886
103661
103338
103061
102659
102344
101854
101506
100902
100525
99768.4
99368.9
98403.6
97998.5
96741.9
96363.8
94693.7
94400.4
92134
92026.3
88884.8
89132.9
84682.8
85572.9
79131.7
81135.1
71616.6
75545.7
61263.5
68647.9
47052.2
60722
27474.7
51711.7
-2375.05
37853.1
-56060
12197.8
-161037
-14548.6
-76444.8
4265.41
-33538.2
16388.4
-7215.77
24069.4
10319.8
30737.1
23733.4
37439.2
34408.9
43667.7
42873.7
49239
49657.5
54131.4
55132.5
58352.9
59569.2
61945.6
63168.8
64948.2
66066
67404.7
68382.3
69406.1
70272.6
71087.1
71896.1
72568.2
73357.8
73903.3
74694.1
75092.1
75913.1
76123.9
77034.6
76991.2
78096.4
77670.4
79163.3
78108.2
80392.9
78216
107475
107278
107157
106861
106674
106349
106103
105778
105521
105232
105005
104757
104559
104330
104140
103889
103665
103343
103066
102665
102350
101860
101512
100909
100532
99776.4
99376.1
98412.6
98006.1
96752
96372
94705.4
94409.3
92147.8
92036
88901.2
89143.7
84702.7
85585.1
79156.2
81148.9
71646.3
75560.9
61298.7
68664.6
47093.7
60744.4
27525.9
51750.1
-2309.38
37919.8
-56031.3
12209.3
-161594
-14708.4
-76462.4
4244.66
-33526.4
16380.8
-7202.8
24067.6
10336.2
30740.8
23749.7
37444.2
34422.8
43673
42885.3
49244
49666.6
54135.5
55139.2
58356
59574
61948
63172.3
64950.1
66068.5
67406.3
68384.3
69407.8
70274.5
71089.1
71897.7
72570.2
73358.8
73905.1
74694.3
75093.7
75912.2
76125.5
77032.6
76993.4
78093
77673.6
79158.1
78113.7
80385.5
78223.9
107496
107296
107174
106875
106687
106359
106111
105784
105526
105236
105007
104759
104561
104332
104142
103892
103669
103348
103071
102671
102356
101867
101519
100917
100538
99784.5
99383.4
98421.6
98013.9
96762.3
96380.3
94717.2
94418.3
92161.6
92045.9
88917.8
89154.7
84722.8
85597.4
79180.8
81162.8
71676.3
75576.2
61334.2
68681.6
47135.5
60767
27577.1
51788.2
-2244.21
37986.4
-56001.7
12221.9
-162154
-14868.8
-76479
4224.29
-33514.3
16373.2
-7189.71
24066
10352.7
30744.6
23766.1
37449.3
34436.7
43678.4
42896.8
49249.1
49675.7
54139.6
55146
58359.2
59578.9
61950.4
63175.8
64951.9
66071.1
67407.9
68386.4
69409.5
70276.5
71091.1
71899.5
72572.3
73360
73907
74694.6
75095.4
75911.6
76127.4
77030.9
76995.7
78089.9
77677.1
79153.2
78119.4
80378.5
78232.1
107517
107314
107191
106889
106699
106368
106120
105791
105532
105240
105010
104761
104563
104334
104144
103895
103673
103352
103077
102676
102362
101874
101525
100924
100545
99792.7
99390.7
98430.8
98021.8
96772.7
96388.8
94729.2
94427.4
92175.6
92055.8
88934.5
89165.7
84743
85609.8
79205.5
81176.9
71706.5
75591.8
61370
68698.9
47177.6
60789.7
27628.2
51826.1
-2179.58
38052.9
-55971.3
12235.6
-162719
-15029.7
-76494.6
4204.3
-33502
16365.9
-7176.49
24064.5
10369.3
30748.5
23782.5
37454.4
34450.6
43683.7
42908.4
49254.2
49684.8
54143.8
55152.7
58362.4
59583.8
61952.8
63179.4
64953.9
66073.8
67409.7
68388.6
69411.4
70278.6
71093.3
71901.4
72574.5
73361.3
73909.1
74695
75097.3
75911
76129.4
77029.3
76998.2
78087
77680.8
79148.5
78125.3
80371.7
78240.6
107538
107332
107209
106902
106711
106378
106128
105797
105537
105243
105013
104763
104565
104336
104146
103898
103677
103357
103082
102682
102368
101880
101532
100932
100552
99801
99398.2
98440.1
98029.8
96783.2
96397.3
94741.2
94436.6
92189.7
92065.8
88951.3
89176.8
84763.4
85622.3
79230.4
81191.1
71736.8
75607.6
61406
68716.4
47219.9
60812.6
27679.3
51863.7
-2115.55
38119.1
-55940.2
12250.2
-163288
-15190.9
-76509.2
4184.73
-33489.4
16358.8
-7163.13
24063.1
10386.1
30752.5
23799
37459.6
34464.5
43689.2
42920.1
49259.3
49693.9
54148
55159.5
58365.6
59588.7
61955.3
63183
64955.9
66076.5
67411.5
68390.9
69413.4
70280.8
71095.6
71903.4
72576.9
73362.7
73911.3
74695.6
75099.3
75910.6
76131.5
77027.9
77000.9
78084.4
77684.7
79144.2
78131.5
80365.3
78249.4
107560
107350
107226
106916
106724
106388
106136
105804
105542
105247
105016
104765
104566
104337
104149
103901
103681
103362
103087
102688
102374
101887
101538
100939
100560
99809.4
99405.8
98449.5
98037.9
96793.8
96405.9
94753.4
94445.9
92203.9
92076
88968.2
89188
84783.8
85635
79255.5
81205.4
71767.4
75623.5
61442.3
68734.1
47262.4
60835.6
27730.2
51900.9
-2052.15
38185
-55908.3
12265.9
-163860
-15352.6
-76522.8
4165.56
-33476.5
16351.9
-7149.63
24061.9
10402.9
30756.5
23815.6
37464.7
34478.5
43694.6
42931.7
49264.5
49703.1
54152.2
55166.3
58368.8
59593.7
61957.8
63186.6
64957.9
66079.3
67413.3
68393.3
69415.4
70283.1
71098
71905.5
72579.4
73364.2
73913.5
74696.2
75101.4
75910.4
76133.7
77026.7
77003.8
78082
77688.8
79140.1
78137.9
80359.1
78258.5
107581
107368
107244
106930
106736
106398
106145
105811
105547
105251
105019
104768
104568
104339
104151
103904
103684
103367
103092
102694
102380
101894
101545
100947
100567
99818
99413.6
98459.1
98046.1
96804.5
96414.7
94765.6
94455.3
92218.2
92086.2
88985.2
89199.4
84804.4
85647.7
79280.7
81219.9
71798.1
75639.7
61478.9
68752.1
47305.2
60858.7
27781.1
51937.9
-1989.44
38250.6
-55875.9
12282.6
-164437
-15514.6
-76535.3
4146.81
-33463.4
16345.2
-7135.99
24060.9
10419.8
30760.6
23832.2
37470
34492.5
43700.1
42943.3
49269.7
49712.2
54156.5
55173
58372.1
59598.6
61960.4
63190.3
64960.1
66082.1
67415.2
68395.7
69417.5
70285.4
71100.4
71907.7
72581.9
73365.9
73915.9
74697
75103.6
75910.2
76136.1
77025.6
77006.7
78079.7
77693
79136.3
78144.5
80353.2
78267.9
107603
107387
107261
106944
106749
106408
106153
105817
105552
105255
105022
104770
104570
104341
104153
103907
103688
103372
103097
102700
102386
101901
101552
100955
100574
99826.6
99421.4
98468.7
98054.4
96815.3
96423.6
94778
94464.8
92232.6
92096.5
89002.3
89210.8
84825.1
85660.6
79306
81234.5
71829
75656
61515.7
68770.3
47348.2
60881.9
27831.8
51974.5
-1927.45
38315.7
-55842.9
12300.2
-165018
-15676.8
-76546.7
4128.48
-33449.9
16338.7
-7122.19
24059.9
10436.8
30764.8
23848.8
37475.2
34506.5
43705.6
42955
49275
49721.4
54160.8
55179.8
58375.4
59603.6
61963
63194
64962.2
66085
67417.2
68398.1
69419.7
70287.8
71102.9
71909.9
72584.5
73367.6
73918.3
74697.8
75105.8
75910.2
76138.5
77024.6
77009.8
78077.7
77697.4
79132.8
78151.3
80347.5
78277.5
107626
107406
107279
106958
106762
106419
106162
105824
105557
105259
105025
104772
104572
104343
104155
103910
103692
103376
103103
102706
102392
101908
101558
100962
100581
99835.3
99429.3
98478.5
98062.9
96826.3
96432.6
94790.5
94474.4
92247.1
92107
89019.5
89222.3
84845.9
85673.5
79331.4
81249.2
71860.1
75672.5
61552.7
68788.7
47391.4
60905.2
27882.3
52010.7
-1866.21
38380.2
-55809.4
12318.8
-165603
-15839.2
-76557
4110.57
-33436.2
16332.5
-7108.23
24059.2
10453.9
30769
23865.4
37480.5
34520.6
43711.1
42966.6
49280.2
49730.5
54165.1
55186.6
58378.7
59608.6
61965.7
63197.8
64964.4
66087.9
67419.2
68400.6
69421.9
70290.2
71105.5
71912.3
72587.2
73369.3
73920.8
74698.7
75108.1
75910.2
76141
77023.8
77013
78075.8
77701.9
79129.4
78158.2
80342.2
78287.5
107648
107424
107297
106972
106774
106429
106170
105831
105562
105263
105028
104775
104574
104345
104157
103912
103695
103381
103108
102712
102398
101915
101565
100970
100589
99844.2
99437.4
98488.3
98071.5
96837.4
96441.7
94803.1
94484.1
92261.7
92117.5
89036.9
89233.9
84866.9
85686.6
79357
81264
71891.3
75689.1
61589.9
68807.3
47434.7
60928.6
27932.7
52046.6
-1805.76
38444.2
-55775.6
12338.2
-166193
-16001.8
-76566.2
4093.09
-33422.1
16326.5
-7094.11
24058.5
10471.1
30773.4
23882.1
37485.8
34534.6
43716.7
42978.3
49285.5
49739.7
54169.4
55193.5
58382.1
59613.6
61968.4
63201.5
64966.7
66090.8
67421.3
68403.1
69424.1
70292.7
71108.1
71914.6
72589.9
73371.2
73923.3
74699.7
75110.5
75910.3
76143.6
77023
77016.3
78074.1
77706.6
79126.3
78165.3
80337
78297.6
107671
107443
107315
106987
106787
106439
106179
105838
105568
105267
105031
104777
104576
104347
104159
103915
103698
103385
103113
102718
102404
101922
101572
100978
100596
99853.1
99445.5
98498.3
98080.2
96848.6
96450.9
94815.9
94494
92276.5
92128.1
89054.3
89245.6
84887.9
85699.7
79382.7
81278.9
71922.6
75705.9
61627.3
68826.1
47478.2
60951.9
27982.8
52082
-1746.12
38507.5
-55741.5
12358.5
-166786
-16164.4
-76574.3
4076.03
-33407.8
16320.8
-7079.83
24058.1
10488.4
30777.8
23898.9
37491.2
34548.7
43722.2
42990
49290.8
49748.8
54173.7
55200.3
58385.5
59618.6
61971.1
63205.3
64968.9
66093.8
67423.4
68405.7
69426.4
70295.2
71110.7
71917.1
72592.7
73373.1
73925.9
74700.7
75112.9
75910.4
76146.2
77022.4
77019.6
78072.4
77711.3
79123.3
78172.5
80332.1
78308
107694
107462
107333
107001
106800
106449
106187
105844
105573
105271
105034
104779
104577
104348
104161
103918
103702
103390
103118
102724
102410
101929
101579
100986
100604
99862.1
99453.8
98508.4
98089
96860
96460.2
94828.7
94503.9
92291.3
92138.9
89071.9
89257.4
84909
85712.9
79408.5
81293.9
71954.1
75722.7
61664.9
68845
47521.8
60975.3
28032.8
52117
-1687.31
38570.1
-55707.2
12379.5
-167384
-16327.2
-76581.2
4059.38
-33393.2
16315.3
-7065.39
24057.8
10505.7
30782.2
23915.6
37496.6
34562.8
43727.8
43001.6
49296.1
49758
54178.1
55207.1
58388.9
59623.7
61973.8
63209.1
64971.3
66096.8
67425.6
68408.3
69428.8
70297.8
71113.4
71919.5
72595.5
73375
73928.5
74701.8
75115.3
75910.6
76148.8
77021.8
77023
78070.9
77716.1
79120.5
78179.8
80327.3
78318.6
107717
107482
107352
107015
106813
106460
106196
105851
105578
105276
105037
104782
104579
104350
104162
103920
103705
103394
103122
102730
102416
101936
101586
100994
100612
99871.2
99462.1
98518.6
98097.9
96871.4
96469.7
94841.7
94514
92306.3
92149.7
89089.6
89269.2
84930.3
85726.1
79434.3
81308.9
71985.7
75739.7
61702.6
68864.1
47565.6
60998.7
28082.5
52151.6
-1629.35
38632
-55672.7
12401.4
-167986
-16489.9
-76587
4043.15
-33378.3
16310.1
-7050.78
24057.7
10523.2
30786.8
23932.5
37502
34576.8
43733.4
43013.3
49301.4
49767.2
54182.5
55213.9
58392.3
59628.7
61976.5
63212.9
64973.6
66099.9
67427.8
68411
69431.2
70300.4
71116.1
71922
72598.3
73377
73931.1
74702.9
75117.8
75910.9
76151.5
77021.2
77026.4
78069.5
77720.9
79117.9
78187.2
80322.8
78329.3
107740
107501
107370
107030
106826
106470
106205
105858
105584
105280
105040
104784
104581
104352
104164
103922
103708
103398
103127
102735
102422
101943
101593
101002
100620
99880.4
99470.6
98529
98106.9
96883
96479.3
94854.8
94524.1
92321.4
92160.6
89107.3
89281.2
84951.6
85739.5
79460.3
81324.1
72017.4
75756.8
61740.5
68883.3
47609.4
61022.1
28132
52185.7
-1572.26
38693
-55638.2
12423.9
-168593
-16652.6
-76591.6
4027.33
-33363.2
16305.2
-7036
24057.8
10540.8
30791.5
23949.3
37507.4
34590.9
43739.1
43025
49306.7
49776.3
54186.9
55220.7
58395.7
59633.7
61979.3
63216.8
64976
66102.9
67430
68413.7
69433.6
70303
71118.9
71924.6
72601.2
73379
73933.8
74704.1
75120.3
75911.2
76154.1
77020.8
77029.8
78068.2
77725.8
79115.3
78194.7
80318.3
78340.2
107764
107521
107389
107045
106839
106481
106214
105865
105589
105284
105043
104787
104583
104354
104166
103925
103711
103402
103132
102741
102428
101949
101600
101010
100627
99889.6
99479.1
98539.4
98116.1
96894.7
96489
94868.1
94534.4
92336.6
92171.6
89125.2
89293.2
84973
85752.9
79486.4
81339.2
72049.2
75774
61778.5
68902.6
47653.2
61045.4
28181.2
52219.4
-1516.05
38753.2
-55603.8
12447
-169204
-16815.2
-76595
4011.91
-33347.8
16300.5
-7021.07
24058.1
10558.5
30796.2
23966.2
37512.9
34605
43744.7
43036.6
49312.1
49785.5
54191.3
55227.5
58399.2
59638.8
61982.1
63220.6
64978.4
66106
67432.3
68416.4
69436
70305.7
71121.6
71927.1
72604.1
73381.1
73936.5
74705.3
75122.8
75911.5
76156.8
77020.3
77033.3
78066.9
77730.7
79112.9
78202.2
80314
78351.2
107788
107540
107407
107059
106852
106491
106222
105872
105595
105288
105046
104789
104585
104356
104168
103927
103714
103406
103136
102747
102434
101956
101607
101018
100635
99898.9
99487.7
98549.9
98125.3
96906.5
96498.8
94881.4
94544.8
92351.9
92182.7
89143.2
89305.3
84994.5
85766.4
79512.5
81354.5
72081
75791.3
61816.6
68921.9
47697.2
61068.7
28230.1
52252.6
-1460.72
38812.5
-55569.5
12470.7
-169819
-16977.7
-76597.2
3996.89
-33332.1
16296
-7005.97
24058.6
10576.3
30801.1
23983.1
37518.4
34619.1
43750.4
43048.3
49317.5
49794.6
54195.8
55234.3
58402.7
59643.8
61984.9
63224.5
64980.9
66109.2
67434.6
68419.1
69438.5
70308.3
71124.4
71929.7
72607
73383.2
73939.2
74706.5
75125.3
75911.9
76159.6
77020
77036.7
78065.7
77735.7
79110.6
78209.8
80309.8
78362.4
107812
107560
107426
107074
106866
106502
106231
105879
105600
105293
105049
104792
104587
104357
104169
103929
103716
103410
103141
102752
102439
101963
101614
101026
100643
99908.2
99496.4
98560.4
98134.6
96918.4
96508.7
94894.9
94555.3
92367.3
92193.9
89161.2
89317.5
85016
85779.9
79538.7
81369.8
72113
75808.6
61854.7
68941.4
47741.1
61091.9
28278.8
52285.3
-1406.28
38870.8
-55535.4
12495
-170438
-17140.1
-76598.2
3982.27
-33316.2
16291.9
-6990.71
24059.2
10594.2
30806
24000.1
37524
34633.3
43756.1
43060
49322.9
49803.8
54200.2
55241.2
58406.2
59648.9
61987.8
63228.4
64983.3
66112.3
67437
68421.9
69441
70311.1
71127.3
71932.3
72610
73385.3
73942
74707.8
75127.8
75912.3
76162.3
77019.6
77040.2
78064.6
77740.7
79108.4
78217.4
80305.7
78373.6
107836
107580
107446
107089
106879
106513
106240
105887
105606
105297
105052
104794
104589
104359
104171
103931
103719
103413
103145
102757
102445
101970
101620
101035
100651
99917.5
99505.1
98571.1
98144.1
96930.4
96518.8
94908.4
94565.9
92382.9
92205.2
89179.4
89329.7
85037.7
85793.5
79564.9
81385.1
72144.9
75825.9
61892.9
68960.8
47785.1
61115
28327.1
52317.6
-1352.73
38928.2
-55501.6
12519.7
-171063
-17302.4
-76598
3968.03
-33300
16287.9
-6975.29
24060.1
10612.1
30811.1
24017.1
37529.6
34647.4
43761.8
43071.7
49328.3
49812.9
54204.7
55248
58409.7
59653.9
61990.6
63232.2
64985.9
66115.5
67439.4
68424.7
69443.6
70313.8
71130.1
71935
72612.9
73387.5
73944.8
74709.1
75130.3
75912.7
76165
77019.3
77043.7
78063.5
77745.6
79106.2
78225
80301.7
78384.9
107861
107600
107465
107104
106892
106524
106249
105894
105612
105301
105056
104797
104591
104361
104173
103933
103721
103417
103149
102763
102451
101977
101627
101043
100659
99926.9
99513.8
98581.8
98153.6
96942.5
96528.9
94922.1
94576.6
92398.5
92216.6
89197.6
89342.1
85059.4
85807.1
79591.2
81400.4
72176.9
75843.3
61931.2
68980.3
47829
61138.1
28375.1
52349.3
-1300.07
38984.6
-55468.2
12544.8
-171691
-17464.4
-76596.6
3954.19
-33283.6
16284.3
-6959.72
24061.1
10630.2
30816.2
24034.1
37535.3
34661.6
43767.5
43083.3
49333.7
49822
54209.1
55254.8
58413.2
59659
61993.5
63236.2
64988.4
66118.7
67441.8
68427.5
69446.1
70316.6
71133
71937.6
72615.9
73389.7
73947.6
74710.5
75132.9
75913.2
76167.7
77019.1
77047.2
78062.5
77750.6
79104.1
78232.6
80297.8
78396.2
107886
107621
107484
107119
106906
106534
106258
105901
105617
105306
105059
104799
104593
104363
104174
103935
103724
103420
103153
102768
102456
101983
101634
101050
100666
99936.2
99522.6
98592.6
98163.2
96954.7
96539.2
94935.9
94587.5
92414.3
92228.1
89215.9
89354.4
85081.2
85820.7
79617.5
81415.8
72209
75860.7
61969.5
68999.9
47872.9
61160.9
28422.8
52380.5
-1248.3
39040
-55435.2
12570.3
-172324
-17626.3
-76594
3940.72
-33267
16280.8
-6944.01
24062.3
10648.4
30821.5
24051.2
37541
34675.7
43773.3
43095
49339.1
49831.2
54213.6
55261.6
58416.7
59664.1
61996.4
63240.1
64990.9
66121.9
67444.2
68430.4
69448.8
70319.3
71135.9
71940.3
72618.9
73391.9
73950.3
74711.8
75135.5
75913.7
76170.4
77018.8
77050.7
78061.5
77755.6
79102.1
78240.2
80293.9
78407.5
107911
107641
107504
107134
106919
106545
106267
105908
105623
105310
105062
104802
104595
104365
104176
103937
103726
103423
103157
102773
102461
101989
101640
101058
100674
99945.6
99531.4
98603.4
98172.9
96967
96549.5
94949.8
94598.4
92430.1
92239.7
89234.3
89366.9
85103
85834.4
79643.8
81431.1
72241
75878.1
62007.9
69019.4
47916.8
61183.7
28470.2
52411.3
-1197.4
39094.4
-55402.8
12596
-172962
-17788
-76590.1
3927.63
-33250.1
16277.6
-6928.15
24063.7
10666.6
30826.9
24068.3
37546.8
34689.9
43779.1
43106.7
49344.6
49840.3
54218.1
55268.4
58420.2
59669.1
61999.3
63244
64993.5
66125.2
67446.7
68433.3
69451.4
70322.2
71138.8
71943
72621.9
73394.1
73953.2
74713.2
75138
75914.2
76173.2
77018.6
77054.2
78060.6
77760.6
79100.2
78247.8
80290
78418.9
107937
107662
107523
107149
106933
106556
106277
105916
105629
105315
105066
104805
104597
104366
104177
103939
103728
103426
103161
102777
102467
101996
101647
101066
100682
99954.9
99540.2
98614.2
98182.6
96979.4
96560
94963.8
94609.4
92446
92251.4
89252.8
89379.4
85124.9
85848.1
79670.2
81446.4
72273.1
75895.4
62046.2
69038.9
47960.6
61206.3
28517.2
52441.5
-1147.38
39147.8
-55371
12621.9
-173604
-17949.4
-76585
3914.91
-33233
16274.7
-6912.15
24065.3
10685
30832.4
24085.5
37552.6
34704.1
43784.9
43118.3
49350
49849.4
54222.6
55275.2
58423.8
59674.2
62002.3
63248
64996.1
66128.4
67449.2
68436.2
69454
70325
71141.7
71945.8
72625
73396.4
73956
74714.6
75140.6
75914.8
76175.9
77018.5
77057.6
78059.8
77765.5
79098.3
78255.4
80286.2
78430.3
107962
107682
107543
107165
106947
106567
106286
105923
105635
105319
105069
104807
104599
104368
104179
103940
103730
103429
103164
102782
102472
102002
101653
101074
100690
99964.1
99549
98625
98192.3
96991.8
96570.5
94977.9
94620.6
92462.1
92263.1
89271.4
89391.9
85146.9
85861.8
79696.6
81461.8
72305.1
75912.8
62084.5
69058.3
48004.3
61228.7
28563.9
52471.2
-1098.22
39200.2
-55339.8
12647.9
-174251
-18110.7
-76578.6
3902.57
-33215.7
16272
-6896.01
24067.1
10703.4
30838
24102.7
37558.5
34718.3
43790.7
43130
49355.5
49858.5
54227.1
55282
58427.3
59679.2
62005.2
63251.9
64998.8
66131.7
67451.8
68439.2
69456.7
70327.8
71144.7
71948.5
72628
73398.6
73958.8
74716.1
75143.2
75915.3
76178.6
77018.4
77061.1
78059
77770.5
79096.5
78262.9
80282.5
78441.6
107988
107703
107563
107180
106960
106579
106295
105931
105641
105324
105073
104810
104601
104370
104180
103942
103732
103432
103168
102786
102476
102008
101660
101081
100697
99973.3
99557.7
98635.8
98202.1
97004.2
96581.1
94992.1
94631.8
92478.2
92274.9
89290.1
89404.6
85168.8
85875.6
79723
81477.1
72337.1
75930.1
62122.8
69077.7
48047.9
61250.9
28610.2
52500.4
-1049.91
39251.6
-55309.4
12674
-174902
-18271.8
-76571
3890.6
-33198.2
16269.5
-6879.74
24069.1
10721.9
30843.7
24119.9
37564.5
34732.5
43796.6
43141.7
49361
49867.6
54231.7
55288.8
58430.9
59684.3
62008.2
63255.9
65001.4
66135.1
67454.3
68442.1
69459.5
70330.7
71147.7
71951.3
72631.1
73400.9
73961.7
74717.5
75145.8
75915.9
76181.3
77018.3
77064.6
78058.2
77775.4
79094.8
78270.5
80278.8
78453
108015
107724
107584
107196
106974
106590
106304
105938
105647
105329
105076
104813
104603
104372
104182
103944
103734
103435
103171
102791
102481
102014
101666
101089
100704
99982.3
99566.4
98646.6
98211.9
97016.7
96591.7
95006.3
94643.1
92494.4
92286.8
89308.8
89417.2
85190.9
85889.3
79749.4
81492.4
72369.1
75947.3
62161
69097.1
48091.4
61273
28656.1
52529.1
-1002.44
39301.9
-55279.8
12700
-175558
-18432.7
-76562.1
3878.99
-33180.5
16267.2
-6863.35
24071.2
10740.5
30849.6
24137.2
37570.5
34746.7
43802.6
43153.4
49366.6
49876.8
54236.2
55295.5
58434.5
59689.4
62011.2
63259.9
65004.1
66138.4
67456.9
68445.1
69462.2
70333.6
71150.7
71954.1
72634.1
73403.2
73964.5
74719
75148.4
75916.6
76184
77018.2
77068
78057.5
77780.3
79093.1
78278
80275.1
78464.3
108042
107746
107604
107211
106988
106601
106314
105946
105653
105334
105080
104816
104605
104373
104183
103945
103735
103437
103174
102795
102486
102019
101672
101096
100712
99991.3
99575
98657.3
98221.7
97029.2
96602.5
95020.6
94654.5
92510.7
92298.8
89327.6
89429.9
85212.9
85903.1
79775.8
81507.6
72401.1
75964.5
62199.2
69116.3
48134.8
61294.8
28701.7
52557.3
-955.794
39351.2
-55251
12726
-176219
-18593.4
-76551.9
3867.76
-33162.5
16265.2
-6846.84
24073.5
10759.1
30855.5
24154.5
37576.6
34761
43808.5
43165
49372.1
49885.9
54240.8
55302.3
58438.1
59694.4
62014.2
63263.9
65006.8
66141.8
67459.6
68448.1
69465
70336.6
71153.7
71956.9
72637.2
73405.6
73967.4
74720.5
75150.9
75917.3
76186.7
77018.2
77071.4
78056.8
77785.2
79091.5
78285.4
80271.5
78475.6
108069
107767
107624
107227
107002
106612
106323
105954
105659
105338
105084
104819
104607
104375
104185
103947
103737
103440
103177
102799
102490
102025
101677
101103
100719
100000
99583.5
98668
98231.4
97041.7
96613.2
95035
94665.9
92527.1
92310.8
89346.4
89442.7
85235
85916.8
79802.2
81522.8
72433
75981.6
62237.3
69135.5
48178
61316.4
28746.9
52585
-909.95
39399.6
-55223.2
12751.8
-176884
-18754
-76540.4
3856.9
-33144.4
16263.3
-6830.21
24076
10777.8
30861.6
24171.9
37582.8
34775.2
43814.5
43176.7
49377.7
49895
54245.3
55309.1
58441.7
59699.5
62017.2
63267.9
65009.6
66145.1
67462.2
68451.2
69467.8
70339.5
71156.7
71959.7
72640.3
73407.9
73970.3
74722.1
75153.5
75917.9
76189.4
77018.2
77074.9
78056.2
77790.1
79090
78292.8
80267.9
78486.9
108096
107789
107645
107243
107016
106624
106333
105961
105665
105343
105087
104822
104609
104377
104186
103948
103738
103442
103180
102802
102494
102030
101683
101110
100726
100009
99591.9
98678.6
98241.2
97054.2
96624
95049.4
94677.4
92543.5
92323
89365.3
89455.5
85257.2
85930.6
79828.6
81538
72464.9
75998.7
62275.4
69154.5
48221.2
61337.9
28791.8
52612.2
-864.892
39446.9
-55196.2
12777.4
-177555
-18914.4
-76527.6
3846.4
-33126.1
16261.7
-6813.46
24078.7
10796.6
30867.9
24189.3
37589
34789.5
43820.6
43188.4
49383.3
49904.1
54249.9
55315.8
58445.3
59704.6
62020.2
63271.9
65012.3
66148.5
67464.9
68454.3
69470.6
70342.5
71159.7
71962.5
72643.4
73410.3
73973.2
74723.6
75156.2
75918.7
76192.1
77018.3
77078.3
78055.6
77795
79088.5
78300.2
80264.3
78498.1
108124
107810
107666
107259
107030
106635
106342
105969
105671
105348
105091
104825
104612
104379
104187
103950
103740
103444
103182
102806
102498
102035
101688
101117
100733
100017
99600.2
98689.1
98250.8
97066.7
96634.8
95063.8
94689
92560
92335.1
89384.3
89468.3
85279.3
85944.3
79855
81553.1
72496.7
76015.7
62313.3
69173.5
48264.1
61359.1
28836.3
52638.9
-820.601
39493.4
-55170.3
12802.7
-178230
-19074.8
-76513.4
3836.28
-33107.5
16260.3
-6796.61
24081.5
10815.4
30874.2
24206.8
37595.3
34803.8
43826.7
43200.1
49388.9
49913.1
54254.5
55322.6
58448.9
59709.6
62023.3
63275.9
65015.1
66152
67467.6
68457.4
69473.4
70345.5
71162.8
71965.4
72646.5
73412.7
73976.1
74725.2
75158.8
75919.4
76194.8
77018.4
77081.7
78055.1
77799.8
79087.1
78307.6
80260.7
78509.2
108152
107832
107687
107275
107044
106647
106352
105977
105677
105353
105095
104828
104614
104381
104189
103951
103741
103446
103185
102810
102502
102040
101693
101123
100739
100026
99608.4
98699.5
98260.4
97079.1
96645.5
95078.3
94700.6
92576.6
92347.4
89403.3
89481.1
85301.5
85958.1
79881.3
81568.1
72528.4
76032.5
62351.2
69192.3
48306.9
61380
28880.4
52665.1
-777.054
39538.9
-55145.4
12827.6
-178910
-19235.1
-76498
3826.52
-33088.8
16259.2
-6779.65
24084.5
10834.3
30880.7
24224.3
37601.8
34818.2
43832.8
43211.8
49394.6
49922.2
54259.1
55329.4
58452.5
59714.7
62026.3
63280
65017.9
66155.4
67470.4
68460.5
69476.3
70348.5
71165.9
71968.3
72649.7
73415.1
73979
74726.8
75161.4
75920.2
76197.5
77018.5
77085.1
78054.6
77804.6
79085.7
78314.9
80257.2
78520.3
108180
107854
107708
107291
107059
106658
106361
105985
105683
105358
105099
104831
104616
104383
104190
103952
103743
103448
103187
102813
102506
102045
101698
101130
100746
100034
99616.4
98709.7
98269.9