/*--------------------------------*- C++ -*----------------------------------*\
| =========                 |                                                 |
| \\      /  F ield         | OpenFOAM: The Open Source CFD Toolbox           |
|  \\    /   O peration     | Version:  2412                                  |
|   \\  /    A nd           | Website:  www.openfoam.com                      |
|    \\/     M anipulation  |                                                 |
\*---------------------------------------------------------------------------*/
FoamFile
{
    version     2.0;
    format      ascii;
    arch        "LSB;label=32;scalar=64";
    class       surfaceScalarField;
    location    "0.7";
    object      phi;
}
// * * * * * * * * * * * * * * * * * * * * * * * * * * * * * * * * * * * * * //

dimensions      [0 3 -1 0 0 0 0];

oriented        oriented;

internalField   nonuniform List<scalar> 
25922
(
0.00749578
0.0253451
0.00745438
0.0206568
0.00744557
0.0166454
0.00745441
0.0137135
0.00747049
0.0110705
0.00748091
0.00839145
0.00747577
0.00510242
0.00745041
0.00133168
0.00740463
-0.00264347
0.0073431
-0.0064165
0.00727271
-0.00961908
0.00720351
-0.0120322
0.00714812
-0.0134062
0.00711993
-0.013639
0.00712408
-0.0127018
0.00715088
-0.0110769
0.00718243
-0.00931957
0.0072079
-0.0080029
0.00722632
-0.00699612
0.00724134
-0.00633267
0.00725476
-0.00567599
0.00726782
-0.00522245
0.00727975
-0.0046313
0.00729136
-0.00431075
0.00730137
-0.00373874
0.00731109
-0.00351959
0.0073188
-0.0029326
0.00732649
-0.00282351
0.00733171
-0.00216949
0.00733754
-0.00222431
0.00734038
-0.00145601
0.0073447
-0.00169497
0.00734523
-0.000744985
0.00734848
-0.00124829
0.0073467
-3.65154e-05
0.0073491
-0.000877164
0.00734452
0.000727287
0.00734617
-0.000598957
0.00156588
0.00749616
0.0254247
0.00745548
0.0206975
0.00744768
0.0166532
0.00745763
0.0137035
0.0074748
0.0110534
0.00748616
0.00838009
0.00748167
0.00510691
0.00745659
0.00135677
0.00741065
-0.00259753
0.00734851
-0.00635437
0.00727705
-0.00954761
0.00720629
-0.0119614
0.00714885
-0.0133488
0.00711841
-0.0136085
0.00712067
-0.012704
0.00714653
-0.0111027
0.007178
-0.00935103
0.00720371
-0.00802862
0.0072223
-0.00701472
0.00723737
-0.00634774
0.00725077
-0.0056894
0.00726381
-0.00523548
0.00727573
-0.00464322
0.00728734
-0.00432236
0.00729736
-0.00374876
0.00730709
-0.00352932
0.0073148
-0.00294031
0.0073225
-0.00283121
0.00732774
-0.00217473
0.00733358
-0.00223015
0.00733643
-0.00145887
0.00734078
-0.00169931
0.00734134
-0.000745552
0.00734463
-0.00125157
0.0073429
-3.47854e-05
0.00734537
-0.000879635
0.00734087
0.000731788
0.00734261
-0.000600696
0.00733438
0.00157412
0.00733421
-0.000404471
0.00731875
0.00237513
0.00731346
-0.000705289
0.00728832
0.00235255
0.00728081
-0.00251832
0.00725483
0.000455902
0.00726209
-0.00613811
0.00726217
-0.00218636
0.0073162
-0.0074456
0.00736395
0.000663737
0.00744396
0.00201468
0.00749634
0.0129694
0.00757347
0.0349269
0.0076222
0.0625709
0.00771036
-0.0173589
0.00775215
-0.0483881
0.00781577
-0.0307176
0.00784527
-0.0106368
0.00788418
-0.00706643
0.00790122
0.0034958
0.00790557
0.00358912
0.00788324
0.00846828
0.00784571
0.00481287
0.00779889
0.00579308
0.00775188
0.00177742
0.00771367
0.00238356
0.00767949
-0.000286364
0.00765514
0.000435863
0.00762949
-0.00129288
-0.00057325
0.00749655
0.0255039
0.0074566
0.0207375
0.00744983
0.01666
0.0074609
0.0136925
0.00747917
0.0110351
0.0074915
0.00836775
0.00748768
0.00511073
0.00746289
0.00138156
0.0074168
-0.00255145
0.00735408
-0.00629164
0.00728156
-0.00947509
0.00720925
-0.0118891
0.00714977
-0.0132893
0.00711703
-0.0135758
0.00711734
-0.0127043
0.00714218
-0.0111276
0.00717352
-0.00938237
0.00719947
-0.00805457
0.00721826
-0.0070335
0.00723338
-0.00636286
0.00724677
-0.00570279
0.00725979
-0.0052485
0.0072717
-0.00465513
0.00728332
-0.00433398
0.00729335
-0.00375879
0.00730308
-0.00353905
0.00731081
-0.00294803
0.00731853
-0.00283893
0.00732378
-0.00217998
0.00732964
-0.00223602
0.00733251
-0.00146174
0.00733688
-0.00170368
0.00733748
-0.000746154
0.00734082
-0.00125491
0.00733914
-3.31097e-05
0.00734168
-0.000882176
0.00733726
0.000736209
0.0073391
-0.000602535
0.00733099
0.00158223
0.00733097
-0.000404455
0.00731566
0.00239044
0.00731046
-0.000700089
0.00728526
0.00237776
0.00727749
-0.00251055
0.0072509
0.000482485
0.00725731
-0.00614452
0.00725633
-0.00218538
0.00730973
-0.00749901
0.00735798
0.000615492
0.00743954
0.00193312
0.00749363
0.0129153
0.00757308
0.0348474
0.00762436
0.0625196
0.00771052
-0.017445
0.00774847
-0.048426
0.00781092
-0.03078
0.00784159
-0.0106675
0.00788293
-0.00710777
0.00790352
0.00347522
0.00791137
0.00358126
0.00789239
0.00848727
0.00785719
0.00484808
0.00781186
0.0058384
0.00776537
0.00182391
0.00772715
0.00242178
0.00769257
-0.000251781
0.00766768
0.000460755
0.0076414
-0.00126661
0.00762137
-0.000553216
0.00759748
-0.00154184
0.0075788
-0.000730246
0.00755741
-0.00104147
0.0075424
-0.000117445
0.00752874
2.39916e-05
0.00752483
0.000967173
0.00752755
0.0013684
0.00754102
0.00226342
0.00755901
0.00278898
0.00757784
0.00349848
0.00758945
0.00388778
0.00759032
0.00422114
0.00757951
0.00430465
0.0075589
0.00419478
0.00753204
0.00404964
0.0075015
0.00368964
0.00747068
0.00357974
0.00744065
0.00321425
0.00741345
0.00332812
0.00738822
0.00298891
0.00736519
0.0033875
0.00734306
0.0029683
0.00732055
0.00358018
0.00729823
0.00289636
0.00727086
0.00367464
0.00724494
0.00253525
0.00720356
0.00336657
0.00716946
0.00148524
0.0070904
0.00210917
-0.00181505
0.00749695
0.0255827
0.00745775
0.0207767
0.00745201
0.0166657
0.00746422
0.0136803
0.00748361
0.0110157
0.00749692
0.00835444
0.00749378
0.00511387
0.00746929
0.00140605
0.00742308
-0.00250523
0.00735977
-0.00622834
0.00728622
-0.00940154
0.00721239
-0.0118153
0.00715088
-0.0132278
0.0071158
-0.0135407
0.0071141
-0.0127026
0.00713784
-0.0111513
0.00716901
-0.00941354
0.0071952
-0.00808076
0.00721419
-0.00705248
0.00722937
-0.00637804
0.00724276
-0.00571619
0.00725577
-0.0052615
0.00726767
-0.00466704
0.00727929
-0.0043456
0.00728934
-0.00376883
0.00729909
-0.00354881
0.00730683
-0.00295578
0.00731456
-0.00284666
0.00731983
-0.00218524
0.00732572
-0.00224191
0.00732861
-0.00146463
0.00733301
-0.00170808
0.00733365
-0.000746789
0.00733703
-0.00125829
0.00733541
-3.14914e-05
0.00733803
-0.00088479
0.00733369
0.000740545
0.00733563
-0.000604479
0.00732765
0.00159021
0.00732779
-0.000404598
0.00731264
0.00240559
0.00730755
-0.000694997
0.00728229
0.00240301
0.00727425
-0.00250251
0.00724706
0.000509679
0.00725259
-0.00615005
0.0072505
-0.00218329
0.00730322
-0.00755173
0.00735192
0.000566792
0.00743505
0.00184998
0.0074909
0.0128595
0.0075727
0.0347656
0.0076265
0.0624658
0.00771056
-0.0175291
0.00774455
-0.04846
0.00780574
-0.0308412
0.00783755
-0.0106993
0.00788135
-0.00715158
0.00790557
0.003451
0.00791704
0.00356979
0.00790151
0.0085028
0.00786873
0.00488085
0.00782501
0.00588212
0.00777912
0.00186979
0.00774097
0.00245994
0.00770605
-0.000216862
0.00768068
0.000486129
0.00765384
-0.00123978
0.00763314
-0.000532517
0.00760844
-0.00151714
0.00758873
-0.000710538
0.00756603
-0.00101876
0.0075494
-0.000100818
0.00753382
3.95759e-05
0.00752791
0.000973086
0.00752877
0.00136754
0.00754118
0.00225101
0.00755933
0.00277083
0.00757996
0.00347785
0.00759445
0.00387329
0.00759852
0.00421708
0.00759035
0.00431282
0.00757144
0.00421369
0.00754535
0.00407572
0.00751472
0.00372027
0.00748326
0.0036112
0.00745208
0.00324543
0.0074236
0.00335659
0.00739691
0.0030156
0.00737272
0.00341169
0.00734944
0.00299158
0.00732632
0.00360329
0.00730337
0.00291931
0.00727602
0.00370199
0.00724991
0.00256135
0.00720892
0.00340756
0.00717487
0.00151929
0.00709599
0.00218805
-0.00174025
0.00749737
0.0256611
0.00745892
0.0208151
0.00745424
0.0166704
0.0074676
0.0136669
0.00748811
0.0109952
0.00750242
0.00834013
0.00749998
0.00511631
0.00747581
0.00143022
0.00742948
-0.0024589
0.00736562
-0.00616448
0.00729105
-0.00932697
0.0072157
-0.01174
0.00715216
-0.0131643
0.00711475
-0.0135033
0.00711096
-0.0126989
0.00713353
-0.0111739
0.00716448
-0.0094445
0.00719089
-0.00810717
0.00721009
-0.00707167
0.00722535
-0.0063933
0.00723874
-0.00572958
0.00725173
-0.00527449
0.00726364
-0.00467895
0.00727527
-0.00435722
0.00728533
-0.00377889
0.0072951
-0.00355858
0.00730286
-0.00296354
0.00731062
-0.00285442
0.00731591
-0.00219054
0.00732182
-0.00224781
0.00732474
-0.00146755
0.00732917
-0.00171252
0.00732984
-0.000747463
0.00733327
-0.00126171
0.00733171
-2.99336e-05
0.00733441
-0.000887481
0.00733016
0.000744793
0.00733221
-0.000606531
0.00732436
0.00159806
0.00732467
-0.000404907
0.00730968
0.00242058
0.00730471
-0.000690022
0.00727941
0.00242831
0.00727111
-0.0024942
0.0072433
0.000537489
0.00724793
-0.00615468
0.0072447
-0.00218006
0.00729666
-0.00760369
0.00734577
0.000517686
0.00743048
0.00176527
0.00748815
0.0128018
0.00757233
0.0346815
0.00762864
0.0624095
0.00771049
-0.0176109
0.00774041
-0.0484899
0.00780023
-0.030901
0.00783314
-0.0107322
0.00787942
-0.00719786
0.00790735
0.00342308
0.00792252
0.00355462
0.00791055
0.00851477
0.0078803
0.0049111
0.00783827
0.00592414
0.00779308
0.00191498
0.00775506
0.00249796
0.00771987
-0.000181677
0.00769407
0.00051193
0.00766673
-0.00121244
0.00764544
-0.000511218
0.00762002
-0.00149171
0.00759935
-0.000689867
0.00757541
-0.00099483
0.00755724
-8.26431e-05
0.00753981
5.70081e-05
0.00753189
0.000981005
0.00753082
0.00136862
0.00754194
0.0022399
0.00755993
0.00275283
0.00758203
0.00345575
0.0075993
0.00385602
0.00760671
0.00420967
0.00760149
0.00431805
0.00758461
0.00423057
0.00755958
0.00410075
0.00752907
0.00375077
0.00749712
0.00364315
0.00746485
0.0032777
0.00743512
0.00338632
0.0074069
0.00304381
0.00738146
0.00343713
0.00735688
0.00301617
0.00733304
0.00362713
0.00730933
0.00294301
0.00728192
0.0037294
0.00725554
0.00258773
0.00721495
0.00344816
0.00718091
0.00155332
0.0071023
0.00226666
-0.00166433
0.00749779
0.0257391
0.00746012
0.0208528
0.00745651
0.016674
0.00747104
0.0136524
0.00749269
0.0109735
0.007508
0.00832482
0.00750627
0.00511804
0.00748244
0.00145405
0.00743601
-0.00241247
0.0073716
-0.00610007
0.00729604
-0.0092514
0.0072192
-0.0116631
0.00715365
-0.0130987
0.00711387
-0.0134635
0.00710794
-0.0126929
0.00712925
-0.0111952
0.00715993
-0.00947518
0.00718655
-0.0081338
0.00720596
-0.00709108
0.0072213
-0.00640864
0.00723471
-0.00574299
0.00724769
-0.00528748
0.00725961
-0.00469086
0.00727124
-0.00436886
0.00728133
-0.00378898
0.00729112
-0.00356837
0.00729891
-0.00297133
0.00730668
-0.00286219
0.007312
-0.00219585
0.00731793
-0.00225374
0.00732088
-0.0014705
0.00732535
-0.00171698
0.00732606
-0.000748178
0.00732954
-0.0012652
0.00732805
-2.84393e-05
0.00733082
-0.000890253
0.00732667
0.000748948
0.00732883
-0.000608697
0.00732112
0.00160577
0.0073216
-0.000405387
0.0073068
0.00243539
0.00730195
-0.000685174
0.00727661
0.00245364
0.00726805
-0.00248563
0.00723962
0.000565917
0.00724333
-0.0061584
0.00723892
-0.00217565
0.00729007
-0.00765483
0.00733952
0.00046823
0.00742583
0.00167896
0.00748538
0.0127423
0.00757197
0.0345949
0.00763077
0.0623507
0.00771034
-0.0176905
0.00773605
-0.0485156
0.0077944
-0.0309594
0.00782834
-0.0107661
0.00787712
-0.00724664
0.00790882
0.00339138
0.00792779
0.00353564
0.00791949
0.00852308
0.00789185
0.00493873
0.00785162
0.00596438
0.00780721
0.00195939
0.0077694
0.00253577
0.00773402
-0.000146297
0.00770784
0.000538106
0.00768006
-0.00118465
0.00765821
-0.000489368
0.00763213
-0.00146564
0.00761057
-0.0006683
0.00758549
-0.000969757
0.00756585
-6.29954e-05
0.00754665
7.62087e-05
0.00753676
0.000990901
0.00753372
0.00137166
0.00754336
0.00223027
0.00756089
0.0027353
0.00758412
0.00343252
0.00760397
0.00383617
0.00761478
0.00419886
0.00761278
0.00432005
0.00759828
0.00424507
0.00757462
0.00412441
0.00754449
0.0037809
0.00751222
0.00367541
0.00747897
0.00331095
0.00744802
0.00341727
0.00741826
0.00307357
0.00739149
0.00346391
0.00736547
0.00304218
0.0073408
0.00365181
0.00731619
0.00296763
0.00728864
0.00375695
0.0072619
0.00261447
0.00722169
0.00348837
0.00718761
0.0015874
0.00710935
0.00234492
-0.00158729
0.00749822
0.0258166
0.00746135
0.0208897
0.00745882
0.0166765
0.00747453
0.0136367
0.00749734
0.0109507
0.00751367
0.00830848
0.00751267
0.00511905
0.00748918
0.00147753
0.00744267
-0.00236595
0.00737774
-0.00603514
0.00730119
-0.00917485
0.00722289
-0.0115848
0.00715535
-0.0130312
0.00711319
-0.0134213
0.00710506
-0.0126848
0.00712501
-0.0112152
0.00715535
-0.00950552
0.00718217
-0.00816061
0.0072018
-0.00711072
0.00721724
-0.00642408
0.00723066
-0.00575641
0.00724365
-0.00530046
0.00725557
-0.00470278
0.00726722
-0.00438052
0.00727733
-0.00379908
0.00728715
-0.00357819
0.00729497
-0.00297915
0.00730277
-0.00287
0.00730811
-0.0022012
0.00731407
-0.0022597
0.00731705
-0.00147348
0.00732155
-0.00172148
0.00732232
-0.000748938
0.00732585
-0.00126873
0.00732442
-2.70123e-05
0.00732728
-0.000893107
0.00732322
0.000753005
0.0073255
-0.000610979
0.00731794
0.00161333
0.00731859
-0.000406045
0.00730397
0.00245001
0.00729926
-0.000680462
0.0072739
0.002479
0.00726508
-0.00247681
0.00723603
0.000594967
0.00723881
-0.00616118
0.00723318
-0.00217002
0.00728344
-0.0077051
0.00733319
0.000418485
0.00742108
0.00159107
0.00748258
0.0126808
0.00757162
0.0345058
0.00763291
0.0622894
0.00771009
-0.0177677
0.00773146
-0.048537
0.00778822
-0.0310162
0.00782316
-0.0108011
0.00787442
-0.0072979
0.00790996
0.00335584
0.00793282
0.00351278
0.00792829
0.00852761
0.00790338
0.00496365
0.00786502
0.00600274
0.00782148
0.00200292
0.00778397
0.00257329
0.00774846
-0.000110789
0.00772196
0.000564602
0.00769378
-0.00115647
0.00767143
-0.000467014
0.00764476
-0.00143897
0.00762236
-0.000645899
0.00759623
-0.000943622
0.00757518
-4.19511e-05
0.0075543
9.70937e-05
0.00754248
0.00100273
0.00753747
0.00137667
0.0075455
0.00222224
0.00756231
0.00271848
0.00758631
0.00340852
0.00760848
0.00381401
0.00762267
0.00418466
0.00762411
0.00431861
0.00761233
0.00425685
0.00759038
0.00414635
0.0075609
0.00381037
0.00752853
0.00370779
0.00749444
0.00334504
0.00746235
0.00344935
0.00743105
0.00310488
0.00740289
0.00349206
0.00737534
0.00306973
0.00734971
0.00367744
0.00732405
0.00299329
0.00729628
0.00378472
0.00726905
0.00264169
0.00722922
0.0035282
0.00719502
0.0016216
0.0071172
0.00242274
-0.00150913
0.00749867
0.0258937
0.0074626
0.0209257
0.00746117
0.016678
0.00747809
0.0136197
0.00750205
0.0109268
0.00751942
0.00829111
0.00751916
0.00511931
0.00749605
0.00150065
0.00744946
-0.00231937
0.00738403
-0.00596971
0.00730652
-0.00909735
0.00722678
-0.0115051
0.00715725
-0.0129616
0.00711271
-0.0133768
0.00710231
-0.0126744
0.00712083
-0.0112337
0.00715077
-0.00953545
0.00717775
-0.00818759
0.00719762
-0.00713059
0.00721316
-0.00643962
0.0072266
-0.00576986
0.00723959
-0.00531344
0.00725152
-0.00471471
0.00726319
-0.00439219
0.00727333
-0.00380922
0.00728318
-0.00358803
0.00729103
-0.00298701
0.00729886
-0.00287783
0.00730424
-0.00220657
0.00731023
-0.0022657
0.00731325
-0.0014765
0.00731779
-0.00172602
0.00731859
-0.000749743
0.00732219
-0.00127232
0.00732083
-2.56553e-05
0.00732377
-0.000896047
0.00731981
0.000756961
0.00732222
-0.000613381
0.0073148
0.00162074
0.00731564
-0.000406887
0.00730122
0.00246443
0.00729666
-0.000675897
0.00727129
0.00250437
0.00726221
-0.00246774
0.00723254
0.000624641
0.00723436
-0.006163
0.00722748
-0.00216314
0.00727679
-0.0077544
0.00732676
0.000368512
0.00741624
0.00150159
0.00747976
0.0126173
0.00757127
0.0344143
0.00763505
0.0622256
0.00770975
-0.0178424
0.00772666
-0.0485539
0.00778171
-0.0310712
0.00781757
-0.0108369
0.0078713
-0.00735163
0.00791073
0.00331641
0.00793758
0.00348593
0.00793693
0.00852826
0.00791484
0.00498574
0.00787847
0.00603912
0.00783588
0.0020455
0.00779873
0.00261044
0.00776317
-7.52211e-05
0.0077364
0.000591366
0.00770788
-0.00112795
0.00768507
-0.000444201
0.00765786
-0.00141177
0.00763469
-0.000622725
0.00760757
-0.000916502
0.00758521
-1.9586e-05
0.00756272
0.000119578
0.00754903
0.00101642
0.00754207
0.00138363
0.0075484
0.00221591
0.00756426
0.00270262
0.00758869
0.00338409
0.00761286
0.00378984
0.00763033
0.0041672
0.00763536
0.00431358
0.00762662
0.00426559
0.00760674
0.00416622
0.00757823
0.00383888
0.007546
0.00374002
0.00751125
0.00337979
0.00747813
0.00348247
0.00744532
0.0031377
0.00741576
0.00352162
0.00738657
0.00309891
0.00735988
0.00370413
0.00733301
0.00302016
0.00730492
0.00381281
0.00727709
0.00266952
0.00723761
0.00356769
0.00720321
0.00165599
0.00712592
0.00250003
-0.00142984
0.00749913
0.0259703
0.00746388
0.020961
0.00746357
0.0166783
0.0074817
0.0136016
0.00750685
0.0109016
0.00752526
0.0082727
0.00752575
0.00511882
0.00750302
0.00152338
0.00745639
-0.00227274
0.00739047
-0.00590378
0.00731203
-0.00901892
0.00723087
-0.0114239
0.00715939
-0.0128902
0.00711245
-0.0133299
0.00709973
-0.0126617
0.00711672
-0.0112507
0.00714618
-0.00956491
0.0071733
-0.00821471
0.0071934
-0.00715069
0.00720905
-0.00645527
0.00722253
-0.00578333
0.00723552
-0.00532643
0.00724746
-0.00472666
0.00725916
-0.00440389
0.00726933
-0.00381939
0.00727922
-0.00359792
0.00728711
-0.0029949
0.00729498
-0.0028857
0.00730039
-0.00221199
0.00730641
-0.00227172
0.00730947
-0.00147955
0.00731405
-0.0017306
0.0073149
-0.000750597
0.00731856
-0.00127597
0.00731727
-2.43718e-05
0.0073203
-0.000899077
0.00731645
0.000760812
0.00731898
-0.00061591
0.00731172
0.001628
0.00731276
-0.00040792
0.00729854
0.00247865
0.00729413
-0.000671487
0.00726876
0.00252974
0.00725944
-0.00245841
0.00722914
0.000654938
0.00723
-0.00616386
0.00722182
-0.00215496
0.00727011
-0.00780269
0.00732024
0.000318384
0.0074113
0.00141053
0.0074769
0.0125517
0.00757094
0.0343203
0.0076372
0.0621594
0.00770934
-0.0179145
0.00772164
-0.0485662
0.00777486
-0.0311244
0.00781156
-0.0108736
0.00786775
-0.00740782
0.00791112
0.00327303
0.00794204
0.00345501
0.00794539
0.00852491
0.00792622
0.00500491
0.00789192
0.00607341
0.00785039
0.00208704
0.00781368
0.00264714
0.00777812
-3.9658e-05
0.00775114
0.000618342
0.00772233
-0.00109913
0.0076991
-0.000420974
0.00767141
-0.00138408
0.00764752
-0.000598834
0.00761949
-0.000888468
0.00759588
4.02675e-06
0.00757188
0.000143578
0.00755639
0.00103191
0.00754751
0.00139251
0.00755208
0.00221135
0.00756681
0.00268789
0.00759134
0.00335956
0.00761718
0.003764
0.00763772
0.00414666
0.00764643
0.00430487
0.00764101
0.00427101
0.00762356
0.00418366
0.00759636
0.00386609
0.00756455
0.00377183
0.00752935
0.00341499
0.00749535
0.00351647
0.0074611
0.00317194
0.00743015
0.00355257
0.00739927
0.00312979
0.00737141
0.00373199
0.0073432
0.00304837
0.00731469
0.00384132
0.00728611
0.00269811
0.00724694
0.00360685
0.00721226
0.00169068
0.00713557
0.00257672
-0.00134943
0.00749961
0.0260465
0.0074652
0.0209954
0.00746602
0.0166775
0.00748537
0.0135823
0.00751171
0.0108753
0.00753119
0.00825322
0.00753245
0.00511756
0.00751012
0.00154571
0.00746346
-0.00222607
0.00739707
-0.00583739
0.00731772
-0.00893957
0.00723517
-0.0113414
0.00716175
-0.0128167
0.00711241
-0.0132805
0.00709732
-0.0126466
0.00711269
-0.011266
0.00714159
-0.00959381
0.00716882
-0.00824195
0.00718915
-0.00717102
0.00720493
-0.00647105
0.00721844
-0.00579684
0.00723144
-0.00533942
0.0072434
-0.00473863
0.00725513
-0.00441561
0.00726534
-0.00382961
0.00727526
-0.00360784
0.0072832
-0.00300283
0.0072911
-0.0028936
0.00729656
-0.00221744
0.00730262
-0.00227778
0.00730571
-0.00148265
0.00731034
-0.00173523
0.00731125
-0.000751504
0.00731496
-0.00127969
0.00731375
-2.31652e-05
0.00731688
-0.000902201
0.00731314
0.000764552
0.00731579
-0.000618567
0.0073087
0.00163509
0.00730993
-0.00040915
0.00729593
0.00249265
0.00729169
-0.000667246
0.00726633
0.0025551
0.00725677
-0.00244885
0.00722584
0.000685859
0.00722572
-0.00616374
0.00721622
-0.00214546
0.00726342
-0.00784989
0.00731363
0.000268172
0.00740625
0.00131791
0.007474
0.0124839
0.0075706
0.0342237
0.00763936
0.0620906
0.00770885
-0.017984
0.00771641
-0.0485738
0.00776766
-0.0311757
0.00780512
-0.0109111
0.00786374
-0.00746643
0.00791109
0.00322567
0.00794617
0.00341994
0.00795362
0.00851746
0.00793748
0.00502104
0.00790536
0.00610553
0.00786496
0.00212744
0.00782878
0.00268332
0.00779329
-4.16711e-06
0.00776616
0.000645477
0.0077371
-0.00107007
0.0077135
-0.000397379
0.00768538
-0.00135596
0.00766083
-0.00057428
0.00763195
-0.000859585
0.00760716
2.88167e-05
0.00758173
0.00016901
0.00756451
0.00104913
0.00755378
0.00140324
0.00755657
0.00220856
0.00757002
0.00267444
0.00759435
0.00333523
0.0076215
0.00373685
0.00764487
0.00412329
0.00765723
0.00429251
0.00765537
0.00427288
0.0076407
0.00419832
0.00761516
0.00389163
0.00758408
0.00380291
0.00754867
0.0034504
0.00751397
0.00355117
0.0074784
0.0032075
0.0074461
0.00358488
0.0074135
0.00316239
0.0073844
0.00376108
0.00735472
0.00307805
0.00732568
0.00387036
0.0072962
0.00272759
0.00725732
0.00364573
0.00722223
0.00172577
0.00714622
0.00265272
-0.00126788
0.00750009
0.0261221
0.00746654
0.021029
0.00746851
0.0166755
0.00748911
0.0135617
0.00751665
0.0108477
0.00753721
0.00823266
0.00753926
0.00511551
0.00751734
0.00156762
0.00747067
-0.0021794
0.00740383
-0.00577055
0.0073236
-0.00885934
0.00723968
-0.0112574
0.00716436
-0.0127414
0.00711262
-0.0132288
0.0070951
-0.0126291
0.00710875
-0.0112797
0.00713701
-0.00962206
0.0071643
-0.00826924
0.00718487
-0.00719159
0.00720078
-0.00648696
0.00721433
-0.0058104
0.00722734
-0.00535243
0.00723933
-0.00475062
0.00725109
-0.00442737
0.00726134
-0.00383986
0.00727131
-0.00361781
0.00727929
-0.00301082
0.00728725
-0.00290156
0.00729274
-0.00222294
0.00729885
-0.00228389
0.00730199
-0.00148579
0.00730666
-0.0017399
0.00730762
-0.000752466
0.0073114
-0.00128347
0.00731027
-2.20387e-05
0.00731349
-0.00090542
0.00730987
0.000768177
0.00731266
-0.000621358
0.00730573
0.00164202
0.00730717
-0.000410583
0.00729339
0.00250642
0.00728933
-0.000663182
0.00726399
0.00258044
0.0072542
-0.00243905
0.00722265
0.0007174
0.00722153
-0.00616261
0.00721067
-0.0021346
0.00725672
-0.00789594
0.00730693
0.000217957
0.0074011
0.00122375
0.00747105
0.012414
0.00757027
0.0341245
0.00764154
0.0620194
0.0077083
-0.0180508
0.00771098
-0.0485764
0.00776013
-0.0312248
0.00779825
-0.0109492
0.00785925
-0.00752743
0.00791062
0.0031743
0.00794992
0.00338063
0.00796159
0.0085058
0.00794859
0.00503404
0.00791877
0.00613535
0.00787959
0.00216661
0.00784402
0.0027189
0.00780866
3.11866e-05
0.00778142
0.000672715
0.00775217
-0.00104082
0.00772825
-0.00037346
0.00769975
-0.00132746
0.00767458
-0.000549116
0.00764492
-0.000829917
0.00761902
5.47159e-05
0.00759223
0.000195795
0.00757337
0.001068
0.00756084
0.00141577
0.00756185
0.00220756
0.00757392
0.00266237
0.00759779
0.00331136
0.0076259
0.00370874
0.00765178
0.00409741
0.00766771
0.00427658
0.00766956
0.00427103
0.007658
0.00420988
0.00763448
0.00391515
0.00760446
0.00383293
0.00756912
0.00348574
0.00753393
0.00358636
0.00749719
0.00324424
0.00746362
0.00361845
0.00742931
0.0031967
0.00739893
0.00379146
0.00736766
0.00310932
0.007338
0.00390002
0.00730748
0.00275811
0.00726882
0.00368439
0.0072332
0.00176139
0.00715795
0.00272797
-0.0011852
0.0075006
0.0261973
0.00746791
0.0210616
0.00747106
0.0166723
0.00749291
0.0135398
0.00752167
0.010819
0.00754332
0.00821102
0.00754617
0.00511266
0.00752469
0.0015891
0.00747802
-0.00213273
0.00741076
-0.00570329
0.00732967
-0.00877825
0.00724443
-0.0111722
0.00716722
-0.0126642
0.00711309
-0.0131746
0.00709309
-0.012609
0.00710493
-0.0112915
0.00713245
-0.00964958
0.00715977
-0.00829656
0.00718056
-0.00721238
0.00719661
-0.00650301
0.00721021
-0.00582401
0.00722323
-0.00536545
0.00723525
-0.00476264
0.00724704
-0.00443916
0.00725735
-0.00385017
0.00726737
-0.00362783
0.0072754
-0.00301885
0.0072834
-0.00290955
0.00728895
-0.00222849
0.0072951
-0.00229003
0.00729829
-0.00148897
0.00730301
-0.00174462
0.00730403
-0.000753487
0.00730787
-0.00128731
0.00730683
-2.0996e-05
0.00731015
-0.000908739
0.00730665
0.000771682
0.00730957
-0.000624288
0.00730282
0.00164877
0.00730447
-0.000412225
0.00729093
0.00251995
0.00728706
-0.000659306
0.00726176
0.00260574
0.00725174
-0.00242903
0.00721958
0.00074956
0.00721744
-0.00616048
0.00720519
-0.00212236
0.00725001
-0.00794075
0.00730015
0.000167821
0.00739583
0.00112807
0.00746806
0.0123417
0.00756995
0.0340226
0.00764374
0.0619456
0.00770769
-0.0181147
0.00770535
-0.0485741
0.00775225
-0.0312717
0.00779095
-0.0109879
0.00785427
-0.00759075
0.00790967
0.00311891
0.00795328
0.00333702
0.00796927
0.0084898
0.00795953
0.00504379
0.0079321
0.00616277
0.00789425
0.00220446
0.00785936
0.00275379
0.00782421
6.63368e-05
0.00779692
0.000699999
0.00776752
-0.00101141
0.00774332
-0.000349259
0.00771447
-0.00129861
0.00768875
-0.000523393
0.00765836
-0.000799522
0.00763141
8.16593e-05
0.00760335
0.000223857
0.00758291
0.00108844
0.00756866
0.00143003
0.00756791
0.00220832
0.00757853
0.00265175
0.00760174
0.00328815
0.00763046
0.00368001
0.00765852
0.00406936
0.00767783
0.00425727
0.00768347
0.00426539
0.00767528
0.00421806
0.00765415
0.00393628
0.00762554
0.00386154
0.00759058
0.0035207
0.00755513
0.00362181
0.00751742
0.00328195
0.00748269
0.00365318
0.00744672
0.00323267
0.00741505
0.00382313
0.00738211
0.00314225
0.00735173
0.00393041
0.00732003
0.0027898
0.00728155
0.00372287
0.00724527
0.00179767
0.00717084
0.0028024
-0.00110136
0.00750111
0.0262719
0.00746932
0.0210934
0.00747365
0.016668
0.00749678
0.0135167
0.00752677
0.010789
0.00754952
0.00818827
0.00755318
0.00510899
0.00753216
0.00161012
0.00748552
-0.0020861
0.00741786
-0.00563563
0.00733594
-0.00869632
0.00724939
-0.0110856
0.00717035
-0.0125852
0.00711383
-0.0131181
0.0070913
-0.0125865
0.00710124
-0.0113015
0.00712792
-0.00967626
0.00715521
-0.00832385
0.00717622
-0.00723339
0.00719241
-0.0065192
0.00720607
-0.00583767
0.00721911
-0.0053785
0.00723116
-0.00477468
0.00724299
-0.00445099
0.00725335
-0.00386053
0.00726342
-0.0036379
0.00727152
-0.00302695
0.00727957
-0.00291761
0.00728518
-0.00223409
0.00729137
-0.00229623
0.00729461
-0.00149222
0.00729938
-0.00174939
0.00730047
-0.000754572
0.00730439
-0.00129123
0.00730343
-2.00385e-05
0.00730685
-0.000912161
0.00730347
0.000775063
0.00730654
-0.000627359
0.00729997
0.00165534
0.00730183
-0.000414083
0.00728855
0.00253324
0.00728487
-0.000655631
0.00725963
0.00263098
0.00724938
-0.00241879
0.00721661
0.000782334
0.00721345
-0.00615732
0.00719979
-0.0021087
0.00724331
-0.00798427
0.00729328
0.000117851
0.00739044
0.0010309
0.00746501
0.0122672
0.00756962
0.033918
0.00764598
0.0618692
0.00770704
-0.0181758
0.00769953
-0.0485666
0.00774405
-0.0313163
0.00778319
-0.011027
0.00784879
-0.00765635
0.00790822
0.00305948
0.0079562
0.00328904
0.00797663
0.00846937
0.00797025
0.00505017
0.00794534
0.00618769
0.0079089
0.0022409
0.00787478
0.00278791
0.0078399
0.000101216
0.00781262
0.000727276
0.00778312
-0.000981911
0.00775868
-0.00032482
0.00772954
-0.00126947
0.0077033
-0.000497158
0.00767224
-0.000768455
0.00764431
0.000109585
0.00761505
0.000253122
0.00759311
0.00111038
0.00757721
0.00144593
0.00757474
0.0022108
0.00758387
0.00264261
0.00760623
0.0032658
0.00763527
0.00365097
0.00766513
0.0040395
0.00768758
0.00423482
0.007697
0.00425597
0.00769242
0.00422264
0.00767402
0.00395467
0.00764717
0.00388839
0.0076129
0.00355497
0.00757747
0.00365723
0.00753899
0.00332043
0.00750327
0.0036889
0.00746573
0.00327021
0.00743277
0.00385609
0.00739813
0.00317689
0.00736696
0.00396159
0.00733395
0.00282281
0.00729558
0.00376124
0.00725851
0.00183474
0.00718497
0.00287595
-0.00101638
0.00750165
0.0263461
0.00747076
0.0211243
0.00747629
0.0166625
0.00750072
0.0134923
0.00753195
0.0107578
0.00755581
0.0081644
0.00756031
0.00510449
0.00753976
0.00163067
0.00749317
-0.00203951
0.00742513
-0.00556759
0.00734241
-0.00861359
0.0072546
-0.0109978
0.00717374
-0.0125043
0.00711486
-0.0130592
0.00708976
-0.0125614
0.00709769
-0.0113094
0.00712344
-0.00970201
0.00715064
-0.00835105
0.00717185
-0.0072546
0.00718818
-0.00653553
0.00720191
-0.00585139
0.00721497
-0.00539156
0.00722705
-0.00478676
0.00723893
-0.00446286
0.00724935
-0.00387095
0.00725948
-0.00364803
0.00726765
-0.00303512
0.00727576
-0.00292572
0.00728142
-0.00223975
0.00728767
-0.00230248
0.00729097
-0.00149551
0.0072958
-0.00175422
0.00729695
-0.00075572
0.00730094
-0.00129522
0.00730007
-1.91739e-05
0.0073036
-0.000915689
0.00730035
0.000778315
0.00730357
-0.000630577
0.00729718
0.00166172
0.00729926
-0.000416163
0.00728624
0.00254626
0.00728277
-0.000652167
0.0072576
0.00265616
0.00724714
-0.00240834
0.00721376
0.000815715
0.00720957
-0.00615312
0.00719446
-0.00209359
0.00723662
-0.00802642
0.00728633
6.81386e-05
0.00738493
0.000932295
0.00746191
0.0121902
0.0075693
0.0338106
0.00764824
0.0617903
0.00770634
-0.0182339
0.00769354
-0.0485538
0.00773552
-0.0313582
0.007775
-0.0110665
0.00784278
-0.00772414
0.00790624
0.00299602
0.00795866
0.00323662
0.00798364
0.0084444
0.00798073
0.00505307
0.00795844
0.00620998
0.00792352
0.00227582
0.00789025
0.00282118
0.00785571
0.000135756
0.0078285
0.000754485
0.00779895
-0.000952353
0.00777431
-0.000300187
0.00774492
-0.00124007
0.00771822
-0.000470458
0.00768653
-0.000736769
0.00765769
0.000138434
0.00762729
0.000283522
0.00760393
0.00113374
0.00758646
0.0014634
0.00758231
0.00221495
0.00758994
0.00263498
0.00761132
0.00324442
0.00764039
0.0036219
0.00767169
0.0040082
0.00769699
0.00420952
0.0077101
0.00424286
0.00770926
0.00422348
0.00769389
0.00397004
0.00766917
0.00391311
0.00763593
0.0035882
0.00760081
0.00369235
0.00756181
0.00335943
0.00752526
0.00372545
0.00748629
0.00330918
0.0074521
0.00389027
0.00741576
0.00321323
0.00738373
0.00399361
0.00734932
0.00285722
0.00731101
0.00379955
0.00727302
0.00187273
0.0072004
0.00294856
-0.000930254
0.00750219
0.0264196
0.00747224
0.0211543
0.00747899
0.0166557
0.00750472
0.0134665
0.00753721
0.0107253
0.0075622
0.00813941
0.00756755
0.00509914
0.00754749
0.00165073
0.00750097
-0.00199299
0.00743258
-0.0054992
0.00734908
-0.00853009
0.00726004
-0.0109088
0.00717742
-0.0124217
0.00711618
-0.012998
0.00708848
-0.0125337
0.00709431
-0.0113152
0.00711902
-0.00972672
0.00714606