/*--------------------------------*- C++ -*----------------------------------*\
| =========                 |                                                 |
| \\      /  F ield         | OpenFOAM: The Open Source CFD Toolbox           |
|  \\    /   O peration     | Version:  2412                                  |
|   \\  /    A nd           | Website:  www.openfoam.com                      |
|    \\/     M anipulation  |                                                 |
\*---------------------------------------------------------------------------*/
FoamFile
{
    version     2.0;
    format      ascii;
    arch        "LSB;label=32;scalar=64";
    class       volVectorField;
    location    "0.7";
    object      U;
}
// * * * * * * * * * * * * * * * * * * * * * * * * * * * * * * * * * * * * * //

dimensions      [0 1 -1 0 0 0 0];

internalField   nonuniform List<vector> 
13077
(
(100.033 -1.88148 0)
(100.675 -5.17177 8.20734e-17)
(101.839 -8.11294 -7.65208e-17)
(103.431 -10.433 0)
(105.199 -12.5968 0)
(107.101 -14.8251 0)
(108.846 -17.4301 0)
(110.414 -20.3257 0)
(111.686 -23.3093 0)
(112.738 -26.1139 -8.20983e-17)
(113.624 -28.513 0)
(114.476 -30.3766 0)
(115.482 -31.581 0)
(116.861 -32.0971 -9.96667e-17)
(118.878 -31.9601 0)
(121.487 -31.4936 0)
(124.489 -31.0335 8.25693e-17)
(127.503 -30.8683 7.50575e-17)
(130.561 -30.9254 3.26419e-21)
(133.584 -31.2048 6.48278e-17)
(136.806 -31.5289 0)
(140.054 -32.0056 5.89209e-17)
(143.589 -32.4575 -5.66406e-17)
(147.119 -33.0827 -5.43652e-17)
(151.018 -33.6321 0)
(154.856 -34.4047 0)
(159.18 -35.0382 -4.82654e-17)
(163.36 -35.9752 4.61366e-17)
(168.198 -36.6871 3.12217e-21)
(172.763 -37.8192 8.45775e-17)
(178.236 -38.607 0)
(183.241 -39.9798 0)
(189.515 -40.837 0)
(195.022 -42.5078 3.50243e-17)
(202.319 -43.4228 -3.38183e-17)
(208.391 -45.4656 0)
(217.004 -46.4241 3.04665e-17)
(223.697 -48.9342 0)
(234.025 -49.9317 -2.70926e-17)
(100.034 -1.89955 0)
(100.684 -5.21775 1.2708e-20)
(101.86 -8.18397 7.64583e-17)
(103.468 -10.5203 -7.15475e-17)
(105.252 -12.6935 0)
(107.171 -14.923 0)
(108.928 -17.5217 0)
(110.505 -20.407 -7.19432e-17)
(111.779 -23.3786 0)
(112.827 -26.173 8.22024e-17)
(113.702 -28.565 0)
(114.535 -30.4264 9.4286e-17)
(115.512 -31.6354 0)
(116.855 -32.1638 -1.86857e-21)
(118.834 -32.0427 0)
(121.417 -31.5886 0)
(124.41 -31.1329 8.35174e-17)
(127.427 -30.9669 0)
(130.488 -31.0226 -7.00152e-17)
(133.511 -31.3024 3.42994e-21)
(136.731 -31.6278 0)
(139.977 -32.1067 -5.94585e-17)
(143.51 -32.5606 -3.13546e-21)
(147.038 -33.1884 0)
(150.935 -33.7397 0)
(154.771 -34.5152 0)
(159.093 -35.1507 -4.85533e-17)
(163.27 -36.0911 0)
(168.107 -36.8051 -4.46127e-17)
(172.669 -37.9413 -4.24913e-17)
(178.14 -38.7314 -4.08993e-17)
(183.142 -40.1092 3.87815e-17)
(189.414 -40.969 3.73788e-17)
(194.919 -42.6461 -3.51858e-17)
(202.214 -43.5637 0)
(208.284 -45.6144 3.16232e-17)
(216.896 -46.5755 -6.12693e-17)
(223.586 -49.0954 -2.79927e-17)
(233.914 -50.0954 5.45396e-17)
(241.268 -53.2173 -7.02768e-21)
(253.805 -54.3304 0)
(261.755 -58.348 1.98896e-17)
(277.145 -59.9399 0)
(285.735 -65.3548 3.12096e-17)
(305.268 -67.9578 -3.41572e-17)
(315.203 -74.8535 1.15649e-17)
(341.422 -78.3751 -4.97766e-21)
(354.935 -85.228 0)
(392.23 -88.5334 0)
(411.983 -92.4488 6.44724e-19)
(462.121 -96.8854 -7.05692e-18)
(489.749 -88.7956 0)
(557.407 -94.1066 -1.46305e-18)
(608.461 -2.26169 0)
(562.969 45.7159 -4.70967e-18)
(546.872 58.5943 1.96652e-17)
(509.438 66.0054 1.52979e-18)
(494.03 66.1249 1.50934e-17)
(464.147 68.7293 9.01215e-18)
(449.348 66.6627 4.80643e-18)
(423.421 66.1095 1.86042e-17)
(408.108 61.5425 0)
(385.371 58.9281 3.32773e-17)
(370.972 54.2491 3.03589e-17)
(352.319 51.984 0)
(339.991 48.4769 -6.00101e-17)
(325.037 46.8164 -8.73957e-17)
(314.375 44.1601 0)
(301.99 42.8503 1.12501e-20)
(100.035 -1.91788 0)
(100.693 -5.26428 -1.63833e-16)
(101.881 -8.25578 -7.63728e-17)
(103.506 -10.6086 7.14895e-17)
(105.306 -12.7912 0)
(107.241 -15.0217 0)
(109.012 -17.614 -6.87945e-17)
(110.597 -20.4888 7.19969e-17)
(111.874 -23.4484 0)
(112.919 -26.2322 0)
(113.782 -28.6168 0)
(114.596 -30.4758 -9.45081e-17)
(115.546 -31.6892 9.90891e-17)
(116.851 -32.2295 1.0073e-16)
(118.791 -32.1244 0)
(121.347 -31.683 0)
(124.331 -31.2321 -8.45225e-17)
(127.349 -31.0654 0)
(130.414 -31.1196 0)
(133.437 -31.3998 3.4856e-21)
(136.656 -31.7266 6.29142e-17)
(139.899 -32.2078 6.005e-17)
(143.43 -32.6636 5.76272e-17)
(146.957 -33.2939 0)
(150.852 -33.8472 0)
(154.686 -34.6256 0)
(159.006 -35.2631 -3.187e-21)
(163.182 -36.2068 0)
(168.016 -36.9231 4.48589e-17)
(172.576 -38.0633 0)
(178.044 -38.8558 4.10976e-17)
(183.045 -40.2386 4.52691e-21)
(189.314 -41.1009 -3.75562e-17)
(194.817 -42.7844 0)
(202.11 -43.7046 3.41624e-17)
(208.177 -45.7632 -3.17931e-17)
(216.788 -46.727 3.08118e-17)
(223.477 -49.2567 5.63417e-17)
(233.805 -50.2593 -2.74563e-17)
(241.157 -53.393 2.43132e-17)
(253.697 -54.5077 -2.39055e-17)
(261.644 -58.5387 2.00866e-17)
(277.036 -60.1311 2.02956e-17)
(285.608 -65.5619 -1.5783e-17)
(305.126 -68.1663 -3.56961e-21)
(315.008 -75.0815 -1.17301e-17)
(341.186 -78.6123 1.53955e-17)
(354.608 -85.4933 -7.02021e-18)
(391.899 -88.8268 -1.30784e-17)
(411.656 -92.7832 -6.60235e-19)
(461.932 -97.2772 7.21504e-18)
(489.587 -89.2358 0)
(557.514 -94.6816 1.4741e-18)
(608.682 -2.28097 0)
(562.775 45.9552 -2.76775e-20)
(546.532 58.8014 6.2418e-21)
(509.13 66.2175 1.54701e-18)
(493.86 66.3418 0)
(464.175 68.9726 0)
(449.58 66.9353 0)
(423.838 66.4122 0)
(408.652 61.8653 -9.51914e-18)
(385.991 59.2559 -3.36086e-17)
(371.608 54.5718 0)
(352.943 52.2894 0)
(340.577 48.7675 0)
(325.583 47.0869 8.75756e-17)
(314.876 44.4193 0)
(302.451 43.0928 -1.25154e-16)
(292.879 41.0813 0)
(282.296 40.0936 -1.68025e-16)
(273.676 38.6513 -1.8658e-16)
(264.599 37.9544 0)
(256.962 36.9476 -2.34406e-16)
(249.302 36.4666 0)
(242.815 35.7961 0)
(236.578 35.4876 0)
(231.219 35.0491 2.8544e-16)
(225.983 34.7663 -2.78836e-16)
(221.09 34.3148 -2.63428e-16)
(215.984 33.7937 2.44249e-16)
(210.919 33.1147 2.2534e-16)
(205.649 32.2817 0)
(200.524 31.4476 1.98516e-16)
(195.36 30.4694 1.90272e-16)
(190.517 29.7013 0)
(185.712 28.7629 -1.77981e-16)
(181.366 28.2225 -1.71644e-16)
(176.987 27.3731 1.64026e-16)
(173.171 27.0843 1.55456e-16)
(169.097 26.2262 1.45832e-16)
(165.758 26.1441 0)
(161.777 25.1269 -7.31529e-22)
(158.913 25.2197 -1.18438e-16)
(154.718 23.8676 0)
(152.46 24.0863 0)
(147.475 22.1487 0)
(146.228 22.3583 0)
(139.038 18.7732 -9.56899e-17)
(100.036 -1.93649 0)
(100.703 -5.31135 8.18333e-17)
(101.903 -8.32837 7.63097e-17)
(103.545 -10.6978 7.14489e-17)
(105.36 -12.8898 0)
(107.313 -15.1215 6.75132e-17)
(109.097 -17.7072 6.88273e-17)
(110.691 -20.5713 -7.2061e-17)
(111.971 -23.5186 -7.67494e-17)
(113.012 -26.2917 0)
(113.864 -28.6685 -8.8706e-17)
(114.66 -30.5249 0)
(115.582 -31.7422 -1.98904e-16)
(116.851 -32.2942 0)
(118.751 -32.2051 0)
(121.277 -31.7767 -9.33199e-17)
(124.251 -31.3309 0)
(127.271 -31.1638 0)
(130.339 -31.2166 7.18636e-17)
(133.363 -31.497 -6.71563e-17)
(136.58 -31.8252 -6.36421e-17)
(139.822 -32.3086 3.55904e-21)
(143.351 -32.7664 5.81899e-17)
(146.876 -33.3992 0)
(150.768 -33.9546 -5.3535e-17)
(154.601 -34.7358 0)
(158.92 -35.3755 4.91915e-17)
(163.093 -36.3225 0)
(167.925 -37.041 -4.51172e-17)
(172.483 -38.1852 0)
(177.949 -38.9801 0)
(182.948 -40.368 -3.91673e-17)
(189.215 -41.2329 0)
(194.716 -42.9227 0)
(202.007 -43.8456 -3.43439e-17)
(208.072 -45.9122 3.19837e-17)
(216.682 -46.8787 0)
(223.369 -49.4183 6.39524e-21)
(233.697 -50.4234 2.76579e-17)
(241.048 -53.5691 0)
(253.592 -54.6853 2.41096e-17)
(261.537 -58.7299 -2.02777e-17)
(276.929 -60.3227 -4.10127e-17)
(285.484 -65.7695 0)
(304.988 -68.375 -3.73984e-21)
(314.816 -75.3094 1.19234e-17)
(340.953 -78.8487 1.56616e-17)
(354.28 -85.7574 1.43281e-17)
(391.565 -89.1191 1.33691e-17)
(411.323 -93.1166 0)
(461.742 -97.6693 0)
(489.426 -89.6774 -8.9755e-18)
(557.622 -95.2588 0)
(608.9 -2.29897 1.26566e-18)
(562.567 46.195 2.47801e-18)
(546.171 59.0059 6.17605e-21)
(508.798 66.425 -8.16701e-21)
(493.668 66.5536 -1.5762e-17)
(464.186 69.211 0)
(449.8 67.2041 4.97277e-18)
(424.251 66.7125 1.92252e-17)
(409.196 62.1873 -1.46628e-20)
(386.618 59.5844 -3.39441e-17)
(372.255 54.8963 -3.08357e-17)
(353.581 52.5973 -5.67884e-17)
(341.179 49.0613 0)
(326.148 47.361 0)
(315.398 44.6822 0)
(302.934 43.3393 0)
(293.316 41.3188 0)
(282.688 40.3154 -1.14759e-20)
(274.013 38.8625 -2.18337e-20)
(264.875 38.1479 0)
(257.169 37.1262 2.36227e-16)
(249.437 36.6244 0)
(242.88 35.9361 2.77672e-16)
(236.592 35.6096 0)
(231.214 35.1623 2.97552e-16)
(226.009 34.8802 2.94599e-16)
(221.189 34.4409 2.81869e-16)
(216.175 33.9373 -2.6374e-16)
(211.19 33.2749 -2.44341e-16)
(205.974 32.4534 -2.27663e-16)
(200.873 31.6243 -4.2988e-16)
(195.71 30.6461 -2.05657e-16)
(190.847 29.8729 0)
(186.014 28.9273 1.92317e-16)
(181.629 28.3771 3.27337e-21)
(177.213 27.5188 -1.77885e-16)
(173.359 27.2209 -1.68883e-16)
(169.256 26.3559 -1.58574e-16)
(165.892 26.2683 0)
(161.897 25.2468 -1.15831e-21)
(159.023 25.3396 1.27957e-16)
(154.825 23.984 -1.19036e-16)
(152.569 24.2115 1.12552e-16)
(147.583 22.2664 0)
(146.35 22.5066 0)
(139.132 18.9105 1.00817e-16)
(100.037 -1.95537 0)
(100.713 -5.35899 8.17688e-17)
(101.925 -8.40177 -1.52458e-16)
(103.584 -10.7879 -7.13913e-17)
(105.416 -12.9895 -6.84097e-17)
(107.385 -15.2222 -6.75208e-17)
(109.183 -17.8012 0)
(110.787 -20.6545 7.21189e-17)
(112.07 -23.5891 7.6833e-17)
(113.107 -26.3513 0)
(113.949 -28.7202 8.88611e-17)
(114.726 -30.5736 0)
(115.621 -31.7946 1.99655e-16)
(116.854 -32.358 0)
(118.714 -32.2848 0)
(121.209 -31.8698 -3.00549e-21)
(124.171 -31.4294 0)
(127.192 -31.262 -7.91332e-17)
(130.263 -31.3134 -7.28912e-17)
(133.289 -31.5941 0)
(136.504 -31.9237 0)
(139.744 -32.4092 -6.13771e-17)
(143.271 -32.8691 3.34067e-21)
(146.794 -33.5045 5.62633e-17)
(150.685 -34.0618 1.08003e-16)
(154.516 -34.846 0)
(158.833 -35.4877 0)
(163.005 -36.4382 0)
(167.835 -37.1588 4.5402e-17)
(172.391 -38.3071 -4.32035e-17)
(177.855 -39.1044 4.15472e-17)
(182.851 -40.4973 3.93864e-17)
(189.116 -41.3648 -3.79553e-17)
(194.615 -43.061 3.57511e-17)
(201.904 -43.9867 0)
(207.968 -46.0612 -3.21728e-17)
(216.577 -47.0305 3.1202e-17)
(223.262 -49.58 -2.85584e-17)
(233.591 -50.5877 -5.57281e-17)
(240.941 -53.7454 -2.47269e-17)
(253.488 -54.8633 0)
(261.431 -58.9216 0)
(276.826 -60.5148 -3.8083e-21)
(285.364 -65.9774 1.6185e-17)
(304.853 -68.5838 -3.89359e-21)
(314.628 -75.5371 -2.4222e-17)
(340.723 -79.0847 -1.59297e-17)
(353.952 -86.0203 -7.31453e-18)
(391.228 -89.4102 0)
(410.983 -93.4489 0)
(461.548 -98.0616 0)
(489.265 -90.1203 9.12966e-18)
(557.731 -95.8382 0)
(609.116 -2.31559 -1.28067e-18)
(562.348 46.4355 0)
(545.79 59.208 6.10044e-21)
(508.442 66.628 -3.20801e-18)
(493.452 66.7603 1.61196e-17)
(464.178 69.4443 0)
(450.007 67.469 -8.66704e-21)
(424.658 67.0101 -1.95513e-17)
(409.74 62.508 9.78827e-18)
(387.249 59.9129 6.85501e-17)
(372.908 55.2222 6.20889e-17)
(354.23 52.9075 5.70065e-17)
(341.795 49.358 6.05496e-17)
(326.729 47.6383 0)
(315.937 44.9486 0)
(303.435 43.5895 -1.25052e-16)
(293.776 41.5604 0)
(283.104 40.5417 -1.1742e-20)
(274.377 39.0786 1.86951e-16)
(265.18 38.3468 0)
(257.406 37.3106 -2.37279e-16)
(249.603 36.7881 0)
(242.974 36.0815 -2.81865e-16)
(236.629 35.7357 0)
(231.223 35.2774 9.30036e-21)
(226.037 34.9933 3.08884e-16)
(221.282 34.5646 0)
(216.361 34.0783 2.83095e-16)
(211.465 33.434 2.6381e-16)
(206.312 32.6262 2.46177e-16)
(201.243 31.8038 2.32202e-16)
(196.087 30.8271 -2.78518e-21)
(191.209 30.0497 2.1414e-16)
(186.349 29.0975 -2.07378e-16)
(181.925 28.5377 2.00647e-16)
(177.472 27.6704 3.85196e-16)
(173.576 27.3628 5.25361e-21)
(169.442 26.4904 1.72402e-16)
(166.049 26.3964 0)
(162.037 25.3702 1.49212e-16)
(159.15 25.4621 0)
(154.947 24.1028 1.28397e-16)
(152.692 24.3386 -1.20772e-16)
(147.704 22.3862 0)
(146.485 22.6567 0)
(139.24 19.0509 0)
(100.038 -1.97454 0)
(100.723 -5.40719 -1.63368e-16)
(101.947 -8.47599 1.52308e-16)
(103.624 -10.879 0)
(105.472 -13.0901 6.83874e-17)
(107.459 -15.3239 0)
(109.27 -17.8961 6.89141e-17)
(110.884 -20.7383 7.21878e-17)
(112.17 -23.6601 0)
(113.205 -26.4111 0)
(114.036 -28.7717 -8.90256e-17)
(114.796 -30.6219 -9.522e-17)
(115.664 -31.8462 -1.00214e-16)
(116.86 -32.421 1.02484e-16)
(118.679 -32.3637 -1.00888e-16)
(121.142 -31.9623 1.90891e-16)
(124.09 -31.5276 0)
(127.113 -31.3601 8.03339e-17)
(130.187 -31.4101 -7.40048e-17)
(133.214 -31.6911 -6.90511e-17)
(136.428 -32.0219 0)
(139.666 -32.5097 0)
(143.191 -32.9716 3.42936e-21)
(146.713 -33.6096 -1.1368e-16)
(150.602 -34.169 3.40477e-21)
(154.432 -34.956 0)
(158.747 -35.5999 -4.99449e-17)
(162.917 -36.5537 0)
(167.745 -37.2766 -4.57019e-17)
(172.299 -38.429 4.34705e-17)
(177.761 -39.2286 -4.17906e-17)
(182.755 -40.6267 -3.96104e-17)
(189.018 -41.4968 -3.43759e-21)
(194.515 -43.1993 -3.5955e-17)
(201.803 -44.1278 0)
(207.864 -46.2103 3.23838e-17)
(216.473 -47.1824 -6.28175e-17)
(223.156 -49.7418 0)
(233.486 -50.7524 2.80806e-17)
(240.836 -53.9221 2.4938e-17)
(253.387 -55.0417 0)
(261.329 -59.1138 0)
(276.725 -60.7075 -3.91909e-21)
(285.248 -66.1857 9.05494e-21)
(304.723 -68.7929 1.79987e-17)
(314.443 -75.7647 -1.05113e-20)
(340.494 -79.32 -1.6222e-17)
(353.624 -86.2822 0)
(390.886 -89.7001 1.40236e-17)
(410.636 -93.7801 6.45579e-19)
(461.352 -98.4541 0)
(489.103 -90.5645 0)
(557.841 -96.4199 1.51429e-18)
(609.329 -2.33077 -1.30557e-18)
(562.115 46.6767 0)
(545.389 59.4076 -2.13925e-17)
(508.062 66.8264 8.37785e-21)
(493.211 66.9615 0)
(464.149 69.6722 9.80628e-18)
(450.199 67.7294 -8.90115e-21)
(425.056 67.3045 0)
(410.28 62.8272 -9.94984e-18)
(387.881 60.2414 -3.46081e-17)
(373.569 55.5492 -3.12501e-17)
(354.889 53.2198 5.72234e-17)
(342.423 49.6573 -6.0637e-17)
(327.325 47.9187 8.77262e-17)
(316.492 45.2183 9.70159e-17)
(303.955 43.8432 2.49618e-16)
(294.255 41.8058 0)
(283.541 40.7722 1.67622e-16)
(274.763 39.2992 0)
(265.51 38.5506 0)
(257.671 37.5004 0)
(249.797 36.9574 0)
(243.097 36.2324 2.84924e-16)
(236.69 35.8663 -3.04779e-16)
(231.249 35.395 -6.33356e-16)
(226.071 35.1063 -6.42929e-16)
(221.372 34.6859 0)
(216.542 34.2165 3.01885e-16)
(211.739 33.5913 0)
(206.659 32.7993 0)
(201.631 31.9856 0)
(196.489 31.012 4.7739e-16)
(191.601 30.2316 5.512e-22)
(186.717 29.2736 4.4607e-16)
(182.256 28.7044 0)
(177.763 27.8282 -4.16055e-16)
(173.825 27.5103 1.98574e-16)
(169.656 26.6301 0)
(166.231 26.5288 0)
(162.198 25.4974 1.62213e-16)
(159.295 25.5874 0)
(155.086 24.2244 0)
(152.829 24.4677 0)
(147.839 22.5082 0)
(146.634 22.8088 0)
(139.364 19.1943 0)
(100.04 -1.99401 0)
(100.733 -5.45598 8.15983e-17)
(101.97 -8.55105 -7.60728e-17)
(103.664 -10.971 0)
(105.529 -13.1918 0)
(107.534 -15.4266 0)
(109.359 -17.9918 -1.37911e-16)
(110.983 -20.8228 4.29659e-21)
(112.273 -23.7316 0)
(113.304 -26.4711 0)
(114.126 -28.8233 8.91907e-17)
(114.868 -30.6699 9.54692e-17)
(115.709 -31.8973 0)
(116.869 -32.483 -1.0311e-16)
(118.647 -32.4417 1.0179e-16)
(121.077 -32.0541 3.03464e-21)
(124.01 -31.6255 0)
(127.033 -31.4581 -8.16251e-17)
(130.111 -31.5067 7.51953e-17)
(133.138 -31.7879 -3.84345e-21)
(136.352 -32.12 6.62282e-17)
(139.588 -32.6101 0)
(143.111 -33.0739 -1.20338e-16)
(146.631 -33.7145 5.74651e-17)
(150.519 -34.2761 -5.50572e-17)
(154.347 -35.066 5.2553e-17)
(158.66 -35.712 1.00729e-16)
(162.829 -36.6692 0)
(167.655 -37.3943 0)
(172.208 -38.5508 0)
(177.668 -39.3529 -4.2058e-17)
(182.66 -40.7561 3.98589e-17)
(188.921 -41.6288 3.83985e-17)
(194.416 -43.3378 3.61814e-17)
(201.702 -44.269 0)
(207.762 -46.3595 -6.5194e-17)
(216.37 -47.3345 6.32563e-17)
(223.052 -49.9039 0)
(233.383 -50.9172 0)
(240.732 -54.0991 0)
(253.288 -55.2206 -2.48022e-17)
(261.229 -59.3064 0)
(276.628 -60.9006 -4.03231e-21)
(285.135 -66.3945 -1.66103e-17)
(304.596 -69.0022 0)
(314.262 -75.9921 1.25199e-17)
(340.269 -79.5548 1.65166e-17)
(353.296 -86.543 -7.66522e-18)
(390.542 -89.989 -2.87253e-17)
(410.283 -94.1102 -6.62871e-19)
(461.152 -98.8467 -8.01778e-18)
(488.942 -91.01 0)
(557.954 -97.0039 9.79709e-22)
(609.541 -2.34445 2.65031e-18)
(561.871 46.9188 -2.74134e-18)
(544.968 59.6048 2.18774e-17)
(507.657 67.0201 1.66459e-18)
(492.945 67.1571 0)
(464.099 69.8944 -1.00254e-17)
(450.375 67.9852 -5.26362e-18)
(425.445 67.5955 0)
(410.817 63.1447 2.0184e-17)
(388.515 60.5695 -3.49506e-17)
(374.234 55.8771 0)
(355.556 53.5339 7.40685e-21)
(343.063 49.9591 0)
(327.935 48.2019 1.03133e-20)
(317.063 45.491 -1.93701e-16)
(304.492 44.1003 1.2326e-20)
(294.752 42.0547 0)
(283.998 41.0066 0)
(275.172 39.5242 0)
(265.865 38.7593 0)
(257.962 37.6954 0)
(250.02 37.1322 2.6478e-16)
(243.248 36.3888 -2.86935e-16)
(236.778 36.0016 3.0889e-16)
(231.293 35.5158 -1.10113e-20)
(226.113 35.2198 3.32249e-16)
(221.459 34.8053 0)
(216.715 34.3515 5.67675e-21)
(212.009 33.7463 3.02729e-16)
(207.012 32.9719 -2.84532e-16)
(202.034 32.169 0)
(196.914 31.2004 4.89257e-21)
(192.022 30.4181 -2.46837e-16)
(187.117 29.4554 3.85656e-21)
(182.62 28.8772 0)
(178.089 27.9924 2.24027e-16)
(174.107 27.6638 2.14563e-16)
(169.901 26.7755 2.02967e-16)
(166.44 26.6659 0)
(162.383 25.629 3.12685e-21)
(159.46 25.7161 0)
(155.243 24.3491 1.50333e-16)
(152.983 24.599 1.40053e-16)
(147.99 22.6328 1.30483e-16)
(146.797 22.9628 1.24658e-16)
(139.505 19.3411 1.19644e-16)
(100.041 -2.01377 0)
(100.744 -5.50536 8.15316e-17)
(101.994 -8.62695 -7.6009e-17)
(103.706 -11.0641 0)
(105.587 -13.2945 -6.83695e-17)
(107.61 -15.5302 0)
(109.449 -18.0885 6.89994e-17)
(111.083 -20.9079 -1.44647e-16)
(112.377 -23.8035 7.71169e-17)
(113.406 -26.5313 0)
(114.218 -28.8748 8.93661e-17)
(114.943 -30.7176 9.57304e-17)
(115.758 -31.9478 0)
(116.882 -32.5442 -1.03762e-16)
(118.618 -32.5188 0)
(121.013 -32.1452 3.04436e-21)
(123.93 -31.7231 9.05936e-17)
(126.952 -31.5559 8.29961e-17)
(130.033 -31.6033 -7.64829e-17)
(133.063 -31.8846 -3.94633e-21)
(136.275 -32.218 -1.34469e-16)
(139.51 -32.7102 0)
(143.031 -33.1762 -3.62112e-21)
(146.55 -33.8194 0)
(150.436 -34.383 0)
(154.263 -35.1758 -5.30703e-17)
(158.574 -35.824 -5.08189e-17)
(162.742 -36.7846 0)
(167.566 -37.512 0)
(172.117 -38.6726 0)
(177.575 -39.4771 -3.51271e-21)
(182.565 -40.8854 -4.01139e-17)
(188.824 -41.7608 0)
(194.317 -43.4762 -3.64103e-17)
(201.602 -44.4103 0)
(207.661 -46.5088 6.56491e-17)
(216.268 -47.4867 -6.37177e-17)
(222.949 -50.0662 0)
(233.281 -51.0824 -2.85546e-17)
(240.63 -54.2765 2.54151e-17)
(253.191 -55.4 2.50508e-17)
(261.131 -59.4996 2.1187e-17)
(276.534 -61.0943 2.14692e-17)
(285.026 -66.6038 1.68533e-17)
(304.473 -69.2118 -1.85372e-17)
(314.084 -76.2195 0)
(340.047 -79.789 0)
(352.969 -86.8027 -1.46452e-20)
(390.194 -90.2767 -1.10257e-20)
(409.922 -94.439 0)
(460.949 -99.2395 8.23056e-18)
(488.779 -91.4567 0)
(558.067 -97.5901 -1.54451e-18)
(609.752 -2.35655 -1.34598e-18)
(561.616 47.1619 -3.11635e-20)
(544.527 59.7997 5.80006e-21)
(507.226 67.209 -1.68542e-18)
(492.652 67.3469 -1.72257e-17)
(464.024 70.1105 0)
(450.533 68.2359 0)
(425.822 67.8828 0)
(411.347 63.4601 1.59799e-20)
(389.148 60.8969 3.52909e-17)
(374.903 56.2057 0)
(356.232 53.8496 -5.76088e-17)
(343.714 50.2631 0)
(328.557 48.4879 -1.75204e-16)
(317.648 45.7667 -2.59061e-20)
(305.044 44.3605 -2.48197e-16)
(295.266 42.307 0)
(284.474 41.2448 1.66408e-16)
(275.601 39.7533 0)
(266.243 38.9726 -2.14444e-16)
(258.278 37.8954 -2.37202e-16)
(250.27 37.3124 -5.29732e-16)
(243.427 36.5506 0)
(236.892 36.142 0)
(231.359 35.6401 6.58438e-16)
(226.166 35.3346 0)
(221.546 34.9233 3.43325e-16)
(216.882 34.4835 -6.72435e-16)
(212.274 33.8984 -3.21431e-16)
(207.366 33.1432 3.038e-16)
(202.448 32.3534 0)
(197.359 31.3916 -5.47827e-16)
(192.469 30.6091 -2.63844e-16)
(187.549 29.6428 -5.11342e-16)
(183.019 29.0562 -2.48507e-16)
(178.451 28.1631 0)
(174.424 27.8236 -2.31114e-16)
(170.179 26.927 -2.19439e-16)
(166.678 26.8083 0)
(162.595 25.7654 -3.83232e-16)
(159.649 25.8484 0)
(155.421 24.4774 -1.63002e-16)
(153.155 24.7329 -3.02563e-16)
(148.158 22.7601 -1.40332e-16)
(146.977 23.1191 -1.33262e-16)
(139.663 19.4913 -1.27222e-16)
(100.042 -2.03385 0)
(100.754 -5.55536 1.32907e-20)
(102.018 -8.70371 7.59217e-17)
(103.748 -11.1581 7.12097e-17)
(105.646 -13.3982 6.83512e-17)
(107.687 -15.635 0)
(109.541 -18.186 0)
(111.185 -20.9938 7.23948e-17)
(112.483 -23.8759 -7.72141e-17)
(113.51 -26.5918 0)
(114.313 -28.9263 -8.95429e-17)
(115.021 -30.7651 -9.5996e-17)
(115.811 -31.9978 0)
(116.899 -32.6046 -1.90615e-21)
(118.593 -32.5949 0)
(120.952 -32.2356 -1.98136e-16)
(123.85 -31.8203 -9.20298e-17)
(126.87 -31.6537 0)
(129.955 -31.6997 -3.8726e-21)
(132.986 -31.9811 1.44992e-16)
(136.198 -32.3157 -3.78288e-21)
(139.431 -32.8102 0)
(142.951 -33.2782 6.17839e-17)
(146.468 -33.924 -5.88873e-17)
(150.353 -34.4898 0)
(154.178 -35.2856 -5.36392e-17)
(158.489 -35.9359 0)
(162.654 -36.9 -4.88195e-17)
(167.477 -37.6296 4.67622e-17)
(172.027 -38.7944 -4.44148e-17)
(177.483 -39.6014 -3.57975e-21)
(182.471 -41.0148 4.03957e-17)
(188.729 -41.8929 -3.89061e-17)
(194.22 -43.6147 0)
(201.503 -44.5517 0)
(207.561 -46.6583 -3.3061e-17)
(216.168 -47.6391 3.20994e-17)
(222.848 -50.2287 2.94716e-17)
(233.181 -51.2479 2.8803e-17)
(240.53 -54.4542 -5.13262e-17)
(253.096 -55.5798 2.532e-17)
(261.037 -59.6934 -2.1432e-17)
(276.443 -61.2886 0)
(284.921 -66.8136 -3.41876e-17)
(304.354 -69.4218 -4.46791e-21)
(313.911 -76.4469 1.29868e-17)
(339.828 -80.0229 0)
(352.643 -87.0614 1.60525e-17)
(389.844 -90.5632 1.50932e-17)
(409.554 -94.7666 0)
(460.741 -99.6323 0)
(488.616 -91.9047 0)
(558.183 -98.1786 0)
(609.962 -2.36703 0)
(561.349 47.4062 -3.19497e-20)
(544.065 59.9923 -2.28833e-17)
(506.77 67.3931 3.4394e-18)
(492.331 67.5307 6.04422e-21)
(463.924 70.3203 0)
(450.67 68.4812 0)
(426.185 68.166 2.09364e-17)
(411.871 63.7731 -1.03948e-17)
(389.78 61.2235 0)
(375.575 56.5348 -3.19222e-17)
(356.914 54.1668 0)
(344.373 50.5693 -6.09104e-17)
(329.191 48.7764 -1.05107e-20)
(318.246 46.0452 9.64258e-17)
(305.611 44.6239 2.47327e-16)
(295.797 42.5626 -1.37766e-16)
(284.968 41.4866 -3.31234e-16)
(276.05 39.9863 0)
(266.642 39.1902 2.13493e-16)
(258.618 38.1002 4.72735e-16)
(250.545 37.4978 -9.6687e-21)
(243.633 36.7178 2.88499e-16)
(237.033 36.2874 3.13655e-16)
(231.447 35.7685 -6.66603e-16)
(226.232 35.4511 3.48491e-16)
(221.636 35.0405 9.93801e-21)
(217.042 34.6126 -7.78103e-21)
(212.531 34.0471 -3.39175e-16)
(207.718 33.3125 -3.22737e-16)
(202.87 32.5378 3.06133e-16)
(197.822 31.5851 5.83951e-16)
(192.94 30.804 2.81119e-16)
(188.01 29.8354 2.72402e-16)
(183.452 29.2411 2.65073e-16)
(178.849 28.3404 -2.57096e-16)
(174.777 27.99 2.48023e-16)
(170.492 27.0851 -2.36476e-16)
(166.948 26.9563 2.23203e-16)
(162.835 25.9071 4.15743e-16)
(159.862 25.9849 0)
(155.621 24.6097 0)
(153.346 24.8697 1.63632e-16)
(148.344 22.8906 0)
(147.173 23.2778 0)
(139.84 19.6453 0)
(100.043 -2.05425 0)
(100.766 -5.60597 -8.13563e-17)
(102.042 -8.78136 -7.5858e-17)
(103.791 -11.2532 -7.11551e-17)
(105.706 -13.503 6.83499e-17)
(107.765 -15.7407 0)
(109.634 -18.2844 0)
(111.288 -21.0805 0)
(112.591 -23.9488 -7.73226e-17)
(113.616 -26.6526 -8.31704e-17)
(114.41 -28.9779 8.97307e-17)
(115.102 -30.8124 -9.62745e-17)
(115.867 -32.0473 0)
(116.92 -32.6643 1.05127e-16)
(118.571 -32.6703 0)
(120.892 -32.3253 1.00394e-16)
(123.771 -31.9172 -9.35551e-17)
(126.788 -31.7512 8.60298e-17)
(129.877 -31.796 1.58682e-16)
(132.91 -32.0775 4.16346e-21)
(136.121 -32.4133 6.95055e-17)
(139.352 -32.91 0)
(142.871 -33.3801 6.26998e-17)
(146.386 -34.0286 5.96833e-17)
(150.27 -34.5965 5.70043e-17)
(154.094 -35.3953 5.42466e-17)
(158.403 -36.0478 0)
(162.568 -37.0153 4.92803e-17)
(167.389 -37.7473 -4.71666e-17)
(171.937 -38.9162 -4.68032e-21)
(177.391 -39.7256 4.29633e-17)
(182.378 -41.1442 -8.13773e-17)
(188.634 -42.025 -3.67826e-21)
(194.123 -43.7533 0)
(201.406 -44.6932 0)
(207.462 -46.8079 3.33191e-17)
(216.069 -47.7917 0)
(222.748 -50.3915 -5.94467e-17)
(233.083 -51.4136 -2.90717e-17)
(240.432 -54.6324 2.59229e-17)
(253.003 -55.7601 -2.55934e-17)
(260.945 -59.8877 0)
(276.356 -61.4834 2.20314e-17)
(284.819 -67.0239 3.47022e-17)
(304.24 -69.6321 1.91216e-17)
(313.742 -76.6743 1.16226e-20)
(339.613 -80.2563 0)
(352.318 -87.3191 -8.21535e-18)
(389.491 -90.8485 1.54976e-17)
(409.178 -95.0928 0)
(460.529 -100.025 0)
(488.453 -92.3538 0)
(558.3 -98.7695 -1.58135e-18)
(610.172 -2.3758 0)
(561.072 47.6517 2.98163e-18)
(543.584 60.1827 0)
(506.288 67.5724 -1.75466e-18)
(491.982 67.7084 1.8008e-17)
(463.798 70.5234 0)
(450.786 68.7208 0)
(426.534 68.4448 -2.13075e-17)
(412.385 64.0835 0)
(390.409 61.549 0)
(376.248 56.8641 3.21235e-17)
(357.602 54.4852 5.80012e-17)
(345.041 50.8774 6.09579e-17)
(329.836 49.0673 8.74032e-17)
(318.857 46.3264 0)
(306.192 44.8901 -1.2319e-16)
(296.342 42.8213 1.37115e-16)
(285.479 41.7319 1.64751e-16)
(276.517 40.223 1.83558e-16)
(267.061 39.412 0)
(258.98 38.3096 -2.35264e-16)
(250.845 37.6882 -9.90695e-21)
(243.865 36.8903 -2.88269e-16)
(237.199 36.4379 -3.14593e-16)
(231.558 35.901 -1.28358e-20)
(226.315 35.5701 -7.08241e-16)
(221.731 35.1575 1.07499e-20)
(217.197 34.739 -8.71978e-21)
(212.778 34.1924 3.55628e-16)
(208.065 33.4791 3.41003e-16)
(203.296 32.7214 -3.24765e-16)
(198.297 31.7801 -3.1011e-16)
(193.433 31.0022 0)
(188.5 30.0328 0)
(183.917 29.4319 2.81717e-16)
(179.282 28.5243 -5.65642e-21)
(175.166 28.163 -2.65109e-16)
(170.84 27.25 -5.34032e-21)
(167.252 27.1105 -2.407e-16)
(163.107 26.0546 -2.24976e-16)
(160.103 26.126 0)
(155.846 24.7463 1.91834e-16)
(153.559 25.0097 0)
(148.552 23.0246 0)
(147.388 23.4389 0)
(140.037 19.8033 0)
(100.045 -2.07499 0)
(100.777 -5.65722 0)
(102.067 -8.85989 1.51553e-16)
(103.834 -11.3492 0)
(105.767 -13.6088 -6.83349e-17)
(107.844 -15.8475 0)
(109.728 -18.3837 0)
(111.394 -21.1678 7.25568e-17)
(112.701 -24.0223 7.74282e-17)
(113.724 -26.7137 1.6662e-16)
(114.51 -29.0296 -8.99208e-17)
(115.187 -30.8596 9.65583e-17)
(115.927 -32.0963 -1.02345e-16)
(116.945 -32.7232 0)
(118.553 -32.7448 0)
(120.835 -32.4144 0)
(123.693 -32.0137 9.51576e-17)
(126.706 -31.8487 -1.75383e-16)
(129.798 -31.8922 -8.09264e-17)
(132.832 -32.1737 -7.52705e-17)
(136.043 -32.5108 -7.07876e-17)
(139.273 -33.0097 0)
(142.79 -33.4819 -6.36851e-17)
(146.304 -34.133 0)
(150.187 -34.7031 -5.776e-17)
(154.01 -35.5049 0)
(158.318 -36.1596 0)
(162.481 -37.1306 0)
(167.301 -37.8649 4.761e-17)
(171.847 -39.0379 4.51583e-17)
(177.3 -39.8499 0)
(182.285 -41.2737 4.10011e-17)
(188.54 -42.1572 7.89469e-17)
(194.028 -43.892 -3.72036e-17)
(201.309 -44.8348 0)
(207.364 -46.9577 -6.71625e-17)
(215.971 -47.9446 0)
(222.649 -50.5545 5.99818e-17)
(232.986 -51.5798 5.86937e-17)
(240.336 -54.8109 2.62072e-17)
(252.913 -55.9409 2.58887e-17)
(260.855 -60.0826 0)
(276.272 -61.679 4.51327e-21)
(284.722 -67.2349 1.01626e-20)
(304.13 -69.8428 0)
(313.577 -76.9018 -2.69649e-17)
(339.402 -80.4893 0)
(351.994 -87.5759 0)
(389.135 -91.1328 -1.58963e-17)
(408.795 -95.4177 6.47677e-19)
(460.313 -100.418 0)
(488.288 -92.8042 0)
(558.42 -99.3628 -1.58589e-21)
(610.382 -2.38282 1.42894e-18)
(560.785 47.8987 0)
(543.083 60.371 0)
(505.779 67.7467 1.77719e-18)
(491.603 67.8797 0)
(463.643 70.7197 -1.09215e-17)
(450.878 68.9543 0)
(426.867 68.7188 2.16842e-17)
(412.889 64.3909 0)
(391.033 61.8731 0)
(376.922 57.1934 -3.23745e-17)
(358.294 54.8046 -5.81913e-17)
(345.717 51.1872 0)
(330.491 49.3604 8.73083e-17)
(319.479 46.61 -9.59684e-17)
(306.786 45.1591 1.22715e-16)
(296.902 43.0829 -1.36484e-16)
(286.005 41.9804 0)
(277.001 40.4634 -3.64959e-16)
(267.499 39.6379 0)
(259.363 38.5234 -2.33981e-16)
(251.167 37.8834 2.62432e-16)
(244.122 37.0679 0)
(237.392 36.5936 3.14787e-16)
(231.693 36.0381 3.37869e-16)
(226.416 35.6919 7.16574e-16)
(221.833 35.2749 -7.42299e-16)
(217.348 34.8634 7.51439e-16)
(213.016 34.334 3.70583e-16)
(208.404 33.6425 3.58335e-16)
(203.721 32.9035 -3.42986e-16)
(198.781 31.9757 -3.28151e-16)
(193.944 31.203 0)
(189.014 30.2345 0)
(184.413 29.6281 -2.98321e-16)
(179.749 28.7145 5.81004e-16)
(175.592 28.3427 -2.82174e-16)
(171.226 27.4218 5.4273e-16)
(167.592 27.271 0)
(163.412 26.2084 -2.42746e-16)
(160.374 26.2721 0)
(156.098 24.8879 -4.15779e-16)
(153.795 25.1533 0)
(148.782 23.1625 0)
(147.622 23.6028 0)
(140.257 19.9655 0)
(100.046 -2.09606 0)
(100.789 -5.70912 8.1205e-17)
(102.093 -8.93934 -1.51403e-16)
(103.879 -11.4464 0)
(105.829 -13.7158 0)
(107.925 -15.9554 0)
(109.824 -18.484 0)
(111.501 -21.256 4.45987e-21)
(112.813 -24.0963 0)
(113.835 -26.7751 -8.34558e-17)
(114.613 -29.0814 0)
(115.274 -30.9066 -9.68558e-17)
(115.991 -32.145 -1.74789e-21)
(116.974 -32.7815 -1.06587e-16)
(118.539 -32.8185 0)
(120.781 -32.5028 0)
(123.615 -32.1098 9.68534e-17)
(126.623 -31.946 8.94577e-17)
(129.718 -31.9884 -8.26313e-17)
(132.754 -32.2698 -7.6827e-17)
(135.965 -32.608 1.44335e-16)
(139.194 -33.1091 0)
(142.709 -33.5835 6.47616e-17)
(146.222 -34.2373 0)
(150.103 -34.8096 -5.85874e-17)
(153.926 -35.6143 0)
(158.232 -36.2713 0)
(162.395 -37.2458 0)
(167.213 -37.9824 -4.80801e-17)
(171.758 -39.1597 4.55795e-17)
(177.21 -39.9742 0)
(182.193 -41.4032 -4.13423e-17)
(188.446 -42.2895 3.81625e-21)
(193.933 -44.0308 7.49894e-17)
(201.213 -44.9765 0)
(207.267 -47.1076 6.77203e-17)
(215.874 -48.0976 0)
(222.552 -50.7178 7.1979e-21)
(232.891 -51.7462 -2.9635e-17)
(240.242 -54.9899 -2.6488e-17)
(252.825 -56.1223 4.51834e-21)
(260.769 -60.2781 2.22771e-17)
(276.191 -61.8752 -2.26405e-17)
(284.629 -67.4465 -1.78985e-17)
(304.025 -70.054 0)
(313.418 -77.1294 1.37453e-17)
(339.195 -80.7221 0)
(351.672 -87.8318 0)
(388.777 -91.4158 -1.63365e-17)
(408.404 -95.7411 -1.31501e-18)
(460.091 -100.811 0)
(488.121 -93.2557 0)
(558.541 -99.9585 1.6201e-18)
(610.594 -2.38801 -1.45319e-18)
(560.489 48.1473 0)
(542.563 60.5574 -2.45375e-17)
(505.244 67.9162 -8.70815e-21)
(491.194 68.0446 0)
(463.459 70.9088 2.2314e-17)
(450.945 69.1814 0)
(427.18 68.9876 -2.20724e-17)
(413.382 64.695 0)
(391.652 62.1954 0)
(377.595 57.5226 6.51977e-17)
(358.989 55.1249 0)
(346.399 51.4986 0)
(331.154 49.6556 -8.71943e-17)
(320.111 46.8959 -2.58542e-20)
(307.392 45.4307 -1.22207e-16)
(297.474 43.3472 -2.49083e-20)
(286.546 42.2319 0)
(277.501 40.707 1.81346e-16)
(267.955 39.8675 0)
(259.765 38.7413 2.32501e-16)
(251.512 38.0832 0)
(244.403 37.2503 2.86435e-16)
(237.609 36.7542 -3.14332e-16)