/*--------------------------------*- C++ -*----------------------------------*\
| =========                 |                                                 |
| \\      /  F ield         | OpenFOAM: The Open Source CFD Toolbox           |
|  \\    /   O peration     | Version:  2412                                  |
|   \\  /    A nd           | Website:  www.openfoam.com                      |
|    \\/     M anipulation  |                                                 |
\*---------------------------------------------------------------------------*/
FoamFile
{
    version     2.0;
    format      ascii;
    arch        "LSB;label=32;scalar=64";
    class       volScalarField;
    location    "0.8";
    object      epsilon;
}
// * * * * * * * * * * * * * * * * * * * * * * * * * * * * * * * * * * * * * //

dimensions      [0 2 -3 0 0 0 0];

internalField   nonuniform List<scalar> 
12960
(
380.807
386.398
397.304
421.255
472
566.148
713.877
908.522
1128.43
1348.19
1548.48
1714.18
1828.91
1879.57
1866.24
1809.92
1741.44
1687.67
1659.6
1658.53
1679.07
1718.33
1771.39
1838.82
1917.19
2010.51
2115.25
2239.03
2376.56
2540.53
2721.88
2941.48
3183.41
3482.62
3810.84
4228.38
4684.98
5289.33
5955.43
6890.54
7951.31
9536.85
11376.1
14184.8
17304.9
21779.6
25995.7
31338.4
35639.3
40661.2
44949.4
41581.3
40496
27706.2
21306
18408.7
17462.7
16641.1
16515.4
15453.6
14342.3
12625.2
11151.1
9631.17
8467.95
7396.56
6585.04
5861.81
5319.35
4853.61
4508.17
4212.69
3986.56
3785.9
3619.72
3461.66
3315.18
3165.64
3014.74
2858.11
2698.71
2540.41
2386.06
2243.08
2110.67
1996.09
1892.76
1807.34
1728.06
1663.46
1598.03
1544.54
1484.16
1434.4
1373.47
1321.64
1257.08
1200.83
1126.41
380.886
386.581
397.641
421.875
473.115
567.97
716.452
911.602
1131.52
1350.77
1550.23
1715.19
1829.48
1879.93
1866.26
1809.29
1739.99
1685.53
1657.05
1655.86
1676.44
1715.82
1769.01
1836.56
1915.01
2008.37
2113.1
2236.85
2374.31
2538.16
2719.38
2938.79
3180.49
3479.4
3807.25
4224.27
4680.26
5283.73
5948.73
6882.39
7941.5
9525.29
11363.2
14171.7
17292.9
21771.1
25989.3
31336.4
35637.8
40685.9
45015.2
41714.5
40788.7
28046.6
21654.2
18738.5
17736.3
16837.7
16642.9
15530.7
14385.8
12647.7
11161.2
9634.58
8468
7395.1
6582.83
5859.21
5316.52
4850.75
4505.44
4210.22
3984.41
3784.12
3618.33
3460.66
3314.53
3165.28
3014.56
2858
2698.58
2540.16
2385.66
2242.54
2110.05
1995.46
1892.19
1806.91
1727.83
1663.46
1598.3
1545.11
1485.03
1435.65
1375.06
1323.72
1259.59
1203.89
1129.8
380.967
386.765
397.982
422.501
474.24
569.803
719.037
914.689
1134.62
1353.35
1552
1716.2
1830.06
1880.3
1866.31
1808.69
1738.57
1683.4
1654.51
1653.18
1673.81
1713.31
1766.64
1834.3
1912.83
2006.23
2110.97
2234.67
2372.06
2535.8
2716.89
2936.1
3177.58
3476.18
3803.67
4220.18
4675.54
5278.13
5942.05
6874.24
7931.7
9513.72
11350.3
14158.6
17281
21762.7
25983
31334.5
35636.5
40711
45081.6
41849.4
41086.8
28395.9
22013.4
19079.7
18020
17041.5
16775.1
15610.5
14430.6
12670.8
11171.6
9638.07
8468.08
7393.65
6580.62
5856.61
5313.69
4847.9
4502.71
4207.75
3982.26
3782.34
3616.94
3459.67
3313.9
3164.94
3014.41
2857.93
2698.46
2539.93
2385.28
2242.01
2109.44
1994.83
1891.63
1806.49
1727.6
1663.48
1598.57
1545.69
1485.91
1436.92
1376.68
1325.82
1262.13
1207
1133.24
381.049
386.953
398.328
423.134
475.375
571.648
721.634
917.787
1137.73
1355.94
1553.77
1717.21
1830.64
1880.67
1866.37
1808.11
1737.16
1681.29
1651.98
1650.51
1671.17
1710.79
1764.26
1832.03
1910.65
2004.08
2108.82
2232.48
2369.81
2533.44
2714.38
2933.41
3174.66
3472.95
3800.07
4216.07
4670.8
5272.52
5935.33
6866.05
7921.85
9502.09
11337.3
14145.4
17269
21754.3
25976.7
31332.7
35635
40736
45148.2
41985.7
41390.1
28754.2
22383.7
19432.6
18313.8
17252.9
16912.1
15692.9
14476.7
12694.4
11182.1
9641.56
8468.11
7392.15
6578.37
5853.98
5310.82
4845.01
4499.95
4205.25
3980.09
3780.56
3615.55
3458.68
3313.27
3164.6
3014.26
2857.85
2698.35
2539.7
2384.9
2241.48
2108.82
1994.2
1891.07
1806.07
1727.38
1663.49
1598.85
1546.28
1486.8
1438.19
1378.32
1327.94
1264.7
1210.15
1136.73
381.132
387.143
398.679
423.776
476.522
573.508
724.246
920.899
1140.85
1358.54
1555.54
1718.23
1831.21
1881.05
1866.43
1807.54
1735.76
1679.17
1649.44
1647.83
1668.53
1708.27
1761.87
1829.76
1908.45
2001.92
2106.66
2230.28
2367.54
2531.06
2711.86
2930.7
3171.72
3469.7
3796.45
4211.93
4666.04
5266.87
5928.58
6857.82
7911.94
9490.38
11324.3
14132.2
17257
21745.8
25970.3
31330.7
35633.3
40760.9
45215
42123.3
41698.6
29121.7
22765.6
19797.5
18618.2
17472.1
17053.9
15778
14524.2
12718.5
11192.7
9645.03
8468.06
7390.57
6576.05
5851.28
5307.9
4842.08
4497.15
4202.72
3977.89
3778.74
3614.14
3457.67
3312.63
3164.25
3014.1
2857.78
2698.24
2539.47
2384.51
2240.95
2108.2
1993.56
1890.5
1805.64
1727.15
1663.51
1599.13
1546.87
1487.7
1439.48
1379.97
1330.09
1267.3
1213.34
1140.27
381.217
387.336
399.034
424.425
477.68
575.382
726.872
924.023
1143.98
1361.15
1557.32
1719.24
1831.79
1881.42
1866.5
1806.98
1734.37
1677.05
1646.89
1645.14
1665.88
1705.73
1759.47
1827.47
1906.24
1999.75
2104.49
2228.07
2365.26
2528.66
2709.33
2927.96
3168.76
3466.42
3792.8
4207.77
4661.24
5261.19
5921.79
6849.53
7901.96
9478.59
11311.1
14118.8
17244.8
21737.1
25963.8
31328.6
35631.3
40785.6
45281.7
42262.1
42012.4
29498.8
23159.5
20174.8
18933.6
17699.6
17201
15866.1
14573.1
12743.2
11203.5
9648.46
8467.94
7388.9
6573.66
5848.52
5304.92
4839.09
4494.3
4200.15
3975.65
3776.9
3612.71
3456.65
3311.97
3163.9
3013.95
2857.7
2698.13
2539.23
2384.11
2240.4
2107.56
1992.91
1889.92
1805.2
1726.91
1663.52
1599.41
1547.46
1488.6
1440.78
1381.64
1332.26
1269.93
1216.57
1143.85
381.303
387.532
399.395
425.082
478.85
577.271
729.514
927.161
1147.12
1363.77
1559.11
1720.26
1832.35
1881.78
1866.57
1806.42
1732.98
1674.93
1644.34
1642.44
1663.22
1703.19
1757.06
1825.17
1904.02
1997.56
2102.31
2225.85
2362.96
2526.25
2706.77
2925.21
3165.78
3463.13
3789.13
4203.58
4656.41
5255.47
5914.94
6841.18
7891.91
9466.72
11297.8
14105.4
17232.5
21728.4
25957.2
31326.3
35629.1
40810.1
45348.5
42402.1
42331.5
29885.8
23565.7
20565.1
19260.5
17935.6
17353.5
15957.2
14623.4
12768.5
11214.4
9651.85
8467.73
7387.15
6571.18
5845.68
5301.88
4836.05
4491.41
4197.54
3973.39
3775.03
3611.25
3455.6
3311.3
3163.54
3013.78
2857.61
2698.01
2538.98
2383.71
2239.85
2106.92
1992.24
1889.33
1804.76
1726.66
1663.52
1599.68
1548.05
1489.5
1442.08
1383.31
1334.44
1272.58
1219.84
1147.49
381.39
387.731
399.761
425.748
480.032
579.174
732.17
930.313
1150.27
1366.4
1560.91
1721.27
1832.91
1882.14
1866.64
1805.87
1731.59
1672.81
1641.78
1639.73
1660.54
1700.63
1754.64
1822.86
1901.79
1995.36
2100.11
2223.6
2360.65
2523.82
2704.2
2922.44
3162.78
3459.81
3785.44
4199.36
4651.55
5249.71
5908.06
6832.78
7881.79
9454.75
11284.4
14091.8
17220.1
21719.5
25950.5
31323.8
35626.5
40834.4
45415.2
42543.4
42656.2
30283
23984.8
20968.7
19599.3
18180.6
17511.8
16051.6
14675.3
12794.4
11225.4
9655.22
8467.44
7385.31
6568.63
5842.78
5298.78
4832.96
4488.47
4194.89
3971.09
3773.14
3609.77
3454.54
3310.62
3163.16
3013.61
2857.52
2697.88
2538.73
2383.3
2239.29
2106.26
1991.57
1888.73
1804.3
1726.41
1663.52
1599.95
1548.64
1490.41
1443.39
1385
1336.65
1275.27
1223.15
1151.18
381.478
387.933
400.132
426.421
481.225
581.091
734.841
933.476
1153.43
1369.03
1562.7
1722.28
1833.46
1882.49
1866.71
1805.32
1730.21
1670.69
1639.22
1637.01
1657.86
1698.06
1752.2
1820.53
1899.54
1993.15
2097.9
2221.35
2358.32
2521.37
2701.61
2919.65
3159.76
3456.46
3781.71
4195.11
4646.66
5243.91
5901.13
6824.32
7871.6
9442.7
11271
14078.1
17207.6
21710.6
25943.6
31321.2
35623.6
40858.4
45482
42685.8
42986.5
30690.9
24417.3
21386.3
19950.5
18435.1
17676.1
16149.5
14729
12821
11236.7
9658.58
8467.08
7383.39
6566.01
5839.82
5295.62
4829.82
4485.49
4192.21
3968.76
3771.22
3608.27
3453.47
3309.93
3162.78
3013.43
2857.42
2697.75
2538.47
2382.87
2238.71
2105.59
1990.88
1888.12
1803.83
1726.15
1663.51
1600.22
1549.24
1491.32
1444.71
1386.7
1338.87
1277.98
1226.5
1154.91
381.568
388.137
400.508
427.103
482.431
583.023
737.527
936.652
1156.61
1371.68
1564.51
1723.29
1834
1882.84
1866.78
1804.78
1728.83
1668.57
1636.65
1634.28
1655.16
1695.48
1749.76
1818.2
1897.29
1990.93
2095.68
2219.08
2355.98
2518.91
2699.01
2916.84
3156.72
3453.1
3777.97
4190.83
4641.74
5238.08
5894.15
6815.81
7861.34
9430.57
11257.4
14064.3
17194.9
21701.5
25936.6
31318.4
35620.5
40882.2
45548.7
42829.6
43322.8
31109.9
24863.6
21818.3
20314.7
18699.5
17846.8
16251.1
14784.4
12848.3
11248.1
9661.94
8466.65
7381.4
6563.32
5836.8
5292.41
4826.63
4482.46
4189.49
3966.4
3769.27
3606.75
3452.37
3309.22
3162.39
3013.25
2857.32
2697.61
2538.21
2382.45
2238.13
2104.91
1990.19
1887.49
1803.36
1725.89
1663.5
1600.49
1549.83
1492.24
1446.04
1388.42
1341.12
1280.71
1229.9
1158.7
381.659
388.345
400.889
427.794
483.648
584.969
740.226
939.84
1159.79
1374.33
1566.31
1724.3
1834.53
1883.17
1866.84
1804.24
1727.46
1666.44
1634.07
1631.55
1652.46
1692.89
1747.3
1815.85
1895.02
1988.69
2093.44
2216.79
2353.62
2516.43
2696.38
2914.02
3153.65
3449.71
3774.2
4186.53
4636.78
5232.21
5887.13
6807.25
7851.01
9418.35
11243.7
14050.4
17182.2
21692.3
25929.5
31315.5
35617
40905.8
45615.3
42974.7
43665
31540.4
25324.4
22265.3
20692.4
18974.2
18024.3
16356.5
14841.8
12876.4
11259.8
9665.32
8466.16
7379.34
6560.56
5833.72
5289.15
4823.4
4479.4
4186.74
3964.01
3767.3
3605.21
3451.27
3308.5
3161.99
3013.06
2857.22
2697.47
2537.94
2382.01
2237.53
2104.22
1989.48
1886.86
1802.88
1725.61
1663.49
1600.75
1550.42
1493.16
1447.38
1390.14
1343.39
1283.48
1233.33
1162.54
381.751
388.556
401.276
428.492
484.878
586.93
742.939
943.039
1162.98
1376.99
1568.12
1725.3
1835.05
1883.49
1866.9
1803.7
1726.09
1664.32
1631.49
1628.8
1649.74
1690.29
1744.83
1813.49
1892.74
1986.45
2091.19
2214.5
2351.25
2513.93
2693.74
2911.17
3150.57
3446.3
3770.4
4182.2
4631.8
5226.3
5880.07
6798.63
7840.62
9406.06
11230
14036.4
17169.3
21683.1
25922.3
31312.4
35613.3
40929.1
45682
43121.1
44013.5
31982.8
25800.1
22727.7
21084.1
19259.8
18208.9
16466.1
14901.3
12905.5
11271.8
9668.72
8465.62
7377.21
6557.74
5830.58
5285.85
4820.12
4476.3
4183.95
3961.6
3765.31
3603.65
3450.15
3307.78
3161.59
3012.87
2857.12
2697.33
2537.67
2381.57
2236.93
2103.52
1988.76
1886.22
1802.38
1725.33
1663.47
1601.02
1551.02
1494.08
1448.72
1391.88
1345.68
1286.28
1236.81
1166.44
381.845
388.77
401.668
429.2
486.119
588.904
745.666
946.248
1166.18
1379.65
1569.93
1726.29
1835.56
1883.81
1866.96
1803.17
1724.73
1662.2
1628.9
1626.05
1647.02
1687.67
1742.35
1811.12
1890.45
1984.18
2088.92
2212.18
2348.86
2511.42
2691.08
2908.31
3147.47
3442.87
3766.59
4177.84
4626.78
5220.36
5872.98
6789.97
7830.17
9393.68
11216.1
14022.3
17156.4
21673.7
25915
31309.2
35609.3
40952.3
45748.6
43268.8
44368.3
32437.7
26291.3
23206.1
21490.3
19556.7
18400.9
16580
14962.9
12935.4
11284.1
9672.17
8465.04
7375.02
6554.87
5827.4
5282.49
4816.81
4473.17
4181.14
3959.16
3763.3
3602.08
3449.02
3307.04
3161.18
3012.68
2857.01
2697.18
2537.39
2381.12
2236.32
2102.81
1988.04
1885.57
1801.88
1725.05
1663.45
1601.28
1551.62
1495.01
1450.08
1393.64
1347.99
1289.11
1240.33
1170.39
381.94
388.987
402.066
429.915
487.372
590.893
748.406
949.468
1169.39
1382.32
1571.74
1727.28
1836.05
1884.11
1867.02
1802.65
1723.36
1660.07
1626.31
1623.29
1644.28
1685.05
1739.86
1808.74
1888.14
1981.91
2086.65
2209.86
2346.46
2508.89
2688.41
2905.42
3144.35
3439.42
3762.75
4173.46
4621.74
5214.39
5865.84
6781.25
7819.66
9381.23
11202.2
14008.1
17143.3
21664.3
25907.6
31305.9
35605
40975.2
45815.3
43418
44729.8
32905.5
26798.6
23701.1
21911.6
19865.4
18600.8
16698.6
15026.9
12966.4
11296.8
9675.68
8464.43
7372.79
6551.95
5824.17
5279.1
4813.46
4470
4178.3
3956.7
3761.27
3600.5
3447.87
3306.3
3160.77
3012.48
2856.9
2697.04
2537.12
2380.67
2235.71
2102.09
1987.3
1884.91
1801.38
1724.76
1663.42
1601.54
1552.22
1495.94
1451.44
1395.4
1350.32
1291.96
1243.9
1174.39
382.036
389.208
402.469
430.64
488.638
592.895
751.159
952.698
1172.6
1385
1573.56
1728.26
1836.53
1884.39
1867.07
1802.12
1722.01
1657.95
1623.72
1620.52
1641.54
1682.42
1737.36
1806.35
1885.83
1979.63
2084.36
2207.52
2344.04
2506.35
2685.72
2902.53
3141.21
3435.95
3758.88
4169.05
4616.67
5208.39
5858.66
6772.49
7809.08
9368.7
11188.1
13993.8
17130.2
21654.8
25900.1
31302.5
35600.5
40997.9
45881.9
43568.6
45098
33386.8
27322.5
24213.3
22348.6
20186.6
18808.9
16822.1
15093.5
12998.5
11309.8
9679.27
8463.79
7370.5
6548.98
5820.91
5275.68
4810.08
4466.81
4175.43
3954.22
3759.23
3598.9
3446.72
3305.56
3160.35
3012.28
2856.79
2696.89
2536.83
2380.21
2235.08
2101.37
1986.55
1884.24
1800.86
1724.46
1663.39
1601.8
1552.82
1496.88
1452.81
1397.19
1352.67
1294.85
1247.51
1178.46
382.134
389.432
402.878
431.373
489.916
594.912
753.925
955.937
1175.82
1387.68
1575.37
1729.24
1837
1884.66
1867.11
1801.6
1720.66
1655.83
1621.12
1617.74
1638.78
1679.78
1734.85
1803.95
1883.5
1977.33
2082.06
2205.17
2341.61
2503.8
2683.01
2899.61
3138.05
3432.46
3755
4164.62
4611.57
5202.35
5851.44
6763.68
7798.45
9356.1
11174
13979.4
17116.9
21645.2
25892.6
31298.9
35595.7
41020.5
45948.5
43720.7
45473.3
33881.9
27863.6
24743
22801.9
20520.6
19025.7
16950.7
15162.6
13031.8
11323.2
9682.97
8463.15
7368.19
6545.98
5817.61
5272.22
4806.67
4463.6
4172.55
3951.73
3757.17
3597.29
3445.56
3304.81
3159.93
3012.09
2856.69
2696.75
2536.55
2379.75
2234.45
2100.63
1985.8
1883.56
1800.34
1724.16
1663.36
1602.06
1553.42
1497.83
1454.2
1398.98
1355.05
1297.77
1251.17
1182.58
382.234
389.659
403.293
432.116
491.205
596.942
756.703
959.185
1179.04
1390.36
1577.18
1730.2
1837.45
1884.92
1867.15
1801.08
1719.31
1653.71
1618.51
1614.96
1636.02
1677.12
1732.33
1801.53
1881.16
1975.02
2079.74
2202.8
2339.16
2501.23
2680.29
2896.68
3134.87
3428.95
3751.09
4160.16
4606.44
5196.28
5844.19
6754.82
7787.75
9343.43
11159.8
13964.9
17103.6
21635.5
25884.9
31295.3
35590.7
41042.8
46015.1
43874.3
45855.8
34391.5
28422.5
25291.1
23271.9
20868.1
19251.6
17084.8
15234.7
13066.3
11337.1
9686.79
8462.52
7365.85
6542.94
5814.28
5268.74
4803.23
4460.36
4169.65
3949.22
3755.1
3595.67
3444.4
3304.05
3159.52
3011.89
2856.58
2696.6
2536.27
2379.28
2233.82
2099.89
1985.04
1882.88
1799.82
1723.86
1663.33
1602.33
1554.03
1498.78
1455.59
1400.79
1357.45
1300.72
1254.87
1186.76
382.335
389.889
403.714
432.867
492.508
598.986
759.493
962.442
1182.27
1393.04
1578.99
1731.16
1837.88
1885.15
1867.18
1800.56
1717.96
1651.58
1615.9
1612.16
1633.25
1674.46
1729.8
1799.11
1878.81
1972.7
2077.42
2200.42
2336.71
2498.64
2677.55
2893.73
3131.68
3425.41
3747.16
4155.68
4601.29
5190.18
5836.9
6745.92
7777
9330.68
11145.5
13950.3
17090.1
21625.7
25877.2
31291.5
35585.4
41064.9
46081.7
44029.4
46245.7
34916.2
28999.8
25857.8
23759.3
21229.7
19487.1
17224.6
15309.7
13102.2
11351.5
9690.75
8461.9
7363.49
6539.89
5810.93
5265.23
4799.78
4457.1
4166.73
3946.69
3753.03
3594.05
3443.23
3303.3
3159.1
3011.7
2856.48
2696.46
2535.98
2378.82
2233.18
2099.14
1984.27
1882.18
1799.28
1723.55
1663.29
1602.59
1554.64
1499.73
1456.99
1402.62
1359.87
1303.7
1258.63
1191.01
382.438
390.123
404.14
433.627
493.822
601.044
762.295
965.707
1185.51
1395.73
1580.8
1732.1
1838.29
1885.37
1867.2
1800.04
1716.63
1649.46
1613.29
1609.37
1630.47
1671.79
1727.26
1796.68
1876.46
1970.37
2075.08
2198.03
2334.24
2496.04
2674.8
2890.76
3128.47
3421.87
3743.22
4151.18
4596.12
5184.06
5829.58
6736.97
7766.2
9317.87
11131.2
13935.7
17076.6
21615.9
25869.5
31287.7
35579.9
41086.9
46148.4
44186.2
46643.4
35456.4
29596.1
26444
24264.6
21605.8
19732.6
17370.6
15387.9
13139.6
11366.5
9694.89
8461.32
7361.12
6536.81
5807.57
5261.71
4796.32
4453.83
4163.8
3944.16
3750.94
3592.42
3442.06
3302.54
3158.69
3011.51
2856.38
2696.32
2535.7
2378.35
2232.53
2098.39
1983.49
1881.49
1798.75
1723.24
1663.26
1602.85
1555.25
1500.7
1458.41
1404.46
1362.32
1306.72
1262.43
1195.31
382.542
390.361
404.572
434.396
495.149
603.115
765.109
968.979
1188.75
1398.42
1582.61
1733.04
1838.69
1885.57
1867.21
1799.53
1715.29
1647.34
1610.67
1606.56
1627.68
1669.11
1724.71
1794.23
1874.09
1968.03
2072.73
2195.63
2331.75
2493.43
2672.03
2887.78
3125.24
3418.3
3739.25
4146.66
4590.91
5177.9
5822.22
6727.98
7755.34
9304.99
11116.7
13920.9
17063
21606
25861.7
31283.8
35574.2
41108.7
46215.1
44344.6
47049
36012.8
30212.1
27050
24788.5
21997.1
19988.6
17522.9
15469.5
13178.6
11382.1
9699.24
8460.78
7358.76
6533.74
5804.19
5258.18
4792.84
4450.56
4160.87
3941.63
3748.85
3590.78
3440.89
3301.79
3158.28
3011.33
2856.29
2696.18
2535.42
2377.88
2231.88
2097.63
1982.71
1880.78
1798.2
1722.92
1663.22
1603.11
1555.87
1501.67
1459.83
1406.32
1364.79
1309.77
1266.28
1199.69
382.647
390.602
405.011
435.175
496.488
605.201
767.935
972.259
1191.99
1401.1
1584.41
1733.96
1839.06
1885.75
1867.2
1799.01
1713.96
1645.22
1608.06
1603.75
1624.89
1666.42
1722.15
1791.78
1871.71
1965.68
2070.37
2193.22
2329.25
2490.8
2669.25
2884.78
3121.99
3414.71
3735.26
4142.11
4585.69
5171.72
5814.83
6718.96
7744.43
9292.05
11102.2
13906.1
17049.4
21596.1
25853.8
31279.8
35568.3
41130.3
46281.8
44504.8
47462.8
36585.9
30848.4
27676.4
25331.5
22404.1
20255.5
17682.1
15554.8
13219.2
11398.3
9703.81
8460.31
7356.42
6530.66
5800.82
5254.65
4789.36
4447.28
4157.93
3939.09
3746.76
3589.15
3439.72
3301.04
3157.87
3011.16
2856.21
2696.05
2535.14
2377.41
2231.23
2096.87
1981.92
1880.07
1797.65
1722.6
1663.18
1603.38
1556.49
1502.64
1461.27
1408.19
1367.28
1312.85
1270.18
1204.12
382.755
390.846
405.455
435.963
497.839
607.299
770.771
975.545
1195.23
1403.79
1586.2
1734.87
1839.42
1885.91
1867.19
1798.49
1712.63
1643.11
1605.43
1600.93
1622.08
1663.72
1719.58
1789.32
1869.32
1963.32
2068
2190.79
2326.74
2488.16
2666.45
2881.77
3118.73
3411.11
3731.25
4137.54
4580.44
5165.51
5807.41
6709.89
7733.47
9279.04
11087.6
13891.2
17035.6
21586.1
25845.9
31275.8
35562.2
41151.8
46348.6
44666.7
47885.1
37176.4
31505.6
28323.9
25894.2
22827.6
20534
17848.3
15643.8
13261.6
11415.3
9708.64
8459.93
7354.11
6527.6
5797.46
5251.13
4785.89
4444
4155
3936.55
3744.68
3587.52
3438.55
3300.29
3157.48
3010.99
2856.13
2695.93
2534.87
2376.94
2230.58
2096.1
1981.13
1879.36
1797.1
1722.28
1663.14
1603.64
1557.11
1503.63
1462.72
1410.08
1369.8
1315.97
1274.14
1208.62
382.864
391.095
405.906
436.76
499.203
609.411
773.619
978.837
1198.47
1406.48
1588
1735.77
1839.75
1886.04
1867.16
1797.97
1711.3
1640.99
1602.81
1598.11
1619.27
1661.02
1717
1786.85
1866.92
1960.94
2065.62
2188.35
2324.22
2485.5
2663.64
2878.74
3115.45
3407.48
3727.23
4132.96
4575.17
5159.27
5799.96
6700.78
7722.45
9265.97
11072.9
13876.2
17021.8
21576.1
25838
31271.7
35555.9
41173.2
46415.4
44830.4
48316.2
37784.9
32184.3
28992.8
26477
23268
20824.5
18022.1
15737
13306
11433.1
9713.77
8459.65
7351.84
6524.56
5794.11
5247.62
4782.42
4440.72
4152.07
3934.02
3742.59
3585.9
3437.39
3299.55
3157.09
3010.83
2856.06
2695.81
2534.6
2376.47
2229.93
2095.33
1980.33
1878.64
1796.55
1721.96
1663.1
1603.91
1557.74
1504.62
1464.17
1411.98
1372.35
1319.12
1278.15
1213.19
382.974
391.347
406.364
437.567
500.58
611.537
776.478
982.135
1201.72
1409.16
1589.78
1736.65
1840.06
1886.15
1867.12
1797.45
1709.98
1638.88
1600.18
1595.28
1616.45
1658.3
1714.42
1784.37
1864.51
1958.56
2063.22
2185.9
2321.69
2482.83
2660.81
2875.69
3112.16
3403.84
3723.18
4128.35
4569.87
5153.01
5792.47
6691.63
7711.39
9252.83
11058.2
13861.2
17007.9
21566
25830
31267.6
35549.4
41194.4
46482.3
44996
48756.3
38412
32885.2
29683.8
27080.7
23726
21127.6
18203.7
15834.4
13352.4
11451.7
9719.24
8459.5
7349.63
6521.56
5790.79
5244.12
4778.97
4437.47
4149.15
3931.5
3740.52
3584.29
3436.24
3298.83
3156.71
3010.68
2856
2695.71
2534.34
2376.01
2229.28
2094.56
1979.53
1877.92
1795.99
1721.64
1663.06
1604.18
1558.37
1505.61
1465.65
1413.91
1374.92
1322.31
1282.2
1217.83
383.086
391.603
406.827
438.384
501.97
613.676
779.347
985.438
1204.97
1411.84
1591.56
1737.52
1840.34
1886.24
1867.06
1796.92
1708.66
1636.76
1597.55
1592.44
1613.62
1655.58
1711.82
1781.87
1862.09
1956.16
2060.82
2183.44
2319.14
2480.15
2657.97
2872.64
3108.85
3400.19
3719.12
4123.72
4564.55
5146.72
5784.96
6682.45
7700.28
9239.64
11043.4
13846
16994
21555.9
25822.1
31263.4
35542.8
41215.5
46549.3
45163.5
49205.7
39058.5
33608.9
30397.4
27705.7
24202.2
21443.8
18393.7
15936.4
13401
11471.3
9725.07
8459.51
7347.5
6518.61
5787.52
5240.66
4775.54
4434.23
4146.25
3928.99
3738.46
3582.69
3435.1
3298.11
3156.34
3010.54
2855.96
2695.61
2534.09
2375.55
2228.62
2093.79
1978.73
1877.19
1795.43
1721.31
1663.02
1604.45
1559.01
1506.62
1467.13
1415.84
1377.52
1325.53
1286.32
1222.54
383.201
391.863
407.298
439.211
503.372
615.828
782.226
988.745
1208.21
1414.52
1593.33
1738.37
1840.6
1886.29
1866.98
1796.4
1707.35
1634.65
1594.92
1589.6
1610.79
1652.85
1709.22
1779.38
1859.66
1953.76
2058.4
2180.96
2316.58
2477.46
2655.12
2869.56
3105.52
3396.52
3715.04
4119.07
4559.21
5140.41
5777.42
6673.22
7689.13
9226.39
11028.5
13830.8
16980
21545.8
25814.1
31259.3
35536
41236.5
46616.3
45333
49664.8
39724.9
34356.1
31134.1
28352.6
24697.2
21773.7
18592.4
16043.1
13452
11491.9
9731.32
8459.68
7345.46
6515.73
5784.29
5237.24
4772.15
4431.01
4143.37
3926.51
3736.42
3581.1
3433.98
3297.41
3155.99
3010.42
2855.92
2695.52
2533.84
2375.1
2227.97
2093.01
1977.93
1876.47
1794.87
1720.98
1662.98
1604.73
1559.66
1507.63
1468.62
1417.8
1380.14
1328.79
1290.49
1227.33
383.316
392.126
407.774
440.047
504.787
617.994
785.115
992.058
1211.46
1417.19
1595.09
1739.21
1840.83
1886.32
1866.89
1795.86
1706.03
1632.54
1592.28
1586.75
1607.95
1650.11
1706.6
1776.87
1857.22
1951.34
2055.98
2178.48
2314.01
2474.75
2652.25
2866.47
3102.18
3392.83
3710.94
4114.4
4553.85
5134.07
5769.85
6663.97
7677.92
9213.08
11013.6
13815.6
16965.9
21535.6
25806.1
31255.2
35529.1
41257.4
46683.5
45504.6
50133.8
40412
35127.4
31894.4
29021.9
25211.6
22117.9
18800.3
16155
13505.5
11513.6
9738.02
8460.07
7343.54
6512.92
5781.12
5233.87
4768.8
4427.83
4140.52
3924.05
3734.4
3579.53
3432.87
3296.73
3155.66
3010.32
2855.91
2695.45
2533.6
2374.65
2227.33
2092.24
1977.12
1875.74
1794.3
1720.66
1662.94
1605.01
1560.31
1508.66
1470.13
1419.77
1382.79
1332.08
1294.71
1232.18
383.434
392.394
408.258
440.893
506.215
620.173
788.015
995.374
1214.7
1419.86
1596.84
1740.02
1841.03
1886.32
1866.77
1795.32
1704.72
1630.43
1589.64
1583.9
1605.1
1647.37
1703.98
1774.35
1854.78
1948.92
2053.54
2175.98
2311.42
2472.03
2649.37
2863.37
3098.83
3389.12
3706.82
4109.71
4548.47
5127.72
5762.25
6654.68
7666.68
9199.71
10998.5
13800.2
16951.7
21525.4
25798.2
31251
35522.1
41278.2
46750.9
45678.3
50613.1
41120.4
35923.4
32678.7
29714
25746
22476.9
19017.9
16272.3
13561.6
11536.4
9745.24
8460.69
7341.76
6510.21
5778.03
5230.56
4765.5
4424.7
4137.71
3921.61
3732.41
3577.99
3431.79
3296.06
3155.35
3010.23
2855.91
2695.4
2533.38
2374.21
2226.69
2091.47
1976.31
1875.01
1793.74
1720.33
1662.91
1605.29
1560.96
1509.69
1471.65
1421.76
1385.46
1335.41
1298.99
1237.11
383.553
392.666
408.748
441.75
507.656
622.365
790.924
998.693
1217.94
1422.52
1598.58
1740.82
1841.21
1886.28
1866.64
1794.78
1703.41
1628.32
1587
1581.04
1602.25
1644.61
1701.36
1771.82
1852.32
1946.49
2051.09
2173.48
2308.83
2469.3
2646.48
2860.26
3095.46
3385.4
3702.69
4105.01
4543.07
5121.33
5754.62
6645.35
7655.38
9186.29
10983.5
13784.8
16937.5
21515.2
25790.2
31246.9
35514.9
41299
46818.3
45854.1
51102.9
41850.9
36744.7
33487.5
30429.5
26301
22851.4
19245.5
16395.3
13620.6
11560.6
9753.01
8461.57
7340.13
6507.61
5775.03
5227.33
4762.26
4421.62
4134.94
3919.22
3730.45
3576.47
3430.73
3295.42
3155.05
3010.17
2855.93
2695.35
2533.17
2373.78
2226.05
2090.7
1975.51
1874.28
1793.18
1720.01
1662.88
1605.58
1561.63
1510.73
1473.19
1423.77
1388.17
1338.78
1303.32
1242.12
383.674
392.942
409.246
442.617
509.111
624.571
793.842
1002.02
1221.18
1425.17
1600.31
1741.59
1841.35
1886.22
1866.48
1794.23
1702.11
1626.22
1584.36
1578.18
1599.39
1641.85
1698.72
1769.29
1849.85
1944.04
2048.63
2170.96
2306.22
2466.56
2643.57
2857.13
3092.07
3381.66
3698.54
4100.29
4537.65
5114.93
5746.97
6635.99
7644.05
9172.82
10968.3
13769.4
16923.3
21505
25782.3
31242.9
35507.7
41319.7
46886
46032.3
51603.8
42604.2
37592.1
34321.3
31168.8
26877.2
23242
19483.8
16524.3
13682.7
11586.1
9761.4
8462.76
7338.69
6505.14
5772.14
5224.19
4759.1
4418.59
4132.22
3916.87
3728.53
3574.99
3429.7
3294.81
3154.79
3010.13
2855.97
2695.33
2532.97
2373.36
2225.42
2089.93
1974.7
1873.55
1792.61
1719.69
1662.85
1605.88
1562.3
1511.78
1474.74
1425.8
1390.9
1342.18
1307.72
1247.2
383.797
393.222
409.75
443.494
510.578
626.79
796.77
1005.34
1224.42
1427.81
1602.02
1742.35
1841.46
1886.12
1866.3
1793.67
1700.8
1624.12
1581.72
1575.32
1596.52
1639.08
1696.08
1766.75
1847.38
1941.59
2046.17
2168.43
2303.6
2463.8
2640.65
2853.98
3088.67
3377.91
3694.38
4095.54
4532.21
5108.5
5739.29
6626.6
7632.68
9159.29
10953.1
13753.8
16909
21494.7
25774.4
31238.9
35500.4
41340.4
46953.8
46212.7
52116
43381
38466
35180.4
31932.3
27475.2
23649.3
19733.2
16659.7
13748
11613.1
9770.48
8464.29
7337.45
6502.83
5769.38
5221.15
4756.03
4415.64
4129.57
3914.58
3726.65
3573.55
3428.7
3294.23
3154.55
3010.12
2856.03
2695.33
2532.79
2372.95
2224.8
2089.17
1973.9
1872.82
1792.05
1719.37
1662.82
1606.18
1562.97
1512.84
1476.3
1427.85
1393.65
1345.62
1312.17
1252.36
383.922
393.507
410.262
444.382
512.059
629.023
799.706
1008.67
1227.65
1430.45
1603.72
1743.08
1841.54
1885.98
1866.1
1793.1
1699.5
1622.01
1579.07
1572.45
1593.65
1636.31
1693.43
1764.2
1844.9
1939.13
2043.69
2165.89
2300.97
2461.03
2637.72
2850.83
3085.26
3374.14
3690.2
4090.79
4526.75
5102.05
5731.59
6617.18
7621.26
9145.71
10937.9
13738.2
16894.6
21484.5
25766.6
31234.9
35493
41361.1
47021.8
46395.6
52639.8
44182.1
39367.1
36065.3
32720.5
28095.5
24073.9
19994.3
16801.8
13816.7
11641.7
9780.29
8466.21
7336.46
6500.7
5766.76
5218.23
4753.05
4412.78
4126.99
3912.34
3724.82
3572.15
3427.75
3293.68
3154.34
3010.13
2856.12
2695.35
2532.63
2372.56
2224.19
2088.41
1973.1
1872.1
1791.5
1719.05
1662.8
1606.48
1563.66
1513.91
1477.87
1429.91
1396.44
1349.1
1316.68
1257.6
384.049
393.795
410.781
445.28
513.553
631.268
802.652
1012
1230.87
1433.08
1605.41
1743.79
1841.59
1885.81
1865.86
1792.52
1698.19
1619.91
1576.43
1569.57
1590.77
1633.53
1690.77
1761.64
1842.41
1936.65
2041.2
2163.34
2298.33
2458.25
2634.78
2847.66
3081.83
3370.36
3686
4086.01
4521.27
5095.58
5723.87
6607.72
7609.8
9132.08
10922.5
13722.6
16880.2
21474.2
25758.8
31231.1
35485.7
41381.7
47090
46580.9
53175.7
45008.2
40296
36976.3
33533.6
28738.7
24516.4
20267.5
16951
13889.2
11672
9790.93
8468.55
7335.75
6498.78
5764.31
5215.45
4750.19
4410.01
4124.49
3910.18
3723.06
3570.8
3426.83
3293.17
3154.17
3010.18
2856.24
2695.4
2532.49
2372.19
2223.59
2087.67
1972.31
1871.38
1790.94
1718.74
1662.79
1606.79
1564.35
1515
1479.46
1432
1399.25
1352.62
1321.26
1262.93
384.178
394.089
411.307
446.189
515.061
633.527
805.606
1015.33
1234.09
1435.69
1607.08
1744.48
1841.6
1885.6
1865.6
1791.93
1696.88
1617.81
1573.78
1566.7
1587.88
1630.74
1688.1
1759.07
1839.91
1934.17
2038.71
2160.78
2295.68
2455.46
2631.82
2844.47
3078.39
3366.56
3681.78
4081.22
4515.78
5089.09
5716.11
6598.24
7598.3
9118.39
10907.2
13706.9
16865.7
21464
25751.1
31227.3
35478.3
41402.4
47158.5
46768.9
53724
45860.1
41253.3
37913.7
34372.1
29405.3
24977.6
20553.6
17107.7
13965.5
11704.2
9802.46
8471.37
7335.34
6497.08
5762.04
5212.82
4747.47
4407.36
4122.08
3908.09
3721.36
3569.5
3425.97
3292.7
3154.04
3010.26
2856.4
2695.47
2532.37
2371.83
2223
2086.93
1971.53
1870.67
1790.39
1718.43
1662.78
1607.11
1565.06
1516.09
1481.07
1434.1
1402.1
1356.18
1325.89
1268.34
384.309
394.386
411.841
447.11
516.583
635.8
808.569
1018.66
1237.3
1438.3
1608.74
1745.14
1841.58
1885.35
1865.31
1791.32
1695.58
1615.72
1571.14
1563.81
1585
1627.94
1685.43
1756.5
1837.4
1931.68
2036.2
2158.21
2293.02
2452.65
2628.85
2841.27
3074.93
3362.75
3677.55
4076.41
4510.27
5082.58
5708.34
6588.72
7586.77
9104.66
10891.7
13691.1
16851.2
21453.7
25743.4
31223.7
35470.9
41423.2
47227.3
46959.4
54285.2
46738.5
42239.4
38877.9
35236.3
30095.7
25458
20853
17272.3
14046
11738.4
9814.97
8474.72
7335.29
6495.64
5760
5210.38
4744.89
4404.83
4119.78
3906.1
3719.74
3568.28
3425.16
3292.29
3153.95
3010.38
2856.58
2695.58
2532.28
2371.49
2222.43
2086.21
1970.75
1869.96
1789.85
1718.13
1662.78
1607.44
1565.77
1517.19
1482.69
1436.22
1404.97
1359.77
1330.59
1273.83
384.442
394.689
412.383
448.041
518.118
638.086
811.54
1021.99
1240.51
1440.89
1610.38
1745.78
1841.52
1885.06
1864.99
1790.71
1694.27
1613.62
1568.49
1560.93
1582.1
1625.14
1682.75
1753.91
1834.88
1929.18
2033.68
2155.63
2290.34
2449.83
2625.87
2838.06
3071.46
3358.92
3673.31
4071.58
4504.73
5076.05
5700.54
6579.18
7575.19
9090.88
10876.2
13675.3
16836.7
21443.5
25735.8
31220.2
35463.5
41444
47296.3
47152.8
54859.6
47644.1
43255
39869.1
36126.3
30810.5
25958.2
21166.3
17445.2
14131
11774.8
9828.55
8478.66
7335.62
6494.5
5758.19
5208.14
4742.49
4402.44
4117.61
3904.21
3718.2
3567.12
3424.42
3291.93
3153.91
3010.55
2856.81
2695.72
2532.22
2371.18
2221.88
2085.5
1969.99
1869.26
1789.31
1717.84
1662.78
1607.77
1566.49
1518.31
1484.33
1438.36
1407.87
1363.41
1335.35
1279.41
384.577
394.996
412.932
448.984
519.668
640.385
814.519
1025.32
1243.7
1443.47
1612
1746.38
1841.42
1884.73
1864.64
1790.08
1692.96
1611.53
1565.84
1558.04
1579.2
1622.34
1680.06
1751.32
1832.36
1926.68
2031.16
2153.03
2287.66
2447.01
2622.87
2834.84
3067.98
3355.08
3669.05
4066.74
4499.18
5069.51
5692.72
6569.61
7563.58
9077.05
10860.7
13659.4
16822.1
21433.3
25728.4
31216.9
35456.2
41464.8
47365.7
47348.9
55447.7
48577.9
44300.5
40887.5
37042.4
31550.1
26479
21494.3
17626.9
14220.6
11813.5
9843.3
8483.26
7336.39
6493.7
5756.66
5206.12
4740.28
4400.22
4115.57
3902.43
3716.77
3566.05
3423.74
3291.63
3153.93
3010.76
2857.08
2695.89
2532.19
2370.89
2221.34
2084.8
1969.23
1868.57
1788.79
1717.56
1662.79
1608.12
1567.22
1519.44
1485.98
1440.53
1410.8
1367.09
1340.17
1285.07
384.714
395.308
413.489
449.938
521.232
642.697
817.507
1028.65
1246.89
1446.03
1613.6
1746.96
1841.28
1884.35
1864.25
1789.43
1691.65
1609.44
1563.19
1555.15
1576.3
1619.52
1677.37
1748.73
1829.82
1924.16
2028.62
2150.43
2284.96
2444.17
2619.87
2831.61
3064.48
3351.23
3664.78
4061.88
4493.62
5062.94