/*--------------------------------*- C++ -*----------------------------------*\
| =========                 |                                                 |
| \\      /  F ield         | OpenFOAM: The Open Source CFD Toolbox           |
|  \\    /   O peration     | Version:  2412                                  |
|   \\  /    A nd           | Website:  www.openfoam.com                      |
|    \\/     M anipulation  |                                                 |
\*---------------------------------------------------------------------------*/
FoamFile
{
    version     2.0;
    format      ascii;
    arch        "LSB;label=32;scalar=64";
    class       volScalarField;
    location    "0.8";
    object      k;
}
// * * * * * * * * * * * * * * * * * * * * * * * * * * * * * * * * * * * * * //

dimensions      [0 2 -2 0 0 0 0];

internalField   nonuniform List<scalar> 
12960
(
37.7786
38.3044
39.3563
41.4647
45.2554
51.0324
58.3808
66.1762
73.213
78.7869
82.7872
85.3343
86.4889
86.3511
85.2483
83.8338
82.747
82.3651
82.6559
83.4863
84.669
86.1729
87.9038
89.9267
92.1533
94.7124
97.482
100.669
104.084
108.049
112.26
117.217
122.428
128.685
135.185
143.199
151.434
161.977
172.803
187.416
202.619
224.05
246.25
277.467
307.52
346.808
378.25
416.532
444.244
476.655
500.954
466.616
454.332
336.862
270.784
248.899
258.989
266.072
273.356
264.237
253.566
234.908
219.449
202.209
189.104
175.916
165.908
156.297
149.123
142.517
137.592
133.051
129.508
126.11
123.173
120.156
117.218
114.071
110.828
107.433
103.99
100.597
97.3036
94.2706
91.4314
88.9636
86.6539
84.7102
82.7831
81.1728
79.4069
77.9314
76.1394
74.6376
72.6903
71.0067
68.8311
66.9088
64.283
37.7841
38.3178
39.3818
41.5097
45.3275
51.1317
58.495
66.283
73.2891
78.8173
82.7705
85.2823
86.419
86.2761
85.1715
83.7532
82.6625
82.2803
82.5752
83.4118
84.601
86.1104
87.8455
89.8716
92.1002
94.6604
97.4303
100.617
104.031
107.995
112.203
117.158
122.366
128.618
135.113
143.12
151.347
161.88
172.693
187.292
202.481
223.903
246.102
277.335
307.41
346.735
378.188
416.503
444.227
476.852
501.433
467.611
456.432
339.409
273.197
250.877
260.375
266.975
273.91
264.573
253.757
235.006
219.484
202.207
189.082
175.884
165.869
156.254
149.077
142.471
137.549
133.012
129.475
126.084
123.153
120.143
117.21
114.067
110.826
107.429
103.984
100.588
97.2918
94.2568
91.4172
88.9509
86.6443
84.7053
82.7841
81.181
79.4228
77.9567
76.1743
74.6851
72.75
71.083
68.923
67.0203
64.4057
37.7897
38.3313
39.4075
41.5551
45.4
51.2313
58.6092
66.3897
73.3651
78.8477
82.7538
85.2302
86.3489
86.201
85.0946
83.6726
82.578
82.1955
82.4944
83.3374
84.533
86.0479
87.7874
89.8164
92.0472
94.6083
97.3786
100.565
103.978
107.94
112.147
117.099
122.304
128.551
135.042
143.042
151.26
161.782
172.582
187.167
202.342
223.756
245.954
277.202
307.301
346.663
378.127
416.475
444.21
477.052
501.916
468.616
458.559
341.999
275.657
252.899
261.792
267.897
274.474
264.915
253.952
235.105
219.52
202.205
189.06
175.851
165.83
156.21
149.031
142.425
137.505
132.974
129.442
126.057
123.134
120.13
117.202
114.063
110.823
107.426
103.979
100.58
97.2803
94.2432
91.4033
88.9383
86.6349
84.7007
82.7854
81.1895
79.439
77.9824
76.2097
74.7333
72.8105
71.1603
69.0162
67.1334
64.5303
37.7954
38.3451
39.4335
41.6008
45.473
51.3313
58.7237
66.4964
73.4411
78.8781
82.7371
85.1778
86.2783
86.1253
85.0174
83.5918
82.4933
82.1105
82.4135
83.2627
84.4648
85.9851
87.729
89.7611
91.9939
94.5561
97.3268
100.513
103.925
107.886
112.09
117.04
122.241
128.484
134.969
142.962
151.173
161.684
172.472
187.042
202.203
223.608
245.805
277.069
307.192
346.591
378.065
416.447
444.192
477.251
502.4
469.629
460.71
344.63
278.164
254.964
263.239
268.838
275.047
265.262
254.148
235.204
219.555
202.203
189.037
175.819
165.79
156.166
148.984
142.379
137.461
132.934
129.408
126.031
123.114
120.117
117.195
114.059
110.821
107.423
103.973
100.571
97.2688
94.2296
91.3892
88.9256
86.6255
84.696
82.7867
81.198
79.4554
78.0084
76.2455
74.782
72.8716
71.2385
69.1105
67.248
64.6566
37.8011
38.359
39.4599
41.647
45.5464
51.4316
58.8384
66.6033
73.5172
78.9085
82.7202
85.125
86.207
86.0489
84.9397
83.5106
82.4082
82.0251
82.3321
83.1876
84.3962
85.9221
87.6703
89.7055
91.9403
94.5036
97.2746
100.46
103.872
107.831
112.033
116.98
122.178
128.417
134.897
142.883
151.085
161.585
172.36
186.916
202.063
223.459
245.654
276.935
307.081
346.518
378.003
416.417
444.172
477.449
502.884
470.649
462.886
347.301
280.718
257.073
264.718
269.797
275.629
265.614
254.346
235.304
219.589
202.199
189.013
175.785
165.75
156.121
148.937
142.331
137.417
132.895
129.374
126.004
123.094
120.104
117.187
114.055
110.818
107.42
103.968
100.563
97.2571
94.2158
91.375
88.9127
86.6159
84.6912
82.788
81.2065
79.4719
78.0345
76.2814
74.831
72.9332
71.3174
69.2057
67.3639
64.7845
37.807
38.3731
39.4865
41.6936
45.6203
51.5324
58.9534
66.7102
73.5933
78.9388
82.7032
85.0718
86.1352
85.9719
84.8614
83.4289
82.3227
81.9393
82.2503
83.1121
84.3272
85.8587
87.6112
89.6495
91.8864
94.4507
97.2221
100.407
103.818
107.775
111.976
116.92
122.115
128.349
134.824
142.803
150.996
161.486
172.248
186.789
201.922
223.309
245.503
276.8
306.969
346.443
377.939
416.386
444.15
477.645
503.368
471.676
465.085
350.015
283.321
259.228
266.23
270.777
276.222
265.97
254.546
235.403
219.623
202.195
188.988
175.75
165.708
156.076
148.888
142.283
137.372
132.854
129.34
125.976
123.074
120.09
117.179
114.051
110.816
107.417
103.963
100.554
97.2452
94.2017
91.3605
88.8996
86.606
84.6862
82.7891
81.215
79.4883
78.0608
76.3176
74.8803
72.9952
71.397
69.3019
67.4812
64.9139
37.8129
38.3874
39.5134
41.7407
45.6947
51.6337
59.0686
66.8173
73.6694
78.9692
82.686
85.0182
86.0626
85.8941
84.7825
83.3468
82.2368
81.853
82.1682
83.0363
84.2579
85.7949
87.5518
89.5931
91.8321
94.3974
97.1692
100.354
103.764
107.719
111.918
116.859
122.051
128.28
134.75
142.722
150.907
161.386
172.135
186.661
201.78
223.157
245.35
276.663
306.856
346.368
377.875
416.353
444.125
477.84
503.851
472.71
467.31
352.773
285.974
261.431
267.777
271.778
276.826
266.332
254.747
235.503
219.655
202.189
188.962
175.713
165.666
156.029
148.839
142.235
137.326
132.813
129.305
125.948
123.053
120.077
117.171
114.047
110.813
107.414
103.957
100.545
97.233
94.1874
91.3457
88.8862
86.596
84.681
82.79
81.2234
79.5048
78.0871
76.3539
74.93
73.0578
71.4773
69.3991
67.5998
65.045
37.8189
38.4019
39.5407
41.7881
45.7696
51.7353
59.1841
66.9244
73.7455
78.9995
82.6686
84.9641
85.9894
85.8156
84.7029
83.2641
82.1505
81.7664
82.0856
82.96
84.1882
85.7307
87.492
89.5364
91.7774
94.3438
97.1159
100.3
103.709
107.663
111.86
116.798
121.986
128.211
134.676
142.641
150.817
161.285
172.02
186.532
201.637
223.004
245.196
276.525
306.742
346.291
377.808
416.319
444.097
478.033
504.335
473.75
469.559
355.574
288.679
263.682
269.358
272.8
277.44
266.699
254.95
235.602
219.687
202.181
188.934
175.676
165.622
155.981
148.789
142.185
137.279
132.771
129.269
125.92
123.032
120.062
117.163
114.043
110.81
107.41
103.951
100.536
97.2207
94.1728
91.3306
88.8725
86.5857
84.6756
82.7909
81.2317
79.5212
78.1135
76.3905
74.98
73.1208
71.5584
69.4972
67.7197
65.1777
37.825
38.4166
39.5682
41.836
45.845
51.8374
59.2999
67.0316
73.8216
79.0298
82.6511
84.9096
85.9154
85.7363
84.6227
83.181
82.0637
81.6793
82.0026
82.8834
84.1181
85.6662
87.4319
89.4793
91.7224
94.2897
97.0622
100.246
103.654
107.606
111.801
116.736
121.921
128.142
134.601
142.559
150.727
161.183
171.906
186.402
201.492
222.85
245.04
276.386
306.626
346.214
377.741
416.283
444.067
478.225
504.817
474.797
471.833
358.422
291.437
265.983
270.978
273.846
278.067
267.072
255.156
235.702
219.717
202.173
188.905
175.637
165.577
155.932
148.738
142.135
137.231
132.729
129.233
125.891
123.01
120.048
117.154
114.038
110.808
107.407
103.945
100.526
97.208
94.1579
91.3153
88.8586
86.5751
84.67
82.7916
81.2399
79.5377
78.1399
76.4272
75.0303
73.1843
71.6402
69.5963
67.8411
65.3121
37.8312
38.4315
39.5961
41.8844
45.9209
51.9399
59.4158
67.1389
73.8977
79.06
82.6334
84.8547
85.8408
85.6562
84.5418
83.0973
81.9765
81.5919
81.9192
82.8063
84.0476
85.6013
87.3714
89.4219
91.667
94.2353
97.0081
100.191
103.598
107.549
111.742
116.674
121.856
128.071
134.526
142.476
150.636
161.081
171.79
186.271
201.347
222.695
244.883
276.245
306.509
346.135
377.672
416.245
444.035
478.415
505.3
475.851
474.133
361.316
294.25
268.337
272.635
274.916
278.706
267.451
255.364
235.801
219.747
202.163
188.874
175.598
165.532
155.883
148.685
142.083
137.183
132.686
129.196
125.861
122.988
120.034
117.146
114.034
110.805
107.403
103.939
100.517
97.1952
94.1428
91.2997
88.8444
86.5643
84.6643
82.7922
81.2481
79.5542
78.1665
76.4641
75.081
73.2482
71.7227
69.6965
67.9638
65.4482
37.8375
38.4465
39.6243
41.9332
45.9973
52.0428
59.532
67.2462
73.9737
79.0902
82.6155
84.7993
85.7654
85.5753
84.4602
83.0131
81.8889
81.504
81.8354
82.7289
83.9768
85.5361
87.3105
89.3641
91.6113
94.1806
96.9537
100.136
103.542
107.491
111.682
116.611
121.79
128.001
134.45
142.393
150.544
160.978
171.673
186.139
201.2
222.538
244.725
276.104
306.392
346.055
377.602
416.206
444
478.603
505.782
476.912
476.46
364.259
297.12
270.744
274.334
276.012
279.359
267.837
255.575
235.902
219.776
202.152
188.843
175.557
165.485
155.832
148.633
142.031
137.134
132.642
129.159
125.832
122.966
120.019
117.137
114.029
110.801
107.399
103.933
100.507
97.1822
94.1274
91.2838
88.8299
86.5533
84.6584
82.7927
81.2563
79.5706
78.1932
76.5012
75.132
73.3127
71.806
69.7976
68.088
65.586
37.8438
38.4618
39.6528
41.9824
46.0742
52.1461
59.6484
67.3535
74.0497
79.1203
82.5975
84.7434
85.6893
85.4936
84.3779
82.9284
81.8009
81.4157
81.7512
82.651
83.9056
85.4704
87.2493
89.3059
91.5552
94.1254
96.8988
100.081
103.486
107.433
111.622
116.548
121.723
127.93
134.373
142.309
150.452
160.874
171.556
186.006
201.052
222.381
244.566
275.96
306.272
345.974
377.531
416.166
443.963
478.789
506.263
477.979
478.813
367.252
300.048
273.206
276.074
277.134
280.026
268.231
255.788
236.002
219.804
202.14
188.81
175.515
165.437
155.78
148.579
141.978
137.085
132.598
129.121
125.801
122.944
120.004
117.128
114.024
110.798
107.396
103.926
100.497
97.1689
94.1118
91.2677
88.8152
86.5421
84.6523
82.793
81.2644
79.5872
78.22
76.5385
75.1833
73.3777
71.89
69.8997
68.2136
65.7255
37.8503
38.4773
39.6817
42.032
46.1515
52.2498
59.765
67.4609
74.1256
79.1503
82.5792
84.6871
85.6125
85.411
84.2949
82.8432
81.7124
81.327
81.6666
82.5728
83.834
85.4045
87.1877
89.2474
91.4987
94.07
96.8436
100.025
103.429
107.375
111.562
116.485
121.656
127.858
134.296
142.225
150.359
160.769
171.438
185.873
200.903
222.222
244.405
275.816
306.152
345.892
377.459
416.123
443.923
478.974
506.744
479.054
481.193
370.296
303.036
275.725
277.858
278.285
280.708
268.632
256.005
236.104
219.832
202.127
188.776
175.472
165.389
155.728
148.524
141.925
137.034
132.553
129.083
125.771
122.921
119.988
117.118
114.019
110.795
107.392
103.92
100.487
97.1554
94.096
91.2513
88.8003
86.5307
84.646
82.7933
81.2724
79.6037
78.2469
76.5761
75.235
73.4431
71.9748
70.0029
68.3406
65.8668
37.8568
38.493
39.7109
42.0822
46.2294
52.3539
59.8817
67.5682
74.2015
79.1802
82.5608
84.6304
85.5349
85.3276
84.2113
82.7575
81.6236
81.238
81.5816
82.4943
83.762
85.3382
87.1258
89.1886
91.4419
94.0141
96.7881
99.9689
103.372
107.316
111.501
116.421
121.589
127.786
134.219
142.14
150.265
160.664
171.319
185.738
200.753
222.062
244.243
275.671
306.031
345.81
377.385
416.08
443.881
479.157
507.224
480.137
483.601
373.393
306.085
278.303
279.687
279.466
281.407
269.043
256.225
236.206
219.859
202.112
188.742
175.428
165.339
155.675
148.469
141.87
136.984
132.508
129.044
125.74
122.898
119.973
117.109
114.014
110.791
107.388
103.913
100.477
97.1418
94.0799
91.2347
88.7852
86.5191
84.6396
82.7934
81.2804
79.6203
78.2739
76.6138
75.287
73.5091
72.0603
70.1071
68.4692
66.0099
37.8634
38.5088
39.7404
42.1327
46.3077
52.4584
59.9986
67.6755
74.2772
79.21
82.5421
84.5732
85.4565
85.2433
84.1269
82.6713
81.5343
81.1485
81.4963
82.4153
83.6897
85.2715
87.0636
89.1294
91.3848
93.9579
96.7322
99.9124
103.315
107.256
111.439
116.356
121.521
127.714
134.141
142.055
150.171
160.558
171.2
185.603
200.602
221.9
244.08
275.524
305.908
345.726
377.311
416.035
443.836
479.339
507.704
481.226
486.038
376.544
309.198
280.941
281.563
280.678
282.122
269.462
256.449
236.309
219.886
202.097
188.706
175.383
165.289
155.621
148.413
141.815
136.932
132.462
129.005
125.708
122.874
119.957
117.099
114.008
110.788
107.384
103.907
100.467
97.128
94.0636
91.2179
88.7698
86.5073
84.633
82.7935
81.2883
79.6369
78.301
76.6517
75.3394
73.5756
72.1467
70.2124
68.5992
66.1549
37.8702
38.5249
39.7702
42.1837
46.3865
52.5632
60.1157
67.7827
74.3529
79.2397
82.5233
84.5154
85.3774
85.1582
84.0417
82.5845
81.4446
81.0587
81.4105
82.336
83.6171
85.2045
87.001
89.0699
91.3273
93.9014
96.6759
99.8556
103.257
107.197
111.377
116.291
121.453
127.641
134.062
141.969
150.076
160.452
171.079
185.467
200.451
221.738
243.916
275.376
305.785
345.641
377.235
415.989
443.79
479.519
508.183
482.324
488.504
379.751
312.376
283.641
283.488
281.923
282.856
269.891
256.678
236.414
219.912
202.081
188.669
175.337
165.237
155.566
148.356
141.76
136.88
132.416
128.966
125.677
122.851
119.941
117.09
114.003
110.785
107.379
103.9
100.456
97.114
94.0471
91.2009
88.7542
86.4953
84.6263
82.7934
81.2963
79.6535
78.3283
76.6899
75.3922
73.6426
72.2338
70.3187
68.7307
66.3017
37.877
38.5413
39.8004
42.2352
46.4658
52.6684
60.2329
67.8899
74.4284
79.2693
82.5042
84.4573
85.2975
85.0722
83.9559
82.4972
81.3545
80.9685
81.3245
82.2563
83.5441
85.1372
86.9381
89.01
91.2695
93.8445
96.6193
99.7983
103.199
107.137
111.315
116.226
121.385
127.567
133.983
141.882
149.981
160.345
170.958
185.329
200.298
221.575
243.751
275.228
305.66
345.555
377.159
415.941
443.74
479.697
508.662
483.429
490.999
383.016
315.621
286.405
285.463
283.201
283.609
270.33
256.911
236.52
219.938
202.064
188.631
175.29
165.185
155.51
148.298
141.704
136.827
132.369
128.926
125.645
122.827
119.925
117.08
113.998
110.781
107.375
103.893
100.446
97.0999
94.0305
91.1836
88.7384
86.4831
84.6194
82.7933
81.3042
79.6702
78.3556
76.7283
75.4453
73.7102
72.3217
70.4261
68.8638
66.4505
37.8839
38.5578
39.831
42.2871
46.5456
52.7739
60.3502
67.997
74.5038
79.2987
82.4849
84.3986
85.2168
84.9853
83.8692
82.4094
81.264
80.878
81.238
82.1763
83.4708
85.0695
86.8748
88.9499
91.2113
93.7873
96.5623
99.7408
103.14
107.076
111.253
116.161
121.315
127.493
133.904
141.795
149.885
160.237
170.837
185.192
200.144
221.41
243.584
275.078
305.534
345.469
377.081
415.892
443.689
479.874
509.14
484.542
493.525
386.34
318.934
289.234
287.491
284.516
284.382
270.78
257.149
236.628
219.964
202.046
188.592
175.243
165.132
155.454
148.24
141.647
136.774
132.322
128.885
125.612
122.802
119.908
117.07
113.992
110.777
107.371
103.886
100.435
97.0855
94.0136
91.1661
88.7224
86.4707
84.6124
82.793
81.312
79.6869
78.3832
76.767
75.4988
73.7782
72.4105
70.5346
68.9985
66.6011
37.8909
38.5745
39.8619
42.3395
46.6259
52.8798
60.4676
68.1041
74.579
79.328
82.4653
84.3394
85.1353
84.8975
83.7818
82.321
81.1731
80.787
81.1512
82.096
83.3971
85.0015
86.8113
88.8894
91.1528
93.7297
96.505
99.6828
103.081
107.015
111.19
116.095
121.246
127.419
133.824
141.708
149.788
160.129
170.714
185.053
199.989
221.245
243.416
274.927
305.408
345.382
377.003
415.842
443.635
480.049
509.618
485.663
496.082
389.725
322.318
292.13
289.573
285.867
285.176
271.242
257.392
236.737
219.99
202.028
188.552
175.194
165.079
155.397
148.181
141.589
136.72
132.274
128.845
125.58
122.778
119.892
117.06
113.987
110.774
107.367
103.879
100.424
97.0711
93.9966
91.1484
88.7062
86.4582
84.6052
82.7927
81.3199
79.7037
78.4108
76.8058
75.5527
73.8468
72.5
70.6442
69.1347
66.7538
37.8981
38.5915
39.8931
42.3924
46.7066
52.986
60.5851
68.211
74.654
79.3571
82.4455
84.2798
85.053
84.8087
83.6937
82.2321
81.0819
80.6958
81.064
82.0152
83.3231
84.9332
86.7474
88.8285
91.094
93.6719
96.4474
99.6245
103.022
106.954
111.126
116.028
121.176
127.344
133.744
141.62
149.691
160.02
170.591
184.913
199.833
221.078
243.247
274.774
305.28
345.293
376.923
415.79
443.58
480.223
510.096
486.792
498.671
393.172
325.774
295.094
291.71
287.258
285.993
271.717
257.641
236.849
220.016
202.009
188.511
175.145
165.025
155.34
148.122
141.531
136.666
132.226
128.804
125.547
122.753
119.875
117.05
113.981
110.77
107.363
103.872
100.413
97.0565
93.9793
91.1306
88.6898
86.4455
84.598
82.7924
81.3277
79.7205
78.4386
76.8449
75.607
73.916
72.5904
70.7549
69.2725
66.9084
37.9053
38.6087
39.9247
42.4457
46.7878
53.0925
60.7027
68.3178
74.7288
79.386
82.4254
84.2196
84.9699
84.7191
83.6047
82.1427
80.9902
80.6041
80.9765
81.9342
83.2488
84.8645
86.6832
88.7674
91.0349
93.6136
96.3894
99.5659
102.962
106.893
111.063
115.961
121.106
127.269
133.663
141.531
149.594
159.911
170.467
184.773
199.677
220.91
243.078
274.621
305.152
345.204
376.843
415.738
443.521
480.395
510.573
487.93
501.292
396.684
329.304
298.128
293.905
288.689
286.834
272.205
257.896
236.963
220.042
201.989
188.47
175.095
164.97
155.281
148.062
141.473
136.611
132.177
128.762
125.514
122.728
119.858
117.04
113.976
110.767
107.358
103.865
100.402
97.0418
93.9619
91.1125
88.6732
86.4326
84.5906
82.7919
81.3355
79.7374
78.4665
76.8843
75.6616
73.9856
72.6815
70.8666
69.4119
67.065
37.9126
38.6262
39.9567
42.4995
46.8695
53.1994
60.8204
68.4245
74.8034
79.4147
82.4051
84.1589
84.8859
84.6284
83.5149
82.0526
80.8981
80.5121
80.8887
81.8528
83.1741
84.7956
86.6187
88.7059
90.9755
93.5551
96.331
99.5069
102.902
106.831
110.999
115.894
121.035
127.193
133.582
141.442
149.496
159.801
170.343
184.632
199.519
220.741
242.907
274.467
305.022
345.115
376.762
415.684
443.461
480.565
511.049
489.076
503.946
400.262
332.909
301.233
296.159
290.162
287.699
272.707
258.158
237.079
220.069
201.969
188.428
175.045
164.914
155.223
148.002
141.414
136.556
132.128
128.721
125.48
122.703
119.841
117.03
113.97
110.763
107.354
103.858
100.391
97.027
93.9444
91.0943
88.6564
86.4196
84.5831
82.7914
81.3434
79.7544
78.4946
76.9238
75.7166
74.0558
72.7735
70.9795
69.5529
67.2236
37.9201
38.6438
39.989
42.5538
46.9517
53.3066
60.9382
68.531
74.8778
79.4433
82.3845
84.0977
84.8012
84.5368
83.4244
81.9621
80.8056
80.4198
80.8005
81.7711
83.0991
84.7263
86.5538
88.6442
90.9157
93.4962
96.2724
99.4476
102.842
106.768
110.934
115.826
120.964
127.117
133.5
141.353
149.397
159.69
170.218
184.49
199.361
220.572
242.734
274.312
304.892
345.024
376.68
415.629
443.399
480.734
511.526
490.231
506.634
403.907
336.592
304.411
298.473
291.679
288.591
273.224
258.427
237.199
220.096
201.948
188.385
174.994
164.858
155.164
147.941
141.354
136.501
132.079
128.679
125.447
122.678
119.824
117.019
113.965
110.76
107.35
103.851
100.38
97.012
93.9267
91.0759
88.6395
86.4064
84.5755
82.7908
81.3512
79.7714
78.5228
76.9637
75.772
74.1266
72.8663
71.0936
69.6956
67.3843
37.9276
38.6617
40.0217
42.6085
47.0344
53.4142
61.056
68.6374
74.952
79.4715
82.3637
84.036
84.7156
84.4443
83.3329
81.8709
80.7127
80.3272
80.712
81.6891
83.0238
84.6567
86.4887
88.5821
90.8556
93.437
96.2134
99.388
102.781
106.706
110.869
115.758
120.892
127.041
133.418
141.263
149.298
159.579
170.092
184.347
199.201
220.401
242.561
274.156
304.76
344.933
376.598
415.574
443.335
480.902
512.001
491.395
509.357
407.623
340.353
307.663
300.85
293.242
289.51
273.757
258.704
237.321
220.123
201.927
188.342
174.942
164.801
155.104
147.879
141.294
136.445
132.029
128.636
125.413
122.653
119.807
117.009
113.959
110.756
107.346
103.844
100.369
96.997
93.9088
91.0573
88.6224
86.3931
84.5677
82.7902
81.359
79.7885
78.5511
77.0037
75.8278
74.1979
72.96
71.2087
69.8399
67.5471
37.9353
38.6799
40.0548
42.6637
47.1175
53.522
61.1738
68.7436
75.0259
79.4996
82.3425
83.9737
84.6291
84.3507
83.2407
81.7792
80.6195
80.2342
80.6232
81.6067
82.9482
84.5868
86.4233
88.5197
90.7952
93.3775
96.1541
99.328
102.72
106.643
110.804
115.69
120.82
126.964
133.335
141.173
149.199
159.467
169.966
184.204
199.041
220.229
242.387
273.998
304.628
344.841
376.514
415.517
443.269
481.068
512.477
492.569
512.115
411.41
344.195
310.991
303.291
294.852
290.459
274.307
258.989
237.447
220.152
201.906
188.298
174.889
164.744
155.044
147.817
141.234
136.388
131.979
128.594
125.379
122.627
119.79
116.999
113.954
110.753
107.342
103.837
100.358
96.9818
93.8908
91.0386
88.6051
86.3796
84.5599
82.7895
81.3668
79.8056
78.5796
77.044
75.884
74.2697
73.0545
71.3249
69.9859
67.712
37.943
38.6983
40.0883
42.7194
47.2011
53.6302
61.2917
68.8495
75.0995
79.5274
82.3211
83.911
84.5418
84.2561
83.1476
81.6869
80.5258
80.1409
80.534
81.524
82.8723
84.5166
86.3575
88.457
90.7345
93.3177
96.0945
99.2676
102.658
106.579
110.739
115.621
120.748
126.887
133.252
141.082
149.099
159.355
169.839
184.06
198.88
220.057
242.212
273.84
304.495
344.749
376.431
415.459
443.2
481.233
512.952
493.752
514.91
415.27
348.119
314.395
305.797
296.511
291.437
274.875
259.283
237.577
220.181
201.885
188.254
174.837
164.687
154.983
147.755
141.173
136.332
131.929
128.551
125.344
122.602
119.773
116.988
113.948
110.749
107.337
103.83
100.347
96.9666
93.8727
91.0197
88.5877
86.366
84.552
82.7888
81.3746
79.8228
78.6082
77.0846
75.9405
74.3421
73.1498
71.4423
70.1335
67.8791
37.9509
38.7169
40.1222
42.7756
47.2852
53.7386
61.4096
68.9553
75.1729
79.5549
82.2993
83.8476
84.4536
84.1605
83.0536
81.594
80.4318
80.0472
80.4445
81.4411
82.7961
84.4461
86.2915
88.394
90.6735
93.2576
96.0345
99.207
102.597
106.516
110.673
115.552
120.675
126.809
133.169
140.991
148.998
159.242
169.711
183.915
198.718
219.883
242.036
273.681
304.361
344.656
376.346
415.4
443.13
481.397
513.427
494.944
517.742
419.206
352.127
317.876
308.37
298.22
292.448
275.461
259.586
237.711
220.212
201.864
188.21
174.784
164.629
154.922
147.693
141.112
136.275
131.879
128.508
125.31
122.576
119.756
116.978
113.943
110.746
107.333
103.823
100.336
96.9513
93.8545
91.0006
88.5701
86.3523
84.5439
82.788
81.3824
79.8401
78.637
77.1253
75.9975
74.4151
73.2459
71.5608
70.2828
68.0483
37.9589
38.7358
40.1564
42.8323
47.3698
53.8474
61.5276
69.0609
75.2459
79.5821
82.2772
83.7838
84.3646
84.0639
82.9587
81.5005
80.3373
79.9533
80.3548
81.3578
82.7196
84.3754
86.2252
88.3308
90.6122
93.1971
95.9743
99.146
102.535
106.452
110.606
115.483
120.602
126.731
133.085
140.899
148.898
159.129
169.583
183.77
198.555
219.708
241.859
273.521
304.226
344.562
376.261
415.341
443.058
481.559
513.902
496.147
520.612
423.219
356.219
321.437
311.011
299.982
293.491
276.067
259.899
237.849
220.244
201.843
188.165
174.73
164.571
154.861
147.63
141.051
136.218
131.828
128.465
125.275
122.55
119.738
116.968
113.937
110.742
107.329
103.816
100.324
96.9359
93.8361
90.9815
88.5524
86.3384
84.5358
82.7871
81.3902
79.8575
78.6659
77.1664
76.0548
74.4885
73.3428
71.6805
70.4338
68.2197
37.967
38.7549
40.191
42.8895
47.4549
53.9565
61.6455
69.1662
75.3186
79.6091
82.2547
83.7193
84.2746
83.9663
82.8629
81.4064
80.2425
79.859
80.2647
81.2742
82.6428
84.3043
86.1585
88.2672
90.5506
93.1364
95.9137
99.0847
102.472
106.387
110.54
115.413
120.529
126.652
133.001
140.807
148.796
159.015
169.454
183.623
198.392
219.533
241.68
273.36
304.09
344.467
376.175
415.281
442.984
481.72
514.377
497.36
523.521
427.31
360.399
325.077
313.721
301.797
294.569
276.693
260.223
237.992
220.277
201.822
188.12
174.676
164.512
154.8
147.567
140.989
136.16
131.777
128.422
125.241
122.524
119.721
116.958
113.932
110.739
107.325
103.809
100.313
96.9205
93.8177
90.9621
88.5345
86.3245
84.5276
82.7862
81.398
79.8749
78.695
77.2076
76.1124
74.5625
73.4406
71.8012
70.5866
68.3933
37.9752
38.7744
40.2261
42.9472
47.5404
54.0658
61.7634
69.2713
75.391
79.6357
82.232
83.6543
84.1838
83.8675
82.7662
81.3117
80.1473
79.7644
80.1743
81.1903
82.5657
84.2329
86.0916
88.2033
90.4888
93.0754
95.8528
99.0231
102.409
106.323
110.473
115.343
120.455
126.574
132.916
140.715
148.694
158.901
169.325
183.476
198.227
219.356
241.501
273.198
303.953
344.372
376.089
415.219
442.909
481.879
514.851
498.583
526.47
431.483
364.666
328.798
316.502
303.667
295.683
277.342
260.558
238.14
220.312
201.801
188.074
174.622
164.453
154.738
147.503
140.928
136.103
131.726
128.378
125.206
122.498
119.704
116.947
113.927
110.736
107.321
103.802
100.302
96.9049
93.7991
90.9427
88.5165
86.3103
84.5192
82.7853
81.4058
79.8924
78.7242
77.2491
76.1705
74.637
73.5392
71.9231
70.741
68.5691
37.9836
38.794
40.2615
43.0054
47.6265
54.1755
61.8813
69.3761
75.463
79.662
82.2088
83.5888
84.0921
83.7677
82.6686
81.2164
80.0517
79.6695
80.0837
81.1061
82.4883
84.1613
86.0244
88.1391
90.4266
93.014
95.7916
98.9611
102.346
106.258
110.406
115.272
120.381
126.494
132.831
140.622
148.592
158.786
169.195
183.329
198.062
219.179
241.321
273.034
303.816
344.277
376.002
415.157
442.831
482.037
515.325
499.817
529.46
435.738
369.022
332.599
319.355
305.595
296.835
278.014
260.905
238.294
220.35
201.781
188.029
174.568
164.395
154.677
147.44
140.866
136.045
131.675
128.334
125.171
122.472
119.686
116.937
113.922
110.733
107.318
103.795
100.29
96.8894
93.7804
90.9231
88.4984
86.2961
84.5108
82.7843
81.4137
79.9099
78.7536
77.2908
76.2289
74.7121
73.6386
72.0461
70.8971
68.7471
37.9921
38.814
40.2974
43.0641
47.713
54.2854
61.9992
69.4806
75.5346
79.6879
82.1853
83.5226
83.9995
83.6669
82.57
81.1204
79.9557
79.5743
79.9927
81.0217
82.4106
84.0893
85.957
88.0747
90.3641
92.9523
95.7301
98.8989
102.283
106.192
110.338
115.201
120.306
126.415
132.746
140.528
148.489
158.671
169.065
183.181
197.896
219.001
241.14
272.87
303.677
344.18
375.914
415.095
442.752
482.194
515.799
501.062
532.492
440.078
373.468
336.483
322.28
307.581
298.025
278.709
261.264
238.454
220.389
201.761
187.984
174.514
164.336
154.615
147.376
140.804
135.987
131.623
128.291
125.136
122.446
119.669
116.927
113.916
110.73
107.314
103.788
100.279
96.8737
93.7617
90.9034
88.4801
86.2818
84.5023
82.7833
81.4215
79.9275
78.783
77.3328
76.2877
74.7876
73.7389
72.1702
71.0549
68.9274
38.0007
38.8342
40.3337
43.1233
47.8
54.3956
62.1171
69.5848
75.6058
79.7135
82.1614
83.4559
83.9059
83.5649
82.4705
81.0238
79.8593
79.4788
79.9015
80.9369
82.3327
84.0171
85.8892
88.01
90.3013
92.8904
95.6683
98.8363
102.219
106.126
110.27
115.13
120.232
126.335
132.66
140.434
148.386
158.555
168.934
183.032
197.729
218.821
240.957
272.705
303.538
344.083
375.826
415.031
442.672
482.35
516.274
502.318
535.566
444.504
378.006
340.449
325.279
309.626
299.257
279.43
261.638
238.62
220.431
201.743
187.939
174.46
164.277
154.553
147.313
140.742
135.929
131.572
128.247
125.101
122.42
119.651
116.917
113.911
110.727
107.31
103.781
100.268
96.8581
93.7428
90.8836
88.4618
86.2673
84.4937
82.7822
81.4293
79.9452
78.8126
77.3749
76.3468
74.8637
73.8399
72.2954
71.2145
69.11
38.0094
38.8547
40.3704
43.1831
47.8875
54.5061
62.2349
69.6888
75.6767
79.7387
82.1371
83.3885
83.8114
83.4618
82.3699
80.9265
79.7625
79.3831
79.81
80.8519
82.2545
83.9446
85.8212
87.945
90.2382
92.8281
95.6061
98.7734
102.155
106.06
110.202
115.058
120.156
126.254
132.574
140.34
148.282
158.439
168.802
182.882
197.561
218.641
240.774
272.539
303.398
343.986
375.738
414.967
442.589
482.505
516.748
503.586
538.685
449.018
382.636
344.497
328.351
311.733
300.53
280.178
262.025
238.793
220.475
201.725
187.894
174.406
164.218
154.491
147.249
140.68
135.87
131.52
128.203
125.066
122.394
119.634
116.907
113.906
110.724
107.307
103.775
100.257
96.8424
93.7239
90.8637
88.4432
86.2528
84.4851
82.7811
81.4371
79.963
78.8424
77.4173
76.4063
74.9403
73.9417
72.4217
71.3757
69.2948
38.0182
38.8754
40.4075
43.2433
47.9755
54.6169
62.3527
69.7924
75.7471
79.7635
82.1124
83.3206
83.716
83.3575
82.2684
80.8286
79.6654
79.287
79.7182
80.7666
82.176
83.8719
85.7529
87.8797
90.1749
92.7656
95.5437
98.7102
102.091
105.994
110.133
114.986
120.081
126.174
132.487
140.246
148.178
158.322
168.67
182.732
197.393
218.46
240.59
272.372
303.257
343.888
375.649
414.903
442.505
482.658
517.222
504.866
541.848
453.622
387.359
348.629
331.499
313.902
301.847
280.954
262.427
238.974
220.522
201.708
187.849
174.352
164.159
154.43
147.185
140.617
135.812
131.469
128.159
125.031
122.368
119.616
116.897
113.901
110.721
107.303
103.768
100.245
96.8267
93.7049
90.8437
88.4246
86.2381
84.4763
82.7799
81.445
79.9808
78.8722
77.4599
76.4661
75.0173
74.0443
72.549
71.5387
69.4819
38.0272
38.8965
40.4451
43.3042
48.0641
54.728
62.4705
69.8957
75.8171
79.7879
82.0873
83.252
83.6197
83.2521
82.1659
80.73
79.5678
79.1907
79.6262
80.6811
82.0972
83.7988
85.6843
87.8141
90.1112
92.7027
95.481
98.6467
102.026
105.927
110.064
114.914
120.005
126.092
132.4
140.151
148.074
158.205
168.537
182.581
197.223
218.278
240.405
272.204
303.115
343.789
375.56
414.837
442.42
482.811
517.696
506.157
545.057
458.318
392.177
352.843
334.721
316.134
303.209
281.758
262.845
239.163
220.573
201.693
187.805
174.298
164.1
154.368
147.122
140.555
135.754
131.417
128.115
124.995
122.341
119.599
116.887
113.897
110.719
107.3
103.761
100.234
96.8109
93.6858
90.8236
88.4059
86.2234
84.4675
82.7787
81.4528
79.9986
78.9022
77.5027
76.5263
75.0949
74.1477
72.6775
71.7034
69.6713
38.0363
38.9178
40.4831
43.3655
48.1531
54.8393
62.5882
69.9986
75.8866
79.8119
82.0618
83.1829
83.5224
83.1456
82.0623
80.6308
79.4699
79.0941
79.5339
80.5953
82.0182
83.7255
85.6154
87.7482
90.0473
92.6396
95.4179
98.5828
101.961
105.86
109.994
114.841
119.928
126.011
132.313
140.055
147.969
158.087
168.404
182.429
197.053
218.095
240.219
272.035
302.972
343.69
375.47
414.772
442.333
482.962
518.17
507.461
548.313
463.107
397.089
357.14
338.018
318.43
304.617
282.594
263.28
239.36
220.627
201.679
187.761
174.245
164.042
154.307
147.058
140.493
135.696
131.365
128.071
124.96
122.315
119.582
116.877
113.892
110.716
107.297
103.755
100.223
96.7952
93.6667
90.8034
88.387
86.2085
84.4586
82.7775
81.4606
80.0165
78.9323
77.5457
76.5867
75.1729
74.2518
72.807
71.8698
69.8631
38.0456
38.9395
40.5216
43.4274
48.2426
54.951
62.7058
70.1012
75.9556
79.8354
82.0358
83.1131
83.4241
83.0379
81.9577
80.5308
79.3715
78.9972
79.4413
80.5092
81.9388
83.652
85.5463
87.6821
89.9831
92.5762
95.3546
98.5187
101.896