/*--------------------------------*- C++ -*----------------------------------*\
| =========                 |                                                 |
| \\      /  F ield         | OpenFOAM: The Open Source CFD Toolbox           |
|  \\    /   O peration     | Version:  2412                                  |
|   \\  /    A nd           | Website:  www.openfoam.com                      |
|    \\/     M anipulation  |                                                 |
\*---------------------------------------------------------------------------*/
FoamFile
{
    version     2.0;
    format      ascii;
    arch        "LSB;label=32;scalar=64";
    class       volScalarField;
    location    "0.8";
    object      nut;
}
// * * * * * * * * * * * * * * * * * * * * * * * * * * * * * * * * * * * * * //

dimensions      [0 2 -1 0 0 0 0];

internalField   nonuniform List<scalar> 
12960
(
0.33731
0.341746
0.350871
0.367328
0.390518
0.414004
0.429693
0.433821
0.427507
0.41438
0.398349
0.382326
0.368105
0.357042
0.350466
0.349479
0.353866
0.361776
0.3705
0.378224
0.384258
0.388936
0.392594
0.395804
0.398657
0.401559
0.404325
0.407357
0.410264
0.413585
0.4167
0.420398
0.423755
0.427946
0.431599
0.436465
0.440535
0.446428
0.451265
0.458778
0.46469
0.473728
0.479734
0.488476
0.491835
0.497015
0.495334
0.498267
0.498376
0.502888
0.502476
0.471264
0.45875
0.368611
0.309733
0.302876
0.345695
0.382875
0.407204
0.40663
0.403464
0.393369
0.388679
0.382087
0.380072
0.37655
0.376198
0.375069
0.376249
0.376625
0.377945
0.378199
0.37865
0.378073
0.377223
0.375361
0.37301
0.369942
0.366687
0.363445
0.360635
0.358518
0.357124
0.356575
0.356461
0.356851
0.357045
0.357334
0.356917
0.356494
0.355119
0.353889
0.351545
0.349531
0.34624
0.343342
0.339194
0.335527
0.33017
0.337338
0.341824
0.351028
0.367586
0.390841
0.414284
0.429826
0.433752
0.427225
0.413909
0.397738
0.381636
0.367395
0.356355
0.34983
0.348928
0.353437
0.361491
0.370345
0.37816
0.384243
0.38894
0.392601
0.395806
0.398651
0.401546
0.404305
0.407333
0.410235
0.413552
0.416663
0.420358
0.423711
0.427898
0.431546
0.436408
0.440474
0.446362
0.451196
0.458711
0.464629
0.473681
0.479701
0.488461
0.491825
0.497
0.495294
0.49823
0.498357
0.502998
0.502701
0.471765
0.459679
0.369667
0.310208
0.302294
0.344014
0.38098
0.405721
0.405642
0.402852
0.392997
0.388451
0.381945
0.379981
0.376486
0.376148
0.375028
0.376216
0.376604
0.377936
0.3782
0.37866
0.378091
0.377247
0.375387
0.373033
0.369956
0.36669
0.363434
0.360613
0.35849
0.357097
0.356557
0.356456
0.356862
0.357073
0.357377
0.356974
0.356565
0.355202
0.353989
0.351662
0.349673
0.346406
0.343542
0.339424
0.33579
0.330439
0.337366
0.341903
0.351186
0.367844
0.391162
0.414562
0.429956
0.433681
0.426943
0.413438
0.397126
0.380945
0.366683
0.355664
0.349191
0.348372
0.353003
0.361202
0.370188
0.378095
0.384228
0.388944
0.392607
0.395807
0.398645
0.401533
0.404286
0.407308
0.410206
0.413518
0.416627
0.420318
0.423667
0.42785
0.431494
0.436351
0.440412
0.446296
0.451127
0.458645
0.464569
0.473634
0.479669
0.488446
0.491815
0.496986
0.495254
0.498193
0.498339
0.503109
0.502927
0.472267
0.460606
0.370712
0.310666
0.301692
0.342295
0.379027
0.404182
0.404614
0.402216
0.392611
0.388218
0.381801
0.379889
0.376423
0.376098
0.374986
0.376184
0.376583
0.377927
0.378202
0.378671
0.37811
0.377271
0.375414
0.373056
0.369971
0.366692
0.363424
0.360591
0.358462
0.35707
0.356538
0.356451
0.356873
0.357101
0.357421
0.357031
0.356636
0.355286
0.35409
0.35178
0.349816
0.346574
0.343744
0.339658
0.336057
0.330712
0.337395
0.341983
0.351344
0.368102
0.391483
0.414837
0.430083
0.433608
0.42666
0.412967
0.396513
0.380252
0.365968
0.354969
0.348547
0.347812
0.352565
0.360909
0.370028
0.378029
0.384213
0.388948
0.392614
0.395809
0.39864
0.40152
0.404266
0.407283
0.410177
0.413485
0.41659
0.420277
0.423623
0.427802
0.431442
0.436294
0.44035
0.44623
0.451058
0.458578
0.464508
0.473587
0.479636
0.488431
0.491805
0.496972
0.495213
0.498154
0.498319
0.503219
0.503153
0.472771
0.461531
0.371746
0.311108
0.301071
0.340538
0.377017
0.402586
0.403544
0.401555
0.392213
0.387978
0.381654
0.379796
0.376358
0.376047
0.374943
0.376151
0.376562
0.377918
0.378203
0.378681
0.378129
0.377296
0.375441
0.37308
0.369986
0.366695
0.363413
0.360569
0.358434
0.357043
0.356518
0.356445
0.356885
0.357129
0.357465
0.357089
0.356707
0.355371
0.354191
0.351899
0.34996
0.346743
0.343948
0.339893
0.336327
0.330988
0.337424
0.342063
0.351504
0.368362
0.391803
0.41511
0.430208
0.433533
0.426376
0.412494
0.395899
0.379556
0.365249
0.35427
0.347898
0.347246
0.352122
0.360613
0.369867
0.377961
0.384197
0.388952
0.39262
0.39581
0.398634
0.401506
0.404247
0.407258
0.410147
0.413451
0.416553
0.420236
0.423578
0.427753
0.431389
0.436236
0.440287
0.446163
0.450988
0.45851
0.464446
0.473539
0.479603
0.488415
0.491795
0.496957
0.495171
0.498115
0.498297
0.503329
0.503379
0.473276
0.462454
0.372768
0.311532
0.300432
0.338745
0.374949
0.40093
0.402431
0.400867
0.3918
0.387731
0.381503
0.379702
0.376294
0.375996
0.374901
0.376118
0.376541
0.377908
0.378204
0.378692
0.378148
0.377321
0.375468
0.373103
0.370001
0.366697
0.363402
0.360546
0.358405
0.357015
0.356499
0.35644
0.356896
0.357158
0.357509
0.357148
0.356779
0.355456
0.354293
0.352018
0.350106
0.346914
0.344154
0.340131
0.3366
0.331267
0.337454
0.342144
0.351665
0.368622
0.392122
0.415382
0.43033
0.433455
0.42609
0.41202
0.395283
0.378858
0.364526
0.353566
0.347244
0.346675
0.351674
0.360314
0.369703
0.377893
0.38418
0.388955
0.392626
0.395811
0.398627
0.401493
0.404227
0.407232
0.410117
0.413417
0.416515
0.420195
0.423534
0.427704
0.431335
0.436178
0.440224
0.446095
0.450917
0.458441
0.464383
0.47349
0.479569
0.4884
0.491784
0.496941
0.495129
0.498074
0.498275
0.503438
0.503605
0.473783
0.463373
0.373777
0.31194
0.299777
0.336918
0.372824
0.399215
0.401271
0.40015
0.391371
0.387476
0.38135
0.379606
0.376229
0.375945
0.374858
0.376084
0.37652
0.377899
0.378205
0.378702
0.378167
0.377346
0.375495
0.373127
0.370016
0.3667
0.363391
0.360524
0.358376
0.356987
0.356479
0.356434
0.356907
0.357186
0.357554
0.357207
0.356852
0.355542
0.354396
0.352139
0.350252
0.347086
0.344362
0.340372
0.336876
0.331549
0.337484
0.342226
0.351827
0.368883
0.392441
0.415651
0.43045
0.433376
0.425802
0.411545
0.394665
0.378157
0.3638
0.352858
0.346586
0.3461
0.351222
0.360011
0.369537
0.377824
0.384162
0.388958
0.392632
0.395812
0.398621
0.401478
0.404206
0.407206
0.410087
0.413383
0.416477
0.420153
0.423488
0.427654
0.431281
0.436119
0.44016
0.446027
0.450846
0.458371
0.464319
0.473441
0.479535
0.488383
0.491772
0.496924
0.495085
0.498032
0.498251
0.503547
0.50383
0.47429
0.464289
0.374773
0.312331
0.299106
0.335059
0.370642
0.397437
0.400065
0.399404
0.390927
0.387214
0.381193
0.379509
0.376163
0.375893
0.374815
0.376051
0.376498
0.377889
0.378206
0.378713
0.378186
0.377371
0.375522
0.373151
0.370032
0.366703
0.363379
0.360501
0.358346
0.356958
0.356458
0.356428
0.356918
0.357215
0.357599
0.357266
0.356925
0.355628
0.354499
0.35226
0.3504
0.34726
0.344572
0.340615
0.337155
0.331834
0.337514
0.342309
0.35199
0.369144
0.39276
0.415918
0.430567
0.433294
0.425513
0.411069
0.394046
0.377454
0.363071
0.352146
0.345922
0.345519
0.350766
0.359704
0.36937
0.377753
0.384145
0.388961
0.392638
0.395812
0.398614
0.401464
0.404185
0.40718
0.410056
0.413348
0.416439
0.420111
0.423442
0.427604
0.431226
0.43606
0.440096
0.445958
0.450773
0.458301
0.464255
0.47339
0.479499
0.488366
0.49176
0.496907
0.495041
0.497989
0.498225
0.503655
0.504055
0.474798
0.465201
0.375755
0.312706
0.298422
0.333169
0.368403
0.395596
0.398808
0.398626
0.390465
0.386944
0.381033
0.379411
0.376096
0.375841
0.374771
0.376016
0.376476
0.377879
0.378207
0.378723
0.378205
0.377396
0.375549
0.373175
0.370047
0.366705
0.363368
0.360477
0.358316
0.356929
0.356438
0.356421
0.356929
0.357244
0.357644
0.357325
0.356998
0.355715
0.354603
0.352383
0.350549
0.347435
0.344784
0.340861
0.337437
0.332123
0.337544
0.342392
0.352154
0.369406
0.393077
0.416184
0.430681
0.43321
0.425222
0.410592
0.393426
0.376748
0.362338
0.35143
0.345255
0.344934
0.350305
0.359395
0.3692
0.377682
0.384126
0.388963
0.392643
0.395812
0.398606
0.401449
0.404164
0.407153
0.410025
0.413313
0.4164
0.420068
0.423396
0.427553
0.431171
0.436
0.440031
0.445889
0.4507
0.45823
0.46419
0.47334
0.479464
0.488349
0.491747
0.496889
0.494995
0.497945
0.498198
0.503762
0.50428
0.475308
0.466108
0.376723
0.313065
0.297725
0.33125
0.366108
0.39369
0.397501
0.397815
0.389984
0.386664
0.380868
0.37931
0.376028
0.375788
0.374727
0.375982
0.376453
0.377868
0.378208
0.378733
0.378224
0.377421
0.375576
0.373199
0.370062
0.366707
0.363356
0.360453
0.358285
0.356899
0.356417
0.356415
0.35694
0.357273
0.357689
0.357385
0.357072
0.355802
0.354708
0.352506
0.350699
0.347612
0.344998
0.341109
0.337722
0.332415
0.337575
0.342477
0.352319
0.369669
0.393394
0.416447
0.430793
0.433124
0.424931
0.410114
0.392804
0.376041
0.361602
0.350709
0.344582
0.344344
0.349839
0.359081
0.369028
0.377609
0.384107
0.388965
0.392648
0.395812
0.398599
0.401434
0.404142
0.407126
0.409993
0.413277
0.416361
0.420025
0.423349
0.427502
0.431116
0.435939
0.439965
0.445818
0.450626
0.458158
0.464124
0.473288
0.479427
0.488331
0.491734
0.496871
0.494948
0.497899
0.49817
0.503869
0.504504
0.475817
0.467011
0.377676
0.313409
0.297017
0.329304
0.363758
0.391719
0.39614
0.39697
0.389484
0.386375
0.380699
0.379208
0.37596
0.375735
0.374682
0.375946
0.37643
0.377857
0.378208
0.378743
0.378242
0.377446
0.375604
0.373223
0.370077
0.36671
0.363344
0.360429
0.358254
0.356869
0.356395
0.356408
0.356951
0.357302
0.357735
0.357445
0.357146
0.35589
0.354814
0.35263
0.35085
0.34779
0.345214
0.341359
0.33801
0.33271
0.337607
0.342562
0.352485
0.369933
0.393711
0.416707
0.430902
0.433036
0.424637
0.409635
0.392182
0.375331
0.360862
0.349985
0.343905
0.34375
0.349369
0.358765
0.368854
0.377535
0.384088
0.388967
0.392653
0.395811
0.398591
0.401418
0.40412
0.407098
0.409961
0.413241
0.416321
0.419982
0.423302
0.42745
0.431059
0.435878
0.439899
0.445747
0.450552
0.458086
0.464058
0.473236
0.47939
0.488312
0.49172
0.496852
0.4949
0.497852
0.498139
0.503974
0.504728
0.476328
0.467909
0.378615
0.313738
0.2963
0.327333
0.361355
0.389681
0.394724
0.396087
0.388963
0.386075
0.380524
0.379103
0.37589
0.375681
0.374636
0.37591
0.376406
0.377846
0.378208
0.378753
0.378261
0.37747
0.375631
0.373247
0.370093
0.366712
0.363331
0.360404
0.358223
0.356839
0.356373
0.356401
0.356962
0.357331
0.35778
0.357506
0.35722
0.355979
0.35492
0.352755
0.351002
0.34797
0.345432
0.341612
0.338301
0.333009
0.337639
0.342648
0.352653
0.370198
0.394026
0.416966
0.431009
0.432946
0.424343
0.409155
0.391558
0.37462
0.36012
0.349257
0.343224
0.34315
0.348895
0.358445
0.368677
0.37746
0.384068
0.388968
0.392657
0.395811
0.398582
0.401402
0.404098
0.40707
0.409929
0.413204
0.416281
0.419938
0.423254
0.427398
0.431003
0.435816
0.439832
0.445676
0.450477
0.458012
0.46399
0.473183
0.479353
0.488293
0.491706
0.496831
0.494851
0.497804
0.498108
0.504079
0.504952
0.476839
0.468801
0.379537
0.314052
0.295575
0.325341
0.358899
0.387576
0.39325
0.395166
0.38842
0.385763
0.380345
0.378996
0.375819
0.375626
0.37459
0.375873
0.376382
0.377834
0.378208
0.378763
0.378279
0.377495
0.375658
0.373271
0.370108
0.366714
0.363319
0.360379
0.358191
0.356808
0.356351
0.356394
0.356972
0.35736
0.357826
0.357566
0.357295
0.356068
0.355026
0.352881
0.351156
0.348151
0.345652
0.341868
0.338596
0.333311
0.337671
0.342735
0.352821
0.370463
0.394341
0.417222
0.431113
0.432854
0.424047
0.408675
0.390934
0.373907
0.359375
0.348525
0.342539
0.342546
0.348417
0.358121
0.368499
0.377384
0.384047
0.388969
0.392661
0.39581
0.398574
0.401386
0.404075
0.407042
0.409896
0.413167
0.41624
0.419893
0.423206
0.427346
0.430946
0.435754
0.439765
0.445604
0.450401
0.457938
0.463922
0.473129
0.479315
0.488273
0.491691
0.496811
0.494801
0.497754
0.498075
0.504184
0.505174
0.47735
0.469687
0.380444
0.314353
0.294844
0.323329
0.356392
0.385402
0.391718
0.394205
0.387853
0.38544
0.38016
0.378887
0.375747
0.375569
0.374542
0.375836
0.376357
0.377821
0.378207
0.378771
0.378297
0.37752
0.375685
0.373294
0.370123
0.366716
0.363306
0.360353
0.358158
0.356776
0.356328
0.356386
0.356983
0.357389
0.357873
0.357628
0.357371
0.356157
0.355134
0.353008
0.35131
0.348334
0.345874
0.342126
0.338893
0.333616
0.337703
0.342823
0.352991
0.370728
0.394655
0.417476
0.431215
0.432759
0.42375
0.408194
0.390309
0.373192
0.358628
0.347789
0.341849
0.341938
0.347934
0.357794
0.368318
0.377307
0.384026
0.38897
0.392665
0.395808
0.398565
0.401369
0.404052
0.407013
0.409863
0.41313
0.4162
0.419849
0.423157
0.427292
0.430888
0.435691
0.439696
0.445531
0.450324
0.457863
0.463853
0.473075
0.479276
0.488253
0.491675
0.496789
0.494749
0.497702
0.49804
0.504287
0.505396
0.477862
0.470567
0.381335
0.314641
0.29411
0.321301
0.353836
0.383161
0.390125
0.393202
0.387261
0.385104
0.379968
0.378774
0.375672
0.375512
0.374494
0.375797
0.37633
0.377808
0.378205
0.37878
0.378314
0.377544
0.375712
0.373318
0.370138
0.366717
0.363292
0.360327
0.358125
0.356744
0.356305
0.356378
0.356993
0.357418
0.357919
0.357689
0.357447
0.356247
0.355242
0.353135
0.351466
0.348518
0.346098
0.342387
0.339194
0.333924
0.337736
0.342911
0.353162
0.370994
0.394968
0.417728
0.431313
0.432663
0.423453
0.407712
0.389683
0.372476
0.357877
0.34705
0.341155
0.341325
0.347446
0.357464
0.368136
0.377229
0.384004
0.38897
0.392668
0.395806
0.398555
0.401352
0.404028
0.406984
0.409829
0.413092
0.416158
0.419803
0.423108
0.427239
0.43083
0.435628
0.439628
0.445457
0.450247
0.457787
0.463783
0.47302
0.479236
0.488233
0.491659
0.496767
0.494697
0.497649
0.498003
0.50439
0.505618
0.478374
0.471439
0.382209
0.314917
0.293373
0.319259
0.351234
0.38085
0.38847
0.392154
0.386644
0.384754
0.37977
0.378658
0.375596
0.375453
0.374444
0.375757
0.376303
0.377794
0.378202
0.378788
0.378331
0.377567
0.375738
0.373342
0.370152
0.366718
0.363278
0.360301
0.358091
0.356711
0.356281
0.35637
0.357004
0.357448
0.357965
0.357751
0.357523
0.356338
0.35535
0.353264
0.351623
0.348703
0.346324
0.34265
0.339498
0.334236
0.33777
0.343001
0.353333
0.371261
0.39528
0.417978
0.43141
0.432565
0.423154
0.407231
0.389056
0.371758
0.357124
0.346308
0.340457
0.340707
0.346955
0.35713
0.367951
0.377149
0.383982
0.38897
0.392671
0.395804
0.398546
0.401335
0.404005
0.406954
0.409795
0.413054
0.416116
0.419758
0.423059
0.427185
0.430771
0.435564
0.439559
0.445383
0.450168
0.457711
0.463713
0.472964
0.479196
0.488211
0.491642
0.496743
0.494643
0.497595
0.497965
0.504491
0.505839
0.478887
0.472305
0.383066
0.315182
0.292637
0.317206
0.348587
0.378471
0.38675
0.391061
0.385998
0.384389
0.379565
0.378538
0.375517
0.375392
0.374392
0.375715
0.376275
0.377778
0.378199
0.378795
0.378348
0.377591
0.375765
0.373365
0.370167
0.366719
0.363264
0.360273
0.358057
0.356677
0.356256
0.356361
0.357014
0.357477
0.358012
0.357812
0.357599
0.356428
0.35546
0.353393
0.351781
0.34889
0.346553
0.342915
0.339804
0.334551
0.337804
0.343091
0.353506
0.371528
0.395591
0.418225
0.431503
0.432465
0.422854
0.406749
0.38843
0.371039
0.356369
0.345562
0.339755
0.340086
0.346459
0.356793
0.367764
0.377069
0.383959
0.38897
0.392674
0.395802
0.398536
0.401318
0.40398
0.406924
0.409761
0.413015
0.416074
0.419712
0.423009
0.42713
0.430712
0.4355
0.439489
0.445308
0.45009
0.457634
0.463641
0.472908
0.479156
0.488189
0.491624
0.496719
0.494588
0.497539
0.497925
0.504592
0.506059
0.479399
0.473163
0.383906
0.315437
0.291902
0.315146
0.345899
0.376023
0.384965
0.389919
0.385323
0.384009
0.379351
0.378414
0.375437
0.375329
0.374339
0.375672
0.376245
0.377762
0.378194
0.378801
0.378363
0.377613
0.37579
0.373388
0.370181
0.366719
0.363249
0.360245
0.358021
0.356643
0.356231
0.356352
0.357024
0.357506
0.358059
0.357874
0.357676
0.35652
0.355569
0.353522
0.35194
0.349079
0.346783
0.343183
0.340114
0.334869
0.337838
0.343183
0.35368
0.371796
0.395901
0.418469
0.431594
0.432362
0.422553
0.406266
0.387803
0.370319
0.355611
0.344813
0.339049
0.33946
0.345959
0.356453
0.367575
0.376987
0.383936
0.388969
0.392677
0.395799
0.398526
0.4013
0.403956
0.406894
0.409726
0.412976
0.416032
0.419665
0.422958
0.427075
0.430652
0.435435
0.439418
0.445233
0.45001
0.457556
0.463569
0.472851
0.479114
0.488167
0.491606
0.496695
0.494532
0.497482
0.497883
0.504691
0.506278
0.479912
0.474012
0.384729
0.315682
0.291172
0.313082
0.343172
0.373508
0.383113
0.388727
0.384617
0.383612
0.379129
0.378286
0.375353
0.375264
0.374284
0.375628
0.376213
0.377743
0.378189
0.378806
0.378378
0.377635
0.375815
0.37341
0.370194
0.366719
0.363234
0.360217
0.357985
0.356608
0.356206
0.356342
0.357033
0.357535
0.358105
0.357937
0.357753
0.356611
0.355679
0.353653
0.3521
0.349268
0.347015
0.343454
0.340427
0.33519
0.337872
0.343275
0.353855
0.372065
0.39621
0.418712
0.431683
0.432258
0.422251
0.405784
0.387175
0.369598
0.354851
0.34406
0.338339
0.338829
0.345455
0.356109
0.367384
0.376904
0.383912
0.388968
0.392679
0.395796
0.398515
0.401281
0.403931
0.406864
0.409691
0.412937
0.415989
0.419618
0.422908
0.42702
0.430592
0.43537
0.439347
0.445157
0.44993
0.457477
0.463496
0.472793
0.479072
0.488144
0.491587
0.496669
0.494474
0.497423
0.49784
0.50479
0.506496
0.480424
0.474853
0.385535
0.31592
0.290448
0.311017
0.340409
0.370924
0.381192
0.387483
0.383878
0.383196
0.378898
0.378153
0.375266
0.375197
0.374227
0.375581
0.376179
0.377724
0.378181
0.378809
0.378392
0.377656
0.37584
0.373432
0.370207
0.366718
0.363217
0.360187
0.357949
0.356572
0.356179
0.356332
0.357042
0.357564
0.358152
0.357999
0.35783
0.356703
0.35579
0.353784
0.35226
0.349459
0.347248
0.343726
0.340743
0.335515
0.337908
0.343368
0.354032
0.372333
0.396518
0.418952
0.431768
0.432152
0.421949
0.405301
0.386548
0.368876
0.35409
0.343305
0.337626
0.338195
0.344947
0.355762
0.36719
0.376821
0.383887
0.388966
0.392681
0.395793
0.398504
0.401263
0.403906
0.406833
0.409655
0.412897
0.415946
0.419571
0.422856
0.426964
0.430531
0.435304
0.439276
0.44508
0.449849
0.457397
0.463423
0.472734
0.47903
0.48812
0.491567
0.496642
0.494415
0.497362
0.497794
0.504887
0.506713
0.480937
0.475685
0.386324
0.316151
0.289732
0.308955
0.337615
0.368275
0.379201
0.386185
0.383104
0.382762
0.378656
0.378014
0.375175
0.375127
0.374167
0.375531
0.376144
0.377702
0.378172
0.378811
0.378404
0.377676
0.375863
0.373453
0.370219
0.366717
0.3632
0.360157
0.357911
0.356535
0.356152
0.356321
0.357051
0.357592
0.358199
0.358061
0.357907
0.356795
0.355901
0.353915
0.352422
0.349652
0.347484
0.344002
0.341062
0.335843
0.337943
0.343462
0.354209
0.372603
0.396826
0.419189
0.431852
0.432045
0.421646
0.404819
0.385921
0.368153
0.353326
0.342547
0.336909
0.337557
0.344435
0.355412
0.366995
0.376735
0.383862
0.388964
0.392683
0.39579
0.398493
0.401244
0.40388
0.406801
0.409619
0.412857
0.415902
0.419523
0.422805
0.426908
0.43047
0.435237
0.439204
0.445003
0.449767
0.457317
0.463348
0.472675
0.478986
0.488096
0.491547
0.496615
0.494355
0.497299
0.497747
0.504983
0.50693
0.481449
0.476507
0.387095
0.316376
0.289027
0.306899
0.334791
0.36556
0.37714
0.38483
0.382294
0.382307
0.378404
0.377869
0.375081
0.375054
0.374104
0.37548
0.376106
0.377678
0.378162
0.378812
0.378415
0.377695
0.375886
0.373473
0.370231
0.366714
0.363183
0.360125
0.357872
0.356498
0.356124
0.356309
0.357059
0.357621
0.358245
0.358124
0.357985
0.356887
0.356013
0.354048
0.352585
0.349845
0.347722
0.344279
0.341384
0.336174
0.337979
0.343557
0.354387
0.372873
0.397131
0.419425
0.431932
0.431935
0.421342
0.404336
0.385294
0.36743
0.352561
0.341786
0.336188
0.336914
0.343919
0.355058
0.366797
0.376649
0.383836
0.388962
0.392684
0.395786
0.398481
0.401224
0.403854
0.40677
0.409583
0.412817
0.415858
0.419475
0.422753
0.426851
0.430409
0.43517
0.439131
0.444925
0.449685
0.457236
0.463273
0.472615
0.478942
0.488071
0.491526
0.496586
0.494294
0.497235
0.497697
0.505078
0.507145
0.48196
0.47732
0.387849
0.316597
0.288334
0.304853
0.331943
0.362782
0.375006
0.383417
0.381446
0.38183
0.37814
0.377718
0.374982
0.374977
0.374038
0.375425
0.376065
0.377652
0.378149
0.378811
0.378424
0.377712
0.375908
0.373492
0.370242
0.366711
0.363164
0.360093
0.357832
0.356459
0.356095
0.356297
0.357067
0.357649
0.358292
0.358186
0.358062
0.35698
0.356124
0.354181
0.352749
0.35004
0.347961
0.344559
0.341709
0.336508
0.338015
0.343653
0.354567
0.373143
0.397436
0.419657
0.43201
0.431824
0.421037
0.403854
0.384667
0.366706
0.351793
0.341022
0.335464
0.336268
0.343398
0.354701
0.366597
0.376562
0.38381
0.38896
0.392685
0.395781
0.398469
0.401204
0.403828
0.406738
0.409547
0.412776
0.415813
0.419427
0.4227
0.426794
0.430347
0.435103
0.439058
0.444846
0.449602
0.457154
0.463197
0.472554
0.478898
0.488045
0.491504
0.496557
0.49423
0.497169
0.497646
0.505171
0.507359
0.482471
0.478121
0.388587
0.316815
0.287656
0.30282
0.329075
0.359942
0.372801
0.381943
0.380557
0.38133
0.377863
0.377559
0.374878
0.374896
0.373969
0.375367
0.376021
0.377622
0.378133
0.378807
0.378432
0.377728
0.375928
0.37351
0.370251
0.366707
0.363144
0.36006
0.357791
0.356419
0.356065
0.356284
0.357074
0.357677
0.358338
0.358248
0.358139
0.357073
0.356236
0.354314
0.352913
0.350236
0.348202
0.344841
0.342037
0.336845
0.338052
0.34375
0.354748
0.373413
0.39774
0.419888
0.432086
0.431711
0.420732
0.403372
0.38404
0.365982
0.351025
0.340256
0.334737
0.335618
0.342874
0.354341
0.366395
0.376473
0.383783
0.388957
0.392686
0.395777
0.398457
0.401184
0.403801
0.406705
0.40951
0.412735
0.415769
0.419378
0.422648
0.426736
0.430284
0.435035
0.438984
0.444767
0.449518
0.457071
0.46312
0.472493
0.478852
0.488019
0.491482
0.496526
0.494166
0.497101
0.497592
0.505263
0.507572
0.482982
0.478912
0.389307
0.317031
0.286995
0.300803
0.32619
0.357043
0.370521
0.380407
0.379626
0.380805
0.377573
0.377392
0.374769
0.374811
0.373895
0.375305
0.375973
0.37759
0.378115
0.378801
0.378437
0.377742
0.375946
0.373527
0.37026
0.366702
0.363123
0.360025
0.357749
0.356378
0.356034
0.35627
0.357081
0.357704
0.358384
0.35831
0.358217
0.357165
0.356349
0.354448
0.353078
0.350433
0.348445
0.345125
0.342367
0.337185
0.33809
0.343848
0.35493
0.373684
0.398042
0.420115
0.432159
0.431596
0.420426
0.40289
0.383414
0.365258
0.350255
0.339488
0.334007
0.334964
0.342346
0.353978
0.366191
0.376384
0.383755
0.388953
0.392686
0.395772
0.398445
0.401164
0.403774
0.406672
0.409472
0.412693
0.415723
0.419329
0.422594
0.426678
0.430221
0.434967
0.43891
0.444687
0.449433
0.456988
0.463043
0.47243
0.478806
0.487992
0.491459
0.496495
0.4941
0.497031
0.497536
0.505354
0.507783
0.483491
0.479692
0.390011
0.317247
0.286352
0.298808
0.323293
0.354086
0.368169
0.378806
0.37865
0.380254
0.377267
0.377217
0.374654
0.374721
0.373817
0.375238
0.375922
0.377554
0.378093
0.378792
0.37844
0.377754
0.375963
0.373542
0.370267
0.366695
0.363101
0.359989
0.357705
0.356335
0.356002
0.356255
0.357087
0.35773
0.358429
0.358372
0.358294
0.357258
0.356461
0.354582
0.353244
0.350631
0.34869
0.345411
0.342701
0.337528
0.338128
0.343947
0.355112
0.373956
0.398344
0.420341
0.432229
0.431479
0.42012
0.402409
0.382789
0.364533
0.349484
0.338717
0.333274
0.334307
0.341815
0.353611
0.365985
0.376293
0.383727
0.38895
0.392686
0.395767
0.398432
0.401143
0.403747
0.406639
0.409435
0.412651
0.415678
0.419279
0.422541
0.42662
0.430158
0.434898
0.438835
0.444607
0.449348
0.456904
0.462964
0.472367
0.478759
0.487964
0.491434
0.496462
0.494032
0.496958
0.497478
0.505443
0.507994
0.484
0.480459
0.390698
0.317464
0.28573
0.296836
0.320388
0.351075
0.365742
0.377139
0.377627
0.379675
0.376946
0.377032
0.374532
0.374625
0.373734
0.375167
0.375866
0.377514
0.378068
0.37878
0.37844
0.377764
0.375978
0.373556
0.370272
0.366687
0.363077
0.359951
0.35766
0.356292
0.355968
0.356239
0.357091
0.357756
0.358474
0.358433
0.358371
0.357351
0.356574
0.354716
0.35341
0.350831
0.348936
0.3457
0.343037
0.337874
0.338166
0.344047
0.355297
0.374228
0.398644
0.420564
0.432297
0.431361
0.419813
0.401928
0.382164
0.363809
0.348711
0.337944
0.332537
0.333646
0.341279
0.353241
0.365777
0.376201
0.383698
0.388946
0.392686
0.395762
0.398419
0.401122
0.403719
0.406606
0.409397
0.412609
0.415632
0.419229
0.422487
0.426561
0.430094
0.434828
0.43876
0.444526
0.449262
0.456819
0.462885
0.472303
0.478712
0.487936
0.491409
0.496428
0.493962
0.496884
0.497418
0.50553
0.508202
0.484507
0.481214
0.39137
0.317684
0.285131
0.294891
0.31748
0.348012
0.363242
0.375403
0.376556
0.379065
0.376607
0.376836
0.374402
0.374523
0.373645
0.375091
0.375805
0.37747
0.378039
0.378765
0.378437
0.377771
0.375991
0.373568
0.370276
0.366678
0.363051
0.359912
0.357613
0.356246
0.355933
0.356222
0.357095
0.357782
0.358518
0.358494
0.358448
0.357443
0.356686
0.354851
0.353577
0.351031
0.349183
0.34599
0.343375
0.338222
0.338205
0.344148
0.355482
0.3745
0.398943
0.420784
0.432362
0.431241
0.419506
0.401448
0.38154
0.363084
0.347938
0.337169
0.331798
0.332982
0.34074
0.352868
0.365567
0.376108
0.383669
0.388941
0.392686
0.395756
0.398405
0.401101
0.403691
0.406572
0.409358
0.412567
0.415586
0.419179
0.422432
0.426502
0.430029
0.434758
0.438684
0.444444
0.449176
0.456733
0.462805
0.472239
0.478664
0.487907
0.491383
0.496393
0.493891
0.496807
0.497354
0.505615
0.508409
0.485014
0.481957
0.392026
0.317907
0.284557
0.292977
0.314574
0.344901
0.360669
0.373597
0.375433
0.378424
0.376249
0.376629
0.374264
0.374414
0.37355
0.375009
0.375739
0.37742
0.378005
0.378745
0.37843
0.377774
0.376001
0.373577
0.370278
0.366666
0.363024
0.359871
0.357565
0.356199
0.355897
0.356203
0.357098
0.357806
0.358562
0.358555
0.358524
0.357535
0.356798
0.354986
0.353745
0.351231
0.349432
0.346282
0.343716
0.338574
0.338244
0.34425
0.355668
0.374773
0.39924
0.421002
0.432425
0.43112
0.419199
0.400969
0.380917
0.36236
0.347163
0.336392
0.331057
0.332314
0.340198
0.352492
0.365354
0.376014
0.383639
0.388936
0.392685
0.39575
0.398391
0.401079
0.403663
0.406538
0.409319
0.412524
0.415539
0.419128
0.422377
0.426442
0.429965
0.434688
0.438608
0.444362
0.449088
0.456647
0.462724
0.472173
0.478614
0.487876
0.491356
0.496356
0.493818
0.496728
0.497289
0.505698
0.508615
0.485518
0.482686
0.392667
0.318137
0.284009
0.291096
0.311673
0.341746
0.358022
0.371719
0.374256
0.377748
0.375871
0.376408
0.374116
0.374298
0.373448
0.37492
0.375667
0.377365
0.377966
0.37872
0.378419
0.377775
0.376008
0.373584
0.370277
0.366652
0.362995
0.359828
0.357514
0.35615
0.355858
0.356183
0.3571
0.357829
0.358605
0.358615
0.3586
0.357627
0.356911
0.35512
0.353912
0.351433
0.349682
0.346576
0.34406
0.338928
0.338284
0.344352
0.355856
0.375045
0.399536
0.421217
0.432485
0.430997
0.418891
0.40049
0.380295
0.361637
0.346388
0.335613
0.330312
0.331643
0.339651
0.352113
0.36514
0.375918
0.383609
0.388931
0.392683
0.395743
0.398377
0.401057
0.403634
0.406503
0.40928
0.41248
0.415492
0.419077
0.422322
0.426382
0.429899
0.434617
0.438531
0.444279
0.449
0.456559
0.462642
0.472107
0.478565
0.487845
0.491328
0.496318
0.493743
0.496646
0.49722
0.50578
0.508818
0.486022
0.483402
0.393294
0.318373
0.283489
0.289252
0.308784
0.338549
0.355304
0.369767
0.373023
0.377037
0.375472
0.376174
0.373959
0.374172
0.373338
0.374824
0.375587
0.377303
0.377921
0.378691
0.378404
0.377771
0.376011
0.373588
0.370274
0.366636
0.362963
0.359783
0.357462
0.356099
0.355818
0.356161
0.3571
0.357852
0.358647
0.358674
0.358675
0.357718
0.357022
0.355255
0.35408
0.351635
0.349934
0.346871
0.344406
0.339284
0.338324
0.344456
0.356044
0.375319
0.399831
0.42143
0.432543
0.430872
0.418583
0.400012
0.379674
0.360913
0.345613
0.334832
0.329565
0.33097
0.339102
0.35173
0.364923
0.375822
0.383577
0.388925
0.392682
0.395736
0.398362
0.401035
0.403605
0.406468
0.409241
0.412436
0.415444
0.419025
0.422266
0.426321
0.429834
0.434545
0.438453
0.444195
0.448911
0.456471
0.462559
0.47204
0.478514
0.487813
0.491299
0.496279
0.493666
0.496561
0.497148
0.505859
0.50902
0.486523
0.484103
0.393907
0.318617
0.282998
0.287448
0.30591
0.335315
0.352514
0.36774
0.371732
0.376287
0.375048
0.375925
0.37379
0.374037
0.373219
0.374719
0.3755
0.377235
0.37787
0.378655
0.378383
0.377763
0.376011
0.373588
0.370269
0.366617
0.362929
0.359735
0.357406
0.356045
0.355776
0.356138
0.357098
0.357872
0.358688
0.358732
0.358749
0.357809
0.357134
0.35539
0.354249
0.351838
0.350186
0.347168
0.344754
0.339642
0.338365
0.344561
0.356234
0.375592
0.400125
0.42164
0.432598
0.430746
0.418274
0.399535
0.379054
0.360191
0.344837
0.33405
0.328816
0.330293
0.338549
0.351345
0.364704
0.375724
0.383545
0.388919
0.39268
0.395729
0.398347
0.401012
0.403575
0.406433
0.409201
0.412392
0.415397
0.418973
0.42221
0.42626
0.429767
0.434473
0.438375
0.444111
0.448821
0.456382
0.462476
0.471972
0.478462
0.487781
0.491269
0.496238
0.493586
0.496474
0.497074
0.505935
0.50922
0.487023
0.484791
0.394508
0.318872
0.282539
0.285687
0.303057
0.332049
0.349655
0.365635
0.370378
0.375496
0.374599
0.375659
0.373608
0.373892
0.37309
0.374606
0.375404
0.377158
0.377811
0.378614
0.378357
0.37775
0.376006
0.373585
0.370259
0.366596
0.362892
0.359685
0.357349
0.355989
0.355731
0.356112
0.357095
0.357892
0.358727
0.358789
0.358823
0.357899
0.357245
0.355524
0.354417
0.352041
0.35044
0.347467
0.345104
0.340003
0.338406
0.344667
0.356425
0.375866
0.400417
0.421848
0.432651
0.430618
0.417966
0.399059
0.378436
0.359469
0.34406
0.333266
0.328064
0.329613
0.337993
0.350957
0.364483
0.375625
0.383513
0.388913
0.392678
0.395722
0.398332
0.400988
0.403545
0.406397
0.409161
0.412348
0.415348
0.418921
0.422154
0.426198
0.429701
0.434401
0.438296
0.444026
0.448731
0.456292
0.462391
0.471902
0.478409
0.487746
0.491237
0.496195
0.493505
0.496383
0.496996
0.50601
0.509417
0.48752
0.485463
0.395096
0.319137
0.282113
0.283971
0.300228
0.328755
0.346728
0.363453
0.368961
0.374662
0.374123
0.375375
0.373412
0.373734
0.37295
0.374482
0.375298
0.377072
0.377745
0.378564
0.378324
0.377731
0.375997
0.373578
0.370247
0.366571
0.362852
0.359631
0.357288
0.355931
0.355684
0.356084
0.35709
0.35791
0.358765
0.358844
0.358895
0.357988
0.357355
0.355657
0.354585
0.352244
0.350694
0.347766
0.345455
0.340365
0.338448
0.344774
0.356617
0.37614