/*--------------------------------*- C++ -*----------------------------------*\
| =========                 |                                                 |
| \\      /  F ield         | OpenFOAM: The Open Source CFD Toolbox           |
|  \\    /   O peration     | Version:  2412                                  |
|   \\  /    A nd           | Website:  www.openfoam.com                      |
|    \\/     M anipulation  |                                                 |
\*---------------------------------------------------------------------------*/
FoamFile
{
    version     2.0;
    format      ascii;
    arch        "LSB;label=32;scalar=64";
    class       volScalarField;
    location    "0.8";
    object      p;
}
// * * * * * * * * * * * * * * * * * * * * * * * * * * * * * * * * * * * * * //

dimensions      [0 2 -2 0 0 0 0];

internalField   nonuniform List<scalar> 
12960
(
105081
105049
105000
104919
104836
104714
104598
104439
104297
104113
103956
103747
103565
103309
103087
102771
102514
102137
101854
101400
101092
100535
100206
99511.2
99170.9
98291.7
97957.8
96826.2
96528.7
95046
94835.1
92857.3
92814.6
90129.2
90386.9
86677.1
87446.9
82235.2
83855.8
76415.8
79431.2
68645.6
73935.1
58075.6
67076.2
43443.4
58495.5
22749.7
47554.7
-7580.96
32659
-53033.7
13194.1
-111780
-2362.29
-71776.9
5388.98
-34939
16386
-8261.75
24878.7
10019.1
31727.6
23410.4
38019.9
33852.7
43867.3
42171.4
49155
48877.9
53842.3
54329.8
57924.3
58776.9
61425.9
62416.8
64403.2
65415.3
66926.4
67909.2
69067.5
70011.8
70893.5
71816.6
72461.6
73399.1
73814.1
74817.6
74974.9
76117.3
75952.7
77339.7
76745.2
78530.9
77342
79744.5
77726
81034.2
77878.4
105087
105055
105006
104924
104841
104718
104602
104441
104299
104115
103957
103748
103566
103311
103088
102773
102515
102138
101856
101402
101094
100537
100208
99513.9
99173.4
98294.9
97960.6
96829.8
96531.9
95050.3
94838.5
92862.3
92818.4
90135.2
90391.1
86684.3
87451.3
82243.7
83860.5
76425.7
79435.8
68657
73939.2
58088.2
67079.4
43457.3
58498.9
22765.8
47560.8
-7567.61
32663
-53063.1
13172.5
-111969
-2417.41
-71812.3
5369.11
-34936.1
16385.4
-8249.25
24880.7
10028.1
31726.7
23415.6
38018.3
33856.6
43866.5
42175
49155.1
48881.4
53843.4
54333.3
57926
58780.4
61428.1
62420
64405.4
65418
66928.5
67911.5
69069.4
70013.5
70895.2
71817.8
72463.2
73399.9
73815.7
74818
74976.8
76117.3
75954.9
77339.1
76747.6
78529.7
77344.5
79742.9
77728.2
81032.6
77879.5
105094
105061
105012
104930
104846
104722
104605
104444
104301
104116
103958
103749
103567
103312
103089
102774
102517
102140
101857
101404
101096
100540
100210
99516.6
99175.9
98298
97963.4
96833.5
96535
95054.6
94842
92867.4
92822.2
90141.2
90395.2
86691.4
87455.8
82252.2
83865.2
76435.8
79440.4
68668.6
73943.3
58101
67082.6
43471.4
58502.3
22782
47566.8
-7554.27
32667
-53092.9
13150.6
-112159
-2473.1
-71847.8
5349.21
-34933.3
16384.5
-8236.91
24882.5
10037.2
31725.7
23420.8
38016.7
33860.7
43865.7
42178.7
49155.3
48885.1
53844.5
54337
57927.8
58783.9
61430.2
62423.2
64407.6
65420.8
66930.6
67913.7
69071.3
70015.2
70896.9
71819
72464.8
73400.6
73817.4
74818.4
74978.7
76117.2
75957.1
77338.6
76750.1
78528.5
77347
79741.2
77730.4
81031
77880.6
105100
105067
105018
104935
104851
104726
104609
104447
104304
104118
103960
103750
103568
103313
103091
102776
102518
102142
101859
101406
101098
100542
100213
99519.3
99178.4
98301.1
97966.2
96837.1
96538.1
95058.9
94845.4
92872.4
92826
90147.2
90399.4
86698.6
87460.3
82260.8
83869.9
76445.9
79445.1
68680.2
73947.5
58113.9
67086
43485.6
58505.7
22798.3
47572.9
-7540.9
32671
-53123
13128.4
-112352
-2529.35
-71883.2
5329.26
-34930.7
16383.2
-8224.71
24884.1
10046.3
31724.8
23426.2
38015.1
33864.8
43865
42182.5
49155.5
48888.7
53845.6
54340.6
57929.6
58787.4
61432.4
62426.5
64409.9
65423.6
66932.8
67916
69073.2
70016.9
70898.6
71820.2
72466.4
73401.4
73819.1
74818.7
74980.7
76117.2
75959.4
77338
76752.6
78527.3
77349.6
79739.6
77732.7
81029.4
77881.9
105107
105073
105024
104940
104856
104730
104612
104450
104306
104120
103961
103751
103569
103314
103092
102777
102520
102143
101861
101408
101100
100544
100215
99522
99180.9
98304.2
97969
96840.8
96541.2
95063.2
94848.9
92877.5
92829.9
90153.3
90403.6
86705.9
87464.8
82269.4
83874.6
76456.1
79449.8
68691.9
73951.7
58126.9
67089.4
43500
58509.2
22814.8
47579
-7527.39
32675
-53153.3
13106.1
-112547
-2586.12
-71918.8
5309.17
-34928.2
16381.8
-8212.55
24885.7
10055.4
31723.8
23431.6
38013.5
33869
43864.2
42186.3
49155.7
48892.4
53846.7
54344.3
57931.4
58790.9
61434.5
62429.7
64412.1
65426.4
66934.9
67918.3
69075.1
70018.7
70900.3
71821.4
72468
73402.2
73820.9
74819.1
74982.6
76117.2
75961.6
77337.4
76755.1
78526.1
77352.3
79737.9
77735
81027.9
77883.1
105114
105079
105030
104946
104860
104734
104616
104453
104309
104122
103963
103753
103570
103315
103093
102779
102521
102145
101862
101410
101102
100547
100217
99524.7
99183.4
98307.4
97971.8
96844.5
96544.4
95067.5
94852.4
92882.7
92833.7
90159.4
90407.8
86713.2
87469.3
82278.1
83879.4
76466.3
79454.5
68703.8
73955.9
58140
67092.7
43514.4
58512.8
22831.4
47585.2
-7513.73
32679.1
-53183.6
13083.8
-112743
-2643.41
-71954.6
5288.94
-34925.8
16380.2
-8200.41
24887.3
10064.5
31722.8
23437
38011.9
33873.1
43863.5
42190.1
49156
48896.2
53847.8
54348
57933.2
58794.5
61436.7
62433
64414.4
65429.3
66937.1
67920.6
69077.1
70020.4
70902
71822.6
72469.7
73402.9
73822.6
74819.5
74984.6
76117.1
75963.9
77336.8
76757.7
78524.9
77354.9
79736.2
77737.3
81026.3
77884.4
105120
105086
105036
104951
104865
104739
104620
104456
104311
104124
103964
103754
103571
103316
103094
102780
102523
102147
101864
101412
101104
100549
100219
99527.5
99186
98310.6
97974.7
96848.2
96547.5
95071.9
94855.9
92887.9
92837.6
90165.6
90412
86720.5
87473.9
82286.9
83884.2
76476.7
79459.3
68715.7
73960.2
58153.2
67096.1
43529
58516.3
22848.1
47591.5
-7499.91
32683.4
-53214
13061.3
-112941
-2701.22
-71990.6
5268.56
-34923.5
16378.4
-8188.31
24888.8
10073.7
31721.7
23442.4
38010.3
33877.3
43862.7
42193.9
49156.2
48899.9
53848.9
54351.8
57935
58798.1
61438.9
62436.3
64416.7
65432.1
66939.2
67922.9
69079
70022.1
70903.7
71823.8
72471.3
73403.7
73824.3
74819.9
74986.6
76117.1
75966.2
77336.2
76760.2
78523.7
77357.6
79734.5
77739.7
81024.6
77885.7
105127
105092
105042
104956
104870
104743
104624
104459
104314
104126
103966
103755
103572
103318
103096
102781
102524
102149
101866
101414
101106
100551
100222
99530.2
99188.5
98313.8
97977.6
96852
96550.7
95076.3
94859.5
92893.1
92841.5
90171.8
90416.3
86727.9
87478.5
82295.7
83889
76487.1
79464.1
68727.7
73964.5
58166.6
67099.6
43543.7
58519.9
22865
47597.8
-7485.93
32687.7
-53244.5
13038.9
-113141
-2759.55
-72026.6
5248.05
-34921.3
16376.5
-8176.25
24890.2
10082.9
31720.6
23447.9
38008.6
33881.6
43862
42197.8
49156.4
48903.7
53850.1
54355.5
57936.8
58801.8
61441.1
62439.6
64419
65435
66941.4
67925.2
69081
70023.9
70905.5
71825
72473
73404.5
73826.1
74820.3
74988.6
76117
75968.5
77335.6
76762.8
78522.5
77360.3
79732.8
77742
81023
77887
105134
105099
105048
104962
104876
104747
104628
104462
104316
104128
103967
103756
103573
103319
103097
102783
102526
102150
101868
101417
101108
100554
100224
99533
99191.1
98317
97980.4
96855.7
96554
95080.8
94863.1
92898.4
92845.5
90178
90420.6
86735.4
87483.1
82304.6
83893.8
76497.6
79468.9
68739.7
73968.8
58180
67103
43558.4
58523.4
22882
47604.1
-7471.8
32692.2
-53275.1
13016.3
-113343
-2818.4
-72062.8
5227.42
-34919.1
16374.3
-8164.23
24891.5
10092.1
31719.5
23453.3
38007
33885.9
43861.2
42201.7
49156.7
48907.5
53851.3
54359.3
57938.7
58805.5
61443.4
62443
64421.3
65437.9
66943.6
67927.6
69083
70025.7
70907.2
71826.3
72474.6
73405.3
73827.8
74820.7
74990.6
76117
75970.8
77335
76765.4
78521.2
77363
79731
77744.4
81021.3
77888.3
105141
105105
105054
104967
104881
104752
104631
104465
104319
104129
103969
103758
103574
103320
103098
102784
102527
102152
101870
101419
101110
100556
100226
99535.8
99193.7
98320.3
97983.3
96859.5
96557.2
95085.3
94866.7
92903.7
92849.4
90184.3
90424.9
86742.9
87487.8
82313.5
83898.7
76508.1
79473.8
68751.9
73973.2
58193.5
67106.5
43573.3
58527.1
22899.1
47610.6
-7457.51
32696.8
-53305.8
12993.7
-113546
-2877.78
-72099.1
5206.67
-34917.1
16372
-8152.28
24892.8
10101.3
31718.4
23458.8
38005.3
33890.2
43860.4
42205.7
49156.9
48911.4
53852.4
54363.2
57940.6
58809.2
61445.6
62446.4
64423.6
65440.9
66945.9
67930
69085
70027.5
70909
71827.5
72476.3
73406.1
73829.6
74821.1
74992.6
76117
75973.2
77334.4
76768.1
78519.9
77365.7
79729.3
77746.9
81019.6
77889.7
105148
105111
105060
104973
104886
104756
104635
104469
104321
104131
103970
103759
103576
103321
103100
102786
102529
102154
101871
101421
101112
100559
100229
99538.6
99196.3
98323.5
97986.3
96863.4
96560.5
95089.8
94870.3
92909
92853.4
90190.7
90429.3
86750.4
87492.5
82322.5
83903.7
76518.8
79478.7
68764.2
73977.6
58207.1
67110
43588.3
58530.7
22916.3
47617.1
-7443.07
32701.4
-53336.5
12971
-113752
-2937.67
-72135.6
5185.81
-34915.2
16369.4
-8140.38
24894
10110.6
31717.2
23464.4
38003.6
33894.5
43859.6
42209.6
49157.1
48915.2
53853.6
54367
57942.5
58812.9
61447.9
62449.8
64426
65443.8
66948.1
67932.4
69087
70029.3
70910.8
71828.8
72478
73406.9
73831.4
74821.5
74994.6
76116.9
75975.5
77333.8
76770.7
78518.6
77368.5
79727.5
77749.3
81017.8
77891
105155
105118
105067
104978
104891
104761
104639
104472
104324
104133
103972
103760
103577
103323
103101
102787
102530
102156
101873
101423
101114
100561
100231
99541.5
99199
98326.8
97989.2
96867.2
96563.7
95094.3
94873.9
92914.4
92857.4
90197.1
90433.7
86758.1
87497.2
82331.6
83908.6
76529.5
79483.7
68776.5
73982
58220.8
67113.5
43603.4
58534.3
22933.7
47623.6
-7428.46
32706.2
-53367.4
12948.3
-113959
-2998.09
-72172.1
5164.86
-34913.4
16366.7
-8128.56
24895
10119.8
31716
23469.9
38001.9
33898.8
43858.9
42213.6
49157.4
48919.1
53854.8
54370.9
57944.4
58816.6
61450.2
62453.2
64428.4
65446.8
66950.4
67934.8
69089
70031.1
70912.6
71830
72479.7
73407.7
73833.2
74821.9
74996.7
76116.9
75977.9
77333.1
76773.4
78517.3
77371.3
79725.6
77751.8
81016
77892.4
105162
105125
105073
104984
104896
104765
104643
104475
104326
104135
103973
103761
103578
103324
103102
102789
102532
102158
101875
101425
101117
100564
100233
99544.3
99201.6
98330.2
97992.2
96871.1
96567
95098.9
94877.6
92919.8
92861.5
90203.5
90438.1
86765.7
87502
82340.7
83913.6
76540.3
79488.6
68788.9
73986.5
58234.5
67117
43618.5
58538
22951.2
47630.3
-7413.7
32711.1
-53398.3
12925.5
-114167
-3059.03
-72208.8
5143.81
-34911.7
16363.8
-8116.81
24896
10129
31714.7
23475.5
38000.2
33903.2
43858.1
42217.7
49157.6
48923.1
53856
54374.9
57946.3
58820.4
61452.5
62456.7
64430.8
65449.8
66952.7
67937.2
69091
70032.9
70914.4
71831.3
72481.4
73408.5
73835
74822.3
74998.7
76116.8
75980.3
77332.5
76776.1
78516
77374.1
79723.8
77754.3
81014.2
77893.8
105169
105131
105079
104990
104902
104770
104647
104478
104329
104137
103975
103762
103579
103325
103104
102790
102533
102159
101877
101427
101119
100566
100236
99547.2
99204.3
98333.5
97995.2
96875
96570.4
95103.5
94881.3
92925.2
92865.5
90209.9
90442.5
86773.4
87506.7
82349.9
83918.7
76551.1
79493.6
68801.4
73990.9
58248.4
67120.6
43633.8
58541.7
22968.8
47637
-7398.77
32716.1
-53429.3
12902.7
-114378
-3120.5
-72245.5
5122.69
-34910
16360.6
-8105.15
24896.9
10138.3
31713.4
23481.1
37998.4
33907.6
43857.3
42221.7
49157.9
48927
53857.2
54378.8
57948.3
58824.3
61454.8
62460.2
64433.2
65452.8
66955
67939.7
69093.1
70034.7
70916.2
71832.6
72483.1
73409.3
73836.8
74822.8
75000.8
76116.8
75982.7
77331.9
76778.8
78514.7
77376.9
79721.9
77756.8
81012.4
77895.2
105177
105138
105086
104996
104907
104774
104651
104481
104332
104139
103976
103764
103580
103326
103105
102792
102535
102161
101879
101429
101121
100569
100238
99550.1
99207
98336.9
97998.2
96879
96573.7
95108.1
94885
92930.7
92869.6
90216.4
90447
86781.2
87511.6
82359.2
83923.7
76562.1
79498.7
68814
73995.5
58262.4
67124.2
43649.2
58545.4
22986.6
47643.7
-7383.68
32721.3
-53460.4
12879.8
-114590
-3182.48
-72282.4
5101.5
-34908.4
16357.2
-8093.57
24897.7
10147.5
31712.1
23486.7
37996.6
33912.1
43856.5
42225.8
49158.1
48931
53858.4
54382.8
57950.2
58828.1
61457.2
62463.7
64435.6
65455.9
66957.3
67942.1
69095.2
70036.6
70918
71833.8
72484.8
73410.1
73838.6
74823.2
75002.9
76116.7
75985.1
77331.2
76781.5
78513.3
77379.8
79720
77759.4
81010.6
77896.7
105184
105145
105092
105001
104912
104779
104655
104484
104334
104141
103978
103765
103581
103327
103106
102794
102536
102163
101881
101431
101123
100571
100240
99553
99209.7
98340.3
98001.2
96882.9
96577.1
95112.7
94888.7
92936.2
92873.7
90223
90451.5
86789
87516.4
82368.5
83928.8
76573.1
79503.8
68826.7
74000
58276.5
67127.8
43664.7
58549.2
23004.5
47650.5
-7368.42
32726.5
-53491.5
12856.8
-114805
-3244.99
-72319.3
5080.25
-34906.9
16353.7
-8082.09
24898.4
10156.8
31710.7
23492.3
37994.8
33916.5
43855.6
42229.9
49158.4
48935
53859.7
54386.8
57952.2
58832
61459.5
62467.3
64438.1
65458.9
66959.6
67944.6
69097.2
70038.4
70919.8
71835.1
72486.5
73411
73840.4
74823.6
75005
76116.7
75987.5
77330.6
76784.2
78512
77382.7
79718.1
77762
81008.7
77898.1
105191
105152
105099
105007
104918
104783
104659
104488
104337
104143
103980
103766
103583
103329
103108
102795
102538
102165
101882
101434
101125
100574
100243
99555.9
99212.4
98343.7
98004.2
96886.9
96580.5
95117.4
94892.5
92941.7
92877.9
90229.6
90456
86796.9
87521.3
82377.9
83934
76584.2
79508.9
68839.5
74004.6
58290.7
67131.4
43680.3
58552.9
23022.5
47657.4
-7353
32731.9
-53522.7
12833.9
-115021
-3308.02
-72356.2
5058.95
-34905.5
16349.9
-8070.72
24899
10166
31709.2
23498
37993
33921
43854.8
42234
49158.6
48939.1
53860.9
54390.9
57954.2
58835.9
61461.9
62470.9
64440.6
65462
66961.9
67947.1
69099.3
70040.3
70921.7
71836.4
72488.3
73411.8
73842.2
74824
75007.1
76116.6
75989.9
77329.9
76787
78510.6
77385.6
79716.1
77764.6
81006.8
77899.6
105199
105159
105106
105013
104923
104788
104663
104491
104340
104145
103981
103768
103584
103330
103109
102797
102540
102167
101884
101436
101127
100576
100245
99558.9
99215.1
98347.1
98007.3
96890.9
96583.9
95122.2
94896.3
92947.3
92882.1
90236.2
90460.6
86804.8
87526.2
82387.4
83939.1
76595.3
79514
68852.4
74009.2
58304.9
67135
43696
58556.7
23040.6
47664.4
-7337.41
32737.4
-53554
12810.8
-115239
-3371.56
-72393.2
5037.63
-34904.1
16345.8
-8059.45
24899.4
10175.2
31707.7
23503.7
37991.2
33925.5
43854
42238.2
49158.9
48943.2
53862.2
54394.9
57956.2
58839.8
61464.3
62474.5
64443.1
65465.2
66964.3
67949.6
69101.4
70042.2
70923.5
71837.7
72490
73412.6
73844.1
74824.4
75009.2
76116.6
75992.4
77329.2
76789.8
78509.2
77388.5
79714.2
77767.2
81004.8
77901.1
105206
105166
105112
105019
104929
104793
104667
104494
104342
104147
103983
103769
103585
103331
103110
102798
102541
102169
101886
101438
101130
100579
100248
99561.9
99217.9
98350.5
98010.4
96895
96587.3
95126.9
94900.1
92952.9
92886.3
90242.9
90465.2
86812.8
87531.1
82396.9
83944.3
76606.6
79519.2
68865.3
74013.8
58319.3
67138.7
43711.7
58560.5
23058.9
47671.4
-7321.65
32743
-53585.4
12787.8
-115459
-3435.63
-72430.3
5016.27
-34902.8
16341.6
-8048.3
24899.7
10184.4
31706.2
23509.3
37989.3
33930.1
43853.2
42242.4
49159.1
48947.3
53863.4
54399
57958.2
58843.8
61466.7
62478.1
64445.6
65468.3
66966.7
67952.2
69103.5
70044.1
70925.4
71839.1
72491.8
73413.5
73845.9
74824.8
75011.3
76116.6
75994.9
77328.6
76792.6
78507.8
77391.5
79712.2
77769.9
81002.8
77902.6
105214
105173
105119
105025
104934
104797
104672
104498
104345
104149
103984
103770
103586
103332
103112
102800
102543
102170
101888
101440
101132
100581
100250
99564.9
99220.7
98354
98013.5
96899
96590.8
95131.7
94903.9
92958.6
92890.5
90249.6
90469.8
86820.8
87536.1
82406.4
83949.5
76617.9
79524.4
68878.4
74018.5
58333.8
67142.3
43727.6
58564.3
23077.3
47678.5
-7305.72
32748.7
-53616.7
12764.7
-115680
-3500.21
-72467.4
4994.91
-34901.5
16337.1
-8037.28
24899.9
10193.6
31704.6
23515
37987.4
33934.6
43852.3
42246.6
49159.4
48951.4
53864.7
54403.2
57960.2
58847.8
61469.2
62481.7
64448.1
65471.5
66969.1
67954.7
69105.7
70046
70927.3
71840.4
72493.5
73414.3
73847.8
74825.3
75013.5
76116.5
75997.4
77327.9
76795.4
78506.4
77394.4
79710.1
77772.6
81000.8
77904.1
105222
105180
105126
105031
104940
104802
104676
104501
104348
104151
103986
103771
103587
103334
103113
102801
102545
102172
101890
101443
101134
100584
100253
99567.9
99223.5
98357.5
98016.6
96903.1
96594.3
95136.5
94907.8
92964.3
92894.7
90256.4
90474.4
86828.9
87541.1
82416.1
83954.8
76629.3
79529.6
68891.5
74023.2
58348.3
67146
43743.6
58568.1
23095.8
47685.6
-7289.63
32754.6
-53648.2
12741.5
-115904
-3565.31
-72504.6
4973.55
-34900.3
16332.4
-8026.38
24899.9
10202.7
31702.9
23520.7
37985.5
33939.2
43851.5
42250.8
49159.6
48955.5
53866
54407.3
57962.3
58851.8
61471.6
62485.4
64450.7
65474.6
66971.5
67957.3
69107.8
70047.9
70929.2
71841.7
72495.3
73415.1
73849.7
74825.7
75015.6
76116.5
75999.9
77327.2
76798.2
78505
77397.4
79708.1
77775.3
80998.8
77905.7
105229
105187
105133
105037
104946
104807
104680
104504
104351
104154
103988
103773
103588
103335
103114
102803
102546
102174
101892
101445
101136
100587
100255
99570.9
99226.3
98361
98019.7
96907.2
96597.8
95141.3
94911.7
92970
92899
90263.2
90479.1
86837
87546.1
82425.8
83960.1
76640.8
79534.9
68904.7
74027.9
58363
67149.7
43759.7
58572
23114.5
47692.9
-7273.36
32760.6
-53679.7
12718.4
-116129
-3630.92
-72541.7
4952.21
-34899
16327.6
-8015.62
24899.8
10211.8
31701.2
23526.4
37983.6
33943.8
43850.6
42255.1
49159.9
48959.7
53867.3
54411.5
57964.3
58855.9
61474.1
62489.1
64453.3
65477.9
66973.9
67959.9
69110
70049.9
70931
71843
72497.1
73416
73851.6
74826.1
75017.8
76116.4
76002.4
77326.5
76801.1
78503.5
77400.5
79706
77778
80996.7
77907.2
105237
105194
105140
105043
104951
104812
104684
104508
104353
104156
103989
103774
103590
103336
103116
102805
102548
102176
101894
101447
101138
100589
100258
99574
99229.1
98364.6
98022.9
96911.4
96601.3
95146.2
94915.6
92975.8
92903.3
90270.1
90483.8
86845.2
87551.2
82435.5
83965.4
76652.3
79540.2
68918
74032.6
58377.7
67153.5
43775.9
58575.9
23133.3
47700.2
-7256.92
32766.7
-53711.2
12695.2
-116357
-3697.04
-72578.9
4930.89
-34897.8
16322.4
-8004.99
24899.5
10220.9
31699.3
23532.1
37981.6
33948.4
43849.7
42259.4
49160.1
48963.9
53868.5
54415.7
57966.4
58859.9
61476.6
62492.9
64455.8
65481.1
66976.4
67962.5
69112.2
70051.8
70932.9
71844.4
72498.9
73416.8
73853.5
74826.6
75020
76116.4
76004.9
77325.8
76803.9
78502
77403.5
79703.9
77780.8
80994.6
77908.8
105245
105201
105147
105050
104957
104817
104688
104511
104356
104158
103991
103775
103591
103338
103117
102806
102550
102178
101896
101449
101141
100592
100260
99577
99232
98368.1
98026.1
96915.5
96604.8
95151.1
94919.5
92981.6
92907.6
90276.9
90488.5
86853.4
87556.3
82445.3
83970.8
76663.9
79545.6
68931.4
74037.4
58392.6
67157.2
43792.2
58579.8
23152.2
47707.5
-7240.3
32773
-53742.8
12671.9
-116586
-3763.67
-72616
4909.61
-34896.6
16317.1
-7994.51
24899
10229.9
31697.5
23537.8
37979.6
33953.1
43848.8
42263.7
49160.4
48968.2
53869.9
54420
57968.5
58864.1
61479.1
62496.6
64458.5
65484.3
66978.9
67965.1
69114.3
70053.8
70934.9
71845.7
72500.7
73417.7
73855.4
74827
75022.2
76116.3
76007.5
77325.1
76806.8
78500.5
77406.6
79701.7
77783.6
80992.5
77910.4
105253
105209
105154
105056
104963
104822
104693
104515
104359
104160
103993
103777
103592
103339
103118
102808
102551
102180
101898
101452
101143
100595
100263
99580.1
99234.8
98371.7
98029.3
96919.7
96608.4
95156
94923.4
92987.4
92912
90283.9
90493.2
86861.7
87561.4
82455.2
83976.2
76675.6
79551
68944.9
74042.2
58407.5
67161
43808.6
58583.7
23171.2
47714.9
-7223.51
32779.3
-53774.4
12648.7
-116817
-3830.82
-72653.2
4888.38
-34895.3
16311.6
-7984.17
24898.4
10238.8
31695.5
23543.6
37977.5
33957.7
43847.9
42268.1
49160.6
48972.4
53871.2
54424.3
57970.6
58868.2
61481.6
62500.4
64461.1
65487.6
66981.3
67967.8
69116.5
70055.7
70936.8
71847.1
72502.5
73418.6
73857.3
74827.4
75024.4
76116.2
76010.1
77324.4
76809.7
78499
77409.7
79699.6
77786.4
80990.3
77912.1
105261
105216
105161
105062
104969
104827
104697
104518
104362
104162
103994
103778
103593
103340
103120
102809
102553
102182
101900
101454
101145
100597
100266
99583.2
99237.7
98375.3
98032.5
96923.9
96612
95161
94927.4
92993.3
92916.3
90290.9
90498
86870
87566.6
82465.2
83981.6
76687.4
79556.4
68958.5
74047.1
58422.5
67164.8
43825.1
58587.7
23190.4
47722.4
-7206.54
32785.9
-53806.1
12625.4
-117050
-3898.46
-72690.3
4867.21
-34894
16305.9
-7973.99
24897.6
10247.8
31693.5
23549.3
37975.5
33962.4
43847
42272.4
49160.9
48976.7
53872.5
54428.6
57972.7
58872.4
61484.2
62504.2
64463.7
65490.9
66983.8
67970.4
69118.8
70057.7
70938.7
71848.5
72504.3
73419.4
73859.2
74827.9
75026.6
76116.2
76012.6
77323.7
76812.7
78497.5
77412.8
79697.4
77789.3
80988.1
77913.7
105269
105224
105168
105069
104974
104832
104702
104522
104365
104164
103996
103779
103594
103341
103121
102811
102555
102184
101902
101456
101148
100600
100268
99586.4
99240.6
98379
98035.7
96928.2
96615.6
95166
94931.4
92999.2
92920.7
90297.9
90502.8
86878.4
87571.8
82475.2
83987.1
76699.2
79561.8
68972.1
74051.9
58437.7
67168.6
43841.7
58591.6
23209.7
47730
-7189.39
32792.5
-53837.8
12602.1
-117286
-3966.61
-72727.4
4846.12
-34892.7
16300
-7963.96
24896.7
10256.6
31691.4
23555
37973.4
33967.1
43846.1
42276.8
49161.1
48981
53873.8
54432.9
57974.9
58876.5
61486.8
62508.1
64466.4
65494.2
66986.4
67973.1
69121
70059.7
70940.7
71849.8
72506.1
73420.3
73861.1
74828.3
75028.8
76116.1
76015.2
77323
76815.6
78496
77416
79695.1
77792.1
80985.9
77915.4
105277
105231
105175
105075
104980
104837
104706
104525
104368
104166
103998
103781
103596
103343
103123
102813
102557
102186
101904
101459
101150
100603
100271
99589.5
99243.5
98382.6
98039
96932.5
96619.2
95171
94935.4
93005.1
92925.2
90304.9
90507.7
86886.8
87577
82485.3
83992.5
76711.1
79567.3
68985.9
74056.8
58452.9
67172.5
43858.5
58595.6
23229.1
47737.6
-7172.06
32799.3
-53869.5
12578.8
-117523
-4035.27
-72764.5
4825.11
-34891.3
16293.8
-7954.08
24895.5
10265.4
31689.2
23560.7
37971.2
33971.9
43845.2
42281.2
49161.3
48985.4
53875.1
54437.3
57977
58880.8
61489.3
62511.9
64469.1
65497.6
66988.9
67975.8
69123.2
70061.7
70942.6
71851.2
72507.9
73421.2
73863.1
74828.8
75031
76116.1
76017.8
77322.2
76818.6
78494.4
77419.1
79692.9
77795.1
80983.6
77917.1
105285
105239
105182
105081
104986
104842
104710
104529
104370
104169
103999
103782
103597
103344
103124
102814
102558
102188
101906
101461
101152
100606
100273
99592.7
99246.4
98386.3
98042.3
96936.7
96622.8
95176.1
94939.4
93011.1
92929.6
90312.1
90512.5
86895.3
87582.2
82495.4
83998.1
76723.1
79572.8
68999.7
74061.8
58468.2
67176.3
43875.3
58599.6
23248.7
47745.3
-7154.55
32806.3
-53901.3
12555.5
-117762
-4104.42
-72801.5
4804.19
-34889.8
16287.6
-7944.37
24894.1
10274.1
31686.9
23566.4
37969
33976.6
43844.2
42285.6
49161.6
48989.7
53876.5
54441.6
57979.2
58885
61491.9
62515.8
64471.8
65501
66991.4
67978.5
69125.5
70063.7
70944.6
71852.6
72509.8
73422.1
73865
74829.2
75033.3
76116
76020.5
77321.5
76821.6
78492.9
77422.3
79690.6
77798
80981.3
77918.8
105293
105246
105190
105088
104992
104847
104715
104532
104373
104171
104001
103784
103598
103345
103125
102816
102560
102190
101908
101464
101155
100608
100276
99595.9
99249.4
98390
98045.5
96941.1
96626.5
95181.1
94943.5
93017.1
92934.1
90319.2
90517.4
86903.9
87587.5
82505.6
84003.6
76735.2
79578.4
69013.7
74066.7
58483.6
67180.2
43892.2
58603.6
23268.4
47753.1
-7136.86
32813.3
-53933.1
12532.2
-118003
-4174.07
-72838.5
4783.38
-34888.3
16281.1
-7934.81
24892.6
10282.7
31684.6
23572.1
37966.8
33981.3
43843.2
42290.1
49161.8
48994.1
53877.8
54446
57981.3
58889.3
61494.5
62519.8
64474.5
65504.3
66994
67981.3
69127.7
70065.8
70946.5
71854
72511.6
73422.9
73867
74829.7
75035.5
76116
76023.1
77320.8
76824.6
78491.3
77425.5
79688.3
77801
80978.9
77920.6
105302
105254
105197
105094
104998
104852
104719
104536
104376
104173
104003
103785
103599
103347
103127
102818
102562
102192
101910
101466
101157
100611
100279
99599.1
99252.4
98393.7
98048.9
96945.4
96630.2
95186.3
94947.6
93023.1
92938.6
90326.4
90522.3
86912.4
87592.8
82515.8
84009.2
76747.3
79584
69027.7
74071.7
58499.2
67184.1
43909.2
58607.7
23288.2
47761
-7118.98
32820.6
-53964.9
12508.9
-118246
-4244.21
-72875.4
4762.69
-34886.7
16274.5
-7925.41
24890.8
10291.2
31682.1
23577.8
37964.6
33986.1
43842.2
42294.5
49162
48998.5
53879.1
54450.5
57983.5
58893.6
61497.2
62523.7
64477.2
65507.8
66996.6
67984
69130
70067.8
70948.5
71855.4
72513.5
73423.8
73868.9
74830.1
75037.8
76115.9
76025.8
77320
76827.6
78489.7
77428.8
79686
77804
80976.5
77922.4
105310
105262
105204
105101
105005
104857
104724
104540
104379
104175
104005
103786
103601
103348
103128
102819
102564
102194
101912
101468
101159
100614
100281
99602.3
99255.3
98397.5
98052.2
96949.8
96633.9
95191.4
94951.7
93029.2
92943.1
90333.6
90527.3
86921.1
87598.1
82526.2
84014.8
76759.6
79589.6
69041.8
74076.8
58514.8
67188
43926.3
58611.8
23308.2
47768.9
-7100.92
32827.9
-53996.7
12485.5
-118491
-4314.85
-72912.3
4742.12
-34884.9
16267.7
-7916.18
24888.8
10299.7
31679.5
23583.5
37962.3
33990.9
43841.2
42299
49162.3
49002.9
53880.5
54454.9
57985.7
58897.9
61499.8
62527.7
64480
65511.2
66999.2
67986.8
69132.3
70069.9
70950.5
71856.8
72515.3
73424.7
73870.9
74830.6
75040.1
76115.9
76028.4
77319.3
76830.7
78488.1
77432.1
79683.6
77807
80974.1
77924.2
105319
105270
105212
105108
105011
104862
104729
104543
104382
104178
104006
103788
103602
103349
103130
102821
102565
102196
101915
101471
101162
100617
100284
99605.5
99258.4
98401.2
98055.5
96954.2
96637.6
95196.6
94955.8
93035.3
92947.7
90340.9
90532.2
86929.8
87603.5
82536.5
84020.5
76771.9
79595.2
69056
74081.8
58530.5
67191.9
43943.5
58615.8
23328.3
47776.9
-7082.66
32835.5
-54028.5
12462.2
-118738
-4385.98
-72949.1
4721.68
-34883
16260.8
-7907.1
24886.6
10308
31676.8
23589.1
37959.9
33995.7
43840.2
42303.5
49162.5
49007.3
53881.8
54459.4
57987.9
58902.2
61502.5
62531.6
64482.7
65514.6
67001.8
67989.6
69134.6
70071.9
70952.5
71858.2
72517.2
73425.6
73872.9
74831
75042.4
76115.8
76031.1
77318.5
76833.7
78486.5
77435.3
79681.2
77810
80971.6
77926
105327
105278
105220
105114
105017
104868
104733
104547
104385
104180
104008
103789
103603
103351
103131
102823
102567
102198
101917
101473
101164
100620
100287
99608.8
99261.4
98405
98058.9
96958.6
96641.4
95201.8
94960
93041.5
92952.2
90348.2
90537.2
86938.5
87608.9
82547
84026.2
76784.2
79600.9
69070.2
74086.9
58546.3
67195.9
43960.8
58620
23348.5
47785
-7064.22
32843.1
-54060.3
12438.9
-118987
-4457.6
-72985.8
4701.38
-34881
16253.8
-7898.18
24884.1
10316.3
31674
23594.7
37957.5
34000.4
43839.1
42308
49162.7
49011.8
53883.2
54463.9
57990.1
58906.6
61505.1
62535.7
64485.5
65518.1
67004.4
67992.4
69136.9
70074
70954.5
71859.6
72519.1
73426.5
73874.9
74831.5
75044.7
76115.8
76033.8
77317.7
76836.8
78484.8
77438.7
79678.7
77813.1
80969.1
77927.8
105336
105286
105227
105121
105023
104873
104738
104551
104388
104182
104010
103791
103604
103352
103133
102825
102569
102201
101919
101476
101167
100622
100289
99612.1
99264.4
98408.8
98062.3
96963.1
96645.1
95207
94964.2
93047.7
92956.8
90355.6
90542.3
86947.3
87614.3
82557.5
84031.9
76796.7
79606.6
69084.6
74092
58562.2
67199.9
43978.3
58624.1
23368.9
47793.1
-7045.59
32851
-54092.1
12415.5
-119238
-4529.7
-73022.5
4681.23
-34878.8
16246.6
-7889.42
24881.5
10324.4
31671.1
23600.3
37955.1
34005.2
43838.1
42312.5
49162.8
49016.3
53884.5
54468.4
57992.3
58911
61507.8
62539.7
64488.3
65521.6
67007
67995.2
69139.2
70076.1
70956.5
71861
72520.9
73427.4
73876.9
74831.9
75047
76115.7
76036.5
77317
76839.9
78483.2
77442
79676.3
77816.2
80966.6
77929.7
105344
105294
105235
105128
105030
104878
104743
104554
104391
104185
104012
103792
103606
103353
103134
102826
102571
102203
101921
101478
101169
100625
100292
99615.4
99267.5
98412.6
98065.7
96967.5
96648.9
95212.3
94968.4
93053.9
92961.5
90363
90547.3
86956.2
87619.8
82568.1
84037.6
76809.2
79612.4
69099.1
74097.2
58578.2
67203.9
43995.8
58628.2
23389.4
47801.3
-7026.76
32859
-54124
12392.2
-119491
-4602.29
-73059
4661.24
-34876.5
16239.4
-7880.81
24878.6
10332.4
31668
23605.8
37952.5
34010
43837
42317.1
49163
49020.8
53885.9
54473
57994.6
58915.4
61510.5
62543.7
64491.1
65525.1
67009.7
67998
69141.6
70078.2
70958.5
71862.4
72522.8
73428.3
73878.9
74832.4
75049.3
76115.6
76039.3
77316.2
76843
78481.5
77445.4
79673.8
77819.4
80964
77931.6
105353
105302
105243
105135
105036
104884
104747
104558
104395
104187
104013
103793
103607
103355
103135
102828
102573
102205
101923
101481
101172
100628
100295
99618.7
99270.5
98416.5
98069.1
96972
96652.7
95217.6
94972.6
93060.2
92966.1
90370.4
90552.4
86965
87625.2
82578.7
84043.4
76821.8
79618.2
69113.6
74102.4
58594.3
67207.9
44013.4
58632.4
23410
47809.6
-7007.73
32867.1
-54155.8
12368.9
-119746
-4675.36
-73095.4
4641.4
-34873.9
16232.1
-7872.34
24875.4
10340.2
31664.9
23611.4
37950
34014.8
43835.8
42321.6
49163.2
49025.3
53887.2
54477.5
57996.8
58919.8
61513.2
62547.8
64493.9
65528.6
67012.3
68000.8
69143.9
70080.3
70960.6
71863.9
72524.7
73429.2
73880.9
74832.8
75051.6
76115.6
76042
77315.4
76846.2
78479.8
77448.8
79671.3
77822.5
80961.4
77933.5
105362
105310
105250
105142
105042
104889
104752
104562
104398
104189
104015
103795
103608
103356
103137
102830
102574
102207
101925
101483
101174
100631
100298
99622
99273.6
98420.4
98072.6
96976.6
96656.6
95222.9
94976.8
93066.5
92970.8
90377.9
90557.5
86974
87630.8
82589.4
84049.2
76834.5
79624
69128.2
74107.6
58610.5
67211.9
44031.2
58636.6
23430.8
47818
-6988.51
32875.4
-54187.6
12345.6
-120003
-4748.92
-73131.8
4621.73
-34871.2
16224.6
-7864.02
24872.1
10347.9
31661.5
23616.8
37947.3
34019.6
43834.6
42326.2
49163.3
49029.8
53888.5
54482.1
57999
58924.3
61515.9
62551.9
64496.7
65532.2
67015
68003.7
69146.3
70082.4
70962.6
71865.3
72526.6
73430.1
73882.9
74833.3
75054
76115.5
76044.8
77314.6
76849.3
78478.1
77452.2
79668.7
77825.8
80958.7
77935.5
105371
105318
105258
105149
105049
104895
104757
104566
104401
104192
104017
103796
103609
103357
103138
102831
102576
102209
101927
101486
101177
100634
100300
99625.4
99276.7
98424.3
98076
96981.1
96660.4
95228.2
94981.1
93072.8