/*--------------------------------*- C++ -*----------------------------------*\
| =========                 |                                                 |
| \\      /  F ield         | OpenFOAM: The Open Source CFD Toolbox           |
|  \\    /   O peration     | Version:  2412                                  |
|   \\  /    A nd           | Website:  www.openfoam.com                      |
|    \\/     M anipulation  |                                                 |
\*---------------------------------------------------------------------------*/
FoamFile
{
    version     2.0;
    format      ascii;
    arch        "LSB;label=32;scalar=64";
    class       surfaceScalarField;
    location    "0.8";
    object      phi;
}
// * * * * * * * * * * * * * * * * * * * * * * * * * * * * * * * * * * * * * //

dimensions      [0 3 -1 0 0 0 0];

oriented        oriented;

internalField   nonuniform List<scalar> 
25689
(
0.0074779
0.013356
0.0073955
0.0116913
0.00732664
0.0102105
0.00726831
0.00897695
0.00721924
0.00777719
0.00717931
0.00630667
0.00715052
0.00412537
0.00713461
0.00118905
0.00713367
-0.00221414
0.00714962
-0.00551293
0.00718367
-0.00816001
0.00723464
-0.00979345
0.00729763
-0.0102951
0.00736483
-0.00983638
0.00742786
-0.00874438
0.0074816
-0.00747254
0.00752521
-0.00630889
0.00756145
-0.00545165
0.0075927
-0.00477893
0.00762085
-0.0042838
0.00764607
-0.00380939
0.00766915
-0.00344834
0.00768968
-0.00305088
0.0077087
-0.00280141
0.00772541
-0.00245846
0.0077411
-0.00229085
0.00775452
-0.00197098
0.00776736
-0.00187284
0.00777775
-0.00153842
0.00778819
-0.00152519
0.00779579
-0.0011457
0.00780409
-0.00121595
0.00780894
-0.000757271
0.00781541
-0.000946194
0.00781752
-0.000376502
0.00782243
-0.000718055
0.00782156
1.50305e-05
0.00782513
-0.000555648
0.00782089
0.000398937
0.00782334
-0.000501467
0.00781588
0.00066
0.007819
-0.000767854
0.00781096
0.000534113
0.00781968
-0.00159069
0.00781708
-0.000110409
0.0078375
-0.00272472
0.00784239
-0.000393971
0.00786618
-0.00202221
0.00786072
0.00232502
0.00785031
0.00460976
0.00779637
0.0114849
0.00764412
0.0272547
0.00736876
0.0440739
0.00742652
-0.00786409
0.00762003
-0.0297118
0.00773657
-0.0176528
0.00777733
-0.00819645
0.00781108
-0.00686093
0.00780914
-0.00144649
0.00780907
-0.00118547
0.00778768
0.00196087
0.00777709
0.000888077
0.00775836
0.00228965
0.00775328
0.000779489
0.00774438
0.00143179
0.00774608
0.000132093
0.00774468
0.00057271
0.00775067
-0.000349674
0.00775376
4.41336e-05
0.00776125
-0.000538384
0.00776541
-0.000152956
0.00777112
-0.000419587
0.00777298
1.32941e-06
0.00777437
-1.64333e-05
0.0077718
0.000418496
0.00776771
0.000547996
0.0077601
0.000941221
0.0077507
0.00112677
0.00773878
0.00141091
0.0077256
0.00155511
0.00771119
0.00170291
0.00769627
0.00178608
0.00768146
0.00179039
0.00766671
0.00182498
0.00765299
0.00171288
0.00763926
0.00174429
0.00762686
0.00155877
0.00761378
0.0016243
0.00760223
0.00136169
0.0075889
0.00149121
0.00757752
0.00113935
0.00756332
0.00129741
0.00755203
0.000818498
0.00753724
0.000921677
0.00752681
0.000292543
0.00751356
0.000165609
0.00750644
-0.000633236
0.00750059
-0.00119453
-0.00276217
0.00747794
0.0134538
0.00739568
0.0117736
0.00732701
0.0102791
0.00726891
0.00903504
0.00722007
0.00782603
0.00718033
0.00634642
0.00715158
0.00415413
0.00713552
0.0012051
0.00713421
-0.00221283
0.00714961
-0.00552833
0.00718302
-0.00819341
0.00723339
-0.00984383
0.00729596
-0.0103576
0.00736296
-0.00990338
0.00742594
-0.00880736
0.00747968
-0.00752628
0.00752325
-0.00635247
0.00755941
-0.00548781
0.00759059
-0.0048101
0.00761865
-0.00431186
0.00764381
-0.00383455
0.00766683
-0.00347136
0.00768731
-0.00307137
0.0077063
-0.0028204
0.00772297
-0.00247513
0.00773863
-0.00230651
0.00775202
-0.00198437
0.00776485
-0.00188566
0.00777521
-0.00154879
0.00778563
-0.00153561
0.00779321
-0.00115328
0.00780149
-0.00122424
0.00780631
-0.000762092
0.00781277
-0.000952649
0.00781486
-0.000378593
0.00781975
-0.000722944
0.00781887
1.59148e-05
0.00782242
-0.000559199
0.00781814
0.000403214
0.00782055
-0.000503882
0.00781303
0.000667527
0.00781609
-0.000770913
0.00780796
0.000542242
0.00781661
-0.00159934
0.00781394
-0.000107735
0.00783437
-0.00274515
0.00783932
-0.000398921
0.00786333
-0.00204622
0.00785814
0.00233021
0.00784824
0.00461966
0.00779498
0.0115382
0.00764388
0.0274058
0.00736985
0.0443479
0.00742769
-0.00792192
0.00762058
-0.0299047
0.00773673
-0.0177689
0.00777701
-0.00823673
0.00781033
-0.00689425
0.00780807
-0.00144423
0.00780775
-0.00118515
0.00778616
0.00198246
0.00777545
0.000898794
0.00775664
0.00230846
0.00775153
0.000784596
0.00774262
0.00144069
0.00774434
0.000130381
0.00774296
0.000574089
0.00774897
-0.000355688
0.00775209
4.10179e-05
0.00775961
-0.000545908
0.0077638
-0.000157147
0.00776954
-0.000425324
0.00777142
-5.54765e-07
0.00777283
-1.78353e-05
0.00777027
0.000421053
0.00776617
0.000552094
0.00775856
0.000948836
0.00774913
0.00113619
0.00773719
0.00142285
0.00772397
0.00156832
0.00770953
0.00171736
0.00769458
0.00180103
0.00767974
0.00180523
0.00766498
0.00183975
0.00765125
0.00172661
0.00763751
0.00175802
0.00762511
0.00157118
0.00761203
0.00163738
0.00760047
0.00137325
0.00758712
0.00150456
0.0075757
0.00115077
0.00756144
0.00131167
0.00755009
0.000829853
0.00753517
0.000936592
0.00752463
0.000303088
0.00751118
0.000179053
0.00750389
-0.000625941
0.00749777
-0.00118842
-0.00276864
0.00747799
0.0135516
0.00739585
0.0118557
0.00732738
0.0103476
0.00726952
0.0090929
0.00722092
0.00787463
0.00718136
0.00638599
0.00715265
0.00418283
0.00713645
0.0012213
0.00713476
-0.00221114
0.00714961
-0.00554317
0.00718236
-0.00822617
0.00723213
-0.0098936
0.00729427
-0.0104198
0.00736106
-0.00997016
0.007424
-0.0088703
0.00747773
-0.00758001
0.00752127
-0.006396
0.00755736
-0.0055239
0.00758844
-0.00484118
0.00761643
-0.00433985
0.00764152
-0.00385964
0.00766449
-0.00349433
0.00768493
-0.0030918
0.00770387
-0.00283934
0.00772051
-0.00249177
0.00773614
-0.00232214
0.00774951
-0.00199774
0.00776231
-0.00189846
0.00777265
-0.00155913
0.00778305
-0.001546
0.00779061
-0.00116084
0.00779887
-0.0012325
0.00780367
-0.000766893
0.00781011
-0.000959088
0.00781218
-0.000380663
0.00781706
-0.000727818
0.00781615
1.68225e-05
0.00781968
-0.00056273
0.00781537
0.000407525
0.00781775
-0.000506263
0.00781016
0.000675115
0.00781316
-0.000773909
0.00780493
0.000550466
0.00781351
-0.00160792
0.00781077
-0.00010499
0.00783122
-0.0027656
0.00783623
-0.000403937
0.00786046
-0.00207045
0.00785554
0.00233513
0.00784616
0.00462904
0.00779358
0.0115908
0.00764364
0.0275558
0.00737094
0.0446206
0.00742886
-0.00797984
0.00762115
-0.030097
0.0077369
-0.0178847
0.0077767
-0.00827653
0.00780958
-0.00692713
0.00780699
-0.00144164
0.00780643
-0.00118459
0.00778464
0.00200425
0.00777379
0.000909647
0.0077549
0.00232735
0.00774977
0.00078973
0.00774086
0.0014496
0.00774259
0.000128655
0.00774122
0.000575451
0.00774726
-0.000361727
0.00775041
3.78732e-05
0.00775796
-0.000553465
0.00776219
-0.000161371
0.00776795
-0.00043109
0.00776986
-2.46153e-06
0.00777128
-1.92535e-05
0.00776873
0.000423603
0.00776463
0.000556193
0.007757
0.000956462
0.00774756
0.00114564
0.00773559
0.00143482
0.00772235
0.00158157
0.00770787
0.00173184
0.00769289
0.001816
0.00767803
0.0018201
0.00766325
0.00185453
0.0076495
0.00174036
0.00763577
0.00177175
0.00762336
0.00158358
0.00761027
0.00165047
0.0075987
0.00138482
0.00758533
0.00151794
0.00757388
0.00116222
0.00755956
0.001326
0.00754813
0.000841277
0.0075331
0.000951628
0.00752244
0.000313749
0.00750879
0.0001927
0.00750132
-0.000618469
0.00749493
-0.00118203
-0.0027749
0.00747804
0.0136493
0.00739603
0.0119377
0.00732775
0.0104159
0.00727013
0.00915052
0.00722178
0.00792298
0.00718239
0.00642537
0.00715374
0.00421149
0.00713738
0.00123766
0.00713533
-0.00220909
0.00714961
-0.00555746
0.00718171
-0.00825827
0.00723087
-0.00994276
0.00729258
-0.0104815
0.00735915
-0.0100367
0.00742203
-0.00893318
0.00747577
-0.00763374
0.00751927
-0.00643951
0.00755529
-0.00555992
0.00758629
-0.00487218
0.00761419
-0.00436775
0.00763922
-0.00388467
0.00766213
-0.00351725
0.00768252
-0.00311219
0.00770143
-0.00285825
0.00771804
-0.00250838
0.00773364
-0.00233775
0.00774698
-0.00201108
0.00775975
-0.00191124
0.00777008
-0.00156945
0.00778045
-0.00155638
0.00778799
-0.00116838
0.00779624
-0.00124075
0.00780102
-0.000771674
0.00780744
-0.00096551
0.00780949
-0.000382712
0.00781435
-0.000732675
0.00781341
1.77535e-05
0.00781693
-0.000566242
0.00781258
0.00041187
0.00781493
-0.000508609
0.00780728
0.000682766
0.00781021
-0.000776841
0.00780189
0.000558784
0.0078104
-0.00161643
0.00780758
-0.00010217
0.00782804
-0.00278606
0.00783312
-0.000409018
0.00785757
-0.0020949
0.00785292
0.00233978
0.00784406
0.0046379
0.00779216
0.0116427
0.00764339
0.0277045
0.00737205
0.0448919
0.00743005
-0.00803785
0.00762172
-0.0302887
0.00773708
-0.0180001
0.0077764
-0.00831585
0.00780884
-0.00695957
0.00780592
-0.00143873
0.0078051
-0.00118377
0.00778312
0.00202624
0.00777212
0.000920637
0.00775315
0.00234632
0.00774799
0.000794891
0.00773909
0.00145851
0.00774083
0.000126914
0.00773948
0.000576796
0.00774555
-0.000367792
0.00774872
3.47001e-05
0.00775631
-0.000561056
0.00776057
-0.000165626
0.00776636
-0.000436887
0.00776829
-4.39113e-06
0.00776973
-2.06882e-05
0.00776718
0.000426146
0.00776308
0.000560294
0.00775545
0.0009641
0.00774598
0.0011551
0.00773398
0.00144682
0.00772071
0.00159484
0.0077062
0.00174635
0.00769119
0.00183101
0.0076763
0.00183499
0.00766151
0.00186932
0.00764775
0.00175411
0.00763401
0.00178549
0.0076216
0.00159599
0.00760851
0.00166356
0.00759693
0.0013964
0.00758353
0.00153134
0.00757205
0.0011737
0.00755766
0.00134038
0.00754617
0.000852772
0.00753101
0.000966785
0.00752023
0.000324529
0.00750638
0.000206551
0.00749873
-0.000610816
0.00749207
-0.00117537
-0.00278095
0.00747809
0.013747
0.00739621
0.0120196
0.00732813
0.010484
0.00727075
0.0092079
0.00722264
0.00797109
0.00718344
0.00646457
0.00715484
0.00424009
0.00713834
0.00125416
0.00713591
-0.00220666
0.00714963
-0.00557118
0.00718107
-0.00828971
0.00722962
-0.00999131
0.00729088
-0.0105427
0.00735723
-0.0101031
0.00742006
-0.008996
0.00747378
-0.00768747
0.00751726
-0.00648298
0.0075532
-0.00559586
0.00758412
-0.0049031
0.00761194
-0.00439558
0.0076369
-0.00390963
0.00765976
-0.0035401
0.0076801
-0.00313253
0.00769897
-0.00287712
0.00771555
-0.00252495
0.00773112
-0.00235332
0.00774443
-0.00202439
0.00775718
-0.00192399
0.00776748
-0.00157975
0.00777784
-0.00156673
0.00778536
-0.00117589
0.00779358
-0.00124897
0.00779834
-0.000776435
0.00780475
-0.000971915
0.00780678
-0.000384741
0.00781162
-0.000737516
0.00781066
1.87079e-05
0.00781416
-0.000569735
0.00780978
0.000416249
0.00781209
-0.000510921
0.00780438
0.000690478
0.00780724
-0.000779709
0.00779883
0.000567199
0.00780726
-0.00162486
0.00780437
-9.92775e-05
0.00782485
-0.00280654
0.00782999
-0.000414164
0.00785466
-0.00211957
0.00785028
0.00234416
0.00784194
0.00464624
0.00779073
0.0116939
0.00764314
0.0278521
0.00737316
0.0451619
0.00743125
-0.00809594
0.00762231
-0.0304798
0.00773728
-0.018115
0.00777611
-0.00835468
0.0078081
-0.00699156
0.00780485
-0.00143547
0.00780377
-0.00118269
0.00778158
0.00204843
0.00777045
0.000931768
0.0077514
0.00236537
0.00774621
0.000800078
0.0077373
0.00146742
0.00773906
0.000125157
0.00773773
0.000578124
0.00774382
-0.000373882
0.00774702
3.14978e-05
0.00775465
-0.000568683
0.00775893
-0.000169915
0.00776476
-0.000442714
0.00776671
-6.34357e-06
0.00776817
-2.21395e-05
0.00776563
0.000428683
0.00776153
0.000564396
0.00775388
0.000971749
0.0077444
0.00116458
0.00773237
0.00145885
0.00771906
0.00160815
0.00770452
0.0017609
0.00768948
0.00184604
0.00767456
0.00184991
0.00765975
0.00188413
0.00764599
0.00176788
0.00763224
0.00179923
0.00761983
0.0016084
0.00760674
0.00167665
0.00759515
0.00140799
0.00758173
0.00154476
0.00757021
0.00118522
0.00755576
0.00135482
0.0075442
0.000864337
0.00752892
0.000982065
0.00751802
0.000335427
0.00750396
0.00022061
0.00749613
-0.000602982
0.00748919
-0.00116843
-0.00278678
0.00747814
0.0138446
0.00739639
0.0121013
0.00732852
0.0105518
0.00727138
0.00926504
0.00722352
0.00801895
0.00718451
0.00650358
0.00715595
0.00426865
0.0071393
0.00127081
0.00713651
-0.00220386
0.00714966
-0.00558434
0.00718044
-0.00832048
0.00722836
-0.0100392
0.00728917
-0.0106035
0.0073553
-0.0101692
0.00741806
-0.00905877
0.00747179
-0.0077412
0.00751523
-0.00652643
0.0075511
-0.00563174
0.00758193
-0.00493392
0.00760968
-0.00442333
0.00763457
-0.00393452
0.00765737
-0.00356291
0.00767767
-0.00315283
0.0076965
-0.00289595
0.00771304
-0.00254149
0.00772858
-0.00236886
0.00774187
-0.00203767
0.0077546
-0.00193672
0.00776488
-0.00159003
0.00777521
-0.00157707
0.00778271
-0.00118339
0.00779091
-0.00125718
0.00779565
-0.000781175
0.00780204
-0.000978303
0.00780405
-0.000386749
0.00780888
-0.000742341
0.0078079
1.96856e-05
0.00781137
-0.000573208
0.00780696
0.000420662
0.00780923
-0.000513198
0.00780146
0.000698253
0.00780426
-0.000782511
0.00779575
0.000575711
0.00780411
-0.00163322
0.00780114
-9.63095e-05
0.00782163
-0.00282703
0.00782684
-0.000419376
0.00785173
-0.00214445
0.00784762
0.00234826
0.00783981
0.00465405
0.00778928
0.0117444
0.00764288
0.0279985
0.00737428
0.0454305
0.00743246
-0.00815413
0.00762291
-0.0306702
0.00773748
-0.0182296
0.00777582
-0.00839302
0.00780737
-0.00702311
0.00780378
-0.00143189
0.00780243
-0.00118135
0.00778003
0.00207084
0.00776876
0.00094304
0.00774963
0.0023845
0.00774441
0.000805292
0.0077355
0.00147633
0.00773727
0.000123385
0.00773596
0.000579434
0.00774208
-0.000379999
0.00774531
2.82658e-05
0.00775297
-0.000576345
0.0077573
-0.000174236
0.00776315
-0.000448572
0.00776513
-8.31964e-06
0.0077666
-2.36075e-05
0.00776407
0.000431212
0.00775997
0.000568499
0.00775231
0.000979409
0.0077428
0.00117409
0.00773075
0.0014709
0.00771741
0.00162149
0.00770283
0.00177548
0.00768776
0.0018611
0.00767282
0.00186485
0.00765799
0.00189896
0.00764421
0.00178166
0.00763047
0.00181297
0.00761805
0.00162082
0.00760496
0.00168975
0.00759335
0.00141959
0.00757991
0.0015582
0.00756836
0.00119677
0.00755385
0.00136933
0.00754221
0.000875974
0.00752681
0.000997468
0.00751579
0.000346446
0.00750153
0.000234876
0.00749351
-0.000594964
0.00748629
-0.00116121
-0.00279238
0.00747819
0.0139422
0.00739657
0.012183
0.0073289
0.0106195
0.00727201
0.00932193
0.0072244
0.00806656
0.00718558
0.0065424
0.00715708
0.00429715
0.00714028
0.00128761
0.00713712
-0.0022007
0.00714971
-0.00559693
0.00717982
-0.00835059
0.00722711
-0.0100865
0.00728746
-0.0106639
0.00735335
-0.0102351
0.00741605
-0.00912148
0.00746978
-0.00779492
0.00751319
-0.00656984
0.00754899
-0.00566754
0.00757973
-0.00496466
0.0076074
-0.004451
0.00763223
-0.00395934
0.00765497
-0.00358566
0.00767522
-0.00317308
0.00769401
-0.00291474
0.00771052
-0.00255799
0.00772603
-0.00238438
0.00773929
-0.00205093
0.007752
-0.00194943
0.00776225
-0.00160028
0.00777256
-0.00158738
0.00778004
-0.00119086
0.00778823
-0.00126537
0.00779295
-0.000785894
0.00779932
-0.000984675
0.00780131
-0.000388736
0.00780612
-0.000747149
0.00780511
2.0687e-05
0.00780857
-0.000576661
0.00780412
0.00042511
0.00780636
-0.00051544
0.00779852
0.000706092
0.00780126
-0.000785249
0.00779265
0.00058432
0.00780093
-0.00164151
0.00779789
-9.32651e-05
0.00781839
-0.00284753
0.00782367
-0.000424653
0.00784878
-0.00216956
0.00784494
0.00235209
0.00783766
0.00466134
0.00778782
0.0117942
0.00764262
0.0281437
0.0073754
0.0456977
0.00743369
-0.00821242
0.00762352
-0.03086
0.00773769
-0.0183438
0.00777555
-0.00843088
0.00780664
-0.0070542
0.0078027
-0.00142795
0.00780109
-0.00117974
0.00777848
0.00209345
0.00776706
0.000954457
0.00774784
0.00240372
0.0077426
0.000810531
0.00773369
0.00148524
0.00773548
0.000121596
0.00773419
0.000580725
0.00774033
-0.000386142
0.0077436
2.50036e-05
0.00775129
-0.000584043
0.00775565
-0.00017859
0.00776154
-0.000454461
0.00776354
-1.03193e-05
0.00776502
-2.50925e-05
0.0077625
0.000433734
0.0077584
0.000572604
0.00775072
0.000987081
0.0077412
0.00118361
0.00772912
0.00148298
0.00771575
0.00163486
0.00770113
0.00179009
0.00768604
0.0018762
0.00767107
0.00187982
0.00765622
0.00191381
0.00764243
0.00179545
0.00762868
0.00182672
0.00761627
0.00163323
0.00760317
0.00170285
0.00759155
0.00143121
0.00757809
0.00157166
0.0075665
0.00120836
0.00755193
0.0013839
0.00754022
0.000887682
0.00752469
0.001013
0.00751355
0.000357586
0.00749908
0.000249354
0.00749087
-0.00058676
0.00748337
-0.00115371
-0.00279776
0.00747824
0.0140397
0.00739675
0.0122644
0.0073293
0.010687
0.00727265
0.00937857
0.0072253
0.00811392
0.00718667
0.00658104
0.00715822
0.0043256
0.00714128
0.00130454
0.00713775
-0.00219716
0.00714977
-0.00560896
0.00717921
-0.00838002
0.00722586
-0.0101332
0.00728574
-0.0107238
0.00735139
-0.0103008
0.00741403
-0.00918412
0.00746775
-0.00784863
0.00751113
-0.00661322
0.00754686
-0.00570327
0.00757752
-0.00499532
0.00760511
-0.00447859
0.00762986
-0.0039841
0.00765256
-0.00360835
0.00767276
-0.00319328
0.00769151
-0.00293349
0.00770798
-0.00257446
0.00772347
-0.00239986
0.0077367
-0.00206416
0.00774938
-0.00196211
0.00775961
-0.00161051
0.0077699
-0.00159768
0.00777736
-0.00119832
0.00778553
-0.00127354
0.00779023
-0.000790593
0.00779658
-0.000991028
0.00779855
-0.000390703
0.00780334
-0.00075194
0.00780231
2.17125e-05
0.00780575
-0.000580096
0.00780127
0.000429592
0.00780347
-0.000517648
0.00779557
0.000713994
0.00779824
-0.00078792
0.00778953
0.000593028
0.00779774
-0.00164971
0.00779462
-9.01438e-05
0.00781513
-0.00286804
0.00782047
-0.000429994
0.0078458
-0.00219489
0.00784225
0.00235565
0.00783549
0.0046681
0.00778634
0.0118434
0.00764234
0.0282877
0.00737654
0.0459635
0.00743493
-0.00827081
0.00762413
-0.0310492
0.00773792
-0.0184575
0.00777528
-0.00846824
0.00780591
-0.00708482
0.00780163
-0.00142367
0.00779974
-0.00117785
0.00777691
0.00211628
0.00776535
0.00096602
0.00774605
0.00242302
0.00774078
0.000815796
0.00773187
0.00149415
0.00773368
0.00011979
0.00773241
0.000581998
0.00773858
-0.000392313
0.00774187
2.1711e-05
0.0077496
-0.000591777
0.00775399
-0.000182979
0.00775991
-0.000460382
0.00776194
-1.23431e-05
0.00776344
-2.65944e-05
0.00776093
0.000436248
0.00775682
0.000576711
0.00774914
0.000994765
0.00773959
0.00119315
0.00772748
0.00149509
0.00771408
0.00164827
0.00769943
0.00180475
0.0076843
0.00189133
0.0076693
0.00189482
0.00765444
0.00192867
0.00764064
0.00180925
0.00762689
0.00184047
0.00761447
0.00164565
0.00760137
0.00171595
0.00758974
0.00144283
0.00757625
0.00158515
0.00756463
0.00121998
0.00755
0.00139853
0.00753822
0.000899463
0.00752257
0.00102865
0.0075113
0.000368848
0.00749661
0.000264045
0.00748822
-0.000578369
0.00748043
-0.00114591
-0.00280291
0.00747829
0.0141372
0.00739694
0.0123458
0.0073297
0.0107542
0.0072733
0.00943496
0.0072262
0.00816102
0.00718777
0.00661947
0.00715938
0.00435399
0.00714229
0.00132163
0.00713839
-0.00219326
0.00714985
-0.00562042
0.00717861
-0.00840878
0.00722462
-0.0101792
0.00728402
-0.0107832
0.00734942
-0.0103662
0.00741199
-0.00924669
0.00746571
-0.00790235
0.00750906
-0.00665658
0.00754472
-0.00573894
0.00757529
-0.00502589
0.0076028
-0.00450609
0.00762749
-0.00400879
0.00765012
-0.00363098
0.00767028
-0.00321343
0.00768899
-0.00295221
0.00770543
-0.0025909
0.00772088
-0.00241532
0.00773409
-0.00207736
0.00774675
-0.00197477
0.00775695
-0.00162072
0.00776723
-0.00160795
0.00777466
-0.00120575
0.00778281
-0.0012817
0.00778749
-0.000795271
0.00779382
-0.000997365
0.00779577
-0.000392648
0.00780055
-0.000756715
0.0077995
2.27615e-05
0.00780291
-0.00058351
0.00779839
0.000434108
0.00780057
-0.00051982
0.0077926
0.000721959
0.00779521
-0.000790526
0.0077864
0.000601835
0.00779453
-0.00165784
0.00779133
-8.69444e-05
0.00781185
-0.00288857
0.00781726
-0.0004354
0.00784281
-0.00222044
0.00783953
0.00235893
0.0078333
0.00467433
0.00778485
0.0118918
0.00764207
0.0284305
0.00737768
0.0462279
0.00743618
-0.00832931
0.00762477
-0.0312378
0.00773816
-0.0185709
0.00777503
-0.00850512
0.0078052
-0.00711499
0.00780056
-0.00141904
0.00779839
-0.00117568
0.00777534
0.00213933
0.00776362
0.000977733
0.00774424
0.0024424
0.00773895
0.000821086
0.00773004
0.00150305
0.00773187
0.000117965
0.00773061
0.000583251
0.00773681
-0.00039851
0.00774014
1.83869e-05
0.00774791
-0.000599548
0.00775233
-0.000187402
0.00775828
-0.000466335
0.00776033
-1.43907e-05
0.00776185
-2.81137e-05
0.00775934
0.000438756
0.00775524
0.000580819
0.00774754
0.00100246
0.00773798
0.00120271
0.00772584
0.00150723
0.0077124
0.00166171
0.00769771
0.00181943
0.00768255
0.00190649
0.00766753
0.00190984
0.00765265
0.00194355
0.00763884
0.00182307
0.00762509
0.00185422
0.00761266
0.00165808
0.00759956
0.00172906
0.00758792
0.00145447
0.00757441
0.00159866
0.00756275
0.00123164
0.00754806
0.00141323
0.0075362
0.000911316
0.00752043
0.00104443
0.00750904
0.000380233
0.00749413
0.000278951
0.00748555
-0.000569787
0.00747747
-0.00113782
-0.00280784
0.00747834
0.0142346
0.00739713
0.012427
0.0073301
0.0108212
0.00727396
0.0094911
0.00722712
0.00820786
0.00718888
0.00665772
0.00716055
0.00438232
0.00714332
0.00133885
0.00713905
-0.00218899
0.00714995
-0.00563132
0.00717803
-0.00843686
0.00722338
-0.0102245
0.00728229
-0.0108421
0.00734744
-0.0104313
0.00740994
-0.00930919
0.00746365
-0.00795606
0.00750698
-0.00669991
0.00754257
-0.00577453
0.00757305
-0.00505637
0.00760048
-0.00453352
0.0076251
-0.00403341
0.00764768
-0.00365356
0.00766778
-0.00323354
0.00768646
-0.00297088
0.00770286
-0.0026073
0.00771829
-0.00243075
0.00773146
-0.00209054
0.0077441
-0.00198741
0.00775428
-0.0016309
0.00776453
-0.0016182
0.00777194
-0.00121316
0.00778008
-0.00128983
0.00778473
-0.000799928
0.00779105
-0.00100368
0.00779298
-0.000394572
0.00779774
-0.000761473
0.00779666
2.38344e-05
0.00780006
-0.000586905
0.00779551
0.00043866
0.00779764
-0.000521957
0.00778961
0.000729989
0.00779215
-0.000793065
0.00778324
0.000610742
0.0077913
-0.00166589
0.00778802
-8.36654e-05
0.00780855
-0.0029091
0.00781402
-0.000440871
0.0078398
-0.00224622
0.00783679
0.00236194
0.0078311
0.00468002
0.00778335
0.0119396
0.00764179
0.0285721
0.00737883
0.0464909
0.00743744
-0.00838792
0.00762541
-0.0314258
0.00773841
-0.0186839
0.0077748
-0.00854151
0.00780449
-0.00714468
0.00779949
-0.00141404
0.00779703
-0.00117321
0.00777375
0.00216261
0.00776189
0.000989598
0.00774242
0.00246187
0.00773711
0.0008264
0.0077282
0.00151196
0.00773004
0.000116123
0.00772881
0.000584484
0.00773504
-0.000404736
0.00773839
1.50317e-05
0.0077462
-0.000607357
0.00775066
-0.00019186
0.00775664
-0.00047232
0.00775872
-1.64626e-05
0.00776025
-2.96504e-05
0.00775775
0.000441256
0.00775364
0.000584928
0.00774594
0.00101017
0.00773635
0.00121229
0.00772419
0.0015194
0.00771071
0.00167518
0.00769599
0.00183416
0.0076808
0.00192168
0.00766575
0.00192489
0.00765085
0.00195844
0.00763703
0.00183689
0.00762327
0.00186797
0.00761085
0.0016705
0.00759774
0.00174216
0.00758609
0.00146612
0.00757256
0.0016122
0.00756087
0.00124334
0.00754611
0.00142798
0.00753418
0.000923243
0.00751827
0.00106033
0.00750677
0.000391743
0.00749164
0.000294074
0.00748287
-0.000561014
0.00747448
-0.00112944
-0.00281253
0.00747839
0.0143319
0.00739732
0.0125081
0.0073305
0.0108881
0.00727462
0.00954698
0.00722805
0.00825444
0.00719
0.00669576
0.00716173
0.00441058
0.00714437
0.00135621
0.00713973
-0.00218435
0.00715006
-0.00564164
0.00717745
-0.00846426
0.00722215
-0.0102692
0.00728057
-0.0109005
0.00734545
-0.0104962
0.00740787
-0.00937161
0.00746158
-0.00800976
0.00750488
-0.00674321
0.0075404
-0.00581005
0.0075708
-0.00508677
0.00759814
-0.00456087
0.0076227
-0.00405796
0.00764522
-0.00367608
0.00766528
-0.0032536
0.00768391
-0.00298951
0.00770028
-0.00262367
0.00771567
-0.00244615
0.00772882
-0.00210369
0.00774144
-0.00200002
0.00775159
-0.00164106
0.00776182
-0.00162843
0.00776921
-0.00122054
0.00777733
-0.00129794
0.00778196
-0.000804563
0.00778826
-0.00100999
0.00779017
-0.000396474
0.00779491
-0.000766215
0.00779381
2.49319e-05
0.00779719
-0.00059028
0.0077926
0.000443246
0.0077947
-0.00052406
0.00778661
0.000738083
0.00778908
-0.000795537
0.00778007
0.000619751
0.00778804
-0.00167387
0.00778469
-8.03066e-05
0.00780523
-0.00292964
0.00781076
-0.000446405
0.00783677
-0.00227223
0.00783404
0.00236467
0.00782888
0.00468518
0.00778183
0.0119866
0.0076415
0.0287124
0.00737999
0.0467524
0.00743872
-0.00844665
0.00762607
-0.0316131
0.00773868
-0.0187965
0.00777457
-0.0085774
0.00780379
-0.0071739
0.00779843
-0.00140868
0.00779567
-0.00117046
0.00777216
0.00218613
0.00776014
0.00100162
0.00774059
0.00248142
0.00773525
0.000831738
0.00772635
0.00152086
0.00772821
0.000114261
0.007727
0.000585697
0.00773325
-0.000410991
0.00773664
1.16447e-05
0.00774449
-0.000615203
0.00774898
-0.000196354
0.007755
-0.000478337
0.00775709
-1.8559e-05
0.00775865
-3.12049e-05
0.00775616
0.000443748
0.00775204
0.000589039
0.00774433
0.00101789
0.00773472
0.0012219
0.00772252
0.0015316
0.00770902
0.00168868
0.00769426
0.00184892
0.00767904
0.0019369
0.00766396
0.00193997
0.00764904
0.00197336
0.00763521
0.00185072
0.00762145
0.00188173
0.00760902
0.00168293
0.00759591
0.00175527
0.00758426
0.00147778
0.0075707
0.00162575
0.00755897
0.00125507
0.00754415
0.0014428
0.00753215
0.000935244
0.00751611
0.00107637
0.00750448
0.000403378
0.00748913
0.000309417
0.00748017
-0.000552047
0.00747148
-0.00112076
-0.00281698
0.00747844
0.0144293
0.00739752
0.012589
0.00733092
0.0109547
0.0072753
0.0096026
0.00722898
0.00830075
0.00719114
0.00673361
0.00716293
0.00443879
0.00714543
0.00137371
0.00714043
-0.00217934
0.00715019
-0.0056514
0.00717689
-0.00849097
0.00722092
-0.0103133
0.00727883
-0.0109584
0.00734344
-0.0105608
0.00740579
-0.00943395
0.00745949
-0.00806346
0.00750276
-0.00678648
0.00753822
-0.00584551
0.00756853
-0.00511708
0.00759579
-0.00458813
0.00762028
-0.00408244
0.00764274
-0.00369854
0.00766275
-0.00327361
0.00768135
-0.00300811
0.00769768
-0.00264
0.00771305
-0.00246151
0.00772617
-0.00211681
0.00773876
-0.00201261
0.00774889
-0.0016512
0.0077591
-0.00163864
0.00776646
-0.00122791
0.00777456
-0.00130604
0.00777917
-0.000809178
0.00778546
-0.00101627
0.00778734
-0.000398356
0.00779207
-0.00077094
0.00779094
2.60531e-05
0.0077943
-0.000593635
0.00778968
0.000447867
0.00779175
-0.000526127
0.00778359
0.000746242
0.00778599
-0.000797941
0.00777688
0.00062886
0.00778477
-0.00168176
0.00778133
-7.68661e-05
0.00780189
-0.0029502
0.00780749
-0.000452004
0.00783372
-0.00229846
0.00783126
0.00236712
0.00782664
0.00468981
0.0077803
0.012033
0.0076412
0.0288515
0.00738116
0.0470124
0.00744001
-0.00850551
0.00762674
-0.0317998
0.00773896
-0.0189088
0.00777436
-0.00861281
0.0078031
-0.00720264
0.00779737
-0.00140295
0.00779431
-0.0011674
0.00777056
0.00220987
0.00775839
0.0010138
0.00773875
0.00250106
0.00773339
0.0008371
0.00772449
0.00152976
0.00772637
0.00011238
0.00772518
0.00058689
0.00773146
-0.000417275
0.00773488
8.22523e-06
0.00774276
-0.000623088
0.00774729
-0.000200883
0.00775334
-0.000484387
0.00775546
-2.06802e-05
0.00775704
-3.27768e-05
0.00775455
0.000446234
0.00775044
0.000593152
0.00774271
0.00102562
0.00773308
0.00123152
0.00772085
0.00154383
0.00770731
0.00170222
0.00769252
0.00186371
0.00767726
0.00195216
0.00766215
0.00195508
0.00764722
0.00198829
0.00763338
0.00186457
0.00761962
0.00189549
0.00760719
0.00169536
0.00759408
0.00176838
0.00758241
0.00148944
0.00756883
0.00163933
0.00755706
0.00126684
0.00754218
0.00145769
0.0075301
0.00094732
0.00751394
0.00109253
0.00750218
0.000415139
0.00748661
0.000324981
0.00747745
-0.000542885
0.00746846
-0.00111177
-0.00282119
0.0074785
0.0145265
0.00739771
0.0126698
0.00733133
0.011021
0.00727597
0.00965796
0.00722993
0.00834679
0.00719229
0.00677124
0.00716415
0.00446693
0.00714651
0.00139135
0.00714114
-0.00217398
0.00715033
-0.00566059
0.00717635
-0.00851698
0.0072197
-0.0103566
0.0072771
-0.0110158
0.00734143
-0.0106251
0.00740369
-0.00949621
0.00745738
-0.00811716
0.00750063
-0.00682973
0.00753602
-0.0058809
0.00756625
-0.0051473
0.00759343
-0.00461531
0.00761784
-0.00410686
0.00764025
-0.00372095
0.00766021
-0.00329357
0.00767877
-0.00302666
0.00769506
-0.0026563
0.0077104
-0.00247685
0.0077235
-0.0021299
0.00773606
-0.00202517
0.00774617
-0.00166131
0.00775636
-0.00164883
0.0077637
-0.00123525
0.00777178
-0.00131412
0.00777637
-0.000813771
0.00778264
-0.00102254
0.0077845
-0.000400215
0.00778921
-0.000775647
0.00778806
2.71986e-05
0.0077914
-0.00059697
0.00778674
0.000452523
0.00778877
-0.000528158
0.00778055
0.000754466
0.00778288
-0.000800277
0.00777367
0.000638073
0.00778148
-0.00168957
0.00777796
-7.33436e-05
0.00779852
-0.00297076
0.00780419
-0.000457668
0.00783064
-0.00232491
0.00782847
0.0023693
0.00782438
0.00469389
0.00777875
0.0120786
0.0076409
0.0289893
0.00738234
0.047271
0.00744132
-0.00856449
0.00762742
-0.0319859
0.00773925
-0.0190206
0.00777417
-0.00864772
0.00780243
-0.0072309
0.00779632
-0.00139684
0.00779295
-0.00116403
0.00776896
0.00223387
0.00775662
0.00102614
0.00773689
0.00252078
0.00773151
0.000842486
0.00772261
0.00153866
0.00772451
0.000110478
0.00772334
0.000588061
0.00772966
-0.000423587
0.00773311
4.77305e-06
0.00774103
-0.000631012
0.0077456
-0.000205448
0.00775168
-0.000490471
0.00775383
-2.28264e-05
0.00775542
-3.43665e-05
0.00775294
0.000448711
0.00774882
0.000597266
0.00774108
0.00103336
0.00773143
0.00124117
0.00771918
0.00155608
0.0077056
0.0017158
0.00769077
0.00187855
0.00767548
0.00196745
0.00766034
0.00197022
0.00764539
0.00200324
0.00763154
0.00187842
0.00761778
0.00190925
0.00760535
0.00170779
0.00759223
0.0017815
0.00758055
0.00150112
0.00756695
0.00165293
0.00755515
0.00127864
0.0075402
0.00147264
0.00752805
0.000959471
0.00751176
0.00110882
0.00749987
0.000427028
0.00748408
0.000340769
0.00747472
-0.000533525
0.00746542
-0.00110247
-0.00282516
0.00747855
0.0146237
0.00739791
0.0127504
0.00733175
0.0110872
0.00727666
0.00971305
0.00723089
0.00839257
0.00719345
0.00680868
0.00716538
0.004495
0.00714761
0.00140912
0.00714188
-0.00216824
0.00715049
-0.0056692
0.00717581
-0.0085423