/*--------------------------------*- C++ -*----------------------------------*\
| =========                 |                                                 |
| \\      /  F ield         | OpenFOAM: The Open Source CFD Toolbox           |
|  \\    /   O peration     | Version:  2412                                  |
|   \\  /    A nd           | Website:  www.openfoam.com                      |
|    \\/     M anipulation  |                                                 |
\*---------------------------------------------------------------------------*/
FoamFile
{
    version     2.0;
    format      ascii;
    arch        "LSB;label=32;scalar=64";
    class       volVectorField;
    location    "0.8";
    object      U;
}
// * * * * * * * * * * * * * * * * * * * * * * * * * * * * * * * * * * * * * //

dimensions      [0 1 -1 0 0 0 0];

internalField   nonuniform List<vector> 
12960
(
(100.007 -0.629073 0)
(100.231 -1.78744 -4.38144e-17)
(100.686 -2.84554 -8.42322e-17)
(101.313 -3.76051 0)
(102.111 -4.66815 -3.67967e-17)
(103.055 -5.77397 0)
(104.188 -7.36742 0)
(105.535 -9.48355 0)
(107.149 -11.9395 3.15733e-17)
(109.061 -14.3554 3.19339e-17)
(111.333 -16.3791 0)
(113.969 -17.767 0)
(116.976 -18.4456 0)
(120.221 -18.5147 0)
(123.622 -18.1825 3.41551e-17)
(126.991 -17.7338 -6.70651e-17)
(130.362 -17.3634 0)
(133.657 -17.186 -3.10084e-17)
(137.066 -17.1458 0)
(140.472 -17.2241 2.8302e-17)
(144.09 -17.3383 2.72033e-17)
(147.703 -17.5341 -2.61634e-17)
(151.604 -17.7399 2.5274e-17)
(155.474 -18.0377 0)
(159.73 -18.3221 0)
(163.907 -18.7155 0)
(168.601 -19.0646 0)
(173.14 -19.5531 2.08676e-17)
(178.372 -19.9581 0)
(183.33 -20.5505 -3.82459e-17)
(189.228 -21.0066 6.67022e-22)
(194.673 -21.7203 -1.73596e-17)
(201.401 -22.2242 6.8115e-22)
(207.409 -23.0858 -3.11378e-17)
(215.183 -23.6365 -1.49903e-17)
(221.845 -24.685 0)
(230.951 -25.2843 0)
(238.372 -26.5734 1.18718e-17)
(249.196 -27.2366 -6.40035e-22)
(257.504 -28.8574 1.98712e-17)
(270.587 -29.65 0)
(279.99 -31.7595 -1.31891e-21)
(296.158 -32.8207 4.43966e-22)
(307.083 -35.5978 -5.93448e-18)
(327.65 -37.0519 -1.29445e-17)
(340.911 -40.4358 3.93141e-18)
(367.718 -42.0698 0)
(384.314 -45.2028 0)
(418.998 -46.4233 -3.57682e-18)
(439.569 -47.4315 -5.28569e-19)
(482.293 -47.9311 -2.10656e-18)
(507.794 -40.4867 0)
(549.501 -38.2057 0)
(577.308 -0.789231 4.73878e-19)
(550.96 18.859 -1.98174e-19)
(540.074 27.7072 6.5417e-18)
(505.423 31.1873 -4.52579e-19)
(489.556 30.9079 0)
(459.483 32.2528 0)
(443.628 31.2776 -6.91291e-19)
(418.214 31.4763 2.19892e-18)
(403.513 29.7265 0)
(382.761 29.1373 0)
(369.934 27.2321 2.47952e-18)
(353.229 26.4497 0)
(342.102 24.8019 -4.55687e-22)
(328.455 24.1024 0)
(318.665 22.7965 0)
(307.291 22.2238 -6.32526e-18)
(298.563 21.2212 0)
(288.857 20.7692 -1.44298e-22)
(280.943 20.0254 -7.64069e-18)
(272.442 19.6844 0)
(265.16 19.1465 -8.76538e-18)
(257.545 18.8785 9.43894e-18)
(250.783 18.4738 0)
(243.855 18.2286 1.05561e-17)
(237.562 17.8889 -1.10916e-17)
(231.207 17.6181 2.34746e-17)
(225.372 17.2912 1.23118e-17)
(219.534 16.9655 0)
(214.17 16.632 -1.34861e-17)
(208.817 16.2481 0)
(203.94 15.9183 1.45482e-17)
(199.029 15.4908 0)
(194.635 15.1939 -1.55106e-17)
(190.095 14.7403 -1.59189e-17)
(186.161 14.5034 -1.64542e-17)
(181.892 14.0246 0)
(178.396 13.8557 0)
(174.288 13.3305 1.78298e-17)
(171.241 13.2122 0)
(167.18 12.6079 0)
(164.639 12.4902 -3.00802e-22)
(160.511 11.7795 6.53046e-22)
(158.587 11.5606 2.12096e-17)
(154.302 10.7331 -2.12824e-17)
(153.152 10.2839 2.28068e-17)
(148.708 8.94607 -2.26395e-17)
(100.007 -0.635003 0)
(100.232 -1.80421 -4.38041e-17)
(100.689 -2.87213 4.20938e-17)
(101.32 -3.79515 0)
(102.121 -4.71014 -1.68656e-21)
(103.069 -5.82335 0)
(104.203 -7.42547 0)
(105.551 -9.55137 0)
(107.161 -12.0184 -3.15921e-17)
(109.065 -14.4464 -3.19678e-17)
(111.328 -16.4832 0)
(113.954 -17.8836 3.33112e-17)
(116.952 -18.572 3.39229e-17)
(120.191 -18.6461 0)
(123.59 -18.314 -3.42129e-17)
(126.958 -17.8619 6.7164e-17)
(130.329 -17.4877 -3.24651e-17)
(133.622 -17.3082 6.20598e-17)
(137.028 -17.2674 0)
(140.432 -17.3465 -2.83052e-17)
(144.048 -17.4617 -2.72029e-17)
(147.659 -17.659 -2.6162e-17)
(151.558 -17.8664 -2.52714e-17)
(155.426 -18.1665 0)
(159.68 -18.453 -2.35242e-17)
(163.855 -18.8492 2.25973e-17)
(168.547 -19.2008 0)
(173.084 -19.6928 -2.08671e-17)
(178.314 -20.1006 0)
(183.27 -20.6974 1.91233e-17)
(189.166 -21.1566 6.6881e-22)
(194.608 -21.8755 3.47205e-17)
(201.333 -22.3828 6.83114e-22)
(207.34 -23.2507 1.55698e-17)
(215.11 -23.8051 0)
(221.77 -24.8612 -1.37468e-17)
(230.872 -25.4645 0)
(238.289 -26.7629 0)
(249.11 -27.4301 1.15329e-17)
(257.412 -29.0624 -9.9368e-18)
(270.491 -29.8595 9.78381e-18)
(279.886 -31.9839 7.94194e-18)
(296.048 -33.0513 4.48406e-22)
(306.962 -35.8485 5.93412e-18)
(327.522 -37.3126 6.47195e-18)
(340.77 -40.7227 -3.93116e-18)
(367.576 -42.37 0)
(384.162 -45.53 -1.82793e-18)
(418.859 -46.7631 -3.57752e-18)
(439.426 -47.7867 -5.26555e-19)
(482.191 -48.3001 2.10592e-18)
(507.718 -40.8161 0)
(549.541 -38.5336 7.76537e-19)
(577.435 -0.793629 8.01944e-22)
(551.009 19.0224 0)
(540.104 27.927 -6.55387e-18)
(505.415 31.4339 4.54758e-19)
(489.522 31.1484 0)
(459.426 32.4987 -1.30979e-18)
(443.56 31.5129 1.38483e-18)
(418.136 31.7109 0)
(403.431 29.9458 0)
(382.676 29.3505 0)
(369.851 27.4296 -2.48033e-18)
(353.149 26.6408 -4.20582e-18)
(342.025 24.9803 3.92442e-18)
(328.381 24.2757 0)
(318.595 22.9599 -5.2656e-18)
(307.224 22.3832 1.26511e-17)
(298.499 21.3733 0)
(288.796 20.9184 7.35091e-18)
(280.886 20.1695 0)
(272.387 19.8266 0)
(265.107 19.2852 8.76462e-18)
(257.494 19.0159 0)
(250.734 18.6086 -9.90288e-18)
(243.807 18.362 0)
(237.514 18.0201 2.2182e-17)
(231.16 17.7476 -1.17369e-17)
(225.325 17.4184 -1.23125e-17)
(219.487 17.0903 1.29236e-17)
(214.124 16.7542 1.34872e-17)
(208.771 16.3674 0)
(203.894 16.0349 -1.45483e-17)
(198.984 15.6042 1.50067e-17)
(194.591 15.3049 1.55094e-17)
(190.052 14.8481 3.18343e-17)
(186.117 14.6096 0)
(181.851 14.1276 0)
(178.354 13.9579 1.74539e-17)
(174.247 13.4292 5.21242e-22)
(171.199 13.3111 0)
(167.138 12.7027 1.8887e-17)
(164.596 12.5858 -1.97901e-17)
(160.466 11.8699 6.61963e-22)
(158.539 11.6517 2.11955e-17)
(154.25 10.8175 -2.12685e-17)
(153.099 10.3668 2.27873e-17)
(148.647 9.01788 0)
(100.007 -0.640965 0)
(100.233 -1.82107 4.37887e-17)
(100.693 -2.89885 0)
(101.327 -3.82997 0)
(102.131 -4.75231 3.67311e-17)
(103.083 -5.87288 0)
(104.219 -7.48358 0)
(105.566 -9.6191 0)
(107.173 -12.097 0)
(109.07 -14.5371 0)
(111.323 -16.5868 3.26639e-17)
(113.938 -17.9997 -3.33678e-17)
(116.927 -18.698 -3.39846e-17)
(120.161 -18.7774 3.43308e-17)
(123.558 -18.4453 0)
(126.925 -17.99 -3.36318e-17)
(130.295 -17.6119 3.25013e-17)
(133.587 -17.4302 -6.21039e-17)
(136.99 -17.3889 0)
(140.391 -17.4686 5.66154e-17)
(144.005 -17.5849 5.44036e-17)
(147.614 -17.7838 2.61594e-17)
(151.511 -17.9928 0)
(155.377 -18.2951 -2.43336e-17)
(159.629 -18.5837 4.70455e-17)
(163.803 -18.9828 7.15794e-22)
(168.493 -19.3368 0)
(173.027 -19.8324 -2.08681e-17)
(178.255 -20.243 0)
(183.21 -20.8441 0)
(189.103 -21.3064 -1.84157e-17)
(194.543 -22.0305 9.46878e-22)
(201.265 -22.5412 -1.67069e-17)
(207.269 -23.4154 1.55723e-17)
(215.037 -23.9736 0)
(221.693 -25.0373 1.37474e-17)
(230.793 -25.6444 0)
(238.206 -26.9522 -1.18769e-17)
(249.023 -27.6234 0)
(257.32 -29.2672 0)
(270.393 -30.0688 -1.95689e-17)
(279.782 -32.208 0)
(295.937 -33.2816 -8.07059e-18)
(306.84 -36.0989 5.93635e-18)
(327.393 -37.5728 -6.47211e-18)
(340.629 -41.0093 0)
(367.432 -42.6698 0)
(384.01 -45.8569 3.65707e-18)
(418.718 -47.1026 3.5773e-18)
(439.283 -48.1419 5.26387e-19)
(482.089 -48.6692 -2.10476e-18)
(507.642 -41.1461 0)
(549.582 -38.8626 -7.74873e-19)
(577.563 -0.798074 -9.4479e-19)
(551.06 19.1862 0)
(540.134 28.1471 0)
(505.408 31.6809 0)
(489.488 31.3893 -2.84245e-18)
(459.37 32.7447 1.3147e-18)
(443.493 31.7482 -6.93616e-19)
(418.058 31.9455 0)
(403.349 30.1651 9.54111e-19)
(382.592 29.5636 0)
(369.767 27.6269 -2.48229e-18)
(353.068 26.8318 4.20666e-18)
(341.947 25.1586 3.92587e-18)
(328.307 24.4489 -5.27457e-18)
(318.524 23.1232 5.26598e-18)
(307.157 22.5424 2.52971e-23)
(298.435 21.5252 0)
(288.736 21.0675 7.35109e-18)
(280.828 20.3135 0)
(272.332 19.9687 0)
(265.054 19.4239 8.76489e-18)
(257.443 19.1531 9.43797e-18)
(250.684 18.7433 1.98041e-17)
(243.759 18.4954 -1.0555e-17)
(237.466 18.1512 4.72095e-22)
(231.113 17.877 0)
(225.277 17.5455 2.4625e-17)
(219.441 17.2151 -2.58481e-17)
(214.077 16.8764 3.27668e-22)
(208.724 16.4867 1.4026e-17)
(203.848 16.1515 1.45489e-17)
(198.939 15.7175 3.32654e-22)
(194.546 15.4159 0)
(190.009 14.9558 -1.59154e-17)
(186.074 14.7157 0)
(181.809 14.2305 0)
(178.312 14.0601 -8.75318e-24)
(174.206 13.528 -1.78204e-17)
(171.157 13.41 1.8551e-17)
(167.096 12.7975 6.1686e-22)
(164.552 12.6814 0)
(160.421 11.9603 -2.00234e-17)
(158.492 11.7428 -4.37965e-22)
(154.198 10.902 2.12532e-17)
(153.045 10.4498 -2.27685e-17)
(148.587 9.08975 0)
(100.007 -0.646957 0)
(100.234 -1.83801 0)
(100.696 -2.92571 4.20538e-17)
(101.333 -3.86495 0)
(102.142 -4.79467 3.67011e-17)
(103.097 -5.92258 0)
(104.235 -7.54179 0)
(105.582 -9.68682 3.16827e-17)
(107.185 -12.1754 0)
(109.075 -14.6274 -3.2037e-17)
(111.318 -16.6901 4.54785e-22)
(113.923 -18.1155 3.34256e-17)
(116.903 -18.8237 3.40475e-17)
(120.13 -18.9085 -3.43936e-17)
(123.525 -18.5765 0)
(126.892 -18.118 -3.36829e-17)
(130.26 -17.736 3.2539e-17)
(133.551 -17.552 6.21488e-17)
(136.952 -17.5102 0)
(140.351 -17.5906 -2.83103e-17)
(143.962 -17.7079 -5.4402e-17)
(147.569 -17.9085 0)
(151.464 -18.119 0)
(155.328 -18.4236 2.43314e-17)
(159.578 -18.7143 -4.70433e-17)
(163.75 -19.1163 -4.51918e-17)
(168.438 -19.4727 0)
(172.971 -19.9719 2.08676e-17)
(178.196 -20.3853 0)
(183.149 -20.9906 0)
(189.039 -21.4561 0)
(194.478 -22.1853 -1.73619e-17)
(201.197 -22.6995 0)
(207.198 -23.58 -1.55726e-17)
(214.963 -24.1418 0)
(221.616 -25.2132 -1.37502e-17)
(230.712 -25.8242 0)
(238.122 -27.1413 2.37564e-17)
(248.935 -27.8165 -1.15363e-17)
(257.227 -29.4718 -9.94181e-18)
(270.296 -30.2778 1.95708e-17)
(279.676 -32.4319 0)
(295.825 -33.5116 -8.07129e-18)
(306.716 -36.349 1.32694e-21)
(327.263 -37.8327 6.47163e-18)
(340.486 -41.2955 -3.93445e-18)
(367.288 -42.9693 -5.01972e-18)
(383.856 -46.1835 -1.82915e-18)
(418.576 -47.442 0)
(439.139 -48.497 5.24362e-19)
(481.986 -49.0385 -2.1041e-18)
(507.564 -41.4766 0)
(549.624 -39.1925 7.7061e-19)
(577.692 -0.802522 -8.13643e-22)
(551.111 19.3505 0)
(540.165 28.3676 0)
(505.402 31.9282 -4.54197e-19)
(489.454 31.6304 2.85741e-18)
(459.313 32.991 0)
(443.425 31.9837 6.93358e-19)
(417.98 32.1801 2.20967e-18)
(403.266 30.3844 -9.55035e-19)
(382.506 29.7767 0)
(369.683 27.8242 -5.70483e-22)
(352.986 27.0226 0)
(341.869 25.3368 -3.92638e-18)
(328.233 24.622 8.99218e-23)
(318.453 23.2864 -5.26729e-18)
(307.09 22.7015 -1.26525e-17)
(298.371 21.677 -6.49137e-18)
(288.675 21.2165 -7.35098e-18)
(280.77 20.4574 7.64172e-18)
(272.277 20.1108 0)
(265.001 19.5625 -1.75287e-17)
(257.392 19.2903 -9.43698e-18)
(250.634 18.878 -9.9012e-18)
(243.71 18.6287 1.05539e-17)
(237.418 18.2823 -2.21803e-17)
(231.066 18.0064 -1.17369e-17)
(225.23 17.6725 -2.46255e-17)
(219.394 17.3398 2.58492e-17)
(214.03 16.9985 -2.69773e-17)
(208.678 16.6059 3.36536e-22)
(203.802 16.268 -2.90984e-17)
(198.894 15.8308 -3.00126e-17)
(194.501 15.5268 0)
(189.965 15.0635 -1.59142e-17)
(186.031 14.8217 0)
(181.767 14.3333 0)
(178.269 14.1621 -1.74454e-17)
(174.165 13.6267 1.78165e-17)
(171.114 13.5088 -1.85448e-17)
(167.054 12.8923 -3.77473e-17)
(164.507 12.777 0)
(160.375 12.0507 0)
(158.444 11.834 -4.23362e-17)
(154.146 10.9865 2.12391e-17)
(152.991 10.5329 2.27486e-17)
(148.526 9.16164 0)
(100.007 -0.652981 4.48768e-17)
(100.235 -1.85505 -4.37652e-17)
(100.7 -2.95272 -8.40625e-17)
(101.34 -3.90012 3.95574e-17)
(102.152 -4.83721 -3.66678e-17)
(103.111 -5.97243 0)
(104.252 -7.60006 -3.24268e-17)
(105.598 -9.75447 -3.16858e-17)
(107.197 -12.2536 0)
(109.08 -14.7174 -5.71555e-22)
(111.314 -16.7929 -3.27591e-17)
(113.907 -18.2308 3.84518e-22)
(116.878 -18.949 -3.41102e-17)
(120.1 -19.0393 0)
(123.492 -18.7076 0)
(126.858 -18.2459 3.37336e-17)
(130.226 -17.86 -3.25762e-17)
(133.515 -17.6737 -3.10969e-17)
(136.914 -17.6313 0)
(140.31 -17.7125 2.83138e-17)
(143.919 -17.8308 2.71999e-17)
(147.524 -18.033 0)
(151.417 -18.2451 0)
(155.279 -18.552 0)
(159.527 -18.8447 2.35202e-17)
(163.697 -19.2496 2.2595e-17)
(168.383 -19.6085 0)
(172.914 -20.1112 0)
(178.137 -20.5274 0)
(183.087 -21.137 1.91263e-17)
(188.976 -21.6056 0)
(194.412 -22.34 0)
(201.128 -22.8576 0)
(207.127 -23.7443 0)
(214.888 -24.3098 1.49958e-17)
(221.539 -25.3889 -1.15321e-21)
(230.632 -26.0037 1.32749e-17)
(238.038 -27.3301 -1.18795e-17)
(248.847 -28.0093 1.1537e-17)
(257.134 -29.6761 9.94236e-18)
(270.198 -30.4866 -9.78607e-18)
(279.57 -32.6554 -7.94747e-18)
(295.712 -33.7412 1.61426e-17)
(306.593 -36.5987 -5.9369e-18)
(327.132 -38.0923 -6.4718e-18)
(340.342 -41.5813 3.93418e-18)
(367.142 -43.2685 5.01965e-18)
(383.701 -46.5099 0)
(418.433 -47.7812 0)
(438.993 -48.8522 -5.24195e-19)
(481.883 -49.408 2.10293e-18)
(507.486 -41.8076 0)
(549.665 -39.5234 -7.68972e-19)
(577.822 -0.807009 4.71e-19)
(551.162 19.5154 0)
(540.197 28.5884 0)
(505.397 32.1758 4.56572e-19)
(489.421 31.8719 2.87257e-18)
(459.257 33.2374 -1.32486e-18)
(443.356 32.2192 -1.38945e-18)
(417.901 32.4148 -2.21334e-18)
(403.183 30.6036 9.57734e-19)
(382.42 29.9897 0)
(369.599 28.0213 2.48458e-18)
(352.905 27.2134 0)
(341.791 25.5148 -3.92786e-18)
(328.158 24.7949 5.27548e-18)
(318.381 23.4494 5.26767e-18)
(307.022 22.8605 6.32655e-18)
(298.306 21.8287 1.29834e-17)
(288.614 21.3653 7.35116e-18)
(280.711 20.6012 5.19134e-22)
(272.221 20.2527 0)
(264.948 19.7009 1.75282e-17)
(257.34 19.4275 0)
(250.584 19.0126 9.90112e-18)
(243.661 18.7619 0)
(237.37 18.4133 -4.78099e-22)
(231.018 18.1357 1.17363e-17)
(225.183 17.7995 2.4626e-17)
(219.347 17.4645 -2.58504e-17)
(213.982 17.1206 1.34893e-17)
(208.631 16.725 -1.40272e-17)
(203.755 16.3845 1.45495e-17)
(198.848 15.944 3.00124e-17)
(194.456 15.6376 0)
(189.922 15.1711 1.59122e-17)
(185.987 14.9276 0)
(181.725 14.4361 0)
(178.227 14.2642 0)
(174.124 13.7254 -3.56234e-17)
(171.072 13.6076 0)
(167.012 12.9871 3.77341e-17)
(164.463 12.8727 0)
(160.329 12.1411 0)
(158.396 11.9252 2.11543e-17)
(154.094 11.0711 -2.12235e-17)
(152.937 10.6161 -2.27295e-17)
(148.464 9.23357 0)
(100.007 -0.659038 -4.48668e-17)
(100.237 -1.87217 8.75017e-17)
(100.703 -2.97986 4.20086e-17)
(101.347 -3.93546 -7.90532e-17)
(102.163 -4.87995 0)
(103.125 -6.02243 0)
(104.268 -7.65841 -1.15968e-21)
(105.614 -9.82207 0)
(107.21 -12.3316 -3.16709e-17)
(109.086 -14.8071 -5.75997e-22)
(111.309 -16.8952 0)
(113.892 -18.3457 -3.35413e-17)
(116.853 -19.0741 0)
(120.069 -19.1699 0)
(123.458 -18.8386 0)
(126.824 -18.3738 0)
(130.191 -17.9839 0)
(133.478 -17.7953 0)
(136.875 -17.7524 -2.96628e-17)
(140.269 -17.8343 5.67501e-22)
(143.875 -17.9536 0)
(147.478 -18.1574 0)
(151.369 -18.3711 -2.52636e-17)
(155.23 -18.6803 0)
(159.475 -18.975 0)
(163.644 -19.3828 0)
(168.327 -19.7441 0)
(172.856 -20.2504 2.08689e-17)
(178.078 -20.6693 2.01214e-17)
(183.026 -21.2832 -1.91262e-17)
(188.911 -21.7549 -1.84185e-17)
(194.345 -22.4945 0)
(201.059 -23.0155 0)
(207.055 -23.9085 0)
(214.814 -24.4777 -1.49963e-17)
(221.461 -25.5644 -1.16153e-21)
(230.551 -26.1831 -1.32756e-17)
(237.953 -27.5188 -1.18827e-17)
(248.758 -28.2019 1.1539e-17)
(257.04 -29.8802 -9.94558e-18)
(270.099 -30.695 9.78763e-18)
(279.463 -32.8787 7.94753e-18)
(295.599 -33.9705 -8.07132e-18)
(306.468 -36.8481 0)
(327.001 -38.3515 6.47132e-18)
(340.198 -41.8669 -3.93653e-18)
(366.996 -43.5674 -5.02019e-18)
(383.546 -46.8361 0)
(418.289 -48.1202 0)
(438.847 -49.2073 0)
(481.778 -49.7777 0)
(507.407 -42.1392 0)
(549.706 -39.8553 0)
(577.954 -0.811536 -4.71368e-19)
(551.215 19.6807 -2.24767e-19)
(540.23 28.8095 6.62368e-18)
(505.392 32.4238 4.55503e-19)
(489.389 32.1136 -2.88874e-18)
(459.201 33.4839 1.33048e-18)
(443.288 32.4548 6.96178e-19)
(417.822 32.6495 0)
(403.098 30.8228 -9.58734e-19)
(382.333 30.2026 0)
(369.514 28.2183 0)
(352.822 27.404 0)
(341.712 25.6927 3.92838e-18)
(328.082 24.9677 0)
(318.309 23.6123 5.26901e-18)
(306.953 23.0194 6.32692e-18)
(298.241 21.9803 4.95653e-22)
(288.552 21.5141 -7.35105e-18)
(280.653 20.7449 -7.64156e-18)
(272.165 20.3946 8.37983e-18)
(264.894 19.8393 -8.76358e-18)
(257.289 19.5645 0)
(250.534 19.1471 -9.9e-18)
(243.612 18.8951 0)
(237.321 18.5443 1.1089e-17)
(230.97 18.265 0)
(225.135 17.9265 4.17911e-22)
(219.299 17.5891 1.29256e-17)
(213.935 17.2427 0)
(208.585 16.8442 0)
(203.708 16.5009 0)
(198.803 16.0572 -1.5006e-17)
(194.41 15.7484 0)
(189.878 15.2786 0)
(185.943 15.0335 0)
(181.683 14.5388 -1.68284e-17)
(178.184 14.3662 0)
(174.082 13.824 1.78069e-17)
(171.029 13.7064 0)
(166.969 13.0818 -1.88601e-17)
(164.418 12.9683 0)
(160.283 12.2315 0)
(158.347 12.0165 0)
(154.041 11.1557 0)
(152.882 10.6994 0)
(148.402 9.30555 0)
(100.007 -0.665127 0)
(100.238 -1.88939 -4.37363e-17)
(100.707 -3.00716 0)
(101.354 -3.97098 3.94958e-17)
(102.173 -4.92288 0)
(103.139 -6.0726 0)
(104.285 -7.71683 3.24044e-17)
(105.631 -9.88961 3.1695e-17)
(107.223 -12.4094 3.16901e-17)
(109.092 -14.8964 6.4282e-17)
(111.305 -16.9972 3.28564e-17)
(113.877 -18.4602 0)
(116.829 -19.1987 0)
(120.038 -19.3004 3.45873e-17)
(123.425 -18.9695 0)
(126.79 -18.5015 0)
(130.156 -18.1077 0)
(133.441 -17.9168 0)
(136.836 -17.8732 2.96731e-17)
(140.228 -17.9559 -5.66391e-17)
(143.832 -18.0762 0)
(147.433 -18.2817 0)
(151.321 -18.497 5.05226e-17)
(155.18 -18.8084 0)
(159.423 -19.1051 0)
(163.59 -19.5158 -2.25948e-17)
(168.271 -19.8796 0)
(172.799 -20.3894 -2.08683e-17)
(178.018 -20.8111 -2.01211e-17)
(182.964 -21.4293 0)
(188.847 -21.9041 1.84185e-17)
(194.278 -22.6489 -1.73662e-17)
(200.99 -23.1732 0)
(206.983 -24.0726 0)
(214.739 -24.6454 -1.49982e-17)
(221.383 -25.7397 1.37543e-17)
(230.469 -26.3622 0)
(237.867 -27.7072 1.18834e-17)
(248.669 -28.3943 -1.15398e-17)
(256.946 -30.084 1.98937e-17)
(269.999 -30.9032 5.90637e-22)
(279.356 -33.1016 -7.95036e-18)
(295.485 -34.1995 0)
(306.343 -37.0971 0)
(326.868 -38.6103 0)
(340.052 -42.152 3.93626e-18)
(366.849 -43.866 5.02013e-18)
(383.389 -47.162 0)
(418.144 -48.4591 0)
(438.699 -49.5623 -5.21007e-19)
(481.672 -50.1476 0)
(507.326 -42.4714 0)
(549.747 -40.1883 0)
(578.086 -0.8161 4.70114e-19)
(551.268 19.8466 2.24474e-19)
(540.263 29.0311 -6.63812e-18)
(505.388 32.6722 -9.14218e-19)
(489.357 32.3556 0)
(459.145 33.7306 0)
(443.22 32.6905 0)
(417.742 32.8842 0)
(403.014 31.0419 -9.61529e-19)
(382.246 30.4154 0)
(369.428 28.4153 -2.48811e-18)
(352.739 27.5945 0)
(341.633 25.8705 0)
(328.007 25.1404 0)
(318.237 23.7751 -5.2694e-18)
(306.885 23.1782 -1.26545e-17)
(298.176 22.1317 -6.49265e-18)
(288.49 21.6628 0)
(280.594 20.8885 7.64227e-18)
(272.109 20.5364 -8.37926e-18)
(264.84 19.9777 0)
(257.237 19.7015 0)
(250.483 19.2815 0)
(243.563 19.0282 1.05521e-17)
(237.272 18.6752 -1.10891e-17)
(230.922 18.3942 1.17362e-17)
(225.087 18.0534 -2.46271e-17)
(219.252 17.7137 -1.29266e-17)
(213.887 17.3647 0)
(208.537 16.9632 0)
(203.661 16.6173 0)
(198.757 16.1703 0)
(194.365 15.8591 1.55045e-17)
(189.834 15.3861 1.59094e-17)
(185.899 15.1394 0)
(181.64 14.6415 -4.46782e-22)
(178.141 14.4681 0)
(174.041 13.9226 0)
(170.986 13.8052 0)
(166.927 13.1766 0)
(164.373 13.064 0)
(160.237 12.3219 0)
(158.298 12.1079 0)
(153.988 11.2403 0)
(152.827 10.7827 0)
(148.34 9.37758 0)
(100.007 -0.671249 0)
(100.239 -1.9067 4.37256e-17)
(100.711 -3.03459 -4.19679e-17)
(101.361 -4.00669 3.94679e-17)
(102.184 -4.966 0)
(103.154 -6.12293 0)
(104.301 -7.77534 3.23952e-17)
(105.648 -9.9571 9.28146e-22)
(107.236 -12.487 0)
(109.098 -14.9854 -3.21758e-17)
(111.301 -17.0987 -3.29047e-17)
(113.862 -18.5743 3.36594e-17)
(116.804 -19.3231 0)
(120.007 -19.4306 -3.46527e-17)
(123.391 -19.1003 0)
(126.755 -18.6292 0)
(130.121 -18.2314 -3.26927e-17)
(133.405 -18.0382 3.11675e-17)
(136.797 -17.994 2.96846e-17)
(140.186 -18.0773 5.66453e-17)
(143.788 -18.1987 0)
(147.387 -18.4058 -2.61502e-17)
(151.273 -18.6227 5.78342e-22)
(155.13 -18.9363 0)
(159.371 -19.2352 0)
(163.536 -19.6488 -7.39013e-22)
(168.215 -20.0149 0)
(172.74 -20.5282 0)
(177.957 -20.9527 2.01222e-17)
(182.901 -21.5752 1.91286e-17)
(188.782 -22.0531 -1.84199e-17)
(194.211 -22.8031 -9.79043e-22)
(200.92 -23.3308 -1.67125e-17)
(206.911 -24.2364 0)
(214.663 -24.8129 -7.10879e-22)
(221.304 -25.9148 1.37572e-17)
(230.387 -26.5412 1.32791e-17)
(237.781 -27.8954 0)
(248.579 -28.5864 1.15418e-17)
(256.85 -30.2876 -9.94808e-18)
(269.899 -31.1112 -9.78902e-18)
(279.248 -33.3243 7.95043e-18)
(295.371 -34.4281 8.07231e-18)
(306.217 -37.3457 0)
(326.735 -38.8687 0)
(339.906 -42.4369 3.93865e-18)
(366.7 -44.1642 -5.02069e-18)
(383.231 -47.4877 -1.83568e-18)
(417.998 -48.7977 0)
(438.55 -49.9174 1.04071e-18)
(481.566 -50.5176 2.10052e-18)
(507.245 -42.8041 0)
(549.789 -40.5223 -7.58891e-19)
(578.22 -0.820706 -4.70544e-19)
(551.322 20.013 2.33867e-19)
(540.297 29.2529 0)
(505.384 32.921 4.58776e-19)
(489.325 32.5979 0)
(459.089 33.9776 1.342e-18)
(443.151 32.9263 0)
(417.662 33.1189 2.22593e-18)
(402.929 31.261 9.62617e-19)
(382.158 30.6281 0)
(369.342 28.612 2.48905e-18)
(352.656 27.7848 0)
(341.553 26.0481 0)
(327.93 25.3129 0)
(318.164 23.9378 -5.27076e-18)
(306.815 23.3368 6.32758e-18)
(298.11 22.2831 -6.49376e-18)
(288.428 21.8113 0)
(280.534 21.032 -1.52844e-17)
(272.053 20.678 0)
(264.785 20.1159 -8.76362e-18)
(257.185 19.8383 0)
(250.432 19.4158 -9.89934e-18)
(243.513 19.1612 -1.0551e-17)
(237.223 18.806 2.21767e-17)
(230.874 18.5233 -1.17357e-17)
(225.038 18.1803 2.46276e-17)
(219.204 17.8383 1.29269e-17)
(213.839 17.4866 0)
(208.49 17.0822 0)
(203.614 16.7335 0)
(198.711 16.2833 -1.50062e-17)
(194.319 15.9698 -1.55034e-17)
(189.789 15.4935 -1.59074e-17)
(185.855 15.2451 -1.64356e-17)
(181.598 14.7441 -4.49485e-22)
(178.098 14.57 -1.74281e-17)
(173.999 14.0212 0)
(170.942 13.9039 0)
(166.884 13.2713 0)
(164.328 13.1596 0)
(160.19 12.4124 -1.99737e-17)
(158.249 12.1993 2.11111e-17)
(153.934 11.325 0)
(152.772 10.8662 0)
(148.277 9.44965 2.25037e-17)
(100.007 -0.677405 0)
(100.241 -1.9241 -4.37096e-17)
(100.715 -3.06218 4.19437e-17)
(101.368 -4.04258 -7.8874e-17)
(102.195 -5.00932 0)
(103.169 -6.17343 3.40123e-17)
(104.318 -7.83392 1.18723e-21)
(105.664 -10.0246 -6.34068e-17)
(107.249 -12.5644 -3.1731e-17)
(109.104 -15.074 0)
(111.297 -17.1998 -3.29542e-17)
(113.847 -18.6879 -6.74374e-17)
(116.779 -19.447 -3.43686e-17)
(119.976 -19.5605 0)
(123.357 -19.2309 0)
(126.721 -18.7568 0)
(130.085 -18.355 3.27319e-17)
(133.367 -18.1594 -6.23824e-17)
(136.757 -18.1145 -2.96953e-17)
(140.144 -18.1986 -5.66517e-17)
(143.744 -18.3211 2.71975e-17)
(147.34 -18.5297 -6.26943e-22)
(151.224 -18.7482 5.82339e-22)
(155.079 -19.0642 0)
(159.319 -19.365 2.35165e-17)
(163.482 -19.7815 2.25931e-17)
(168.159 -20.1501 -2.18187e-17)
(172.682 -20.667 0)
(177.897 -21.0942 -2.01219e-17)
(182.839 -21.721 -1.91285e-17)
(188.717 -22.2019 1.84199e-17)
(194.144 -22.9571 1.73675e-17)
(200.85 -23.4882 1.67128e-17)
(206.838 -24.4001 1.5581e-17)
(214.587 -24.9802 1.5e-17)
(221.225 -26.0897 1.18634e-21)
(230.305 -26.7199 7.05722e-22)
(237.695 -28.0835 1.18887e-17)
(248.488 -28.7784 -1.15426e-17)
(256.755 -30.491 -9.9514e-18)
(269.799 -31.3188 0)
(279.14 -33.5466 -7.95331e-18)
(295.256 -34.6564 -1.61447e-17)
(306.09 -37.594 0)
(326.601 -39.1268 6.47124e-18)
(339.758 -42.7213 -3.93839e-18)
(366.551 -44.4621 5.02065e-18)
(383.072 -47.8131 1.83566e-18)
(417.852 -49.1362 0)
(438.4 -50.2724 -9.834e-22)
(481.458 -50.8878 2.87473e-22)
(507.163 -43.1374 0)
(549.831 -40.8573 7.57312e-19)
(578.355 -0.825356 4.69334e-19)
(551.377 20.1799 4.89666e-21)
(540.332 29.4752 6.67815e-18)
(505.382 33.1701 -4.5776e-19)
(489.294 32.8406 2.94037e-18)
(459.033 34.2246 -1.34841e-18)
(443.082 33.1621 0)
(417.582 33.3537 1.17226e-22)
(402.843 31.4801 0)
(382.07 30.8407 0)
(369.255 28.8087 0)
(352.571 27.975 0)
(341.473 26.2256 -3.93196e-18)
(327.854 25.4853 -5.27707e-18)
(318.091 24.1004 5.27115e-18)
(306.746 23.4953 0)
(298.044 22.4343 6.49387e-18)
(288.366 21.9597 0)
(280.475 21.1754 -5.36043e-22)
(271.996 20.8196 0)
(264.731 20.254 8.76282e-18)
(257.132 19.9752 0)
(250.381 19.5501 1.97969e-17)
(243.463 19.2942 0)
(237.174 18.9368 4.93746e-22)
(230.826 18.6525 1.17358e-17)
(224.99 18.3071 -1.23139e-17)
(219.156 17.9628 1.29279e-17)
(213.791 17.6085 1.3493e-17)
(208.442 17.2012 0)
(203.566 16.8498 0)
(198.664 16.3963 3.00118e-17)
(194.272 16.0804 0)
(189.745 15.6009 0)
(185.811 15.3509 -8.81926e-23)
(181.555 14.8467 -4.52176e-22)
(178.055 14.6719 3.48474e-17)
(173.957 14.1197 1.77937e-17)
(170.899 14.0027 0)
(166.84 13.366 0)
(164.283 13.2553 0)
(160.144 12.5028 1.99627e-17)
(158.2 12.2909 -4.68344e-22)
(153.881 11.4097 0)
(152.716 10.9498 0)
(148.214 9.52176 -2.24831e-17)
(100.007 -0.683595 0)
(100.242 -1.9416 4.36988e-17)
(100.718 -3.08991 0)
(101.376 -4.07865 3.94061e-17)
(102.206 -5.05284 -3.65134e-17)
(103.183 -6.22409 -6.79771e-17)
(104.335 -7.89259 -3.2374e-17)
(105.682 -10.092 -9.43075e-22)
(107.263 -12.6416 -7.74842e-22)
(109.11 -15.1623 0)
(111.294 -17.3005 3.3003e-17)
(113.832 -18.8011 6.75572e-17)
(116.754 -19.5707 6.88687e-17)
(119.944 -19.6903 0)
(123.323 -19.3614 3.47019e-17)
(126.685 -18.8843 0)
(130.05 -18.4785 -3.27726e-17)
(133.33 -18.2805 3.12153e-17)
(136.717 -18.235 0)
(140.102 -18.3198 5.66583e-17)
(143.699 -18.4433 -5.43932e-17)
(147.294 -18.6536 2.61457e-17)
(151.175 -18.8736 5.86341e-22)
(155.028 -19.1918 0)
(159.266 -19.4948 -2.35148e-17)
(163.427 -19.9141 2.25934e-17)
(168.102 -20.2852 2.18179e-17)
(172.623 -20.8055 0)
(177.835 -21.2356 0)
(182.775 -21.8666 0)
(188.651 -22.3506 0)
(194.076 -23.1109 1.73697e-17)
(200.779 -23.6454 1.67145e-17)
(206.764 -24.5636 -1.55814e-17)
(214.511 -25.1473 -1.5002e-17)
(221.146 -26.2645 1.19461e-21)
(230.221 -26.8984 -1.32812e-17)
(237.608 -28.2712 -1.18895e-17)
(248.397 -28.97 0)
(256.659 -30.6941 -1.3795e-21)
(269.698 -31.5262 0)
(279.03 -33.7687 7.95339e-18)
(295.14 -34.8844 8.0724e-18)
(305.962 -37.842 0)
(326.466 -39.3844 -6.47077e-18)
(339.61 -43.0054 0)
(366.401 -44.7597 0)
(382.912 -48.1383 0)
(417.704 -49.4744 0)
(438.249 -50.6273 -5.18557e-19)
(481.35 -51.2582 2.94297e-22)
(507.08 -43.4712 0)
(549.872 -41.1934 7.53115e-19)
(578.491 -0.830053 -4.6983e-19)
(551.433 20.3473 4.93419e-21)
(540.368 29.6978 -1.33907e-17)
(505.38 33.4196 9.19024e-19)
(489.264 33.0835 -2.95915e-18)
(458.978 34.4719 0)
(443.014 33.3981 0)
(417.501 33.5884 1.10141e-22)
(402.757 31.6991 9.67591e-19)
(381.981 31.0532 0)
(369.167 29.0052 0)
(352.487 28.1651 4.21149e-18)
(341.392 26.403 -5.00059e-22)
(327.777 25.6576 5.2776e-18)
(318.017 24.2628 0)
(306.676 23.6537 0)
(297.978 22.5854 -6.49501e-18)
(288.303 22.108 7.35141e-18)
(280.415 21.3187 -5.40255e-22)
(271.939 20.9611 8.37862e-18)
(264.676 20.3921 -8.76313e-18)
(257.08 20.1119 0)
(250.33 19.6844 -1.97958e-17)
(243.413 19.4271 -1.05499e-17)
(237.125 19.0676 -1.10872e-17)
(230.777 18.7815 -1.17352e-17)
(224.941 18.4339 0)
(219.107 18.0872 -2.58567e-17)
(213.742 17.7303 -2.69875e-17)
(208.394 17.3201 0)
(203.518 16.966 0)
(198.617 16.5092 -3.00117e-17)
(194.226 16.1909 0)
(189.7 15.7081 1.59045e-17)
(185.766 15.4565 -8.8711e-23)
(181.512 14.9492 -4.54856e-22)
(178.011 14.7737 -3.48386e-17)
(173.914 14.2182 -3.55776e-17)
(170.855 14.1014 0)
(166.797 13.4607 0)
(164.237 13.3511 0)
(160.097 12.5933 0)
(158.15 12.3824 -4.74376e-22)
(153.826 11.4945 0)
(152.66 11.0335 0)
(148.15 9.59393 0)
(100.007 -0.689819 0)
(100.243 -1.95919 -4.36825e-17)
(100.722 -3.1178 4.19024e-17)
(101.383 -4.11491 0)
(102.218 -5.09656 3.64807e-17)
(103.198 -6.27493 -1.43657e-21)
(104.353 -7.95135 -3.23654e-17)
(105.699 -10.1593 -9.50556e-22)
(107.277 -12.7186 6.35424e-17)
(109.117 -15.2503 0)
(111.29 -17.4007 0)
(113.818 -18.9138 -3.38387e-17)
(116.73 -19.6939 -6.90016e-17)
(119.913 -19.8198 0)
(123.288 -19.4918 -3.47656e-17)
(126.65 -19.0117 0)
(130.014 -18.6019 3.28128e-17)
(133.292 -18.4014 -3.12405e-17)
(136.677 -18.3553 0)
(140.06 -18.4408 -5.6665e-17)
(143.654 -18.5653 5.43919e-17)
(147.247 -18.7773 -2.61444e-17)
(151.126 -18.9989 -2.52528e-17)
(154.977 -19.3194 0)
(159.213 -19.6244 2.35144e-17)
(163.372 -20.0466 -2.25922e-17)
(168.044 -20.4201 0)
(172.564 -20.944 2.08703e-17)
(177.774 -21.3768 0)
(182.712 -22.012 0)
(188.585 -22.4992 0)
(194.007 -23.2646 9.99334e-22)
(200.708 -23.8025 -3.34303e-17)
(206.691 -24.7269 0)
(214.434 -25.3142 3.00057e-17)
(221.066 -26.439 1.20288e-21)
(230.138 -27.0767 -1.32834e-17)
(237.521 -28.4588 0)
(248.306 -29.1615 0)
(256.562 -30.8969 1.99094e-17)
(269.596 -31.7332 0)
(278.921 -33.9904 0)
(295.023 -35.112 8.07317e-18)
(305.834 -38.0896 0)
(326.331 -39.6417 0)
(339.461 -43.2892 -3.94192e-18)
(366.25 -45.057 0)
(382.751 -48.4632 0)
(417.555 -49.8125 0)
(438.097 -50.9822 5.16396e-19)
(481.24 -51.6287 -2.09762e-18)
(506.997 -43.8057 -3.34096e-18)
(549.914 -41.5305 -1.31794e-21)
(578.628 -0.8348 1.40769e-18)
(551.489 20.5153 4.97189e-21)
(540.406 29.9207 6.71283e-18)
(505.38 33.6696 -1.86832e-21)
(489.235 33.3268 0)
(458.923 34.7194 1.36148e-18)
(442.945 33.6343 0)
(417.419 33.8233 -2.24003e-18)
(402.67 31.9181 8.86736e-22)
(381.891 31.2657 0)
(369.079 29.2017 -2.49438e-18)
(352.402 28.3551 -4.21246e-18)
(341.311 26.5802 3.93357e-18)
(327.699 25.8298 0)
(317.943 24.4251 0)
(306.606 23.812 -6.32871e-18)
(297.911 22.7364 -5.15031e-22)
(288.24 22.2562 -7.35131e-18)
(280.355 21.4618 7.64255e-18)
(271.882 21.1024 2.741e-22)
(264.621 20.53 1.75252e-17)
(257.027 20.2485 0)
(250.278 19.8185 1.97946e-17)
(243.363 19.56 1.05487e-17)
(237.075 19.1982 0)
(230.728 18.9105 -1.17354e-17)
(224.892 18.5606 0)
(219.059 18.2116 2.58581e-17)
(213.693 17.8521 1.34945e-17)
(208.346 17.439 0)
(203.47 17.0821 0)
(198.57 16.6221 3.00116e-17)
(194.179 16.3013 -1.55005e-17)
(189.655 15.8154 -1.59025e-17)
(185.721 15.5621 3.28547e-17)
(181.468 15.0517 1.68125e-17)
(177.967 14.8755 1.74149e-17)
(173.872 14.3166 1.77839e-17)
(170.811 14.2001 0)
(166.753 13.5554 -1.88269e-17)
(164.191 13.4468 0)
(160.049 12.6838 -1.99425e-17)
(158.101 12.4741 -2.10678e-17)