/*--------------------------------*- C++ -*----------------------------------*\
| =========                 |                                                 |
| \\      /  F ield         | OpenFOAM: The Open Source CFD Toolbox           |
|  \\    /   O peration     | Version:  2412                                  |
|   \\  /    A nd           | Website:  www.openfoam.com                      |
|    \\/     M anipulation  |                                                 |
\*---------------------------------------------------------------------------*/
FoamFile
{
    version     2.0;
    format      ascii;
    arch        "LSB;label=32;scalar=64";
    class       volScalarField;
    location    "0.8";
    object      epsilon;
}
// * * * * * * * * * * * * * * * * * * * * * * * * * * * * * * * * * * * * * //

dimensions      [0 2 -3 0 0 0 0];

internalField   nonuniform List<scalar> 
13079
(
417.144
469.722
543.179
652.12
809.1
1005.23
1212.4
1399.87
1546.84
1649.42
1713.89
1752.31
1776.33
1795.69
1815.13
1832.32
1833.74
1806.48
1756.75
1711.85
1692.19
1703.38
1737.65
1789.45
1851.56
1925.38
2007.53
2105.05
2214.42
2347.67
2498.34
2685.58
2896.32
3162.18
3457.3
3837.26
4251.95
4804.78
5400
6240.27
7159.27
8599.39
10293.7
13179.1
16679
22606.5
29359.1
40192.4
50097.9
65319.9
80565.5
110189
240599
298239
318413
340629
344552
338024
312041
289258
268855
260464
255477
254866
251609
248284
241581
234579
225205
215547
203980
191793
178032
163707
148457
133117
117677
416.363
467.902
539.956
647.149
802.233
996.821
1203.35
1391.1
1538.86
1642.12
1706.68
1744.36
1766.81
1783.92
1800.65
1814.63
1812.18
1781.05
1729.09
1684.29
1666.32
1679.63
1715.9
1769.43
1833.1
1908.33
1991.88
2090.69
2201.31
2335.64
2487.24
2675.1
2886.21
3151.93
3446.56
3825.26
4238.22
4788.09
5379.66
6214.34
7127.48
8559.53
10246.7
13119.8
16602.2
22486.3
29152.1
39783.8
49393.3
64212.1
79168.1
108225
236240
292109
309738
329334
331840
324510
299215
277395
258136
250290
245445
244636
241114
237587
230818
223899
214725
205369
194165
182397
169086
155244
140493
125669
110749
415.601
466.129
536.819
642.313
795.556
988.665
1194.61
1382.68
1531.29
1635.3
1700.05
1737.14
1758.21
1773.29
1787.53
1798.48
1792.28
1757.42
1703.39
1658.8
1642.49
1657.83
1695.98
1751.11
1816.21
1892.77
1977.6
2077.62
2189.4
2324.72
2477.18
2665.6
2877.03
3142.61
3436.75
3814.26
4225.57
4772.66
5360.78
6190.2
7097.9
8522.48
10203.1
13064.6
16530.4
22372
28952.7
39387
48711.8
63148.8
77832.4
106334
231986
286233
301487
318590
319760
311689
287059
266127
247885
240461
235656
234580
230750
226996
220147
213300
204317
195252
184404
173049
160186
146824
132575
118271
103878
414.858
464.401
533.764
637.607
789.065
980.749
1186.16
1374.61
1524.11
1628.94
1693.98
1730.61
1750.46
1763.73
1775.68
1783.75
1773.91
1735.46
1679.52
1635.22
1620.55
1637.82
1677.73
1734.35
1800.79
1878.57
1964.59
2065.73
2178.59
2314.82
2468.08
2657
2868.72
3134.16
3427.82
3804.2
4213.94
4758.39
5343.28
6167.76
7070.42
8488.09
10162.7
13013.4
16463.3
22263.5
28760.6
39001.5
48052.7
62128.5
76555.4
104511
227829
280591
293634
308372
308283
299528
275538
255421
238070
230956
226100
224696
220525
216522
209583
202798
193999
185217
174719
163769
151350
138468
124724
110943
97085.6
414.132
462.715
530.789
633.028
782.753
973.064
1177.99
1366.85
1517.29
1623
1688.43
1724.72
1743.53
1755.17
1765.03
1770.35
1756.97
1715.07
1657.37
1613.43
1600.36
1619.47
1661.03
1719.03
1786.71
1865.62
1952.76
2054.93
2168.79
2305.87
2459.86
2649.25
2861.23
3126.5
3419.71
3795
4203.28
4745.24
5327.1
6146.95
7044.95
8456.24
10125.4
12966
16400.7
22160.4
28575.5
38627.3
47415.7
61149.9
75334.7
102753
223767
275169
286156
298652
297381
287997
264619
245242
228665
221758
216767
214984
210444
206179
199143
192413
183793
175285
165129
154579
142602
130199
116961
103708
90396.2
77564.3
65538.7
54705.7
45264.2
37410
31161.2
26311.5
22641.7
19776.5
17539
15632.1
14033.9
12528.9
11220.3
9931.73
8829.29
7746.45
6860.42
6028.22
5385.39
4872.16
4545
413.424
461.07
527.89
628.571
776.612
965.601
1170.08
1359.4
1510.83
1617.48
1683.37
1719.44
1737.36
1747.56
1755.5
1758.21
1741.38
1696.14
1636.82
1593.31
1581.81
1602.67
1645.77
1705.05
1773.88
1853.84
1942.01
2045.15
2159.93
2297.79
2452.46
2642.28
2854.48
3119.6
3412.37
3786.64
4193.53
4733.15
5312.18
6127.71
7021.41
8426.84
10091.1
12922.3
16342.3
22062.5
28397.1
38264.1
46800.6
60211.9
74168
101057
219793
269950
279030
289406
287027
277066
254269
235559
219646
212849
207653
205447
200519
195981
188846
182165
173719
165478
155659
145502
133964
122039
109312
96593.4
83838.1
71599.7
60170.2
49958.7
41156
33922.6
28231.5
23847.5
20539.1
17950.4
15918.6
14177.8
12713.3
11336
10140.6
8973.12
7978.77
7013.36
6226.41
5498.28
4936.84
4503.8
4229.6
412.733
459.466
525.066
624.232
770.637
958.35
1162.42
1352.24
1504.69
1612.33
1678.76
1714.73
1731.9
1740.84
1747.03
1747.23
1727.03
1678.58
1617.77
1574.75
1564.78
1587.29
1631.83
1692.31
1762.2
1843.14
1932.27
2036.3
2151.94
2290.54
2445.83
2636.04
2848.45
3113.41
3405.76
3779.07
4184.66
4722.09
5298.47
6109.97
6999.74
8399.79
10059.7
12882
16288
21969.6
28225.3
37911.8
46206.9
59313.1
73053.1
99421.3
215906
264920
272235
280611
277197
266706
244457
226344
210989
204217
198751
196089
190759
185943
178709
172075
163801
155818
146331
136562
125462
114015
101803
89626.2
77441.1
65812.5
55006.5
45441.8
37293.6
30680.4
25530.9
21588
18616.1
16282.6
14440.9
12855
11516.3
10260
9171.96
8118.35
7224.71
6366.81
5669.6
5034.05
4544.43
4180.97
3952.22
412.058
457.9
522.313
620.005
764.822
951.303
1155
1345.34
1498.85
1607.54
1674.58
1710.55
1727.13
1734.97
1739.54
1737.34
1713.86
1662.32
1600.14
1557.65
1549.17
1573.25
1619.14
1680.72
1751.6
1833.45
1923.46
2028.33
2144.77
2284.05
2439.91
2630.49
2843.08
3107.89
3399.84
3772.25
4176.62
4712.01
5285.92
6093.69
6979.86
8375.01
10031
12845.1
16237.6
21881.4
28059.7
37570.3
45634.5
58452.6
71988.1
97842.3
212100
260066
265750
272243
267864
256887
235153
217568
202674
195848
190061
186913
181175
176081
168754
162164
154062
146332
137173
127786
117124
106155
94462.9
82836.7
71237
60234.8
50077.9
41180.6
33694.1
27691
23059.5
19529
16866.8
14767.3
13099.9
11657.6
10436.6
9294.04
8306.88
7359.1
6558.28
5797.86
5181.21
4627.47
4200.88
3897.6
3707.76
411.399
456.372
519.629
615.888
759.159
944.45
1147.81
1338.71
1493.31
1603.08
1670.81
1706.88
1722.99
1729.88
1732.98
1728.47
1701.78
1647.27
1583.84
1541.91
1534.87
1560.44
1607.59
1670.21
1742
1824.69
1915.53
2021.17
2138.36
2278.27
2434.67
2625.58
2838.34
3103.01
3394.58
3766.15
4169.39
4702.86
5274.5
6078.8
6961.71
8352.4
10004.9
12811.3
16190.9
21797.8
27900.4
37239.5
45082.9
57629.3
70970.9
96318
208374
255376
259558
264282
259004
247582
226328
209205
194681
187733
181579
177927
171781
166413
159000
152457
144526
137044
128209
119201
108976
98487.3
87321.9
76256.2
65258
54899.4
45413.4
37196.7
30369.5
24956.8
20813.3
17663.4
15283.7
13396.8
11888.6
10578.6
9467.04
8430.48
7537.2
6686.87
5970.77
5297.98
4753.14
4271.32
3899.84
3648.45
3491.86
410.755
454.88
517.012
611.875
753.643
937.784
1140.84
1332.31
1488.03
1598.93
1667.41
1703.68
1719.45
1725.53
1727.29
1720.55
1690.73
1633.36
1568.78
1527.46
1521.81
1548.78
1597.11
1660.68
1733.32
1816.79
1908.4
2014.77
2132.65
2273.15
2430.05
2621.27
2834.19
3098.72
3389.95
3760.73
4162.91
4694.62
5264.15
6065.25
6945.22
8331.89
9981.27
12780.6
16147.8
21718.5
27747
36919.2
44551.9
56841.9
69999.6
94846.3
204723
250837
253639
256704
250593
238763
217955
201230
186994
179861
173306
169138
162590
156956
149468
142975
135218
127980
119468
110834
101047
91041.5
80410.8
69916.4
59536.4
49837.3
41038.2
33506.4
27325.2
22474.7
18784.5
15981.8
13857.3
12162.5
10798.9
9610.24
8599.74
7661.24
6854.57
6093.18
5453.78
4859.24
4378.03
3959.15
3635.7
3429
3300.77
410.126
453.423
514.46
607.964
748.268
931.295
1134.07
1326.15
1483.01
1595.07
1664.36
1700.92
1716.47
1721.88
1722.41
1713.52
1680.64
1620.51
1554.9
1514.2
1509.9
1538.19
1587.61
1652.07
1725.5
1809.7
1902.03
2009.07
2127.59
2268.65
2426.01
2617.52
2830.59
3094.99
3385.9
3755.95
4157.17
4687.23
5254.83
6053
6930.32
8313.39
9960.1
12752.8
16108.1
21643.5
27599.4
36609.2
44041.1
56089.3
69072.3
93424.8
201145
246438
247978
249490
242605
230403
210005
193619
179595
172226
165242
160553
153615
147728
140180
133742
126163
119166
110976
102714
93368.3
83848
73760.5
63848.7
54102.4
45075.7
36971.8
30118.6
24560.3
20236.9
16961.9
14472.9
12577.2
11054.9
9821.95
8744.08
7826.46
6978.03
6250.65
5569.83
4999.37
4474.29
4049.2
3685.24
3403.58
3235.3
3131.25
409.512
452.001
511.97
604.151
743.029
924.978
1127.5
1320.19
1478.23
1591.49
1661.64
1698.57
1714.01
1718.87
1718.29
1707.31
1671.43
1608.67
1542.11
1502.06
1499.05
1528.6
1579.04
1644.32
1718.48
1803.35
1896.35
2004.03
2123.15
2264.72
2422.52
2614.3
2827.51
3091.8
3382.41
3751.8
4152.13
4680.67
5246.5
6041.99
6916.96
8296.81
9941.23
12727.8
16071.7
21572.5
27457.5
36309.6
43550.2
55370.5
68187.2
92051.6
197638
242170
242556
242619
235019
222475
202454
186350
172471
164820
157389
152180
144871
138747
131158
124782
117387
110630
102762
94870.6
85967.8
76937
67401.4
58082.9
48983.1
40636.8
33226.9
27035.5
22067.6
18231.2
15332.4
13124
11432.2
10064
8948.79
7971.59
7138.85
6372.62
5717.35
5109.03
4600.2
4136.5
3760.74
3444.6
3199.24
3063.98
2980.53
408.911
450.611
509.54
600.432
737.921
918.824
1121.12
1314.45
1473.66
1588.15
1659.22
1696.6
1712.04
1716.48
1714.87
1701.87
1663.07
1597.78
1530.36
1490.96
1489.2
1519.93
1571.32
1637.36
1712.19
1797.7
1891.33
1999.59
2119.28
2261.33
2419.53
2611.57
2824.91
3089.1
3379.45
3748.22
4147.75
4674.9
5239.12
6032.16
6905.07
8282.08
9924.55
12705.4
16038.3
21505.4
27321.1
36020.1
43078.7
54684.2
67342.5
90724.7
194199
238022
237359
236072
227812
214956
195277
179403
165608
157638
149749
144030
136372
130033
122422
116118
108913
102396
94851.6
87330.6
78874.5
70337.2
61361.8
52645.5
44201
36535.8
29808.7
24251.9
19835.2
16442.8
13881
11921.8
10410.6
9179.77
8170.27
7284.2
6528.69
5837.08
5246.98
4703.57
4249.55
3839.92
3507.39
3232.85
3019
2912.1
2846.19
408.323
449.253
507.168
596.803
732.939
912.826
1114.91
1308.89
1469.3
1585.05
1657.09
1695
1710.54
1714.65
1712.11
1697.15
1655.49
1587.77
1519.58
1480.85
1480.28
1512.12
1564.39
1631.14
1706.6
1792.7
1886.9
1995.72
2115.93
2258.43
2417.02
2609.31
2822.78
3086.88
3376.99
3745.21
4144
4669.89
5232.65
6023.48
6894.59
8269.12
9909.98
12685.6
16007.9
21441.9
27190.1
35740.7
42626.3
54029.4
66536.5
89442
190825
233986
232373
229830
220962
207819
188451
172758
158994
150675
142326
136110
128133
121603
113992
107772
100767
94489.8
87271.8
80121.1
72115.6
64075.6
55667
47558.7
39772.3
32780.4
26714.5
21756.8
17847.2
14854.7
12592.3
10853
9501.21
8392.3
7477.46
6673.63
5988.07
5363.85
4832.38
4346.83
3941.4
3579.26
3284.58
3046.18
2859.7
2777.16
2726.18
407.749
447.926
504.852
593.262
728.077
906.978
1108.87
1303.51
1465.14
1582.17
1655.22
1693.72
1709.45
1713.36
1709.97
1693.09
1648.64
1578.59
1509.71
1471.65
1472.23
1505.1
1558.2
1625.6
1701.64
1788.29
1883.03
1992.37
2113.08
2256
2414.95
2607.47
2821.07
3085.1
3375
3742.72
4140.85
4665.59
5227.05
6015.9
6885.45
8257.85
9897.41
12668.1
15980.2
21382
27064.2
35471.1
42192.5
53405
65767.6
88201.9
187514
230052
227582
223875
214449
201044
181954
166397
152617
143928
135122
128431
120167
113474
105890
99766.1
92970.5
86935.5
80046.8
73267.1
65715.5
58175.5
50338
42839
35705.9
29370.7
23935.2
19534.3
16085
13449.1
11450.6
9904.44
8692.87
7692.01
6861.78
6131.97
5509.56
4945.95
4467
4032.86
3670.37
3349.89
3088.31
2881.3
2718.59
2656.98
2618.7
407.187
446.628
502.591
589.806
723.331
901.273
1103
1298.31
1461.15
1579.48
1653.59
1692.76
1708.77
1712.56
1708.39
1689.64
1642.47
1570.2
1500.69
1463.31
1464.98
1498.83
1552.69
1620.7
1697.28
1784.44
1879.69
1989.5
2110.68
2254.01
2413.3
2606.04
2819.76
3083.75
3373.46
3740.73
4138.28
4661.98
5222.28
6009.36
6877.61
8248.2
9886.76
12653
15955.3
21325.6
26943.4
35211.2
41777
52809.9
65034.2
87002.5
184265
226212
222974
218192
208252
194606
175765
160305
146469
137393
128143
121002
112488
105663
98132.5
92119.5
85543.8
79754.2
73198.4
66790.3
59695.2
52656
45390
38495.9
32003.4
26299.2
21455.6
17564.9
14528.8
12208.2
10440.9
9063.65
7975.15
7069.9
6315.18
5651.83
5086.23
4576.98
4144.93
3756.33
3431.74
3147.75
2915.09
2735.39
2593.32
2549.7
2522.22
406.637
445.36
500.382
586.431
718.697
895.705
1097.27
1293.26
1457.33
1576.98
1652.18
1692.08
1708.46
1712.21
1707.34
1686.77
1636.93
1562.53
1492.47
1455.76
1458.48
1493.25
1547.81
1616.38
1693.47
1781.1
1876.82
1987.09
2108.7
2252.41
2412.03
2604.99
2818.84
3082.78
3372.35
3739.22
4136.25
4659.03
5218.31
6003.82
6871.01
8240.08
9877.91
12640
15932.8
21272.3
26827.6
34960.9
41379.3
52242.9
64334.6
85842.2
181076
222460
218537
212762
202353
188486
169865
154465
140540
131070
121390
113832
105109
98185.2
90736.3
84849.6
78504.9
72964.3
66744.8
60708.6
54070.8
47530.6
40831.7
34531.7
28658.9
23552.2
19256.3
15827.3
13158.3
11114.4
9548.89
8318.94
7338.31
6517.57
5830.17
5226.37
4711.78
4251.12
3860.86
3512.54
3221.34
2969.32
2761.95
2605.98
2481.88
2453.71
2435.41
406.099
444.12
498.225
583.135
714.171
890.267
1091.68
1288.36
1453.67
1574.66
1650.98
1691.66
1708.49
1712.29
1706.77
1684.43
1631.99
1555.56
1485
1448.96
1452.68
1488.31
1543.53
1612.62
1690.17
1778.24
1874.4
1985.1
2107.12
2251.19
2411.11
2604.29
2818.26
3082.19
3371.63
3738.16
4134.74
4656.7
5215.09
5999.23
6865.58
8233.43
9870.8
12629
15912.8
21222.2
26716.5
34720
40999
51703.1
63667.4
84719.3
177944
218788
214258
207571
196733
182662
164236
148864
134822
124955
114870
106930
98041.8
91053.9
83715.7
77971.1
71868.5
66580.6
60700.5
55035.4
48853.1
42806.5
36665
30941.3
25659.7
21110.8
17314.9
14299.2
11953.8
10151.3
8761.17
7659.51
6773.38
6027.32
5399.89
4849.38
4380.5
3963.2
3610.09
3297.36
3035.57
2811.54
2626.29
2490.98
2382.52
2367.63
2357.12
405.573
442.907
496.116
579.915
709.748
884.956
1086.24
1283.6
1450.15
1572.49
1649.96
1691.49
1708.83
1712.77
1706.65
1682.57
1627.61
1549.23
1478.24
1442.87
1447.53
1483.96
1539.79
1609.36
1687.34
1775.82
1872.4
1983.5
2105.91
2250.32
2410.54
2603.92
2818.02
3081.95
3371.29
3737.53
4133.72
4654.97
5212.59
5995.56
6861.27
8228.19
9865.32
12620.1
15895
21175.1
26610.2
34488.3
40635.6
51189.4
63031.2
83632.4
174869
215190
210127
202603
191376
177118
158861
143488
129308
119048
108586
100303
91295.9
84280.6
77081.8
71495.3
65645.5
60613.8
55074.6
49778.2
44046.7
38484.3
32884.7
27713.1
22987.5
18952.5
15607.8
12958.5
10896.3
9303.63
8065.6
7075.56
6272.2
5592.14
5018.13
4515.25
4087.24
3708.58
3388.47
3107.16
2871.26
2671.76
2505.87
2388.56
2293.74
2290.26
2286.35
405.058
441.721
494.056
576.768
705.424
879.764
1080.92
1278.97
1446.76
1570.46
1649.13
1691.54
1709.47
1713.61
1706.95
1681.17
1623.73
1543.51
1472.14
1437.42
1442.99
1480.17
1536.56
1606.57
1684.94
1773.81
1870.78
1982.26
2105.03
2249.77
2410.27
2603.86
2818.1
3082.03
3371.31
3737.31
4133.18
4653.8
5210.78
5992.76
6858.04
8224.27
9861.4
12612.9
15879.4
21130.9
26508.3
34265.8
40288.6
50700.7
62424.4
82579.9
171848
211660
206133
197846
186264
171833
153723
138325
123992
113347
102541
93959.7
84880.1
77874.1
70842.8
65429.8
59842.1
55069.4
49871
44938.9
39650
34557.9
29478.8
24829.5
20620.1
17052.7
14110.9
11784
9968.4
8557.52
7451.2
6558.25
5827.42
5205.72
4679.26
4218.94
3827.46
3483.19
3192.37
2938.8
2725.69
2547.71
2398.77
2297.17
2214.24
2220.57
2222.24
404.554
440.56
492.042
573.692
701.196
874.687
1075.72
1274.46
1443.5
1568.57
1648.44
1691.8
1710.38
1714.78
1707.62
1680.18
1620.34
1538.36
1466.66
1432.58
1439
1476.89
1533.79
1604.22
1682.96
1772.19
1869.52
1981.36
2104.47
2249.53
2410.29
2604.09
2818.46
3082.43
3371.66
3737.46
4133.07
4653.17
5209.62
5990.79
6855.82
8221.62
9858.95
12607.5
15865.9
21089.4
26411
34052.1
39957.6
50236.1
61845.9
81560.6
168882
208193
202267
193284
181382
166793
148808
133364
118867
107853
96738.2
87904.8
78800.7
71840.6
65003.2
59778.1
54460.2
49947.9
45088.1
40513.3
35654.8
31014.9
26429.9
22268.4
18532.4
15385.8
12800.9
10755.8
9154.18
7900.45
6908.14
6099.68
5432.46
4862.38
4378.29
3955.97
3597.12
3283.43
3018.6
2789.52
2596.5
2437.4
2303.34
2215.45
2142.91
2157.65
2164.03
404.06
439.425
490.072
570.685
697.061
869.72
1070.65
1270.07
1440.34
1566.79
1647.91
1692.25
1711.54
1716.26
1708.65
1679.57
1617.4
1533.74
1461.76
1428.31
1435.55
1474.09
1531.47
1602.27
1681.35
1770.92
1868.59
1980.76
2104.2
2249.56
2410.59
2604.58
2819.09
3083.11
3372.32
3737.98
4133.38
4653.05
5209.09
5989.6
6854.57
8220.17
9857.9
12603.8
15854.3
21050.6
26317.9
33847.2
39642.3
49794.6
61294.3
80572.9
165967
204784
198518
188906
176715
161980
144103
128595
113929
102563
91181.2
82143.2
73062
66183.2
59563.8
54539.1
49496.7
45244.7
40718.6
36491.4
32047.3
27837.6
23716.1
20004.8
16698.1
13927
11655.8
9855.98
8439.32
7321.31
6427.68
5692.81
5081.46
4557.11
4110.77
3722.37
3392.64
3106.17
2864.39
2656.94
2481.64
2339.14
2218.13
2142.23
2078.77
2100.72
2111.06
403.577
438.313
488.146
567.744
693.015
864.859
1065.68
1265.79
1437.29
1565.13
1647.5
1692.87
1712.92
1718.02
1709.99
1679.32
1614.87
1529.62
1457.4
1424.57
1432.58
1471.73
1529.55
1600.69
1680.09
1769.97
1867.96
1980.46
2104.21
2249.85
2411.13
2605.33
2819.98
3084.07
3373.29
3738.84
4134.09
4653.41
5209.15
5989.17
6854.24
8219.85
9858.17
12601.6
15844.5
21014.3
26229
33650.8
39341.9
49375.3
60768.2
79615.7
163104
201428
194879
184700
172249
157380
139593
124009
109173
97478.5
85871.5
76677.9
67665.7
60901.7
54521.4
49707.7
44943.6
40949.8
36749.7
32857.9
28808.8
25003.8
21312.3
18012.1
15091.1
12652.1
10655.2
9068.05
7811.13
6810.28
6002.14
5331.46
4769.25
4285.43
3872.75
3514.64
3210.92
2948.66
2727.34
2539.02
2379.35
2251.45
2141.92
2076.52
2021
2049.12
2062.75
403.104
437.225
486.262
564.866
689.054
860.098
1060.81
1261.6
1434.34
1563.56
1647.21
1693.64
1714.51
1720.04
1711.62
1679.38
1612.73
1525.96
1453.54
1421.32
1430.06
1469.78
1528
1599.47
1679.16
1769.33
1867.62
1980.42
2104.46
2250.38
2411.91
2606.31
2821.11
3085.28
3374.53
3740.02
4135.18
4654.23
5209.76
5989.45
6854.78
8220.62
9859.68
12600.9
15836.4
20980.4
26144.2
33462.7
39056.3
48977.1
60266.6
78687.7
160291
198121
191340
180654
167971
152979
135268
119597
104594
92597.3
80810.2
71510.5
62611
55992.5
49869
45274.2
40788.6
37048.8
33164.4
29592.9
25916.5
22488.5
19191.6
16263.2
13685.8
11538.9
9780.7
8377.55
7258.43
6358.75
5624.76
5010.16
4491.23
4043.4
3660.76
3329.71
3049.21
2808.5
2605.35
2433.95
2288.1
2173.06
2073.63
2017.42
1968.86
2002.23
2018.6
402.64
436.16
484.418
562.051
685.175
855.434
1056.05
1257.51
1431.47
1562.08
1647.03
1694.55
1716.29
1722.29
1713.52
1679.74
1610.95
1522.74
1450.16
1418.53
1427.97
1468.21
1526.81
1598.56
1678.52
1768.97
1867.54
1980.62
2104.95
2251.14
2412.9
2607.5
2822.47
3086.73
3376.04
3741.5
4136.62
4655.49
5210.91
5990.4
6856.15
8222.4
9862.36
12601.6
15830
20948.8
26063.3
33282.8
38784.8
48599.2
59788.3
77787.7
157527
194859
187896
176757
163869
148764
131116
115351
100188
87918.7
75997.5
66640.4
57894.5
51449.1
45595.9
41225.1
37015.2
33523.1
29941.4
26673.3
23345.2
20264.7
17326.8
14731.6
12458.2
10566.9
9015.95
7771.69
6771.44
5959.22
5289.63
4724.11
4243.39
3827.55
3471.73
3164.88
2905.12
2683.6
2496.6
2340.19
2206.56
2102.86
2012.33
1964.18
1921.71
1959.55
1978.18
402.186
435.118
482.615
559.295
681.376
850.862
1051.38
1253.51
1428.68
1560.68
1646.94
1695.59
1718.24
1724.75
1715.66
1680.37
1609.5
1519.93
1447.23
1416.17
1426.26
1466.99
1525.93
1597.96
1678.17
1768.86
1867.7
1981.06
2105.66
2252.1
2414.1
2608.9
2824.03
3088.41
3377.8
3743.27
4138.4
4657.15
5212.56
5991.99
6858.31
8225.14
9866.14
12603.5
15825.2
20919.5
25986.3
33110.9
38526.9
48240.7
59332.1
76914.7
154812
191640
184538
173000
159930
144722
127127
111263
95951.6
83441.5
71432.7
62065.6
53510.2
47261.5
41688
37543.5
33603.8
30351
27057.1
24073.6
21067.8
18305.1
15690.7
13392.4
11386.5
9717.97
8346.44
7239.33
6341.65
5605.12
4991.59
4469.11
4022.18
3634.83
3302.99
3017.78
2776.56
2572.14
2399.51
2256.39
2133.58
2039.9
1957.22
1916.14
1879
1920.63
1941.08
401.741
434.096
480.849
556.597
677.654
846.379
1046.8
1249.59
1425.96
1559.35
1646.93
1696.74
1720.34
1727.4
1718
1681.24
1608.36
1517.51
1444.71
1414.22
1424.92
1466.1
1525.36
1597.62
1678.06
1769
1868.09
1981.7
2106.56
2253.25
2415.48
2610.48
2825.78
3090.29
3379.78
3745.31
4140.49
4659.21
5214.68
5994.18
6861.2
8228.79
9870.97
12606.7
15821.8
20892.2
25913.1
32946.8
38282.4
47900.8
58897
76067.6
152144
188460
181260
169373
156145
140843
123291
107327
91880.8
79164.2
67113.8
57781.9
49449.7
43417.1
38128.6
34209.7
30532.1
27508.4
24485.5
21766.8
19056.9
16582.3
14257.7
12222.1
10450.6
8975.79
7759.48
6770.77
5961.69
5290.78
4726.13
4241.5
3824.51
3462.55
3152.18
2886.33
2661.71
2472.54
2312.7
2181.38
2068.16
1983.33
1907.59
1872.71
1840.24
1885.05
1906.96
401.305
433.096
479.121
553.955
674.005
841.98
1042.3
1245.74
1423.31
1558.08
1647
1698
1722.58
1730.23
1720.54
1682.34
1607.5
1515.43
1442.57
1412.63
1423.92
1465.52
1525.05
1597.55
1678.2
1769.36
1868.68
1982.54
2107.65
2254.58
2417.03
2612.24
2827.71
3092.37
3381.99
3747.6
4142.88
4661.62
5217.25
5996.95
6864.79
8233.3
9876.77
12611
15819.8
20867
25843.5
32790.2
38050.6
47578.7
58482
75245.3
149523
185316
178057
165867
152502
137116
119600
103538
87972.2
75084.6
63038
53783.7
45702.5
39900.9
34898.5
31202
27776
24969.9
22200.1
19725.8
17285.4
15070.3
13003.7
11199.6
9632.84
8326.15
7244.06
6357.62
5625.18
5011.26
4489.34
4038.06
3647.65
3308.37
3017.22
2768.74
2558.96
2383.41
2234.98
2114.15
2009.43
1932.45
1862.82
1833.39
1805.01
1852.48
1875.51
400.878
432.116
477.428
551.368
670.427
837.663
1037.88
1241.96
1420.71
1556.86
1647.13
1699.34
1724.94
1733.2
1723.26
1683.63
1606.9
1513.69
1440.8
1411.39
1423.23
1465.22
1525.01
1597.71
1678.55
1769.92
1869.46
1983.56
2108.9
2256.08
2418.75
2614.16
2829.82
3094.64
3384.39
3750.13
4145.54
4664.38
5220.25
6000.25
6869.04
8238.62
9883.48
12616.4
15819.1
20843.8
25777.4
32641
37831.1
47273.4
58086
74446.9
146948
182206
174921
162473
148991
133530
116045
99888.1
84222.4
71200.5
59201.1
50063.3
42255.7
36695.9
31977
28497.1
25310.7
22709.5
20174.2
17924
15727.5
13744.8
11906.7
10305.9
8917.55
7756.67
6790.65
5992.63
5326.61
4762.3
4277.81
3855.98
3489.21
3170.22
2896.33
2663.41
2466.94
2303.56
2165.3
2053.8
1956.65
1886.61
1822.4
1797.75
1772.93
1822.59
1846.48
400.459
431.157
475.771
548.832
666.919
833.424
1033.54
1238.24
1418.17
1555.69
1647.31
1700.76
1727.42
1736.32
1726.12
1685.1
1606.55
1512.26
1439.36
1410.48
1422.83
1465.17
1525.2
1598.08
1679.11
1770.67
1870.42
1984.75
2110.32
2257.72
2420.61
2616.24
2832.07
3097.07
3386.99
3752.88
4148.47
4667.47
5223.64
6004.07
6873.9
8244.69
9891.05
12622.9
15819.6
20822.4
25714.7
32499
37623.6
46984.3
57708.1
73671.5
144419
179129
171849
159184
145605
130076
112618
96373.1
80628
67508.8
55598.1
46611.8
39095.4
33783.6
29342.3
26071.4
23111
20701.3
18382
16335.9
14358.9
12583.3
10946.9
9524.09
8291.05
7256.59
6391.03
5669.57
5061.2
4540.18
4088.57
3692.8
3347.12
3046.29
2787.89
2568.96
2384.42
2231.94
2102.76
1999.57
1909.14
1845.26
1785.83
1765.37
1743.68
1795.11
1819.61
400.048
430.216
474.148
546.347
663.476
829.259
1029.26
1234.59
1415.67
1554.57
1647.54
1702.24
1729.98
1739.55
1729.11
1686.73
1606.41
1511.12
1438.24
1409.86
1422.7
1465.37
1525.61
1598.66
1679.85
1771.6
1871.55
1986.09
2111.88
2259.51
2422.61
2618.45
2834.48
3099.66
3389.76
3755.84
4151.64
4670.86
5227.41
6008.36
6879.35
8251.46
9899.42
12630.2
15821.2
20802.8
25655.4
32363.9
37427.5
46710.6
57347.4
72918.2
141935
176082
168835
155992
142334
126747
109314
92988
77185.7
64006.2
52222.8
43418.7
36205.9
31144.7
26972.2
23901
21152.2
18920.3
16798.6
14937.5
13157.1
11565.4
10106.5
8839.38
7741.46
6816.65
6038.13
5383.08
4824.85
4341.69
3919.03
3546.38
3219.53
2935.01
2690.54
2484.17
2310.35
2167.61
2046.56
1950.78
1866.33
1807.91
1752.72
1735.93
1716.96
1769.81
1794.69
399.646
429.294
472.558
543.912
660.097
825.165
1025.06
1230.98
1413.21
1553.47
1647.81
1703.78
1732.63
1742.88
1732.22
1688.51
1606.49
1510.24
1437.41
1409.52
1422.82
1465.79
1526.22
1599.43
1680.77
1772.68
1872.82
1987.57
2113.57
2261.42
2424.74
2620.79
2837.02
3102.4
3392.7
3758.99
4155.05
4674.53
5231.53
6013.11
6885.35
8258.91
9908.54
12638.4
15823.9
20784.9
25599.3
32235.6
37242.4
46451.5
57003
72186
139496
173065
165874
152891
139171
123534
106125
89728.2
73892.1
60688.8
49068.3
40472.6
33570.8
28759.1
24844.4
21962.5
19410.5
17342.8
15401
13706.7
12101.8
10672.9
9369.95
8238.88
7258.49
6428.86
5725.86
5128.52
4614.02
4164.03
3766.92
3414.85
3104.83
2834.96
2603.03
2407.97
2243.78
2109.78
1995.99
1906.83
1827.71
1774.13
1722.69
1709.12
1692.51
1746.45
1771.54
399.251
428.391
470.999
541.524
656.78
821.14
1020.92
1227.43
1410.79
1552.4
1648.11
1705.37
1735.35
1746.3
1735.43
1690.41
1606.75
1509.62
1436.85
1409.44
1423.17
1466.42
1527.02
1600.36
1681.84
1773.92
1874.23
1989.18
2115.39
2263.45
2426.98
2623.25
2839.68
3105.28
3395.8
3762.33
4158.67
4678.48
5235.98
6018.27
6891.86
8266.97
9918.35
12647.5
15827.6
20768.6
25546.3
32113.8
37067.9
46206.4
56674.2
71474.4
137100
170075
162964
149874
136108
120429
103046
86589.3
70743.7
57552.3
46126.5
37760.9
31173.3
26607
22937.4
20233.5
17863.6
15946.6
14167.8
12623.5
11174.8
9889.74
8723.63
7711.36
6833.28
6086.37
5449
4901.91
4425.62
4004.79
3630.29
3296.54
3001.63
2744.94
2524.31
2339.42
2183.89
2057.74
1950.46
1867.2
1792.83
1743.56
1695.43
1684.67
1670.1
1724.86
1749.98
398.864
427.505
469.472
539.182
653.523
817.181
1016.84
1223.93
1408.39
1551.35
1648.43
1707
1738.13
1749.8
1738.72
1692.42
1607.18
1509.23
1436.55
1409.6
1423.74
1467.24
1527.99
1601.46
1683.06
1775.29
1875.77
1990.91
2117.31
2265.6
2429.33
2625.82
2842.46
3108.28
3399.04
3765.83
4162.49
4682.67
5240.74
6023.84
6898.85
8275.62
9928.81
12657.3
15832.3
20753.8
25496.3
31998.4
36903.6
45974.5
56360
70782.3
134749
167111
160100
146936
133139
117427
100071
83567.3
67737.2
54591.8
43389.1
35270.7
28996.4
24668.8
21230.5
18692.9
16490.4
14711.2
13079.7
11669.9
10359.9
9201.74
8155.63
7247.15
6458.2
5783.29
5203.06
4699.81
4256.99
3861.86
3507.4
3190.02
2908.67
2663.86
2453.42
2277.72
2129.98
2010.88
1909.42
1831.44
1761.29
1715.85
1670.65
1662.34
1649.53
1704.85
1729.86
398.484
426.637
467.976
536.885
650.323
813.285
1012.81
1220.47
1406.03
1550.32
1648.77
1708.66
1740.95
1753.35
1742.09
1694.53
1607.77
1509.05
1436.48
1409.98
1424.5
1468.23
1529.12
1602.69
1684.42
1776.78
1877.43
1992.75
2119.35
2267.84
2431.78
2628.49
2845.35
3111.41
3402.41
3769.49
4166.5
4687.09
5245.79
6029.77
6906.29
8284.81
9939.87
12667.8
15837.9
20740.6
25449.2
31889.1
36749
45755.3
56059.8
70109.2
132440
164174
157278
144069
130256
114520
97195
80658.4
64868.8
51802.2
40846.9
32988.4
27023
22925.4
19703.9
17320.9
15271.8
13618.1
12119.2
10829.8
9642.72
8596.53
7655.66
6837.91
6126.7
5514.55
4984.18
4519.27
4105.83
3733.39
3396.75
3094.02
2824.87
2590.77
2389.54
2222.11
2081.4
1968.63
1872.4
1799.15
1732.77
1690.71
1648.1
1641.92
1630.62
1686.28
1711.04
398.111
425.785
466.508
534.632
647.178
809.449
1008.84
1217.04
1403.68
1549.3
1649.13
1710.34
1743.82
1756.96
1745.5
1696.72
1608.5
1509.07
1436.63
1410.57
1425.45
1469.39
1530.4
1604.07
1685.89
1778.39
1879.19
1994.69
2121.47
2270.18
2434.32
2631.25
2848.33
3114.64
3405.9
3773.3
4170.68
4691.74
5251.11
6036.06
6914.15
8294.5
9951.48
12678.9
15844.2
20728.8
25404.9
31785.7
36603.8
45548
55772.8
69454.3
130174
161263
154497
141271
127455
111702
94413.3
77859.1
62135
49177.6
38490.2
30900.6
25236.6
21359
18339.4
16099.4
14190.2
12650.6
11270.9
10088.9
9010.84
8063.34
7214.81
6476.45
5833.15
5275.82
4789.02
4357.72
3970.14
3617.78
3297.01
3007.41
2749.25
2524.84
2331.93
2171.98
2037.6
1930.52
1838.98
1769.95
1706.93
1667.89
1627.56
1623.22
1613.2
1669.01
1693.41
397.746
424.95
465.07
532.42
644.087
805.671
1004.92
1213.65
1401.36
1548.29
1649.48
1712.04
1746.72
1760.61
1748.96
1698.98
1609.36
1509.27
1436.98
1411.35
1426.57
1470.7
1531.81
1605.57
1687.49
1780.11
1881.05
1996.72
2123.69
2272.6
2436.95
2634.11
2851.4
3117.97
3409.51
3777.25
4175.02
4696.59
5256.69
6042.67
6922.4
8304.66
9963.61
12690.7
15851.4
20718.3
25363.4
31688
36467.5
45352.2
55498.3
68817
127951
158376
151752
138535
124730
108969
91721.7
75165.8
59532
46712.2
36309.4
28993.5
23621.4
19952.4
17120.1
15011.7
13229.9
11793.7
10521
9434.9
8453.32
7592.85
6825.41
6156.61
5572.72
5063.34
4614.72
4212.93
3848.16
3513.61
3207.02
2929.21
2680.97
2465.32
2279.94
2126.75
1998.08
1896.13
1808.79
1743.55
1683.52
1647.15
1608.83
1606.07
1597.14
1652.91
1676.85
397.387
424.131
463.659
530.249
641.049
801.949
1001.05
1210.3
1399.04
1547.28
1649.84
1713.75
1749.63
1764.28
1752.45
1701.31
1610.33
1509.65
1437.53
1412.31
1427.84
1472.14
1533.34
1607.18
1689.18
1781.92
1883
1998.84
2125.98
2275.09
2439.65
2637.04
2854.56
3121.4
3413.22
3781.32
4179.52
4701.63
5262.5
6049.58
6931.01
8315.26
9976.22
12703
15859.3
20709.1
25324.5
31595.9
36339.8
45167.1
55235.7
68196.5
125769
155515
149042
135858
122075
106316
89116.2
72575.5
57056
44399.8
34294.4
27253.9
22162.2
18690
16030.4
14042.9
12376.7
11034.1
9857.27
8856.75
7960.68
7176.99
6480.82
5873.06
5341.24
4873.9
4458.79
4082.98
3738.37
3419.66
3125.75
2858.56
2619.28
2411.55
2233
2085.92
1962.41
1865.08
1781.51
1719.65
1662.29
1628.28
1591.73
1590.33
1582.29
1637.87
1661.26
397.035
423.328
462.275
528.118
638.06
798.28
997.228
1206.97
1396.74
1546.26
1650.2
1715.46
1752.57
1767.97
1755.97
1703.67
1611.41
1510.18
1438.24
1413.43
1429.26
1473.72
1534.99
1608.89
1690.98
1783.82
1885.03
2001.03
2128.35
2277.66
2442.42
2640.04
2857.8
3124.91
3417.03
3785.5
4184.15
4706.84
5268.52
6056.77
6939.97
8326.25
9989.26
12715.8
15867.8
20701.1
25288.1
31509.1
36220.3
44992.3
54984.3
67592.4
123630
152678
146365
133236
119487
103737
86593.1
70084.8
54703
42233.8
32435.2
25668.8
20844.8
17557.1
15056.5
13179.6
11618.2
10360.2
9269.19
8344.97
7524.67
6808.8
6175.36
5621.23
5135.13
4704.72
4319.08
3966.19
3639.44
3334.84
3052.29
2794.67
2563.5
2362.96
2190.59
2049.05
1930.19
1837.02
1756.84
1698