/*--------------------------------*- C++ -*----------------------------------*\
| =========                 |                                                 |
| \\      /  F ield         | OpenFOAM: The Open Source CFD Toolbox           |
|  \\    /   O peration     | Version:  2412                                  |
|   \\  /    A nd           | Website:  www.openfoam.com                      |
|    \\/     M anipulation  |                                                 |
\*---------------------------------------------------------------------------*/
FoamFile
{
    version     2.0;
    format      ascii;
    arch        "LSB;label=32;scalar=64";
    class       volScalarField;
    location    "0.8";
    object      k;
}
// * * * * * * * * * * * * * * * * * * * * * * * * * * * * * * * * * * * * * //

dimensions      [0 2 -2 0 0 0 0];

internalField   nonuniform List<scalar> 
13079
(
40.1293
43.6363
48.2544
54.3719
61.8756
69.5769
75.939
79.9651
81.4421
80.8364
78.8598
76.244
73.5865
71.3813
70.0048
69.6586
70.1654
71.0774
72.0817
73.2546
74.7115
76.4828
78.457
80.6132
82.8784
85.3373
87.9308
90.818
93.8886
97.3874
101.108
105.433
109.983
115.373
120.94
127.709
134.537
143.173
151.731
163.296
174.977
192.208
210.307
237.485
264.799
302.861
336.38
382.545
419.786
484.341
554.2
677.488
1065.28
1114.97
982.467
872.418
780.568
698.164
622.013
562.597
517.38
486.366
461.076
439.564
417.395
396.481
375.071
355.311
335.727
317.529
299.341
281.841
264.139
246.809
229.448
212.608
196.247
40.081
43.529
48.081
54.1361
61.5957
69.2858
75.6753
79.7526
81.2847
80.7213
78.7681
76.159
73.5002
71.2966
69.9335
69.6095
70.1321
71.0466
72.0546
73.2442
74.7252
76.5185
78.5089
80.6771
82.9516
85.4194
88.0211
90.9171
93.9961
97.5043
101.234
105.569
110.128
115.529
121.106
127.889
134.73
143.384
151.96
163.558
175.278
192.592
210.797
238.154
265.635
303.918
337.471
383.588
420.477
484.851
554.525
676.378
1059.97
1109.35
976.167
864.843
772.394
689.827
614.338
555.665
511.089
480.18
454.596
432.611
409.967
388.739
367.159
347.392
327.893
309.866
291.89
274.648
257.232
240.23
223.235
206.805
190.898
40.0338
43.4241
47.9114
53.9054
61.3216
69.0014
75.4188
79.5479
81.136
80.616
78.6877
76.0876
73.43
71.2304
69.8818
69.579
70.1139
71.0276
72.0375
73.2426
74.7459
76.5597
78.5648
80.744
83.0269
85.503
88.1124
91.0169
94.104
97.6213
101.359
105.704
110.272
115.684
121.271
128.068
134.922
143.595
152.191
163.82
175.582
192.978
211.288
238.821
266.465
304.961
338.539
384.596
421.14
485.338
554.825
675.213
1054.55
1103.72
969.963
857.427
764.433
681.745
606.917
548.941
504.916
474.021
448.072
425.575
402.444
380.903
359.164
339.402
319.999
302.155
284.401
267.43
250.316
233.659
217.05
201.053
185.626
39.9876
43.3215
47.7455
53.6796
61.0534
68.7235
75.1692
79.3507
80.9954
80.5199
78.6181
76.0289
73.3748
71.1816
69.8486
69.5656
70.1096
71.0193
72.0293
73.2487
74.773
76.6056
78.6241
80.8132
83.1039
85.5876
88.2043
91.117
94.2119
97.738
101.484
105.839
110.416
115.839
121.436
128.247
135.115
143.807
152.421
164.083
175.886
193.365
211.779
239.485
267.287
305.986
339.582
385.57
421.773
485.803
555.097
673.994
1049.04
1098.08
963.844
850.162
756.676
673.907
599.737
542.406
498.844
467.879
441.503
418.46
394.836
372.986
351.101
331.355
312.062
294.411
276.892
260.202
243.406
227.112
210.912
195.374
180.453
39.9425
43.2211
47.5831
53.4586
60.7909
68.4519
74.9264
79.1606
80.8625
80.4325
78.5585
75.9822
73.3339
71.1491
69.8327
69.5681
70.1177
71.0205
72.0292
73.2617
74.8057
76.6557
78.6864
80.8845
83.1823
85.6732
88.2968
91.2172
94.3196
97.8543
101.609
105.972
110.558
115.992
121.6
128.424
135.306
144.018
152.651
164.346
176.192
193.752
212.27
240.145
268.1
306.994
340.599
386.508
422.378
486.246
555.342
672.721
1043.43
1092.4
957.799
843.041
749.118
666.307
592.785
536.048
492.863
461.748
434.889
411.272
387.151
365.001
342.985
323.27
304.099
286.651
269.38
252.986
236.525
220.613
204.845
189.79
175.402
162.059
150.081
139.687
130.962
123.899
118.326
113.853
110.147
106.779
103.622
100.428
97.3337
94.19
91.2743
88.4666
86.0387
83.9576
82.3357
81.5335
81.1715
82.7485
84.0379
39.8984
43.1229
47.4243
53.2422
60.534
68.1865
74.6901
78.9774
80.737
80.3533
78.5085
75.9468
73.3066
71.1321
69.833
69.5852
70.1372
71.0304
72.0364
73.2812
74.8435
76.7095
78.7513
80.9575
83.2619
85.7595
88.3896
91.3174
94.4271
97.9701
101.733
106.105
110.7
116.145
121.763
128.601
135.497
144.228
152.881
164.61
176.498
194.139
212.76
240.8
268.904
307.983
341.591
387.412
422.956
486.666
555.56
671.395
1037.73
1086.7
951.821
836.058
741.754
658.935
586.05
529.854
486.963
455.623
428.231
404.019
379.403
356.964
334.834
315.164
296.131
278.898
261.886
245.801
229.693
214.184
198.872
184.325
170.497
157.767
146.4
136.613
128.452
121.858
116.621
112.339
108.701
105.326
102.127
98.9026
95.7991
92.7006
89.8584
87.1831
84.8902
82.9919
81.5226
80.912
80.6871
82.4365
83.8035
39.8552
43.0269
47.2688
53.0305
60.2825
67.927
74.4601
78.8006
80.6184
80.2817
78.4674
75.9222
73.2921
71.1299
69.8485
69.6159
70.167
71.0481
72.0504
73.3065
74.8859
76.7667
78.8185
81.0321
83.3424
85.8463
88.4826
91.4176
94.5343
98.0853
101.856
106.237
110.841
116.296
121.925
128.777
135.687
144.437
153.111
164.873
176.804
194.526
213.249
241.45
269.698
308.954
342.558
388.282
423.508
487.065
555.751
670.017
1031.94
1080.95
945.9
829.207
734.575
651.783
579.52
523.811
481.134
449.5
421.534
396.71
371.607
348.892
326.669
307.058
288.179
271.171
254.434
238.672
222.935
207.85
193.02
179.006
165.763
153.665
142.927
133.746
126.131
119.975
115.033
110.907
107.315
103.927
100.691
97.4484
94.3517
91.3138
88.557
86.0198
83.8618
82.1387
80.8114
80.3755
80.2726
82.1744
83.6046
39.813
42.9329
47.1167
52.8232
60.0363
67.6733
74.236
78.6301
80.5063
80.2174
78.4348
75.9078
73.2898
71.1415
69.8784
69.6591
70.2063
71.0731
72.0705
73.3372
74.9326
76.8269
78.8877
81.108
83.4238
85.9336
88.5759
91.5177
94.6412
98.2
101.978
106.368
110.981
116.446
122.086
128.952
135.876
144.646
153.34
165.136
177.111
194.913
213.736
242.094
270.481
309.905
343.497
389.118
424.034
487.444
555.916
668.59
1026.05
1075.15
940.028
822.482
727.577
644.841
573.183
517.907
475.37
443.378
414.801
389.356
363.777
340.804
318.51
298.976
280.266
263.496
247.047
231.623
216.278
201.638
187.315
173.86
161.226
149.775
139.673
131.092
124.001
118.244
113.557
109.555
105.992
102.586
99.3193
96.0721
92.9966
90.0322
87.3691
84.9721
82.9459
81.3882
80.1912
79.9135
79.9183
81.9544
83.4351
39.7718
42.8408
46.9678
52.6202
59.7951
67.4251
74.0177
78.4654
80.4004
80.16
78.4102
75.903
73.2989
71.1662
69.9215
69.7137
70.2541
71.1045
72.0963
73.3728
74.9831
76.8899
78.9588
81.1851
83.506
86.0213
88.6692
91.6176
94.7477
98.3141
102.099
106.499
111.119
116.596
122.246
129.126
136.064
144.854
153.569
165.399
177.418
195.299
214.221
242.732
271.254
310.836
344.411
389.921
424.537
487.803
556.055
667.116
1020.08
1069.3
934.198
815.877
720.751
638.102
567.029
512.133
469.664
437.256
408.041
381.969
355.931
332.721
310.38
290.939
272.416
255.897
239.752
224.682
209.748
195.577
181.786
168.913
156.909
146.113
136.651
128.655
122.055
116.657
112.185
108.28
104.732
101.308
98.018
94.7783
91.7367
88.8557
86.2915
84.0337
82.1341
80.7307
79.6521
79.5166
79.6158
81.7695
83.2895
39.7314
42.7508
46.822
52.4214
59.5589
67.1823
73.8049
78.3064
80.3004
80.109
78.3931
75.9072
73.319
71.2033
69.9772
69.779
70.3097
71.1419
72.1273
73.4129
75.0372
76.9552
79.0314
81.2633
83.5887
86.1093
88.7625
91.7173
94.8537
98.4276
102.22
106.628
111.257
116.744
122.405
129.299
136.251
145.062
153.798
165.661
177.724
195.684
214.704
243.364
272.016
311.748
345.299
390.693
425.017
488.144
556.169
665.595
1014.03
1063.38
928.402
809.384
714.09
631.554
561.047
506.478
464.01
431.137
401.261
374.563
348.088
324.664
302.303
282.974
264.655
248.399
232.575
217.875
203.376
189.694
176.46
164.191
152.832
142.697
133.868
126.434
120.288
115.206
110.913
107.08
103.536
100.095
96.7906
93.5698
90.5727
87.7821
85.3195
83.1974
81.4175
80.1565
79.1843
79.176
79.3575
81.6138
83.1635
39.6919
42.6626
46.6793
52.2267
59.3275
66.9447
73.5974
78.1527
80.2059
80.0641
78.3831
75.9201
73.3494
71.2521
70.0446
69.854
70.3724
71.1847
72.1632
73.4573
75.0944
77.0228
79.1056
81.3423
83.672
86.1975
88.8558
91.8167
94.9593
98.5404
102.34
106.756
111.394
116.891
122.563
129.47
136.438
145.268
154.026
165.923
178.031
196.068
215.184
243.99
272.765
312.639
346.162
391.434
425.476
488.466
556.259
664.031
1007.91
1057.4
922.633
802.999
707.586
625.188
555.224
500.932
458.405
425.021
394.47
367.152
340.268
316.656
294.303
275.106
257.01
241.031
225.544
211.231
197.188
184.019
171.365
159.717
149.015
139.537
131.325
124.423
118.69
113.881
109.733
105.952
102.405
98.9504
95.6395
92.4476
89.5035
86.8079
84.447
82.4552
80.787
79.6563
78.7791
78.884
79.1369
81.4824
83.0531
39.6532
42.5763
46.5395
52.036
59.1008
66.7122
73.395
78.004
80.1165
80.0248
78.3797
75.941
73.3895
71.3118
70.1227
69.9379
70.4414
71.2324
72.2035
73.5054
75.1546
77.0924
79.181
81.4221
83.7557
86.2858
88.9491
91.9158
95.0645
98.6526
102.459
106.884
111.53
117.037
122.72
129.641
136.623
145.473
154.253
166.185
178.337
196.451
215.662
244.608
273.503
313.509
346.998
392.144
425.916
488.772
556.325
662.424
1001.71
1051.35
916.882
796.712
701.232
618.994
549.551
495.488
452.845
418.912
387.679
359.754
332.491
308.721
286.407
267.362
249.51
233.821
218.69
204.781
191.216
178.579
166.524
155.511
145.471
136.64
129.023
122.615
117.25
112.673
108.64
104.894
101.339
97.8748
94.5655
91.4112
88.5265
85.9281
83.6671
81.7989
80.2337
79.2214
78.4284
78.6337
78.9482
81.3707
82.9552
39.6154
42.4918
46.4027
51.8491
58.8786
66.4845
73.1974
77.8601
80.032
79.9908
78.3825
75.9694
73.4387
71.3818
70.2109
70.0299
70.5161
71.2847
72.2479
73.5571
75.2174
77.1637
79.2575
81.5026
83.8398
86.3743
89.0422
92.0147
95.1691
98.7642
102.578
107.01
111.665
117.182
122.875
129.811
136.808
145.678
154.48
166.446
178.642
196.833
216.137
245.219
274.229
314.36
347.809
392.826
426.336
489.061
556.368
660.778
995.436
1045.22
911.143
790.519
695.018
612.962
544.017
490.137
447.329
412.815
380.899
352.384
324.779
300.883
278.642
259.769
242.181
226.797
212.039
198.552
185.486
173.4
161.962
151.591
142.21
134.008
126.952
120.997
115.955
111.573
107.627
103.904
100.339
96.8686
93.5682
90.4584
87.6378
85.1366
82.9724
81.22
79.7492
78.8439
78.125
78.4191
78.7864
81.2752
82.867
39.5783
42.409
46.2686
51.6661
58.6608
66.2615
73.0045
77.7207
79.9521
79.9618
78.3911
76.005
73.4966
71.4614
70.3085
70.1293
70.5961
71.3411
72.2961
73.6121
75.2826
77.2367
79.3349
81.5836
83.9241
86.4628
89.1352
92.1131
95.2733
98.875
102.695
107.136
111.799
117.326
123.03
129.979
136.991
145.881
154.705
166.706
178.947
197.213
216.608
245.823
274.942
315.189
348.595
393.48
426.739
489.334
556.389
659.093
989.1
1039.01
905.41
784.411
688.936
607.082
538.612
484.872
441.856
406.734
374.143
345.062
317.155
293.168
271.034
252.356
235.052
219.988
205.622
192.574
180.026
168.506
157.695
147.968
139.234
131.635
125.104
119.556
114.794
110.569
106.689
102.978
99.4021
95.9309
92.646
89.5863
86.8325
84.4272
82.3553
80.7107
79.3255
78.5164
77.8625
78.235
78.6473
81.1925
82.7862
39.5421
42.3279
46.1373
51.4866
58.4473
66.0429
72.816
77.5857
79.8765
79.9374
78.4052
76.0472
73.5624
71.55
70.4146
70.2355
70.6807
71.4012
72.3478
73.6701
75.3501
77.311
79.4133
81.6651
84.0087
86.5512
89.228
92.2112
95.3769
98.9852
102.812
107.261
111.932
117.469
123.184
130.146
137.173
146.084
154.93
166.965
179.251
197.591
217.076
246.419
275.642
315.998
349.357
394.106
427.125
489.593
556.387
657.372
982.703
1032.72
899.675
778.382
682.979
601.344
533.328
479.688
436.424
400.678
367.423
337.805
309.642
285.602
263.61
245.15
228.151
213.422
199.466
186.872
174.859
163.917
153.737
144.647
136.542
129.512
123.464
118.277
113.752
109.654
105.82
102.114
98.5278
95.0603
91.7967
88.7909
86.1053
83.7932
81.8084
80.2634
78.9554
78.2325
77.6353
78.0767
78.5273
81.12
82.7108
39.5065
42.2485
46.0087
51.3107
58.2379
65.8288
72.6318
77.4546
79.8049
79.9173
78.4242
76.0957
73.6358
71.647
70.5287
70.3477
70.7696
71.4649
72.4028
73.7309
75.4195
77.3867
79.4924
81.7471
84.0934
86.6397
89.3205
92.3089
95.48
99.0947
102.928
107.385
112.063
117.611
123.336
130.313
137.355
146.285
155.154
167.224
179.554
197.968
217.54
247.006
276.33
316.786
350.094
394.707
427.495
489.836
556.364
655.616
976.248
1026.34
893.933
772.425
677.137
595.739
528.156
474.579
431.035
394.652
360.755
330.634
302.264
278.21
256.398
238.177
221.506
207.125
193.596
181.47
170.005
159.647
150.097
141.63
134.126
127.628
122.016
117.144
112.817
108.819
105.016
101.309
97.714
94.2546
91.0169
88.0679
85.4505
83.228
81.3247
79.871
78.6323
77.9864
77.4385
77.9403
78.423
81.0555
82.6392
39.4718
42.1706
45.8826
51.1383
58.0325
65.6188
72.4516
77.3274
79.7369
79.9011
78.448
76.1499
73.7162
71.7518
70.65
70.4655
70.8622
71.5317
72.4609
73.7942
75.4908
77.4635
79.5722
81.8293
84.1781
86.728
89.4128
92.4062
95.5825
99.2035
103.043
107.508
112.194
117.752
123.488
130.478
137.535
146.486
155.377
167.481
179.856
198.342
218
247.586
277.004
317.553
350.807
395.283
427.852
490.066
556.32
653.828
969.74
1019.87
888.177
766.532
671.403
590.257
523.086
469.54
425.691
388.665
354.152
323.568
295.044
271.018
249.424
231.465
215.14
201.121
188.035
176.387
165.48
155.706
146.777
138.91
131.974
125.964
120.742
116.142
111.977
108.055
104.272
100.561
96.9584
93.5112
90.3033
87.4125
84.8623
82.725
80.8974
79.5272
78.3504
77.7731
77.2677
77.8224
78.332
80.9969
82.5699
39.4377
42.0944
45.7591
50.9692
57.8309
65.4129
72.2753
77.2038
79.6725
79.8886
78.4761
76.2096
73.8033
71.8639
70.7781
70.5882
70.9583
71.6014
72.5218
73.86
75.5638
77.5413
79.6525
81.9118
84.263
86.8162
89.5048
92.503
95.6844
99.3116
103.158
107.63
112.324
117.892
123.638
130.642
137.714
146.685
155.599
167.737
180.157
198.714
218.456
248.156
277.666
318.3
351.497
395.834
428.194
490.281
556.256
652.009
963.184
1013.31
882.402
760.698
665.768
584.889
518.113
464.567
420.393
382.725
347.629
316.626
288.006
264.051
242.712
225.035
209.077
195.431
182.802
171.64
161.294
152.096
143.771
136.477
130.071
124.504
119.625
115.255
111.222
107.356
103.583
99.8657
96.2584
92.8269
89.6517
86.8197
84.335
82.2782
80.5205
79.2261
78.1044
77.5881
77.1192
77.7201
78.2517
80.9426
82.5019
39.4043
42.0196
45.638
50.8033
57.6331
65.2109
72.1027
77.0836
79.6112
79.8796
78.5082
76.2742
73.8964
71.9826
70.9122
70.7153
71.0574
71.6738
72.5853
73.9279
75.6383
77.62
79.7333
81.9945
84.3478
86.9042
89.5965
92.5994
95.7857
99.4189
103.271
107.751
112.453
118.03
123.787
130.805
137.892
146.883
155.82
167.993
180.457
199.083
218.907
248.718
278.313
319.027
352.164
396.363
428.524
490.484
556.173
650.161
956.583
1006.66
876.602
754.916
660.225
579.627
513.228
459.658
415.144
376.842
341.203
309.829
281.171
257.331
236.283
218.91
203.335
190.074
177.91
167.237
157.449
148.816
141.071
134.316
128.398
123.227
118.647
114.47
110.542
106.716
102.945
99.2211
95.6113
92.1986
89.0582
86.2847
83.8631
81.8818
80.1883
78.9627
77.8897
77.4276
76.9899
77.6309
78.1803
80.8912
82.4341
39.3716
41.9464
45.5193
50.6406
57.439
65.0126
71.9336
76.9665
79.553
79.8736
78.544
76.3435
73.9952
72.1075
71.052
70.8465
71.1593
71.7488
72.6513
73.9979
75.7142
77.6995
79.8146
82.0774
84.4327
86.992
89.6879
92.6953
95.8865
99.5256
103.384
107.871
112.581
118.168
123.935
130.966
138.068
147.079
156.04
168.246
180.755
199.45
219.354
249.272
278.948
319.734
352.809
396.869
428.842
490.675
556.07
648.286
949.942
999.908
870.772
749.179
654.765
574.463
508.426
454.809
409.948
371.024
334.887
303.197
274.561
250.879
230.158
213.107
197.931
185.06
173.368
163.183
153.945
145.856
138.663
132.408
126.933
122.114
117.791
113.774
109.928
106.129
102.355
98.624
95.0142
91.6228
88.5187
85.8027
83.4413
81.5305
79.8956
78.7323
77.7023
77.2882
76.877
77.5525
78.1161
80.8416
82.3656
39.3395
41.8746
45.4029
50.481
57.2484
64.8179
71.7678
76.8525
79.4975
79.8705
78.5832
76.4171
74.0992
72.2382
71.1967
70.9812
71.2636
71.826
72.7196
74.0698
75.7913
77.7797
79.8961
82.1603
84.5174
87.0797
89.7789
92.7907
95.9866
99.6315
103.496
107.99
112.708
118.304
124.082
131.126
138.244
147.275
156.258
168.499
181.052
199.814
219.797
249.816
279.569
320.42
353.432
397.355
429.15
490.853
555.949
646.387
943.265
993.061
864.908
743.481
649.381
569.387
503.7
450.02
404.809
365.283
328.697
296.746
268.196
244.715
224.353
207.639
192.874
180.399
169.179
159.476
150.772
143.205
136.529
130.733
125.658
121.146
117.042
113.156
109.372
105.589
101.809
98.0717
94.4641
91.0961
88.0291
85.3692
83.0649
81.2196
79.638
78.5309
77.5387
77.1669
76.778
77.4833
78.0575
80.7928
82.2959
39.3081
41.8042
45.2888
50.3244
57.0612
64.6267
71.6052
76.7412
79.4445
79.87
78.6255
76.4946
74.2081
72.3741
71.346
71.119
71.3701
71.9053
72.79
74.1434
75.8696
77.8606
79.978
82.2434
84.6021
87.1671
89.8696
92.8857
96.0862
99.7367
103.607
108.108
112.834
118.44
124.228
131.286
138.418
147.469
156.475
168.75
181.347
200.176
220.234
250.351
280.177
321.087
354.033
397.82
429.447
491.019
555.811
644.463
936.556
986.118
859.005
737.816
644.066
564.394
499.045
445.288
399.73
359.627
322.648
290.497
262.092
238.853
218.88
202.516
188.17
176.092
165.342
156.109
147.919
140.843
134.647
129.269
124.549
120.305
116.386
112.605
108.867
105.093
101.304
97.5612
93.9581
90.6152
87.5854
84.9797
82.7293
80.9446
79.4114
78.3548
77.3957
77.0613
76.691
77.4216
78.0035
80.7439
82.2242
39.2773
41.7352
45.1769
50.1706
56.8772
64.4388
71.4456
76.6325
79.3938
79.8718
78.6706
76.5758
74.3215
72.5148
71.4995
71.2595
71.4785
71.9866
72.8624
74.2186
75.9489
77.942
80.0601
82.3265
84.6867
87.2542
89.9598
92.9801
96.1851
99.8412
103.717
108.226
112.958
118.574
124.372
131.443
138.591
147.661
156.691
169
181.641
200.534
220.666
250.877
280.771
321.734
354.614
398.267
429.735
491.175
555.654
642.519
929.821
979.077
853.06
732.178
638.813
559.476
494.456
440.614
394.717
354.067
316.754
284.463
256.266
233.307
213.748
197.743
183.82
172.136
161.848
153.069
145.369
138.751
132.996
127.995
123.589
119.575
115.81
112.113
108.408
104.636
100.837
97.09
93.4934
90.1766
87.1839
84.6302
82.4304
80.7016
79.2121
78.2009
77.2708
76.9692
76.6141
77.366
77.9529
80.6942
82.1502
39.2471
41.6675
45.0671
50.0197
56.6965
64.2541
71.289
76.5262
79.3452
79.8758
78.7183
76.6603
74.439
72.6598
71.6565
71.4025
71.5887
72.0697
72.9367
74.2954
76.0291
78.0239
80.1425
82.4095
84.7711
87.3411
90.0497
93.074
96.2834
99.9449
103.827
108.342
113.082
118.707
124.516
131.6
138.762
147.853
156.906
169.248
181.932
200.889
221.093
251.394
281.352
322.363
355.175
398.695
430.014
491.319
555.481
640.554
923.064
971.939
847.067
726.561
633.616
554.627
489.93
435.996
389.775
348.612
311.028
278.66
250.729
228.085
208.959
193.32
179.82
168.523
158.685
150.339
143.1
136.906
131.553
126.888
122.757
118.941
115.304
111.673
107.99
104.215
100.406
96.6556
93.0671
89.7773
86.8211
84.317
82.1644
80.4871
79.037
78.0665
77.1614
76.8886
76.5459
77.3153
77.9048
80.6433
82.0735
39.2175
41.6011
44.9594
49.8715
56.5189
64.0725
71.135
76.4222
79.2986
79.8817
78.7683
76.7478
74.5603
72.8089
71.8169
71.5476
71.7004
72.1545
73.0128
74.3735
76.1102
78.1063
80.2249
82.4926
84.8553
87.4276
90.1392
93.1675
96.3811
100.048
103.935
108.457
113.205
118.839
124.658
131.755
138.932
148.042
157.119
169.495
182.222
201.241
221.515
251.901
281.919
322.972
355.716
399.105
430.285
491.452
555.292
638.572
916.288
964.706
841.025
720.961
628.468
549.84
485.462
431.434
384.908
343.273
305.482
273.101
245.49
223.192
204.515
189.242
176.161
165.241
155.836
147.901
141.092
135.286
130.295
125.929
122.039
118.389
114.858
111.277
107.607
103.827
100.007
96.2553
92.6766
89.4141
86.4937
84.0367
81.928
80.2979
78.8832
77.9491
77.0657
76.818
76.4849
77.2687
77.8585
80.5904
81.9936
39.1885
41.536
44.8537
49.726
56.3443
63.8939
70.9836
76.3204
79.2537
79.8894
78.8204
76.8381
74.685
72.9615
71.9801
71.6945
71.8134
72.2408
73.0905
74.4529
76.1921
78.189
80.3075
82.5755
84.9393
87.5139
90.2283
93.2604
96.4782
100.15
104.043
108.572
113.327
118.97
124.799
131.91
139.101
148.231
157.331
169.74
182.51
201.59
221.932
252.4
282.474
323.563
356.238
399.5
430.549
491.575
555.086
636.573
909.499
957.378
834.93
715.372
623.363
545.11
481.049
426.93
380.121
338.057
300.128
267.796
240.556
218.628
200.409
185.501
172.83
162.274
153.282
145.731
139.32
133.868
129.203
125.099
121.417
117.909
114.464
110.921
107.257
103.469
99.6386
95.887
92.3192
89.0843
86.1985
83.7861
81.7181
80.1311
78.7482
77.8466
76.9819
76.7559
76.4301
77.2252
77.8133
80.5354
81.9104
39.16
41.4721
44.75
49.583
56.1726
63.7181
70.8347
76.2204
79.2104
79.8985
78.8743
76.9309
74.8128
73.1174
72.1459
71.8429
71.9277
72.3286
73.1697
74.5334
76.2747
78.272
80.3901
82.6584
85.0232
87.5999
90.3169
93.3527
96.5747
100.252
104.15
108.686
113.448
119.1
124.939
132.062
139.269
148.418
157.541
169.983
182.795
201.935
222.343
252.889
283.015
324.135
356.742
399.878
430.806
491.688
554.866
634.56
902.7
949.957
828.78
709.789
618.296
540.432
476.688
422.484
375.42
332.976
294.975
262.752
235.928
214.391
196.634
182.084
169.811
159.603
151.001
143.808
137.762
132.629
128.254
124.382
120.879
117.49
114.114
110.598
106.937
103.139
99.2987
95.5484
91.9927
88.7851
85.9327
83.5623
81.5319
79.9844
78.6298
77.7572
76.9083
76.7011
76.3804
77.184
77.7687
80.4778
81.8237
39.1321
41.4094
44.6482
49.4426
56.0036
63.5451
70.6881
76.1223
79.1686
79.9091
78.93
77.026
74.9435
73.2761
72.3138
71.9926
72.0429
72.4178
73.2503
74.6151
76.3579
78.3553
80.4728
82.7412
85.1068
87.6855
90.4052
93.4446
96.6705
100.353
104.256
108.798
113.567
119.229
125.077
132.214
139.435
148.604
157.749
170.225
183.079
202.277
222.748
253.368
283.543
324.69
357.229
400.242
431.056
491.792
554.631
632.533
895.896
942.445
822.573
704.209
613.261
535.801
472.378
418.098
370.81
328.035
290.032
257.975
231.606
210.474
193.178
178.976
167.086
157.207
148.971
142.107
136.395
131.549
127.432
123.761
120.414
117.124
113.803
110.306
106.642
102.834
98.9852
95.2375
91.6946
88.5141
85.6937
83.3627
81.3669
79.8554
78.5261
77.6793
76.8436
76.6525
76.3351
77.1446
77.7241
80.4174
81.7332
39.1047
41.3479
44.5483
49.3045
55.8374
63.3747
70.5437
76.0258
79.1279
79.9207
78.987
77.123
75.0767
73.4375
72.4837
72.1433
72.1591
72.5081
73.3323
74.6977
76.4417
78.4388
80.5555
82.8239
85.1902
87.7708
90.493
93.5359
96.7657
100.453
104.362
108.91
113.686
119.356
125.215
132.364
139.6
148.788
157.957
170.465
183.36
202.615
223.148
253.839
284.058
325.227
357.698
400.592
431.301
491.886
554.381
630.495
889.091
934.844
816.306
698.626
608.254
531.212
468.115
413.772
366.295
323.243
285.304
253.468
227.586
206.868
190.025
176.158
164.633
155.064
147.169
140.607
135.198
130.608
126.72
123.225
120.01
116.802
113.525
110.041
106.371
102.552
98.6962
94.9523
91.423
88.269
85.4791
83.185
81.2211
79.7423
78.4353
77.6113
76.7867
76.6091
76.2933
77.1065
77.6792
80.354
81.6388
39.0778
41.2876
44.4502
49.1689
55.6738
63.2068
70.4014
75.9309
79.0884
79.9334
79.0454
77.2219
75.2122
73.6011
72.6551
72.2949
72.276
72.5997
73.4156
74.7813
76.526
78.5225
80.6382
82.9064
85.2733
87.8557
90.5803
93.6267
96.8603
100.552
104.466
109.021
113.804
119.483
125.351
132.513
139.763
148.97
158.162
170.703
183.639
202.95
223.543
254.3
284.561
325.747
358.15
400.928
431.54
491.971
554.118
628.447
882.289
927.158
809.978
693.038
603.27
526.662
463.899
409.509
361.881
318.606
280.797
249.231
223.862
203.559
187.159
173.612
162.433
153.152
145.573
139.287
134.15
129.789
126.104
122.762
119.66
116.52
113.277
109.799
106.122
102.293
98.4301
94.691
91.1756
88.0476
85.2868
83.0271
81.0923
79.6432
78.356
77.5521
76.7366
76.5702
76.2544
77.0691
77.6336
80.2874
81.5405
39.0514
41.2284
44.3538
49.0355
55.5128
63.0413
70.261
75.8373
79.0499
79.947
79.1048
77.3223
75.3497
73.7667
72.8279
72.4471
72.3936
72.6923
73.5
74.8658
76.6107
78.6064
80.7209
82.9888
85.3562
87.9403
90.6672
93.7169
96.9543
100.651
104.57
109.131
113.921
119.608
125.486
132.661
139.925
149.151
158.366
170.939
183.916
203.281
223.932
254.752
285.051
326.251
358.587
401.252
431.773
492.046
553.841
626.391
875.495
919.389
803.589
687.441
598.306
522.148
459.728
405.309
357.571
314.13
276.514
245.261
220.423
200.535
184.561
171.317
160.463
151.45
144.161
138.125
133.235
129.077
125.57
122.36
119.356
116.271
113.054
109.579
105.893
102.053
98.1852
94.4519
90.9508
87.8479
85.1146
82.887
80.9789
79.5567
78.2869
77.5006
76.6923
76.5351
76.2179
77.032
77.587
80.2175
81.4382
39.0256
41.1702
44.2592
48.9044
55.3542
62.8781
70.1225
75.7451
79.0122
79.9612
79.1651
77.4241
75.4889
73.934
73.0017
72.5997
72.5117
72.786
73.5855
74.951
76.6958
78.6904
80.8035
83.071
85.4388
88.0245
90.7537
93.8066
97.0476
100.749
104.673
109.241
114.037
119.733
125.62
132.807
140.086
149.331
158.568
171.173
184.19
203.608
224.315
255.195
285.528
326.738
359.008
401.564
432.003
492.113
553.551
624.328
868.712
911.54
797.137
681.831
593.357
517.665
455.601
401.176
353.37
309.82
272.455
241.555
217.258
197.777
182.214
169.254
158.702
149.937
142.914
137.103
132.434
128.457
125.108
122.013
119.09
116.052
112.853
109.377
105.682
101.832
97.9601
94.2335
90.7468
87.6681
84.9608
82.7631
80.8792
79.4813
78.2267
77.4559
76.653
76.5032
76.1832
76.995
77.5392
80.1441
81.3318
39.0002
41.1131
44.1663
48.7754
55.198
62.7172
69.9858
75.654
78.9752
79.976
79.2262
77.5272
75.6298
74.1028
73.1763
72.7527
72.6303
72.8805
73.672
75.037
76.7813
78.7745
80.8861
83.153
85.5212
88.1084
90.8397
93.8958
97.1403
100.846
104.775
109.349
114.152
119.856
125.753
132.952
140.245
149.509
158.769
171.405
184.462
203.932
224.692
255.628
285.994
327.21
359.415
401.864
432.227
492.172
553.249
622.26
861.944
903.617
790.622
676.206
588.42
513.212
451.518
397.11
349.282
305.678
268.621
238.106
214.355
195.271
180.096
167.401
157.131
148.592
141.812
136.205
131.735
127.919
124.708
121.712
118.859
115.857
112.672
109.193
105.487
101.629
97.7534
94.0342
90.5619
87.5066
84.8237
82.6536
80.7918
79.4159
78.1745
77.4169
76.6181
76.4738
76.1501
76.9577
77.49
80.0673
81.2214
38.9752
41.0571
44.075
48.6486
55.0441
62.5584
69.8506
75.5639
78.9388
79.9912
79.288
77.6312
75.772
74.2728
73.3516
72.9058
72.7493
72.9759
73.7595
75.1236
76.8672
78.8586
80.9686
83.2348
85.6033
88.1919
90.9253
93.9845
97.2325
100.943
104.877
109.456
114.266
119.979
125.885
133.096
140.403
149.685
158.968
171.636
184.732
204.252
225.064
256.053
286.447
327.666
359.807
402.154
432.448
492.222
552.935
620.187
855.196
895.621
784.044
670.564
583.493
508.787
447.478
393.114
345.309
301.709
265.009
234.905
211.699
192.997
178.189
165.74
155.73
147.398
140.84
135.416
131.125
127.45
124.361
121.451
118.657
115.684
112.508
109.024
105.307
101.441
97.564
93.8526
90.3947
87.3618
84.7019
82.5574
80.7155
79.3593
78.1293
77.3832
76.5869
76.4467
76.118
76.9199
77.4392
79.987
81.1069
38.9508
41.002
43.9853
48.5238
54.8925
62.4017
69.7171
75.4748
78.9029
80.0068
79.3502
77.7361
75.9154
74.4438
73.5272
73.0589
72.8686
73.0722
73.8479
75.2109
76.9533
78.9428
81.0509
83.3164
85.685
88.275
91.0104
94.0726
97.324
101.039
104.977
109.563
114.379
120.1
126.015
133.239
140.56
149.86
159.165
171.864
184.999
204.568
225.43
256.469
286.889
328.107
360.186
402.434
432.665
492.265
552.61
618.112
848.47
887.558
777.403
664.902
578.572
504.386
443.481
389.19
341.455
297.912
261.615
231.942
209.275
190.938
176.474
164.252
154.481
146.338
139.981
134.723
130.591
127.042
124.06
121.224
118.48
115.53
112.359
108.869
105.142
101.269
97.3904
93.6875
90.2438
87.2324
84.5939
82.473
80.6492
79.3106
78.0903
77.3538
76.5589
76.4212
76.0867
76.8814
77.3867
79.9031
80.9884
38.9267
40.948
43.8972
48.401
54.743
62.2469
69.585
75.3866
78.8673
80.0226
79.4128
77.8418
76.0597
74.6156
73.7031
73.2119
72.9882
73.1691
73.9371
75.2987
77.0396
79.027
81.1332
83.3978
85.7665
88.3578
91.0951
94.1602
97.4149
101.134
105.077
109.669
114.491
120.22
126.144
133.38
140.715
150.034
159.361
172.091
185.264
204.88
225.791
256.876
287.319
328.534
360.551
402.704
432.879
492.299
552.273
616.035
841.77
879.433
770.701
659.219
573.656
500.009
439.527
385.339
337.722
294.29
258.434
229.208
207.067
189.077
174.934
162.92
153.369
145.397
139.223
134.113
130.124
126.686
123.799
121.027
118.325
115.393
112.225
108.727
104.99
101.111
97.2318
93.5376
90.108
87.117
84.4985
82.3993
80.5918
79.2689
78.0567
77.3284
76.5337
76.3972
76.056
76.842
77.3323
79.8157
80.866
38.9031
40.8949
43.8105
48.2801
54.5956
62.0941
69.4542
75.2991
78.8321
80.0385
79.4756
77.948
76.2048
74.788
73.879
73.3647
73.1078
73.2667
74.0271
75.387
77.1262
79.1112
81.2153
83.479
85.8477
88.4402
91.1793
94.2473
97.5052
101.229
105.176
109.773
114.602
120.339
126.273
133.52
140.868
150.205
159.555
172.315
185.526
205.189
226.146
257.275
287.738
328.946
360.904
402.965
433.089
492.326
551.926
613.958
835.101
871.249
763.938
653.513
568.742
495.655
435.617
381.564
334.112
290.84
255.46
226.689
205.06
187.397
173.552
161.729
152.378
144.562
138.553
133.576
129.716
126.377
123.573
120.856
118.189
115.27
112.102
108.596
104.85
100.965
97.087
93.4019
89.986
87.0144
84.4146
82.3354
80.5425
79.2335
78.028
77.3064
76.5109
76.3742
76.0255
76.8016
77.2761
79.7248
80.7395
38.88
40.8428
43.7254
48.1611
54.4502
61.943
69.3248
75.2123
78.797
80.0543
79.5386
78.0546
76.3506
74.9608
74.0549
73.5172
73.2276
73.365
74.1178
75.4758
77.2129
79.1954
81.2973
83.5599
85.9286
88.5222
91.2631
94.3338
97.5949
101.323
105.274
109.878
114.712
120.457
126.4
133.659
141.021
150.376
159.748
172.538
185.785
205.494
226.495
257.665
288.147
329.345
361.245
403.218
433.296
492.346
551.569
611.883
828.465
863.012
757.116
647.783
563.828
491.321
431.75
377.866
330.627
287.563
252.686
224.374
203.238
185.882
172.312
160.662
151.495
143.82
137.962
133.105
129.359
126.108
123.377
120.707
118.069
115.16
111.99
108.476
104.721
100.832
96.9551
93.2793
89.8767
86.9236
84.3412
82.2803
80.5003
79.2036
78.0036
77.2872
76.49
76.3521
75.9952
76.76
77.2178
79.6305
80.6093
38.8572
40.7915
43.6417
48.0439
54.3067
61.7936
69.1965
75.126
78.762
80.0701
79.6016
78.1616
76.4968
75.1339
74.2304
73.6692
73.3475
73.4639
74.2092