/*--------------------------------*- C++ -*----------------------------------*\
| =========                 |                                                 |
| \\      /  F ield         | OpenFOAM: The Open Source CFD Toolbox           |
|  \\    /   O peration     | Version:  2412                                  |
|   \\  /    A nd           | Website:  www.openfoam.com                      |
|    \\/     M anipulation  |                                                 |
\*---------------------------------------------------------------------------*/
FoamFile
{
    version     2.0;
    format      ascii;
    arch        "LSB;label=32;scalar=64";
    class       volScalarField;
    location    "0.8";
    object      nut;
}
// * * * * * * * * * * * * * * * * * * * * * * * * * * * * * * * * * * * * * //

dimensions      [0 2 -1 0 0 0 0];

internalField   nonuniform List<scalar> 
13079
(
0.34744
0.364836
0.385811
0.408004
0.425873
0.43342
0.428083
0.41111
0.385918
0.356553
0.326566
0.298568
0.274356
0.255376
0.242992
0.238336
0.24163
0.251694
0.266183
0.282128
0.296872
0.309071
0.318819
0.326839
0.333877
0.340412
0.346627
0.352634
0.358268
0.363589
0.368269
0.372529
0.37588
0.37885
0.380752
0.38253
0.383124
0.383962
0.383705
0.384584
0.384889
0.386651
0.386704
0.385149
0.378358
0.36517
0.346864
0.32769
0.316577
0.323221
0.343105
0.374893
0.424496
0.375148
0.272828
0.201099
0.159151
0.129781
0.111591
0.0984807
0.0896074
0.0817375
0.0748921
0.06823
0.0623174
0.0569822
0.052409
0.0484363
0.0450441
0.0420985
0.0395355
0.037275
0.0352702
0.0334886
0.0319162
0.0305609
0.0294547
0.347254
0.364456
0.385329
0.40758
0.42564
0.433425
0.42831
0.411504
0.386422
0.357121
0.327184
0.29926
0.275188
0.256451
0.244446
0.24032
0.244272
0.255066
0.27024
0.286664
0.301591
0.313734
0.323287
0.331063
0.337837
0.344113
0.350069
0.355831
0.361227
0.36634
0.370832
0.374951
0.378191
0.381109
0.382988
0.38481
0.385466
0.386439
0.386321
0.387426
0.387939
0.390005
0.390291
0.389076
0.382513
0.369691
0.351597
0.332863
0.322151
0.32949
0.34957
0.380445
0.428028
0.37917
0.276884
0.2044
0.161805
0.131976
0.11352
0.100178
0.0910724
0.0829102
0.0757771
0.0688519
0.0627361
0.0572449
0.0525631
0.0485099
0.0450633
0.0420782
0.0394921
0.0372201
0.0352197
0.0334568
0.0319235
0.0306291
0.0296143
0.347071
0.364081
0.384851
0.407156
0.425401
0.433421
0.428524
0.411886
0.386912
0.357675
0.327789
0.299941
0.276006
0.25751
0.245877
0.242267
0.246857
0.258358
0.274186
0.291056
0.306137
0.318202
0.327551
0.335081
0.341597
0.347622
0.353327
0.358856
0.364026
0.368945
0.373262
0.377251
0.380391
0.383266
0.385132
0.387002
0.387726
0.388834
0.388857
0.390186
0.390906
0.393271
0.393787
0.39291
0.386579
0.374132
0.356262
0.337987
0.327688
0.335712
0.355954
0.385879
0.431439
0.383039
0.280857
0.207685
0.164474
0.134204
0.115486
0.101907
0.0925613
0.0840995
0.0766759
0.069487
0.0631702
0.0575248
0.0527371
0.048605
0.0451061
0.0420829
0.0394761
0.0371957
0.0352043
0.0334664
0.0319814
0.03076
0.0298535
0.346892
0.363711
0.384377
0.406731
0.425157
0.433406
0.428726
0.412254
0.387389
0.358217
0.328382
0.300609
0.276811
0.258551
0.247282
0.244174
0.249382
0.261565
0.278019
0.295301
0.310506
0.322476
0.331613
0.3389
0.345162
0.350944
0.35641
0.361716
0.366673
0.371409
0.375563
0.379436
0.382486
0.385327
0.387186
0.389109
0.389904
0.391148
0.391312
0.392864
0.393788
0.396448
0.397192
0.396651
0.390553
0.378488
0.360855
0.343058
0.333183
0.341879
0.362246
0.391194
0.43473
0.386753
0.28474
0.210946
0.167153
0.13646
0.117485
0.103666
0.0940734
0.0853061
0.0775908
0.0701384
0.0636236
0.0578264
0.0529359
0.0487267
0.0451776
0.042118
0.0394932
0.0372078
0.0352309
0.0335254
0.0320994
0.0309654
0.0301868
0.346716
0.363347
0.383907
0.406307
0.424909
0.433384
0.428916
0.41261
0.387853
0.358745
0.328963
0.301265
0.277603
0.259574
0.248661
0.246038
0.251844
0.264685
0.281735
0.299396
0.314697
0.326556
0.335478
0.342523
0.348538
0.354086
0.359322
0.364417
0.369173
0.373739
0.377743
0.381509
0.38448
0.387295
0.389154
0.391134
0.392002
0.393383
0.393688
0.39546
0.396585
0.399536
0.400504
0.400297
0.394434
0.382758
0.365373
0.34807
0.338628
0.347983
0.368441
0.396385
0.437903
0.39031
0.288528
0.214178
0.169836
0.13874
0.119513
0.105452
0.0956082
0.0865314
0.0785246
0.0708101
0.0641012
0.0581549
0.0531651
0.0488807
0.045284
0.0421896
0.0395502
0.0372636
0.0353077
0.0336433
0.0322889
0.0312589
0.030631
0.0304739
0.0309311
0.0321015
0.0341021
0.0369309
0.0404379
0.0443388
0.0482254
0.0518873
0.0550982
0.0580681
0.0607563
0.0637292
0.0668245
0.0709212
0.0754578
0.0818954
0.088934
0.0992489
0.110111
0.126486
0.139849
0.346542
0.362988
0.383442
0.405883
0.424656
0.433353
0.429096
0.412953
0.388304
0.359262
0.329532
0.301909
0.278381
0.26058
0.250013
0.24786
0.254241
0.267713
0.285329
0.303338
0.31871
0.330444
0.339148
0.345955
0.351731
0.357054
0.362071
0.366966
0.371533
0.37594
0.379806
0.383475
0.386377
0.389172
0.391037
0.393077
0.394022
0.39554
0.395985
0.397974
0.399298
0.402534
0.403722
0.403846
0.39822
0.386939
0.369813
0.353019
0.344019
0.354015
0.374531
0.401449
0.440958
0.39371
0.292215
0.217374
0.17252
0.141041
0.121568
0.107264
0.0971654
0.087777
0.0794807
0.0715067
0.0646085
0.0585164
0.0534312
0.0490738
0.0454321
0.0423051
0.0396547
0.0373717
0.0354444
0.0338311
0.032563
0.0316566
0.0312057
0.0312869
0.0320586
0.0336213
0.0360818
0.0393971
0.0433571
0.0476276
0.0517756
0.0556211
0.0589682
0.0620938
0.0649691
0.0682255
0.0716635
0.0762367
0.0812871
0.0883869
0.0960641
0.107162
0.118687
0.135801
0.14944
0.346373
0.362634
0.382982
0.40546
0.4244
0.433314
0.429266
0.413285
0.388744
0.359767
0.33009
0.302542
0.279147
0.261569
0.251338
0.249638
0.256571
0.270648
0.2888
0.307126
0.322544
0.334142
0.342628
0.349201
0.354747
0.359854
0.364663
0.369369
0.373759
0.378018
0.381757
0.38534
0.38818
0.390963
0.392839
0.394943
0.395965
0.397619
0.398203
0.400407
0.401926
0.405443
0.406847
0.407298
0.401911
0.391029
0.374172
0.3579
0.349348
0.359969
0.380508
0.406383
0.443899
0.396951
0.295794
0.220528
0.175197
0.143356
0.123645
0.109099
0.0987452
0.089045
0.0804631
0.0722332
0.0651516
0.0589177
0.0537417
0.0493136
0.04563
0.0424729
0.0398158
0.0375419
0.0356521
0.0341018
0.0329373
0.0321769
0.0319336
0.0322914
0.0334237
0.035428
0.0383933
0.0422247
0.0466467
0.0512801
0.0556773
0.0596999
0.0631869
0.0664844
0.0695711
0.0731421
0.0769531
0.0820298
0.0876093
0.095371
0.103666
0.115497
0.127614
0.145358
0.15917
0.346206
0.362286
0.382526
0.405038
0.42414
0.433269
0.429427
0.413607
0.389173
0.360262
0.330638
0.303165
0.279901
0.262541
0.252635
0.25137
0.258833
0.273488
0.292145
0.310757
0.326202
0.337654
0.345921
0.352268
0.357592
0.362493
0.367104
0.371633
0.375857
0.37998
0.383601
0.387107
0.389895
0.392671
0.394563
0.396732
0.397834
0.399623
0.400346
0.40276
0.40447
0.408261
0.409878
0.410653
0.405504
0.395025
0.378448
0.362711
0.35461
0.365837
0.386367
0.411184
0.446725
0.400034
0.299261
0.223634
0.177863
0.145682
0.125742
0.110956
0.100348
0.090338
0.0814762
0.0729954
0.0657375
0.0593664
0.0541047
0.0496088
0.0458868
0.0427023
0.0400437
0.0377854
0.0359436
0.0344704
0.0334294
0.0328413
0.0328404
0.0335175
0.0350608
0.0375582
0.041071
0.0454425
0.0503289
0.0553133
0.0599452
0.0641387
0.0677705
0.0712569
0.0745792
0.0784935
0.0827028
0.0883019
0.0944153
0.102825
0.111703
0.124205
0.136834
0.155092
0.168977
0.346042
0.361942
0.382075
0.404619
0.423878
0.433218
0.429579
0.413918
0.389591
0.360747
0.331177
0.303779
0.280644
0.263497
0.253905
0.253057
0.261025
0.276231
0.295364
0.314233
0.329683
0.340984
0.349034
0.355161
0.360272
0.364978
0.369402
0.373763
0.377833
0.38183
0.385345
0.388782
0.391523
0.394298
0.39621
0.398447
0.399629
0.401553
0.402412
0.405033
0.40693
0.410989
0.412815
0.413909
0.408999
0.398928
0.382637
0.367446
0.3598
0.371611
0.392101
0.41585
0.44944
0.402957
0.302612
0.226686
0.180512
0.148014
0.127854
0.112833
0.101975
0.0916589
0.0825249
0.0737998
0.066374
0.0598711
0.0545297
0.049969
0.0462128
0.0430043
0.0403502
0.0381153
0.0363338
0.0349539
0.0340597
0.0336741
0.0339549
0.0349989
0.0370071
0.0400491
0.0441484
0.0490767
0.054422
0.0597403
0.0645907
0.0689492
0.0727316
0.0764241
0.0800045
0.084287
0.0889137
0.0950445
0.101686
0.110716
0.120131
0.133228
0.146283
0.164936
0.1788
0.345881
0.361604
0.381629
0.404201
0.423614
0.433162
0.429723
0.41422
0.39
0.361223
0.331708
0.304384
0.281376
0.264436
0.255147
0.254698
0.263147
0.278877
0.298455
0.317554
0.332993
0.344135
0.351973
0.357887
0.362794
0.367314
0.371562
0.375767
0.379693
0.383574
0.386991
0.390367
0.39307
0.395849
0.397784
0.40009
0.401353
0.40341
0.404404
0.407227
0.409307
0.413628
0.415658
0.417067
0.412397
0.402734
0.386739
0.372102
0.364913
0.377285
0.397705
0.420381
0.452044
0.405723
0.305843
0.229678
0.183139
0.150348
0.129979
0.114729
0.103626
0.093011
0.0836148
0.0746535
0.0670697
0.0604414
0.0550273
0.0504053
0.0466197
0.0433911
0.0407489
0.0385463
0.0368396
0.0355721
0.0348515
0.0347026
0.0353093
0.0367721
0.0393012
0.042938
0.0476563
0.0531491
0.0589399
0.0645705
0.0696216
0.0741392
0.0780784
0.0819935
0.0858523
0.0905224
0.0955782
0.102239
0.109391
0.119001
0.128897
0.142504
0.155894
0.174825
0.188579
0.345723
0.361271
0.381188
0.403785
0.423348
0.4331
0.429859
0.414514
0.3904
0.36169
0.33223
0.304981
0.282098
0.26536
0.256363
0.256293
0.2652
0.281426
0.30142
0.320722
0.336132
0.347113
0.354742
0.360452
0.365164
0.369509
0.373592
0.37765
0.381442
0.385216
0.388546
0.391868
0.394539
0.397325
0.399288
0.401663
0.403008
0.405196
0.406322
0.409343
0.411603
0.416178
0.418408
0.420127
0.415696
0.406444
0.390751
0.376676
0.369943
0.382853
0.403175
0.424773
0.454541
0.408332
0.30895
0.232605
0.185738
0.152678
0.132114
0.116642
0.105304
0.0943983
0.0847521
0.0755644
0.0678343
0.061088
0.055609
0.0509301
0.0471207
0.0438769
0.041255
0.0390956
0.0374805
0.0363474
0.0358311
0.0359577
0.0369391
0.0388758
0.0419827
0.0462605
0.051622
0.057677
0.0638917
0.0698083
0.0750412
0.0797123
0.0838145
0.087967
0.0921207
0.0971916
0.10268
0.109859
0.117492
0.127632
0.137942
0.151969
0.165601
0.184695
0.19826
0.345568
0.360943
0.380752
0.403371
0.423081
0.433034
0.429989
0.414799
0.390792
0.36215
0.332745
0.305571
0.282812
0.26627
0.257552
0.257843
0.267183
0.283877
0.304258
0.323738
0.339107
0.349923
0.357348
0.362862
0.367391
0.37157
0.375497
0.379419
0.383088
0.386764
0.390013
0.393289
0.395933
0.398731
0.400723
0.40317
0.404595
0.406913
0.408169
0.411383
0.413817
0.418641
0.421066
0.42309
0.418896
0.410056
0.394671
0.381165
0.374886
0.388309
0.408505
0.429026
0.456933
0.410786
0.31193
0.235462
0.188305
0.155001
0.134255
0.118571
0.10701
0.0958249
0.0859434
0.0765412
0.0686782
0.0618228
0.056288
0.0515572
0.0477307
0.0444773
0.0418858
0.0397823
0.0382784
0.0373049
0.0370279
0.037473
0.0388821
0.0413505
0.0450904
0.0500488
0.0560673
0.0626713
0.0692807
0.0754536
0.0808484
0.0856672
0.089938
0.0943401
0.0988009
0.104278
0.110194
0.117869
0.125945
0.136551
0.147203
0.161555
0.175339
0.194488
0.207796
0.345415
0.36062
0.380321
0.40296
0.422812
0.432963
0.430112
0.415078
0.391177
0.362602
0.333254
0.306154
0.283516
0.267165
0.258714
0.259348
0.269097
0.286232
0.306972
0.326606
0.34192
0.352571
0.359798
0.365125
0.369479
0.373502
0.377284
0.381079
0.384633
0.38822
0.391397
0.394632
0.397256
0.400069
0.402093
0.40461
0.406117
0.408561
0.409945
0.413348
0.415951
0.421017
0.423632
0.425955
0.421998
0.41357
0.398498
0.385565
0.379738
0.393647
0.413693
0.43314
0.459223
0.413087
0.314782
0.238245
0.190835
0.157312
0.1364
0.120517
0.108747
0.0972955
0.0871962
0.0775933
0.0696132
0.0626589
0.057079
0.052302
0.0484663
0.0452101
0.042661
0.0406281
0.039258
0.0384729
0.0384741
0.0392852
0.0411782
0.0442367
0.0486611
0.0543307
0.0610079
0.0681368
0.0751044
0.0815008
0.087037
0.0919976
0.0964411
0.101102
0.105876
0.111758
0.118087
0.126224
0.134695
0.145699
0.156617
0.171199
0.185047
0.204151
0.217141
0.345266
0.360303
0.379896
0.402552
0.422543
0.432889
0.43023
0.415349
0.391554
0.363048
0.333757
0.306731
0.284213
0.268046
0.259852
0.260809
0.270943
0.288493
0.309563
0.329329
0.344578
0.355062
0.362099
0.367247
0.371436
0.375313
0.378959
0.382637
0.386085
0.389591
0.392703
0.395903
0.398511
0.401342
0.4034
0.405988
0.407575
0.410144
0.411652
0.415238
0.418007
0.423307
0.426107
0.428724
0.425002
0.416985
0.402231
0.389874
0.384493
0.398863
0.418734
0.437113
0.461412
0.415237
0.317503
0.240948
0.193323
0.159607
0.138547
0.122478
0.110515
0.0988152
0.0885183
0.0787312
0.0706521
0.0636109
0.0579979
0.0531818
0.0493458
0.0460952
0.0436023
0.0416572
0.0404468
0.0398825
0.0402049
0.041433
0.0438683
0.0475738
0.0527277
0.0591277
0.066452
0.0740707
0.0813539
0.0879386
0.0935955
0.0986912
0.10331
0.108234
0.113324
0.1196
0.126318
0.134875
0.143687
0.155014
0.166119
0.180838
0.194666
0.213636
0.226258
0.345119
0.35999
0.379475
0.402147
0.422274
0.432811
0.430342
0.415613
0.391924
0.363488
0.334254
0.307303
0.284903
0.268914
0.260964
0.262227
0.272722
0.290659
0.312033
0.33191
0.347084
0.357404
0.364256
0.369234
0.373269
0.377009
0.380528
0.384097
0.387448
0.39088
0.393934
0.397105
0.3997
0.402552
0.404646
0.407305
0.408971
0.411662
0.413292
0.417056
0.419985
0.425512
0.428493
0.431397
0.427909
0.420302
0.405869
0.39409
0.389149
0.403952
0.423628
0.440947
0.463503
0.417238
0.320093
0.243569
0.195764
0.161882
0.140692
0.124455
0.11232
0.10039
0.0899184
0.0799661
0.0718088
0.0646946
0.0590626
0.0542153
0.0503899
0.0471545
0.044734
0.0428965
0.0418747
0.0415672
0.0422577
0.0439565
0.046993
0.0513985
0.0573174
0.0644536
0.0723997
0.0804632
0.0880142
0.0947506
0.100507
0.105731
0.110525
0.115712
0.121112
0.127765
0.134841
0.143769
0.152861
0.164432
0.175647
0.190413
0.204146
0.2229
0.235116
0.344974
0.359681
0.37906
0.401744
0.422004
0.432731
0.430449
0.415872
0.392289
0.363922
0.334747
0.30787
0.285586
0.26977
0.262052
0.263602
0.274435
0.292734
0.314386
0.334354
0.349445
0.359602
0.366277
0.371095
0.374983
0.378595
0.381997
0.385465
0.388727
0.392092
0.395095
0.39824
0.400828
0.403702
0.405833
0.408563
0.410308
0.413117
0.414867
0.418803
0.421887
0.427634
0.430791
0.433976
0.430719
0.42352
0.40941
0.398209
0.393702
0.408911
0.42837
0.444641
0.4655
0.419095
0.32255
0.246103
0.198156
0.164134
0.142835
0.126448
0.114162
0.102025
0.0914058
0.0813103
0.0730986
0.0659273
0.0602921
0.0554232
0.0516207
0.0484119
0.0460825
0.0443749
0.0435742
0.0435629
0.0446714
0.0468962
0.0505908
0.0557429
0.0624502
0.0703135
0.0788426
0.0872967
0.0950641
0.101915
0.10775
0.113093
0.11806
0.123506
0.129204
0.136208
0.143605
0.152847
0.162155
0.173892
0.185141
0.19987
0.213439
0.231909
0.243687
0.344833
0.359378
0.378649
0.401345
0.421734
0.432648
0.430552
0.416125
0.392647
0.364351
0.335235
0.308433
0.286262
0.270614
0.263117
0.264935
0.276084
0.29472
0.316624
0.336664
0.351666
0.361663
0.368169
0.372834
0.376586
0.380079
0.383371
0.386746
0.389927
0.393231
0.396188
0.399314
0.401897
0.404796
0.406965
0.409765
0.411587
0.414511
0.416377
0.420481
0.423715
0.429675
0.433003
0.436462
0.433434
0.426639
0.412855
0.402231
0.398149
0.413736
0.43296
0.448196
0.467405
0.420809
0.324875
0.248548
0.200493
0.166359
0.144972
0.128457
0.116046
0.103727
0.0929902
0.0827768
0.0745377
0.0673277
0.0617076
0.056828
0.0530626
0.0498937
0.0476764
0.046124
0.0455799
0.0459069
0.0474852
0.0502911
0.0546969
0.0606325
0.0681377
0.0767032
0.0857635
0.0945469
0.102476
0.109404
0.115297
0.120749
0.125883
0.13158
0.137558
0.144881
0.152555
0.162051
0.171509
0.183335
0.194546
0.209161
0.222505
0.240633
0.25195
0.344693
0.359079
0.378244
0.400948
0.421464
0.432562
0.430651
0.416374
0.393001
0.364776
0.335719
0.308992
0.286934
0.271447
0.264159
0.266229
0.277671
0.296619
0.318751
0.338847
0.353753
0.363593
0.369937
0.374459
0.378083
0.381465
0.384656
0.387946
0.391053
0.394302
0.397218
0.400328
0.40291
0.405835
0.408043
0.410911
0.412809
0.415847
0.417826
0.422091
0.425471
0.431636
0.435129
0.438857
0.436054
0.429661
0.416204
0.406153
0.402486
0.418424
0.437397
0.451613
0.469221
0.422384
0.327067
0.250901
0.202773
0.168555
0.147103
0.130482
0.117976
0.105502
0.0946822
0.0843797
0.0761437
0.0689158
0.0633311
0.0584534
0.0547414
0.0516277
0.0495463
0.0481767
0.0479275
0.0486372
0.0507381
0.0541778
0.0593409
0.0660851
0.0743816
0.0836088
0.0931371
0.102182
0.110219
0.117186
0.123116
0.128667
0.13396
0.139892
0.146128
0.153733
0.161636
0.171322
0.180864
0.192703
0.20381
0.218243
0.23131
0.249048
0.25989
0.344556
0.358785
0.377844
0.400555
0.421195
0.432475
0.430745
0.416617
0.39335
0.365196
0.3362
0.309548
0.2876
0.272269
0.26518
0.267483
0.279198
0.298433
0.32077
0.340905
0.355712
0.365399
0.371588
0.375975
0.37948
0.382759
0.385857
0.389069
0.392107
0.395308
0.398189
0.401286
0.403869
0.406822
0.409069
0.412006
0.413978
0.417125
0.419213
0.423636
0.427156
0.433519
0.437172
0.441161
0.438581
0.432585
0.419455
0.409974
0.406712
0.422973
0.441679
0.454894
0.47095
0.423824
0.329128
0.253159
0.204993
0.170718
0.149227
0.132525
0.119954
0.107359
0.0964928
0.0861336
0.077935
0.0707128
0.0651863
0.0603248
0.0566845
0.0536432
0.0517237
0.0505673
0.0506534
0.0517913
0.0544662
0.0585883
0.0645454
0.0721087
0.0811732
0.0910066
0.10093
0.110166
0.118254
0.125225
0.131172
0.136808
0.142249
0.148398
0.154865
0.162708
0.170789
0.180602
0.190165
0.201946
0.212888
0.227078
0.239825
0.257134
0.267493
0.344422
0.358496
0.377448
0.400165
0.420926
0.432385
0.430836
0.416856
0.393694
0.365613
0.336678
0.310101
0.288262
0.273082
0.266179
0.2687
0.280667
0.300166
0.322686
0.342846
0.357548
0.367086
0.373129
0.37739
0.380783
0.383967
0.386979
0.390119
0.393096
0.396253
0.399103
0.40219
0.404777
0.407759
0.410046
0.413049
0.415094
0.418347
0.420542
0.425116
0.428771
0.435325
0.439133
0.443376
0.441016
0.435413
0.422609
0.413692
0.410824
0.427381
0.445808
0.458038
0.472597
0.425132
0.331057
0.255322
0.20715
0.172846
0.151342
0.134587
0.121985
0.109304
0.0984334
0.0880541
0.079931
0.0727408
0.0672976
0.0624684
0.05892
0.0559704
0.0542413
0.05333
0.0537932
0.0554046
0.0587024
0.0635483
0.0703242
0.0787014
0.0884934
0.098864
0.109102
0.118457
0.126542
0.133481
0.139426
0.145134
0.150708
0.157051
0.163717
0.171754
0.17996
0.189836
0.199358
0.211017
0.221741
0.235636
0.248027
0.26488
0.274754
0.34429
0.358211
0.377058
0.399778
0.420658
0.432294
0.430924
0.41709
0.394034
0.366026
0.337153
0.310652
0.288919
0.273885
0.267159
0.269882
0.282079
0.30182
0.324501
0.344672
0.359268
0.368661
0.374565
0.378708
0.381998
0.385094
0.388027
0.391101
0.394022
0.397141
0.399963
0.403045
0.405638
0.408649
0.410975
0.414044
0.41616
0.419516
0.421814
0.426534
0.430319
0.437057
0.441015
0.445505
0.44336
0.438145
0.425667
0.417307
0.414821
0.431647
0.449782
0.461049
0.474163
0.426313
0.332857
0.257387
0.209242
0.174937
0.153447
0.136668
0.124074
0.111345
0.100516
0.0901574
0.0821517
0.0750226
0.0696902
0.0649109
0.0614765
0.0586398
0.0571314
0.0564985
0.0573809
0.0595094
0.0634738
0.0690758
0.0766812
0.0858502
0.0963128
0.10714
0.117607
0.127007
0.135038
0.141913
0.147836
0.153601
0.15929
0.165803
0.172633
0.180816
0.189094
0.198973
0.208397
0.219876
0.230335
0.243892
0.255899
0.272275
0.281667
0.34416
0.35793
0.376673
0.399395
0.42039
0.432201
0.431009
0.417321
0.39437
0.366436
0.337626
0.311201
0.289573
0.274679
0.26812
0.271028
0.283438
0.303398
0.32622
0.34639
0.360878
0.370131
0.375903
0.379935
0.38313
0.386144
0.389005
0.392019
0.39489
0.397974
0.400774
0.403851
0.406452
0.409494
0.41186
0.414992
0.417177
0.420633
0.423031
0.427891
0.431802
0.438717
0.442819
0.447549
0.445616
0.440782
0.428627
0.420818
0.418701
0.43577
0.453603
0.463928
0.475651
0.427371
0.33453
0.259354
0.211267
0.176989
0.155542
0.138772
0.126224
0.113489
0.102753
0.0924598
0.0846175
0.0775812
0.072389
0.0676789
0.0643823
0.0616811
0.0604249
0.0601046
0.0614471
0.0641329
0.0688005
0.0751796
0.0836097
0.093531
0.104593
0.115787
0.126394
0.135769
0.143695
0.150477
0.156359
0.162164
0.167951
0.174604
0.181561
0.189842
0.198142
0.207966
0.217239
0.228486
0.238641
0.251825
0.263429
0.279314
0.288232
0.344033
0.357654
0.376292
0.399015
0.420124
0.432108
0.43109
0.417548
0.394703
0.366843
0.338098
0.311748
0.290225
0.275466
0.269063
0.272142
0.284745
0.304904
0.327848
0.348005
0.362382
0.3715
0.377148
0.381077
0.384184
0.387123
0.389917
0.392878
0.395703
0.398757
0.401537
0.404613
0.407224
0.410295
0.412701
0.415895
0.418148
0.4217
0.424195
0.42919
0.433221
0.440305
0.444547
0.449509
0.447784
0.443326
0.431492
0.424224
0.422462
0.439749
0.457273
0.466676
0.477065
0.428309
0.336076
0.261221
0.213223
0.179002
0.157628
0.140898
0.12844
0.115745
0.105157
0.0949782
0.0873487
0.0804395
0.0754184
0.0707982
0.0676645
0.0651227
0.0641509
0.0641765
0.0660177
0.0692959
0.0746944
0.0818584
0.0910919
0.10171
0.113286
0.124751
0.13541
0.14469
0.152468
0.159128
0.164951
0.17078
0.176643
0.183405
0.190453
0.198785
0.207055
0.216771
0.225847
0.236817
0.246636
0.259422
0.270608
0.285997
0.294451
0.343907
0.357381
0.375916
0.398638
0.419858
0.432012
0.431169
0.417772
0.395033
0.367248
0.338567
0.312293
0.290873
0.276244
0.269989
0.273225
0.286002
0.30634
0.329388
0.349522
0.363788
0.372775
0.378306
0.38214
0.385164
0.388035
0.390768
0.39368
0.396464
0.399492
0.402255
0.405332
0.407953
0.411055
0.4135
0.416755
0.419074
0.422719
0.425307
0.430432
0.434579
0.441825
0.446201
0.451389
0.449867
0.445778
0.434262
0.427526
0.426106
0.443584
0.460791
0.469297
0.478407
0.429132
0.337498
0.26299
0.21511
0.180973
0.159704
0.14305
0.130727
0.118121
0.107739
0.097729
0.0903652
0.0836192
0.0788016
0.0742927
0.0713478
0.0689901
0.0683347
0.0687384
0.0711127
0.0750118
0.0811577
0.0891001
0.099099
0.110342
0.122338
0.133974
0.144598
0.15372
0.161308
0.16782
0.173568
0.179403
0.18532
0.192162
0.199261
0.207597
0.215793
0.225351
0.23419
0.244847
0.254305
0.266672
0.277433
0.292324
0.300329
0.343784
0.357113
0.375545
0.398265
0.419593
0.431916
0.431246
0.417993
0.395359
0.36765
0.339035
0.312838
0.291519
0.277016
0.270898
0.274277
0.287213
0.30771
0.330844
0.350945
0.365099
0.373961
0.379382
0.383127
0.386076
0.388884
0.391562
0.394429
0.397177
0.400182
0.402931
0.40601
0.408644
0.411777
0.41426
0.417574
0.419956
0.423692
0.426369
0.431618
0.435877
0.443278
0.447784
0.45319
0.451866
0.448139
0.436938
0.430723
0.42963
0.447276
0.464161
0.471793
0.47968
0.429845
0.3388
0.26466
0.216927
0.182902
0.16177
0.145229
0.133088
0.120626
0.110513
0.100728
0.0936859
0.0871407
0.0825593
0.0781841
0.075454
0.0733052
0.0729969
0.0738082
0.0767449
0.0812848
0.0881826
0.0968819
0.107592
0.119377
0.13169
0.143397
0.153902
0.162807
0.170168
0.176511
0.182167
0.18799
0.193939
0.200828
0.207942
0.216239
0.224317
0.233676
0.242242
0.252557
0.261634
0.27357
0.283902
0.298299
0.30587
0.343663
0.35685
0.375179
0.397895
0.419329
0.431819
0.431321
0.418211
0.395683
0.36805
0.339502
0.313383
0.292163
0.277782
0.271793
0.275301
0.288379
0.309018
0.332221
0.35228
0.366322
0.375064
0.380382
0.384044
0.386924
0.389675
0.392302
0.39513
0.397845
0.400829
0.403567
0.406651
0.409298
0.412461
0.414982
0.418354
0.420797
0.424619
0.427384
0.432752
0.437117
0.444667
0.449297
0.454913
0.453784
0.450411
0.43952
0.433815
0.433035
0.450826
0.467384
0.474165
0.480887
0.430451
0.339983
0.266231
0.218672
0.184789
0.163826
0.147437
0.13553
0.123265
0.11349
0.103992
0.097328
0.0910221
0.0867096
0.0824901
0.0800006
0.0780851
0.0781525
0.0793973
0.0829186
0.0881099
0.0957506
0.10517
0.116523
0.128754
0.141278
0.152957
0.163266
0.1719
0.179003
0.185157
0.190706
0.196499
0.202458
0.209363
0.216457
0.224673
0.232595
0.241718
0.249983
0.259931
0.268616
0.280113
0.290018
0.30393
0.311085
0.343544
0.35659
0.374817
0.397528
0.419067
0.431721
0.431393
0.418426
0.396004
0.368449
0.339969
0.313927
0.292806
0.278541
0.272673
0.276299
0.289503
0.310265
0.333523
0.353532
0.367462
0.376089
0.381309
0.384895
0.387711
0.390411
0.392992
0.395784
0.39847
0.401437
0.404166
0.407255
0.409916
0.41311
0.415668
0.419096
0.421599
0.425504
0.428352
0.433835
0.438302
0.445994
0.450743
0.456562
0.455622
0.452595
0.442011
0.436803
0.436322
0.454234
0.470463
0.476418
0.482031
0.430955
0.34105
0.267705
0.220347
0.186633
0.165875
0.149676
0.138055
0.126049
0.116681
0.107533
0.101307
0.0952785
0.0912662
0.0872243
0.0850002
0.083341
0.0838096
0.0855089
0.0896294
0.0954719
0.103833
0.113922
0.125836
0.138412
0.151038
0.162593
0.172634
0.180953
0.187769
0.193718
0.199147
0.204893
0.210838
0.217729
0.224769
0.232868
0.2406
0.249455
0.257398
0.266962
0.275247
0.286304
0.295786
0.309223
0.31598
0.343427
0.356334
0.37446
0.397164
0.418805
0.431623
0.431463
0.418639
0.396323
0.368846
0.340435
0.314471
0.293447
0.279296
0.273539
0.277271
0.290586
0.311456
0.334753
0.354705
0.368523
0.37704
0.382169
0.385685
0.388443
0.391095
0.393635
0.396395
0.399055
0.402008
0.40473
0.407826
0.410501
0.413725
0.41632
0.419801
0.422362
0.426348
0.429276
0.434868
0.439432
0.44726
0.452123
0.458138
0.457382
0.454694
0.44441
0.439687
0.43949
0.457502
0.4734
0.478553
0.483114
0.431362
0.342005
0.269083
0.221952
0.188435
0.167916
0.15195
0.140669
0.128983
0.120097
0.111365
0.105634
0.0999211
0.0962386
0.0923949
0.0904591
0.0890776
0.0899689
0.0921382
0.0968634
0.103346
0.112391
0.123086
0.135469
0.148282
0.160904
0.172246
0.181955
0.189918
0.196427
0.202156
0.207452
0.213135
0.219045
0.225893
0.232849
0.240798
0.248311
0.256872
0.264475
0.273644
0.281526
0.292145
0.301214
0.314189
0.320567
0.343312
0.356082
0.374107
0.396803
0.418544
0.431523
0.431532
0.418849
0.39664
0.369242
0.3409
0.315015
0.294088
0.280045
0.274393
0.27822
0.291632
0.312593
0.335916
0.355803
0.369512
0.377922
0.382967
0.386417
0.389123
0.391731
0.394235
0.396966
0.399603
0.402544
0.405261
0.408364
0.411055
0.414309
0.416939
0.420472
0.423089
0.427152
0.430157
0.435854
0.440511
0.448468
0.453441
0.459643
0.459067
0.456709
0.44672
0.442469
0.442541
0.460632
0.476199
0.480573
0.484139
0.431675
0.342852
0.270365
0.223487
0.190196
0.169951
0.154259
0.143376
0.132074
0.123745
0.115496
0.110319
0.104957
0.101631
0.0980045
0.0963774
0.0952923
0.0966229
0.0992712
0.104597
0.111697
0.121379
0.132604
0.145356
0.158297
0.170811
0.181858
0.191179
0.198754
0.204938
0.210436
0.215588
0.221192
0.227047
0.233827
0.240669
0.248439
0.255709
0.263958
0.271208
0.279977
0.287456
0.297643
0.306309
0.318838
0.324857
0.343198
0.355833
0.373758
0.396446
0.418285
0.431424
0.431598
0.419058
0.396955
0.369637
0.341366
0.31556
0.294728
0.28079
0.275235
0.279146
0.292643
0.313679
0.337015
0.356832
0.370431
0.378741
0.383705
0.387096
0.389753
0.392323
0.394793
0.397499
0.400116
0.403047
0.405761
0.408873
0.411579
0.414862
0.417527
0.421111
0.423781
0.427917
0.430997
0.436795
0.44154
0.449619
0.454697
0.461081
0.460678
0.458642
0.448943
0.445149
0.445475
0.463626
0.478861
0.482482
0.485109
0.4319
0.343592
0.271555
0.224952
0.191915
0.171981
0.156608
0.14618
0.135329
0.127635
0.119936
0.115366
0.110387
0.107441
0.104049
0.102748
0.101975
0.103756
0.106885
0.112799
0.120483
0.13074
0.142411
0.155429
0.168388
0.180698
0.191378
0.200263
0.207424
0.213268
0.218527
0.223527
0.229037
0.234817
0.241504
0.248209
0.255775
0.262783
0.270703
0.277594
0.285961
0.293043
0.302807
0.311082
0.323181
0.32886
0.343087
0.355589
0.373414
0.396091
0.418026
0.431323
0.431663
0.419264
0.397268
0.37003
0.341831
0.316105
0.295368
0.281531
0.276067
0.280051
0.29362
0.314718
0.338054
0.357795
0.371285
0.379499
0.384389
0.387726
0.390339
0.392874
0.395314
0.397997
0.400597
0.40352
0.406232
0.409353
0.412075
0.415386
0.418085
0.421717
0.424439
0.428647
0.431797
0.437691
0.442521
0.450717
0.455894
0.462452
0.462218
0.460495
0.451079
0.44773
0.448295
0.466487
0.481392
0.484282
0.486026
0.432041
0.34423
0.272652
0.22635
0.193594
0.174007
0.158997
0.149084
0.138752
0.13177
0.124688
0.120775
0.116208
0.11366
0.110517
0.109556
0.109107
0.111344
0.11495
0.121427
0.129652
0.140416
0.152441
0.165617
0.178491
0.190507
0.200755
0.209166
0.215892
0.221389
0.226401
0.23124
0.236644
0.242333
0.248906
0.255452
0.262794
0.269524
0.277106
0.283634
0.291601
0.298294
0.307646
0.315545
0.327231
0.33259
0.342978
0.355348
0.373074
0.39574
0.417769
0.431222
0.431727
0.419468
0.397579
0.370423
0.342297
0.316651
0.296008
0.282269
0.276888
0.280937
0.294566
0.315712
0.339036
0.358696
0.37208
0.380201
0.385022
0.388308
0.390882
0.393386
0.395799
0.398462
0.401047
0.403964
0.406675
0.409806
0.412544
0.415883
0.418616
0.422294
0.425066
0.429342
0.432561
0.438545
0.443456
0.451762
0.457035
0.463759
0.463689
0.462269
0.453131
0.450211
0.451001
0.469217
0.483794
0.485976
0.486892
0.432102
0.344769
0.273661
0.227681
0.195233
0.176032
0.16143
0.152091
0.142348
0.136155
0.129752
0.126542
0.122411
0.120275
0.117392
0.116781
0.116664
0.119356
0.123425
0.130435
0.139149
0.15034
0.162625
0.175853
0.188543
0.200183
0.209945
0.217852
0.22413
0.229274
0.234036
0.238708
0.243993
0.249575
0.256015
0.262383
0.269485
0.275927
0.283165
0.289331
0.296904
0.303217
0.312172
0.319709
0.331001
0.336057
0.34287
0.35511
0.372738
0.395391
0.417513
0.431121
0.431789
0.41967
0.397889
0.370816
0.342764
0.317198
0.296648
0.283004
0.2777
0.281805
0.295482
0.316664
0.339966
0.35954
0.372818
0.380851
0.385607
0.388848
0.391386
0.393861
0.396251
0.398897
0.401469
0.404381
0.407093
0.410234
0.412988
0.416355
0.419119
0.422842
0.425662
0.430003
0.433288
0.439359
0.444346
0.452757
0.458121
0.465004
0.465092
0.463968
0.4551
0.452595
0.453596
0.471818
0.48607
0.487568
0.48771
0.432087
0.345214
0.274583
0.228947
0.196836
0.178058
0.163908
0.155205
0.14612
0.14079
0.135126
0.132656
0.12898
0.127264
0.124649
0.124393
0.124614
0.127752
0.132266
0.139768
0.14891
0.160447
0.172893
0.186071
0.198485
0.20968
0.218911
0.22629
0.232111
0.2369
0.24141
0.24591
0.251068
0.256528
0.262819
0.268996
0.275845
0.281991
0.288884
0.294691
0.301878
0.307825
0.316396
0.323588
0.334502
0.339274
0.342764
0.354877
0.372406
0.395046
0.417258
0.431019
0.431849
0.41987
0.398198
0.371207
0.343231
0.317747
0.297289
0.283736
0.278503
0.282656
0.296372
0.317576
0.340846
0.36033
0.373503
0.381452
0.386148
0.389347
0.391853
0.394304
0.396672
0.399303