/*--------------------------------*- C++ -*----------------------------------*\
| =========                 |                                                 |
| \\      /  F ield         | OpenFOAM: The Open Source CFD Toolbox           |
|  \\    /   O peration     | Version:  2412                                  |
|   \\  /    A nd           | Website:  www.openfoam.com                      |
|    \\/     M anipulation  |                                                 |
\*---------------------------------------------------------------------------*/
FoamFile
{
    version     2.0;
    format      ascii;
    arch        "LSB;label=32;scalar=64";
    class       volScalarField;
    location    "0.8";
    object      p;
}
// * * * * * * * * * * * * * * * * * * * * * * * * * * * * * * * * * * * * * //

dimensions      [0 2 -2 0 0 0 0];

internalField   nonuniform List<scalar> 
13079
(
106596
106426
106315
106052
105882
105587
105361
105049
104793
104491
104245
103971
103748
103494
103284
103020
102797
102482
102212
101812
101495
101001
100649
100041
99658.6
98899
98495.8
97529.8
97122.2
95868.3
95488.7
93826.4
93531.9
91280.7
91171.2
88056.2
88301
83896.8
84780.2
78418.8
80409
71026
74910.7
60821.4
68010.7
46599.3
59632.8
26574.5
49510.8
-3692.5
34941
-56111.6
10603.2
-154536
-14389.1
-75906.4
2813.38
-33954.8
15580.3
-7095.72
24048.7
10749.5
30936.9
24035.9
37496.6
34449.2
43560.7
42716.6
49027.7
49393.9
53867.9
54819
58051.3
59218.8
61605
62798
64601.8
106577
106409
106299
106039
105870
105577
105353
105042
104788
104487
104241
103969
103747
103492
103282
103017
102794
102478
102208
101807
101490
100995
100643
100034
99652.4
98891.5
98489.1
97521.4
97115
95858.8
95481
93815.5
93523.6
91267.9
91162.1
88041
88291
83878.3
84769
78396.2
80396.3
70998.4
74896.6
60788.5
67995.2
46560.4
59612.6
26525.6
49476.3
-3754.23
34886.4
-56126.6
10602.6
-154025
-14243.3
-75884.3
2833.79
-33967.6
15586.3
-7108.57
24050.7
10734.7
30934.6
24021.1
37492.6
34436.2
43556
42705.5
49022.9
49384.9
53863.9
54812.5
58048.5
59214.3
61603.1
62795
64600.3
106558
106392
106283
106026
105858
105567
105344
105036
104782
104483
104238
103966
103745
103490
103280
103015
102791
102474
102203
101802
101485
100990
100637
100027
99646.2
98884.2
98482.6
97513.2
97108
95849.5
95473.4
93804.7
93515.4
91255.2
91153.2
88025.8
88281.1
83860
84757.9
78373.7
80383.8
70971
74882.7
60755.9
67979.9
46521.7
59592.6
26476.8
49442.1
-3815.54
34832.6
-56140.3
10602.9
-153518
-14098.3
-75861.7
2854.44
-33980.1
15592.7
-7121.17
24052.9
10720
30932.3
24006.3
37488.6
34423.3
43551.3
42694.4
49018
49376.1
53859.9
54806.1
58045.7
59209.9
61601.2
62792
64598.9
106540
106376
106268
106013
105847
105558
105336
105029
104777
104479
104235
103964
103743
103488
103279
103013
102788
102470
102199
101796
101480
100984
100632
100021
99640.2
98877
98476.1
97505.1
97101.1
95840.3
95465.9
93794.1
93507.4
91242.7
91144.4
88010.9
88271.4
83841.9
84747
78351.5
80371.4
70943.8
74869
60723.4
67964.7
46483.1
59572.7
26428.3
49408
-3876.41
34779.5
-56152.7
10604.1
-153014
-13954.4
-75838.6
2875.3
-33992.2
15599.2
-7133.57
24055.2
10705.4
30930.1
23991.6
37484.8
34410.4
43546.6
42683.4
49013.3
49367.3
53856
54799.7
58042.9
59205.5
61599.4
62789.1
64597.7
106521
106360
106252
106000
105835
105548
105328
105022
104771
104475
104232
103961
103741
103487
103277
103011
102785
102466
102195
101791
101475
100978
100626
100015
99634.3
98869.9
98469.8
97497.1
97094.2
95831.2
95458.6
93783.5
93499.4
91230.3
91135.7
87996
88261.7
83823.8
84736.1
78329.4
80359.2
70916.9
74855.5
60691.3
67949.8
46444.9
59553
26380
49374.2
-3936.93
34727
-56164.1
10606.1
-152514
-13811.4
-75814.9
2896.32
-34004.2
15605.9
-7145.85
24057.7
10691
30928
23977.1
37481
34397.6
43542
42672.4
49008.6
49358.5
53852.2
54793.3
58040.3
59201.2
61597.6
62786.2
64596.5
65719.4
67112.4
68131.6
69219.6
70136.4
70998.3
71838.7
72529.4
73329.1
73877.5
74672
75076.7
75903
76133.3
77043.7
77036
78124.4
77760.9
79203.4
78255.2
80396.6
78403.2
106503
106344
106237
105988
105823
105539
105320
105016
104766
104470
104229
103959
103739
103485
103275
103008
102782
102462
102190
101786
101470
100972
100621
100008
99628.5
98862.9
98463.5
97489.2
97087.5
95822.1
95451.3
93773
93491.5
91218
91127
87981.3
88252.1
83805.9
84725.4
78307.5
80347.1
70890.1
74842.1
60659.4
67935.2
46407
59533.7
26332
49340.7
-3997.08
34675.2
-56174.4
10608.8
-152017
-13669.4
-75790.7
2917.5
-34016.1
15612.6
-7158.03
24060.3
10676.7
30926.1
23962.7
37477.3
34384.9
43537.6
42661.5
49004.1
49349.8
53848.5
54787.1
58037.7
59197
61596
62783.5
64595.4
65717.6
67111.7
68130.4
69218.9
70135.6
70997.5
71838.2
72528.5
73329.1
73876.5
74672.6
75075.7
75904.5
76132.1
77046.5
77034.5
78128.8
77758.5
79210.1
78251.1
80405.6
78396.8
106485
106328
106222
105975
105812
105529
105311
105009
104761
104466
104225
103956
103737
103483
103274
103006
102779
102458
102186
101781
101465
100967
100616
100002
99622.7
98856
98457.3
97481.4
97080.9
95813.2
95444.1
93762.7
93483.7
91205.7
91118.5
87966.6
88242.7
83788.2
84714.8
78285.7
80335.1
70863.5
74829
60627.8
67920.8
46369.5
59514.6
26284.4
49307.4
-4056.82
34624.1
-56183.7
10612.2
-151524
-13528.4
-75766.1
2938.8
-34027.8
15619.4
-7170.12
24063
10662.6
30924.3
23948.4
37473.7
34372.4
43533.2
42650.8
48999.6
49341.2
53844.8
54780.9
58035.3
59192.9
61594.5
62780.8
64594.5
65716
67111
68129.4
69218.4
70135
70996.9
71838
72527.9
73329.3
73875.7
74673.4
75074.8
75906.2
76131.2
77049.5
77033.2
78133.5
77756.3
79217
78247.1
80414.8
78390.5
106467
106312
106206
105963
105800
105520
105303
105002
104755
104462
104222
103954
103735
103482
103272
103004
102776
102454
102182
101776
101460
100961
100610
99995.9
99617.1
98849.2
98451.2
97473.7
97074.3
95804.3
95437
93752.4
93475.9
91193.6
91110
87952.1
88233.3
83770.5
84704.3
78264
80323.3
70837.2
74816
60596.5
67906.7
46332.3
59495.8
26237
49274.4
-4116.1
34573.7
-56191.8
10616.4
-151035
-13388.5
-75741
2960.22
-34039.3
15626.3
-7182.12
24065.8
10648.6
30922.6
23934.2
37470.3
34359.9
43529
42640.1
48995.2
49332.7
53841.3
54774.8
58032.9
59188.9
61593.1
62778.3
64593.8
65714.5
67110.6
68128.6
69218.1
70134.7
70996.6
71838
72527.5
73329.7
73875.2
74674.4
75074.2
75908.1
76130.5
77052.7
77032
78138.4
77754.2
79224.1
78243.2
80424.1
78384.4
106449
106296
106191
105950
105789
105510
105295
104996
104750
104458
104219
103951
103733
103480
103270
103002
102774
102451
102177
101772
101455
100956
100605
99989.9
99611.5
98842.4
98445.2
97466
97067.8
95795.6
95430
93742.2
93468.3
91181.5
91101.6
87937.6
88224
83753
84693.9
78242.6
80311.6
70811.1
74803.3
60565.4
67892.8
46295.4
59477.3
26190
49241.7
-4174.9
34524
-56198.9
10621.3
-150549
-13249.7
-75715.5
2981.72
-34050.8
15633.2
-7194.02
24068.8
10634.8
30921.1
23920.3
37467.1
34347.6
43524.9
42629.5
48991
49324.3
53837.9
54768.8
58030.7
59185
61591.9
62776
64593.2
65713.2
67110.4
68128.1
69218.1
70134.6
70996.6
71838.3
72527.3
73330.3
73874.9
74675.7
75073.8
75910.3
76129.9
77056.2
77031.1
78143.6
77752.3
79231.4
78239.4
80433.5
78378.3
106431
106281
106177
105938
105778
105501
105287
104989
104745
104454
104216
103949
103732
103478
103268
102999
102771
102447
102173
101767
101450
100950
100600
99984
99606
98835.8
98439.3
97458.5
97061.4
95786.9
95423
93732.1
93460.7
91169.6
91093.3
87923.3
88214.8
83735.5
84683.6
78221.3
80300.1
70785.1
74790.7
60534.7
67879.2
46258.9
59459.2
26143.3
49209.4
-4233.18
34475.2
-56204.9
10626.8
-150067
-13111.9
-75689.5
3003.3
-34062.1
15640.2
-7205.85
24071.8
10621.1
30919.8
23906.5
37464
34335.5
43521
42619.1
48986.9
49316
53834.6
54762.9
58028.6
59181.2
61590.8
62773.8
64592.8
65712.1
67110.5
68127.8
69218.3
70134.9
70996.9
71838.9
72527.4
73331.3
73874.8
74677.2
75073.7
75912.7
76129.6
77059.9
77030.3
78148.9
77750.5
79238.9
78235.7
80443
78372.3
106413
106265
106162
105926
105766
105492
105279
104983
104739
104450
104213
103947
103730
103477
103267
102997
102768
102443
102169
101762
101445
100945
100595
99978.1
99600.6
98829.2
98433.5
97451
97055.1
95778.3
95416.2
93722
93453.2
91157.7
91085
87909
88205.6
83718.2
84673.4
78200.1
80288.7
70759.4
74778.3
60504.3
67865.8
46222.8
59441.3
26097
49177.4
-4290.91
34427.1
-56209.7
10633.1
-149588
-12975.2
-75663.3
3024.92
-34073.4
15647.2
-7217.58
24075
10607.7
30918.7
23892.9
37461.1
34323.6
43517.3
42608.8
48983
49307.9
53831.5
54757.2
58026.7
59177.6
61589.9
62771.8
64592.6
65711.3
67110.8
68127.8
69218.9
70135.4
70997.4
71839.7
72527.7
73332.4
73875
74678.9
75073.7
75915.4
76129.5
77063.8
77029.7
78154.4
77748.8
79246.5
78232
80452.5
78366.3
106396
106250
106147
105913
105755
105483
105271
104976
104734
104445
104210
103944
103728
103475
103265
102995
102765
102439
102165
101757
101441
100940
100590
99972.3
99595.2
98822.7
98427.7
97443.6
97048.8
95769.8
95409.3
93712.1
93445.8
91145.9
91076.8
87894.9
88196.6
83701.1
84663.3
78179.1
80277.5
70733.9
74766.2
60474.1
67852.7
46187
59423.7
26051.1
49145.8
-4348.06
34379.9
-56213.5
10640
-149113
-12839.7
-75636.6
3046.57
-34084.6
15654.2
-7229.24
24078.3
10594.4
30917.8
23879.6
37458.4
34311.8
43513.7
42598.8
48979.3
49299.9
53828.6
54751.6
58025
59174.2
61589.2
62770
64592.7
65710.7
67111.4
68128.1
69219.8
70136.2
70998.2
71840.9
72528.3
73333.9
73875.4
74681
75074
75918.3
76129.6
77067.9
77029.2
78160.1
77747.1
79254.1
78228.4
80462.1
78360.4
106379
106234
106133
105901
105744
105473
105263
104970
104729
104441
104207
103942
103726
103473
103263
102992
102762
102435
102161
101752
101436
100935
100585
99966.5
99589.9
98816.2
98422
97436.3
97042.6
95761.3
95402.6
93702.2
93438.4
91134.2
91068.7
87880.8
88187.6
83684
84653.3
78158.2
80266.3
70708.6
74754.2
60444.2
67839.8
46151.6
59406.5
26005.6
49114.6
-4404.61
34333.5
-56216.1
10647.6
-148641
-12705.2
-75609.7
3068.24
-34095.7
15661.2
-7240.81
24081.8
10581.3
30917
23866.5
37455.9
34300.3
43510.4
42588.9
48975.7
49292.1
53825.9
54746.2
58023.4
59170.9
61588.7
62768.4
64593.1
65710.4
67112.4
68128.7
69221
70137.4
70999.3
71842.3
72529.2
73335.6
73876
74683.2
75074.5
75921.4
76129.8
77072.1
77028.8
78165.9
77745.5
79261.9
78224.8
80471.6
78354.5
106362
106219
106118
105889
105733
105464
105255
104964
104724
104437
104204
103940
103724
103472
103262
102990
102759
102432
102157
101748
101432
100930
100580
99960.9
99584.7
98809.9
98416.3
97429
97036.5
95753
95395.9
93692.4
93431.1
91122.6
91060.7
87866.9
88178.8
83667.1
84643.4
78137.5
80255.3
70683.6
74742.4
60414.6
67827.2
46116.5
59389.5
25960.4
49083.8
-4460.53
34288
-56217.7
10655.9
-148172
-12571.8
-75582.5
3089.89
-34106.7
15668.2
-7252.3
24085.4
10568.5
30916.6
23853.6
37453.7
34289
43507.3
42579.2
48972.5
49284.5
53823.3
54741
58022.1
59167.9
61588.5
62767.1
64593.7
65710.4
67113.7
68129.7
69222.5
70138.9
71000.8
71843.9
72530.3
73337.5
73876.9
74685.7
75075.3
75924.8
76130.2
77076.6
77028.6
78171.8
77744
79269.7
78221.2
80481.2
78348.6
106345
106204
106104
105877
105722
105455
105247
104957
104719
104433
104201
103937
103723
103470
103260
102988
102756
102428
102153
101743
101427
100924
100575
99955.3
99579.6
98803.6
98410.8
97421.9
97030.4
95744.7
95389.3
93682.7
93423.8
91111.1
91052.7
87853
88169.9
83650.2
84633.6
78117
80244.5
70658.7
74730.7
60385.3
67814.9
46081.8
59372.9
25915.7
49053.4
-4515.79
34243.4
-56218.2
10664.7
-147707
-12439.6
-75555
3111.52
-34117.7
15675.2
-7263.71
24089.1
10555.9
30916.4
23841
37451.8
34278
43504.5
42569.8
48969.4
49277.1
53821.1
54736
58021.1
59165.2
61588.6
62766.1
64594.7
65710.8
67115.3
68131
69224.4
70140.6
71002.4
71845.9
72531.6
73339.7
73878
74688.4
75076.2
75928.3
76130.8
77081.2
77028.4
78177.8
77742.4
79277.5
78217.6
80490.6
78342.7
106328
106189
106090
105865
105711
105446
105239
104951
104714
104429
104198
103935
103721
103468
103258
102986
102753
102424
102149
101739
101423
100920
100571
99949.7
99574.5
98797.3
98405.2
97414.7
97024.4
95736.4
95382.7
93673
93416.6
91099.6
91044.8
87839.2
88161.2
83633.5
84623.9
78096.6
80233.7
70634
74719.3
60356.3
67802.8
46047.4
59356.6
25871.3
49023.5
-4570.38
34199.7
-56217.5
10674.2
-147245
-12308.5
-75527.2
3133.11
-34128.7
15682.2
-7275.03
24093
10543.5
30916.4
23828.8
37450.2
34267.3
43502
42560.7
48966.7
49270
53819.1
54731.3
58020.3
59162.7
61589
62765.5
64596.1
65711.5
67117.3
68132.7
69226.6
70142.7
71004.4
71848.1
72533.2
73342.1
73879.3
74691.3
75077.2
75931.9
76131.4
77085.8
77028.2
78183.8
77740.9
79285.3
78213.9
80500.1
78336.8
106311
106174
106075
105854
105700
105437
105231
104945
104708
104426
104195
103933
103719
103467
103257
102983
102751
102421
102145
101734
101418
100915
100566
99944.3
99569.5
98791.2
98399.8
97407.7
97018.5
95728.3
95376.2
93663.5
93409.5
91088.3
91037
87825.6
88152.6
83616.9
84614.3
78076.3
80223.1
70609.6
74708
60327.5
67790.9
46013.4
59340.6
25827.4
48994
-4624.28
34156.9
-56215.9
10684.3
-146786
-12178.5
-75499.2
3154.64
-34139.7
15689.1
-7286.27
24097
10531.4
30916.8
23816.8
37448.9
34257
43499.8
42551.9
48964.3
49263.2
53817.4
54726.9
58019.9
59160.5
61589.8
62765.1
64597.8
65712.7
67119.7
68134.7
69229.1
70145
71006.6
71850.5
72535
73344.7
73880.8
74694.4
75078.4
75935.8
76132.2
77090.6
77028.1
78189.9
77739.3
79293.1
78210.2
80509.4
78330.9
106295
106160
106061
105842
105689
105428
105224
104938
104703
104422
104192
103930
103718
103465
103255
102981
102748
102417
102141
101730
101414
100910
100561
99938.9
99564.5
98785.1
98394.4
97400.7
97012.6
95720.2
95369.8
93654
93402.5
91076.9
91029.2
87812
88144
83600.5
84604.7
78056.2
80212.7
70585.3
74697
60299
67779.3
45979.7
59324.9
25783.9
48965
-4677.47
34114.9
-56213.1
10694.9
-146331
-12049.6
-75471.1
3176.1
-34150.6
15696.1
-7297.43
24101.3
10519.6
30917.5
23805.3
37448
34247
43498.1
42543.4
48962.2
49256.7
53816.1
54722.8
58019.8
59158.7
61590.9
62765.2
64599.9
65714.2
67122.5
68137.1
69231.9
70147.6
71009
71853.1
72537
73347.6
73882.5
74697.7
75079.8
75939.7
76133
77095.4
77027.9
78196
77737.6
79300.8
78206.4
80518.6
78325
106278
106145
106047
105830
105679
105420
105216
104932
104698
104418
104189
103928
103716
103464
103253
102979
102745
102413
102137
101726
101410
100905
100557
99933.5
99559.6
98779
98389.1
97393.8
97006.8
95712.1
95363.4
93644.5
93395.4
91065.7
91021.5
87798.5
88135.5
83584.1
84595.3
78036.3
80202.3
70561.3
74686
60270.8
67767.9
45946.4
59309.5
25740.9
48936.4
-4729.94
34073.9
-56209.3
10706.2
-145879
-11921.9
-75442.7
3197.47
-34161.5
15703
-7308.5
24105.7
10508.1
30918.6
23794.1
37447.6
34237.5
43496.7
42535.4
48960.5
49250.6
53815.1
54719.1
58020.1
59157.3
61592.4
62765.7
64602.5
65716.1
67125.6
68139.7
69235
70150.5
71011.6
71855.9
72539.2
73350.5
73884.3
74701.1
75081.2
75943.7
76133.8
77100.3
77027.8
78202
77735.9
79308.5
78202.6
80527.8
78319.1
106262
106130
106034
105819
105668
105411
105208
104926
104693
104414
104186
103926
103714
103462
103252
102977
102742
102410
102133
101721
101406
100900
100552
99928.2
99554.8
98773
98383.8
97386.9
97001
95704.2
95357.1
93635.1
93388.5
91054.6
91013.9
87785.1
88127.1
83567.8
84586
78016.5
80192.1
70537.4
74675.3
60242.8
67756.8
45913.4
59294.5
25698.3
48908.3
-4781.68
34033.8
-56204.5
10717.9
-145430
-11795.2
-75414.1
3218.74
-34172.5
15709.9
-7319.48
24110.2
10496.9
30920
23783.4
37447.5
34228.3
43495.8
42527.7
48959.3
49244.9
53814.6
54715.8
58020.8
59156.2
61594.4
62766.6
64605.5
65718.4
67129.1
68142.7
69238.3
70153.5
71014.4
71858.9
72541.5
73353.6
73886.3
74704.6
75082.8
75947.8
76134.7
77105.2
77027.6
78208
77734.1
79316.1
78198.7
80536.8
78313.2
106246
106116
106020
105807
105657
105402
105201
104920
104688
104410
104183
103924
103712
103460
103250
102974
102739
102406
102129
101717
101402
100895
100548
99923
99550
98767.1
98378.6
97380.1
96995.3
95696.3
95350.8
93625.8
93381.6
91043.5
91006.3
87771.8
88118.7
83551.7
84576.7
77996.8
80182
70513.7
74664.7
60215.2
67745.8
45880.8
59279.7
25656.1
48880.7
-4832.67
33994.6
-56198.6
10730.2
-144984
-11669.7
-75385.5
3239.9
-34183.4
15716.7
-7330.37
24115
10486
30921.8
23773.1
37448
34219.7
43495.4
42520.6
48958.5
49239.6
53814.5
54712.9
58022
59155.6
61596.8
62767.9
64608.8
65721
67132.9
68145.9
69241.8
70156.7
71017.3
71862
72543.9
73356.9
73888.3
74708.2
75084.3
75951.9
76135.5
77110
77027.3
78214
77732.2
79323.6
78194.7
80545.7
78307.2
106230
106102
106006
105796
105647
105393
105193
104914
104684
104406
104180
103922
103711
103459
103248
102972
102737
102403
102126
101713
101398
100891
100544
99917.8
99545.2
98761.2
98373.4
97373.3
96989.6
95688.4
95344.6
93616.6
93374.7
91032.5
90998.8
87758.5
88110.4
83535.6
84567.6
77977.3
80172
70490.2
74654.3
60187.7
67735.1
45848.5
59265.3
25614.4
48853.6
-4882.92
33956.3
-56191.8
10743
-144542
-11545.3
-75356.6
3260.94
-34194.4
15723.6
-7341.17
24120
10475.5
30924.1
23763.4
37449
34211.6
43495.5
42513.9
48958.3
49234.8
53814.9
54710.4
58023.6
59155.4
61599.6
62769.6
64612.6
65724
67137
68149.4
69245.5
70160
71020.4
71865.2
72546.4
73360.2
73890.4
74711.8
75085.9
75956
76136.3
77114.9
77026.9
78219.9
77730.2
79331
78190.7
80554.4
78301.3
106214
106088
105993
105784
105636
105385
105186
104908
104679
104403
104177
103919
103709
103457
103247
102970
102734
102399
102122
101709
101394
100886
100539
99912.7
99540.5
98755.4
98368.2
97366.6
96984
95680.6
95338.4
93607.4
93367.9
91021.5
90991.3
87745.4
88102.2
83519.7
84558.5
77957.9
80162.1
70467
74644.1
60160.6
67724.7
45816.6
59251.2
25573.2
48827
-4932.4
33918.9
-56184
10756.3
-144103
-11422
-75327.7
3281.85
-34205.3
15730.3
-7351.87
24125.2
10465.3
30926.9
23754.2
37450.6
34204
43496.2
42507.8
48958.6
49230.6
53815.8
54708.4
58025.7
59155.7
61602.9
62771.8
64616.8
65727.4
67141.3
68153
69249.4
70163.5
71023.5
71868.5
72549
73363.6
73892.5
74715.5
75087.5
75960.2
76137.1
77119.6
77026.5
78225.6
77728.1
79338.3
78186.5
80563.1
78295.3
106198
106073
105979
105773
105626
105376
105178
104902
104674
104399
104175
103917
103707
103456
103245
102968
102731
102396
102118
101705
101390
100882
100535
99907.6
99535.9
98749.7
98363.2
97360
96978.4
95672.8
95332.2
93598.2
93361.2
91010.7
90983.9
87732.3
88094
83503.8
84549.5
77938.7
80152.4
70443.9
74634
60133.6
67714.4
45784.9
59237.4
25532.4
48800.8
-4981.13
33882.4
-56175.2
10770.1
-143667
-11299.7
-75298.6
3302.62
-34216.3
15737.1
-7362.46
24130.6
10455.6
30930.1
23745.5
37452.7
34197.1
43497.5
42502.2
48959.4
49226.8
53817.2
54707
58028.3
59156.5
61606.7
62774.4
64621.4
65731
67145.9
68156.8
69253.3
70167
71026.7
71871.8
72551.6
73367
73894.7
74719.2
75089.1
75964.3
76137.8
77124.3
77025.9
78231.3
77725.9
79345.4
78182.3
80571.6
78289.3
106183
106060
105966
105762
105615
105367
105171
104896
104669
104395
104172
103915
103706
103454
103243
102965
102728
102392
102115
101700
101386
100877
100531
99902.6
99531.3
98743.9
98358.1
97353.4
96972.8
95665.1
95326.1
93589.2
93354.5
90999.9
90976.5
87719.3
88085.9
83488.1
84540.6
77919.6
80142.7
70421
74624
60107
67704.3
45753.7
59223.8
25492
48775.2
-5029.1
33846.7
-56165.4
10784.3
-143234
-11178.6
-75269.4
3323.25
-34227.3
15743.8
-7372.95
24136.2
10446.2
30933.9
23737.4
37455.5
34190.8
43499.5
42497.3
48960.9
49223.6
53819.2
54706
58031.4
59157.7
61610.9
62777.3
64626.2
65734.9
67150.6
68160.7
69257.3
70170.5
71029.9
71875.2
72554.3
73370.5
73896.9
74722.9
75090.7
75968.3
76138.4
77129
77025.3
78236.9
77723.6
79352.5
78178
80579.9
78283.3
106167
106046
105953
105750
105605
105359
105163
104890
104664
104391
104169
103913
103704
103453
103242
102963
102726
102389
102111
101696
101382
100873
100527
99897.6
99526.7
98738.2
98353.1
97346.8
96967.4
95657.5
95320.1
93580.1
93347.8
90989.1
90969.2
87706.4
88077.9
83472.5
84531.8
77900.6
80133.2
70398.2
74614.2
60080.6
67694.5
45722.7
59210.6
25452.1
48750
-5076.31
33812
-56154.7
10799
-142804
-11058.5
-75240.1
3343.72
-34238.4
15750.4
-7383.33
24142.1
10437.3
30938.2
23730
37459
34185.1
43502.1
42493
48963
49221
53821.8
54705.6
58035
59159.4
61615.5
62780.7
64631.4
65738.9
67155.4
68164.6
69261.3
70174
71033.1
71878.5
72556.9
73373.9
73899
74726.6
75092.1
75972.3
76138.9
77133.5
77024.5
78242.4
77721.1
79359.4
78173.5
80588.1
78277.4
106152
106032
105940
105739
105595
105350
105156
104884
104659
104388
104166
103911
103703
103451
103240
102961
102723
102385
102108
101692
101378
100868
100522
99892.7
99522.2
98732.6
98348.1
97340.3
96961.9
95649.9
95314.1
93571.2
93341.2
90978.4
90961.9
87693.6
88069.9
83456.9
84523
77881.7
80123.7
70375.7
74604.6
60054.4
67684.8
45692.1
59197.7
25412.7
48725.4
-5122.75
33778.1
-56143.2
10814.1
-142377
-10939.5
-75210.7
3364.05
-34249.4
15757
-7393.6
24148.3
10428.8
30943.1
23723.2
37463.2
34180.2
43505.4
42489.3
48965.8
49219
53825
54705.7
58039.1
59161.6
61620.6
62784.3
64636.8
65743.1
67160.3
68168.6
69265.2
70177.5
71036.2
71881.8
72559.5
73377.3
73901.1
74730.2
75093.5
75976.2
76139.3
77137.9
77023.5
78247.7
77718.5
79366.2
78169.1
80596.2
78271.4
106137
106018
105927
105728
105585
105342
105148
104878
104655
104384
104163
103909
103701
103450
103238
102959
102720
102382
102104
101689
101374
100864
100518
99887.8
99517.7
98727
98343.2
97333.9
96956.5
95642.3
95308.1
93562.3
93334.6
90967.8
90954.7
87680.8
88062
83441.5
84514.4
77863
80114.4
70353.3
74595.1
60028.4
67675.4
45661.8
59185.1
25373.7
48701.3
-5168.45
33745.1
-56130.7
10829.6
-141953
-10821.5
-75181.3
3384.22
-34260.5
15763.6
-7403.75
24154.7
10420.8
30948.6
23717.1
37468.1
34176
43509.5
42486.4
48969.2
49217.6
53828.7
54706.3
58043.7
59164.1
61626
62788.2
64642.3
65747.4
67165.3
68172.5
69269.1
70180.9
71039.3
71885.1
72562
73380.7
73903.1
74733.7
75094.8
75980
76139.6
77142.2
77022.5
78253
77715.8
79372.8
78164.5
80604.1
78265.4
106122
106005
105914
105717
105574
105334
105141
104872
104650
104380
104161
103907
103699
103448
103237
102957
102718
102379
102101
101685
101370
100860
100514
99882.9
99513.2
98721.5
98338.3
97327.5
96951.1
95634.8
95302.2
93553.4
93328.1
90957.3
90947.5
87668.1
88054.1
83426.1
84505.8
77844.4
80105.2
70331.1
74585.7
60002.7
67666.1
45631.8
59172.7
25335.1
48677.6
-5213.39
33712.9
-56117.4
10845.5
-141532
-10704.6
-75151.7
3404.23
-34271.6
15770.2
-7413.77
24161.3
10413.3
30954.7
23711.8
37473.8
34172.5
43514.3
42484.1
48973.3
49216.8
53833
54707.4
58048.8
59167.1
61631.7
62792.3
64648
65751.8
67170.2
68176.3
69272.9
70184.2
71042.3
71888.2
72564.5
73383.9
73905.1
74737.2
75096
75983.7
76139.7
77146.4
77021.3
78258.1
77713
79379.3
78159.8
80611.9
78259.4
106107
105991
105901
105706
105564
105325
105134
104867
104645
104377
104158
103905
103698
103446
103235
102954
102715
102375
102097
101681
101367
100855
100510
99878.1
99508.8
98716
98333.5
97321.1
96945.8
95627.4
95296.3
93544.6
93321.6
90946.8
90940.4
87655.5
88046.3
83410.9
84497.2
77826
80096
70309.1
74576.4
59977.3
67657
45602.1
59160.6
25297
48654.4
-5257.59
33681.6
-56103.2
10861.8
-141115
-10588.6
-75122.1
3424.08
-34282.7
15776.7
-7423.67
24168.3
10406.2
30961.4
23707.1
37480.2
34169.7
43519.8
42482.5
48978
49216.6
53837.8
54709
58054.2
59170.3
61637.6
62796.6
64653.8
65756.1
67175
68180
69276.6
70187.4
71045.2
71891.3
72566.9
73387.1
73906.9
74740.5
75097.1
75987.3
76139.8
77150.4
77020
78263
77710
79385.7
78155.1
80619.5
78253.4
106092
105978
105888
105696
105554
105317
105127
104861
104640
104373
104155
103903
103696
103445
103234
102952
102712
102372
102094
101677
101363
100851
100506
99873.3
99504.4
98710.5
98328.7
97314.7
96940.4
95620
95290.4
93535.8
93315.2
90936.3
90933.3
87643
88038.6
83395.8
84488.8
77807.6
80087
70287.2
74567.3
59952
67648.1
45572.7
59148.8
25259.4
48631.7
-5301.05
33651
-56088.2
10878.4
-140700
-10473.7
-75092.4
3443.77
-34293.8
15783.2
-7433.44
24175.5
10399.7
30968.8
23703.2
37487.4
34167.7
43526
42481.5
48983.3
49216.9
53843.2
54711
58060.1
59173.9
61643.8
62801
64659.5
65760.3
67179.6
68183.6
69280.1
70190.5
71047.9
71894.2
72569.1
73390.2
73908.6
74743.8
75098.1
75990.7
76139.6
77154.3
77018.5
78267.9
77706.9
79392
78150.3
80627
78247.5
106077
105964
105875
105685
105545
105309
105120
104855
104636
104370
104153
103901
103695
103443
103232
102950
102710
102369
102091
101673
101359
100847
100502
99868.6
99500.1
98705.1
98323.9
97308.5
96935.2
95612.6
95284.6
93527.1
93308.8
90926
90926.3
87630.5
88030.9
83380.7
84480.4
77789.4
80078
70265.5
74558.3
59927
67639.4
45543.6
59137.3
25222.1
48609.5
-5343.79
33621.3
-56072.4
10895.4
-140288
-10359.8
-75062.7
3463.3
-34305
15789.7
-7443.08
24183.1
10393.6
30976.9
23700
37495.3
34166.4
43532.9
42481.2
48989.3
49217.8
53849
54713.4
58066.3
59177.7
61650.1
62805.4
64665.2
65764.4
67184.1
68187
69283.4
70193.4
71050.4
71897
72571.2
73393.1
73910.2
74746.9
75098.9
75994.1
76139.4
77158.1
77016.9
78272.6
77703.8
79398.1
78145.5
80634.4
78241.5
106062
105951
105863
105674
105535
105301
105112
104849
104631
104366
104150
103898
103693
103442
103230
102948
102707
102366
102087
101669
101356
100843
100498
99863.9
99495.8
98699.7
98319.1
97302.2
96929.9
95605.3
95278.8
93518.5
93302.4
90915.7
90919.3
87618.1
88023.2
83365.7
84472.1
77771.3
80069.2
70244
74549.5
59902.1
67630.8
45514.8
59126
25185.4
48587.8
-5385.8
33592.3
-56055.9
10912.7
-139879
-10246.9
-75032.9
3482.68
-34316.1
15796.1
-7452.57
24190.9
10388.1
30985.6
23697.6
37504
34165.8
43540.4
42481.5
48995.8
49219.2
53855.3
54716.2
58072.7
59181.6
61656.5
62809.8
64670.9
65768.3
67188.4
68190.1
69286.5
70196
71052.8
71899.7
72573.2
73396
73911.7
74749.9
75099.6
75997.3
76139
77161.8
77015.2
78277.2
77700.5
79404.1
78140.6
80641.6
78235.6
106048
105938
105850
105664
105525
105293
105105
104844
104627
104363
104147
103896
103691
103440
103229
102946
102705
102362
102084
101666
101352
100839
100494
99859.2
99491.5
98694.3
98314.4
97296
96924.7
95598
95273.1
93509.9
93296.1
90905.4
90912.4
87605.8
88015.6
83350.8
84463.8
77753.3
80060.4
70222.6
74540.7
59877.5
67622.5
45486.3
59115
25149
48566.5
-5427.11
33564.1
-56038.6
10930.3
-139474
-10134.9
-75003
3501.9
-34327.3
15802.6
-7461.93
24199
10383.1
30994.9
23695.8
37513.4
34165.9
43548.7
42482.4
49002.9
49221
53861.9
54719.3
58079.4
59185.7
61662.9
62814.1
64676.3
65772.1
67192.5
68193
69289.4
70198.5
71055.1
71902.2
72575
73398.6
73913
74752.7
75100.1
76000.3
76138.4
77165.3
77013.3
78281.6
77697.1
79410
78135.6
80648.7
78229.7
106034
105925
105838
105653
105515
105285
105098
104838
104622
104359
104145
103894
103690
103439
103227
102944
102702
102359
102081
101662
101348
100835
100490
99854.5
99487.2
98689
98309.7
97289.8
96919.5
95590.8
95267.4
93501.3
93289.8
90895.2
90905.5
87593.6
88008.1
83336.1
84455.6
77735.5
80051.7
70201.3
74532.1
59853.1
67614.2
45458.1
59104.2
25113.1
48545.7
-5467.72
33536.6
-56020.5
10948.2
-139071
-10023.9
-74973.1
3520.97
-34338.4
15809
-7471.14
24207.4
10378.6
31005
23694.8
37523.4
34166.6
43557.4
42483.8
49010.4
49223.3
53868.9
54722.6
58086.2
59189.9
61669.2
62818.3
64681.6
65775.6
67196.3
68195.7
69292.1
70200.8
71057.1
71904.5
72576.7
73401.2
73914.2
74755.5
75100.5
76003.2
76137.8
77168.7
77011.3
78285.9
77693.7
79415.7
78130.6
80655.7
78223.9
106019
105912
105826
105642
105505
105277
105091
104832
104618
104356
104142
103892
103688
103437
103225
102941
102700
102356
102078
101658
101345
100830
100487
99849.9
99483
98683.7
98305.1
97283.7
96914.4
95583.6
95261.7
93492.8
93283.6
90885.1
90898.6
87581.4
88000.6
83321.4
84447.5
77717.7
80043.1
70180.3
74523.6
59828.9
67606.1
45430.1
59093.7
25077.6
48525.3
-5507.65
33509.9
-56001.8
10966.4
-138671
-9913.88
-74943.1
3539.89
-34349.6
15815.4
-7480.2
24216.1
10374.6
31015.6
23694.5
37534.1
34167.9
43566.8
42485.7
49018.4
49225.9
53876.2
54726.1
58093.1
59194
61675.5
62822.3
64686.6
65778.8
67199.9
68198.1
69294.5
70202.9
71058.9
71906.7
72578.2
73403.6
73915.2
74758
75100.8
76006
76136.9
77171.9
77009.2
78290.2
77690.1
79421.4
78125.6
80662.6
78218
106005
105900
105814
105632
105496
105269
105084
104827
104613
104352
104139
103891
103687
103436
103224
102939
102697
102353
102074
101655
101341
100826
100483
99845.4
99478.8
98678.4
98300.5
97277.6
96909.3
95576.4
95256
93484.3
93277.3
90875
90891.8
87569.3
87993.2
83306.7
84439.4
77700.1
80034.6
70159.4
74515.2
59804.9
67598.2
45402.5
59083.4
25042.5
48505.4
-5546.9
33483.8
-55982.4
10984.9
-138273
-9804.74
-74913
3558.68
-34360.7
15821.8
-7489.12
24225.1
10371.1
31026.9
23694.8
37545.4
34169.7
43576.5
42488
49026.7
49228.8
53883.7
54729.7
58100.1
59198
61681.6
62826.1
64691.4
65781.7
67203.1
68200.2
69296.6
70204.7
71060.6
71908.6
72579.5
73405.8
73916.1
74760.5
75100.9
76008.7
76136
77175.1
77007
78294.3
77686.5
79426.9
78120.5
80669.3
78212.2
105991
105887
105801
105622
105486
105261
105077
104821
104609
104349
104137
103889
103685
103434
103222
102937
102694
102350
102071
101651
101338
100822
100479
99840.8
99474.7
98673.2
98295.9
97271.5
96904.2
95569.3
95250.4
93475.9
93271.2
90864.9
90885
87557.2
87985.8
83292.2
84431.4
77682.5
80026.1
70138.6
74506.9
59781.1
67590.4
45375.1
59073.3
25007.8
48485.9
-5585.5
33458.5
-55962.3
11003.6
-137879
-9696.52
-74882.9
3577.32
-34371.8
15828.2
-7497.88
24234.4
10368.1
31038.7
23695.7
37557.2
34172
43586.7
42490.7
49035.3
49231.9
53891.3
54733.4
58107
59202
61687.5
62829.6
64695.8
65784.4
67206
68202.1
69298.5
70206.3
71062
71910.4
72580.7
73407.9
73916.9
74762.8
75100.9
76011.2
76134.9
77178.1
77004.7
78298.3
77682.7
79432.3
78115.4
80676
78206.4
105977
105874
105789
105611
105477
105253
105071
104816
104604
104346
104134
103887
103684
103433
103221
102935
102692
102347
102068
101648
101334
100818
100475
99836.3
99470.5
98668
98291.3
97265.4
96899.1
95562.2
95244.8
93467.5
93265
90855
90878.3
87545.3
87978.4
83277.8
84423.5
77665.1
80017.8
70118
74498.7
59757.5
67582.8
45347.9
59063.5
24973.5
48466.8
-5623.45
33433.8
-55941.6
11022.6
-137488
-9589.19
-74852.7
3595.84
-34382.9
15834.7
-7506.48
24243.9
10365.5
31051.1
23697.1
37569.5
34174.6
43597.3
42493.7
49044.1
49235.1
53899
54737.1
58113.8
59205.8
61693.2
62832.9
64699.9
65786.6
67208.6
68203.6
69300.2
70207.7
71063.2
71912.1
72581.7
73409.8
73917.5
74764.9
75100.7
76013.6
76133.8
77181
77002.3
78302.2
77678.9
79437.6
78110.3
80682.5
78200.7
105964
105862
105777
105601
105467
105245
105064
104810
104600
104342
104132
103885
103682
103431
103219
102933
102690
102344
102065
101644
101331
100814
100472
99831.8
99466.4
98662.9