/*--------------------------------*- C++ -*----------------------------------*\
| =========                 |                                                 |
| \\      /  F ield         | OpenFOAM: The Open Source CFD Toolbox           |
|  \\    /   O peration     | Version:  2412                                  |
|   \\  /    A nd           | Website:  www.openfoam.com                      |
|    \\/     M anipulation  |                                                 |
\*---------------------------------------------------------------------------*/
FoamFile
{
    version     2.0;
    format      ascii;
    arch        "LSB;label=32;scalar=64";
    class       surfaceScalarField;
    location    "0.8";
    object      phi;
}
// * * * * * * * * * * * * * * * * * * * * * * * * * * * * * * * * * * * * * //

dimensions      [0 3 -1 0 0 0 0];

oriented        oriented;

internalField   nonuniform List<scalar> 
25926
(
0.00749532
-0.0252296
0.00745278
-0.0204498
0.00744282
-0.016262
0.00745228
-0.0131725
0.00747354
-0.0106533
0.00749593
-0.00855627
0.00750916
-0.00620743
0.00750566
-0.00344078
0.00748128
-0.000255951
0.00743688
0.00309666
0.00737606
0.00629014
0.00730519
0.00909235
0.00723206
0.0112627
0.0071672
0.0126976
0.00712278
0.0132044
0.00710858
0.0127805
0.00712363
0.0114999
0.0071551
0.00993847
0.00718729
0.00842576
0.00721295
0.0073509
0.00723217
0.0064728
0.00724825
0.00590089
0.00726241
0.00525384
0.00727609
0.00488399
0.00728832
0.00429102
0.00730022
0.00403672
0.00731021
0.00344313
0.00732004
0.00330032
0.00732743
0.00264929
0.00733521
0.0026652
0.00734003
0.00190934
0.00734604
0.00209982
0.00734837
0.00117666
0.00735307
0.00162126
0.007353
0.000461695
0.00735679
0.00123391
0.00735412
-0.00028334
0.00735736
0.000958118
0.00735166
-0.0010895
0.00735411
0.000746193
0.00734306
-0.00194855
0.00734193
0.000827952
0.00732156
-0.0023435
0.00731641
0.0019928
0.00729082
-0.00136344
0.0072941
0.00469934
0.00728476
0.000470769
0.00732531
0.00607064
0.00735789
-0.00136315
0.00743376
-0.00123273
0.00748796
-0.0116618
0.0075684
-0.0327572
0.00760781
-0.0613746
0.00767733
0.0180513
0.00770126
0.0474292
0.00775194
0.0294175
0.00777703
0.0107848
0.00782318
0.00873211
0.00786414
-0.000872681
0.00790396
-0.00115114
0.00792093
-0.00652989
0.00791894
-0.00379599
0.00789981
-0.00541418
0.0078733
-0.00193058
0.0078471
-0.0026301
0.00782132
-3.46321e-05
0.00780046
-0.000581578
0.00777818
0.00121749
0.00775962
0.000736947
0.00773831
0.00183031
0.00772062
0.00121377
0.00770091
0.00156798
0.00768516
0.000719622
0.00766861
0.000526882
0.00765643
-0.000426829
0.00764543
-0.000889847
-0.00177734
0.00749495
-0.0251488
0.00745173
-0.0204066
0.00744084
-0.0162511
0.00744928
-0.013181
0.00746953
-0.0106736
0.00749095
-0.00857769
0.00750337
-0.00621985
0.0074993
-0.00343671
0.00747466
-0.000231305
0.00743035
0.00314097
0.00736998
0.00635051
0.00729992
0.0091624
0.00722804
0.0113346
0.00716491
0.0127607
0.00712263
0.0132467
0.00711067
0.0127925
0.0071274
0.0114832
0.00715962
0.00990626
0.00719182
0.00839356
0.00721724
0.00732548
0.00723627
0.00645377
0.00725227
0.00588488
0.0072664
0.00523971
0.00728007
0.00487032
0.00729228
0.00427882
0.00730416
0.00402484
0.00731412
0.00343317
0.00732391
0.00329053
0.00733128
0.00264192
0.00733903
0.00265745
0.00734383
0.00190454
0.00734982
0.00209383
0.00735211
0.00117436
0.00735677
0.0016166
0.00735666
0.000461807
0.0073604
0.00123018
0.00735766
-0.000280598
0.00736082
0.000954958
0.00735501
-0.00108369
0.00735733
0.000743879
0.00734613
-0.00193736
0.00734486
0.000829226
0.00732446
-0.00232311
0.00731943
0.00199783
0.00729424
-0.00133825
0.00729814
0.00469544
0.00728965
0.000479257
0.00733079
0.0060295
0.00736328
-0.00139564
0.00743811
-0.00130756
0.00749094
-0.0117146
0.00756898
-0.0328353
0.00760562
-0.0614112
0.00767686
0.0179801
0.00770447
0.0474016
0.00775669
0.0293653
0.00778159
0.0107599
0.00782643
0.00868727
0.0078648
-0.000911049
0.00790146
-0.0011878
0.00791493
-0.00654336
0.00791007
-0.00379114
0.00788871
-0.00539281
0.00786089
-0.00190276
0.00783391
-0.00260311
0.00780781
-8.54073e-06
0.00778684
-0.000560604
0.00776457
0.00123975
0.00774612
0.000755404
0.00772499
0.00185144
0.00770763
0.00123114
0.00768838
0.00158723
0.00767331
0.000734696
0.00765763
0.000542569
0.0076465
-0.000415707
0.00763671
-0.000880049
-0.00177325
0.0074946
-0.0250677
0.00745071
-0.0203627
0.00743889
-0.0162393
0.00744634
-0.0131884
0.00746559
-0.0106928
0.00748605
-0.00859815
0.00749766
-0.00623146
0.00749304
-0.00343208
0.00746815
-0.000206415
0.00742394
0.00318518
0.00736404
0.00641041
0.00729483
0.00923162
0.00722421
0.0114052
0.00716282
0.0128221
0.0071227
0.0132868
0.00711292
0.0128023
0.00713126
0.0114648
0.00716414
0.00987337
0.00719631
0.0083614
0.00722148
0.00730031
0.00724033
0.00643492
0.00725627
0.00586894
0.00727038
0.0052256
0.00728405
0.00485665
0.00729623
0.00426663
0.00730809
0.00401297
0.00731802
0.00342325
0.0073278
0.00328075
0.00733514
0.00263458
0.00734287
0.00264972
0.00734764
0.00189977
0.00735361
0.00208787
0.00735588
0.00117209
0.0073605
0.00161198
0.00736035
0.000461961
0.00736403
0.0012265
0.00736123
-0.000277794
0.0073643
0.000951879
0.0073584
-0.00107779
0.00736059
0.000741695
0.00734925
-0.00192602
0.00734785
0.000830631
0.00732743
-0.00230269
0.00732253
0.00200273
0.00729774
-0.00131346
0.00730224
0.00469094
0.00729458
0.000486924
0.00733626
0.00598782
0.00736862
-0.001428
0.00744241
-0.00138136
0.0074939
-0.0117661
0.00756957
-0.0329109
0.00760344
-0.0614451
0.00767632
0.0179072
0.00770752
0.0473704
0.00776121
0.0293116
0.00778586
0.0107353
0.00782936
0.00864377
0.00786513
-0.000946817
0.00789867
-0.00122133
0.00790871
-0.0065534
0.00790109
-0.00378352
0.00787758
-0.00536931
0.00784855
-0.00187372
0.00782086
-0.00257543
0.00779452
1.77995e-05
0.00777347
-0.000539561
0.00775127
0.00126195
0.00773296
0.000773718
0.00771207
0.00187233
0.00769507
0.00124813
0.00767636
0.00160594
0.00766201
0.00074904
0.00764725
0.000557333
0.00763724
-0.000405695
0.00762868
-0.000871484
-0.00177034
0.00749425
-0.0249862
0.0074497
-0.0203181
0.00743698
-0.0162266
0.00744344
-0.0131949
0.0074617
-0.0107111
0.00748121
-0.00861766
0.00749204
-0.00624229
0.00748686
-0.00342691
0.00746175
-0.000181297
0.00741766
0.00322927
0.00735824
0.00646983
0.00728989
0.00929996
0.00722057
0.0114746
0.00716093
0.0128818
0.00712296
0.0133248
0.00711532
0.0128099
0.00713518
0.011445
0.00716867
0.00983988
0.00720077
0.0083293
0.00722569
0.00727539
0.00724438
0.00641623
0.00726026
0.00585306
0.00727435
0.0052115
0.00728801
0.004843
0.00730018
0.00425446
0.00731203
0.00400113
0.00732193
0.00341334
0.00733168
0.003271
0.00733901
0.00262726
0.00734672
0.00264201
0.00735148
0.00189501
0.00735742
0.00208193
0.00735966
0.00116984
0.00736426
0.00160738
0.00736406
0.000462154
0.00736769
0.00122287
0.00736483
-0.000274929
0.00736783
0.000948879
0.00736183
-0.0010718
0.00736389
0.000739638
0.00735242
-0.00191455
0.00735089
0.000832159
0.00733046
-0.00228226
0.00732569
0.00200749
0.0073013
-0.00128907
0.00730641
0.00468584
0.00729953
0.000493795
0.00734172
0.00594563
0.00737392
-0.0014602
0.00744667
-0.0014541
0.00749685
-0.0118163
0.00757017
-0.0329843
0.00760126
-0.0614762
0.00767573
0.0178327
0.00771043
0.0473357
0.0077655
0.0292565
0.00778987
0.0107109
0.007832
0.00860165
0.00786517
-0.000979985
0.00789561
-0.00125178
0.00790229
-0.00656008
0.00789199
-0.00377323
0.00786644
-0.00534377
0.00783627
-0.00184355
0.00780795
-0.00254711
0.00778143
4.43263e-05
0.00776036
-0.000518494
0.00773827
0.00128404
0.00772014
0.000791852
0.00769953
0.00189294
0.00768295
0.00126471
0.00766483
0.00162407
0.00765127
0.000762597
0.00763749
0.000571112
0.00762863
-0.000396838
0.00762133
-0.00086418
-0.00176861
0.00749391
-0.0249043
0.00744871
-0.0202729
0.0074351
-0.016213
0.00744059
-0.0132004
0.00745786
-0.0107283
0.00747644
-0.00863624
0.00748649
-0.00625235
0.00748078
-0.0034212
0.00745544
-0.000155961
0.00741149
0.00327322
0.00735257
0.00652875
0.00728511
0.00936743
0.00721709
0.0115426
0.00715923
0.0129396
0.00712339
0.0133606
0.00711785
0.0128155
0.00713917
0.0114236
0.0071732
0.00980584
0.0072052
0.0082973
0.00722987
0.00725072
0.0072484
0.00639771
0.00726423
0.00583723
0.00727831
0.00519742
0.00729197
0.00482935
0.00730413
0.0042423
0.00731596
0.0039893
0.00732584
0.00340345
0.00733558
0.00326127
0.00734288
0.00261995
0.00735058
0.00263431
0.00735532
0.00189027
0.00736125
0.002076
0.00736347
0.00116762
0.00736803
0.00160282
0.0073678
0.000462384
0.00737138
0.0012193
0.00736846
-0.000272007
0.00737138
0.000945954
0.0073653
-0.00106572
0.00736723
0.000737702
0.00735563
-0.00190295
0.00735399
0.000833803
0.00733355
-0.00226182
0.00732892
0.00201212
0.00730493
-0.00126508
0.00731062
0.00468015
0.00730452
0.000499895
0.00734717
0.00590298
0.00737917
-0.00149221
0.00745088
-0.00152581
0.00749978
-0.0118652
0.00757077
-0.0330553
0.00759909
-0.0615045
0.00767508
0.0177567
0.00771319
0.0472976
0.00776958
0.0292001
0.00779361
0.0106869
0.00783434
0.00856091
0.00786492
-0.00101056
0.00789231
-0.00127917
0.00789569
-0.00656346
0.0078828
-0.00376033
0.00785531
-0.00531628
0.00782409
-0.00181233
0.00779521
-0.00251824
0.00776856
7.09764e-05
0.00774752
-0.000497451
0.00772559
0.00130597
0.00770768
0.000809764
0.0076874
0.00191321
0.0076713
0.00128081
0.00765382
0.00164155
0.00764111
0.000775309
0.00762837
0.000583846
0.00762071
-0.000389174
0.00761469
-0.000858154
0.00761411
-0.00176803
0.00761628
-0.00230874
0.00762237
-0.00300983
0.00762866
-0.00343064
0.00763302
-0.00383832
0.00763244
-0.00405303
0.0076252
-0.0041005
0.00761163
-0.00410075
0.00759181
-0.00383701
0.00756825
-0.00374354
0.00754135
-0.00331147
0.00751425
-0.00329072
0.00748655
-0.00277471
0.00746091
-0.00300906
0.00743591
-0.00244124
0.00741307
-0.00300039
0.00739094
-0.00228603
0.00736856
-0.00320351
0.00734786
-0.00218451
0.00732049
-0.00344144
0.00729986
-0.0018986
0.00725619
-0.0033644
-0.000356446
0.00749358
-0.0248221
0.00744775
-0.0202271
0.00743326
-0.0161985
0.00743778
-0.0132049
0.00745408
-0.0107446
0.00747173
-0.00865388
0.00748102
-0.00626164
0.00747478
-0.00341496
0.00744924
-0.000130423
0.00740543
0.00331703
0.00734703
0.00658715
0.00728046
0.00943399
0.00721377
0.0116093
0.00715771
0.0129957
0.007124
0.0133943
0.00712051
0.012819
0.00714322
0.0114009
0.00717772
0.00977134
0.0072096
0.00826542
0.00723402
0.0072263
0.0072524
0.00637933
0.00726818
0.00582145
0.00728226
0.00518334
0.00729592
0.00481569
0.00730807
0.00423014
0.00731989
0.00397748
0.00732976
0.00339358
0.00733948
0.00325154
0.00734677
0.00261266
0.00735446
0.00262662
0.00735918
0.00188554
0.00736509
0.0020701
0.0073673
0.00116542
0.00737183
0.00159829
0.00737156
0.000462648
0.00737509
0.00121577
0.00737211
-0.00026903
0.00737497
0.000943103
0.0073688
-0.00105955
0.00737061
0.000735885
0.00735889
-0.00189122
0.00735714
0.000835557
0.0073367
-0.00224138
0.00733221
0.00201661
0.00730862
-0.00124149
0.00731488
0.00467388
0.00730953
0.000505249
0.0073526
0.00585991
0.00738438
-0.00152399
0.00745505
-0.00159647
0.0075027
-0.0119128
0.00757137
-0.0331239
0.00759692
-0.0615301
0.00767436
0.0176793
0.0077158
0.0472562
0.00777344
0.0291425
0.00779709
0.0106632
0.0078364
0.0085216
0.0078644
-0.00103856
0.00788878
-0.00130354
0.00788894
-0.00656363
0.00787354
-0.00374493
0.00784419
-0.00528693
0.00781201
-0.00178015
0.00778265
-0.00248888
0.00775594
9.76869e-05
0.00773497
-0.000476478
0.00771324
0.0013277
0.0076956
0.000827413
0.00767571
0.0019331
0.00766013
0.0012964
0.00764337
0.00165832
0.00763156
0.000787118
0.00761993
0.000595473
0.00761349
-0.000382736
0.00760876
-0.000853415
0.00760929
-0.00176856
0.00761222
-0.00231167
0.00761837
-0.00301598
0.00762399
-0.00343625
0.00762695
-0.00384128
0.00762459
-0.00405067
0.00761559
-0.0040915
0.00760053
-0.00408569
0.00757975
-0.00381623
0.00755568
-0.00371946
0.00752882
-0.00328461
0.00750207
-0.00326396
0.00747518
-0.00274782
0.0074504
-0.00298429
0.00742661
-0.00241745
0.00740474
-0.00297852
0.00738387
-0.00226516
0.00736223
-0.00318187
0.00734257
-0.00216485
0.00731552
-0.00341439
0.00729555
-0.00187863
0.00725196
-0.00332082
-0.0003196
0.00749326
-0.0247396
0.00744681
-0.0201806
0.00743144
-0.0161831
0.00743503
-0.0132085
0.00745036
-0.01076
0.00746708
-0.0086706
0.00747562
-0.00627017
0.00746887
-0.00340821
0.00744314
-0.000104692
0.00739949
0.00336068
0.00734161
0.00664502
0.00727596
0.00949964
0.00721062
0.0116746
0.00715635
0.0130499
0.00712477
0.0134259
0.00712329
0.0128204
0.00714731
0.0113769
0.00718223
0.00973642
0.00721396
0.00823369
0.00723813
0.00720213
0.00725637
0.00636109
0.00727212
0.0058057
0.0072862
0.00516926
0.00729986
0.00480203
0.00731201
0.00421799
0.00732382
0.00396567
0.00733368
0.00338372
0.00734339
0.00324183
0.00735067
0.00260538
0.00735835
0.00261895
0.00736306
0.00188083
0.00736895
0.00206421
0.00737114
0.00116323
0.00737565
0.00159378
0.00737535
0.000462946
0.00737883
0.00121229
0.0073758
-0.000266001
0.00737858
0.000940323
0.00737233
-0.0010533
0.00737403
0.000734182
0.00736219
-0.00187938
0.00736033
0.000837414
0.00733991
-0.00222095
0.00733556
0.00202096
0.00731236
-0.00121829
0.00731919
0.00466705
0.00731456
0.000509883
0.00735802
0.00581645
0.00738955
-0.00155552
0.00745918
-0.0016661
0.0075056
-0.0119593
0.00757198
-0.0331903
0.00759475
-0.0615528
0.00767358
0.0176005
0.00771826
0.0472115
0.00777708
0.0290837
0.00780032
0.01064
0.0078382
0.00848372
0.00786363
-0.00106399
0.00788504
-0.00132495
0.00788206
-0.00656066
0.00786424
-0.00372711
0.00783313
-0.00525582
0.00780008
-0.0017471
0.0077703
-0.0024591
0.00774359
0.000124395
0.00772274
-0.000455622
0.00770127
0.00134917
0.00768393
0.000844757
0.00766449
0.00195254
0.00764948
0.0013114
0.0076335
0.0016743
0.00762266
0.000797965
0.00761219
0.000605937
0.00760701
-0.000377547
0.00760355
-0.000849955
0.00760513
-0.00177013
0.00760869
-0.00231523
0.00761475
-0.00302204
0.00761953
-0.00344104
0.00762102
-0.00384277
0.00761693
-0.00404658
0.0076063
-0.00408087
0.00758994
-0.00406933
0.00756837
-0.00379466
0.00754394
-0.00369503
0.00751725
-0.00325792
0.00749095
-0.00323766
0.00746492
-0.0027218
0.00744104
-0.00296041
0.00741844
-0.00239484
0.0073975
-0.00295758
0.00737779
-0.00224545
0.00735682
-0.00316089
0.00733808
-0.00214612
0.00731128
-0.00338759
0.00729186
-0.0018592
0.00724834
-0.00327729
-0.000283926
0.00749294
-0.0246568
0.00744588
-0.0201336
0.00742966
-0.0161669
0.00743231
-0.0132111
0.00744669
-0.0107744
0.00746251
-0.00868642
0.00747029
-0.00627795
0.00746304
-0.00340096
0.00743713
-7.87796e-05
0.00739365
0.00340416
0.00733632
0.00670235
0.00727161
0.00956435
0.00720762
0.0117386
0.00715516
0.0131024
0.0071257
0.0134554
0.00712617
0.01282
0.00715143
0.0113517
0.00718672
0.00970113
0.00721828
0.00820213
0.00724221
0.0071782
0.00726033
0.00634297
0.00727605
0.00578997
0.00729013
0.00515517
0.0073038
0.00478836
0.00731595
0.00420584
0.00732776
0.00395387
0.00733761
0.00337387
0.00734731
0.00323213
0.00735458
0.00259811
0.00736225
0.00261128
0.00736695
0.00187612
0.00737283
0.00205833
0.007375
0.00116106
0.00737948
0.0015893
0.00737915
0.000463274
0.00738259
0.00120886
0.00737951
-0.000262923
0.00738222
0.00093761
0.00737589
-0.00104697
0.00737749
0.000732589
0.00736554
-0.00186743
0.00736358
0.000839367
0.00734317
-0.00220054
0.00733897
0.00202515
0.00731617
-0.00119549
0.00732355
0.00465967
0.00731961
0.000513823
0.00736342
0.00577264
0.00739467
-0.00158677
0.00746327
-0.0017347
0.0075085
-0.0120045
0.0075726
-0.0332544
0.00759259
-0.0615728
0.00767273
0.0175203
0.00772057
0.0471636
0.00778051
0.0290237
0.00780331
0.0106172
0.00783974
0.00844728
0.00786263
-0.00108687
0.00788112
-0.00134344
0.00787507
-0.00655461
0.00785492
-0.00370696
0.00782214
-0.00522303
0.0077883
-0.00171326
0.00775818
-0.00242899
0.00773154
0.000151036
0.00771085
-0.000434928
0.00768968
0.00137033
0.00767269
0.000861752
0.00765376
0.00197147
0.00763939
0.00132577
0.00762426
0.00168942
0.00761444
0.000807795
0.00760519
0.000615184
0.00760126
-0.000373621
0.00759906
-0.000847753
0.00760159
-0.00177266
0.00760566
-0.0023193
0.00761143
-0.00302782
0.00761526
-0.00344487
0.00761523
-0.00384275
0.00760948
-0.00404083
0.00759735
-0.00406875
0.00757986
-0.00405183
0.00755767
-0.00377247
0.00753303
-0.00367039
0.00750661
-0.0032315
0.00748083
-0.00321188
0.00745571
-0.00269668
0.00743274
-0.00293744
0.00741129
-0.00237339
0.00739124
-0.00293754
0.0073726
-0.00222682
0.00735222
-0.00314051
0.0073343
-0.0021282
0.00730769
-0.00336098
0.0072887
-0.00184022
0.00724523
-0.00323382
-0.000249342
0.00749264
-0.0245737
0.00744497
-0.0200859
0.00742791
-0.0161498
0.00742963
-0.0132128
0.00744307
-0.0107878
0.00745799
-0.00870134
0.00746504
-0.006285
0.0074573
-0.00339322
0.00743122
-5.27005e-05
0.00738792
0.00344746
0.00733115
0.00675913
0.00726738
0.00962812
0.00720478
0.0118012
0.00715414
0.013153
0.00712677
0.0134828
0.00712915
0.0128176
0.00715559
0.0113252
0.00719119
0.00966553
0.00722257
0.00817075
0.00724626
0.0071545
0.00726426
0.00632498
0.00727996
0.00577427
0.00729406
0.00514108
0.00730773
0.00477468
0.00731989
0.00419369
0.00733169
0.00394206
0.00734153
0.00336403
0.00735123
0.00322243
0.0073585
0.00259085
0.00736616
0.00260362
0.00737086
0.00187142
0.00737672
0.00205246
0.00737888
0.00115891
0.00738334
0.00158484
0.00738298
0.00046363
0.00738637
0.00120546
0.00738325
-0.000259799
0.0073859
0.000934963
0.00737949
-0.00104056
0.00738098
0.000731103
0.00736892
-0.00185538
0.00736688
0.000841411
0.00734649
-0.00218015
0.00734244
0.0020292
0.00732003
-0.00117308
0.00732795
0.00465175
0.00732468
0.000517093
0.0073688
0.00572851
0.00739975
-0.00161772
0.00746732
-0.00180226
0.00751139
-0.0120486
0.00757322
-0.0333162
0.00759041
-0.06159
0.00767181
0.0174389
0.00772273
0.0471127
0.00778373
0.0289627
0.00780606
0.0105948
0.00784104
0.0084123
0.00786141
-0.00110724
0.00787703
-0.00135905
0.007868
-0.00654558
0.00784561
-0.00368457
0.00781124
-0.00518866
0.0077767
-0.00167873
0.00774631
-0.0023986
0.0077198
0.000177544
0.00769932
-0.000414443
0.00767852
0.00139113
0.00766192
0.000878354
0.00764355
0.00198984
0.00762988
0.00133944
0.00761568
0.00170362
0.00760692
0.000816554
0.00759894
0.000623167
0.00759627
-0.000370955
0.00759529
-0.000846768
0.00759865
-0.00177603
0.00760306
-0.0023237
0.00760839
-0.00303315
0.00761115
-0.00344762
0.00760961
-0.0038412
0.00760227
-0.00403349
0.0075888
-0.00405528
0.00757034
-0.00403337
0.00754767
-0.00374981
0.00752293
-0.00364565
0.00749688
-0.00320545
0.00747169
-0.00318668
0.00744749
-0.00267249
0.00742543
-0.00291537
0.00740508
-0.00235304
0.00738586
-0.00291832
0.00736821
-0.00220917
0.00734834
-0.00312064
0.00733112
-0.00211098
0.00730466
-0.00333452
0.00728602
-0.00182157
0.00724259
-0.00319039
-0.000215772
0.00749234
-0.0244903
0.00744408
-0.0200377
0.00742619
-0.016132
0.007427
-0.0132137
0.00743951
-0.0108003
0.00745353
-0.00871537
0.00745986
-0.00629133
0.00745164
-0.003385
0.0074254
-2.64635e-05
0.0073823
0.00349056
0.0073261
0.00681534
0.00726329
0.00969093
0.00720207
0.0118624
0.00715326
0.0132019
0.00712797
0.0135081
0.00713221
0.0128133
0.00715977
0.0112977
0.00719564
0.00962967
0.00722682
0.00813956
0.00725029
0.00713104
0.00726818
0.00630709
0.00728387
0.00575859
0.00729797
0.00512698
0.00731166
0.00476099
0.00732382
0.00418154
0.00733562
0.00393025
0.00734547
0.00335418
0.00735516
0.00321274
0.00736242
0.00258358
0.00737008
0.00259596
0.00737477
0.00186673
0.00738063
0.0020466
0.00738277
0.00115676
0.00738721
0.00158041
0.00738683
0.000464013
0.00739018
0.00120211
0.00738701
-0.00025663
0.00738959
0.000932378
0.00738312
-0.00103409
0.0073845
0.000729718
0.00737235
-0.00184322
0.00737022
0.000843538
0.00734986
-0.00215979
0.00734596
0.0020331
0.00732394
-0.00115106
0.00733238
0.00464331
0.00732976
0.000519719
0.00737417
0.0056841
0.00740479
-0.00164835
0.00747135
-0.00186882
0.00751427
-0.0120915
0.00757385
-0.0333758
0.00758824
-0.0616044
0.00767082
0.0173564
0.00772474
0.0470588
0.00778675
0.0289007
0.00780858
0.010573
0.00784211
0.00837876
0.00785999
-0.00112512
0.00787279
-0.00137185
0.00786085
-0.00653364
0.00783631
-0.00366003
0.00780045
-0.0051528
0.00776531
-0.00164358
0.00773472
-0.00236801
0.00770841
0.000203853
0.00768818
-0.000394211
0.00766779
0.00141151
0.00765163
0.000894518
0.0076339
0.00200756
0.00762097
0.00135237
0.00760778
0.00171681
0.00760014
0.000824196
0.00759346
0.000629846
0.00759204
-0.000369532
0.00759221
-0.000846939
0.00759628
-0.00178009
0.00760086
-0.00232829
0.0076056
-0.00303789
0.00760721
-0.00344924
0.00760416
-0.00383815
0.00759534
-0.00402468
0.00758067
-0.00404061
0.00756139
-0.00401409
0.00753837
-0.00372679
0.00751364
-0.00362092
0.00748803
-0.00317984
0.00746347
-0.00316213
0.00744021
-0.00264923
0.00741903
-0.0028942
0.00739973
-0.00233374
0.00738129
-0.00289988
0.00736452
-0.0021924
0.00734511
-0.00310123
0.0073285
-0.00209437
0.00730214
-0.00330817
0.00728376
-0.0018032
0.00724037
-0.003147
-0.000183148
0.00749204
-0.0244066
0.00744321
-0.0199888
0.0074245
-0.0161132
0.00742441
-0.0132136
0.00743599
-0.0108119
0.00744914
-0.00872852
0.00745475
-0.00629694
0.00744606
-0.00337631
0.00741968
-8.19896e-08
0.00737679
0.00353345
0.00732116
0.00687096
0.00725933
0.00975276
0.00719952
0.0119222
0.00715254
0.0132488
0.00712931
0.0135313
0.00713536
0.0128073
0.00716397
0.0112691
0.00720006
0.00959357
0.00723103
0.00810859
0.00725428
0.00710779
0.00727208
0.00628929
0.00728776
0.00574291
0.00730188
0.00511285
0.00731559
0.00474728
0.00732775
0.00416937
0.00733956
0.00391845
0.0073494
0.00334434
0.0073591
0.00320304
0.00736636
0.00257632
0.00737401
0.00258831
0.0073787
0.00186204
0.00738455
0.00204075
0.00738668
0.00115464
0.0073911
0.00157599
0.00739069
0.000464421
0.007394
0.0011988
0.00739079
-0.00025342
0.00739332
0.000929853
0.00738677
-0.00102754
0.00738806
0.000728433
0.00737581
-0.00183098
0.00737361
0.000845743
0.00735328
-0.00213946
0.00734954
0.00203683
0.0073279
-0.00112942
0.00733686
0.00463436
0.00733485
0.000521728
0.00737951
0.00563944
0.00740979
-0.00167863
0.00747534
-0.00193436
0.00751714
-0.0121333
0.00757448
-0.0334332
0.00758606
-0.061616
0.00766976
0.0172727
0.0077266
0.047002
0.00778957
0.0288378
0.00781088
0.0105517
0.00784296
0.00834669
0.00785838
-0.00114054
0.00786842
-0.0013819
0.00785365
-0.00651887
0.00782706
-0.00363344
0.00778981
-0.00511555
0.00775415
-0.00160792
0.00772342
-0.00233728
0.00769738
0.000229897
0.00767745
-0.000374279
0.00765753
0.00143142
0.00764185
0.000910199
0.00762483
0.00202459
0.00761271
0.00136449
0.00760059
0.00172894
0.0075941
0.000830679
0.00758875
0.000635197
0.00758854
-0.000369318
0.00758979
-0.000848187
0.00759441
-0.00178471
0.00759901
-0.00233289
0.00760302
-0.0030419
0.00760343
-0.00344964
0.00759891
-0.00383363
0.00758873
-0.00401449
0.00757299
-0.00402487
0.00755303
-0.00399412
0.00752977
-0.00370353
0.00750514
-0.0035963
0.00748002
-0.00315472
0.00745613
-0.00313824
0.00743379
-0.00262689
0.00741348
-0.00287388
0.00739517
-0.00231543
0.00737744
-0.00288214
0.00736147
-0.00217644
0.00734244
-0.0030822
0.00732635
-0.00207827
0.00730006
-0.00328187
0.00728188
-0.00178502
0.00723853
-0.00310365
-0.000151408
0.00749176
-0.0243226
0.00744235
-0.0199394
0.00742284
-0.0160937
0.00742186
-0.0132126
0.00743252
-0.0108226
0.0074448
-0.0087408
0.00744971
-0.00630185
0.00744056
-0.00336716
0.00741404
2.6434e-05
0.00737137
0.00357612
0.00731634
0.006926
0.00725549
0.00981361
0.0071971
0.0119806
0.00715195
0.013294
0.00713076
0.0135525
0.00713857
0.0127995
0.00716817
0.0112395
0.00720445
0.0095573
0.00723521
0.00807782
0.00725825
0.00708475
0.00727596
0.00627157
0.00729164
0.00572723
0.00730578
0.00509871
0.00731951
0.00473356
0.00733168
0.0041572
0.0073435
0.00390663
0.00735334
0.0033345
0.00736304
0.00319334
0.0073703
0.00256906
0.00737796
0.00258065
0.00738264
0.00185735
0.00738849
0.00203491
0.00739061
0.00115251
0.007395
0.0015716
0.00739457
0.000464851
0.00739785
0.00119552
0.0073946
-0.000250171
0.00739707
0.000927385
0.00739046
-0.00102093
0.00739165
0.000727241
0.00737932
-0.00181864
0.00737704
0.000848019
0.00735675
-0.00211917
0.00735317
0.00204042
0.00733191
-0.00110816
0.00734136
0.0046249
0.00733995
0.000523142
0.00738483
0.00559456
0.00741475
-0.00170856
0.0074793
-0.0019989
0.00752
-0.012174
0.00757512
-0.0334883
0.00758387
-0.0616247
0.00766863
0.0171879
0.00772832
0.0469423
0.00779219
0.0287739
0.00781297
0.0105309
0.0078436
0.00831606
0.0078566
-0.00115354
0.00786395
-0.00138924
0.00784643
-0.00650135
0.00781787
-0.00360488
0.00777932
-0.005077
0.00774323
-0.00157184
0.00771245
-0.0023065
0.00768674
0.000255607
0.00766715
-0.000354691
0.00764777
0.00145081
0.00763262
0.00092535
0.00761637
0.00204084
0.00760511
0.00137575
0.00759413
0.00173992
0.00758883
0.000835973
0.00758483
0.000639205
0.00758577
-0.000370257
0.00758799
-0.00085041
0.00759301
-0.00178973
0.00759747
-0.00233734
0.00760063
-0.00304506
0.00759981
-0.00344883
0.00759389
-0.00382771
0.00758245
-0.00400306
0.00756578
-0.0040082
0.00754525
-0.00397359
0.00752186
-0.00368014
0.00749741
-0.00357185
0.00747282
-0.00313013
0.00744962
-0.00311503
0.00742819
-0.00260546
0.00740871
-0.0028544
0.00739132
-0.00229805
0.00737423
-0.00286506
0.00735898
-0.00216118
0.00734029
-0.0030635
0.00732463
-0.00206262
0.00729837
-0.00325562
0.00728035
-0.00176699
0.00723704
-0.00306034
-0.000120498
0.00749148
-0.0242383
0.00744151
-0.0198895
0.00742121
-0.0160734
0.00741934
-0.0132107
0.0074291
-0.0108323
0.00744053
-0.00875222
0.00744474
-0.00630606
0.00743514
-0.00335756
0.0074085
5.30737e-05
0.00736606
0.00361857
0.00731163
0.00698042
0.00725178
0.00987345
0.00719482
0.0120376
0.0071515
0.0133373
0.00713233
0.0135717
0.00714185
0.01279
0.00717238
0.0112089
0.00720881
0.00952088
0.00723935
0.00804728
0.00726219
0.00706192
0.00727982
0.00625394
0.00729551
0.00571154
0.00730967
0.00508455
0.00732342
0.00471981
0.00733561
0.00414501
0.00734743
0.00389481
0.00735728
0.00332465
0.00736698
0.00318364
0.00737425
0.0025618
0.00738191
0.002573
0.00738659
0.00185266
0.00739243
0.00202907
0.00739455
0.0011504
0.00739892
0.00156722
0.00739847
0.000465302
0.00740172
0.00119228
0.00739843
-0.000246886
0.00740084
0.000924973
0.00739417
-0.00101426
0.00739527
0.00072614
0.00738285
-0.00180622
0.00738051
0.000850362
0.00736027
-0.00209893
0.00735685
0.00204384
0.00733597
-0.00108728
0.0073459
0.00461497
0.00734506
0.000523987
0.00739012
0.0055495
0.00741968
-0.00173812
0.00748323
-0.00206245
0.00752287
-0.0122136
0.00757577
-0.0335412
0.00758168
-0.0616307
0.00766742
0.0171022
0.00772989
0.0468798
0.00779462
0.0287092
0.00781486
0.0105107
0.00784405
0.00828687
0.00785467
-0.00116416
0.00785937
-0.00139395
0.00783919
-0.00648117
0.00780877
-0.00357446
0.00776901
-0.00503723
0.00773259
-0.00153542
0.00770182
-0.00227574
0.00767651
0.000280914
0.00765731
-0.000335491
0.00763852
0.0014696
0.00762395
0.000939926
0.00760854
0.00205624
0.0075982
0.0013861
0.00758842
0.0017497
0.00758433
0.000840057
0.00758166
0.000641876
0.00758368
-0.000372275
0.00758676
-0.00085349
0.00759201
-0.00179498
0.00759618
-0.0023415
0.0075984
-0.00304729
0.00759635
-0.00344677
0.0075891
-0.00382046
0.00757653
-0.00399049
0.00755905
-0.00399072
0.00753806
-0.0039526
0.00751461
-0.00365669
0.0074904
-0.00354763
0.00746638
-0.00310612
0.00744387
-0.00309252
0.00742333
-0.00258491
0.00740463
-0.00283571
0.0073881
-0.00228152
0.0073716
-0.00284856
0.00735699
-0.00214656
0.00733857
-0.00304509
0.00732329
-0.00204733
0.00729705
-0.00322938
0.00727912
-0.00174907
0.00723586
-0.00301708
-9.0369e-05
0.00749121
-0.0241537
0.00744069
-0.0198389
0.0074196
-0.0160523
0.00741687
-0.013208
0.00742573
-0.0108412
0.00743631
-0.00876279
0.00743984
-0.00630959
0.0074298
-0.00334753
0.00740305
7.98276e-05
0.00736084
0.00366077
0.00730703
0.00703424
0.00724819
0.00993229
0.00719266
0.0120931
0.00715118
0.0133788
0.007134
0.0135888
0.00714518
0.0127788
0.00717659
0.0111775
0.00721313
0.00948434
0.00724346
0.00801696
0.0072661
0.00703927
0.00728368
0.00623636
0.00729937
0.00569585
0.00731356
0.00507036
0.00732733
0.00470604
0.00733953
0.00413281
0.00735137
0.00388297
0.00736123
0.00331479
0.00737093
0.00317394
0.0073782
0.00255453
0.00738587
0.00256533
0.00739056
0.00184797
0.00739639
0.00202324
0.0073985
0.00114829
0.00740286
0.00156286
0.00740239
0.000465772
0.0074056
0.00118907
0.00740228
-0.000243567
0.00740464
0.000922613
0.00739791
-0.00100753
0.00739892
0.000725126
0.00738643
-0.00179373
0.00738403
0.000852764
0.00736384
-0.00207874
0.00736057
0.00204711
0.00734007
-0.00106678
0.00735047
0.00460456
0.00735017
0.000524289
0.00739539
0.00550427
0.00742456
-0.00176728
0.00748714
-0.00212503
0.00752573
-0.0122522
0.00757642
-0.0335919
0.00757948
-0.0616337
0.00766614
0.0170155
0.00773131
0.0468146
0.00779687
0.0286436
0.00781655
0.010491
0.00784431
0.0082591
0.00785259
-0.00117244
0.00785472
-0.00139608
0.00783197
-0.00645842
0.00779977
-0.00354226
0.00775889
-0.00499636
0.00772224
-0.00149877
0.00769156
-0.00224505
0.00766672
0.000305749
0.00764795
-0.000316722
0.00762981
0.00148774
0.00761586
0.000953882
0.00760137
0.00207073
0.00759199
0.00139548
0.00758346
0.00175822
0.0075806
0.000842925
0.00757924
0.000643231
0.00758224
-0.000375276
0.00758605
-0.000857295
0.00759137
-0.0018003
0.0075951
-0.00234524
0.00759633
-0.00304851
0.00759306
-0.00344351
0.00758457
-0.00381197
0.00757097
-0.00397689
0.00755279
-0.00397254
0.00753144
-0.00393125
0.00750801
-0.00363326
0.00748409
-0.00352371
0.00746066
-0.00308269
0.00743884
-0.0030707
0.00741915
-0.00256522
0.0074012
-0.00281776
0.00738546
-0.00226577
0.00736949
-0.00283259
0.00735543
-0.00213251
0.00733725
-0.00302691
0.00732227
-0.00203235
0.00729603
-0.00320314
0.00727817
-0.0017312
0.00723497
-0.00297389
-6.09773e-05
0.00749094
-0.0240689
0.00743988
-0.0197879
0.00741802
-0.0160305
0.00741443
-0.0132044
0.00742241
-0.0108492
0.00743214
-0.00877253
0.007435
-0.00631244
0.00742454
-0.00333707
0.00739768
0.000106683
0.00735573
0.00370272
0.00730254
0.00708743
0.00724472
0.0099901
0.00719064
0.0121472
0.00715099
0.0134184
0.00713577
0.013604
0.00714857