/*--------------------------------*- C++ -*----------------------------------*\
| =========                 |                                                 |
| \\      /  F ield         | OpenFOAM: The Open Source CFD Toolbox           |
|  \\    /   O peration     | Version:  2412                                  |
|   \\  /    A nd           | Website:  www.openfoam.com                      |
|    \\/     M anipulation  |                                                 |
\*---------------------------------------------------------------------------*/
FoamFile
{
    version     2.0;
    format      ascii;
    arch        "LSB;label=32;scalar=64";
    class       volVectorField;
    location    "0.8";
    object      U;
}
// * * * * * * * * * * * * * * * * * * * * * * * * * * * * * * * * * * * * * //

dimensions      [0 1 -1 0 0 0 0];

internalField   nonuniform List<vector> 
13079
(
(100.032 1.90468 0)
(100.663 5.27887 -8.1735e-17)
(101.807 8.35465 -1.14144e-20)
(103.387 10.789 0)
(105.184 12.8827 0)
(107.203 14.7462 0)
(109.177 16.7635 0)
(111.061 19.0418 0)
(112.684 21.5551 -6.94008e-17)
(114.062 24.1318 7.35386e-17)
(115.19 26.5641 0)
(116.151 28.7048 0)
(117.053 30.4224 0)
(118.02 31.6688 9.397e-17)
(119.287 32.3616 0)
(121.038 32.5415 0)
(123.486 32.2994 -9.31752e-17)
(126.444 31.9631 -8.75567e-17)
(129.73 31.7264 -3.60479e-21)
(132.988 31.7757 -7.47101e-17)
(136.342 31.9761 0)
(139.655 32.386 -6.49424e-17)
(143.224 32.8063 6.13995e-17)
(146.792 33.406 0)
(150.721 33.9465 0)
(154.605 34.705 0)
(158.964 35.3398 5.03048e-17)
(163.197 36.2655 -4.7729e-17)
(168.068 36.9846 -3.39832e-21)
(172.694 38.1038 0)
(178.193 38.9035 0)
(183.267 40.2595 0)
(189.556 41.1357 0)
(195.145 42.7863 0)
(202.444 43.7336 3.37014e-17)
(208.619 45.7557 -3.1317e-17)
(217.221 46.7659 -3.02882e-17)
(224.057 49.2545 -2.76826e-17)
(234.362 50.3199 2.69465e-17)
(241.939 53.394 -2.39043e-17)
(254.475 54.5435 0)
(262.797 58.4389 -1.97811e-17)
(278.199 59.9313 -1.99164e-17)
(287.247 65.0927 -3.09567e-17)
(306.643 67.3791 3.34991e-17)
(316.908 74.0036 0)
(342.608 77.194 -1.43479e-17)
(355.929 84.2553 0)
(392.161 87.7383 0)
(411.414 92.544 0)
(461.48 97.257 -6.46531e-18)
(489.33 89.79 0)
(557.123 94.3579 0)
(606.511 2.81973 0)
(559.913 -45.6094 5.42545e-18)
(542.618 -58.4982 0)
(505.071 -64.9929 7.36444e-21)
(489.655 -64.1208 -1.59512e-17)
(461.131 -66.3204 3.39174e-21)
(448.081 -64.6363 -4.84392e-18)
(424.531 -64.7778 -1.88474e-17)
(410.997 -61.0841 0)
(389.875 -59.1357 0)
(376.298 -54.9308 -1.73579e-20)
(358.282 -52.8234 4.97616e-17)
(346.055 -49.3846 5.20092e-17)
(331.206 -47.6269 -7.39525e-17)
(320.394 -44.9107 -8.10386e-17)
(307.939 -43.4371 1.03369e-16)
(298.23 -41.3512 -1.14682e-16)
(287.573 -40.2335 1.37343e-16)
(278.832 -38.7574 1.8179e-20)
(269.641 -38.0008 0)
(261.81 -37.0085 0)
(253.845 -36.4945 2.17475e-16)
(246.884 -35.802 2.37065e-16)
(240.008 -35.3992 -2.58482e-16)
(100.031 1.88717 0)
(100.655 5.23418 8.18057e-17)
(101.787 8.28528 -1.52969e-16)
(103.352 10.7025 0)
(105.135 12.784 0)
(107.138 14.6419 0)
(109.098 16.6608 0)
(110.97 18.946 0)
(112.586 21.4699 -6.9315e-17)
(113.96 24.0578 0)
(115.091 26.5 0)
(116.06 28.6477 0)
(116.976 30.3684 0)
(117.966 31.6124 0)
(119.264 32.2965 0)
(121.055 32.4623 0)
(123.541 32.2061 2.5844e-21)
(126.522 31.8612 8.64255e-17)
(129.814 31.6228 -7.98557e-17)
(133.069 31.6731 0)
(136.42 31.8743 -6.83023e-17)
(139.733 32.2832 6.39889e-17)
(143.303 32.7018 0)
(146.872 33.299 -5.74756e-17)
(150.803 33.8374 0)
(154.689 34.5929 0)
(159.049 35.2255 -3.36208e-21)
(163.284 36.1478 4.73111e-17)
(168.157 36.8645 -4.52116e-17)
(172.784 37.9798 0)
(178.285 38.777 4.09725e-17)
(183.361 40.128 0)
(189.653 41.0016 0)
(195.244 42.646 0)
(202.545 43.5905 -3.3093e-21)
(208.722 45.6049 3.11374e-17)
(217.326 46.6122 0)
(224.164 49.0911 0)
(234.47 50.1534 2.6762e-17)
(242.049 53.2156 -2.37197e-17)
(254.582 54.3624 2.32993e-17)
(262.906 58.2441 1.95995e-17)
(278.306 59.735 3.69322e-21)
(287.366 64.8803 8.25913e-21)
(306.77 67.165 -1.6569e-17)
(317.076 73.7696 1.11137e-17)
(342.805 76.9523 0)
(356.202 83.985 6.24589e-18)
(392.444 87.4439 0)
(411.722 92.2088 -7.91574e-19)
(461.68 96.8677 6.34716e-18)
(489.512 89.3538 8.63187e-18)
(557.023 93.7931 -1.31181e-18)
(606.277 2.81127 0)
(560.07 -45.3571 -2.69503e-20)
(542.927 -58.2809 -2.02461e-17)
(505.399 -64.7822 7.32813e-21)
(489.916 -63.9224 0)
(461.258 -66.1146 -1.76325e-17)
(448.035 -64.4121 0)
(424.294 -64.5241 0)
(410.605 -60.8036 -9.51585e-18)
(389.367 -58.8391 0)
(375.731 -54.6289 -2.78334e-17)
(357.688 -52.5277 -4.94401e-17)
(345.465 -49.0966 0)
(330.626 -47.3516 8.03311e-21)
(319.835 -44.6434 8.09224e-17)
(307.399 -43.1817 1.03311e-16)
(297.714 -41.1028 -1.147e-16)
(287.081 -39.9965 -2.74983e-16)
(278.371 -38.5282 1.52651e-16)
(269.211 -37.7838 1.75997e-16)
(261.42 -36.8008 -1.94232e-16)
(253.497 -36.3001 -6.8723e-21)
(246.583 -35.6187 -2.36537e-16)
(239.754 -35.23 2.57091e-16)
(100.03 1.86991 0)
(100.646 5.18999 -8.19009e-17)
(101.768 8.21663 7.65825e-17)
(103.318 10.6169 0)
(105.087 12.6863 0)
(107.074 14.5386 0)
(109.021 16.5589 0)
(110.881 18.8509 0)
(112.488 21.3853 6.92381e-17)
(113.86 23.9841 7.33183e-17)
(114.993 26.4362 0)
(115.971 28.5906 0)
(116.903 30.3143 -8.89397e-17)
(117.915 31.5557 0)
(119.246 32.2307 -9.55402e-17)
(121.075 32.3823 9.49018e-17)
(123.597 32.1121 9.12518e-17)
(126.6 31.759 0)
(129.897 31.519 -7.87252e-17)
(133.15 31.5705 0)
(136.498 31.7724 6.73099e-17)
(139.811 32.1802 -1.26216e-16)
(143.382 32.5972 0)
(146.953 33.1918 5.68022e-17)
(150.885 33.728 -5.42366e-17)
(154.773 34.4807 5.16359e-17)
(159.134 35.111 -4.93711e-17)
(163.371 36.03 0)
(168.245 36.7444 0)
(172.875 37.8556 0)
(178.378 38.6504 -4.07142e-17)
(183.456 39.9965 0)
(189.751 40.8674 -3.68836e-17)
(195.344 42.5058 0)
(202.647 43.4474 -3.33273e-17)
(208.827 45.4542 -3.09562e-17)
(217.432 46.4585 2.99297e-17)
(224.273 48.9278 2.7328e-17)
(234.578 49.987 -2.65925e-17)
(242.16 53.0374 2.35563e-17)
(254.691 54.1816 -2.31269e-17)
(263.018 58.0496 -1.94404e-17)
(278.414 59.539 3.61505e-21)
(287.487 64.6683 3.03242e-17)
(306.899 66.9512 1.63906e-17)
(317.246 73.5356 -1.0984e-17)
(343.005 76.7102 0)
(356.477 83.7141 -1.22937e-17)
(392.726 87.1488 1.11004e-17)
(412.027 91.873 1.56657e-18)
(461.878 96.4785 0)
(489.694 88.9188 -8.51248e-18)
(556.925 93.2307 1.30179e-18)
(606.043 2.80173 1.24727e-18)
(560.218 -45.106 -2.59629e-18)
(543.222 -58.0623 3.98543e-17)
(505.71 -64.5687 7.28903e-21)
(490.158 -63.7201 -1.54481e-17)
(461.366 -65.9041 8.66877e-18)
(447.971 -64.1833 -4.7075e-18)
(424.042 -64.2664 1.82587e-17)
(410.203 -60.5204 9.38329e-18)
(388.855 -58.5412 -3.08419e-17)
(375.167 -54.3271 0)
(357.1 -52.2329 0)
(344.883 -48.8102 5.14761e-17)
(330.056 -47.0783 7.35067e-17)
(319.289 -44.3784 0)
(306.872 -42.9288 -1.03217e-16)
(297.213 -40.857 2.05576e-20)
(286.605 -39.7625 2.75071e-16)
(277.926 -38.3022 0)
(268.8 -37.5703 -1.76064e-16)
(261.049 -36.597 1.94161e-16)
(253.171 -36.1097 -2.17022e-16)
(246.304 -35.4397 0)
(239.521 -35.0649 0)
(100.029 1.85288 0)
(100.638 5.14629 0)
(101.749 8.14867 0)
(103.284 10.532 0)
(105.039 12.5894 0)
(107.011 14.4361 0)
(108.944 16.4579 0)
(110.792 18.7566 0)
(112.393 21.3013 0)
(113.761 23.9109 -7.32165e-17)
(114.898 26.3726 -7.81598e-17)
(115.884 28.5336 0)
(116.832 30.26 8.86922e-17)
(117.867 31.4985 9.28524e-17)
(119.231 32.1642 1.5555e-21)
(121.099 32.3014 -2.03041e-21)
(123.656 32.0174 0)
(126.679 31.6562 8.43214e-17)
(129.98 31.4149 1.55326e-16)
(133.23 31.4677 7.14319e-17)
(136.575 31.6703 0)
(139.888 32.0771 1.24574e-16)
(143.46 32.4923 5.90685e-17)
(147.033 33.0844 0)
(150.967 33.6185 5.36902e-17)
(154.857 34.3683 -5.11597e-17)
(159.22 34.9964 4.89492e-17)
(163.458 35.912 0)
(168.334 36.6241 0)
(172.966 37.7314 -4.22418e-17)
(178.471 38.5237 0)
(183.552 39.8649 0)
(189.849 40.7332 3.66886e-17)
(195.444 42.3655 0)
(202.749 43.3043 -3.31502e-17)
(208.932 45.3034 3.07943e-17)
(217.538 46.3048 -2.9768e-17)
(224.382 48.7646 -5.43369e-17)
(234.688 49.8208 -2.64237e-17)
(242.273 52.8594 0)
(254.801 54.0011 2.29549e-17)
(263.131 57.8554 1.92734e-17)
(278.525 59.3434 1.93948e-17)
(287.61 64.4565 -3.00279e-17)
(307.031 66.7375 -3.59774e-21)
(317.419 73.3015 0)
(343.206 76.4679 0)
(356.752 83.4424 6.05173e-18)
(393.007 86.853 -2.18314e-17)
(412.329 91.5366 -7.75425e-19)
(462.074 96.0894 0)
(489.876 88.485 0)
(556.828 92.6707 -1.29258e-18)
(605.809 2.79111 -1.23535e-18)
(560.359 -44.856 0)
(543.504 -57.8424 -1.96202e-17)
(506.004 -64.3523 -9.82577e-19)
(490.381 -63.5142 -5.42326e-21)
(461.455 -65.6893 0)
(447.89 -63.9502 4.62824e-18)
(423.778 -64.005 -1.79692e-17)
(409.794 -60.2348 -9.22748e-18)
(388.339 -58.242 2.08686e-21)
(374.603 -54.0252 2.72837e-17)
(356.516 -51.939 0)
(344.309 -48.5253 -5.12119e-17)
(329.497 -46.8069 0)
(318.753 -44.1156 0)
(306.357 -42.6784 0)
(296.726 -40.6139 2.29124e-16)
(286.143 -39.5314 -1.37469e-16)
(277.497 -38.0794 0)
(268.407 -37.3604 -1.75904e-16)
(260.699 -36.3969 1.93775e-16)
(252.865 -35.9234 2.16206e-16)
(246.047 -35.2649 2.33926e-16)
(239.311 -34.9039 -2.5221e-16)
(100.029 1.83609 0)
(100.63 5.10308 0)
(101.73 8.08141 0)
(103.251 10.448 0)
(104.992 12.4933 0)
(106.949 14.3346 6.5004e-17)
(108.868 16.3577 0)
(110.705 18.6631 0)
(112.298 21.2179 0)
(113.665 23.8381 -7.31115e-17)
(114.805 26.3091 1.5606e-16)
(115.8 28.4766 8.33207e-17)
(116.763 30.2054 -8.84471e-17)
(117.823 31.4407 -9.24999e-17)
(119.219 32.0969 9.45045e-17)
(121.126 32.2197 -9.34898e-17)
(123.717 31.9219 0)
(126.759 31.5531 -3.12125e-21)
(130.063 31.3107 -7.66611e-17)
(133.309 31.3648 -3.50016e-21)
(136.652 31.5681 0)
(139.965 31.9738 -6.15252e-17)
(143.538 32.3873 -3.17779e-21)
(147.113 32.9769 0)
(151.049 33.5089 0)
(154.94 34.2558 5.07106e-17)
(159.305 34.8817 -4.85636e-17)
(163.545 35.794 0)
(168.424 36.5038 0)
(173.057 37.6071 4.19872e-17)
(178.565 38.397 -4.0238e-17)
(183.648 39.7333 -3.80138e-17)
(189.947 40.599 -3.64991e-17)
(195.545 42.2252 -3.42601e-17)
(202.853 43.1612 3.14443e-21)
(209.038 45.1527 3.06302e-17)
(217.646 46.1512 0)
(224.492 48.6015 2.70161e-17)
(234.799 49.6546 2.62692e-17)
(242.387 52.6816 0)
(254.913 53.8208 -3.45254e-21)
(263.246 57.6614 -1.9128e-17)
(278.638 59.148 1.92312e-17)
(287.736 64.245 1.48761e-17)
(307.167 66.5239 -3.5033e-21)
(317.595 73.0673 -1.07141e-17)
(343.41 76.2251 0)
(357.027 83.1701 5.94408e-18)
(393.286 86.5564 1.07385e-17)
(412.627 91.1995 0)
(462.269 95.7005 0)
(490.057 88.0522 0)
(556.732 92.113 1.28356e-18)
(605.573 2.77949 -1.21617e-18)
(560.491 -44.6069 0)
(543.772 -57.6212 0)
(506.282 -64.133 0)
(490.587 -63.3046 2.99123e-17)
(461.527 -65.4702 8.38902e-18)
(447.794 -63.7131 0)
(423.503 -63.7402 0)
(409.377 -59.9469 1.81853e-17)
(387.822 -57.9418 3.01278e-17)
(374.042 -53.7236 -2.70301e-17)
(355.939 -51.6462 0)
(343.744 -48.2421 0)
(328.947 -46.5377 0)
(318.229 -43.8552 0)
(305.856 -42.4305 0)
(296.253 -40.3735 -2.02309e-20)
(285.698 -39.3034 1.37249e-16)
(277.087 -37.8599 0)
(268.034 -37.1541 7.94299e-21)
(260.369 -36.2009 -1.39017e-20)
(252.582 -35.7412 -5.91689e-21)
(245.813 -35.0943 -2.31729e-16)
(239.122 -34.7469 2.4857e-16)
(233.208 -34.2565 0)
(227.455 -33.9116 2.67002e-16)
(222.243 -33.4549 -5.19562e-21)
(217.09 -32.997 -3.29315e-21)
(212.215 -32.4525 5.00398e-16)
(207.264 -31.7895 4.7405e-16)
(202.473 -31.1177 2.24155e-16)
(197.594 -30.2622 2.13271e-16)
(192.929 -29.5466 4.10335e-16)
(188.214 -28.5937 1.99259e-16)
(183.834 -27.9741 -1.95273e-16)
(179.391 -27.0143 -3.03553e-21)
(175.431 -26.6095 1.88537e-16)
(171.281 -25.6567 -3.68296e-16)
(167.815 -25.5327 -1.78827e-16)
(163.85 -24.5107 3.70151e-21)
(160.926 -24.6966 -1.63092e-16)
(156.904 -23.4601 -3.05168e-16)
(154.655 -23.9714 1.41658e-16)
(150.134 -22.331 1.28816e-16)
(148.923 -23.1202 -1.17201e-16)
(143.021 -20.3322 -1.05706e-16)
(100.028 1.81953 8.68982e-17)
(100.622 5.06033 0)
(101.712 8.01482 7.68455e-17)
(103.219 10.3647 0)
(104.946 12.3982 -6.74316e-17)
(106.888 14.2339 -6.50163e-17)
(108.794 16.2583 0)
(110.619 18.5702 0)
(112.206 21.135 0)
(113.57 23.7656 7.30152e-17)
(114.713 26.2458 -1.55803e-16)
(115.718 28.4195 -8.31526e-17)
(116.697 30.1505 1.60496e-21)
(117.781 31.3824 -9.21533e-17)
(119.21 32.0289 0)
(121.155 32.1371 0)
(123.779 31.8257 0)
(126.838 31.4496 -3.08741e-21)
(130.145 31.2064 0)
(133.388 31.2618 -6.95789e-17)
(136.728 31.4658 6.4701e-17)
(140.041 31.8703 6.08119e-17)
(143.616 32.2821 -3.09992e-21)
(147.193 32.8693 5.50466e-17)
(151.131 33.3991 0)
(155.024 34.1431 -1.00598e-16)
(159.391 34.7669 -4.81996e-17)
(163.633 35.6758 0)
(168.513 36.3834 0)
(173.148 37.4827 -4.1742e-17)
(178.659 38.2702 3.03441e-21)
(183.744 39.6017 3.78262e-17)
(190.046 40.4647 3.63267e-17)
(195.647 42.0848 6.81978e-17)
(202.956 43.0181 3.28326e-17)
(209.144 45.002 -3.04844e-17)
(217.754 45.9976 0)
(224.604 48.4384 -2.68623e-17)
(234.911 49.4886 -2.6115e-17)
(242.501 52.5039 0)
(255.026 53.6407 -2.26433e-17)
(263.362 57.4677 0)
(278.753 58.9529 -1.90816e-17)
(287.865 64.0337 0)
(307.305 66.3104 -3.1824e-17)
(317.773 72.8329 2.11923e-17)
(343.616 75.9819 0)
(357.302 82.897 -5.86198e-18)
(393.563 86.2592 1.05578e-17)
(412.922 90.8619 0)
(462.462 95.3118 0)
(490.237 87.6207 0)
(556.637 91.5577 1.27565e-18)
(605.337 2.7669 1.20572e-18)
(560.615 -44.3588 0)
(544.027 -57.3987 0)
(506.543 -63.911 0)
(490.775 -63.0915 -1.47173e-17)
(461.582 -65.2471 -8.24817e-18)
(447.683 -63.4721 4.49726e-18)
(423.217 -63.472 0)
(408.954 -59.6569 -1.7907e-17)
(387.305 -57.6408 0)
(373.484 -53.4224 0)
(355.369 -51.3547 -4.80179e-17)
(343.188 -47.9609 0)
(328.41 -46.2707 -7.25481e-17)
(317.719 -43.5972 0)
(305.37 -42.1853 1.02445e-16)
(295.796 -40.1361 -2.00023e-20)
(285.271 -39.0786 -1.36885e-16)
(276.695 -37.644 0)
(267.681 -36.9516 1.74818e-16)
(260.062 -36.0089 -1.91983e-16)
(252.321 -35.5634 -5.51206e-21)
(245.601 -34.9281 0)
(238.955 -34.5939 -2.44011e-16)
(233.077 -34.1133 0)
(227.34 -33.776 2.57752e-16)
(222.123 -33.3212 -2.55174e-16)
(216.941 -32.8605 -2.47171e-16)
(212.023 -32.3093 -4.69858e-16)
(207.025 -31.638 -2.21487e-16)
(202.196 -30.9594 -2.09089e-16)
(197.289 -30.0988 0)
(192.613 -29.382 -1.91741e-16)
(187.898 -28.4297 0)
(183.531 -27.8143 1.82894e-16)
(179.106 -26.8593 -1.79609e-16)
(175.175 -26.462 1.76362e-16)
(171.051 -25.5157 1.71935e-16)
(167.618 -25.3995 1.66589e-16)
(163.678 -24.3836 1.59433e-16)
(160.782 -24.5749 1.51334e-16)
(156.78 -23.3443 1.41447e-16)
(154.548 -23.8548 -1.31393e-16)
(150.042 -22.2234 -1.19663e-16)
(148.828 -22.9979 1.09309e-16)
(142.957 -20.2211 9.90221e-17)
(100.027 1.80319 -8.69553e-17)
(100.614 5.01804 -8.22094e-17)
(101.694 7.94891 -7.69467e-17)
(103.187 10.2822 0)
(104.901 12.3038 6.74799e-17)
(106.828 14.134 0)
(108.72 16.1597 -6.45834e-17)
(110.535 18.478 0)
(112.114 21.0526 0)
(113.476 23.6934 0)
(114.623 26.1827 7.77777e-17)
(115.638 28.3623 -8.29842e-17)
(116.633 30.0953 1.58709e-21)
(117.742 31.3235 9.18184e-17)
(119.204 31.9599 0)
(121.187 32.0535 0)
(123.843 31.7289 0)
(126.918 31.3456 -1.63114e-16)
(130.227 31.1019 7.48214e-17)
(133.466 31.1587 0)
(136.804 31.3634 -1.27898e-16)
(140.117 31.7667 -6.01555e-17)
(143.694 32.1768 -5.72099e-17)
(147.272 32.7615 -5.45484e-17)
(151.213 33.2892 0)
(155.107 34.0303 4.99175e-17)
(159.476 34.6519 2.98559e-21)
(163.72 35.5576 0)
(168.602 36.2629 4.37237e-17)
(173.24 37.3583 8.30378e-17)
(178.753 38.1434 3.98275e-17)
(183.841 39.4699 0)
(190.145 40.3304 -3.61586e-17)
(195.749 41.9445 -6.78888e-17)
(203.061 42.875 0)
(209.251 44.8513 0)
(217.863 45.844 2.93156e-17)
(224.716 48.2754 5.34476e-17)
(235.024 49.3226 2.59742e-17)
(242.617 52.3263 2.29396e-17)
(255.141 53.4608 2.24928e-17)
(263.48 57.2742 -1.88351e-17)
(278.87 58.7581 0)
(287.996 63.8226 0)
(307.445 66.0969 1.57672e-17)
(317.953 72.5984 -1.04831e-17)
(343.824 75.7383 0)
(357.578 82.6232 5.76231e-18)
(393.839 85.9613 -1.03987e-17)
(413.213 90.5238 0)
(462.654 94.9234 0)
(490.418 87.1903 8.09888e-18)
(556.543 91.0047 -1.26754e-18)
(605.099 2.75339 -1.18819e-18)
(560.731 -44.1116 0)
(544.269 -57.1748 1.87552e-17)
(506.789 -63.6863 9.65827e-19)
(490.947 -62.8749 0)
(461.622 -65.02 0)
(447.56 -63.2274 -8.85187e-18)
(422.921 -63.2008 -1.71375e-17)
(408.527 -59.3652 1.15948e-20)
(386.787 -57.3393 0)
(372.931 -53.1218 2.64598e-17)
(354.806 -51.0646 4.43398e-21)
(342.643 -47.6817 0)
(327.885 -46.0061 7.21368e-17)
(317.222 -43.342 0)
(304.899 -41.943 -9.21833e-21)
(295.355 -39.9018 -1.13555e-16)
(284.861 -38.8571 -1.3631e-16)
(276.324 -37.4317 1.51208e-16)
(267.35 -36.7531 -1.73776e-16)
(259.778 -35.8212 1.9042e-16)
(252.085 -35.3899 -2.10683e-16)
(245.414 -34.7661 -2.251e-16)
(238.81 -34.4448 2.38489e-16)
(232.964 -33.9732 0)
(227.238 -33.6424 -4.94793e-16)
(222.011 -33.1882 -2.42416e-16)
(216.796 -32.7237 0)
(211.835 -32.1656 1.54358e-21)
(206.792 -31.4865 2.06276e-16)
(201.928 -30.802 1.94592e-16)
(197 -29.9374 1.85432e-16)
(192.317 -29.2202 -1.78966e-16)
(187.604 -28.2693 1.74315e-16)
(183.253 -27.6586 0)
(178.848 -26.7088 0)
(174.945 -26.3191 -1.64738e-16)
(170.848 -25.3793 1.60325e-16)
(167.446 -25.2706 -1.55055e-16)
(163.53 -24.2609 0)
(160.66 -24.4567 -1.40477e-16)
(156.674 -23.232 -1.31248e-16)
(154.457 -23.7409 0)
(149.964 -22.1182 0)
(148.746 -22.8775 0)
(142.903 -20.1124 0)
(100.026 1.78707 0)
(100.607 4.97621 1.64587e-16)
(101.676 7.88365 0)
(103.156 10.2005 -7.1719e-17)
(104.856 12.2103 0)
(106.768 14.035 -6.50267e-17)
(108.648 16.0619 6.45676e-17)
(110.451 18.3865 6.5894e-17)
(112.024 20.9708 6.88681e-17)
(113.384 23.6216 0)
(114.535 26.1196 0)
(115.559 28.3051 8.28233e-17)
(116.572 30.0397 8.77505e-17)
(117.706 31.264 0)
(119.201 31.8901 0)
(121.221 31.9691 0)
(123.907 31.6313 0)
(126.998 31.2413 1.61461e-16)
(130.308 30.9972 -7.39862e-17)
(133.543 31.0556 0)
(136.879 31.2608 1.26493e-16)
(140.193 31.6629 0)
(143.771 32.0713 5.66737e-17)
(147.352 32.6535 -5.40801e-17)
(151.294 33.1792 0)
(155.19 33.9174 -4.95583e-17)
(159.561 34.5369 4.75565e-17)
(163.807 35.4392 0)
(168.692 36.1423 -4.34884e-17)
(173.332 37.2337 -4.13108e-17)
(178.848 38.0164 0)
(183.938 39.3381 0)
(190.245 40.196 3.60063e-17)
(195.851 41.804 3.38007e-17)
(203.166 42.7318 0)
(209.359 44.7006 0)
(217.973 45.6905 -2.91832e-17)
(224.829 48.1124 -5.31779e-17)
(235.138 49.1567 0)
(242.735 52.1488 -4.56133e-17)
(255.257 53.281 -2.23555e-17)
(263.6 57.081 1.87085e-17)
(278.989 58.5635 0)
(288.129 63.6117 0)
(307.588 65.8835 -1.5624e-17)
(318.136 72.3637 -1.03624e-17)
(344.034 75.4942 1.31331e-17)
(357.854 82.3487 -5.68707e-18)
(394.113 85.6627 -1.02326e-17)
(413.501 90.1852 -7.81378e-19)
(462.845 94.5351 -5.69039e-18)
(490.598 86.7611 -8.00625e-18)
(556.451 90.454 1.26083e-18)
(604.86 2.739 3.8002e-21)
(560.837 -43.8652 -2.29267e-18)
(544.498 -56.9496 -1.84984e-17)
(507.02 -63.4589 -9.51494e-19)
(491.103 -62.655 -1.42679e-17)
(461.647 -64.7892 0)
(447.423 -62.9792 8.71952e-18)
(422.618 -62.9268 1.68673e-17)
(408.097 -59.0718 8.68598e-18)
(386.271 -57.0374 -2.90491e-17)
(372.383 -52.8221 -2.6188e-17)
(354.253 -50.7762 4.72043e-17)
(342.109 -47.4047 0)
(327.374 -45.7441 0)
(316.741 -43.0895 7.90081e-17)
(304.444 -41.7036 -1.01423e-16)
(294.933 -39.6707 0)
(284.471 -38.6392 8.79555e-21)
(275.973 -37.2233 -3.00442e-16)
(267.042 -36.5588 1.7236e-16)
(259.517 -35.6379 -1.88375e-16)
(251.874 -35.221 0)
(245.251 -34.6085 2.2056e-16)
(238.687 -34.2994 0)
(232.869 -33.836 0)
(227.149 -33.5103 2.36037e-16)
(221.905 -33.0556 2.28945e-16)
(216.654 -32.5866 0)
(211.65 -32.0215 2.04432e-16)
(206.566 -31.3353 -5.71622e-22)
(201.673 -30.6457 0)
(196.726 -29.7781 -1.72554e-16)
(192.039 -29.0613 1.66871e-16)
(187.332 -28.1125 -1.62782e-16)
(182.999 -27.5069 0)
(178.614 -26.5626 0)
(174.741 -26.1804 0)
(170.669 -25.2474 -1.49373e-16)
(167.297 -25.1456 -6.15358e-21)
(163.402 -24.1419 1.37625e-16)
(160.556 -24.3416 1.30482e-16)
(156.585 -23.1227 1.21967e-16)
(154.38 -23.629 0)
(149.898 -22.0152 1.0404e-16)
(148.675 -22.7587 -9.59941e-17)
(142.858 -20.0057 0)
(100.025 1.77116 0)
(100.599 4.93481 -1.21619e-20)
(101.659 7.81903 -7.71142e-17)
(103.125 10.1195 7.18012e-17)
(104.812 12.1176 -6.75559e-17)
(106.709 13.9368 5.75843e-21)
(108.576 15.9649 -6.4543e-17)
(110.369 18.2956 -6.58536e-17)
(111.935 20.8895 -6.88046e-17)
(113.294 23.5501 0)
(114.449 26.0567 0)
(115.483 28.2477 -8.26616e-17)
(116.513 29.9838 0)
(117.672 31.2038 9.11691e-17)
(119.201 31.8194 0)
(121.257 31.8838 0)
(123.973 31.533 0)
(127.078 31.1367 -1.59896e-16)
(130.388 30.8924 0)
(133.62 30.9523 0)
(136.954 31.1581 -6.25944e-17)
(140.268 31.559 5.89704e-17)
(143.849 31.9657 -2.88661e-21)
(147.431 32.5453 3.22175e-21)
(151.376 33.069 -5.1482e-17)
(155.274 33.8044 4.92318e-17)
(159.647 34.4217 0)
(163.895 35.3207 0)
(168.782 36.0216 0)
(173.424 37.1091 4.11112e-17)
(178.942 37.8894 0)
(184.035 39.2062 -3.73147e-17)
(190.345 40.0616 0)
(195.954 41.6635 0)
(203.271 42.5886 -3.24093e-17)
(209.468 44.5498 3.007e-17)
(218.084 45.5369 -2.90511e-17)
(224.942 47.9494 5.29208e-17)
(235.253 48.9909 2.57024e-17)
(242.853 51.9714 2.26796e-17)
(255.374 53.1014 2.2218e-17)
(263.722 56.888 0)
(279.111 58.3691 1.86591e-17)
(288.265 63.401 0)
(307.733 65.6702 3.1467e-21)
(318.321 72.1288 8.13198e-21)
(344.245 75.2497 -1.29917e-17)
(358.129 82.0735 0)
(394.385 85.3635 1.00869e-17)
(413.786 89.8461 1.54958e-18)
(463.035 94.147 5.6084e-18)
(490.777 86.333 -7.92029e-18)
(556.36 89.9055 -1.25354e-18)
(604.62 2.72379 1.16682e-18)
(560.936 -43.6196 2.26768e-18)
(544.714 -56.7231 0)
(507.236 -63.2289 -9.51453e-19)
(491.243 -62.4319 2.80955e-17)
(461.658 -64.5548 0)
(447.276 -62.7277 -4.2914e-18)
(422.308 -62.6502 0)
(407.663 -58.7772 0)
(385.758 -56.7353 2.86861e-17)
(371.841 -52.5233 0)
(353.71 -50.4896 0)
(341.588 -47.1301 0)
(326.878 -45.4847 0)
(316.275 -42.8399 -1.56862e-16)
(304.007 -41.4674 1.00691e-16)
(294.529 -39.443 0)
(284.102 -38.4249 1.34492e-16)
(275.645 -37.0189 1.4891e-16)
(266.759 -36.3688 0)
(259.282 -35.4592 0)
(251.688 -35.0565 0)
(245.111 -34.4552 -2.15111e-16)
(238.585 -34.1576 -2.24402e-16)
(232.79 -33.7014 0)
(227.07 -33.3796 2.23835e-16)
(221.805 -32.9233 0)
(216.517 -32.4492 -2.0298e-16)
(211.471 -31.8774 0)
(206.349 -31.1846 -1.77517e-16)
(201.43 -30.4908 -1.67699e-16)
(196.469 -29.621 0)
(191.782 -28.9052 -1.55492e-16)
(187.082 -27.9591 0)
(182.767 -27.359 -1.49272e-16)
(178.405 -26.4205 -1.46448e-16)
(174.559 -26.0458 0)
(170.512 -25.1194 -1.39113e-16)
(167.168 -25.0242 1.34195e-16)
(163.294 -24.0263 -1.2795e-16)
(160.468 -24.2292 -1.21366e-16)
(156.51 -23.016 0)
(154.315 -23.5191 0)
(149.843 -21.914 -9.74326e-17)
(148.613 -22.6413 9.03701e-17)
(142.821 -19.901 8.29754e-17)
(100.025 1.75546 0)
(100.592 4.89386 -1.20852e-20)
(101.642 7.75505 7.72133e-17)
(103.095 10.0393 0)
(104.769 12.0257 6.76055e-17)
(106.651 13.8395 6.50525e-17)
(108.505 15.8686 6.45296e-17)
(110.288 18.2054 0)
(111.848 20.8086 0)
(113.205 23.4789 -7.26388e-17)
(114.365 25.9939 -7.74157e-17)
(115.409 28.1901 8.25067e-17)
(116.457 29.9274 0)
(117.641 31.1429 -1.46576e-21)
(119.203 31.7479 0)
(121.295 31.7975 9.04045e-17)
(124.04 31.4341 0)
(127.157 31.0317 1.58417e-16)
(130.468 30.7875 0)
(133.695 30.8489 -6.65243e-17)
(137.029 31.0553 6.19831e-17)
(140.343 31.4549 -5.84454e-17)
(143.926 31.8598 -5.57239e-17)
(147.51 32.437 5.32529e-17)
(151.457 32.9586 5.11355e-17)
(155.357 33.6912 4.89226e-17)
(159.733 34.3064 0)
(163.983 35.2021 4.48458e-17)
(168.872 35.9008 0)
(173.517 36.9843 -4.09321e-17)
(179.038 37.7623 -3.92994e-17)
(184.133 39.0743 3.717e-17)
(190.446 39.9271 0)
(196.057 41.523 -3.35283e-17)
(203.377 42.4454 3.22868e-17)
(209.577 44.3991 -2.99518e-17)
(218.195 45.3834 2.89314e-17)
(225.057 47.7864 -2.63405e-17)
(235.369 48.8251 -2.55804e-17)
(242.972 51.7942 2.25492e-17)
(255.493 52.922 -3.15783e-21)
(263.845 56.6951 0)
(279.234 58.1749 -3.09664e-21)
(288.402 63.1904 0)
(307.881 65.4568 3.06333e-21)
(318.509 71.8937 7.97982e-21)
(344.458 75.0047 0)
(358.405 81.7975 0)
(394.656 85.0636 0)
(414.069 89.5066 -7.68608e-19)
(463.224 93.7592 0)
(490.957 85.9062 7.8368e-18)
(556.269 89.3594 -1.24794e-18)
(604.377 2.70779 0)
(561.025 -43.3747 0)
(544.917 -56.4952 0)
(507.437 -62.9964 9.37943e-19)
(491.369 -62.2056 4.60252e-21)
(461.655 -64.3169 0)
(447.118 -62.4731 4.23499e-18)
(421.992 -62.3712 0)
(407.229 -58.4813 8.40708e-18)
(385.248 -56.4333 0)
(371.307 -52.2258 2.55703e-17)
(353.179 -50.205 0)
(341.081 -46.8581 -4.8889e-17)
(326.397 -45.2282 0)
(315.826 -42.5934 7.77441e-17)
(303.588 -41.2345 -8.19833e-21)
(294.145 -39.2188 0)
(283.755 -38.2145 1.33159e-16)
(275.34 -36.8186 -1.47212e-16)
(266.5 -36.1832 0)
(259.073 -35.285 0)
(251.527 -34.8965 0)
(244.996 -34.306 4.17525e-16)
(238.503 -34.0192 2.15876e-16)
(232.725 -33.569 2.15815e-16)
(227 -33.2498 -2.10996e-16)
(221.711 -32.791 0)
(216.384 -32.3116 1.88374e-16)
(211.298 -31.7332 0)
(206.141 -31.0346 0)
(201.2 -30.3374 1.55449e-16)
(196.228 -29.4662 0)
(191.543 -28.7521 2.89681e-16)
(186.853 -27.8093 0)
(182.559 -27.2148 -2.96093e-21)
(178.218 -26.2825 1.817e-22)
(174.4 -25.9151 0)
(170.376 -24.9953 1.29573e-16)
(167.058 -24.9061 0)
(163.202 -23.9138 0)
(160.394 -24.1193 1.13066e-16)
(156.448 -22.9115 0)
(154.261 -23.4109 0)
(149.798 -21.8143 0)
(148.56 -22.5253 0)
(142.792 -19.798 -7.87382e-17)
(100.024 1.73996 -8.71038e-17)
(100.585 4.85333 -8.25277e-17)
(101.626 7.6917 0)
(103.065 9.95986 0)
(104.726 11.9346 0)
(106.594 13.743 0)
(108.436 15.7731 0)
(110.207 18.1159 0)
(111.762 20.7282 6.86716e-17)
(113.118 23.408 1.45104e-16)
(114.282 25.9311 1.54603e-16)
(115.337 28.1324 0)
(116.402 29.8706 0)
(117.612 31.0813 -1.45281e-21)
(119.208 31.6754 0)
(121.336 31.7103 -8.98621e-17)
(124.108 31.3344 0)
(127.237 30.9263 -7.85108e-17)
(130.546 30.6824 0)
(133.771 30.7455 6.5885e-17)
(137.102 30.9524 -2.83427e-21)
(140.418 31.3506 0)
(144.003 31.7539 -5.52965e-17)
(147.59 32.3286 5.28798e-17)
(151.538 32.8481 0)
(155.441 33.5778 -4.86422e-17)
(159.818 34.191 -4.67484e-17)
(164.071 35.0834 -4.46311e-17)
(168.963 35.7799 0)
(173.61 36.8595 4.07579e-17)
(179.133 37.6351 2.81118e-21)
(184.231 38.9422 -3.70265e-17)
(190.546 39.7925 3.559e-17)
(196.161 41.3824 6.68149e-17)
(203.484 42.3021 3.2165e-17)
(209.686 44.2483 0)
(218.307 45.2298 0)
(225.172 47.6235 0)
(235.486 48.6594 0)
(243.092 51.617 -6.04904e-21)
(255.613 52.7427 -2.19708e-17)
(263.969 56.5024 1.83357e-17)
(279.359 57.9808 -1.84135e-17)
(288.542 62.9798 0)
(308.031 65.2434 2.98223e-21)
(318.698 71.6583 1.00612e-17)
(344.672 74.7592 0)
(358.679 81.5209 0)
(394.925 84.7632 0)
(414.348 89.1666 0)
(463.412 93.3716 5.43379e-18)
(491.136 85.4805 0)
(556.18 88.8156 -7.69507e-22)
(604.133 2.69105 0)
(561.106 -43.1305 0)
(545.107 -56.266 0)
(507.624 -62.7613 0)
(491.481 -61.9764 4.49784e-21)
(461.641 -64.0757 7.61418e-18)
(446.951 -62.2155 -4.1661e-18)
(421.671 -62.09 -1.60916e-17)
(406.794 -58.1846 -8.28508e-18)
(384.743 -56.1316 -2.79403e-17)
(370.782 -51.9296 -5.05175e-17)
(352.66 -49.9225 0)
(340.588 -46.5888 1.67045e-20)
(325.933 -44.9747 -6.97066e-17)
(315.396 -42.3502 0)
(303.189 -41.005 -9.87437e-17)
(293.782 -38.9984 0)
(283.43 -38.008 -2.63044e-16)
(275.06 -36.6227 1.50821e-20)
(266.267 -36.0022 1.65259e-16)
(258.89 -35.1156 0)
(251.392 -34.741 0)
(244.903 -34.1608 -2.01513e-16)
(238.44 -33.8838 -2.06446e-16)
(232.674 -33.4385 -2.04297e-16)
(226.938 -33.1207 0)
(221.621 -32.6588 -1.86683e-16)
(216.255 -32.1737 0)
(211.132 -31.5893 0)
(205.944 -30.8856 -1.518e-16)
(200.985 -30.1857 0)
(196.004 -29.3139 0)
(191.324 -28.602 -1.34921e-16)
(186.645 -27.6628 0)
(182.371 -27.0742 1.30037e-16)
(178.052 -26.1481 2.55013e-16)
(174.261 -25.7878 0)
(170.259 -24.8745 1.20755e-16)
(166.965 -24.7909 -1.16413e-16)
(163.125 -23.8041 0)
(160.334 -24.0115 0)
(156.397 -22.8091 0)
(154.217 -23.304 0)
(149.761 -21.7161 -8.62359e-17)
(148.515 -22.4104 -8.08992e-17)
(142.77 -19.6966 0)
(100.023 1.72465 8.71574e-17)
(100.578 4.81322 8.259e-17)
(101.609 7.62896 0)
(103.035 9.88111 0)
(104.684 11.8442 -6.76841e-17)
(106.538 13.6473 6.50699e-17)
(108.367 15.6784 -6.44913e-17)
(110.128 18.027 0)
(111.677 20.6483 -6.86111e-17)
(113.032 23.3373 -7.2467e-17)
(114.201 25.8683 -7.71895e-17)
(115.267 28.0745 8.21994e-17)
(116.35 29.8134 0)
(117.586 31.019 -9.02566e-17)
(119.215 31.602 0)
(121.378 31.6222 0)
(124.177 31.2342 -8.44907e-17)
(127.316 30.8207 0)
(130.625 30.5772 0)
(133.845 30.642 0)
(137.176 30.8493 -1.21785e-16)
(140.493 31.2462 0)
(144.08 31.6477 5.49058e-17)
(147.669 32.22 -5.25402e-17)
(151.62 32.7375 0)
(155.524 33.4644 0)
(159.904 34.0754 4.65205e-17)
(164.158 34.9646 0)
(169.053 35.6588 0)
(173.703 36.7345 -3.59715e-21)
(179.229 37.5077 7.80099e-17)
(184.329 38.8101 3.903e-21)
(190.648 39.6578 -3.5471e-17)
(196.265 41.2417 -3.32934e-17)
(203.591 42.1587 -2.86552e-21)
(209.796 44.0974 -2.97191e-17)
(218.42 45.0762 0)
(225.288 47.4605 0)
(235.604 48.4937 0)
(243.213 51.4399 -2.23233e-17)
(255.734 52.5635 2.18511e-17)
(264.095 56.3098 -1.82311e-17)
(279.485 57.7869 1.82947e-17)
(288.684 62.7694 0)
(308.184 65.03 2.90339e-21)
(318.889 71.4227 0)
(344.888 74.5132 0)
(358.954 81.2435 -5.36824e-18)
(395.192 84.4621 -9.66125e-18)
(414.625 88.8263 0)
(463.599 92.9843 -7.29281e-21)
(491.316 85.0559 0)
(556.092 88.2741 1.23597e-18)
(603.887 2.67361 1.13019e-18)
(561.177 -42.8869 0)
(545.284 -56.0355 0)
(507.797 -62.5238 0)
(491.579 -61.7442 -1.34322e-17)
(461.615 -63.8314 -7.49363e-18)
(446.775 -61.9552 -4.11213e-18)
(421.346 -61.8068 1.58382e-17)
(406.36 -57.8871 8.14287e-18)
(384.244 -55.8303 2.75584e-17)
(370.267 -51.6351 1.38198e-20)
(352.154 -49.6424 4.51908e-17)
(340.111 -46.3223 4.77826e-17)
(325.487 -44.7243 6.88701e-17)
(314.984 -42.1103 0)
(302.81 -40.779 0)
(293.441 -38.7818 0)
(283.129 -37.8057 2.5907e-16)
(274.805 -36.4313 1.42628e-16)
(266.06 -35.8257 -1.61817e-16)
(258.734 -34.9507 0)
(251.283 -34.5898 0)
(244.833 -34.0193 0)
(238.394 -33.751 3.92482e-16)
(232.634 -33.3095 0)
(226.883 -32.992 -1.84368e-16)
(221.535 -32.5264 1.72833e-16)
(216.131 -32.0358 0)
(210.973 -31.4458 -1.4939e-16)
(205.758 -30.7376 -1.81097e-21)
(200.783 -30.0358 0)
(195.798 -29.164 1.28815e-16)
(191.123 -28.4547 -1.2573e-16)
(186.457 -27.5196 0)
(182.203 -26.937 0)
(177.905 -26.0173 -1.19027e-16)
(174.14 -25.6638 1.16318e-16)