/*--------------------------------*- C++ -*----------------------------------*\
| =========                 |                                                 |
| \\      /  F ield         | OpenFOAM: The Open Source CFD Toolbox           |
|  \\    /   O peration     | Version:  2412                                  |
|   \\  /    A nd           | Website:  www.openfoam.com                      |
|    \\/     M anipulation  |                                                 |
\*---------------------------------------------------------------------------*/
FoamFile
{
    version     2.0;
    format      ascii;
    arch        "LSB;label=32;scalar=64";
    class       volScalarField;
    location    "0.6";
    object      epsilon;
}
// * * * * * * * * * * * * * * * * * * * * * * * * * * * * * * * * * * * * * //

dimensions      [0 2 -3 0 0 0 0];

internalField   nonuniform List<scalar> 
13068
(
380.891
390.943
418.117
480.756
596.195
762.485
951.766
1127.41
1265.99
1357.55
1396.28
1383.04
1332.79
1271.94
1221.96
1192.3
1181.55
1186.15
1201.55
1226.13
1257.29
1295.84
1339.87
1391.98
1449.91
1518.14
1593.13
1682.15
1779.3
1896.35
2023.28
2179.48
2347.79
2560.83
2788.77
3088.11
3407.43
3847.77
4322.41
5017.56
5785.18
6957.69
8243.3
10174
12108.7
14777.4
16991.3
19934.7
22464.1
25716.3
28608.5
25707.3
25570.7
16602.2
11684.9
10057
10730.5
10982.6
11035.1
9946.01
8906.28
7629.65
6726.57
5826.52
5184.04
4561.72
4118.43
3717.62
3442.13
3200.33
3033.29
2880.57
2763.1
2644.49
2537.74
2423.14
2308.86
2186.62
2063.48
1939.7
1820.68
1709.67
1608.24
1519.67
1441.13
1375.33
1315.92
1266.53
1218.64
1178.4
1135.54
1099.42
1057.92
1023.31
982.118
947.707
907.878
875.267
830.052
380.814
390.701
417.498
479.396
593.737
758.911
947.549
1123.31
1262.62
1355.14
1394.79
1382.44
1333.11
1273.1
1223.71
1194.34
1183.64
1188.18
1203.46
1227.93
1258.99
1297.47
1341.46
1393.56
1451.5
1519.76
1594.81
1683.91
1781.16
1898.34
2025.41
2181.81
2350.33
2563.65
2791.93
3091.73
3411.63
3852.73
4328.27
5024.52
5793.22
6966.72
8252.99
10183.8
12118.6
14787.2
17003.4
19946.9
22475.1
25703.9
28565.4
25621.9
25388
16435.4
11559.7
9967.06
10664.2
10936.8
11005.3
9929.51
8898.98
7627.91
6727.51
5828.53
5186.61
4564.67
4121.66
3720.87
3445.22
3203.07
3035.61
2882.45
2764.59
2645.63
2538.62
2423.85
2309.5
2187.27
2064.21
1940.54
1821.63
1710.71
1609.33
1520.76
1442.16
1376.26
1316.7
1267.14
1219.08
1178.63
1135.58
1099.22
1057.49
1022.58
981.105
946.307
906.098
873
827.492
380.738
390.461
416.885
478.045
591.295
755.356
943.355
1119.23
1259.28
1352.77
1393.34
1381.88
1333.47
1274.29
1225.48
1196.38
1185.73
1190.21
1205.37
1229.73
1260.69
1299.11
1343.05
1395.15
1453.09
1521.39
1596.49
1685.68
1783.03
1900.33
2027.56
2184.14
2352.88
2566.48
2795.1
3095.37
3415.83
3857.69
4334.14
5031.47
5801.27
6975.75
8262.69
10193.6
12128.6
14797.1
17015.5
19959.1
22486.1
25691.6
28522.4
25537.1
25206.9
16271.1
11437.2
9879.02
10598.5
10890.9
10975.2
9912.61
8891.36
7625.96
6728.3
5830.44
5189.09
4567.54
4124.83
3724.09
3448.29
3205.79
3037.92
2884.33
2766.07
2646.77
2539.51
2424.57
2310.15
2187.93
2064.95
1941.38
1822.58
1711.75
1610.42
1521.84
1443.19
1377.18
1317.49
1267.77
1219.52
1178.87
1135.62
1099.03
1057.07
1021.86
980.108
944.926
904.342
870.764
824.969
380.663
390.225
416.279
476.707
588.872
751.824
939.19
1115.19
1255.97
1350.43
1391.92
1381.35
1333.85
1275.49
1227.25
1198.43
1187.83
1192.23
1207.28
1231.53
1262.4
1300.74
1344.65
1396.73
1454.68
1523.02
1598.17
1687.44
1784.89
1902.32
2029.69
2186.47
2355.42
2569.3
2798.26
3098.98
3420.01
3862.64
4339.98
5038.39
5809.27
6984.73
8272.34
10203.4
12138.5
14806.9
17027.6
19971.2
22496.8
25679.2
28479.4
25452.6
25027.2
16108.9
11317.2
9792.58
10533.3
10844.8
10944.5
9895.18
8883.33
7623.7
6728.86
5832.17
5191.43
4570.31
4127.92
3727.25
3451.3
3208.47
3040.2
2886.18
2767.53
2647.89
2540.39
2425.28
2310.79
2188.58
2065.68
1942.22
1823.53
1712.79
1611.51
1522.92
1444.21
1378.1
1318.27
1268.38
1219.96
1179.12
1135.66
1098.84
1056.65
1021.15
979.118
943.558
902.603
868.554
822.476
380.589
389.992
415.679
475.382
586.469
748.32
935.055
1111.18
1252.7
1348.12
1390.54
1380.84
1334.24
1276.7
1229.03
1200.47
1189.92
1194.25
1209.19
1233.32
1264.09
1302.37
1346.23
1398.3
1456.27
1524.64
1599.85
1689.19
1786.74
1904.3
2031.82
2188.78
2357.94
2572.11
2801.39
3102.58
3424.16
3867.54
4345.78
5045.26
5817.21
6993.63
8281.9
10213.1
12148.3
14816.7
17039.5
19983
22507.2
25666.5
28436.2
25368.4
24848.7
15948.6
11199.3
9707.53
10468.4
10798.4
10913.3
9877.19
8874.85
7621.11
6729.17
5833.71
5193.61
4572.94
4130.9
3730.32
3454.25
3211.1
3042.44
2887.99
2768.95
2648.99
2541.23
2425.97
2311.42
2189.22
2066.39
1943.04
1824.47
1713.81
1612.58
1523.99
1445.22
1379.01
1319.04
1268.99
1220.39
1179.35
1135.7
1098.65
1056.24
1020.45
978.135
942.199
900.88
866.366
820.012
380.516
389.762
415.087
474.071
584.087
744.842
930.951
1107.21
1249.47
1345.84
1389.17
1380.36
1334.65
1277.92
1230.8
1202.51
1192
1196.27
1211.09
1235.11
1265.78
1303.99
1347.81
1399.87
1457.84
1526.25
1601.51
1690.94
1788.58
1906.27
2033.92
2191.07
2360.44
2574.89
2804.51
3106.14
3428.28
3872.41
4351.53
5052.07
5825.08
7002.45
8291.37
10222.6
12158
14826.3
17051.2
19994.6
22517.2
25653.4
28392.7
25284.3
24671.2
15790.1
11083.4
9623.69
10403.7
10751.5
10881.4
9858.62
8865.89
7618.18
6729.22
5835.04
5195.62
4575.44
4133.76
3733.3
3457.12
3213.68
3044.64
2889.76
2770.34
2650.05
2542.06
2426.63
2312.02
2189.84
2067.09
1943.85
1825.38
1714.82
1613.63
1525.04
1446.21
1379.91
1319.8
1269.59
1220.81
1179.58
1135.74
1098.46
1055.83
1019.74
977.156
940.85
899.17
864.199
817.574
380.444
389.535
414.502
472.774
581.727
741.392
926.879
1103.27
1246.27
1343.6
1387.84
1379.89
1335.08
1279.15
1232.58
1204.55
1194.08
1198.27
1212.98
1236.88
1267.46
1305.6
1349.38
1401.43
1459.4
1527.85
1603.16
1692.67
1790.4
1908.22
2036.02
2193.35
2362.92
2577.65
2807.59
3109.68
3432.36
3877.23
4357.22
5058.81
5832.86
7011.18
8300.74
10232.1
12167.5
14835.7
17062.7
20005.9
22526.8
25640
28349
25200.4
24494.8
15633.3
10969.2
9540.9
10339.2
10704.2
10848.9
9839.46
8856.47
7614.89
6729
5836.16
5197.46
4577.79
4136.5
3736.18
3459.92
3216.2
3046.78
2891.5
2771.7
2651.08
2542.85
2427.27
2312.6
2190.44
2067.77
1944.63
1826.28
1715.8
1614.66
1526.07
1447.19
1380.79
1320.55
1270.19
1221.23
1179.81
1135.77
1098.26
1055.41
1019.04
976.181
939.509
897.472
862.052
815.162
380.373
389.311
413.924
471.49
579.388
737.97
922.839
1099.36
1243.1
1341.38
1386.53
1379.45
1335.52
1280.38
1234.35
1206.57
1196.15
1200.27
1214.86
1238.65
1269.13
1307.21
1350.94
1402.97
1460.96
1529.44
1604.8
1694.38
1792.21
1910.15
2038.09
2195.61
2365.38
2580.38
2810.65
3113.18
3436.41
3882.01
4362.87
5065.49
5840.57
7019.81
8310
10241.4
12177
14845.1
17074
20016.9
22536
25626.3
28305.1
25116.6
24319.4
15478.1
10856.7
9459.02
10274.6
10656.4
10815.8
9819.7
8846.58
7611.25
6728.51
5837.07
5199.13
4580
4139.13
3738.97
3462.65
3218.65
3048.87
2893.18
2773.01
2652.08
2543.61
2427.89
2313.16
2191.02
2068.42
1945.4
1827.15
1716.76
1615.67
1527.08
1448.15
1381.66
1321.29
1270.77
1221.64
1180.03
1135.8
1098.06
1054.99
1018.34
975.209
938.175
895.787
859.925
812.774
380.303
389.09
413.353
470.22
577.07
734.575
918.831
1095.49
1239.97
1339.2
1385.25
1379.03
1335.98
1281.62
1236.12
1208.59
1198.21
1202.25
1216.73
1240.41
1270.79
1308.8
1352.5
1404.51
1462.5
1531.01
1606.43
1696.09
1794.01
1912.07
2040.15
2197.84
2367.82
2583.09
2813.68
3116.65
3440.42
3886.74
4368.45
5072.1
5848.2
7028.35
8319.15
10250.7
12186.3
14854.2
17085.1
20027.6
22544.8
25612.3
28260.9
25033.1
24145.1
15324.3
10745.8
9377.93
10210
10608.1
10782
9799.37
8836.23
7607.27
6727.76
5837.77
5200.62
4582.07
4141.65
3741.67
3465.3
3221.05
3050.92
2894.83
2774.28
2653.04
2544.34
2428.47
2313.69
2191.57
2069.06
1946.14
1828
1717.71
1616.66
1528.08
1449.1
1382.51
1322.01
1271.34
1222.04
1180.24
1135.82
1097.86
1054.58
1017.64
974.24
936.849
894.114
857.817
810.411
380.234
388.873
412.789
468.964
574.774
731.208
914.855
1091.65
1236.87
1337.05
1383.99
1378.63
1336.45
1282.86
1237.89
1210.61
1200.26
1204.23
1218.59
1242.16
1272.45
1310.39
1354.04
1406.04
1464.04
1532.58
1608.04
1697.78
1795.79
1913.98
2042.19
2200.06
2370.24
2585.77
2816.67
3120.08
3444.39
3891.43
4373.98
5078.64
5855.74
7036.79
8328.19
10259.8
12195.4
14863.2
17095.9
20038
22553.2
25597.9
28216.5
24949.7
23971.7
15171.9
10636.1
9297.49
10145.2
10559.3
10747.5
9778.46
8825.43
7602.96
6726.76
5838.27
5201.94
4583.99
4144.04
3744.27
3467.87
3223.38
3052.91
2896.42
2775.52
2653.96
2545.04
2429.03
2314.2
2192.1
2069.67
1946.86
1828.84
1718.63
1617.64
1529.05
1450.02
1383.35
1322.73
1271.9
1222.43
1180.44
1135.84
1097.66
1054.16
1016.94
973.275
935.53
892.453
855.727
808.071
380.167
388.658
412.232
467.721
572.499
727.868
910.911
1087.85
1233.81
1334.93
1382.77
1378.26
1336.93
1284.11
1239.65
1212.61
1202.3
1206.2
1220.45
1243.9
1274.09
1311.96
1355.57
1407.56
1465.56
1534.13
1609.64
1699.45
1797.55
1915.86
2044.21
2202.26
2372.63
2588.43
2819.64
3123.48
3448.32
3896.07
4379.45
5085.11
5863.2
7045.13
8337.11
10268.7
12204.5
14872.1
17106.6
20048.2
22561.2
25583.2
28171.9
24866.6
23799.4
15020.9
10527.7
9217.59
10080.3
10509.9
10712.5
9756.99
8814.19
7598.31
6725.49
5838.57
5203.1
4585.78
4146.32
3746.78
3470.38
3225.66
3054.85
2897.98
2776.71
2654.86
2545.71
2429.56
2314.68
2192.61
2070.27
1947.56
1829.65
1719.53
1618.59
1530.01
1450.94
1384.17
1323.43
1272.45
1222.82
1180.64
1135.85
1097.45
1053.73
1016.24
972.312
934.218
890.803
853.656
805.754
380.1
388.446
411.682
466.492
570.245
724.556
906.999
1084.09
1230.78
1332.85
1381.57
1377.9
1337.43
1285.36
1241.42
1214.61
1204.33
1208.16
1222.29
1245.63
1275.73
1313.53
1357.09
1409.06
1467.07
1535.68
1611.23
1701.12
1799.3
1917.73
2046.21
2204.43
2375
2591.06
2822.58
3126.85
3452.21
3900.66
4384.86
5091.5
5870.57
7053.37
8345.93
10277.6
12213.4
14880.8
17117
20058
22568.8
25568.2
28127.2
24783.7
23628
14871.1
10420.4
9138.12
10015.1
10459.9
10676.7
9734.98
8802.52
7593.34
6723.98
5838.67
5204.1
4587.44
4148.49
3749.2
3472.8
3227.87
3056.74
2899.49
2777.87
2655.71
2546.35
2430.07
2315.14
2193.1
2070.84
1948.24
1830.43
1720.41
1619.52
1530.95
1451.83
1384.98
1324.11
1272.98
1223.19
1180.83
1135.86
1097.24
1053.31
1015.54
971.351
932.912
889.163
851.601
803.46
380.034
388.237
411.139
465.275
568.012
721.272
903.119
1080.35
1227.79
1330.79
1380.39
1377.57
1337.94
1286.62
1243.18
1216.61
1206.36
1210.11
1224.13
1247.35
1277.35
1315.09
1358.61
1410.56
1468.57
1537.21
1612.81
1702.77
1801.04
1919.59
2048.19
2206.59
2377.35
2593.67
2825.49
3130.18
3456.05
3905.2
4390.22
5097.83
5877.86
7061.51
8354.63
10286.3
12222.1
14889.3
17127.3
20067.6
22576.1
25553
28082.3
24701.1
23457.7
14722.5
10314.2
9058.99
9949.59
10409.3
10640.4
9712.42
8790.43
7588.06
6722.23
5838.57
5204.93
4588.96
4150.55
3751.53
3475.15
3230.02
3058.58
2900.95
2778.99
2656.53
2546.96
2430.54
2315.58
2193.57
2071.39
1948.89
1831.2
1721.27
1620.43
1531.87
1452.71
1385.78
1324.79
1273.51
1223.56
1181.02
1135.86
1097.02
1052.88
1014.84
970.393
931.613
887.534
849.564
801.187
379.969
388.03
410.602
464.072
565.8
718.015
899.272
1076.66
1224.83
1328.77
1379.24
1377.26
1338.47
1287.88
1244.94
1218.59
1208.37
1212.05
1225.95
1249.06
1278.97
1316.63
1360.11
1412.05
1470.06
1538.72
1614.37
1704.4
1802.76
1921.42
2050.16
2208.72
2379.67
2596.24
2828.37
3133.48
3459.86
3909.69
4395.51
5104.08
5885.06
7069.55
8363.21
10294.9
12230.7
14897.7
17137.3
20076.8
22582.9
25537.4
28037.2
24618.8
23288.4
14575
10208.8
8980.11
9883.76
10358.1
10603.4
9689.35
8777.94
7582.48
6720.24
5838.29
5205.61
4590.35
4152.49
3753.76
3477.43
3232.11
3060.36
2902.37
2780.07
2657.32
2547.54
2431
2315.99
2194.01
2071.91
1949.53
1831.95
1722.1
1621.32
1532.77
1453.57
1386.55
1325.45
1274.03
1223.92
1181.19
1135.85
1096.8
1052.45
1014.14
969.438
930.319
885.915
847.543
798.936
379.905
387.827
410.073
462.883
563.609
714.786
895.456
1072.99
1221.91
1326.77
1378.12
1376.97
1339
1289.15
1246.69
1220.57
1210.38
1213.98
1227.77
1250.76
1280.57
1318.17
1361.6
1413.52
1471.54
1540.23
1615.92
1706.02
1804.46
1923.24
2052.1
2210.83
2381.97
2598.79
2831.22
3136.74
3463.62
3914.13
4400.74
5110.26
5892.17
7077.48
8371.67
10303.4
12239.2
14905.9
17147
20085.8
22589.4
25521.6
27992
24536.7
23120.1
14428.7
10104.3
8901.4
9817.55
10306.4
10565.8
9665.77
8765.07
7576.6
6718.02
5837.83
5206.13
4591.6
4154.33
3755.91
3479.63
3234.14
3062.1
2903.75
2781.11
2658.07
2548.08
2431.42
2316.38
2194.43
2072.42
1950.14
1832.67
1722.92
1622.2
1533.65
1454.41
1387.32
1326.09
1274.53
1224.26
1181.36
1135.84
1096.58
1052.02
1013.44
968.485
929.032
884.307
845.539
796.705
379.842
387.626
409.55
461.706
561.439
711.584
891.673
1069.37
1219.02
1324.81
1377.03
1376.69
1339.55
1290.42
1248.44
1222.54
1212.37
1215.9
1229.57
1252.46
1282.17
1319.7
1363.08
1414.98
1473.01
1541.72
1617.46
1707.63
1806.15
1925.04
2054.03
2212.92
2384.24
2601.31
2834.03
3139.96
3467.34
3918.52
4405.92
5116.37
5899.19
7085.31
8380.02
10311.7
12247.5
14913.9
17156.6
20094.5
22595.6
25505.6
27946.7
24455
22952.9
14283.5
10000.5
8822.78
9750.93
10254
10527.7
9641.71
8751.81
7570.43
6715.58
5837.19
5206.5
4592.74
4156.06
3757.97
3481.76
3236.12
3063.79
2905.09
2782.11
2658.79
2548.6
2431.82
2316.74
2194.83
2072.9
1950.73
1833.37
1723.71
1623.05
1534.51
1455.24
1388.06
1326.73
1275.03
1224.6
1181.52
1135.83
1096.35
1051.59
1012.74
967.533
927.751
882.708
843.551
794.494
379.78
387.429
409.033
460.543
559.29
708.411
887.922
1065.78
1216.17
1322.88
1375.96
1376.44
1340.12
1291.69
1250.19
1224.5
1214.36
1217.81
1231.37
1254.14
1283.76
1321.21
1364.55
1416.44
1474.46
1543.21
1618.98
1709.22
1807.82
1926.82
2055.94
2214.99
2386.49
2603.81
2836.81
3143.15
3471.02
3922.86
4411.02
5122.4
5906.12
7093.04
8388.25
10320
12255.7
14921.8
17166
20103
22601.3
25489.3
27901.4
24373.7
22786.8
14139.3
9897.35
8744.18
9683.87
10201
10489
9617.19
8738.21
7564
6712.93
5836.37
5206.73
4593.75
4157.69
3759.94
3483.82
3238.03
3065.42
2906.38
2783.07
2659.48
2549.09
2432.19
2317.08
2195.2
2073.36
1951.3
1834.05
1724.48
1623.88
1535.36
1456.05
1388.8
1327.35
1275.51
1224.93
1181.68
1135.81
1096.12
1051.15
1012.04
966.584
926.476
881.118
841.578
792.303
379.719
387.233
408.523
459.393
557.161
705.264
884.204
1062.22
1213.35
1320.98
1374.92
1376.22
1340.69
1292.97
1251.93
1226.46
1216.34
1219.71
1233.15
1255.81
1285.33
1322.72
1366.02
1417.88
1475.9
1544.67
1620.49
1710.8
1809.48
1928.59
2057.82
2217.04
2388.71
2606.27
2839.57
3146.29
3474.66
3927.15
4416.07
5128.35
5912.96
7100.66
8396.35
10328
12263.7
14929.5
17175.1
20111.1
22606.8
25472.8
27856
24292.7
22621.8
13996.1
9794.84
8665.55
9616.36
10147.5
10449.7
9592.22
8724.26
7557.3
6710.07
5835.39
5206.82
4594.64
4159.21
3761.83
3485.81
3239.88
3067.01
2907.63
2783.99
2660.13
2549.55
2432.53
2317.4
2195.55
2073.8
1951.85
1834.71
1725.23
1624.69
1536.18
1456.84
1389.52
1327.96
1275.98
1225.25
1181.83
1135.78
1095.88
1050.72
1011.34
965.637
925.206
879.538
839.62
790.132
379.659
387.041
408.02
458.255
555.054
702.145
880.518
1058.7
1210.56
1319.12
1373.91
1376.01
1341.28
1294.25
1253.67
1228.4
1218.3
1221.59
1234.92
1257.47
1286.9
1324.22
1367.46
1419.31
1477.33
1546.13
1621.99
1712.36
1811.12
1930.33
2059.69
2219.06
2390.91
2608.71
2842.28
3149.41
3478.25
3931.38
4421.06
5134.23
5919.71
7108.17
8404.34
10336
12271.6
14937
17184
20119
22611.9
25456.1
27810.5
24212.2
22458
13854
9692.88
8586.83
9548.38
10093.4
10410
9566.84
8709.98
7550.35
6707.02
5834.25
5206.78
4595.42
4160.64
3763.63
3487.73
3241.68
3068.55
2908.83
2784.88
2660.75
2549.98
2432.85
2317.69
2195.88
2074.21
1952.37
1835.34
1725.96
1625.47
1536.99
1457.62
1390.22
1328.55
1276.44
1225.56
1181.97
1135.75
1095.64
1050.28
1010.64
964.691
923.941
877.967
837.676
787.979
379.599
386.851
407.523
457.13
552.967
699.054
876.865
1055.21
1207.82
1317.28
1372.92
1375.82
1341.88
1295.53
1255.41
1230.34
1220.26
1223.47
1236.69
1259.12
1288.45
1325.7
1368.9
1420.73
1478.75
1547.57
1623.47
1713.9
1812.74
1932.06
2061.53
2221.06
2393.08
2611.11
2844.97
3152.48
3481.79
3935.57
4425.98
5140.03
5926.37
7115.57
8412.21
10343.8
12279.3
14944.4
17192.8
20126.7
22616.6
25439.1
27765
24132.1
22295.3
13712.9
9591.42
8507.98
9479.92
10038.8
10369.7
9541.07
8695.41
7543.17
6703.77
5832.95
5206.6
4596.08
4161.97
3765.35
3489.59
3243.42
3070.04
2910
2785.74
2661.34
2550.38
2433.15
2317.96
2196.19
2074.61
1952.87
1835.96
1726.67
1626.24
1537.77
1458.38
1390.91
1329.14
1276.89
1225.87
1182.1
1135.71
1095.4
1049.83
1009.94
963.747
922.682
876.405
835.748
785.845
379.541
386.664
407.032
456.019
550.9
695.991
873.244
1051.76
1205.1
1315.48
1371.96
1375.65
1342.5
1296.81
1257.14
1232.27
1222.2
1225.34
1238.44
1260.76
1290
1327.17
1370.33
1422.14
1480.16
1549
1624.94
1715.43
1814.35
1933.77
2063.36
2223.04
2395.23
2613.49
2847.62
3155.51
3485.3
3939.7
4430.84
5145.75
5932.94
7122.87
8419.95
10351.5
12286.9
14951.7
17201.3
20134.1
22621.1
25422
27719.6
24052.4
22133.9
13572.8
9490.42
8428.96
9410.99
9983.59
10329
9514.93
8680.55
7535.76
6700.35
5831.51
5206.3
4596.64
4163.21
3767
3491.37
3245.11
3071.48
2911.12
2786.55
2661.89
2550.76
2433.42
2318.2
2196.48
2074.98
1953.36
1836.55
1727.35
1626.99
1538.54
1459.12
1391.58
1329.71
1277.33
1226.16
1182.22
1135.66
1095.15
1049.39
1009.24
962.805
921.428
874.851
833.833
783.729
379.483
386.48
406.548
454.919
548.855
692.955
869.655
1048.34
1202.42
1313.7
1371.02
1375.5
1343.12
1298.1
1258.86
1234.19
1224.14
1227.19
1240.18
1262.39
1291.53
1328.64
1371.75
1423.53
1481.55
1550.42
1626.39
1716.95
1815.94
1935.46
2065.16
2224.99
2397.35
2615.84
2850.24
3158.51
3488.75
3943.77
4435.63
5151.4
5939.42
7130.07
8427.57
10359
12294.3
14958.7
17209.6
20141.2
22625.2
25404.8
27674.2
23973.3
21973.7
13433.7
9389.84
8349.74
9341.57
9927.92
10287.9
9488.45
8665.42
7528.14
6696.75
5829.93
5205.88
4597.09
4164.35
3768.56
3493.09
3246.74
3072.88
2912.2
2787.34
2662.42
2551.11
2433.66
2318.43
2196.74
2075.34
1953.82
1837.12
1728.02
1627.72
1539.29
1459.84
1392.24
1330.26
1277.76
1226.44
1182.34
1135.61
1094.9
1048.94
1008.54
961.865
920.179
873.307
831.933
781.631
379.426
386.298
406.07
453.833
546.83
689.946
866.099
1044.96
1199.78
1311.96
1370.11
1375.37
1343.76
1299.39
1260.58
1236.09
1226.06
1229.04
1241.91
1264
1293.05
1330.09
1373.15
1424.92
1482.93
1551.82
1627.83
1718.45
1817.51
1937.13
2066.94
2226.92
2399.45
2618.16
2852.82
3161.47
3492.17
3947.8
4440.36
5156.97
5945.8
7137.15
8435.08
10366.4
12301.6
14965.6
17217.7
20148.1
22629.1
25387.4
27628.8
23894.6
21814.8
13295.7
9289.65
8270.3
9271.69
9871.78
10246.4
9461.66
8650.05
7520.33
6693
5828.21
5205.34
4597.45
4165.41
3770.05
3494.75
3248.31
3074.23
2913.25
2788.08
2662.92
2551.43
2433.89
2318.63
2196.99
2075.67
1954.26
1837.67
1728.66
1628.43
1540.02
1460.55
1392.88
1330.81
1278.18
1226.72
1182.45
1135.56
1094.64
1048.49
1007.84
960.927
918.936
871.77
830.046
779.55
379.371
386.119
405.598
452.759
544.825
686.965
862.576
1041.62
1197.16
1310.24
1369.22
1375.26
1344.4
1300.69
1262.3
1237.99
1227.97
1230.87
1243.63
1265.61
1294.56
1331.53
1374.54
1426.29
1484.3
1553.21
1629.25
1719.93
1819.06
1938.79
2068.71
2228.83
2401.51
2620.45
2855.37
3164.39
3495.53
3951.77
4445.03
5162.46
5952.1
7144.13
8442.46
10373.7
12308.8
14972.4
17225.6
20154.7
22632.6
25369.8
27583.5
23816.5
21657.3
13158.7
9189.83
8190.61
9201.36
9815.19
10204.5
9434.58
8634.45
7512.34
6689.09
5826.37
5204.7
4597.71
4166.39
3771.47
3496.35
3249.84
3075.54
2914.26
2788.8
2663.38
2551.73
2434.08
2318.81
2197.21
2075.98
1954.67
1838.2
1729.29
1629.12
1540.74
1461.24
1393.51
1331.34
1278.58
1226.99
1182.56
1135.5
1094.38
1048.04
1007.14
959.99
917.697
870.243
828.173
777.486
379.315
385.942
405.133
451.698
542.841
684.012
859.086
1038.31
1194.59
1308.56
1368.36
1375.17
1345.06
1301.98
1264.01
1239.89
1229.87
1232.69
1245.33
1267.21
1296.06
1332.96
1375.93
1427.65
1485.66
1554.59
1630.66
1721.4
1820.6
1940.42
2070.45
2230.71
2403.56
2622.71
2857.89
3167.27
3498.86
3955.68
4449.63
5167.88
5958.3
7151
8449.72
10380.9
12315.8
14979
17233.3
20161.1
22635.9
25352.2
27538.4
23739
21501.1
13022.8
9090.37
8110.68
9130.58
9758.2
10162.3
9407.25
8618.65
7504.17
6685.04
5824.41
5203.95
4597.88
4167.29
3772.82
3497.88
3251.31
3076.8
2915.23
2789.48
2663.82
2552
2434.26
2318.97
2197.41
2076.27
1955.07
1838.71
1729.89
1629.79
1541.43
1461.92
1394.12
1331.86
1278.98
1227.24
1182.66
1135.43
1094.12
1047.58
1006.44
959.055
916.464
868.723
826.313
775.44
379.261
385.768
404.673
450.649
540.878
681.087
855.628
1035.03
1192.04
1306.91
1367.53
1375.1
1345.73
1303.27
1265.71
1241.77
1231.76
1234.5
1247.03
1268.79
1297.55
1334.38
1377.3
1428.99
1487
1555.95
1632.06
1722.85
1822.12
1942.03
2072.17
2232.57
2405.57
2624.94
2860.37
3170.11
3502.14
3959.55
4454.17
5173.22
5964.41
7157.76
8456.87
10387.9
12322.7
14985.4
17240.9
20167.3
22638.9
25334.4
27493.3
23662.1
21346.4
12887.9
8991.25
8030.49
9059.39
9700.83
10119.8
9379.69
8602.67
7495.86
6680.87
5822.34
5203.11
4597.96
4168.11
3774.1
3499.36
3252.74
3078.02
2916.16
2790.13
2664.24
2552.24
2434.42
2319.11
2197.6
2076.54
1955.45
1839.2
1730.48
1630.44
1542.11
1462.57
1394.72
1332.37
1279.37
1227.49
1182.75
1135.36
1093.85
1047.13
1005.74
958.122
915.235
867.212
824.467
773.409
379.208
385.596
404.22
449.613
538.935
678.189
852.202
1031.79
1189.53
1305.28
1366.72
1375.04
1346.4
1304.57
1267.41
1243.64
1233.64
1236.29
1248.71
1270.36
1299.02
1335.78
1378.65
1430.33
1488.33
1557.29
1633.44
1724.28
1823.62
1943.63
2073.87
2234.41
2407.56
2627.14
2862.82
3172.92
3505.37
3963.36
4458.64
5178.48
5970.43
7164.42
8463.89
10394.8
12329.4
14991.7
17248.2
20173.2
22641.6
25316.6
27448.4
23585.8
21193.1
12754.2
8892.47
7950.04
8987.82
9643.13
10077
9351.94
8586.53
7487.4
6676.57
5820.16
5202.17
4597.96
4168.85
3775.32
3500.78
3254.11
3079.2
2917.06
2790.75
2664.62
2552.47
2434.55
2319.23
2197.76
2076.8
1955.81
1839.67
1731.04
1631.07
1542.77
1463.22
1395.31
1332.86
1279.74
1227.74
1182.83
1135.29
1093.58
1046.67
1005.04
957.191
914.012
865.71
822.633
771.395
379.155
385.427
403.772
448.589
537.012
675.319
848.81
1028.58
1187.06
1303.69
1365.93
1375.01
1347.09
1305.87
1269.1
1245.5
1235.5
1238.08
1250.38
1271.92
1300.49
1337.17
1380
1431.65
1489.65
1558.63
1634.8
1725.7
1825.1
1945.2
2075.54
2236.22
2409.52
2629.3
2865.24
3175.68
3508.56
3967.12
4463.06
5183.66
5976.36
7170.98
8470.8
10401.6
12336
14997.9
17255.4
20179
22644.1
25298.6
27403.7
23510.1
21041.4
12621.6
8794.03
7869.34
8915.89
9585.14
10034.1
9324.03
8570.25
7478.82
6672.17
5817.89
5201.15
4597.88
4169.53
3776.47
3502.15
3255.44
3080.35
2917.92
2791.35
2664.98
2552.67
2434.67
2319.33
2197.91
2077.03
1956.15
1840.12
1731.59
1631.68
1543.41
1463.84
1395.88
1333.35
1280.11
1227.97
1182.91
1135.2
1093.31
1046.21
1004.33
956.261
912.794
864.215
820.813
769.397
379.103
385.26
403.331
447.577
535.11
672.477
845.45
1025.41
1184.62
1302.13
1365.17
1374.99
1347.78
1307.16
1270.79
1247.34
1237.35
1239.85
1252.04
1273.47
1301.94
1338.56
1381.33
1432.96
1490.95
1559.95
1636.15
1727.1
1826.57
1946.76
2077.2
2238.01
2411.46
2631.44
2867.62
3178.41
3511.7
3970.82
4467.4
5188.77
5982.19
7177.42
8477.59
10408.2
12342.5
15003.9
17262.4
20184.5
22646.4
25280.7
27359.2
23435.2
20891.2
12490.2
8695.94
7788.41
8843.63
9526.9
9990.96
9295.98
8553.85
7470.13
6667.66
5815.54
5200.05
4597.73
4170.14
3777.57
3503.47
3256.73
3081.45
2918.76
2791.91
2665.32
2552.85
2434.76
2319.42
2198.03
2077.25
1956.47
1840.55
1732.11
1632.28
1544.03
1464.46
1396.44
1333.82
1280.47
1228.19
1182.98
1135.12
1093.03
1045.74
1003.63
955.334
911.581
862.729
819.005
767.416
379.052
385.096
402.896
446.577
533.228
669.662
842.123
1022.28
1182.21
1300.59
1364.43
1374.98
1348.49
1308.46
1272.46
1249.18
1239.19
1241.61
1253.68
1275
1303.38
1339.93
1382.65
1434.26
1492.24
1561.25
1637.49
1728.49
1828.02
1948.3
2078.83
2239.77
2413.37
2633.55
2869.97
3181.1
3514.8
3974.47
4471.69
5193.81
5987.94
7183.77
8484.27
10414.8
12348.8
15009.7
17269.2
20189.8
22648.4
25262.7
27314.9
23360.9
20742.7
12360
8598.21
7707.26
8771.1
9468.46
9947.72
9267.83
8537.36
7461.35
6663.07
5813.1
5198.88
4597.52
4170.69
3778.61
3504.73
3257.97
3082.52
2919.56
2792.45
2665.63
2553.01
2434.84
2319.48
2198.15
2077.44
1956.78
1840.96
1732.62
1632.85
1544.64
1465.05
1396.98
1334.28
1280.81
1228.41
1183.04
1135.03
1092.75
1045.28
1002.93
954.409
910.373
861.251
817.21
765.449
379.002
384.933
402.466
445.59
531.367
666.875
838.829
1019.18
1179.83
1299.08
1363.71
1375
1349.2
1309.76
1274.13
1251.01
1241.02
1243.35
1255.32
1276.52
1304.81
1341.28
1383.96
1435.54
1493.52
1562.55
1638.81
1729.86
1829.45
1949.81
2080.44
2241.52
2415.25
2635.63
2872.29
3183.75
3517.86
3978.07
4475.91
5198.76
5993.6
7190.01
8490.83
10421.2
12355.1
15015.5
17275.8
20195
22650.3
25244.7
27270.9
23287.4
20595.8
12231
8500.85
7625.91
8698.32
9409.87
9904.38
9239.61
8520.8
7452.49
6658.4
5810.6
5197.65
4597.24
4171.18
3779.59
3505.95
3259.17
3083.55
2920.33
2792.96
2665.92
2553.16
2434.9
2319.53
2198.24
2077.62
1957.06
1841.35
1733.11
1633.41
1545.23
1465.63
1397.51
1334.73
1281.15
1228.62
1183.1
1134.93
1092.47
1044.81
1002.23
953.486
909.17
859.781
815.427
763.499
378.952
384.774
402.042
444.615
529.525
664.116
835.567
1016.11
1177.49
1297.61
1363.02
1375.03
1349.92
1311.05
1275.8
1252.83
1242.84
1245.08
1256.94
1278.04
1306.22
1342.63
1385.26
1436.81
1494.78
1563.82
1640.11
1731.21
1830.86
1951.31
2082.03
2243.23
2417.11
2637.68
2874.57
3186.36
3520.87
3981.62
4480.07
5203.64
5999.17
7196.15
8497.27
10427.5
12361.1
15021
17282.3
20199.9
22651.9
25226.6
27227.1
23214.6
20450.6
12103.3
8403.88
7544.39
8625.35
9351.16
9861
9211.35
8504.19
7443.57
6653.67
5808.03
5196.35
4596.91
4171.61
3780.53
3507.12
3260.33
3084.54
2921.07
2793.45
2666.2
2553.28
2434.94
2319.57
2198.32
2077.79
1957.33
1841.73
1733.58
1633.96
1545.81
1466.2
1398.03
1335.16
1281.48
1228.82
1183.16
1134.83
1092.18
1044.35
1001.53
952.566
907.973
858.32
813.658
761.564
378.903
384.616
401.624
443.652
527.704
661.385
832.339
1013.08
1175.18
1296.16
1362.35
1375.08
1350.65
1312.35
1277.45
1254.63
1244.64
1246.8
1258.55
1279.53
1307.63
1343.96
1386.54
1438.07
1496.03
1565.09
1641.4
1732.55
1832.25
1952.79
2083.6
2244.93
2418.93
2639.7
2876.82
3188.93
3523.83
3985.11
4484.17
5208.45
6004.66
7202.19
8503.61
10433.6
12367.1
15026.5
17288.6
20204.7
22653.3
25208.6
27183.6
23142.7
20307.2
11976.9
8307.33
7462.74
8552.23
9292.4
9817.62
9183.08
8487.54
7434.6
6648.88
5805.4
5195
4596.53
4172
3781.41
3508.25
3261.45
3085.51
2921.78
2793.91
2666.45
2553.38
2434.97
2319.58
2198.38
2077.94
1957.58
1842.09
1734.04
1634.48
1546.37
1466.75
1398.54
1335.59
1281.8
1229.02
1183.2
1134.73
1091.89
1043.88
1000.83
951.648
906.782
856.867
811.9
759.645
378.855
384.461
401.212
442.701
525.903
658.681
829.143
1010.08
1172.9
1294.73
1361.71
1375.14
1351.39
1313.64
1279.1
1256.42
1246.43
1248.51
1260.14
1281.02
1309.02
1345.28
1387.81
1439.32
1497.27
1566.34
1642.67
1733.87
1833.63
1954.25
2085.15
2246.59
2420.74
2641.7
2879.03
3191.47
3526.76
3988.55
4488.2
5213.19
6010.05
7208.13
8509.84
10439.7
12372.9
15031.8
17294.8
20209.3
22654.6
25190.7
27140.4
23071.5
20165.6
11851.9
8211.22
7380.99
8479.02
9233.63
9774.27
9154.84
8470.9
7425.59
6644.04
5802.73
5193.61
4596.09
4172.34
3782.26
3509.34
3262.54
3086.44
2922.47
2794.35
2666.68
2553.47
2434.98
2319.59
2198.43
2078.07
1957.82
1842.43
1734.48
1634.99
1546.91
1467.29
1399.03
1336.01
1282.11
1229.21
1183.25
1134.62
1091.6
1043.41
1000.14
950.733
905.596
855.422
810.156
757.741
378.808
384.308
400.806
441.761
524.122
656.006
825.98
1007.12
1170.66
1293.34
1361.08
1375.22
1352.13
1314.93
1280.74
1258.21
1248.21
1250.2
1261.72
1282.49
1310.4
1346.59
1389.07
1440.55
1498.49
1567.57
1643.93
1735.17
1834.99
1955.68
2086.68
2248.24
2422.51
2643.66
2881.21
3193.96
3529.63
3991.94
4492.18
5217.85
6015.37
7213.97
8515.95
10445.6
12378.6
15037
17300.8
20213.7
22655.7
25172.7
27097.6
23001.2
20025.9
11728.2
8115.59
7299.17
8405.77
9174.91
9731.01
9126.65
8454.27
7416.57
6639.18
5800.02
5192.17
4595.62
4172.63
3783.06
3510.39
3263.59
3087.34
2923.13
2794.77
2666.89
2553.55
2434.98
2319.58
2198.46
2078.19
1958.04
1842.76
1734.9
1635.49
1547.44
1467.82
1399.51
1336.41
1282.41
1229.39
1183.28
1134.51
1091.31
1042.94
999.438
949.821
904.416
853.987
808.424
755.852
378.761
384.158
400.405
440.834
522.362
653.358
822.85
1004.19
1168.45
1291.97
1360.48
1375.31
1352.88
1316.22
1282.37
1259.97
1249.97
1251.88
1263.29
1283.95
1311.76
1347.89
1390.32
1441.77
1499.7
1568.79
1645.18
1736.46
1836.33
1957.1
2088.18
2249.86
2424.26
2645.59
2883.36
3196.42
3532.47
3995.28
4496.09
5222.43
6020.59
7219.72
8521.96
10451.4
12384.2
15042.1
17306.7
20218
22656.6
25154.9
27055.1
22931.8
19888
11606.1
8020.47
7217.35
8332.53
9116.28
9687.87
9098.55
8437.67
7407.54
6634.28
5797.28
5190.7
4595.11
4172.89
3783.82
3511.4
3264.61
3088.22
2923.77
2795.18
2667.09
2553.61
2434.96
2319.55
2198.48
2078.3
1958.24
1843.07
1735.31
1635.96
1547.96
1468.33
1399.98
1336.81
1282.7
1229.56
1183.31
1134.39
1091.01
1042.47
998.743
948.912
903.241
852.56
806.705
753.979
378.715
384.009
400.009
439.918
520.621
650.738
819.753
1001.3
1166.27
1290.64
1359.89
1375.42
1353.64
1317.51
1283.99
1261.73
1251.72
1253.55
1264.84
1285.4
1313.12
1349.17
1391.55
1442.97
1500.89
1569.99
1646.4
1737.73
1837.65
1958.5
2089.67
2251.46
2425.99
2647.49
2885.48
3198.84
3535.26
3998.57
4499.94
5226.95
6025.73
7225.36
8527.87
10457.1
12389.7
15047.1
17312.5
20222.1
22657.4
25137.1
27013
22863.2
19752.1
11485.4
7925.89
7135.55
8259.35
9057.8
9644.9
9070.56
8421.14
7398.53
6629.38
5794.51
5189.2
4594.57
4173.11
3784.54
3512.38
3265.6
3089.07
2924.39
2795.56
2667.27
2553.66
2434.93
2319.52
2198.49
2078.39
1958.44
1843.37
1735.7
1636.43
1548.46
1468.83
1400.44
1337.19
1282.99
1229.73
1183.34
1134.27
1090.72
1042
998.048
948.006
902.073
851.141
804.998
752.121
378.67
383.863
399.62
439.015
518.901
648.145
816.689
998.436
1164.12
1289.32
1359.33
1375.54
1354.4
1318.79
1285.6
1263.47
1253.45
1255.2
1266.38
1286.83
1314.46
1350.44
1392.77
1444.16
1502.08
1571.19
1647.62
1738.99
1838.96