/*--------------------------------*- C++ -*----------------------------------*\
| =========                 |                                                 |
| \\      /  F ield         | OpenFOAM: The Open Source CFD Toolbox           |
|  \\    /   O peration     | Version:  2412                                  |
|   \\  /    A nd           | Website:  www.openfoam.com                      |
|    \\/     M anipulation  |                                                 |
\*---------------------------------------------------------------------------*/
FoamFile
{
    version     2.0;
    format      ascii;
    arch        "LSB;label=32;scalar=64";
    class       volScalarField;
    location    "0.6";
    object      k;
}
// * * * * * * * * * * * * * * * * * * * * * * * * * * * * * * * * * * * * * //

dimensions      [0 2 -2 0 0 0 0];

internalField   nonuniform List<scalar> 
13068
(
37.8336
38.7998
41.0475
45.3103
51.6636
58.99
65.5654
70.234
72.9031
73.9771
73.798
72.6906
71.165
69.8469
69.0875
68.9199
69.1722
69.7322
70.4931
71.4572
72.5645
73.8669
75.2991
76.9542
78.7396
80.8023
82.999
85.5571
88.2501
91.4306
94.7381
98.7256
102.816
107.883
113.002
119.572
126.125
134.931
143.708
156.119
168.565
186.571
204.064
228.571
249.807
277.418
297.05
323.749
344.535
370.569
390.478
357.304
352.868
254.204
198.919
191.125
211.664
219.262
221.913
208.532
196.786
180.428
169.252
156.471
147.502
137.793
131.076
124.378
119.905
115.584
112.66
109.692
107.375
104.812
102.441
99.7529
97.0282
94.0511
91.047
88.0064
85.0732
82.3176
79.7692
77.52
75.4718
73.7276
72.0789
70.6819
69.2453
68.0231
66.6429
65.482
64.0757
62.9205
61.4794
60.301
58.8902
57.7576
56.0102
37.8278
38.7812
41.004
45.2287
51.5425
58.8481
65.4345
70.1426
72.8627
73.9818
73.8332
72.7447
71.2317
69.9212
69.1633
68.9924
69.2393
69.7936
70.5497
71.5099
72.6143
73.9148
75.3457
77.0003
78.7856
80.8488
83.0465
85.606
88.3007
91.4835
94.7934
98.7841
102.878
107.95
113.074
119.651
126.213
135.029
143.817
156.239
168.694
186.702
204.192
228.688
249.919
277.523
297.177
323.86
344.62
370.434
390.103
356.525
351.252
252.548
197.663
190.246
211.023
218.829
221.646
208.395
196.737
180.432
169.279
156.508
147.548
137.847
131.134
124.437
119.962
115.634
112.703
109.726
107.402
104.832
102.458
99.7674
97.0427
94.0672
91.066
88.0289
85.0988
82.3456
79.7983
77.5487
75.4986
73.7511
72.0982
70.6961
69.2539
68.0253
66.6384
65.4692
64.0545
62.8877
61.4353
60.2411
58.8142
57.6615
55.9023
37.8221
38.7628
40.9607
45.1474
51.4217
58.7065
65.304
70.0517
72.823
73.987
73.8689
72.7991
71.2987
69.9957
69.2392
69.065
69.3064
69.8552
70.6064
71.5628
72.6643
73.9628
75.3924
77.0465
78.8318
80.8956
83.0941
85.6551
88.3515
91.5366
94.849
98.8428
102.94
108.017
113.146
119.731
126.3
135.127
143.926
156.359
168.822
186.833
204.321
228.806
250.032
277.628
297.304
323.972
344.706
370.3
389.729
355.75
349.645
250.905
196.419
189.373
210.381
218.394
221.377
208.255
196.686
180.434
169.305
156.545
147.592
137.899
131.192
124.497
120.018
115.684
112.745
109.76
107.428
104.853
102.475
99.7821
97.0574
94.0836
91.0854
88.0515
85.1246
82.3738
79.8275
77.5775
75.5255
73.7748
72.1177
70.7105
69.2627
68.0276
66.6341
65.4567
64.0336
62.8554
61.3917
60.1818
58.7391
57.5664
55.7957
37.8164
38.7445
40.9177
45.0667
51.3013
58.5653
65.174
69.9612
72.7837
73.9926
73.9047
72.8536
71.3657
70.07
69.3149
69.1374
69.3733
69.9165
70.6629
71.6155
72.7141
74.0107
75.439
77.0926
78.8778
80.9422
83.1416
85.7041
88.4022
91.5895
94.9043
98.9012
103.002
108.083
113.217
119.809
126.388
135.225
144.035
156.478
168.95
186.963
204.449
228.923
250.143
277.734
297.43
324.083
344.789
370.165
389.355
354.977
348.045
249.274
195.187
188.503
209.737
217.954
221.102
208.11
196.632
180.433
169.329
156.58
147.635
137.95
131.249
124.555
120.073
115.733
112.786
109.793
107.455
104.874
102.491
99.7966
97.072
94.0999
91.1045
88.0739
85.1502
82.4017
79.8564
77.606
75.5521
73.7983
72.137
70.7248
69.2715
68.03
66.6299
65.4442
64.0129
62.8234
61.3484
60.123
58.6647
57.4723
55.6902
37.8108
38.7264
40.8751
44.9864
51.1816
58.4246
65.0445
69.8713
72.745
73.9984
73.9406
72.908
71.4325
70.1441
69.3903
69.2094
69.4399
69.9777
70.7192
71.668
72.7637
74.0583
75.4854
77.1384
78.9236
80.9885
83.1888
85.7527
88.4525
91.6421
94.9593
98.9593
103.064
108.149
113.289
119.888
126.474
135.321
144.142
156.596
169.076
187.092
204.576
229.039
250.254
277.838
297.554
324.191
344.869
370.027
388.979
354.205
346.45
247.651
193.964
187.636
209.091
217.509
220.823
207.961
196.575
180.429
169.35
156.612
147.676
137.999
131.305
124.612
120.127
115.781
112.827
109.826
107.48
104.894
102.507
99.8107
97.0862
94.1158
91.1233
88.096
85.1754
82.4291
79.885
77.6342
75.5784
73.8216
72.1561
70.7389
69.2801
68.0323
66.6257
65.4318
63.9923
62.7915
61.3054
60.0646
58.5908
57.3791
55.5857
37.8053
38.7085
40.8329
44.9067
51.0624
58.2845
64.9155
69.782
72.7066
74.0045
73.9764
72.9622
71.499
70.2178
69.4653
69.2811
69.5062
70.0385
70.7752
71.7202
72.813
74.1057
75.5315
77.184
78.9691
81.0345
83.2357
85.8011
88.5024
91.6942
95.0138
99.0169
103.124
108.214
113.359
119.965
126.56
135.417
144.249
156.713
169.202
187.219
204.702
229.154
250.363
277.94
297.676
324.297
344.946
369.886
388.601
353.434
344.861
246.038
192.749
186.771
208.442
217.06
220.538
207.807
196.513
180.422
169.368
156.642
147.715
138.046
131.358
124.667
120.181
115.829
112.867
109.858
107.505
104.913
102.523
99.8244
97.1
94.1314
91.1417
88.1177
85.2001
82.4562
79.9131
77.6619
75.6044
73.8445
72.1749
70.7527
69.2885
68.0344
66.6213
65.4194
63.9717
62.7596
61.2625
60.0065
58.5175
57.2866
55.4822
37.7998
38.6908
40.791
44.8275
50.9439
58.1451
64.787
69.6931
72.6687
74.0108
74.0123
73.0163
71.5653
70.2912
69.5399
69.3525
69.5722
70.099
70.8309
71.7721
72.8621
74.1528
75.5773
77.2292
79.0143
81.0803
83.2823
85.849
88.552
91.746
95.0679
99.074
103.185
108.279
113.429
120.042
126.645
135.512
144.355
156.829
169.326
187.345
204.826
229.267
250.471
278.041
297.796
324.4
345.019
369.744
388.221
352.663
343.276
244.432
191.541
185.907
207.789
216.605
220.248
207.649
196.448
180.412
169.384
156.67
147.751
138.091
131.41
124.721
120.233
115.875
112.906
109.889
107.53
104.932
102.538
99.8376
97.1134
94.1465
91.1597
88.1388
85.2243
82.4827
79.9407
77.6893
75.6299
73.867
72.1934
70.7663
69.2968
68.0364
66.6169
65.4069
63.9511
62.7279
61.2198
59.9488
58.4446
57.1949
55.3797
37.7944
38.6733
40.7495
44.7488
50.826
58.0062
64.6591
69.6048
72.6312
74.0173
74.0482
73.0702
71.6312
70.3642
69.6142
69.4234
69.6378
70.1591
70.8863
71.8237
72.9108
74.1995
75.6228
77.2742
79.0592
81.1256
83.3284
85.8966
88.6011
91.7973
95.1215
99.1306
103.245
108.343
113.499
120.118
126.729
135.606
144.46
156.944
169.448
187.47
204.948
229.379
250.577
278.14
297.913
324.5
345.089
369.598
387.84
351.894
341.697
242.834
190.339
185.042
207.132
216.145
219.953
207.486
196.378
180.398
169.397
156.695
147.786
138.134
131.46
124.774
120.283
115.92
112.944
109.919
107.553
104.95
102.552
99.8502
97.1262
94.1611
91.1771
88.1595
85.248
82.5087
79.9678
77.7161
75.6551
73.8892
72.2116
70.7797
69.3048
68.0382
66.6124
65.3943
63.9304
62.6963
61.1773
59.8914
58.3723
57.104
55.2781
37.7891
38.6559
40.7084
44.6708
50.7088
57.8679
64.5318
69.5169
72.5942
74.024
74.084
73.1239
71.6969
70.4368
69.688
69.4939
69.703
70.2189
70.9414
71.8751
72.9593
74.246
75.668
77.3188
79.1037
81.1706
83.3742
85.9437
88.6499
91.8481
95.1746
99.1867
103.304
108.407
113.567
120.193
126.813
135.699
144.563
157.057
169.569
187.593
205.069
229.489
250.682
278.237
298.029
324.597
345.155
369.45
387.456
351.125
340.122
241.242
189.141
184.177
206.471
215.68
219.653
207.318
196.305
180.382
169.407
156.717
147.818
138.175
131.508
124.825
120.333
115.964
112.981
109.949
107.576
104.967
102.566
99.8623
97.1386
94.1752
91.1941
88.1796
85.2712
82.5342
79.9945
77.7425
75.6798
73.911
72.2295
70.7928
69.3126
68.0399
66.6077
65.3817
63.9098
62.6647
61.135
59.8343
58.3004
57.0138
55.1774
37.7839
38.6388
40.6676
44.5932
50.5922
57.7302
64.405
69.4297
72.5575
74.031
74.1199
73.1775
71.7623
70.5091
69.7615
69.5641
69.7679
70.2784
70.9962
71.926
73.0074
74.2922
75.7129
77.3631
79.1478
81.2153
83.4197
85.9905
88.6981
91.8985
95.2272
99.2422
103.363
108.47
113.635
120.268
126.895
135.791
144.666
157.169
169.689
187.715
205.189
229.598
250.785
278.333
298.142
324.692
345.218
369.3
387.071
350.358
338.552
239.656
187.948
183.31
205.805
215.209
219.348
207.146
196.228
180.362
169.414
156.737
147.847
138.214
131.555
124.875
120.381
116.008
113.017
109.978
107.598
104.984
102.579
99.8739
97.1505
94.1889
91.2106
88.1993
85.2939
82.5592
80.0206
77.7684
75.704
73.9324
72.247
70.8056
69.3202
68.0414
66.6029
65.369
63.8892
62.6332
61.0928
59.7775
58.229
56.9242
55.0775
37.7787
38.6218
40.6272
44.5163
50.4762
57.5931
64.2788
69.343
72.5213
74.0381
74.1557
73.2309
71.8275
70.581
69.8345
69.6338
69.8323
70.3375
71.0506
71.9767
73.0552
74.338
75.7574
77.407
79.1917
81.2595
83.4647
86.0368
88.746
91.9484
95.2793
99.2972
103.421
108.532
113.703
120.342
126.977
135.882
144.767
157.28
169.807
187.835
205.306
229.705
250.886
278.427
298.252
324.784
345.277
369.147
386.685
349.592
336.988
238.075
186.758
182.442
205.135
214.734
219.038
206.97
196.148
180.34
169.419
156.755
147.875
138.251
131.6
124.923
120.428
116.05
113.053
110.006
107.62
105
102.592
99.8849
97.1619
94.202
91.2266
88.2184
85.316
82.5836
80.0462
77.7938
75.7279
73.9534
72.2642
70.8181
69.3276
68.0427
66.598
65.3562
63.8685
62.6017
61.0507
59.721
58.158
56.8354
54.9785
37.7735
38.605
40.5872
44.4399
50.3609
57.4567
64.1531
69.2568
72.4856
74.0455
74.1915
73.2841
71.8923
70.6526
69.9071
69.7031
69.8964
70.3962
71.1046
72.0271
73.1027
74.3836
75.8016
77.4506
79.2351
81.3034
83.5094
86.0827
88.7934
91.9979
95.3309
99.3516
103.478
108.594
113.769
120.415
127.058
135.972
144.867
157.389
169.924
187.953
205.423
229.81
250.986
278.519
298.36
324.873
345.333
368.992
386.297
348.827
335.428
236.5
185.57
181.571
204.46
214.253
218.723
206.789
196.064
180.314
169.421
156.771
147.9
138.287
131.643
124.97
120.474
116.091
113.087
110.033
107.64
105.016
102.604
99.8954
97.1727
94.2147
91.242
88.237
85.3376
82.6075
80.0713
77.8188
75.7513
73.974
72.2811
70.8304
69.3347
68.0438
66.5929
65.3433
63.8478
62.5703
61.0088
59.6648
58.0874
56.7472
54.8804
37.7685
38.5884
40.5476
44.364
50.2462
57.3209
64.0281
69.1711
72.4502
74.0531
74.2273
73.3371
71.9569
70.7238
69.9793
69.772
69.9601
70.4546
71.1584
72.0771
73.1499
74.4288
75.8455
77.4939
79.2783
81.347
83.5536
86.1282
88.8404
92.0468
95.382
99.4055
103.535
108.655
113.835
120.487
127.137
136.061
144.966
157.497
170.04
188.07
205.537
229.914
251.084
278.609
298.466
324.959
345.385
368.835
385.908
348.064
333.873
234.93
184.385
180.696
203.78
213.766
218.403
206.604
195.977
180.285
169.421
156.784
147.924
138.32
131.685
125.015
120.519
116.131
113.121
110.059
107.66
105.03
102.616
99.9053
97.1831
94.2269
91.257
88.255
85.3586
82.6309
80.0959
77.8432
75.7742
73.9943
72.2977
70.8423
69.3416
68.0448
66.5878
65.3304
63.8271
62.539
60.967
59.6088
58.0173
56.6597
54.7831
37.7635
38.572
40.5083
44.2887
50.1322
57.1857
63.9036
69.086
72.4153
74.0609
74.263
73.39
72.0212
70.7946
70.0511
69.8405
70.0234
70.5126
71.2117
72.1267
73.1967
74.4736
75.8891
77.5369
79.321
81.3901
83.5975
86.1733
88.8869
92.0953
95.4326
99.4588
103.592
108.715
113.9
120.558
127.216
136.149
145.064
157.604
170.154
188.186
205.65
230.016
251.18
278.698
298.57
325.042
345.435
368.675
385.518
347.303
332.325
233.365
183.2
179.819
203.095
213.275
218.079
206.416
195.886
180.254
169.418
156.795
147.945
138.351
131.725
125.059
120.562
116.17
113.153
110.085
107.679
105.045
102.626
99.9147
97.1929
94.2385
91.2714
88.2726
85.3791
82.6537
80.1199
77.8672
75.7968
74.0141
72.3139
70.854
69.3483
68.0455
66.5824
65.3173
63.8063
62.5077
60.9253
59.5531
57.9475
56.5729
54.6865
37.7586
38.5557
40.4693
44.214
50.0189
57.0511
63.7798
69.0015
72.3809
74.0688
74.2988
73.4427
72.0851
70.865
70.1224
69.9086
70.0863
70.5703
71.2648
72.1761
73.2432
74.5182
75.9323
77.5794
79.3634
81.4329
83.6409
86.218
88.9329
92.1432
95.4826
99.5115
103.647
108.775
113.964
120.629
127.294
136.236
145.16
157.71
170.266
188.3
205.762
230.117
251.274
278.785
298.672
325.123
345.481
368.514
385.127
346.544
330.781
231.804
182.016
178.937
202.404
212.779
217.751
206.223
195.793
180.22
169.413
156.804
147.964
138.381
131.763
125.102
120.604
116.208
113.185
110.109
107.698
105.058
102.637
99.9236
97.2023
94.2496
91.2853
88.2896
85.3991
82.6759
80.1434
77.8907
75.8188
74.0336
72.3297
70.8654
69.3547
68.0461
66.577
65.3042
63.7855
62.4764
60.8837
59.4977
57.8782
56.4866
54.5908
37.7537
38.5397
40.4308
44.1399
49.9062
56.9173
63.6565
68.9176
72.3468
74.077
74.3345
73.4953
72.1489
70.935
70.1933
69.9762
70.1488
70.6276
71.3174
72.2251
73.2894
74.5623
75.9752
77.6217
79.4054
81.4753
83.6839
86.2622
88.9785
92.1907
95.5321
99.5637
103.702
108.834
114.028
120.698
127.371
136.322
145.256
157.814
170.377
188.412
205.871
230.216
251.367
278.87
298.771
325.202
345.524
368.351
384.735
345.788
329.244
230.248
180.832
178.051
201.709
212.278
217.419
206.027
195.696
180.183
169.406
156.81
147.982
138.409
131.799
125.143
120.645
116.245
113.216
110.133
107.715
105.071
102.646
99.9319
97.2111
94.2603
91.2988
88.306
85.4185
82.6977
80.1664
77.9137
75.8405
74.0527
72.3452
70.8765
69.3609
68.0465
66.5714
65.291
63.7647
62.4451
60.8422
59.4425
57.8093
56.401
54.4958
37.7489
38.5238
40.3926
44.0663
49.7942
56.784
63.5339
68.8341
72.3132
74.0854
74.3703
73.5476
72.2123
71.0047
70.2638
70.0434
70.2109
70.6845
71.3698
72.2737
73.3352
74.6062
76.0177
77.6635
79.4471
81.5172
83.7265
86.3059
89.0236
92.2377
95.581
99.6152
103.757
108.892
114.091
120.767
127.447
136.406
145.35
157.917
170.487
188.523
205.979
230.313
251.458
278.953
298.868
325.277
345.563
368.186
384.343
345.034
327.713
228.696
179.648
177.161
201.009
211.773
217.083
205.828
195.597
180.144
169.396
156.815
147.997
138.435
131.834
125.182
120.685
116.281
113.246
110.156
107.732
105.083
102.655
99.9397
97.2194
94.2704
91.3116
88.322
85.4373
82.7188
80.1889
77.9362
75.8616
74.0713
72.3604
70.8873
69.3668
68.0467
66.5656
65.2777
63.7438
62.4139
60.8009
59.3875
57.7407
56.316
54.4015
37.7441
38.5081
40.3547
43.9933
49.6829
56.6515
63.4119
68.7513
72.28
74.094
74.406
73.5998
72.2754
71.0739
70.3339
70.1102
70.2726
70.741
71.4217
72.322
73.3807
74.6497
76.0599
77.705
79.4883
81.5588
83.7687
86.3492
89.0682
92.2841
95.6294
99.6662
103.81
108.95
114.153
120.835
127.523
136.49
145.443
158.018
170.595
188.632
206.086
230.409
251.548
279.034
298.962
325.35
345.6
368.02
383.95
344.283
326.188
227.148
178.463
176.266
200.304
211.263
216.743
205.626
195.495
180.103
169.385
156.817
148.01
138.459
131.868
125.221
120.724
116.316
113.275
110.179
107.749
105.094
102.664
99.9469
97.2272
94.2801
91.324
88.3373
85.4557
82.7395
80.2109
77.9582
75.8824
74.0896
72.3753
70.8978
69.3726
68.0467
66.5597
65.2643
63.7229
62.3828
60.7596
59.3328
57.6725
56.2315
54.308
37.7395
38.4925
40.3173
43.9208
49.5723
56.5196
63.2905
68.669
72.2473
74.1028
74.4416
73.6518
72.3382
71.1428
70.4035
70.1765
70.3339
70.7971
71.4733
72.37
73.4258
74.6929
76.1017
77.7461
79.5292
81.6
83.8105
86.3921
89.1123
92.3301
95.6773
99.7165
103.863
109.006
114.214
120.903
127.597
136.573
145.535
158.118
170.701
188.739
206.19
230.503
251.636
279.114
299.054
325.421
345.634
367.851
383.557
343.535
324.67
225.605
177.278
175.366
199.595
210.75
216.4
205.42
195.39
180.059
169.371
156.818
148.022
138.481
131.9
125.258
120.761
116.35
113.303
110.2
107.764
105.105
102.672
99.9536
97.2345
94.2892
91.3359
88.3522
85.4734
82.7596
80.2323
77.9797
75.9027
74.1075
72.3898
70.9081
69.3781
68.0466
66.5537
65.2508
63.7019
62.3516
60.7185
59.2783
57.6047
56.1477
54.2152
37.7348
38.4772
40.2802
43.8489
49.4623
56.3884
63.1697
68.5874
72.2149
74.1117
74.4773
73.7037
72.4008
71.2113
70.4726
70.2424
70.3947
70.8528
71.5245
72.4176
73.4706
74.7357
76.1431
77.7869
79.5697
81.6408
83.8519
86.4345
89.156
92.3755
95.7246
99.7663
103.916
109.063
114.274
120.969
127.67
136.654
145.625
158.217
170.806
188.845
206.293
230.595
251.722
279.192
299.145
325.489
345.665
367.682
383.164
342.79
323.16
224.066
176.091
174.461
198.88
210.232
216.054
205.212
195.283
180.013
169.355
156.817
148.032
138.502
131.93
125.293
120.798
116.383
113.331
110.221
107.779
105.115
102.679
99.9598
97.2413
94.2978
91.3472
88.3665
85.4907
82.7791
80.2532
78.0007
75.9226
74.125
72.4039
70.918
69.3833
68.0462
66.5475
65.2373
63.6809
62.3205
60.6774
59.2241
57.5373
56.0644
54.1231
37.7303
38.462
40.2434
43.7776
49.3531
56.2579
63.0496
68.5062
72.183
74.1209
74.5129
73.7553
72.463
71.2793
70.5413
70.3078
70.4551
70.9081
71.5753
72.4648
73.515
74.7781
76.1842
77.8273
79.6098
81.6812
83.8928
86.4765
89.1991
92.4204
95.7713
99.8155
103.968
109.118
114.334
121.034
127.742
136.735
145.714
158.314
170.909
188.949
206.395
230.686
251.806
279.268
299.233
325.555
345.693
367.511
382.771
342.049
321.657
222.532
174.903
173.552
198.161
209.711
215.705
205.001
195.173
179.965
169.337
156.814
148.041
138.522
131.959
125.328
120.833
116.415
113.357
110.241
107.793
105.125
102.686
99.9655
97.2476
94.3059
91.3581
88.3803
85.5073
82.7981
80.2736
78.0213
75.942
74.1421
72.4178
70.9277
69.3884
68.0457
66.5412
65.2236
63.6598
62.2894
60.6365
59.1701
57.4702
55.9816
54.0317
37.7258
38.447
40.207
43.7069
49.2446
56.1281
62.9302
68.4257
72.1515
74.1302
74.5485
73.8068
72.5249
71.347
70.6096
70.3728
70.5151
70.9631
71.6258
72.5116
73.5591
74.8202
76.2249
77.8673
79.6495
81.7211
83.9333
86.518
89.2418
92.4648
95.8174
99.864
104.019
109.173
114.393
121.099
127.814
136.814
145.802
158.41
171.011
189.052
206.494
230.775
251.889
279.342
299.319
325.618
345.719
367.339
382.379
341.312
320.162
221.002
173.713
172.637
197.438
209.187
215.353
204.788
195.062
179.914
169.317
156.809
148.047
138.54
131.987
125.361
120.867
116.446
113.383
110.26
107.807
105.134
102.692
99.9706
97.2534
94.3136
91.3684
88.3936
85.5235
82.8166
80.2935
78.0413
75.961
74.1588
72.4312
70.9371
69.3931
68.0449
66.5348
65.2098
63.6387
62.2584
60.5956
59.1163
57.4034
55.8994
53.941
37.7213
38.4321
40.171
43.6368
49.1367
55.999
62.8114
68.3458
72.1205
74.1397
74.584
73.8581
72.5865
71.4143
70.6774
70.4373
70.5747
71.0176
71.6759
72.5581
73.6028
74.8619
76.2653
77.9069
79.6889
81.7607
83.9733
86.559
89.284
92.5086
95.863
99.9119
104.069
109.227
114.451
121.163
127.884
136.893
145.889
158.505
171.112
189.153
206.592
230.863
251.97
279.415
299.402
325.679
345.742
367.167
381.987
340.579
318.675
219.478
172.522
171.717
196.711
208.659
214.999
204.573
194.948
179.863
169.296
156.803
148.052
138.556
132.013
125.393
120.9
116.477
113.408
110.279
107.819
105.142
102.698
99.9753
97.2587
94.3208
91.3782
88.4064
85.5391
82.8346
80.3129
78.0609
75.9795
74.1751
72.4444
70.9462
69.3977
68.044
66.5282
65.196
63.6176
62.2274
60.5549
59.0627
57.337
55.8178
53.8509
37.7169
38.4174
40.1353
43.5672
49.0296
55.8706
62.6932
68.2664
72.0898
74.1494
74.6195
73.9092
72.6478
71.4811
70.7447
70.5014
70.6338
71.0717
71.7256
72.6043
73.6461
74.9033
76.3053
77.9462
79.7278
81.7998
84.0129
86.5996
89.3257
92.5519
95.9081
99.9593
104.119
109.28
114.509
121.226
127.954
136.97
145.975
158.598
171.21
189.252
206.689
230.948
252.049
279.486
299.484
325.737
345.762
366.993
381.595
339.85
317.198
217.958
171.329
170.792
195.98
208.129
214.643
204.356
194.833
179.809
169.273
156.795
148.056
138.571
132.038
125.424
120.932
116.506
113.432
110.296
107.832
105.15
102.703
99.9795
97.2636
94.3274
91.3876
88.4186
85.5542
82.852
80.3317
78.0801
75.9976
74.1911
72.4572
70.955
69.4021
68.0429
66.5214
65.1821
63.5964
62.1964
60.5142
59.0094
57.271
55.7366
53.7615
37.7126
38.4029
40.1
43.4982
48.9232
55.743
62.5758
68.1876
72.0596
74.1593
74.655
73.9601
72.7088
71.5475
70.8116
70.5649
70.6925
71.1254
71.7749
72.65
73.6891
74.9443
76.3449
77.9851
79.7663
81.8385
84.0521
86.6397
89.3669
92.5947
95.9525
100.006
104.168
109.332
114.565
121.288
128.022
137.046
146.059
158.69
171.308
189.35
206.783
231.033
252.127
279.555
299.564
325.794
345.78
366.818
381.205
339.126
315.729
216.445
170.135
169.862
195.245
207.597
214.285
204.137
194.716
179.753
169.249
156.786
148.058
138.585
132.062
125.453
120.963
116.534
113.455
110.313
107.843
105.157
102.708
99.9832
97.268
94.3337
91.3965
88.4304
85.5688
82.8689
80.3501
78.0987
76.0153
74.2066
72.4698
70.9636
69.4062
68.0417
66.5146
65.168
63.5751
62.1654
60.4737
58.9562
57.2053
55.656
53.6727
37.7083
38.3886
40.065
43.4298
48.8175
55.6161
62.459
68.1094
72.0298
74.1693
74.6904
74.0108
72.7695
71.6135
70.878
70.6281
70.7507
71.1787
71.8238
72.6953
73.7317
74.9849
76.3841
78.0235
79.8045
81.8768
84.0908
86.6793
89.4076
92.6369
95.9964
100.052
104.217
109.384
114.621
121.349
128.09
137.121
146.142
158.78
171.404
189.446
206.877
231.115
252.203
279.623
299.642
325.848
345.796
366.643
380.816
338.407
314.271
214.937
168.939
168.928
194.508
207.063
213.926
203.917
194.598
179.697
169.223
156.775
148.059
138.597
132.084
125.482
120.993
116.562
113.477
110.33
107.854
105.164
102.712
99.9865
97.2719
94.3394
91.4049
88.4416
85.5829
82.8853
80.368
78.1169
76.0326
74.2219
72.482
70.9719
69.4101
68.0402
66.5076
65.1539
63.5539
62.1345
60.4332
58.9033
57.1399
55.5759
53.5846
37.7041
38.3744
40.0304
43.362
48.7126
55.4899
62.3429
68.0319
72.0004
74.1795
74.7258
74.0614
72.8298
71.6791
70.9439
70.6907
70.8085
71.2315
71.8723
72.7403
73.7739
75.0251
76.423
78.0616
79.8422
81.9147
84.1291
86.7185
89.4478
92.6787
96.0397
100.098
104.265
109.435
114.676
121.409
128.156
137.195
146.224
158.869
171.498
189.541
206.968
231.196
252.278
279.689
299.717
325.901
345.81
366.468
380.428
337.692
312.823
213.436
167.742
167.989
193.768
206.527
213.566
203.696
194.478
179.639
169.196
156.763
148.059
138.608
132.106
125.509
121.022
116.588
113.499
110.346
107.865
105.17
102.716
99.9893
97.2755
94.3448
91.4128
88.4524
85.5964
82.9012
80.3854
78.1347
76.0495
74.2367
72.4938
70.9799
69.4137
68.0386
66.5005
65.1398
63.5326
62.1036
60.3929
58.8506
57.0749
55.4963
53.4971
37.6999
38.3604
39.9962
43.2947
48.6084
55.3645
62.2276
67.9549
71.9714
74.1899
74.7611
74.1117
72.8898
71.7442
71.0093
70.7528
70.8658
71.284
71.9204
72.7849
73.8157
75.065
76.4614
78.0993
79.8795
81.9522
84.1669
86.7572
89.4875
92.7198
96.0824
100.142
104.312
109.486
114.73
121.469
128.222
137.268
146.305
158.957
171.591
189.634
207.058
231.276
252.351
279.754
299.791
325.951
345.821
366.292
380.041
336.984
311.385
211.941
166.544
167.046
193.026
205.99
213.205
203.474
194.358
179.579
169.167
156.75
148.057
138.618
132.126
125.535
121.05
116.614
113.52
110.361
107.874
105.176
102.719
99.9917
97.2786
94.3497
91.4203
88.4627
85.6095
82.9166
80.4023
78.1519
76.0659
74.2512
72.5054
70.9877
69.4172
68.0369
66.4932
65.1255
63.5113
62.0728
60.3527
58.7982
57.0102
55.4173
53.4102
37.6958
38.3466
39.9623
43.2281
48.5049
55.2399
62.1129
67.8785
71.9428
74.2004
74.7964
74.1617
72.9494
71.8089
71.0742
70.8145
70.9227
71.336
71.9681
72.8291
73.8572
75.1044
76.4995
78.1366
79.9164
81.9892
84.2043
86.7954
89.5267
92.7605
96.1246
100.187
104.358
109.535
114.783
121.527
128.286
137.34
146.385
159.043
171.682
189.725
207.146
231.354
252.422
279.817
299.864
325.999
345.831
366.116
379.656
336.281
309.959
210.454
165.346
166.1
192.281
205.452
212.844
203.251
194.236
179.519
169.138
156.735
148.055
138.627
132.145
125.561
121.078
116.639
113.54
110.375
107.884
105.181
102.722
99.9937
97.2812
94.3541
91.4273
88.4725
85.6221
82.9315
80.4187
78.1688
76.082
74.2653
72.5167
70.9952
69.4205
68.0349
66.4859
65.1112
63.4899
62.042
60.3125
58.7459
56.9458
55.3387
53.3239
37.6918
38.3329
39.9287
43.162
48.4022
55.116
61.999
67.8027
71.9146
74.211
74.8316
74.2116
73.0088
71.8732
71.1387
70.8757
70.9791
71.3876
72.0154
72.8729
73.8983
75.1435
76.5372
78.1735
79.9529
82.0258
84.2413
86.8331
89.5654
92.8006
96.1662
100.23
104.404
109.584
114.836
121.585
128.35
137.411
146.463
159.128
171.772
189.815
207.233
231.43
252.492
279.878
299.934
326.046
345.838
365.94
379.273
335.584
308.545
208.974
164.146
165.15
191.536
204.914
212.482
203.028
194.114
179.457
169.107
156.72
148.051
138.635
132.163
125.585
121.104
116.663
113.56
110.389
107.893
105.186
102.724
99.9953
97.2835
94.3582
91.4339
88.4818
85.6342
82.9459
80.4347
78.1852
76.0976
74.279
72.5276
71.0024
69.4235
68.0328
66.4784
65.0968
63.4685
62.0112
60.2725
58.6939
56.8818
55.2607
53.2383
37.6878
38.3194
39.8955
43.0965
48.3002
54.9929
61.8857
67.7276
71.8868
74.2218
74.8667
74.2613
73.0677
71.937
71.2026
70.9364
71.035
71.4387
72.0622
72.9163
73.9389
75.1822
76.5745
78.2101
79.989
82.062
84.2778
86.8704
89.6035
92.8401
96.2072
100.273
104.449
109.632
114.888
121.642
128.413
137.481
146.54
159.212
171.861
189.904
207.318
231.505
252.561
279.938
300.002
326.09
345.844
365.764
378.892
334.893
307.142
207.503
162.947
164.198
190.789
204.376
212.121
202.805
193.991
179.395
169.076
156.704
148.047
138.642
132.18
125.608
121.129
116.687
113.579
110.403
107.901
105.19
102.726
99.9965
97.2854
94.3618
91.4401
88.4908
85.6459
82.9599
80.4502
78.2012
76.1129
74.2925
72.5383
71.0095
69.4264
68.0306
66.4708
65.0823
63.4471
61.9805
60.2326
58.6421
56.8181
55.1831
53.1533
37.6838
38.3061
39.8627
43.0317
48.1991
54.8706
61.7732
67.653
71.8594
74.2327
74.9017
74.3107
73.1263
72.0003
71.2661
70.9966
71.0905
71.4894
72.1087
72.9593
73.9792
75.2206
76.6114
78.2462
80.0247
82.0977
84.3138
86.9072
89.6412
92.8791
96.2476
100.316
104.494
109.68
114.939
121.698
128.475
137.549
146.616
159.294
171.948
189.991
207.402
231.579
252.628
279.997
300.069
326.133
345.848
365.588
378.513
334.208
305.753
206.04
161.748
163.243
190.042
203.839
211.76
202.581
193.868
179.332
169.043
156.687
148.041
138.648
132.196
125.631
121.154
116.709
113.597
110.415
107.909
105.194
102.728
99.9973
97.287
94.3651
91.4458
88.4993
85.6571
82.9734
80.4653
78.2168
76.1278
74.3056
72.5487
71.0162
69.429
68.0282
66.4631
65.0678
63.4257
61.9499
60.1928
58.5906
56.7548
55.1061
53.0688
37.6799
38.2929
39.8302
42.9674
48.0986
54.7491
61.6615
67.5791
71.8324
74.2438
74.9367
74.3599
73.1846
72.0632
71.329
71.0563
71.1455
71.5396
72.1547
73.0019
74.0191
75.2585
76.648
78.2819
80.06
82.133
84.3494
86.9435
89.6784
92.9176
96.2875
100.357
104.537
109.727
114.989
121.753
128.536
137.617
146.691
159.376
172.033
190.076
207.484
231.651
252.693
280.054
300.135
326.174
345.851
365.412
378.137
333.53
304.377
204.586
160.55
162.286
189.295
203.302
211.401
202.358
193.745
179.269
169.01
156.669
148.035
138.653
132.212
125.653
121.178
116.731
113.615
110.428
107.916
105.198
102.729
99.9978
97.2882
94.368
91.4512
88.5073
85.6679
82.9865
80.48
78.2319
76.1423
74.3183
72.5588
71.0228
69.4315
68.0256
66.4553
65.0533
63.4043
61.9193
60.1532
58.5392
56.6918
55.0295
52.985
37.6761
38.2798
39.7981
42.9037
47.999
54.6285
61.5505
67.5057
71.8058
74.255
74.9715
74.4088
73.2425
72.1256
71.3914
71.1154
71.2
71.5894
72.2003
73.0441
74.0586
75.296
76.6841
78.3172
80.0948
82.1679
84.3845
86.9793
89.7151
92.9556
96.3268
100.398
104.581
109.773
115.039
121.807
128.596
137.684
146.764
159.455
172.117
190.16
207.565
231.722
252.757
280.11
300.198
326.214
345.852
365.237
377.763
332.86
303.015
203.143
159.353
161.328
188.549
202.766
211.042
202.136
193.622
179.205
168.977
156.65
148.028
138.657
132.226
125.673
121.201
116.753
113.632
110.439
107.923
105.201
102.73
99.998
97.289
94.3705
91.4562
88.515
85.6782
82.9991
80.4942
78.2467
76.1565
74.3308
72.5686
71.0291
69.4338
68.023
66.4474
65.0387
63.3829
61.8888
60.1136
58.4882
56.6292
54.9535
52.9018
37.6723
38.267
39.7663
42.8406
47.9001
54.5086
61.4403
67.433
71.7796
74.2663
75.0063
74.4575
73.3
72.1876
71.4533
71.1741
71.254
71.6388
72.2455
73.0859
74.0977
75.3332
76.7198
78.3521
80.1293
82.2024
84.4192
87.0147
89.7512
92.993
96.3655
100.439
104.623
109.818
115.088
121.861
128.655
137.749
146.837
159.534
172.2
190.243
207.644
231.791
252.82
280.165
300.261
326.252
345.852
365.063
377.392
332.196
301.666
201.709
158.157
160.369
187.804
202.233
210.685
201.914
193.499
179.141
168.943
156.631
148.02
138.661
132.24
125.694
121.224
116.774
113.649
110.451
107.93
105.204
102.731
99.9978
97.2896
94.3728
91.4608
88.5222
85.6881
83.0114
80.508
78.261
76.1703
74.3429
72.5782
71.0352
69.4359
68.0202
66.4394
65.024
63.3615
61.8583
60.0742
58.4373
56.5669
54.8779
52.8191
37.6686
38.2543
39.7349
42.7781
47.8021
54.3896
61.3308
67.361
71.7538
74.2777
75.041
74.506
73.3571
72.249
71.5147
71.2322
71.3076
71.6877
72.2903
73.1273
74.1364
75.3699
76.7552
78.3866
80.1633
82.2364
84.4535
87.0496
89.7869
93.0299
96.4036
100.479
104.665
109.863
115.136
121.914
128.713
137.814
146.908
159.611
172.282
190.324
207.722
231.859
252.882
280.218
300.321
326.289
345.85
364.89
377.024
331.54
300.333
200.287
156.964
159.409
187.06
201.701
210.329
201.693
193.376
179.076
168.908
156.612
148.012
138.664
132.253
125.713
121.245
116.794
113.665
110.462
107.936
105.206
102.731
99.9974
97.2898
94.3746
91.4651
88.5291
85.6977
83.0232
80.5214
78.275
76.1838
74.3547
72.5875
71.0411
69.4379
68.0173
66.4314
65.0093
63.3401
61.828
60.035
58.3867
56.5049
54.8029
52.7371
37.6649
38.2417
39.7038
42.7162
47.7048
54.2714
61.2221
67.2895
71.7284
74.2893
75.0756
74.5541
73.4138
72.31
71.5756
71.2899
71.3606
71.7361
72.3346
73.1683
74.1747
75.4063
76.7901
78.4207
80.1969
82.27
84.4873
87.084
89.8221
93.0662
96.4412
100.518
104.706
109.907
115.183
121.965
128.77
137.877
146.978
159.687
172.362
190.404
207.798
231.926
252.942
280.27
300.381
326.324
345.847
364.717
376.659
330.891
299.015
198.877
155.774
158.451
186.319
201.173
209.976
201.474
193.253
179.012
168.873
156.591
148.003
138.666
132.266
125.732
121.267
116.813
113.681
110.472
107.942
105.208
102.731
99.9967
97.2898
94.3762
91.469
88.5357
85.7068
83.0346
80.5344
78.2886
76.1969
74.3662
72.5965
71.0467
69.4397
68.0142
66.4232
64.9946
63.3187
61.7977
59.9959
58.3364
56.4433
54.7284
52.6557
37.6612
38.2293
39.6731
42.655
47.6083
54.1541
61.1142
67.2187
71.7033
74.3009
75.11
74.6021
73.4702
72.3705
71.6359
71.347
71.4132
71.7841
72.3785
73.2088
74.2126
75.4422
76.8247
78.4544
80.2301