/*--------------------------------*- C++ -*----------------------------------*\
| =========                 |                                                 |
| \\      /  F ield         | OpenFOAM: The Open Source CFD Toolbox           |
|  \\    /   O peration     | Version:  2412                                  |
|   \\  /    A nd           | Website:  www.openfoam.com                      |
|    \\/     M anipulation  |                                                 |
\*---------------------------------------------------------------------------*/
FoamFile
{
    version     2.0;
    format      ascii;
    arch        "LSB;label=32;scalar=64";
    class       volScalarField;
    location    "0.6";
    object      nut;
}
// * * * * * * * * * * * * * * * * * * * * * * * * * * * * * * * * * * * * * //

dimensions      [0 2 -1 0 0 0 0];

internalField   nonuniform List<scalar> 
13068
(
0.338218
0.346569
0.362675
0.384336
0.402925
0.410741
0.406501
0.393783
0.377837
0.362812
0.351042
0.343847
0.34199
0.345201
0.351549
0.358546
0.364464
0.36895
0.372216
0.374797
0.376926
0.37896
0.380856
0.382889
0.384847
0.38706
0.389168
0.391643
0.393933
0.396742
0.399242
0.402484
0.405232
0.409045
0.412097
0.416688
0.420164
0.425853
0.430007
0.437182
0.44204
0.450264
0.454645
0.462159
0.463825
0.46872
0.467387
0.473204
0.475575
0.480589
0.479668
0.446954
0.438252
0.3503
0.304768
0.326897
0.375763
0.393971
0.401636
0.393496
0.391321
0.384015
0.383281
0.37818
0.37772
0.374603
0.375452
0.37451
0.375918
0.375703
0.376593
0.375934
0.375535
0.37387
0.372172
0.369585
0.366978
0.36408
0.361554
0.359366
0.357763
0.356711
0.356091
0.355894
0.355721
0.355709
0.355329
0.355013
0.354118
0.353398
0.352003
0.351012
0.349283
0.348194
0.346368
0.345317
0.343796
0.343021
0.340151
0.338183
0.346451
0.362443
0.38404
0.402698
0.410692
0.406682
0.394193
0.378427
0.363503
0.351752
0.344508
0.342549
0.34562
0.351816
0.358689
0.364526
0.368971
0.372222
0.374802
0.376934
0.378973
0.380875
0.382913
0.384875
0.387092
0.389203
0.391681
0.393974
0.396785
0.399287
0.402531
0.405283
0.409099
0.412155
0.41675
0.420231
0.425922
0.430078
0.437247
0.442099
0.450311
0.454684
0.46219
0.463861
0.468764
0.467453
0.473242
0.475579
0.48047
0.47947
0.44649
0.437373
0.34926
0.30419
0.326819
0.375813
0.39406
0.401754
0.393631
0.391449
0.384117
0.38335
0.378232
0.377767
0.37465
0.375495
0.374541
0.375934
0.375706
0.376586
0.375921
0.375521
0.373857
0.372164
0.369584
0.366986
0.364097
0.361578
0.359394
0.357792
0.356737
0.35611
0.355903
0.35572
0.355697
0.355308
0.354983
0.35408
0.35335
0.351945
0.350939
0.349194
0.348079
0.346228
0.34514
0.343583
0.342767
0.339889
0.338148
0.346333
0.36221
0.383742
0.402467
0.410642
0.406862
0.394602
0.379017
0.364192
0.352458
0.345164
0.343103
0.346033
0.35208
0.358829
0.364587
0.368992
0.372228
0.374806
0.376942
0.378987
0.380894
0.382938
0.384904
0.387125
0.389238
0.391719
0.394015
0.396828
0.399333
0.402579
0.405334
0.409152
0.412212
0.416812
0.420297
0.425991
0.430148
0.437313
0.442158
0.450358
0.454724
0.46222
0.463898
0.468807
0.467518
0.473279
0.475583
0.480351
0.479272
0.446027
0.436493
0.348214
0.303592
0.32671
0.375846
0.394146
0.401877
0.393771
0.391582
0.384223
0.383422
0.378285
0.377815
0.374699
0.375538
0.374574
0.375951
0.37571
0.37658
0.375909
0.375507
0.373844
0.372156
0.369583
0.366994
0.364114
0.361602
0.359422
0.35782
0.356762
0.356129
0.355913
0.355719
0.355686
0.355288
0.354953
0.354041
0.353302
0.351887
0.350865
0.349104
0.347965
0.346089
0.344965
0.343372
0.342516
0.33963
0.338114
0.346216
0.361977
0.383444
0.402234
0.410588
0.407041
0.395011
0.379604
0.364878
0.353159
0.345813
0.34365
0.346441
0.352341
0.358968
0.364647
0.369012
0.372234
0.374811
0.37695
0.379001
0.380913
0.382962
0.384932
0.387157
0.389274
0.391758
0.394055
0.396871
0.399378
0.402627
0.405384
0.409206
0.41227
0.416873
0.420363
0.42606
0.430218
0.437378
0.442217
0.450406
0.454763
0.462251
0.463934
0.468851
0.467583
0.473316
0.475586
0.480232
0.479074
0.445564
0.435612
0.34716
0.302975
0.326575
0.375862
0.394229
0.402005
0.393917
0.391721
0.384333
0.383497
0.37834
0.377864
0.374748
0.375583
0.374607
0.375969
0.375715
0.376574
0.375897
0.375493
0.373832
0.372148
0.369583
0.367003
0.364131
0.361626
0.35945
0.357849
0.356788
0.356147
0.355922
0.355718
0.355675
0.355267
0.354924
0.354003
0.353254
0.351829
0.350793
0.349016
0.347851
0.34595
0.34479
0.343162
0.342266
0.339372
0.338079
0.3461
0.361745
0.383144
0.401999
0.410532
0.407217
0.395417
0.380189
0.365561
0.353855
0.346457
0.344191
0.346844
0.352597
0.359104
0.364706
0.369033
0.37224
0.374815
0.376958
0.379014
0.380932
0.382986
0.38496
0.387189
0.389309
0.391795
0.394096
0.396914
0.399423
0.402674
0.405434
0.409259
0.412327
0.416935
0.420429
0.426128
0.430287
0.437443
0.442276
0.450452
0.454802
0.462281
0.46397
0.468893
0.467646
0.473351
0.475587
0.480112
0.478876
0.445101
0.434731
0.3461
0.30234
0.326413
0.375865
0.394312
0.402138
0.39407
0.391865
0.384447
0.383575
0.378397
0.377915
0.374798
0.375628
0.37464
0.375988
0.37572
0.376568
0.375885
0.375479
0.37382
0.372141
0.369583
0.367011
0.364149
0.36165
0.359478
0.357878
0.356813
0.356166
0.355932
0.355718
0.355665
0.355247
0.354895
0.353966
0.353207
0.351772
0.35072
0.348927
0.347738
0.345812
0.344617
0.342953
0.342017
0.339116
0.338045
0.345984
0.361513
0.382843
0.401761
0.410473
0.407391
0.395822
0.380772
0.366239
0.354546
0.347094
0.344726
0.347242
0.35285
0.359238
0.364764
0.369052
0.372245
0.374819
0.376966
0.379028
0.380951
0.383009
0.384988
0.38722
0.389343
0.391833
0.394136
0.396956
0.399467
0.402721
0.405483
0.409312
0.412384
0.416995
0.420494
0.426195
0.430356
0.437506
0.442333
0.450498
0.45484
0.462311
0.464005
0.468935
0.467709
0.473386
0.475588
0.479992
0.478678
0.444639
0.43385
0.345034
0.301687
0.326227
0.375857
0.394395
0.402276
0.394229
0.392015
0.384566
0.383655
0.378456
0.377967
0.37485
0.375674
0.374675
0.376008
0.375726
0.376563
0.375873
0.375466
0.373808
0.372134
0.369583
0.36702
0.364166
0.361674
0.359506
0.357906
0.356838
0.356185
0.355942
0.355718
0.355654
0.355228
0.354866
0.353929
0.35316
0.351714
0.350648
0.348839
0.347626
0.345675
0.344444
0.342746
0.341771
0.338862
0.338012
0.345868
0.361281
0.38254
0.401521
0.410412
0.407563
0.396224
0.381352
0.366913
0.355232
0.347725
0.345254
0.347634
0.3531
0.359371
0.364822
0.369072
0.372251
0.374823
0.376974
0.379041
0.380969
0.383033
0.385016
0.387251
0.389377
0.39187
0.394175
0.396998
0.399511
0.402768
0.405532
0.409364
0.412439
0.417055
0.420558
0.426261
0.430424
0.437569
0.44239
0.450544
0.454878
0.46234
0.464039
0.468976
0.46777
0.473419
0.475587
0.479872
0.47848
0.444177
0.432968
0.34396
0.301016
0.326019
0.375839
0.39448
0.402422
0.394395
0.392171
0.384688
0.383739
0.378516
0.37802
0.374902
0.375721
0.374711
0.376028
0.375732
0.376558
0.375862
0.375452
0.373796
0.372127
0.369583
0.367029
0.364183
0.361698
0.359534
0.357934
0.356863
0.356203
0.355951
0.355717
0.355644
0.355208
0.354837
0.353892
0.353113
0.351658
0.350576
0.348752
0.347514
0.345539
0.344273
0.34254
0.341526
0.33861
0.337978
0.345754
0.36105
0.382237
0.401278
0.410348
0.407733
0.396625
0.381929
0.367583
0.355911
0.34835
0.345777
0.348022
0.353346
0.359501
0.364878
0.36909
0.372256
0.374827
0.376981
0.379054
0.380987
0.383056
0.385043
0.387282
0.389411
0.391907
0.394214
0.39704
0.399555
0.402814
0.405581
0.409415
0.412495
0.417114
0.420622
0.426327
0.430491
0.437631
0.442446
0.450589
0.454915
0.462368
0.464073
0.469016
0.467829
0.473451
0.475585
0.479751
0.478281
0.443715
0.432087
0.342881
0.300329
0.32579
0.375813
0.394568
0.402574
0.394567
0.392332
0.384815
0.383825
0.378578
0.378073
0.374955
0.375768
0.374747
0.376049
0.375739
0.376554
0.375851
0.375439
0.373785
0.37212
0.369583
0.367038
0.3642
0.361722
0.359561
0.357962
0.356888
0.356222
0.355961
0.355717
0.355634
0.355189
0.354809
0.353855
0.353066
0.351601
0.350505
0.348665
0.347403
0.345403
0.344102
0.342335
0.341283
0.33836
0.337945
0.34564
0.360819
0.381933
0.401033
0.410281
0.4079
0.397023
0.382503
0.368249
0.356586
0.348969
0.346293
0.348404
0.353589
0.35963
0.364933
0.369109
0.372261
0.37483
0.376989
0.379066
0.381005
0.383078
0.385069
0.387312
0.389445
0.391943
0.394253
0.397081
0.399598
0.402859
0.405628
0.409466
0.412549
0.417173
0.420685
0.426392
0.430557
0.437693
0.442502
0.450633
0.454951
0.462396
0.464106
0.469055
0.467887
0.473481
0.475581
0.47963
0.478082
0.443253
0.431205
0.341795
0.299626
0.325542
0.375781
0.39466
0.402735
0.394747
0.392499
0.384946
0.383914
0.378642
0.378128
0.375008
0.375817
0.374784
0.376071
0.375747
0.37655
0.37584
0.375426
0.373774
0.372114
0.369584
0.367047
0.364217
0.361745
0.359588
0.35799
0.356912
0.35624
0.355971
0.355717
0.355624
0.35517
0.354781
0.353819
0.35302
0.351545
0.350434
0.348578
0.347292
0.345268
0.343933
0.342131
0.341042
0.338111
0.337912
0.345527
0.360589
0.381629
0.400785
0.410211
0.408065
0.397418
0.383074
0.368911
0.357254
0.349581
0.346803
0.348782
0.353828
0.359757
0.364988
0.369127
0.372266
0.374833
0.376996
0.379079
0.381023
0.383101
0.385096
0.387342
0.389478
0.391979
0.394291
0.397121
0.39964
0.402904
0.405676
0.409517
0.412604
0.417231
0.420747
0.426456
0.430622
0.437753
0.442556
0.450676
0.454986
0.462423
0.464138
0.469093
0.467944
0.473511
0.475577
0.479509
0.477883
0.442792
0.430324
0.340704
0.298907
0.325275
0.375745
0.394758
0.402903
0.394935
0.392672
0.38508
0.384005
0.378707
0.378184
0.375063
0.375866
0.374821
0.376093
0.375754
0.376546
0.375829
0.375414
0.373762
0.372107
0.369584
0.367056
0.364234
0.361769
0.359615
0.358017
0.356937
0.356258
0.355981
0.355718
0.355615
0.355151
0.354753
0.353782
0.352974
0.351489
0.350363
0.348492
0.347181
0.345133
0.343764
0.341928
0.340802
0.337864
0.337879
0.345414
0.360359
0.381323
0.400536
0.410139
0.408227
0.397811
0.383642
0.369568
0.357917
0.350187
0.347307
0.349154
0.354064
0.359882
0.365042
0.369145
0.37227
0.374837
0.377002
0.379091
0.38104
0.383123
0.385122
0.387372
0.38951
0.392014
0.394329
0.397161
0.399682
0.402948
0.405722
0.409566
0.412657
0.417288
0.420808
0.42652
0.430686
0.437813
0.44261
0.450718
0.455021
0.46245
0.464169
0.46913
0.468
0.473539
0.475571
0.479387
0.477684
0.442332
0.429442
0.339607
0.298172
0.324993
0.375706
0.394862
0.403081
0.39513
0.392851
0.385219
0.384099
0.378774
0.378241
0.375118
0.375916
0.37486
0.376116
0.375763
0.376543
0.375819
0.375401
0.373751
0.372101
0.369585
0.367065
0.364251
0.361792
0.359642
0.358044
0.356961
0.356277
0.355991
0.355718
0.355605
0.355132
0.354725
0.353747
0.352929
0.351434
0.350293
0.348406
0.347072
0.345
0.343597
0.341727
0.340563
0.337619
0.337847
0.345302
0.36013
0.381017
0.400284
0.410064
0.408387
0.398202
0.384206
0.37022
0.358574
0.350787
0.347805
0.349521
0.354297
0.360005
0.365095
0.369162
0.372274
0.374839
0.377009
0.379102
0.381057
0.383144
0.385147
0.387401
0.389542
0.392049
0.394366
0.397201
0.399724
0.402991
0.405768
0.409615
0.41271
0.417344
0.420869
0.426582
0.43075
0.437872
0.442663
0.45076
0.455056
0.462476
0.4642
0.469167
0.468055
0.473566
0.475564
0.479265
0.477485
0.441872
0.428562
0.338504
0.297423
0.324696
0.375667
0.394973
0.403267
0.395333
0.393036
0.385361
0.384196
0.378842
0.378299
0.375173
0.375966
0.374898
0.37614
0.375772
0.37654
0.375808
0.375388
0.373741
0.372095
0.369586
0.367074
0.364268
0.361815
0.359668
0.358071
0.356985
0.356295
0.356
0.355718
0.355596
0.355114
0.354698
0.353711
0.352883
0.351378
0.350223
0.34832
0.346962
0.344866
0.34343
0.341527
0.340327
0.337375
0.337815
0.345191
0.359901
0.38071
0.40003
0.409986
0.408544
0.39859
0.384767
0.370868
0.359226
0.35138
0.348297
0.349884
0.354526
0.360126
0.365146
0.369179
0.372278
0.374842
0.377015
0.379114
0.381073
0.383166
0.385173
0.38743
0.389574
0.392083
0.394403
0.397239
0.399765
0.403035
0.405814
0.409664
0.412762
0.4174
0.420929
0.426644
0.430812
0.43793
0.442715
0.450801
0.455089
0.462501
0.46423
0.469202
0.468108
0.473592
0.475557
0.479143
0.477286
0.441413
0.427682
0.337396
0.296659
0.324386
0.375628
0.395093
0.403464
0.395543
0.393226
0.385508
0.384295
0.378912
0.378358
0.37523
0.376017
0.374938
0.376164
0.375781
0.376537
0.375798
0.375376
0.37373
0.372089
0.369587
0.367083
0.364285
0.361838
0.359694
0.358098
0.357009
0.356313
0.35601
0.355719
0.355587
0.355096
0.354671
0.353676
0.352838
0.351323
0.350153
0.348235
0.346853
0.344734
0.343264
0.341328
0.340091
0.337133
0.337783
0.34508
0.359673
0.380403
0.399773
0.409905
0.408698
0.398975
0.385325
0.371511
0.359871
0.351967
0.348783
0.350241
0.354752
0.360246
0.365198
0.369195
0.372282
0.374845
0.377021
0.379125
0.38109
0.383187
0.385198
0.387458
0.389605
0.392117
0.394439
0.397278
0.399805
0.403077
0.405859
0.409711
0.412813
0.417455
0.420988
0.426705
0.430874
0.437987
0.442766
0.450842
0.455122
0.462526
0.464259
0.469237
0.46816
0.473617
0.475548
0.47902
0.477087
0.440955
0.426803
0.336282
0.295882
0.324064
0.375592
0.395223
0.40367
0.395761
0.393422
0.385658
0.384396
0.378983
0.378418
0.375287
0.376068
0.374978
0.376189
0.375791
0.376534
0.375788
0.375364
0.373719
0.372083
0.369588
0.367092
0.364301
0.36186
0.35972
0.358124
0.357033
0.356331
0.35602
0.35572
0.355578
0.355078
0.354644
0.353641
0.352794
0.351269
0.350084
0.34815
0.346745
0.344602
0.343099
0.34113
0.339858
0.336893
0.337752
0.344971
0.359446
0.380094
0.399515
0.409822
0.40885
0.399358
0.385879
0.372149
0.36051
0.352547
0.349263
0.350594
0.354975
0.360363
0.365248
0.369212
0.372285
0.374847
0.377027
0.379136
0.381106
0.383207
0.385222
0.387486
0.389636
0.392151
0.394475
0.397316
0.399845
0.403119
0.405903
0.409759
0.412864
0.417509
0.421046
0.426765
0.430935
0.438043
0.442817
0.450882
0.455154
0.46255
0.464288
0.469271
0.46821
0.473641
0.475538
0.478897
0.476888
0.440498
0.425926
0.335164
0.295092
0.323732
0.37556
0.395362
0.403886
0.395988
0.393623
0.385811
0.3845
0.379056
0.378478
0.375344
0.37612
0.375018
0.376214
0.375801
0.376532
0.375779
0.375352
0.373709
0.372077
0.369589
0.367101
0.364318
0.361882
0.359746
0.35815
0.357056
0.356349
0.35603
0.35572
0.35557
0.35506
0.354617
0.353606
0.352749
0.351214
0.350015
0.348066
0.346637
0.34447
0.342935
0.340934
0.339625
0.336654
0.337721
0.344862
0.35922
0.379786
0.399254
0.409736
0.408999
0.399738
0.38643
0.372782
0.361144
0.353121
0.349737
0.350941
0.355194
0.360479
0.365297
0.369227
0.372289
0.374849
0.377033
0.379147
0.381121
0.383227
0.385246
0.387514
0.389666
0.392184
0.39451
0.397353
0.399884
0.40316
0.405946
0.409805
0.412914
0.417563
0.421104
0.426825
0.430995
0.438098
0.442867
0.45092
0.455186
0.462573
0.464315
0.469304
0.46826
0.473663
0.475526
0.478774
0.476689
0.440042
0.42505
0.334041
0.294288
0.323391
0.375534
0.395513
0.404114
0.396222
0.39383
0.385968
0.384606
0.37913
0.37854
0.375402
0.376173
0.375059
0.376239
0.375811
0.37653
0.375769
0.37534
0.373698
0.372072
0.36959
0.36711
0.364334
0.361905
0.359771
0.358176
0.35708
0.356367
0.35604
0.355721
0.355561
0.355042
0.354591
0.353571
0.352705
0.35116
0.349946
0.347982
0.34653
0.344339
0.342772
0.340738
0.339395
0.336417
0.33769
0.344753
0.358994
0.379477
0.398992
0.409647
0.409146
0.400115
0.386976
0.37341
0.361771
0.353689
0.350204
0.351284
0.35541
0.360593
0.365346
0.369243
0.372292
0.374851
0.377038
0.379157
0.381137
0.383247
0.38527
0.387541
0.389696
0.392217
0.394545
0.39739
0.399923
0.403201
0.405989
0.409851
0.412963
0.417616
0.42116
0.426883
0.431054
0.438153
0.442915
0.450959
0.455217
0.462596
0.464342
0.469336
0.468308
0.473685
0.475514
0.478652
0.476491
0.439587
0.424175
0.332914
0.293473
0.323043
0.375514
0.395676
0.404352
0.396464
0.394043
0.386129
0.384714
0.379205
0.378602
0.37546
0.376225
0.3751
0.376265
0.375822
0.376528
0.375759
0.375328
0.373688
0.372066
0.369591
0.367119
0.36435
0.361926
0.359796
0.358201
0.357103
0.356384
0.35605
0.355722
0.355553
0.355025
0.354565
0.353537
0.352661
0.351106
0.349877
0.347898
0.346423
0.344209
0.342609
0.340544
0.339165
0.336181
0.33766
0.344646
0.358769
0.379167
0.398727
0.409556
0.40929
0.400489
0.387519
0.374034
0.362393
0.35425
0.350666
0.351622
0.355623
0.360705
0.365393
0.369257
0.372294
0.374852
0.377043
0.379167
0.381152
0.383267
0.385293
0.387568
0.389726
0.392249
0.394579
0.397427
0.399961
0.403241
0.406032
0.409896
0.413012
0.417668
0.421216
0.426941
0.431112
0.438207
0.442963
0.450996
0.455247
0.462619
0.464369
0.469367
0.468355
0.473705
0.475501
0.478529
0.476293
0.439134
0.423302
0.331782
0.292646
0.322689
0.375502
0.395851
0.404601
0.396714
0.39426
0.386293
0.384825
0.379281
0.378665
0.375519
0.376279
0.375142
0.376291
0.375833
0.376527
0.37575
0.375316
0.373678
0.372061
0.369592
0.367128
0.364366
0.361948
0.35982
0.358226
0.357125
0.356402
0.35606
0.355723
0.355544
0.355008
0.354539
0.353503
0.352617
0.351052
0.349809
0.347814
0.346316
0.34408
0.342448
0.34035
0.338938
0.335947
0.337629
0.344539
0.358545
0.378858
0.398461
0.409462
0.409431
0.40086
0.388059
0.374652
0.363008
0.354804
0.351122
0.351955
0.355833
0.360816
0.36544
0.369272
0.372297
0.374854
0.377048
0.379177
0.381166
0.383286
0.385316
0.387594
0.389755
0.39228
0.394612
0.397463
0.399999
0.403281
0.406074
0.409941
0.41306
0.41772
0.421272
0.426998
0.43117
0.43826
0.44301
0.451033
0.455277
0.46264
0.464394
0.469398
0.468401
0.473724
0.475487
0.478406
0.476095
0.438683
0.422432
0.330647
0.291808
0.322331
0.3755
0.39604
0.404862
0.396973
0.394483
0.38646
0.384937
0.379358
0.378728
0.375578
0.376332
0.375184
0.376318
0.375844
0.376526
0.375741
0.375304
0.373667
0.372055
0.369593
0.367137
0.364382
0.361969
0.359845
0.358251
0.357148
0.356419
0.35607
0.355724
0.355536
0.354991
0.354513
0.353469
0.352574
0.350999
0.349741
0.347731
0.34621
0.343951
0.342287
0.340158
0.338711
0.335714
0.337599
0.344433
0.358322
0.378548
0.398192
0.409366
0.40957
0.401228
0.388594
0.375265
0.363618
0.355353
0.351572
0.352284
0.35604
0.360924
0.365486
0.369286
0.372299
0.374855
0.377053
0.379187
0.381181
0.383305
0.385339
0.38762
0.389783
0.392311
0.394646
0.397498
0.400036
0.40332
0.406115
0.409985
0.413108
0.417771
0.421326
0.427054
0.431226
0.438312
0.443057
0.451069
0.455306
0.462661
0.464419
0.469427
0.468446
0.473743
0.475472
0.478283
0.475898
0.438233
0.421563
0.329507
0.29096
0.32197
0.375509
0.396242
0.405133
0.397238
0.394711
0.38663
0.385051
0.379437
0.378792
0.375638
0.376386
0.375226
0.376345
0.375855
0.376525
0.375732
0.375293
0.373657
0.37205
0.369594
0.367145
0.364398
0.36199
0.359869
0.358276
0.35717
0.356436
0.35608
0.355725
0.355528
0.354974
0.354488
0.353435
0.35253
0.350946
0.349673
0.347648
0.346105
0.343822
0.342127
0.339967
0.338486
0.335483
0.33757
0.344327
0.358099
0.378238
0.397922
0.409267
0.409706
0.401593
0.389125
0.375873
0.364221
0.355895
0.352016
0.352608
0.356243
0.361031
0.365531
0.3693
0.372301
0.374856
0.377057
0.379196
0.381195
0.383323
0.385361
0.387645
0.389812
0.392342
0.394678
0.397533
0.400072
0.403359
0.406155
0.410028
0.413154
0.417821
0.42138
0.427109
0.431282
0.438363
0.443102
0.451104
0.455334
0.462682
0.464443
0.469456
0.468489
0.47376
0.475457
0.47816
0.475701
0.437785
0.420697
0.328365
0.290101
0.321607
0.37553
0.396459
0.405417
0.397512
0.394944
0.386803
0.385167
0.379516
0.378856
0.375698
0.37644
0.375268
0.376372
0.375867
0.376524
0.375723
0.375281
0.373647
0.372044
0.369595
0.367154
0.364413
0.362011
0.359892
0.3583
0.357192
0.356454
0.356089
0.355726
0.35552
0.354958
0.354463
0.353402
0.352487
0.350893
0.349606
0.347566
0.345999
0.343694
0.341968
0.339777
0.338263
0.335254
0.33754
0.344223
0.357877
0.377927
0.39765
0.409165
0.409839
0.401955
0.389652
0.376475
0.364818
0.35643
0.352454
0.352927
0.356444
0.361137
0.365576
0.369313
0.372303
0.374857
0.377061
0.379205
0.381209
0.383341
0.385383
0.38767
0.389839
0.392372
0.394711
0.397567
0.400108
0.403396
0.406195
0.410071
0.4132
0.41787
0.421432
0.427163
0.431337
0.438413
0.443147
0.451139
0.455362
0.462702
0.464467
0.469485
0.468532
0.473777
0.47544
0.478038
0.475505
0.437339
0.419834
0.327219
0.289234
0.321244
0.375564
0.39669
0.405711
0.397793
0.395181
0.386978
0.385285
0.379597
0.378921
0.375758
0.376494
0.375311
0.376399
0.375879
0.376523
0.375714
0.37527
0.373637
0.372039
0.369596
0.367162
0.364428
0.362031
0.359915
0.358324
0.357214
0.356471
0.356099
0.355728
0.355512
0.354941
0.354438
0.353369
0.352444
0.35084
0.349539
0.347484
0.345895
0.343567
0.34181
0.339587
0.33804
0.335026
0.337511
0.344119
0.357657
0.377617
0.397377
0.409061
0.409969
0.402313
0.390175
0.377073
0.365409
0.35696
0.352886
0.353241
0.356641
0.36124
0.365619
0.369326
0.372305
0.374857
0.377065
0.379213
0.381222
0.383359
0.385404
0.387695
0.389867
0.392402
0.394742
0.397601
0.400144
0.403434
0.406235
0.410113
0.413246
0.417919
0.421484
0.427216
0.431391
0.438462
0.443191
0.451173
0.455388
0.462721
0.46449
0.469512
0.468574
0.473792
0.475423
0.477915
0.47531
0.436896
0.418974
0.326071
0.288357
0.320882
0.375612
0.396938
0.406018
0.398082
0.395423
0.387157
0.385404
0.379678
0.378987
0.375818
0.376548
0.375354
0.376427
0.375891
0.376522
0.375705
0.375258
0.373627
0.372033
0.369597
0.367171
0.364443
0.362051
0.359938
0.358348
0.357236
0.356487
0.356109
0.355729
0.355505
0.354925
0.354413
0.353336
0.352402
0.350787
0.349472
0.347402
0.34579
0.34344
0.341652
0.339399
0.33782
0.334799
0.337483
0.344016
0.357437
0.377307
0.397102
0.408954
0.410097
0.402669
0.390694
0.377664
0.365993
0.357482
0.353312
0.353551
0.356835
0.361342
0.365662
0.369339
0.372306
0.374858
0.377069
0.379222
0.381235
0.383377
0.385425
0.387719
0.389893
0.392431
0.394774
0.397634
0.400179
0.40347
0.406273
0.410154
0.41329
0.417966
0.421536
0.427269
0.431444
0.438511
0.443234
0.451206
0.455415
0.46274
0.464513
0.469539
0.468614
0.473807
0.475404
0.477793
0.475115
0.436454
0.418117
0.32492
0.287473
0.320523
0.375676
0.3972
0.406335
0.398378
0.395669
0.387337
0.385524
0.37976
0.379052
0.375878
0.376602
0.375396
0.376454
0.375903
0.376522
0.375696
0.375247
0.373617
0.372028
0.369597
0.367179
0.364458
0.362071
0.359961
0.358371
0.357257
0.356504
0.356119
0.35573
0.355497
0.354909
0.354388
0.353303
0.35236
0.350735
0.349406
0.34732
0.345687
0.343314
0.341496
0.339212
0.3376
0.334574
0.337454
0.343913
0.357218
0.376996
0.396825
0.408845
0.410222
0.403021
0.391209
0.378251
0.366571
0.357999
0.353733
0.353857
0.357027
0.361442
0.365704
0.369351
0.372307
0.374858
0.377072
0.37923
0.381248
0.383394
0.385446
0.387743
0.38992
0.39246
0.394804
0.397667
0.400213
0.403506
0.406311
0.410195
0.413334
0.418014
0.421586
0.427321
0.431496
0.438559
0.443276
0.451239
0.455441
0.462759
0.464534
0.469565
0.468654
0.473821
0.475385
0.477672
0.474921
0.436016
0.417264
0.323767
0.286581
0.320168
0.375756
0.397479
0.406664
0.398681
0.395919
0.38752
0.385646
0.379843
0.379119
0.375939
0.376656
0.375439
0.376482
0.375916
0.376521
0.375688
0.375236
0.373607
0.372022
0.369598
0.367187
0.364472
0.36209
0.359983
0.358394
0.357278
0.356521
0.356128
0.355732
0.35549
0.354893
0.354364
0.353271
0.352317
0.350683
0.349339
0.347239
0.345583
0.343188
0.34134
0.339026
0.337382
0.33435
0.337426
0.343812
0.357001
0.376686
0.396547
0.408734
0.410344
0.40337
0.391719
0.378832
0.367144
0.358509
0.354148
0.354158
0.357215
0.361541
0.365745
0.369363
0.372308
0.374858
0.377075
0.379238
0.38126
0.38341
0.385466
0.387766
0.389946
0.392488
0.394835
0.397699
0.400247
0.403542
0.406349
0.410235
0.413378
0.41806
0.421636
0.427372
0.431547
0.438606
0.443318
0.45127
0.455466
0.462777
0.464555
0.46959
0.468692
0.473834
0.475366
0.47755
0.474728
0.43558
0.416415
0.322613
0.285682
0.319818
0.375853
0.397775
0.407005
0.39899
0.396173
0.387705
0.385769
0.379926
0.379185
0.375999
0.37671
0.375482
0.37651
0.375928
0.376521
0.375679
0.375225
0.373597
0.372017
0.369599
0.367194
0.364486
0.36211
0.360005
0.358416
0.357299
0.356537
0.356138
0.355733
0.355483
0.354877
0.35434
0.353238
0.352276
0.350631
0.349273
0.347158
0.34548
0.343063
0.341185
0.338841
0.337165
0.334128
0.337398
0.343711
0.356784
0.376376
0.396267
0.40862
0.410463
0.403716
0.392225
0.379407
0.367709
0.359013
0.354557
0.354454
0.3574
0.361638
0.365785
0.369374
0.372309
0.374858
0.377078
0.379245
0.381272
0.383427
0.385486
0.387789
0.389971
0.392516
0.394864
0.39773
0.40028
0.403577
0.406386
0.410274
0.41342
0.418106
0.421685
0.427422
0.431597
0.438652
0.443359
0.451302
0.45549
0.462794
0.464576
0.469615
0.46873
0.473846
0.475346
0.47743
0.474536
0.435146
0.415569
0.321457
0.284777
0.319474
0.375969
0.398087
0.407356
0.399307
0.396431
0.387892
0.385893
0.38001
0.379251
0.376059
0.376764
0.375525
0.376538
0.375941
0.376521
0.375671
0.375214
0.373587
0.372011
0.369599
0.367202
0.3645
0.362128
0.360027
0.358439
0.357319
0.356553
0.356147
0.355735
0.355476
0.354862
0.354316
0.353206
0.352234
0.35058
0.349208
0.347078
0.345378
0.342938
0.34103
0.338657
0.33695
0.333907
0.33737
0.343611
0.356568
0.376066
0.395986
0.408504
0.41058
0.404058
0.392726
0.379977
0.368269
0.35951
0.35496
0.354746
0.357583
0.361733
0.365825
0.369385
0.37231
0.374857
0.377081
0.379253
0.381284
0.383443
0.385505
0.387812
0.389996
0.392543
0.394893
0.397761
0.400312
0.403611
0.406422
0.410313
0.413462
0.418151
0.421733
0.427472
0.431647
0.438697
0.443399
0.451332
0.455514
0.462811
0.464596
0.46964
0.468766
0.473857
0.475325
0.477309
0.474345
0.434716
0.414728
0.320301
0.283866
0.319138
0.376104
0.398415
0.407719
0.399629
0.396692
0.38808
0.386018
0.380094
0.379318
0.376119
0.376818
0.375567
0.376566
0.375953
0.376521
0.375663
0.375202
0.373577
0.372006
0.369599
0.367209
0.364514
0.362147
0.360048
0.35846
0.35734
0.356569
0.356157
0.355736
0.355468
0.354847
0.354292
0.353174
0.352192
0.350529
0.349142
0.346998
0.345276
0.342814
0.340877
0.338474
0.336736
0.333688
0.337343
0.343512
0.356354
0.375757
0.395704
0.408385
0.410694
0.404397
0.393223
0.380541
0.368822
0.360001
0.355358
0.355033
0.357762
0.361827
0.365863
0.369396
0.37231
0.374856
0.377083
0.37926
0.381296
0.383458
0.385524
0.387834
0.39002
0.39257
0.394922
0.397792
0.400344
0.403645
0.406458
0.410351
0.413503
0.418195
0.421781
0.42752
0.431696
0.438741
0.443438
0.451362
0.455538
0.462827
0.464616
0.469663
0.468802
0.473868
0.475303
0.477189
0.474155
0.434288
0.413892
0.319144
0.282951
0.318811
0.376258
0.398761
0.408092
0.399958
0.396955
0.38827
0.386144
0.380178
0.379385
0.37618
0.376872
0.37561
0.376594
0.375966
0.376521
0.375654
0.375191
0.373568
0.372
0.3696
0.367216
0.364527
0.362165
0.360069
0.358482
0.35736
0.356585
0.356166
0.355738
0.355462
0.354831
0.354268
0.353143
0.352151
0.350478
0.349077
0.346918
0.345174
0.342691
0.340724
0.338292
0.336523
0.33347
0.337316
0.343414
0.35614
0.375447
0.395421
0.408265
0.410805
0.404733
0.393716
0.3811
0.369369
0.360486
0.35575
0.355317
0.357939
0.361919
0.365901
0.369406
0.37231
0.374856
0.377086
0.379267
0.381307
0.383474
0.385543
0.387855
0.390045
0.392596
0.39495
0.397822
0.400376
0.403678
0.406493
0.410389
0.413544
0.418239
0.421827
0.427568
0.431744
0.438785
0.443476
0.451391
0.45556
0.462843
0.464635
0.469686
0.468837
0.473878
0.475281
0.47707
0.473966
0.433864
0.41306
0.317988
0.282031
0.318495
0.376434
0.399123
0.408475
0.400292
0.397222
0.388461
0.38627
0.380263
0.379451
0.37624
0.376926
0.375652
0.376621
0.375979
0.376521
0.375646
0.37518
0.373558
0.371994
0.3696
0.367223
0.36454
0.362183
0.360089
0.358503
0.357379
0.356601
0.356175
0.355739
0.355455
0.354816
0.354245
0.353111
0.35211
0.350427
0.349012
0.346838
0.345073
0.342568
0.340572
0.338111
0.336311
0.333253
0.337289
0.343316
0.355928
0.375139
0.395136
0.408142
0.410913
0.405064
0.394204
0.381653
0.36991
0.360965
0.356137
0.355595
0.358112
0.362009
0.365938
0.369416
0.37231
0.374854
0.377088
0.379273
0.381318
0.383488
0.385561
0.387877
0.390068
0.392622
0.394978
0.397852
0.400407
0.403711
0.406527
0.410426
0.413584
0.418282
0.421873
0.427615
0.431791
0.438828
0.443514
0.45142
0.455583
0.462859
0.464653
0.469709
0.468871
0.473887
0.475259
0.476951
0.473778
0.433444
0.412233
0.316831
0.281108
0.31819
0.37663
0.399502
0.408868
0.400631
0.397491
0.388653
0.386397
0.380348
0.379518
0.376299
0.376979
0.375694
0.376649
0.375991
0.376521
0.375638
0.375169
0.373548
0.371988
0.369599
0.36723
0.364553
0.3622
0.360109
0.358524
0.357399
0.356616
0.356185
0.355741
0.355448
0.354801
0.354221
0.35308
0.352069
0.350376
0.348948
0.346759
0.344972
0.342445
0.340421
0.337931
0.336101
0.333038
0.337262
0.343219
0.355717
0.37483
0.394851
0.408017
0.411019
0.405393
0.394687
0.3822
0.370445
0.361437
0.356518
0.35587
0.358283
0.362098
0.365975
0.369426
0.372309
0.374853
0.37709
0.379279
0.381329
0.383503
0.385579
0.387897
0.390091
0.392648
0.395005
0.397881
0.400437
0.403743
0.406561
0.410462
0.413624
0.418324
0.421918
0.427661
0.431837
0.43887
0.443551
0.451448
0.455604
0.462874
0.464671
0.469731
0.468904
0.473896
0.475236
0.476833
0.473591
0.433027
0.411412
0.315676
0.280182
0.317898
0.376848
0.399898
0.409271
0.400976
0.397762
0.388846
0.386525
0.380433
0.379584
0.376359
0.377032
0.375736
0.376676
0.376004
0.376521
0.37563
0.375158
0.373538
0.371982
0.369599
0.367236
0.364565
0.362217
0.360129
0.358545
0.357418
0.356631
0.356194
0.355742
0.355441
0.354787
0.354198
0.353049
0.352029
0.350326
0.348883
0.34668
0.344872
0.342323
0.340271
0.337752
0.335892
0.332824
0.337236
0.343123
0.355507
0.374523
0.394564
0.40789
0.411122
0.405718
0.395166
0.382742
0.370973
0.361903
0.356893
0.35614
0.358451
0.362185
0.366011
0.369435
0.372309
0.374852
0.377091
0.379285
0.381339
0.383517
0.385596
0.387918
0.390114
0.392673
0.395032
0.397909
0.400467
0.403775
0.406594
0.410498
0.413662
0.418366
0.421963
0.427707
0.431883
0.438912
0.443587
0.451475
0.455626
0.462888
0.464689
0.469752
0.468937
0.473904
0.475213
0.476716
0.473406
0.432613
0.410596
0.314522
0.279255
0.317619
0.377088
0.400311
0.409684
0.401325
0.398036
0.38904
0.386652
0.380518
0.379651
0.376418
0.377085
0.375778
0.376704
0.376016
0.376521
0.375621
0.375147
0.373528
0.371977
0.369599
0.367242
0.364577
0.362234
0.360148
0.358565
0.357436
0.356646
0.356203
0.355744
0.355435
0.354772
0.354175
0.353018
0.351988
0.350276
0.348819
0.346601
0.344772
0.342202
0.340121
0.337575
0.335684
0.332612
0.33721
0.343028
0.355298
0.374216
0.394277
0.40776
0.411222
0.406039