/*--------------------------------*- C++ -*----------------------------------*\
| =========                 |                                                 |
| \\      /  F ield         | OpenFOAM: The Open Source CFD Toolbox           |
|  \\    /   O peration     | Version:  2412                                  |
|   \\  /    A nd           | Website:  www.openfoam.com                      |
|    \\/     M anipulation  |                                                 |
\*---------------------------------------------------------------------------*/
FoamFile
{
    version     2.0;
    format      ascii;
    arch        "LSB;label=32;scalar=64";
    class       volScalarField;
    location    "0.6";
    object      p;
}
// * * * * * * * * * * * * * * * * * * * * * * * * * * * * * * * * * * * * * //

dimensions      [0 2 -2 0 0 0 0];

internalField   nonuniform List<scalar> 
13068
(
106718
106689
106645
106572
106498
106386
106284
106145
106027
105862
105717
105507
105320
105058
104842
104530
104288
103912
103644
103183
102892
102319
102012
101292
100979
100060
99762.2
98570.1
98322.3
96749.9
96609.6
94501.5
94561.8
91690.1
92100.3
88127.3
89125.4
83545.6
85512.4
77563.2
81110.2
69629.9
75749.3
58951.2
69254.6
44306.3
61328.5
23523.9
51030.9
-7493.97
36162.8
-53921.8
16458.6
-112841
1106.99
-72069.8
8348.01
-35001
17409.9
-9613.73
24564.7
8696.49
31546.6
22846.6
38245.1
33911.9
44419.4
42697.5
49993.2
49737
54866
55335.4
58962.8
59727.3
62313.3
63166.2
65041.7
65904.3
67298.2
68153
69214.3
70071.7
70886.7
71768.9
72374.8
73310.6
73703.7
74732.2
74875.1
76055.2
75879.5
77302.9
76705.4
78508.9
77340.4
79716.6
77770.1
80971
77981.3
106712
106684
106641
106568
106494
106383
106282
106143
106025
105861
105715
105505
105319
105057
104840
104528
104286
103910
103642
103180
102889
102317
102009
101289
100976
100057
99759.2
98566.2
98319
96745.4
96606
94496.3
94557.9
91684
92096.2
88120.2
89121.2
83537.4
85508.4
77553.8
81106.8
69619.4
75746.8
58939.5
69252.4
44292.1
61324
23505.8
51021.8
-7507.48
36157.5
-53891
16479.8
-112656
1160.53
-72039.4
8357.56
-35012.6
17408.8
-9623.01
24567.8
8691.17
31549.5
22841.6
38246.6
33907
44419.6
42692.5
49991.6
49731.3
54862.7
55329.3
58958.8
59721.7
62309.5
63161.8
65038.8
65901.3
67296.3
68151.4
69213.2
70071
70886.2
71768.8
72374.2
73310.6
73702.8
74732.3
74873.7
76055.4
75877.7
77303.2
76703.3
78509.4
77338.4
79717.2
77768.8
80971.2
77981.6
106706
106679
106636
106564
106490
106380
106279
106141
106023
105859
105714
105504
105317
105055
104838
104526
104285
103908
103640
103178
102887
102314
102007
101286
100973
100053
99756.2
98562.4
98315.7
96740.9
96602.4
94491.1
94554.1
91678
92092.2
88113.1
89117.1
83529.2
85504.5
77544.5
81103.3
69608.9
75744.2
58927.8
69250.2
44278
61319.6
23488
51012.9
-7520.69
36152.5
-53860.1
16501.1
-112473
1213.45
-72009.5
8367.09
-35023.8
17407.9
-9632.2
24570.9
8685.81
31552.3
22836.6
38248
33902.2
44419.7
42687.4
49990
49725.6
54859.5
55323.3
58954.8
59716.2
62305.7
63157.4
65035.9
65898.4
67294.4
68149.7
69212.1
70070.3
70885.5
71768.7
72373.6
73310.7
73701.9
74732.4
74872.4
76055.4
75875.9
77303.4
76701.3
78509.8
77336.5
79717.7
77767.6
80971.4
77981.8
106701
106674
106631
106559
106486
106376
106276
106139
106021
105858
105712
105502
105315
105053
104837
104525
104283
103906
103638
103176
102885
102312
102004
101283
100971
100050
99753.3
98558.5
98312.5
96736.5
96598.9
94486
94550.4
91672
92088.2
88106.1
89113.1
83521.1
85500.5
77535.2
81099.9
69598.5
75741.6
58916.1
69248
44264
61315.2
23470.3
51004.1
-7533.62
36147.6
-53829.1
16522.5
-112291
1265.77
-71979.8
8376.57
-35034.8
17407.2
-9641.29
24573.9
8680.43
31555
22831.6
38249.3
33897.4
44419.7
42682.4
49988.5
49720
54856.4
55317.4
58950.9
59710.8
62302.1
63153.2
65033.1
65895.5
67292.5
68148.1
69211.1
70069.6
70884.9
71768.5
72373
73310.7
73701
74732.4
74871
76055.5
75874.2
77303.7
76699.3
78510.2
77334.5
79718.2
77766.3
80971.5
77982
106695
106669
106626
106555
106482
106373
106273
106136
106019
105856
105710
105501
105314
105052
104835
104523
104281
103904
103636
103174
102883
102309
102002
101280
100968
100047
99750.3
98554.8
98309.3
96732.1
96595.4
94480.9
94546.6
91666.1
92084.3
88099.2
89109.1
83513
85496.6
77526
81096.5
69588.2
75739
58904.6
69245.7
44250.1
61310.8
23452.8
50995.5
-7546.38
36142.9
-53798.3
16543.8
-112110
1317.56
-71950.4
8385.98
-35045.6
17406.5
-9650.28
24576.9
8675.08
31557.7
22826.6
38250.7
33892.6
44419.8
42677.5
49986.9
49714.5
54853.3
55311.5
58947.1
59705.4
62298.5
63148.9
65030.3
65892.6
67290.7
68146.4
69210
70068.9
70884.3
71768.3
72372.4
73310.8
73700.2
74732.5
74869.7
76055.6
75872.4
77303.9
76697.3
78510.6
77332.6
79718.7
77765
80971.6
77982.2
106690
106664
106621
106551
106478
106370
106270
106134
106017
105854
105709
105499
105312
105050
104834
104521
104279
103902
103634
103172
102881
102307
101999
101278
100965
100044
99747.4
98551
98306.1
96727.8
96592
94475.8
94542.9
91660.2
92080.4
88092.3
89105.1
83505.1
85492.8
77516.8
81093.1
69577.9
75736.4
58893.1
69243.5
44236.3
61306.4
23435.5
50986.9
-7558.99
36138.3
-53767.6
16565.1
-111932
1368.84
-71921.2
8395.31
-35056.4
17405.8
-9659.18
24579.9
8669.79
31560.4
22821.6
38252
33887.9
44419.9
42672.6
49985.3
49708.9
54850.2
55305.7
58943.3
59700.1
62294.9
63144.7
65027.5
65889.7
67288.9
68144.8
69209
70068.2
70883.7
71768.2
72371.8
73310.8
73699.3
74732.5
74868.4
76055.7
75870.6
77304.1
76695.3
78511
77330.7
79719.1
77763.8
80971.7
77982.4
106685
106659
106616
106547
106474
106367
106268
106132
106015
105853
105707
105497
105311
105049
104832
104520
104278
103900
103632
103169
102879
102304
101997
101275
100963
100040
99744.6
98547.3
98302.9
96723.5
96588.6
94470.8
94539.2
91654.3
92076.5
88085.5
89101.1
83497.1
85488.9
77507.7
81089.7
69567.8
75733.9
58881.7
69241.3
44222.5
61302.1
23418.2
50978.5
-7571.45
36133.8
-53737.1
16586.2
-111755
1419.61
-71892.2
8404.58
-35067
17405.2
-9667.99
24582.9
8664.54
31563
22816.7
38253.3
33883.1
44419.9
42667.7
49983.8
49703.5
54847.1
55299.9
58939.5
59694.8
62291.3
63140.5
65024.7
65886.9
67287.1
68143.2
69207.9
70067.5
70883.1
71768
72371.2
73310.9
73698.4
74732.6
74867
76055.8
75868.9
77304.3
76693.3
78511.4
77328.8
79719.6
77762.5
80971.8
77982.6
106679
106654
106612
106542
106471
106364
106265
106130
106013
105851
105706
105496
105309
105047
104830
104518
104276
103898
103630
103167
102876
102302
101995
101272
100960
100037
99741.7
98543.6
98299.8
96719.2
96585.2
94465.8
94535.6
91648.5
92072.7
88078.8
89097.2
83489.3
85485.1
77498.7
81086.3
69557.7
75731.3
58870.4
69239.1
44208.9
61297.8
23401.2
50970.1
-7583.76
36129.4
-53706.7
16607.2
-111580
1469.88
-71863.4
8413.78
-35077.4
17404.7
-9676.71
24585.9
8659.34
31565.7
22811.8
38254.6
33878.5
44420
42662.8
49982.3
49698.1
54844.1
55294.2
58935.7
59689.5
62287.8
63136.4
65022
65884
67285.2
68141.6
69206.9
70066.8
70882.4
71767.8
72370.7
73310.9
73697.5
74732.7
74865.7
76055.9
75867.2
77304.5
76691.3
78511.8
77327
79720
77761.3
80971.8
77982.8
106674
106649
106607
106538
106467
106360
106262
106127
106012
105849
105704
105494
105308
105046
104829
104516
104274
103896
103628
103165
102874
102300
101992
101269
100958
100034
99738.9
98539.9
98296.7
96714.9
96581.8
94460.9
94532
91642.8
92068.9
88072.1
89093.3
83481.5
85481.3
77489.8
81083
69547.7
75728.8
58859.2
69236.9
44195.4
61293.5
23384.3
50961.8
-7595.92
36125.1
-53676.5
16628.1
-111407
1519.63
-71834.8
8422.92
-35087.7
17404.1
-9685.33
24588.9
8654.19
31568.3
22807
38256
33873.8
44420.1
42658
49980.7
49692.7
54841.1
55288.5
58932
59684.3
62284.3
63132.3
65019.3
65881.2
67283.5
68140
69205.9
70066.2
70881.8
71767.7
72370.1
73310.9
73696.6
74732.7
74864.4
76056
75865.5
77304.7
76689.4
78512.2
77325.1
79720.4
77760.1
80971.9
77983
106669
106644
106602
106534
106463
106357
106260
106125
106010
105848
105703
105493
105306
105044
104827
104515
104273
103894
103627
103163
102872
102297
101990
101267
100955
100031
99736.1
98536.3
98293.6
96710.7
96578.4
94456
94528.4
91637.1
92065.1
88065.4
89089.4
83473.8
85477.6
77480.9
81079.7
69537.7
75726.3
58848
69234.7
44182
61289.3
23367.5
50953.7
-7607.92
36120.9
-53646.4
16648.9
-111235
1568.89
-71806.4
8432
-35097.9
17403.7
-9693.87
24591.8
8649.08
31570.9
22802.2
38257.2
33869.2
44420.1
42653.2
49979.2
49687.3
54838.1
55282.9
58928.3
59679.2
62280.8
63128.2
65016.6
65878.5
67281.7
68138.4
69204.8
70065.5
70881.2
71767.5
72369.5
73311
73695.8
74732.8
74863.1
76056.1
75863.8
77304.9
76687.5
78512.6
77323.3
79720.8
77758.9
80971.9
77983.2
106664
106639
106598
106530
106459
106354
106257
106123
106008
105846
105701
105492
105305
105043
104826
104513
104271
103893
103625
103161
102870
102295
101988
101264
100953
100028
99733.3
98532.7
98290.6
96706.6
96575.1
94451.2
94524.8
91631.4
92061.3
88058.8
89085.6
83466.1
85473.8
77472.2
81076.4
69527.9
75723.8
58837
69232.5
44168.7
61285.1
23350.9
50945.6
-7619.79
36116.8
-53616.5
16669.6
-111065
1617.64
-71778.2
8441.03
-35108
17403.2
-9702.31
24594.8
8644.02
31573.5
22797.4
38258.5
33864.7
44420.2
42648.5
49977.7
49682
54835.1
55277.3
58924.6
59674
62277.4
63124.1
65013.9
65875.7
67279.9
68136.8
69203.8
70064.8
70880.6
71767.4
72368.9
73311
73694.9
74732.8
74861.9
76056.1
75862.1
77305.1
76685.6
78512.9
77321.5
79721.2
77757.8
80971.9
77983.5
106659
106635
106593
106526
106456
106351
106254
106121
106006
105845
105700
105490
105304
105041
104824
104511
104269
103891
103623
103159
102868
102292
101986
101261
100950
100025
99730.5
98529.1
98287.5
96702.4
96571.8
94446.3
94521.3
91625.8
92057.6
88052.3
89081.8
83458.5
85470.2
77463.4
81073.2
69518.1
75721.3
58826
69230.3
44155.5
61280.9
23334.4
50937.6
-7631.5
36112.8
-53586.7
16690.1
-110896
1665.89
-71750.2
8450.02
-35117.9
17402.9
-9710.65
24597.7
8639.01
31576.1
22792.7
38259.8
33860.1
44420.3
42643.8
49976.2
49676.8
54832.2
55271.8
58921
59669
62273.9
63120.1
65011.2
65873
67278.2
68135.3
69202.8
70064.1
70880
71767.2
72368.3
73311
73694.1
74732.9
74860.6
76056.2
75860.5
77305.3
76683.7
78513.3
77319.7
79721.6
77756.6
80972
77983.7
106654
106630
106589
106522
106452
106348
106252
106119
106004
105843
105698
105489
105302
105040
104823
104510
104268
103889
103621
103157
102866
102290
101983
101258
100948
100022
99727.8
98525.6
98284.5
96698.3
96568.5
94441.6
94517.8
91620.3
92053.9
88045.8
89078
83451
85466.5
77454.8
81070
69508.4
75718.9
58815.1
69228.2
44142.4
61276.8
23318.1
50929.7
-7643.07
36108.9
-53557.1
16710.6
-110730
1713.65
-71722.4
8458.96
-35127.7
17402.6
-9718.9
24600.7
8634.04
31578.7
22788
38261.1
33855.6
44420.3
42639.2
49974.8
49671.6
54829.3
55266.3
58917.4
59663.9
62270.6
63116.1
65008.6
65870.2
67276.4
68133.8
69201.8
70063.5
70879.4
71767
72367.8
73311.1
73693.2
74733
74859.3
76056.3
75858.8
77305.5
76681.8
78513.7
77318
79721.9
77755.5
80972
77983.9
106649
106625
106584
106518
106449
106345
106249
106117
106002
105842
105697
105487
105301
105038
104822
104508
104266
103887
103619
103155
102864
102288
101981
101256
100945
100018
99725
98522.1
98281.5
96694.2
96565.3
94436.8
94514.3
91614.7
92050.2
88039.3
89074.2
83443.5
85462.9
77446.2
81066.8
69498.8
75716.4
58804.4
69226
44129.4
61272.7
23302
50921.9
-7654.5
36105
-53527.6
16731
-110565
1760.91
-71694.8
8467.87
-35137.3
17402.3
-9727.06
24603.6
8629.12
31581.2
22783.4
38262.3
33851.2
44420.4
42634.5
49973.3
49666.4
54826.4
55260.8
58913.8
59658.9
62267.2
63112.2
65006
65867.6
67274.7
68132.2
69200.8
70062.8
70878.8
71766.9
72367.2
73311.1
73692.4
74733
74858.1
76056.4
75857.2
77305.7
76680
78514
77316.2
79722.3
77754.4
80971.9
77984.2
106644
106621
106580
106514
106445
106342
106246
106115
106001
105840
105695
105486
105299
105037
104820
104507
104265
103885
103618
103153
102862
102285
101979
101253
100943
100015
99722.4
98518.6
98278.6
96690.2
96562.1
94432.1
94510.8
91609.3
92046.6
88032.9
89070.5
83436.1
85459.3
77437.7
81063.6
69489.3
75714
58793.7
69223.9
44116.6
61268.6
23285.9
50914.2
-7665.78
36101.3
-53498.3
16751.2
-110401
1807.68
-71667.3
8476.74
-35146.8
17402.1
-9735.12
24606.5
8624.25
31583.8
22778.8
38263.6
33846.8
44420.4
42629.9
49971.8
49661.3
54823.5
55255.4
58910.3
59654
62263.9
63108.3
65003.4
65864.9
67273
68130.7
69199.8
70062.1
70878.2
71766.7
72366.6
73311.1
73691.6
74733.1
74856.9
76056.5
75855.6
77305.9
76678.1
78514.3
77314.5
79722.6
77753.3
80971.9
77984.5
106639
106616
106576
106511
106441
106339
106244
106113
105999
105839
105694
105484
105298
105035
104819
104505
104263
103884
103616
103151
102860
102283
101977
101251
100940
100012
99719.7
98515.1
98275.6
96686.2
96558.9
94427.5
94507.4
91603.8
92043
88026.6
89066.8
83428.7
85455.7
77429.3
81060.5
69479.8
75711.6
58783
69221.8
44103.8
61264.6
23270.1
50906.5
-7676.92
36097.7
-53469.1
16771.3
-110239
1853.96
-71640.1
8485.57
-35156.1
17401.9
-9743.08
24609.4
8619.43
31586.3
22774.2
38264.8
33842.4
44420.5
42625.4
49970.4
49656.2
54820.6
55250.1
58906.7
59649.1
62260.5
63104.4
65000.8
65862.2
67271.3
68129.2
69198.8
70061.5
70877.7
71766.6
72366.1
73311.2
73690.8
74733.1
74855.6
76056.6
75854
77306.1
76676.3
78514.6
77312.8
79722.9
77752.2
80971.9
77984.7
106634
106612
106571
106507
106438
106336
106241
106111
105997
105837
105692
105483
105296
105034
104817
104504
104261
103882
103614
103149
102858
102281
101975
101248
100938
100009
99717
98511.7
98272.7
96682.2
96555.7
94422.9
94504
91598.5
92039.4
88020.3
89063.2
83421.4
85452.1
77421
81057.4
69470.5
75709.2
58772.5
69219.6
44091.1
61260.6
23254.3
50899
-7687.93
36094.1
-53440.2
16791.3
-110079
1899.75
-71613
8494.38
-35165.3
17401.8
-9750.95
24612.3
8614.65
31588.8
22769.7
38266.1
33838
44420.5
42620.9
49968.9
49651.2
54817.8
55244.7
58903.2
59644.2
62257.3
63100.6
64998.3
65859.6
67269.6
68127.7
69197.9
70060.8
70877.1
71766.4
72365.5
73311.2
73689.9
74733.2
74854.4
76056.6
75852.4
77306.3
76674.5
78515
77311.1
79723.2
77751.2
80971.8
77985
106629
106607
106567
106503
106434
106333
106239
106109
105995
105836
105691
105481
105295
105033
104816
104502
104260
103880
103612
103147
102856
102279
101972
101245
100936
100007
99714.4
98508.3
98269.8
96678.3
96552.6
94418.3
94500.7
91593.1
92035.9
88014.1
89059.6
83414.2
85448.6
77412.7
81054.3
69461.2
75706.8
58762.1
69217.5
44078.5
61256.6
23238.8
50891.5
-7698.79
36090.6
-53411.4
16811.2
-109920
1945.05
-71586.2
8503.17
-35174.3
17401.7
-9758.73
24615.2
8609.92
31591.3
22765.2
38267.3
33833.7
44420.6
42616.4
49967.5
49646.2
54815
55239.5
58899.8
59639.4
62254
63096.7
64995.8
65857
67267.9
68126.2
69196.9
70060.2
70876.5
71766.3
72365
73311.2
73689.1
74733.3
74853.2
76056.7
75850.8
77306.4
76672.8
78515.3
77309.4
79723.5
77750.1
80971.8
77985.3
106625
106603
106563
106499
106431
106330
106236
106107
105994
105834
105690
105480
105294
105031
104814
104500
104258
103878
103611
103145
102855
102277
101970
101243
100933
100004
99711.8
98504.9
98267
96674.4
96549.5
94413.8
94497.3
91587.8
92032.4
88007.9
89056
83407
85445.1
77404.5
81051.2
69452
75704.5
58751.7
69215.4
44066.1
61252.7
23223.3
50884.2
-7709.51
36087.3
-53382.7
16830.9
-109763
1989.88
-71559.5
8511.93
-35183.2
17401.7
-9766.41
24618.1
8605.23
31593.7
22760.8
38268.5
33829.4
44420.6
42612
49966.1
49641.2
54812.2
55234.3
58896.4
59634.6
62250.8
63093
64993.2
65854.4
67266.3
68124.7
69195.9
70059.5
70875.9
71766.1
72364.4
73311.3
73688.3
74733.3
74852
76056.8
75849.2
77306.6
76671
78515.6
77307.8
79723.8
77749.1
80971.7
77985.5
106620
106598
106559
106495
106428
106327
106234
106105
105992
105833
105688
105479
105292
105030
104813
104499
104257
103877
103609
103143
102853
102274
101968
101240
100931
100001
99709.2
98501.6
98264.1
96670.5
96546.4
94409.3
94494
91582.6
92028.9
88001.8
89052.4
83399.9
85441.7
77396.4
81048.2
69442.8
75702.1
58741.4
69213.4
44053.7
61248.8
23208
50876.9
-7720.09
36084
-53354.3
16850.6
-109608
2034.22
-71533
8520.67
-35192
17401.8
-9774
24620.9
8600.59
31596.2
22756.4
38269.7
33825.2
44420.7
42607.6
49964.7
49636.3
54809.5
55229.1
58893
59629.8
62247.6
63089.2
64990.8
65851.9
67264.6
68123.3
69195
70058.9
70875.3
71765.9
72363.9
73311.3
73687.5
74733.4
74850.8
76056.9
75847.7
77306.8
76669.2
78515.9
77306.1
79724.1
77748.1
80971.6
77985.8
106615
106594
106555
106492
106424
106325
106231
106103
105990
105831
105687
105477
105291
105028
104812
104497
104255
103875
103607
103141
102851
102272
101966
101238
100929
99997.9
99706.6
98498.3
98261.3
96666.7
96543.4
94404.8
94490.7
91577.4
92025.4
87995.8
89048.9
83392.9
85438.3
77388.3
81045.1
69433.8
75699.8
58731.3
69211.3
44041.5
61244.9
23192.9
50869.7
-7730.54
36080.7
-53326
16870.1
-109454
2078.08
-71506.7
8529.4
-35200.6
17401.9
-9781.49
24623.8
8596
31598.6
22752.1
38270.9
33821
44420.7
42603.2
49963.3
49631.4
54806.7
55224
58889.6
59625.1
62244.4
63085.5
64988.3
65849.3
67263
68121.8
69194
70058.3
70874.8
71765.8
72363.4
73311.3
73686.7
74733.4
74849.7
76056.9
75846.2
77307
76667.5
78516.2
77304.5
79724.4
77747.1
80971.6
77986.1
106611
106590
106551
106488
106421
106322
106229
106101
105989
105830
105685
105476
105290
105027
104810
104496
104254
103873
103606
103139
102849
102270
101964
101235
100926
99995
99704.1
98495
98258.6
96662.9
96540.3
94400.4
94487.5
91572.3
92022
87989.8
89045.4
83385.9
85434.9
77380.3
81042.2
69424.8
75697.5
58721.2
69209.2
44029.3
61241.1
23177.9
50862.6
-7740.86
36077.6
-53297.9
16889.4
-109302
2121.47
-71480.5
8538.11
-35209
17402
-9788.88
24626.6
8591.46
31601
22747.7
38272.1
33816.8
44420.8
42598.9
49961.9
49626.6
54804
55218.9
58886.2
59620.5
62241.3
63081.8
64985.9
65846.8
67261.4
68120.4
69193.1
70057.6
70874.2
71765.6
72362.8
73311.4
73686
74733.5
74848.5
76057
75844.6
77307.1
76665.8
78516.4
77302.9
79724.6
77746.1
80971.5
77986.4
106606
106586
106547
106485
106418
106319
106226
106099
105987
105828
105684
105475
105288
105026
104809
104495
104252
103872
103604
103137
102847
102268
101962
101233
100924
99992.2
99701.6
98491.7
98255.8
96659.1
96537.3
94396
94484.3
91567.2
92018.6
87983.8
89041.9
83379
85431.5
77372.4
81039.2
69415.9
75695.2
58711.2
69207.2
44017.3
61237.3
23163
50855.6
-7751.04
36074.6
-53270
16908.7
-109152
2164.38
-71454.6
8546.82
-35217.3
17402.2
-9796.18
24629.5
8586.96
31603.4
22743.5
38273.2
33812.7
44420.8
42594.6
49960.5
49621.8
54801.3
55213.8
58882.9
59615.9
62238.2
63078.2
64983.4
65844.3
67259.8
68119
69192.2
70057
70873.6
71765.5
72362.3
73311.4
73685.2
74733.5
74847.3
76057.1
75843.1
77307.3
76664.1
78516.7
77301.4
79724.9
77745.2
80971.4
77986.7
106602
106581
106543
106481
106414
106316
106224
106097
105985
105827
105683
105473
105287
105024
104808
104493
104251
103870
103602
103135
102845
102266
101960
101231
100922
99989.4
99699.1
98488.5
98253.1
96655.4
96534.3
94391.7
94481.1
91562.1
92015.3
87977.9
89038.5
83372.2
85428.2
77364.6
81036.3
69407.1
75692.9
58701.2
69205.2
44005.3
61233.5
23148.3
50848.6
-7761.08
36071.6
-53242.2
16927.8
-109003
2206.82
-71428.8
8555.51
-35225.4
17402.5
-9803.39
24632.3
8582.51
31605.8
22739.2
38274.4
33808.6
44420.8
42590.3
49959.2
49617.1
54798.7
55208.8
58879.7
59611.3
62235.1
63074.5
64981
65841.9
67258.2
68117.6
69191.2
70056.4
70873.1
71765.3
72361.8
73311.4
73684.4
74733.6
74846.2
76057.2
75841.6
77307.5
76662.4
78517
77299.8
79725.1
77744.2
80971.2
77987
106597
106577
106539
106477
106411
106314
106222
106095
105984
105826
105681
105472
105286
105023
104806
104492
104249
103868
103601
103134
102843
102264
101958
101228
100919
99986.6
99696.6
98485.3
98250.3
96651.7
96531.4
94387.4
94477.9
91557.1
92011.9
87972.1
89035.1
83365.4
85424.9
77356.8
81033.3
69398.4
75690.7
58691.4
69203.1
43993.5
61229.8
23133.8
50841.8
-7771
36068.7
-53214.7
16946.8
-108855
2248.79
-71403.2
8564.2
-35233.4
17402.8
-9810.51
24635.1
8578.1
31608.2
22735
38275.6
33804.5
44420.9
42586.1
49957.8
49612.4
54796
55203.9
58876.4
59606.7
62232
63071
64978.7
65839.4
67256.6
68116.2
69190.3
70055.8
70872.5
71765.2
72361.2
73311.5
73683.7
74733.7
74845.1
76057.2
75840.2
77307.6
76660.8
78517.2
77298.3
79725.3
77743.3
80971.1
77987.4
106593
106573
106535
106474
106408
106311
106219
106093
105982
105824
105680
105471
105284
105022
104805
104490
104248
103867
103599
103132
102842
102262
101956
101226
100917
99983.9
99694.2
98482.2
98247.6
96648
96528.5
94383.1
94474.8
91552.1
92008.6
87966.3
89031.7
83358.7
85421.6
77349.1
81030.5
69389.8
75688.4
58681.7
69201.1
43981.8
61226.1
23119.3
50835
-7780.78
36065.9
-53187.3
16965.7
-108709
2290.29
-71377.8
8572.88
-35241.2
17403.1
-9817.53
24637.9
8573.74
31610.5
22730.9
38276.7
33800.5
44420.9
42581.9
49956.5
49607.7
54793.4
55199
58873.2
59602.2
62229
63067.4
64976.3
65837
67255
68114.8
69189.4
70055.2
70872
71765
72360.7
73311.5
73682.9
74733.7
74844
76057.3
75838.7
77307.8
76659.1
78517.5
77296.7
79725.6
77742.4
80971
77987.7
106589
106569
106531
106471
106405
106308
106217
106091
105981
105823
105679
105469
105283
105020
104804
104489
104246
103865
103597
103130
102840
102259
101954
101223
100915
99981.2
99691.7
98479
98245
96644.4
96525.6
94378.9
94471.7
91547.2
92005.4
87960.5
89028.4
83352
85418.4
77341.5
81027.6
69381.2
75686.2
58672
69199.1
43970.2
61222.4
23105.1
50828.3
-7790.44
36063.1
-53160.2
16984.4
-108565
2331.34
-71352.5
8581.56
-35248.9
17403.5
-9824.46
24640.7
8569.42
31612.9
22726.8
38277.8
33796.5
44420.9
42577.8
49955.1
49603.1
54790.8
55194.1
58870
59597.8
62226
63063.9
64974
65834.6
67253.5
68113.4
69188.5
70054.6
70871.4
71764.9
72360.2
73311.5
73682.1
74733.8
74842.8
76057.4
75837.2
77307.9
76657.5
78517.7
77295.2
79725.8
77741.5
80970.9
77988
106584
106565
106527
106467
106402
106306
106215
106089
105979
105821
105677
105468
105282
105019
104802
104487
104245
103864
103596
103128
102838
102257
101952
101221
100913
99978.5
99689.3
98475.9
98242.3
96640.8
96522.7
94374.7
94468.6
91542.3
92002.1
87954.9
89025.1
83345.4
85415.2
77333.9
81024.8
69372.7
75684
58662.4
69197.2
43958.6
61218.8
23090.9
50821.7
-7799.96
36060.4
-53133.2
17003
-108422
2371.91
-71327.4
8590.24
-35256.4
17404
-9831.3
24643.5
8565.15
31615.2
22722.7
38278.9
33792.6
44421
42573.7
49953.8
49598.5
54788.2
55189.3
58866.8
59593.4
62223
63060.4
64971.7
65832.2
67252
68112.1
69187.6
70054
70870.9
71764.7
72359.7
73311.5
73681.4
74733.8
74841.7
76057.5
75835.8
77308.1
76655.9
78518
77293.7
79726
77740.6
80970.7
77988.3
106580
106561
106523
106464
106399
106303
106212
106087
105977
105820
105676
105467
105281
105018
104801
104486
104244
103862
103594
103126
102836
102255
101950
101219
100911
99975.8
99686.9
98472.8
98239.7
96637.2
96519.9
94370.6
94465.6
91537.5
91998.9
87949.2
89021.8
83338.9
85412
77326.4
81022
69364.3
75681.8
58653
69195.2
43947.2
61215.2
23076.9
50815.2
-7809.36
36057.8
-53106.4
17021.4
-108281
2412.03
-71302.5
8598.92
-35263.8
17404.5
-9838.05
24646.2
8560.92
31617.4
22718.7
38280.1
33788.7
44421
42569.6
49952.5
49593.9
54785.7
55184.5
58863.7
59589
62220.1
63057
64969.4
65829.9
67250.4
68110.7
69186.7
70053.4
70870.4
71764.6
72359.2
73311.6
73680.7
74733.9
74840.7
76057.5
75834.4
77308.2
76654.3
78518.2
77292.3
79726.2
77739.7
80970.6
77988.7
106576
106557
106520
106460
106395
106300
106210
106086
105976
105819
105675
105466
105279
105017
104800
104485
104242
103861
103593
103125
102835
102253
101948
101216
100909
99973.2
99684.6
98469.8
98237.1
96633.7
96517.1
94366.5
94462.5
91532.7
91995.7
87943.7
89018.5
83332.4
85408.8
77319
81019.2
69356
75679.7
58643.6
69193.2
43935.9
61211.7
23063.1
50808.8
-7818.63
36055.3
-53079.9
17039.7
-108141
2451.7
-71277.7
8607.6
-35271
17405
-9844.7
24649
8556.74
31619.7
22714.7
38281.2
33784.8
44421
42565.6
49951.2
49589.4
54783.1
55179.8
58860.6
59584.7
62217.2
63053.5
64967.1
65827.5
67248.9
68109.4
69185.9
70052.8
70869.8
71764.4
72358.7
73311.6
73679.9
74733.9
74839.6
76057.6
75833
77308.3
76652.7
78518.4
77290.8
79726.3
77738.8
80970.4
77989
106572
106553
106516
106457
106392
106298
106208
106084
105974
105817
105674
105464
105278
105015
104799
104483
104241
103859
103591
103123
102833
102251
101946
101214
100906
99970.6
99682.3
98466.8
98234.6
96630.2
96514.3
94362.4
94459.5
91528
91992.6
87938.2
89015.3
83326
85405.7
77311.7
81016.4
69347.7
75677.5
58634.3
69191.3
43924.7
61208.1
23049.4
50802.4
-7827.78
36052.9
-53053.5
17057.9
-108003
2490.91
-71253.1
8616.29
-35278.1
17405.6
-9851.27
24651.7
8552.6
31622
22710.7
38282.2
33780.9
44421
42561.6
49949.9
49585
54780.6
55175.1
58857.5
59580.4
62214.3
63050.1
64964.8
65825.2
67247.4
68108
69185
70052.2
70869.3
71764.3
72358.2
73311.6
73679.2
74734
74838.5
76057.7
75831.6
77308.5
76651.2
78518.7
77289.4
79726.5
77738
80970.2
77989.3
106568
106550
106512
106454
106389
106295
106206
106082
105973
105816
105672
105463
105277
105014
104797
104482
104239
103857
103590
103121
102831
102249
101944
101212
100904
99968
99679.9
98463.8
98232
96626.8
96511.5
94358.4
94456.6
91523.3
91989.5
87932.7
89012.1
83319.7
85402.6
77304.4
81013.7
69339.6
75675.4
58625
69189.4
43913.7
61204.7
23035.9
50796.2
-7836.8
36050.5
-53027.3
17075.9
-107867
2529.66
-71228.7
8624.98
-35285
17406.2
-9857.75
24654.4
8548.5
31624.2
22706.8
38283.3
33777.1
44421
42557.6
49948.6
49580.5
54778.1
55170.5
58854.4
59576.1
62211.4
63046.8
64962.6
65822.9
67245.9
68106.7
69184.1
70051.7
70868.8
71764.2
72357.7
73311.7
73678.5
74734.1
74837.4
76057.7
75830.2
77308.6
76649.6
78518.9
77288
79726.7
77737.2
80970
77989.7
106564
106546
106509
106451
106386
106293
106204
106080
105971
105815
105671
105462
105276
105013
104796
104481
104238
103856
103588
103119
102830
102248
101943
101210
100902
99965.4
99677.6
98460.8
98229.5
96623.3
96508.8
94354.4
94453.7
91518.7
91986.4
87927.3
89009
83313.4
85399.6
77297.2
81011
69331.5
75673.3
58615.9
69187.4
43902.7
61201.2
23022.4
50790
-7845.7
36048.1
-53001.3
17093.7
-107732
2567.97
-71204.5
8633.67
-35291.8
17406.9
-9864.15
24657.1
8544.45
31626.4
22702.9
38284.4
33773.3
44421
42553.7
49947.3
49576.2
54775.7
55165.9
58851.4
59571.9
62208.6
63043.5
64960.4
65820.7
67244.5
68105.4
69183.3
70051.1
70868.3
71764
72357.2
73311.7
73677.8
74734.1
74836.4
76057.8
75828.8
77308.7
76648.1
78519.1
77286.6
79726.8
77736.4
80969.9
77990
106560
106542
106505
106447
106383
106290
106201
106079
105970
105813
105670
105461
105275
105012
104795
104479
104237
103854
103587
103118
102828
102246
101941
101207
100900
99962.9
99675.4
98457.9
98227
96619.9
96506.1
94350.5
94450.8
91514.1
91983.3
87921.9
89005.8
83307.2
85396.5
77290.1
81008.3
69323.5
75671.2
58606.9
69185.5
43891.8
61197.8
23009.2
50783.9
-7854.47
36045.9
-52975.6
17111.5
-107598
2605.83
-71180.4
8642.37
-35298.5
17407.6
-9870.45
24659.8
8540.44
31628.6
22699
38285.4
33769.6
44421.1
42549.8
49946
49571.8
54773.2
55161.3
58848.4
59567.8
62205.8
63040.2
64958.2
65818.4
67243
68104.1
69182.4
70050.5
70867.8
71763.9
72356.7
73311.7
73677.1
74734.2
74835.4
76057.9
75827.5
77308.9
76646.6
78519.3
77285.2
79727
77735.6
80969.7
77990.4
106556
106538
106501
106444
106381
106288
106199
106077
105968
105812
105669
105460
105273
105010
104794
104478
104235
103853
103585
103116
102826
102244
101939
101205
100898
99960.4
99673.1
98455
98224.6
96616.6
96503.4
94346.6
94447.9
91509.6
91980.3
87916.6
89002.7
83301.1
85393.5
77283.1
81005.7
69315.5
75669.1
58597.9
69183.7
43881
61194.4
22996
50777.8
-7863.12
36043.7
-52950
17129
-107466
2643.25
-71156.4
8651.08
-35305
17408.4
-9876.67
24662.5
8536.48
31630.8
22695.2
38286.5
33765.9
44421.1
42545.9
49944.8
49567.5
54770.8
55156.8
58845.4
59563.6
62203
63036.9
64956
65816.2
67241.6
68102.9
69181.6
70050
70867.2
71763.7
72356.2
73311.7
73676.4
74734.2
74834.3
76057.9
75826.2
77309
76645.1
78519.5
77283.8
79727.1
77734.8
80969.5
77990.7
106552
106535
106498
106441
106378
106285
106197
106075
105967
105811
105667
105458
105272
105009
104793
104477
104234
103852
103584
103114
102825
102242
101937
101203
100896
99957.9
99670.9
98452.2
98222.1
96613.3
96500.7
94342.7
94445
91505.1
91977.3
87911.4
88999.7
83295
85390.6
77276.1
81003
69307.7
75667
58589
69181.8
43870.4
61191
22983.1
50771.9
-7871.66
36041.5
-52924.7
17146.5
-107336
2680.23
-71132.6
8659.79
-35311.3
17409.2
-9882.81
24665.1
8532.56
31632.9
22691.5
38287.5
33762.2
44421.1
42542.1
49943.5
49563.3
54768.4
55152.3
58842.5
59559.6
62200.2
63033.7
64953.9
65814
67240.2
68101.6
69180.7
70049.4
70866.7
71763.6
72355.8
73311.8
73675.7
74734.3
74833.3
76058
75824.8
77309.1
76643.6
78519.7
77282.5
79727.2
77734
80969.3
77991.1
106548
106531
106494
106438
106375
106283
106195
106074
105965
105810
105666
105457
105271
105008
104791
104475
104233
103850
103582
103113
102823
102240
101935
101201
100894
99955.4
99668.7
98449.3
98219.7
96610
96498.1
94338.9
94442.2
91500.6
91974.3
87906.2
88996.7
83289
85387.6
77269.2
81000.4
69299.9
75665
58580.3
69179.9
43859.8
61187.7
22970.2
50766
-7880.07
36039.4
-52899.6
17163.7
-107207
2716.77
-71109
8668.51
-35317.6
17410
-9888.86
24667.8
8528.67
31635
22687.7
38288.5
33758.6
44421.1
42538.3
49942.3
49559.1
54766
55147.9
58839.6
59555.5
62197.5
63030.5
64951.8
65811.8
67238.8
68100.4
69179.9
70048.9
70866.2
71763.5
72355.3
73311.8
73675
74734.3
74832.3
76058.1
75823.5
77309.2
76642.1
78519.8
77281.1
79727.3
77733.2
80969
77991.5
106544
106527
106491
106435
106372
106280
106193
106072
105964
105808
105665
105456
105270
105007
104790
104474
104232
103849
103581
103111
102821
102238
101933
101199
100892
99953
99666.5
98446.5
98217.3
96606.7
96495.5
94335.1
94439.4
91496.2
91971.4
87901.1
88993.7
83283
85384.7
77262.4
80997.9
69292.2
75663
58571.6
69178.1
43849.4
61184.4
22957.5
50760.2
-7888.36
36037.4
-52874.7
17180.9
-107079
2752.87
-71085.5
8677.24
-35323.7
17410.9
-9894.83
24670.4
8524.83
31637.1
22684
38289.5
33755
44421.1
42534.5
49941.1
49554.9
54763.7
55143.5
58836.7
59551.5
62194.8
63027.3
64949.7
65809.6
67237.4
68099.1
69179.1
70048.3
70865.7
71763.3
72354.8
73311.8
73674.3
74734.4
74831.3
76058.1
75822.2
77309.3
76640.7
78520
77279.8
79727.5
77732.5
80968.8
77991.8
106540
106524
106488
106432
106369
106278
106191
106070
105963
105807
105664
105455
105269
105006
104789
104473
104230
103847
103579
103110
102820
102236
101932
101197
100890
99950.6
99664.4
98443.7
98215
96603.5
96492.9
94331.4
94436.7
91491.8
91968.5
87896
88990.7
83277.1
85381.8
77255.6
80995.3
69284.6
75661