/*--------------------------------*- C++ -*----------------------------------*\
| =========                 |                                                 |
| \\      /  F ield         | OpenFOAM: The Open Source CFD Toolbox           |
|  \\    /   O peration     | Version:  2412                                  |
|   \\  /    A nd           | Website:  www.openfoam.com                      |
|    \\/     M anipulation  |                                                 |
\*---------------------------------------------------------------------------*/
FoamFile
{
    version     2.0;
    format      ascii;
    arch        "LSB;label=32;scalar=64";
    class       surfaceScalarField;
    location    "0.6";
    object      phi;
}
// * * * * * * * * * * * * * * * * * * * * * * * * * * * * * * * * * * * * * //

dimensions      [0 3 -1 0 0 0 0];

oriented        oriented;

internalField   nonuniform List<scalar> 
25905
(
0.00747704
-0.0130595
0.00739173
-0.0116575
0.00731809
-0.0103627
0.00725585
-0.008914
0.0072084
-0.006715
0.0071793
-0.0034949
0.00717167
0.000525557
0.00718692
0.00455815
0.00722487
0.00778627
0.00728158
0.00964692
0.00734859
0.0100453
0.00741529
0.00933226
0.00747355
0.00807472
0.00752123
0.00682696
0.00756036
0.00582225
0.00759406
0.00509195
0.00762382
0.00448711
0.00765069
0.00400989
0.00767468
0.00355125
0.0076965
0.00319718
0.00771592
0.00283162
0.00773371
0.0025722
0.00774927
0.00225134
0.00776369
0.00207401
0.00777594
0.00177689
0.00778745
0.00166226
0.00779674
0.00136856
0.00780572
0.00131654
0.00781221
0.000996494
0.00781904
0.00103171
0.0078229
0.000659378
0.00782783
0.00078928
0.00782908
0.000334119
0.00783249
0.000603656
0.00783121
3.79331e-05
0.00783349
0.00049108
0.00782965
-0.000233094
0.00783143
0.00048889
0.00782526
-0.00043889
0.00782771
0.00066197
0.0078208
-0.00043812
0.00782736
0.00120867
0.00782422
-3.53255e-05
0.0078404
0.00215981
0.00784568
0.000559493
0.00787233
0.00279151
0.00787986
8.28706e-05
0.00789895
0.00102929
0.00788625
-0.00325767
0.00786505
-0.00569663
0.00780441
-0.0118575
0.00764295
-0.0274101
0.0073592
-0.0442573
0.00741138
0.00584011
0.00761441
0.0293482
0.0077424
0.0191549
0.00778253
0.00853188
0.00780323
0.00563282
0.00778381
-0.000104763
0.0077733
0.000414947
0.00775056
-0.00180582
0.00774614
7.61178e-05
0.00773491
-0.00102246
0.00773725
0.000658069
0.00773376
-0.000105414
0.0077408
0.00117619
0.0077437
0.000554695
0.00775383
0.0013675
0.0077595
0.000721381
0.00776831
0.00107927
0.00777161
0.000378207
0.00777469
0.000372755
0.00777201
-0.000325242
0.00776766
-0.00051149
0.00775844
-0.00110564
0.00774744
-0.00131242
0.00773314
-0.0017194
0.00771785
-0.00184452
0.00770127
-0.00202029
0.00768498
-0.00201153
0.00766909
-0.001995
0.00765432
-0.00190295
0.00764098
-0.00176223
0.00762882
-0.00166156
0.00761835
-0.00147524
0.00760839
-0.00143415
0.00759988
-0.00125464
0.007591
-0.00129296
0.00758359
-0.00110302
0.0075749
-0.00121561
0.00756809
-0.00098905
0.00755943
-0.00110334
0.00755364
-0.000795589
0.00754597
-0.000787377
0.00754265
-0.000369287
0.00753894
-2.20006e-05
0.00754136
0.000537248
0.00754789
0.00145505
0.00275526
0.007477
-0.0129607
0.00739156
-0.0115721
0.00731774
-0.0102888
0.00725533
-0.00885158
0.00720779
-0.00666746
0.00717876
-0.00346587
0.00717141
0.000532914
0.00718711
0.00454245
0.00722558
0.00774779
0.00728274
0.00958976
0.00735002
0.00997803
0.00741683
0.00926544
0.00747516
0.00801639
0.00752292
0.0067792
0.00756217
0.005783
0.00759598
0.00505813
0.00762585
0.00445725
0.0076528
0.00398293
0.00767687
0.00352718
0.00769875
0.0031753
0.00771822
0.00281214
0.00773605
0.00255437
0.00775164
0.00223574
0.00776609
0.00205956
0.00777838
0.0017646
0.00778992
0.00165072
0.00779923
0.00135925
0.00780824
0.00130753
0.00781475
0.000989984
0.0078216
0.00102485
0.00782549
0.000655493
0.00783045
0.000784323
0.00783172
0.000332845
0.00783515
0.00060023
0.0078339
3.91816e-05
0.0078362
0.000488779
0.0078324
-0.000229295
0.00783421
0.000487079
0.0078281
-0.000432777
0.00783059
0.000659477
0.00782377
-0.000431297
0.0078304
0.00120204
0.00782734
-3.22691e-05
0.00784356
0.00214359
0.00784885
0.000554198
0.00787543
0.00276493
0.00788286
7.54381e-05
0.00790174
0.00101041
0.0078888
-0.00324473
0.00786711
-0.00567494
0.00780578
-0.0117962
0.00764313
-0.0272474
0.00735802
-0.0439721
0.00741008
0.00578805
0.00761384
0.0291444
0.00774237
0.0190263
0.00778305
0.00849121
0.00780417
0.0056117
0.00778507
-8.5659e-05
0.00777477
0.000425241
0.00775215
-0.0017832
0.00774777
8.05033e-05
0.00773653
-0.00101123
0.00773887
0.000655737
0.00773537
-0.000101916
0.00774239
0.00116917
0.00774526
0.000551819
0.00775535
0.00135741
0.00776098
0.000715755
0.00776976
0.0010705
0.00777303
0.000374934
0.00777609
0.000369691
0.00777342
-0.000322574
0.00776909
-0.000507153
0.0077599
-0.00109645
0.00774894
-0.00130146
0.00773468
-0.00170514
0.00771944
-0.00182928
0.00770289
-0.00200374
0.00768664
-0.00199528
0.00767076
-0.00197913
0.00765599
-0.00188818
0.00764265
-0.00174889
0.00763048
-0.00164939
0.00761998
-0.00146474
0.00761
-0.00142417
0.00760147
-0.0012461
0.00759258
-0.00128407
0.00758517
-0.0010956
0.00757649
-0.00120694
0.00756971
-0.000982267
0.00756109
-0.00109473
0.00755537
-0.000789868
0.00754783
-0.000779831
0.00754463
-0.000366087
0.00754112
-1.84933e-05
0.00754373
0.000534637
0.00755054
0.00144824
0.00273594
0.00747695
-0.0128619
0.00739139
-0.0114865
0.0073174
-0.0102149
0.00725482
-0.00878901
0.00720719
-0.00661983
0.00717823
-0.0034369
0.00717114
0.000540004
0.00718728
0.0045263
0.00722627
0.00770881
0.00728387
0.00953216
0.00735142
0.00991048
0.00741835
0.00919851
0.00747673
0.00795801
0.00752458
0.00673135
0.00756395
0.00574364
0.00759789
0.00502419
0.00762785
0.00442729
0.00765489
0.00395589
0.00767903
0.00350305
0.00770097
0.00315336
0.00772049
0.00279262
0.00773836
0.0025365
0.007754
0.00222011
0.00776848
0.00204508
0.0077808
0.00175229
0.00779237
0.00163916
0.00780171
0.00134991
0.00781074
0.0012985
0.00781728
0.000983449
0.00782415
0.00101798
0.00782806
0.000651583
0.00783304
0.000779343
0.00783434
0.000331545
0.00783779
0.000596783
0.00783657
4.04025e-05
0.00783889
0.000486455
0.00783513
-0.000225531
0.00783697
0.000485235
0.00783091
-0.000426717
0.00783346
0.000656931
0.00782671
-0.000424553
0.00783341
0.00119534
0.00783044
-2.92944e-05
0.00784669
0.00212734
0.007852
0.000548885
0.00787851
0.00273842
0.00788584
6.81108e-05
0.00790451
0.000991741
0.00789133
-0.00323156
0.00786916
-0.00565277
0.00780714
-0.0117342
0.00764332
-0.0270836
0.00735683
-0.0436857
0.00740878
0.0057361
0.00761326
0.0289399
0.00774234
0.0188973
0.00778355
0.00844999
0.00780509
0.00559015
0.00778631
-6.68803e-05
0.00777623
0.000435322
0.00775373
-0.00176069
0.00774938
8.4854e-05
0.00773815
-0.000999998
0.00774047
0.000653414
0.00773697
-9.84131e-05
0.00774397
0.00116217
0.00774682
0.00054897
0.00775687
0.00134736
0.00776245
0.000710171
0.00777119
0.00106176
0.00777444
0.000371686
0.0077775
0.000366637
0.00777483
-0.000319911
0.00777051
-0.000502835
0.00776136
-0.00108729
0.00775044
-0.00129054
0.00773622
-0.00169092
0.00772102
-0.00181408
0.00770451
-0.00198724
0.00768829
-0.00197905
0.00767243
-0.00196328
0.00765767
-0.00187342
0.00764433
-0.00173555
0.00763214
-0.0016372
0.00762162
-0.00145422
0.00761162
-0.00141416
0.00760306
-0.00123755
0.00759416
-0.00127517
0.00758674
-0.00108818
0.00757807
-0.00119827
0.00757131
-0.000975507
0.00756276
-0.00108617
0.0075571
-0.000784211
0.00754967
-0.000772404
0.00754659
-0.000363007
0.00754329
-1.51899e-05
0.00754609
0.000531837
0.00755317
0.00144116
0.00271638
0.0074769
-0.0127631
0.00739122
-0.0114008
0.00731706
-0.0101407
0.00725432
-0.00872626
0.00720659
-0.00657211
0.0071777
-0.00340801
0.00717087
0.000546829
0.00718746
0.00450972
0.00722696
0.00766931
0.00728499
0.00947412
0.0073528
0.00984267
0.00741985
0.00913147
0.0074783
0.00789955
0.00752624
0.00668341
0.00756572
0.00570416
0.00759977
0.00499014
0.00762984
0.00439722
0.00765697
0.00392877
0.00768118
0.00347884
0.00770318
0.00313136
0.00772275
0.00277304
0.00774067
0.00251859
0.00775634
0.00220443
0.00777086
0.00203056
0.0077832
0.00173994
0.0077948
0.00162756
0.00780417
0.00134054
0.00781322
0.00128944
0.00781979
0.000976888
0.00782668
0.00101108
0.00783062
0.000647647
0.00783562
0.00077434
0.00783695
0.00033022
0.00784042
0.000593315
0.00783922
4.15959e-05
0.00784157
0.000484106
0.00783784
-0.000221803
0.00783972
0.000483358
0.00783371
-0.000420711
0.00783631
0.000654334
0.00782964
-0.000417887
0.00783641
0.00118858
0.00783351
-2.64008e-05
0.0078498
0.00211105
0.00785513
0.000543554
0.00788157
0.00271198
0.00788879
6.08879e-05
0.00790726
0.000973278
0.00789385
-0.00321815
0.00787118
-0.0056301
0.00780848
-0.0116715
0.00764349
-0.0269186
0.00735566
-0.0433978
0.00740749
0.00568426
0.00761267
0.0287347
0.00774228
0.0187676
0.00778404
0.00840824
0.007806
0.00556819
0.00778754
-4.84262e-05
0.00777768
0.000445189
0.00775529
-0.00173831
0.00775098
8.91683e-05
0.00773975
-0.000988776
0.00774207
0.0006511
0.00773856
-9.49058e-05
0.00774555
0.00115519
0.00774837
0.000546148
0.00775838
0.00133735
0.00776392
0.000704627
0.00777262
0.00105306
0.00777585
0.000368461
0.00777889
0.000363594
0.00777624
-0.000317255
0.00777194
-0.000498536
0.00776281
-0.00107816
0.00775193
-0.00127966
0.00773775
-0.00167675
0.00772259
-0.00179892
0.00770613
-0.00197077
0.00768993
-0.00196285
0.00767409
-0.00194744
0.00765934
-0.00185866
0.00764599
-0.0017222
0.00763379
-0.001625
0.00762325
-0.00144368
0.00761322
-0.00140413
0.00760465
-0.00122898
0.00759573
-0.00126626
0.0075883
-0.00108075
0.00757965
-0.00118962
0.00757291
-0.000968769
0.00756441
-0.00107767
0.00755882
-0.000778617
0.00755151
-0.000765096
0.00754855
-0.000360043
0.00754544
-1.20883e-05
0.00754843
0.000528849
0.00755579
0.0014338
0.00269657
0.00747686
-0.0126642
0.00739106
-0.0113151
0.00731673
-0.0100664
0.00725383
-0.00866336
0.00720601
-0.00652429
0.00717717
-0.00337917
0.00717061
0.000553391
0.00718764
0.00449269
0.00722764
0.0076293
0.0072861
0.00941566
0.00735417
0.0097746
0.00742133
0.00906431
0.00747985
0.00784104
0.00752788
0.00663538
0.00756747
0.00566456
0.00760165
0.00495596
0.00763182
0.00436704
0.00765903
0.00390155
0.00768332
0.00345455
0.00770537
0.0031093
0.007725
0.00275342
0.00774296
0.00250063
0.00775867
0.00218872
0.00777322
0.00201601
0.00778559
0.00172757
0.00779722
0.00161594
0.00780661
0.00133115
0.00781569
0.00128036
0.00782228
0.000970302
0.0078292
0.00100416
0.00783316
0.000643686
0.00783819
0.000769315
0.00783954
0.00032887
0.00784303
0.000589825
0.00784186
4.27619e-05
0.00784423
0.000481734
0.00784054
-0.000218109
0.00784245
0.000481449
0.0078365
-0.000414756
0.00783914
0.000651685
0.00783256
-0.000411298
0.00783939
0.00118175
0.00783657
-2.35875e-05
0.00785289
0.00209473
0.00785824
0.000538206
0.00788461
0.00268562
0.00789173
5.3769e-05
0.00790999
0.000955021
0.00789634
-0.0032045
0.00787319
-0.00560695
0.00780981
-0.0116081
0.00764366
-0.0267525
0.00735448
-0.0431086
0.00740621
0.00563254
0.00761208
0.0285289
0.00774221
0.0186375
0.0077845
0.00836595
0.00780688
0.00554581
0.00778876
-3.02995e-05
0.00777911
0.000454839
0.00775684
-0.00171604
0.00775256
9.3446e-05
0.00774135
-0.00097756
0.00774366
0.000648791
0.00774015
-9.13957e-05
0.00774712
0.00114822
0.00774991
0.000543351
0.00775988
0.00132738
0.00776539
0.000699123
0.00777405
0.00104439
0.00777725
0.000365259
0.00778029
0.00036056
0.00777764
-0.000314605
0.00777336
-0.000494256
0.00776426
-0.00106906
0.00775342
-0.00126882
0.00773928
-0.00166261
0.00772416
-0.0017838
0.00770773
-0.00195434
0.00769156
-0.00194668
0.00767575
-0.00193163
0.007661
-0.00184391
0.00764765
-0.00170884
0.00763543
-0.00161278
0.00762487
-0.00143312
0.00761482
-0.00139408
0.00760622
-0.00122038
0.00759729
-0.00125733
0.00758986
-0.00107332
0.00758122
-0.00118098
0.00757451
-0.000962055
0.00756606
-0.00106922
0.00756053
-0.000773085
0.00755334
-0.000757905
0.00755049
-0.000357196
0.00754759
-9.18678e-06
0.00755076
0.000525677
0.00755838
0.00142618
0.00267651
0.00747681
-0.0125652
0.0073909
-0.0112291
0.00731641
-0.00999188
0.00725334
-0.00860029
0.00720543
-0.00647638
0.00717666
-0.0033504
0.00717036
0.000559692
0.00718782
0.00447523
0.00722832
0.0075888
0.00728721
0.00935678
0.00735553
0.00970627
0.0074228
0.00899704
0.00748139
0.00778245
0.0075295
0.00658727
0.00756922
0.00562484
0.00760351
0.00492167
0.00763379
0.00433677
0.00766108
0.00387425
0.00768544
0.0034302
0.00770755
0.00308719
0.00772723
0.00273374
0.00774523
0.00248264
0.00776098
0.00217297
0.00777556
0.00200143
0.00778797
0.00171516
0.00779962
0.00160429
0.00780904
0.00132173
0.00781815
0.00127125
0.00782476
0.00096369
0.0078317
0.000997209
0.00783569
0.0006397
0.00784074
0.000764268
0.00784211
0.000327494
0.00784562
0.000586313
0.00784449
4.39007e-05
0.00784688
0.000479338
0.00784322
-0.00021445
0.00784516
0.000479507
0.00783926
-0.000408854
0.00784196
0.000648985
0.00783545
-0.000404787
0.00784234
0.00117486
0.00783961
-2.08537e-05
0.00785597
0.00207837
0.00786133
0.00053284
0.00788763
0.00265932
0.00789464
4.67535e-05
0.0079127
0.00093697
0.00789882
-0.00319063
0.00787518
-0.00558332
0.00781113
-0.011544
0.00764382
-0.0265852
0.00735332
-0.0428181
0.00740493
0.00558093
0.00761148
0.0283223
0.00774213
0.0185069
0.00778495
0.00832314
0.00780775
0.00552301
0.00778995
-1.24995e-05
0.00778052
0.000464272
0.00775838
-0.0016939
0.00775414
9.76855e-05
0.00774293
-0.000966352
0.00774523
0.000646488
0.00774172
-8.78838e-05
0.00774867
0.00114126
0.00775145
0.000540577
0.00776138
0.00131746
0.00776684
0.000693659
0.00777547
0.00103576
0.00777865
0.000362081
0.00778167
0.000357537
0.00777903
-0.000311962
0.00777477
-0.000489995
0.0077657
-0.00106
0.0077549
-0.00125801
0.0077408
-0.00164852
0.00772573
-0.00176873
0.00770933
-0.00193795
0.00769319
-0.00193054
0.00767739
-0.00191583
0.00766265
-0.00182917
0.00764929
-0.00169549
0.00763706
-0.00160055
0.00762648
-0.00142254
0.00761641
-0.00138401
0.00760779
-0.00121177
0.00759885
-0.00124839
0.00759141
-0.00106588
0.00758279
-0.00117236
0.00757609
-0.000955363
0.0075677
-0.00106083
0.00756223
-0.000767614
0.00755515
-0.00075083
0.00755242
-0.000354464
0.00754972
-6.48287e-06
0.00755308
0.00052232
0.00756096
0.00141829
0.00265622
0.00747677
-0.0124662
0.00739074
-0.0111431
0.00731609
-0.00991723
0.00725286
-0.00853706
0.00720487
-0.00642838
0.00717616
-0.00332169
0.00717012
0.000565734
0.00718801
0.00445734
0.00722901
0.0075478
0.00728831
0.00929747
0.00735688
0.0096377
0.00742427
0.00892966
0.00748292
0.0077238
0.00753112
0.00653906
0.00757095
0.00558501
0.00760536
0.00488726
0.00763574
0.00430639
0.00766312
0.00384687
0.00768754
0.00340578
0.00770972
0.00306501
0.00772945
0.00271402
0.00774749
0.0024646
0.00776327
0.00215719
0.00777789
0.00198681
0.00779032
0.00170272
0.007802
0.00159261
0.00781145
0.00131228
0.00782058
0.00126212
0.00782722
0.000957053
0.00783419
0.000990239
0.0078382
0.000635689
0.00784327
0.000759199
0.00784467
0.000326094
0.0078482
0.00058278
0.00784709
4.50125e-05
0.00784951
0.000476919
0.00784589
-0.000210826
0.00784786
0.000477532
0.00784201
-0.000403004
0.00784476
0.000646234
0.00783833
-0.000398351
0.00784528
0.0011679
0.00784263
-1.81984e-05
0.00785902
0.00206198
0.0078644
0.000527459
0.00789063
0.0026331
0.00789754
3.98417e-05
0.00791539
0.000919123
0.00790127
-0.00317651
0.00787716
-0.0055592
0.00781243
-0.0114793
0.00764398
-0.0264167
0.00735216
-0.0425263
0.00740365
0.00552944
0.00761087
0.0281151
0.00774203
0.0183757
0.00778538
0.00827979
0.0078086
0.00549978
0.00779113
4.97084e-06
0.00778192
0.000473486
0.0077599
-0.00167188
0.0077557
0.000101886
0.0077445
-0.000955152
0.0077468
0.000644189
0.00774328
-8.43715e-05
0.00775023
0.00113432
0.00775298
0.000537827
0.00776287
0.00130756
0.00776829
0.000688233
0.00777688
0.00102717
0.00778004
0.000358925
0.00778305
0.000354524
0.00778042
-0.000309325
0.00777617
-0.000485753
0.00776714
-0.00105096
0.00775637
-0.00124725
0.00774232
-0.00163446
0.00772728
-0.00175369
0.00771092
-0.00192159
0.00769481
-0.00191443
0.00767903
-0.00190006
0.0076643
-0.00181443
0.00765093
-0.00168213
0.00763869
-0.00158831
0.00762809
-0.00141194
0.00761799
-0.00137391
0.00760936
-0.00120313
0.0076004
-0.00123943
0.00759296
-0.00105844
0.00758434
-0.00116374
0.00757767
-0.000948693
0.00756933
-0.00105249
0.00756392
-0.000762204
0.00755696
-0.000743871
0.00755434
-0.000351846
0.00755184
-3.97523e-06
0.00755538
0.000518781
0.00756352
0.00141014
0.00263568
0.00747672
-0.0123672
0.00739058
-0.011057
0.00731578
-0.00984243
0.00725239
-0.00847368
0.00720431
-0.0063803
0.00717566
-0.00329304
0.00716988
0.000571518
0.0071882
0.00443902
0.00722969
0.00750631
0.0072894
0.00923776
0.00735822
0.00956887
0.00742572
0.00886216
0.00748443
0.00766508
0.00753273
0.00649077
0.00757267
0.00554507
0.0076072
0.00485274
0.00763767
0.00427591
0.00766514
0.0038194
0.00768964
0.00338129
0.00771187
0.00304278
0.00773165
0.00269424
0.00774973
0.00244651
0.00776555
0.00214136
0.0077802
0.00197216
0.00779267
0.00169026
0.00780437
0.0015809
0.00781385
0.0013028
0.007823
0.00125296
0.00782967
0.000950391
0.00783666
0.000983246
0.0078407
0.000631653
0.00784579
0.000754108
0.00784721
0.000324668
0.00785077
0.000579225
0.00784968
4.60974e-05
0.00785212
0.000474477
0.00784853
-0.000207235
0.00785054
0.000475526
0.00784474
-0.000397206
0.00784754
0.000643433
0.00784118
-0.000391992
0.00784821
0.00116088
0.00784563
-1.56203e-05
0.00786205
0.00204556
0.00786745
0.000522063
0.0078936
0.00260694
0.00790041
3.30325e-05
0.00791806
0.000901479
0.00790371
-0.00316217
0.00787911
-0.0055346
0.00781372
-0.0114139
0.00764413
-0.0262471
0.007351
-0.0422332
0.00740238
0.00547806
0.00761026
0.0279072
0.00774192
0.018244
0.00778579
0.00823592
0.00780943
0.00547614
0.00779229
2.21122e-05
0.0077833
0.000482478
0.0077614
-0.00164999
0.00775724
0.000106045
0.00774605
-0.000943961
0.00774835
0.000641893
0.00774484
-8.08598e-05
0.00775177
0.00112739
0.0077545
0.000535099
0.00776435
0.00129771
0.00776974
0.000682846
0.00777829
0.00101862
0.00778143
0.000355793
0.00778443
0.000351521
0.0077818
-0.000306694
0.00777757
-0.000481529
0.00776857
-0.00104196
0.00775784
-0.00123651
0.00774383
-0.00162045
0.00772883
-0.0017387
0.00771251
-0.00190527
0.00769642
-0.00189835
0.00768066
-0.0018843
0.00766593
-0.0017997
0.00765257
-0.00166876
0.00764031
-0.00157605
0.00762969
-0.00140132
0.00761957
-0.00136379
0.00761091
-0.00119448
0.00760194
-0.00123046
0.00759449
-0.00105099
0.00758589
-0.00115514
0.00757924
-0.000942045
0.00757095
-0.0010442
0.00756561
-0.000756854
0.00755876
-0.000737026
0.00755626
-0.000349342
0.00755394
-1.66152e-06
0.00755766
0.000515063
0.00756607
0.00140174
0.00261492
0.00747668
-0.0122681
0.00739043
-0.0109707
0.00731547
-0.00976747
0.00725193
-0.00841015
0.00720376
-0.00633212
0.00717517
-0.00326445
0.00716964
0.000577046
0.00718839
0.00442028
0.00723037
0.00746433
0.00729049
0.00917764
0.00735955
0.00949981
0.00742715
0.00879457
0.00748594
0.0076063
0.00753432
0.00644239
0.00757438
0.00550501
0.00760902
0.0048181
0.0076396
0.00424533
0.00766715
0.00379185
0.00769172
0.00335672
0.00771401
0.00302048
0.00773383
0.00267441
0.00775196
0.00242839
0.00776782
0.0021255
0.0077825
0.00195748
0.007795
0.00167776
0.00780673
0.00156917
0.00781623
0.0012933
0.00782541
0.00124378
0.0078321
0.000943703
0.00783911
0.00097623
0.00784318
0.000627593
0.00784829
0.000748995
0.00784974
0.000323218
0.00785331
0.00057565
0.00785226
4.71555e-05
0.00785472
0.000472011
0.00785117
-0.00020368
0.00785321
0.000473487
0.00784746
-0.000391459
0.00785031
0.000640581
0.00784402
-0.000385707
0.00785111
0.00115379
0.00784861
-1.31187e-05
0.00786507
0.0020291
0.00787048
0.000516651
0.00789656
0.00258086
0.00790327
2.63263e-05
0.00792071
0.000884037
0.00790613
-0.00314759
0.00788105
-0.00550952
0.00781499
-0.0113478
0.00764427
-0.0260764
0.00734985
-0.0419388
0.00740111
0.00542681
0.00760963
0.0276987
0.00774179
0.0181119
0.00778618
0.00819152
0.00781024
0.00545208
0.00779343
3.89221e-05
0.00778467
0.000491247
0.0077629
-0.00162822
0.00775878
0.000110162
0.0077476
-0.000932782
0.00774989
0.000639599
0.00774638
-7.73504e-05
0.0077533
0.00112048
0.00775601
0.000532393
0.00776583
0.00128789
0.00777117
0.000677497
0.00777969
0.0010101
0.0077828
0.000352683
0.0077858
0.000348527
0.00778317
-0.000304071
0.00777897
-0.000477325
0.00776999
-0.00103298
0.0077593
-0.00122582
0.00774533
-0.00160648
0.00773037
-0.00172374
0.00771408
-0.00188898
0.00769802
-0.00188229
0.00768228
-0.00186856
0.00766756
-0.00178497
0.00765419
-0.00165539
0.00764192
-0.00156378
0.00763128
-0.00139068
0.00762113
-0.00135365
0.00761246
-0.0011858
0.00760348
-0.00122148
0.00759602
-0.00104354
0.00758743
-0.00114655
0.0075808
-0.000935418
0.00757257
-0.00103597
0.00756728
-0.000751564
0.00756055
-0.000730295
0.00755816
-0.000346949
0.00755603
4.59911e-07
0.00755993
0.000511165
0.00756859
0.00139308
0.00259392
0.00747663
-0.012169
0.00739027
-0.0108844
0.00731516
-0.00969235
0.00725147
-0.00834646
0.00720322
-0.00628386
0.00717469
-0.00323593
0.00716942
0.000582321
0.00718858
0.00440111
0.00723105
0.00742187
0.00729157
0.00911712
0.00736087
0.0094305
0.00742858
0.00872686
0.00748743
0.00754745
0.0075359
0.00639391
0.00757607
0.00546483
0.00761083
0.00478334
0.00764151
0.00421465
0.00766915
0.00376421
0.00769378
0.00333209
0.00771613
0.00299813
0.007736
0.00265454
0.00775417
0.00241022
0.00777007
0.0021096
0.00778478
0.00194277
0.00779731
0.00166523
0.00780907
0.00155741
0.0078186
0.00128377
0.0078278
0.00123457
0.00783451
0.00093699
0.00784155
0.000969191
0.00784564
0.000623507
0.00785077
0.00074386
0.00785225
0.000321743
0.00785585
0.000572053
0.00785481
4.8187e-05
0.0078573
0.000469522
0.00785378
-0.000200158
0.00785585
0.000471416
0.00785016
-0.000385763
0.00785306
0.00063768
0.00784685
-0.000379496
0.007854
0.00114664
0.00785157
-1.06932e-05
0.00786806
0.00201261
0.00787348
0.000511225
0.0078995
0.00255484
0.0079061
1.97222e-05
0.00792334
0.000866797
0.00790853
-0.00313278
0.00788298
-0.00548396
0.00781625
-0.0112811
0.00764441
-0.0259046
0.00734871
-0.0416431
0.00739984
0.00537568
0.007609
0.0274895
0.00774164
0.0179793
0.00778656
0.00814661
0.00781104
0.0054276
0.00779456
5.53999e-05
0.00778602
0.000499793
0.00776437
-0.00160658
0.0077603
0.000114237
0.00774913
-0.000921614
0.00775143
0.000637304
0.00774792
-7.38432e-05
0.00775483
0.00111357
0.00775751
0.000529706
0.00776729
0.00127811
0.00777261
0.000672185
0.00778109
0.00100161
0.00778418
0.000349597
0.00778716
0.000345543
0.00778454
-0.000301453
0.00778036
-0.000473139
0.00777141
-0.00102403
0.00776075
-0.00121516
0.00774682
-0.00159255
0.0077319
-0.00170882
0.00771565
-0.00187273
0.00769962
-0.00186626
0.0076839
-0.00185283
0.00766918
-0.00177025
0.0076558
-0.00164202
0.00764352
-0.00155149
0.00763286
-0.00138002
0.00762269
-0.00134348
0.007614
-0.00117711
0.007605
-0.00121248
0.00759754
-0.00103608
0.00758896
-0.00113797
0.00758236
-0.000928813
0.00757418
-0.00102778
0.00756895
-0.000746332
0.00756233
-0.000723677
0.00756004
-0.000344667
0.00755811
2.3914e-06
0.00756219
0.000507091
0.0075711
0.00138416
0.00257269
0.00747659
-0.0120698
0.00739012
-0.0107979
0.00731486
-0.00961709
0.00725103
-0.00828263
0.00720268
-0.00623552
0.00717422
-0.00320746
0.00716919
0.000587343
0.00718878
0.00438152
0.00723172
0.00737893
0.00729264
0.0090562
0.00736218
0.00936096
0.00742999
0.00865905
0.00748891
0.00748854
0.00753747
0.00634535
0.00757776
0.00542455
0.00761263
0.00474848
0.00764341
0.00418387
0.00767113
0.00373649
0.00769583
0.00330739
0.00771824
0.00297573
0.00773816
0.00263462
0.00775637
0.00239201
0.0077723
0.00209367
0.00778705
0.00192803
0.00779961
0.00165267
0.00781139
0.00154562
0.00782095
0.00127422
0.00783018
0.00122534
0.00783691
0.000930253
0.00784398
0.000962129
0.00784809
0.000619397
0.00785324
0.000738703
0.00785474
0.000320244
0.00785836
0.000568435
0.00785735
4.91923e-05
0.00785987
0.000467009
0.00785638
-0.00019667
0.00785848
0.000469313
0.00785284
-0.000380117
0.00785579
0.00063473
0.00784965
-0.000373359
0.00785686
0.00113943
0.00785451
-8.34222e-06
0.00787103
0.00199609
0.00787647
0.000505785
0.00790241
0.0025289
0.00790892
1.32195e-05
0.00792596
0.000849758
0.00791091
-0.00311774
0.00788488
-0.00545793
0.0078175
-0.0112137
0.00764455
-0.0257316
0.00734758
-0.0413461
0.00739858
0.00532468
0.00760837
0.0272797
0.00774148
0.0178461
0.00778691
0.00810118
0.00781182
0.00540269
0.00779567
7.15445e-05
0.00778735
0.000508113
0.00776584
-0.00158506
0.00776181
0.000118267
0.00775065
-0.000910459
0.00775295
0.00063501
0.00774944
-7.03406e-05
0.00775634
0.00110667
0.00775901
0.000527039
0.00776876
0.00126837
0.00777403
0.000666911
0.00778248
0.000993162
0.00778555
0.000346533
0.00778852
0.000342569
0.00778591
-0.000298842
0.00778174
-0.000468971
0.00777282
-0.00101512
0.0077622
-0.00120453
0.00774831
-0.00157866
0.00773343
-0.00169394
0.00771721
-0.00185651
0.00770121
-0.00185025
0.0076855
-0.00183713
0.00767079
-0.00175554
0.00765741
-0.00162864
0.00764511
-0.00153919
0.00763443
-0.00136934
0.00762425
-0.0013333
0.00761553
-0.00116839
0.00760652
-0.00120347
0.00759906
-0.00102861
0.00759049
-0.0011294
0.0075839
-0.000922229
0.00757577
-0.00101965
0.0075706
-0.00074116
0.00756409
-0.000717169
0.00756192
-0.000342495
0.00756018
4.13424e-06
0.00756443
0.000502842
0.00757359
0.001375
0.00255124
0.00747655
-0.0119706
0.00738998
-0.0107113
0.00731456
-0.00954168
0.00725058
-0.00821865
0.00720216
-0.00618709
0.00717375
-0.00317906
0.00716898
0.000592115
0.00718898
0.00436152
0.0072324
0.00733551
0.00729371
0.00899489
0.00736348
0.00929119
0.00743139
0.00859114
0.00749037
0.00742956
0.00753903
0.0062967
0.00757943
0.00538414
0.00761441
0.00471349
0.00764529
0.00415299
0.00767309
0.00370869
0.00769786
0.00328262
0.00772033
0.00295326
0.0077403
0.00261464
0.00775855
0.00237376
0.00777452
0.0020777
0.0077893
0.00191325
0.00780189
0.00164009
0.0078137
0.00153381
0.00782328
0.00126464
0.00783254
0.00121609
0.0078393
0.000923491
0.00784638
0.000955044
0.00785052
0.000615263
0.0078557
0.000733524
0.00785722
0.00031872
0.00786086
0.000564797
0.00785988
5.0171e-05
0.00786241
0.000464474
0.00785896
-0.000193216
0.00786109
0.000467179
0.0078555
-0.000374522
0.0078585
0.00063173
0.00785244
-0.000367295
0.00785971
0.00113216
0.00785743
-6.06551e-06
0.00787398
0.00197954
0.00787943
0.000500331
0.00790531
0.00250302
0.00791171
6.81857e-06
0.00792855
0.000832917
0.00791328
-0.00310246
0.00788677
-0.00543143
0.00781873
-0.0111457
0.00764468
-0.0255576
0.00734645
-0.0410479
0.00739733
0.0052738
0.00760772
0.0270693
0.00774131
0.0177126
0.00778725
0.00805524
0.00781258
0.00537737
0.00779677
8.73549e-05
0.00778867
0.000516206
0.00776729
-0.00156368
0.0077633
0.000122252
0.00775216
-0.000899317
0.00775446
0.000632713
0.00775096
-6.6843e-05
0.00775785
0.00109978
0.0077605
0.000524391
0.00777021
0.00125866
0.00777545
0.000661673
0.00778386
0.000984747
0.00778691
0.000343491
0.00778987
0.000339605
0.00778727
-0.000296237
0.00778312
-0.000464822
0.00777423
-0.00100623
0.00776364
-0.00119394
0.00774979
-0.00156481
0.00773495
-0.0016791
0.00771876
-0.00184033
0.00770279
-0.00183428
0.0076871
-0.00182144
0.00767239
-0.00174083
0.00765901
-0.00161526
0.00764669
-0.00152687
0.007636
-0.00135865
0.00762579
-0.00132309
0.00761706
-0.00115966
0.00760803
-0.00119444
0.00760056
-0.00102114
0.00759201
-0.00112084
0.00758544
-0.000915666
0.00757736
-0.00101158
0.00757225
-0.000736045
0.00756585
-0.000710773
0.00756379
-0.000340432
0.00756223
5.69076e-06
0.00756665
0.00049842
0.00757606
0.0013656
0.00252956
0.00747651
-0.0118714
0.00738983
-0.0106246
0.00731427
-0.00946612
0.00725015
-0.00815452
0.00720164
-0.00613858
0.00717329
-0.00315071
0.00716877
0.000596639
0.00718919
0.0043411
0.00723307
0.00729163
0.00729476
0.00893319
0.00736477
0.00922118
0.00743278
0.00852312
0.00749183
0.00737051
0.00754057
0.00624796
0.00758109
0.00534363
0.00761618
0.0046784
0.00764716
0.00412201
0.00767505
0.00368081
0.00769989
0.00325778
0.00772241
0.00293074
0.00774243
0.00259462
0.00776072
0.00235547
0.00777673
0.00206169
0.00779154
0.00189844
0.00780415
0.00162747
0.00781599
0.00152197
0.0078256
0.00125503
0.00783488
0.00120681
0.00784167
0.000916703
0.00784877
0.000947937
0.00785293
0.000611104
0.00785813
0.000728324
0.00785968
0.000317172
0.00786334
0.000561137
0.00786239
5.11236e-05
0.00786494
0.000461917
0.00786152
-0.000189795
0.00786369
0.000465012
0.00785814
-0.000368977
0.00786119
0.000628681
0.0078552
-0.000361303
0.00786253
0.00112482
0.00786033
-3.86164e-06
0.00787691
0.00196296
0.00788238
0.000494865
0.00790818
0.00247722
0.00791448
5.18631e-07
0.00793112
0.000816275
0.00791562
-0.00308696
0.00788864
-0.00540445
0.00781995
-0.011077
0.0076448
-0.0253824
0.00734533
-0.0407484
0.00739608
0.00522304
0.00760707
0.0268583
0.00774112
0.0175785
0.00778757
0.00800878
0.00781332
0.00535162
0.00779784
0.00010283
0.00778998
0.00052407
0.00776872
-0.00154243
0.00776478
0.000126191
0.00775366
-0.000888191
0.00775596
0.000630413
0.00775247
-6.33521e-05
0.00775935
0.00109289
0.00776198
0.000521761
0.00777166
0.00124898
0.00777686
0.000656471
0.00778524
0.000976367
0.00778826
0.000340471
0.00779122
0.000336649
0.00778862
-0.000293639
0.00778449
-0.000460691
0.00777563
-0.00099737
0.00776507
-0.00118339
0.00775126
-0.00155099
0.00773646
-0.00166429
0.00772031
-0.00182418
0.00770436
-0.00181833
0.00768869
-0.00180577
0.00767398
-0.00172613
0.0076606
-0.00160187
0.00764827
-0.00151454
0.00763755
-0.00134793
0.00762733
-0.00131286
0.00761857
-0.00115091
0.00760954
-0.00118541
0.00760206
-0.00101367
0.00759351
-0.00111229
0.00758697
-0.000909123
0.00757894
-0.00100355
0.00757389
-0.000730987
0.0075676
-0.000704486
0.00756564
-0.000338477
0.00756427
7.06269e-06
0.00756887
0.000493825
0.00757851
0.00135595
0.00250766
0.00747647
-0.0117721
0.00738969
-0.0105379
0.00731399
-0.00939042
0.00724972
-0.00809026
0.00720113
-0.00608999
0.00717284
-0.00312243
0.00716856
0.000600916
0.00718939
0.00432027
0.00723374
0.00724729
0.00729582
0.00887111
0.00736604
0.00915095
0.00743416
0.00845501