/*--------------------------------*- C++ -*----------------------------------*\
| =========                 |                                                 |
| \\      /  F ield         | OpenFOAM: The Open Source CFD Toolbox           |
|  \\    /   O peration     | Version:  2412                                  |
|   \\  /    A nd           | Website:  www.openfoam.com                      |
|    \\/     M anipulation  |                                                 |
\*---------------------------------------------------------------------------*/
FoamFile
{
    version     2.0;
    format      ascii;
    arch        "LSB;label=32;scalar=64";
    class       volVectorField;
    location    "0.6";
    object      U;
}
// * * * * * * * * * * * * * * * * * * * * * * * * * * * * * * * * * * * * * //

dimensions      [0 1 -1 0 0 0 0];

internalField   nonuniform List<vector> 
13068
(
(100.007 0.548275 0)
(100.207 1.5387 -4.38876e-17)
(100.607 2.47491 -4.13954e-17)
(101.157 3.53002 0)
(101.918 5.10156 0)
(102.94 7.38041 0)
(104.302 10.2229 0)
(106.04 13.1122 7.07866e-17)
(108.203 15.5138 0)
(110.77 17.0464 -3.69633e-17)
(113.69 17.6447 0)
(116.783 17.5184 0)
(119.929 17.0364 0)
(122.987 16.5532 0)
(126.036 16.2321 0)
(129.049 16.0951 3.32878e-17)
(132.173 16.0588 -3.20717e-17)
(135.306 16.1063 3.09681e-17)
(138.613 16.1871 3.00199e-17)
(141.921 16.3391 2.90839e-17)
(145.466 16.5074 2.82427e-17)
(148.992 16.7514 -6.96327e-22)
(152.835 16.9905 2.65316e-17)
(156.622 17.317 -2.56159e-17)
(160.831 17.6146 -6.77841e-22)
(164.922 18.0228 0)
(169.579 18.3717 0)
(174.021 18.8686 2.21009e-17)
(179.228 19.265 -2.13479e-17)
(184.075 19.8651 0)
(189.961 20.3071 1.95839e-17)
(195.272 21.0324 0)
(202.009 21.5191 0)
(207.853 22.4022 1.65741e-17)
(215.666 22.9359 -3.20009e-17)
(222.124 24.0211 0)
(231.317 24.6073 1.41803e-17)
(238.488 25.954 -1.26457e-17)
(249.478 26.6185 5.80226e-22)
(257.501 28.3253 -1.05837e-17)
(270.891 29.1507 2.10052e-17)
(280.028 31.3605 8.47502e-18)
(296.743 32.4702 -2.94028e-22)
(307.514 35.2598 6.36749e-18)
(328.906 36.6621 7.08512e-18)
(342.089 39.7594 4.25239e-18)
(369.696 41.145 -5.57622e-18)
(385.92 43.7431 1.9902e-18)
(420.754 44.9077 -4.02092e-18)
(440.594 45.6688 5.4564e-19)
(483.02 46.4728 2.44332e-18)
(508.077 38.9869 3.60075e-18)
(549.084 36.3193 1.31482e-21)
(576.233 -0.374042 -5.02598e-19)
(549.753 -18.0286 0)
(540.486 -25.7975 -6.08662e-18)
(505.793 -30.1478 0)
(489.853 -30.9165 0)
(458.224 -32.4357 0)
(441.945 -30.9441 0)
(415.953 -30.5512 0)
(401.855 -28.3309 0)
(381.296 -27.5966 3.19836e-18)
(369.122 -25.6384 0)
(352.549 -24.968 1.64844e-22)
(341.828 -23.3718 3.94969e-18)
(328.274 -22.8213 -5.35055e-18)
(318.763 -21.6176 6.29154e-22)
(307.449 -21.2346 6.43768e-18)
(298.853 -20.3992 -7.59942e-22)
(289.102 -20.1684 -7.51745e-18)
(281.153 -19.6117 -7.82933e-18)
(272.486 -19.4565 5.92941e-22)
(265.048 -19.053 9.00668e-18)
(257.205 -18.888 0)
(250.247 -18.5319 1.01782e-17)
(243.1 -18.2936 4.96628e-22)
(236.643 -17.9142 -1.13545e-17)
(230.139 -17.5737 -1.19705e-17)
(224.226 -17.1515 0)
(218.34 -16.725 2.04483e-22)
(212.996 -16.2872 1.35687e-17)
(207.685 -15.8199 0)
(202.897 -15.4158 -2.60649e-23)
(198.08 -14.9537 1.50243e-17)
(193.803 -14.6247 -1.55465e-17)
(189.373 -14.1894 0)
(185.552 -13.9495 -1.65477e-17)
(181.399 -13.5321 0)
(178.007 -13.3662 2.75804e-23)
(174.026 -12.937 4.26546e-22)
(171.074 -12.8034 0)
(167.172 -12.3266 -5.10344e-22)
(164.719 -12.1483 0)
(160.81 -11.5945 -2.00358e-17)
(158.959 -11.2414 0)
(154.99 -10.5952 0)
(153.889 -9.91735 0)
(149.884 -8.7838 0)
(100.007 0.542939 -4.54999e-17)
(100.206 1.52396 4.39077e-17)
(100.603 2.45169 -4.14224e-17)
(101.151 3.49829 0)
(101.91 5.05895 0)
(102.931 7.32445 0)
(104.296 10.1516 0)
(106.039 13.0245 -3.53593e-17)
(108.209 15.4099 0)
(110.784 16.9286 3.68978e-17)
(113.711 17.5181 0)
(116.807 17.3898 -3.74935e-17)
(119.954 16.9108 3.70096e-17)
(123.014 16.4321 3.59677e-17)
(126.065 16.1142 0)
(129.081 15.9785 -3.32777e-17)
(132.208 15.9422 0)
(135.343 15.9891 -6.19375e-17)
(138.652 16.0691 -3.0022e-17)
(141.962 16.2197 -2.90861e-17)
(145.509 16.3867 -2.82433e-17)
(149.037 16.6288 -5.46839e-17)
(152.882 16.8662 -5.30644e-17)
(156.67 17.1902 2.5615e-17)
(160.881 17.4856 -2.48203e-17)
(164.974 17.8908 0)
(169.633 18.2372 2.30919e-17)
(174.077 18.7305 0)
(179.286 19.1241 2.13461e-17)
(184.135 19.7198 0)
(190.024 20.1588 -1.95819e-17)
(195.337 20.8787 0)
(202.077 21.3622 0)
(207.924 22.2387 0)
(215.739 22.7689 1.59993e-17)
(222.201 23.8461 0)
(231.397 24.4286 -1.4178e-17)
(238.572 25.7655 1.26448e-17)
(249.567 26.4259 1.23409e-17)
(257.596 28.1202 1.28126e-21)
(270.991 28.9404 -1.0502e-17)
(280.136 31.1338 -1.69486e-17)
(296.857 32.2357 -8.72584e-18)
(307.64 35.0036 0)
(329.036 36.3947 -1.41703e-17)
(342.231 39.4668 4.2497e-18)
(369.836 40.8406 5.57517e-18)
(386.068 43.4168 1.98718e-18)
(420.891 44.5706 4.02128e-18)
(440.736 45.3196 -5.4583e-19)
(483.121 46.1078 0)
(508.15 38.6636 -3.6049e-18)
(549.039 35.9979 -1.02132e-18)
(576.095 -0.374801 5.04097e-19)
(549.694 -17.872 0)
(540.463 -25.5858 0)
(505.813 -29.9018 0)
(489.899 -30.6683 0)
(458.292 -32.18 0)
(442.023 -30.7036 0)
(416.037 -30.3173 0)
(401.939 -28.1164 0)
(381.377 -27.3886 -3.19791e-18)
(369.199 -25.4455 -2.44342e-18)
(352.623 -24.7801 -4.25704e-18)
(341.898 -23.1963 -3.94935e-18)
(328.342 -22.6503 -5.35018e-18)
(318.827 -21.4561 5.33625e-18)
(307.509 -21.0761 0)
(298.909 -20.2472 -7.52396e-22)
(289.155 -20.0178 -7.517e-18)
(281.204 -19.4651 7.8299e-18)
(272.536 -19.3108 8.60264e-18)
(265.096 -18.9101 -9.00735e-18)
(257.253 -18.7462 0)
(250.295 -18.3926 -1.01787e-17)
(243.148 -18.1561 1.08359e-17)
(236.691 -17.7796 0)
(230.187 -17.4417 1.19696e-17)
(224.274 -17.0229 0)
(218.388 -16.5998 1.30553e-17)
(213.043 -16.1655 -2.71364e-17)
(207.73 -15.702 0)
(202.942 -15.3012 -2.91413e-17)
(198.123 -14.8427 -1.5025e-17)
(193.844 -14.5162 0)
(189.413 -14.0842 0)
(185.591 -13.846 0)
(181.436 -13.4317 0)
(178.044 -13.2668 -1.76038e-17)
(174.063 -12.8409 1.79762e-17)
(171.111 -12.7078 0)
(167.21 -12.235 -3.80244e-17)
(164.757 -12.0569 0)
(160.851 -11.5083 2.00446e-17)
(159.002 -11.156 0)
(155.038 -10.5163 0)
(153.938 -9.84186 0)
(149.942 -8.71922 0)
(100.007 0.537636 4.55106e-17)
(100.205 1.50931 0)
(100.6 2.42859 8.29049e-17)
(101.145 3.46668 -3.86034e-17)
(101.902 5.01641 0)
(102.922 7.26844 -3.51065e-17)
(104.289 10.08 0)
(106.037 12.9365 -3.5324e-17)
(108.216 15.3056 0)
(110.799 16.8104 0)
(113.732 17.3914 0)
(116.831 17.261 7.48537e-17)
(119.979 16.7852 -3.69545e-17)
(123.04 16.3109 -3.59288e-17)
(126.094 15.9962 0)
(129.112 15.8617 0)
(132.242 15.8255 0)
(135.379 15.8718 6.19382e-17)
(138.691 15.951 0)
(142.003 16.1003 0)
(145.552 16.2659 5.98868e-22)
(149.081 16.5061 2.73429e-17)
(152.928 16.7417 6.29604e-22)
(156.718 17.0633 -2.56155e-17)
(160.931 17.3565 -2.48192e-17)
(165.025 17.7587 -2.38698e-17)
(169.687 18.1027 -2.30917e-17)
(174.133 18.5922 0)
(179.344 18.9831 -2.13456e-17)
(184.195 19.5744 0)
(190.086 20.0103 1.95813e-17)
(195.402 20.7249 0)
(202.144 21.2051 0)
(207.994 22.0751 0)
(215.812 22.6018 0)
(222.277 23.671 0)
(231.477 24.2497 1.4177e-17)
(238.656 25.5767 0)
(249.655 26.233 1.23388e-17)
(257.69 27.9148 1.27321e-21)
(271.09 28.7299 0)
(280.244 30.9067 8.47352e-18)
(296.971 32.001 0)
(307.765 34.7471 0)
(329.165 36.1271 2.28144e-22)
(342.371 39.1738 -4.24971e-18)
(369.974 40.5358 -5.57491e-18)
(386.215 43.0904 -1.98722e-18)
(421.027 44.2333 -4.02024e-18)
(440.876 44.9704 5.47944e-19)
(483.221 45.7429 0)
(508.223 38.341 0)
(548.993 35.6776 1.02616e-18)
(575.958 -0.375492 -5.03968e-19)
(549.635 -17.7159 0)
(540.439 -25.3744 0)
(505.832 -29.6561 0)
(489.945 -30.4202 2.74295e-18)
(458.359 -31.9242 0)
(442.1 -30.4631 -8.32318e-19)
(416.121 -30.0834 0)
(402.021 -27.9018 0)
(381.458 -27.1805 0)
(369.276 -25.2526 2.44317e-18)
(352.697 -24.5921 0)
(341.968 -23.0208 0)
(328.408 -22.4791 -1.20227e-23)
(318.89 -21.2945 5.33476e-18)
(307.568 -20.9175 0)
(298.965 -20.095 -6.61802e-18)
(289.208 -19.8671 7.51741e-18)
(281.255 -19.3185 0)
(272.585 -19.165 0)
(265.145 -18.7672 0)
(257.301 -18.6043 0)
(250.343 -18.2534 0)
(243.195 -18.0185 0)
(236.739 -17.6449 0)
(230.235 -17.3097 -1.19693e-17)
(224.322 -16.8942 0)
(218.435 -16.4745 0)
(213.09 -16.0439 1.35678e-17)
(207.776 -15.5841 0)
(202.986 -15.1865 1.45708e-17)
(198.166 -14.7316 0)
(193.886 -14.4077 -1.55488e-17)
(189.452 -13.9789 0)
(185.63 -13.7425 0)
(181.473 -13.3313 0)
(178.081 -13.1674 0)
(174.099 -12.7448 0)
(171.149 -12.6122 0)
(167.247 -12.1434 1.90175e-17)
(164.796 -11.9656 0)
(160.892 -11.4221 0)
(159.044 -11.0707 2.11074e-17)
(155.086 -10.4375 0)
(153.987 -9.76649 -2.2326e-17)
(149.999 -8.65473 0)
(100.007 0.532363 0)
(100.204 1.49474 0)
(100.596 2.40561 -4.14825e-17)
(101.139 3.4352 3.86371e-17)
(101.894 4.97397 0)
(102.913 7.21246 3.51138e-17)
(104.283 10.0084 3.49089e-17)
(106.036 12.8483 3.52902e-17)
(108.222 15.2009 0)
(110.813 16.6919 0)
(113.752 17.2644 -3.72835e-17)
(116.854 17.1321 -3.73611e-17)
(120.004 16.6594 0)
(123.066 16.1896 0)
(126.122 15.8781 0)
(129.143 15.7447 -3.32565e-17)
(132.276 15.7086 0)
(135.415 15.7543 -5.78622e-22)
(138.729 15.8327 0)
(142.043 15.9807 -2.90884e-17)
(145.594 16.145 5.90663e-22)
(149.125 16.3832 0)
(152.974 16.6171 2.65329e-17)
(156.766 16.9362 0)
(160.981 17.2273 2.48194e-17)
(165.077 17.6264 2.38698e-17)
(169.74 17.9679 0)
(174.188 18.4539 2.20965e-17)
(179.401 18.842 0)
(184.254 19.4288 0)
(190.148 19.8617 -1.95793e-17)
(195.466 20.571 0)
(202.211 21.0478 -1.77965e-17)
(208.063 21.9113 0)
(215.885 22.4344 0)
(222.353 23.4957 -1.46334e-17)
(231.556 24.0706 -1.41747e-17)
(238.74 25.3877 0)
(249.743 26.0399 -1.23379e-17)
(257.783 27.7092 2.11572e-17)
(271.189 28.5191 1.04997e-17)
(280.352 30.6794 -8.47086e-18)
(297.085 31.7659 8.725e-18)
(307.889 34.4902 0)
(329.294 35.8591 2.30387e-22)
(342.51 38.8806 -4.24703e-18)
(370.112 40.2308 0)
(386.36 42.7636 0)
(421.163 43.8959 4.0206e-18)
(441.016 44.6212 -5.48133e-19)
(483.32 45.3782 0)
(508.294 38.0189 3.60698e-18)
(548.948 35.3582 -1.02836e-18)
(575.821 -0.376156 5.05498e-19)
(549.576 -17.5604 0)
(540.414 -25.1633 0)
(505.85 -29.4106 -6.49424e-19)
(489.989 -30.1723 -2.7425e-18)
(458.425 -31.6686 0)
(442.177 -30.2226 1.66487e-18)
(416.204 -29.8494 0)
(402.103 -27.6871 8.43045e-19)
(381.538 -26.9723 0)
(369.351 -25.0595 2.44183e-18)
(352.77 -24.404 0)
(342.038 -22.8451 3.94694e-18)
(328.475 -22.3078 5.34935e-18)
(318.953 -21.1328 -5.3345e-18)
(307.627 -20.7588 6.43674e-18)
(299.021 -19.9428 0)
(289.26 -19.7163 7.51696e-18)
(281.305 -19.1717 -7.82848e-18)
(272.633 -19.0191 0)
(265.193 -18.6243 0)
(257.348 -18.4624 0)
(250.39 -18.1141 -1.01774e-17)
(243.243 -17.8809 0)
(236.787 -17.5103 0)
(230.282 -17.1777 0)
(224.369 -16.7656 0)
(218.482 -16.3492 0)
(213.136 -15.9222 0)
(207.821 -15.4661 0)
(203.03 -15.0718 0)
(198.208 -14.6204 0)
(193.927 -14.2991 -9.09169e-24)
(189.492 -13.8736 1.59804e-17)
(185.669 -13.6389 0)
(181.511 -13.2308 0)
(178.118 -13.068 0)
(174.135 -12.6487 0)
(171.185 -12.5166 0)
(167.284 -12.0518 0)
(164.834 -11.8742 0)
(160.933 -11.3359 0)
(159.086 -10.9854 -2.11188e-17)
(155.133 -10.3587 -2.10523e-17)
(154.035 -9.69121 -3.49355e-23)
(150.056 -8.59029 0)
(100.007 0.52712 0)
(100.202 1.48025 4.39595e-17)
(100.593 2.38276 0)
(101.133 3.40385 0)
(101.886 4.93162 0)
(102.904 7.15645 3.51191e-17)
(104.276 9.93657 -3.48959e-17)
(106.035 12.7598 0)
(108.229 15.096 0)
(110.827 16.5732 -3.67009e-17)
(113.772 17.1372 3.72149e-17)
(116.877 17.0031 -3.72954e-17)
(120.028 16.5334 0)
(123.092 16.0681 0)
(126.151 15.7598 0)
(129.174 15.6276 3.32471e-17)
(132.309 15.5916 0)
(135.451 15.6367 -3.09702e-17)
(138.767 15.7143 0)
(142.083 15.861 2.90904e-17)
(145.636 16.0239 5.64939e-17)
(149.169 16.2603 0)
(153.02 16.4923 0)
(156.813 16.809 0)
(161.03 17.0979 0)
(165.128 17.494 0)
(169.793 17.8331 2.30893e-17)
(174.243 18.3153 -2.20962e-17)
(179.458 18.7006 -2.13426e-17)
(184.313 19.2831 -2.02903e-17)
(190.21 19.7129 1.95787e-17)
(195.53 20.4168 -1.84494e-17)
(202.277 20.8903 1.77958e-17)
(208.132 21.7473 1.65656e-17)
(215.957 22.2669 1.59938e-17)
(222.428 23.3201 1.14583e-21)
(231.635 23.8913 1.41737e-17)
(238.823 25.1985 1.2637e-17)
(249.83 25.8466 1.23358e-17)
(257.877 27.5033 -1.05773e-17)
(271.287 28.308 -4.4412e-22)
(280.459 30.4518 8.47073e-18)
(297.197 31.5304 -1.74497e-17)
(308.013 34.2331 6.3619e-18)
(329.421 35.5908 7.08483e-18)
(342.648 38.5871 4.24705e-18)
(370.249 39.9255 -5.57321e-18)
(386.505 42.4367 0)
(421.297 43.5582 -4.0196e-18)
(441.154 44.2719 -5.50183e-19)
(483.418 45.0137 2.44668e-18)
(508.365 37.6973 -3.61112e-18)
(548.902 35.0399 0)
(575.686 -0.376762 5.05422e-19)
(549.517 -17.4053 0)
(540.389 -24.9526 0)
(505.867 -29.1654 6.4945e-19)
(490.032 -29.9246 0)
(458.49 -31.413 0)
(442.252 -29.9822 -1.66585e-18)
(416.286 -29.6153 0)
(402.184 -27.4723 -8.42826e-19)
(381.617 -26.7639 0)
(369.427 -24.8662 -4.88258e-18)
(352.843 -24.2158 0)
(342.108 -22.6693 -3.94656e-18)
(328.541 -22.1364 0)
(319.016 -20.971 0)
(307.686 -20.6 -6.43666e-18)
(299.077 -19.7904 0)
(289.313 -19.5655 -1.50343e-17)
(281.356 -19.0249 7.82902e-18)
(272.682 -18.8732 0)
(265.241 -18.4812 0)
(257.396 -18.3204 0)
(250.438 -17.9747 1.01778e-17)
(243.29 -17.7433 1.08346e-17)
(236.834 -17.3756 0)
(230.33 -17.0456 0)
(224.417 -16.6368 0)
(218.528 -16.2239 0)
(213.183 -15.8004 1.35665e-17)
(207.866 -15.348 -1.40658e-17)
(203.075 -14.957 0)
(198.25 -14.5091 1.50264e-17)
(193.968 -14.1904 3.1102e-17)
(189.531 -13.7682 -1.59819e-17)
(185.708 -13.5353 0)
(181.548 -13.1303 0)
(178.155 -12.9685 0)
(174.171 -12.5526 0)
(171.222 -12.4209 0)
(167.321 -11.9602 0)
(164.873 -11.7829 -1.99019e-17)
(160.973 -11.2497 2.00689e-17)
(159.128 -10.9003 0)
(155.181 -10.28 4.21313e-17)
(154.084 -9.61603 2.23601e-17)
(150.112 -8.52592 0)
(100.007 0.521908 0)
(100.201 1.46585 -8.79567e-17)
(100.59 2.36002 0)
(101.127 3.37263 -3.87004e-17)
(101.878 4.88934 0)
(102.896 7.10042 -3.51268e-17)
(104.27 9.86459 0)
(106.034 12.671 0)
(108.235 14.9906 3.59226e-17)
(110.842 16.4541 7.32738e-17)
(113.792 17.0097 3.71461e-17)
(116.9 16.8739 3.72317e-17)
(120.053 16.4074 -3.67919e-17)
(123.118 15.9466 3.58137e-17)
(126.179 15.6414 0)
(129.205 15.5103 0)
(132.343 15.4745 0)
(135.487 15.5189 0)
(138.805 15.5957 3.00274e-17)
(142.123 15.7411 0)
(145.677 15.9027 -2.82484e-17)
(149.212 16.1372 0)
(153.065 16.3674 2.65328e-17)
(156.86 16.6816 -2.5614e-17)
(161.079 16.9684 0)
(165.178 17.3615 0)
(169.845 17.6981 -6.67518e-22)
(174.297 18.1767 2.20942e-17)
(179.515 18.5592 2.13422e-17)
(184.372 19.1372 2.02897e-17)
(190.271 19.5639 1.95767e-17)
(195.593 20.2625 1.84488e-17)
(202.343 20.7327 1.77936e-17)
(208.201 21.5832 -1.65648e-17)
(216.029 22.0992 -1.59929e-17)
(222.503 23.1444 1.13682e-21)
(231.713 23.7118 0)
(238.905 25.0091 -2.5271e-17)
(249.916 25.653 -5.58262e-22)
(257.969 27.2972 0)
(271.385 28.0966 -1.04983e-17)
(280.565 30.2239 -8.46811e-18)
(297.309 31.2947 8.72476e-18)
(308.135 33.9756 -6.36207e-18)
(329.548 35.3222 0)
(342.785 38.2934 -4.24442e-18)
(370.384 39.6199 5.57298e-18)
(386.649 42.1096 0)
(421.43 43.2204 8.03928e-18)
(441.291 43.9226 1.10166e-18)
(483.516 44.6493 -2.44794e-18)
(508.435 37.3764 0)
(548.857 34.7225 0)
(575.551 -0.377314 -1.01317e-18)
(549.457 -17.2508 -1.16139e-19)
(540.362 -24.7422 0)
(505.883 -28.9204 0)
(490.074 -29.6769 -2.74411e-18)
(458.554 -31.1576 -1.40537e-18)
(442.327 -29.7417 8.3301e-19)
(416.368 -29.3811 0)
(402.265 -27.2573 0)
(381.695 -26.5554 -3.19725e-18)
(369.502 -24.6729 2.44074e-18)
(352.915 -24.0274 0)
(342.177 -22.4934 3.94507e-18)
(328.607 -21.9649 -5.34848e-18)
(319.078 -20.8091 0)
(307.744 -20.441 0)
(299.132 -19.6379 0)
(289.365 -19.4145 1.50342e-17)
(281.406 -18.8781 0)
(272.731 -18.7272 0)
(265.289 -18.3382 -9.00579e-18)
(257.443 -18.1784 -9.70493e-18)
(250.485 -17.8354 -1.01769e-17)
(243.337 -17.6056 -1.08347e-17)
(236.881 -17.2408 0)
(230.377 -16.9134 -1.1967e-17)
(224.464 -16.5081 0)
(218.575 -16.0985 0)
(213.229 -15.6785 -2.71322e-17)
(207.91 -15.2298 1.24665e-22)
(203.118 -14.8421 -1.45713e-17)
(198.292 -14.3978 -1.5027e-17)
(194.009 -14.0817 -1.55521e-17)
(189.57 -13.6627 0)
(185.746 -13.4316 1.6558e-17)
(181.584 -13.0297 0)
(178.192 -12.8689 -1.76162e-17)
(174.207 -12.4564 -1.79886e-17)
(171.259 -12.3252 -1.87332e-17)
(167.358 -11.8685 0)
(164.911 -11.6916 -1.05022e-22)
(161.014 -11.1635 -4.92479e-22)
(159.17 -10.8151 0)
(155.228 -10.2014 -4.21575e-17)
(154.132 -9.54096 -2.23771e-17)
(150.168 -8.46162 0)
(100.007 0.516726 0)
(100.2 1.45152 8.79923e-17)
(100.587 2.33739 0)
(101.122 3.34152 3.87346e-17)
(101.87 4.84714 3.64088e-17)
(102.887 7.04437 -3.51326e-17)
(104.264 9.79246 0)
(106.033 12.5819 0)
(108.242 14.885 -6.4002e-22)
(110.856 16.3347 -3.65735e-17)
(113.811 16.8821 -5.37143e-22)
(116.922 16.7446 -3.71678e-17)
(120.077 16.2814 7.34794e-17)
(123.144 15.8249 -3.57773e-17)
(126.207 15.5228 0)
(129.235 15.393 -3.3227e-17)
(132.376 15.3572 0)
(135.522 15.401 0)
(138.842 15.4771 -6.00584e-17)
(142.162 15.6212 -2.90928e-17)
(145.719 15.7814 0)
(149.256 16.014 0)
(153.11 16.2424 -2.65336e-17)
(156.907 16.5542 2.56145e-17)
(161.127 16.8388 0)
(165.228 17.2289 0)
(169.898 17.5629 -2.30882e-17)
(174.351 18.0379 -8.30055e-22)
(179.571 18.4176 0)
(184.43 18.9912 2.02874e-17)
(190.331 19.4149 -1.95761e-17)
(195.656 20.1081 0)
(202.409 20.5749 -3.55851e-17)
(208.269 21.4189 -1.65619e-17)
(216.1 21.9313 -1.59907e-17)
(222.578 22.9686 1.12777e-21)
(231.791 23.5321 -1.41698e-17)
(238.987 24.8195 1.2634e-17)
(250.002 25.4592 -1.23335e-17)
(258.061 27.0909 1.05723e-17)
(271.482 27.885 0)
(280.67 29.9957 8.468e-18)
(297.421 31.0587 8.7242e-18)
(308.257 33.7179 0)
(329.674 35.0532 0)
(342.922 37.9993 8.48757e-18)
(370.519 39.3141 0)
(386.792 41.7822 0)
(421.562 42.8825 -4.01969e-18)
(441.427 43.5732 -5.51477e-19)
(483.612 44.2852 0)
(508.504 37.0559 0)
(548.811 34.4061 0)
(575.417 -0.377811 5.07762e-19)
(549.398 -17.0967 1.76785e-19)
(540.335 -24.532 0)
(505.897 -28.6757 -6.51751e-19)
(490.114 -29.4295 2.74364e-18)
(458.616 -30.9021 1.40492e-18)
(442.4 -29.5012 0)
(416.449 -29.1469 0)
(402.345 -27.0423 0)
(381.773 -26.3468 -2.68575e-22)
(369.576 -24.4794 0)
(352.987 -23.839 4.25591e-18)
(342.246 -22.3174 -7.8888e-18)
(328.673 -21.7933 5.34801e-18)
(319.14 -20.647 -5.33119e-18)
(307.803 -20.282 -6.43587e-18)
(299.187 -19.4854 -6.615e-18)
(289.417 -19.2635 -1.50341e-17)
(281.456 -18.7311 0)
(272.779 -18.5811 0)
(265.336 -18.195 1.8012e-17)
(257.49 -18.0363 9.70548e-18)
(250.532 -17.696 2.03539e-17)
(243.384 -17.4679 1.0834e-17)
(236.929 -17.106 0)
(230.424 -16.7813 1.19667e-17)
(224.511 -16.3793 -1.24928e-17)
(218.621 -15.973 1.30516e-17)
(213.274 -15.5566 1.35656e-17)
(207.955 -15.1116 1.40653e-17)
(203.162 -14.7271 2.91429e-17)
(198.334 -14.2864 1.50274e-17)
(194.05 -13.9729 0)
(189.609 -13.5571 -1.59844e-17)
(185.784 -13.3278 -1.65599e-17)
(181.621 -12.929 -1.69706e-17)
(178.229 -12.7693 3.52383e-17)
(174.243 -12.3602 3.5984e-17)
(171.295 -12.2296 1.87378e-17)
(167.395 -11.7769 1.90371e-17)
(164.948 -11.6004 3.98327e-17)
(161.054 -11.0774 -2.00857e-17)
(159.211 -10.7301 -2.11532e-17)
(155.274 -10.1228 2.1092e-17)
(154.179 -9.46598 2.23939e-17)
(150.223 -8.39739 2.21139e-17)
(100.007 0.511573 0)
(100.199 1.43727 -8.80277e-17)
(100.584 2.31489 0)
(101.116 3.31053 0)
(101.863 4.80503 -3.64339e-17)
(102.879 6.9883 3.51407e-17)
(104.258 9.72018 0)
(106.032 12.4925 0)
(108.248 14.779 -3.58202e-17)
(110.87 16.215 0)
(113.831 16.7542 -7.40242e-17)
(116.945 16.6152 3.71058e-17)
(120.1 16.1552 -3.66883e-17)
(123.169 15.7031 3.57403e-17)
(126.234 15.4041 0)
(129.266 15.2754 6.64356e-17)
(132.408 15.2398 0)
(135.557 15.283 -3.0971e-17)
(138.88 15.3583 5.43532e-22)
(142.201 15.5011 2.90948e-17)
(145.76 15.66 0)
(149.298 15.8907 2.73452e-17)
(153.155 16.1173 2.65332e-17)
(156.953 16.4266 0)
(161.176 16.7091 0)
(165.278 17.0961 2.38659e-17)
(169.95 17.4277 0)
(174.405 17.8989 -2.20927e-17)
(179.627 18.2759 0)
(184.488 18.845 -2.02869e-17)
(190.392 19.2656 0)
(195.719 19.9535 0)
(202.474 20.417 1.77915e-17)
(208.337 21.2544 1.65612e-17)
(216.171 21.7632 3.1979e-17)
(222.652 22.7925 1.46265e-17)
(231.869 23.3522 1.41688e-17)
(239.069 24.6297 0)
(250.088 25.2651 0)
(258.153 26.8843 -1.22408e-21)
(271.578 27.673 0)
(280.775 29.7672 8.46543e-18)
(297.531 30.8223 -1.74482e-17)
(308.378 33.4598 0)
(329.8 34.784 0)
(343.057 37.705 -1.30108e-21)
(370.653 39.0081 0)
(386.933 41.4547 0)
(421.694 42.5443 4.01876e-18)
(441.562 43.2239 -5.53465e-19)
(483.708 43.9212 2.44955e-18)
(508.573 36.7361 0)
(548.766 34.0907 -1.04393e-18)
(575.285 -0.378253 0)
(549.338 -16.9431 -6.05221e-20)
(540.307 -24.3222 -6.0897e-18)
(505.91 -28.4312 1.30437e-18)
(490.154 -29.1821 0)
(458.678 -30.6468 0)
(442.473 -29.2607 -8.34643e-19)
(416.528 -28.9126 2.23621e-18)
(402.424 -26.8271 0)
(381.851 -26.1381 3.19636e-18)
(369.649 -24.2859 0)
(353.058 -23.6504 -8.51106e-18)
(342.314 -22.1412 5.41228e-22)
(328.738 -21.6216 5.34755e-18)
(319.202 -20.4849 6.00318e-22)
(307.861 -20.1229 6.43575e-18)
(299.242 -19.3327 1.32295e-17)
(289.469 -19.1124 7.51722e-18)
(281.506 -18.5841 0)
(272.827 -18.435 8.6025e-18)
(265.384 -18.0519 -9.00621e-18)
(257.537 -17.8942 -9.70492e-18)
(250.579 -17.5565 -1.0177e-17)
(243.431 -17.3302 -1.08342e-17)
(236.976 -16.9712 0)
(230.471 -16.6491 -1.19658e-17)
(224.558 -16.2504 2.49844e-17)
(218.667 -15.8475 -1.30511e-17)
(213.32 -15.4346 -1.3565e-17)
(207.999 -14.9933 -1.40649e-17)
(203.205 -14.6121 -1.45716e-17)
(198.376 -14.175 -3.00558e-17)
(194.091 -13.864 0)
(189.648 -13.4515 1.59858e-17)
(185.822 -13.2239 -1.65619e-17)
(181.658 -12.8283 2.94051e-22)
(178.265 -12.6697 -3.52444e-17)
(174.278 -12.2639 -1.79954e-17)
(171.331 -12.1339 -1.87424e-17)
(167.431 -11.6852 -3.80846e-17)
(164.986 -11.5091 1.00872e-22)
(161.094 -10.9913 0)
(159.253 -10.6451 2.11644e-17)
(155.321 -10.0442 0)
(154.226 -9.3911 -2.24107e-17)
(150.278 -8.33323 -2.21311e-17)
(100.007 0.506449 0)
(100.198 1.4231 4.40325e-17)
(100.581 2.29249 0)
(101.111 3.27967 0)
(101.855 4.76299 0)
(102.871 6.93221 3.5147e-17)
(104.252 9.64774 -3.48411e-17)
(106.031 12.4029 3.51205e-17)
(108.255 14.6727 3.57686e-17)
(110.884 16.095 0)
(113.851 16.6262 3.69465e-17)
(116.967 16.4856 0)
(120.124 16.0289 0)
(123.194 15.5812 -3.5705e-17)
(126.262 15.2853 0)
(129.296 15.1577 -3.32087e-17)
(132.441 15.1222 0)
(135.592 15.1648 5.55286e-22)
(138.917 15.2393 3.00325e-17)
(142.24 15.3809 0)
(145.801 15.5384 2.82512e-17)
(149.341 15.7672 -2.73465e-17)
(153.199 15.9921 -5.97908e-22)
(156.999 16.2989 0)
(161.223 16.5792 0)
(165.328 16.9632 -7.53031e-22)
(170.001 17.2923 -2.30859e-17)
(174.458 17.7598 0)
(179.682 18.134 2.13382e-17)
(184.545 18.6987 0)
(190.451 19.1162 0)
(195.781 19.7987 0)
(202.539 20.2589 1.77895e-17)
(208.405 21.0898 0)
(216.241 21.595 -1.59883e-17)
(222.725 22.6162 0)
(231.945 23.1721 0)
(239.15 24.4397 -1.26287e-17)
(250.173 25.0709 -1.23301e-17)
(258.243 26.6774 -1.05699e-17)
(271.674 27.4608 1.04953e-17)
(280.879 29.5385 -8.46533e-18)
(297.641 30.5856 2.92432e-22)
(308.498 33.2014 0)
(329.924 34.5144 0)
(343.192 37.4103 -1.29114e-21)
(370.786 38.7017 0)
(387.074 41.1269 0)
(421.824 42.206 -4.01916e-18)
(441.696 42.8745 5.53656e-19)
(483.802 43.5574 -2.87256e-22)
(508.64 36.4168 0)
(548.721 33.7762 -1.31511e-21)
(575.153 -0.37864 5.08592e-19)
(549.277 -16.79 -6.49796e-20)
(540.278 -24.1127 6.09469e-18)
(505.923 -28.187 7.1597e-22)
(490.192 -28.935 0)
(458.739 -30.3915 0)
(442.545 -29.0202 8.34293e-19)
(416.607 -28.6783 2.65328e-22)
(402.502 -26.6118 0)
(381.927 -25.9293 0)
(369.723 -24.0922 0)
(353.129 -23.4618 8.51043e-18)
(342.382 -21.965 5.36903e-22)
(328.803 -21.4497 -5.34705e-18)
(319.263 -20.3226 5.32996e-18)
(307.918 -19.9637 0)
(299.296 -19.18 -6.61453e-18)
(289.52 -18.9612 7.51675e-18)
(281.556 -18.437 7.82705e-18)
(272.875 -18.2888 -5.39793e-22)
(265.431 -17.9086 0)
(257.583 -17.7521 9.70545e-18)
(250.626 -17.417 0)
(243.477 -17.1924 0)
(237.022 -16.8363 0)
(230.517 -16.5168 2.39307e-17)
(224.604 -16.1215 -1.24916e-17)
(218.713 -15.722 0)
(213.365 -15.3126 2.7129e-17)
(208.043 -14.875 1.2281e-22)
(203.248 -14.497 0)
(198.417 -14.0634 1.50284e-17)
(194.131 -13.755 0)
(189.686 -13.3458 -1.59869e-17)
(185.86 -13.12 -1.55064e-23)
(181.694 -12.7276 2.91724e-22)
(178.301 -12.57 3.52504e-17)
(174.314 -12.1676 0)
(171.367 -12.0381 -5.32358e-23)
(167.467 -11.5936 3.80945e-17)
(165.023 -11.4179 -3.98615e-17)
(161.133 -10.9051 -2.01014e-17)
(159.294 -10.5602 0)
(155.367 -9.96567 0)
(154.273 -9.31632 -1.64409e-23)
(150.333 -8.26913 0)
(100.007 0.501354 0)
(100.197 1.409 -4.40481e-17)
(100.578 2.2702 0)
(101.105 3.24891 0)
(101.848 4.72103 0)
(102.863 6.87611 -1.0313e-21)
(104.246 9.57516 3.4829e-17)
(106.03 12.313 -3.50882e-17)
(108.262 14.566 -6.22312e-22)
(110.898 15.9747 3.63859e-17)
(113.87 16.4979 0)
(116.989 16.356 0)
(120.148 15.9025 0)
(123.219 15.4592 0)
(126.289 15.1663 0)
(129.326 15.0399 -3.31991e-17)
(132.474 15.0045 -3.2046e-17)
(135.627 15.0466 5.5067e-22)
(138.953 15.1203 -3.00335e-17)
(142.279 15.2605 2.90972e-17)
(145.841 15.4167 -2.82529e-17)
(149.383 15.6436 -2.73465e-17)
(153.243 15.8667 -5.93153e-22)
(157.045 16.1711 0)
(161.271 16.4492 2.48162e-17)
(165.377 16.8302 -2.38652e-17)
(170.052 17.1567 4.61708e-17)
(174.511 17.6206 -2.20897e-17)
(179.738 17.992 -4.26749e-17)
(184.603 18.5522 0)
(190.511 18.9667 1.95717e-17)
(195.843 19.6438 0)
(202.603 20.1006 -3.55769e-17)
(208.472 20.925 1.65567e-17)
(216.311 21.4266 -1.59862e-17)
(222.798 22.4398 -1.46214e-17)
(232.022 22.9918 0)
(239.231 24.2494 2.52544e-17)
(250.257 24.8764 1.23293e-17)
(258.334 26.4703 1.05669e-17)
(271.769 27.2484 -1.04949e-17)
(280.983 29.3094 0)
(297.75 30.3486 8.72377e-18)
(308.618 32.9427 0)
(330.047 34.2446 -7.08402e-18)
(343.325 37.1154 -4.24064e-18)
(370.918 38.3951 0)
(387.214 40.7989 0)
(421.954 41.8675 0)
(441.829 42.5251 0)
(483.896 43.1939 -2.80747e-22)
(508.707 36.098 0)
(548.675 33.4627 1.04978e-18)
(575.021 -0.378968 -7.83258e-22)
(549.217 -16.6374 -2.12866e-21)
(540.248 -23.9034 0)
(505.933 -27.943 -6.5344e-19)
(490.23 -28.688 0)
(458.798 -30.1363 1.40321e-18)
(442.616 -28.7798 8.3541e-19)
(416.686 -28.4439 -2.23472e-18)
(402.58 -26.3965 -8.38564e-19)
(382.003 -25.7203 0)
(369.795 -23.8984 -2.43688e-18)
(353.199 -23.273 -4.25481e-18)
(342.449 -21.7887 3.9418e-18)
(328.867 -21.2778 0)
(319.324 -20.1603 0)
(307.976 -19.8043 0)
(299.351 -19.0271 0)
(289.571 -18.81 -1.50338e-17)
(281.605 -18.2898 -7.82755e-18)
(272.923 -18.1426 -1.72058e-17)
(265.478 -17.7653 -9.00506e-18)
(257.629 -17.6099 0)
(250.672 -17.2775 0)
(243.523 -17.0546 1.08331e-17)
(237.069 -16.7014 1.13489e-17)
(230.563 -16.3845 -1.19649e-17)
(224.65 -15.9925 0)
(218.759 -15.5963 0)
(213.411 -15.1905 -1.3564e-17)
(208.087 -14.7565 1.40645e-17)
(203.291 -14.3818 0)
(198.458 -13.9518 0)
(194.171 -13.646 1.55563e-17)
(189.725 -13.2401 3.19766e-17)
(185.898 -13.0161 -1.54605e-23)
(181.73 -12.6267 1.69771e-17)
(178.337 -12.4703 -1.76281e-17)
(174.349 -12.0713 0)
(171.403 -11.9424 1.87514e-17)
(167.504 -11.5019 -1.90524e-17)
(165.061 -11.3267 -9.68112e-23)
(161.173 -10.819 2.01099e-17)
(159.334 -10.4754 0)
(155.413 -9.8872 -2.11305e-17)
(154.32 -9.24162 2.24439e-17)
(150.387 -8.2051 0)
(100.007 0.496287 -4.55739e-17)
(100.196 1.39498 4.40676e-17)
(100.575 2.24802 0)
(101.1 3.21827 3.8865e-17)
(101.84 4.67915 0)
(102.855 6.81998 -1.02259e-21)
(104.24 9.50242 3.48154e-17)
(106.03 12.2228 0)
(108.268 14.459 -3.56687e-17)
(110.912 15.8541 -5.36548e-22)
(113.889 16.3695 0)
(117.011 16.2262 0)
(120.171 15.776 0)
(123.244 15.337 0)
(126.316 15.0472 0)
(129.355 14.9219 6.63806e-17)
(132.506 14.8867 3.20441e-17)
(135.661 14.9282 6.19455e-17)
(138.99 15.0011 3.00356e-17)
(142.317 15.1401 -2.90993e-17)
(145.882 15.295 2.82535e-17)
(149.425 15.5199 2.73477e-17)
(153.287 15.7412 -2.65346e-17)
(157.09 16.0431 2.56131e-17)
(161.318 16.3191 -2.48165e-17)
(165.426 16.697 -2.38637e-17)
(170.103 17.0211 -2.30849e-17)
(174.564 17.4813 2.20894e-17)
(179.792 17.8498 2.13367e-17)
(184.659 18.4057 0)
(190.57 18.817 -6.70188e-22)
(195.904 19.4888 0)
(202.667 19.9422 1.77875e-17)
(208.538 20.76 -3.31109e-17)
(216.38 21.258 1.59854e-17)
(222.871 22.2632 2.92401e-17)
(232.098 22.8113 1.41635e-17)
(239.31 24.059 -1.26258e-17)
(250.341 24.6817 1.23274e-17)
(258.423 26.263 -1.19414e-21)
(271.864 27.0356 0)
(281.086 29.0801 0)
(297.858 30.1114 8.72325e-18)
(308.736 32.6837 0)
(330.17 33.9744 7.08415e-18)
(343.458 36.8203 0)
(371.049 38.0883 0)
(387.352 40.4707 0)
(422.082 41.5288 0)
(441.96 42.1756 0)
(483.989 42.8305 -2.45275e-18)
(508.772 35.7798 0)
(548.63 33.1502 0)
(574.891 -0.379239 -5.11086e-19)
(549.156 -16.4852 6.74371e-20)
(540.217 -23.6945 0)
(505.943 -27.6993 0)
(490.266 -28.4411 2.74544e-18)
(458.857 -29.8812 -1.40264e-18)
(442.686 -28.5393 -8.35028e-19)
(416.763 -28.2095 2.23432e-18)
(402.657 -26.181 4.89073e-22)
(382.079 -25.5112 3.1955e-18)
(369.867 -23.7044 2.43654e-18)
(353.269 -23.0841 0)
(342.516 -21.6122 -3.9403e-18)
(328.932 -21.1058 0)
(319.385 -19.9978 0)
(308.033 -19.6449 0)
(299.405 -18.8742 -6.61262e-18)
(289.623 -18.6586 1.50337e-17)
(281.654 -18.1426 -7.82647e-18)
(272.97 -17.9963 5.31092e-22)
(265.525 -17.622 9.00565e-18)
(257.676 -17.4677 -9.70488e-18)
(250.718 -17.1379 0)
(243.569 -16.9167 -2.1666e-17)
(237.115 -16.5665 -1.13488e-17)
(230.609 -16.2522 1.1964e-17)
(224.696 -15.8635 1.24899e-17)
(218.804 -15.4707 0)
(213.455 -15.0684 0)
(208.131 -14.6381 -1.4064e-17)
(203.334 -14.2666 0)
(198.499 -13.8401 1.50292e-17)
(194.211 -13.5369 -1.55573e-17)
(189.763 -13.1343 -1.59896e-17)
(185.935 -12.912 3.31355e-17)
(181.766 -12.5259 -1.69789e-17)
(178.373 -12.3706 0)
(174.384 -11.9749 -1.80043e-17)
(171.438 -11.8466 -1.8756e-17)
(167.539 -11.4102 0)
(165.097 -11.2355 1.9945e-17)
(161.212 -10.733 0)
(159.375 -10.3906 2.1198e-17)
(155.458 -9.80877 2.11436e-17)
(154.366 -9.16702 -2.24604e-17)
(150.441 -8.14113 2.21826e-17)
(100.007 0.491248 4.55841e-17)
(100.195 1.38103 0)
(100.572 2.22595 0)
(101.095 3.18775 -7.77982e-17)
(101.833 4.63735 0)
(102.847 6.76384 -7.03415e-17)
(104.234 9.42954 -3.48038e-17)
(106.029 12.1324 0)
(108.275 14.3517 0)