/*--------------------------------*- C++ -*----------------------------------*\
| =========                 |                                                 |
| \\      /  F ield         | OpenFOAM: The Open Source CFD Toolbox           |
|  \\    /   O peration     | Version:  2412                                  |
|   \\  /    A nd           | Website:  www.openfoam.com                      |
|    \\/     M anipulation  |                                                 |
\*---------------------------------------------------------------------------*/
FoamFile
{
    version     2.0;
    format      ascii;
    arch        "LSB;label=32;scalar=64";
    class       volScalarField;
    location    "0.9";
    object      epsilon;
}
// * * * * * * * * * * * * * * * * * * * * * * * * * * * * * * * * * * * * * //

dimensions      [0 2 -3 0 0 0 0];

internalField   nonuniform List<scalar> 
12960
(
381.022
386.334
395.009
411.592
445.263
510.151
621.372
785.696
995.549
1231.91
1473.66
1703.39
1904.24
2057.06
2143.25
2157.92
2115.66
2048.67
1987.81
1953.36
1949.12
1973.99
2021.53
2090.41
2175.44
2279.58
2398.5
2539.78
2697.98
2886.4
3096.13
3349.24
3630.03
3975.43
4357.37
4839.25
5370.75
6065.26
6835.55
7897.69
9107.47
10889.2
12980.7
16171.2
19825.9
25155.7
30467
37319.3
43014
49462.9
54750.4
51338.9
50117.4
35083.7
27755.6
24527.9
22964.8
21298.9
20596
19205.9
17890.1
15897.9
14100.2
12200.2
10682.4
9289.03
8210.95
7259.44
6527.24
5901.42
5427.03
5028.24
4722.31
4459.74
4246.81
4053.19
3880.32
3710.65
3543.77
3372.45
3197.32
3020.27
2843.1
2673.47
2511.31
2366.05
2232.38
2119.48
2015.58
1931.06
1848.63
1782.82
1711.53
1655.27
1587.26
1533.15
1463.51
1407.22
1330.33
381.105
386.517
395.319
412.103
446.118
511.53
623.38
788.226
998.234
1234.23
1475.15
1703.87
1903.93
2056.43
2142.68
2157.38
2114.78
2047.09
1985.47
1950.47
1945.99
1970.84
2018.48
2087.5
2172.66
2276.89
2395.85
2537.12
2695.27
2883.58
3093.17
3346.07
3626.62
3971.68
4353.22
4834.56
5365.39
6058.94
6828.04
7888.53
9096.35
10875.8
12965.3
16154.7
19809.8
25143.1
30457.7
37317
43014.3
49492.7
54825.5
51493.9
50457.5
35499.2
28199.4
24966.2
23354.7
21601.4
20805.8
19341.5
17972.4
15944.4
14123.9
12210.7
10685.8
9288.95
8209.2
7256.89
6524.24
5898.22
5423.82
5025.22
4719.58
4457.39
4244.87
4051.69
3879.24
3709.96
3543.37
3372.25
3197.19
3020.11
2842.82
2673.04
2510.74
2365.39
2231.71
2118.88
2015.13
1930.82
1848.65
1783.16
1712.19
1656.35
1588.72
1535.13
1465.97
1410.33
1333.87
381.19
386.702
395.634
412.62
446.982
512.919
625.398
790.763
1000.92
1236.54
1476.63
1704.34
1903.6
2055.79
2142.11
2156.85
2113.92
2045.53
1983.15
1947.6
1942.87
1967.69
2015.44
2084.6
2169.88
2274.2
2393.2
2534.46
2692.56
2880.76
3090.21
3342.91
3623.21
3967.94
4349.08
4829.87
5360.02
6052.63
6820.53
7879.38
9085.22
10862.4
12949.8
16138.1
19793.8
25130.5
30448.5
37315
43015
49522.9
54901.3
51651
50804.1
35925.8
28656.8
25418.8
23758
21915
21023.5
19482.3
18057.7
15992.5
14148.5
12221.6
10689.4
9288.97
8207.52
7254.4
6521.27
5895.05
5420.64
5022.22
4716.87
4455.05
4242.95
4050.22
3878.19
3709.29
3543
3372.07
3197.09
3019.97
2842.57
2672.63
2510.18
2364.74
2231.05
2118.28
2014.69
1930.6
1848.68
1783.51
1712.87
1657.44
1590.2
1537.14
1468.46
1413.5
1337.48
381.276
386.891
395.953
413.145
447.856
514.321
627.43
793.312
1003.62
1238.87
1478.11
1704.8
1903.26
2055.13
2141.52
2156.31
2113.07
2043.98
1980.83
1944.73
1939.74
1964.54
2012.39
2081.69
2167.1
2271.49
2390.54
2531.79
2689.83
2877.93
3087.24
3339.73
3619.79
3964.18
4344.93
4825.16
5354.64
6046.3
6813
7870.18
9074.05
10849
12934.3
16121.5
19777.7
25117.9
30439.3
37313
43015.5
49553.3
54977.5
51809.8
51156.9
36363.6
29128
25885.7
24174.9
22240
21249.3
19628.4
18146.2
16042.3
14173.9
12232.8
10693.1
9289.01
8205.84
7251.9
6518.29
5891.87
5417.45
5019.21
4714.15
4452.71
4241.03
4048.74
3877.15
3708.62
3542.64
3371.9
3197
3019.84
2842.32
2672.22
2509.63
2364.09
2230.38
2117.69
2014.24
1930.37
1848.72
1783.87
1713.56
1658.54
1591.7
1539.18
1470.99
1416.7
1341.14
381.362
387.082
396.277
413.677
448.741
515.737
629.476
795.873
1006.32
1241.19
1479.6
1705.26
1902.91
2054.45
2140.91
2155.77
2112.22
2042.44
1978.52
1941.86
1936.61
1961.38
2009.33
2078.76
2164.3
2268.78
2387.87
2529.11
2687.1
2875.08
3084.25
3336.53
3616.35
3960.4
4340.75
4820.43
5349.23
6039.93
6805.42
7860.93
9062.81
10835.4
12918.7
16104.8
19761.5
25105.3
30430
37310.9
43015.9
49583.6
55054
51970.2
51516
36812.7
29613.3
26367.5
24605.9
22576.6
21483.5
19780
18237.8
16093.8
14200.1
12244.4
10696.8
9289.06
8204.13
7249.37
6515.28
5888.66
5414.23
5016.18
4711.41
4450.36
4239.1
4047.26
3876.09
3707.96
3542.28
3371.74
3196.92
3019.71
2842.07
2671.81
2509.08
2363.44
2229.71
2117.08
2013.79
1930.14
1848.75
1784.22
1714.25
1659.65
1593.2
1541.23
1473.54
1419.94
1344.84
381.451
387.276
396.606
414.216
449.636
517.166
631.537
798.447
1009.04
1243.53
1481.08
1705.71
1902.54
2053.74
2140.28
2155.21
2111.36
2040.9
1976.21
1938.98
1933.47
1958.21
2006.25
2075.82
2161.49
2266.05
2385.19
2526.41
2684.34
2872.22
3081.24
3333.31
3612.88
3956.6
4336.54
4815.66
5343.78
6033.52
6797.79
7851.62
9051.49
10821.7
12902.9
16087.9
19745.1
25092.4
30420.6
37308.7
43016.1
49613.7
55130.5
52132.2
51881.5
37273.7
30113.2
26864.5
25051.3
22925.4
21726.5
19937.4
18332.9
16147.1
14227
12256.2
10700.7
9289.1
8202.4
7246.81
6512.24
5885.42
5410.98
5013.12
4708.65
4447.99
4237.16
4045.76
3875.03
3707.28
3541.92
3371.57
3196.83
3019.58
2841.82
2671.4
2508.51
2362.77
2229.03
2116.47
2013.33
1929.9
1848.78
1784.58
1714.94
1660.77
1594.72
1543.3
1476.11
1423.22
1348.59
381.54
387.473
396.94
414.763
450.543
518.61
633.613
801.035
1011.76
1245.87
1482.57
1706.17
1902.15
2053.01
2139.62
2154.64
2110.51
2039.37
1973.9
1936.09
1930.32
1955.02
2003.17
2072.87
2158.66
2263.31
2382.49
2523.69
2681.57
2869.34
3078.21
3330.07
3609.4
3952.76
4332.3
4810.86
5338.29
6027.06
6790.11
7842.25
9040.1
10808
12887
16071
19728.6
25079.5
30411.1
37306.4
43016.1
49643.8
55207.1
52295.8
52253.5
37746.7
30628.2
27377.2
25511.6
23286.8
21978.7
20100.8
18431.5
16202.3
14254.9
12268.4
10704.6
9289.15
8200.65
7244.22
6509.17
5882.16
5407.71
5010.04
4705.87
4445.6
4235.19
4044.25
3873.96
3706.61
3541.55
3371.41
3196.74
3019.46
2841.57
2670.98
2507.94
2362.1
2228.34
2115.85
2012.87
1929.65
1848.81
1784.94
1715.63
1661.89
1596.25
1545.39
1478.71
1426.53
1352.39
381.631
387.673
397.278
415.318
451.46
520.067
635.704
803.636
1014.5
1248.21
1484.07
1706.61
1901.76
2052.26
2138.94
2154.06
2109.65
2037.83
1971.59
1933.2
1927.16
1951.83
2000.07
2069.9
2155.82
2260.55
2379.77
2520.96
2678.78
2866.43
3075.16
3326.81
3605.88
3948.91
4328.03
4806.02
5332.76
6020.56
6782.39
7832.82
9028.63
10794.1
12871
16053.8
19711.9
25066.4
30401.4
37304
43015.8
49673.6
55283.9
52460.9
52632.1
38232.4
31158.8
27906
25987.3
23661.3
22240.5
20270.6
18533.9
16259.4
14283.6
12280.9
10708.6
9289.22
8198.89
7241.61
6506.09
5878.87
5404.41
5006.94
4703.07
4443.19
4233.22
4042.74
3872.88
3705.93
3541.18
3371.24
3196.65
3019.32
2841.31
2670.55
2507.36
2361.42
2227.64
2115.22
2012.39
1929.4
1848.83
1785.29
1716.33
1663.02
1597.79
1547.5
1481.33
1429.89
1356.24
381.723
387.876
397.622
415.88
452.388
521.539
637.811
806.25
1017.24
1250.57
1485.56
1707.05
1901.34
2051.47
2138.23
2153.45
2108.79
2036.3
1969.27
1930.31
1923.98
1948.62
1996.95
2066.92
2152.97
2257.78
2377.04
2518.21
2675.98
2863.51
3072.09
3323.53
3602.35
3945.02
4323.74
4801.16
5327.2
6014.03
6774.61
7823.33
9017.09
10780.2
12854.9
16036.6
19695.2
25053.2
30391.6
37301.4
43015.3
49703.4
55360.7
52627.6
53017.6
38731
31705.3
28451.4
26478.9
24049.5
22512.4
20447
18640.2
16318.8
14313.4
12293.9
10712.8
9289.32
8197.11
7238.99
6502.98
5875.57
5401.1
5003.82
4700.26
4440.78
4231.24
4041.21
3871.8
3705.24
3540.81
3371.08
3196.56
3019.19
2841.06
2670.12
2506.78
2360.73
2226.93
2114.58
2011.91
1929.14
1848.85
1785.64
1717.03
1664.16
1599.33
1549.62
1483.98
1433.28
1360.14
381.817
388.082
397.971
416.45
453.328
523.024
639.932
808.877
1019.99
1252.92
1487.06
1707.49
1900.91
2050.66
2137.49
2152.83
2107.92
2034.77
1966.96
1927.41
1920.8
1945.4
1993.83
2063.93
2150.1
2254.99
2374.29
2515.44
2673.15
2860.57
3069
3320.22
3598.78
3941.11
4319.41
4796.26
5321.6
6007.44
6766.79
7813.78
9005.47
10766.1
12838.7
16019.2
19678.2
25039.9
30381.7
37298.7
43014.6
49733
55437.7
52796
53410.1
39243.1
32268.5
29014
26986.8
24451.7
22794.7
20630.4
18750.8
16380.4
14344.3
12307.3
10717.2
9289.47
8195.35
7236.36
6499.87
5872.25
5397.78
5000.69
4697.44
4438.35
4229.25
4039.68
3870.71
3704.56
3540.45
3370.91
3196.48
3019.07
2840.8
2669.69
2506.19
2360.03
2226.22
2113.93
2011.42
1928.88
1848.87
1785.99
1717.73
1665.3
1600.89
1551.76
1486.66
1436.72
1364.09
381.911
388.29
398.324
417.027
454.278
524.524
642.068
811.516
1022.75
1255.29
1488.55
1707.92
1900.45
2049.82
2136.72
2152.19
2107.04
2033.24
1964.65
1924.5
1917.62
1942.17
1990.69
2060.92
2147.22
2252.19
2371.53
2512.66
2670.31
2857.61
3065.89
3316.89
3595.2
3937.17
4315.06
4791.33
5315.97
6000.82
6758.91
7804.17
8993.78
10752
12822.4
16001.7
19661.2
25026.4
30371.7
37295.9
43013.6
49762.4
55514.7
52966
53809.9
39769.2
32848.8
29594.2
27511.7
24868.6
23087.9
20821.3
18865.8
16444.4
14376.3
12321.2
10721.7
9289.68
8193.6
7233.73
6496.75
5868.93
5394.45
4997.56
4694.61
4435.92
4227.25
4038.15
3869.63
3703.88
3540.08
3370.76
3196.4
3018.94
2840.54
2669.25
2505.59
2359.32
2225.49
2113.27
2010.92
1928.61
1848.88
1786.35
1718.43
1666.45
1602.46
1553.92
1489.36
1440.19
1368.1
382.008
388.502
398.683
417.613
455.241
526.038
644.219
814.168
1025.52
1257.65
1490.05
1708.34
1899.98
2048.95
2135.91
2151.52
2106.16
2031.71
1962.34
1921.6
1914.42
1938.92
1987.54
2057.9
2144.32
2249.38
2368.75
2509.86
2667.45
2854.64
3062.76
3313.54
3591.59
3933.21
4310.68
4786.36
5310.3
5994.16
6750.99
7794.5
8982.01
10737.8
12806
15984.1
19644
25012.9
30361.6
37293
43012.5
49791.7
55591.8
53137.7
54217.1
40309.6
33446.7
30192.5
28054
25300.7
23392.6
21019.8
18985.5
16511
14409.6
12335.7
10726.4
9289.96
8191.89
7231.13
6493.64
5865.62
5391.13
4994.43
4691.78
4433.5
4225.26
4036.62
3868.54
3703.2
3539.72
3370.6
3196.32
3018.82
2840.28
2668.81
2504.99
2358.61
2224.76
2112.6
2010.41
1928.34
1848.89
1786.7
1719.13
1667.6
1604.04
1556.1
1492.09
1443.71
1372.15
382.105
388.718
399.048
418.207
456.214
527.567
646.385
816.832
1028.3
1260.02
1491.55
1708.75
1899.49
2048.05
2135.08
2150.83
2105.27
2030.18
1960.02
1918.68
1911.21
1935.67
1984.38
2054.87
2141.41
2246.55
2365.95
2507.05
2664.58
2851.64
3059.61
3310.17
3587.96
3929.22
4306.27
4781.37
5304.6
5987.46
6743.03
7784.77
8970.18
10723.5
12789.4
15966.3
19626.7
24999.2
30351.4
37290
43011.1
49820.9
55669
53311.2
54631.9
40864.9
34062.8
30809.4
28614.2
25748.5
23709.1
21226.5
19110.1
16580.3
14444.2
12350.7
10731.4
9290.35
8190.22
7228.55
6490.56
5862.32
5387.81
4991.3
4688.96
4431.07
4223.27
4035.09
3867.46
3702.52
3539.37
3370.46
3196.25
3018.7
2840.03
2668.38
2504.39
2357.89
2224.02
2111.93
2009.9
1928.06
1848.9
1787.05
1719.84
1668.76
1605.64
1558.3
1494.84
1447.26
1376.26
382.204
388.936
399.417
418.809
457.2
529.11
648.565
819.508
1031.09
1262.4
1493.04
1709.15
1898.98
2047.12
2134.21
2150.12
2104.37
2028.65
1957.71
1915.76
1908
1932.41
1981.2
2051.83
2138.49
2243.7
2363.15
2504.22
2661.69
2848.63
3056.45
3306.78
3584.31
3925.21
4301.83
4776.35
5298.87
5980.72
6735.02
7775
8958.28
10709.1
12772.8
15948.5
19609.2
24985.4
30341
37287
43009.6
49850
55746.4
53486.4
55054.6
41435.7
34697.7
31445.4
29192.7
26212.5
24038.1
21441.7
19240
16652.5
14480.2
12366.4
10736.7
9290.87
8188.62
7226.01
6487.5
5859.04
5384.51
4988.19
4686.15
4428.65
4221.29
4033.57
3866.39
3701.85
3539.02
3370.32
3196.19
3018.59
2839.78
2667.94
2503.78
2357.17
2223.27
2111.26
2009.39
1927.78
1848.9
1787.4
1720.56
1669.93
1607.24
1560.51
1497.62
1450.86
1380.42
382.305
389.158
399.792
419.419
458.197
530.667
650.76
822.196
1033.88
1264.77
1494.54
1709.55
1898.45
2046.15
2133.3
2149.39
2103.46
2027.11
1955.4
1912.84
1904.78
1929.13
1978.02
2048.77
2135.56
2240.85
2360.33
2501.37
2658.78
2845.6
3053.26
3303.37
3580.63
3921.17
4297.37
4771.3
5293.1
5973.94
6726.96
7765.16
8946.31
10694.6
12756
15930.5
19591.7
24971.5
30330.6
37283.8
43007.9
49879
55823.8
53663.5
55485.4
42022.3
35351.8
32101
29790.2
26693.4
24380
21665.8
19375.4
16727.9
14517.8
12382.8
10742.3
9291.53
8187.1
7223.53
6484.48
5855.8
5381.24
4985.1
4683.35
4426.25
4219.32
4032.06
3865.33
3701.2
3538.69
3370.19
3196.14
3018.48
2839.53
2667.51
2503.17
2356.44
2222.52
2110.57
2008.87
1927.5
1848.91
1787.76
1721.27
1671.11
1608.86
1562.75
1500.43
1454.5
1384.64
382.407
389.383
400.173
420.038
459.206
532.239
652.97
824.895
1036.68
1267.15
1496.03
1709.94
1897.89
2045.14
2132.35
2148.62
2102.53
2025.58
1953.08
1909.92
1901.55
1925.85
1974.82
2045.7
2132.61
2237.98
2357.49
2498.51
2655.85
2842.55
3050.05
3299.93
3576.94
3917.11
4292.88
4766.22
5287.3
5967.13
6718.87
7755.28
8934.27
10680
12739.2
15912.4
19574
24957.5
30320.1
37280.7
43006.1
49907.9
55901.4
53842.5
55924.6
42625.4
36025.8
32776.6
30407.1
27191.6
24735.4
21899.4
19516.6
16806.5
14557.1
12400
10748.2
9292.36
8185.68
7221.12
6481.52
5852.6
5378
4982.04
4680.58
4423.87
4217.36
4030.57
3864.28
3700.56
3538.37
3370.08
3196.1
3018.39
2839.3
2667.07
2502.57
2355.71
2221.77
2109.89
2008.35
1927.21
1848.91
1788.11
1722
1672.29
1610.49
1565.01
1503.27
1458.19
1388.92
382.51
389.611
400.56
420.665
460.227
533.826
655.195
827.606
1039.48
1269.53
1497.52
1710.31
1897.31
2044.11
2131.37
2147.83
2101.6
2024.05
1950.77
1906.99
1898.31
1922.55
1971.61
2042.62
2129.65
2235.09
2354.64
2495.64
2652.91
2839.48
3046.83
3296.48
3573.22
3913.03
4288.37
4761.11
5281.47
5960.28
6710.73
7745.34
8922.17
10665.4
12722.2
15894.1
19556.2
24943.3
30309.6
37277.4
43004.1
49936.7
55979.2
54023.3
56372.3
43245.6
36720.2
33472.9
31043.9
27707.7
25104.8
22142.7
19664
16888.6
14598.1
12418.1
10754.5
9293.4
8184.39
7218.8
6478.63
5849.45
5374.81
4979.01
4677.84
4421.52
4215.43
4029.09
3863.25
3699.93
3538.07
3369.98
3196.08
3018.31
2839.07
2666.65
2501.96
2354.98
2221.01
2109.2
2007.82
1926.93
1848.92
1788.47
1722.72
1673.49
1612.13
1567.29
1506.14
1461.92
1393.25
382.615
389.843
400.952
421.301
461.26
535.427
657.434
830.328
1042.29
1271.91
1499
1710.68
1896.71
2043.03
2130.35
2147
2100.65
2022.52
1948.46
1904.05
1895.06
1919.25
1968.39
2039.53
2126.68
2232.2
2351.77
2492.75
2649.95
2836.4
3043.58
3293.01
3569.48
3908.92
4283.83
4755.97
5275.61
5953.39
6702.55
7735.35
8910
10650.6
12705.2
15875.8
19538.2
24929.1
30298.9
37274.1
43001.9
49965.4
56057.1
54206.2
56828.9
43883.2
37435.6
34190.2
31701.1
28242.4
25488.7
22396.3
19817.8
16974.4
14641.1
12437
10761.3
9294.67
8183.24
7216.58
6475.83
5846.38
5371.67
4976.04
4675.14
4419.19
4213.53
4027.64
3862.25
3699.33
3537.78
3369.9
3196.07
3018.24
2838.85
2666.23
2501.36
2354.25
2220.26
2108.51
2007.29
1926.64
1848.92
1788.83
1723.45
1674.69
1613.79
1569.58
1509.03
1465.69
1397.65
382.722
390.078
401.35
421.946
462.305
537.044
659.688
833.061
1045.11
1274.29
1500.49
1711.03
1896.08
2041.92
2129.28
2146.15
2099.69
2020.98
1946.15
1901.12
1891.81
1915.94
1965.16
2036.43
2123.69
2229.29
2348.9
2489.84
2646.98
2833.3
3040.32
3289.52
3565.72
3904.79
4279.27
4750.81
5269.71
5946.47
6694.33
7725.32
8897.77
10635.8
12688
15857.4
19520.2
24914.8
30288.3
37270.8
42999.6
49994.1
56135.1
54391
57294.5
44539
38172.6
34929
32379.1
28796
25887.8
22660.7
19978.4
17064.2
14686.1
12457
10768.5
9296.21
8182.25
7214.5
6473.12
5843.39
5368.6
4973.12
4672.49
4416.91
4211.66
4026.23
3861.26
3698.75
3537.52
3369.84
3196.08
3018.19
2838.64
2665.82
2500.76
2353.53
2219.5
2107.81
2006.77
1926.35
1848.93
1789.2
1724.19
1675.91
1615.46
1571.9
1511.96
1469.51
1402.1
382.83
390.317
401.753
422.6
463.363
538.675
661.957
835.805
1047.93
1276.68
1501.96
1711.37
1895.43
2040.76
2128.17
2145.26
2098.72
2019.44
1943.84
1898.18
1888.55
1912.61
1961.92
2033.31
2120.69
2226.37
2346.01
2486.92
2644
2830.18
3037.04
3286.01
3561.94
3900.64
4274.68
4745.62
5263.79
5939.52
6686.07
7715.23
8885.48
10620.9
12670.8
15838.8
19502.1
24900.5
30277.5
37267.5
42997.3
50022.7
56213.3
54578
57769.6
45213.5
38931.7
35689.8
33078.5
29369.2
26302.5
22936.4
20146.3
17158.1
14733.3
12478.1
10776.4
9298.05
8181.47
7212.56
6470.54
5840.5
5365.62
4970.27
4669.9
4414.68
4209.84
4024.84
3860.31
3698.2
3537.28
3369.81
3196.11
3018.16
2838.45
2665.42
2500.17
2352.8
2218.74
2107.12
2006.24
1926.06
1848.94
1789.57
1724.94
1677.13
1617.14
1574.25
1514.91
1473.38
1406.61
382.94
390.559
402.163
423.263
464.433
540.321
664.24
838.559
1050.76
1279.06
1503.44
1711.7
1894.75
2039.57
2127.02
2144.34
2097.73
2017.9
1941.52
1895.24
1885.29
1909.28
1958.67
2030.19
2117.69
2223.43
2343.1
2483.99
2640.99
2827.05
3033.75
3282.48
3558.14
3896.47
4270.07
4740.4
5257.84
5932.53
6677.77
7705.1
8873.13
10606
12653.4
15820.1
19483.8
24886
30266.7
37264.2
42994.8
50051.3
56291.7
54767
58254.3
45907.2
39713.4
36473.1
33799.6
29962.5
26733.6
23223.8
20321.7
17256.5
14782.9
12500.3
10784.8
9300.24
8180.92
7210.8
6468.1
5837.73
5362.73
4967.5
4667.38
4412.51
4208.06
4023.5
3859.4
3697.68
3537.08
3369.8
3196.17
3018.15
2838.28
2665.03
2499.59
2352.08
2217.99
2106.43
2005.71
1925.78
1848.95
1789.94
1725.69
1678.37
1618.84
1576.61
1517.9
1477.29
1411.19
383.051
390.806
402.579
423.935
465.516
541.982
666.537
841.324
1053.59
1281.44
1504.9
1712.02
1894.05
2038.34
2125.82
2143.38
2096.72
2016.35
1939.21
1892.29
1882.02
1905.94
1955.41
2027.05
2114.67
2220.49
2340.19
2481.04
2637.98
2823.9
3030.44
3278.93
3554.31
3892.27
4265.44
4735.16
5251.86
5925.51
6669.43
7694.92
8860.72
10590.9
12636
15801.4
19465.4
24871.4
30255.9
37260.9
42992.2
50079.9
56370.3
54958.3
58748.9
46620.9
40518.4
37279.2
34542.9
30576.5
27181.5
23523.6
20505.1
17359.6
14835
12523.9
10793.8
9302.81
8180.63
7209.24
6465.82
5835.09
5359.96
4964.83
4664.93
4410.41
4206.35
4022.21
3858.53
3697.2
3536.91
3369.83
3196.25
3018.16
2838.12
2664.66
2499.02
2351.37
2217.23
2105.74
2005.18
1925.49
1848.97
1790.32
1726.45
1679.61
1620.56
1579
1520.92
1481.25
1415.83
383.164
391.055
403.002
424.616
466.612
543.659
668.85
844.099
1056.43
1283.82
1506.36
1712.32
1893.32
2037.06
2124.57
2142.39
2095.69
2014.8
1936.9
1889.35
1878.74
1902.6
1952.14
2023.9
2111.64
2217.53
2337.26
2478.08
2634.94
2820.74
3027.11
3275.36
3550.47
3888.05
4260.78
4729.89
5245.85
5918.46
6661.06
7684.69
8848.26
10575.8
12618.5
15782.5
19447
24856.8
30245
37257.6
42989.6
50108.5
56449.1
55151.8
59253.8
47355.1
41347.3
38108.6
35308.9
31211.6
27646.9
23836.2
20696.8
17467.7
14889.7
12548.8
10803.7
9305.83
8180.63
7207.91
6463.72
5832.61
5357.32
4962.27
4662.58
4408.38
4204.69
4020.97
3857.71
3696.76
3536.78
3369.89
3196.37
3018.2
2837.99
2664.3
2498.46
2350.66
2216.49
2105.05
2004.66
1925.21
1848.99
1790.71
1727.22
1680.87
1622.29
1581.41
1523.97
1485.26
1420.53
383.279
391.309
403.43
425.307
467.721
545.351
671.177
846.885
1059.27
1286.2
1507.82
1712.6
1892.56
2035.74
2123.27
2141.35
2094.64
2013.25
1934.59
1886.4
1875.46
1899.24
1948.86
2020.74
2108.6
2214.56
2334.31
2475.11
2631.9
2817.56
3023.76
3271.78
3546.61
3883.82
4256.1
4724.6
5239.81
5911.38
6652.65
7674.42
8835.73
10560.6
12600.9
15763.6
19428.4
24842.1
30234.2
37254.4
42987
50137.1
56528.2
55347.6
59769.2
48110.3
42200.5
38961.8
36097.9
31868.5
28130.4
24162.2
20897.4
17581
14947.4
12575.3
10814.3
9309.32
8180.97
7206.84
6461.84
5830.31
5354.83
4959.84
4660.34
4406.45
4203.12
4019.8
3856.95
3696.37
3536.69
3369.98
3196.52
3018.27
2837.88
2663.97
2497.92
2349.97
2215.75
2104.37
2004.15
1924.94
1849.01
1791.1
1728
1682.14
1624.04
1583.84
1527.05
1489.32
1425.3
383.395
391.566
403.865
426.007
468.843
547.059
673.518
849.68
1062.11
1288.57
1509.26
1712.87
1891.77
2034.38
2121.92
2140.28
2093.57
2011.69
1932.28
1883.45
1872.17
1895.88
1945.57
2017.58
2105.54
2211.58
2331.36
2472.12
2628.84
2814.36
3020.39
3268.18
3542.73
3879.56
4251.4
4719.28
5233.75
5904.27
6644.2
7664.11
8823.16
10545.4
12583.2
15744.5
19409.7
24827.3
30223.3
37251.2
42984.3
50165.8
56607.5
55545.9
60295.4
48887.3
43078.6
39839.1
36910.2
32547.6
28632.6
24502.3
21107.3
17700
15008.1
12603.4
10825.8
9313.37
8181.69
7206.06
6460.21
5828.21
5352.51
4957.55
4658.22
4404.62
4201.63
4018.71
3856.24
3696.04
3536.65
3370.13
3196.71
3018.37
2837.8
2663.65
2497.39
2349.29
2215.02
2103.7
2003.63
1924.67
1849.05
1791.5
1728.79
1683.42
1625.8
1586.3
1530.16
1493.43
1430.14
383.514
391.828
404.306
426.718
469.978
548.782
675.875
852.486
1064.96
1290.95
1510.7
1713.13
1890.95
2032.97
2120.52
2139.16
2092.48
2010.12
1929.97
1880.5
1868.88
1892.51
1942.28
2014.4
2102.48
2208.58
2328.39
2469.12
2625.76
2811.15
3017.01
3264.56
3538.84
3875.28
4246.67
4713.94
5227.66
5897.12
6635.73
7653.76
8810.52
10530
12565.4
15725.3
19390.9
24812.5
30212.4
37248.1
42981.7
50194.5
56687.1
55746.5
60832.9
49686.7
43982.2
40740.8
37746.4
33249.3
29154.1
24856.9
21326.9
17824.9
15072.2
12633.3
10838.3
9318.02
8182.83
7205.62
6458.84
5826.35
5350.38
4955.42
4656.24
4402.91
4200.24
4017.7
3855.61
3695.77
3536.66
3370.32
3196.94
3018.51
2837.75
2663.36
2496.88
2348.62
2214.31
2103.03
2003.13
1924.4
1849.09
1791.91
1729.59
1684.72
1627.58
1588.79
1533.31
1497.6
1435.04
383.634
392.093
404.755
427.438
471.127
550.521
678.246
855.301
1067.81
1293.32
1512.13
1713.36
1890.1
2031.51
2119.06
2138
2091.37
2008.55
1927.65
1877.55
1865.58
1889.13
1938.97
2011.21
2099.41
2205.58
2325.41
2466.11
2622.67
2807.93
3013.62
3260.92
3534.92
3870.98
4241.92
4708.57
5221.55
5889.95
6627.21
7643.36
8797.84
10514.6
12547.5
15706.1
19372.1
24797.6
30201.5
37245.1
42979
50223.3
56767
55949.7
61381.9
50509.1
44911.9
41667.5
38606.6
33974.3
29695.5
25226.8
21556.8
17956.2
15139.8
12665.1
10851.9
9323.34
8184.44
7205.54
6457.78
5824.74
5348.48
4953.48
4654.42
4401.32
4198.97
4016.78
3855.06
3695.57
3536.74
3370.56
3197.22
3018.69
2837.74
2663.1
2496.4
2347.97
2213.6
2102.38
2002.64
1924.15
1849.14
1792.33
1730.4
1686.03
1629.38
1591.3
1536.49
1501.81
1440.02
383.755
392.363
405.209
428.168
472.289
552.276
680.631
858.126
1070.66
1295.68
1513.55
1713.58
1889.22
2030.01
2117.55
2136.79
2090.23
2006.97
1925.34
1874.59
1862.28
1885.74
1935.66
2008.02
2096.33
2202.56
2322.42
2463.08
2619.57
2804.69
3010.21
3257.26
3530.99
3866.66
4237.16
4703.18
5215.41
5882.75
6618.67
7632.93
8785.1
10499.2
12529.6
15686.7
19353.1
24782.7
30190.6
37242.2
42976.5
50252.3
56847.3
56155.5
61942.7
51355.1
45868
42619.3
39491.3
34722.8
30257.4
25612.5
21797.5
18094.1
15211.1
12698.9
10866.6
9329.4
8186.59
7205.89
6457.07
5823.42
5346.81
4951.75
4652.77
4399.89
4197.81
4015.97
3854.61
3695.44
3536.89
3370.87
3197.56
3018.92
2837.77
2662.88
2495.94
2347.34
2212.91
2101.74
2002.15
1923.91
1849.2
1792.76
1731.22
1687.36
1631.2
1593.83
1539.7
1506.08
1445.06
383.879
392.636
405.671
428.908
473.466
554.047
683.032
860.96
1073.51
1298.04
1514.95
1713.79
1888.31
2028.45
2115.99
2135.53
2089.06
2005.39
1923.03
1871.64
1858.98
1882.35
1932.34
2004.81
2093.23
2199.54
2319.42
2460.04
2616.45
2801.43
3006.78
3253.59
3527.03
3862.32
4232.37
4697.77
5209.24
5875.52
6610.09
7622.45
8772.32
10483.7
12511.5
15667.3
19334.1
24767.7
30179.7
37239.4
42973.9
50281.4
56927.8
56364
62515.8
52225.5
46851.2
43596.7
40400.7
35495.4
30840.4
26014.7
22049.4
18239
15286.6
12735.1
10882.6
9336.28
8189.32
7206.7
6456.74
5822.42
5345.42
4950.25
4651.32
4398.63
4196.8
4015.27
3854.25
3695.41
3537.11
3371.24
3197.95
3019.2
2837.84
2662.69
2495.51
2346.74
2212.25
2101.11
2001.68
1923.68
1849.28
1793.2
1732.06
1688.7
1633.04
1596.4
1542.95
1510.4
1450.17
384.004
392.914
406.14
429.659
474.656
555.834
685.447
863.804
1076.37
1300.4
1516.35
1713.97
1887.37
2026.85
2114.36
2134.23
2087.87
2003.79
1920.72
1868.68
1855.67
1878.95
1929.01
2001.6
2090.13
2196.5
2316.41
2456.99
2613.32
2798.16
3003.34
3249.91
3523.06
3857.97
4227.56
4692.34
5203.05
5868.27
6601.48
7611.94
8759.48
10468.1
12493.4
15647.8
19314.9
24752.7
30168.9
37236.7
42971.5
50310.6
57008.8
56575.3
63101.4
53120.8
47861.9
44599.9
41335
36292.4
31445.2
26434.1
22313.3
18391.5
15366.3
12773.6
10900.1
9344.07
8192.7
7208.02
6456.83
5821.79
5344.34
4949.02
4650.09
4397.55
4195.95
4014.71
3854
3695.47
3537.41
3371.69
3198.41
3019.54
2837.96
2662.54
2495.12
2346.16
2211.6
2100.51
2001.23
1923.46
1849.36
1793.66
1732.91
1690.06
1634.9
1598.99
1546.23
1514.77
1455.36
384.132
393.196
406.616
430.42
475.861
557.638
687.878
866.657
1079.22
1302.75
1517.74
1714.14
1886.39
2025.2
2112.68
2132.87
2086.65
2002.19
1918.4
1865.72
1852.35
1875.55
1925.67
1998.38
2087.02
2193.45
2313.38
2453.93
2610.18
2794.88
2999.88
3246.2
3519.07
3853.59
4222.73
4686.88
5196.84
5860.99
6592.85
7601.39
8746.6
10452.4
12475.2
15628.1
19295.7
24737.6
30158.1
37234.3
42969.3
50340
57090.2
56789.4
63700
54041.7
48900.6
45629.2
42294.6
37114.2
32072.3
26871.3
22589.6
18551.9
15450.6
12814.8
10919.1
9352.86
8196.81
7209.93
6457.4
5821.56
5343.6
4948.07
4649.1
4396.68
4195.27
4014.3
3853.88
3695.64
3537.81
3372.22
3198.94
3019.94
2838.13
2662.44
2494.76
2345.62
2210.98
2099.92
2000.8
1923.26
1849.47
1794.13
1733.78
1691.44
1636.78
1601.61
1549.55
1519.2
1460.62
384.261
393.482
407.099
431.192
477.08
559.458
690.323
869.519
1082.08
1305.1
1519.11
1714.28
1885.38
2023.5
2110.93
2131.47
2085.4
2000.57
1916.09
1862.76
1849.04
1872.14
1922.33
1995.15
2083.9
2190.4
2310.34
2450.85
2607.02
2791.58
2996.4
3242.48
3515.07
3849.2
4217.88
4681.4
5190.6
5853.68
6584.18
7590.8
8733.67
10436.7
12457
15608.4
19276.4
24722.5
30147.4
37232
42967.1
50369.7
57172
57006.4
64311.9
54988.8
49967.7
46684.8
43279.5
37961.2
32722.4
27327
22879
18720.7
15539.9
12858.9
10939.7
9362.75
8201.71
7212.46
6458.5
5821.78
5343.24
4947.44
4648.39
4396.04
4194.79
4014.06
3853.9
3695.93
3538.31
3372.83
3199.55
3020.41
2838.36
2662.38
2494.45
2345.1
2210.38
2099.36
2000.38
1923.08
1849.59
1794.62
1734.67
1692.84
1638.68
1604.25
1552.91
1523.69
1465.96
384.392
393.772
407.589
431.975
478.313
561.295
692.784
872.391
1084.94
1307.43
1520.48
1714.4
1884.33
2021.74
2109.12
2130
2084.11
1998.95
1913.78
1859.8
1845.72
1868.72
1918.98
1991.91
2080.77
2187.33
2307.3
2447.76
2603.86
2788.27
2992.92
3238.74
3511.05
3844.78
4213.01
4675.91
5184.34
5846.34
6575.48
7580.18
8720.69
10420.9
12438.6
15588.6
19257
24707.3
30136.7
37229.9
42965.2
50399.6
57254.3
57226.5
64937.5
55962.9
51063.8
47767
44290
38833.7
33395.9
27801.9
23182.1
18898.4
15634.5
12906
10962.2
9373.86
8207.5
7215.7
6460.18
5822.49
5343.29
4947.18
4647.98
4395.66
4194.53
4013.99
3854.08
3696.35
3538.93
3373.55
3200.25
3020.95
2838.67
2662.39
2494.18
2344.63
2209.82
2098.82
1999.99
1922.92
1849.73
1795.13
1735.57
1694.26
1640.61
1606.93
1556.31
1528.23
1471.37
384.525
394.068
408.087
432.769
479.562
563.149
695.26
875.272
1087.8
1309.77
1521.83
1714.51
1883.25
2019.94
2107.25
2128.48
2082.79
1997.31
1911.46
1856.84
1842.4
1865.3
1915.62
1988.67
2077.63
2184.25
2304.24
2444.66
2600.67
2784.95
2989.41
3234.99
3507.01
3840.35
4208.13
4670.39
5178.06
5838.99
6566.75
7569.52
8707.67
10405.1
12420.2
15568.7
19237.5
24692.1
30126.1
37228
42963.5
50429.8
57337.1
57449.6
65577.3
56964.6
52189.2
48876
45326.2
39732
34093.5
28296.8
23499.6
19085.6
15734.7
12956.4
10986.7
9386.28
8214.26
7219.72
6462.5
5823.75
5343.82
4947.3
4647.91
4395.57
4194.5
4014.13
3854.43
3696.92
3539.68
3374.38
3201.04
3021.58
2839.04
2662.46
2493.97
2344.2
2209.3
2098.31
1999.62
1922.78
1849.89
1795.66
1736.5
1695.7
1642.56
1609.64
1559.74
1532.83
1476.86
384.66
394.367
408.592
433.574
480.825
565.02
697.751
878.161
1090.67
1312.09
1523.16
1714.59
1882.14
2018.07
2105.32
2126.91
2081.44
1995.66
1909.14
1853.89
1839.07
1861.88
1912.25
1985.41
2074.48
2181.17
2301.17
2441.55
2597.48
2781.61
2985.9
3231.22
3502.95
3835.9
4203.22
4664.85
5171.75
5831.6
6558
7558.83
8694.6
10389.2
12401.7
15548.8
19217.9
24676.9
30115.6
37226.4
42962
50460.4
57420.5
57676
66231.6
57994.4
53344.3
50011.9
46388.2
40656.3
34815.6
28812.2
23832.2
19282.7
15840.9
13010.4
11013.3
9400.17
8222.09
7224.59
6465.54
5825.61
5344.85
4947.87
4648.21
4395.79
4194.75
4014.5
3854.97
3697.65
3540.56
3375.33
3201.94
3022.31
2839.5
2662.59
2493.81
2343.82
2208.82
2097.84
1999.29
1922.67
1850.07
1796.22
1737.45
1697.17
1644.54
1612.38
1563.22
1537.5
1482.43
384.797
394.672
409.105
434.39
482.104
566.908
700.257
881.06
1093.53
1314.41
1524.48
1714.65
1880.98
2016.16
2103.31
2125.27
2080.05
1994
1906.82
1850.93
1835.74
1858.45
1908.88
1982.15
2071.33
2178.07
2298.1
2438.43
2594.28
2778.26
2982.36
3227.44
3498.88
3831.44
4198.29
4659.29
5165.42
5824.2
6549.22
7548.1
8681.49
10373.2
12383.1
15528.7
19198.3
24661.7
30105.2
37225.1
42960.9
50491.3
57504.5
57905.7
66900.8
59053.1
54529.5
51174.8
47476.1
41606.9
35562.9
29349.1
24180.5
19490.4
15953.6
13068.2
11042.4
9415.66
8231.1
7230.41
6469.36
5828.14
5346.46
4948.93
4648.92
4396.36
4195.28
4015.12
3855.72
3698.56
3541.6
3376.42
3202.96
3023.13
2840.04
2662.81
2493.72
2343.5
2208.38
2097.41
1998.99
1922.58
1850.29
1796.79
1738.43
1698.66
1646.54
1615.16
1566.74
1542.22
1488.08
384.937
394.981
409.626
435.219
483.398
568.814
702.779
883.968
1096.39
1316.72
1525.79
1714.68
1879.79
2014.18
2101.24
2123.57
2078.62
1992.33
1904.5
1847.97
1832.41
1855.02
1905.51
1978.89
2068.17
2174.97
2295.01
2435.3
2591.06
2774.89
2978.82
3223.64
3494.79
3826.95
4193.35
4653.7
5159.08
5816.77
6540.41
7537.34
8668.34
10357.2
12364.5
15508.6
19178.6
24646.4
30094.9
37224
42960.1
50522.7
57589.1
58138.9
67585.4
60141.2
55745.1
52364.9
48590
42583.9
36335.8
29908
24545.4
19709.3
16073.2
13130.2
11074
9432.9
8241.41
7237.27
6474.04
5831.41
5348.68
4950.51
4650.09
4397.32
4196.15
4016.01
3856.7
3699.67
3542.81
3377.65
3204.11
3024.07
2840.68
2663.11
2493.71
2343.24
2208
2097.03
1998.72
1922.54
1850.53
1797.4
1739.43
1700.18
1648.58
1617.97
1570.29
1547
1493.81
385.078
395.294
410.155
436.058
484.708
570.738
705.317
886.885
1099.25
1319.02
1527.08
1714.69
1878.57
2012.16
2099.1
2121.81
2077.16
1990.64
1902.18
1845.01
1829.09
1851.58
1902.13
1975.61
2065
2171.86
2291.91
2432.16
2587.83
2771.51
2975.26
3219.83
3490.69
3822.45
4188.39
4648.11
5152.71
5809.31
6531.58
7526.56
8655.15