/*--------------------------------*- C++ -*----------------------------------*\
| =========                 |                                                 |
| \\      /  F ield         | OpenFOAM: The Open Source CFD Toolbox           |
|  \\    /   O peration     | Version:  2412                                  |
|   \\  /    A nd           | Website:  www.openfoam.com                      |
|    \\/     M anipulation  |                                                 |
\*---------------------------------------------------------------------------*/
FoamFile
{
    version     2.0;
    format      ascii;
    arch        "LSB;label=32;scalar=64";
    class       volScalarField;
    location    "0.9";
    object      k;
}
// * * * * * * * * * * * * * * * * * * * * * * * * * * * * * * * * * * * * * //

dimensions      [0 2 -2 0 0 0 0];

internalField   nonuniform List<scalar> 
12960
(
37.7807
38.2418
39.0537
40.5912
43.4013
47.9849
54.4387
62.1851
70.1808
77.4291
83.3887
87.9497
91.1264
92.9017
93.2774
92.54
91.2641
90.1818
89.7494
90.1049
91.0735
92.5362
94.3299
96.4816
98.8888
101.669
104.7
108.183
111.937
116.278
120.916
126.345
132.093
138.938
146.113
154.859
163.933
175.367
187.203
202.867
219.293
242.112
266.129
299.808
333.321
377.549
414.99
460.379
493.855
531.441
558.58
524.375
509.52
382.777
311.325
284.52
288.687
293.139
300.432
292.709
282.787
263.816
246.874
227.583
212.191
196.898
184.933
173.601
164.838
156.868
150.77
145.288
140.984
137.009
133.637
130.317
127.171
123.889
120.542
117.036
113.44
109.83
106.244
102.849
99.5975
96.6958
93.9577
91.6241
89.3523
87.4668
85.4713
83.8425
81.9177
80.3688
78.3539
76.7177
74.5064
72.6842
70.1214
37.7864
38.2548
39.0766
40.6291
43.461
48.0695
54.542
62.2897
70.264
77.471
83.3797
87.8935
91.0383
92.8014
93.1792
92.4474
91.1732
90.0893
89.6563
90.0151
90.9899
92.4594
94.259
96.4155
98.8261
101.608
104.64
108.124
111.877
116.217
120.853
126.279
132.024
138.865
146.035
154.773
163.84
175.262
187.085
202.734
219.143
241.949
265.959
299.647
333.181
377.448
414.912
460.348
493.846
531.652
559.084
525.437
511.748
385.568
314.07
286.871
290.419
294.311
301.167
293.174
283.067
263.975
246.947
227.603
212.179
196.869
184.893
173.556
164.788
156.818
150.72
145.242
140.943
136.975
133.61
130.297
127.158
123.881
120.537
117.031
113.436
109.823
106.234
102.837
99.5836
96.6819
93.9456
91.6154
89.3488
87.4699
85.4821
83.8627
81.9477
80.4118
78.4095
76.7907
74.5956
72.7954
70.2471
37.7921
38.268
39.0998
40.6674
43.5211
48.1546
54.6455
62.3943
70.347
77.5129
83.3707
87.8371
90.9498
92.7005
93.0804
92.3544
91.0822
89.9967
89.5633
89.9254
90.9063
92.3825
94.1882
96.3494
98.7634
101.548
104.581
108.064
111.817
116.155
120.79
126.213
131.956
138.792
145.957
154.688
163.746
175.158
186.967
202.6
218.993
241.786
265.79
299.487
333.041
377.348
414.834
460.319
493.838
531.866
559.592
526.51
514.006
388.407
316.869
289.272
292.191
295.512
301.92
293.65
283.353
264.138
247.023
227.623
212.166
196.84
184.854
173.511
164.739
156.767
150.671
145.196
140.903
136.941
133.583
130.278
127.145
123.873
120.532
117.028
113.431
109.816
106.225
102.825
99.5701
96.6682
93.9336
91.6069
89.3455
87.4732
85.4932
83.8833
81.9783
80.4553
78.4657
76.8646
74.6861
72.9082
70.3746
37.798
38.2814
39.1233
40.7062
43.5818
48.2402
54.7494
62.4991
70.4301
77.5547
83.3615
87.7804
90.8607
92.5988
92.9808
92.2608
90.9909
89.9039
89.47
89.8353
90.8224
92.3053
94.1171
96.283
98.7005
101.487
104.521
108.005
111.757
116.094
120.727
126.147
131.886
138.718
145.878
154.602
163.652
175.053
186.849
202.466
218.842
241.621
265.619
299.326
332.9
377.248
414.755
460.289
493.829
532.08
560.101
527.593
516.291
391.293
319.72
291.723
294.003
296.74
302.689
294.136
283.645
264.303
247.099
227.644
212.153
196.81
184.815
173.465
164.689
156.716
150.621
145.15
140.862
136.907
133.556
130.258
127.132
123.865
120.527
117.024
113.427
109.809
106.215
102.813
99.5564
96.6543
93.9216
91.5984
89.3422
87.4766
85.5043
83.904
82.0091
80.4992
78.5225
76.9392
74.7775
73.0223
70.5037
37.8039
38.295
39.1471
40.7453
43.643
48.3262
54.8536
62.604
70.5132
77.5964
83.3522
87.7233
90.7709
92.4961
92.8801
92.1664
90.899
89.8107
89.3764
89.7449
90.738
92.2277
94.0457
96.2163
98.6372
101.426
104.461
107.945
111.696
116.032
120.663
126.081
131.817
138.644
145.799
154.516
163.557
174.947
186.73
202.331
218.691
241.456
265.446
299.164
332.759
377.146
414.676
460.258
493.818
532.293
560.612
528.683
518.602
394.227
322.626
294.226
295.856
297.996
303.475
294.631
283.943
264.471
247.176
227.664
212.14
196.779
184.774
173.419
164.639
156.664
150.57
145.103
140.82
136.872
133.529
130.238
127.118
123.857
120.522
117.021
113.422
109.803
106.206
102.8
99.5426
96.6403
93.9094
91.5897
89.3387
87.4799
85.5155
83.9248
82.04
80.5435
78.5797
77.0145
74.8698
73.1377
70.6345
37.8099
38.3087
39.1712
40.7849
43.7047
48.4129
54.9583
62.7092
70.5963
77.6381
83.3427
87.6659
90.6804
92.3923
92.7784
92.0712
90.8064
89.717
89.2823
89.654
90.6533
92.1498
93.9738
96.1491
98.5735
101.364
104.401
107.884
111.635
115.97
120.599
126.014
131.747
138.569
145.719
154.429
163.462
174.84
186.61
202.195
218.538
241.289
265.273
299
332.615
377.044
414.595
460.225
493.805
532.505
561.123
529.782
520.941
397.209
325.586
296.781
297.752
299.283
304.278
295.137
284.245
264.642
247.254
227.683
212.125
196.748
184.733
173.372
164.588
156.612
150.519
145.056
140.778
136.837
133.501
130.218
127.105
123.849
120.518
117.017
113.418
109.796
106.196
102.788
99.5285
96.6261
93.8969
91.5808
89.3351
87.4831
85.5266
83.9457
82.0711
80.5879
78.6373
77.0905
74.963
73.2544
70.7667
37.8159
38.3227
39.1956
40.825
43.767
48.5001
55.0634
62.8145
70.6794
77.6797
83.3332
87.6081
90.5891
92.2876
92.6757
91.975
90.7133
89.6228
89.1878
89.5627
90.5681
92.0714
93.9015
96.0816
98.5094
101.302
104.34
107.824
111.574
115.907
120.534
125.946
131.676
138.494
145.638
154.341
163.366
174.733
186.489
202.057
218.383
241.121
265.098
298.834
332.471
376.94
414.513
460.191
493.79
532.716
561.634
530.889
523.308
400.24
328.603
299.389
299.691
300.6
305.1
295.654
284.553
264.815
247.332
227.702
212.11
196.715
184.691
173.324
164.535
156.559
150.467
145.008
140.736
136.801
133.473
130.197
127.091
123.84
120.513
117.013
113.413
109.789
106.186
102.775
99.5141
96.6115
93.8842
91.5716
89.3313
87.4862
85.5377
83.9666
82.1023
80.6327
78.6952
77.167
75.0571
73.3723
70.9005
37.8221
38.3368
39.2204
40.8655
43.8298
48.5879
55.1689
62.9201
70.7626
77.7213
83.3234
87.55
90.4972
92.1818
92.5717
91.8779
90.6194
89.5281
89.0928
89.471
90.4825
91.9926
93.8288
96.0136
98.4449
101.24
104.278
107.762
111.512
115.843
120.469
125.878
131.605
138.418
145.557
154.253
163.269
174.625
186.367
201.919
218.228
240.951
264.921
298.668
332.324
376.834
414.43
460.156
493.773
532.925
562.145
532.003
525.701
403.321
331.677
302.052
301.676
301.949
305.941
296.182
284.868
264.99
247.41
227.721
212.094
196.681
184.648
173.275
164.482
156.505
150.414
144.959
140.692
136.765
133.444
130.176
127.077
123.832
120.507
117.009
113.409
109.782
106.176
102.762
99.4996
96.5967
93.8712
91.5622
89.3274
87.4892
85.5487
83.9875
82.1336
80.6776
78.7536
77.2442
75.152
73.4915
71.0359
37.8283
38.3512
39.2454
40.9064
43.8932
48.6762
55.2749
63.0259
70.8459
77.7629
83.3136
87.4915
90.4045
92.075
92.4667
91.7798
90.5249
89.4329
88.9974
89.3788
90.3964
91.9133
93.7557
95.9453
98.38
101.177
104.217
107.701
111.45
115.78
120.403
125.81
131.533
138.342
145.475
154.164
163.171
174.516
186.245
201.78
218.071
240.781
264.743
298.499
332.177
376.727
414.345
460.119
493.754
533.133
562.657
533.125
528.123
406.454
334.81
304.771
303.706
303.332
306.803
296.723
285.188
265.169
247.49
227.739
212.076
196.647
184.603
173.225
164.429
156.45
150.361
144.91
140.649
136.729
133.415
130.155
127.063
123.823
120.502
117.005
113.404
109.775
106.166
102.749
99.4847
96.5817
93.858
91.5526
89.3232
87.492
85.5597
84.0084
82.165
80.7228
78.8123
77.322
75.2477
73.612
71.1729
37.8347
38.3657
39.2708
40.9478
43.9572
48.765
55.3812
63.1319
70.9291
77.8043
83.3035
87.4326
90.3111
91.9671
92.3605
91.6808
90.4297
89.3372
88.9015
89.2862
90.31
91.8337
93.6822
95.8765
98.3147
101.113
104.155
107.638
111.387
115.715
120.337
125.741
131.46
138.265
145.393
154.075
163.073
174.406
186.121
201.64
217.914
240.608
264.563
298.329
332.028
376.619
414.259
460.081
493.733
533.34
563.168
534.256
530.574
409.64
338.003
307.547
305.784
304.749
307.685
297.276
285.516
265.351
247.57
227.757
212.058
196.611
184.558
173.175
164.374
156.394
150.307
144.86
140.604
136.691
133.386
130.134
127.048
123.814
120.497
117.001
113.399
109.768
106.156
102.736
99.4696
96.5663
93.8445
91.5428
89.3188
87.4947
85.5706
84.0293
82.1966
80.7682
78.8715
77.4004
75.3443
73.7337
71.3115
37.8411
38.3805
39.2965
40.9897
44.0217
48.8545
55.4879
63.238
71.0123
77.8457
83.2934
87.3734
90.217
91.8581
92.2531
91.5808
90.3338
89.241
88.8052
89.1931
90.2231
91.7536
93.6083
95.8073
98.2489
101.05
104.092
107.576
111.324
115.651
120.27
125.671
131.387
138.187
145.31
153.984
162.974
174.296
185.997
201.499
217.755
240.435
264.382
298.158
331.877
376.51
414.172
460.042
493.709
533.545
563.679
535.394
533.054
412.881
341.259
310.382
307.912
306.203
308.59
297.843
285.85
265.536
247.651
227.775
212.039
196.575
184.512
173.123
164.319
156.338
150.252
144.809
140.56
136.654
133.356
130.112
127.034
123.805
120.491
116.997
113.394
109.76
106.145
102.722
99.4543
96.5508
93.8308
91.5328
89.3143
87.4972
85.5814
84.0503
82.2282
80.8139
78.931
77.4794
75.4418
73.8567
71.4516
37.8476
38.3954
39.3225
41.032
44.0868
48.9444
55.5951
63.3443
71.0956
77.887
83.283
87.3138
90.1221
91.748
92.1445
91.4797
90.2372
89.1443
88.7085
89.0997
90.1357
91.6731
93.534
95.7378
98.1828
100.986
104.029
107.513
111.26
115.586
120.203
125.601
131.314
138.109
145.227
153.893
162.875
174.184
185.871
201.356
217.595
240.26
264.2
297.985
331.725
376.4
414.083
460.001
493.683
533.749
564.19
536.541
535.563
416.177
344.577
313.278
310.09
307.694
309.518
298.424
286.193
265.725
247.734
227.792
212.02
196.538
184.465
173.071
164.263
156.281
150.196
144.758
140.514
136.616
133.326
130.09
127.019
123.795
120.485
116.992
113.389
109.752
106.134
102.709
99.4388
96.535
93.8168
91.5225
89.3096
87.4997
85.5922
84.0713
82.26
80.8599
78.9909
77.5591
75.5402
73.9811
71.5935
37.8542
38.4106
39.3489
41.0748
44.1524
49.035
55.7026
63.4508
71.1788
77.9282
83.2725
87.2538
90.0265
91.6368
92.0347
91.3777
90.1398
89.0472
88.6114
89.0058
90.048
91.5922
93.4593
95.6678
98.1163
100.921
103.966
107.449
111.196
115.52
120.136
125.531
131.24
138.03
145.142
153.802
162.774
174.072
185.745
201.213
217.434
240.084
264.016
297.811
331.572
376.288
413.993
459.958
493.656
533.952
564.701
537.696
538.102
419.53
347.961
316.234
312.32
309.224
310.471
299.02
286.544
265.919
247.818
227.809
212
196.499
184.418
173.018
164.206
156.223
150.14
144.706
140.469
136.578
133.296
130.067
127.003
123.786
120.48
116.988
113.383
109.745
106.123
102.695
99.423
96.5189
93.8026
91.512
89.3048
87.502
85.6029
84.0923
82.2919
80.906
79.0512
77.6394
75.6395
74.1068
71.737
37.861
38.4259
39.3756
41.1181
44.2187
49.1261
55.8105
63.5574
71.262
77.9693
83.2618
87.1934
89.9301
91.5246
91.9237
91.2746
90.0418
88.9495
88.5138
88.9115
89.9598
91.5109
93.3842
95.5974
98.0494
100.856
103.902
107.386
111.132
115.454
120.068
125.46
131.166
137.951
145.058
153.71
162.673
173.96
185.618
201.069
217.271
239.906
263.831
297.635
331.417
376.175
413.902
459.915
493.626
534.153
565.212
538.86
540.672
422.941
351.41
319.253
314.604
310.794
311.449
299.632
286.903
266.116
247.903
227.827
211.979
196.461
184.369
172.964
164.148
156.165
150.083
144.654
140.422
136.539
133.265
130.045
126.988
123.776
120.474
116.983
113.378
109.737
106.112
102.681
99.407
96.5026
93.7882
91.5013
89.2998
87.5042
85.6136
84.1133
82.3239
80.9525
79.1119
77.7203
75.7396
74.2338
71.8822
37.8678
38.4415
39.4027
41.1618
44.2855
49.2177
55.9188
63.6642
71.3451
78.0102
83.2509
87.1327
89.833
91.4111
91.8114
91.1705
89.943
88.8513
88.4159
88.8168
89.8713
91.4292
93.3087
95.5267
97.9821
100.791
103.838
107.321
111.067
115.387
119.999
125.388
131.091
137.871
144.973
153.617
162.572
173.846
185.491
200.924
217.108
239.728
263.644
297.458
331.261
376.06
413.81
459.87
493.594
534.353
565.723
540.032
543.274
426.412
354.927
322.337
316.942
312.406
312.454
300.261
287.272
266.319
247.99
227.844
211.957
196.421
184.32
172.91
164.09
156.106
150.026
144.601
140.375
136.5
133.234
130.022
126.973
123.767
120.468
116.979
113.373
109.729
106.101
102.666
99.3908
96.4861
93.7736
91.4905
89.2946
87.5064
85.6243
84.1344
82.3561
80.9992
79.1729
77.8019
75.8406
74.3621
72.0291
37.8747
38.4573
39.4301
41.2061
44.3529
49.3099
56.0275
63.7711
71.4282
78.051
83.2398
87.0716
89.7352
91.2966
91.6979
91.0652
89.8435
88.7526
88.3175
88.7217
89.7824
91.3471
93.2328
95.4556
97.9144
100.725
103.773
107.257
111.002
115.32
119.93
125.316
131.015
137.791
144.887
153.524
162.47
173.732
185.362
200.778
216.944
239.548
263.456
297.279
331.103
375.945
413.716
459.824
493.56
534.552
566.234
541.213
545.907
429.944
358.512
325.485
319.337
314.061
313.487
300.907
287.65
266.526
248.079
227.862
211.935
196.381
184.27
172.855
164.031
156.046
149.968
144.548
140.328
136.46
133.202
129.999
126.957
123.757
120.462
116.974
113.367
109.721
106.09
102.652
99.3744
96.4693
93.7587
91.4794
89.2892
87.5084
85.6349
84.1555
82.3884
81.0461
79.2344
77.8841
75.9426
74.4918
72.1777
37.8817
38.4733
39.4579
41.2508
44.4208
49.4026
56.1365
63.8781
71.5112
78.0917
83.2285
87.01
89.6365
91.1809
91.5831
90.9589
89.7432
88.6534
88.2187
88.6262
89.693
91.2647
93.1565
95.3841
97.8464
100.659
103.708
107.192
110.936
115.253
119.861
125.244
130.939
137.71
144.8
153.43
162.367
173.617
185.233
200.631
216.778
239.367
263.266
297.1
330.944
375.828
413.621
459.776
493.524
534.749
566.744
542.403
548.573
433.539
362.168
328.699
321.789
315.761
314.55
301.572
288.039
266.739
248.17
227.88
211.913
196.34
184.22
172.799
163.972
155.986
149.91
144.494
140.281
136.42
133.171
129.975
126.941
123.747
120.456
116.97
113.362
109.713
106.079
102.637
99.3578
96.4524
93.7436
91.4681
89.2837
87.5103
85.6455
84.1767
82.4208
81.0933
79.2963
77.9669
76.0454
74.6228
72.328
37.8888
38.4896
39.486
41.2961
44.4894
49.4959
56.2459
63.9852
71.5941
78.1322
83.217
86.9481
89.5372
91.0641
91.467
90.8515
89.6422
88.5538
88.1196
88.5304
89.6033
91.1818
93.0799
95.3122
97.7779
100.593
103.643
107.126
110.87
115.185
119.791
125.171
130.863
137.629
144.714
153.335
162.263
173.502
185.103
200.483
216.611
239.184
263.075
296.918
330.784
375.71
413.525
459.728
493.486
534.945
567.255
543.602
551.272
437.198
365.896
331.981
324.299
317.507
315.643
302.257
288.44
266.958
248.264
227.899
211.891
196.299
184.169
172.743
163.912
155.926
149.851
144.44
140.233
136.38
133.139
129.952
126.925
123.737
120.449
116.965
113.356
109.705
106.067
102.622
99.341
96.4352
93.7283
91.4567
89.2781
87.5121
85.656
84.1979
82.4533
81.1407
79.3586
78.0504
76.1491
74.7552
72.4801
37.896
38.5061
39.5145
41.3418
44.5585
49.5897
56.3556
64.0924
71.677
78.1726
83.2053
86.8858
89.437
90.9461
91.3496
90.743
89.5404
88.4536
88.02
88.4342
89.5132
91.0986
93.0029
95.24
97.7091
100.526
103.577
107.06
110.803
115.117
119.72
125.097
130.786
137.547
144.626
153.24
162.159
173.385
184.972
200.334
216.444
239
262.883
296.735
330.622
375.591
413.428
459.678
493.446
535.139
567.765
544.809
554.005
440.922
369.697
335.331
326.87
319.3
316.767
302.962
288.852
267.184
248.36
227.919
211.868
196.257
184.118
172.687
163.852
155.865
149.792
144.385
140.184
136.339
133.106
129.928
126.909
123.727
120.443
116.96
113.351
109.696
106.055
102.608
99.324
96.4179
93.7129
91.445
89.2723
87.5138
85.6665
84.2191
82.486
81.1884
79.4213
78.1346
76.2537
74.889
72.6339
37.9033
38.5228
39.5434
41.3881
44.6283
49.6841
56.4657
64.1997
71.7597
78.2128
83.1934
86.8231
89.3361
90.8269
91.2308
90.6333
89.4378
88.3529
87.9201
88.3376
89.4227
91.015
92.9255
95.1674
97.64
100.459
103.511
106.994
110.736
115.048
119.65
125.023
130.709
137.465
144.538
153.145
162.054
173.268
184.84
200.185
216.275
238.816
262.69
296.551
330.459
375.47
413.33
459.627
493.405
535.333
568.275
546.027
556.772
444.713
373.571
338.751
329.502
321.143
317.926
303.689
289.276
267.416
248.459
227.939
211.845
196.215
184.066
172.63
163.791
155.803
149.732
144.33
140.136
136.298
133.074
129.904
126.892
123.717
120.437
116.955
113.345
109.688
106.044
102.592
99.3069
96.4003
93.6972
91.4332
89.2664
87.5154
85.677
84.2404
82.5188
81.2364
79.4843
78.2193
76.3592
75.0242
72.7896
37.9107
38.5397
39.5727
41.4348
44.6986
49.7791
56.5762
64.3072
71.8423
78.2528
83.1812
86.76
89.2344
90.7066
91.1107
90.5224
89.3344
88.2517
87.8197
88.2406
89.3319
90.931
92.8477
95.0944
97.5704
100.392
103.444
106.927
110.669
114.979
119.578
124.949
130.631
137.382
144.45
153.048
161.949
173.151
184.708
200.034
216.105
238.63
262.495
296.366
330.295
375.349
413.231
459.575
493.361
535.524
568.785
547.253
559.574
448.573
377.522
342.241
332.196
323.036
319.118
304.438
289.714
267.655
248.561
227.961
211.822
196.172
184.013
172.572
163.73
155.741
149.672
144.275
140.087
136.257
133.041
129.88
126.876
123.706
120.431
116.95
113.339
109.68
106.032
102.577
99.2896
96.3826
93.6813
91.4212
89.2604
87.517
85.6875
84.2617
82.5517
81.2846
79.5478
78.3047
76.4656
75.1607
72.947
37.9182
38.5569
39.6023
41.4821
44.7696
49.8746
56.687
64.4146
71.9248
78.2925
83.1688
86.6965
89.132
90.5851
90.9892
90.4104
89.2302
88.15
87.719
88.1433
89.2407
90.8467
92.7696
95.0211
97.5005
100.324
103.377
106.86
110.601
114.91
119.507
124.874
130.552
137.299
144.361
152.952
161.843
173.033
184.575
199.883
215.934
238.442
262.299
296.179
330.129
375.226
413.131
459.521
493.315
535.715
569.295
548.489
562.412
452.503
381.549
345.802
334.954
324.98
320.347
305.211
290.165
267.903
248.667
227.984
211.8
196.129
183.961
172.515
163.669
155.679
149.612
144.219
140.037
136.216
133.008
129.855
126.859
123.696
120.424
116.946
113.334
109.671
106.02
102.562
99.2721
96.3647
93.6653
91.4091
89.2542
87.5184
85.6979
84.2831
82.5848
81.333
79.6116
78.3908
76.5729
75.2986
73.1061
37.9258
38.5743
39.6323
41.53
44.8412
49.9706
56.7982
64.5222
72.0072
78.3321
83.1562
86.6325
89.0288
90.4623
90.8664
90.2971
89.1252
88.0478
87.6179
88.0456
89.1491
90.762
92.6912
94.9474
97.4303
100.255
103.31
106.793
110.533
114.84
119.435
124.799
130.473
137.215
144.271
152.854
161.736
172.914
184.441
199.731
215.763
238.254
262.101
295.991
329.962
375.102
413.029
459.467
493.268
535.904
569.805
549.735
565.287
456.504
385.654
349.435
337.776
326.978
321.613
306.009
290.632
268.158
248.777
228.008
211.777
196.087
183.908
172.457
163.608
155.617
149.551
144.163
139.988
136.174
132.975
129.831
126.842
123.685
120.418
116.941
113.328
109.663
106.008
102.547
99.2545
96.3466
93.6491
91.3968
89.2479
87.5197
85.7083
84.3045
82.618
81.3817
79.6758
78.4774
76.681
75.4379
73.2671
37.9335
38.592
39.6627
41.5783
44.9134
50.0672
56.9097
64.6298
72.0895
78.3715
83.1433
86.5682
88.9248
90.3384
90.7421
90.1826
89.0193
87.9451
87.5165
87.9476
89.0572
90.677
92.6124
94.8734
97.3597
100.187
103.242
106.725
110.464
114.769
119.362
124.723
130.394
137.131
144.181
152.756
161.629
172.794
184.306
199.578
215.59
238.064
261.903
295.801
329.793
374.977
412.927
459.412
493.219
536.092
570.314
550.991
568.199
460.578
389.838
353.141
340.663
329.03
322.918
306.833
291.113
268.422
248.89
228.034
211.755
196.044
183.855
172.399
163.546
155.555
149.49
144.107
139.938
136.132
132.942
129.806
126.826
123.675
120.411
116.936
113.322
109.654
105.996
102.531
99.2368
96.3283
93.6327
91.3843
89.2414
87.521
85.7187
84.3259
82.6513
81.4307
79.7404
78.5647
76.7901
75.5786
73.4299
37.9414
38.6099
39.6935
41.6272
44.9862
50.1644
57.0215
64.7375
72.1716
78.4106
83.1301
86.5034
88.82
90.2133
90.6164
90.0669
88.9126
87.8419
87.4147
87.8492
88.9649
90.5916
92.5332
94.799
97.2887
100.118
103.174
106.657
110.395
114.699
119.289
124.647
130.314
137.046
144.091
152.658
161.522
172.674
184.171
199.424
215.416
237.873
261.702
295.61
329.623
374.85
412.823
459.355
493.168
536.279
570.823
552.257
571.149
464.726
394.102
356.92
343.617
331.138
324.263
307.684
291.612
268.696
249.008
228.062
211.734
196.001
183.802
172.341
163.484
155.492
149.429
144.051
139.888
136.09
132.908
129.781
126.809
123.665
120.405
116.931
113.316
109.646
105.984
102.515
99.2189
96.3099
93.6162
91.3717
89.2349
87.5222
85.729
84.3474
82.6847
81.4798
79.8054
78.6526
76.9
75.7206
73.5945
37.9494
38.6281
39.7247
41.6766
45.0596
50.2622
57.1337
64.8453
72.2535
78.4495
83.1166
86.4382
88.7144
90.087
90.4893
89.9499
88.805
87.7381
87.3125
87.7505
88.8723
90.5058
92.4537
94.7243
97.2174
100.048
103.106
106.588
110.326
114.627
119.216
124.57
130.234
136.961
143.999
152.559
161.413
172.553
184.035
199.269
215.241
237.681
261.501
295.418
329.452
374.723
412.718
459.298
493.115
536.464
571.333
553.534
574.138
468.949
398.447
360.774
346.637
333.303
325.649
308.564
292.128
268.98
249.132
228.091
211.713
195.958
183.749
172.282
163.422
155.429
149.368
143.994
139.838
136.048
132.874
129.756
126.792
123.654
120.399
116.926
113.311
109.638
105.972
102.5
99.2009
96.2913
93.5995
91.3589
89.2282
87.5233
85.7393
84.3688
82.7183
81.5292
79.8708
78.7412
77.0108
75.8641
73.761
37.9574
38.6465
39.7564
41.7266
45.1337
50.3605
57.2463
64.9531
72.3353
78.4881
83.1029
86.3726
88.6081
89.9594
90.3608
89.8317
88.6966
87.6339
87.2099
87.6515
88.7794
90.4198
92.3739
94.6492
97.1458
99.9787
103.037
106.519
110.256
114.556
119.142
124.493
130.154
136.875
143.908
152.459
161.304
172.432
183.898
199.113
215.065
237.488
261.298
295.224
329.28
374.594
412.613
459.239
493.061
536.649
571.842
554.821
577.167
473.25
402.874
364.702
349.725
335.525
327.079
309.473
292.662
269.274
249.26
228.124
211.694
195.916
183.696
172.224
163.36
155.366
149.307
143.938
139.788
136.006
132.84
129.731
126.775
123.643
120.392
116.922
113.305
109.629
105.96
102.484
99.1828
96.2727
93.5826
91.346
89.2214
87.5243
85.7496
84.3904
82.7519
81.5788
79.9365
78.8303
77.1224
76.0089
73.9292
37.9656
38.6652
39.7884
41.7772
45.2084
50.4594
57.3591
65.0609
72.4168
78.5265
83.0888
86.3066
88.501
89.8307
90.2308
89.7121
88.5872
87.5291
87.107
87.5521
88.6861
90.3334
92.2937
94.5739
97.0738
99.9086
102.968
106.45
110.186
114.484
119.068
124.416
130.072
136.789
143.816
152.359
161.195
172.31
183.761
198.957
214.888
237.294
261.094
295.029
329.106
374.464
412.506
459.18
493.004
536.832
572.351
556.118
580.236
477.63
407.384
368.704
352.881
337.807
328.552
310.414
293.215
269.58
249.394
228.159
211.675
195.875
183.643
172.166
163.298
155.304
149.246
143.881
139.737
135.963
132.807
129.706
126.757
123.633
120.386
116.917
113.3
109.621
105.948
102.468
99.1647
96.2538
93.5656
91.3329
89.2144
87.5252
85.7598
84.4119
82.7857
81.6287
80.0025
78.92
77.2349
76.155
74.0993
37.9739
38.6841
39.8209
41.8283
45.2838
50.5588
57.4723
65.1688
72.4982
78.5646
83.0745
86.2401
88.393
89.7006
90.0993
89.5912
88.477
87.4238
87.0038
87.4524
88.5925
90.2466
92.2132
94.4981
97.0014
99.8382
102.898
106.38
110.115
114.411
118.993
124.338
129.991
136.702
143.723
152.259
161.085
172.187
183.623
198.8
214.711
237.099
260.889
294.832
328.93
374.333
412.398
459.119
492.947
537.013
572.859
557.427
583.346
482.089
411.977
372.782
356.105
340.148
330.072
311.386
293.788
269.898
249.535
228.197
211.658
195.834
183.591
172.109
163.237
155.241
149.184
143.824
139.687
135.921
132.773
129.681
126.74
123.622
120.38
116.912
113.294
109.612
105.935
102.452
99.1464
96.2349
93.5485
91.3197
89.2074
87.526
85.7701
84.4335
82.8196
81.6787
80.0689
79.0102
77.3482
76.3026
74.2712
37.9824
38.7034
39.8537
41.88
45.3598
50.6588
57.5859
65.2767
72.5794
78.6024
83.0598
86.1731
88.2843
89.5694
89.9663
89.469
88.3658
87.3179
86.9002
87.3524
88.4986
90.1596
92.1324
94.422
96.9288
99.7674
102.829
106.31
110.044
114.339
118.918
124.26
129.909
136.615
143.63
152.158
160.974
172.064
183.484
198.642
214.532
236.902
260.682
294.634
328.753
374.2
412.289
459.058
492.887
537.194
573.368
558.746
586.498
486.63
416.655
376.935
359.398
342.551
331.638
312.393
294.383
270.229
249.682
228.238
211.642
195.793
183.539
172.052
163.175
155.179
149.123
143.767
139.636
135.878
132.738
129.656
126.723
123.612
120.373
116.907
113.289
109.604
105.923
102.436
99.128
96.2158
93.5312
91.3064
89.2002
87.5268
85.7802
84.4551
82.8535
81.7289
80.1356
79.1011
77.4623
76.4514
74.4448
37.9909
38.7228
39.8871
41.9323
45.4365
50.7595
57.6998
65.3847
72.6605
78.6399
83.0449
86.1057
88.1749
89.4369
89.8318
89.3454
88.2537
87.2115
86.7963
87.2522
88.4044
90.0722
92.0512
94.3457
96.8558
99.6963
102.758
106.24
109.973
114.265
118.843
124.181
129.826
136.527
143.537
152.056
160.863
171.94
183.344
198.483
214.352
236.704
260.474
294.435
328.575
374.067
412.179
458.995
492.826
537.373
573.876
560.077
589.694
491.253
421.418
381.163
362.76
345.015
333.253
313.434
295
270.574
249.836
228.283
211.627
195.754
183.488
171.995
163.114
155.117
149.062
143.711
139.586
135.835
132.704
129.63
126.706
123.601
120.367
116.903
113.283
109.596
105.911
102.42
99.1096
96.1966
93.5139
91.2929
89.193
87.5275
85.7904
84.4767
82.8876
81.7794
80.2027
79.1925
77.5772
76.6016
74.6203
37.9996
38.7426
39.9208
41.9852
45.5138
50.8607
57.814
65.4926
72.7413
78.6771
83.0296
86.0379
88.0646
89.3032
89.6958
89.2204
88.1407
87.1046
86.692
87.1516
88.3098
89.9844
91.9697
94.2689
96.7824
99.6249
102.688
106.169
109.901
114.192
118.767
124.102
129.744
136.439
143.443
151.954
160.751
171.815
183.204
198.323
214.171
236.505
260.265
294.234
328.395
373.931
412.068
458.932
492.764
537.551
574.385
561.42
592.933
495.961
426.266
385.466
366.192
347.541
334.917
314.512
295.641
270.933
249.998
228.332
211.615
195.716
183.437
171.939
163.054
155.055
149.002
143.654
139.535
135.793
132.67
129.605
126.689
123.59
120.361
116.898
113.278
109.587
105.899
102.404
99.0911
96.1774
93.4964
91.2793
89.1856
87.5281
85.8005
84.4983
82.9217
81.83
80.27
79.2844
77.6929
76.7532
74.7976
38.0084
38.7627
39.9551
42.0387
45.5918
50.9625
57.9285
65.6006
72.8218
78.714
83.0139
85.9696
87.9535
89.1682
89.5583
89.094
88.0267
86.9971
86.5874
87.0507
88.215
89.8964
91.8879
94.1919
96.7087
99.5531
102.617
106.098
109.829
114.118
118.691
124.022
129.66
136.35
143.348
151.851
160.639
171.69
183.063
198.162
213.99
236.305
260.054
294.032
328.214
373.795
411.956
458.868
492.7
537.728
574.893
562.774
596.216
500.753
431.199
389.845
369.692
350.13
336.632
315.627
296.306
271.308
250.168
228.385
211.605
195.679
183.388
171.883
162.994
154.994
148.941
143.598
139.485
135.75
132.636
129.58
126.671
123.58
120.355
116.894
113.273
109.579
105.887
102.388
99.0725
96.158
93.4788
91.2656
89.1782
87.5286
85.8106
84.52
82.956
81.8808
80.3377
79.3769
77.8093
76.906
74.9767
38.0173
38.783
39.9897
42.0927
45.6705
51.0649
58.0435
65.7086
72.9022
78.7506
82.998
85.9009
87.8416
89.0319
89.4192
88.9662
87.9117
86.8891
86.4824
86.9495
88.1199
89.8081
91.8058
94.1145
96.6347
99.481
102.546
106.026
109.757
114.043
118.614
123.942
129.576
136.261
143.253
151.748
160.526
171.564
182.922
198.001
213.807
236.104
259.842
293.828
328.031
373.657
411.843
458.803
492.634
537.904
575.401
564.14
599.545
505.631
436.219
394.298
373.261
352.783
338.399
316.781
296.998
271.699
250.348
228.444
211.597
195.643
183.339
171.829
162.935
154.933
148.881
143.542
139.435
135.708
132.602
129.554
126.654
123.569
120.349
116.89
113.267
109.571
105.875
102.372
99.054
96.1386
93.4611
91.2518
89.1706
87.529
85.8206
84.5416
82.9903
81.9317
80.4056
79.4698
77.9265
77.0601
75.1575
38.0264
38.8037
40.0249
42.1475
45.7499
51.1679
58.1587
65.8167
72.9823
78.7869
82.9816
85.8316
87.729
88.8944
89.2786
88.8369
87.7957
86.7805
86.3772
86.8481
88.0244
89.7194
91.7234
94.0368
96.5604
99.4085
102.474
105.954
109.684
113.969
118.537
123.862
129.492
136.172
143.158
151.644
160.413
171.438
182.779
197.839
213.623
235.901
259.629
293.623
327.847
373.518
411.729
458.737
492.567
538.078
575.909
565.518
602.92
510.597
441.325
398.825
376.899
355.499
340.219
317.976
297.716
272.108
250.537
228.507
211.593
195.61
183.291
171.775
162.876
154.873
148.822
143.487
139.385
135.665
132.568
129.529
126.637
123.559
120.343
116.885
113.262
109.563
105.863
102.356
99.0354
96.1191
93.4433
91.2379
89.1629
87.5293
85.8306
84.5632
83.0246
81.9828
80.4738
79.5633
78.0444
77.2154
75.3401
38.0356
38.8246
40.0605
42.2028
45.83
51.2715
58.2743
65.9247
73.0622
78.8228
82.9649
85.7619
87.6155
88.7556
89.1363
88.7061
87.6787
86.6714
86.2716
86.7463
87.9287
89.6305
91.6407
93.9588
96.4857
99.3357
102.402
105.882
109.611
113.893
118.46
123.781
129.407
136.082
143.062
151.54
160.299
171.311
182.636
197.676
213.439
235.698
259.414
293.416
327.661
373.377
411.614
458.67
492.499
538.251
576.417
566.909
606.343
515.651
446.516
403.426
380.605
358.279
342.093
319.213
298.463
272.535
250.737
228.577
211.591
195.578
183.245
171.722
162.819
154.813
148.763
143.431
139.335
135.623
132.533
129.504
126.62
123.549
120.337
116.881
113.257
109.555
105.851
102.341
99.0168
96.0996
93.4254
91.2239
89.1552
87.5295
85.8405
84.5848
83.059
82.034
80.5422
79.6572
78.1629
77.372
75.5244
38.0449
38.8458
40.0966
42.2587
45.9109
51.3757
58.3903
66.0328
73.1419
78.8584
82.9478
85.6918
87.5013
88.6156
88.9925
88.5739
87.5606
86.5617
86.1656
86.6444
87.8327
89.5413
91.5576
93.8805
96.4108
99.2625
102.33
105.809
109.537
113.818
118.382
123.7
129.322
135.991
142.965
151.435
160.185
171.183
182.493
197.512
213.253
235.493
259.198
293.207
327.473
373.235
411.497
458.603
492.429
538.423
576.925
568.312
609.814
520.795
451.794
408.1
384.379
361.123
344.022
320.493
299.24
272.981
250.948
228.653
211.593
195.548
183.201
171.671
162.762
154.755
148.704
143.377
139.286
135.581
132.499
129.478
126.603
123.538
120.331
116.877
113.253
109.547
105.839
102.325
98.9982
96.08
93.4075
91.2097
89.1473
87.5297
85.8504
84.6064
83.0934
82.0854
80.6108
79.7515
78.2822
77.5298
75.7104
38.0544
38.8674
40.1331
42.3154
45.9924
51.4806
58.5066
66.1409
73.2213
78.8936
82.9304
85.6211
87.3862
88.4743
88.8471
88.4402
87.4415
86.4514
86.0594
86.5421
87.7364
89.4517
91.4743
93.8019
96.3355
99.1891