/*--------------------------------*- C++ -*----------------------------------*\
| =========                 |                                                 |
| \\      /  F ield         | OpenFOAM: The Open Source CFD Toolbox           |
|  \\    /   O peration     | Version:  2412                                  |
|   \\  /    A nd           | Website:  www.openfoam.com                      |
|    \\/     M anipulation  |                                                 |
\*---------------------------------------------------------------------------*/
FoamFile
{
    version     2.0;
    format      ascii;
    arch        "LSB;label=32;scalar=64";
    class       volScalarField;
    location    "0.9";
    object      nut;
}
// * * * * * * * * * * * * * * * * * * * * * * * * * * * * * * * * * * * * * //

dimensions      [0 2 -1 0 0 0 0];

internalField   nonuniform List<scalar> 
12960
(
0.337157
0.340687
0.347504
0.36028
0.380743
0.406211
0.429247
0.442957
0.445263
0.437996
0.424677
0.408692
0.392472
0.377609
0.365361
0.357163
0.35432
0.35728
0.364695
0.374073
0.382991
0.390411
0.396152
0.400774
0.404566
0.408097
0.411333
0.414728
0.417973
0.42158
0.425001
0.428955
0.432608
0.437021
0.44096
0.446002
0.450341
0.456341
0.461418
0.468993
0.475219
0.484482
0.491053
0.500249
0.504353
0.50998
0.508731
0.511141
0.510308
0.513894
0.512891
0.482037
0.466205
0.375862
0.314283
0.297036
0.326613
0.363105
0.394412
0.401494
0.402296
0.394006
0.389016
0.382083
0.379339
0.375626
0.374866
0.373632
0.37465
0.375282
0.376973
0.377821
0.378815
0.378819
0.378472
0.377092
0.375106
0.37227
0.369022
0.365538
0.362236
0.359447
0.357321
0.356097
0.3555
0.355659
0.355909
0.356478
0.356495
0.35656
0.355659
0.354865
0.352869
0.351194
0.348109
0.345501
0.341376
0.337878
0.332649
0.337185
0.340758
0.347639
0.360506
0.381059
0.406548
0.429489
0.443021
0.445119
0.437649
0.424159
0.408057
0.391779
0.376909
0.364689
0.356538
0.353762
0.356823
0.364369
0.373881
0.382903
0.390385
0.396154
0.400783
0.404571
0.408092
0.41132
0.414708
0.417946
0.421548
0.424965
0.428914
0.432563
0.436972
0.440905
0.445942
0.450276
0.456271
0.461344
0.468919
0.47515
0.484426
0.491011
0.500226
0.504338
0.509964
0.508694
0.511103
0.510285
0.513993
0.513113
0.482535
0.467122
0.3769
0.314816
0.296662
0.325025
0.36089
0.392351
0.399947
0.40125
0.393332
0.388593
0.381819
0.379173
0.375517
0.374787
0.373569
0.374598
0.375243
0.376948
0.377809
0.378815
0.37883
0.378491
0.377116
0.375131
0.37229
0.369032
0.365534
0.362219
0.359421
0.35729
0.356069
0.355482
0.355656
0.355925
0.356512
0.356547
0.356629
0.355744
0.354969
0.352991
0.351342
0.348283
0.345711
0.341621
0.338165
0.332954
0.337213
0.34083
0.347775
0.360733
0.381376
0.406882
0.429729
0.443084
0.444973
0.437301
0.423642
0.407421
0.391084
0.376208
0.364013
0.355909
0.353201
0.356362
0.364039
0.373686
0.382813
0.390359
0.396156
0.400791
0.404575
0.408088
0.411308
0.414688
0.41792
0.421516
0.424928
0.428874
0.432518
0.436922
0.440851
0.445883
0.450212
0.456201
0.46127
0.468846
0.475081
0.484369
0.490969
0.500203
0.504323
0.509948
0.508656
0.511065
0.51026
0.514091
0.513336
0.483034
0.468037
0.377929
0.315336
0.296279
0.323419
0.358633
0.390231
0.398346
0.400162
0.392632
0.388155
0.381546
0.379003
0.375405
0.374705
0.373504
0.374545
0.375203
0.376921
0.377796
0.378814
0.37884
0.37851
0.37714
0.375155
0.372309
0.369041
0.365531
0.362203
0.359394
0.357259
0.35604
0.355463
0.355652
0.355939
0.356546
0.356599
0.356699
0.35583
0.355073
0.353114
0.351491
0.348458
0.345924
0.341868
0.338455
0.333263
0.337241
0.340902
0.347912
0.360961
0.381693
0.407216
0.429967
0.443145
0.444827
0.436952
0.423123
0.406785
0.390388
0.375503
0.363334
0.355275
0.352635
0.355896
0.363706
0.373489
0.382722
0.390332
0.396158
0.400799
0.404579
0.408084
0.411295
0.414668
0.417893
0.421483
0.424891
0.428832
0.432473
0.436872
0.440797
0.445823
0.450147
0.456131
0.461196
0.468772
0.475011
0.484312
0.490927
0.500179
0.504308
0.509932
0.508617
0.511026
0.510235
0.51419
0.513559
0.483535
0.46895
0.378949
0.315844
0.295886
0.321796
0.356336
0.388054
0.39669
0.399033
0.391904
0.3877
0.381265
0.378827
0.37529
0.374622
0.373437
0.37449
0.375161
0.376894
0.377783
0.378813
0.37885
0.378528
0.377164
0.375179
0.372328
0.36905
0.365527
0.362185
0.359367
0.357227
0.356011
0.355444
0.355648
0.355954
0.35658
0.356651
0.356769
0.355916
0.355177
0.353238
0.351641
0.348635
0.346138
0.342118
0.338748
0.333575
0.337269
0.340975
0.348051
0.361191
0.382011
0.40755
0.430204
0.443204
0.444678
0.436603
0.422604
0.406146
0.389689
0.374795
0.362652
0.354638
0.352064
0.355426
0.363369
0.373289
0.38263
0.390305
0.396159
0.400807
0.404582
0.40808
0.411282
0.414647
0.417866
0.421451
0.424854
0.428791
0.432427
0.436822
0.440742
0.445763
0.450081
0.456061
0.461121
0.468697
0.474941
0.484255
0.490884
0.500155
0.504292
0.509915
0.508578
0.510985
0.510208
0.514287
0.513782
0.484038
0.469861
0.379959
0.316339
0.295485
0.320159
0.354002
0.385818
0.394978
0.39786
0.391147
0.387227
0.380973
0.378645
0.375171
0.374536
0.373368
0.374433
0.375117
0.376864
0.377767
0.37881
0.378858
0.378546
0.377187
0.375203
0.372346
0.369059
0.365522
0.362168
0.359339
0.357194
0.355981
0.355424
0.355644
0.355969
0.356614
0.356704
0.356838
0.356003
0.355283
0.353362
0.351792
0.348813
0.346354
0.34237
0.339044
0.333891
0.337298
0.34105
0.348191
0.361422
0.382329
0.407882
0.430438
0.44326
0.444528
0.436252
0.422084
0.405506
0.388987
0.374083
0.361965
0.353997
0.35149
0.354952
0.363028
0.373086
0.382536
0.390276
0.39616
0.400814
0.404585
0.408075
0.411269
0.414626
0.417838
0.421418
0.424817
0.428749
0.432381
0.436771
0.440686
0.445702
0.450015
0.455989
0.461045
0.468621
0.47487
0.484196
0.49084
0.500131
0.504275
0.509897
0.508537
0.510943
0.510179
0.514384
0.514004
0.484541
0.470769
0.380959
0.316823
0.295076
0.31851
0.351633
0.383526
0.393207
0.396641
0.390359
0.386736
0.38067
0.378458
0.375049
0.374447
0.373297
0.374374
0.375072
0.376834
0.377751
0.378806
0.378866
0.378562
0.377209
0.375226
0.372364
0.369067
0.365517
0.362149
0.35931
0.35716
0.35595
0.355403
0.355639
0.355983
0.356647
0.356756
0.356909
0.356089
0.355388
0.353488
0.351943
0.348992
0.346572
0.342624
0.339343
0.33421
0.337328
0.341125
0.348332
0.361654
0.382648
0.408213
0.43067
0.443314
0.444376
0.435899
0.421562
0.404865
0.388283
0.373368
0.361274
0.353351
0.350911
0.354474
0.362684
0.372881
0.382441
0.390247
0.39616
0.400821
0.404588
0.408069
0.411255
0.414604
0.41781
0.421384
0.424779
0.428706
0.432334
0.43672
0.44063
0.445641
0.449948
0.455917
0.460969
0.468545
0.474797
0.484137
0.490796
0.500106
0.504258
0.509879
0.508496
0.5109
0.510149
0.51448
0.514226
0.485046
0.471673
0.381947
0.317295
0.294663
0.31685
0.349229
0.381175
0.391378
0.395375
0.389538
0.386224
0.380356
0.378264
0.374922
0.374356
0.373223
0.374313
0.375025
0.376801
0.377732
0.378801
0.378872
0.378578
0.377231
0.375248
0.372382
0.369074
0.365511
0.36213
0.35928
0.357126
0.355918
0.355381
0.355633
0.355996
0.356681
0.356809
0.356979
0.356177
0.355494
0.353613
0.352096
0.349172
0.346791
0.342881
0.339645
0.334532
0.337357
0.341201
0.348474
0.361888
0.382968
0.408544
0.4309
0.443366
0.444222
0.435546
0.42104
0.404222
0.387577
0.37265
0.36058
0.352701
0.350328
0.353992
0.362336
0.372674
0.382345
0.390218
0.39616
0.400828
0.404591
0.408064
0.411241
0.414582
0.417782
0.421351
0.42474
0.428663
0.432287
0.436668
0.440573
0.445579
0.44988
0.455844
0.460892
0.468468
0.474724
0.484076
0.490751
0.50008
0.50424
0.50986
0.508453
0.510855
0.510117
0.514575
0.514448
0.485551
0.472574
0.382924
0.317755
0.294244
0.315183
0.346794
0.378768
0.389489
0.39406
0.388684
0.385691
0.380029
0.378062
0.374792
0.374261
0.373147
0.37425
0.374975
0.376766
0.377712
0.378794
0.378877
0.378592
0.377252
0.375269
0.372399
0.369081
0.365505
0.36211
0.359249
0.357091
0.355886
0.355359
0.355627
0.35601
0.356714
0.356861
0.35705
0.356264
0.355601
0.35374
0.35225
0.349353
0.347012
0.343139
0.339949
0.334858
0.337387
0.341277
0.348618
0.362124
0.383289
0.408873
0.431128
0.443416
0.444066
0.435192
0.420517
0.403578
0.386868
0.371929
0.359882
0.352048
0.34974
0.353505
0.361985
0.372464
0.382247
0.390187
0.39616
0.400835
0.404593
0.408058
0.411226
0.41456
0.417753
0.421316
0.424701
0.42862
0.43224
0.436616
0.440516
0.445516
0.449812
0.455771
0.460814
0.468389
0.47465
0.484015
0.490705
0.500054
0.504221
0.50984
0.508409
0.510809
0.510083
0.514669
0.514668
0.486057
0.473471
0.38389
0.318205
0.293822
0.313509
0.344329
0.376305
0.387539
0.392694
0.387793
0.385136
0.379689
0.377853
0.374656
0.374163
0.373068
0.374184
0.374923
0.376729
0.37769
0.378785
0.37888
0.378605
0.377271
0.37529
0.372415
0.369087
0.365497
0.362089
0.359217
0.357054
0.355852
0.355336
0.35562
0.356023
0.356748
0.356914
0.35712
0.356352
0.355708
0.353867
0.352404
0.349536
0.347235
0.3434
0.340257
0.335187
0.337418
0.341355
0.348763
0.362361
0.38361
0.409202
0.431354
0.443463
0.443909
0.434836
0.419993
0.402932
0.386158
0.371204
0.35918
0.35139
0.349149
0.353015
0.36163
0.372252
0.382147
0.390156
0.396159
0.400841
0.404595
0.408051
0.411211
0.414537
0.417724
0.421281
0.424662
0.428576
0.432191
0.436563
0.440458
0.445453
0.449743
0.455697
0.460735
0.46831
0.474576
0.483954
0.490659
0.500026
0.504202
0.509819
0.508363
0.510761
0.510048
0.514762
0.514889
0.486564
0.474363
0.384844
0.318644
0.293399
0.311833
0.341837
0.373785
0.385526
0.391276
0.386865
0.384557
0.379335
0.377636
0.374515
0.37406
0.372985
0.374115
0.374868
0.376689
0.377665
0.378774
0.378881
0.378617
0.377289
0.375309
0.372429
0.369092
0.365489
0.362067
0.359184
0.357017
0.355818
0.355312
0.355613
0.356035
0.356781
0.356966
0.357191
0.35644
0.355815
0.353994
0.352559
0.34972
0.347459
0.343663
0.340568
0.335519
0.337449
0.341434
0.34891
0.362599
0.383931
0.40953
0.431578
0.443508
0.44375
0.43448
0.419468
0.402286
0.385445
0.370477
0.358474
0.350728
0.348554
0.35252
0.361272
0.372037
0.382046
0.390124
0.396157
0.400846
0.404597
0.408045
0.411196
0.414514
0.417694
0.421246
0.424622
0.428532
0.432143
0.436509
0.4404
0.445389
0.449674
0.455622
0.460655
0.468231
0.4745
0.483891
0.490611
0.499999
0.504182
0.509796
0.508316
0.510711
0.51001
0.514853
0.515108
0.487072
0.47525
0.385785
0.319073
0.292975
0.310155
0.33932
0.371211
0.383451
0.389803
0.385898
0.383952
0.378965
0.377409
0.374367
0.373954
0.372898
0.374042
0.37481
0.376646
0.377638
0.37876
0.378881
0.378627
0.377306
0.375328
0.372443
0.369096
0.36548
0.362044
0.359151
0.356978
0.355782
0.355287
0.355605
0.356047
0.356813
0.357018
0.357261
0.356528
0.355922
0.354122
0.352715
0.349904
0.347685
0.343928
0.340881
0.335854
0.33748
0.341513
0.349058
0.362839
0.384254
0.409857
0.431799
0.443551
0.44359
0.434122
0.418942
0.401638
0.38473
0.369747
0.357765
0.350063
0.347954
0.352022
0.360911
0.37182
0.381944
0.390091
0.396156
0.400852
0.404598
0.408037
0.41118
0.41449
0.417664
0.42121
0.424582
0.428487
0.432094
0.436455
0.440341
0.445325
0.449604
0.455546
0.460575
0.46815
0.474423
0.483827
0.490563
0.49997
0.504161
0.509773
0.508268
0.51066
0.509971
0.514944
0.515327
0.48758
0.476132
0.386714
0.319494
0.292552
0.308478
0.336781
0.368584
0.381313
0.388275
0.38489
0.383321
0.378579
0.377172
0.374214
0.373842
0.372807
0.373965
0.374748
0.3766
0.377607
0.378744
0.378878
0.378634
0.377321
0.375344
0.372456
0.369098
0.365469
0.362019
0.359115
0.356938
0.355745
0.355261
0.355595
0.356059
0.356845
0.35707
0.357332
0.356616
0.35603
0.35425
0.352872
0.35009
0.347913
0.344195
0.341197
0.336192
0.337512
0.341594
0.349207
0.36308
0.384576
0.410182
0.432019
0.443592
0.443428
0.433764
0.418416
0.400989
0.384013
0.369013
0.357053
0.349394
0.347351
0.351519
0.360546
0.3716
0.38184
0.390057
0.396153
0.400857
0.404599
0.40803
0.411164
0.414466
0.417634
0.421174
0.424541
0.428441
0.432044
0.436401
0.440281
0.44526
0.449533
0.45547
0.460494
0.468068
0.474346
0.483763
0.490514
0.499941
0.504139
0.509749
0.508219
0.510607
0.509929
0.515033
0.515544
0.488088
0.477008
0.38763
0.319906
0.292131
0.306805
0.334223
0.365905
0.37911
0.386688
0.383838
0.382661
0.378176
0.376925
0.374053
0.373725
0.372712
0.373884
0.374682
0.37655
0.377573
0.378725
0.378872
0.37864
0.377334
0.375359
0.372467
0.3691
0.365457
0.361994
0.359079
0.356897
0.355707
0.355234
0.355585
0.356069
0.356877
0.357122
0.357402
0.356704
0.356138
0.354379
0.353029
0.350277
0.348142
0.344465
0.341516
0.336534
0.337544
0.341675
0.349358
0.363322
0.3849
0.410507
0.432236
0.443631
0.443264
0.433405
0.41789
0.40034
0.383295
0.368278
0.356337
0.348722
0.346744
0.351013
0.360177
0.371378
0.381735
0.390023
0.39615
0.400861
0.404599
0.408022
0.411147
0.414441
0.417603
0.421138
0.4245
0.428396
0.431994
0.436346
0.440221
0.445194
0.449462
0.455393
0.460411
0.467986
0.474267
0.483698
0.490464
0.499911
0.504117
0.509724
0.508168
0.510552
0.509886
0.515121
0.515761
0.488597
0.477878
0.388533
0.32031
0.291714
0.305138
0.331649
0.363175
0.376843
0.385042
0.382742
0.381971
0.377753
0.376666
0.373884
0.373602
0.372612
0.373799
0.374611
0.376496
0.377536
0.378703
0.378863
0.378643
0.377344
0.375373
0.372476
0.3691
0.365444
0.361966
0.359041
0.356854
0.355667
0.355206
0.355574
0.356079
0.356908
0.357173
0.357472
0.356792
0.356246
0.354508
0.353187
0.350465
0.348373
0.344736
0.341838
0.336878
0.337576
0.341758
0.34951
0.363566
0.385224
0.410831
0.432451
0.443667
0.443099
0.433045
0.417363
0.39969
0.382575
0.367539
0.355619
0.348046
0.346134
0.350503
0.359806
0.371154
0.381628
0.389987
0.396147
0.400865
0.404599
0.408014
0.41113
0.414416
0.417571
0.421101
0.424458
0.428349
0.431943
0.43629
0.440161
0.445128
0.44939
0.455315
0.460329
0.467902
0.474188
0.483631
0.490413
0.49988
0.504093
0.509698
0.508115
0.510495
0.50984
0.515207
0.515977
0.489106
0.478741
0.389423
0.320707
0.291302
0.303479
0.329061
0.360396
0.374511
0.383335
0.381598
0.38125
0.377311
0.376394
0.373707
0.373472
0.372505
0.373708
0.374536
0.376438
0.377494
0.378676
0.378851
0.378643
0.377353
0.375384
0.372484
0.369098
0.365429
0.361938
0.359001
0.35681
0.355626
0.355176
0.355562
0.356088
0.356939
0.357224
0.357542
0.356879
0.356354
0.354637
0.353345
0.350653
0.348605
0.345009
0.342162
0.337225
0.337609
0.341841
0.349664
0.363812
0.385548
0.411153
0.432664
0.443702
0.442933
0.432685
0.416835
0.399039
0.381853
0.366799
0.354897
0.347367
0.34552
0.349989
0.359431
0.370927
0.38152
0.389951
0.396143
0.400869
0.404599
0.408005
0.411113
0.414391
0.417539
0.421063
0.424416
0.428302
0.431892
0.436234
0.4401
0.445061
0.449317
0.455236
0.460245
0.467818
0.474108
0.483564
0.490362
0.499848
0.504069
0.509671
0.508061
0.510436
0.509792
0.515291
0.516191
0.489614
0.479598
0.3903
0.321098
0.290897
0.301832
0.326464
0.357571
0.372114
0.381565
0.380405
0.380494
0.376847
0.376109
0.37352
0.373335
0.372392
0.373611
0.374455
0.376374
0.377448
0.378646
0.378836
0.378639
0.377358
0.375392
0.372489
0.369094
0.365412
0.361907
0.35896
0.356764
0.355583
0.355145
0.355549
0.356096
0.356968
0.357274
0.357612
0.356967
0.356462
0.354766
0.353504
0.350843
0.348838
0.345284
0.342489
0.337576
0.337643
0.341925
0.349819
0.364059
0.385873
0.411474
0.432875
0.443734
0.442765
0.432324
0.416308
0.398388
0.381131
0.366056
0.354172
0.346684
0.344902
0.349472
0.359052
0.370697
0.381411
0.389915
0.396139
0.400873
0.404598
0.407996
0.411095
0.414365
0.417507
0.421025
0.424373
0.428255
0.43184
0.436177
0.440038
0.444994
0.449243
0.455157
0.460161
0.467733
0.474026
0.483496
0.49031
0.499815
0.504043
0.509642
0.508005
0.510375
0.509742
0.515374
0.516405
0.490123
0.480447
0.391163
0.321483
0.2905
0.300198
0.32386
0.354702
0.369653
0.37973
0.379161
0.379703
0.37636
0.375809
0.373323
0.37319
0.372273
0.373507
0.374368
0.376305
0.377396
0.378611
0.378816
0.378632
0.37736
0.375398
0.372493
0.369089
0.365393
0.361875
0.358916
0.356716
0.355538
0.355112
0.355534
0.356102
0.356997
0.357324
0.357681
0.357054
0.35657
0.354896
0.353663
0.351033
0.349072
0.34556
0.342818
0.337929
0.337677
0.342011
0.349975
0.364307
0.386198
0.411794
0.433084
0.443764
0.442595
0.431962
0.415781
0.397736
0.380407
0.36531
0.353444
0.345998
0.344281
0.348951
0.358671
0.370466
0.3813
0.389877
0.396134
0.400876
0.404597
0.407986
0.411077
0.414339
0.417474
0.420987
0.42433
0.428207
0.431788
0.43612
0.439976
0.444926
0.449169
0.455077
0.460075
0.467647
0.473944
0.483427
0.490256
0.499782
0.504017
0.509613
0.507948
0.510312
0.509689
0.515455
0.516617
0.490631
0.481288
0.392013
0.321864
0.290113
0.29858
0.321253
0.351792
0.367128
0.37783
0.377863
0.378874
0.375848
0.375493
0.373115
0.373036
0.372145
0.373397
0.374274
0.376229
0.377339
0.37857
0.378791
0.378621
0.377359
0.375401
0.372493
0.36908
0.365372
0.36184
0.358871
0.356666
0.355492
0.355077
0.355517
0.356108
0.357025
0.357373
0.357749
0.357141
0.356677
0.355025
0.353822
0.351223
0.349308
0.345838
0.34315
0.338285
0.337711
0.342097
0.350133
0.364556
0.386523
0.412113
0.43329
0.443792
0.442424
0.4316
0.415253
0.397084
0.379682
0.364563
0.352714
0.345309
0.343656
0.348427
0.358286
0.370232
0.381187
0.389838
0.396129
0.400878
0.404596
0.407977
0.411058
0.414312
0.417441
0.420948
0.424287
0.428159
0.431735
0.436062
0.439913
0.444857
0.449095
0.454996
0.459989
0.46756
0.473861
0.483358
0.490202
0.499747
0.50399
0.509582
0.507889
0.510247
0.509633
0.515534
0.516827
0.491139
0.482121
0.392849
0.322242
0.289737
0.29698
0.318646
0.348842
0.36454
0.375864
0.37651
0.378006
0.37531
0.375159
0.372894
0.372872
0.372009
0.373278
0.374173
0.376146
0.377275
0.378524
0.378761
0.378605
0.377354
0.3754
0.37249
0.369069
0.365349
0.361803
0.358823
0.356613
0.355443
0.355041
0.355499
0.356112
0.357051
0.357421
0.357817
0.357228
0.356784
0.355154
0.353982
0.351415
0.349545
0.346118
0.343484
0.338643
0.337746
0.342184
0.350293
0.364807
0.386849
0.412431
0.433494
0.443817
0.442252
0.431238
0.414726
0.396432
0.378956
0.363814
0.351981
0.344617
0.343029
0.347899
0.357898
0.369995
0.381074
0.389799
0.396123
0.400881
0.404594
0.407966
0.411039
0.414285
0.417408
0.420909
0.424243
0.42811
0.431682
0.436004
0.439849
0.444788
0.449019
0.454915
0.459902
0.467472
0.473777
0.483287
0.490147
0.499712
0.503961
0.509549
0.507828
0.510179
0.509575
0.515611
0.517036
0.491646
0.482945
0.393673
0.322617
0.289373
0.295402
0.316043
0.345856
0.361888
0.373828
0.3751
0.377095
0.374743
0.374807
0.37266
0.372698
0.371863
0.373151
0.374063
0.376056
0.377203
0.378471
0.378725
0.378584
0.377344
0.375396
0.372484
0.369055
0.365323
0.361763
0.358772
0.356559
0.355392
0.355002
0.355479
0.356114
0.357076
0.357467
0.357883
0.357313
0.356891
0.355283
0.354141
0.351606
0.349782
0.3464
0.34382
0.339005
0.337781
0.342273
0.350454
0.36506
0.387176
0.412747
0.433696
0.443841
0.442079
0.430875
0.414198
0.39578
0.378229
0.363063
0.351245
0.343923
0.342398
0.347368
0.357507
0.369756
0.380958
0.389759
0.396117
0.400882
0.404592
0.407956
0.41102
0.414258
0.417374
0.420869
0.424198
0.428061
0.431629
0.435945
0.439785
0.444718
0.448943
0.454833
0.459814
0.467383
0.473692
0.483215
0.490091
0.499676
0.503932
0.509515
0.507765
0.510108
0.509514
0.515686
0.517243
0.492153
0.48376
0.394483
0.32299
0.289024
0.293847
0.313448
0.342838
0.359175
0.371724
0.373629
0.37614
0.374147
0.374434
0.372411
0.372511
0.371707
0.373014
0.373944
0.375957
0.377124
0.378411
0.378683
0.378557
0.377329
0.375387
0.372475
0.369038
0.365293
0.36172
0.358719
0.356501
0.355339
0.354961
0.355457
0.356115
0.3571
0.357513
0.357949
0.357398
0.356997
0.355412
0.354301
0.351798
0.350021
0.346682
0.344158
0.339368
0.337817
0.342362
0.350616
0.365313
0.387502
0.413062
0.433896
0.443863
0.441904
0.430511
0.413671
0.395128
0.377501
0.36231
0.350507
0.343225
0.341764
0.346834
0.357112
0.369515
0.380841
0.389718
0.39611
0.400884
0.404589
0.407944
0.411
0.41423
0.417339
0.420829
0.424153
0.428011
0.431574
0.435886
0.439721
0.444647
0.448866
0.45475
0.459726
0.467294
0.473606
0.483142
0.490034
0.499638
0.503901
0.50948
0.5077
0.510035
0.50945
0.515759
0.517448
0.492658
0.484565
0.395279
0.323363
0.288689
0.292317
0.310863
0.33979
0.356401
0.369549
0.372097
0.375139
0.373518
0.374039
0.372146
0.372312
0.371539
0.372866
0.373815
0.375848
0.377036
0.378343
0.378633
0.378524
0.377309
0.375373
0.372461
0.369017
0.36526
0.361675
0.358663
0.356441
0.355282
0.354918
0.355433
0.356113
0.357122
0.357557
0.358014
0.357482
0.357102
0.35554
0.35446
0.35199
0.35026
0.346966
0.344498
0.339734
0.337853
0.342453
0.35078
0.365569
0.387829
0.413376
0.434093
0.443882
0.441728
0.430148
0.413145
0.394476
0.376773
0.361555
0.349767
0.342525
0.341127
0.346296
0.356715
0.369271
0.380723
0.389676
0.396103
0.400885
0.404586
0.407933
0.410979
0.414201
0.417304
0.420788
0.424108
0.427961
0.43152
0.435826
0.439655
0.444576
0.448789
0.454666
0.459636
0.467203
0.473518
0.483068
0.489976
0.4996
0.503869
0.509443
0.507633
0.50996
0.509383
0.515829
0.517651
0.493163
0.485361
0.396063
0.323736
0.288371
0.290814
0.308292
0.336716
0.353569
0.367303
0.3705
0.374088
0.372855
0.373621
0.371863
0.372098
0.371359
0.372706
0.373675
0.375729
0.376938
0.378266
0.378576
0.378484
0.377282
0.375354
0.372442
0.368992
0.365224
0.361625
0.358603
0.356377
0.355223
0.354871
0.355406
0.35611
0.357142
0.357599
0.358077
0.357564
0.357207
0.355667
0.354619
0.352182
0.3505
0.347251
0.34484
0.340102
0.337889
0.342544
0.350945
0.365825
0.388157
0.413689
0.434288
0.443899
0.441551
0.429784
0.412618
0.393825
0.376044
0.360799
0.349024
0.341822
0.340487
0.345755
0.356315
0.369025
0.380603
0.389634
0.396095
0.400885
0.404583
0.407921
0.410959
0.414173
0.417269
0.420747
0.424062
0.427911
0.431465
0.435766
0.43959
0.444504
0.448711
0.454581
0.459546
0.467111
0.47343
0.482993
0.489916
0.49956
0.503836
0.509404
0.507563
0.509881
0.509313
0.515896
0.517852
0.493666
0.486146
0.396835
0.32411
0.288071
0.289342
0.30574
0.333619
0.350679
0.364984
0.368837
0.372986
0.372155
0.373176
0.371561
0.371868
0.371164
0.372533
0.373522
0.375598
0.37683
0.378179
0.378509
0.378436
0.377248
0.375329
0.372418
0.368962
0.365183
0.361572
0.35854
0.35631
0.35516
0.354822
0.355376
0.356104
0.35716
0.35764
0.358138
0.357646
0.35731
0.355794
0.354778
0.352374
0.35074
0.347537
0.345184
0.340472
0.337926
0.342637
0.351112
0.366083
0.388484
0.414
0.434481
0.443914
0.441372
0.42942
0.412092
0.393173
0.375315
0.360042
0.348279
0.341117
0.339845
0.345211
0.355911
0.368777
0.380482
0.38959
0.396086
0.400885
0.404579
0.407908
0.410937
0.414143
0.417233
0.420705
0.424016
0.427859
0.431409
0.435705
0.439523
0.444432
0.448632
0.454496
0.459455
0.467018
0.473341
0.482917
0.489856
0.499519
0.503801
0.509364
0.507491
0.509799
0.509239
0.51596
0.51805
0.494167
0.48692
0.397594
0.324487
0.28779
0.287902
0.303209
0.330504
0.347733
0.362594
0.367106
0.371829
0.371415
0.372704
0.371238
0.371621
0.370953
0.372346
0.373356
0.375454
0.376709
0.37808
0.378432
0.378379
0.377207
0.375297
0.372388
0.368927
0.365137
0.361514
0.358472
0.356239
0.355094
0.354769
0.355343
0.356095
0.357176
0.357679
0.358198
0.357725
0.357412
0.355919
0.354935
0.352565
0.35098
0.347823
0.345529
0.340844
0.337964
0.342731
0.35128
0.366343
0.388812
0.41431
0.434672
0.443928
0.441193
0.429056
0.411567
0.392523
0.374585
0.359283
0.347532
0.340409
0.3392
0.344665
0.355505
0.368526
0.380359
0.389546
0.396077
0.400885
0.404574
0.407896
0.410916
0.414113
0.417197
0.420663
0.423969
0.427808
0.431353
0.435643
0.439456
0.444359
0.448552
0.45441
0.459362
0.466925
0.47325
0.48284
0.489794
0.499477
0.503765
0.509321
0.507417
0.509714
0.509162
0.516022
0.518246
0.494667
0.487682
0.39834
0.324867
0.28753
0.286495
0.300702
0.327373
0.344735
0.36013
0.365304
0.370615
0.370634
0.372202
0.370892
0.371355
0.370726
0.372142
0.373174
0.375296
0.376575
0.37797
0.378345
0.378312
0.377157
0.375258
0.372352
0.368886
0.365087
0.361452
0.3584
0.356164
0.355023
0.354712
0.355307
0.356083
0.357189
0.357715
0.358256
0.357803
0.357512
0.356044
0.355092
0.352757
0.351221
0.34811
0.345876
0.341217
0.338002
0.342826
0.35145
0.366603
0.389141
0.414618
0.43486
0.443939
0.441012
0.428692
0.411042
0.391873
0.373855
0.358523
0.346784
0.339699
0.338552
0.344115
0.355096
0.368273
0.380235
0.3895
0.396068
0.400884
0.40457
0.407882
0.410893
0.414083
0.41716
0.42062
0.423921
0.427755
0.431296
0.435581
0.439389
0.444285
0.448472
0.454323
0.459269
0.46683
0.473159
0.482761
0.489732
0.499434
0.503728
0.509277
0.50734
0.509626
0.50908
0.51608
0.518439
0.495165
0.488433
0.399075
0.325252
0.28729
0.285124
0.298224
0.324233
0.341685
0.357593
0.363429
0.369341
0.369808
0.371667
0.370521
0.371068
0.37048
0.371921
0.372976
0.375122
0.376426
0.377846
0.378245
0.378234
0.377098
0.375211
0.372309
0.368839
0.36503
0.361384
0.358324
0.356084
0.354949
0.354652
0.355267
0.356068
0.357199
0.357749
0.358311
0.357879
0.357611
0.356166
0.355248
0.352947
0.351461
0.348398
0.346223
0.341592
0.338041
0.342922
0.351622
0.366866
0.389469
0.414925
0.435046
0.443948
0.44083
0.428328
0.410518
0.391223
0.373126
0.357762
0.346033
0.338987
0.337902
0.343562
0.354684
0.368018
0.380109
0.389454
0.396057
0.400882
0.404564
0.407868
0.410871
0.414052
0.417122
0.420577
0.423873
0.427703
0.431238
0.435518
0.43932
0.44421
0.448391
0.454235
0.459175
0.466734
0.473066
0.482681
0.489667
0.499389
0.503688
0.50923
0.507261
0.509533
0.508995
0.516135
0.518629
0.49566
0.489172
0.399799
0.325642
0.287073
0.28379
0.295777
0.321085
0.338588
0.354983
0.361479
0.368004
0.368935
0.371097
0.370122
0.370758
0.370213
0.371681
0.372759
0.374931
0.376261
0.377708
0.378132
0.378145
0.377028
0.375154
0.372258
0.368785
0.364968
0.361311
0.358241
0.355999
0.354869
0.354587
0.355224
0.35605
0.357206
0.357779
0.358364
0.357953
0.357707
0.356288
0.355402
0.353136
0.351701
0.348685
0.346572
0.341968
0.33808
0.343019
0.351795
0.367129
0.389798
0.415231
0.43523
0.443955
0.440647
0.427964
0.409995
0.390574
0.372396
0.357
0.345281
0.338272
0.33725
0.343007
0.354269
0.36776
0.379982
0.389407
0.396046
0.40088
0.404558
0.407854
0.410848
0.414021
0.417084
0.420533
0.423825
0.427649
0.43118
0.435455
0.439251
0.444135
0.448309
0.454146
0.45908
0.466637
0.472972
0.4826
0.489602
0.499343
0.503647
0.509182
0.507178
0.509438
0.508906
0.516185
0.518816
0.496154
0.489898
0.400512
0.326039
0.286879
0.282494
0.293364
0.317935
0.335445
0.352301
0.359453
0.366601
0.36801
0.37049
0.369694
0.370423
0.369924
0.37142
0.372522
0.374721
0.376079
0.377553
0.378004
0.378042
0.376947
0.375088
0.372197
0.368723
0.364898
0.361231
0.358153
0.355908
0.354784
0.354517
0.355175
0.356027
0.357209
0.357807
0.358414
0.358024
0.357802
0.356407
0.355555
0.353324
0.35194
0.348972
0.346921
0.342344
0.33812
0.343117
0.35197
0.367394
0.390127
0.415535
0.435412
0.44396
0.440463
0.4276
0.409472
0.389927
0.371666
0.356237
0.344527
0.337556
0.336595
0.34245
0.353851
0.367501
0.379853
0.389359
0.396035
0.400878
0.404552
0.407839
0.410824
0.413989
0.417046
0.420489
0.423776
0.427595
0.431122
0.435391
0.439182
0.444059
0.448226
0.454057
0.458984
0.466539
0.472876
0.482518
0.489535
0.499295
0.503604
0.50913
0.507092
0.509338
0.508811
0.516232
0.519
0.496644
0.490611
0.401214
0.326442
0.286709
0.281239
0.290989
0.314787
0.332261
0.349546
0.357347
0.365129
0.367032
0.369841
0.369234
0.370061
0.36961
0.371135
0.372263
0.374489
0.375876
0.37738
0.37786
0.377925
0.376852
0.37501
0.372127
0.368653
0.364821
0.361144
0.358059
0.355811
0.354694
0.354441
0.355122
0.356
0.357208
0.35783
0.35846
0.358092
0.357893
0.356523
0.355706
0.353511
0.352178
0.349259
0.34727
0.342722
0.33816
0.343217
0.352146
0.367661
0.390456
0.415838
0.435591
0.443963
0.440278
0.427235
0.408951
0.38928
0.370937
0.355474
0.343772
0.336838
0.335938
0.341889
0.353431
0.367239
0.379722
0.38931
0.396022
0.400874
0.404545
0.407824
0.410799
0.413957
0.417007
0.420444
0.423726
0.427541
0.431063
0.435326
0.439112
0.443982
0.448143
0.453966
0.458886
0.466439
0.472779
0.482434
0.489467
0.499245
0.50356
0.509077
0.507003
0.509233
0.508713
0.516275
0.51918
0.497132
0.491311
0.401906
0.326854
0.286564
0.280025
0.288654
0.311644
0.329038
0.34672
0.355162
0.363585
0.365996
0.369149
0.368739
0.369669
0.369269
0.370825
0.37198
0.374235
0.375652
0.377187
0.377697
0.377791
0.376744
0.374919
0.372047
0.368573
0.364735
0.36105
0.357957
0.355708
0.354597
0.35436
0.355063
0.355967
0.357202
0.35785
0.358503
0.358157
0.357982
0.356638
0.355855
0.353696
0.352415
0.349545
0.347619
0.343099
0.338201
0.343317
0.352324
0.367929
0.390785
0.41614
0.435768
0.443964
0.440092
0.426872
0.40843
0.388634
0.370208
0.35471
0.343015
0.336118
0.335279
0.341327
0.353008
0.366974
0.37959
0.389259
0.396009
0.400871
0.404537
0.407808
0.410775
0.413924
0.416967
0.420399
0.423676
0.427486
0.431003
0.435261
0.439041
0.443905
0.448058
0.453875
0.458788
0.466338
0.472681
0.482349
0.489397
0.499194
0.503513
0.50902
0.506911
0.509124
0.508609
0.516313
0.519355
0.497616
0.491996
0.402589
0.327276
0.286444
0.278854
0.286361
0.308512
0.325779
0.343823
0.352895
0.361966
0.3649
0.368409
0.368205
0.369244
0.368898
0.370487
0.37167
0.373956
0.375405
0.376972
0.377515
0.37764
0.37662
0.374815
0.371954
0.368483
0.36464
0.360947
0.357847
0.355597
0.354493
0.354273
0.354998
0.35593
0.357192
0.357865
0.358542
0.358218
0.358068
0.356749
0.356001
0.353879
0.352651
0.34983
0.347968
0.343477
0.338242
0.343419
0.352504
0.368198
0.391115
0.41644
0.435943
0.443964
0.439905
0.426508
0.40791
0.387989
0.36948
0.353945
0.342257
0.335397
0.334619
0.340762
0.352583
0.366707
0.379457
0.389208
0.395995
0.400866
0.404529
0.407791
0.410749
0.41389
0.416927
0.420353
0.423625
0.42743
0.430942
0.435195
0.438969
0.443827
0.447973
0.453782
0.458688
0.466236
0.472582
0.482262
0.489325
0.499141
0.503463
0.508961
0.506814
0.509011
0.508499
0.516346
0.519527
0.498097
0.492668
0.403264
0.327707
0.28635
0.277726
0.284114
0.305394
0.322489
0.340856
0.350544
0.360267
0.363739
0.367618
0.36763
0.368784
0.368494
0.370118
0.371331
0.373649
0.375131
0.376733
0.377311
0.377469
0.376478
0.374696
0.371848
0.368381
0.364535
0.360835
0.357729
0.355479
0.354382
0.354178
0.354927
0.355886
0.357175
0.357875
0.358576
0.358275
0.358149
0.356857
0.356144
0.354059
0.352885
0.350114
0.348316
0.343854
0.338284
0.343522
0.352685
0.368469
0.391445
0.416739
0.436116
0.443961
0.439717