/*--------------------------------*- C++ -*----------------------------------*\
| =========                 |                                                 |
| \\      /  F ield         | OpenFOAM: The Open Source CFD Toolbox           |
|  \\    /   O peration     | Version:  2412                                  |
|   \\  /    A nd           | Website:  www.openfoam.com                      |
|    \\/     M anipulation  |                                                 |
\*---------------------------------------------------------------------------*/
FoamFile
{
    version     2.0;
    format      ascii;
    arch        "LSB;label=32;scalar=64";
    class       volScalarField;
    location    "0.9";
    object      p;
}
// * * * * * * * * * * * * * * * * * * * * * * * * * * * * * * * * * * * * * //

dimensions      [0 2 -2 0 0 0 0];

internalField   nonuniform List<scalar> 
12960
(
104591
104558
104509
104426
104341
104216
104097
103934
103785
103590
103423
103205
103019
102765
102545
102232
101972
101591
101302
100847
100533
99977.6
99642.5
98951.4
98604
97731
97388.7
96267.3
95959.7
94493.2
94269.5
92316.1
92256.7
89607
89841.8
86182.9
86920.5
81779.4
83353.9
76009.1
78956.2
68293.6
73476.9
57762.4
66587.1
43107.2
57865.1
22299.7
46658.4
-8088.89
31599.4
-53225.1
12206.8
-111453
-3418.31
-71707.8
4437.77
-35256
15673.9
-8228
24795.7
10395.2
31911.3
23752.9
38121.4
33987
43820.1
42121.7
48991.7
48699.9
53603.3
54078.8
57649.6
58498
61144.2
62136
64128.9
65144.7
66667.4
67656.7
68831.2
69784.2
70686.6
71618.9
72289.1
73233.5
73678.7
74685
74878.7
76017.7
75895.7
77270.6
76723
78487.2
77343.4
79720.6
77731.3
81031.1
77858.2
104598
104564
104515
104431
104346
104220
104101
103937
103787
103592
103424
103206
103020
102766
102546
102233
101973
101593
101303
100849
100535
99979.9
99644.7
98954
98606.4
97734
97391.4
96270.8
95962.7
94497.3
94272.8
92321
92260.4
89612.9
89845.8
86189.9
86924.9
81787.9
83358.7
76019.2
78961.1
68305.3
73481.5
57775.6
66591.1
43121.6
57868.9
22315.3
46663.6
-8077.09
31602
-53255.2
12184.6
-111641
-3472.51
-71742.3
4416.76
-35256.2
15670.2
-8217.33
24797.6
10405.1
31911.6
23759
38120.3
33991.1
43819.2
42125.1
48991.5
48703
53604
54082
57651.1
58501.2
61146.2
62139.1
64131
65147.4
66669.4
67658.8
68832.9
69785.8
70688.2
71619.9
72290.5
73234.1
73680.2
74685.2
74880.5
76017.5
75898
77270
76725.7
78485.9
77346.4
79718.7
77734.3
81028.9
77860.2
104604
104571
104521
104437
104351
104224
104105
103940
103790
103594
103425
103207
103021
102767
102547
102234
101975
101595
101305
100850
100537
99982.1
99646.8
98956.6
98608.8
97736.9
97394
96274.3
95965.7
94501.5
94276.1
92326
92264
89618.7
89849.9
86196.9
86929.3
81796.3
83363.4
76029.3
78966
68317.2
73486.1
57789
66595.2
43136.1
57872.7
22331.1
46668.9
-8065.27
31604.5
-53285.7
12162.1
-111830
-3527.32
-71776.9
4395.81
-35256.4
15666.2
-8206.86
24799.2
10415
31911.9
23765.2
38119.2
33995.2
43818.4
42128.5
48991.4
48706.2
53604.8
54085.3
57652.6
58504.5
61148.2
62142.1
64133.2
65150.1
66671.5
67661
68834.7
69787.3
70689.7
71620.9
72291.9
73234.7
73681.7
74685.4
74882.3
76017.3
75900.2
77269.3
76728.4
78484.6
77349.5
79716.8
77737.3
81026.7
77862.3
104611
104577
104527
104442
104356
104229
104109
103943
103792
103596
103427
103209
103022
102768
102548
102236
101976
101596
101307
100852
100539
99984.3
99648.9
98959.1
98611.1
97739.9
97396.7
96277.8
95968.7
94505.6
94279.5
92330.9
92267.7
89624.6
89854
86204
86933.7
81804.9
83368.2
76039.5
78970.9
68329.1
73490.9
57802.4
66599.3
43150.9
57876.6
22347
46674.1
-8053.41
31607.1
-53316.4
12139.3
-112022
-3582.72
-71811.5
4374.92
-35256.7
15662
-8196.58
24800.7
10424.7
31912.2
23771.4
38118.2
33999.4
43817.6
42131.9
48991.4
48709.5
53605.5
54088.5
57654.1
58507.7
61150.2
62145.2
64135.3
65152.8
66673.5
67663.1
68836.5
69788.9
70691.2
71621.9
72293.3
73235.3
73683.2
74685.6
74884.1
76017.1
75902.5
77268.6
76731.2
78483.3
77352.6
79714.9
77740.3
81024.6
77864.4
104618
104583
104533
104448
104361
104233
104113
103947
103795
103598
103429
103210
103023
102768
102549
102237
101977
101598
101308
100854
100541
99986.5
99651
98961.7
98613.5
97742.9
97399.4
96281.3
95971.7
94509.8
94282.8
92335.9
92271.5
89630.6
89858.1
86211.1
86938.2
81813.4
83372.9
76049.7
78975.8
68341.1
73495.6
57816
66603.4
43165.7
57880.6
22363
46679.4
-8041.41
31609.7
-53347.2
12116.5
-112216
-3638.63
-71846.3
4353.97
-35256.9
15657.6
-8186.37
24802
10434.5
31912.4
23777.6
38117.1
34003.6
43816.7
42135.4
48991.3
48712.8
53606.3
54091.8
57655.7
58511.1
61152.2
62148.3
64137.5
65155.5
66675.6
67665.3
68838.3
69790.5
70692.8
71623
72294.7
73235.9
73684.7
74685.9
74886
76017
75904.8
77268
76734
78482
77355.7
79713
77743.4
81022.4
77866.6
104625
104590
104539
104453
104366
104238
104117
103950
103798
103600
103430
103211
103024
102769
102550
102238
101979
101599
101310
100856
100543
99988.7
99653.2
98964.3
98615.9
97746
97402.1
96284.9
95974.7
94514
94286.2
92340.9
92275.2
89636.6
89862.2
86218.3
86942.7
81822.1
83377.8
76060.1
78980.8
68353.2
73500.4
57829.7
66607.6
43180.7
57884.6
22379.2
46684.8
-8029.27
31612.4
-53378.2
12093.6
-112411
-3695.04
-71881.2
4332.94
-35257.3
15653
-8176.23
24803.3
10444.3
31912.6
23783.9
38116
34007.8
43815.9
42138.9
48991.3
48716.1
53607.1
54095.2
57657.2
58514.4
61154.3
62151.5
64139.6
65158.2
66677.6
67667.5
68840.1
69792.1
70694.3
71624
72296.2
73236.5
73686.3
74686.1
74887.8
76016.8
75907.1
77267.3
76736.8
78480.7
77358.9
79711.1
77746.5
81020.1
77868.8
104632
104596
104545
104459
104371
104242
104121
103953
103801
103603
103432
103212
103025
102770
102551
102239
101980
101601
101311
100858
100544
99991
99655.3
98966.9
98618.4
97749
97404.8
96288.5
95977.7
94518.2
94289.6
92345.9
92279
89642.6
89866.3
86225.6
86947.2
81830.8
83382.6
76070.5
78985.9
68365.4
73505.2
57843.5
66611.8
43195.7
57888.6
22395.5
46690.3
-8016.99
31615.2
-53409.2
12070.6
-112608
-3751.93
-71916.2
4311.85
-35257.6
15648.2
-8166.18
24804.5
10454.1
31912.7
23790.1
38114.9
34012.1
43815.1
42142.5
48991.2
48719.4
53607.9
54098.5
57658.8
58517.7
61156.3
62154.7
64141.8
65161
66679.7
67669.7
68841.9
69793.7
70695.9
71625.1
72297.6
73237.1
73687.8
74686.3
74889.7
76016.6
75909.4
77266.6
76739.6
78479.4
77362.1
79709.1
77749.7
81017.9
77871.1
104639
104603
104552
104464
104377
104247
104125
103957
103803
103605
103433
103213
103026
102771
102552
102240
101981
101602
101313
100860
100546
99993.2
99657.5
98969.6
98620.8
97752.1
97407.5
96292.1
95980.8
94522.5
94293
92351
92282.7
89648.6
89870.5
86232.9
86951.8
81839.6
83387.5
76081
78990.9
68377.7
73510.1
57857.3
66616.1
43210.9
57892.6
22411.9
46695.8
-8004.57
31618.1
-53440.3
12047.5
-112807
-3809.32
-71951.3
4290.71
-35258
15643.3
-8156.21
24805.5
10463.9
31912.8
23796.4
38113.7
34016.4
43814.2
42146.1
48991.1
48722.7
53608.7
54101.9
57660.4
58521.1
61158.4
62157.9
64144.1
65163.8
66681.8
67671.9
68843.7
69795.3
70697.5
71626.1
72299.1
73237.7
73689.4
74686.5
74891.6
76016.5
75911.8
77265.9
76742.5
78478.1
77365.3
79707.1
77752.9
81015.6
77873.3
104646
104609
104558
104470
104382
104251
104129
103960
103806
103607
103435
103215
103027
102772
102553
102242
101982
101604
101315
100862
100548
99995.5
99659.7
98972.2
98623.3
97755.2
97410.3
96295.7
95983.9
94526.8
94296.4
92356.1
92286.6
89654.8
89874.7
86240.2
86956.4
81848.4
83392.4
76091.5
78996
68390.1
73515
57871.3
66620.3
43226.2
57896.7
22428.5
46701.3
-7992.01
31621.1
-53471.6
12024.4
-113007
-3867.21
-71986.6
4269.52
-35258.3
15638.2
-8146.32
24806.4
10473.6
31912.8
23802.7
38112.6
34020.7
43813.3
42149.6
48991
48726.1
53609.5
54105.3
57661.9
58524.5
61160.5
62161.1
64146.3
65166.6
66683.9
67674.2
68845.6
69797
70699.1
71627.2
72300.6
73238.3
73690.9
74686.7
74893.5
76016.3
75914.1
77265.3
76745.3
78476.7
77368.6
79705.1
77756.1
81013.3
77875.6
104653
104616
104564
104476
104387
104256
104134
103963
103809
103609
103437
103216
103028
102773
102554
102243
101984
101605
101316
100864
100550
99997.8
99661.9
98974.9
98625.7
97758.3
97413.1
96299.4
95987
94531.1
94299.9
92361.2
92290.4
89660.9
89878.9
86247.6
86961
81857.3
83397.4
76102.2
79001.1
68402.5
73519.9
57885.4
66624.6
43241.6
57900.8
22445.1
46706.9
-7979.3
31624.2
-53502.9
12001.2
-113209
-3925.6
-72021.9
4248.3
-35258.7
15632.9
-8136.54
24807.2
10483.4
31912.8
23809
38111.4
34025
43812.4
42153.3
48991
48729.5
53610.3
54108.7
57663.5
58528
61162.6
62164.3
64148.5
65169.4
66686
67676.4
68847.4
69798.6
70700.7
71628.3
72302
73238.9
73692.5
74687
74895.4
76016.1
75916.5
77264.6
76748.2
78475.4
77371.9
79703
77759.3
81010.9
77878
104660
104623
104571
104482
104393
104261
104138
103967
103812
103611
103438
103217
103029
102774
102555
102244
101985
101607
101318
100866
100552
100000
99664.1
98977.6
98628.2
97761.4
97415.9
96303.1
95990.1
94535.5
94303.4
92366.4
92294.3
89667.1
89883.2
86255
86965.7
81866.2
83402.4
76112.9
79006.3
68415.1
73524.9
57899.6
66629
43257.1
57904.9
22462
46712.6
-7966.44
31627.4
-53534.3
11978
-113414
-3984.48
-72057.4
4227.04
-35259.1
15627.4
-8126.84
24807.9
10493.1
31912.7
23815.3
38110.1
34029.3
43811.5
42156.9
48990.9
48732.9
53611.2
54112.2
57665.2
58531.4
61164.7
62167.6
64150.8
65172.3
66688.2
67678.7
68849.3
69800.3
70702.3
71629.4
72303.5
73239.5
73694.1
74687.2
74897.3
76015.9
75918.9
77263.9
76751.1
78474
77375.2
79701
77762.6
81008.6
77880.3
104667
104629
104577
104487
104398
104265
104142
103970
103815
103613
103440
103218
103030
102775
102556
102245
101986
101609
101319
100868
100554
100002
99666.3
98980.3
98630.8
97764.6
97418.7
96306.8
95993.3
94539.8
94306.9
92371.6
92298.2
89673.3
89887.5
86262.5
86970.3
81875.2
83407.4
76123.6
79011.5
68427.7
73529.9
57913.9
66633.3
43272.7
57909.1
22478.9
46718.3
-7953.44
31630.6
-53565.8
11954.6
-113619
-4043.86
-72092.9
4205.77
-35259.4
15621.8
-8117.26
24808.4
10502.8
31912.6
23821.7
38108.9
34033.7
43810.6
42160.5
48990.8
48736.4
53612
54115.7
57666.8
58534.9
61166.8
62170.9
64153.1
65175.2
66690.3
67681
68851.2
69801.9
70703.9
71630.5
72305
73240.1
73695.7
74687.4
74899.2
76015.8
75921.3
77263.2
76754.1
78472.6
77378.5
79698.9
77765.9
81006.1
77882.7
104675
104636
104584
104493
104404
104270
104146
103974
103818
103616
103442
103220
103031
102776
102557
102246
101988
101610
101321
100870
100556
100005
99668.6
98983
98633.3
97767.8
97421.5
96310.5
95996.4
94544.3
94310.4
92376.9
92302.1
89679.6
89891.8
86270.1
86975
81884.3
83412.5
76134.5
79016.7
68440.5
73534.9
57928.2
66637.7
43288.4
57913.3
22495.9
46724.1
-7940.29
31634
-53597.4
11931.3
-113827
-4103.73
-72128.5
4184.48
-35259.8
15616
-8107.77
24808.8
10512.4
31912.4
23828
38107.6
34038
43809.7
42164.2
48990.7
48739.8
53612.8
54119.2
57668.4
58538.4
61168.9
62174.2
64155.4
65178.1
66692.5
67683.3
68853.1
69803.6
70705.5
71631.6
72306.5
73240.7
73697.3
74687.6
74901.1
76015.6
75923.7
77262.5
76757
78471.2
77381.9
79696.8
77769.3
81003.7
77885.1
104682
104643
104590
104499
104409
104275
104150
103977
103821
103618
103444
103221
103032
102777
102558
102248
101989
101612
101323
100872
100558
100007
99670.9
98985.8
98635.8
97771
97424.4
96314.3
95999.6
94548.7
94314
92382.1
92306
89685.9
89896.1
86277.7
86979.8
81893.4
83417.6
76145.4
79022
68453.3
73540
57942.7
66642.1
43304.3
57917.5
22513.1
46730
-7926.99
31637.5
-53629.1
11907.8
-114036
-4164.1
-72164.3
4163.2
-35260.1
15610.1
-8098.4
24809.1
10522
31912.1
23834.3
38106.3
34042.4
43808.8
42167.9
48990.6
48743.3
53613.6
54122.7
57670.1
58542
61171.1
62177.5
64157.7
65181
66694.7
67685.7
68855
69805.3
70707.1
71632.7
72308
73241.3
73698.9
74687.9
74903
76015.4
75926.1
77261.8
76760
78469.8
77385.3
79694.7
77772.7
81001.2
77887.6
104690
104650
104597
104505
104415
104280
104155
103981
103824
103620
103445
103222
103033
102778
102559
102249
101991
101614
101324
100874
100560
100010
99673.1
98988.5
98638.4
97774.2
97427.2
96318
96002.8
94553.2
94317.6
92387.5
92310
89692.3
89900.5
86285.3
86984.6
81902.6
83422.7
76156.4
79027.3
68466.2
73545.1
57957.3
66646.6
43320.2
57921.7
22530.4
46735.9
-7913.53
31641.1
-53660.8
11884.4
-114248
-4224.97
-72200
4141.92
-35260.4
15603.9
-8089.14
24809.2
10531.6
31911.7
23840.7
38104.9
34046.8
43807.8
42171.6
48990.5
48746.8
53614.5
54126.2
57671.7
58545.5
61173.3
62180.9
64160
65183.9
66696.9
67688
68856.9
69807
70708.8
71633.8
72309.5
73241.9
73700.5
74688.1
74905
76015.3
75928.6
77261.1
76763
78468.4
77388.7
79692.5
77776.1
80998.7
77890
104697
104657
104604
104511
104420
104285
104159
103984
103827
103622
103447
103224
103034
102779
102560
102250
101992
101615
101326
100876
100562
100012
99675.4
98991.3
98641
97777.5
97430.1
96321.9
96006.1
94557.7
94321.2
92392.8
92314
89698.7
89904.9
86293
86989.4
81911.9
83427.8
76167.5
79032.6
68479.2
73550.2
57972
66651
43336.3
57926
22547.9
46741.9
-7899.93
31644.8
-53692.6
11860.8
-114461
-4286.33
-72235.9
4120.65
-35260.6
15597.7
-8079.99
24809.1
10541.1
31911.3
23847
38103.5
34051.3
43806.8
42175.3
48990.4
48750.4
53615.3
54129.8
57673.4
58549.1
61175.5
62184.3
64162.4
65186.9
66699.1
67690.4
68858.9
69808.7
70710.4
71634.9
72311
73242.6
73702.1
74688.3
74907
76015.1
75931.1
77260.3
76766
78466.9
77392.2
79690.3
77779.5
80996.2
77892.5
104705
104664
104611
104517
104426
104290
104164
103988
103830
103625
103449
103225
103035
102780
102561
102251
101993
101617
101328
100878
100564
100014
99677.7
98994.1
98643.6
97780.7
97433
96325.7
96009.3
94562.2
94324.8
92398.2
92318
89705.1
89909.3
86300.7
86994.2
81921.2
83433
76178.7
79038
68492.3
73555.4
57986.8
66655.5
43352.4
57930.3
22565.5
46747.9
-7886.17
31648.6
-53724.5
11837.2
-114676
-4348.19
-72271.8
4099.41
-35260.8
15591.2
-8070.96
24808.9
10550.5
31910.8
23853.3
38102.1
34055.7
43805.8
42179.1
48990.3
48753.9
53616.2
54133.4
57675.1
58552.7
61177.7
62187.7
64164.8
65189.9
66701.4
67692.8
68860.8
69810.4
70712.1
71636
72312.6
73243.2
73703.8
74688.6
74908.9
76014.9
75933.5
77259.6
76769
78465.5
77395.6
79688.1
77783
80993.6
77895.1
104712
104671
104617
104523
104432
104295
104168
103992
103833
103627
103451
103226
103036
102781
102562
102253
101995
101618
101330
100880
100566
100017
99680.1
98996.9
98646.2
97784
97436
96329.5
96012.6
94566.8
94328.4
92403.6
92322
89711.6
89913.8
86308.5
86999
81930.6
83438.2
76189.9
79043.4
68505.5
73560.6
58001.7
66660.1
43368.7
57934.7
22583.2
46754
-7872.26
31652.5
-53756.5
11813.6
-114892
-4410.54
-72307.7
4078.2
-35260.9
15584.7
-8062.05
24808.5
10559.9
31910.2
23859.7
38100.6
34060.1
43804.8
42182.8
48990.2
48757.5
53617
54137
57676.7
58556.3
61179.9
62191.1
64167.2
65192.9
66703.6
67695.2
68862.8
69812.2
70713.8
71637.1
72314.1
73243.8
73705.4
74688.8
74910.9
76014.7
75936
77258.9
76772.1
78464
77399.1
79685.9
77786.5
80991
77897.7
104720
104678
104624
104530
104437
104299
104172
103995
103836
103629
103452
103228
103037
102782
102563
102254
101996
101620
101331
100882
100568
100019
99682.4
98999.8
98648.8
97787.3
97438.9
96333.4
96015.9
94571.4
94332.1
92409.1
92326.1
89718.1
89918.3
86316.4
87003.9
81940.1
83443.5
76201.2
79048.9
68518.7
73565.8
58016.7
66664.6
43385.1
57939
22601
46760.2
-7858.19
31656.6
-53788.5
11789.9
-115111
-4473.38
-72343.7
4057.04
-35261
15578
-8053.26
24807.9
10569.2
31909.5
23866
38099.1
34064.6
43803.8
42186.6
48990.1
48761
53617.8
54140.6
57678.4
58560
61182.1
62194.6
64169.6
65195.9
66705.9
67697.6
68864.7
69813.9
70715.5
71638.3
72315.6
73244.5
73707
74689
74912.9
76014.5
75938.5
77258.1
76775.2
78462.5
77402.7
79683.6
77790.1
80988.3
77900.3
104728
104686
104631
104536
104443
104305
104177
103999
103839
103632
103454
103229
103038
102783
102564
102255
101997
101622
101333
100884
100570
100022
99684.8
99002.6
98651.5
97790.7
97441.9
96337.3
96019.2
94576
94335.8
92414.6
92330.2
89724.7
89922.8
86324.3
87008.9
81949.6
83448.8
76212.6
79054.4
68532.1
73571.1
58031.7
66669.2
43401.6
57943.4
22619
46766.4
-7843.96
31660.7
-53820.6
11766.2
-115331
-4536.72
-72379.7
4035.92
-35260.9
15571.1
-8044.59
24807.2
10578.5
31908.8
23872.3
38097.5
34069
43802.7
42190.4
48989.9
48764.6
53618.7
54144.3
57680.1
58563.7
61184.4
62198.1
64172
65198.9
66708.2
67700
68866.7
69815.7
70717.1
71639.4
72317.2
73245.1
73708.7
74689.3
74914.9
76014.4
75941.1
77257.4
76778.3
78461
77406.2
79681.4
77793.7
80985.6
77902.9
104736
104693
104638
104542
104449
104310
104181
104003
103842
103634
103456
103230
103039
102784
102565
102257
101999
101624
101335
100886
100572
100024
99687.1
99005.5
98654.1
97794
97444.9
96341.3
96022.5
94580.6
94339.5
92420.1
92334.3
89731.3
89927.3
86332.2
87013.8
81959.1
83454.1
76224
79059.9
68545.5
73576.4
58046.9
66673.8
43418.2
57947.8
22637.1
46772.7
-7829.57
31665
-53852.8
11742.5
-115553
-4600.55
-72415.7
4014.86
-35260.8
15564.2
-8036.04
24806.3
10587.6
31907.9
23878.5
38095.9
34073.5
43801.6
42194.2
48989.8
48768.3
53619.5
54148
57681.9
58567.4
61186.6
62201.6
64174.4
65202
66710.4
67702.4
68868.7
69817.4
70718.8
71640.5
72318.7
73245.7
73710.4
74689.5
74916.9
76014.2
75943.6
77256.7
76781.4
78459.5
77409.8
79679
77797.3
80982.9
77905.6
104744
104700
104645
104548
104455
104315
104186
104006
103845
103637
103458
103232
103041
102785
102566
102258
102000
101625
101337
100888
100574
100027
99689.5
99008.4
98656.8
97797.4
97447.9
96345.2
96025.9
94585.3
94343.2
92425.7
92338.4
89738
89931.9
86340.2
87018.8
81968.8
83459.5
76235.6
79065.4
68559.1
73581.8
58062.2
66678.5
43434.9
57952.3
22655.3
46779
-7815.02
31669.4
-53885
11718.7
-115778
-4664.86
-72451.8
3993.87
-35260.5
15557.1
-8027.61
24805.2
10596.7
31906.9
23884.8
38094.2
34078
43800.5
42198
48989.6
48771.9
53620.4
54151.7
57683.6
58571.1
61188.9
62205.1
64176.8
65205.1
66712.8
67704.9
68870.7
69819.2
70720.5
71641.7
72320.3
73246.4
73712
74689.7
74919
76014
75946.2
77255.9
76784.5
78458
77413.4
79676.7
77801
80980.2
77908.3
104752
104708
104652
104555
104461
104320
104191
104010
103848
103639
103460
103233
103042
102786
102568
102259
102002
101627
101338
100890
100577
100029
99691.9
99011.3
98659.5
97800.8
97450.9
96349.2
96029.3
94590
94347
92431.2
92342.6
89744.7
89936.4
86348.3
87023.8
81978.4
83464.8
76247.2
79071
68572.7
73587.1
58077.6
66683.1
43451.7
57956.8
22673.7
46785.5
-7800.31
31673.8
-53917.2
11694.9
-116004
-4729.67
-72487.8
3972.95
-35260.1
15549.9
-8019.3
24803.8
10605.7
31905.8
23891
38092.5
34082.4
43799.4
42201.9
48989.5
48775.5
53621.2
54155.4
57685.3
58574.8
61191.2
62208.7
64179.3
65208.2
66715.1
67707.4
68872.7
69821
70722.3
71642.8
72321.9
73247
73713.7
74690
74921
76013.8
75948.7
77255.1
76787.7
78456.5
77417.1
79674.4
77804.7
80977.4
77911
104760
104715
104660
104561
104467
104325
104195
104014
103851
103641
103462
103235
103043
102787
102569
102260
102003
101629
101340
100892
100579
100032
99694.4
99014.3
98662.2
97804.2
97453.9
96353.2
96032.6
94594.7
94350.8
92436.9
92346.8
89751.4
89941.1
86356.4
87028.8
81988.2
83470.3
76258.9
79076.6
68586.4
73592.6
58093.1
66687.8
43468.6
57961.3
22692.2
46791.9
-7785.43
31678.5
-53949.5
11671.1
-116232
-4794.97
-72523.9
3952.11
-35259.6
15542.7
-8011.11
24802.3
10614.6
31904.6
23897.2
38090.7
34086.9
43798.2
42205.7
48989.3
48779.2
53622
54159.1
57687
58578.6
61193.5
62212.2
64181.8
65211.3
66717.4
67709.9
68874.8
69822.8
70724
71644
72323.4
73247.7
73715.4
74690.2
74923
76013.6
75951.3
77254.4
76790.9
78454.9
77420.8
79672
77808.4
80974.5
77913.8
104768
104723
104667
104568
104473
104330
104200
104018
103854
103644
103464
103236
103044
102788
102570
102262
102005
101630
101342
100894
100581
100034
99696.8
99017.2
98665
97807.6
97457
96357.3
96036.1
94599.5
94354.6
92442.5
92351
89758.2
89945.7
86364.5
87033.9
81998
83475.7
76270.6
79082.3
68600.2
73598
58108.7
66692.6
43485.7
57965.8
22710.8
46798.5
-7770.39
31683.2
-53981.9
11647.2
-116461
-4860.75
-72560
3931.36
-35258.9
15535.3
-8003.03
24800.6
10623.3
31903.2
23903.3
38088.9
34091.3
43797
42209.5
48989.1
48782.8
53622.8
54162.8
57688.7
58582.4
61195.8
62215.8
64184.3
65214.4
66719.8
67712.4
68876.8
69824.6
70725.7
71645.2
72325
73248.3
73717.1
74690.4
74925.1
76013.4
75953.9
77253.6
76794.1
78453.4
77424.5
79669.6
77812.2
80971.7
77916.6
104776
104730
104674
104574
104479
104335
104205
104022
103858
103646
103465
103237
103045
102789
102571
102263
102006
101632
101344
100897
100583
100037
99699.3
99020.2
98667.7
97811.1
97460
96361.3
96039.5
94604.3
94358.4
92448.2
92355.2
89765
89950.4
86372.7
87039
82007.9
83481.2
76282.4
79088
68614.1
73603.5
58124.4
66697.3
43502.8
57970.4
22729.5
46805.1
-7755.18
31688.1
-54014.2
11623.3
-116693
-4927.02
-72596
3910.7
-35258.1
15527.9
-7995.07
24798.7
10632
31901.8
23909.4
38087
34095.8
43795.8
42213.4
48988.8
48786.5
53623.7
54166.6
57690.5
58586.2
61198.1
62219.4
64186.8
65217.6
66722.1
67714.9
68878.8
69826.4
70727.4
71646.3
72326.6
73249
73718.8
74690.7
74927.2
76013.2
75956.5
77252.8
76797.3
78451.8
77428.2
79667.1
77816
80968.8
77919.5
104784
104738
104682
104581
104485
104341
104209
104025
103861
103649
103467
103239
103046
102790
102572
102264
102007
101634
101346
100899
100585
100039
99701.7
99023.2
98670.5
97814.6
97463.1
96365.4
96042.9
94609.1
94362.2
92454
92359.5
89771.9
89955.1
86380.9
87044.1
82017.8
83486.7
76294.4
79093.7
68628.1
73609
58140.2
66702.1
43520.1
57975
22748.4
46811.8
-7739.8
31693.1
-54046.7
11599.4
-116927
-4993.77
-72632.1
3890.14
-35257.2
15520.4
-7987.21
24796.6
10640.5
31900.1
23915.5
38085
34100.2
43794.6
42217.2
48988.6
48790.2
53624.5
54170.4
57692.2
58590
61200.4
62223.1
64189.3
65220.8
66724.5
67717.4
68880.9
69828.2
70729.2
71647.5
72328.2
73249.6
73720.5
74690.9
74929.2
76013.1
75959.1
77252.1
76800.5
78450.2
77431.9
79664.7
77819.8
80965.8
77922.3
104792
104746
104689
104587
104491
104346
104214
104029
103864
103651
103469
103240
103047
102791
102573
102266
102009
101636
101347
100901
100587
100042
99704.2
99026.2
98673.3
97818.1
97466.2
96369.5
96046.4
94614
94366.1
92459.7
92363.8
89778.8
89959.8
86389.2
87049.3
82027.8
83492.3
76306.3
79099.5
68642.2
73614.6
58156.1
66706.9
43537.5
57979.6
22767.4
46818.6
-7724.25
31698.2
-54079.1
11575.5
-117162
-5061.01
-72668.1
3869.68
-35256
15512.8
-7979.45
24794.3
10648.9
31898.4
23921.4
38083
34104.7
43793.2
42221.1
48988.3
48793.9
53625.3
54174.1
57693.9
58593.8
61202.8
62226.7
64191.8
65223.9
66726.9
67719.9
68883
69830.1
70730.9
71648.7
72329.8
73250.3
73722.2
74691.2
74931.3
76012.9
75961.8
77251.3
76803.8
78448.6
77435.7
79662.2
77823.7
80962.8
77925.3
104801
104754
104697
104594
104498
104351
104219
104033
103867
103654
103471
103242
103048
102792
102574
102267
102010
101638
101349
100903
100589
100045
99706.7
99029.2
98676.1
97821.6
97469.4
96373.6
96049.9
94618.9
94370
92465.6
92368.1
89785.7
89964.5
86397.6
87054.5
82037.9
83497.8
76318.4
79105.3
68656.3
73620.1
58172.1
66711.8
43555
57984.3
22786.6
46825.4
-7708.53
31703.5
-54111.6
11551.5
-117400
-5128.73
-72704.1
3849.33
-35254.7
15505.3
-7971.8
24791.8
10657.2
31896.5
23927.4
38080.9
34109.1
43791.9
42224.9
48988
48797.6
53626
54177.9
57695.7
58597.7
61205.1
62230.4
64194.3
65227.1
66729.3
67722.5
68885
69831.9
70732.7
71649.9
72331.4
73250.9
73723.9
74691.4
74933.4
76012.7
75964.4
77250.5
76807.1
78447
77439.5
79659.7
77827.6
80959.8
77928.2
104809
104762
104704
104601
104504
104357
104224
104037
103871
103656
103473
103243
103049
102794
102575
102268
102012
101639
101351
100905
100592
100047
99709.2
99032.3
98678.9
97825.2
97472.5
96377.8
96053.4
94623.8
94373.9
92471.4
92372.4
89792.7
89969.3
86406
87059.7
82048
83503.5
76330.5
79111.1
68670.6
73625.8
58188.3
66716.7
43572.6
57989
22805.9
46832.3
-7692.63
31708.9
-54144.1
11527.6
-117640
-5196.93
-72740.1
3829.1
-35253.2
15497.6
-7964.23
24789
10665.3
31894.4
23933.3
38078.6
34113.5
43790.5
42228.7
48987.7
48801.2
53626.8
54181.7
57697.4
58601.5
61207.4
62234
64196.9
65230.4
66731.7
67725.1
68887.1
69833.7
70734.4
71651.1
72333
73251.6
73725.6
74691.6
74935.5
76012.5
75967.1
77249.7
76810.4
78445.4
77443.4
79657.1
77831.5
80956.8
77931.2
104818
104769
104712
104608
104510
104362
104229
104041
103874
103659
103475
103245
103051
102795
102576
102270
102013
101641
101353
100908
100594
100050
99711.7
99035.3
98681.7
97828.7
97475.7
96382
96057
94628.7
94377.8
92477.3
92376.8
89799.7
89974.1
86414.4
87064.9
82058.2
83509.1
76342.7
79117
68685
73631.4
58204.5
66721.6
43590.3
57993.7
22825.3
46839.3
-7676.55
31714.4
-54176.6
11503.6
-117881
-5265.61
-72776
3808.98
-35251.4
15490
-7956.75
24786.1
10673.3
31892.2
23939
38076.3
34117.8
43789.1
42232.6
48987.4
48804.9
53627.6
54185.5
57699.1
58605.4
61209.8
62237.7
64199.4
65233.6
66734.1
67727.6
68889.2
69835.6
70736.2
71652.2
72334.6
73252.2
73727.3
74691.9
74937.6
76012.3
75969.8
77248.9
76813.7
78443.7
77447.2
79654.5
77835.5
80953.7
77934.2
104826
104777
104719
104615
104517
104368
104233
104045
103878
103662
103477
103246
103052
102796
102577
102271
102015
101643
101355
100910
100596
100052
99714.3
99038.4
98684.6
97832.3
97478.9
96386.2
96060.5
94633.7
94381.8
92483.2
92381.2
89806.8
89978.9
86422.9
87070.2
82068.4
83514.8
76355
79122.9
68699.4
73637.1
58220.8
66726.5
43608.1
57998.5
22844.9
46846.4
-7660.29
31720.1
-54209.2
11479.7
-118124
-5334.77
-72811.9
3788.98
-35249.5
15482.4
-7949.35
24782.9
10681.2
31889.8
23944.8
38074
34122.1
43787.6
42236.4
48987
48808.6
53628.3
54189.3
57700.8
58609.3
61212.1
62241.4
64202
65236.9
66736.5
67730.2
68891.3
69837.5
70738
71653.4
72336.2
73252.9
73729
74692.1
74939.7
76012.1
75972.5
77248.1
76817
78442.1
77451.1
79651.9
77839.5
80950.5
77937.3
104835
104785
104727
104621
104523
104373
104238
104049
103881
103664
103479
103248
103053
102797
102578
102272
102016
101645
101357
100912
100598
100055
99716.8
99041.5
98687.4
97835.9
97482.1
96390.4
96064.1
94638.7
94385.8
92489.1
92385.6
89813.9
89983.8
86431.5
87075.5
82078.7
83520.5
76367.4
79128.8
68713.9
73642.9
58237.2
66731.5
43626
58003.3
22864.6
46853.5
-7643.86
31725.9
-54241.7
11455.7
-118370
-5404.41
-72847.7
3769.11
-35247.4
15474.7
-7942.03
24779.5
10688.8
31887.2
23950.4
38071.5
34126.4
43786
42240.2
48986.6
48812.3
53629
54193.1
57702.6
58613.2
61214.5
62245.2
64204.6
65240.1
66738.9
67732.8
68893.4
69839.3
70739.7
71654.6
72337.8
73253.6
73730.8
74692.3
74941.8
76011.9
75975.2
77247.3
76820.4
78440.4
77455.1
79649.3
77843.6
80947.3
77940.4
104844
104794
104735
104628
104530
104379
104243
104053
103884
103667
103481
103249
103054
102798
102579
102274
102018
101647
101359
100914
100601
100058
99719.4
99044.7
98690.3
97839.5
97485.3
96394.7
96067.7
94643.7
94389.8
92495.1
92390
89821
89988.7
86440.1
87080.8
82089.1
83526.2
76379.8
79134.8
68728.5
73648.6
58253.7
66736.5
43644.1
58008.1
22884.5
46860.7
-7627.23
31731.9
-54274.3
11431.7
-118617
-5474.52
-72883.5
3749.36
-35245
15467.1
-7934.76
24775.9
10696.4
31884.4
23955.9
38068.9
34130.7
43784.4
42244
48986.1
48816
53629.7
54196.9
57704.3
58617.1
61216.8
62248.9
64207.1
65243.4
66741.4
67735.4
68895.5
69841.2
70741.5
71655.8
72339.4
73254.2
73732.5
74692.6
74944
76011.7
75977.9
77246.5
76823.8
78438.7
77459
79646.6
77847.7
80944.1
77943.6
104853
104802
104743
104635
104536
104385
104248
104057
103888
103669
103483
103251
103055
102799
102580
102275
102019
101649
101361
100917
100603
100061
99722
99047.8
98693.2
97843.2
97488.5
96398.9
96071.3
94648.7
94393.8
92501.1
92394.5
89828.2
89993.6
86448.7
87086.2
82099.5
83532
76392.3
79140.8
68743.3
73654.4
58270.4
66741.5
43662.3
58013
22904.5
46868
-7610.43
31738
-54306.8
11407.8
-118867
-5545.12
-72919.2
3729.74
-35242.4
15459.5
-7927.56
24772.1
10703.7
31881.5
23961.3
38066.1
34134.9
43782.7
42247.7
48985.6
48819.6
53630.3
54200.7
57705.9
58621
61219.2
62252.6
64209.7
65246.7
66743.8
67738.1
68897.6
69843.1
70743.3
71657
72341.1
73254.9
73734.2
74692.8
74946.1
76011.5
75980.6
77245.6
76827.2
78437
77463
79644
77851.8
80940.8
77946.8
104862
104810
104751
104642
104543
104390
104253
104062
103891
103672
103485
103252
103056
102800
102582
102276
102021
101650
101363
100919
100605
100063
99724.6
99051
98696.1
97846.9
97491.8
96403.3
96074.9
94653.8
94397.8
92507.1
92399
89835.5
89998.5
86457.4
87091.6
82110
83537.8
76404.9
79146.9
68758.1
73660.3
58287.1
66746.6
43680.5
58017.9
22924.6
46875.3
-7593.43
31744.3
-54339.4
11383.8
-119118
-5616.19
-72954.9
3710.25
-35239.5
15451.9
-7920.39
24768.2
10710.9
31878.3
23966.7
38063.3
34139
43781
42251.4
48985
48823.3
53631
54204.5
57707.6
58624.9
61221.5
62256.4
64212.3
65250
66746.3
67740.7
68899.7
69845
70745.1
71658.2
72342.7
73255.5
73736
74693
74948.3
76011.3
75983.4
77244.8
76830.6
78435.3
77467
79641.2
77856
80937.5
77950
104871
104818
104759
104650
104549
104396
104259
104066
103895
103675
103487
103254
103058
102801
102583
102278
102022
101652
101365
100921
100608
100066
99727.2
99054.1
98699.1
97850.6
97495.1
96407.6
96078.6
94658.9
94401.9
92513.2
92403.5
89842.7
90003.5
86466.2
87097
82120.6
83543.7
76417.6
79153
68773
73666.1
58303.9
66751.7
43698.9
58022.8
22944.9
46882.8
-7576.24
31750.7
-54371.9
11359.9
-119372
-5687.74
-72990.5
3690.88
-35236.4
15444.4
-7913.27
24764
10717.9
31874.9
23971.9
38060.3
34143.1
43779.2
42255.1
48984.4
48826.9
53631.6
54208.3
57709.2
58628.8
61223.8
62260.1
64214.8
65253.3
66748.7
67743.3
68901.9
69846.8
70746.9
71659.4
72344.3
73256.2
73737.7
74693.3
74950.4
76011.1
75986.1
77244
76834
78433.6
77471
79638.5
77860.2
80934.2
77953.3
104880
104827
104767
104657
104556
104402
104264
104070
103898
103677
103489
103255
103059
102802
102584
102279
102024
101654
101367
100924
100610
100069
99729.9
99057.3
98702
97854.3
97498.4
96411.9
96082.3
94664.1
94406
92519.3
92408
89850
90008.5
86475
87102.5
82131.2
83549.6
76430.3
79159.1
68787.9
73672
58320.9
66756.8
43717.5
58027.8
22965.3
46890.3
-7558.86
31757.3
-54404.5
11335.9
-119627
-5759.77
-73026
3671.65
-35233.1
15437
-7906.17
24759.6
10724.8
31871.3
23976.9
38057.2
34147.2
43777.3
42258.8
48983.8
48830.5
53632.1
54212.1
57710.9
58632.6
61226.1
62263.8
64217.4
65256.6
66751.2
67745.9
68904
69848.7
70748.7
71660.6
72345.9
73256.8
73739.5
74693.5
74952.6
76010.8
75988.9
77243.1
76837.5
78431.8
77475.1
79635.7
77864.5
80930.8
77956.6
104889
104835
104775
104664
104563
104407
104269
104074
103902
103680
103492
103257
103060
102803
102585
102280
102025
101656
101369
100926
100612
100072
99732.5
99060.6
98705
97858