/*--------------------------------*- C++ -*----------------------------------*\
| =========                 |                                                 |
| \\      /  F ield         | OpenFOAM: The Open Source CFD Toolbox           |
|  \\    /   O peration     | Version:  2412                                  |
|   \\  /    A nd           | Website:  www.openfoam.com                      |
|    \\/     M anipulation  |                                                 |
\*---------------------------------------------------------------------------*/
FoamFile
{
    version     2.0;
    format      ascii;
    arch        "LSB;label=32;scalar=64";
    class       surfaceScalarField;
    location    "0.9";
    object      phi;
}
// * * * * * * * * * * * * * * * * * * * * * * * * * * * * * * * * * * * * * //

dimensions      [0 3 -1 0 0 0 0];

oriented        oriented;

internalField   nonuniform List<scalar> 
25689
(
0.00747806
0.0133236
0.00739631
0.011583
0.00732887
0.0100102
0.00727281
0.00870353
0.00722606
0.00756945
0.00718688
0.00647359
0.00715591
0.00499794
0.00713423
0.00288365
0.00712356
0.000104258
0.00712578
-0.00299999
0.00714301
-0.00594593
0.00717669
-0.00828412
0.00722599
-0.00971501
0.00728709
-0.0101725
0.00735313
-0.00975297
0.00741662
-0.00876094
0.00747177
-0.00750931
0.00751721
-0.00637976
0.00755442
-0.00545712
0.00758645
-0.00481471
0.00761474
-0.0042679
0.00764051
-0.00385774
0.00766349
-0.00341839
0.00768472
-0.00312801
0.00770347
-0.00275511
0.00772104
-0.00255966
0.00773627
-0.00222379
0.00775081
-0.00210672
0.00776287
-0.00176538
0.00777487
-0.00173698
0.00778404
-0.00135661
0.00779379
-0.00141166
0.00780013
-0.000956571
0.00780795
-0.00112655
0.0078115
-0.000563566
0.00781767
-0.00087811
0.00781821
-0.000153338
0.00782295
-0.000682373
0.00782002
0.000270424
0.00782333
-0.000557555
0.00781669
0.00062688
0.00781971
-0.000683054
0.0078111
0.000674616
0.00781787
-0.00131058
0.00781263
0.000211384
0.00782962
-0.0023612
0.00783158
-0.000130313
0.00785411
-0.00197359
0.0078493
0.00216789
0.00784213
0.00414042
0.00779138
0.0109973
0.00764398
0.026561
0.00737315
0.0433885
0.00743684
-0.00902323
0.00763166
-0.0301445
0.00774573
-0.0169343
0.00778455
-0.00741
0.00781917
-0.00686755
0.00782236
-0.00211852
0.00782761
-0.0018934
0.00780991
0.00140884
0.00779983
0.000663749
0.00777948
0.00230779
0.00777114
0.00103284
0.00775889
0.00175976
0.00775725
0.000513431
0.00775315
0.000908274
0.00775669
-3.39947e-05
0.00775805
0.000282121
0.00776434
-0.000347572
0.00776815
-5.01592e-05
0.00777414
-0.000380497
0.007777
-4.30265e-05
0.00777987
-0.00011703
0.00777922
0.000262429
0.00777725
0.000361708
0.00777189
0.000734449
0.00776466
0.000920628
0.00775472
0.00121885
0.00774319
0.00139145
0.00772997
0.00157701
0.00771577
0.00170264
0.00770117
0.00175073
0.00768622
0.00182514
0.00767197
0.00174365
0.0076576
0.00179883
0.00764457
0.00161985
0.00763099
0.00169677
0.00761916
0.00142196
0.0076057
0.00157222
0.00759444
0.00120242
0.00758023
0.00142103
0.00756914
0.000928743
0.00755383
0.0011661
0.00754309
0.00053411
0.00752772
0.000651174
0.00751873
-0.000128498
0.00750735
-0.000313978
-0.00173851
0.0074781
0.0134213
0.00739647
0.0116647
0.00732922
0.0100774
0.00727339
0.00875936
0.00722689
0.00761595
0.00718795
0.00651253
0.00715713
0.00502876
0.00713547
0.00290532
0.0071246
0.000115122
0.00712641
-0.0030018
0.00714305
-0.00596258
0.00717606
-0.00831713
0.00722473
-0.00976369
0.00728537
-0.0102332
0.00735117
-0.00981877
0.0074146
-0.00882438
0.00746976
-0.00756447
0.0075152
-0.0064252
0.00755236
-0.00549428
0.00758433
-0.00484667
0.00761253
-0.00429611
0.00763824
-0.00388345
0.00766117
-0.00344132
0.00768236
-0.0031492
0.00770107
-0.00277382
0.00771861
-0.0025772
0.00773381
-0.00223899
0.00774833
-0.00212124
0.00776037
-0.00177741
0.00777235
-0.00174896
0.00778149
-0.00136575
0.00779123
-0.00142139
0.00779754
-0.000962884
0.00780535
-0.00113436
0.00780888
-0.000567096
0.00781503
-0.000884263
0.00781556
-0.000153863
0.00782027
-0.00068709
0.00781732
0.000273373
0.00782061
-0.000560838
0.00781391
0.000633575
0.00781688
-0.000686026
0.00780819
0.00068331
0.00781489
-0.00131728
0.00780957
0.000216705
0.00782655
-0.00237819
0.00782856
-0.00013232
0.00785129
-0.00199631
0.00784674
0.00217244
0.00784008
0.00414708
0.00779
0.0110474
0.00764374
0.0267073
0.0073742
0.0436581
0.00743792
-0.00908694
0.00763213
-0.0303387
0.00774591
-0.017048
0.00778436
-0.00744845
0.00781856
-0.00690175
0.00782143
-0.00212139
0.00782642
-0.00189839
0.0078085
0.00142676
0.00779825
0.000674006
0.00777778
0.00232825
0.00776938
0.00104124
0.0077571
0.00177203
0.00775547
0.000515063
0.00775138
0.000912367
0.00775494
-3.75574e-05
0.00775633
0.000280732
0.00776265
-0.000353892
0.00776649
-5.40036e-05
0.00777251
-0.000386514
0.0077754
-4.59177e-05
0.00777829
-0.00011992
0.00777765
0.000263065
0.00777569
0.000363669
0.00777033
0.000739816
0.00776309
0.000927867
0.00775313
0.00122881
0.00774156
0.00140302
0.00772832
0.00159025
0.00771409
0.00171687
0.00769945
0.00176537
0.00768447
0.00184011
0.00767021
0.00175791
0.00765583
0.00181321
0.00764279
0.00163289
0.0076292
0.00171036
0.00761737
0.00143379
0.00760389
0.0015857
0.0075926
0.00121371
0.00757835
0.00143528
0.00756721
0.00093988
0.00755181
0.00118151
0.00754098
0.00054494
0.00752544
0.00066671
0.00751631
-0.000119364
0.00750468
-0.000302348
-0.00173901
0.00747814
0.0135189
0.00739663
0.0117462
0.00732957
0.0101445
0.00727398
0.00881495
0.00722773
0.00766219
0.00718903
0.00655122
0.00715838
0.00505942
0.00713672
0.00292698
0.00712566
0.000126181
0.00712705
-0.00300319
0.0071431
-0.00597862
0.00717542
-0.00834945
0.00722346
-0.00981173
0.00728363
-0.0102933
0.00734918
-0.00988432
0.00741255
-0.00888775
0.00746772
-0.00761964
0.00751316
-0.00647064
0.00755028
-0.0055314
0.00758217
-0.00487856
0.00761031
-0.00432425
0.00763596
-0.0039091
0.00765883
-0.00346419
0.00767998
-0.00317034
0.00769865
-0.0027925
0.00771616
-0.00259471
0.00773133
-0.00225416
0.00774583
-0.00213574
0.00775784
-0.00178943
0.0077698
-0.00176092
0.00777893
-0.00137488
0.00778864
-0.00143111
0.00779494
-0.000969178
0.00780273
-0.00114215
0.00780624
-0.000570606
0.00781238
-0.000890401
0.00781288
-0.000154369
0.00781758
-0.000691792
0.00781461
0.000276349
0.00781787
-0.000564095
0.00781112
0.000640321
0.00781404
-0.000688947
0.00780526
0.000692089
0.00781189
-0.00132391
0.00780649
0.000222106
0.00782347
-0.00239517
0.00782551
-0.000134366
0.00784843
-0.00201923
0.00784415
0.00217673
0.007838
0.00415322
0.0077886
0.0110968
0.0076435
0.0268524
0.00737527
0.0439263
0.00743902
-0.00915069
0.00763262
-0.0305323
0.00774612
-0.0171615
0.00778419
-0.00748652
0.00781797
-0.00693553
0.00782051
-0.00212393
0.00782523
-0.00190311
0.00780709
0.00144489
0.00779666
0.00068444
0.00777607
0.00234884
0.00776761
0.00104971
0.00775531
0.00178433
0.00775368
0.000516692
0.0077496
0.00091645
0.00775318
-4.11406e-05
0.00775459
0.000279319
0.00776094
-0.000360243
0.00776482
-5.78812e-05
0.00777087
-0.000392564
0.00777379
-4.88369e-05
0.0077767
-0.000122833
0.00777608
0.000263687
0.00777413
0.000365623
0.00776876
0.000745186
0.00776151
0.000935118
0.00775153
0.00123879
0.00773994
0.00141461
0.00772666
0.00160353
0.0077124
0.00173114
0.00769773
0.00178004
0.00768273
0.00185511
0.00766844
0.00177219
0.00765405
0.0018276
0.007641
0.00164594
0.00762741
0.00172395
0.00761556
0.00144564
0.00760207
0.00159919
0.00759077
0.00122501
0.00757647
0.00144957
0.00756528
0.000951069
0.00754978
0.00119701
0.00753886
0.000555862
0.00752315
0.00068242
0.00751387
-0.000110085
0.00750199
-0.000290469
-0.00173933
0.00747819
0.0136165
0.0073968
0.0118276
0.00732992
0.0102113
0.00727457
0.0088703
0.00722859
0.00770818
0.00719013
0.00658968
0.00715963
0.00508991
0.00713798
0.00294862
0.00712673
0.000137435
0.00712771
-0.00300417
0.00714316
-0.00599407
0.00717479
-0.00838108
0.00722219
-0.00985912
0.00728188
-0.010353
0.00734717
-0.00994961
0.00741048
-0.00895105
0.00746566
-0.00767483
0.00751111
-0.00651608
0.00754819
-0.00556848
0.00758001
-0.00491038
0.00760807
-0.00435231
0.00763366
-0.00393468
0.00765648
-0.00348701
0.00767758
-0.00319144
0.00769622
-0.00281114
0.0077137
-0.00261219
0.00772884
-0.0022693
0.00774331
-0.00215021
0.0077553
-0.00180141
0.00776724
-0.00177285
0.00777634
-0.00138399
0.00778604
-0.00144081
0.00779231
-0.000975452
0.00780009
-0.00114993
0.00780358
-0.000574097
0.00780971
-0.000896525
0.00781019
-0.000154854
0.00781488
-0.000696478
0.00781187
0.000279352
0.00781511
-0.000567327
0.00780831
0.000647116
0.00781118
-0.000691814
0.00780231
0.000700954
0.00780887
-0.00133047
0.00780339
0.00022759
0.00782036
-0.00241214
0.00782244
-0.000136452
0.00784556
-0.00204235
0.00784154
0.00218075
0.00783592
0.00415884
0.00778719
0.0111455
0.00764325
0.0269963
0.00737634
0.0441932
0.00744013
-0.00921447
0.00763312
-0.0307253
0.00774633
-0.0172747
0.00778402
-0.00752421
0.00781738
-0.00696889
0.00781959
-0.00212613
0.00782404
-0.00190756
0.00780568
0.00146326
0.00779506
0.000695052
0.00777435
0.00236955
0.00776583
0.00105823
0.0077535
0.00179666
0.00775188
0.000518319
0.00774781
0.000920521
0.00775141
-4.47447e-05
0.00775285
0.000277881
0.00775923
-0.000366628
0.00776314
-6.17922e-05
0.00776923
-0.000398648
0.00777217
-5.17845e-05
0.00777511
-0.000125769
0.0077745
0.000264295
0.00777256
0.00036757
0.00776718
0.000750559
0.00775992
0.00094238
0.00774992
0.00124879
0.0077383
0.00142622
0.00772499
0.00161684
0.0077107
0.00174544
0.007696
0.00179474
0.00768097
0.00187014
0.00766667
0.00178649
0.00765226
0.00184201
0.0076392
0.001659
0.00762561
0.00173754
0.00761375
0.00145749
0.00760025
0.00161269
0.00758892
0.00123635
0.00757458
0.00146391
0.00756334
0.00096231
0.00754774
0.00121261
0.00753672
0.000566877
0.00752084
0.000698304
0.00751141
-0.000100659
0.00749928
-0.000278337
-0.00173946
0.00747823
0.013714
0.00739697
0.0119088
0.00733029
0.010278
0.00727517
0.00892542
0.00722945
0.0077539
0.00719124
0.00662789
0.0071609
0.00512025
0.00713926
0.00297026
0.00712782
0.00014888
0.00712839
-0.00300474
0.00714324
-0.00600892
0.00717418
-0.00841202
0.00722092
-0.00990587
0.00728013
-0.0104122
0.00734516
-0.0100146
0.00740839
-0.00901428
0.00746359
-0.00773003
0.00750904
-0.00656153
0.00754607
-0.00560552
0.00757783
-0.00494213
0.00760582
-0.00438031
0.00763134
-0.0039602
0.00765411
-0.00350978
0.00767517
-0.0032125
0.00769377
-0.00282974
0.00771121
-0.00262964
0.00772633
-0.00228442
0.00774077
-0.00216465
0.00775274
-0.00181338
0.00776466
-0.00178477
0.00777374
-0.00139307
0.00778342
-0.00145049
0.00778968
-0.000981706
0.00779744
-0.00115769
0.00780091
-0.000577568
0.00780702
-0.000902634
0.00780748
-0.000155319
0.00781215
-0.000701149
0.00780912
0.000282382
0.00781233
-0.000570534
0.00780548
0.000653962
0.0078083
-0.000694629
0.00779935
0.000709905
0.00780583
-0.00133695
0.00780027
0.000233156
0.00781723
-0.0024291
0.00781935
-0.000138575
0.00784267
-0.00206566
0.00783891
0.00218451
0.00783381
0.00416393
0.00778577
0.0111936
0.007643
0.0271391
0.00737743
0.0444588
0.00744125
-0.00927829
0.00763363
-0.0309177
0.00774656
-0.0173877
0.00778388
-0.00756153
0.00781681
-0.00700182
0.00781867
-0.00212799
0.00782285
-0.00191174
0.00780426
0.00148185
0.00779346
0.00070585
0.00777263
0.00239038
0.00776403
0.00106682
0.00775169
0.001809
0.00775007
0.000519941
0.00774601
0.000924581
0.00774963
-4.83698e-05
0.00775109
0.000276418
0.00775751
-0.000373045
0.00776146
-6.5737e-05
0.00776757
-0.000404767
0.00777055
-5.47604e-05
0.00777351
-0.000128728
0.00777292
0.000264888
0.00777098
0.00036951
0.0077656
0.000755935
0.00775833
0.000949654
0.00774831
0.00125881
0.00773666
0.00143787
0.00772332
0.00163018
0.00770899
0.00175977
0.00769425
0.00180948
0.0076792
0.00188519
0.00766488
0.00180082
0.00765046
0.00185643
0.00763739
0.00167207
0.0076238
0.00175114
0.00761193
0.00146935
0.00759842
0.00162621
0.00758706
0.0012477
0.00757268
0.00147829
0.00756138
0.000973604
0.00754569
0.00122831
0.00753458
0.000577986
0.00751852
0.000714364
0.00750894
-9.10851e-05
0.00749656
-0.00026595
-0.00173941
0.00747828
0.0138115
0.00739714
0.01199
0.00733065
0.0103445
0.00727577
0.0089803
0.00723032
0.00779935
0.00719235
0.00666586
0.00716219
0.00515041
0.00714056
0.00299189
0.00712893
0.000160518
0.00712908
-0.00300489
0.00714333
-0.00602317
0.00717358
-0.00844227
0.00721966
-0.00995195
0.00727837
-0.0104709
0.00734313
-0.0100794
0.00740628
-0.00907743
0.0074615
-0.00778525
0.00750695
-0.00660698
0.00754395
-0.00564252
0.00757563
-0.00497382
0.00760355
-0.00440823
0.00762901
-0.00398566
0.00765173
-0.00353249
0.00767274
-0.00323351
0.0076913
-0.0028483
0.00770872
-0.00264705
0.0077238
-0.0022995
0.00773822
-0.00217907
0.00775016
-0.00182532
0.00776206
-0.00179667
0.00777112
-0.00140214
0.00778079
-0.00146015
0.00778702
-0.00098794
0.00779476
-0.00116543
0.00779822
-0.000581021
0.00780431
-0.000908728
0.00780476
-0.000155764
0.00780941
-0.000705805
0.00780635
0.000285439
0.00780954
-0.000573715
0.00780264
0.000660857
0.0078054
-0.00069739
0.00779636
0.000718943
0.00780277
-0.00134336
0.00779712
0.000238806
0.00781408
-0.00244605
0.00781624
-0.000140738
0.00783975
-0.00208917
0.00783626
0.002188
0.00783169
0.0041685
0.00778433
0.0112409
0.00764274
0.0272807
0.00737852
0.044723
0.00744238
-0.00934216
0.00763416
-0.0311095
0.0077468
-0.0175003
0.00778374
-0.00759847
0.00781624
-0.00703433
0.00781777
-0.00212952
0.00782167
-0.00191564
0.00780283
0.00150068
0.00779185
0.000716835
0.00777089
0.00241134
0.00776223
0.00107548
0.00774986
0.00182137
0.00774824
0.000521559
0.0077442
0.000928628
0.00774784
-5.2016e-05
0.00774933
0.000274928
0.00775578
-0.000379495
0.00775976
-6.97156e-05
0.00776591
-0.000410919
0.00776892
-5.77656e-05
0.0077719
-0.000131712
0.00777132
0.000265466
0.00776939
0.000371444
0.00776401
0.000761315
0.00775672
0.000956939
0.00774668
0.00126885
0.00773501
0.00144954
0.00772164
0.00164356
0.00770727
0.00177413
0.0076925
0.00182425
0.00767743
0.00190026
0.00766308
0.00181517
0.00764865
0.00187086
0.00763558
0.00168515
0.00762197
0.00176474
0.0076101
0.00148122
0.00759657
0.00163974
0.00758519
0.00125908
0.00757077
0.00149272
0.00755942
0.000984951
0.00754363
0.0012441
0.00753242
0.00058919
0.00751618
0.000730603
0.00750646
-8.13616e-05
0.00749381
-0.000253304
-0.00173917
0.00747833
0.0139089
0.00739731
0.012071
0.00733102
0.0104108
0.00727639
0.00903493
0.0072312
0.00784454
0.00719348
0.00670358
0.00716348
0.00518041
0.00714188
0.00301349
0.00713005
0.000172345
0.00712979
-0.00300463
0.00714344
-0.00603682
0.00717299
-0.00847182
0.00721841
-0.00999737
0.00727661
-0.0105291
0.0073411
-0.0101439
0.00740417
-0.0091405
0.00745939
-0.00784047
0.00750485
-0.00665244
0.00754181
-0.00567948
0.00757342
-0.00500543
0.00760127
-0.00443608
0.00762667
-0.00401105
0.00764933
-0.00355515
0.00767029
-0.00325448
0.00768882
-0.00286683
0.0077062
-0.00266444
0.00772126
-0.00231456
0.00773566
-0.00219347
0.00774757
-0.00183724
0.00775945
-0.00180854
0.00776849
-0.00141118
0.00777814
-0.00146979
0.00778435
-0.000994155
0.00779208
-0.00117316
0.00779551
-0.000584453
0.00780159
-0.000914807
0.00780201
-0.000156188
0.00780665
-0.000710445
0.00780357
0.000288523
0.00780673
-0.000576871
0.00779978
0.000667803
0.00780249
-0.000700098
0.00779336
0.000728069
0.0077997
-0.0013497
0.00779396
0.000244542
0.00781091
-0.002463
0.00781311
-0.000142937
0.00783682
-0.00211288
0.00783359
0.00219123
0.00782955
0.00417254
0.00778287
0.0112876
0.00764247
0.0274211
0.00737962
0.0449859
0.00744353
-0.00940607
0.00763469
-0.0313007
0.00774705
-0.0176127
0.00778362
-0.00763503
0.00781569
-0.0070664
0.00781687
-0.00213069
0.00782048
-0.00191926
0.00780141
0.00151976
0.00779023
0.000728014
0.00776913
0.00243244
0.00776042
0.0010842
0.00774802
0.00183377
0.00774641
0.000523172
0.00774237
0.000932663
0.00774604
-5.56843e-05
0.00774756
0.000273413
0.00775404
-0.000385979
0.00775805
-7.37291e-05
0.00776424
-0.000417106
0.00776728
-6.08e-05
0.00777028
-0.000134719
0.00776972
0.000266029
0.00776779
0.000373371
0.00776241
0.000766697
0.00775511
0.000964236
0.00774505
0.00127892
0.00773335
0.00146124
0.00771994
0.00165697
0.00770555
0.00178853
0.00769074
0.00183905
0.00767564
0.00191536
0.00766127
0.00182953
0.00764683
0.0018853
0.00763375
0.00169824
0.00762014
0.00177835
0.00760826
0.0014931
0.00759472
0.00165328
0.00758332
0.00127048
0.00756885
0.00150719
0.00755745
0.000996352
0.00754155
0.00126
0.00753026
0.00060049
0.00751384
0.000747021
0.00750396
-7.14868e-05
0.00749105
-0.000240396
-0.00173874
0.00747837
0.0140063
0.00739748
0.0121519
0.00733139
0.0104769
0.007277
0.00908932
0.00723209
0.00788945
0.00719463
0.00674104
0.0071648
0.00521024
0.00714321
0.00303508
0.00713119
0.00018436
0.00713052
-0.00300397
0.00714357
-0.00604987
0.00717241
-0.00850066
0.00721715
-0.0100421
0.00727484
-0.0105868
0.00733905
-0.0102081
0.00740203
-0.00920348
0.00745727
-0.00789571
0.00750273
-0.0066979
0.00753965
-0.0057164
0.0075712
-0.00503698
0.00759898
-0.00446385
0.00762431
-0.00403638
0.00764691
-0.00357776
0.00766783
-0.0032754
0.00768632
-0.00288531
0.00770367
-0.00268179
0.0077187
-0.00232959
0.00773307
-0.00220784
0.00774497
-0.00184913
0.00775682
-0.0018204
0.00776584
-0.0014202
0.00777547
-0.00147942
0.00778166
-0.00100035
0.00778937
-0.00118087
0.00779279
-0.000587867
0.00779885
-0.000920872
0.00779925
-0.000156591
0.00780388
-0.000715071
0.00780077
0.000291635
0.0078039
-0.000580001
0.0077969
0.0006748
0.00779956
-0.000702753
0.00779034
0.000737283
0.0077966
-0.00135596
0.00779078
0.000250364
0.00780772
-0.00247993
0.00780995
-0.000145175
0.00783386
-0.00213679
0.0078309
0.0021942
0.00782739
0.00417605
0.00778141
0.0113336
0.0076422
0.0275603
0.00738072
0.0452474
0.00744469
-0.00947004
0.00763524
-0.0314912
0.00774732
-0.0177248
0.00778351
-0.00767123
0.00781516
-0.00709804
0.00781598
-0.00213151
0.0078193
-0.00192258
0.00779998
0.00153908
0.0077886
0.000739389
0.00776737
0.00245367
0.00775859
0.00109298
0.00774617
0.00184618
0.00774456
0.000524781
0.00774054
0.000936685
0.00774423
-5.93747e-05
0.00774577
0.000271872
0.00775229
-0.000392498
0.00775634
-7.77772e-05
0.00776256
-0.000423329
0.00776563
-6.38643e-05
0.00776866
-0.00013775
0.00776811
0.000266577
0.00776619
0.000375291
0.0077608
0.000772083
0.0077535
0.000971545
0.00774341
0.001289
0.00773168
0.00147296
0.00771824
0.00167041
0.00770381
0.00180296
0.00768897
0.00185388
0.00767385
0.00193049
0.00765946
0.00184392
0.00764501
0.00189975
0.00763191
0.00171133
0.0076183
0.00179196
0.00760642
0.00150499
0.00759286
0.00166684
0.00758143
0.00128191
0.00756692
0.0015217
0.00755546
0.00100781
0.00753947
0.00127599
0.00752808
0.000611886
0.00751148
0.00076362
0.00750145
-6.14592e-05
0.00748828
-0.000227223
-0.00173813
0.00747842
0.0141036
0.00739766
0.0122326
0.00733177
0.0105428
0.00727763
0.00914346
0.00723299
0.00793409
0.00719578
0.00677825
0.00716612
0.0052399
0.00714455
0.00305665
0.00713235
0.000196562
0.00713127
-0.00300289
0.00714371
-0.00606231
0.00717185
-0.0085288
0.00721591
-0.0100862
0.00727308
-0.010644
0.00733698
-0.010272
0.00739988
-0.00926638
0.00745513
-0.00795096
0.0075006
-0.00674337
0.00753748
-0.00575329
0.00756896
-0.00506846
0.00759667
-0.00449156
0.00762193
-0.00406165
0.00764448
-0.00360031
0.00766536
-0.00329627
0.00768381
-0.00290376
0.00770113
-0.00269911
0.00771613
-0.00234459
0.00773047
-0.00222219
0.00774234
-0.001861
0.00775418
-0.00183223
0.00776318
-0.0014292
0.00777278
-0.00148902
0.00777896
-0.00100652
0.00778665
-0.00118857
0.00779004
-0.00059126
0.00779609
-0.000926922
0.00779648
-0.000156974
0.00780109
-0.00071968
0.00779795
0.000294773
0.00780105
-0.000583106
0.00779401
0.000681848
0.00779661
-0.000705353
0.0077873
0.000746586
0.00779349
-0.00136215
0.00778758
0.000256272
0.00780451
-0.00249686
0.00780678
-0.00014745
0.00783089
-0.0021609
0.00782819
0.00219689
0.00782522
0.00417903
0.00777993
0.0113789
0.00764193
0.0276983
0.00738184
0.0455074
0.00744586
-0.00953406
0.0076358
-0.0316811
0.0077476
-0.0178366
0.00778342
-0.00770705
0.00781463
-0.00712925
0.0078151
-0.00213198
0.00781812
-0.0019256
0.00779855
0.00155865
0.00778697
0.000750968
0.0077656
0.00247503
0.00775675
0.00110183
0.00774431
0.00185862
0.00774271
0.000526384
0.0077387
0.000940694
0.00774241
-6.30868e-05
0.00774398
0.000270303
0.00775053
-0.00039905
0.00775462
-8.1861e-05
0.00776088
-0.000429588
0.00776397
-6.69581e-05
0.00776703
-0.000140805
0.00776649
0.00026711
0.00776458
0.000377204
0.00775919
0.000777473
0.00775187
0.000978866
0.00774176
0.00129911
0.00773001
0.00148472
0.00771653
0.00168389
0.00770206
0.00181742
0.0076872
0.00186875
0.00767204
0.00194565
0.00765763
0.00185833
0.00764317
0.00191421
0.00763006
0.00172444
0.00761645
0.00180557
0.00760456
0.00151688
0.00759099
0.00168041
0.00757954
0.00129336
0.00756498
0.00153625
0.00755347
0.00101932
0.00753738
0.00129208
0.00752589
0.000623379
0.0075091
0.000780402
0.00749892
-5.12772e-05
0.00748548
-0.00021378
-0.00173731
0.00747847
0.0142009
0.00739784
0.0123133
0.00733215
0.0106085
0.00727826
0.00919735
0.0072339
0.00797845
0.00719695
0.00681521
0.00716747
0.00526938
0.00714592
0.0030782
0.00713353
0.00020895
0.00713204
-0.0030014
0.00714388
-0.00607415
0.0071713
-0.00855622
0.00721467
-0.0101295
0.00727131
-0.0107006
0.00733491
-0.0103356
0.00739771
-0.00932917
0.00745297
-0.00800621
0.00749845
-0.00678885
0.0075353
-0.00579014
0.00756671
-0.00509988
0.00759434
-0.00451919
0.00761954
-0.00408685
0.00764204
-0.0036228
0.00766287
-0.00331711
0.00768128
-0.00292217
0.00769857
-0.00271639
0.00771354
-0.00235956
0.00772786
-0.00223651
0.00773971
-0.00187285
0.00775152
-0.00184404
0.0077605
-0.00143818
0.00777008
-0.00149861
0.00777624
-0.00101268
0.00778391
-0.00119624
0.00778729
-0.000594633
0.00779332
-0.000932957
0.00779368
-0.000157336
0.00779828
-0.000724274
0.00779511
0.00029794
0.00779819
-0.000586185
0.00779109
0.000688948
0.00779364
-0.000707899
0.00778424
0.000755979
0.00779036
-0.00136826
0.00778436
0.000262269
0.00780127
-0.00251377
0.00780358
-0.000149761
0.00782789
-0.00218521
0.00782547
0.00219932
0.00782303
0.00418146
0.00777843
0.0114235
0.00764164
0.0278351
0.00738296
0.0457661
0.00744705
-0.00959815
0.00763637
-0.0318705
0.0077479
-0.0179481
0.00778335
-0.00774251
0.00781412
-0.00716002
0.00781423
-0.00213208
0.00781695
-0.00192832
0.00779711
0.00157849
0.00778532
0.000762754
0.00776382
0.00249653
0.0077549
0.00111075
0.00774244
0.00187109
0.00774084
0.000527981
0.00773685
0.000944689
0.00774058
-6.68224e-05
0.00774218
0.000268708
0.00774877
-0.000405638
0.00775289
-8.59805e-05
0.00775918
-0.000435882
0.00776231
-7.00822e-05
0.00776539
-0.000143886
0.00776487
0.000267627
0.00776296
0.00037911
0.00775757
0.000782865
0.00775024
0.000986199
0.00774011
0.00130924
0.00772832
0.00149651
0.00771481
0.0016974
0.00770031
0.00183192
0.00768541
0.00188366
0.00767023
0.00196083
0.00765579
0.00187277
0.00764132
0.00192869
0.0076282
0.00173755
0.00761459
0.00181918
0.00760269
0.00152879
0.00758911
0.00169399
0.00757763
0.00130484
0.00756303
0.00155085
0.00755147
0.00103088
0.00753527
0.00130827
0.00752368
0.00063497
0.00750672
0.000797369
0.00749638
-4.09393e-05
0.00748266
-0.000200065
-0.00173631
0.00747852
0.0142982
0.00739802
0.0123938
0.00733254
0.010674
0.0072789
0.00925098
0.00723482
0.00802253
0.00719813
0.0068519
0.00716882
0.00529868
0.0071473
0.00309973
0.00713473
0.000221521
0.00713283
-0.0029995
0.00714406
-0.00608538
0.00717077
-0.00858293
0.00721344
-0.0101722
0.00726953
-0.0107567
0.00733283
-0.0103989
0.00739553
-0.00939187
0.00745079
-0.00806148
0.00749628
-0.00683434
0.0075331
-0.00582695
0.00756444
-0.00513122
0.007592
-0.00454675
0.00761714
-0.00411199
0.00763958
-0.00364525
0.00766037
-0.00333789
0.00767874
-0.00294054
0.00769599
-0.00273365
0.00771093
-0.0023745
0.00772523
-0.00225081
0.00773705
-0.00188467
0.00774884
-0.00185583
0.0077578
-0.00144713
0.00776737
-0.00150818
0.0077735
-0.00101881
0.00778116
-0.00120391
0.00778451
-0.000597987
0.00779053
-0.000938977
0.00779087
-0.000157676
0.00779545
-0.000728853
0.00779226
0.000301133
0.00779531
-0.000589239
0.00778816
0.000696099
0.00779065
-0.000710391
0.00778117
0.000765463
0.0077872
-0.00137429
0.00778112
0.000268355
0.00779802
-0.00253067
0.00780037
-0.000152108
0.00782488
-0.00220972
0.00782272
0.00220147
0.00782082
0.00418337
0.00777692
0.0114674
0.00764136
0.0279707
0.00738409
0.0460234
0.00744825
-0.00966231
0.00763695
-0.0320592
0.00774821
-0.0180593
0.0077833
-0.0077776
0.00781363
-0.00719035
0.00781337
-0.00213182
0.00781578
-0.00193073
0.00779568
0.00159859
0.00778368
0.000774753
0.00776203
0.00251818
0.00775305
0.00111973
0.00774056
0.00188357
0.00773897
0.000529572
0.00773499
0.00094867
0.00773875
-7.0581e-05
0.00774037
0.000267085
0.00774699
-0.000412261
0.00775115
-9.01358e-05
0.00775748
-0.000442212
0.00776063
-7.32366e-05
0.00776374
-0.000146991
0.00776323
0.00026813
0.00776134
0.000381008
0.00775594
0.000788261
0.0077486
0.000993544
0.00773844
0.00131939
0.00772663
0.00150832
0.00771308
0.00171095
0.00769855
0.00184646
0.00768361
0.00189859
0.0076684
0.00197604
0.00765395
0.00188722
0.00763946
0.00194317
0.00762634
0.00175067
0.00761272
0.0018328
0.00760081
0.0015407
0.00758721
0.00170759
0.00757571
0.00131634
0.00756107
0.0015655
0.00754945
0.0010425
0.00753316
0.00132456
0.00752147
0.000646661
0.00750432
0.000814522
0.00749382
-3.04439e-05
0.00747983
-0.000186075
-0.0017351
0.00747857
0.0143953
0.0073982
0.0124741
0.00733293
0.0107392
0.00727955
0.00930436
0.00723575
0.00806633
0.00719932
0.00688834
0.0071702
0.0053278
0.0071487
0.00312123
0.00713594
0.000234273
0.00713364
-0.00299719
0.00714426
-0.00609601
0.00717025
-0.00860891
0.00721222
-0.0102142
0.00726776
-0.0108123
0.00733074
-0.0104619
0.00739333
-0.00945447
0.0074486
-0.00811675
0.0074941
-0.00687984
0.00753088
-0.00586373
0.00756216
-0.0051625
0.00758965
-0.00457423
0.00761472
-0.00413706
0.00763711
-0.00366763
0.00765785
-0.00335863
0.00767618
-0.00295887
0.0076934
-0.00275087
0.00770831
-0.00238941
0.00772258
-0.00226508
0.00773438
-0.00189647
0.00774615
-0.0018676
0.00775508
-0.00145607
0.00776463
-0.00151773
0.00777075
-0.00102492
0.00777839
-0.00121155
0.00778172
-0.00060132
0.00778773
-0.000944981
0.00778805
-0.000157996
0.00779261
-0.000733416
0.00778939
0.000304355
0.00779242
-0.000592267
0.00778521
0.000703301
0.00778765
-0.000712827
0.00777808
0.000775037
0.00778403
-0.00138025
0.00777786
0.000274532
0.00779475
-0.00254756
0.00779713
-0.000154491
0.00782184
-0.00223444
0.00781996
0.00220336
0.0078186
0.00418473
0.00777539
0.0115106
0.00764106
0.028105
0.00738524
0.0462792
0.00744947
-0.00972654
0.00763755
-0.0322472
0.00774854
-0.0181703
0.00778326
-0.00781232
0.00781315
-0.00722024
0.00781252
-0.00213119
0.00781461
-0.00193282
0.00779424
0.00161896
0.00778202
0.000786971
0.00776023
0.00253997
0.00775118
0.00112879
0.00773867
0.00189608
0.00773708
0.000531156
0.00773312
0.000952637
0.0077369
-7.4363e-05
0.00773855
0.000265434
0.00774521
-0.000418919
0.0077494
-9.43279e-05
0.00775576
-0.00044858
0.00775895
-7.64218e-05
0.00776208
-0.000150121
0.00776159
0.000268616
0.0077597
0.0003829
0.0077543
0.000793661
0.00774695
0.0010009
0.00773677
0.00132956
0.00772493
0.00152016
0.00771135
0.00172453
0.00769678
0.00186103
0.0076818
0.00191357
0.00766657
0.00199127
0.00765209
0.0019017
0.00763759
0.00195767
0.00762446
0.0017638
0.00761084
0.00184642
0.00759892
0.00155261
0.00758531
0.00172119
0.00757379
0.00132786
0.0075591
0.00158019
0.00754743
0.00105418
0.00753103
0.00134095
0.00751924
0.000658451
0.0075019
0.000831863
0.00749125
-1.97893e-05
0.00747698
-0.000171804
-0.00173369
0.00747862
0.0144925
0.00739839
0.0125544
0.00733332
0.0108043
0.0072802
0.00935748
0.00723669
0.00810984
0.00720053
0.0069245
0.00717158
0.00535674
0.00715011
0.0031427
0.00713718
0.000247206
0.00713447
-0.00299448
0.00714449
-0.00610603
0.00716975
-0.00863417
0.007211
-0.0102554
0.00726598
-0.0108672
0.00732863
-0.0105245
0.00739112
-0.00951695
0.00744639
-0.00817202
0.0074919
-0.00692535
0.00752865
-0.00590048
0.00755987
-0.00519372
0.00758728
-0.00460165
0.00761229
-0.00416206
0.00763462
-0.00368997
0.00765531
-0.00337933
0.00767361
-0.00297717
0.00769079
-0.00276806
0.00770568
-0.00240429
0.00771992
-0.00227933
0.00773169
-0.00190824
0.00774344
-0.00187935
0.00775235
-0.00146498
0.00776188
-0.00152726
0.00776798
-0.00103101
0.0077756
-0.00121918
0.00777892
-0.000604633
0.00778491
-0.00095097
0.0077852
-0.000158294
0.00778975
-0.000737963
0.0077865
0.000307603
0.0077895
-0.000595269
0.00778225
0.000710556
0.00778463
-0.000715208
0.00777496
0.000784703
0.00778084
-0.00138613
0.00777458
0.000280799
0.00779145
-0.00256444
0.00779387
-0.000156909
0.00781879
-0.00225935
0.00781717
0.00220497
0.00781635
0.00418554
0.00777386
0.0115531
0.00764076
0.0282381
0.00738639
0.0465336
0.0074507
-0.00979086
0.00763816
-0.0324347
0.00774888
-0.018281
0.00778325
-0.00784669
0.0078127
-0.00724969
0.00781169
-0.00213018
0.00781346
-0.00193458
0.0077928
0.00163962
0.00778036
0.000799414
0.00775842
0.00256191
0.0077493
0.00113791
0.00773676
0.00190861
0.00773519
0.000532734
0.00773123
0.000956589
0.00773504
-7.81683e-05
0.00773672
0.000263756
0.00774341
-0.000425613
0.00774764
-9.85568e-05
0.00775404
-0.000454984
0.00775726
-7.9638e-05
0.00776042
-0.000153276
0.00775995
0.000269086
0.00775806
0.000384784
0.00775266
0.000799063
0.00774529
0.00100827
0.00773509
0.00133976
0.00772322
0.00153203
0.0077096
0.00173815
0.00769499
0.00187564
0.00767998
0.00192858
0.00766472
0.00200654
0.00765022
0.0019162
0.00763571
0.00197218
0.00762257
0.00177694
0.00760895
0.00186004
0.00759702
0.00156454
0.0075834
0.00173481
0.00757186
0.00133941
0.00755712
0.00159492
0.00754539
0.00106591
0.0075289
0.00135745
0.00751701
0.000670342
0.00749948
0.000849394
0.00748866
-8.97413e-06
0.00747411
-0.000157251
-0.00173208
0.00747867
0.0145896
0.00739858
0.0126345
0.00733372
0.0108692
0.00728087
0.00941034
0.00723764
0.00815306
0.00720174
0.0069604
0.00717299
0.0053855
0.00715155
0.00316414
0.00713844
0.000260317
0.00713532
-0.00299136
0.00714473
-0.00611544
0.00716926