/*--------------------------------*- C++ -*----------------------------------*\
| =========                 |                                                 |
| \\      /  F ield         | OpenFOAM: The Open Source CFD Toolbox           |
|  \\    /   O peration     | Version:  2412                                  |
|   \\  /    A nd           | Website:  www.openfoam.com                      |
|    \\/     M anipulation  |                                                 |
\*---------------------------------------------------------------------------*/
FoamFile
{
    version     2.0;
    format      ascii;
    arch        "LSB;label=32;scalar=64";
    class       volVectorField;
    location    "0.9";
    object      U;
}
// * * * * * * * * * * * * * * * * * * * * * * * * * * * * * * * * * * * * * //

dimensions      [0 1 -1 0 0 0 0];

internalField   nonuniform List<vector> 
12960
(
(100.007 -0.650413 0)
(100.235 -1.8593 -4.37494e-17)
(100.703 -2.97936 -8.46593e-17)
(101.357 -3.94504 0)
(102.193 -4.81286 -3.75603e-17)
(103.167 -5.67385 0)
(104.294 -6.79996 0)
(105.587 -8.3666 0)
(107.087 -10.3986 3.01996e-17)
(108.817 -12.6684 3.01057e-17)
(110.842 -14.8664 0)
(113.186 -16.6929 0)
(115.91 -17.9589 0)
(118.959 -18.6142 0)
(122.31 -18.7205 3.25945e-17)
(125.781 -18.4656 -6.52676e-17)
(129.336 -18.0543 0)
(132.808 -17.7143 -3.12195e-17)
(136.331 -17.5204 0)
(139.807 -17.5083 2.845e-17)
(143.47 -17.5791 2.71351e-17)
(147.127 -17.7465 -2.59151e-17)
(151.062 -17.9279 2.49032e-17)
(154.97 -18.2023 0)
(159.253 -18.4695 0)
(163.465 -18.8479 0)
(168.181 -19.1885 0)
(172.755 -19.6681 2.03787e-17)
(178.007 -20.0704 0)
(183.004 -20.6568 -3.73033e-17)
(188.917 -21.1138 6.29763e-22)
(194.406 -21.822 -1.69146e-17)
(201.144 -22.3294 6.46531e-22)
(207.205 -23.184 -3.03155e-17)
(214.983 -23.7396 -1.4584e-17)
(221.71 -24.7769 0)
(230.811 -25.3813 0)
(238.313 -26.6515 1.155e-17)
(249.118 -27.3137 -6.34496e-22)
(257.527 -28.8973 1.93358e-17)
(270.562 -29.6692 0)
(280.074 -31.712 -1.32405e-21)
(296.126 -32.723 4.92546e-22)
(307.128 -35.4154 -5.76411e-18)
(327.457 -36.8149 -1.25324e-17)
(340.726 -40.1717 3.80221e-18)
(367.19 -41.8335 0)
(383.809 -45.113 0)
(418.269 -46.4454 -3.42841e-18)
(439.052 -47.687 -5.52098e-19)
(481.843 -48.2066 -1.9978e-18)
(507.612 -40.9313 0)
(549.653 -38.685 0)
(577.837 -1.52904 4.63395e-19)
(551.99 18.6494 -2.81665e-19)
(540.708 28.2207 6.66585e-18)
(506.031 31.7432 -3.9475e-19)
(489.863 30.926 0)
(460.166 31.8659 0)
(444.475 30.8793 -6.97857e-19)
(419.416 31.2045 2.19769e-18)
(404.66 29.6633 0)
(383.912 29.2317 0)
(370.831 27.4609 2.51548e-18)
(353.996 26.7177 0)
(342.637 25.088 -4.68041e-22)
(328.886 24.3514 0)
(318.941 23.0213 0)
(307.501 22.3934 -6.3308e-18)
(298.689 21.3542 0)
(288.965 20.8439 -9.86799e-23)
(281.036 20.0576 -7.613e-18)
(272.564 19.6646 0)
(265.316 19.0927 -8.70634e-18)
(257.759 18.7929 9.36506e-18)
(251.055 18.3728 0)
(244.192 18.1189 1.04532e-17)
(237.957 17.7838 -1.09775e-17)
(231.657 17.5261 2.32376e-17)
(225.862 17.2206 1.21967e-17)
(220.056 16.9216 0)
(214.705 16.6164 -1.3408e-17)
(209.354 16.2611 0)
(204.461 15.956 1.45273e-17)
(199.533 15.5471 0)
(195.108 15.2633 -1.55263e-17)
(190.547 14.8125 -1.59389e-17)
(186.582 14.581 -1.64629e-17)
(182.303 14.0935 0)
(178.787 13.9368 0)
(174.678 13.3998 1.77877e-17)
(171.622 13.3203 0)
(167.557 12.7071 0)
(165.013 12.6763 -3.23004e-22)
(160.855 11.9616 7.8007e-22)
(158.932 11.9013 2.1066e-17)
(154.547 11.0791 -2.11528e-17)
(153.409 10.8745 2.26571e-17)
(148.722 9.61226 -2.24774e-17)
(100.007 -0.656446 0)
(100.236 -1.87649 -4.37402e-17)
(100.706 -3.00687 4.23098e-17)
(101.364 -3.98119 0)
(102.203 -4.85642 -1.81462e-21)
(103.181 -5.72385 0)
(104.312 -6.85682 0)
(105.606 -8.43103 0)
(107.105 -10.4716 -3.02073e-17)
(108.831 -12.7511 -3.01276e-17)
(110.848 -14.9601 0)
(113.182 -16.7985 3.10354e-17)
(115.895 -18.0762 3.16766e-17)
(118.934 -18.7411 0)
(122.278 -18.853 -3.26508e-17)
(125.746 -18.5991 6.53752e-17)
(129.301 -18.1854 -3.22539e-17)
(132.773 -17.8419 6.25125e-17)
(136.294 -17.6455 0)
(139.768 -17.6328 -2.84628e-17)
(143.429 -17.7041 -2.71397e-17)
(147.084 -17.8729 -2.59156e-17)
(151.017 -18.0557 -2.49009e-17)
(154.923 -18.3323 0)
(159.203 -18.6014 -2.30467e-17)
(163.414 -18.9826 2.21077e-17)
(168.128 -19.3257 0)
(172.7 -19.8088 -2.03779e-17)
(177.949 -20.2138 0)
(182.944 -20.8045 1.86519e-17)
(188.855 -21.2647 6.3151e-22)
(194.342 -21.978 3.38304e-17)
(201.078 -22.4889 6.48448e-22)
(207.136 -23.3497 1.51586e-17)
(214.911 -23.9091 0)
(221.635 -24.9541 -1.33766e-17)
(230.733 -25.5624 0)
(238.231 -26.8419 0)
(249.033 -27.5082 1.12129e-17)
(257.437 -29.1031 -9.66919e-18)
(270.468 -29.8795 9.51084e-18)
(279.973 -31.9367 7.72645e-18)
(296.019 -32.9536 4.96581e-22)
(307.011 -35.6653 5.76385e-18)
(327.333 -37.074 6.26602e-18)
(340.589 -40.4565 -3.80198e-18)
(367.05 -42.1316 0)
(383.659 -45.439 -1.74667e-18)
(418.129 -46.785 -3.42901e-18)
(438.911 -48.0441 -5.5034e-19)
(481.742 -48.5774 1.99706e-18)
(507.536 -41.2639 0)
(549.694 -39.0161 7.07481e-19)
(577.96 -1.53724 7.82228e-22)
(552.031 18.8119 0)
(540.735 28.4421 -6.67385e-18)
(506.03 31.9919 3.96654e-19)
(489.838 31.1669 0)
(460.118 32.1095 -1.29485e-18)
(444.415 31.1121 1.40013e-18)
(419.344 31.4378 0)
(404.582 29.8833 0)
(383.83 29.4468 0)
(370.748 27.6611 -2.5171e-18)
(353.915 26.9113 -4.22593e-18)
(342.558 25.2687 3.94981e-18)
(328.81 24.5265 0)
(318.868 23.1863 -5.28021e-18)
(307.432 22.5539 1.26628e-17)
(298.623 21.507 0)
(288.902 20.9932 7.33752e-18)
(280.977 20.2015 0)
(272.507 19.8061 0)
(265.262 19.2305 8.70574e-18)
(257.707 18.929 0)
(251.004 18.5062 -9.81368e-18)
(244.143 18.251 0)
(237.909 17.9137 2.19535e-17)
(231.61 17.6545 -1.16182e-17)
(225.815 17.3469 -1.21971e-17)
(220.01 17.0459 1.2823e-17)
(214.658 16.7385 1.3409e-17)
(209.308 16.3806 0)
(204.415 16.073 -1.45278e-17)
(199.488 15.6611 1.50112e-17)
(195.062 15.375 1.55257e-17)
(190.503 14.9209 3.18754e-17)
(186.538 14.6876 0)
(182.26 14.1967 0)
(178.744 14.0392 1.7426e-17)
(174.637 13.4987 5.25065e-22)
(171.579 13.4193 0)
(167.516 12.802 1.88088e-17)
(164.97 12.7725 -1.96824e-17)
(160.811 12.0524 7.88775e-22)
(158.886 11.994 2.10513e-17)
(154.498 11.1651 -2.11387e-17)
(153.359 10.9613 2.2636e-17)
(148.666 9.68824 0)
(100.007 -0.662509 0)
(100.237 -1.89376 4.37257e-17)
(100.71 -3.03453 0)
(101.37 -4.01751 0)
(102.213 -4.90019 3.74929e-17)
(103.195 -5.77404 0)
(104.329 -6.91383 0)
(105.625 -8.49548 0)
(107.123 -10.5444 0)
(108.845 -12.8334 0)
(110.854 -15.0533 3.05114e-17)
(113.177 -16.9036 -3.10808e-17)
(115.879 -18.193 -3.17293e-17)
(118.908 -18.8675 3.2303e-17)
(122.246 -18.9852 0)
(125.712 -18.7325 -3.27415e-17)
(129.265 -18.3164 3.23013e-17)
(132.737 -17.9694 -6.25873e-17)
(136.257 -17.7705 0)
(139.729 -17.7572 5.69501e-17)
(143.388 -17.829 5.42875e-17)
(147.04 -17.9992 2.5915e-17)
(150.971 -18.1834 0)
(154.875 -18.4621 -2.38942e-17)
(159.154 -18.7332 4.60895e-17)
(163.362 -19.1172 6.74984e-22)
(168.074 -19.4627 0)
(172.645 -19.9493 -2.03786e-17)
(177.892 -20.3571 0)
(182.885 -20.952 0)
(188.793 -21.4154 -1.79487e-17)
(194.278 -22.1339 9.01567e-22)
(201.011 -22.6482 -1.62671e-17)
(207.067 -23.5153 1.5161e-17)
(214.839 -24.0784 0)
(221.56 -25.131 1.33772e-17)
(230.654 -25.7433 0)
(238.149 -27.032 -1.1555e-17)
(248.947 -27.7025 0)
(257.347 -29.3088 0)
(270.373 -30.0896 -1.90233e-17)
(279.871 -32.1612 0)
(295.911 -33.1839 -7.83654e-18)
(306.892 -35.9149 5.76623e-18)
(327.207 -37.3328 -6.26637e-18)
(340.451 -40.741 0)
(366.909 -42.4292 0)
(383.508 -45.7648 3.49449e-18)
(417.989 -47.1244 3.42884e-18)
(438.768 -48.4011 5.5018e-19)
(481.641 -48.9484 -1.99598e-18)
(507.46 -41.597 0)
(549.735 -39.3481 -7.06005e-19)
(578.084 -1.54545 -9.24066e-19)
(552.074 18.9748 0)
(540.762 28.6639 0)
(506.03 32.2409 0)
(489.814 31.4081 -3.03176e-18)
(460.07 32.3532 1.3018e-18)
(444.355 31.345 -7.02387e-19)
(419.273 31.6712 0)
(404.504 30.1032 9.89305e-19)
(383.747 29.6618 0)
(370.665 27.8611 -2.5201e-18)
(353.833 27.1049 4.22764e-18)
(342.479 25.4494 3.95178e-18)
(328.735 24.7016 -5.28816e-18)
(318.795 23.3512 5.28091e-18)
(307.363 22.7142 -1.08139e-23)
(298.557 21.6596 0)
(288.84 21.1424 7.33794e-18)
(280.917 20.3452 0)
(272.451 19.9475 0)
(265.208 19.3681 8.70613e-18)
(257.655 19.0651 9.3643e-18)
(250.954 18.6396 1.96258e-17)
(244.094 18.383 -1.0452e-17)
(237.86 18.0436 4.54482e-22)
(231.563 17.7829 0)
(225.768 17.4732 2.43938e-17)
(219.963 17.1702 -2.56465e-17)
(214.611 16.8605 3.02183e-22)
(209.262 16.5 1.39778e-17)
(204.369 16.19 1.45288e-17)
(199.442 15.775 2.94001e-22)
(195.017 15.4866 0)
(190.459 15.0292 -1.59365e-17)
(186.494 14.7942 0)
(182.218 14.3 0)
(178.701 14.1415 -4.02391e-23)
(174.596 13.5975 -1.77782e-17)
(171.537 13.5184 1.84811e-17)
(167.474 12.8969 6.73092e-22)
(164.926 12.8686 0)
(160.767 12.1433 -1.99131e-17)
(158.84 12.0868 -5.03798e-22)
(154.449 11.2511 2.11227e-17)
(153.308 11.0482 -2.2616e-17)
(148.609 9.76427 0)
(100.007 -0.6686 0)
(100.238 -1.91112 0)
(100.713 -3.06231 4.22746e-17)
(101.376 -4.054 0)
(102.223 -4.94414 3.74621e-17)
(103.209 -5.82443 0)
(104.346 -6.97099 0)
(105.644 -8.56003 3.08233e-17)
(107.141 -10.6173 0)
(108.859 -12.9157 -3.01729e-17)
(110.86 -15.1463 4.72355e-22)
(113.173 -17.0083 3.1127e-17)
(115.863 -18.3094 3.17829e-17)
(118.883 -18.9937 -3.23597e-17)
(122.214 -19.1171 0)
(125.676 -18.8658 -3.27965e-17)
(129.229 -18.4473 3.23501e-17)
(132.7 -18.0969 6.2663e-17)
(136.22 -17.8953 0)
(139.69 -17.8815 -2.84875e-17)
(143.346 -17.9537 -5.42962e-17)
(146.996 -18.1253 0)
(150.925 -18.311 0)
(154.827 -18.5918 2.38916e-17)
(159.104 -18.8649 -4.60861e-17)
(163.311 -19.2517 -4.42106e-17)
(168.02 -19.5996 0)
(172.589 -20.0896 2.03778e-17)
(177.834 -20.5003 0)
(182.825 -21.0995 0)
(188.731 -21.5659 0)
(194.213 -22.2896 -1.69168e-17)
(200.943 -22.8074 0)
(206.997 -23.6807 -1.51614e-17)
(214.766 -24.2476 0)
(221.484 -25.3077 -1.338e-17)
(230.575 -25.924 0)
(238.067 -27.222 2.31127e-17)
(248.861 -27.8966 -1.12164e-17)
(257.256 -29.5142 -9.67433e-18)
(270.278 -30.2994 1.90255e-17)
(279.768 -32.3854 0)
(295.803 -33.4138 -7.83747e-18)
(306.773 -36.1641 1.35045e-21)
(327.081 -37.5912 6.26596e-18)
(340.312 -41.0251 -3.80535e-18)
(366.767 -42.7266 -4.83594e-18)
(383.356 -46.0903 -1.74782e-18)
(417.848 -47.4636 0)
(438.625 -48.758 5.48407e-19)
(481.539 -49.3195 -1.99523e-18)
(507.382 -41.9306 0)
(549.776 -39.6812 7.01905e-19)
(578.209 -1.55363 -7.93816e-22)
(552.117 19.1383 0)
(540.791 28.8859 0)
(506.031 32.4901 -3.94884e-19)
(489.791 31.6496 3.0511e-18)
(460.022 32.5971 0)
(444.296 31.5781 7.03515e-19)
(419.201 31.9047 2.21587e-18)
(404.426 30.3232 -9.9109e-19)
(383.664 29.8768 0)
(370.581 28.061 -6.62014e-22)
(353.75 27.2983 0)
(342.399 25.6299 -3.95283e-18)
(328.658 24.8765 9.95114e-23)
(318.722 23.516 -5.28251e-18)
(307.293 22.8744 -1.26654e-17)
(298.49 21.8121 -6.49188e-18)
(288.777 21.2915 -7.33818e-18)
(280.857 20.4889 7.61466e-18)
(272.394 20.0889 0)
(265.153 19.5057 -1.74116e-17)
(257.602 19.201 -9.36348e-18)
(250.903 18.773 -9.81215e-18)
(244.045 18.515 1.04509e-17)
(237.812 18.1735 -2.19513e-17)
(231.515 17.9112 -1.16178e-17)
(225.721 17.5995 -2.43938e-17)
(219.917 17.2944 2.56473e-17)
(214.564 16.9825 -2.68207e-17)
(209.216 16.6194 3.04737e-22)
(204.322 16.3069 -2.90588e-17)
(199.397 15.8889 -3.00238e-17)
(194.971 15.5981 0)
(190.414 15.1375 -1.59358e-17)
(186.45 14.9007 0)
(182.175 14.4032 0)
(178.658 14.2439 -1.74177e-17)
(174.554 13.6963 1.77742e-17)
(171.494 13.6174 -1.84748e-17)
(167.432 12.9917 -3.75902e-17)
(164.882 12.9648 0)
(160.723 12.2342 0)
(158.793 12.1796 -4.20456e-17)
(154.4 11.3371 2.11083e-17)
(153.256 11.1352 2.25946e-17)
(148.552 9.8403 0)
(100.007 -0.674722 4.46912e-17)
(100.24 -1.92856 -4.37043e-17)
(100.716 -3.09023 -8.45089e-17)
(101.383 -4.09066 4.0156e-17)
(102.233 -4.98829 -3.74275e-17)
(103.223 -5.87501 0)
(104.364 -7.02831 -3.22533e-17)
(105.664 -8.62462 -3.08168e-17)
(107.16 -10.6901 0)
(108.873 -12.9977 -6.12879e-22)
(110.866 -15.2388 -3.05815e-17)
(113.169 -17.1126 3.65303e-22)
(115.848 -18.4254 -3.18363e-17)
(118.857 -19.1194 0)
(122.182 -19.2489 0)
(125.641 -18.9989 3.28513e-17)
(129.193 -18.5781 -3.23986e-17)
(132.664 -18.2242 -3.13696e-17)
(136.182 -18.0201 0)
(139.65 -18.0056 2.8501e-17)
(143.304 -18.0783 2.71523e-17)
(146.952 -18.2513 0)
(150.879 -18.4384 0)
(154.779 -18.7213 0)
(159.053 -18.9964 2.30411e-17)
(163.258 -19.386 2.21039e-17)
(167.966 -19.7363 0)
(172.533 -20.2298 0)
(177.775 -20.6433 0)
(182.764 -21.2467 1.86545e-17)
(188.668 -21.7163 0)
(194.148 -22.4451 0)
(200.876 -22.9664 0)
(206.927 -23.8459 0)
(214.692 -24.4165 1.45894e-17)
(221.408 -25.4843 -1.11119e-21)
(230.496 -26.1046 1.29084e-17)
(237.984 -27.4117 -1.15577e-17)
(248.774 -28.0904 1.12172e-17)
(257.165 -29.7193 9.67497e-18)
(270.182 -30.509 -9.51354e-18)
(279.665 -32.6093 -7.73241e-18)
(295.693 -33.6435 1.56753e-17)
(306.653 -36.413 -5.76702e-18)
(326.955 -37.8492 -6.26634e-18)
(340.172 -41.3089 3.80509e-18)
(366.624 -43.0236 4.83585e-18)
(383.203 -46.4155 0)
(417.705 -47.8026 0)
(438.48 -49.115 -5.48248e-19)
(481.436 -49.6909 1.99415e-18)
(507.304 -42.2647 0)
(549.817 -40.0152 -7.00453e-19)
(578.335 -1.56182 4.60746e-19)
(552.161 19.3022 0)
(540.82 29.1082 0)
(506.033 32.7397 3.96882e-19)
(489.769 31.8914 3.07106e-18)
(459.975 32.8413 -1.31542e-18)
(444.237 31.8113 -1.41217e-18)
(419.13 32.1382 -2.22227e-18)
(404.348 30.5432 9.9482e-19)
(383.581 30.0917 0)
(370.497 28.2609 2.52432e-18)
(353.667 27.4916 0)
(342.319 25.8103 -3.95489e-18)
(328.581 25.0513 5.29001e-18)
(318.649 23.6806 5.28326e-18)
(307.223 23.0345 6.33342e-18)
(298.423 21.9645 1.29852e-17)
(288.713 21.4405 7.33866e-18)
(280.797 20.6324 4.65327e-22)
(272.336 20.2301 0)
(265.098 19.6432 1.74115e-17)
(257.55 19.3369 0)
(250.852 18.9062 9.81214e-18)
(243.995 18.6469 0)
(237.763 18.3032 -4.60186e-22)
(231.468 18.0394 1.1617e-17)
(225.673 17.7257 2.43939e-17)
(219.87 17.4186 -2.56481e-17)
(214.517 17.1044 1.3411e-17)
(209.169 16.7388 -1.39794e-17)
(204.275 16.4238 1.45301e-17)
(199.351 16.0027 3.00247e-17)
(194.925 15.7096 0)
(190.37 15.2457 1.59345e-17)
(186.405 15.0071 0)
(182.132 14.5063 0)
(178.615 14.3461 0)
(174.512 13.795 -3.55388e-17)
(171.451 13.7163 0)
(167.391 13.0866 3.75768e-17)
(164.838 13.0609 0)
(160.679 12.325 0)
(158.747 12.2724 2.10085e-17)
(154.35 11.4232 -2.10921e-17)
(153.204 11.2223 -2.25742e-17)
(148.494 9.91637 0)
(100.007 -0.680874 -4.46813e-17)
(100.241 -1.94608 8.73817e-17)
(100.72 -3.11828 4.22341e-17)
(101.39 -4.1275 -8.02548e-17)
(102.243 -5.03265 0)
(103.238 -5.92579 0)
(104.382 -7.08577 -1.2496e-21)
(105.684 -8.68927 0)
(107.179 -10.7628 -3.02421e-17)
(108.888 -13.0794 -6.17857e-22)
(110.873 -15.331 0)
(113.165 -17.2164 -3.12193e-17)
(115.832 -18.5409 0)
(118.831 -19.2448 0)
(122.149 -19.3804 0)
(125.605 -19.1319 0)
(129.156 -18.7088 0)
(132.627 -18.3515 0)
(136.144 -18.1447 -3.00317e-17)
(139.611 -18.1296 5.30827e-22)
(143.262 -18.2028 0)
(146.908 -18.3771 0)
(150.832 -18.5657 -2.48943e-17)
(154.73 -18.8507 0)
(159.003 -19.1278 0)
(163.206 -19.5202 0)
(167.911 -19.8729 0)
(172.476 -20.3699 2.03785e-17)
(177.716 -20.7862 1.96334e-17)
(182.703 -21.3938 -1.86543e-17)
(188.604 -21.8666 -1.79511e-17)
(194.082 -22.6005 0)
(200.807 -23.1252 0)
(206.856 -24.0109 0)
(214.619 -24.5853 -1.45899e-17)
(221.331 -25.6606 -1.11917e-21)
(230.416 -26.2849 -1.29091e-17)
(237.9 -27.6013 -1.15609e-17)
(248.687 -28.2841 1.12193e-17)
(257.073 -29.9242 -9.67825e-18)
(270.085 -30.7183 9.51526e-18)
(279.562 -32.8329 7.73261e-18)
(295.584 -33.8728 -7.83785e-18)
(306.533 -36.6616 0)
(326.827 -38.1069 6.26593e-18)
(340.031 -41.5924 -3.80749e-18)
(366.48 -43.3203 -4.83642e-18)
(383.048 -46.7405 0)
(417.562 -48.1415 0)
(438.334 -49.4719 0)
(481.332 -50.0624 0)
(507.225 -42.5995 0)
(549.858 -40.3502 0)
(578.462 -1.57002 -4.61136e-19)
(552.206 19.4667 -3.06517e-19)
(540.85 29.3308 6.72444e-18)
(506.036 32.9896 3.95057e-19)
(489.748 32.1336 -3.09155e-18)
(459.929 33.0856 1.3232e-18)
(444.177 32.0447 7.08782e-19)
(419.058 32.3718 0)
(404.269 30.7632 -9.96774e-19)
(383.496 30.3066 0)
(370.412 28.4607 0)
(353.584 27.6848 0)
(342.239 25.9905 3.95601e-18)
(328.504 25.2259 0)
(318.575 23.8452 5.28493e-18)
(307.152 23.1945 6.33414e-18)
(298.356 22.1167 4.40866e-22)
(288.65 21.5894 -7.33896e-18)
(280.736 20.7758 -7.61513e-18)
(272.279 20.3712 8.33742e-18)
(265.043 19.7806 -8.70546e-18)
(257.497 19.4727 0)
(250.801 19.0394 -9.81116e-18)
(243.945 18.7787 0)
(237.714 18.4329 1.09744e-17)
(231.42 18.1676 0)
(225.626 17.8518 3.97309e-22)
(219.822 17.5428 1.28243e-17)
(214.47 17.2263 0)
(209.122 16.8581 0)
(204.228 16.5407 0)
(199.304 16.1164 -1.50127e-17)
(194.879 15.821 0)
(190.325 15.3538 0)
(186.36 15.1135 0)
(182.089 14.6093 -1.68262e-17)
(178.571 14.4483 0)
(174.47 13.8937 1.77646e-17)
(171.407 13.8152 0)
(167.348 13.1814 -1.87813e-17)
(164.794 13.1571 0)
(160.634 12.4159 0)
(158.7 12.3654 0)
(154.3 11.5093 0)
(153.152 11.3095 0)
(148.436 9.99247 0)
(100.007 -0.687057 0)
(100.242 -1.9637 -4.36772e-17)
(100.723 -3.14648 0)
(101.396 -4.16451 4.00987e-17)
(102.254 -5.0772 0)
(103.252 -5.97677 0)
(104.4 -7.1434 3.22143e-17)
(105.704 -8.75398 3.08072e-17)
(107.198 -10.8354 3.02501e-17)
(108.903 -13.161 6.04812e-17)
(110.88 -15.4229 3.06532e-17)
(113.162 -17.3198 0)
(115.817 -18.6559 0)
(118.806 -19.3698 3.25339e-17)
(122.116 -19.5116 0)
(125.569 -19.2648 0)
(129.119 -18.8395 0)
(132.59 -18.4786 0)
(136.106 -18.2692 3.0057e-17)
(139.571 -18.2534 -5.70543e-17)
(143.22 -18.3271 0)
(146.863 -18.5028 0)
(150.786 -18.6928 4.97845e-17)
(154.681 -18.98 0)
(158.952 -19.259 0)
(163.153 -19.6542 -2.21026e-17)
(167.856 -20.0093 0)
(172.419 -20.5099 -2.03777e-17)
(177.657 -20.9289 -1.9633e-17)
(182.642 -21.5408 0)
(188.541 -22.0166 1.79511e-17)
(194.016 -22.7557 -1.69208e-17)
(200.739 -23.2838 0)
(206.785 -24.1758 0)
(214.545 -24.7539 -1.45918e-17)
(221.254 -25.8368 1.3384e-17)
(230.335 -26.465 0)
(237.816 -27.7906 1.15616e-17)
(248.599 -28.4775 -1.12201e-17)
(256.98 -30.1289 1.93592e-17)
(269.988 -30.9274 6.07734e-22)
(279.457 -33.0563 -7.73557e-18)
(295.473 -34.1018 0)
(306.411 -36.9098 0)
(326.699 -38.3642 0)
(339.889 -41.8754 3.80724e-18)
(366.335 -43.6166 4.83634e-18)
(382.893 -47.0652 0)
(417.417 -48.4801 0)
(438.187 -49.8288 -5.45448e-19)
(481.227 -50.4341 0)
(507.145 -42.9347 0)
(549.899 -40.6862 0)
(578.591 -1.57822 4.59941e-19)
(552.252 19.6316 3.06045e-19)
(540.88 29.5537 -6.7335e-18)
(506.04 33.2398 -7.92261e-19)
(489.727 32.376 0)
(459.883 33.3302 0)
(444.119 32.2782 0)
(418.986 32.6054 0)
(404.19 30.9833 -1.00069e-18)
(383.412 30.5214 0)
(370.327 28.6603 -2.53017e-18)
(353.5 27.8778 0)
(342.158 26.1707 0)
(328.426 25.4005 0)
(318.5 24.0096 -5.28575e-18)
(307.081 23.3543 -1.26698e-17)
(298.288 22.2689 -6.49429e-18)
(288.586 21.7382 0)
(280.675 20.9191 7.61612e-18)
(272.221 20.5122 -8.3372e-18)
(264.987 19.9178 0)
(257.443 19.6084 0)
(250.749 19.1725 0)
(243.895 18.9104 1.04491e-17)
(237.665 18.5626 -1.09743e-17)
(231.372 18.2958 1.16166e-17)
(225.578 17.9779 -2.43941e-17)
(219.775 17.6669 -1.28251e-17)
(214.422 17.3482 0)
(209.075 16.9773 0)
(204.181 16.6574 0)
(199.258 16.2301 0)
(194.832 15.9324 1.5524e-17)
(190.28 15.4619 1.59328e-17)
(186.315 15.2198 0)
(182.046 14.7124 -4.18245e-22)
(178.527 14.5505 0)
(174.428 13.9924 0)
(171.364 13.9141 0)
(167.306 13.2761 0)
(164.749 13.2532 0)
(160.59 12.5068 0)
(158.652 12.4583 0)
(154.25 11.5954 0)
(153.1 11.3967 0)
(148.377 10.0686 0)
(100.007 -0.693271 0)
(100.243 -1.9814 4.36676e-17)
(100.727 -3.17481 -4.2198e-17)
(101.403 -4.20171 4.00731e-17)
(102.264 -5.12197 0)
(103.267 -6.02796 0)
(104.418 -7.20118 3.2197e-17)
(105.724 -8.81876 9.9849e-22)
(107.217 -10.9079 0)
(108.918 -13.2423 -3.02632e-17)
(110.888 -15.5144 -3.06886e-17)
(113.158 -17.4228 3.13133e-17)
(115.802 -18.7705 0)
(118.78 -19.4945 -3.25926e-17)
(122.083 -19.6426 0)
(125.533 -19.3976 0)
(129.082 -18.9701 -3.25489e-17)
(132.553 -18.6057 3.14878e-17)
(136.068 -18.3937 3.00835e-17)
(139.53 -18.3772 5.70812e-17)
(143.177 -18.4512 0)
(146.818 -18.6284 -2.59158e-17)
(150.738 -18.8199 5.43911e-22)
(154.632 -19.1091 0)
(158.9 -19.3901 0)
(163.099 -19.7881 -6.96821e-22)
(167.801 -20.1456 0)
(172.362 -20.6496 0)
(177.597 -21.0714 1.96338e-17)
(182.58 -21.6876 1.86564e-17)
(188.477 -22.1665 -1.79524e-17)
(193.95 -22.9108 -9.32157e-22)
(200.67 -23.4423 -1.62724e-17)
(206.713 -24.3405 0)
(214.47 -24.9223 -6.80114e-22)
(221.176 -26.0128 1.33869e-17)
(230.254 -26.6449 1.29126e-17)
(237.731 -27.9797 0)
(248.511 -28.6707 1.12222e-17)
(256.887 -30.3334 -9.68092e-18)
(269.89 -31.1361 -9.51694e-18)
(279.352 -33.2794 7.73579e-18)
(295.362 -34.3305 7.83929e-18)
(306.289 -37.1577 0)
(326.569 -38.6212 0)
(339.746 -42.1582 3.80968e-18)
(366.189 -43.9126 -4.83694e-18)
(382.736 -47.3897 -1.75404e-18)
(417.272 -48.8186 0)
(438.039 -50.1857 1.08974e-18)
(481.121 -50.8059 1.99164e-18)
(507.064 -43.2706 0)
(549.94 -41.0233 -6.90867e-19)
(578.72 -1.58643 -4.60387e-19)
(552.298 19.7971 3.14954e-19)
(540.912 29.7769 0)
(506.045 33.4903 3.97226e-19)
(489.708 32.6188 0)
(459.838 33.575 1.33838e-18)
(444.06 32.5118 0)
(418.915 32.8392 2.24369e-18)
(404.111 31.2033 1.00283e-18)
(383.327 30.7362 0)
(370.241 28.8599 2.53223e-18)
(353.415 28.0708 0)
(342.076 26.3507 0)
(328.348 25.5749 0)
(318.425 24.1738 -5.2875e-18)
(307.01 23.514 6.33571e-18)
(298.22 22.4209 -6.49576e-18)
(288.521 21.8868 0)
(280.614 21.0623 -1.52329e-17)
(272.162 20.6531 0)
(264.931 20.055 -8.70599e-18)
(257.39 19.744 0)
(250.697 19.3055 -9.81077e-18)
(243.845 19.0421 -1.04481e-17)
(237.616 18.6922 2.19472e-17)
(231.323 18.4239 -1.16159e-17)
(225.529 18.1039 2.43943e-17)
(219.727 17.7909 1.28252e-17)
(214.374 17.4699 0)
(209.027 17.0965 0)
(204.133 16.7742 0)
(199.211 16.3438 -1.50141e-17)
(194.786 16.0437 -1.55235e-17)
(190.235 15.5699 -1.59315e-17)
(186.27 15.326 -1.64472e-17)
(182.002 14.8153 -4.20718e-22)
(178.483 14.6525 -1.74007e-17)
(174.386 14.091 0)
(171.32 14.013 0)
(167.264 13.3709 0)
(164.705 13.3494 0)
(160.545 12.5976 -1.98628e-17)
(158.605 12.5513 2.09638e-17)
(154.199 11.6815 0)
(153.047 11.4841 0)
(148.318 10.1448 2.23289e-17)
(100.007 -0.699516 0)
(100.245 -1.99918 -4.36524e-17)
(100.73 -3.20329 4.21759e-17)
(101.41 -4.23909 -8.00883e-17)
(102.275 -5.16694 0)
(103.282 -6.07934 3.44462e-17)
(104.436 -7.25912 1.2784e-21)
(105.744 -8.8836 -6.15932e-17)
(107.237 -10.9804 -3.02689e-17)
(108.934 -13.3234 0)
(110.895 -15.6055 -3.07251e-17)
(113.155 -17.5253 -6.27207e-17)
(115.787 -18.8847 -3.20554e-17)
(118.755 -19.6188 0)
(122.05 -19.7733 0)
(125.496 -19.5302 0)
(129.045 -19.1006 3.25996e-17)
(132.515 -18.7327 -6.30554e-17)
(136.029 -18.518 -3.01094e-17)
(139.49 -18.5007 -5.71086e-17)
(143.134 -18.5753 2.71715e-17)
(146.773 -18.7538 -5.92003e-22)
(150.691 -18.9467 5.47736e-22)
(154.582 -19.2381 0)
(158.849 -19.521 2.3035e-17)
(163.046 -19.9219 2.20999e-17)
(167.745 -20.2818 -2.13193e-17)
(172.304 -20.7893 0)
(177.538 -21.2138 -1.96333e-17)
(182.518 -21.8342 -1.86562e-17)
(188.412 -22.3163 1.79524e-17)
(193.883 -23.0656 1.69221e-17)
(200.6 -23.6006 1.62727e-17)
(206.641 -24.505 1.51694e-17)
(214.395 -25.0905 1.45936e-17)
(221.098 -26.1886 1.14295e-21)
(230.173 -26.8246 6.83602e-22)
(237.646 -28.1687 1.15669e-17)
(248.422 -28.8636 -1.1223e-17)
(256.793 -30.5376 -9.68429e-18)
(269.792 -31.3446 0)
(279.247 -33.5022 -7.73881e-18)
(295.25 -34.5588 -1.5679e-17)
(306.166 -37.4052 0)
(326.439 -38.8777 6.26634e-18)
(339.602 -42.4405 -3.80944e-18)
(366.043 -44.2083 4.83688e-18)
(382.579 -47.7139 1.75402e-18)
(417.125 -49.1569 0)
(437.89 -50.5425 -8.56271e-22)
(481.014 -51.178 1.89527e-22)
(506.983 -43.607 0)
(549.982 -41.3613 6.89466e-19)
(578.851 -1.59466 4.59227e-19)
(552.345 19.9631 4.73818e-21)
(540.945 30.0003 6.76189e-18)
(506.051 33.7412 -3.95376e-19)
(489.689 32.8619 3.15663e-18)
(459.793 33.82 -1.34705e-18)
(444.002 32.7456 0)
(418.843 33.073 7.61631e-23)
(404.031 31.4234 0)
(383.241 30.951 0)
(370.155 29.0594 0)
(353.33 28.2636 0)
(341.994 26.5306 -3.96164e-18)
(328.27 25.7492 -5.29386e-18)
(318.35 24.338 5.2884e-18)
(306.938 23.6736 0)
(298.152 22.5728 6.49639e-18)
(288.456 22.0353 0)
(280.552 21.2053 -4.7947e-22)
(272.104 20.7939 0)
(264.875 20.1921 8.70555e-18)
(257.336 19.8796 0)
(250.645 19.4384 1.96202e-17)
(243.795 19.1737 0)
(237.566 18.8217 4.74894e-22)
(231.274 18.5519 1.16159e-17)
(225.481 18.2299 -1.21971e-17)
(219.679 17.9149 1.28261e-17)
(214.326 17.5917 1.34146e-17)
(208.98 17.2156 0)
(204.085 16.8908 0)
(199.164 16.4574 3.00291e-17)
(194.739 16.1549 0)
(190.189 15.6779 0)
(186.224 15.4322 -4.76692e-23)
(181.958 14.9182 -4.2317e-22)
(178.439 14.7546 3.47929e-17)
(174.343 14.1896 1.77514e-17)
(171.276 14.1118 0)
(167.221 13.4656 0)
(164.66 13.4455 0)
(160.5 12.6885 1.98516e-17)
(158.557 12.6443 -5.34301e-22)
(154.149 11.7676 0)
(152.994 11.5715 0)
(148.259 10.2209 -2.23063e-17)
(100.007 -0.705794 0)
(100.246 -2.01706 4.36426e-17)
(100.734 -3.23191 0)
(101.417 -4.27664 4.00151e-17)
(102.286 -5.21212 -3.72659e-17)
(103.297 -6.13094 -6.88328e-17)
(104.455 -7.31722 -3.21591e-17)
(105.765 -8.94851 -1.01426e-21)
(107.257 -11.0528 -8.34125e-22)
(108.949 -13.4042 0)
(110.903 -15.6962 3.07608e-17)
(113.153 -17.6273 6.28156e-17)
(115.772 -18.9984 6.42218e-17)
(118.729 -19.7427 0)
(122.017 -19.9038 3.31206e-17)
(125.459 -19.6626 0)
(129.007 -19.231 -3.26516e-17)
(132.477 -18.8597 3.1568e-17)
(135.99 -18.6421 0)
(139.449 -18.6242 5.71363e-17)
(143.091 -18.6992 -5.43524e-17)
(146.728 -18.8791 2.59156e-17)
(150.643 -19.0734 5.51568e-22)
(154.533 -19.367 0)
(158.797 -19.6519 -2.30328e-17)
(162.992 -20.0555 2.20996e-17)
(167.689 -20.4178 2.13181e-17)
(172.246 -20.9288 0)
(177.477 -21.3561 0)
(182.456 -21.9807 0)
(188.347 -22.4659 0)
(193.816 -23.2203 1.69241e-17)
(200.53 -23.7587 1.62744e-17)
(206.569 -24.6694 -1.51699e-17)
(214.319 -25.2586 -1.45955e-17)
(221.019 -26.3642 1.15088e-21)
(230.091 -27.0041 -1.29149e-17)
(237.561 -28.3574 -1.15676e-17)
(248.333 -29.0564 0)
(256.699 -30.7416 -1.35807e-21)
(269.693 -31.5529 0)
(279.14 -33.7247 7.73904e-18)
(295.138 -34.7869 7.83973e-18)
(306.043 -37.6524 0)
(326.309 -39.1339 -6.26595e-18)
(339.458 -42.7225 0)
(365.895 -44.5037 0)
(382.42 -48.0379 0)
(416.978 -49.495 0)
(437.739 -50.8993 -5.43279e-19)
(480.906 -51.5502 1.95532e-22)
(506.9 -43.9439 0)
(550.023 -41.7004 6.8542e-19)
(578.983 -1.6029 -4.59729e-19)
(552.393 20.1296 4.77176e-21)
(540.978 30.224 -1.35459e-17)
(506.058 33.9924 7.92971e-19)
(489.672 33.1054 -3.17943e-18)
(459.75 34.0653 0)
(443.945 32.9796 0)
(418.771 33.3069 6.48464e-23)
(403.951 31.6434 1.01024e-18)
(383.155 31.1657 0)
(370.068 29.2588 0)
(353.245 28.4564 4.24056e-18)
(341.912 26.7104 -5.04828e-22)
(328.191 25.9234 5.29507e-18)
(318.275 24.502 0)
(306.866 23.8331 0)
(298.083 22.7246 -6.49796e-18)
(288.391 22.1837 7.34108e-18)
(280.49 21.3483 -4.82926e-22)
(272.045 20.9346 8.33765e-18)
(264.819 20.3291 -8.70617e-18)
(257.282 20.015 0)
(250.593 19.5712 -1.96195e-17)
(243.744 19.3053 -1.04472e-17)
(237.516 18.9511 -1.09725e-17)
(231.225 18.6799 -1.16153e-17)
(225.432 18.3558 0)
(219.631 18.0389 -2.5653e-17)
(214.277 17.7134 -2.68308e-17)
(208.932 17.3347 0)
(204.037 17.0074 0)
(199.117 16.5709 -3.00303e-17)
(194.691 16.2661 0)
(190.143 15.7858 1.59299e-17)
(186.178 15.5383 -4.79649e-23)
(181.914 15.021 -4.25603e-22)
(178.394 14.8566 -3.47844e-17)
(174.301 14.2881 -3.5493e-17)
(171.232 14.2106 0)
(167.178 13.5603 0)
(164.614 13.5416 0)
(160.454 12.7793 0)
(158.509 12.7374 -5.40073e-22)
(154.098 11.8538 0)
(152.941 11.659 0)
(148.199 10.2972 0)
(100.007 -0.712103 0)
(100.247 -2.03502 -4.36272e-17)
(100.737 -3.26067 4.21391e-17)
(101.424 -4.31439 0)
(102.297 -5.25751 3.72313e-17)
(103.312 -6.18275 -1.5498e-21)
(104.474 -7.37549 -3.21423e-17)
(105.786 -9.01349 -1.02217e-21)
(107.277 -11.1252 6.05738e-17)
(108.966 -13.4849 0)
(110.911 -15.7867 0)
(113.15 -17.7289 -3.14553e-17)
(115.758 -19.1116 -6.43339e-17)
(118.704 -19.8662 0)
(121.984 -20.034 -3.31815e-17)
(125.422 -19.7949 0)
(128.969 -19.3613 3.27032e-17)
(132.439 -18.9865 -3.16096e-17)
(135.951 -18.7662 0)
(139.408 -18.7475 -5.71644e-17)
(143.047 -18.8229 5.43624e-17)
(146.682 -19.0042 -2.59164e-17)
(150.595 -19.2 -2.48851e-17)
(154.483 -19.4957 0)
(158.744 -19.7825 2.30317e-17)
(162.938 -20.1889 -2.20979e-17)
(167.633 -20.5537 0)
(172.188 -21.0681 2.03786e-17)
(177.417 -21.4982 0)
(182.393 -22.127 0)
(188.282 -22.6153 0)
(193.749 -23.3749 9.5144e-22)
(200.46 -23.9166 -3.25501e-17)
(206.496 -24.8335 0)
(214.243 -25.4264 2.91928e-17)
(220.94 -26.5396 1.1588e-21)
(230.009 -27.1834 -1.2917e-17)
(237.474 -28.5459 0)
(248.243 -29.2488 0)
(256.604 -30.9453 1.93755e-17)
(269.593 -31.7609 0)
(279.034 -33.9469 0)
(295.025 -35.0146 7.84076e-18)
(305.919 -37.8993 0)
(326.177 -39.3898 0)
(339.312 -43.0042 -3.81306e-18)
(365.746 -44.7987 0)
(382.26 -48.3616 0)
(416.829 -49.8329 0)
(437.588 -51.2561 5.41384e-19)
(480.798 -51.9226 -1.98882e-18)
(506.816 -44.2814 -3.28056e-18)
(550.065 -42.0405 -1.33129e-21)
(579.116 -1.61116 1.37748e-18)
(552.442 20.2966 4.80539e-21)
(541.013 30.4481 6.78401e-18)
(506.066 34.2439 -2.00277e-21)
(489.656 33.3492 0)
(459.707 34.3109 1.36393e-18)
(443.887 33.2137 0)
(418.7 33.5409 -2.26789e-18)
(403.871 31.8636 9.35479e-22)
(383.069 31.3804 0)
(369.981 29.4581 -2.54165e-18)
(353.159 28.649 -4.2429e-18)
(341.829 26.89 3.96484e-18)
(328.111 26.0974 0)
(318.198 24.6659 0)
(306.794 23.9924 -6.3384e-18)
(298.014 22.8762 -4.56256e-22)
(288.326 22.332 -7.34159e-18)
(280.428 21.4911 7.61816e-18)
(271.986 21.0752 2.3269e-22)
(264.762 20.466 1.74121e-17)
(257.228 20.1504 0)
(250.54 19.704 1.96188e-17)
(243.693 19.4367 1.04462e-17)
(237.466 19.0805 0)
(231.176 18.8078 -1.16154e-17)
(225.383 18.4817 0)
(219.582 18.1628 2.56541e-17)
(214.229 17.835 1.34162e-17)
(208.884 17.4538 0)
(203.989 17.124 0)
(199.069 16.6844 3.00316e-17)
(194.644 16.3772 -1.55229e-17)
(190.097 15.8936 -1.59286e-17)
(186.132 15.6444 3.28811e-17)
(181.87 15.1238 1.68118e-17)
(178.349 14.9585 1.73879e-17)
(174.258 14.3866 1.77416e-17)
(171.188 14.3093 0)
(167.135 13.655 -1.87478e-17)
(164.569 13.6378 0)
(160.409 12.8702 -1.98315e-17)
(158.46 12.8306 -2.09193e-17)
(154.046 11.94 0)
(152.887 11.7466 0)