/*--------------------------------*- C++ -*----------------------------------*\
| =========                 |                                                 |
| \\      /  F ield         | OpenFOAM: The Open Source CFD Toolbox           |
|  \\    /   O peration     | Version:  2412                                  |
|   \\  /    A nd           | Website:  www.openfoam.com                      |
|    \\/     M anipulation  |                                                 |
\*---------------------------------------------------------------------------*/
FoamFile
{
    version     2.0;
    format      ascii;
    arch        "LSB;label=32;scalar=64";
    class       volScalarField;
    location    "0.7";
    object      p;
}
// * * * * * * * * * * * * * * * * * * * * * * * * * * * * * * * * * * * * * //

dimensions      [0 2 -2 0 0 0 0];

internalField   nonuniform List<scalar> 
13156
(
118970
110927
109943
109260
108441
107833
107328
106839
106405
105993
105628
105285
104986
104702
104451
104195
103959
103685
103426
103103
102799
102407
102053
101566
101163
100562
100102
99351.8
98837.3
97873.3
97319.3
96056
95480.1
93777.3
93236.9
90880.8
90485.9
87118.2
87095.4
82131.8
82870
75342.4
77579.6
65865.1
71044.1
52445.5
63505.9
33223.9
55228.9
3459.74
43862.7
-51414.6
13442.5
-271441
-37548
-68425.7
4027.49
-31048.2
16602.4
-5347.86
24557
12343.2
31665
25736
38433.9
36145.2
44643.1
44363.1
50182.2
50918.6
55010
56209.2
59164
60493
62668.8
63925.9
65537.9
66641.1
67852.3
68808.4
69770.6
70617.5
71418.5
72192
72879.4
73598
74191.4
74865.9
75371.4
76040.2
76449.5
77137.3
77415.9
78151.4
78241.6
79084.6
78902
79965.5
79379.5
117016
110356
109816
109232
108427
107821
107318
106829
106396
105985
105620
105278
104981
104697
104446
104190
103955
103680
103421
103098
102794
102401
102048
101560
101156
100555
100095
99344
98829.2
97864.5
97310
96045.8
95469.5
93765.5
93224.6
90867.1
90471.5
87102.1
87078.1
82112.8
82849.2
75319.7
77553.9
65837.9
71012.2
52413.9
63466.6
33188.3
55178.2
3414.9
43785.2
-51497
13386.1
-270332
-37416.1
-68555.3
3992.31
-31061.8
16582.8
-5358.86
24542.8
12333.6
31653.4
25727
38424
36137
44634.6
44355.6
50174.7
50911.9
55003.4
56203.1
59158
60487.3
62663.3
63920.7
65532.9
66636.4
67848
68804.4
69766.7
70613.9
71415
72188.6
72876.1
73594.8
74188.2
74862.9
75368.3
76037.3
76446.5
77134.5
77412.8
78148.8
78238.5
79082.3
78899
79963.7
79376.7
116664
110489
109860
109232
108418
107811
107310
106822
106390
105979
105615
105273
104976
104692
104442
104187
103951
103677
103417
103094
102789
102396
102042
101555
101151
100549
100089
99336.7
98822
97856.2
97301.8
96036
95459.9
93754.1
93213.4
90853.6
90458.3
87086.1
87062.2
82093.4
82829.6
75296.1
77529.4
65809.1
70981.3
52380.3
63427.6
33149.9
55125.5
3365.56
43700.4
-51592.6
13357.6
-269009
-37301.9
-68713.5
3955.27
-31081.3
16556.7
-5373.29
24523.7
12320.9
31637.8
25715.2
38410.8
36126.1
44623.2
44345.8
50164.8
50903.2
54994.7
56195.1
59150.1
60479.9
62656
63913.9
65526.4
66630.5
67842.6
68799.3
69762.1
70609.6
71410.9
72184.8
72872.4
73591.4
74184.8
74859.8
75365
76034.3
76443
77131.6
77409.2
78146.2
78234.7
79080.5
78895
79962.8
79372.7
116604
110580
109857
109212
108404
107802
107303
106815
106384
105973
105610
105268
104972
104688
104438
104183
103947
103673
103413
103089
102785
102391
102038
101549
101146
100543
100083
99329.9
98815.4
97848.4
97294.4
96027
95451.5
93743.5
93203.7
90841.1
90447
87071.2
87048.6
82075.4
82813.1
75274.4
77508.9
65782.7
70955.7
52349.5
63395.4
33114.9
55081.7
3321.37
43627.8
-51678.2
13349.9
-267741
-37169.5
-68859.5
3927.81
-31099.2
16535
-5386.25
24507.5
12309.5
31624.6
25704.7
38399.5
36116.5
44613.5
44337.1
50156.3
50895.5
54987.2
56188
59143.2
60473.1
62649.5
63907.6
65520.6
66625
67837.5
68794.7
69757.8
70605.6
71407.2
72181.3
72869
73588.2
74181.6
74857.1
75361.9
76031.7
76439.9
77129.1
77405.8
78144
78231
79079.1
78891
79962.6
79368.3
116275
110546
109835
109193
108393
107793
107294
106807
106377
105967
105604
105263
104967
104684
104434
104179
103944
103669
103410
103085
102781
102387
102033
101544
101140
100537
100077
99322.9
98808.9
97840.5
97287
96017.7
95443.2
93732.7
93194.4
90828.3
90436.2
87056
87035.9
82057.1
82797.9
75252.1
77490.1
65755.6
70932.5
52317.7
63366.4
33078.5
55042.2
3276.19
43560.5
-51764
13329.7
-266463
-36993.4
-69006.3
3905.42
-31115.9
16517.1
-5398.41
24494
12298.9
31613.4
25695
38390
36107.8
44605.2
44329.4
50149
50888.6
54980.6
56181.6
59137
60467
62643.6
63901.9
65515.2
66619.9
67832.9
68790.4
69753.8
70601.9
71403.6
72178
72865.8
73585.3
74178.6
74854.5
75359
76029.3
76436.9
77126.9
77402.6
78142.1
78227.5
79078
78887
79962.7
79363.6
115958
110520
109830
109172
108380
107782
107285
106799
106369
105960
105598
105258
104962
104679
104430
104175
103940
103665
103406
103081
102777
102382
102028
101538
101135
100530
100071
99315.6
98802.2
97832.2
97279.5
96008.1
95434.8
93721.5
93185
90815
90425.5
87040.2
87023.5
82038
82783.2
75228.8
77472.2
65727
70910.5
52283.9
63339.1
33039.6
55004.5
3228.13
43493.5
-51854.8
13291.4
-265157
-36789.4
-69159.6
3884.74
-31132.9
16500.6
-5410.78
24481.3
12288.2
31602.8
25685.3
38380.9
36099.2
44597.2
44321.6
50142
50881.8
54974.3
56175.3
59131
60461
62637.8
63896.3
65510
66614.9
67828.4
68786.1
69749.8
70598.2
71400.1
72174.8
72862.6
73582.4
74175.6
74851.9
75356.2
76027
76434.1
77124.8
77399.4
78140.3
78224
79077
78883.1
79963.2
79358.7
115693
110492
109826
109148
108367
107772
107276
106790
106362
105953
105591
105252
104957
104675
104426
104171
103936
103661
103402
103076
102772
102377
102023
101533
101129
100524
100065
99308.1
98795.2
97823.6
97271.8
95998.1
95426.3
93709.9
93175.4
90801.3
90414.8
87023.9
87011.2
82018.3
82768.9
75204.6
77455
65697.2
70889.4
52248.6
63313.1
32998.8
54967.6
3177.45
43425.2
-51951.1
13243.2
-263844
-36571.3
-69315.8
3865.27
-31150.5
16484.9
-5423.5
24469
12277.1
31592.5
25675.4
38372
36090.3
44589.4
44313.8
50135
50874.9
54968
56168.9
59125
60454.8
62632.1
63890.6
65504.7
66610
67823.9
68781.9
69745.9
70594.5
71396.6
72171.5
72859.3
73579.4
74172.6
74849.4
75353.4
76024.8
76431.2
77122.8
77396.3
78138.7
78220.6
79076.2
78879
79963.8
79353.7
115439
110457
109820
109123
108353
107761
107266
106782
106354
105945
105585
105246
104952
104670
104422
104167
103932
103657
103397
103072
102768
102371
102018
101527
101123
100517
100058
99300.4
98788.2
97814.8
97264
95987.9
95417.6
93698
93165.8
90787.1
90404
87007
86998.9
81997.9
82754.7
75179.6
77438.1
65666.5
70869.1
52211.9
63287.8
32956.2
54930.2
3124.04
43355
-52052.2
13191.4
-262535
-36345.1
-69471.5
3846.95
-31168.7
16470.1
-5436.51
24457.2
12265.8
31582.4
25665.3
38363.3
36081.4
44581.6
44305.9
50128.1
50867.9
54961.6
56162.4
59118.9
60448.7
62626.3
63884.9
65499.5
66605
67819.5
68777.6
69742
70590.8
71393.1
72168.2
72856.1
73576.5
74169.6
74846.9
75350.6
76022.6
76428.4
77120.8
77393.3
78137.1
78217.1
79075.5
78875
79964.7
79348.4
115191
110419
109812
109098
108339
107749
107256
106773
106346
105938
105579
105240
104947
104665
104418
104163
103928
103653
103393
103067
102763
102366
102013
101521
101118
100510
100052
99292.6
98781.1
97806
97256.1
95977.5
95408.8
93685.8
93156
90772.7
90393.1
86989.7
86986.5
81976.9
82740.4
75153.9
77421.3
65634.7
70848.9
52173.8
63262.4
32911.7
54891.8
3067.67
43282.8
-52157
13139
-261232
-36113.6
-69624.9
3829.73
-31187.5
16456.2
-5449.8
24445.8
12254.3
31572.5
25655.1
38354.6
36072.4
44573.9
44297.9
50121.2
50860.8
54955.2
56155.9
59112.8
60442.5
62620.5
63879.3
65494.3
66600.1
67815
68773.4
69738
70587.1
71389.5
72164.9
72852.9
73573.6
74166.5
74844.4
75347.8
76020.4
76425.6
77119
77390.3
78135.6
78213.7
79074.9
78870.9
79965.8
79342.9
114954
110381
109802
109073
108325
107738
107247
106764
106338
105931
105572
105234
104941
104661
104414
104159
103924
103649
103389
103063
102759
102361
102007
101515
101112
100504
100046
99284.8
98774.1
97797
97248.3
95967
95400
93673.5
93146.3
90757.9
90382.2
86972.1
86974.1
81955.4
82726.2
75127.4
77404.5
65602
70828.7
52134.4
63236.5
32865
54852
3008.54
43209.4
-52263.7
13087.7
-259935
-35878.3
-69775.2
3813.58
-31206.8
16443
-5463.36
24434.8
12242.6
31562.9
25644.7
38346.1
36063.2
44566.2
44289.8
50114.2
50853.7
54948.8
56149.2
59106.6
60436.2
62614.7
63873.6
65489.2
66595.1
67810.6
68769.2
69734.1
70583.4
71386
72161.6
72849.6
73570.6
74163.5
74841.9
75345
76018.3
76422.9
77117.2
77387.3
78134.3
78210.2
79074.4
78866.7
79967
79337.3
114727
110344
109792
109047
108311
107726
107237
106755
106330
105924
105565
105228
104936
104656
104409
104155
103920
103645
103385
103058
102754
102356
102002
101509
101106
100497
100039
99277
98767
97788
97240.4
95956.5
95391.2
93661
93136.5
90743.1
90371.2
86954.2
86961.7
81933.5
82712
75100.4
77387.6
65568.3
70808.3
52093.6
63209.8
32816.3
54811.5
2947.26
43135.5
-52370.8
13038.6
-258646
-35640.3
-69922.3
3798.55
-31226.7
16430.5
-5477.2
24424.2
12230.6
31553.5
25634.2
38337.8
36053.9
44558.6
44281.7
50107.3
50846.5
54942.4
56142.5
59100.4
60429.8
62608.9
63867.9
65484
66590.2
67806.2
68765
69730.2
70579.7
71382.5
72158.3
72846.4
73567.7
74160.5
74839.5
75342.2
76016.2
76420.2
77115.4
77384.3
78132.9
78206.8
79074
78862.6
79968.4
79331.5
114511
110307
109780
109022
108297
107715
107227
106745
106322
105916
105559
105222
104931
104651
104405
104151
103917
103641
103381
103054
102750
102351
101997
101503
101100
100490
100033
99269.2
98760
97779.1
97232.6
95945.9
95382.5
93648.6
93126.8
90728.1
90360.3
86936.1
86949.3
81911.4
82697.8
75072.9
77370.8
65534
70787.7
52051.6
63182.6
32765.8
54770.5
2884.54
43061.7
-52477.2
12992.2
-257365
-35400.7
-70066.3
3784.68
-31247
16418.7
-5491.29
24413.9
12218.5
31544.3
25623.5
38329.4
36044.5
44551
44273.4
50100.4
50839.1
54935.9
56135.7
59094.2
60423.5
62603
63862.1
65478.8
66585.3
67801.8
68760.8
69726.3
70576
71378.9
72155
72843.1
73564.8
74157.5
74837
75339.5
76014.2
76417.5
77113.8
77381.4
78131.7
78203.4
79073.7
78858.4
79970
79325.5
114303
110271
109766
108996
108283
107703
107217
106736
106314
105909
105552
105216
104926
104646
104401
104147
103913
103637
103378
103050
102745
102346
101992
101497
101095
100483
100027
99261.5
98753.1
97770.2
97224.8
95935.4
95373.9
93636.1
93117.1
90713.1
90349.5
86918
86937
81889
82683.7
75045.1
77354.1
65499
70767
52008.5
63155
32714
54729.5
2821.04
42988.3
-52582
12948.7
-256091
-35160.3
-70207.1
3771.97
-31267.7
16407.5
-5505.64
24404
12206.2
31535.2
25612.6
38321.2
36035
44543.5
44265
50093.4
50831.7
54929.4
56128.8
59087.9
60417
62597.2
63856.4
65473.7
66580.3
67797.4
68756.6
69722.4
70572.3
71375.4
72151.7
72839.8
73561.8
74154.5
74834.6
75336.7
76012.3
76414.9
77112.2
77378.5
78130.5
78200
79073.4
78854.2
79971.7
79319.5
114103
110235
109752
108971
108269
107691
107206
106727
106306
105901
105546
105210
104921
104642
104397
104143
103909
103633
103374
103045
102741
102341
101987
101492
101089
100477
100021
99253.8
98746.2
97761.3
97217.2
95924.9
95365.3
93623.7
93107.6
90698.1
90338.8
86899.8
86924.9
81866.6
82669.7
75017.1
77337.4
65463.6
70746.3
51964.6
63127.2
32661.3
54688.9
2757.23
42915.6
-52684.8
12908.4
-254826
-34919.7
-70345.3
3760.34
-31288.6
16396.9
-5520.23
24394.4
12193.6
31526.3
25601.6
38313.1
36025.3
44535.9
44256.5
50086.4
50824.2
54922.8
56121.8
59081.6
60410.5
62591.3
63850.6
65468.6
66575.4
67793
68752.4
69718.5
70568.6
71371.8
72148.4
72836.5
73558.9
74151.4
74832.2
75334
76010.3
76412.3
77110.6
77375.7
78129.4
78196.6
79073.2
78849.9
79973.5
79313.3
113911
110199
109736
108945
108255
107679
107196
106718
106298
105893
105539
105204
104915
104637
104393
104139
103905
103629
103370
103041
102737
102336
101982
101486
101084
100470
100015
99246.2
98739.5
97752.4
97209.6
95914.5
95356.8
93611.3
93098.1
90683.1
90328.2
86881.6
86912.8
81844
82655.8
74988.8
77320.8
65427.7
70725.5
51919.9
63099.5
32608.1
54648.7
2693.5
42843.8
-52785.1
12871.2
-253569
-34679.5
-70480.9
3749.68
-31309.6
16386.8
-5535.05
24385.1
12180.9
31517.6
25590.4
38305
36015.6
44528.4
44247.9
50079.4
50816.6
54916.2
56114.8
59075.3
60404
62585.5
63844.9
65463.5
66570.5
67788.7
68748.2
69714.7
70564.9
71368.3
72145.1
72833.2
73556
74148.4
74829.8
75331.3
76008.5
76409.7
77109.2
77372.8
78128.4
78193.3
79073.1
78845.6
79975.5
79307
113726
110164
109719
108920
108241
107667
107186
106708
106289
105886
105532
105198
104910
104632
104389
104135
103902
103625
103366
103037
102733
102331
101978
101480
101078
100464
100009
99238.6
98732.7
97743.7
97202.1
95904.1
95348.4
93598.9
93088.8
90668.2
90317.8
86863.4
86900.9
81821.5
82642.1
74960.4
77304.3
65391.5
70704.7
51874.7
63071.8
32554.6
54609.2
2630.08
42772.9
-52882.6
12837
-252321
-34439.9
-70614.2
3739.87
-31330.8
16377.3
-5550.07
24376.1
12168
31509
25579.1
38296.9
36005.7
44520.8
44239.2
50072.4
50808.9
54909.6
56107.7
59068.9
60397.4
62579.6
63839.1
65458.4
66565.6
67784.4
68744
69710.8
70561.3
71364.7
72141.8
72829.9
73553
74145.4
74827.5
75328.7
76006.6
76407.2
77107.7
77370
78127.4
78189.9
79073
78841.4
79977.5
79300.6
113548
110128
109701
108895
108227
107655
107176
106699
106281
105878
105525
105192
104905
104627
104385
104131
103898
103621
103362
103032
102728
102326
101973
101475
101073
100457
100003
99231.1
98726.1
97735
97194.6
95893.8
95340.1
93586.6
93079.5
90653.3
90307.4
86845.2
86889.1
81798.9
82628.6
74931.9
77287.9
65355.1
70683.9
51829
63044.4
32501
54570.3
2567.15
42703.1
-52977.4
12805.8
-251081
-34201.4
-70745.4
3730.76
-31352.1
16368.2
-5565.29
24367.3
12154.9
31500.5
25567.7
38288.9
35995.7
44513.3
44230.4
50065.3
50801.1
54902.9
56100.5
59062.5
60390.8
62573.8
63833.4
65453.3
66560.7
67780
68739.8
69706.9
70557.6
71361.2
72138.4
72826.6
73550.1
74142.4
74825.2
75326
76004.8
76404.7
77106.3
77367.2
78126.4
78186.5
79073
78837
79979.7
79294.1
113376
110093
109682
108869
108213
107643
107165
106689
106273
105870
105519
105186
104900
104623
104381
104127
103894
103618
103359
103028
102724
102321
101968
101469
101068
100451
99996.7
99223.7
98719.5
97726.3
97187.3
95883.5
95331.9
93574.3
93070.4
90638.4
90297.2
86827
86877.5
81776.3
82615.2
74903.4
77271.7
65318.4
70663.2
51783.1
63017.3
32447.5
54532.2
2504.82
42634.3
-53069.3
12777.4
-249850
-33963.9
-70874.7
3722.23
-31373.4
16359.5
-5580.7
24358.8
12141.6
31492.1
25556.1
38281
35985.5
44505.8
44221.5
50058.3
50793.2
54896.1
56093.2
59056.1
60384.2
62567.9
63827.6
65448.2
66555.8
67775.7
68735.7
69703.1
70553.9
71357.6
72135.1
72823.3
73547.2
74139.4
74822.9
75323.4
76003.1
76402.2
77105
77364.4
78125.5
78183.1
79073.1
78832.7
79981.9
79287.5
113210
110058
109662
108844
108199
107631
107155
106680
106264
105863
105512
105180
104894
104618
104377
104123
103891
103614
103355
103024
102720
102316
101963
101464
101063
100444
99990.9
99216.3
98713
97717.7
97180
95873.3
95323.8
93562.2
93061.3
90623.6
90287
86808.9
86866
81753.7
82601.9
74874.7
77255.5
65281.5
70642.5
51736.9
62990.6
32394.3
54494.8
2443.18
42566.5
-53158.3
12751.7
-248627
-33727.7
-71002.3
3714.17
-31394.8
16351.3
-5596.28
24350.5
12128.2
31483.8
25544.3
38273.1
35975.2
44498.2
44212.4
50051.1
50785.3
54889.4
56085.9
59049.6
60377.5
62562
63821.8
65443.2
66551
67771.4
68731.5
69699.2
70550.2
71354.1
72131.8
72820
73544.3
74136.4
74820.6
75320.8
76001.4
76399.7
77103.7
77361.7
78124.6
78179.7
79073.2
78828.3
79984.3
79280.8
113050
110023
109642
108819
108185
107618
107145
106670
106256
105855
105505
105174
104889
104613
104373
104119
103887
103610
103351
103020
102716
102311
101959
101458
101057
100438
99985.1
99208.9
98706.6
97709.2
97172.8
95863.1
95315.8
93550
93052.4
90608.9
90277
86790.8
86854.6
81731.1
82588.7
74846
77239.5
65244.4
70621.9
51690.6
62964.2
32341.4
54458.2
2382.24
42499.8
-53244.4
12728.7
-247413
-33492.8
-71128.2
3706.48
-31416.3
16343.3
-5612.02
24342.3
12114.5
31475.6
25532.4
38265.2
35964.9
44490.7
44203.3
50044
50777.2
54882.6
56078.5
59043.1
60370.9
62556.2
63816.1
65438.1
66546.1
67767.2
68727.4
69695.4
70546.5
71350.5
72128.5
72816.7
73541.4
74133.4
74818.3
75318.3
75999.7
76397.3
77102.4
77358.9
78123.8
78176.3
79073.3
78823.9
79986.7
79274.1
112896
109988
109620
108794
108171
107606
107134
106661
106248
105847
105499
105168
104884
104609
104369
104115
103884
103607
103348
103016
102712
102307
101954
101453
101052
100432
99979.4
99201.7
98700.3
97700.7
97165.7
95853.1
95307.8
93538
93043.5
90594.2
90267.1
86772.8
86843.4
81708.6
82575.7
74817.3
77223.5
65207.2
70601.4
51644.2
62938.2
32288.8
54422.3
2322.04
42434
-53327.6
12708.1
-246208
-33259.3
-71252.6
3699.08
-31438
16335.7
-5627.93
24334.4
12100.7
31467.5
25520.3
38257.3
35954.3
44483.1
44194.1
50036.8
50769.1
54875.7
56071.1
59036.7
60364.2
62550.4
63810.3
65433.1
66541.3
67762.9
68723.2
69691.5
70542.8
71347
72125.2
72813.4
73538.5
74130.4
74816.1
75315.7
75998.1
76394.8
77101.2
77356.1
78123
78172.9
79073.5
78819.5
79989.3
79267.2
112746
109954
109597
108769
108157
107593
107124
106651
106239
105840
105492
105162
104879
104604
104365
104112
103880
103603
103344
103012
102708
102302
101950
101448
101047
100426
99973.8
99194.5
98694
97692.3
97158.7
95843.1
95300
93526
93034.8
90579.6
90257.3
86754.8
86832.2
81686
82562.8
74788.5
77207.6
65169.9
70581
51597.8
62912.7
32236.6
54387.1
2262.58
42369.3
-53408.1
12689.9
-245011
-33027.1
-71375.4
3691.9
-31459.8
16328.3
-5644
24326.5
12086.6
31459.4
25508
38249.4
35943.7
44475.5
44184.8
50029.6
50760.8
54868.9
56063.6
59030.2
60357.4
62544.5
63804.6
65428.1
66536.5
67758.7
68719.1
69687.7
70539.2
71343.4
72121.9
72810.1
73535.6
74127.5
74813.9
75313.2
75996.5
76392.4
77100
77353.4
78122.2
78169.5
79073.7
78815
79991.9
79260.3
112602
109919
109574
108745
108142
107581
107113
106642
106231
105832
105485
105156
104874
104600
104361
104108
103877
103600
103341
103008
102704
102297
101945
101442
101042
100420
99968.3
99187.3
98687.8
97684
97151.7
95833.1
95292.2
93514.1
93026.1
90565
90247.6
86736.9
86821.2
81663.5
82550
74759.7
77191.7
65132.4
70560.7
51551.4
62887.7
32184.9
54352.5
2203.85
42305.5
-53485.8
12673.9
-243822
-32796.3
-71496.7
3684.9
-31481.8
16321.1
-5660.24
24318.8
12072.4
31451.4
25495.6
38241.6
35932.9
44467.9
44175.3
50022.4
50752.5
54861.9
56056
59023.7
60350.7
62538.7
63798.9
65423.2
66531.7
67754.5
68715
69683.9
70535.5
71339.9
72118.6
72806.8
73532.7
74124.5
74811.7
75310.7
75994.9
76390
77098.8
77350.6
78121.5
78166.1
79074
78810.6
79994.6
79253.3
112462
109884
109551
108720
108128
107568
107103
106632
106222
105824
105478
105150
104869
104595
104357
104104
103874
103596
103338
103004
102701
102293
101941
101437
101037
100414
99962.8
99180.3
98681.6
97675.7
97144.9
95823.2
95284.5
93502.2
93017.5
90550.5
90238
86719
86810.3
81641
82537.2
74730.8
77175.9
65094.9
70540.6
51505.1
62863
32133.5
54318.6
2145.84
42242.7
-53560.8
12660.1
-242643
-32566.9
-71616.6
3678.03
-31503.9
16314
-5676.65
24311.2
12058
31443.3
25483.1
38233.7
35922
44460.3
44165.8
50015.1
50744.2
54855
56048.4
59017.1
60344
62532.9
63793.2
65418.3
66526.9
67750.3
68710.9
69680.1
70531.8
71336.3
72115.3
72803.6
73529.9
74121.5
74809.5
75308.2
75993.3
76387.6
77097.6
77347.9
78120.7
78162.7
79074.2
78806.1
79997.3
79246.2
112327
109850
109526
108695
108114
107555
107092
106623
106214
105817
105472
105144
104864
104591
104353
104101
103870
103593
103334
103000
102697
102288
101937
101432
101032
100408
99957.3
99173.2
98675.6
97667.5
97138
95813.4
95276.9
93490.4
93009
90536.1
90228.5
86701.2
86799.5
81618.5
82524.6
74701.9
77160.2
65057.2
70520.5
51459
62838.8
32082.6
54285.3
2088.55
42180.7
-53633.2
12648.3
-241471
-32338.8
-71735
3671.27
-31526.3
16307.1
-5693.24
24303.6
12043.3
31435.4
25470.3
38225.8
35910.9
44452.6
44156.2
50007.7
50735.7
54848.1
56040.8
59010.6
60337.2
62527.2
63787.5
65413.4
66522.1
67746.1
68706.9
69676.3
70528.2
71332.8
72112
72800.3
73527
74118.6
74807.3
75305.7
75991.8
76385.2
77096.5
77345.1
78120
78159.3
79074.5
78801.5
80000.1
79239.1
112196
109815
109501
108671
108099
107542
107082
106613
106206
105809
105465
105138
104859
104586
104349
104097
103867
103589
103331
102997
102693
102284
101932
101427
101028
100402
99952
99166.3
98669.5
97659.4
97131.3
95803.7
95269.3
93478.6
93000.6
90521.7
90219.1
86683.4
86788.7
81596.1
82512
74672.9
77144.5
65019.5
70500.7
51413
62815
32032.1
54252.6
2031.94
42119.7
-53703.1
12638.4
-240309
-32112.1
-71852
3664.59
-31548.9
16300.3
-5710.01
24296.1
12028.5
31427.4
25457.4
38217.9
35899.8
44444.9
44146.4
50000.4
50727.1
54841.1
56033.1
59004.1
60330.5
62521.4
63781.8
65408.5
66517.4
67742
68702.8
69672.6
70524.6
71329.3
72108.7
72797
73524.2
74115.6
74805.2
75303.2
75990.2
76382.8
77095.3
77342.3
78119.3
78155.9
79074.9
78797
80003
79231.9
112070
109781
109476
108646
108085
107529
107071
106603
106197
105801
105458
105132
104854
104582
104346
104094
103864
103586
103328
102993
102689
102280
101928
101422
101023
100396
99946.6
99159.4
98663.6
97651.3
97124.6
95794
95261.9
93466.9
92992.3
90507.4
90209.8
86665.6
86778.1
81573.6
82499.5
74643.8
77128.8
64981.7
70480.9
51367.1
62791.6
31982
54220.5
1976.02
42059.4
-53770.4
12630.4
-239155
-31886.8
-71967.6
3657.99
-31571.8
16293.5
-5726.98
24288.6
12013.5
31419.4
25444.3
38210
35888.4
44437.2
44136.6
49993
50718.5
54834.1
56025.4
58997.6
60323.7
62515.7
63776.1
65403.7
66512.7
67737.9
68698.8
69668.8
70520.9
71325.8
72105.4
72793.7
73521.3
74112.6
74803
75300.7
75988.7
76380.3
77094.2
77339.6
78118.7
78152.4
79075.2
78792.4
80005.9
79224.6
111947
109747
109450
108622
108070
107516
107060
106593
106189
105793
105452
105126
104849
104578
104342
104090
103861
103583
103325
102989
102686
102275
101924
101417
101018
100390
99941.4
99152.5
98657.7
97643.2
97118
95784.3
95254.5
93455.3
92984.1
90493.1
90200.5
86647.9
86767.5
81551.1
82487
74614.7
77113.2
64943.9
70461.3
51321.4
62768.7
31932.3
54188.8
1920.75
42000.1
-53835.4
12624.1
-238009
-31662.7
-72081.7
3651.45
-31594.9
16286.8
-5744.13
24281.2
11998.3
31411.3
25431.1
38202.1
35877
44429.4
44126.6
49985.6
50709.8
54827
56017.7
58991.2
60317
62510.1
63770.5
65398.9
66508
67733.8
68694.7
69665.1
70517.3
71322.3
72102.1
72790.4
73518.5
74109.7
74800.9
75298.2
75987.2
76377.9
77093.1
77336.8
78118
78149
79075.6
78787.8
80008.9
79217.3
111828
109712
109423
108598
108055
107503
107050
106584
106180
105786
105445
105121
104844
104573
104338
104087
103858
103580
103321
102986
102682
102271
101920
101412
101013
100384
99936.2
99145.7
98651.9
97635.2
97111.5
95774.8
95247.1
93443.7
92975.9
90478.9
90191.4
86630.2
86757
81528.7
82474.6
74585.6
77097.6
64906
70441.9
51275.9
62746.1
31883
54157.7
1866.13
41941.5
-53898
12619.5
-236872
-31440
-72194.3
3644.97
-31618.2
16280.1
-5761.48
24273.7
11982.9
31403.3
25417.7
38194.1
35865.4
44421.6
44116.5
49978.1
50701.1
54820
56009.9
58984.7
60310.3
62504.4
63764.9
65394.1
66503.3
67729.8
68690.7
69661.4
70513.7
71318.8
72098.8
72787.1
73515.6
74106.7
74798.8
75295.7
75985.7
76375.5
77091.9
77334
78117.3
78145.5
79076
78783.2
80011.9
79210
111713
109678
109396
108574
108041
107490
107039
106574
106172
105778
105438
105115
104839
104569
104335
104083
103855
103576
103318
102982
102679
102267
101916
101407
101009
100378
99931
99139
98646.1
97627.3
97105
95765.2
95239.9
93432.2
92967.8
90464.7
90182.3
86612.6
86746.6
81506.2
82462.2
74556.3
77082
64868.1
70422.7
51230.6
62723.8
31834
54127.1
1812.14
41883.7
-53958.2
12616.4
-235743
-31218.6
-72305.5
3638.56
-31641.7
16273.4
-5779.04
24266.2
11967.2
31395.2
25404.1
38186.1
35853.7
44413.8
44106.4
49970.6
50692.3
54812.9
56002.1
58978.2
60303.6
62498.8
63759.3
65389.4
66498.7
67725.7
68686.8
69657.7
70510.1
71315.2
72095.6
72783.8
73512.8
74103.8
74796.6
75293.1
75984.1
76373
77090.8
77331.2
78116.7
78142
79076.4
78778.5
80015
79202.5
111602
109644
109369
108550
108026
107477
107028
106564
106163
105770
105432
105109
104834
104565
104331
104080
103852
103573
103315
102979
102675
102263
101912
101402
101004
100373
99925.9
99132.3
98640.4
97619.4
97098.5
95755.8
95232.7
93420.7
92959.7
90450.6
90173.2
86594.9
86736.2
81483.7
82449.8
74527
77066.4
64830.2
70403.6
51185.5
62701.9
31785.5
54097
1758.76
41826.7
-54016.2
12614.9
-234622
-30998.5
-72415.2
3632.21
-31665.5
16266.6
-5796.78
24258.7
11951.4
31387.1
25390.4
38178
35841.9
44405.9
44096.1
49963.1
50683.4
54805.9
55994.3
58971.8
60296.9
62493.2
63753.8
65384.7
66494
67721.7
68682.8
69654
70506.5
71311.7
72092.3
72780.5
73509.9
74100.8
74794.5
75290.6
75982.6
76370.5
77089.6
77328.4
78116
78138.5
79076.8
78773.9
80018.1
79195.1
111494
109610
109342
108526
108011
107464
107018
106555
106155
105763
105425
105103
104829
104561
104328
104077
103849
103570
103312
102975
102672
102258
101908
101397
101000
100367
99920.8
99125.6
98634.7
97611.6
97092.2
95746.3
95225.5
93409.3
92951.7
90436.5
90164.2
86577.3
86725.8
81461.1
82437.5
74497.7
77050.9
64792.3
70384.7
51140.6
62680.4
31737.3
54067.3
1705.98
41770.4
-54072.1
12614.8
-233510
-30779.6
-72523.4
3625.93
-31689.5
16259.9
-5814.73
24251.1
11935.4
31379
25376.4
38170
35829.9
44398
44085.8
49955.5
50674.4
54798.8
55986.5
58965.4
60290.2
62487.7
63748.3
65380.1
66489.4
67717.8
68678.8
69650.3
70502.9
71308.3
72089
72777.2
73507.1
74097.8
74792.4
75288.1
75981.1
76368
77088.5
77325.5
78115.4
78135
79077.3
78769.2
80021.3
79187.6
111390
109576
109314
108503
107996
107451
107007
106545
106147
105755
105419
105097
104825
104556
104324
104074
103846
103567
103309
102972
102668
102254
101904
101392
100995
100361
99915.8
99119
98629.1
97603.8
97085.8
95737
95218.5
93398
92943.8
90422.4
90155.3
86559.7
86715.5
81438.6
82425.1
74468.2
77035.4
64754.4
70366
51096
62659.2
31689.4
54038.1
1653.78
41714.9
-54125.7
12616
-232406
-30562
-72630.2
3619.72
-31713.7
16253.2
-5832.87
24243.5
11919.1
31370.8
25362.4
38161.8
35817.8
44390.1
44075.3
49947.9
50665.4
54791.7
55978.6
58959
60283.5
62482.2
63742.8
65375.5
66484.9
67713.8
68674.9
69646.7
70499.4
71304.8
72085.7
72773.9
73504.3
74094.9
74790.3
75285.5
75979.5
76365.5
77087.3
77322.7
78114.7
78131.5
79077.7
78764.5
80024.5
79180
111288
109542
109286
108479
107981
107437
106996
106535
106138
105748
105412
105092
104820
104552
104321
104070
103843
103564
103306
102968
102665
102250
101900
101388
100991
100356
99910.9
99112.5
98623.5
97596.1
97079.6
95727.7
95211.4
93386.6
92935.9
90408.4
90146.5
86542.1
86705.2
81416
82412.7
74438.7
77019.9
64716.4
70347.4
51051.5
62638.3
31641.9
54009.2
1602.16
41660
-54177.3
12618.5
-231310
-30345.7
-72735.4
3613.6
-31738.2
16246.4
-5851.19
24235.9
11902.7
31362.5
25348.1
38153.7
35805.6
44382.1
44064.8
49940.3
50656.4
54784.7
55970.8
58952.7
60276.9
62476.8
63737.3
65370.9
66480.4
67709.9
68671
69643
70495.8
71301.3
72082.5
72770.6
73501.4
74091.9
74788.1
75282.9
75977.9
76363
77086.2
77319.8
78114.1
78128
79078.2
78759.8
80027.8
79172.4
111190
109508
109258
108456
107966
107424
106985
106525
106130
105740
105406
105086
104815
104548
104318
104067
103840
103561
103304
102965
102662
102246
101896
101383
100986
100350
99906
99106
98618
97588.4
97073.4
95718.4
95204.5
93375.4
92928.1
90394.5
90137.6
86524.6
86694.9
81393.3
82400.3
74409.1
77004.4
64678.6
70329
51007.2
62617.6
31594.7
53980.8
1551.1
41605.9
-54226.9
12622.2
-230223
-30130.5
-72839.2
3607.56
-31762.7
16239.6
-5869.7
24228.2
11886.1
31354.2
25333.7
38145.5
35793.3
44374.1
44054.1
49932.6
50647.2
54777.6
55962.9
58946.3
60270.3
62471.4
63731.9
65366.4
66475.8
67706
68667.1
69639.4
70492.3
71297.8
72079.2
72767.2
73498.6
74088.9
74786
75280.3
75976.3
76360.4
77085
77316.9
78113.5
78124.5
79078.7
78755
80031
79164.8
111094
109474
109229
108432
107951
107411
106975
106516
106121
105732
105399
105081
104811
104544
104314
104064
103838
103558
103301
102962
102659
102242
101892
101378
100982
100345
99901.1
99099.6
98612.5
97580.8
97067.2
95709.2
95197.5
93364.1
92920.4
90380.5
90128.8
86507
86684.7
81370.6
82387.9
74379.4
76988.9
64640.7
70310.8
50963.2
62597.3
31547.8
53952.8
1500.6
41552.5
-54274.4
12627.1
-229144
-29916.6
-72941.4
3601.62
-31787.5
16232.8
-5888.38
24220.5
11869.3
31345.9
25319.2
38137.2
35780.8
44366
44043.4
49925
50638.1
54770.5
55955.1
58940.1
60263.7
62466
63726.5
65361.9
66471.4
67702.1
68663.2
69635.8
70488.7
71294.3
72075.9
72763.9
73495.7
74085.9
74783.8
75277.7
75974.7
76357.8
77083.8
77314
78112.8
78120.9
79079.2
78750.3
80034.3
79157.1
111002
109441
109201
108409
107936
107397
106964
106506
106113
105725
105393
105075
104806
104540
104311
104061
103835
103555
103298
102958
102655
102238
101888
101374
100978
100340
99896.3
99093.2
98607.1
97573.2
97061.1
95700
95190.7
93352.9
92912.7
90366.6
90120.1
86489.4
86674.4
81347.9
82375.4
74349.6
76973.4
64602.9
70292.8
50919.4
62577.2
31501.3
53925.1
1450.63
41499.7
-54320
12633
-228073
-29703.9
-73042.1
3595.79
-31812.4
16226
-5907.23
24212.7
11852.3
31337.5
25304.5
38129
35768.3
44357.9
44032.6
49917.3
50628.9
54763.5
55947.2
58933.8
60257.2
62460.7
63721.2
65357.4
66466.9
67698.3
68659.4
69632.2
70485.2
71290.8
72072.6
72760.6
73492.9
74082.8
74781.6
75275.1
75973.1
76355.2
77082.6
77311.1
78112.2
78117.3
79079.7
78745.5
80037.7
79149.4
110912
109407
109172
108386
107920
107384
106953
106496
106105
105717
105387
105069
104802
104536
104308
104058
103832
103553
103295
102955
102652
102234
101885
101369
100974
100334
99891.5
99086.8
98601.7
97565.6
97055
95690.9
95183.9
93341.8
92905
90352.7
90111.3
86471.8
86664.1
81325
82362.9
74319.8
76958
64565.1
70274.9
50875.7
62557.4
31455
53897.8
1401.2
41447.6
-54363.7
12639.9
-227010
-29492.4
-73141.3
3590.06
-31837.5
16219.2
-5926.24
24204.8
11835.2
31329
25289.6
38120.7
35755.6
44349.8
44021.7
49909.5
50619.6
54756.4
55939.4
58927.6
60250.7
62455.5
63715.8
65353
66462.5
67694.5
68655.5
69628.6
70481.6
71287.3
72069.4
72757.3
73490
74079.8
74779.4
75272.4
75971.5
76352.5
77081.4
77308.1
78111.6
78113.8
79080.2
78740.7
80041.1
79141.7
110825
109374
109143
108363
107905
107371
106942
106486
106096
105710
105380
105064
104797
104532
104305
104055
103830
103550
103293
102952
102649
102231
101881
101365
100969
100329
99886.8
99080.5
98596.4
97558.1
97049
95681.8
95177.1
93330.6
92897.3
90338.8
90102.6
86454.1
86653.8
81302.1
82350.4
74289.9
76942.6
64527.4
70257.2
50832.3
62537.8
31409.1
53870.8
1352.29
41396.1
-54405.5
12647.7
-225955