/*--------------------------------*- C++ -*----------------------------------*\
| =========                 |                                                 |
| \\      /  F ield         | OpenFOAM: The Open Source CFD Toolbox           |
|  \\    /   O peration     | Version:  2412                                  |
|   \\  /    A nd           | Website:  www.openfoam.com                      |
|    \\/     M anipulation  |                                                 |
\*---------------------------------------------------------------------------*/
FoamFile
{
    version     2.0;
    format      ascii;
    arch        "LSB;label=32;scalar=64";
    class       volScalarField;
    location    "0.7";
    object      epsilon;
}
// * * * * * * * * * * * * * * * * * * * * * * * * * * * * * * * * * * * * * //

dimensions      [0 2 -3 0 0 0 0];

internalField   nonuniform List<scalar> 
12960
(
380.737
387.624
403.999
442.547
521.32
653.685
834.906
1039.65
1237.51
1407.05
1535.34
1611.07
1626.72
1590.34
1526.15
1463.47
1419.98
1400.96
1402.61
1421.29
1452.18
1494.41
1545
1605.92
1674.65
1755.62
1845.47
1951.67
2068.73
2208.8
2362.45
2549.59
2753.77
3008.49
3284.8
3640.63
4025.23
4543.42
5109.34
5921.32
6834.72
8219.92
9796.84
12200.3
14766.1
18370.2
21545.6
25526.5
28688.8
32570.8
36035.4
32848.4
32011.4
21352.7
15834.9
13434.7
13198.4
13007.7
13153.5
12238.1
11259.3
9809.39
8653.37
7483.81
6625.7
5820.41
5226.01
4689.23
4300.44
3962.28
3716.89
3500.14
3333.95
3179.64
3048.35
2916.94
2790.59
2657.32
2521.1
2380.25
2239.71
2104.21
1976.69
1862.97
1761.04
1675.48
1599
1536.18
1476.27
1426.39
1373.53
1328.59
1276.35
1230.98
1175.81
1125.63
1066.2
1011.2
940.908
380.814
387.819
404.416
443.404
522.912
656.207
838.246
1043.35
1240.97
1409.83
1537.36
1612.49
1627.62
1590.59
1525.55
1462.07
1418.03
1398.76
1400.38
1419.15
1450.17
1492.52
1543.21
1604.19
1672.96
1753.93
1843.76
1949.9
2066.89
2206.85
2360.37
2547.34
2751.32
3005.76
3281.72
3637.1
4021.13
4538.52
5103.48
5914.24
6826.33
8210.32
9786.55
12190.5
14757.8
18365
21541
25523.9
28685.7
32591.5
36092.7
32960.9
32258.8
21623.4
16094.5
13664.4
13374.8
13125.7
13225.8
12279.2
11281.1
9819.71
8657.25
7484.4
6624.71
5818.73
5223.92
4686.92
4298.03
3959.95
3714.74
3498.26
3332.37
3178.4
3047.45
2916.37
2790.27
2657.19
2521.04
2380.15
2239.5
2103.85
1976.2
1862.4
1760.46
1674.96
1598.6
1535.96
1476.25
1426.6
1373.98
1329.31
1277.33
1232.3
1177.43
1127.65
1068.59
1014.03
943.924
380.893
388.017
404.838
444.269
524.515
658.74
841.598
1047.06
1244.44
1412.62
1539.4
1613.94
1628.56
1590.87
1524.99
1460.69
1416.1
1396.57
1398.16
1417.02
1448.16
1490.63
1541.42
1602.46
1671.27
1752.24
1842.04
1948.13
2065.05
2204.9
2358.3
2545.09
2748.87
3003.02
3278.66
3633.57
4017.03
4533.64
5097.63
5907.15
6817.94
8200.71
9776.26
12180.8
14749.6
18359.8
21536.5
25521.5
28682.6
32612.5
36150.4
33074.7
32510.6
21900.8
16362.3
13902.2
13557.5
13247.7
13300.3
12321.5
11303.4
9830.16
8661.14
7484.96
6623.71
5817.03
5221.83
4684.6
4295.61
3957.61
3712.59
3496.38
3330.8
3177.17
3046.56
2915.81
2789.98
2657.08
2520.99
2380.08
2239.31
2103.51
1975.72
1861.83
1759.88
1674.44
1598.22
1535.75
1476.24
1426.83
1374.44
1330.05
1278.33
1233.63
1179.08
1129.71
1071.03
1016.9
946.992
380.972
388.217
405.265
445.142
526.131
661.289
844.966
1050.79
1247.93
1415.44
1541.45
1615.4
1629.52
1591.17
1524.44
1459.32
1414.16
1394.38
1395.94
1414.88
1446.14
1488.73
1539.62
1600.73
1669.57
1750.54
1840.33
1946.36
2063.21
2202.95
2356.22
2542.84
2746.41
3000.28
3275.58
3630.03
4012.92
4528.74
5091.76
5900.04
6809.52
8191.05
9765.92
12171
14741.4
18354.6
21532.1
25519
28679.4
32633.4
36208.2
33189.5
32766.5
22185
16638.5
14148.5
13746.8
13373.8
13377
12364.7
11326
9840.64
8664.97
7485.44
6622.62
5815.27
5219.68
4682.23
4293.14
3955.24
3710.41
3494.48
3329.2
3175.92
3045.66
2915.24
2789.68
2656.97
2520.95
2380
2239.12
2103.16
1975.23
1861.26
1759.3
1673.92
1597.83
1535.54
1476.24
1427.06
1374.9
1330.79
1279.34
1234.99
1180.75
1131.79
1073.49
1019.81
950.105
381.053
388.421
405.697
446.025
527.759
663.853
848.352
1054.53
1251.43
1418.27
1543.52
1616.87
1630.49
1591.49
1523.9
1457.95
1412.23
1392.19
1393.71
1412.73
1444.12
1486.83
1537.82
1598.99
1667.86
1748.84
1838.6
1944.58
2061.35
2200.98
2354.13
2540.57
2743.94
2997.53
3272.49
3626.46
4008.79
4523.81
5085.86
5892.88
6801.04
8181.33
9755.49
12161.2
14733.1
18349.4
21527.5
25516.3
28675.9
32654.1
36266.1
33305.3
33026.6
22476.2
16923.4
14403.6
13943
13504.4
13456.1
12408.9
11348.8
9851.13
8668.7
7485.8
6621.43
5813.42
5217.45
4679.8
4290.62
3952.82
3708.19
3492.54
3327.58
3174.65
3044.75
2914.66
2789.38
2656.85
2520.91
2379.92
2238.92
2102.81
1974.74
1860.68
1758.71
1673.4
1597.43
1535.32
1476.23
1427.29
1375.37
1331.54
1280.36
1236.35
1182.44
1133.9
1075.99
1022.76
953.262
381.135
388.627
406.135
446.916
529.402
666.435
851.754
1058.29
1254.96
1421.11
1545.6
1618.35
1631.47
1591.81
1523.37
1456.59
1410.29
1389.99
1391.48
1410.58
1442.09
1484.92
1536
1597.24
1666.15
1747.12
1836.86
1942.78
2059.49
2199.01
2352.02
2538.28
2741.45
2994.75
3269.38
3622.88
4004.63
4518.85
5079.91
5885.67
6792.49
8171.53
9744.99
12151.2
14724.6
18344
21522.8
25513.5
28672.1
32674.5
36323.8
33421.9
33290.9
22774.6
17217.3
14667.8
14146.4
13639.6
13537.6
12454.2
11372.1
9861.63
8672.32
7486.03
6620.13
5811.47
5215.14
4677.3
4288.04
3950.34
3705.92
3490.56
3325.93
3173.36
3043.81
2914.07
2789.06
2656.72
2520.86
2379.84
2238.72
2102.45
1974.24
1860.09
1758.1
1672.86
1597.03
1535.1
1476.22
1427.51
1375.84
1332.29
1281.38
1237.73
1184.14
1136.02
1078.51
1025.75
956.463
381.218
388.836
406.578
447.817
531.058
669.033
855.175
1062.07
1258.5
1423.98
1547.69
1619.84
1632.46
1592.15
1522.86
1455.23
1408.35
1387.78
1389.23
1408.41
1440.05
1483
1534.18
1595.48
1664.42
1745.4
1835.11
1940.98
2057.61
2197.01
2349.9
2535.98
2738.94
2991.95
3266.24
3619.27
4000.44
4513.86
5073.92
5878.41
6783.88
8161.65
9734.39
12141.2
14716.1
18338.6
21517.9
25510.5
28668
32694.7
36381.5
33539.5
33559.4
23080.5
17520.7
14941.6
14357.4
13779.7
13621.7
12500.6
11395.7
9872.15
8675.83
7486.13
6618.7
5809.42
5212.75
4674.72
4285.4
3947.81
3703.6
3488.55
3324.24
3172.03
3042.85
2913.45
2788.73
2656.58
2520.8
2379.75
2238.5
2102.08
1973.72
1859.48
1757.49
1672.31
1596.61
1534.86
1476.2
1427.73
1376.3
1333.04
1282.41
1239.11
1185.85
1138.17
1081.06
1028.78
959.709
381.302
389.048
407.027
448.728
532.727
671.647
858.613
1065.87
1262.06
1426.86
1549.8
1621.34
1633.46
1592.5
1522.35
1453.88
1406.41
1385.56
1386.97
1406.24
1438
1481.06
1532.35
1593.71
1662.69
1743.66
1833.35
1939.16
2055.71
2195.01
2347.76
2533.66
2736.41
2989.14
3263.08
3615.63
3996.22
4508.83
5067.89
5871.1
6775.21
8151.7
9723.7
12131
14707.5
18333
21513
25507.2
28663.4
32714.6
36439
33657.9
33832.3
23394.2
17834
15225.5
14576.4
13925
13708.5
12548.3
11419.7
9882.69
8679.24
7486.11
6617.16
5807.28
5210.28
4672.07
4282.69
3945.23
3701.24
3486.49
3322.52
3170.68
3041.87
2912.82
2788.39
2656.44
2520.73
2379.65
2238.28
2101.7
1973.2
1858.87
1756.86
1671.75
1596.19
1534.63
1476.17
1427.95
1376.77
1333.8
1283.44
1240.5
1187.57
1140.33
1083.64
1031.85
963.001
381.388
389.263
407.481
449.648
534.411
674.278
862.067
1069.69
1265.63
1429.75
1551.92
1622.85
1634.46
1592.86
1521.84
1452.52
1404.46
1383.34
1384.71
1404.05
1435.94
1479.12
1530.5
1591.93
1660.94
1741.91
1831.58
1937.33
2053.8
2192.99
2345.61
2531.33
2733.87
2986.3
3259.9
3611.97
3991.97
4503.76
5061.82
5863.74
6766.47
8141.67
9712.93
12120.8
14698.8
18327.4
21507.9
25503.8
28658.6
32734.2
36496.4
33777.2
34109.8
23716.1
18157.6
15519.9
14803.8
14075.8
13798.4
12597.4
11444.1
9893.29
8682.56
7485.96
6615.51
5805.03
5207.72
4669.36
4279.93
3942.59
3698.84
3484.4
3320.77
3169.31
3040.87
2912.18
2788.03
2656.28
2520.66
2379.54
2238.06
2101.31
1972.66
1858.24
1756.23
1671.18
1595.76
1534.38
1476.15
1428.17
1377.23
1334.55
1284.48
1241.91
1189.31
1142.52
1086.25
1034.96
966.34
381.475
389.482
407.942
450.578
536.108
676.925
865.538
1073.51
1269.23
1432.66
1554.05
1624.36
1635.48
1593.23
1521.35
1451.17
1402.51
1381.11
1382.44
1401.86
1433.87
1477.17
1528.65
1590.14
1659.18
1740.15
1829.8
1935.49
2051.88
2190.95
2343.44
2528.98
2731.31
2983.45
3256.7
3608.29
3987.7
4498.67
5055.71
5856.33
6757.68
8131.56
9702.08
12110.5
14690
18321.7
21502.7
25500.2
28653.4
32753.5
36553.7
33897.4
34392
24046.5
18492
15825.3
15040
14232.5
13891.4
12647.9
11469.1
9903.96
8685.79
7485.69
6613.74
5802.7
5205.09
4666.57
4277.1
3939.9
3696.39
3482.27
3318.99
3167.91
3039.84
2911.51
2787.67
2656.12
2520.58
2379.43
2237.82
2100.91
1972.12
1857.6
1755.58
1670.6
1595.32
1534.13
1476.11
1428.38
1377.7
1335.31
1285.52
1243.32
1191.07
1144.73
1088.89
1038.11
969.726
381.563
389.703
408.407
451.517
537.818
679.587
869.025
1077.36
1272.83
1435.58
1556.18
1625.89
1636.5
1593.61
1520.87
1449.82
1400.56
1378.87
1380.16
1399.66
1431.79
1475.21
1526.79
1588.34
1657.42
1738.38
1828
1933.63
2049.95
2188.9
2341.26
2526.61
2728.73
2980.57
3253.48
3604.58
3983.4
4493.54
5049.57
5848.87
6748.82
8121.39
9691.14
12100.1
14681.1
18315.8
21497.3
25496.4
28647.9
32772.6
36610.9
34018.6
34678.9
24385.8
18837.6
16142.1
15285.6
14395.3
13987.8
12700
11494.6
9914.73
8688.95
7485.31
6611.87
5800.27
5202.37
4663.72
4274.22
3937.16
3693.89
3480.11
3317.18
3166.48
3038.8
2910.84
2787.29
2655.95
2520.49
2379.31
2237.58
2100.5
1971.56
1856.95
1754.91
1670.01
1594.87
1533.87
1476.07
1428.59
1378.16
1336.08
1286.57
1244.74
1192.84
1146.97
1091.55
1041.3
973.163
381.653
389.927
408.879
452.465
539.542
682.266
872.527
1081.22
1276.45
1438.52
1558.33
1627.41
1637.53
1594
1520.39
1448.48
1398.6
1376.63
1377.87
1397.44
1429.7
1473.24
1524.91
1586.53
1655.64
1736.6
1826.19
1931.76
2048.01
2186.84
2339.07
2524.23
2726.13
2977.68
3250.23
3600.85
3979.07
4488.39
5043.38
5841.37
6739.91
8111.14
9680.12
12089.6
14672.1
18309.9
21491.9
25492.4
28642
32791.4
36668
34140.7
34970.9
24734.3
19195
16471
15540.9
14564.6
14087.9
12753.8
11520.8
9925.62
8692.04
7484.82
6609.9
5797.76
5199.59
4660.81
4271.28
3934.38
3691.36
3477.91
3315.34
3165.04
3037.74
2910.15
2786.9
2655.77
2520.4
2379.19
2237.33
2100.09
1971
1856.29
1754.24
1669.41
1594.41
1533.6
1476.03
1428.81
1378.63
1336.84
1287.63
1246.18
1194.62
1149.22
1094.25
1044.53
976.65
381.744
390.155
409.357
453.424
541.279
684.959
876.044
1085.09
1280.09
1441.47
1560.49
1628.94
1638.56
1594.39
1519.92
1447.14
1396.65
1374.38
1375.57
1395.22
1427.6
1471.26
1523.03
1584.71
1653.85
1734.81
1824.38
1929.89
2046.05
2184.77
2336.86
2521.83
2723.52
2974.77
3246.97
3597.1
3974.72
4483.2
5037.16
5833.82
6730.94
8100.83
9669.03
12079
14663.1
18304
21486.3
25488.2
28635.9
32809.9
36725
34263.9
35268
25092.6
19564.6
16812.5
15806.5
14740.8
14191.7
12809.5
11547.6
9936.65
8695.08
7484.23
6607.83
5795.16
5196.74
4657.84
4268.29
3931.55
3688.79
3475.68
3313.47
3163.57
3036.67
2909.44
2786.51
2655.59
2520.31
2379.06
2237.08
2099.67
1970.42
1855.62
1753.56
1668.8
1593.94
1533.33
1475.99
1429.01
1379.1
1337.62
1288.69
1247.62
1196.43
1151.5
1096.98
1047.8
980.189
381.836
390.386
409.84
454.391
543.03
687.667
879.575
1088.98
1283.74
1444.43
1562.65
1630.48
1639.6
1594.8
1519.46
1445.8
1394.69
1372.13
1373.26
1393
1425.5
1469.28
1521.14
1582.88
1652.06
1733.01
1822.55
1928
2044.08
2182.68
2334.63
2519.42
2720.89
2971.85
3243.69
3593.32
3970.35
4477.99
5030.91
5826.22
6721.92
8090.45
9657.86
12068.4
14653.9
18297.9
21480.7
25483.9
28629.4
32828.2
36781.8
34388.1
35570.4
25460.9
19947.1
17167
16082.9
14924.4
14299.7
12867
11575.1
9947.86
8698.07
7483.55
6605.66
5792.48
5193.81
4654.8
4265.25
3928.67
3686.18
3473.42
3311.58
3162.08
3035.57
2908.73
2786.1
2655.4
2520.21
2378.93
2236.82
2099.24
1969.84
1854.94
1752.87
1668.18
1593.47
1533.06
1475.94
1429.22
1379.57
1338.39
1289.76
1249.08
1198.24
1153.81
1099.75
1051.12
983.781
381.93
390.62
410.33
455.369
544.793
690.39
883.121
1092.88
1287.4
1447.41
1564.83
1632.02
1640.64
1595.21
1519.01
1444.47
1392.73
1369.86
1370.95
1390.76
1423.38
1467.28
1519.24
1581.04
1650.25
1731.2
1820.71
1926.09
2042.1
2180.58
2332.4
2517
2718.25
2968.9
3240.39
3589.53
3965.95
4472.75
5024.62
5818.59
6712.84
8080.01
9646.62
12057.6
14644.7
18291.8
21475
25479.4
28622.6
32846.2
36838.6
34513.4
35878.3
25839.8
20342.9
17535.1
16370.5
15115.6
14412
12926.7
11603.5
9959.28
8701.04
7482.78
6603.4
5789.73
5190.83
4651.72
4262.16
3925.76
3683.54
3471.13
3309.67
3160.57
3034.47
2908
2785.69
2655.21
2520.11
2378.8
2236.56
2098.81
1969.25
1854.25
1752.17
1667.55
1592.99
1532.77
1475.89
1429.43
1380.03
1339.17
1290.84
1250.55
1200.08
1156.14
1102.54
1054.49
987.428
382.025
390.857
410.825
456.356
546.57
693.127
886.679
1096.79
1291.08
1450.39
1567.01
1633.56
1641.68
1595.63
1518.57
1443.14
1390.76
1367.6
1368.63
1388.51
1421.26
1465.28
1517.33
1579.19
1648.43
1729.38
1818.86
1924.18
2040.1
2178.47
2330.15
2514.56
2715.59
2965.94
3237.07
3585.71
3961.53
4467.48
5018.31
5810.92
6703.72
8069.51
9635.31
12046.8
14635.4
18285.6
21469.1
25474.8
28615.4
32864
36895.2
34639.8
36191.9
26229.7
20752.6
17917.5
16670
15314.9
14528.9
12988.7
11632.7
9970.93
8704
7481.93
6601.06
5786.91
5187.78
4648.58
4259.02
3922.8
3680.86
3468.81
3307.73
3159.04
3033.34
2907.27
2785.27
2655.01
2520
2378.66
2236.29
2098.37
1968.65
1853.56
1751.46
1666.91
1592.5
1532.49
1475.83
1429.63
1380.51
1339.95
1291.93
1252.03
1201.93
1158.49
1105.37
1057.9
991.131
382.121
391.098
411.327
457.353
548.359
695.878
890.251
1100.72
1294.76
1453.39
1569.19
1635.11
1642.73
1596.06
1518.13
1441.81
1388.8
1365.33
1366.3
1386.26
1419.13
1463.26
1515.42
1577.34
1646.61
1727.55
1817
1922.26
2038.1
2176.34
2327.88
2512.1
2712.92
2962.97
3233.74
3581.88
3957.08
4462.19
5011.96
5803.2
6694.54
8058.94
9623.93
12036
14626.1
18279.4
21463.2
25470
28608
32881.5
36951.8
34767.3
36511.3
26631.1
21176.8
18314.7
16981.9
15522.8
14650.7
13053
11663
9982.85
8706.96
7481
6598.64
5784.01
5184.67
4645.39
4255.84
3919.81
3678.15
3466.47
3305.77
3157.5
3032.21
2906.52
2784.85
2654.81
2519.9
2378.52
2236.02
2097.92
1968.04
1852.85
1750.74
1666.27
1592
1532.19
1475.77
1429.84
1380.98
1340.74
1293.02
1253.52
1203.79
1160.87
1108.23
1061.36
994.892
382.22
391.342
411.834
458.359
550.162
698.643
893.835
1104.65
1298.46
1456.39
1571.38
1636.65
1643.78
1596.49
1517.7
1440.49
1386.83
1363.05
1363.97
1384
1416.99
1461.24
1513.49
1575.47
1644.77
1725.71
1815.13
1920.33
2036.08
2174.21
2325.61
2509.64
2710.23
2959.98
3230.39
3578.03
3952.62
4456.87
5005.58
5795.45
6685.32
8048.32
9612.49
12025.1
14616.7
18273.1
21457.2
25465.1
28600.3
32898.8
37008.3
34896
36836.8
27044.5
21616
18727.3
17306.8
15739.8
14777.7
13120
11694.2
9995.08
8709.94
7480.02
6596.15
5781.05
5181.51
4642.16
4252.62
3916.78
3675.41
3464.1
3303.8
3155.94
3031.06
2905.77
2784.42
2654.61
2519.79
2378.38
2235.75
2097.47
1967.43
1852.13
1750.02
1665.62
1591.5
1531.9
1475.71
1430.05
1381.45
1341.53
1294.12
1255.03
1205.68
1163.27
1111.13
1064.86
998.711
382.319
391.59
412.348
459.375
551.977
701.422
897.431
1108.6
1302.16
1459.4
1573.58
1638.2
1644.84
1596.93
1517.29
1439.18
1384.87
1360.77
1361.63
1381.73
1414.84
1459.21
1511.56
1573.6
1642.93
1723.86
1813.25
1918.38
2034.06
2172.06
2323.32
2507.16
2707.53
2956.97
3227.02
3574.16
3948.14
4451.53
4999.17
5787.66
6676.05
8037.65
9600.98
12014.1
14607.2
18266.7
21451.2
25460
28592.3
32915.8
37064.7
35025.9
37168.6
27470.3
22070.9
19155.8
17645.2
15966.2
14910.2
13189.7
11726.6
10007.6
8712.95
7478.98
6593.59
5778.04
5178.3
4638.88
4249.36
3913.72
3672.64
3461.71
3301.8
3154.37
3029.91
2905.01
2783.99
2654.41
2519.69
2378.24
2235.48
2097.02
1966.81
1851.41
1749.28
1664.96
1591
1531.6
1475.65
1430.25
1381.93
1342.33
1295.23
1256.55
1207.58
1165.71
1114.06
1068.42
1002.59
382.42
391.841
412.868
460.401
553.805
704.214
901.038
1112.55
1305.88
1462.43
1575.78
1639.75
1645.89
1597.38
1516.88
1437.87
1382.9
1358.48
1359.28
1379.45
1412.69
1457.17
1509.62
1571.72
1641.08
1722
1811.36
1916.43
2032.02
2169.9
2321.02
2504.67
2704.82
2953.95
3223.64
3570.27
3943.63
4446.16
4992.73
5779.83
6666.73
8026.91
9589.42
12003
14597.7
18260.3
21445.1
25454.8
28584.1
32932.6
37121
35157.1
37506.8
27909.2
22542.1
19601
17997.7
16202.5
15048.5
13262.3
11760.2
10020.6
8716.01
7477.89
6590.97
5774.97
5175.04
4635.56
4246.07
3910.62
3669.85
3459.3
3299.79
3152.78
3028.74
2904.25
2783.56
2654.21
2519.58
2378.11
2235.2
2096.56
1966.19
1850.68
1748.54
1664.29
1590.48
1531.29
1475.59
1430.46
1382.41
1343.13
1296.34
1258.08
1209.5
1168.16
1117.03
1072.03
1006.53
382.523
392.096
413.395
461.437
555.646
707.018
904.657
1116.52
1309.6
1465.46
1577.99
1641.29
1646.94
1597.83
1516.47
1436.56
1380.93
1356.19
1356.92
1377.17
1410.53
1455.13
1507.67
1569.82
1639.21
1720.13
1809.46
1914.46
2029.97
2167.73
2318.71
2502.16
2702.09
2950.91
3220.24
3566.36
3939.11
4440.77
4986.26
5771.97
6657.37
8016.13
9577.79
11991.9
14588.1
18253.9
21438.9
25449.6
28575.5
32949.3
37177.3
35289.6
37851.8
28361.7
23030.2
20063.3
18365
16449.4
15193
13338
11795
10034
8719.15
7476.77
6588.3
5771.85
5171.75
4632.21
4242.74
3907.5
3667.04
3456.87
3297.76
3151.18
3027.57
2903.48
2783.12
2654
2519.48
2377.97
2234.93
2096.1
1965.56
1849.95
1747.79
1663.62
1589.97
1530.98
1475.52
1430.66
1382.9
1343.94
1297.47
1259.62
1211.44
1170.65
1120.04
1075.68
1010.54
382.627
392.355
413.928
462.482
557.499
709.836
908.285
1120.49
1313.33
1468.49
1580.19
1642.84
1647.99
1598.29
1516.08
1435.26
1378.97
1353.9
1354.56
1374.88
1408.36
1453.08
1505.71
1567.93
1637.34
1718.25
1807.55
1912.49
2027.91
2165.55
2316.39
2499.64
2699.35
2947.86
3216.82
3562.44
3934.57
4435.36
4979.77
5764.08
6647.97
8005.29
9566.11
11980.8
14578.5
18247.5
21432.7
25444.2
28566.7
32965.7
37233.5
35423.4
38203.7
28828.4
23535.9
20543.5
18747.6
16707.3
15344
13417.1
11831.3
10047.8
8722.38
7475.63
6585.58
5768.68
5168.41
4628.82
4239.39
3904.36
3664.2
3454.43
3295.72
3149.58
3026.39
2902.7
2782.69
2653.8
2519.38
2377.83
2234.65
2095.64
1964.93
1849.21
1747.04
1662.94
1589.45
1530.67
1475.45
1430.87
1383.38
1344.76
1298.6
1261.18
1213.4
1173.16
1123.08
1079.39
1014.61
382.733
392.617
414.467
463.538
559.365
712.666
911.924
1124.47
1317.07
1471.53
1582.4
1644.38
1649.04
1598.75
1515.69
1433.96
1377
1351.6
1352.19
1372.58
1406.18
1451.02
1503.74
1566.02
1635.47
1716.37
1805.64
1910.5
2025.84
2163.35
2314.05
2497.11
2696.6
2944.8
3213.39
3558.5
3930.01
4429.93
4973.26
5756.16
6638.53
7994.41
9554.38
11969.6
14568.9
18241
21426.5
25438.7
28557.7
32981.9
37289.7
35558.7
38562.9
29309.9
24059.9
21042.2
19146.2
16976.7
15501.9
13499.7
11869.1
10062.2
8725.71
7474.48
6582.82
5765.48
5165.04
4625.41
4236.01
3901.19
3661.34
3451.97
3293.67
3147.96
3025.2
2901.93
2782.25
2653.61
2519.28
2377.7
2234.38
2095.17
1964.29
1848.46
1746.27
1662.26
1588.92
1530.36
1475.39
1431.08
1383.87
1345.58
1299.75
1262.75
1215.37
1175.7
1126.15
1083.15
1018.74
382.84
392.882
415.013
464.603
561.243
715.508
915.572
1128.45
1320.81
1474.58
1584.61
1645.91
1650.09
1599.22
1515.31
1432.67
1375.03
1349.29
1349.82
1370.28
1403.99
1448.95
1501.77
1564.1
1633.58
1714.47
1803.71
1908.51
2023.76
2161.15
2311.71
2494.57
2693.83
2941.72
3209.95
3554.55
3925.43
4424.48
4966.72
5748.2
6629.04
7983.48
9542.59
11958.3
14559.2
18234.5
21420.2
25433.1
28548.4
32997.9
37345.9
35695.4
38929.5
29806.7
24602.7
21559.9
19561.4
17258.3
15667
13586.1
11908.6
10077.1
8729.19
7473.32
6580.02
5762.24
5161.64
4621.97
4232.6
3898.01
3658.47
3449.49
3291.61
3146.34
3024.01
2901.15
2781.82
2653.41
2519.19
2377.57
2234.11
2094.71
1963.65
1847.71
1745.51
1661.57
1588.39
1530.04
1475.32
1431.29
1384.37
1346.4
1300.9
1264.34
1217.37
1178.27
1129.27
1086.97
1022.94
382.949
393.152
415.566
465.679
563.133
718.362
919.229
1132.44
1324.56
1477.63
1586.82
1647.45
1651.14
1599.68
1514.94
1431.38
1373.06
1346.99
1347.44
1367.97
1401.8
1446.87
1499.79
1562.18
1631.69
1712.57
1801.77
1906.51
2021.67
2158.94
2309.35
2492.02
2691.06
2938.63
3206.49
3550.58
3920.83
4419.01
4960.15
5740.21
6619.52
7972.5
9530.75
11947
14549.4
18228
21413.9
25427.5
28538.9
33013.7
37402.1
35833.7
39303.7
30319.6
25165.2
22097.3
19993.9
17552.5
15839.9
13676.5
11949.7
10092.7
8732.82
7472.18
6577.21
5758.98
5158.22
4618.51
4229.18
3894.8
3655.59
3447.01
3289.54
3144.71
3022.82
2900.37
2781.39
2653.22
2519.1
2377.45
2233.84
2094.24
1963
1846.95
1744.74
1660.87
1587.85
1529.73
1475.25
1431.5
1384.86
1347.23
1302.06
1265.94
1219.38
1180.86
1132.42
1090.84
1027.21
383.06
393.425
416.125
466.764
565.036
721.227
922.894
1136.44
1328.31
1480.68
1589.03
1648.97
1652.18
1600.15
1514.57
1430.1
1371.09
1344.68
1345.06
1365.65
1399.6
1444.79
1497.8
1560.25
1629.78
1710.66
1799.83
1904.49
2019.57
2156.71
2306.98
2489.45
2688.27
2935.53
3203.02
3546.6
3916.22
4413.52
4953.56
5732.19
6609.96
7961.48
9518.87
11935.6
14539.6
18221.5
21407.6
25421.7
28529.2
33029.4
37458.3
35973.5
39686
30849.2
25747.9
22655.1
20444.3
17860
16020.8
13771.1
11992.7
10108.9
8736.63
7471.06
6574.37
5755.7
5154.78
4615.03
4225.74
3891.58
3652.69
3444.52
3287.47
3143.08
3021.62
2899.6
2780.96
2653.04
2519.02
2377.33
2233.57
2093.78
1962.36
1846.19
1743.96
1660.18
1587.32
1529.41
1475.18
1431.71
1385.36
1348.07
1303.24
1267.55
1221.42
1183.49
1135.62
1094.76
1031.56
383.172
393.703
416.691
467.86
566.951
724.104
926.567
1140.44
1332.07
1483.73
1591.23
1650.49
1653.21
1600.62
1514.21
1428.82
1369.12
1342.36
1342.67
1363.32
1397.4
1442.7
1495.8
1558.31
1627.87
1708.74
1797.88
1902.47
2017.46
2154.48
2304.6
2486.88
2685.47
2932.42
3199.54
3542.6
3911.6
4408.02
4946.95
5724.15
6600.37
7950.41
9506.94
11924.2
14529.8
18214.9
21401.3
25416
28519.2
33044.9
37514.4
36114.9
40076.6
31396.1
26351.6
23233.8
20913.3
18181.3
16210.2
13870.3
12037.7
10125.8
8740.66
7469.98
6571.54
5752.41
5151.32
4611.54
4222.29
3888.36
3649.78
3442.02
3285.39
3141.45
3020.43
2898.82
2780.53
2652.86
2518.94
2377.21
2233.3
2093.32
1961.71
1845.43
1743.18
1659.47
1586.77
1529.08
1475.11
1431.93
1385.87
1348.92
1304.42
1269.18
1223.47
1186.14
1138.85
1098.74
1035.97
383.286
393.984
417.264
468.965
568.879
726.992
930.247
1144.45
1335.82
1486.79
1593.43
1652.01
1654.24
1601.1
1513.86
1427.55
1367.16
1340.04
1340.27
1360.99
1395.19
1440.6
1493.8
1556.36
1625.95
1706.81
1795.91
1900.44
2015.35
2152.23
2302.22
2484.29
2682.65
2929.29
3196.04
3538.58
3906.95
4402.49
4940.32
5716.07
6590.74
7939.3
9494.96
11912.8
14520
18208.4
21395
25410.1
28509
33060.3
37570.7
36258
40475.7
31961.1
26977
23834.1
21401.5
18517.1
16408.5
13974.2
12084.8
10143.6
8744.91
7468.95
6568.7
5749.11
5147.86
4608.05
4218.84
3885.12
3646.87
3439.52
3283.31
3139.82
3019.23
2898.05
2780.12
2652.69
2518.87
2377.1
2233.04
2092.85
1961.06
1844.66
1742.39
1658.77
1586.23
1528.76
1475.05
1432.14
1386.38
1349.77
1305.61
1270.83
1225.54
1188.83
1142.12
1102.79
1040.46
383.402
394.269
417.844
470.081
570.818
729.891
933.934
1148.45
1339.58
1489.85
1595.63
1653.51
1655.26
1601.57
1513.51
1426.28
1365.19
1337.72
1337.87
1358.66
1392.97
1438.5
1491.79
1554.41
1624.03
1704.87
1793.94
1898.4
2013.22
2149.98
2299.82
2481.69
2679.83
2926.15
3192.53
3534.56
3902.3
4396.95
4933.67
5707.97
6581.07
7928.15
9482.94
11901.3
14510.1
18201.8
21388.6
25404.2
28498.7
33075.5
37626.9
36402.9
40883.7
32545
27624.9
24456.6
21909.4
18868
16616.3
14083.1
12134.2
10162.2
8749.44
7467.99
6565.88
5745.81
5144.4
4604.55
4215.38
3881.89
3643.96
3437.02
3281.23
3138.18
3018.04
2897.29
2779.71
2652.53
2518.81
2377
2232.79
2092.39
1960.41
1843.89
1741.6
1658.05
1585.68
1528.44
1474.98
1432.36
1386.89
1350.63
1306.81
1272.48
1227.63
1191.54
1145.43
1106.88
1045.03
383.52
394.559
418.431
471.207
572.77
732.801
937.627
1152.46
1343.34
1492.9
1597.83
1655.01
1656.27
1602.04
1513.17
1425.02
1363.23
1335.4
1335.46
1356.31
1390.74
1436.39
1489.77
1552.45
1622.09
1702.93
1791.96
1896.35
2011.08
2147.71
2297.41
2479.09
2676.99
2923
3189.01
3530.52
3897.63
4391.39
4927
5699.84
6571.37
7916.96
9470.87
11889.8
14500.2
18195.3
21382.3
25398.3
28488.1
33090.6
37683.2
36549.6
41300.9
33148.3
28295.8
25101.8
22437.9
19234.6
16834
14197.4
12186
10181.7
8754.26
7467.12
6563.08
5742.52
5140.94
4601.05
4211.92
3878.65
3641.05
3434.52
3279.15
3136.56
3016.86
2896.53
2779.3
2652.37
2518.76
2376.91
2232.54
2091.93
1959.76
1843.12
1740.81
1657.34
1585.14
1528.11
1474.91
1432.59
1387.41
1351.5
1308.02
1274.16
1229.75
1194.28
1148.79
1111.04
1049.67
383.639
394.852
419.025
472.343
574.734
735.721
941.326
1156.48
1347.1
1495.95
1600.02
1656.49
1657.28
1602.51
1512.83
1423.76
1361.26
1333.07
1333.05
1353.97
1388.51
1434.27
1487.75
1550.48
1620.15
1700.97
1789.97
1894.29
2008.93
2145.44
2294.99
2476.47
2674.15
2919.84
3185.48
3526.46
3892.94
4385.82
4920.31
5691.69
6561.64
7905.73
9458.77
11878.3
14490.3
18188.8
21376
25392.4
28477.4
33105.5
37739.6
36698.2
41727.6
33772
28990.5
25770.3
22987.5
19617.6
17062.1
14317.3
12240.3
10202.2
8759.4
7466.35
6560.31
5739.25
5137.49
4597.57
4208.46
3875.41
3638.14
3432.02
3277.08
3134.93
3015.68
2895.78
2778.91
2652.23
2518.72
2376.82
2232.29
2091.48
1959.11
1842.35
1740.01
1656.62
1584.59
1527.78
1474.85
1432.81
1387.94
1352.38
1309.25
1275.84
1231.88
1197.06
1152.18
1115.26
1054.39
383.761
395.15
419.626
473.49
576.709
738.651
945.03
1160.49
1350.86
1499
1602.2
1657.97
1658.27
1602.98
1512.5
1422.51
1359.3
1330.75
1330.64
1351.61
1386.28
1432.15
1485.72
1548.51
1618.2
1699.01
1787.98
1892.22
2006.78
2143.15
2292.56
2473.84
2671.29
2916.66
3181.93
3522.4
3888.24
4380.23
4913.6
5683.51
6551.88
7894.47
9446.62
11866.7
14480.4
18182.3
21369.8
25386.4
28466.5
33120.4
37796.1
36848.7
42164.1
34416.7
29709.8
26462.7
23558.7
20017.6
17301
14443.1
12297.3
10223.8
8764.92
7465.7
6557.59
5736
5134.06
4594.09
4205.02
3872.19
3635.23
3429.53
3275.01
3133.32
3014.51
2895.04
2778.53
2652.1
2518.69
2376.75
2232.06
2091.03
1958.46
1841.57
1739.22
1655.91
1584.03
1527.46
1474.78
1433.04
1388.46
1353.26
1310.48
1277.55
1234.04
1199.86
1155.62
1119.54
1059.19
383.884
395.452
420.234
474.647
578.697
741.591
948.739
1164.5
1354.61
1502.05
1604.37
1659.43
1659.25
1603.44
1512.18
1421.27
1357.34
1328.41
1328.22
1349.25
1384.03
1430.02
1483.68
1546.52
1616.24
1697.04
1785.97
1890.15
2004.61
2140.86
2290.12
2471.2
2668.42
2913.48
3178.37
3518.32
3883.53
4374.62
4906.87
5675.31
6542.09
7883.17
9434.44
11855.1
14470.4
18175.8
21363.6
25380.5
28455.5
33135.2
37852.7
37001.2
42610.8
35083.3
30454.4
27179.5
24152.3
20435.2
17551.4
14575.2
12357.3
10246.5
8770.82
7465.19
6554.93
5732.79
5130.66
4590.64
4201.59
3868.98
3632.34
3427.05
3272.96
3131.71
3013.35
2894.31
2778.15
2651.98
2518.67
2376.69
2231.83
2090.58
1957.82
1840.8
1738.42
1655.19
1583.48
1527.13
1474.72
1433.27
1389
1354.15
1311.72
1279.27
1236.21
1202.7
1159.09
1123.89
1064.08
384.009
395.759
420.85
475.815
580.697
744.54
952.452
1168.51
1358.36
1505.09
1606.54
1660.87
1660.22
1603.9
1511.85
1420.02
1355.38
1326.08
1325.79
1346.89
1381.78
1427.89
1481.63
1544.53
1614.28
1695.06
1783.96
1888.06
2002.44
2138.56
2287.67
2468.55
2665.55
2910.28
3174.81
3514.23
3878.8
4369
4900.12
5667.09
6532.26
7871.83
9422.22
11843.4
14460.5
18169.4
21357.4
25374.5
28444.3
33149.8
37909.4
37155.8
43068.1
35772.6
31224.9
27921.3
24768.7
20871.2
17813.7
14714
12420.3
10270.5
8777.17
7464.84
6552.34
5729.62
5127.29
4587.22
4198.18
3865.78
3629.47
3424.59
3270.92
3130.12
3012.2
2893.59
2777.8
2651.87
2518.67
2376.63
2231.61
2090.14
1957.17
1840.02
1737.62
1654.46
1582.93
1526.81
1474.66
1433.51
1389.54
1355.05
1312.98
1281
1238.41
1205.56
1162.61
1128.29
1069.05
384.136
396.069
421.473
476.993
582.708
747.499
956.168
1172.52
1362.11
1508.13
1608.69
1662.31
1661.17
1604.36
1511.53
1418.79
1353.42
1323.74
1323.37
1344.52
1379.53
1425.74
1479.58
1542.54
1612.31
1693.08
1781.94
1885.97
2000.26
2136.24
2285.21
2465.89
2662.66
2907.08
3171.22
3510.13
3874.07
4363.36
4893.35
5658.84
6522.41
7860.45
9409.96
11831.7
14450.5
18162.9
21351.2
25368.6
28433
33164.4
37966.3
37312.7
43536.3
36485.5
32022.1
28688.5
25408.5
21326
18088.5
14859.8
12486.6
10295.8
8784
7464.67
6549.84
5726.51
5123.96
4583.83
4194.8
3862.61
3626.61
3422.14
3268.89
3128.54
3011.06
2892.89
2777.45
2651.78
2518.68
2376.59
2231.4
2089.7
1956.53
1839.25
1736.82
1653.74
1582.37
1526.48
1474.6
1433.75
1390.08
1355.95
1314.24
1282.75
1240.62
1208.46
1166.18
1132.77
1074.1
384.266
396.385
422.104
478.182
584.732
750.467
959.888
1176.52
1365.85
1511.15
1610.84
1663.72
1662.11
1604.81
1511.21
1417.56
1351.46
1321.41
1320.93
1342.14
1377.27
1423.6
1477.53
1540.53
1610.33
1691.09
1779.91
1883.87
1998.07
2133.92
2282.74
2463.22
2659.76
2903.86
3167.63
3506.01
3869.31
4357.71
4886.57
5650.57
6512.52
7849.04
9397.67
11820
14440.5
18156.5
21345.2
25362.6
28421.6
33179
38023.3
37471.7
44015.8
37222.6
32846.6
29481.6
26072.2
21800.4
18376.3
15012.9
12556.3
10322.5
8791.34
7464.7
6547.44
5723.46
5120.68
4580.48
4191.45
3859.47
3623.78
3419.72
3266.88
3126.98
3009.94
2892.2
2777.13
2651.71
2518.7
2376.56
2231.2
2089.27
1955.89
1838.47
1736.02
1653.02
1581.82
1526.16
1474.55
1433.99
1390.64
1356.87
1315.52
1284.52
1242.86
1211.39
1169.78
1137.3
1079.25
384.397
396.705
422.743
479.381
586.767
753.444
963.61
1180.53
1369.58
1514.17
1612.97
1665.12
1663.03
1605.25
1510.9
1416.33
1349.5
1319.07
1318.5
1339.76
1375
1421.44
1475.46
1538.52
1608.34
1689.09
1777.87
1881.76
1995.86
2131.59
2280.27
2460.54
2656.85
2900.63
3164.03
3501.89
3864.55
4352.05
4879.77
5642.27
6502.61
7837.6
9385.34
11808.3
14430.5
18150.2
21339.2
25356.8
28410.1
33193.5
38080.5
37633.1
44507
37985
33699.1
30301
26760.4
22295
18677.8
15173.7
12629.7
10350.7
8799.26
7464.97
6545.15
5720.5
5117.47
4577.18
4188.15
3856.36
3620.97
3417.32
3264.9
3125.44
3008.84
2891.53
2776.82
2651.65
2518.74
2376.55
2231.01
2088.85
1955.26
1837.7
1735.21
1652.29
1581.27
1525.84
1474.49
1434.24
1391.19
1357.79
1316.81
1286.3
1245.12
1214.35
1173.43
1141.91
1084.48
384.53
397.029
423.389
480.592
588.815
756.429
967.334
1184.52
1373.3
1517.18
1615.09
1666.5
1663.94
1605.68
1510.59
1415.1
1347.55
1316.73
1316.06
1337.38
1372.73
1419.28
1473.39
1536.51
1606.35
1687.08
1775.83
1879.64
1993.66
2129.25
2277.78
2457.85
2653.93
2897.39
3160.42
3497.75
3859.77
4346.37
4872.95