/*--------------------------------*- C++ -*----------------------------------*\
| =========                 |                                                 |
| \\      /  F ield         | OpenFOAM: The Open Source CFD Toolbox           |
|  \\    /   O peration     | Version:  2412                                  |
|   \\  /    A nd           | Website:  www.openfoam.com                      |
|    \\/     M anipulation  |                                                 |
\*---------------------------------------------------------------------------*/
FoamFile
{
    version     2.0;
    format      ascii;
    arch        "LSB;label=32;scalar=64";
    class       volScalarField;
    location    "0.7";
    object      k;
}
// * * * * * * * * * * * * * * * * * * * * * * * * * * * * * * * * * * * * * //

dimensions      [0 2 -2 0 0 0 0];

internalField   nonuniform List<scalar> 
12960
(
37.7941
38.473
39.9813
43.0095
48.0918
55.0026
62.5927
69.3899
74.5043
77.8349
79.6345
80.1069
79.4314
78.0466
76.5902
75.6299
75.334
75.6246
76.3044
77.2925
78.4905
79.9267
81.5309
83.3851
85.4028
87.7217
90.2129
93.0914
96.1533
99.7316
103.499
107.974
112.63
118.288
124.093
131.368
138.742
148.39
158.18
171.714
185.613
205.51
225.657
254.038
280.238
314.137
339.493
370.939
393.687
421.757
443.607
409.827
400.692
293.05
232.518
216.509
231.934
239.926
245.804
235.06
224.042
206.403
192.994
178.075
167.28
156.081
147.91
139.903
134.199
128.808
124.904
121.156
118.247
115.317
112.727
109.944
107.168
104.137
101.012
97.7731
94.5584
91.4738
88.5661
85.9701
83.5954
81.5759
79.6824
78.0878
76.4581
75.0665
73.4854
72.1179
70.4329
68.9507
67.0662
65.3296
63.2148
61.2357
58.6085
37.7996
38.4878
40.0124
43.0673
48.1829
55.1208
62.7176
69.495
74.5692
77.8528
79.6137
80.0627
79.3753
77.9822
76.5182
75.5535
75.2586
75.5539
76.2398
77.2337
78.4365
79.8764
81.4833
83.3393
85.358
87.6773
90.1683
93.046
96.1069
99.6835
103.449
107.921
112.574
118.227
124.028
131.296
138.662
148.3
158.077
171.6
185.489
205.382
225.532
253.935
280.157
314.088
339.441
370.906
393.661
421.943
444.061
410.75
402.653
295.342
234.58
218.104
233.011
240.61
246.214
235.298
224.169
206.46
193.006
178.063
167.255
156.049
147.873
139.863
134.157
128.768
124.867
121.125
118.221
115.297
112.713
109.937
107.164
104.135
101.01
97.7686
94.5506
91.4626
88.5526
85.9559
83.5823
81.5657
79.6765
78.0872
76.4636
75.0791
73.5053
72.1468
70.4709
69.0006
67.1275
65.4057
63.3051
61.3421
58.7218
37.8052
38.5028
40.0439
43.1254
48.2742
55.239
62.8425
69.6002
74.6342
77.871
79.5932
80.0186
79.3193
77.918
76.4463
75.4772
75.1831
75.4832
76.1753
77.1749
78.3826
79.8262
81.4359
83.2936
85.3134
87.6329
90.1238
93.0008
96.0606
99.6355
103.399
107.869
112.518
118.167
123.963
131.224
138.582
148.21
157.976
171.486
185.364
205.253
225.408
253.831
280.078
314.039
339.39
370.875
393.634
422.13
444.517
411.682
404.637
297.669
236.681
219.731
234.108
241.304
246.629
235.537
224.297
206.516
193.017
178.05
167.23
156.017
147.836
139.822
134.115
128.728
124.831
121.093
118.195
115.278
112.701
109.929
107.161
104.134
101.008
97.7646
94.5432
91.4518
88.5394
85.9418
83.5694
81.5556
79.6707
78.0869
76.4695
75.0921
73.5257
72.1763
70.5094
69.0512
67.1896
65.4829
63.3968
61.45
58.8367
37.8109
38.5179
40.0756
43.1839
48.3659
55.3576
62.9676
69.7055
74.6994
77.8893
79.5725
79.9742
79.2631
77.8535
76.3742
75.4007
75.1075
75.4123
76.1105
77.1159
78.3285
79.7758
81.3882
83.2477
85.2686
87.5884
90.0792
92.9554
96.0141
99.5873
103.349
107.816
112.462
118.107
123.897
131.152
138.502
148.119
157.873
171.371
185.239
205.124
225.283
253.727
279.997
313.989
339.339
370.842
393.606
422.317
444.973
412.62
406.643
300.03
238.82
221.393
235.225
242.008
247.047
235.778
224.424
206.571
193.028
178.036
167.204
155.985
147.799
139.781
134.073
128.687
124.794
121.061
118.169
115.258
112.687
109.922
107.158
104.133
101.006
97.7605
94.5357
91.4409
88.526
85.9276
83.5563
81.5454
79.6649
78.0866
76.4753
75.1052
73.5462
72.206
70.5483
69.1023
67.2523
65.561
63.4896
61.5594
58.9533
37.8167
38.5333
40.1076
43.2428
48.4581
55.4765
63.0929
69.811
74.7647
77.9077
79.5518
79.9296
79.2065
77.7888
76.3019
75.3239
75.0315
75.341
76.0454
77.0567
78.2741
79.7252
81.3403
83.2015
85.2235
87.5436
90.0343
92.9096
95.9674
99.5388
103.298
107.763
112.405
118.046
123.831
131.079
138.421
148.028
157.77
171.255
185.112
204.993
225.157
253.622
279.916
313.939
339.287
370.808
393.576
422.502
445.43
413.564
408.669
302.425
240.999
223.089
236.363
242.722
247.47
236.02
224.551
206.625
193.037
178.021
167.176
155.951
147.76
139.739
134.03
128.646
124.756
121.028
118.142
115.238
112.674
109.915
107.154
104.131
101.005
97.7564
94.5281
91.4298
88.5125
85.9132
83.543
81.535
79.6589
78.0862
76.4812
75.1182
73.5668
72.236
70.5874
69.1538
67.3156
65.6399
63.5833
61.6702
59.0713
37.8225
38.5488
40.1399
43.3021
48.5506
55.5957
63.2183
69.9166
74.8301
77.9261
79.5309
79.8847
79.1495
77.7236
76.2292
75.2467
74.9551
75.2694
75.98
76.9971
78.2194
79.6742
81.2921
83.1551
85.1781
87.4985
89.989
92.8636
95.9202
99.4899
103.247
107.709
112.348
117.984
123.765
131.006
138.339
147.936
157.666
171.139
184.985
204.862
225.029
253.516
279.834
313.888
339.233
370.772
393.543
422.685
445.885
414.513
410.717
304.855
243.218
224.822
237.523
243.447
247.896
236.263
224.676
206.678
193.044
178.004
167.148
155.916
147.72
139.696
133.985
128.604
124.717
120.995
118.115
115.218
112.66
109.907
107.151
104.13
101.003
97.7521
94.5203
91.4185
88.4986
85.8985
83.5295
81.5244
79.6528
78.0856
76.4869
75.1313
73.5875
72.266
70.6269
69.2057
67.3794
65.7195
63.6781
61.7822
59.1909
37.8284
38.5645
40.1725
43.3618
48.6436
55.7153
63.344
70.0222
74.8956
77.9445
79.5098
79.8394
79.092
77.658
76.156
75.1691
74.8783
75.1974
75.9142
76.9371
78.1644
79.6229
81.2436
83.1083
85.1324
87.453
89.9434
92.8171
95.8727
99.4407
103.196
107.655
112.291
117.923
123.698
130.932
138.257
147.843
157.561
171.021
184.857
204.729
224.901
253.408
279.75
313.836
339.178
370.734
393.506
422.867
446.34
415.467
412.786
307.32
245.48
226.591
238.705
244.184
248.327
236.507
224.801
206.729
193.05
177.986
167.117
155.88
147.679
139.652
133.94
128.561
124.678
120.961
118.087
115.197
112.646
109.899
107.147
104.128
101.001
97.7477
94.5123
91.4069
88.4845
85.8836
83.5157
81.5135
79.6464
78.0849
76.4926
75.1444
73.6082
72.2962
70.6665
69.258
67.4438
65.8
63.7739
61.8956
59.312
37.8344
38.5804
40.2055
43.422
48.7371
55.8352
63.4698
70.128
74.9612
77.963
79.4886
79.7936
79.0341
77.592
76.0825
75.0911
74.8011
75.125
75.848
76.8768
78.1091
79.5713
81.1948
83.0612
85.0863
87.4073
89.8974
92.7703
95.8248
99.391
103.144
107.6
112.233
117.86
123.63
130.857
138.174
147.75
157.456
170.903
184.727
204.595
224.771
253.3
279.666
313.783
339.122
370.694
393.467
423.046
446.794
416.427
414.877
309.822
247.785
228.401
239.912
244.933
248.763
236.751
224.926
206.779
193.054
177.966
167.086
155.842
147.636
139.606
133.894
128.517
124.638
120.927
118.059
115.176
112.632
109.89
107.143
104.126
100.998
97.7431
94.5042
91.3951
88.4701
85.8683
83.5015
81.5024
79.6398
78.084
76.4982
75.1574
73.629
72.3266
70.7064
69.3107
67.5087
65.8812
63.8708
62.0104
59.4346
37.8404
38.5964
40.2387
43.4825
48.831
55.9554
63.5959
70.2339
75.0269
77.9815
79.4672
79.7475
78.9757
77.5256
76.0086
75.0127
74.7235
75.0522
75.7815
76.8162
78.0534
79.5194
81.1456
83.0138
85.04
87.3611
89.8511
92.7232
95.7766
99.3409
103.092
107.545
112.175
117.798
123.562
130.782
138.091
147.656
157.349
170.784
184.597
204.46
224.64
253.19
279.58
313.728
339.064
370.652
393.425
423.223
447.246
417.391
416.989
312.363
250.135
230.251
241.145
245.696
249.203
236.997
225.05
206.827
193.057
177.944
167.053
155.804
147.593
139.56
133.847
128.472
124.598
120.892
118.03
115.154
112.617
109.882
107.139
104.124
100.996
97.7383
94.4958
91.3831
88.4555
85.8527
83.4872
81.4911
79.6331
78.083
76.5037
75.1704
73.6499
72.3571
70.7465
69.3638
67.5741
65.9632
63.9687
62.1265
59.5588
37.8466
38.6127
40.2723
43.5435
48.9253
56.0759
63.722
70.3399
75.0926
78
79.4456
79.701
78.9168
77.4587
75.9343
74.9339
74.6456
74.979
75.7146
76.7553
77.9974
79.4672
81.0961
82.966
84.9933
87.3147
89.8045
92.6757
95.7279
99.2905
103.04
107.49
112.116
117.734
123.494
130.707
138.007
147.561
157.242
170.664
184.465
204.324
224.508
253.079
279.493
313.673
339.005
370.609
393.38
423.398
447.697
418.361
419.124
314.942
252.533
232.144
242.405
246.473
249.65
237.245
225.173
206.874
193.058
177.921
167.018
155.764
147.549
139.513
133.799
128.426
124.556
120.856
118.001
115.132
112.602
109.873
107.134
104.122
100.993
97.7334
94.4872
91.3708
88.4405
85.8369
83.4725
81.4795
79.6261
78.0819
76.5091
75.1835
73.6708
72.3877
70.7869
69.4173
67.6401
66.046
64.0676
62.2441
59.6847
37.8528
38.6292
40.3062
43.6049
49.02
56.1967
63.8483
70.4459
75.1585
78.0185
79.4238
79.6541
78.8574
77.3914
75.8596
74.8548
74.5672
74.9055
75.6474
76.694
77.9411
79.4146
81.0463
82.918
84.9462
87.2679
89.7575
92.6278
95.6789
99.2397
102.987
107.434
112.057
117.671
123.425
130.631
137.923
147.466
157.134
170.542
184.332
204.186
224.374
252.967
279.406
313.617
338.944
370.563
393.333
423.571
448.148
419.337
421.282
317.563
254.979
234.082
243.693
247.264
250.102
237.495
225.296
206.92
193.057
177.897
166.983
155.723
147.503
139.464
133.75
128.38
124.514
120.819
117.971
115.109
112.586
109.864
107.13
104.12
100.991
97.7283
94.4784
91.3583
88.4253
85.8208
83.4576
81.4676
79.619
78.0806
76.5145
75.1965
73.6918
72.4186
70.8275
69.4712
67.7067
66.1296
64.1677
62.3631
59.8122
37.8592
38.6458
40.3404
43.6667
49.1151
56.3177
63.9747
70.552
75.2243
78.037
79.4019
79.6067
78.7975
77.3236
75.7846
74.7752
74.4885
74.8316
75.5798
76.6324
77.8844
79.3618
80.9962
82.8696
84.8989
87.2208
89.7102
92.5796
95.6296
99.1885
102.934
107.378
111.998
117.607
123.355
130.554
137.838
147.37
157.025
170.42
184.199
204.048
224.24
252.855
279.317
313.559
338.883
370.516
393.282
423.742
448.597
420.318
423.464
320.226
257.476
236.066
245.011
248.072
250.562
237.747
225.419
206.964
193.055
177.871
166.946
155.68
147.457
139.415
133.7
128.333
124.471
120.783
117.94
115.086
112.571
109.855
107.125
104.117
100.988
97.7231
94.4695
91.3455
88.4099
85.8044
83.4424
81.4556
79.6117
78.0793
76.5198
75.2095
73.7128
72.4495
70.8685
69.5255
67.7738
66.2141
64.2688
62.4835
59.9414
37.8656
38.6626
40.3749
43.729
49.2106
56.439
64.1011
70.658
75.2903
78.0555
79.3797
79.559
78.7371
77.2553
75.7091
74.6953
74.4094
74.7574
75.5119
76.5704
77.8275
79.3086
80.9458
82.8209
84.8512
87.1733
89.6625
92.5311
95.5799
99.137
102.88
107.321
111.938
117.542
123.286
130.477
137.752
147.273
156.916
170.298
184.064
203.909
224.104
252.741
279.227
313.501
338.82
370.467
393.229
423.911
449.045
421.304
425.669
322.932
260.025
238.098
246.36
248.897
251.028
238.002
225.542
207.007
193.051
177.843
166.907
155.637
147.409
139.365
133.65
128.285
124.428
120.745
117.91
115.063
112.555
109.845
107.12
104.115
100.985
97.7178
94.4604
91.3326
88.3942
85.7878
83.427
81.4433
79.6042
78.0778
76.5251
75.2225
73.734
72.4807
70.9096
69.5802
67.8416
66.2994
64.371
62.6054
60.0723
37.8721
38.6797
40.4097
43.7916
49.3065
56.5605
64.2276
70.7641
75.3562
78.074
79.3573
79.5108
78.6761
77.1866
75.6332
74.615
74.3299
74.6828
75.4437
76.5082
77.7702
79.2551
80.8951
82.7719
84.8033
87.1256
89.6145
92.4822
95.5299
99.0851
102.826
107.264
111.878
117.477
123.215
130.399
137.666
147.176
156.806
170.174
183.929
203.768
223.968
252.626
279.137
313.442
338.755
370.416
393.172
424.079
449.492
422.297
427.899
325.683
262.628
240.18
247.743
249.741
251.503
238.259
225.665
207.05
193.046
177.814
166.868
155.593
147.361
139.314
133.598
128.236
124.384
120.707
117.878
115.039
112.538
109.835
107.115
104.112
100.982
97.7125
94.4512
91.3195
88.3783
85.7709
83.4114
81.4309
79.5966
78.0762
76.5303
75.2356
73.7552
72.512
70.9511
69.6354
67.9099
66.3856
64.4744
62.7289
60.205
37.8787
38.6969
40.4449
43.8546
49.4028
56.6823
64.3542
70.8701
75.4221
78.0925
79.3347
79.4621
78.6147
77.1175
75.5569
74.5344
74.2501
74.6078
75.3751
76.4456
77.7127
79.2014
80.8441
82.7227
84.755
87.0775
89.5662
92.433
95.4795
99.0328
102.772
107.207
111.817
117.412
123.144
130.321
137.579
147.078
156.695
170.05
183.792
203.627
223.83
252.51
279.046
313.382
338.69
370.364
393.113
424.244
449.938
423.295
430.154
328.481
265.288
242.315
249.161
250.604
251.986
238.52
225.788
207.091
193.039
177.784
166.827
155.547
147.311
139.262
133.546
128.187
124.339
120.669
117.847
115.015
112.522
109.825
107.11
104.109
100.979
97.707
94.4419
91.3062
88.3622
85.7538
83.3955
81.4182
79.5888
78.0745
76.5355
75.2487
73.7766
72.5436
70.9929
69.691
67.9789
66.4727
64.579
62.8539
60.3396
37.8853
38.7144
40.4803
43.9181
49.4994
56.8042
64.4808
70.9761
75.4881
78.1109
79.3119
79.413
78.5527
77.0478
75.4803
74.4533
74.1699
74.5325
75.3062
76.3827
77.6548
79.1473
80.7928
82.6731
84.7064
87.0292
89.5176
92.3835
95.4288
98.9803
102.717
107.149
111.756
117.346
123.073
130.243
137.492
146.98
156.584
169.924
183.655
203.484
223.692
252.394
278.953
313.322
338.624
370.31
393.052
424.407
450.384
424.3
432.435
331.327
268.005
244.504
250.616
251.487
252.479
238.785
225.912
207.132
193.031
177.752
166.785
155.501
147.261
139.21
133.493
128.137
124.294
120.63
117.815
114.991
112.505
109.815
107.105
104.107
100.976
97.7014
94.4324
91.2928
88.3459
85.7365
83.3794
81.4054
79.5808
78.0727
76.5406
75.2618
73.798
72.5753
71.035
69.7471
68.0484
66.5607
64.6847
62.9804
60.4759
37.8921
38.732
40.5161
43.9819
49.5964
56.9263
64.6074
71.0821
75.554
78.1293
79.2889
79.3635
78.4901
76.9777
75.4033
74.372
74.0893
74.4569
75.237
76.3195
77.5967
79.0929
80.7412
82.6232
84.6576
86.9805
89.4687
92.3337
95.3778
98.9273
102.662
107.091
111.694
117.28
123.002
130.164
137.404
146.881
156.472
169.798
183.516
203.341
223.552
252.276
278.86
313.261
338.556
370.254
392.987
424.568
450.828
425.311
434.742
334.223
270.783
246.749
252.109
252.393
252.981
239.053
226.037
207.171
193.022
177.72
166.742
155.453
147.21
139.156
133.44
128.086
124.248
120.59
117.783
114.966
112.488
109.805
107.099
104.104
100.973
97.6958
94.4229
91.2792
88.3294
85.7189
83.3631
81.3923
79.5728
78.0708
76.5458
75.2749
73.8196
72.6072
71.0773
69.8036
68.1186
66.6496
64.7915
63.1085
60.6142
37.899
38.7499
40.5523
44.0462
49.6937
57.0486
64.7339
71.1879
75.6199
78.1477
79.2657
79.3135
78.427
76.9071
75.3258
74.2902
74.0084
74.3809
75.1674
76.256
77.5382
79.0383
80.6894
82.5731
84.6084
86.9315
89.4195
92.2835
95.3264
98.8741
102.607
107.033
111.632
117.213
122.929
130.084
137.316
146.782
156.359
169.672
183.377
203.196
223.412
252.158
278.766
313.199
338.488
370.197
392.92
424.728
451.271
426.329
437.077
337.171
273.623
249.053
253.642
253.322
253.495
239.327
226.163
207.211
193.012
177.686
166.698
155.405
147.158
139.102
133.385
128.035
124.202
120.55
117.75
114.942
112.471
109.795
107.094
104.101
100.97
97.6902
94.4132
91.2654
88.3127
85.7012
83.3466
81.3791
79.5646
78.0689
76.5509
75.2881
73.8413
72.6394
71.12
69.8606
68.1894
66.7394
64.8996
63.2383
60.7544
37.9059
38.768
40.5887
44.1108
49.7914
57.1711
64.8605
71.2937
75.6857
78.166
79.2422
79.263
78.3634
76.836
75.248
74.2081
73.9272
74.3046
75.0976
76.1923
77.4795
78.9834
80.6372
82.5226
84.559
86.8823
89.37
92.233
95.2748
98.8205
102.551
106.974
111.57
117.146
122.857
130.004
137.227
146.682
156.246
169.544
183.237
203.051
223.27
252.038
278.672
313.136
338.419
370.139
392.851
424.885
451.713
427.353
439.439
340.172
276.527
251.416
255.218
254.275
254.02
239.605
226.289
207.249
193.001
177.651
166.654
155.356
147.105
139.047
133.33
127.983
124.155
120.51
117.717
114.917
112.453
109.785
107.089
104.098
100.967
97.6845
94.4034
91.2515
88.2958
85.6833
83.3299
81.3658
79.5563
78.0669
76.556
75.3014
73.8631
72.6717
71.163
69.9181
68.2609
66.8301
65.0089
63.3697
60.8965
37.913
38.7862
40.6255
44.1758
49.8894
57.2937
64.987
71.3994
75.7515
78.1842
79.2185
79.2121
78.2992
76.7645
75.1698
74.1257
73.8456
74.228
75.0274
76.1282
77.4205
78.9282
80.5848
82.4719
84.5093
86.8328
89.3202
92.1823
95.2228
98.7666
102.495
106.915
111.508
117.079
122.784
129.924
137.138
146.581
156.132
169.416
183.097
202.905
223.128
251.919
278.577
313.073
338.349
370.079
392.779
425.041
452.154
428.384
441.829
343.228
279.497
253.842
256.838
255.255
254.558
239.889
226.418
207.288
192.989
177.614
166.608
155.306
147.052
138.991
133.275
127.931
124.108
120.47
117.683
114.891
112.436
109.774
107.083
104.096
100.964
97.6788
94.3936
91.2375
88.2788
85.6651
83.3131
81.3522
79.5478
78.0648
76.561
75.3147
73.885
72.7043
71.2064
69.9761
68.333
66.9218
65.1195
63.5028
61.0407
37.9202
38.8047
40.6626
44.2413
49.9878
57.4164
65.1134
71.5049
75.8171
78.2024
79.1946
79.1607
78.2344
76.6924
75.0912
74.0429
73.7637
74.151
74.957
76.0638
77.3612
78.8727
80.5321
82.4209
84.4593
86.7829
89.2701
92.1312
95.1705
98.7124
102.439
106.855
111.445
117.011
122.711
129.843
137.049
146.48
156.017
169.287
182.955
202.758
222.985
251.798
278.481
313.009
338.278
370.018
392.705
425.196
452.595
429.422
444.248
346.341
282.535
256.332
258.504
256.262
255.109
240.178
226.548
207.326
192.975
177.577
166.561
155.255
146.998
138.935
133.219
127.878
124.06
120.429
117.65
114.866
112.418
109.764
107.078
104.093
100.961
97.673
94.3837
91.2234
88.2616
85.6468
83.296
81.3386
79.5393
78.0626
76.5661
75.3281
73.9071
72.7371
71.25
70.0345
68.4058
67.0144
65.2313
63.6375
61.1869
37.9274
38.8235
40.7001
44.3071
50.0865
57.5393
65.2398
71.6103
75.8827
78.2204
79.1704
79.1088
78.169
76.6198
75.0123
73.9598
73.6815
74.0738
74.8862
75.9991
77.3016
78.817
80.4791
82.3697
84.409
86.7328
89.2197
92.0799
95.1179
98.6578
102.382
106.796
111.382
116.943
122.637
129.762
136.959
146.378
155.902
169.158
182.813
202.61
222.841
251.676
278.384
312.945
338.206
369.955
392.628
425.348
453.034
430.468
446.698
349.514
285.644
258.889
260.218
257.299
255.674
240.475
226.68
207.364
192.961
177.539
166.513
155.204
146.943
138.879
133.162
127.825
124.012
120.387
117.616
114.84
112.4
109.753
107.073
104.09
100.958
97.6673
94.3738
91.2091
88.2442
85.6284
83.2788
81.3248
79.5307
78.0605
76.5712
75.3415
73.9293
72.7701
71.294
70.0935
68.4792
67.108
65.3443
63.774
61.3351
37.9348
38.8424
40.7379
44.3733
50.1855
57.6622
65.366
71.7155
75.9482
78.2384
79.146
79.0564
78.103
76.5467
74.9329
73.8764
73.5989
73.9962
74.8151
75.9342
77.2418
78.7609
80.4259
82.3181
84.3585
86.6824
89.169
92.0282
95.065
98.603
102.325
106.736
111.318
116.874
122.563
129.681
136.868
146.276
155.786
169.028
182.669
202.461
222.696
251.554
278.287
312.88
338.134
369.892
392.549
425.499
453.474
431.521
449.178
352.747
288.825
261.514
261.982
258.366
256.255
240.778
226.814
207.402
192.946
177.5
166.465
155.152
146.888
138.821
133.105
127.771
123.964
120.346
117.582
114.814
112.382
109.742
107.067
104.087
100.955
97.6616
94.3639
91.1948
88.2267
85.6097
83.2615
81.3108
79.522
78.0582
76.5763
75.355
73.9516
72.8034
71.3383
70.1529
68.5533
67.2025
65.4587
63.9123
61.4855
37.9422
38.8616
40.776
44.44
50.2848
57.7853
65.4921
71.8205
76.0135
78.2563
79.1213
79.0035
78.0365
76.4731
74.8532
73.7926
73.516
73.9183
74.7438
75.869
77.1817
78.7046
80.3723
82.2663
84.3076
86.6317
89.1181
91.9763
95.0119
98.5479
102.268
106.675
111.254
116.806
122.489
129.599
136.777
146.174
155.67
168.897
182.526
202.312
222.55
251.431
278.19
312.815
338.061
369.827
392.467
425.648
453.912
432.582
451.689
356.043
292.081
264.209
263.799
259.466
256.852
241.089
226.951
207.44
192.931
177.461
166.416
155.099
146.832
138.763
133.047
127.717
123.915
120.304
117.547
114.788
112.364
109.732
107.062
104.085
100.952
97.6559
94.3539
91.1804
88.2091
85.5909
83.244
81.2968
79.5131
78.056
76.5815
75.3686
73.9741
72.8368
71.383
70.2129
68.6281
67.2981
65.5743
64.0522
61.6381
37.9498
38.8809
40.8145
44.507
50.3844
57.9084
65.6181
71.9253
76.0787
78.274
79.0963
78.9501
77.9693
76.399
74.773
73.7085
73.4328
73.8401
74.6721
75.8035
77.1213
78.6481
80.3186
82.2143
84.2565
86.5808
89.0669
91.9241
94.9584
98.4924
102.21
106.614
111.19
116.737
122.414
129.517
136.686
146.071
155.553
168.765
182.381
202.162
222.404
251.308
278.091
312.75
337.988
369.761
392.383
425.796
454.35
433.651
454.233
359.405
295.414
266.976
265.67
260.599
257.466
241.408
227.09
207.479
192.915
177.42
166.366
155.046
146.776
138.705
132.989
127.662
123.866
120.262
117.513
114.762
112.346
109.721
107.056
104.082
100.949
97.6502
94.3438
91.1659
88.1914
85.572
83.2263
81.2826
79.5042
78.0537
76.5866
75.3823
73.9968
72.8706
71.428
70.2733
68.7035
67.3946
65.6912
64.194
61.7928
37.9575
38.9006
40.8533
44.5744
50.4843
58.0316
65.7439
72.0299
76.1437
78.2916
79.071
78.8961
77.9015
76.3244
74.6925
73.6241
73.3493
73.7616
74.6002
75.7377
77.0606
78.5913
80.2645
82.1619
84.2052
86.5296
89.0153
91.8716
94.9046
98.4367
102.152
106.553
111.125
116.667
122.339
129.434
136.595
145.968
155.436
168.633
182.236
202.011
222.257
251.184
277.993
312.684
337.914
369.694
392.297
425.942
454.787
434.728
456.81
362.833
298.825
269.818
267.597
261.769
258.099
241.736
227.233
207.518
192.898
177.379
166.316
154.992
146.719
138.646
132.93
127.607
123.816
120.219
117.478
114.735
112.328
109.71
107.051
104.08
100.946
97.6446
94.3338
91.1514
88.1736
85.553
83.2085
81.2683
79.4953
78.0513
76.5918
75.3961
74.0196
72.9045
71.4733
70.3343
68.7796
67.4921
65.8094
64.3376
61.9498
37.9653
38.9204
40.8925
44.6422
50.5844
58.1548
65.8695
72.1342
76.2085
78.309
79.0455
78.8417
77.833
76.2492
74.6116
73.5393
73.2655
73.6829
74.528
75.6717
76.9997
78.5342
80.2103
82.1094
84.1536
86.4781
88.9636
91.8188
94.8506
98.3807
102.094
106.492
111.061
116.598
122.264
129.351
136.503
145.864
155.318
168.501
182.09
201.859
222.109
251.059
277.894
312.618
337.839
369.625
392.209
426.087
455.224
435.814
459.421
366.331
302.317
272.736
269.583
262.976
258.751
242.074
227.379
207.558
192.881
177.337
166.265
154.938
146.661
138.587
132.871
127.552
123.766
120.177
117.443
114.709
112.31
109.7
107.046
104.077
100.944
97.639
94.3238
91.1368
88.1556
85.5338
83.1906
81.2538
79.4862
78.049
76.597
75.4099
74.0425
72.9388
71.519
70.3957
68.8565
67.5906
65.9289
64.4831
62.109
37.9732
38.9405
40.932
44.7104
50.6849
58.2781
65.995
72.2382
76.2732
78.3263
79.0196
78.7867
77.7639
76.1735
74.5302
73.4543
73.1815
73.6038
74.4556
75.6054
76.9386
78.4769
80.1557
82.0565
84.1017
86.4264
88.9115
91.7657
94.7963
98.3244
102.035
106.43
110.996
116.528
122.188
129.268
136.41
145.76
155.2
168.367
181.943
201.707
221.96
250.934
277.794
312.551
337.764
369.556
392.119
426.231
455.66
436.909
462.066
369.9
305.892
275.731
271.629
264.222
259.424
242.421
227.529
207.599
192.864
177.295
166.213
154.883
146.604
138.528
132.812
127.496
123.716
120.134
117.408
114.682
112.292
109.689
107.041
104.075
100.941
97.6335
94.3138
91.1221
88.1376
85.5144
83.1725
81.2393
79.4771
78.0466
76.6022
75.4238
74.0656
72.9732
71.5651
70.4577
68.934
67.6902
66.0498
64.6304
62.2705
37.9812
38.9608
40.9719
44.779
50.7857
58.4014
66.1202
72.342
76.3375
78.3434
78.9935
78.7312
77.6942
76.0972
74.4485
73.3689
73.0971
73.5244
74.3828
75.5389
76.8772
78.4193
80.1009
82.0034
84.0496
86.3744
88.8592
91.7124
94.7417
98.2678
101.977
106.368
110.93
116.457
122.112
129.184
136.317
145.655
155.081
168.234
181.796
201.553
221.811
250.808
277.694
312.485
337.689
369.486
392.027
426.373
456.096
438.014
464.748
373.543
309.552
278.806
273.737
265.509
260.119
242.78
227.684
207.641
192.846
177.252
166.161
154.828
146.546
138.468
132.753
127.441
123.666
120.091
117.373
114.656
112.274
109.678
107.036
104.073
100.939
97.6281
94.3038
91.1074
88.1194
85.495
83.1544
81.2247
79.468
78.0442
76.6075
75.4379
74.0889
73.0079
71.6115
70.5202
69.0122
67.7907
66.172
64.7795
62.4344
37.9893
38.9814
41.0121
44.8479
50.8867
58.5247
66.2452
72.4454
76.4017
78.3603
78.967
78.6752
77.6238
76.0204
74.3664
73.2832
73.0124
73.4448
74.3098
75.472
76.8155
78.3615
80.0459
81.9501
83.9972
86.3221
88.8066
91.6588
94.6868
98.2109
101.918
106.306
110.864
116.387
122.036
129.1
136.224
145.55
154.962
168.099
181.647
201.399
221.661
250.681
277.594
312.418
337.613
369.416
391.933
426.514
456.532
439.127
467.466
377.262
313.299
281.962
275.91
266.839
260.837
243.15
227.842
207.684
192.829
177.209
166.109
154.773
146.487
138.408
132.693
127.384
123.616
120.048
117.338
114.629
112.255
109.668
107.031
104.071
100.936
97.6227
94.2938
91.0927
88.1012
85.4755
83.1361
81.21
79.4587
78.0418
76.6128
75.452
74.1124
73.0429
71.6582
70.5832
69.0911
67.8923
66.2956
64.9306
62.6007
37.9975
39.0022
41.0527
44.9173
50.988
58.648
66.3699
72.5485
76.4656
78.377
78.9402
78.6185
77.5528
75.943
74.2839
73.1972
72.9274
73.3649
74.2365
75.405
76.7536
78.3035
79.9906
81.8965
83.9445
86.2696
88.7538
91.6049
94.6317
98.1538
101.858
106.244
110.798
116.316
121.959
129.016
136.131
145.445
154.843
167.964
181.499
201.245
221.51
250.554
277.493
312.351
337.537
369.344
391.837
426.653
456.967
440.251
470.222
381.059
317.135
285.201
278.149
268.214
261.579
243.533
228.006
207.728
192.811
177.166
166.057
154.717
146.429
138.347
132.633
127.328
123.565
120.005
117.303
114.603
112.237
109.657
107.026
104.069
100.934
97.6174
94.2838
91.0779
88.0829
85.4558
83.1177
81.1952
79.4494
78.0394
76.6182
75.4662
74.136
73.0781
71.7054
70.6467
69.1707
67.9949
66.4205
65.0836
62.7693
38.0058
39.0233
41.0937
44.9871
51.0895
58.7713
66.4944
72.6513
76.5292
78.3934
78.9131
78.5614
77.481
75.865
74.201
73.1109
72.8422
73.2848
74.163
75.3377
76.6914
78.2452
79.9351
81.8426
83.8916
86.2168
88.7007
91.5508
94.5763
98.0964
101.799
106.181
110.732
116.244
121.882
128.932
136.037
145.339
154.722
167.829
181.349
201.09
221.359
250.427
277.391
312.284
337.461
369.272
391.74
426.792
457.403
441.384
473.017
384.937
321.061
288.524
280.456
269.636
262.347
243.928
228.175
207.774
192.793
177.122
166.004
154.661
146.37
138.287
132.572
127.272
123.514
119.962
117.267
114.576
112.219
109.647
107.021
104.067
100.932
97.6123
94.2739
91.0632
88.0646
85.4361
83.0992
81.1803
79.4401
78.037
76.6236
75.4806
74.1597
73.1135
71.7528
70.7107
69.251
68.0985
66.5467
65.2385
62.9405
38.0143
39.0446
41.135
45.0573
51.1913
58.8946
66.6186
72.7536
76.5925
78.4096
78.8856
78.5036
77.4086
75.7864
74.1177
73.0243
72.7567
73.2043
74.0892
75.2701
76.629
78.1866
79.8793
81.7885
83.8385
86.1637
88.6473
91.4964
94.5206
98.0387
101.739
106.118
110.666
116.173
121.805
128.847
135.943
145.233
154.602
167.693
181.199
200.934
221.207
250.298
277.29
312.217
337.384
369.198
391.64
426.929
457.838
442.528
475.852
388.898
325.081
291.932
282.833
271.106
263.143
244.338
228.35
207.822
192.776
177.078
165.951
154.605
146.311
138.226
132.512
127.215
123.463
119.918
117.232
114.549
112.201
109.637
107.017
104.065
100.93
97.6072
94.264
91.0484
88.0461
85.4162
83.0806
81.1653
79.4307
78.0345
76.629
75.495
74.1837
73.1492
71.8006
70.7753
69.3319
68.2031
66.6744
65.3954
63.1141
38.0229
39.0662
41.1768
45.1278
51.2934
59.0178
66.7425
72.8556
76.6554
78.4256
78.8578
78.4453
77.3355
75.7073
74.034
72.9374
72.6709
73.1236
74.0152
75.2023
76.5664
78.1278
79.8233
81.7342
83.7851
86.1104
88.5937
91.4417
94.4646
97.9807
101.679
106.055
110.599
116.101
121.728
128.761
135.849
145.126
154.481
167.556
181.049
200.777
221.054
250.17
277.188
312.15
337.308
369.125
391.539
427.065
458.274
443.682
478.728
392.944
329.194
295.427
285.282
272.626
263.967
244.763
228.531
207.873
192.759
177.034
165.897
154.548
146.252
138.165
132.451
127.158
123.412
119.875
117.196
114.523
112.183
109.627
107.012
104.064
100.928
97.6022
94.2542
91.0336
88.0277
85.3963
83.062
81.1503
79.4213
78.0321
76.6345
75.5095
74.2078
73.1851
71.8488
70.8403
69.4136
68.3088
66.8033
65.5542
63.2902
38.0316
39.088
41.2188
45.1988
51.3957
59.141
66.8661
72.9572
76.718
78.4413
78.8296
78.3864
77.2617
75.6275
73.9499
72.8502
72.5849
73.0427
73.9409
75.1343
76.5035
78.0688
79.767
81.6796
83.7315
86.0569
88.5398
91.3868
94.4084
97.9225
101.618
105.991
110.532
116.029
121.65
128.676
135.754
145.019
154.359
167.419
180.898
200.62
220.901
250.041
277.086
312.083
337.231
369.05
391.436
427.201
458.709
444.848
481.645
397.077
333.403
299.01
287.804
274.198
264.82
245.203
228.718
207.925
192.743
176.99
165.844
154.492
146.193
138.104
132.39
127.101
123.361
119.831
117.161
114.496
112.165
109.616
107.008
104.063
100.926
97.5974
94.2445
91.0188
88.0091
85.3763
83.0432
81.1352
79.4119
78.0297
76.64
75.5241
74.232
73.2213
71.8973
70.9059
69.4959
68.4155
66.9337
65.715
63.469
38.0404
39.1101
41.2613
45.2701
51.4983
59.2642
66.9894
73.0583
76.7803
78.4567
78.801
78.3268
77.1871
75.5472
73.8653
72.7627
72.4986
72.9615
73.8664
75.066
76.4404
78.0095
79.7105
81.6247
83.6776
86.0031
88.4856
91.3316
94.3519
97.8639
101.557
105.927
110.464
115.956
121.572
128.59
135.659
144.912
154.238
167.281
180.746
200.462
220.747
249.911
276.983
312.016
337.154
368.975
391.331
427.335
459.145
446.025
484.606
401.3
337.71
302.682
290.401
275.824
265.705
245.66
228.913
207.98
192.727
176.946
165.79
154.436
146.133
138.043
132.329
127.044
123.31
119.788
117.125
114.469
112.147
109.606
107.004
104.061
100.925
97.5926
94.2348
91.004
87.9905
85.3562
83.0243
81.12
79.4023
78.0272
76.6456
75.5388
74.2565
73.2577
71.9461
70.9719
69.579
68.5232
67.0654
65.8779
63.6503
38.0494
39.1325
41.3041
45.3419
51.6011
59.3873
67.1123
73.159
76.8421
78.4718
78.7721
78.2667
77.1118
75.4662
73.7804
72.6749
72.412
72.8801
73.7916
74.9975
76.3771
77.95
79.6538
81.5697
83.6234
85.949
88.4313
91.2761
94.2952
97.8052
101.496
105.863
110.396
115.884
121.493
128.504
135.563
144.804
154.115
167.143
180.593
200.303
220.593
249.781
276.88
311.948
337.077
368.9
391.225
427.468
459.581
447.214
487.611
405.615
342.116
306.443
293.073
277.506
266.623
246.134
229.115
208.037
192.711
176.902
165.737
154.379
146.074
137.982
132.268
126.987
123.259
119.744
117.09
114.443
112.129
109.597
107
104.06
100.923
97.588
94.2251
90.9892
87.9719
85.336
83.0054
81.1047
79.3928
78.0248
76.6513
75.5536
74.281
73.2944
71.9953
71.0385
69.6627
68.6319
67.1985
66.0427
63.8342
38.0585
39.1552
41.3474
45.414
51.7041
59.5103
67.2348
73.2592
76.9036
78.4865
78.7427
78.2059
77.0357
75.3845
73.695
72.5868
72.3252
72.7984
73.7166
74.9287
76.3135
77.8903
79.5968
81.5144