/*--------------------------------*- C++ -*----------------------------------*\
| =========                 |                                                 |
| \\      /  F ield         | OpenFOAM: The Open Source CFD Toolbox           |
|  \\    /   O peration     | Version:  2412                                  |
|   \\  /    A nd           | Website:  www.openfoam.com                      |
|    \\/     M anipulation  |                                                 |
\*---------------------------------------------------------------------------*/
FoamFile
{
    version     2.0;
    format      ascii;
    arch        "LSB;label=32;scalar=64";
    class       volScalarField;
    location    "0.7";
    object      nut;
}
// * * * * * * * * * * * * * * * * * * * * * * * * * * * * * * * * * * * * * //

dimensions      [0 2 -1 0 0 0 0];

internalField   nonuniform List<scalar> 
12960
(
0.337649
0.343672
0.356102
0.376194
0.399283
0.416525
0.422331
0.416819
0.403698
0.387509
0.371741
0.358482
0.349073
0.344716
0.345933
0.351758
0.359701
0.367404
0.373599
0.378298
0.381818
0.38473
0.387219
0.389668
0.391978
0.394481
0.396892
0.399628
0.402223
0.405277
0.408085
0.41154
0.41459
0.418573
0.421921
0.426624
0.430396
0.436186
0.440736
0.448161
0.453669
0.462425
0.467793
0.47607
0.478664
0.483468
0.481444
0.485129
0.48622
0.491519
0.491486
0.460181
0.451398
0.36197
0.307284
0.314027
0.366819
0.398288
0.413408
0.406338
0.401228
0.390872
0.387387
0.381353
0.380101
0.376694
0.376764
0.375662
0.3769
0.376861
0.377759
0.377441
0.377454
0.3764
0.375173
0.372959
0.370405
0.367291
0.364251
0.361459
0.359295
0.357887
0.35714
0.357052
0.357139
0.35746
0.357372
0.357247
0.35639
0.355547
0.35384
0.35232
0.349803
0.347592
0.344282
0.341247
0.33732
0.333745
0.328562
0.337679
0.343764
0.35629
0.376477
0.399576
0.416708
0.422328
0.416601
0.403275
0.386924
0.371059
0.357771
0.348385
0.344093
0.345417
0.351385
0.359474
0.367293
0.373559
0.378292
0.381822
0.384734
0.387218
0.38966
0.391964
0.394462
0.396869
0.399601
0.402193
0.405245
0.408049
0.411501
0.414548
0.418527
0.421871
0.42657
0.430337
0.436125
0.440672
0.448102
0.453617
0.462387
0.467769
0.476062
0.478657
0.483453
0.4814
0.485092
0.486207
0.491638
0.491709
0.46068
0.45233
0.363053
0.307714
0.313313
0.365351
0.396962
0.41252
0.405794
0.400905
0.390673
0.387261
0.38127
0.380044
0.37665
0.376726
0.37563
0.376877
0.376849
0.377756
0.377446
0.377466
0.376419
0.375196
0.372981
0.370421
0.367297
0.364244
0.36144
0.359269
0.357861
0.357121
0.357044
0.357146
0.357481
0.357406
0.357292
0.356445
0.355613
0.353916
0.352412
0.349911
0.347723
0.344435
0.341428
0.337526
0.333972
0.328778
0.33771
0.343856
0.356479
0.376759
0.399866
0.416889
0.422323
0.416382
0.402851
0.386338
0.370376
0.357057
0.347693
0.343466
0.344897
0.351008
0.359245
0.367181
0.373519
0.378285
0.381827
0.384738
0.387216
0.389652
0.391951
0.394443
0.396846
0.399574
0.402163
0.405212
0.408013
0.411463
0.414506
0.418481
0.421821
0.426516
0.430279
0.436063
0.440609
0.448043
0.453565
0.462349
0.467745
0.476054
0.47865
0.483438
0.481355
0.485055
0.486194
0.491758
0.491933
0.46118
0.453261
0.364125
0.308123
0.312567
0.363828
0.395578
0.411592
0.405229
0.400571
0.390471
0.387133
0.381187
0.379987
0.376606
0.376688
0.375598
0.376855
0.376837
0.377753
0.377452
0.377479
0.376438
0.375219
0.373003
0.370437
0.367303
0.364237
0.361422
0.359244
0.357835
0.357101
0.357035
0.357152
0.357503
0.35744
0.357338
0.3565
0.355679
0.353993
0.352504
0.35002
0.347855
0.344589
0.341611
0.337735
0.334202
0.328998
0.337741
0.343949
0.356667
0.37704
0.400155
0.417067
0.422316
0.416162
0.402427
0.385752
0.369691
0.356339
0.346996
0.342833
0.344371
0.350625
0.359012
0.367067
0.373477
0.378278
0.381831
0.384741
0.387215
0.389644
0.391937
0.394424
0.396823
0.399547
0.402133
0.405179
0.407978
0.411423
0.414464
0.418435
0.421771
0.426462
0.430221
0.436001
0.440545
0.447983
0.453513
0.462311
0.46772
0.476045
0.478643
0.483423
0.48131
0.485017
0.486179
0.491878
0.492156
0.461681
0.45419
0.365185
0.308511
0.311788
0.36225
0.394135
0.410622
0.40464
0.400227
0.390264
0.387004
0.381103
0.379931
0.376563
0.376651
0.375567
0.376833
0.376826
0.377751
0.377457
0.377492
0.376458
0.375242
0.373026
0.370454
0.367309
0.36423
0.361404
0.359218
0.357809
0.357081
0.357027
0.357159
0.357524
0.357475
0.357384
0.356557
0.355746
0.354071
0.352598
0.350129
0.347988
0.344745
0.341796
0.337946
0.334435
0.329221
0.337772
0.344043
0.356857
0.377321
0.400441
0.417242
0.422306
0.415939
0.402001
0.385164
0.369003
0.355618
0.346295
0.342195
0.34384
0.350239
0.358776
0.366951
0.373435
0.378271
0.381835
0.384745
0.387213
0.389636
0.391923
0.394405
0.396799
0.39952
0.402103
0.405145
0.407941
0.411384
0.414421
0.418389
0.421721
0.426407
0.430161
0.435939
0.44048
0.447922
0.45346
0.462272
0.467696
0.476037
0.478636
0.483407
0.481265
0.484978
0.486163
0.491997
0.49238
0.462184
0.455117
0.366231
0.308877
0.310978
0.360617
0.392632
0.409608
0.404026
0.39987
0.390053
0.386874
0.38102
0.379875
0.37652
0.376613
0.375536
0.376811
0.376814
0.377749
0.377464
0.377506
0.376478
0.375266
0.373049
0.370471
0.367315
0.364224
0.361385
0.359192
0.357782
0.35706
0.357019
0.357165
0.357546
0.35751
0.357431
0.356613
0.355814
0.35415
0.352692
0.35024
0.348123
0.344902
0.341983
0.338159
0.33467
0.329446
0.337803
0.344137
0.357047
0.377602
0.400726
0.417415
0.422293
0.415715
0.401574
0.384574
0.368313
0.354893
0.345589
0.341551
0.343303
0.349848
0.358538
0.366833
0.373392
0.378263
0.381838
0.384748
0.387211
0.389627
0.391908
0.394385
0.396775
0.399492
0.402072
0.405111
0.407905
0.411344
0.414378
0.418342
0.421669
0.426352
0.430102
0.435875
0.440415
0.447861
0.453406
0.462232
0.46767
0.476028
0.478628
0.48339
0.481218
0.484937
0.486146
0.492116
0.492603
0.462687
0.45604
0.367263
0.309221
0.310137
0.358928
0.391067
0.408547
0.403384
0.399501
0.389836
0.386743
0.380936
0.379819
0.376477
0.376576
0.375504
0.376789
0.376803
0.377747
0.37747
0.377519
0.376498
0.37529
0.373072
0.370488
0.367322
0.364217
0.361366
0.359165
0.357755
0.357039
0.35701
0.357172
0.357568
0.357546
0.357478
0.35667
0.355881
0.354229
0.352787
0.350351
0.348259
0.345061
0.342172
0.338375
0.334908
0.329673
0.337835
0.344232
0.357238
0.377882
0.401008
0.417584
0.422278
0.415489
0.401145
0.383982
0.36762
0.354164
0.344878
0.340903
0.342762
0.349453
0.358297
0.366714
0.373348
0.378255
0.381842
0.384751
0.387208
0.389618
0.391894
0.394365
0.396751
0.399464
0.402041
0.405077
0.407868
0.411304
0.414334
0.418294
0.421618
0.426296
0.430041
0.435812
0.440349
0.447799
0.453351
0.462192
0.467644
0.476018
0.478619
0.483373
0.48117
0.484896
0.486127
0.492235
0.492826
0.463191
0.45696
0.368281
0.309544
0.309266
0.357184
0.389437
0.407437
0.402714
0.399118
0.389614
0.386609
0.380852
0.379763
0.376435
0.37654
0.375473
0.376767
0.376792
0.377746
0.377476
0.377533
0.376519
0.375314
0.373096
0.370506
0.367328
0.36421
0.361347
0.359138
0.357727
0.357019
0.357002
0.357179
0.35759
0.357581
0.357525
0.356728
0.35595
0.354309
0.352882
0.350464
0.348396
0.345221
0.342364
0.338594
0.335149
0.329904
0.337867
0.344328
0.357429
0.378163
0.401289
0.417751
0.42226
0.415261
0.400715
0.383389
0.366924
0.353431
0.344163
0.340249
0.342215
0.349053
0.358053
0.366594
0.373304
0.378247
0.381845
0.384753
0.387206
0.389609
0.391878
0.394344
0.396726
0.399436
0.40201
0.405043
0.40783
0.411263
0.41429
0.418246
0.421566
0.426239
0.42998
0.435747
0.440282
0.447737
0.453295
0.462152
0.467618
0.476008
0.47861
0.483355
0.48112
0.484853
0.486107
0.492353
0.493048
0.463696
0.457877
0.369283
0.309844
0.308366
0.355385
0.387742
0.406276
0.402014
0.39872
0.389385
0.386474
0.380768
0.379708
0.376393
0.376503
0.375442
0.376746
0.376782
0.377744
0.377483
0.377548
0.37654
0.375339
0.37312
0.370523
0.367335
0.364204
0.361328
0.359112
0.357699
0.356997
0.356993
0.357185
0.357612
0.357617
0.357573
0.356786
0.356019
0.354389
0.352979
0.350577
0.348534
0.345383
0.342557
0.338814
0.335393
0.330137
0.3379
0.344424
0.357621
0.378442
0.401567
0.417914
0.42224
0.415031
0.400284
0.382794
0.366226
0.352695
0.343442
0.33959
0.341663
0.34865
0.357806
0.366472
0.373259
0.378238
0.381848
0.384755
0.387203
0.3896
0.391863
0.394324
0.396701
0.399407
0.401978
0.405007
0.407793
0.411222
0.414246
0.418197
0.421513
0.426182
0.429918
0.435682
0.440215
0.447673
0.453239
0.46211
0.467591
0.475997
0.478601
0.483336
0.48107
0.484809
0.486085
0.49247
0.49327
0.464201
0.458789
0.370269
0.310123
0.307438
0.353531
0.38598
0.405062
0.401281
0.398306
0.38915
0.386336
0.380683
0.379652
0.376351
0.376467
0.375412
0.376724
0.376771
0.377743
0.37749
0.377562
0.376561
0.375364
0.373144
0.370541
0.367342
0.364197
0.361309
0.359084
0.357671
0.356976
0.356984
0.357192
0.357634
0.357653
0.357621
0.356844
0.356088
0.35447
0.353076
0.350692
0.348674
0.345547
0.342752
0.339038
0.33564
0.330373
0.337933
0.344521
0.357814
0.378722
0.401844
0.418075
0.422217
0.414799
0.399851
0.382198
0.365526
0.351955
0.342718
0.338925
0.341106
0.348242
0.357556
0.366349
0.373213
0.378229
0.381851
0.384757
0.3872
0.38959
0.391847
0.394303
0.396676
0.399378
0.401945
0.404972
0.407754
0.41118
0.4142
0.418148
0.42146
0.426125
0.429856
0.435616
0.440147
0.447609
0.453182
0.462068
0.467563
0.475986
0.478591
0.483317
0.481019
0.484764
0.486062
0.492586
0.493492
0.464707
0.459696
0.371239
0.310381
0.306483
0.351622
0.384149
0.403792
0.400515
0.397875
0.388907
0.386195
0.380598
0.379597
0.376309
0.37643
0.375381
0.376703
0.376761
0.377742
0.377498
0.377577
0.376583
0.375389
0.373169
0.370559
0.367349
0.36419
0.36129
0.359057
0.357643
0.356954
0.356975
0.357199
0.357657
0.35769
0.357669
0.356903
0.356158
0.354551
0.353174
0.350807
0.348815
0.345712
0.34295
0.339264
0.33589
0.330612
0.337966
0.344619
0.358007
0.379001
0.402118
0.418233
0.422191
0.414566
0.399417
0.381601
0.364824
0.351212
0.341989
0.338256
0.340544
0.347829
0.357303
0.366223
0.373166
0.378219
0.381853
0.384759
0.387196
0.38958
0.391831
0.394281
0.39665
0.399348
0.401913
0.404936
0.407716
0.411138
0.414155
0.418099
0.421406
0.426067
0.429793
0.435549
0.440078
0.447544
0.453124
0.462025
0.467535
0.475975
0.47858
0.483297
0.480966
0.484717
0.486038
0.492702
0.493713
0.465214
0.460599
0.372191
0.310617
0.305504
0.34966
0.382248
0.402464
0.399712
0.397425
0.388656
0.386052
0.380512
0.379542
0.376268
0.376394
0.37535
0.376682
0.37675
0.377741
0.377505
0.377592
0.376605
0.375415
0.373194
0.370578
0.367357
0.364184
0.36127
0.359029
0.357614
0.356932
0.356966
0.357205
0.357679
0.357727
0.357718
0.356962
0.356228
0.354633
0.353273
0.350923
0.348957
0.345879
0.34315
0.339492
0.336142
0.330854
0.338
0.344717
0.358201
0.379279
0.40239
0.418388
0.422162
0.41433
0.398983
0.381003
0.364119
0.350465
0.341255
0.337582
0.339977
0.347413
0.357047
0.366097
0.373119
0.378209
0.381855
0.384761
0.387192
0.38957
0.391815
0.394259
0.396624
0.399318
0.40188
0.4049
0.407677
0.411096
0.414109
0.418049
0.421352
0.426008
0.42973
0.435482
0.440008
0.447478
0.453066
0.461982
0.467507
0.475963
0.478569
0.483276
0.480913
0.48467
0.486012
0.492818
0.493933
0.46572
0.461496
0.373125
0.310833
0.3045
0.347645
0.380277
0.401075
0.398871
0.396956
0.388396
0.385906
0.380425
0.379487
0.376227
0.376358
0.37532
0.37666
0.37674
0.377741
0.377513
0.377607
0.376627
0.375441
0.373219
0.370597
0.367364
0.364177
0.361251
0.359001
0.357585
0.35691
0.356956
0.357212
0.357702
0.357764
0.357767
0.357022
0.356299
0.354716
0.353373
0.351041
0.349101
0.346047
0.343351
0.339723
0.336398
0.331098
0.338033
0.344817
0.358396
0.379557
0.40266
0.41854
0.422131
0.414093
0.398547
0.380403
0.363413
0.349715
0.340517
0.336902
0.339405
0.346992
0.356789
0.365969
0.373071
0.378199
0.381857
0.384762
0.387188
0.389559
0.391798
0.394237
0.396597
0.399288
0.401846
0.404863
0.407637
0.411053
0.414063
0.417998
0.421297
0.425949
0.429666
0.435414
0.439938
0.447412
0.453007
0.461938
0.467477
0.475951
0.478557
0.483255
0.480858
0.48462
0.485984
0.492933
0.494153
0.466227
0.462388
0.374041
0.311028
0.303475
0.34558
0.378234
0.399625
0.39799
0.396466
0.388127
0.385756
0.380337
0.379432
0.376186
0.376323
0.375289
0.376639
0.37673
0.37774
0.377521
0.377623
0.376649
0.375467
0.373244
0.370616
0.367372
0.364171
0.361231
0.358973
0.357555
0.356887
0.356947
0.357219
0.357725
0.357802
0.357817
0.357082
0.356371
0.3548
0.353473
0.351159
0.349245
0.346217
0.343555
0.339956
0.336656
0.331346
0.338068
0.344917
0.358591
0.379834
0.402928
0.418689
0.422098
0.413855
0.39811
0.379803
0.362705
0.348963
0.339775
0.336218
0.338827
0.346566
0.356527
0.365839
0.373022
0.378189
0.381859
0.384763
0.387184
0.389548
0.391781
0.394215
0.39657
0.399257
0.401813
0.404826
0.407597
0.411009
0.414016
0.417947
0.421242
0.425889
0.429601
0.435346
0.439866
0.447344
0.452947
0.461894
0.467448
0.475938
0.478545
0.483232
0.480803
0.48457
0.485956
0.493047
0.494372
0.466735
0.463273
0.374938
0.311204
0.302429
0.343465
0.376119
0.398109
0.397066
0.395954
0.387849
0.385602
0.380248
0.379377
0.376145
0.376287
0.375259
0.376618
0.37672
0.37774
0.377529
0.377638
0.376671
0.375493
0.37327
0.370635
0.367379
0.364164
0.361211
0.358944
0.357526
0.356865
0.356937
0.357226
0.357749
0.357839
0.357867
0.357142
0.356443
0.354884
0.353574
0.351278
0.349391
0.346389
0.343761
0.340192
0.336918
0.331596
0.338102
0.345017
0.358787
0.380111
0.403193
0.418835
0.422062
0.413615
0.397673
0.379202
0.361995
0.348207
0.339029
0.335529
0.338245
0.346137
0.356263
0.365707
0.372972
0.378178
0.38186
0.384764
0.387179
0.389537
0.391763
0.394192
0.396543
0.399226
0.401778
0.404789
0.407557
0.410966
0.413969
0.417896
0.421186
0.425829
0.429536
0.435277
0.439795
0.447277
0.452887
0.461848
0.467417
0.475925
0.478533
0.48321
0.480746
0.484518
0.485925
0.49316
0.494591
0.467243
0.464151
0.375815
0.31136
0.301366
0.341303
0.373931
0.396527
0.396099
0.395418
0.387559
0.385445
0.380158
0.379322
0.376104
0.376251
0.375228
0.376597
0.37671
0.37774
0.377537
0.377654
0.376694
0.37552
0.373296
0.370654
0.367387
0.364157
0.361191
0.358915
0.357496
0.356842
0.356928
0.357233
0.357772
0.357877
0.357917
0.357203
0.356515
0.354968
0.353676
0.351398
0.349539
0.346562
0.343969
0.340431
0.337182
0.33185
0.338137
0.345119
0.358983
0.380387
0.403456
0.418978
0.422023
0.413373
0.397235
0.3786
0.361284
0.347448
0.338279
0.334835
0.337657
0.345703
0.355995
0.365574
0.372922
0.378166
0.381861
0.384765
0.387175
0.389525
0.391746
0.394169
0.396516
0.399195
0.401744
0.404751
0.407516
0.410922
0.413921
0.417844
0.42113
0.425768
0.429471
0.435207
0.439722
0.447208
0.452825
0.461803
0.467387
0.475911
0.478519
0.483186
0.480688
0.484465
0.485894
0.493273
0.494809
0.46775
0.465022
0.376672
0.311499
0.300287
0.339095
0.371671
0.394875
0.395085
0.394856
0.387257
0.385282
0.380067
0.379266
0.376063
0.376215
0.375198
0.376575
0.3767
0.37774
0.377546
0.37767
0.376717
0.375546
0.373322
0.370674
0.367395
0.364151
0.36117
0.358886
0.357465
0.356818
0.356918
0.35724
0.357796
0.357916
0.357968
0.357265
0.356588
0.355053
0.353778
0.351519
0.349688
0.346737
0.34418
0.340672
0.33745
0.332106
0.338173
0.345221
0.35918
0.380662
0.403717
0.419117
0.421982
0.41313
0.396796
0.377998
0.360571
0.346687
0.337525
0.334136
0.337065
0.345264
0.355725
0.36544
0.372871
0.378155
0.381862
0.384765
0.387169
0.389513
0.391728
0.394145
0.396488
0.399163
0.401709
0.404713
0.407476
0.410877
0.413873
0.417792
0.421074
0.425707
0.429405
0.435137
0.439649
0.447139
0.452764
0.461756
0.467356
0.475897
0.478506
0.483162
0.480629
0.484411
0.485861
0.493385
0.495026
0.468258
0.465886
0.377509
0.31162
0.299195
0.336845
0.369339
0.393153
0.394022
0.394269
0.386944
0.385115
0.379973
0.37921
0.376022
0.37618
0.375167
0.376554
0.37669
0.37774
0.377554
0.377686
0.37674
0.375573
0.373349
0.370694
0.367403
0.364144
0.36115
0.358856
0.357435
0.356795
0.356908
0.357247
0.35782
0.357954
0.358019
0.357326
0.356661
0.355139
0.353882
0.351642
0.349838
0.346914
0.344393
0.340916
0.33772
0.332365
0.338209
0.345324
0.359377
0.380937
0.403976
0.419254
0.421939
0.412886
0.396357
0.377396
0.359858
0.345923
0.336767
0.333433
0.336468
0.344822
0.355451
0.365303
0.372819
0.378142
0.381863
0.384765
0.387164
0.389501
0.39171
0.394121
0.39646
0.399131
0.401674
0.404675
0.407434
0.410832
0.413825
0.41774
0.421017
0.425646
0.429338
0.435066
0.439576
0.447069
0.452701
0.46171
0.467324
0.475882
0.478492
0.483137
0.480569
0.484355
0.485826
0.493496
0.495243
0.468766
0.466741
0.378324
0.311725
0.298092
0.334556
0.366935
0.391359
0.392909
0.393653
0.386617
0.384943
0.379878
0.379154
0.375981
0.376144
0.375136
0.376532
0.37668
0.37774
0.377563
0.377702
0.376763
0.375601
0.373375
0.370714
0.367412
0.364137
0.361129
0.358827
0.357404
0.356771
0.356898
0.357254
0.357843
0.357993
0.358071
0.357389
0.356735
0.355225
0.353986
0.351765
0.349989
0.347092
0.344607
0.341163
0.337994
0.332627
0.338245
0.345427
0.359575
0.381211
0.404232
0.419388
0.421893
0.41264
0.395918
0.376793
0.359143
0.345157
0.336006
0.332725
0.335865
0.344375
0.355175
0.365165
0.372766
0.37813
0.381863
0.384765
0.387158
0.389489
0.391691
0.394097
0.396432
0.399099
0.401639
0.404636
0.407393
0.410787
0.413776
0.417687
0.42096
0.425584
0.429271
0.434995
0.439501
0.446998
0.452638
0.461662
0.467292
0.475867
0.478477
0.483112
0.480508
0.484298
0.48579
0.493607
0.495459
0.469274
0.467588
0.379119
0.311815
0.296981
0.332229
0.36446
0.38949
0.391742
0.393007
0.386275
0.384765
0.379781
0.379096
0.375939
0.376107
0.375105
0.376511
0.37667
0.377739
0.377572
0.377718
0.376786
0.375628
0.373402
0.370734
0.36742
0.36413
0.361108
0.358796
0.357372
0.356747
0.356887
0.35726
0.357868
0.358032
0.358122
0.357451
0.356809
0.355312
0.354091
0.351889
0.350141
0.347272
0.344824
0.341412
0.33827
0.332892
0.338281
0.345531
0.359773
0.381484
0.404485
0.419519
0.421844
0.412393
0.395478
0.37619
0.358426
0.344388
0.335241
0.332012
0.335258
0.343924
0.354896
0.365026
0.372713
0.378117
0.381863
0.384765
0.387153
0.389476
0.391672
0.394073
0.396403
0.399066
0.401603
0.404597
0.407351
0.410742
0.413727
0.417633
0.420902
0.425521
0.429203
0.434923
0.439426
0.446927
0.452574
0.461614
0.467259
0.475852
0.478462
0.483085
0.480445
0.48424
0.485752
0.493717
0.495674
0.469782
0.468426
0.379892
0.311891
0.295864
0.32987
0.361916
0.387545
0.39052
0.392329
0.385919
0.384581
0.379682
0.379038
0.375898
0.376071
0.375074
0.376489
0.376659
0.377739
0.37758
0.377735
0.37681
0.375655
0.373429
0.370754
0.367428
0.364123
0.361087
0.358766
0.35734
0.356722
0.356877
0.357267
0.357892
0.358072
0.358174
0.357514
0.356884
0.3554
0.354196
0.352014
0.350295
0.347453
0.345044
0.341664
0.33855
0.333161
0.338318
0.345636
0.359972
0.381756
0.404737
0.419647
0.421793
0.412144
0.395038
0.375586
0.35771
0.343618
0.334472
0.331296
0.334647
0.343468
0.354613
0.364885
0.372659
0.378104
0.381863
0.384764
0.387147
0.389463
0.391653
0.394048
0.396374
0.399033
0.401567
0.404558
0.407308
0.410696
0.413678
0.417579
0.420844
0.425458
0.429135
0.434851
0.439351
0.446855
0.45251
0.461566
0.467226
0.475836
0.478446
0.483059
0.480382
0.484181
0.485713
0.493826
0.495888
0.470289
0.469254
0.380644
0.311954
0.294745
0.327481
0.359304
0.385523
0.389241
0.391618
0.385546
0.38439
0.37958
0.37898
0.375855
0.376034
0.375042
0.376466
0.376649
0.377739
0.377589
0.377751
0.376833
0.375683
0.373457
0.370775
0.367437
0.364116
0.361065
0.358735
0.357308
0.356697
0.356866
0.357274
0.357916
0.358111
0.358227
0.357578
0.35696
0.355488
0.354302
0.35214
0.35045
0.347637
0.345265
0.341918
0.338833
0.333432
0.338356
0.345742
0.360171
0.382027
0.404985
0.419772
0.42174
0.411895
0.394597
0.374983
0.356992
0.342845
0.3337
0.330574
0.33403
0.343008
0.354328
0.364742
0.372604
0.37809
0.381863
0.384763
0.38714
0.38945
0.391634
0.394023
0.396344
0.399
0.40153
0.404518
0.407266
0.41065
0.413628
0.417525
0.420785
0.425395
0.429066
0.434778
0.439274
0.446783
0.452445
0.461517
0.467192
0.47582
0.47843
0.483031
0.480318
0.48412
0.485673
0.493935
0.496102
0.470796
0.470072
0.381373
0.312005
0.293626
0.325066
0.356625
0.383423
0.387902
0.390872
0.385156
0.384192
0.379475
0.37892
0.375812
0.375997
0.37501
0.376444
0.376638
0.377738
0.377597
0.377767
0.376856
0.375711
0.373484
0.370795
0.367445
0.364109
0.361043
0.358703
0.357275
0.356672
0.356855
0.357281
0.357941
0.358151
0.35828
0.357641
0.357035
0.355576
0.354409
0.352266
0.350607
0.347821
0.345489
0.342176
0.339119
0.333706
0.338394
0.345848
0.360371
0.382298
0.405232
0.419894
0.421684
0.411644
0.394157
0.37438
0.356274
0.34207
0.332925
0.329849
0.333409
0.342544
0.35404
0.364598
0.372548
0.378076
0.381862
0.384762
0.387134
0.389437
0.391614
0.393998
0.396315
0.398967
0.401494
0.404478
0.407223
0.410603
0.413578
0.417471
0.420726
0.425331
0.428997
0.434704
0.439198
0.44671
0.452379
0.461467
0.467158
0.475803
0.478414
0.483003
0.480252
0.484057
0.48563
0.494042
0.496315
0.471303
0.470879
0.382081
0.312047
0.29251
0.322629
0.353883
0.381243
0.386501
0.390088
0.384747
0.383985
0.379368
0.378858
0.375769
0.375959
0.374977
0.37642
0.376626
0.377737
0.377605
0.377783
0.37688
0.375738
0.373511
0.370816
0.367453
0.364101
0.361021
0.358672
0.357242
0.356646
0.356844
0.357288
0.357965
0.358191
0.358332
0.357706
0.357111
0.355665
0.354517
0.352394
0.350765
0.348008
0.345715
0.342435
0.339408
0.333983
0.338432
0.345956
0.360571
0.382567
0.405475
0.420013
0.421627
0.411392
0.393716
0.373777
0.355555
0.341293
0.332146
0.329119
0.332783
0.342076
0.353749
0.364452
0.372492
0.378062
0.381861
0.384761
0.387127
0.389423
0.391594
0.393973
0.396285
0.398933
0.401457
0.404438
0.40718
0.410556
0.413527
0.417416
0.420667
0.425267
0.428928
0.43463
0.43912
0.446636
0.452313
0.461417
0.467124
0.475786
0.478397
0.482974
0.480186
0.483993
0.485587
0.494149
0.496527
0.471809
0.471676
0.382767
0.312081
0.291401
0.320175
0.351079
0.378984
0.385036
0.389266
0.384319
0.383771
0.379256
0.378796
0.375724
0.37592
0.374943
0.376397
0.376615
0.377736
0.377613
0.377799
0.376903
0.375766
0.373539
0.370837
0.367461
0.364094
0.360999
0.358639
0.357208
0.35662
0.356832
0.357294
0.35799
0.358231
0.358386
0.35777
0.357188
0.355755
0.354626
0.352523
0.350924
0.348196
0.345943
0.342698
0.3397
0.334264
0.33847
0.346063
0.360771
0.382836
0.405717
0.420129
0.421566
0.411139
0.393276
0.373175
0.354836
0.340515
0.331365
0.328386
0.332152
0.341604
0.353455
0.364304
0.372434
0.378047
0.38186
0.384759
0.38712
0.389409
0.391574
0.393947
0.396255
0.398899
0.401419
0.404398
0.407136
0.410509
0.413477
0.417361
0.420607
0.425202
0.428858
0.434556
0.439042
0.446562
0.452246
0.461366
0.467089
0.475769
0.478379
0.482945
0.480118
0.483928
0.485542
0.494255
0.496738
0.472315
0.472461
0.38343
0.312108
0.290301
0.317708
0.348217
0.376644
0.383504
0.388403
0.38387
0.383547
0.379141
0.378731
0.375679
0.375881
0.374909
0.376372
0.376602
0.377734
0.377621
0.377814
0.376926
0.375793
0.373566
0.370857
0.367469
0.364086
0.360976
0.358607
0.357174
0.356594
0.356821
0.357301
0.358014
0.358272
0.358439
0.357835
0.357265
0.355845
0.354735
0.352653
0.351084
0.348386
0.346173
0.342963
0.339995
0.334547
0.338509
0.346172
0.360972
0.383103
0.405955
0.420242
0.421504
0.410885
0.392836
0.372573
0.354117
0.339735
0.330581
0.327648
0.331517
0.341127
0.353157
0.364155
0.372376
0.378032
0.381858
0.384757
0.387112
0.389395
0.391553
0.393921
0.396224
0.398864
0.401382
0.404357
0.407092
0.410462
0.413426
0.417305
0.420547
0.425137
0.428787
0.434481
0.438964
0.446487
0.452179
0.461315
0.467053
0.475751
0.478361
0.482915
0.480049
0.483862
0.485495
0.49436
0.496948
0.47282
0.473234
0.384072
0.31213
0.289213
0.315233
0.345301
0.374223
0.381905
0.387497
0.383399
0.383314
0.379022
0.378665
0.375632
0.37584
0.374874
0.376347
0.376589
0.377732
0.377627
0.377829
0.376948
0.37582
0.373593
0.370878
0.367477
0.364078
0.360953
0.358573
0.35714
0.356567
0.356809
0.357307
0.358039
0.358312
0.358493
0.3579
0.357342
0.355936
0.354844
0.352783
0.351245
0.348577
0.346406
0.343231
0.340293
0.334833
0.338549
0.346281
0.361173
0.38337
0.406191
0.420352
0.421439
0.410631
0.392395
0.371972
0.353397
0.338954
0.329793
0.326907
0.330878
0.340646
0.352857
0.364004
0.372318
0.378016
0.381857
0.384755
0.387105
0.38938
0.391532
0.393894
0.396193
0.398829
0.401344
0.404316
0.407048
0.410414
0.413374
0.417249
0.420486
0.425072
0.428716
0.434405
0.438884
0.446411
0.452111
0.461264
0.467018
0.475733
0.478343
0.482884
0.479979
0.483793
0.485447
0.494464
0.497157
0.473325
0.473994
0.384693
0.312149
0.288141
0.312754
0.342333
0.371722
0.380235
0.386545
0.382905
0.383069
0.378899
0.378596
0.375584
0.375799
0.374837
0.37632
0.376575
0.377729
0.377634
0.377844
0.37697
0.375847
0.37362
0.370898
0.367485
0.364069
0.360929
0.35854
0.357104
0.356539
0.356796
0.357314
0.358064
0.358353
0.358547
0.357965
0.35742
0.356027
0.354955
0.352914
0.351408
0.34877
0.34664
0.343501
0.340594
0.335122
0.338589
0.346392
0.361375
0.383635
0.406425
0.420458
0.421372
0.410375
0.391956
0.371371
0.352678
0.338171
0.329004
0.326162
0.330234
0.340162
0.352554
0.363851
0.372258
0.378001
0.381855
0.384753
0.387097
0.389365
0.391511
0.393868
0.396162
0.398795
0.401306
0.404274
0.407004
0.410366
0.413322
0.417193
0.420426
0.425006
0.428645
0.434329
0.438805
0.446335
0.452042
0.461211
0.466981
0.475714
0.478324
0.482852
0.479908
0.483724
0.485397
0.494568
0.497365
0.473828
0.474741
0.385291
0.312166
0.287088
0.310277
0.339318
0.369141
0.378493
0.385547
0.382385
0.382814
0.37877
0.378525
0.375534
0.375755
0.3748
0.376292
0.37656
0.377725
0.37764
0.377858
0.376992
0.375874
0.373647
0.370918
0.367493
0.36406
0.360904
0.358505
0.357069
0.356511
0.356783
0.35732
0.358088
0.358394
0.358601
0.35803
0.357497
0.356118
0.355065
0.353046
0.351571
0.348964
0.346877
0.343774
0.340898
0.335414
0.338629
0.346502
0.361577
0.3839
0.406656
0.420562
0.421303
0.410118
0.391516
0.370771
0.351959
0.337387
0.328211
0.325413
0.329586
0.339673
0.352248
0.363697
0.372198
0.377984
0.381853
0.38475
0.387089
0.38935
0.39149
0.393841
0.396131
0.398759
0.401267
0.404233
0.406959
0.410318
0.41327
0.417137
0.420364
0.42494
0.428573
0.434252
0.438724
0.446258
0.451973
0.461159
0.466945
0.475695
0.478305
0.48282
0.479835
0.483653
0.485345
0.49467
0.497573
0.474331
0.475474
0.385869
0.312184
0.286056
0.307807
0.33626
0.36648
0.376678
0.384499
0.381839
0.382547
0.378636
0.378452
0.375483
0.375711
0.374761
0.376263
0.376543
0.37772
0.377644
0.377871
0.377013
0.3759
0.373674
0.370938
0.3675
0.364051
0.36088
0.35847
0.357032
0.356483
0.35677
0.357325
0.358113
0.358434
0.358655
0.358096
0.357576
0.35621
0.355177
0.353179
0.351736
0.34916
0.347116
0.34405
0.341205
0.335709
0.33867
0.346614
0.36178
0.384163
0.406884
0.420663
0.421232
0.409861
0.391077
0.370172
0.35124
0.336603
0.327417
0.32466
0.328934
0.33918
0.351939
0.363541
0.372137
0.377968
0.38185
0.384748
0.38708
0.389335
0.391468
0.393814
0.3961
0.398724
0.401229
0.404191
0.406914
0.410269
0.413218
0.41708
0.420303
0.424874
0.428501
0.434175
0.438644
0.446181
0.451903
0.461106
0.466908
0.475675
0.478285
0.482787
0.479762
0.48358
0.485292
0.494771
0.497779
0.474833
0.476194
0.386427
0.312205
0.285049
0.305348
0.333164
0.363741
0.374786
0.383399
0.381265
0.382266
0.378496
0.378375
0.375429
0.375664
0.37472
0.376233
0.376526
0.377714
0.377648
0.377883
0.377034
0.375926
0.3737
0.370957
0.367506
0.364041
0.360854
0.358434
0.356995
0.356454
0.356756
0.357331
0.358137
0.358475
0.358709
0.358162
0.357654
0.356302
0.355289
0.353313
0.351902
0.349358
0.347357
0.344328
0.341516
0.336007
0.338711
0.346726
0.361982
0.384426
0.40711
0.420761
0.421158
0.409603
0.390638
0.369574
0.350521
0.335817
0.32662
0.323904
0.328277
0.338683
0.351627
0.363384
0.372075
0.377951
0.381847
0.384745
0.387072
0.389319
0.391446
0.393786
0.396068
0.398688
0.40119
0.404148
0.406869
0.41022
0.413165
0.417023
0.420241
0.424807
0.428429
0.434098
0.438562
0.446103
0.451832
0.461052
0.46687
0.475655
0.478264
0.482753
0.479687
0.483505
0.485237
0.494871
0.497984
0.475333
0.476899
0.386965
0.31223
0.28407
0.302905
0.330034
0.360925
0.372818
0.382246
0.380662
0.381971
0.37835
0.378295
0.375373
0.375616
0.374677
0.376201
0.376507
0.377707
0.377651
0.377895
0.377053
0.375951
0.373725
0.370976
0.367513
0.364031
0.360828
0.358398
0.356957
0.356424
0.356742
0.357336
0.358162
0.358516
0.358763
0.358228
0.357733
0.356395
0.355401
0.353447
0.35207
0.349557
0.3476
0.344608
0.341829
0.336307
0.338753
0.346839
0.362186
0.384687
0.407333
0.420856
0.421083
0.409344
0.3902
0.368977
0.349804
0.335031
0.325821
0.323145
0.327617
0.338182
0.351313
0.363224
0.372012
0.377933
0.381844
0.384741
0.387063
0.389304
0.391424
0.393759
0.396036
0.398652
0.401151
0.404106
0.406824
0.410171
0.413112
0.416965
0.420179
0.424739
0.428356
0.43402
0.43848
0.446024
0.451761
0.460998
0.466832
0.475635
0.478243
0.482719
0.479611
0.483429
0.48518
0.49497
0.498188
0.475832
0.477589
0.387483
0.312262
0.283121
0.300484
0.326877
0.358034
0.370772
0.381037
0.380027
0.381662
0.378196
0.37821
0.375314
0.375565
0.374632
0.376166
0.376486
0.377698
0.377652
0.377905
0.377072
0.375975
0.37375
0.370995
0.367518
0.364019
0.360801
0.358361
0.356918
0.356393
0.356727
0.357341
0.358186
0.358557
0.358818
0.358294
0.357811
0.356487
0.355514
0.353582
0.352238
0.349757
0.347846
0.344891
0.342145
0.336611
0.338795
0.346953
0.362389
0.384947
0.407553
0.420948
0.421005
0.409084
0.389763
0.368381
0.349086
0.334244
0.325019
0.322383
0.326952
0.337677
0.350995
0.363063
0.371949
0.377915
0.381841
0.384738
0.387054
0.389288
0.391402
0.393731
0.396003
0.398615
0.401111
0.404063
0.406778
0.410122
0.413059
0.416907
0.420116
0.424672
0.428282
0.433941
0.438398
0.445945
0.45169
0.460943
0.466793
0.475614
0.478221
0.482683
0.479533
0.483351
0.485121
0.495068
0.498391
0.47633
0.478263
0.387983
0.312302
0.282205
0.298089
0.323698
0.35507
0.368646
0.37977
0.379359
0.381336
0.378034
0.378122
0.375251
0.375511
0.374585
0.376129
0.376462
0.377687
0.377652
0.377914
0.377089
0.375998
0.373774
0.371013
0.367523
0.364008
0.360773
0.358322
0.356878
0.356362
0.356712
0.357345
0.358209
0.358597
0.358872
0.35836
0.35789
0.35658
0.355627
0.353718
0.352407
0.349959
0.348093
0.345177
0.342463
0.336916
0.338837
0.347068
0.362593
0.385206