/*--------------------------------*- C++ -*----------------------------------*\
| =========                 |                                                 |
| \\      /  F ield         | OpenFOAM: The Open Source CFD Toolbox           |
|  \\    /   O peration     | Version:  2412                                  |
|   \\  /    A nd           | Website:  www.openfoam.com                      |
|    \\/     M anipulation  |                                                 |
\*---------------------------------------------------------------------------*/
FoamFile
{
    version     2.0;
    format      ascii;
    arch        "LSB;label=32;scalar=64";
    class       volScalarField;
    location    "0.7";
    object      p;
}
// * * * * * * * * * * * * * * * * * * * * * * * * * * * * * * * * * * * * * //

dimensions      [0 2 -2 0 0 0 0];

internalField   nonuniform List<scalar> 
12960
(
105797
105766
105719
105640
105560
105441
105330
105178
105047
104875
104726
104520
104336
104077
103854
103539
103289
102915
102639
102183
101882
101321
101000
100298
99968.1
99075.5
98755.6
97602.7
97323.9
95809
95623.7
93598.5
93592.4
90838.5
91149.3
87341.9
88190
82840.9
84579
76948.4
80143.5
69099.2
74671.3
58472
67929.6
43849.8
59629.7
23212.4
49075.5
-7283.32
34305.8
-53315.4
14680.1
-112616
-854.214
-72047.7
6774.65
-34793.8
17109.3
-8633.63
24855.5
9425.89
31573
23058
38033
33786.8
44029.6
42309.9
49426
49152.9
54187.4
54684.2
58309.4
59165.5
61818.9
62799.3
64766.5
65749.6
67221.6
68162.1
69270.7
70172.2
71005.5
71897.4
72501.7
73424.8
73806.1
74811.3
74938.6
76095.8
75903
77314.1
76695.6
78506.9
77306.4
79720.1
77722.3
80997.2
77932.9
105803
105772
105724
105645
105565
105445
105333
105181
105049
104876
104727
104521
104338
104078
103855
103541
103291
102917
102641
102186
101885
101323
101003
100300
99970.8
99078.8
98758.5
97606.5
97327.1
95813.4
95627.3
93603.7
93596.3
90844.6
91153.5
87349.1
88194.4
82849.4
84583.5
76958.2
80147.6
69110.2
74674.5
58484
67931.8
43863.4
59633
23229.6
49083.3
-7268.49
34311.6
-53345.3
14658.8
-112807
-910.05
-72083
6757.98
-34786.6
17111.1
-8620.68
24856
9433.21
31570.6
23062.5
38031.2
33791
44028.9
42313.9
49426.4
49156.9
54188.7
54688.2
58311.5
59169.4
61821.5
62803
64769.2
65752.9
67224.1
68164.6
69272.8
70174
71007.1
71898.4
72503
73425.3
73807.5
74811.4
74940.1
76095.6
75904.8
77313.5
76697.5
78505.7
77308.3
79718.7
77723.7
80996.2
77933.1
105809
105777
105730
105650
105569
105449
105336
105183
105051
104878
104729
104523
104339
104080
103857
103543
103292
102918
102643
102188
101887
101326
101005
100303
99973.4
99082.1
98761.5
97610.3
97330.4
95817.9
95630.9
93608.9
93600.2
90850.8
91157.7
87356.4
88198.8
82857.9
84588
76968.1
80151.7
69121.3
74677.8
58496.1
67934.2
43877.2
59636.3
23246.8
49091.1
-7253.7
34317.4
-53375.5
14637.3
-113000
-966.385
-72118.3
6741.13
-34779.6
17112.6
-8607.82
24856.5
9440.61
31568.2
23067.2
38029.4
33795.2
44028.3
42317.9
49426.8
49160.8
54190.1
54692.1
58313.5
59173.3
61824
62806.7
64772
65756.2
67226.6
68167.2
69274.9
70175.7
71008.7
71899.4
72504.4
73425.8
73808.9
74811.6
74941.7
76095.4
75906.6
77312.8
76699.5
78504.6
77310.2
79717.4
77725.1
80995.2
77933.4
105815
105783
105735
105655
105574
105452
105340
105186
105053
104879
104730
104524
104341
104081
103858
103544
103294
102920
102644
102190
101889
101328
101007
100306
99976.1
99085.3
98764.4
97614.2
97333.6
95822.3
95634.5
93614.2
93604.1
90857
91161.9
87363.7
88203.3
82866.5
84592.5
76978.1
80155.9
69132.6
74681.2
58508.4
67936.6
43891.2
59639.8
23264.1
49098.9
-7238.9
34323.1
-53405.9
14615.4
-113195
-1023.23
-72153.6
6724.1
-34772.9
17113.9
-8595.03
24856.9
9448.07
31565.8
23072
38027.6
33799.5
44027.7
42322
49427.2
49164.9
54191.4
54696.1
58315.6
59177.2
61826.6
62810.4
64774.7
65759.5
67229.2
68169.8
69277
70177.4
71010.4
71900.4
72505.8
73426.3
73810.3
74811.7
74943.4
76095.1
75908.5
77312.1
76701.5
78503.5
77312.2
79716.1
77726.6
80994.3
77933.8
105822
105789
105741
105660
105578
105456
105343
105188
105056
104881
104732
104525
104342
104083
103860
103546
103296
102922
102646
102192
101891
101331
101010
100309
99978.7
99088.6
98767.4
97618
97336.9
95826.8
95638.1
93619.5
93608.1
90863.2
91166.2
87371
88207.7
82875.2
84597
76988.1
80160.2
69143.9
74684.6
58520.8
67939.1
43905.3
59643.2
23281.6
49106.7
-7223.95
34329
-53436.5
14593.5
-113392
-1080.61
-72189.1
6706.85
-34766.2
17115
-8582.22
24857.3
9455.57
31563.5
23076.8
38025.9
33803.9
44027.1
42326.2
49427.6
49168.9
54192.7
54700.2
58317.6
59181.2
61829.1
62814.2
64777.4
65762.8
67231.7
68172.4
69279.1
70179.2
71012
71901.5
72507.2
73426.9
73811.8
74811.9
74945
76094.9
75910.3
77311.4
76703.5
78502.4
77314.2
79714.8
77728.1
80993.4
77934.2
105828
105795
105747
105665
105583
105460
105347
105191
105058
104883
104733
104527
104343
104084
103861
103547
103297
102924
102648
102194
101893
101333
101012
100312
99981.4
99092
98770.3
97621.9
97340.2
95831.4
95641.7
93624.8
93612
90869.5
91170.4
87378.5
88212.2
82883.9
84601.6
76998.2
80164.4
69155.3
74688
58533.3
67941.5
43919.4
59646.7
23299.2
49114.7
-7208.83
34334.9
-53467.2
14571.5
-113590
-1138.54
-72224.8
6689.38
-34759.6
17116.1
-8569.38
24857.6
9463.1
31561.1
23081.6
38024.1
33808.3
44026.5
42330.3
49428.1
49173
54194.1
54704.2
58319.7
59185.2
61831.7
62818
64780.2
65766.1
67234.3
68175
69281.2
70181
71013.6
71902.5
72508.6
73427.4
73813.2
74812.1
74946.6
76094.7
75912.2
77310.7
76705.6
78501.2
77316.2
79713.5
77729.7
80992.4
77934.6
105835
105801
105753
105670
105588
105464
105350
105194
105060
104884
104734
104528
104345
104086
103863
103549
103299
102926
102650
102196
101895
101336
101015
100315
99984.1
99095.3
98773.3
97625.8
97343.5
95835.9
95645.4
93630.2
93616
90875.8
91174.7
87385.9
88216.8
82892.7
84606.2
77008.4
80168.7
69166.8
74691.4
58545.9
67944
43933.7
59650.2
23317
49122.7
-7193.54
34341
-53497.9
14549.4
-113791
-1197.02
-72260.7
6671.69
-34753.2
17117
-8556.52
24857.9
9470.66
31558.7
23086.5
38022.3
33812.7
44025.9
42334.5
49428.5
49177.2
54195.5
54708.3
58321.8
59189.2
61834.3
62821.8
64783
65769.5
67236.9
68177.6
69283.3
70182.7
71015.3
71903.6
72510
73427.9
73814.7
74812.2
74948.3
76094.4
75914.1
77310
76707.6
78500.1
77318.2
79712.1
77731.2
80991.5
77935.1
105841
105807
105758
105675
105592
105468
105353
105197
105062
104886
104736
104529
104346
104087
103864
103551
103301
102928
102652
102199
101897
101338
101017
100318
99986.8
99098.7
98776.4
97629.7
97346.9
95840.5
95649.1
93635.5
93620
90882.1
91179.1
87393.4
88221.3
82901.5
84610.8
77018.7
80173.1
69178.4
74694.9
58558.5
67946.5
43948.1
59653.7
23334.9
49130.8
-7178.08
34347.2
-53528.8
14527.3
-113993
-1256.03
-72296.7
6653.77
-34746.9
17117.8
-8543.64
24858.2
9478.26
31556.2
23091.3
38020.5
33817.1
44025.3
42338.8
49429
49181.3
54196.9
54712.5
58324
59193.3
61837
62825.6
64785.8
65772.9
67239.5
68180.2
69285.5
70184.5
71017
71904.6
72511.5
73428.5
73816.1
74812.4
74949.9
76094.2
75916
77309.3
76709.7
78498.9
77320.3
79710.7
77732.8
80990.5
77935.5
105848
105813
105764
105681
105597
105472
105357
105199
105064
104888
104737
104531
104347
104089
103866
103553
103303
102930
102654
102201
101900
101341
101019
100321
99989.5
99102.1
98779.4
97633.7
97350.2
95845.2
95652.8
93641
93624.1
90888.5
91183.4
87401
88225.9
82910.4
84615.5
77029.1
80177.4
69190
74698.4
58571.3
67949
43962.5
59657.2
23352.9
49139
-7162.45
34353.5
-53559.8
14505.1
-114197
-1315.6
-72333
6635.64
-34740.7
17118.4
-8530.76
24858.4
9485.88
31553.7
23096.3
38018.7
33821.6
44024.7
42343.1
49429.4
49185.5
54198.3
54716.6
58326.1
59197.3
61839.6
62829.5
64788.7
65776.3
67242.2
68182.9
69287.6
70186.3
71018.6
71905.7
72512.9
73429
73817.6
74812.5
74951.6
76094
75917.9
77308.6
76711.8
78497.8
77322.4
79709.3
77734.3
80989.5
77935.9
105854
105820
105770
105686
105602
105476
105360
105202
105067
104890
104739
104532
104349
104090
103867
103554
103304
102932
102656
102203
101902
101343
101022
100323
99992.3
99105.5
98782.5
97637.6
97353.6
95849.8
95656.5
93646.5
93628.2
90895
91187.8
87408.6
88230.6
82919.4
84620.1
77039.5
80181.8
69201.8
74701.9
58584.1
67951.5
43977.1
59660.7
23371
49147.2
-7146.66
34360
-53590.8
14482.8
-114402
-1375.71
-72369.3
6617.29
-34734.6
17118.9
-8517.88
24858.6
9493.53
31551.2
23101.2
38016.8
33826.1
44024.1
42347.4
49429.9
49189.7
54199.7
54720.8
58328.3
59201.5
61842.3
62833.4
64791.5
65779.7
67244.8
68185.6
69289.8
70188.1
71020.3
71906.7
72514.3
73429.6
73819.1
74812.7
74953.3
76093.7
75919.8
77307.9
76713.9
78496.6
77324.4
79707.9
77735.9
80988.4
77936.3
105861
105826
105776
105691
105607
105480
105364
105205
105069
104891
104740
104534
104350
104092
103869
103556
103306
102934
102658
102205
101904
101346
101024
100326
99995
99109
98785.5
97641.7
97357.1
95854.5
95660.3
93652
93632.3
90901.5
91192.2
87416.3
88235.2
82928.5
84624.9
77050
80186.2
69213.6
74705.4
58597.1
67954
43991.7
59664.3
23389.3
49155.5
-7130.68
34366.6
-53622
14460.4
-114610
-1436.37
-72405.9
6598.72
-34728.6
17119.3
-8505
24858.7
9501.21
31548.6
23106.2
38015
33830.7
44023.5
42351.7
49430.3
49194
54201.1
54725.1
58330.5
59205.6
61845
62837.4
64794.4
65783.2
67247.5
68188.3
69292
70190
71022
71907.8
72515.8
73430.1
73820.5
74812.8
74955
76093.5
75921.8
77307.2
76716.1
78495.4
77326.6
79706.4
77737.6
80987.4
77936.8
105868
105832
105782
105696
105612
105484
105368
105208
105071
104893
104742
104535
104352
104093
103871
103558
103308
102936
102660
102208
101906
101348
101027
100329
99997.8
99112.5
98788.6
97645.7
97360.5
95859.2
95664.1
93657.5
93636.4
90908
91196.7
87424
88239.9
82937.6
84629.6
77060.5
80190.7
69225.5
74709
58610.1
67956.5
44006.5
59667.8
23407.7
49164
-7114.54
34373.3
-53653.2
14438
-114819
-1497.58
-72442.5
6579.95
-34722.8
17119.5
-8492.13
24858.8
9508.91
31546.1
23111.2
38013.1
33835.3
44022.8
42356.1
49430.8
49198.3
54202.6
54729.3
58332.7
59209.8
61847.7
62841.3
64797.4
65786.7
67250.2
68191
69294.2
70191.8
71023.7
71908.9
72517.2
73430.6
73822
74813
74956.6
76093.2
75923.7
77306.5
76718.2
78494.1
77328.7
79705
77739.2
80986.3
77937.2
105875
105838
105788
105702
105617
105488
105371
105211
105074
104895
104744
104536
104353
104095
103872
103559
103310
102938
102662
102210
101909
101351
101029
100332
100001
99115.9
98791.8
97649.8
97363.9
95864
95667.9
93663.1
93640.5
90914.6
91201.1
87431.8
88244.6
82946.7
84634.4
77071.2
80195.2
69237.5
74712.5
58623.2
67959.1
44021.3
59671.4
23426.3
49172.4
-7098.22
34380.1
-53684.5
14415.6
-115030
-1559.34
-72479.4
6560.97
-34717.2
17119.5
-8479.27
24858.8
9516.63
31543.4
23116.2
38011.2
33839.9
44022.2
42360.5
49431.3
49202.6
54204
54733.6
58334.9
59214
61850.5
62845.4
64800.3
65790.3
67252.9
68193.8
69296.4
70193.7
71025.4
71910
72518.7
73431.2
73823.5
74813.2
74958.4
76093
75925.7
77305.7
76720.4
78492.9
77330.8
79703.5
77740.9
80985.3
77937.7
105882
105845
105794
105707
105622
105493
105375
105213
105076
104897
104745
104538
104355
104096
103874
103561
103311
102940
102664
102212
101911
101354
101032
100336
100003
99119.5
98794.9
97653.9
97367.4
95868.8
95671.7
93668.7
93644.7
90921.2
91205.6
87439.7
88249.4
82956
84639.2
77081.9
80199.7
69249.6
74716.1
58636.4
67961.6
44036.3
59675
23445
49181
-7081.72
34387.1
-53715.8
14393
-115243
-1621.65
-72516.3
6541.79
-34711.7
17119.3
-8466.45
24858.8
9524.38
31540.8
23121.3
38009.4
33844.5
44021.6
42364.9
49431.8
49207
54205.5
54738
58337.2
59218.3
61853.2
62849.4
64803.3
65793.8
67255.7
68196.6
69298.6
70195.5
71027.1
71911
72520.2
73431.7
73825
74813.3
74960.1
76092.7
75927.7
77305
76722.5
78491.7
77333
79701.9
77742.5
80984.1
77938.1
105889
105851
105800
105713
105627
105497
105378
105216
105078
104899
104747
104539
104356
104098
103875
103563
103313
102942
102666
102215
101913
101356
101034
100339
100006
99123
98798.1
97658
97370.9
95873.6
95675.5
93674.4
93648.9
90927.9
91210.2
87447.5
88254.2
82965.3
84644.1
77092.7
80204.2
69261.8
74719.8
58649.7
67964.2
44051.3
59678.7
23463.8
49189.7
-7065.05
34394.2
-53747.3
14370.5
-115458
-1684.51
-72553.4
6522.42
-34706.3
17118.9
-8453.65
24858.7
9532.14
31538.1
23126.4
38007.5
33849.2
44021
42369.4
49432.3
49211.4
54207
54742.4
58339.4
59222.6
61856
62853.5
64806.2
65797.4
67258.4
68199.3
69300.9
70197.4
71028.9
71912.1
72521.6
73432.3
73826.5
74813.5
74961.8
76092.5
75929.6
77304.2
76724.7
78490.4
77335.2
79700.4
77744.2
80983
77938.6
105896
105858
105807
105718
105632
105501
105382
105219
105081
104900
104748
104541
104357
104100
103877
103565
103315
102944
102668
102217
101915
101359
101037
100342
100009
99126.6
98801.2
97662.1
97374.5
95878.4
95679.4
93680.1
93653.2
90934.6
91214.7
87455.5
88259
82974.6
84649
77103.6
80208.8
69274
74723.4
58663.1
67966.7
44066.5
59682.3
23482.8
49198.4
-7048.2
34401.4
-53778.8
14347.8
-115675
-1747.92
-72590.5
6502.86
-34701.1
17118.4
-8440.89
24858.5
9539.92
31535.4
23131.5
38005.5
33854
44020.4
42373.9
49432.7
49215.8
54208.5
54746.8
58341.7
59226.9
61858.8
62857.6
64809.3
65801
67261.2
68202.2
69303.1
70199.3
71030.6
71913.2
72523.1
73432.8
73828.1
74813.6
74963.5
76092.2
75931.6
77303.5
76726.9
78489.1
77337.4
79698.8
77745.9
80981.9
77939
105903
105864
105813
105724
105637
105505
105386
105222
105083
104902
104750
104542
104359
104101
103879
103566
103317
102946
102670
102219
101918
101362
101040
100345
100012
99130.2
98804.5
97666.3
97378
95883.3
95683.3
93685.8
93657.4
90941.4
91219.3
87463.5
88263.8
82984
84653.9
77114.5
80213.4
69286.3
74727.1
58676.5
67969.3
44081.7
59685.9
23501.9
49207.2
-7031.17
34408.7
-53810.4
14325.1
-115894
-1811.88
-72627.8
6483.13
-34696.1
17117.6
-8428.17
24858.3
9547.72
31532.6
23136.6
38003.6
33858.7
44019.7
42378.4
49433.2
49220.3
54210
54751.2
58344
59231.2
61861.7
62861.7
64812.3
65804.7
67264
68205
69305.4
70201.2
71032.3
71914.3
72524.6
73433.4
73829.6
74813.8
74965.3
76092
75933.7
77302.7
76729.2
78487.8
77339.6
79697.3
77747.6
80980.7
77939.5
105910
105871
105819
105729
105642
105510
105389
105225
105085
104904
104751
104544
104360
104103
103880
103568
103319
102948
102672
102222
101920
101364
101042
100348
100015
99133.8
98807.7
97670.5
97381.6
95888.2
95687.3
93691.6
93661.7
90948.2
91223.9
87471.5
88268.7
82993.5
84658.9
77125.5
80218
69298.8
74730.8
58690.1
67971.9
44097
59689.6
23521.1
49216.1
-7013.96
34416.2
-53842.1
14302.4
-116114
-1876.38
-72665.1
6463.24
-34691.2
17116.6
-8415.51
24857.9
9555.52
31529.8
23141.8
38001.7
33863.5
44019.1
42383
49433.7
49224.8
54211.5
54755.7
58346.3
59235.6
61864.5
62865.9
64815.4
65808.3
67266.8
68207.8
69307.7
70203.1
71034.1
71915.4
72526.1
73434
73831.1
74813.9
74967
76091.7
75935.7
77301.9
76731.4
78486.5
77341.8
79695.6
77749.4
80979.5
77940
105917
105878
105826
105735
105647
105514
105393
105228
105088
104906
104753
104545
104362
104104
103882
103570
103320
102950
102674
102224
101922
101367
101045
100351
100018
99137.4
98810.9
97674.7
97385.2
95893.2
95691.2
93697.4
93666
90955.1
91228.6
87479.6
88273.6
83003.1
84663.8
77136.6
80222.7
69311.3
74734.5
58703.7
67974.5
44112.4
59693.3
23540.5
49225
-6996.56
34423.9
-53873.8
14279.7
-116337
-1941.43
-72702.5
6443.19
-34686.5
17115.4
-8402.91
24857.5
9563.34
31527
23147
37999.7
33868.3
44018.5
42387.6
49434.3
49229.3
54213
54760.2
58348.7
59240
61867.4
62870.1
64818.4
65812
67269.7
68210.7
69310
70205
71035.8
71916.5
72527.6
73434.5
73832.7
74814.1
74968.8
76091.4
75937.7
77301.2
76733.7
78485.2
77344.1
79694
77751.1
80978.3
77940.5
105924
105885
105832
105741
105652
105518
105397
105231
105090
104908
104754
104546
104363
104106
103883
103572
103322
102952
102677
102227
101925
101370
101047
100354
100021
99141.1
98814.2
97679
97388.8
95898.1
95695.2
93703.2
93670.4
90961.9
91233.3
87487.8
88278.5
83012.7
84668.9
77147.8
80227.4
69323.9
74738.2
58717.5
67977.1
44127.9
59697
23560
49234.1
-6978.99
34431.7
-53905.6
14256.8
-116561
-2007.03
-72740
6422.99
-34682
17114
-8390.38
24857
9571.16
31524.1
23152.2
37997.7
33873.2
44017.8
42392.2
49434.8
49233.9
54214.6
54764.7
58351
59244.5
61870.3
62874.3
64821.5
65815.8
67272.6
68213.6
69312.3
70206.9
71037.6
71917.7
72529.1
73435.1
73834.2
74814.3
74970.6
76091.2
75939.8
77300.4
76735.9
78483.8
77346.4
79692.3
77752.9
80977
77941
105932
105891
105839
105747
105658
105523
105401
105234
105093
104910
104756
104548
104365
104107
103885
103574
103324
102954
102679
102229
101927
101373
101050
100357
100024
99144.7
98817.5
97683.3
97392.4
95903.2
95699.2
93709.1
93674.7
90968.9
91238
87496
88283.5
83022.3
84673.9
77159
80232.1
69336.5
74742
58731.3
67979.7
44143.6
59700.7
23579.6
49243.2
-6961.23
34439.6
-53937.4
14234
-116787
-2073.17
-72777.5
6402.67
-34677.6
17112.3
-8377.92
24856.5
9578.99
31521.2
23157.5
37995.7
33878
44017.2
42396.9
49435.3
49238.5
54216.1
54769.3
58353.4
59249
61873.3
62878.6
64824.7
65819.5
67275.4
68216.5
69314.6
70208.8
71039.4
71918.8
72530.6
73435.6
73835.8
74814.4
74972.4
76090.9
75941.8
77299.6
76738.2
78482.5
77348.7
79690.7
77754.7
80975.7
77941.5
105939
105898
105845
105752
105663
105527
105405
105237
105095
104912
104758
104549
104366
104109
103887
103576
103326
102956
102681
102231
101930
101376
101053
100361
100027
99148.5
98820.8
97687.6
97396.1
95908.2
95703.2
93715
93679.1
90975.9
91242.7
87504.2
88288.5
83032.1
84679
77170.4
80236.9
69349.3
74745.8
58745.2
67982.3
44159.3
59704.5
23599.4
49252.4
-6943.28
34447.6
-53969.3
14211.1
-117015
-2139.85
-72815.1
6382.23
-34673.3
17110.3
-8365.55
24855.8
9586.82
31518.2
23162.8
37993.7
33883
44016.6
42401.6
49435.8
49243.1
54217.7
54773.9
58355.8
59253.5
61876.2
62882.9
64827.8
65823.3
67278.3
68219.4
69316.9
70210.8
71041.2
71919.9
72532.1
73436.2
73837.3
74814.6
74974.2
76090.6
75943.9
77298.8
76740.5
78481.1
77351
79689
77756.5
80974.4
77942
105947
105905
105852
105758
105668
105532
105408
105240
105098
104914
104759
104551
104368
104111
103888
103577
103328
102959
102683
102234
101932
101378
101055
100364
100030
99152.2
98824.1
97691.9
97399.8
95913.3
95707.3
93721
93683.5
90982.9
91247.5
87512.5
88293.5
83041.9
84684.1
77181.8
80241.7
69362.2
74749.6
58759.2
67985
44175.1
59708.2
23619.3
49261.7
-6925.15
34455.8
-54001.2
14188.2
-117245
-2207.07
-72852.7
6361.68
-34669.2
17108.2
-8353.27
24855
9594.65
31515.2
23168
37991.7
33887.9
44015.9
42406.3
49436.3
49247.8
54219.3
54778.6
58358.2
59258.1
61879.2
62887.2
64831
65827.1
67281.3
68222.4
69319.3
70212.7
71043
71921
72533.6
73436.8
73838.9
74814.7
74976
76090.3
75946
77297.9
76742.8
78479.7
77353.3
79687.2
77758.4
80973.1
77942.5
105954
105912
105859
105764
105674
105536
105412
105243
105100
104916
104761
104552
104369
104112
103890
103579
103330
102961
102685
102236
101934
101381
101058
100367
100033
99155.9
98827.4
97696.3
97403.5
95918.4
95711.3
93727
93688
90990
91252.2
87520.9
88298.6
83051.7
84689.3
77193.2
80246.5
69375.1
74753.4
58773.3
67987.6
44191
59712
23639.3
49271.1
-6906.83
34464.2
-54033.2
14165.2
-117477
-2274.83
-72890.3
6341.05
-34665.2
17105.7
-8341.1
24854.1
9602.47
31512.2
23173.4
37989.7
33892.9
44015.3
42411.1
49436.9
49252.5
54220.9
54783.2
58360.6
59262.7
61882.2
62891.6
64834.2
65830.9
67284.2
68225.3
69321.7
70214.7
71044.8
71922.1
72535.1
73437.3
73840.5
74814.9
74977.8
76090.1
75948.1
77297.1
76745.2
78478.3
77355.7
79685.5
77760.2
80971.7
77943
105962
105919
105865
105770
105679
105541
105416
105246
105103
104917
104762
104554
104371
104114
103892
103581
103332
102963
102687
102239
101937
101384
101061
100370
100036
99159.7
98830.8
97700.7
97407.2
95923.5
95715.4
93733
93692.5
90997.1
91257.1
87529.3
88303.7
83061.7
84694.4
77204.8
80251.3
69388.1
74757.3
58787.4
67990.2
44206.9
59715.8
23659.5
49280.5
-6888.32
34472.7
-54065.3
14142.3
-117711
-2343.12
-72927.9
6320.33
-34661.4
17103
-8329.03
24853.1
9610.29
31509.1
23178.7
37987.6
33897.9
44014.6
42415.9
49437.4
49257.2
54222.5
54787.9
58363.1
59267.3
61885.2
62896
64837.4
65834.8
67287.2
68228.3
69324
70216.7
71046.6
71923.3
72536.6
73437.9
73842
74815
74979.6
76089.8
75950.2
77296.3
76747.5
78476.9
77358
79683.7
77762.1
80970.4
77943.6
105970
105926
105872
105776
105685
105545
105420
105249
105105
104919
104764
104555
104372
104116
103894
103583
103334
102965
102690
102241
101939
101387
101064
100374
100039
99163.5
98834.2
97705.1
97410.9
95928.7
95719.6
93739.1
93697
91004.2
91261.9
87537.8
88308.8
83071.6
84699.6
77216.4
80256.2
69401.2
74761.1
58801.7
67992.9
44223
59719.6
23679.8
49290.1
-6869.62
34481.4
-54097.3
14119.3
-117947
-2411.95
-72965.6
6299.56
-34657.7
17100.1
-8317.07
24852
9618.1
31505.9
23184.1
37985.5
33903
44014
42420.7
49438
49262
54224.1
54792.7
58365.6
59271.9
61888.3
62900.4
64840.7
65838.7
67290.2
68231.3
69326.4
70218.7
71048.4
71924.4
72538.2
73438.5
73843.6
74815.2
74981.5
76089.5
75952.4
77295.4
76749.9
78475.4
77360.4
79681.9
77764
80969
77944.1
105977
105934
105879
105782
105690
105550
105424
105252
105108
104921
104766
104557
104374
104117
103895
103585
103336
102967
102692
102244
101942
101390
101066
100377
100042
99167.3
98837.6
97709.5
97414.7
95933.9
95723.7
93745.2
93701.5
91011.4
91266.8
87546.3
88314
83081.7
84704.9
77228.1
80261.1
69414.4
74765
58816.1
67995.6
44239.2
59723.4
23700.2
49299.7
-6850.73
34490.2
-54129.5
14096.2
-118185
-2481.3
-73003.1
6278.75
-34654.2
17096.9
-8305.24
24850.7
9625.89
31502.7
23189.4
37983.4
33908
44013.3
42425.6
49438.5
49266.8
54225.8
54797.5
58368.1
59276.6
61891.3
62904.9
64844
65842.6
67293.2
68234.4
69328.8
70220.7
71050.2
71925.5
72539.7
73439
73845.2
74815.4
74983.3
76089.2
75954.5
77294.6
76752.3
78474
77362.8
79680
77765.9
80967.5
77944.6
105985
105941
105886
105788
105696
105555
105428
105256
105110
104923
104767
104558
104375
104119
103897
103587
103338
102970
102694
102246
101944
101393
101069
100380
100045
99171.2
98841
97714
97418.5
95939.1
95727.9
93751.3
93706
91018.7
91271.7
87554.9
88319.1
83091.8
84710.2
77239.9
80266.1
69427.7
74769
58830.5
67998.2
44255.5
59727.2
23720.8
49309.4
-6831.65
34499.1
-54161.6
14073.2
-118425
-2551.19
-73040.7
6257.91
-34650.7
17093.4
-8293.55
24849.3
9633.66
31499.5
23194.8
37981.3
33913.1
44012.6
42430.5
49439.1
49271.6
54227.4
54802.3
58370.6
59281.4
61894.4
62909.4
64847.3
65846.6
67296.2
68237.4
69331.3
70222.7
71052
71926.7
72541.3
73439.6
73846.8
74815.5
74985.2
76088.9
75956.7
77293.7
76754.7
78472.5
77365.3
79678.1
77767.9
80966
77945.2
105993
105948
105893
105794
105701
105559
105432
105259
105113
104925
104769
104560
104377
104121
103899
103589
103340
102972
102696
102249
101947
101396
101072
100384
100048
99175
98844.5
97718.5
97422.3
95944.3
95732.1
93757.5
93710.6
91026
91276.6
87563.5
88324.4
83102
84715.5
77251.7
80271.1
69441
74772.9
58845
68000.9
44271.8
59731
23741.5
49319.2
-6812.37
34508.2
-54193.8
14050.1
-118667
-2621.59
-73078.2
6237.07
-34647.4
17089.6
-8281.99
24847.8
9641.42
31496.2
23200.3
37979.2
33918.3
44012
42435.4
49439.6
49276.4
54229.1
54807.1
58373.1
59286.1
61897.5
62913.9
64850.6
65850.6
67299.3
68240.5
69333.7
70224.7
71053.9
71927.8
72542.8
73440.2
73848.4
74815.7
74987
76088.6
75958.8
77292.9
76757.1
78471
77367.7
79676.2
77769.8
80964.5
77945.8
106001
105955
105900
105800
105707
105564
105436
105262
105116
104927
104771
104561
104378
104122
103900
103591
103342
102974
102698
102252
101949
101399
101075
100387
100051
99178.9
98847.9
97723
97426.2
95949.6
95736.3
93763.7
93715.2
91033.3
91281.6
87572.2
88329.6
83112.2
84720.8
77263.6
80276.1
69454.5
74776.9
58859.7
68003.6
44288.3
59734.9
23762.4
49329.1
-6792.9
34517.5
-54226
14027.1
-118910
-2692.51
-73115.7
6216.22
-34644.1
17085.5
-8270.58
24846.2
9649.15
31492.8
23205.7
37977.1
33923.4
44011.3
42440.3
49440.2
49281.3
54230.8
54812
58375.6
59290.9
61900.7
62918.4
64853.9
65854.6
67302.3
68243.6
69336.1
70226.7
71055.7
71929
72544.4
73440.7
73850.1
74815.8
74988.9
76088.3
75961
77292
76759.5
78469.5
77370.2
79674.3
77771.8
80963
77946.3
106009
105963
105907
105807
105713
105569
105440
105265
105118
104929
104772
104563
104380
104124
103902
103593
103344
102976
102701
102254
101952
101401
101078
100390
100054
99182.9
98851.4
97727.6
97430
95955
95740.6
93770
93719.8
91040.7
91286.6
87580.9
88334.9
83122.5
84726.2
77275.6
80281.1
69468
74780.9
58874.4
68006.3
44304.8
59738.7
23783.4
49339
-6773.23
34526.9
-54258.2
14004
-119156
-2763.95
-73153.1
6195.41
-34640.9
17081.2
-8259.32
24844.3
9656.85
31489.4
23211.2
37974.9
33928.6
44010.6
42445.3
49440.7
49286.3
54232.5
54816.9
58378.2
59295.7
61903.8
62923
64857.3
65858.6
67305.4
68246.7
69338.6
70228.8
71057.6
71930.2
72545.9
73441.3
73851.7
74816
74990.8
76088
75963.2
77291.1
76762
78468
77372.7
79672.4
77773.8
80961.5
77946.9
106017
105970
105914
105813
105719
105574
105445
105268
105121
104931
104774
104564
104381
104126
103904
103595
103346
102979
102703
102257
101954
101404
101080
100394
100057
99186.8
98854.9
97732.2
97433.9
95960.3
95744.8
93776.2
93724.5
91048.1
91291.6
87589.7
88340.2
83132.9
84731.6
77287.7
80286.2
69481.6
74784.9
58889.2
68009
44321.5
59742.6
23804.5
49349.1
-6753.36
34536.5
-54290.5
13980.9
-119404
-2835.9
-73190.4
6174.63
-34637.8
17076.6
-8248.23
24842.4
9664.51
31485.9
23216.6
37972.7
33933.9
44009.9
42450.3
49441.3
49291.2
54234.2
54821.9
58380.8
59300.6
61907
62927.7
64860.7
65862.7
67308.5
68249.8
69341.1
70230.8
71059.4
71931.3
72547.5
73441.9
73853.3
74816.1
74992.7
76087.7
75965.4
77290.2
76764.5
78466.5
77375.2
79670.4
77775.8
80959.9
77947.5
106025
105978
105921
105819
105724
105578
105449
105272
105123
104933
104776
104566
104383
104127
103906
103597
103348
102981
102705
102259
101957
101407
101083
100397
100061
99190.8
98858.5
97736.8
97437.8
95965.7
95749.1
93782.6
93729.2
91055.6
91296.6
87598.5
88345.5
83143.3
84737
77299.9
80291.3
69495.3
74788.9
58904
68011.7
44338.2
59746.5
23825.7
49359.2
-6733.29
34546.3
-54322.7
13957.8
-119654
-2908.37
-73227.6
6153.91
-34634.7
17071.8
-8237.3
24840.2
9672.14
31482.4
23222.1
37970.5
33939.1
44009.2
42455.4
49441.9
49296.2
54235.9
54826.8
58383.4
59305.5
61910.2
62932.3
64864.1
65866.7
67311.7
68252.9
69343.6
70232.9
71061.3
71932.5
72549.1
73442.5
73854.9
74816.3
74994.6
76087.4
75967.6
77289.4
76767
78464.9
77377.8
79668.4
77777.9
80958.2
77948.1
106034
105986
105929
105826
105730
105583
105453
105275
105126
104935
104777
104567
104384
104129
103908
103599
103350
102983
102708
102262
101960
101410
101086
100401
100064
99194.7
98862
97741.4
97441.7
95971.1
95753.4
93788.9
93733.9
91063.1
91301.7
87607.4
88350.9
83153.8
84742.5
77312.1
80296.4
69509.1
74793
58919
68014.4
44355
59750.4
23847.1
49369.4
-6713.02
34556.2
-54355
13934.7
-119906
-2981.33
-73264.7
6133.27
-34631.6
17066.6
-8226.54
24837.9
9679.73
31478.7
23227.6
37968.3
33944.4
44008.5
42460.4
49442.4
49301.2
54237.6
54831.8
58386
59310.4
61913.5
62937
64867.6
65870.9
67314.8
68256.1
69346.1
70234.9
71063.1
71933.6
72550.6
73443
73856.6
74816.5
74996.5
76087.1
75969.9
77288.4
76769.5
78463.3
77380.3
79666.3
77779.9
80956.6
77948.8
106042
105993
105936
105832
105736
105588
105457
105278
105129
104937
104779
104569
104386
104131
103909
103601
103352
102986
102710
102265
101962
101413
101089
100404
100067
99198.7
98865.6
97746.1
97445.7
95976.6
95757.8
93795.3
93738.6
91070.6
91306.8
87616.4
88356.3
83164.4
84748
77324.4
80301.6
69523
74797
58934.1
68017.1
44371.9
59754.3
23868.7
49379.7
-6692.55
34566.3
-54387.3
13911.6
-120160
-3054.8
-73301.7
6112.71
-34628.6
17061.3
-8215.96
24835.4
9687.27
31475.1
23233.1
37966
33949.7
44007.8
42465.5
49443
49306.3
54239.3
54836.9
58388.7
59315.3
61916.7
62941.7
64871
65875
67318
68259.3
69348.6
70237
71065
71934.8
72552.2
73443.6
73858.2
74816.6
74998.4
76086.8
75972.1
77287.5
76772
78461.7
77382.9
79664.3
77782
80954.9
77949.4
106050
106001
105943
105839
105742
105593
105461
105282
105131
104940
104781
104570
104387
104132
103911
103603
103354
102988
102712
102267
101965
101417
101092
100408
100070
99202.8
98869.1
97750.8
97449.6
95982
95762.1
93801.8
93743.4
91078.2
91311.9
87625.4
88361.7
83175
84753.5
77336.8
80306.8
69536.9
74801.1
58949.2
68019.8
44389
59758.2
23890.3
49390.1
-6671.88
34576.5
-54419.6
13888.5
-120416
-3128.77
-73338.6
6092.26
-34625.6
17055.6
-8205.57
24832.8
9694.76
31471.3
23238.6
37963.7
33955
44007.1
42470.7
49443.6
49311.3
54241.1
54842
58391.3
59320.3
61920
62946.5
64874.5
65879.2
67321.2
68262.5
69351.1
70239.1
71066.9
71936
72553.8
73444.2
73859.9
74816.8
75000.3
76086.5
75974.4
77286.6
76774.5
78460.1
77385.5
79662.2
77784.1
80953.2
77950
106059
106009
105951
105845
105748
105598
105466
105285
105134
104942
104783
104572
104389
104134
103913
103605
103356
102990
102715
102270
101967
101420
101095
100411
100074
99206.8
98872.8
97755.5
97453.6
95987.5
95766.5
93808.2
93748.2
91085.9
91317.1
87634.4
88367.1
83185.7
84759.1
77349.2
80312
69551
74805.3
58964.5
68022.6
44406.1
59762.1
23912.1
49400.6
-6651
34587
-54451.9
13865.4
-120674
-3203.24
-73375.4
6071.93
-34622.5
17049.7
-8195.36
24829.9
9702.19
31467.5
23244.1
37961.4
33960.4
44006.4
42475.8
49444.2
49316.4
54242.8
54847.1
58394
59325.4
61923.3
62951.2
64878.1
65883.4
67324.4
68265.7
69353.6
70241.2
71068.8
71937.2
72555.4
73444.8
73861.5
74816.9
75002.3
76086.2
75976.6
77285.7
76777.1
78458.5
77388.1
79660
77786.3
80951.4
77950.7
106067
106017
105958
105852
105754
105603
105470
105288
105137
104944
104784
104573
104390
104136
103915
103607
103358
102993
102717
102273
101970
101423
101098
100415
100077
99210.9
98876.4
97760.2
97457.6
95993.1
95770.9
93814.8
93753
91093.6
91322.3
87643.5
88372.6
83196.5
84764.7
77361.7
80317.3
69565.1
74809.4
58979.8
68025.3
44423.2
59766.1
23934.1
49411.1
-6629.91
34597.5
-54484.2
13842.3
-120935
-3278.2
-73412
6051.74
-34619.4
17043.6
-8185.34
24826.8
9709.56
31463.6
23249.7
37959.1
33965.8
44005.7
42481
49444.7
49321.6
54244.6
54852.2
58396.7
59330.4
61926.6
62956.1
64881.6
65887.6
67327.6
68268.9
69356.2
70243.3
71070.7
71938.3
72557
73445.4
73863.2
74817.1
75004.2
76085.9
75978.9
77284.8
76779.6
78456.8
77390.8
79657.9
77788.4
80949.6
77951.4
106076
106025
105966
105858
105760
105608
105474
105292
105140
104946
104786
104575
104392
104138
103917
103609
103360
102995
102719
102275
101973
101426
101101
100418
100080
99215
98880
97765
97461.7
95998.7
95775.4
93821.3
93757.8
91101.3
91327.5
87652.7
88378.1
83207.3
84770.3