/*--------------------------------*- C++ -*----------------------------------*\
| =========                 |                                                 |
| \\      /  F ield         | OpenFOAM: The Open Source CFD Toolbox           |
|  \\    /   O peration     | Version:  2412                                  |
|   \\  /    A nd           | Website:  www.openfoam.com                      |
|    \\/     M anipulation  |                                                 |
\*---------------------------------------------------------------------------*/
FoamFile
{
    version     2.0;
    format      ascii;
    arch        "LSB;label=32;scalar=64";
    class       surfaceScalarField;
    location    "0.7";
    object      phi;
}
// * * * * * * * * * * * * * * * * * * * * * * * * * * * * * * * * * * * * * //

dimensions      [0 3 -1 0 0 0 0];

oriented        oriented;

internalField   nonuniform List<scalar> 
25689
(
0.00747763
0.013399
0.0073942
0.0118311
0.00732333
0.0104453
0.00726264
0.00919935
0.00721267
0.00768049
0.00717524
0.00547912
0.00715326
0.00234959
0.00714872
-0.00136989
0.00716355
-0.00506264
0.00719847
-0.0080383
0.00725143
-0.00984189
0.00731627
-0.010358
0.00738367
-0.00979005
0.00744506
-0.0086125
0.00749606
-0.00729543
0.00753755
-0.00619915
0.00757227
-0.00535125
0.00760291
-0.00474258
0.00763025
-0.00420336
0.00765512
-0.00378072
0.00767739
-0.0033576
0.00769779
-0.00304627
0.00771585
-0.00268747
0.00773261
-0.00247429
0.00774716
-0.00215338
0.00776083
-0.00201066
0.00777228
-0.00170132
0.00778328
-0.00162292
0.00779183
-0.00129136
0.00780057
-0.00129735
0.00780643
-0.000914939
0.00781316
-0.00100771
0.00781636
-0.000541228
0.0078214
-0.000760347
0.00782194
-0.000179094
0.00782556
-0.000563725
0.0078232
0.000182609
0.00782569
-0.000452743
0.00782017
0.000505291
0.00782207
-0.00049847
0.00781414
0.000637137
0.00781804
-0.000939388
0.00781135
0.000305451
0.00782297
-0.00196321
0.00782388
-0.000506574
0.00784813
-0.00310083
0.00785589
-0.000626387
0.0078798
-0.00192583
0.00787255
0.00261469
0.00785753
0.00524811
0.00779994
0.0120388
0.00764255
0.0280007
0.00736291
0.0447815
0.00741576
-0.00676904
0.00761006
-0.029662
0.00773009
-0.018601
0.00777113
-0.00866708
0.00780111
-0.00645015
0.00779255
-0.0006008
0.00778771
-0.00052341
0.00776442
0.00233195
0.00775552
0.000865309
0.00774008
0.0020513
0.00773909
0.000374699
0.00773355
0.00104511
0.00773835
-0.000264598
0.00773928
0.000262564
0.00774731
-0.000630881
0.00775157
-0.000140433
0.00775966
-0.000673074
0.00776352
-0.000190645
0.00776836
-0.000395715
0.00776867
0.000107979
0.00776809
0.000140456
0.00776316
0.000628815
0.00775651
0.000785829
0.00774627
0.00119887
0.00773433
0.00137961
0.00772016
0.00164499
0.0077052
0.00175186
0.00768957
0.00185413
0.00767407
0.00188356
0.00765924
0.0018387
0.00764492
0.00182571
0.00763187
0.00168495
0.00761892
0.00168752
0.00760718
0.00149947
0.00759467
0.00154227
0.00758344
0.00129011
0.00757047
0.00137582
0.00755924
0.00103223
0.00754562
0.0010964
0.00753477
0.000615054
0.00752153
0.000545422
0.00751253
-0.000102991
0.00750307
-0.000511872
0.00749966
-0.00136172
0.00750178
-0.0023217
-0.00407088
0.00747768
0.0134971
0.00739438
0.0119144
0.0073237
0.0105159
0.00726324
0.00925982
0.00721345
0.00773027
0.0071761
0.00551647
0.00715401
0.00237168
0.00714914
-0.00136502
0.00716346
-0.00507695
0.00719778
-0.00807262
0.00725019
-0.00989431
0.00731467
-0.0104225
0.00738191
-0.00985728
0.00744326
-0.00867385
0.00749422
-0.00734639
0.00753564
-0.00624057
0.00757026
-0.00538587
0.0076008
-0.00477311
0.00762805
-0.00423062
0.00765286
-0.00380553
0.00767506
-0.0033798
0.00769542
-0.00306663
0.00771344
-0.00270548
0.00773016
-0.00249102
0.00774468
-0.0021679
0.00775833
-0.00202431
0.00776975
-0.00171274
0.00778073
-0.0016339
0.00778925
-0.00129988
0.00779797
-0.00130606
0.00780381
-0.000920781
0.00781053
-0.00101443
0.0078137
-0.000544399
0.00781872
-0.000765371
0.00781923
-0.000179608
0.00782284
-0.000567327
0.00782045
0.000184996
0.00782291
-0.000455206
0.00781735
0.000510853
0.00781921
-0.000500326
0.0078112
0.000645141
0.00781503
-0.000943212
0.00780824
0.000312236
0.00781979
-0.00197476
0.00782065
-0.000507433
0.00784494
-0.00312512
0.0078528
-0.000634249
0.00787695
-0.00194997
0.00786997
0.00262167
0.00785545
0.00526263
0.00779855
0.0120957
0.00764231
0.0281569
0.00736404
0.0450597
0.00741702
-0.00682202
0.00761069
-0.0298557
0.00773021
-0.0187205
0.00777069
-0.00870757
0.00780024
-0.00647969
0.00779137
-0.000591927
0.0077863
-0.000518342
0.00776284
0.00235541
0.00775385
0.000874304
0.00773836
0.00206678
0.00773737
0.000375692
0.00773184
0.00105064
0.00773666
-0.000269419
0.0077376
0.000261619
0.00774567
-0.000638945
0.00774996
-0.000144722
0.00775808
-0.000681195
0.00776197
-0.000194535
0.00776682
-0.000400572
0.00776715
0.000107653
0.00776658
0.000141027
0.00776166
0.000633739
0.007755
0.000792486
0.00774473
0.00120913
0.00773277
0.00139158
0.00771857
0.00165919
0.00770356
0.00176686
0.00768791
0.00186978
0.00767238
0.00189909
0.00765753
0.00185355
0.00764321
0.00184003
0.00763016
0.001698
0.00761721
0.00170047
0.00760547
0.00151121
0.00759295
0.00155478
0.00758171
0.00130135
0.0075687
0.00138882
0.00755742
0.00104351
0.00754373
0.0011101
0.00753279
0.000625991
0.00751941
0.000558803
0.00751027
-9.38522e-05
0.00750058
-0.000502187
0.00749697
-0.00135811
0.00749882
-0.00232355
-0.00408612
0.00747773
0.0135951
0.00739456
0.0119975
0.00732409
0.0105864
0.00726384
0.00932006
0.00721424
0.00777987
0.00717697
0.00555375
0.00715477
0.00239388
0.00714957
-0.00135982
0.00716336
-0.00509074
0.00719707
-0.00810633
0.00724894
-0.00994617
0.00731305
-0.0104866
0.00738012
-0.00992435
0.00744143
-0.00873516
0.00749236
-0.00739732
0.0075337
-0.00628191
0.00756822
-0.00542039
0.00759866
-0.00480355
0.00762583
-0.00425779
0.00765057
-0.00383027
0.00767272
-0.00340195
0.00769303
-0.00308693
0.007711
-0.00272346
0.0077277
-0.00250771
0.00774218
-0.00218239
0.00775581
-0.00203793
0.0077672
-0.00172413
0.00777816
-0.00164486
0.00778666
-0.00130839
0.00779535
-0.00131476
0.00780117
-0.000926602
0.00780787
-0.00102112
0.00781102
-0.000547548
0.00781602
-0.000770377
0.00781652
-0.0001801
0.0078201
-0.00057091
0.00781768
0.000187411
0.00782012
-0.000457643
0.00781452
0.000516459
0.00781633
-0.000502137
0.00780825
0.000653221
0.007812
-0.000946963
0.00780511
0.000319121
0.00781659
-0.00198624
0.0078174
-0.000508236
0.00784173
-0.00314946
0.00784969
-0.000642206
0.00787407
-0.00197435
0.00786736
0.00262839
0.00785335
0.00527663
0.00779714
0.0121519
0.00764207
0.0283119
0.00736518
0.0453366
0.0074183
-0.00687513
0.00761132
-0.0300487
0.00773033
-0.0188395
0.00777026
-0.0087475
0.00779937
-0.00650879
0.00779018
-0.000582737
0.00778488
-0.000513047
0.00776126
0.00237903
0.00775216
0.000883395
0.00773664
0.0020823
0.00773564
0.000376687
0.00773012
0.00105617
0.00773496
-0.00027426
0.00773592
0.000260655
0.00774401
-0.000647036
0.00774833
-0.000149041
0.00775649
-0.00068935
0.00776041
-0.000198455
0.00776529
-0.000405454
0.00776563
0.000107309
0.00776507
0.000141588
0.00776015
0.000638664
0.00775348
0.000799153
0.00774319
0.00121942
0.0077312
0.00140357
0.00771697
0.00167342
0.00770193
0.0017819
0.00768624
0.00188547
0.00767069
0.00191465
0.00765582
0.00186842
0.00764149
0.00185436
0.00762844
0.00171105
0.00761549
0.00171342
0.00760375
0.00152295
0.00759123
0.00156731
0.00757996
0.00131261
0.00756693
0.00140186
0.0075556
0.00105483
0.00754183
0.00112388
0.0075308
0.000637015
0.00751728
0.000572329
0.007508
-8.45732e-05
0.00749809
-0.000492275
0.00749427
-0.0013543
0.00749584
-0.00232511
-0.00410113
0.00747778
0.0136931
0.00739475
0.0120806
0.00732447
0.0106567
0.00726445
0.00938009
0.00721505
0.00782927
0.00717784
0.00559095
0.00715553
0.00241619
0.00715001
-0.0013543
0.00716328
-0.00510402
0.00719638
-0.00813942
0.00724768
-0.00999747
0.00731142
-0.0105504
0.00737832
-0.00999125
0.00743958
-0.00879642
0.00749048
-0.00744822
0.00753175
-0.00632317
0.00756617
-0.00545482
0.00759651
-0.0048339
0.0076236
-0.00428488
0.00764827
-0.00385494
0.00767036
-0.00342404
0.00769062
-0.00310719
0.00770855
-0.0027414
0.00772521
-0.00252437
0.00773967
-0.00219685
0.00775326
-0.00205152
0.00776463
-0.0017355
0.00777557
-0.00165579
0.00778405
-0.00131687
0.00779272
-0.00132343
0.00779852
-0.000932401
0.0078052
-0.0010278
0.00780832
-0.000550677
0.00781331
-0.000775365
0.00781378
-0.000180569
0.00781734
-0.000574474
0.0078149
0.000189855
0.00781731
-0.000460055
0.00781166
0.000522108
0.00781343
-0.000503902
0.00780527
0.000661376
0.00780895
-0.000950639
0.00780196
0.000326108
0.00781338
-0.00199765
0.00781412
-0.000508983
0.0078385
-0.00317384
0.00784656
-0.000650259
0.00787117
-0.00199897
0.00786473
0.00263482
0.00785124
0.00529013
0.00779571
0.0122075
0.00764183
0.0284658
0.00736633
0.0456121
0.00741958
-0.00692839
0.00761196
-0.0302411
0.00773046
-0.0189581
0.00776983
-0.00878687
0.00779849
-0.00653745
0.00778898
-0.000573226
0.00778345
-0.00050752
0.00775966
0.00240282
0.00775047
0.000892583
0.0077349
0.00209787
0.0077339
0.000377684
0.00772839
0.00106169
0.00773325
-0.000279119
0.00773423
0.000259671
0.00774235
-0.000655156
0.0077467
-0.00015339
0.00775489
-0.000697539
0.00775884
-0.000202404
0.00776374
-0.000410361
0.00776411
0.000106948
0.00776355
0.000142139
0.00775863
0.000643589
0.00775195
0.000805828
0.00774165
0.00122973
0.00772963
0.00141559
0.00771536
0.00168769
0.00770029
0.00179697
0.00768457
0.00190119
0.00766899
0.00193023
0.0076541
0.0018833
0.00763977
0.0018687
0.00762672
0.0017241
0.00761377
0.00172637
0.00760203
0.0015347
0.0075895
0.00157984
0.00757822
0.00132389
0.00756514
0.00141493
0.00755377
0.0010662
0.00753992
0.00113773
0.0075288
0.000648127
0.00751513
0.000585999
0.00750571
-7.51521e-05
0.00749557
-0.000482135
0.00749155
-0.00135027
0.00749283
-0.0023264
-0.00411591
0.00747783
0.013791
0.00739494
0.0121635
0.00732486
0.0107267
0.00726507
0.00943988
0.00721586
0.00787848
0.00717873
0.00562807
0.00715631
0.00243861
0.00715046
-0.00134844
0.00716321
-0.00511677
0.00719568
-0.0081719
0.00724642
-0.0100482
0.00730977
-0.0106137
0.0073765
-0.010058
0.00743772
-0.00885764
0.00748858
-0.00749909
0.00752978
-0.00636437
0.0075641
-0.00548914
0.00759435
-0.00486414
0.00762135
-0.00431188
0.00764595
-0.00387954
0.00766798
-0.00344608
0.00768819
-0.0031274
0.00770609
-0.0027593
0.00772272
-0.00254099
0.00773714
-0.00221127
0.00775071
-0.00206509
0.00776205
-0.00174684
0.00777296
-0.00166671
0.00778142
-0.00132532
0.00779007
-0.00133208
0.00779585
-0.000938178
0.00780251
-0.00103446
0.00780561
-0.000553783
0.00781058
-0.000780335
0.00781103
-0.000181015
0.00781457
-0.000578019
0.0078121
0.000192326
0.00781449
-0.000462442
0.0078088
0.000527801
0.00781052
-0.000505622
0.00780228
0.000669608
0.00780589
-0.00095424
0.0077988
0.000333198
0.00781014
-0.002009
0.00781083
-0.000509674
0.00783525
-0.00319826
0.0078434
-0.000658408
0.00786826
-0.00202382
0.00786209
0.00264099
0.00784911
0.0053031
0.00779427
0.0122623
0.00764158
0.0286185
0.00736748
0.0458862
0.00742088
-0.00698178
0.0076126
-0.0304328
0.0077306
-0.019076
0.0077694
-0.00882567
0.00779761
-0.00656566
0.00778777
-0.00056339
0.00778201
-0.000501759
0.00775805
0.00242679
0.00774876
0.00090187
0.00773315
0.00211349
0.00773215
0.000378682
0.00772665
0.00106719
0.00773153
-0.000283999
0.00773253
0.000258669
0.00774068
-0.000663304
0.00774506
-0.00015777
0.00775328
-0.000705761
0.00775726
-0.000206382
0.00776219
-0.000415294
0.00776257
0.00010657
0.00776203
0.000142679
0.00775711
0.000648513
0.00775042
0.000812513
0.0077401
0.00124006
0.00772805
0.00142763
0.00771375
0.00170199
0.00769864
0.00181208
0.00768289
0.00191694
0.00766728
0.00194583
0.00765238
0.0018982
0.00763803
0.00188304
0.00762498
0.00173715
0.00761204
0.00173932
0.00760029
0.00154644
0.00758776
0.00159237
0.00757646
0.00133518
0.00756335
0.00142804
0.00755193
0.00107762
0.007538
0.00115167
0.0075268
0.000659328
0.00751298
0.000599815
0.00750342
-6.55881e-05
0.00749304
-0.000471763
0.00748881
-0.00134603
0.00748981
-0.0023274
-0.00413045
0.00747788
0.0138889
0.00739512
0.0122462
0.00732526
0.0107966
0.00726569
0.00949945
0.00721668
0.0079275
0.00717963
0.00566512
0.0071571
0.00246113
0.00715092
-0.00134225
0.00716315
-0.00512899
0.007195
-0.00820375
0.00724517
-0.0100984
0.00730813
-0.0106767
0.00737467
-0.0101245
0.00743584
-0.0089188
0.00748668
-0.00754993
0.0075278
-0.00640549
0.00756202
-0.00552337
0.00759217
-0.00489428
0.00761909
-0.0043388
0.00764362
-0.00390407
0.00766559
-0.00346805
0.00768576
-0.00314757
0.00770361
-0.00277715
0.0077202
-0.00255758
0.0077346
-0.00222567
0.00774814
-0.00207863
0.00775945
-0.00175816
0.00777034
-0.00167759
0.00777878
-0.00133376
0.00778741
-0.00134071
0.00779316
-0.000943933
0.0077998
-0.00104109
0.00780289
-0.000556868
0.00780784
-0.000785286
0.00780826
-0.000181438
0.00781179
-0.000581544
0.00780929
0.000194826
0.00781165
-0.000464803
0.00780591
0.000533538
0.00780759
-0.000507295
0.00779928
0.000677915
0.0078028
-0.000957765
0.00779561
0.000340392
0.00780688
-0.00202027
0.00780752
-0.000510307
0.00783198
-0.00322272
0.00784022
-0.000666653
0.00786532
-0.00204892
0.00785942
0.00264689
0.00784696
0.00531556
0.00779281
0.0123164
0.00764132
0.02877
0.00736865
0.0461589
0.00742219
-0.00703532
0.00761326
-0.0306239
0.00773074
-0.0191935
0.00776898
-0.00886391
0.00779673
-0.00659341
0.00778656
-0.000553225
0.00778056
-0.000495758
0.00775643
0.00245092
0.00774705
0.000911254
0.00773139
0.00212915
0.00773039
0.000379679
0.0077249
0.00107268
0.0077298
-0.000288898
0.00773082
0.000257646
0.007739
-0.000671482
0.00774341
-0.000162182
0.00775167
-0.00071402
0.00775568
-0.00021039
0.00776064
-0.000420254
0.00776103
0.000106173
0.0077605
0.000143209
0.00775558
0.000653438
0.00774889
0.000819207
0.00773854
0.0012504
0.00772646
0.00143971
0.00771213
0.00171633
0.00769698
0.00182723
0.0076812
0.00193273
0.00766556
0.00196146
0.00765064
0.00191312
0.00763629
0.00189739
0.00762324
0.00175021
0.0076103
0.00175226
0.00759855
0.00155818
0.00758601
0.00160492
0.00757469
0.0013465
0.00756155
0.00144118
0.00755009
0.00108909
0.00753607
0.00116568
0.00752478
0.000670618
0.00751082
0.000613779
0.00750111
-5.58796e-05
0.0074905
-0.000461158
0.00748605
-0.00134158
0.00748677
-0.00232812
-0.00414475
0.00747793
0.0139867
0.00739532
0.0123288
0.00732566
0.0108663
0.00726632
0.00955879
0.00721751
0.00797631
0.00718054
0.00570208
0.00715791
0.00248377
0.00715139
-0.00133574
0.0071631
-0.0051407
0.00719433
-0.00823498
0.00724391
-0.010148
0.00730647
-0.0107392
0.00737284
-0.0101909
0.00743395
-0.00897992
0.00748475
-0.00760073
0.00752581
-0.00644654
0.00755993
-0.00555749
0.00758998
-0.00492433
0.00761681
-0.00436563
0.00764127
-0.00392853
0.00766319
-0.00348997
0.0076833
-0.00316768
0.00770112
-0.00279497
0.00771767
-0.00257414
0.00773204
-0.00224004
0.00774555
-0.00209214
0.00775684
-0.00176945
0.00776771
-0.00168846
0.00777612
-0.00134217
0.00778473
-0.00134932
0.00779046
-0.000949666
0.00779708
-0.00104771
0.00780014
-0.000559932
0.00780508
-0.000790219
0.00780548
-0.000181838
0.00780898
-0.00058505
0.00780646
0.000197354
0.00780879
-0.000467138
0.00780301
0.000539319
0.00780464
-0.000508923
0.00779625
0.0006863
0.0077997
-0.000961214
0.0077924
0.00034769
0.00780361
-0.00203148
0.00780418
-0.00051088
0.00782869
-0.00324722
0.00783703
-0.000674995
0.00786236
-0.00207425
0.00785674
0.00265251
0.0078448
0.0053275
0.00779135
0.0123699
0.00764106
0.0289203
0.00736981
0.0464301
0.00742351
-0.00708901
0.00761392
-0.0308143
0.00773089
-0.0193105
0.00776856
-0.00890158
0.00779584
-0.0066207
0.00778535
-0.000542726
0.0077791
-0.000489516
0.0077548
0.00247523
0.00774532
0.000920736
0.00772962
0.00214485
0.00772862
0.000380676
0.00772314
0.00107816
0.00772806
-0.000293819
0.0077291
0.000256602
0.00773731
-0.00067969
0.00774175
-0.000166625
0.00775005
-0.000722313
0.00775409
-0.000214428
0.00775907
-0.00042524
0.00775949
0.000105758
0.00775897
0.000143728
0.00775404
0.000658362
0.00774734
0.000825911
0.00773697
0.00126077
0.00772487
0.00145181
0.0077105
0.0017307
0.00769532
0.00184241
0.0076795
0.00194855
0.00766384
0.00197712
0.0076489
0.00192806
0.00763454
0.00191175
0.00762149
0.00176326
0.00760855
0.0017652
0.0075968
0.00156992
0.00758425
0.00161747
0.00757292
0.00135783
0.00755974
0.00145436
0.00754823
0.0011006
0.00753413
0.00117978
0.00752275
0.000681998
0.00750864
0.000627891
0.00749879
-4.60256e-05
0.00748794
-0.000450316
0.00748328
-0.00133692
0.0074837
-0.00232854
-0.0041588
0.00747799
0.0140845
0.00739551
0.0124113
0.00732606
0.0109357
0.00726696
0.00961789
0.00721834
0.00802493
0.00718146
0.00573897
0.00715872
0.0025065
0.00715188
-0.0013289
0.00716306
-0.00515187
0.00719366
-0.00826559
0.00724266
-0.010197
0.00730481
-0.0108014
0.00737099
-0.0102571
0.00743205
-0.00904098
0.00748282
-0.0076515
0.0075238
-0.00648753
0.00755782
-0.00559152
0.00758777
-0.00495428
0.00761452
-0.00439238
0.00763891
-0.00395292
0.00766077
-0.00351183
0.00768084
-0.00318775
0.00769861
-0.00281274
0.00771513
-0.00259066
0.00772946
-0.00225437
0.00774295
-0.00210562
0.00775421
-0.00178072
0.00776506
-0.0016993
0.00777344
-0.00135055
0.00778203
-0.00135791
0.00778775
-0.000955377
0.00779435
-0.00105431
0.00779739
-0.000562973
0.0078023
-0.000795134
0.00780268
-0.000182214
0.00780616
-0.000588537
0.00780361
0.000199911
0.00780592
-0.000469448
0.00780009
0.000545145
0.00780167
-0.000510505
0.00779321
0.000694762
0.00779658
-0.000964585
0.00778918
0.000355094
0.00780031
-0.00204261
0.00780083
-0.000511395
0.00782537
-0.00327177
0.00783381
-0.000683433
0.00785939
-0.00209983
0.00785404
0.00265785
0.00784262
0.00533892
0.00778986
0.0124227
0.00764079
0.0290694
0.00737099
0.0466999
0.00742484
-0.00714286
0.0076146
-0.0310041
0.00773104
-0.0194269
0.00776814
-0.00893867
0.00779496
-0.00664752
0.00778412
-0.000531889
0.00777764
-0.000483029
0.00775315
0.00249971
0.00774357
0.000930316
0.00772783
0.00216059
0.00772684
0.00038167
0.00772137
0.00108363
0.00772631
-0.000298762
0.00772738
0.000255538
0.00773561
-0.000687928
0.00774009
-0.000171101
0.00774842
-0.000730642
0.00775249
-0.000218497
0.0077575
-0.000430253
0.00775794
0.000105325
0.00775743
0.000144237
0.0077525
0.000663286
0.00774579
0.000832624
0.0077354
0.00127116
0.00772327
0.00146395
0.00770886
0.0017451
0.00769365
0.00185763
0.00767779
0.00196441
0.0076621
0.00199281
0.00764715
0.00194302
0.00763278
0.00192611
0.00761973
0.00177632
0.00760679
0.00177814
0.00759505
0.00158166
0.00758249
0.00163002
0.00757114
0.00136918
0.00755793
0.00146757
0.00754636
0.00111217
0.00753219
0.00119396
0.00752071
0.000693469
0.00750645
0.000642153
0.00749645
-3.60241e-05
0.00748537
-0.000439235
0.00748049
-0.00133204
0.00748061
-0.00232867
-0.00417261
0.00747804
0.0141822
0.00739571
0.0124936
0.00732647
0.011005
0.00726761
0.00967676
0.00721919
0.00807334
0.00718239
0.00577577
0.00715955
0.00252934
0.00715238
-0.00132173
0.00716303
-0.00516252
0.007193
-0.00829555
0.00724141
-0.0102454
0.00730315
-0.0108631
0.00736912
-0.010323
0.00743013
-0.00910199
0.00748087
-0.00770223
0.00752178
-0.00652844
0.00755571
-0.00562544
0.00758555
-0.00498413
0.00761222
-0.00441905
0.00763654
-0.00397723
0.00765834
-0.00353363
0.00767835
-0.00320776
0.00769609
-0.00283048
0.00771257
-0.00260714
0.00772687
-0.00226867
0.00774033
-0.00211908
0.00775157
-0.00179196
0.00776239
-0.00171012
0.00777076
-0.00135892
0.00777932
-0.00136648
0.00778501
-0.000961065
0.00779159
-0.00106089
0.00779461
-0.000565992
0.00779951
-0.00080003
0.00779986
-0.000182567
0.00780333
-0.000592005
0.00780074
0.000202496
0.00780303
-0.000471731
0.00779716
0.000551014
0.00779869
-0.00051204
0.00779015
0.000703302
0.00779345
-0.000967879
0.00778594
0.000362605
0.007797
-0.00205367
0.00779745
-0.000511848
0.00782203
-0.00329635
0.00783057
-0.000691967
0.00785639
-0.00212565
0.00785132
0.00266293
0.00784042
0.00534982
0.00778836
0.0124747
0.00764052
0.0292172
0.00737218
0.0469683
0.00742618
-0.00719686
0.00761528
-0.0311932
0.00773121
-0.0195429
0.00776772
-0.00897519
0.00779408
-0.00667387
0.0077829
-0.000520709
0.00777616
-0.000476291
0.0077515
0.00252437
0.00774182
0.000939996
0.00772603
0.00217637
0.00772504
0.000382662
0.00771959
0.00108908
0.00772455
-0.000303727
0.00772564
0.000254452
0.00773391
-0.000696196
0.00773842
-0.000175611
0.00774678
-0.000739008
0.00775088
-0.000222598
0.00775592
-0.000435293
0.00775638
0.000104874
0.00775588
0.000144734
0.00775096
0.00066821
0.00774423
0.000839347
0.00773382
0.00128156
0.00772166
0.00147611
0.00770722
0.00175954
0.00769196
0.00187288
0.00767607
0.00198031
0.00766036
0.00200852
0.00764539
0.00195799
0.00763101
0.00194048
0.00761796
0.00178938
0.00760502
0.00179107
0.00759328
0.00159341
0.00758072
0.00164259
0.00756935
0.00138055
0.0075561
0.00148082
0.00754449
0.00112378
0.00753023
0.00120822
0.00751867
0.000705031
0.00750425
0.000656566
0.0074941
-2.58745e-05
0.00748278
-0.000427913
0.00747768
-0.00132693
0.0074775
-0.0023285
-0.00418617
0.00747809
0.0142799
0.00739591
0.0125758
0.00732689
0.011074
0.00726826
0.00973538
0.00722005
0.00812154
0.00718334
0.00581248
0.00716039
0.00255229
0.0071529
-0.00131424
0.00716302
-0.00517265
0.00719235
-0.00832489
0.00724016
-0.0102932
0.00730148
-0.0109244
0.00736725
-0.0103888
0.0074282
-0.00916294
0.0074789
-0.00775294
0.00751974
-0.00656928
0.00755357
-0.00565927
0.00758332
-0.00501388
0.0076099
-0.00444562
0.00763415
-0.00400148
0.00765589
-0.00355537
0.00767586
-0.00322773
0.00769355
-0.00284817
0.00771
-0.00262359
0.00772427
-0.00228294
0.0077377
-0.00213251
0.00774891
-0.00180317
0.00775971
-0.00172092
0.00776805
-0.00136726
0.0077766
-0.00137503
0.00778226
-0.000966732
0.00778882
-0.00106746
0.00779182
-0.00056899
0.0077967
-0.000804908
0.00779703
-0.000182896
0.00780048
-0.000595453
0.00779786
0.00020511
0.00780012
-0.00047399
0.00779421
0.000556929
0.00779569
-0.000513528
0.00778708
0.000711921
0.00779029
-0.000971095
0.00778267
0.000370223
0.00779366
-0.00206466
0.00779405
-0.00051224
0.00781868
-0.00332098
0.00782731
-0.000700598
0.00785337
-0.00215171
0.00784858
0.00266772
0.00783821
0.00536019
0.00778685
0.0125261
0.00764023
0.0293638
0.00737337
0.0472351
0.00742754
-0.00725103
0.00761598
-0.0313816
0.00773138
-0.0196583
0.00776732
-0.00901112
0.00779319
-0.00669975
0.00778166
-0.000509179
0.00777467
-0.000469297
0.00774983
0.0025492
0.00774005
0.000949775
0.00772423
0.0021922
0.00772324
0.00038365
0.0077178
0.00109452
0.00772279
-0.000308714
0.00772389
0.000253343
0.00773219
-0.000704497
0.00773674
-0.000180154
0.00774514
-0.000747411
0.00774927
-0.00022673
0.00775434
-0.000440361
0.00775481
0.000104404
0.00775432
0.000145221
0.0077494
0.000673134
0.00774267
0.00084608
0.00773224
0.00129199
0.00772005
0.0014883
0.00770557
0.00177402
0.00769027
0.00188818
0.00767435
0.00199623
0.00765861
0.00202425
0.00764362
0.00197298
0.00762924
0.00195486
0.00761618
0.00180244
0.00760325
0.001804
0.00759151
0.00160515
0.00757894
0.00165516
0.00756755
0.00139193
0.00755427
0.0014941
0.00754261
0.00113544
0.00752826
0.00122256
0.00751661
0.000716686
0.00750204
0.00067113
0.00749174
-1.55753e-05
0.00748018
-0.000416346
0.00747485
-0.0013216
0.00747437
-0.00232802
-0.00419947
0.00747815
0.0143775
0.00739611
0.0126579
0.00732731
0.0111428
0.00726892
0.00979377
0.00722092
0.00816954
0.0071843
0.00584911
0.00716125
0.00257533
0.00715343
-0.00130642
0.00716303
-0.00518224
0.00719172
-0.00835358
0.00723892
-0.0103404
0.0072998
-0.0109853
0.00736537
-0.0104544
0.00742626
-0.00922383
0.00747693
-0.00780361
0.0075177
-0.00661005
0.00755143
-0.005693
0.00758108
-0.00504353
0.00760757
-0.00447211
0.00763174
-0.00402566
0.00765343
-0.00357705
0.00767335
-0.00324765
0.007691
-0.00286582
0.00770741
-0.00264001
0.00772165
-0.00229718
0.00773505
-0.00214591
0.00774624
-0.00181436
0.00775701
-0.00173169
0.00776533
-0.00137557
0.00777385
-0.00138355
0.0077795
-0.000972376
0.00778604
-0.001074
0.00778902
-0.000571965
0.00779387
-0.000809767
0.00779418
-0.000183202
0.00779761
-0.000598881
0.00779497
0.000207753
0.0077972
-0.000476222
0.00779124
0.000562889
0.00779268
-0.00051497
0.00778398
0.000720619
0.00778712
-0.000974233
0.00777939
0.00037795
0.00779031
-0.00207557
0.00779064
-0.000512569
0.0078153
-0.00334564
0.00782403
-0.000709326
0.00785034
-0.00217802
0.00784582
0.00267224
0.00783597
0.00537003
0.00778532
0.0125767
0.00763995
0.0295092
0.00737457
0.0475005
0.00742891
-0.00730537
0.00761668
-0.0315694
0.00773157
-0.0197732
0.00776692
-0.00904647
0.00779231
-0.00672513
0.00778043
-0.000497296
0.00777317
-0.000462045
0.00774815
0.00257423
0.00773827
0.000959655
0.00772241
0.00220807
0.00772142
0.000384634
0.007716
0.00109995
0.00772101
-0.000313725
0.00772214
0.000252213
0.00773047
-0.000712829
0.00773505
-0.000184731
0.00774349
-0.000755852
0.00774765
-0.000230894
0.00775275
-0.000445456
0.00775324
0.000103915
0.00775276
0.000145696
0.00774784
0.000678059
0.0077411
0.000852822
0.00773065
0.00130244
0.00771843
0.00150052
0.00770391
0.00178854
0.00768858
0.00190351
0.00767261
0.0020122
0.00765685
0.00204002
0.00764184
0.00198799
0.00762745
0.00196924
0.00761439
0.0018155
0.00760146
0.00181693
0.00758972
0.00161689
0.00757715
0.00166773
0.00756574
0.00140333
0.00755243
0.00150742
0.00754071
0.00114715
0.00752629
0.00123699
0.00751454
0.000728433
0.00749982
0.000685848
0.00748937
-5.12478e-06
0.00747756
-0.000404533
0.00747201
-0.00131605
0.00747122
-0.00232723
-0.00421252
0.00747821
0.014475
0.00739631
0.0127398
0.00732773
0.0112114
0.00726959
0.00985191
0.0072218
0.00821733
0.00718527
0.00588565
0.00716212
0.00259848
0.00715398
-0.00129827
0.00716304
-0.00519131
0.00719109
-0.00838162
0.00723768
-0.010387
0.00729812
-0.0110458
0.00736347
-0.0105197
0.0074243
-0.00928466
0.00747494
-0.00785424
0.00751564
-0.00665075
0.00754927
-0.00572663
0.00757882
-0.00507308
0.00760522
-0.00449852
0.00762933
-0.00404976
0.00765095
-0.00359867
0.00767082
-0.00326752
0.00768843
-0.00288342
0.00770481
-0.00265639
0.00771901
-0.00231139
0.00773239
-0.00215929
0.00774355
-0.00182552
0.0077543
-0.00174244
0.00776259
-0.00138387
0.0077711
-0.00139206
0.00777672
-0.000977997
0.00778324
-0.00108052
0.00778619
-0.000574918
0.00779103
-0.000814607
0.00779131
-0.000183484
0.00779472
-0.00060229
0.00779205
0.000210425
0.00779426
-0.000478428
0.00778825
0.000568894
0.00778965
-0.000516365
0.00778087
0.000729396
0.00778393
-0.00097729
0.00777609
0.000385786
0.00778693
-0.00208641
0.0077872
-0.000512834
0.0078119
-0.00337035
0.00782073
-0.000718152
0.00784728
-0.00220458
0.00784304
0.00267649
0.00783372
0.00537935
0.00778378
0.0126267
0.00763965
0.0296533
0.00737578
0.0477644
0.00743029
-0.00735988
0.0076174
-0.0317565
0.00773176
-0.0198875
0.00776653
-0.00908124
0.00779143
-0.00675003
0.00777918
-0.000485052
0.00777167
-0.000454527
0.00774646
0.00259943
0.00773648
0.000969634
0.00772057
0.00222397
0.00771959
0.000385612
0.00771419
0.00110535
0.00771922
-0.000318761
0.00772038
0.000251059
0.00772874
-0.000721194
0.00773335
-0.000189343
0.00774183
-0.000764331
0.00774603
-0.00023509
0.00775115
-0.000450579
0.00775166
0.000103407
0.0077512
0.000146161
0.00774627
0.000682983
0.00773952
0.000859575
0.00772905
0.00131291
0.0077168
0.00151277
0.00770224
0.00180309
0.00768687
0.00191889
0.00767087
0.0020282
0.00765508
0.00205581
0.00764005
0.00200302
0.00762565
0.00198363
0.00761259
0.00182856
0.00759967
0.00182985
0.00758793
0.00162863
0.00757535
0.00168031
0.00756393
0.00141475
0.00755057
0.00152077
0.00753881
0.00115891
0.0075243
0.00125149
0.00751246
0.000740274
0.00749759
0.000700721
0.00748699
5.47793e-06
0.00747492
-0.00039247
0.00746915
-0.00131027
0.00746805
-0.00232613
-0.0042253
0.00747826
0.0145725
0.00739652
0.0128215
0.00732816
0.0112797
0.00727027
0.0099098
0.00722269
0.00826491
0.00718625
0.00592209
0.007163
0.00262172
0.00715454
-0.0012898
0.00716307
-0.00519984
0.00719047
-0.00840902
0.00723644
-0.0104329
0.00729644
-0.0111058
0.00736157
-0.0105848
0.00742233
-0.00934542
0.00747293
-0.00790485
0.00751356
-0.00669138
0.0075471
-0.00576016
0.00757654
-0.00510253
0.00760286
-0.00452484
0.00762689
-0.00407379
0.00764846
-0.00362024
0.00766828
-0.00328734
0.00768584
-0.00290099
0.00770219
-0.00267273
0.00771636
-0.00232557
0.00772971
-0.00217264
0.00774085
-0.00183665
0.00775157
-0.00175317
0.00775984
-0.00139213
0.00776832
-0.00140054
0.00777392
-0.000983595
0.00778042
-0.00108702
0.00778335
-0.000577848
0.00778818
-0.000819429
0.00778843
-0.000183742
0.00779182
-0.000605679
0.00778912
0.000213126
0.0077913
-0.000480608
0.00778525
0.000574943
0.0077866
-0.000517712
0.00777774
0.000738254
0.00778072
-0.000980268
0.00777277
0.000393732
0.00778354
-0.00209717
0.00778374
-0.000513036
0.00780848
-0.00339509
0.0078174
-0.000727074
0.00784421
-0.00223138
0.00784024
0.00268046
0.00783145
0.00538814
0.00778222
0.0126759
0.00763935
0.0297962
0.007377
0.0480267
0.00743168
-0.00741456
0.00761813
-0.031943
0.00773197
-0.0200014
0.00776615
-0.00911541
0.00779055
-0.00677444
0.00777794
-0.000472442
0.00777015
-0.000446739
0.00774476
0.00262483
0.00773468
0.000979716
0.00771873
0.00223992
0.00771776
0.000386585
0.00771237
0.00111074
0.00771743
-0.000323821
0.0077186
0.000249881
0.007727
-0.000729592
0.00773165
-0.00019399
0.00774017
-0.000772848
0.0077444
-0.00023932
0.00774955
-0.000455731
0.00775007
0.000102881
0.00774962
0.000146615
0.0077447
0.000687907
0.00773793
0.000866338
0.00772744
0.00132341
0.00771516
0.00152505
0.00770057
0.00181769
0.00768516
0.0019343
0.00766912
0.00204424
0.0076533
0.00207163
0.00763825
0.00201807
0.00762385
0.00199803
0.00761079
0.00184162
0.00759787
0.00184277
0.00758613
0.00164037
0.00757354
0.0016929
0.00756211
0.00142619
0.00754871
0.00153416
0.0075369
0.00117073
0.00752231
0.00126609
0.00751037
0.00075221
0.00749535
0.000715749
0.00748459
1.62343e-05
0.00747228
-0.000380155
0.00746627
-0.00130426
0.00746485
-0.00232472
-0.00423782
0.00747832
0.01467
0.00739673
0.0129031
0.00732859
0.0113479
0.00727095
0.00996744
0.00722359
0.00831227
0.00718724
0.00595844
0.0071639
0.00264506
0.00715511
-0.00128101