/*--------------------------------*- C++ -*----------------------------------*\
| =========                 |                                                 |
| \\      /  F ield         | OpenFOAM: The Open Source CFD Toolbox           |
|  \\    /   O peration     | Version:  2412                                  |
|   \\  /    A nd           | Website:  www.openfoam.com                      |
|    \\/     M anipulation  |                                                 |
\*---------------------------------------------------------------------------*/
FoamFile
{
    version     2.0;
    format      ascii;
    arch        "LSB;label=32;scalar=64";
    class       volVectorField;
    location    "0.7";
    object      U;
}
// * * * * * * * * * * * * * * * * * * * * * * * * * * * * * * * * * * * * * //

dimensions      [0 1 -1 0 0 0 0];

internalField   nonuniform List<vector> 
12960
(
(100.007 -0.600724 0)
(100.223 -1.69455 -4.38614e-17)
(100.658 -2.68812 -8.35551e-17)
(101.25 -3.60795 0)
(102.015 -4.72338 -3.62475e-17)
(102.964 -6.31283 0)
(104.161 -8.53993 0)
(105.642 -11.1872 0)
(107.463 -13.8547 3.36173e-17)
(109.652 -16.0831 3.43346e-17)
(112.247 -17.5794 0)
(115.18 -18.257 0)
(118.371 -18.2473 0)
(121.622 -17.8431 0)
(124.878 -17.3491 3.487e-17)
(128.037 -16.9964 -6.71571e-17)
(131.241 -16.8182 0)
(134.43 -16.7945 -3.07796e-17)
(137.778 -16.8366 0)
(141.132 -16.9578 2.85226e-17)
(144.71 -17.1021 2.7596e-17)
(148.278 -17.3264 -2.66588e-17)
(152.147 -17.5547 2.58293e-17)
(155.976 -17.8725 0)
(160.206 -18.1691 0)
(164.342 -18.5748 0)
(169.015 -18.9287 0)
(173.509 -19.4258 2.14412e-17)
(178.724 -19.831 0)
(183.632 -20.431 -3.93417e-17)
(189.519 -20.884 7.07096e-22)
(194.905 -21.6065 -1.7874e-17)
(201.63 -22.1049 7.15349e-22)
(207.568 -22.979 -3.20841e-17)
(215.35 -23.523 -1.54627e-17)
(221.924 -24.5906 0)
(231.056 -25.184 0)
(238.364 -26.5039 1.22394e-17)
(249.241 -27.1705 -6.26864e-22)
(257.411 -28.8452 2.04822e-17)
(270.597 -29.6665 0)
(279.856 -31.8594 -1.30079e-21)
(296.224 -32.981 3.63525e-22)
(307.045 -35.8427 -6.12985e-18)
(327.956 -37.3515 -1.34668e-17)
(341.182 -40.718 4.07882e-18)
(368.41 -42.3038 0)
(384.912 -45.2063 0)
(419.796 -46.3203 -3.78204e-18)
(440.061 -47.0598 -5.19188e-19)
(482.657 -47.6012 -2.26123e-18)
(507.88 -39.9957 0)
(549.21 -37.6943 0)
(576.691 -0.090971 4.86188e-19)
(549.951 18.8219 -7.3164e-20)
(539.659 27.0602 6.3322e-18)
(504.957 30.847 -5.36369e-19)
(489.234 31.151 0)
(458.588 32.737 0)
(442.602 31.6334 -7.22455e-19)
(416.883 31.6213 2.20937e-18)
(402.389 29.631 0)
(381.706 28.9069 0)
(369.215 26.9178 2.44693e-18)
(352.626 26.1553 0)
(341.732 24.5177 -4.75726e-22)
(328.157 23.8796 0)
(318.512 22.6028 0)
(307.174 22.0955 -6.34875e-18)
(298.509 21.1298 0)
(288.79 20.7398 -1.76583e-22)
(280.871 20.0354 -7.70564e-18)
(272.317 19.7444 0)
(264.986 19.2355 -8.86185e-18)
(257.296 18.9968 9.5502e-18)
(250.466 18.6051 0)
(243.459 18.367 1.06892e-17)
(237.099 18.0194 -1.12279e-17)
(230.68 17.7318 2.37341e-17)
(224.801 17.3776 1.2425e-17)
(218.93 17.02 0)
(213.559 16.6511 -1.35411e-17)
(208.208 16.2355 0)
(203.355 15.8766 1.45462e-17)
(198.468 15.4323 0)
(194.11 15.1192 -1.54911e-17)
(189.596 14.6658 -1.59042e-17)
(185.69 14.4161 -1.64585e-17)
(181.439 13.9453 0)
(177.959 13.7491 0)
(173.868 13.2303 1.78837e-17)
(170.829 13.0516 0)
(166.8 12.448 0)
(164.262 12.2183 -2.8819e-22)
(160.21 11.5004 4.89825e-22)
(158.283 11.0984 2.13293e-17)
(154.168 10.2499 -2.13916e-17)
(153.007 9.54153 2.29048e-17)
(148.904 8.11025 -2.27501e-17)
(100.007 -0.606477 0)
(100.224 -1.71064 -4.38491e-17)
(100.661 -2.71337 4.1752e-17)
(101.257 -3.64099 0)
(102.025 -4.76466 -1.54109e-21)
(102.976 -6.36364 0)
(104.174 -8.60212 0)
(105.651 -11.262 0)
(107.466 -13.9433 -3.36501e-17)
(109.646 -16.186 -3.43835e-17)
(112.231 -17.6957 0)
(115.157 -18.383 3.57577e-17)
(118.343 -18.3773 3.60216e-17)
(121.593 -17.9719 0)
(124.847 -17.4737 -3.49179e-17)
(128.005 -17.1173 6.72219e-17)
(131.207 -16.9372 -3.21766e-17)
(134.394 -16.9134 6.15724e-17)
(137.739 -16.956 0)
(141.091 -17.0783 -2.85217e-17)
(144.666 -17.2238 -2.75945e-17)
(148.233 -17.4499 -2.66576e-17)
(152.1 -17.6799 -2.58273e-17)
(155.927 -18.0001 0)
(160.155 -18.2988 -2.41179e-17)
(164.29 -18.7074 2.31863e-17)
(168.96 -19.0639 0)
(173.452 -19.5645 -2.14408e-17)
(178.665 -19.9725 0)
(183.571 -20.5769 1.96713e-17)
(189.456 -21.033 7.08935e-22)
(194.839 -21.7607 3.57494e-17)
(201.562 -22.2625 7.17384e-22)
(207.497 -23.1429 1.6043e-17)
(215.276 -23.6906 0)
(221.847 -24.7659 -1.4171e-17)
(230.975 -25.3631 0)
(238.28 -26.6925 0)
(249.152 -27.363 1.19087e-17)
(257.317 -29.0495 -1.02422e-17)
(270.497 -29.8754 1.01101e-17)
(279.749 -32.0838 8.18886e-18)
(296.109 -33.2122 3.68368e-22)
(306.919 -36.0949 6.1294e-18)
(327.824 -37.6143 6.73303e-18)
(341.038 -41.0073 -4.07856e-18)
(368.266 -42.6063 0)
(384.76 -45.5339 -1.91569e-18)
(419.656 -46.6595 -3.78298e-18)
(439.918 -47.4123 -5.16911e-19)
(482.555 -47.968 2.26074e-18)
(507.804 -40.3217 0)
(549.252 -38.0192 8.77745e-19)
(576.824 -0.0922144 8.25824e-22)
(550.009 18.9848 0)
(539.689 27.2776 -6.34617e-18)
(504.943 31.0927 5.38484e-19)
(489.192 31.3933 0)
(458.524 32.9862 -1.34591e-18)
(442.528 31.8707 1.44569e-18)
(416.8 31.8561 0)
(402.305 29.8485 0)
(381.621 29.1173 0)
(369.133 27.1122 -2.44737e-18)
(352.548 26.344 -4.20652e-18)
(341.657 24.6941 3.91476e-18)
(328.085 24.0513 0)
(318.443 22.765 -5.27391e-18)
(307.109 22.2541 1.26978e-17)
(298.448 21.2816 0)
(288.732 20.8893 7.4012e-18)
(280.815 20.1802 0)
(272.264 19.8877 0)
(264.935 19.3755 8.86107e-18)
(257.247 19.1357 0)
(250.418 18.7414 -1.00269e-17)
(243.412 18.502 0)
(237.052 18.152 2.2455e-17)
(230.633 17.8624 -1.1867e-17)
(224.753 17.5056 -1.2426e-17)
(218.883 17.1452 1.301e-17)
(213.512 16.7734 1.35421e-17)
(208.162 16.3545 0)
(203.309 15.9927 -1.45459e-17)
(198.424 15.545 1.49873e-17)
(194.066 15.2295 1.54895e-17)
(189.553 14.7729 3.18042e-17)
(185.647 14.5217 0)
(181.398 14.0479 0)
(177.918 13.8509 1.74971e-17)
(173.827 13.3288 4.28095e-22)
(170.787 13.1499 0)
(166.757 12.5423 1.89707e-17)
(164.218 12.3126 -1.98981e-17)
(160.163 11.5896 4.99339e-22)
(158.234 11.1867 2.13166e-17)
(154.114 10.3317 -2.13786e-17)
(152.951 9.61897 2.28879e-17)
(148.84 8.17624 0)
(100.007 -0.612264 0)
(100.226 -1.72683 4.3832e-17)
(100.665 -2.73876 0)
(101.264 -3.6742 0)
(102.035 -4.8061 3.61896e-17)
(102.989 -6.41452 0)
(104.186 -8.66422 0)
(105.661 -11.3366 0)
(107.469 -14.0316 0)
(109.64 -16.2886 0)
(112.216 -17.8116 3.52245e-17)
(115.133 -18.5087 -3.58246e-17)
(118.315 -18.5072 -3.60886e-17)
(121.563 -18.1006 3.58136e-17)
(124.817 -17.5982 0)
(127.973 -17.2381 -3.36436e-17)
(131.172 -17.056 3.21939e-17)
(134.357 -17.0321 -6.15864e-17)
(137.699 -17.0752 0)
(141.049 -17.1987 5.704e-17)
(144.622 -17.3454 5.5184e-17)
(148.187 -17.5733 2.6655e-17)
(152.052 -17.805 0)
(155.878 -18.1276 -2.4914e-17)
(160.103 -18.4283 4.8234e-17)
(164.236 -18.84 7.67148e-22)
(168.904 -19.1988 0)
(173.395 -19.7031 -2.14421e-17)
(178.606 -20.1139 0)
(183.51 -20.7226 0)
(189.392 -21.1818 -1.89602e-17)
(194.773 -21.9147 9.99282e-22)
(201.493 -22.4199 -1.72185e-17)
(207.425 -23.3067 1.60455e-17)
(215.202 -23.858 0)
(221.769 -24.941 1.41715e-17)
(230.894 -25.5419 0)
(238.195 -26.8809 -1.22444e-17)
(249.063 -27.5553 0)
(257.222 -29.2536 0)
(270.397 -30.084 -2.02211e-17)
(279.64 -32.3079 0)
(295.994 -33.443 -8.35796e-18)
(306.793 -36.3467 6.13146e-18)
(327.691 -37.8767 -6.73296e-18)
(340.893 -41.2963 0)
(368.121 -42.9085 0)
(384.607 -45.8613 3.83271e-18)
(419.515 -46.9985 3.78271e-18)
(439.774 -47.7647 5.16733e-19)
(482.452 -48.3349 -2.25948e-18)
(507.727 -40.6483 0)
(549.293 -38.3451 -8.75828e-19)
(576.958 -0.0935367 -9.69097e-19)
(550.068 19.1482 0)
(539.72 27.4954 0)
(504.929 31.3387 0)
(489.15 31.6358 -2.71197e-18)
(458.46 33.2356 1.34887e-18)
(442.454 32.1081 -7.23276e-19)
(416.718 32.0909 0)
(402.22 30.0659 9.027e-19)
(381.536 29.3277 0)
(369.051 27.3066 -2.44879e-18)
(352.469 26.5326 4.20698e-18)
(341.582 24.8703 3.91603e-18)
(328.013 24.223 -5.28586e-18)
(318.375 22.927 5.27414e-18)
(307.044 22.4127 5.23164e-23)
(298.386 21.4332 0)
(288.673 21.0387 7.40131e-18)
(280.759 20.3249 0)
(272.211 20.0309 0)
(264.883 19.5155 8.86144e-18)
(257.197 19.2744 9.54946e-18)
(250.369 18.8777 2.00524e-17)
(243.364 18.6369 -1.06887e-17)
(237.004 18.2845 5.58603e-22)
(230.586 17.993 0)
(224.706 17.6335 2.48527e-17)
(218.836 17.2705 -2.60211e-17)
(213.465 16.8956 3.38332e-22)
(208.116 16.4735 1.40476e-17)
(203.264 16.1087 1.4546e-17)
(198.38 15.6576 2.90172e-22)
(194.022 15.3397 0)
(189.511 14.88 -1.59001e-17)
(185.605 14.6272 0)
(181.357 14.1504 0)
(177.876 13.9526 -5.19516e-23)
(173.786 13.4272 -1.78748e-17)
(170.744 13.2482 1.863e-17)
(166.714 12.6365 4.96018e-22)
(164.173 12.407 0)
(160.116 11.6788 -2.01307e-17)
(158.185 11.2752 -3.54133e-22)
(154.059 10.4135 2.13647e-17)
(152.895 9.69652 -2.28714e-17)
(148.777 8.24228 0)
(100.007 -0.618082 0)
(100.227 -1.7431 0)
(100.669 -2.76429 4.17054e-17)
(101.27 -3.70757 0)
(102.046 -4.84769 3.61634e-17)
(103.001 -6.4655 0)
(104.199 -8.72635 0)
(105.671 -11.411 3.32395e-17)
(107.472 -14.1196 0)
(109.634 -16.3908 -3.44827e-17)
(112.2 -17.9271 4.88036e-22)
(115.109 -18.6342 3.58931e-17)
(118.287 -18.6369 3.61572e-17)
(121.533 -18.2291 -3.58751e-17)
(124.786 -17.7226 0)
(127.941 -17.3587 -3.36776e-17)
(131.138 -17.1747 3.22124e-17)
(134.319 -17.1506 6.16007e-17)
(137.66 -17.1943 0)
(141.007 -17.3189 -2.85183e-17)
(144.578 -17.4668 -5.51797e-17)
(148.141 -17.6965 0)
(152.004 -17.9299 0)
(155.828 -18.2549 2.49123e-17)
(160.052 -18.5577 -4.82328e-17)
(164.183 -18.9723 -4.63713e-17)
(168.849 -19.3337 0)
(173.337 -19.8415 2.14417e-17)
(178.546 -20.2551 0)
(183.448 -20.8681 0)
(189.328 -21.3304 0)
(194.707 -22.0686 -1.78764e-17)
(201.424 -22.5771 0)
(207.353 -23.4703 -1.60458e-17)
(215.127 -24.0252 0)
(221.691 -25.116 -1.41744e-17)
(230.813 -25.7206 0)
(238.109 -27.069 2.44914e-17)
(248.974 -27.7473 -1.19118e-17)
(257.127 -29.4574 -1.0247e-17)
(270.297 -30.2924 2.02226e-17)
(279.532 -32.5318 0)
(295.879 -33.6735 -8.35835e-18)
(306.665 -36.5982 1.29582e-21)
(327.557 -38.1388 6.73241e-18)
(340.746 -41.585 -4.08188e-18)
(367.975 -43.2104 -5.26335e-18)
(384.453 -46.1885 -1.91702e-18)
(419.373 -47.3374 0)
(439.629 -48.1171 5.1445e-19)
(482.349 -48.702 -2.25897e-18)
(507.649 -40.9754 0)
(549.335 -38.672 8.71315e-19)
(577.094 -0.0948985 -8.37479e-22)
(550.127 19.3122 0)
(539.752 27.7136 0)
(504.915 31.5851 -5.38895e-19)
(489.108 31.8786 2.72171e-18)
(458.396 33.485 0)
(442.38 32.3456 7.22134e-19)
(416.635 32.3256 2.21476e-18)
(402.135 30.2832 -9.03138e-19)
(381.45 29.538 0)
(368.968 27.5009 -5.08218e-22)
(352.389 26.7211 0)
(341.506 25.0464 -3.91632e-18)
(327.941 24.3945 7.19327e-23)
(318.306 23.0889 -5.27539e-18)
(306.979 22.5712 -1.26985e-17)
(298.324 21.5848 -6.52302e-18)
(288.614 21.188 -7.40106e-18)
(280.703 20.4695 7.70662e-18)
(272.157 20.174 0)
(264.831 19.6553 -1.77218e-17)
(257.147 19.4131 -9.54848e-18)
(250.32 19.0139 -1.00255e-17)
(243.316 18.7718 1.06878e-17)
(236.956 18.4171 -2.24546e-17)
(230.538 18.1236 -1.18678e-17)
(224.659 17.7614 -2.48539e-17)
(218.789 17.3956 2.60226e-17)
(213.418 17.0178 -2.70869e-17)
(208.069 16.5924 3.25722e-22)
(203.218 16.2246 -2.90916e-17)
(198.335 15.7702 -2.99718e-17)
(193.978 15.4499 0)
(189.468 14.987 -1.58985e-17)
(185.563 14.7327 0)
(181.316 14.2528 0)
(177.835 14.0543 -1.7489e-17)
(173.745 13.5256 1.7871e-17)
(170.702 13.3465 -1.86242e-17)
(166.671 12.7308 -3.7916e-17)
(164.128 12.5013 0)
(160.069 11.768 0)
(158.135 11.3636 -4.25836e-17)
(154.004 10.4954 2.13515e-17)
(152.838 9.77414 2.28542e-17)
(148.713 8.30834 0)
(100.007 -0.623935 4.51319e-17)
(100.228 -1.75946 -4.38049e-17)
(100.673 -2.78997 -8.33596e-17)
(101.277 -3.74111 3.88843e-17)
(102.056 -4.88943 -3.61343e-17)
(103.014 -6.51656 0)
(104.212 -8.78842 -3.32975e-17)
(105.681 -11.4853 -3.32551e-17)
(107.476 -14.2072 0)
(109.629 -16.4926 -5.63966e-22)
(112.184 -18.0422 -3.53478e-17)
(115.086 -18.7593 4.64292e-22)
(118.258 -18.7664 -3.62256e-17)
(121.502 -18.3575 0)
(124.754 -17.8469 0)
(127.908 -17.4792 3.3711e-17)
(131.103 -17.2932 -3.22302e-17)
(134.282 -17.269 -3.08074e-17)
(137.62 -17.3132 0)
(140.965 -17.439 2.85174e-17)
(144.534 -17.5881 2.75874e-17)
(148.095 -17.8196 0)
(151.956 -18.0547 0)
(155.778 -18.382 0)
(159.999 -18.687 2.41155e-17)
(164.129 -19.1046 2.31851e-17)
(168.793 -19.4684 0)
(173.28 -19.9798 0)
(178.486 -20.3961 0)
(183.386 -21.0135 1.96746e-17)
(189.263 -21.4789 0)
(194.64 -22.2223 0)
(201.354 -22.7342 0)
(207.281 -23.6338 0)
(215.051 -24.1922 1.54682e-17)
(221.613 -25.2907 -1.19783e-21)
(230.731 -25.8991 1.37008e-17)
(238.023 -27.2569 -1.2247e-17)
(248.884 -27.9391 1.19124e-17)
(257.032 -29.661 1.02475e-17)
(270.196 -30.5005 -1.01118e-17)
(279.422 -32.7553 -8.19391e-18)
(295.762 -33.9036 1.67164e-17)
(306.537 -36.8493 -6.13179e-18)
(327.423 -38.4006 -6.73236e-18)
(340.599 -41.8733 4.0816e-18)
(367.828 -43.512 5.26334e-18)
(384.297 -46.5155 0)
(419.231 -47.6761 0)
(439.483 -48.4694 -5.14273e-19)
(482.244 -49.0693 2.2577e-18)
(507.571 -41.3031 0)
(549.377 -39 -8.69427e-19)
(577.23 -0.0963327 4.83009e-19)
(550.187 19.4767 0)
(539.784 27.9322 0)
(504.902 31.8319 5.41299e-19)
(489.065 32.1216 2.73092e-18)
(458.332 33.7346 -1.35554e-18)
(442.304 32.5831 -1.44531e-18)
(416.551 32.5604 -2.21662e-18)
(402.049 30.5004 9.05027e-19)
(381.364 29.7481 0)
(368.885 27.695 2.45017e-18)
(352.309 26.9094 0)
(341.43 25.2224 -3.91761e-18)
(327.868 24.566 5.28643e-18)
(318.237 23.2507 5.27561e-18)
(306.913 22.7295 6.34938e-18)
(298.261 21.7362 1.30464e-17)
(288.555 21.3372 7.40117e-18)
(280.646 20.614 5.69006e-22)
(272.103 20.317 0)
(264.779 19.7951 1.77214e-17)
(257.096 19.5518 0)
(250.27 19.15 1.00257e-17)
(243.267 18.9066 0)
(236.908 18.5495 -5.65373e-22)
(230.491 18.2541 1.18675e-17)
(224.611 17.8893 2.4855e-17)
(218.742 17.5208 -2.60241e-17)
(213.371 17.1399 1.3544e-17)
(208.023 16.7112 -1.40483e-17)
(203.172 16.3405 1.45456e-17)
(198.29 15.8827 2.99705e-17)
(193.934 15.56 0)
(189.426 15.094 1.58962e-17)
(185.52 14.8381 0)
(181.274 14.3552 0)
(177.793 14.1559 0)
(173.704 13.624 -3.5733e-17)
(170.659 13.4447 0)
(166.628 12.8251 3.79034e-17)
(164.083 12.5958 0)
(160.021 11.8572 0)
(158.086 11.4522 2.12793e-17)
(153.949 10.5773 -2.13373e-17)
(152.781 9.85186 -2.28373e-17)
(148.648 8.37446 0)
(100.007 -0.629822 -4.51215e-17)
(100.23 -1.77592 8.75775e-17)
(100.676 -2.81579 4.16542e-17)
(101.285 -3.77481 -7.7705e-17)
(102.066 -4.93133 0)
(103.027 -6.5677 0)
(104.225 -8.85045 -1.07992e-21)
(105.691 -11.5593 0)
(107.479 -14.2945 -3.3785e-17)
(109.623 -16.5939 -5.68146e-22)
(112.169 -18.1569 0)
(115.062 -18.8841 -3.60305e-17)
(118.229 -18.8958 0)
(121.472 -18.4859 0)
(124.723 -17.9711 0)
(127.875 -17.5995 0)
(131.067 -17.4116 0)
(134.244 -17.3872 0)
(137.579 -17.432 -2.96082e-17)
(140.923 -17.559 6.11633e-22)
(144.489 -17.7093 0)
(148.048 -17.9425 0)
(151.907 -18.1794 -2.58218e-17)
(155.727 -18.5091 0)
(159.947 -18.8162 0)
(164.075 -19.2367 0)
(168.737 -19.6029 0)
(173.221 -20.118 2.14434e-17)
(178.426 -20.537 2.06926e-17)
(183.324 -21.1587 -1.96745e-17)
(189.198 -21.6272 -1.89631e-17)
(194.573 -22.3759 0)
(201.284 -22.8911 0)
(207.209 -23.797 0)
(214.976 -24.359 -1.54687e-17)
(221.534 -25.4653 -1.20654e-21)
(230.649 -26.0773 -1.37014e-17)
(237.937 -27.4447 -1.22502e-17)
(248.793 -28.1307 1.19144e-17)
(256.935 -29.8644 -1.02506e-17)
(270.094 -30.7083 1.01131e-17)
(279.312 -32.9785 8.19383e-18)
(295.645 -34.1334 -8.35802e-18)
(306.408 -37.1 0)
(327.287 -38.662 6.73182e-18)
(340.452 -42.1613 -4.08397e-18)
(367.68 -43.8133 -5.26394e-18)
(384.141 -46.8422 0)
(419.087 -48.0146 0)
(439.336 -48.8218 0)
(482.138 -49.4367 0)
(507.491 -41.6313 0)
(549.419 -39.3289 0)
(577.368 -0.0978382 -4.83338e-19)
(550.248 19.6417 -1.01309e-19)
(539.817 28.1512 6.42526e-18)
(504.889 32.0791 5.40948e-19)
(489.023 32.3649 -2.74166e-18)
(458.267 33.9843 1.35899e-18)
(442.229 32.8206 7.23225e-19)
(416.467 32.7951 0)
(401.962 30.7175 -9.05489e-19)
(381.277 29.9581 0)
(368.801 27.889 0)
(352.229 27.0976 0)
(341.353 25.3982 3.9179e-18)
(327.795 24.7372 0)
(318.167 23.4124 5.27686e-18)
(306.847 22.8878 6.3496e-18)
(298.199 21.8876 5.4468e-22)
(288.496 21.4863 -7.4009e-18)
(280.59 20.7584 -7.7063e-18)
(272.049 20.46 8.46156e-18)
(264.727 19.9349 -8.86015e-18)
(257.046 19.6903 0)
(250.221 19.2861 -1.00246e-17)
(243.219 19.0413 0)
(236.86 18.6819 1.12268e-17)
(230.443 18.3846 0)
(224.563 18.0171 4.77629e-22)
(218.694 17.6459 1.30126e-17)
(213.323 17.262 0)
(207.976 16.83 0)
(203.125 16.4563 0)
(198.245 15.9951 -1.49844e-17)
(193.889 15.6701 0)
(189.383 15.2009 0)
(185.477 14.9435 0)
(181.233 14.4576 -1.68466e-17)
(177.75 14.2575 0)
(173.662 13.7224 1.7862e-17)
(170.616 13.543 0)
(166.585 12.9193 -1.89451e-17)
(164.038 12.6902 0)
(159.973 11.9465 0)
(158.035 11.5408 0)
(153.893 10.6593 0)
(152.724 9.92968 0)
(148.583 8.44063 0)
(100.007 -0.635744 0)
(100.231 -1.79248 -4.37725e-17)
(100.68 -2.84176 0)
(101.292 -3.80869 3.88208e-17)
(102.077 -4.97338 0)
(103.04 -6.61893 0)
(104.238 -8.91244 3.32954e-17)
(105.701 -11.6332 3.32892e-17)
(107.483 -14.3815 3.38183e-17)
(109.618 -16.6949 6.92653e-17)
(112.153 -18.2713 3.54739e-17)
(115.038 -19.0086 0)
(118.2 -19.025 0)
(121.441 -18.6141 3.60661e-17)
(124.691 -18.0952 0)
(127.842 -17.7198 0)
(131.032 -17.5299 0)
(134.206 -17.5053 0)
(137.539 -17.5507 2.96088e-17)
(140.88 -17.6788 -5.70287e-17)
(144.445 -17.8303 0)
(148.002 -18.0654 0)
(151.858 -18.3039 5.16399e-17)
(155.677 -18.636 0)
(159.894 -18.9452 0)
(164.02 -19.3686 -2.31857e-17)
(168.68 -19.7373 0)
(173.163 -20.256 -2.1443e-17)
(178.365 -20.6778 -2.06924e-17)
(183.261 -21.3038 0)
(189.133 -21.7753 1.89631e-17)
(194.505 -22.5293 -1.78809e-17)
(201.214 -23.0478 0)
(207.135 -23.9601 0)
(214.899 -24.5256 -1.54707e-17)
(221.454 -25.6397 1.41785e-17)
(230.566 -26.2554 0)
(237.85 -27.6322 1.22508e-17)
(248.702 -28.322 -1.1915e-17)
(256.838 -30.0674 2.05035e-17)
(269.992 -30.9158 5.45601e-22)
(279.201 -33.2014 -8.19648e-18)
(295.527 -34.3628 0)
(306.278 -37.3504 0)
(327.151 -38.923 0)
(340.303 -42.449 4.0837e-18)
(367.531 -44.1143 5.26394e-18)
(383.983 -47.1687 0)
(418.942 -48.3529 0)
(439.187 -49.174 -5.10686e-19)
(482.032 -49.8044 0)
(507.411 -41.9601 0)
(549.461 -39.659 0)
(577.506 -0.0994152 4.82001e-19)
(550.31 19.8073 1.01198e-19)
(539.85 28.3706 -6.44292e-18)
(504.876 32.3266 -1.08564e-18)
(488.981 32.6084 0)
(458.202 34.2341 0)
(442.153 33.0582 0)
(416.382 33.0298 0)
(401.875 30.9346 -9.07419e-19)
(381.189 30.1681 0)
(368.717 28.0828 -2.45259e-18)
(352.148 27.2857 0)
(341.276 25.5739 0)
(327.722 24.9084 0)
(318.097 23.574 -5.27708e-18)
(306.781 23.0459 -1.26995e-17)
(298.136 22.0388 -6.52386e-18)
(288.436 21.6353 0)
(280.533 20.9027 7.707e-18)
(271.995 20.6028 -8.46091e-18)
(264.674 20.0745 0)
(256.995 19.8288 0)
(250.171 19.4221 0)
(243.17 19.176 1.06868e-17)
(236.812 18.8143 -1.12273e-17)
(230.395 18.5151 1.18683e-17)
(224.515 18.1449 -2.48573e-17)
(218.647 17.7709 -1.30138e-17)
(213.275 17.3841 0)
(207.929 16.9488 0)
(203.078 16.5721 0)
(198.2 16.1075 0)
(193.844 15.78 1.54822e-17)
(189.339 15.3078 1.58926e-17)
(185.434 15.0488 0)
(181.191 14.5599 -3.73107e-22)
(177.708 14.3591 0)
(173.621 13.8207 0)
(170.573 13.6412 0)
(166.541 13.0136 0)
(163.992 12.7847 0)
(159.925 12.0358 0)
(157.985 11.6295 0)
(153.837 10.7413 0)
(152.666 10.0076 0)
(148.517 8.50685 0)
(100.007 -0.641701 0)
(100.232 -1.80913 4.376e-17)
(100.684 -2.86787 -4.16073e-17)
(101.299 -3.84274 3.87919e-17)
(102.087 -5.0156 0)
(103.053 -6.67025 0)
(104.252 -8.97441 3.32962e-17)
(105.712 -11.7068 8.6979e-22)
(107.487 -14.4682 0)
(109.613 -16.7955 -3.4683e-17)
(112.138 -18.3852 -3.5537e-17)
(115.014 -19.1328 3.61715e-17)
(118.171 -19.1539 0)
(121.41 -18.7422 -3.61306e-17)
(124.659 -18.2192 0)
(127.809 -17.8399 0)
(130.996 -17.648 -3.22872e-17)
(134.168 -17.6233 3.08305e-17)
(137.498 -17.6692 2.96107e-17)
(140.837 -17.7985 5.70259e-17)
(144.399 -17.9512 0)
(147.954 -18.188 -2.66461e-17)
(151.809 -18.4283 6.22933e-22)
(155.626 -18.7628 0)
(159.841 -19.074 0)
(163.965 -19.5005 -7.92092e-22)
(168.623 -19.8716 0)
(173.104 -20.3938 0)
(178.304 -20.8184 2.06936e-17)
(183.198 -21.4488 1.96771e-17)
(189.067 -21.9233 -1.89646e-17)
(194.437 -22.6825 -1.03337e-21)
(201.143 -23.2043 -1.72242e-17)
(207.062 -24.123 0)
(214.823 -24.692 -7.36968e-22)
(221.375 -25.8138 1.41815e-17)
(230.482 -26.4332 1.37049e-17)
(237.762 -27.8194 0)
(248.61 -28.513 1.1917e-17)
(256.741 -30.2702 -1.02529e-17)
(269.89 -31.123 -1.01142e-17)
(279.09 -33.424 8.19641e-18)
(295.409 -34.5919 8.35848e-18)
(306.148 -37.6005 0)
(327.014 -39.1836 0)
(340.153 -42.7363 4.0861e-18)
(367.381 -44.4149 -5.26456e-18)
(383.825 -47.495 -1.92416e-18)
(418.796 -48.6911 0)
(439.038 -49.5263 1.01992e-18)
(481.925 -50.1722 2.25551e-18)
(507.33 -42.2894 0)
(549.503 -39.9901 -8.58605e-19)
(577.646 -0.101066 -4.824e-19)
(550.372 19.9734 1.10974e-19)
(539.884 28.5905 0)
(504.863 32.5746 5.44795e-19)
(488.939 32.8522 0)
(458.137 34.4841 1.36662e-18)
(442.076 33.2958 0)
(416.296 33.2644 2.2228e-18)
(401.787 31.1516 9.07909e-19)
(381.101 30.3779 0)
(368.632 28.2766 2.45303e-18)
(352.067 27.4737 0)
(341.199 25.7495 0)
(327.648 25.0795 0)
(318.026 23.7354 -5.27834e-18)
(306.714 23.2039 6.34986e-18)
(298.072 22.1899 -6.52487e-18)
(288.377 21.7841 0)
(280.475 21.0469 -1.54137e-17)
(271.94 20.7456 0)
(264.621 20.214 -8.86026e-18)
(256.944 19.9672 0)
(250.121 19.5581 -1.00243e-17)
(243.122 19.3107 -1.06858e-17)
(236.763 18.9466 2.24537e-17)
(230.347 18.6454 -1.18679e-17)
(224.467 18.2726 2.48584e-17)
(218.599 17.8959 1.30142e-17)
(213.227 17.506 0)
(207.882 17.0674 0)
(203.031 16.6878 0)
(198.154 16.2198 -1.49834e-17)
(193.799 15.8899 -1.54805e-17)
(189.296 15.4145 -1.58903e-17)
(185.391 15.154 -1.64388e-17)
(181.149 14.6621 -3.75328e-22)
(177.666 14.4606 -1.74723e-17)
(173.579 13.919 0)
(170.53 13.7394 0)
(166.498 13.1078 0)
(163.946 12.8792 0)
(159.877 12.1251 -2.00842e-17)
(157.934 11.7183 2.12402e-17)
(153.781 10.8234 0)
(152.608 10.0856 0)
(148.451 8.57313 2.26361e-17)
(100.007 -0.647694 0)
(100.234 -1.82588 -4.37424e-17)
(100.688 -2.89414 4.15804e-17)
(101.306 -3.87697 -7.75207e-17)
(102.098 -5.05797 0)
(103.067 -6.72166 3.41267e-17)
(104.265 -9.03634 1.10588e-21)
(105.722 -11.7803 -6.66453e-17)
(107.492 -14.5546 -3.38876e-17)
(109.608 -16.8956 0)
(112.123 -18.4987 -3.56015e-17)
(114.99 -19.2567 -7.24849e-17)
(118.142 -19.2827 -3.65091e-17)
(121.379 -18.8703 0)
(124.627 -18.3431 0)
(127.775 -17.9599 0)
(130.96 -17.766 3.23061e-17)
(134.129 -17.7411 -6.16759e-17)
(137.457 -17.7876 -2.96114e-17)
(140.794 -17.918 -5.70232e-17)
(144.354 -18.072 2.75794e-17)
(147.907 -18.3106 -6.73706e-22)
(151.76 -18.5525 6.27203e-22)
(155.574 -18.8894 0)
(159.788 -19.2028 2.41139e-17)
(163.91 -19.6321 2.31848e-17)
(168.566 -20.0057 -2.24101e-17)
(173.045 -20.5315 0)
(178.242 -20.9589 -2.06934e-17)
(183.134 -21.5935 -1.9677e-17)
(189.001 -22.0711 1.89647e-17)
(194.369 -22.8355 1.78823e-17)
(201.071 -23.3607 1.72245e-17)
(206.988 -24.2857 1.60544e-17)
(214.746 -24.8583 1.54724e-17)
(221.294 -25.9878 1.23252e-21)
(230.399 -26.6108 7.16978e-22)
(237.674 -28.0065 1.22561e-17)
(248.518 -28.7039 -1.19177e-17)
(256.643 -30.4728 -1.02561e-17)
(269.786 -31.33 0)
(278.978 -33.6462 -8.19911e-18)
(295.29 -34.8206 -1.67167e-17)
(306.016 -37.8502 0)
(326.876 -39.4439 6.73121e-18)
(340.002 -43.0233 -4.08584e-18)
(367.23 -44.7153 5.26457e-18)
(383.665 -47.821 1.92413e-18)
(418.65 -49.029 0)
(438.887 -49.8785 -1.11337e-21)
(481.816 -50.5402 4.16735e-22)
(507.247 -42.6193 0)
(549.545 -40.3222 8.56783e-19)
(577.787 -0.102793 4.81114e-19)
(550.435 20.14 5.00406e-21)
(539.918 28.8107 6.49008e-18)
(504.851 32.8229 -5.44602e-19)
(488.897 33.0963 2.77522e-18)
(458.071 34.7342 -1.37063e-18)
(441.999 33.5334 0)
(416.21 33.4991 2.19804e-23)
(401.698 31.3685 0)
(381.012 30.5876 0)
(368.546 28.4702 0)
(351.985 27.6615 0)
(341.121 25.925 -3.92078e-18)
(327.573 25.2504 -5.28727e-18)
(317.956 23.8967 5.27855e-18)
(306.647 23.3618 0)
(298.009 22.3409 6.52478e-18)
(288.316 21.9329 0)
(280.418 21.191 -5.8793e-22)
(271.885 20.8883 0)
(264.568 20.3535 8.8594e-18)
(256.893 20.1056 0)
(250.071 19.694 2.00471e-17)
(243.072 19.4453 0)
(236.714 19.0789 5.8402e-22)
(230.299 18.7758 1.18686e-17)
(224.418 18.4003 -1.24296e-17)
(218.55 18.0209 1.30154e-17)
(213.179 17.6279 1.35475e-17)
(207.834 17.186 0)
(202.984 16.8034 0)
(198.109 16.332 2.99653e-17)
(193.754 15.9998 0)
(189.252 15.5212 0)
(185.347 15.2592 -3.60133e-23)
(181.107 14.7643 -3.77536e-22)
(177.623 14.5621 3.49361e-17)
(173.537 14.0172 1.78493e-17)
(170.487 13.8377 0)
(166.454 13.2021 0)
(163.9 12.9737 0)
(159.828 12.2144 2.0074e-17)
(157.883 11.8071 -3.79995e-22)
(153.724 10.9055 0)
(152.55 10.1637 0)
(148.385 8.63945 -2.2619e-17)
(100.007 -0.653722 0)
(100.235 -1.84273 4.37298e-17)
(100.692 -2.92056 0)
(101.314 -3.91137 3.87289e-17)
(102.109 -5.10051 -3.60015e-17)
(103.08 -6.77315 -6.82225e-17)
(104.279 -9.09824 -3.32953e-17)
(105.733 -11.8536 -8.83739e-22)
(107.496 -14.6406 -7.36555e-22)
(109.603 -16.9953 0)
(112.107 -18.6118 3.56654e-17)
(114.966 -19.3803 7.26286e-17)
(118.113 -19.4114 7.3163e-17)
(121.347 -18.9982 0)
(124.594 -18.4669 3.5329e-17)
(127.741 -18.0798 0)
(130.924 -17.8838 -3.23263e-17)
(134.091 -17.8587 3.08455e-17)
(137.416 -17.9058 0)
(140.75 -18.0374 5.70205e-17)
(144.308 -18.1926 -5.51541e-17)
(147.859 -18.433 2.66416e-17)
(151.71 -18.6767 6.31479e-22)
(155.523 -19.0159 0)
(159.734 -19.3314 -2.41127e-17)
(163.855 -19.7637 2.31855e-17)
(168.508 -20.1397 2.24095e-17)
(172.985 -20.6691 0)
(178.181 -21.0991 0)
(183.07 -21.7382 0)
(188.934 -22.2188 0)
(194.3 -22.9884 1.78845e-17)
(201 -23.5169 1.72263e-17)
(206.914 -24.4482 -1.60548e-17)
(214.668 -25.0243 -1.54744e-17)
(221.213 -26.1616 1.24118e-21)
(230.314 -26.7883 -1.3707e-17)
(237.586 -28.1933 -1.22568e-17)
(248.426 -28.8945 0)
(256.545 -30.6751 -1.39321e-21)
(269.682 -31.5366 0)
(278.865 -33.8682 8.19905e-18)
(295.17 -35.049 8.3582e-18)
(305.884 -38.0995 0)
(326.738 -39.7038 -6.73068e-18)
(339.85 -43.31 0)
(367.078 -45.0154 0)
(383.504 -48.1468 0)
(418.502 -49.3668 0)
(438.735 -50.2306 -5.07949e-19)
(481.707 -50.9083 4.24683e-22)
(507.164 -42.9498 0)
(549.587 -40.6554 8.52345e-19)
(577.929 -0.104598 -4.81587e-19)
(550.498 20.3072 5.04539e-21)
(539.954 29.0315 -1.3023e-17)
(504.84 33.0716 1.0935e-18)
(488.856 33.3406 -2.78824e-18)
(458.006 34.9844 0)
(441.922 33.7711 0)
(416.123 33.7337 1.7725e-23)
(401.609 31.5854 9.11147e-19)
(380.923 30.7972 0)
(368.46 28.6636 0)
(351.902 27.8492 4.20847e-18)
(341.043 26.1003 -5.2505e-22)
(327.499 25.4212 5.28756e-18)
(317.885 24.0579 0)
(306.58 23.5195 0)
(297.945 22.4918 -6.5258e-18)
(288.256 22.0816 7.40072e-18)
(280.36 21.335 -5.92661e-22)
(271.83 21.0309 8.46015e-18)
(264.515 20.4929 -8.85976e-18)
(256.842 20.2439 0)
(250.021 19.8298 -2.00462e-17)
(243.023 19.5798 -1.06852e-17)
(236.665 19.2111 -1.12263e-17)
(230.25 18.9061 -1.18682e-17)
(224.369 18.528 0)
(218.502 18.1458 -2.6032e-17)
(213.13 17.7498 -2.70962e-17)
(207.787 17.3046 0)
(202.937 16.919 0)
(198.063 16.4442 -2.9964e-17)
(193.709 16.1096 0)
(189.208 15.6279 1.58866e-17)
(185.303 15.3643 -3.60105e-23)
(181.065 14.8665 -3.79735e-22)
(177.58 14.6636 -3.49276e-17)
(173.494 14.1155 -3.56893e-17)
(170.443 13.9359 0)
(166.409 13.2963 0)
(163.854 13.0683 0)
(159.779 12.3038 0)
(157.832 11.8961 -3.85578e-22)
(153.667 10.9877 0)
(152.491 10.242 0)
(148.318 8.70583 0)
(100.007 -0.659788 0)
(100.237 -1.85967 -4.3712e-17)
(100.696 -2.94713 4.15334e-17)
(101.321 -3.94595 0)
(102.12 -5.14322 3.59736e-17)
(103.094 -6.82475 -1.32511e-21)
(104.293 -9.16011 -3.32968e-17)
(105.745 -11.9268 -8.90716e-22)
(107.501 -14.7263 6.79131e-17)
(109.598 -17.0947 0)
(112.092 -18.7246 0)
(114.942 -19.5036 -3.63865e-17)
(118.083 -19.5398 -7.33099e-17)
(121.315 -19.126 0)
(124.562 -18.5906 -3.53829e-17)
(127.707 -18.1996 0)
(130.888 -18.0015 3.23456e-17)
(134.052 -17.9762 -3.08541e-17)
(137.375 -18.0238 0)
(140.706 -18.1566 -5.70179e-17)
(144.262 -18.3131 5.51498e-17)
(147.811 -18.5553 -2.66404e-17)
(151.66 -18.8007 -2.58137e-17)
(155.471 -19.1422 0)
(159.68 -19.4598 2.41128e-17)
(163.799 -19.8951 -2.31847e-17)
(168.45 -20.2735 0)
(172.925 -20.8065 2.14458e-17)
(178.118 -21.2393 0)
(183.006 -21.8826 0)
(188.868 -22.3663 0)
(194.231 -23.1411 1.05487e-21)
(200.928 -23.6729 -3.4454e-17)
(206.839 -24.6106 0)
(214.59 -25.1902 3.09507e-17)
(221.132 -26.3351 1.24984e-21)
(230.229 -26.9655 -1.37091e-17)
(237.497 -28.3799 0)
(248.332 -29.0848 0)
(256.446 -30.8771 2.05184e-17)
(269.578 -31.7429 0)
(278.751 -34.0898 0)
(295.05 -35.277 8.35866e-18)
(305.751 -38.3484 0)
(326.598 -39.9633 0)
(339.698 -43.5963 -4.08939e-18)
(366.925 -45.3152 0)
(383.343 -48.4724 0)
(418.353 -49.7044 0)
(438.582 -50.5827 5.05514e-19)
(481.597 -51.2766 -2.25258e-18)
(507.08 -43.2808 -3.43782e-18)
(549.629 -40.9897 -1.31873e-21)
(578.073 -0.106486 1.44281e-18)
(550.563 20.475 5.08705e-21)
(539.99 29.2526 6.53357e-18)
(504.829 33.3208 -1.5669e-21)
(488.814 33.5853 0)
(457.94 35.2348 1.37941e-18)
(441.844 34.0089 0)
(416.036 33.9683 -2.22972e-18)
(401.519 31.8021 7.41155e-22)
(380.833 31.0066 0)
(368.374 28.8569 -2.45648e-18)
(351.819 28.0367 -4.2089e-18)
(340.964 26.2755 3.92184e-18)
(327.424 25.5919 0)
(317.813 24.219 0)
(306.512 23.6772 -6.35037e-18)
(297.88 22.6425 -5.66759e-22)
(288.195 22.2302 -7.40043e-18)
(280.302 21.4789 7.70689e-18)
(271.775 21.1734 3.16602e-22)
(264.462 20.6322 1.77184e-17)
(256.791 20.3821 0)
(249.97 19.9656 2.00453e-17)
(242.974 19.7143 1.06842e-17)
(236.616 19.3433 0)
(230.201 19.0363 -1.18689e-17)
(224.32 18.6555 0)
(218.453 18.2706 2.60337e-17)
(213.081 17.8716 1.35488e-17)
(207.739 17.4231 0)
(202.889 17.0345 0)
(198.016 16.5563 2.99626e-17)
(193.663 16.2193 -1.5476e-17)
(189.164 15.7345 -1.58843e-17)
(185.26 15.4694 3.286e-17)
(181.022 14.9686 1.68306e-17)
(177.537 14.765 1.74595e-17)
(173.452 14.2137 1.784e-17)
(170.399 14.0341 0)
(166.365 13.3905 -1.89133e-17)
(163.807 13.1629 0)
(159.73 12.3932 -2.00551e-17)
(157.78 11.9851 -2.12007e-17)
(153.61 11.0699 0)
(152.432 10.3203 0)
(148.25 8.77226 0)