/*--------------------------------*- C++ -*----------------------------------*\
| =========                 |                                                 |
| \\      /  F ield         | OpenFOAM: The Open Source CFD Toolbox           |
|  \\    /   O peration     | Version:  2412                                  |
|   \\  /    A nd           | Website:  www.openfoam.com                      |
|    \\/     M anipulation  |                                                 |
\*---------------------------------------------------------------------------*/
FoamFile
{
    version     2.0;
    format      ascii;
    arch        "LSB;label=32;scalar=64";
    class       volScalarField;
    location    "0.8";
    object      k;
}
// * * * * * * * * * * * * * * * * * * * * * * * * * * * * * * * * * * * * * //

dimensions      [0 2 -2 0 0 0 0];

internalField   nonuniform List<scalar> 
78408
(
249.458
262.069
214.621
184.02
169.273
161.748
157.815
155.991
155.652
156.269
157.443
158.768
160.067
161.186
162.175
163
163.86
164.706
165.78
166.972
168.584
170.36
172.759
175.28
178.6
181.946
186.373
190.642
196.489
201.835
209.517
216.136
226.088
234.392
247.495
257.844
275.39
288.162
312.032
327.745
360.995
380.211
427.669
450.869
520.107
546.305
648.21
674.593
831.182
860.573
1143.81
1194.02
2174.77
2433.19
1739.99
1317.19
1102.77
957.249
854.018
767.274
699.354
638.366
590.573
546.557
513.11
481.024
455.813
429.896
407.885
384.962
364.761
344.607
326.948
310.151
295.655
282.237
270.556
259.672
249.709
240.162
231.007
222.158
213.469
205.164
196.969
189.327
181.812
175.063
168.382
162.78
157.166
153.103
148.888
147.094
144.751
145.912
144.773
147.852
146.232
854.149
640.586
323.693
191.631
136.091
112.465
104.006
103.506
106.862
111.847
117.122
122.259
127.015
131.478
135.537
139.322
142.58
145.554
147.977
150.264
152.101
154.129
155.763
157.99
159.824
162.638
164.893
168.644
171.426
176.52
179.978
186.872
191.703
201.206
207.49
220.494
228.313
246.341
255.869
281.162
292.455
328.599
341.704
394.478
409.491
488.319
505.34
621.604
641.413
807.85
850.711
1062.24
1079.89
2224.52
2636.07
2096.68
1684.33
1405.36
1254.6
1103.13
1009.59
911.227
851.233
787.155
748.604
704.576
675.329
639.515
611.61
578.783
551.286
521.772
496.854
472.064
451.298
431.165
413.787
396.539
380.34
363.916
347.783
331.596
315.739
300.346
285.571
271.741
258.75
246.979
236.159
226.794
218.407
211.868
206.63
204.032
202.985
204.82
206.16
209.595
207.129
195.057
262.224
170.64
120.306
96.1286
86.4399
84.4009
86.0367
89.2298
92.8267
96.2986
99.4161
102.195
104.7
107.056
109.338
111.595
113.801
115.976
118.057
120.076
121.99
123.87
125.652
127.532
129.377
131.478
133.626
136.215
138.902
142.316
145.812
150.121
154.944
160.477
167.223
174.232
183.643
192.451
205.677
216.575
235.472
248.877
276.623
293.357
335.681
357.756
423.38
453.687
554.609
602.126
770.027
699.128
1204.23
2226.94
2122.71
1861.88
1552.77
1415.42
1232.87
1144.54
1026.53
971.057
896.893
862.75
813.733
786.753
746.905
718.437
681.138
651.201
617.205
589.175
560.441
536.504
512.979
492.194
471.364
451.309
430.833
410.492
390.042
369.981
350.516
331.929
314.551
298.392
283.749
270.496
258.98
248.941
241.034
235.023
232.104
231.373
233.855
235.655
239.645
236.185
76.2473
104.844
99.7743
95.5989
93.7064
93.6714
94.724
96.2934
98.0618
99.6862
101.025
101.988
102.641
103.053
103.369
103.682
104.107
104.658
105.391
106.25
107.24
108.281
109.378
110.441
111.55
112.627
113.804
115.027
116.453
118.035
119.971
122.207
124.706
127.931
131.235
135.94
140.223
147.024
152.444
162.214
168.861
182.953
190.966
211.689
221.594
253.315
267.122
317.639
339.679
421.659
459.766
616.965
593.913
772.392
1804.09
2074.31
1954.57
1665.96
1529.06
1337.94
1243.95
1119.49
1060.57
983.647
948.251
898.145
870.042
828.642
798.073
758.304
725.558
688.726
657.802
626.357
599.709
573.621
550.1
526.482
503.436
479.87
456.351
432.733
409.576
387.151
365.806
345.884
327.451
310.762
295.761
282.717
271.479
262.614
256.08
252.944
252.512
255.348
257.669
261.607
258.048
64.9856
82.061
95.5938
103.203
107.021
108.774
109.651
110.211
110.671
110.916
110.895
110.538
109.905
109.049
108.101
107.146
106.318
105.643
105.208
104.967
104.944
105.041
105.259
105.478
105.745
105.969
106.234
106.507
106.871
107.366
108.027
109.026
110.082
111.861
113.471
116.441
118.74
123.44
126.495
133.67
137.447
148.201
152.654
168.839
174.239
199.436
207.6
248.94
265.697
336.416
373.444
518.681
581.82
618.81
1433.87
1957.9
1984.92
1744.7
1613.15
1422.24
1322.88
1195.98
1133.23
1055.43
1018.26
967.924
938.4
896.054
863.457
821.843
786.622
747.564
714.164
680.517
651.542
623.26
597.367
571.324
545.685
519.466
493.243
466.967
441.24
416.389
392.806
370.837
350.587
332.276
315.885
301.638
289.452
279.848
272.92
269.645
269.463
272.547
275.209
278.952
275.327
66.7886
88.631
104.816
113.588
118.742
121.253
122.182
122.291
122.031
121.457
120.605
119.446
118.045
116.452
114.787
113.126
111.599
110.231
109.115
108.201
107.523
106.964
106.541
106.099
105.704
105.215
104.753
104.218
103.753
103.31
103.007
102.902
102.889
103.368
103.772
105.168
106.11
108.877
110.405
115.172
117.233
124.924
127.438
139.585
142.769
162.364
168.071
201.603
217.504
278.627
322.337
457.256
602.682
602.847
1159.41
1801
1964.71
1791.41
1673.31
1488.92
1386.51
1259.6
1193.94
1116.26
1077.66
1027.54
996.811
953.846
919.51
876.42
839.081
798.17
762.639
727.099
696.067
665.809
637.754
609.485
581.471
552.84
524.185
495.547
467.567
440.616
415.115
391.413
369.634
349.97
332.426
317.186
304.219
294.017
286.783
283.421
283.449
286.709
289.569
293.033
289.275
71.6661
97.2356
113.341
122.08
127.779
130.867
132.111
132.196
131.64
130.618
129.253
127.577
125.679
123.621
121.52
119.449
117.532
115.789
114.305
113.023
111.969
111.014
110.177
109.286
108.42
107.411
106.412
105.272
104.197
103.046
102.046
101.097
100.32
99.7882
99.3518
99.5033
99.5292
100.717
101.265
103.996
105.052
110.086
111.643
120.256
122.659
137.391
142.84
169.654
188.092
241.234
296.146
426.622
636.327
643.543
993.285
1634.21
1906.08
1809.31
1712.44
1540.02
1437.4
1312.48
1245.12
1168.39
1128.92
1079.37
1047.76
1004.44
968.677
924.395
885.257
842.772
805.387
768.172
735.278
703.184
673.1
642.722
612.468
581.577
550.67
519.872
489.857
461.035
433.847
408.638
385.54
364.721
346.196
330.117
316.493
305.797
298.32
294.905
295.112
298.485
301.435
304.559
300.619
75.6265
104.345
120.134
128.767
134.813
138.38
140.029
140.308
139.711
138.479
136.811
134.797
132.564
130.194
127.812
125.492
123.351
121.407
119.729
118.252
116.987
115.794
114.69
113.493
112.29
110.902
109.504
107.917
106.39
104.721
103.215
101.657
100.333
99.0761
98.0554
97.3134
96.7197
96.7575
96.6726
97.8795
98.3503
101.33
102.475
108.29
110.71
121.565
128.086
149.659
172.733
220.478
287.52
419.353
674.715
699.606
916.322
1481.77
1822.16
1802.5
1732.88
1577.07
1477.1
1356.02
1288.22
1213.21
1173.46
1124.83
1092.69
1049.27
1012.36
967.137
926.478
882.646
843.636
804.913
770.302
736.469
704.439
672.03
639.625
606.582
573.553
540.748
508.868
478.354
449.66
423.122
398.873
377.054
357.685
340.889
326.708
315.599
307.929
304.483
304.838
308.271
311.227
313.969
309.821
78.8756
110.013
125.481
134.069
140.397
144.377
146.441
147.007
146.515
145.228
143.398
141.173
138.716
136.137
133.572
131.1
128.834
126.789
125.018
123.444
122.062
120.723
119.435
118.017
116.559
114.883
113.171
111.243
109.363
107.306
105.417
103.415
101.685
99.9146
98.4738
97.1126
96.0874
95.3375
94.8331
94.9915
95.1158
96.6615
97.6753
101.514
104.333
112.466
120.692
138.849
167.262
212.774
290.156
426.738
714.288
756.442
896.247
1357.47
1726.1
1775.93
1736.94
1601.42
1506.75
1391.19
1324.21
1251.65
1212.21
1164.85
1132.51
1089.22
1051.46
1005.51
963.575
918.594
878.149
838.054
801.836
766.333
732.416
698.027
663.535
628.425
593.38
558.693
525.089
493.034
462.985
435.267
410.009
387.321
367.224
349.811
335.157
323.7
315.878
312.415
312.892
316.337
319.235
321.566
317.207
81.4727
114.454
129.681
138.307
144.901
149.246
151.704
152.593
152.283
151.04
149.149
146.804
144.205
141.493
138.814
136.257
133.933
131.851
130.049
128.437
126.994
125.56
124.14
122.552
120.887
118.977
117.009
114.804
112.637
110.274
108.078
105.74
103.693
101.548
99.7897
97.9941
96.6534
95.371
94.5741
94.0413
93.9511
94.5672
95.5815
98.1679
101.527
108.031
118.118
134.661
168.095
214.1
299.226
441.943
753.452
810.225
906.404
1265.53
1629.29
1734.99
1727.17
1614.39
1527.31
1418.79
1353.79
1284.38
1245.83
1200.07
1167.87
1124.93
1086.56
1040.1
997.106
951.154
909.435
868.082
830.344
793.221
757.456
721.126
684.601
647.493
610.526
574.066
538.862
505.398
474.13
445.363
419.218
395.774
375.049
357.108
342.051
330.303
322.361
318.892
319.465
322.883
325.674
327.584
323.024
83.4773
117.867
132.954
141.701
148.565
153.244
156.07
157.286
157.198
156.061
154.179
151.783
149.107
146.319
143.581
140.991
138.657
136.583
134.791
133.18
131.709
130.214
128.69
126.963
125.123
123.015
120.825
118.387
115.975
113.359
110.907
108.301
105.995
103.564
101.553
99.4416
97.8576
96.2088
95.1964
94.2122
93.9829
94.0247
95.1035
96.9791
100.914
106.648
118.519
134.866
172.605
220.848
311.634
460.831
791.511
860.359
930.901
1203.73
1540.08
1685.09
1706.29
1617.39
1539.72
1439.51
1377.56
1311.94
1274.82
1230.98
1199.21
1156.85
1118.11
1071.32
1027.47
980.705
937.853
895.337
856.148
817.444
779.862
741.622
703.111
664.07
625.265
587.136
550.447
515.694
483.328
453.63
426.708
402.608
381.346
362.953
347.557
335.566
327.533
324.063
324.71
328.069
330.721
332.213
327.475
84.9637
120.415
135.459
144.405
151.554
156.548
159.718
161.252
161.403
160.409
158.584
156.19
153.488
150.672
147.92
145.337
143.03
140.997
139.246
137.661
136.185
134.649
133.041
131.195
129.201
126.918
124.531
121.887
119.26
116.427
113.753
110.924
108.398
105.739
103.517
101.168
99.3871
97.478
96.2988
95.0178
94.6955
94.3979
95.5762
97.1111
101.622
107.185
120.693
137.777
179.132
230.504
325.629
481.256
828.172
907.081
961.627
1166.65
1463.54
1631.12
1677.09
1611.9
1544.88
1454
1396.02
1334.79
1299.59
1257.97
1226.92
1185.32
1146.43
1099.49
1054.96
1007.53
963.666
920.07
879.487
839.232
799.859
759.737
719.286
678.375
637.816
598.114
560.047
524.118
490.765
460.244
432.646
407.983
386.262
367.489
351.81
339.62
331.52
328.055
328.756
332.033
334.526
335.614
330.73
86.0052
122.228
137.316
146.532
153.981
159.282
162.775
164.615
165.008
164.18
162.447
160.093
157.405
154.601
151.87
149.328
147.079
145.116
143.427
141.887
140.421
138.857
137.177
135.226
133.092
130.65
128.084
125.257
122.434
119.411
116.539
113.519
110.801
107.954
105.55
103.012
101.067
98.9661
97.6525
96.1745
95.79
95.3059
96.6079
98.0461
103.126
108.904
123.907
142.269
186.717
241.584
340.284
502.13
863.322
950.784
994.672
1148.2
1401.76
1577.18
1642.3
1599.46
1543.76
1462.91
1409.68
1353.32
1320.48
1281.34
1251.27
1210.64
1171.78
1124.86
1079.81
1031.84
987.078
942.472
900.543
858.762
817.621
775.648
733.302
690.587
648.354
607.175
567.833
530.834
496.6
465.356
437.174
412.032
389.927
370.836
354.926
342.576
334.431
330.975
331.715
334.895
337.221
337.934
332.943
86.6673
123.414
138.619
148.166
155.934
161.538
165.34
167.469
168.104
167.451
165.832
163.549
160.908
158.147
155.47
152.998
150.832
148.959
147.351
145.87
144.424
142.841
141.099
139.052
136.788
134.2
131.468
128.472
125.472
122.276
119.226
116.038
113.148
110.139
107.576
104.884
102.797
100.551
99.1259
97.5168
97.0929
96.5233
97.9692
99.4722
105.118
111.353
127.732
147.655
194.83
253.288
355.114
522.901
896.93
991.836
1028.17
1142.98
1354.54
1526.29
1604.43
1581.6
1537.32
1466.87
1419
1367.92
1337.8
1301.39
1272.52
1233.02
1194.37
1147.63
1102.21
1053.82
1008.25
962.694
919.46
876.179
833.293
789.501
745.31
700.856
657.033
614.47
573.954
535.987
500.971
469.098
440.418
414.874
392.454
373.103
357.009
344.535
336.363
332.922
333.69
336.767
338.931
339.304
334.247
87.0069
124.064
139.443
149.372
157.477
163.385
167.483
169.89
170.758
170.287
168.796
166.606
164.037
161.348
158.751
156.373
154.312
152.547
151.033
149.62
148.204
146.608
144.809
142.672
140.287
137.563
134.676
131.525
128.359
125.006
121.793
118.454
115.409
112.259
109.553
106.733
104.52
102.161
100.642
98.947
98.5021
97.9163
99.5252
101.202
107.413
114.253
131.913
153.53
203.179
265.199
369.867
543.284
928.994
1030.54
1061.21
1146.76
1320.35
1480.45
1565.66
1559.8
1526.51
1466.52
1424.44
1378.92
1351.85
1318.36
1290.89
1252.67
1214.4
1167.97
1122.31
1073.6
1027.31
980.863
936.361
891.6
846.996
801.421
755.439
709.317
663.988
620.135
578.543
539.705
504.001
471.587
442.49
416.617
393.943
374.387
358.151
345.587
337.408
333.988
334.778
337.752
339.767
339.846
334.768
87.074
124.255
139.851
150.203
158.662
164.876
169.264
171.936
173.03
172.739
171.387
169.305
166.83
164.234
161.739
159.477
157.539
155.897
154.488
153.152
151.769
150.165
148.314
146.093
143.594
140.741
137.709
134.412
131.093
127.595
124.231
120.755
117.568
114.293
111.457
108.527
106.203
103.753
102.156
100.407
99.9569
99.4045
101.195
103.123
109.9
117.435
136.301
159.661
211.603
277.098
384.408
563.124
959.531
1067.14
1093.39
1156.5
1297.1
1440.72
1527.75
1535.42
1512.27
1462.51
1426.45
1386.7
1362.91
1332.49
1306.58
1269.77
1232.02
1186.02
1140.25
1091.32
1044.38
997.084
951.346
905.131
858.839
811.522
763.808
716.091
669.343
624.293
581.72
542.107
505.804
472.933
443.494
417.359
394.489
374.778
358.441
345.818
337.648
334.256
335.067
337.951
339.838
339.671
334.616
86.912
124.055
139.899
150.704
159.531
166.056
170.727
173.653
174.964
174.851
173.642
171.681
169.316
166.833
164.459
162.33
160.532
159.025
157.73
156.476
155.131
153.521
151.621
149.321
146.712
143.737
140.568
137.136
133.673
130.04
126.536
122.934
119.616
116.23
113.275
110.249
107.826
105.304
103.639
101.861
101.42
100.939
102.93
105.165
112.512
120.795
140.802
165.912
220.01
288.869
398.662
582.339
988.56
1101.84
1124.49
1170.1
1282.59
1407.43
1492
1509.7
1495.48
1455.45
1425.49
1391.57
1371.23
1343.99
1319.78
1284.49
1247.38
1201.91
1156.13
1107.06
1059.55
1011.45
964.509
916.865
868.919
819.907
770.525
721.29
673.212
627.058
583.6
543.302
506.487
473.237
443.527
417.192
394.18
374.361
357.961
345.307
337.163
333.81
334.646
337.455
339.243
338.884
333.896
86.5585
123.522
139.632
150.913
160.118
166.959
171.91
175.081
176.599
176.661
175.597
173.764
171.522
169.168
166.932
164.952
163.305
161.944
160.77
159.602
158.297
156.684
154.737
152.36
149.647
146.558
143.258
139.698
136.1
132.342
128.707
124.991
121.551
118.063
115
111.89
109.378
106.797
105.076
103.287
102.87
102.49
104.7
107.285
115.204
124.265
145.359
172.2
228.346
300.451
412.586
600.88
1016.1
1134.77
1154.44
1186.11
1274.89
1380.39
1459.29
1483.66
1476.96
1445.94
1421.98
1393.86
1377.08
1353.07
1330.66
1296.97
1260.6
1215.77
1170.08
1120.94
1072.91
1024.04
975.933
926.888
877.328
826.673
775.693
725.023
675.704
628.54
584.289
543.394
506.149
472.595
442.68
416.204
393.101
373.216
356.787
344.13
336.03
332.725
333.596
336.353
338.075
337.579
332.699
86.0464
122.709
139.094
150.863
160.454
167.614
172.842
176.251
177.968
178.198
177.28
175.582
173.473
171.259
169.175
167.357
165.873
164.665
163.618
162.539
161.275
159.659
157.667
155.218
152.405
149.206
145.784
142.103
138.377
134.503
130.746
126.923
123.371
119.791
116.628
113.444
110.851
108.223
106.456
104.673
104.293
104.04
106.487
109.456
117.949
127.803
149.936
178.477
236.58
311.805
426.153
618.719
1042.18
1166.05
1183.22
1203.58
1272.37
1359.09
1430.09
1458.13
1457.45
1434.55
1416.35
1393.9
1380.68
1359.93
1339.39
1307.35
1271.82
1227.7
1182.17
1133.03
1084.54
1034.95
985.694
935.282
884.151
831.913
779.409
727.388
676.923
628.842
583.888
542.483
504.885
471.098
441.039
414.476
391.329
371.42
354.994
342.36
334.32
331.078
331.995
334.729
336.423
335.844
331.108
85.4037
121.663
138.322
150.584
160.565
168.048
173.551
177.189
179.098
179.49
178.717
177.156
175.188
173.125
171.204
169.559
168.248
167.2
166.282
165.294
164.071
162.454
160.419
157.899
154.991
151.687
148.148
144.354
140.509
136.525
132.654
128.733
125.077
121.413
118.158
114.909
112.243
109.578
107.774
106.011
105.682
105.578
108.281
111.661
120.728
131.378
154.508
184.711
244.69
322.912
439.344
635.837
1066.82
1195.8
1210.82
1221.84
1273.73
1342.87
1404.62
1433.76
1437.57
1421.78
1408.99
1391.98
1382.3
1364.77
1346.12
1315.78
1281.15
1237.8
1192.51
1143.42
1094.52
1044.23
993.866
942.123
889.473
835.716
781.767
728.485
676.966
628.061
582.494
540.661
502.786
468.831
438.687
412.089
388.941
369.044
352.652
340.065
332.103
328.939
329.92
332.66
334.366
333.756
329.198
84.6548
120.423
137.348
150.102
160.473
168.281
174.056
177.919
180.011
180.56
179.928
178.508
176.686
174.783
173.034
171.571
170.44
169.556
168.771
167.874
166.693
165.074
162.997
160.409
157.41
154.006
150.356
146.455
142.497
138.412
134.434
130.422
126.669
122.928
119.589
116.282
113.551
110.858
109.027
107.296
107.031
107.097
110.075
113.889
123.527
134.971
159.058
190.883
252.66
333.754
452.145
652.224
1090.04
1224.07
1237.28
1240.45
1277.97
1331.01
1382.82
1410.98
1417.86
1408.1
1400.26
1388.39
1382.14
1367.75
1351.01
1322.38
1288.7
1246.17
1201.18
1152.19
1102.91
1051.95
1000.52
947.486
893.373
838.167
782.859
728.407
675.928
626.293
580.2
538.018
499.936
465.878
435.703
409.118
386.008
366.159
349.828
337.312
329.444
326.374
327.438
330.221
331.977
331.386
327.034
83.8204
119.025
136.203
149.44
160.199
168.333
174.379
178.459
180.727
181.427
180.934
179.654
177.982
176.246
174.678
173.404
172.458
171.743
171.091
170.284
169.144
167.524
165.406
162.752
159.665
156.167
152.411
148.41
144.346
140.166
136.088
131.992
128.149
124.339
120.922
117.564
114.775
112.063
110.213
108.526
108.34
108.594
111.864
116.132
126.338
138.568
163.574
196.978
260.479
344.321
464.544
667.872
1111.87
1250.95
1262.61
1259.12
1284.32
1322.82
1364.52
1390.1
1398.72
1393.92
1390.5
1383.39
1380.41
1369.07
1354.2
1327.27
1294.57
1252.89
1208.25
1159.39
1109.78
1058.19
1005.72
951.445
895.931
839.351
782.771
727.244
673.902
623.627
577.094
534.641
496.42
462.317
432.163
405.633
382.6
362.83
346.587
334.164
326.406
323.448
324.618
327.477
329.323
328.796
324.672
82.9185
117.501
134.914
148.62
159.761
168.221
174.534
178.826
181.264
182.107
181.75
180.61
179.093
177.527
176.145
175.067
174.31
173.765
173.247
172.53
171.431
169.808
167.649
164.933
161.761
158.173
154.318
150.221
146.058
141.79
137.619
133.446
129.519
125.646
122.157
118.756
115.916
113.192
111.332
109.701
109.608
110.069
113.649
118.384
129.153
142.157
168.047
202.986
268.138
354.603
476.532
682.776
1132.33
1276.47
1286.86
1277.62
1292.18
1317.66
1349.44
1371.26
1380.47
1379.58
1380.01
1377.25
1377.34
1368.87
1355.83
1330.56
1298.87
1258.06
1213.81
1165.12
1115.2
1063.01
1009.54
954.07
897.221
839.349
781.59
725.084
670.975
620.151
573.26
530.609
492.314
458.222
428.136
401.704
378.781
359.121
342.99
330.679
323.049
320.221
321.519
324.489
326.461
326.038
322.16
81.9642
115.877
133.504
147.661
159.177
167.96
174.536
179.036
181.636
182.617
182.391
181.391
180.029
178.639
177.448
176.568
176.004
175.631
175.246
174.617
173.556
171.931
169.732
166.954
163.701
160.028
156.079
151.894
147.637
143.287
139.03
134.785
130.781
126.851
123.298
119.859
116.974
114.246
112.385
110.821
110.835
111.521
115.427
120.643
131.967
145.73
172.469
208.899
275.627
364.59
488.097
696.932
1151.44
1300.69
1310.04
1295.81
1301.12
1315
1337.25
1354.51
1363.34
1365.37
1369.06
1370.17
1373.09
1367.32
1356.02
1332.37
1301.68
1261.76
1217.92
1169.42
1119.24
1066.47
1012.05
955.432
897.321
838.241
779.398
722.011
667.231
615.947
568.779
526.002
487.694
453.666
423.692
397.395
374.614
355.09
339.093
326.915
319.426
316.748
318.197
321.311
323.443
323.158
319.538
80.9706
114.178
131.995
146.582
158.461
167.563
174.399
179.1
181.856
182.97
182.871
182.008
180.803
179.591
178.594
177.916
177.546
177.344
177.092
176.549
175.524
173.895
171.658
168.82
165.49
161.736
157.698
153.43
149.086
144.66
140.322
136.012
131.937
127.956
124.343
120.873
117.951
115.226
113.373
111.887
112.024
112.952
117.199
122.906
134.774
149.28
176.835
214.71
282.94
374.274
499.232
710.339
1169.23
1323.66
1332.19
1313.59
1310.8
1314.35
1327.6
1339.81
1347.46
1351.51
1357.86
1362.37
1367.84
1364.56
1354.91
1332.81
1303.1
1264.07
1220.67
1172.37
1121.94
1068.63
1013.3
955.598
896.301
836.103
776.275
718.105
662.749
611.095
563.728
520.892
482.63
448.714
418.895
392.767
370.157
350.795
334.952
322.923
315.592
313.08
314.703
317.992
320.313
320.193
316.84
79.9485
112.424
130.406
145.397
157.628
167.044
174.135
179.031
181.936
183.176
183.2
182.474
181.425
180.392
179.592
179.118
178.943
178.911
178.788
178.329
177.338
175.705
173.429
170.534
167.131
163.299
159.178
154.832
150.408
145.911
141.499
137.13
132.989
128.962
125.297
121.801
118.847
116.133
114.297
112.902
113.175
114.363
118.966
125.171
137.572
152.803
181.141
220.412
290.068
383.647
509.929
722.996
1185.74
1345.39
1353.33
1330.89
1320.94
1315.3
1320.17
1327.05
1332.91
1338.17
1346.61
1354.03
1361.74
1360.73
1352.6
1331.97
1303.22
1265.07
1222.1
1174.03
1123.38
1069.55
1013.36
954.636
894.235
833.011
772.297
713.445
657.608
605.668
558.179
515.35
477.188
443.431
413.804
387.877
365.465
346.286
330.615
318.752
311.592
309.263
311.082
314.572
317.106
317.175
314.09
78.9075
110.633
128.755
144.123
156.69
166.412
173.753
178.838
181.887
183.247
183.39
182.797
181.904
181.052
180.449
180.18
180.199
180.336
180.34
179.96
179.002
177.363
175.049
172.099
168.626
164.722
160.522
156.104
151.604
147.043
142.563
138.139
133.94
129.872
126.159
122.643
119.665
116.968
115.16
113.866
114.293
115.756
120.728
127.435
140.357
156.292
185.381
226.002
297.004
392.701
520.178
734.903
1200.98
1365.94
1373.49
1347.65
1331.34
1317.53
1314.63
1316.12
1319.71
1325.49
1335.46
1345.3
1354.95
1355.95
1349.21
1329.95
1302.12
1264.82
1222.3
1174.46
1123.6
1069.29
1012.29
952.613
891.192
829.038
767.539
708.103
651.88
599.738
552.2
509.44
471.431
437.876
408.476
382.78
360.589
341.614
326.131
314.447
307.47
305.339
307.371
311.086
313.853
314.126
311.311
77.8552
108.821
127.056
142.772
155.659
165.68
173.264
178.532
181.717
183.192
183.449
182.987
182.249
181.577
181.173
181.108
181.32
181.623
181.75
181.448
180.519
178.873
176.522
173.519
169.978
166.006
161.733
157.248
152.679
148.058
143.515
139.044
134.79
130.687
126.932
123.402
120.405
117.734
115.963
114.783
115.378
117.133
122.486
129.697
143.125
159.745
189.552
231.472
303.741
401.428
529.974
746.063
1214.99
1385.34
1392.7
1363.83
1341.86
1320.75
1310.7
1306.85
1307.84
1313.54
1324.53
1336.32
1347.58
1350.35
1344.83
1326.85
1299.88
1263.4
1221.32
1173.71
1122.68
1067.92
1010.15
949.592
887.239
824.252
762.072
702.151
645.634
593.373
545.856
503.225
465.417
432.105
402.964
377.525
355.576
336.822
321.541
310.049
303.265
301.345
303.607
307.563
310.577
311.065
308.515
76.7983
107
125.323
141.356
154.546
164.857
172.675
178.121
181.436
183.02
183.386
183.052
182.468
181.976
181.769
181.907
182.31
182.775
183.022
182.793
181.891
180.237
177.85
174.795
171.191
167.155
162.814
158.267
153.633
148.959
144.359
139.844
135.541
131.409
127.618
124.078
121.071
118.432
116.709
115.654
116.435
118.498
124.24
131.956
145.874
163.157
193.65
236.819
310.273
409.82
539.309
756.479
1227.81
1403.6
1410.99
1379.42
1352.37
1324.73
1308.12
1299.08
1297.24
1302.37
1313.92
1327.19
1339.75
1344.02
1339.58
1322.74
1296.58
1260.88
1219.23
1171.86
1120.66
1065.48
1007.01
945.637
882.443
818.721
755.962
695.656
638.935
586.634
539.207
496.761
459.2
426.168
397.316
372.158
350.47
331.952
316.885
305.594
299.012
297.313
299.815
304.025
307.295
308.004
305.715
75.7424
105.181
123.567
139.888
153.361
163.95
171.997
177.611
181.051
182.737
183.209
183
182.568
182.254
182.244
182.583
183.173
183.797
184.159
183.999
183.122
181.459
179.035
175.932
172.267
168.171
163.767
159.164
154.47
149.748
145.096
140.543
136.197
132.04
128.218
124.675
121.663
119.064
117.401
116.484
117.465
119.85
125.991
134.21
148.601
166.526
197.672
242.038
316.593
417.871
548.179
766.154
1239.46
1420.77
1428.37
1394.4
1362.76
1329.29
1306.67
1292.65
1287.84
1292
1303.69
1318.02
1331.56
1337.06
1333.52
1317.71
1292.29
1257.33
1216.08
1168.94
1117.61
1062.04
1002.91
940.808
876.866
812.511
749.274
688.68
631.843
579.58
532.308
490.101
452.831
420.113
391.577
366.721
345.31
327.041
312.198
301.117
294.742
293.27
296.02
300.491
304.02
304.952
302.915
74.6921
103.374
121.799
138.376
152.114
162.97
171.235
177.012
180.568
182.352
182.924
182.837
182.555
182.417
182.601
183.139
183.913
184.691
185.164
185.07
184.214
182.541
180.081
176.931
173.209
169.058
164.594
159.939
155.193
150.427
145.729
141.143
136.758
132.581
128.734
125.193
122.184
119.633
118.04
117.275
118.473
121.194
127.739
136.457
151.304
169.848
201.615
247.124
322.694
425.574
556.578
775.094
1249.97
1436.88
1444.87
1408.75
1372.97
1334.25
1306.13
1287.38
1279.55
1282.41
1293.88
1308.88
1323.08
1329.56
1326.75
1311.83
1287.08
1252.8
1211.94
1165.03
1113.56
1057.65
997.93
935.167
870.569
805.682
742.07
681.283
624.417
572.266
525.211
483.294
446.355
413.983
385.787
361.252
340.131
322.123
307.511
296.645
290.481
289.239
292.239
296.973
300.761
301.912
300.118
73.6512
101.586
120.028
136.83
150.813
161.923
170.397
176.328
179.994
181.87
182.538
182.569
182.434
182.472
182.847
183.58
184.534
185.462
186.04
186.007
185.17
183.485
180.991
177.795
174.02
169.817
165.299
160.598
155.802
150.999
146.259
141.644
137.227
133.034
129.168
125.635
122.635
120.142
118.63
118.03
119.461
122.532
129.484
138.694
153.979
173.121
205.475
252.072
328.573
432.925
564.504
783.306
1259.4
1451.94
1460.51
1422.48
1382.94
1339.5
1306.35
1283.13
1272.27
1273.6
1284.53
1299.82
1314.4
1321.6
1319.34
1305.18
1281
1247.35
1206.86
1160.16
1108.59
1052.36
992.112
928.77
863.612
798.292
734.406
673.519
616.709
564.741
517.964
476.384
439.814
407.816
379.982
355.784
334.965
317.226
302.851
292.203
286.25
285.237
288.486
293.479
297.52
298.886
297.326
72.6228
99.8235
118.26
135.258
149.465
160.816
169.489
175.566
179.335
181.297
182.057
182.203
182.213
182.422
182.986
183.91
185.04
186.111
186.789
186.813
185.992
184.295
181.766
178.527
174.701
170.451
165.884
161.14
156.302
151.465
146.688
142.051
137.605
133.402
129.521
126.002
123.02
120.591
119.173
118.752
120.432
123.864
131.227
140.922
156.625
176.341
209.25
256.879
334.222
439.917
571.953
790.799
1267.77
1466
1475.32
1435.57
1392.6
1344.91
1307.16
1279.76
1265.9
1265.52
1275.63
1290.9
1305.57
1313.23
1311.35
1297.81
1274.14
1241.05
1200.9
1154.4
1102.73
1046.23
985.513
921.673
856.05
790.398
726.336
665.442
608.767
557.052
510.608
469.411
433.244
401.648
374.195
350.347
329.84
312.376
298.242
287.812
282.069
281.28
284.771
290.013
294.3
295.873
294.535
71.6096
98.0918
116.504
133.667
148.078
159.656
168.518
174.732
178.597
180.639
181.486
181.744
181.895
182.273
183.022
184.133
185.432
186.641
187.415
187.491
186.683
184.972
182.41
179.13
175.257
170.963
166.351
161.57
156.693
151.827
147.02
142.363
137.894
133.686
129.797
126.296
123.339
120.986
119.674
119.445
121.389
125.193
132.966
143.137
159.24
179.508
212.938
261.54
339.639
446.547
578.923
797.58
1275.11
1479.08
1489.31
1448.03
1401.93
1350.4
1308.44
1277.14
1260.35
1258.12
1267.18
1282.13
1296.63
1304.52
1302.85
1289.8
1266.53
1233.95
1194.1
1147.8
1096.05
1039.3
978.187
913.93
847.938
782.052
717.911
657.098
600.637
549.24
503.183
462.412
426.681
395.509
368.453
344.967
324.78
307.596
293.703
283.491
277.952
277.379
281.1
286.579
291.099
292.867
291.742
70.6137
96.3948
114.763
132.063
146.659
158.449
167.488
173.83
177.785
179.901
180.831
181.196
181.485
182.028
182.959
184.251
185.715
187.056
187.919
188.043
187.246
185.521
182.925
179.607
175.689
171.355
166.703
161.889
156.979
152.089
147.255
142.584
138.097
133.888
129.996
126.521
123.597
121.327
120.135
120.112
122.334
126.52
134.701
145.337
161.82
182.618
216.535
266.053
344.818
452.812
585.415
803.661
1281.48
1491.22
1502.51
1459.85
1410.9
1355.9
1310.08
1275.14
1255.52
1251.35
1259.18
1273.53
1287.63
1295.53
1293.9
1281.2
1258.25
1226.11
1186.53
1140.4
1088.59
1031.64
970.184
905.592
839.325
773.303
709.177
648.531
592.36
541.344
495.724
455.418
420.151
389.426
362.782
339.667
319.804
302.902
289.25
279.252
273.91
273.54
277.476
283.173
287.911
289.865
288.942
69.6367
94.7357
113.043
130.454
145.213
157.201
166.406
172.866
176.903
179.087
180.095
180.565
180.988
181.693
182.8
184.269
185.891
187.358
188.305
188.473
187.683
185.942
183.314
179.959
176.001
171.63
166.942
162.1
157.16
152.252
147.396
142.715
138.215
134.01
130.12
126.677
123.794
121.618
120.559
120.757
123.272
127.846
136.432
147.521
164.364
185.669
220.039
270.413
349.757
458.709
591.428
809.054
1286.91
1502.43
1514.94
1471.06
1419.48
1361.32
1311.97
1273.66
1251.31
1245.16
1251.6
1265.13
1278.6
1286.29
1284.54
1272.05
1249.33
1217.56
1178.22
1132.26
1080.4
1023.28
961.554
896.709
830.26
764.198
700.179
639.782
583.972
533.397
488.262
448.457
413.682
383.421
357.201
334.465
314.93
298.31
284.898
275.107
269.951
269.768
273.899
279.794
284.734
286.86
286.129
68.68
93.1168
111.348
128.842
143.746
155.916
165.275
171.845
175.956
178.203
179.284
179.854
180.408
181.27
182.549
184.19
185.963
187.55
188.575
188.781
187.996
186.239
183.58
180.19
176.194
171.791
167.071
162.206
157.241
152.318
147.444
142.758
138.249
134.053
130.172
126.767
123.935
121.863
120.95
121.383
124.204
129.172
138.158
149.687
166.871
188.659
223.449
274.618
354.452
464.237
596.964
813.771
1291.45
1512.76
1526.61
1481.64
1427.64
1366.63
1314.03
1272.6
1247.64
1239.48
1244.4
1256.92
1269.56
1276.84
1274.82
1262.42
1239.84
1208.37
1169.22
1123.42
1071.52
1014.28
952.345
887.329
820.79
754.779
690.956
630.888
575.507
525.429
480.824
441.554
407.295
377.514
351.728
329.375
310.17
293.832
280.654
271.064
266.08
266.064
270.367
276.437
281.559
283.845
283.296
67.7445
91.5398
109.68
127.234
142.263
154.6
164.1
170.77
174.948
177.251
178.402
179.068
179.749
180.764
182.21
184.015
185.934
187.634
188.731
188.972
188.189
186.414
183.724
180.302
176.271
171.84
167.092
162.207
157.223
152.289
147.403
142.716
138.203