/*--------------------------------*- C++ -*----------------------------------*\
| =========                 |                                                 |
| \\      /  F ield         | OpenFOAM: The Open Source CFD Toolbox           |
|  \\    /   O peration     | Version:  2412                                  |
|   \\  /    A nd           | Website:  www.openfoam.com                      |
|    \\/     M anipulation  |                                                 |
\*---------------------------------------------------------------------------*/
FoamFile
{
    version     2.0;
    format      ascii;
    arch        "LSB;label=32;scalar=64";
    class       volScalarField;
    location    "0.8";
    object      p;
}
// * * * * * * * * * * * * * * * * * * * * * * * * * * * * * * * * * * * * * //

dimensions      [0 2 -2 0 0 0 0];

internalField   nonuniform List<scalar> 
78408
(
118295
110252
109269
108588
107775
107177
106686
106209
105782
105367
104987
104620
104290
103971
103685
103398
103138
102848
102580
102255
101951
101561
101208
100723
100318
99719
99256.8
98510.5
97994.6
97038.8
96485.1
95236.6
94662.8
92984.8
92447.4
90131.2
89737.7
86432.4
86404.5
81538.5
82254.3
74880.9
77045.8
65563.7
70497.9
52229.3
62579.2
32927.1
53440.5
3270.18
41549.9
-50962.2
11525
-269764
-38914.2
-68185.3
2694.03
-31032.1
16161.5
-4818.29
24763.5
12909
31849.2
26007.5
38425.8
36135.2
44476.3
44147.9
49898.1
50567.3
54626.4
55748.7
58679.5
59947.9
62132.8
63392.3
65073.7
66246.9
67565.1
68613.8
69671.4
70590.2
71451.1
72262.4
72978.1
73708
74313.1
74980.8
75489.4
76123.5
76530
77150.8
77444.5
78094.9
78246.5
78996.8
78930.6
79871.2
79478.7
116342
109681
109142
108560
107761
107166
106676
106200
105773
105359
104980
104614
104284
103965
103679
103393
103133
102843
102575
102250
101945
101555
101202
100716
100311
99712
99249.6
98502.7
97986.5
97030
96475.9
95226.5
94652.3
92973.2
92435.3
90117.7
89723.5
86416.6
86387.5
81519.8
82233.8
74858.7
77020.5
65536.7
70466.2
52197.3
62539.5
32890.1
53389.1
3224.76
41472.4
-51043.5
11464.8
-268672
-38785
-68313.3
2659.22
-31046.2
16141.6
-4829.62
24749.1
12899.6
31837.9
25998.9
38416.3
36127.3
44468
44140.7
49890.8
50560.9
54620.1
55743
58674
59942.7
62127.8
63387.6
65069.1
66242.4
67560.8
68609.6
69667.4
70586.4
71447.5
72258.9
72974.7
73704.8
74310
74977.9
75486.5
76120.8
76527.2
77148.3
77441.9
78092.5
78243.8
78994.7
78927.7
79869.1
79475.9
115990
109814
109186
108560
107752
107156
106668
106193
105767
105353
104974
104608
104279
103961
103675
103389
103129
102839
102571
102246
101941
101550
101197
100711
100306
99705.7
99243.2
98495.4
97979.3
97021.7
96467.6
95216.8
94642.8
92961.9
92424.2
90104.3
89710.5
86400.8
86371.8
81500.8
82214.6
74835.5
76996.3
65508.3
70435.4
52163.1
62500
32850.2
53336.1
3175.06
41388.4
-51136.9
11436.6
-267366
-38673.8
-68470
2622.29
-31066.5
16114.8
-4844.59
24729.9
12887.1
31822.6
25987.5
38403.4
36116.8
44456.9
44131.1
49881.1
50552.3
54611.6
55735.4
58666.6
59935.9
62121.2
63381.3
65063
66236.5
67555.2
68604.2
69662.2
70581.5
71442.9
72254.6
72970.6
73701
74306.3
74974.6
75483.1
76117.9
76524
77145.7
77438.8
78090.3
78240.5
78992.8
78924
79867.5
79472.1
115930
109905
109183
108540
107738
107147
106661
106186
105761
105347
104969
104603
104274
103956
103671
103385
103125
102835
102567
102241
101937
101546
101192
100706
100300
99699.7
99237.4
98488.6
97972.8
97014
96460.2
95207.8
94634.4
92951.4
92414.6
90092
89699.2
86386.2
86358.5
81483.2
82198.4
74814.1
76976.1
65482.1
70409.8
52131.8
62467.2
32813.8
53292
3130.52
41317.1
-51220.2
11435.9
-266108
-38544.5
-68615
2594.78
-31085.1
16092.4
-4858
24713.5
12876
31809.6
25977.3
38392.5
36107.5
44447.3
44122.6
49872.8
50544.8
54604.3
55728.7
58660.2
59929.9
62115.4
63375.7
65057.6
66231.2
67550.1
68599.2
69657.4
70577
71438.6
72250.6
72966.8
73697.5
74302.8
74971.6
75479.9
76115.2
76521.1
77143.5
77435.9
78088.4
78237.3
78991.4
78920.4
79866.6
79468
115600
109872
109161
108521
107728
107138
106653
106178
105754
105340
104963
104597
104269
103951
103667
103381
103121
102831
102563
102237
101933
101541
101187
100700
100295
99693.6
99231.5
98481.6
97966.2
97006.1
96452.9
95198.6
94626.2
92940.7
92405.3
90079.4
89688.6
86371.2
86345.9
81465.2
82183.4
74792.3
76957.6
65455.2
70386.6
52099.6
62437.6
32776.3
53252.2
3084.86
41251.9
-51303.1
11428.7
-264835
-38370.8
-68761.7
2572.3
-31102.5
16073.8
-4870.51
24699.8
12865.5
31798.5
25968
38383.2
36099.1
44439.3
44115.1
49865.6
50538.1
54598.1
55722.7
58654.6
59924.5
62110.3
63370.7
65052.7
66226.4
67545.4
68594.7
69653.1
70572.9
71434.6
72247
72963.3
73694.3
74299.6
74968.8
75477
76112.7
76518.3
77141.4
77433.1
78086.6
78234.3
78990.1
78916.8
79866.1
79463.8
115283
109845
109156
108501
107715
107128
106644
106170
105746
105333
104956
104591
104264
103946
103662
103376
103117
102827
102559
102233
101928
101536
101182
100695
100289
99687.2
99225.4
98474.3
97959.5
96997.8
96445.4
95189
94617.8
92929.6
92395.9
90066.2
89678
86355.7
86333.6
81446.5
82168.8
74769.4
76939.9
65427
70364.5
52065.6
62409.6
32736.4
53214.6
3036.32
41188.8
-51389.7
11404.1
-263531
-38167.5
-68915.9
2551.52
-31120.2
16056.7
-4883.23
24686.9
12855
31788.1
25958.6
38374.4
36090.7
44431.5
44107.6
49858.8
50531.5
54592
55716.9
58649.2
59919.2
62105.3
63365.7
65047.9
66221.7
67540.9
68590.3
69648.8
70568.9
71430.8
72243.4
72959.8
73691.1
74296.4
74966
75474
76110.3
76515.5
77139.3
77430.3
78085
78231.3
78989
78913.3
79865.8
79459.4
115019
109818
109152
108477
107701
107117
106635
106162
105739
105326
104950
104585
104258
103941
103657
103372
103112
102822
102555
102228
101924
101531
101177
100689
100284
99680.6
99219.2
98466.8
97952.5
96989.2
96437.7
95179.1
94609.2
92918.1
92386.4
90052.7
89667.3
86339.6
86321.4
81427
82154.6
74745.7
76922.7
65397.7
70343.3
52030.1
62383
32694.5
53178.6
2985.49
41126.3
-51480.5
11366.3
-262218
-37948.6
-69073.9
2531.94
-31138.6
16040.3
-4896.31
24674.5
12844.1
31777.9
25949
38365.7
36082.2
44423.9
44100
49852
50524.8
54585.9
55711
58643.8
59913.9
62100.3
63360.7
65043.1
66216.9
67536.3
68585.8
69644.5
70564.8
71426.9
72239.8
72956.3
73687.9
74293.2
74963.3
75471.1
76107.8
76512.7
77137.3
77427.6
78083.4
78228.3
78988
78909.7
79865.8
79454.8
114764
109782
109146
108452
107688
107106
106626
106153
105731
105319
104943
104579
104252
103936
103652
103367
103108
102818
102550
102224
101919
101526
101172
100683
100278
99673.9
99212.8
98459.1
97945.4
96980.5
96429.9
95169
94600.5
92906.3
92376.8
90038.7
89656.5
86323
86309.1
81407
82140.4
74721.2
76905.9
65367.4
70322.7
51993.3
62357.2
32651.1
53143.4
2932.54
41063.1
-51576.4
11321
-260910
-37720.9
-69231.9
2513.47
-31157.7
16024.8
-4909.7
24662.4
12833
31767.9
25939.2
38357.1
36073.5
44416.3
44092.3
49845.2
50518.1
54579.9
55705
58638.4
59908.5
62095.2
63355.7
65038.2
66212
67531.7
68581.3
69640.3
70560.7
71423
72236.1
72952.7
73684.7
74290
74960.5
75468.1
76105.4
76509.9
77135.2
77424.8
78081.8
78225.3
78987.1
78906.1
79865.9
79450
114517
109744
109138
108426
107674
107095
106616
106145
105724
105312
104936
104573
104247
103930
103648
103362
103104
102814
102546
102219
101915
101520
101167
100677
100272
99667.1
99206.4
98451.3
97938.3
96971.6
96421.9
95158.6
94591.7
92894.2
92367
90024.4
89645.6
86306
86296.7
81386.4
82126.2
74696
76889
65336.1
70302.3
51955.2
62331.7
32606
53107.9
2877.17
40997.9
-51677.3
11272.7
-259608
-37487.4
-69387.5
2496
-31177.5
16010.1
-4923.38
24650.8
12821.7
31758.1
25929.2
38348.7
36064.8
44408.9
44084.6
49838.4
50511.3
54573.9
55699
58633
59903
62090.2
63350.6
65033.3
66207.2
67527.1
68576.8
69636
70556.7
71419.1
72232.5
72949.2
73681.5
74286.8
74957.7
75465.1
76103
76507.1
77133.2
77422
78080.3
78222.2
78986.2
78902.4
79866.3
79445.1
114279
109707
109128
108401
107660
107084
106607
106136
105716
105304
104930
104566
104241
103925
103643
103358
103099
102809
102542
102214
101910
101515
101162
100671
100266
99660.3
99199.9
98443.4
97931.2
96962.6
96414
95148.1
94582.9
92882
92357.2
90009.8
89634.6
86288.6
86284.3
81365.3
82111.9
74670.1
76872.2
65303.9
70281.8
51915.9
62306
32559.3
53071.6
2819.1
40930.8
-51782.3
11224.1
-258312
-37250.1
-69539.8
2479.54
-31197.9
15996.1
-4937.36
24639.5
12810.1
31748.5
25919.1
38340.4
36055.9
44401.4
44076.7
49831.7
50504.4
54567.8
55692.9
58627.5
59897.5
62085.1
63345.4
65028.4
66202.3
67522.5
68572.3
69631.7
70552.6
71415.2
72228.9
72945.7
73678.3
74283.6
74955
75462.1
76100.6
76504.3
77131.2
77419.3
78078.8
78219.2
78985.4
78898.8
79866.8
79440
114053
109669
109118
108376
107646
107073
106597
106127
105708
105297
104923
104560
104235
103919
103638
103353
103095
102805
102538
102210
101906
101510
101157
100665
100261
99653.4
99193.5
98435.6
97924
96953.6
96406.1
95137.6
94574.1
92869.6
92347.4
89995.1
89623.7
86271
86271.8
81343.9
82097.7
74643.6
76855.3
65270.9
70261.3
51875.5
62280
32510.8
53034.3
2758.38
40862.1
-51889.5
11176.9
-257024
-37010
-69688.7
2464.17
-31218.9
15982.8
-4951.65
24628.7
12798.4
31739.1
25908.8
38332.2
36046.9
44394.1
44068.8
49825
50497.5
54561.8
55686.8
58622
59892
62079.9
63340.2
65023.5
66197.4
67517.8
68567.8
69627.4
70548.5
71411.3
72225.3
72942.2
73675
74280.3
74952.2
75459.1
76098.1
76501.5
77129.3
77416.5
78077.4
78216.2
78984.7
78895.1
79867.6
79434.8
113836
109633
109106
108350
107633
107061
106587
106118
105700
105289
104916
104554
104230
103914
103633
103348
103091
102801
102534
102205
101901
101505
101151
100659
100255
99646.6
99187.2
98427.7
97917
96944.6
96398.2
95127.1
94565.3
92857.3
92337.7
89980.4
89612.8
86253.2
86259.4
81322.1
82083.4
74616.8
76838.5
65237.3
70240.6
51834
62253.6
32460.8
52996.2
2695.39
40792.8
-51997.4
11132
-255744
-36768.1
-69834
2449.98
-31240.5
15970.1
-4966.22
24618.1
12786.4
31729.9
25898.3
38324.1
36037.9
44386.7
44060.8
49818.2
50490.5
54555.7
55680.5
58616.5
59886.4
62074.7
63334.9
65018.5
66192.4
67513.2
68563.2
69623.1
70544.5
71407.4
72221.7
72938.6
73671.8
74277.1
74949.4
75456.1
76095.7
76498.7
77127.3
77413.7
78076
78213.1
78984.1
78891.4
79868.4
79429.4
113628
109596
109093
108325
107619
107050
106577
106109
105692
105282
104909
104547
104224
103909
103628
103344
103086
102796
102530
102201
101897
101500
101146
100653
100249
99639.9
99180.9
98419.9
97909.9
96935.7
96390.4
95116.6
94556.6
92844.9
92328
89965.5
89601.9
86235.4
86247.1
81300.2
82069.3
74589.6
76821.7
65203.1
70220
51791.6
62227
32409.3
52957.6
2630.71
40723.3
-52104.8
11089.8
-254473
-36525.1
-69976
2436.99
-31262.5
15958
-4981.09
24607.9
12774.2
31720.9
25887.7
38316.1
36028.6
44379.4
44052.7
49811.5
50483.4
54549.6
55674.3
58611
59880.7
62069.5
63329.6
65013.5
66187.4
67508.5
68558.7
69618.8
70540.4
71403.5
72218
72935.1
73668.6
74273.8
74946.6
75453.1
76093.3
76495.8
77125.4
77410.9
78074.6
78210.1
78983.5
78887.7
79869.5
79423.8
113428
109560
109078
108299
107605
107038
106568
106100
105684
105274
104902
104541
104218
103903
103624
103339
103082
102792
102525
102196
101892
101495
101141
100648
100244
99633.2
99174.6
98412.2
97903
96926.7
96382.6
95106.1
94547.9
92832.5
92318.3
89950.7
89591.1
86217.5
86234.8
81278.2
82055.2
74562.2
76805
65168.5
70199.3
51748.5
62200.1
32356.7
52918.8
2564.93
40654.1
-52210.7
11050.6
-253210
-36281.8
-70114.9
2425.15
-31284.8
15946.5
-4996.23
24598.1
12761.8
31712
25877
38308.2
36019.3
44372.2
44044.5
49804.8
50476.3
54543.5
55668
58605.4
59875
62064.3
63324.3
65008.5
66182.4
67503.8
68554.1
69614.5
70536.3
71399.6
72214.4
72931.6
73665.4
74270.5
74943.8
75450.1
76090.9
76493
77123.5
77408.1
78073.2
78207.1
78983
78884
79870.7
79418.2
113236
109525
109062
108274
107591
107027
106558
106091
105676
105267
104895
104534
104212
103898
103619
103335
103078
102788
102521
102192
101888
101490
101136
100642
100238
99626.5
99168.4
98404.5
97896.1
96917.9
96374.9
95095.6
94539.3
92820.2
92308.8
89935.9
89580.5
86199.5
86222.7
81256.2
82041.3
74534.7
76788.4
65133.6
70178.7
51704.8
62173.2
32303.2
52880.1
2498.51
40585.5
-52314.6
11014.5
-251955
-36038.7
-70251
2414.35
-31307.4
15935.5
-5011.63
24588.5
12749.2
31703.3
25866.1
38300.3
36009.9
44364.9
44036.2
49798.1
50469.1
54537.4
55661.6
58599.8
59869.2
62059
63318.9
65003.5
66177.4
67499.1
68549.5
69610.1
70532.2
71395.7
72210.8
72928
73662.2
74267.2
74941
75447
76088.5
76490.1
77121.6
77405.3
78071.9
78204.1
78982.6
78880.3
79872
79412.4
113051
109489
109045
108249
107577
107015
106548
106082
105668
105259
104888
104528
104206
103893
103614
103330
103074
102784
102517
102187
101884
101485
101131
100636
100232
99619.9
99162.3
98396.8
97889.3
96909
96367.3
95085.2
94530.9
92807.9
92299.4
89921.1
89569.9
86181.6
86210.7
81234.1
82027.6
74507
76772
65098.4
70158.2
51660.5
62146.2
32249
52841.5
2431.85
40517.5
-52416.2
10981.3
-250710
-35796.3
-70384.6
2404.48
-31330
15925.1
-5027.26
24579.2
12736.4
31694.8
25855
38292.5
36000.4
44357.7
44027.9
49791.4
50461.8
54531.3
55655.1
58594.2
59863.4
62053.7
63313.5
64998.4
66172.3
67494.4
68544.9
69605.8
70528.1
71391.8
72207.1
72924.4
73658.9
74263.9
74938.3
75444
76086.1
76487.2
77119.7
77402.5
78070.7
78201
78982.2
78876.5
79873.5
79406.5
112873
109454
109027
108223
107564
107003
106538
106073
105660
105251
104881
104521
104200
103887
103609
103325
103069
102779
102513
102183
101879
101480
101127
100630
100227
99613.3
99156.2
98389.2
97882.5
96900.3
96359.8
95074.9
94522.5
92795.6
92290
89906.4
89559.5
86163.7
86198.9
81212
82013.9
74479.3
76755.7
65063
70137.7
51615.9
62119.3
32194.3
52803.2
2365.22
40450.5
-52515.1
10951
-249473
-35554.9
-70516
2395.38
-31352.7
15915.1
-5043.11
24570.2
12723.4
31686.3
25843.8
38284.8
35990.7
44350.5
44019.4
49784.6
50454.4
54525.1
55648.7
58588.5
59857.5
62048.3
63308
64993.3
66167.2
67489.7
68540.3
69601.5
70524
71387.8
72203.5
72920.8
73655.7
74260.6
74935.5
75440.9
76083.7
76484.4
77117.8
77399.7
78069.5
78198
78981.9
78872.8
79875.1
79400.5
112701
109419
109009
108198
107550
106991
106528
106064
105652
105243
104874
104515
104195
103882
103604
103321
103065
102775
102510
102179
101875
101475
101122
100625
100222
99606.8
99150.2
98381.7
97875.8
96891.6
96352.3
95064.6
94514.2
92783.5
92280.8
89891.7
89549.1
86145.9
86187.1
81189.9
82000.5
74451.5
76739.5
65027.4
70117.3
51570.9
62092.4
32139.3
52765.3
2298.86
40384.4
-52611.2
10923.5
-248245
-35314.5
-70645.2
2386.93
-31375.5
15905.5
-5059.16
24561.4
12710.2
31678.1
25832.5
38277.2
35981
44343.3
44010.9
49777.9
50447
54518.9
55642.1
58582.8
59851.5
62043
63302.5
64988.2
66162.1
67485
68535.7
69597.1
70519.9
71383.9
72199.8
72917.3
73652.4
74257.3
74932.7
75437.8
76081.4
76481.5
77116
77397
78068.3
78195
78981.6
78869
79876.9
79394.3
112536
109384
108989
108173
107536
106979
106518
106055
105643
105236
104867
104508
104189
103876
103600
103316
103061
102771
102506
102175
101871
101470
101117
100619
100216
99600.4
99144.3
98374.2
97869.2
96882.9
96344.9
95054.4
94505.9
92771.3
92271.7
89877
89538.9
86128.1
86175.5
81167.8
81987.1
74423.7
76723.4
64991.7
70096.9
51525.7
62065.6
32084.2
52727.9
2232.92
40319.2
-52704.6
10898.8
-247026
-35075.5
-70772.6
2378.99
-31398.3
15896.4
-5075.37
24552.9
12696.9
31669.9
25821
38269.6
35971.1
44336.2
44002.3
49771.1
50439.5
54512.7
55635.5
58577.1
59845.6
62037.6
63297
64983.1
66157
67480.3
68531.1
69592.8
70515.7
71380
72196.2
72913.7
73649.2
74254
74929.9
75434.8
76079
76478.6
77114.2
77394.2
78067.1
78192
78981.5
78865.3
79878.8
79388.1
112376
109349
108968
108148
107522
106967
106508
106045
105635
105228
104860
104502
104183
103871
103595
103312
103057
102767
102502
102170
101867
101465
101112
100614
100211
99594
99138.4
98366.8
97862.7
96874.4
96337.6
95044.3
94497.8
92759.3
92262.6
89862.5
89528.8
86110.3
86164
81145.7
81973.9
74395.9
76707.5
64955.9
70076.7
51480.2
62039
32028.9
52691.1
2167.5
40255.1
-52795
10876.5
-245816
-34837.8
-70898.2
2371.48
-31421.2
15887.6
-5091.75
24544.6
12683.4
31661.9
25809.4
38262.1
35961.1
44329
43993.6
49764.4
50432
54506.5
55628.8
58571.4
59839.5
62032.2
63291.4
64977.9
66151.9
67475.5
68526.5
69588.5
70511.6
71376
72192.5
72910.1
73646
74250.6
74927.1
75431.7
76076.6
76475.7
77112.4
77391.4
78066
78189
78981.3
78861.5
79880.8
79381.8
112221
109314
108946
108123
107508
106955
106498
106036
105627
105220
104853
104495
104177
103866
103590
103307
103053
102763
102498
102166
101863
101460
101108
100608
100206
99587.6
99132.6
98359.4
97856.2
96865.8
96330.4
95034.2
94489.8
92747.3
92253.7
89848
89518.8
86092.6
86152.7
81123.7
81960.8
74368
76691.7
64919.9
70056.5
51434.5
62012.5
31973.7
52654.8
2102.69
40192
-52882.6
10856.7
-244615
-34601.5
-71022.1
2364.28
-31444.2
15879.2
-5108.26
24536.6
12669.7
31653.9
25797.7
38254.6
35951.1
44321.9
43984.8
49757.6
50424.3
54500.3
55622.1
58565.6
59833.5
62026.7
63285.8
64972.8
66146.8
67470.8
68521.9
69584.1
70507.5
71372.1
72188.8
72906.5
73642.7
74247.3
74924.3
75428.6
76074.3
76472.8
77110.6
77388.6
78065
78186
78981.3
78857.7
79882.9
79375.4
112072
109279
108924
108099
107494
106942
106487
106027
105619
105212
104846
104489
104171
103860
103586
103303
103049
102759
102494
102162
101859
101456
101103
100603
100201
99581.4
99126.9
98352.1
97849.8
96857.4
96323.3
95024.2
94481.8
92735.4
92244.8
89833.5
89508.9
86075
86141.4
81101.7
81947.9
74340.2
76676
64883.9
70036.3
51388.7
61986.2
31918.6
52619
2038.53
40129.8
-52967.4
10839.2
-243422
-34366.7
-71144.4
2357.34
-31467.3
15871.1
-5124.91
24528.7
12655.8
31646.1
25785.8
38247.1
35940.9
44314.7
43975.9
49750.8
50416.6
54494
55615.3
58559.8
59827.4
62021.3
63280.2
64967.6
66141.6
67466.1
68517.3
69579.8
70503.4
71368.2
72185.2
72902.9
73639.5
74243.9
74921.5
75425.5
76071.9
76470
77108.8
77385.9
78063.9
78183.1
78981.3
78853.9
79885.2
79368.9
111927
109245
108901
108074
107479
106930
106477
106017
105610
105204
104839
104482
104165
103855
103581
103299
103045
102755
102491
102158
101855
101451
101099
100598
100195
99575.1
99121.2
98344.9
97843.5
96849
96316.2
95014.3
94473.9
92723.5
92236.1
89819.2
89499.1
86057.4
86130.3
81079.8
81935
74312.3
76660.4
64847.8
70016.3
51342.8
61960.2
31863.6
52583.9
1975.04
40068.6
-53049.4
10823.9
-242239
-34133.2
-71265.2
2350.59
-31490.5
15863.2
-5141.68
24521
12641.9
31638.3
25773.7
38239.7
35930.6
44307.6
43966.9
49744
50408.9
54487.7
55608.5
58554
59821.2
62015.8
63274.6
64962.5
66136.4
67461.3
68512.6
69575.5
70499.3
71364.2
72181.5
72899.3
73636.2
74240.6
74918.7
75422.4
76069.6
76467.1
77107.1
77383.1
78062.9
78180.1
78981.3
78850.1
79887.5
79362.3
111787
109210
108877
108049
107465
106917
106467
106008
105602
105197
104832
104475
104160
103850
103576
103294
103041
102751
102487
102154
101851
101446
101094
100592
100190
99569
99115.6
98337.7
97837.2
96840.7
96309.2
95004.4
94466.1
92711.7
92227.4
89804.9
89489.4
86039.8
86119.3
81057.9
81922.3
74284.4
76644.8
64811.6
69996.3
51296.8
61934.3
31808.8
52549.3
1912.25
40008.4
-53128.8
10810.7
-241064
-33901.2
-71384.5
2343.99
-31513.9
15855.5
-5158.57
24513.5
12627.7
31630.7
25761.6
38232.3
35920.1
44300.4
43957.9
49737.2
50401
54481.4
55601.7
58548.2
59815.1
62010.3
63268.9
64957.3
66131.3
67456.6
68508
69571.1
70495.2
71360.3
72177.9
72895.6
73633
74237.2
74915.9
75419.3
76067.2
76464.2
77105.3
77380.3
78062
78177.1
78981.4
78846.3
79890
79355.6
111652
109175
108853
108025
107451
106905
106457
105999
105594
105189
104825
104469
104154
103844
103572
103290
103038
102748
102483
102150
101847
101442
101090
100587
100185
99562.9
99110
98330.6
97831
96832.4
96302.3
94994.6
94458.4
92700
92218.8
89790.6
89479.8
86022.4
86108.4
81036
81909.7
74256.6
76629.3
64775.3
69976.4
51250.7
61908.7
31754.3
52515.3
1850.16
39949.1
-53205.5
10799.4
-239897
-33670.7
-71502.3
2337.5
-31537.5
15848.1
-5175.59
24506.1
12613.4
31623.1
25749.2
38224.9
35909.6
44293.3
43948.7
49730.3
50393.1
54475.1
55594.7
58542.4
59808.9
62004.8
63263.2
64952.1
66126.1
67451.9
68503.4
69566.8
70491
71356.3
72174.2
72892
73629.7
74233.9
74913.2
75416.2
76064.9
76461.3
77103.6
77377.6
78061.1
78174.2
78981.6
78842.5
79892.6
79348.9
111521
109141
108828
108000
107437
106892
106446
105989
105586
105181
104818
104462
104148
103839
103567
103286
103034
102744
102480
102146
101843
101437
101085
100582
100181
99556.8
99104.5
98323.6
97824.9
96824.2
96295.4
94984.8
94450.8
92688.4
92210.3
89776.4
89470.3
86004.9
86097.6
81014.2
81897.2
74228.7
76613.9
64738.9
69956.5
51204.6
61883.4
31700.1
52481.9
1788.76
39890.6
-53279.6
10790
-238740
-33441.5
-71618.7
2331.1
-31561.3
15840.7
-5192.74
24498.8
12598.9
31615.5
25736.8
38217.6
35899
44286.1
43939.5
49723.5
50385.2
54468.7
55587.8
58536.5
59802.6
61999.3
63257.5
64947
66120.9
67447.2
68498.8
69562.5
70486.9
71352.4
72170.5
72888.4
73626.5
74230.5
74910.4
75413
76062.6
76458.4
77102
77374.8
78060.2
78171.2
78981.8
78838.6
79895.2
79342.1
111395
109106
108802
107976
107422
106879
106436
105980
105577
105173
104811
104456
104142
103834
103563
103281
103030
102740
102476
102142
101840
101433
101081
100577
100176
99550.8
99099.1
98316.6
97818.8
96816.1
96288.6
94975.1
94443.2
92676.8
92201.9
89762.3
89460.9
85987.6
86086.9
80992.4
81884.7
74200.7
76598.6
64702.4
69936.7
51158.5
61858.3
31646.1
52449
1728.05
39833.1
-53351.2
10782.3
-237591
-33213.7
-71733.5
2324.78
-31585.2
15833.5
-5210.01
24491.7
12584.3
31608
25724.2
38210.2
35888.2
44278.9
43930.1
49716.6
50377.1
54462.3
55580.7
58530.6
59796.3
61993.8
63251.8
64941.8
66115.8
67442.5
68494.2
69558.2
70482.8
71348.5
72166.9
72884.8
73623.2
74227.1
74907.6
75409.9
76060.3
76455.5
77100.3
77372.1
78059.4
78168.3
78982.1
78834.8
79898
79335.2
111272
109072
108776
107952
107408
106867
106426
105970
105569
105165
104804
104449
104137
103829
103558
103277
103026
102736
102473
102138
101836
101428
101077
100572
100171
99544.9
99093.7
98309.6
97812.8
96808
96281.9
94965.5
94435.7
92665.2
92193.5
89748.3
89451.6
85970.3
86076.3
80970.7
81872.3
74172.8
76583.2
64665.9
69916.9
51112.4
61833.4
31592.5
52416.6
1668.02
39776.3
-53420.3
10776.4
-236450
-32987.2
-71846.9
2318.52
-31609.4
15826.3
-5227.43
24484.6
12569.6
31600.5
25711.4
38202.9
35877.3
44271.7
43920.7
49709.7
50369
54455.9
55573.7
58524.7
59790
61988.2
63246.1
64936.7
66110.6
67437.8
68489.6
69553.9
70478.7
71344.5
72163.2
72881.1
73620
74223.7
74904.8
75406.8
76058
76452.7
77098.7
77369.4
78058.6
78165.3
78982.4
78830.9
79900.8
79328.3
111154
109038
108750
107928
107393
106854
106415
105961
105560
105157
104797
104443
104131
103824
103554
103273
103023
102733
102470
102135
101832
101424
101073
100567
100166
99539
99088.4
98302.8
97806.8
96800
96275.3
94956
94428.3
92653.8
92185.3
89734.3
89442.3
85953
86065.7
80948.9
81860
74144.8
76567.9
64629.3
69897.3
51066.3
61808.9
31539.1
52384.7
1608.64
39720.4
-53487.1
10772
-235318
-32762.1
-71958.8
2312.31
-31633.9
15819.2
-5244.98
24477.6
12554.6
31593.1
25698.6
38195.5
35866.3
44264.5
43911.2
49702.7
50360.9
54449.5
55566.5
58518.8
59783.7
61982.7
63240.4
64931.5
66105.5
67433.1
68485
69549.6
70474.6
71340.6
72159.6
72877.5
73616.7
74220.4
74902.1
75403.7
76055.7
76449.8
77097.1
77366.6
78057.8
78162.4
78982.8
78827
79903.7
79321.4
111039
109003
108723
107904
107379
106841
106405
105951
105552
105150
104790
104437
104125
103819
103549
103269
103019
102729
102466
102131
101829
101420
101068
100562
100161
99533.2
99083.1
98296
97800.9
96792
96268.7
94946.5
94420.9
92642.4
92177.1
89720.3
89433.1
85935.8
86055.2
80927.2
81847.8
74116.8
76552.7
64592.6
69877.6
51020.2
61784.6
31486.1
52353.4
1549.91
39665.3
-53551.5
10769.2
-234195
-32538.4
-72069.3
2306.16
-31658.5
15812.1
-5262.68
24470.6
12539.6
31585.7
25685.5
38188.1
35855.2
44257.3
43901.6
49695.8
50352.6
54443.1
55559.4
58512.8
59777.4
61977.2
63234.7
64926.4
66100.3
67428.4
68480.4
69545.3
70470.5
71336.7
72155.9
72873.9
73613.5
74217
74899.3
75400.6
76053.5
76446.9
77095.5
77363.9
78057.1
78159.5
78983.1
78823.1
79906.7
79314.3
110927
108969
108696
107880
107364
106828
106394
105942
105544
105142
104783
104430
104120
103814
103545
103265
103015
102726
102463
102127
101825
101416
101064
100557
100157
99527.4
99077.9
98289.2
97795.1
96784.1
96262.1
94937
94413.6
92631
92169
89706.5
89424
85918.6
86044.8
80905.5
81835.5
74088.8
76537.4
64555.9
69858.1
50974.2
61760.5
31433.4
52322.5
1491.82
39610.9
-53613.7
10767.8
-233080
-32315.9
-72178.2
2300.06
-31683.3
15805.1
-5280.53
24463.7
12524.3
31578.3
25672.3
38180.8
35843.9
44250
43891.9
49688.8
50344.3
54436.6
55552.2
58506.9
59771
61971.6
63229
64921.3
66095.2
67423.8
68475.8
69541.1
70466.5
71332.8
72152.3
72870.3
73610.3
74213.6
74896.6
75397.4
76051.2
76444
77093.9
77361.2
78056.4
78156.5
78983.6
78819.2
79909.8
79307.3
110819
108935
108668
107856
107349
106815
106384
105932
105535
105134
104776
104424
104114
103808
103541
103261
103012
102722
102460
102124
101822
101411
101060
100552
100152
99521.7
99072.7
98282.5
97789.3
96776.2
96255.7
94927.6
94406.4
92619.7
92160.9
89692.6
89415
85901.5
86034.5
80883.8
81823.4
74060.7
76522.2
64519.1
69838.6
50928.2
61736.8
31381
52292
1434.34
39557.3
-53673.7
10767.7
-231974
-32094.7
-72285.7
2294.02
-31708.4
15798
-5298.53
24456.8
12509
31570.8
25659
38173.4
35832.6
44242.7
43882.1
49681.7
50335.9
54430.1
55544.9
58500.9
59764.6
61966.1
63223.3
64916.2
66090.1
67419.2
68471.3
69536.8
70462.4
71328.8
72148.6
72866.6
73607
74210.2
74893.8
75394.3
76049
76441.1
77092.4
77358.5
78055.7
78153.6
78984.1
78815.3
79912.9
79300.1
110715
108901
108641
107832
107334
106802
106373
105923
105527
105126
104769
104417
104109
103803
103536
103257
103008
102719
102456
102120
101818
101407
101056
100547
100148
99516
99067.6
98275.8
97783.6
96768.4
96249.3
94918.3
94399.3
92608.5
92152.9
89678.9
89406
85884.4
86024.2
80862.1
81811.2
74032.6
76506.9
64482.2
69819.2
50882.4
61713.3
31329
52262
1377.46
39504.4
-53731.6
10768.9
-230876
-31874.8
-72391.7
2288.04
-31733.7
15791
-5316.69
24449.9
12493.4
31563.4
25645.5
38166
35821.1
44235.4
43872.2
49674.7
50327.5
54423.6
55537.6
58495
59758.2
61960.6
63217.6
64911.1
66085
67414.6
68466.7
69532.6
70458.3
71324.9
72145
72863
73603.8
74206.8
74891.1
75391.2
76046.7
76438.2
77090.8
77355.8
78055
78150.6
78984.6
78811.3
79916.1
79293
110613
108867
108612
107809
107319
106789
106363
105913
105518
105118
104762
104411
104103
103798
103532
103253
103005
102715
102453
102117
101815
101403
101052
100542
100143
99510.4
99062.5
98269.2
97777.9
96760.7
96242.9
94909
94392.2
92597.3
92145
89665.2
89397.1
85867.4
86014
80840.4
81799.1
74004.4
76491.6
64445.3
69799.8
50836.6
61690
31277.3
52232.4
1321.18
39452.2
-53787.3
10771.4
-229786
-31656.2
-72496.2
2282.14
-31759.1
15783.9
-5334.99
24443
12477.8
31556
25631.9
38158.5
35809.5
44228
43862.2
49667.6
50319
54417.1
55530.3
58489
59751.8
61955.1
63211.9
64906.1
66079.9
67410
68462.2
69528.3
70454.3
71321
72141.3
72859.4
73600.6
74203.4
74888.3
75388.1
76044.5
76435.4
77089.3
77353
78054.4
78147.6
78985.1
78807.3
79919.3
79285.8
110515
108833
108584
107785
107304
106776
106352
105903
105510
105110
104755
104405
104098
103794
103528
103249
103002
102712
102450
102113
101811
101399
101048
100537
100139
99504.8
99057.5
98262.7
97772.3
96753
96236.6
94899.8
94385.1
92586.2
92137.1
89651.5
89388.3
85850.3
86003.8
80818.7
81787
73976.1
76476.4
64408.3
69780.5
50790.9
61667
31225.9
52203.2
1265.47
39400.7
-53841.1
10775
-228704
-31438.7
-72599.1
2276.3
-31784.8
15776.9
-5353.44
24436.1
12461.9
31548.5
25618.2
38151.1
35797.8
44220.7
43852.2
49660.5
50310.4
54410.5
55522.9
58483
59745.3
61949.6
63206.2
64901.1
66074.8
67405.4
68457.7
69524.1
70450.2
71317.1
72137.7
72855.8
73597.4
74200
74885.6
75385
76042.3
76432.5
77087.8
77350.3
78053.8
78144.7
78985.7
78803.3
79922.6
79278.5
110420
108800
108556
107762
107289
106763
106342
105894
105502
105102
104748
104398
104092
103789
103524
103245
102998
102709
102447
102110
101808
101395
101045
100533
100134
99499.3
99052.6
98256.2
97766.8
96745.3
96230.4
94890.6
94378.1
92575.1
92129.3
89637.8
89379.5
85833.3
85993.6
80797
81774.8
73947.8
76461.1
64371.2
69761.3
50745.3
61644.3
31174.8
52174.5
1210.32
39349.9
-53892.8
10779.6
-227631
-31222.5
-72700.5
2270.56
-31810.6
15769.8
-5372.04
24429.2
12445.9
31541
25604.3
38143.6
35785.9
44213.3
43842
49653.4
50301.8
54403.9
55515.5
58477
59738.9
61944.2
63200.5
64896.1
66069.8
67400.9
68453.2
69519.9
70446.2
71313.3
72134.1
72852.1
73594.1
74196.7
74882.9
75381.8
76040.1
76429.6
77086.3
77347.6
78053.2
78141.7
78986.2
78799.3
79926
79271.3
110327
108766
108527
107739
107274
106749
106331
105884
105493
105095
104741
104392
104087
103784
103520
103242
102995
102705
102444
102106
101805
101391
101041
100528
100130
99493.8
99047.7
98249.7
97761.2
96737.7
96224.2
94881.5
94371.2
92564.1
92121.5
89624.3
89370.7
85816.3
85983.5
80775.3
81762.7
73919.4
76445.7
64334.1
69742.2
50699.8
61621.8
31124
52146
1155.71
39299.7
-53942.6
10785.3
-226566
-31007.6
-72800.4
2264.9
-31836.6
15762.8
-5390.78
24422.3
12429.8
31533.5
25590.2
38136
35774
44205.8
43831.8
49646.2
50293.1
54397.4
55508.1
58471.1
59732.4
61938.7
63194.9
64891.1
66064.7
67396.4
68448.8
69515.8
70442.2
71309.4
72130.5
72848.5
73590.9
74193.3
74880.2
75378.7
76037.9
76426.7
77084.9
77344.9
78052.6
78138.7
78986.8
78795.2
79929.4
79263.9
110237
108733
108498
107716
107259
106736
106321
105875
105485
105087
104734
104386
104081
103779
103516
103238
102992
102702
102441
102103
101801
101387
101037
100523
100125
99488.4
99042.8
98243.3
97755.8
96730.2
96218
94872.5
94364.3
92553.1
92113.8
89610.7
89362
85799.4
85973.4
80753.5
81750.5
73890.9
76430.4
64297
69723.1
50654.5
61599.5
31073.5
52118
1101.65
39250.1
-53990.5
10791.9
-225509
-30793.8
-72898.8
2259.34
-31862.7
15755.7
-5409.65
24415.3
12413.5
31526
25576.1
38128.5
35761.9
44198.4
43821.4
49639
50284.3
54390.7
55500.6
58465.1
59726
61933.3
63189.2
64886.2
66059.8
67391.9
68444.3
69511.6
70438.2
71305.5
72126.9
72844.9
73587.7
74189.9
74877.5
75375.6
76035.8
76423.8
77083.4
77342.1
78052.1
78135.7
78987.5
78791.1
79932.8
79256.6
110150
108699
108469
107693
107244
106723
106310
105865
105476
105079
104727
104380
104076
103774
103512
103234
102988
102699
102438
102100
101798
101383
101033
100519
100121
99483
99038
98236.9
97750.4
96722.6
96211.9
94863.4
94357.5
92542.1
92106.2
89597.2
89353.4
85782.4
85963.3
80731.7
81738.3