/*--------------------------------*- C++ -*----------------------------------*\
| =========                 |                                                 |
| \\      /  F ield         | OpenFOAM: The Open Source CFD Toolbox           |
|  \\    /   O peration     | Version:  2412                                  |
|   \\  /    A nd           | Website:  www.openfoam.com                      |
|    \\/     M anipulation  |                                                 |
\*---------------------------------------------------------------------------*/
FoamFile
{
    version     2.0;
    format      ascii;
    arch        "LSB;label=32;scalar=64";
    class       surfaceScalarField;
    location    "0.8";
    object      phi;
}
// * * * * * * * * * * * * * * * * * * * * * * * * * * * * * * * * * * * * * //

dimensions      [0 3 -1 0 0 0 0];

oriented        oriented;

internalField   nonuniform List<scalar> 
155925
(
0.00839077
-0.000815015
0.00770089
0.000689879
0.00844773
-0.000746832
0.00867684
-0.000229111
0.00867267
4.17188e-06
0.00857778
9.4886e-05
0.00844148
0.000136298
0.00828452
0.000156968
0.00814064
0.00014388
0.00799249
0.000148143
0.00784757
0.000144921
0.00769114
0.000156435
0.00753413
0.000157013
0.00736716
0.000166965
0.00720427
0.000162892
0.00703676
0.00016751
0.00688364
0.000153116
0.00672689
0.000156753
0.00659217
0.000134719
0.0064522
0.000139975
0.00633846
0.000113739
0.00621283
0.000125628
0.00612083
9.20068e-05
0.00600254
0.000118283
0.00592942
7.31218e-05
0.00581457
0.000114857
0.00576011
5.44558e-05
0.00564413
0.000115979
0.00561319
3.09443e-05
0.00548882
0.000124369
0.00548744
1.37946e-06
0.00534491
0.00014253
0.00538025
-3.53377e-05
0.00521148
0.000168771
0.00529627
-8.47923e-05
0.00508821
0.000208063
0.00523918
-0.000150965
0.00497143
0.000267746
0.00521057
-0.000239138
0.00486043
0.000350136
0.00521356
-0.000353127
0.0047526
0.000460957
0.00524921
-0.000496608
0.00464216
0.000607044
0.00530798
-0.000665816
0.00450634
0.00080164
0.00536588
-0.00085954
0.004337
0.00102888
0.00544171
-0.00110471
0.00422701
0.0012147
0.00566597
-0.00143896
0.00470196
0.000964007
0.00749004
-0.00278808
0.00411063
0.0033794
0.0044393
-0.00032866
0.00319564
0.00124367
0.00394649
-0.000750849
0.00319828
0.000748204
0.00386851
-0.000670224
0.00326977
0.000598736
0.00380406
-0.000534288
0.00333713
0.000466926
0.00372972
-0.000392592
0.00337997
0.000349748
0.00365793
-0.000277956
0.00341169
0.000246237
0.00360328
-0.00019159
0.00343408
0.000169203
0.00356116
-0.000127086
0.00344479
0.000116376
0.00352556
-8.07734e-05
0.00344877
7.67999e-05
0.00350114
-5.23759e-05
0.0034572
4.39479e-05
0.00349782
-4.06222e-05
0.00348553
1.22952e-05
0.00352781
-4.2285e-05
0.00354694
-1.91281e-05
0.0035982
-5.12535e-05
0.0036411
-4.28979e-05
0.003699
-5.79069e-05
0.00375453
-5.55238e-05
0.00380976
-5.52304e-05
0.00386657
-5.68125e-05
0.00391094
-4.43671e-05
0.00396305
-5.21046e-05
0.00399401
-3.0963e-05
0.00404231
-4.83047e-05
0.0040586
-1.62927e-05
0.00411166
-5.30644e-05
0.00411582
-4.1564e-06
0.0041854
-6.95889e-05
0.00417702
8.38027e-06
0.00428256
-0.000105543
0.00425697
2.55911e-05
0.00443077
-0.0001738
0.00436453
6.62334e-05
0.0046572
-0.00029267
0.000136008
0.0110388
-0.00427806
0.00999136
0.00173732
0.00993916
-0.000694637
0.00989152
-0.000181467
0.00983873
5.69597e-05
0.00978192
0.000151703
0.00969857
0.000219646
0.00957769
0.000277847
0.00944088
0.000280695
0.00928643
0.000302584
0.00912683
0.000304524
0.00895642
0.000326842
0.00878298
0.000330457
0.00860038
0.000349561
0.00841755
0.000345724
0.00822902
0.00035604
0.00804906
0.000333077
0.00786735
0.000338469
0.00770213
0.000299934
0.00753705
0.000305056
0.00739332
0.00025747
0.00724624
0.000272715
0.00712598
0.000212266
0.00699289
0.000251367
0.00689278
0.000173235
0.00676927
0.000238367
0.0066876
0.000136127
0.00656913
0.000234453
0.00650819
9.18848e-05
0.00638966
0.000242898
0.00635236
3.86745e-05
0.0062318
0.000263091
0.00622419
-2.77259e-05
0.00609369
0.000299267
0.0061217
-0.0001128
0.00597317
0.000356598
0.00604698
-0.000224782
0.00586854
0.000446192
0.00600049
-0.000371089
0.00577932
0.000571305
0.00598395
-0.000557763
0.00570407
0.000740846
0.00599667
-0.000789215
0.00563724
0.000966471
0.00602653
-0.0010551
0.0055559
0.00127227
0.00604205
-0.0013457
0.00544539
0.00162554
0.00605468
-0.001714
0.00539665
0.00187274
0.00619116
-0.00223347
0.00595728
0.00119789
0.00810572
-0.00493652
0.00587557
0.00560955
0.00509255
0.000454364
0.00414428
0.00219194
0.00434505
-0.000951618
0.00400992
0.00108334
0.00424179
-0.000902097
0.00400513
0.000835393
0.00419359
-0.000722745
0.00401005
0.000650465
0.00413834
-0.000520877
0.00399496
0.000493125
0.00407742
-0.000360417
0.00397428
0.000349381
0.00402683
-0.000244147
0.00395428
0.00024176
0.00398533
-0.000158141
0.00393288
0.000168827
0.0039489
-9.67965e-05
0.00391296
0.000112747
0.00392336
-6.27766e-05
0.00390531
6.19967e-05
0.00392103
-5.63357e-05
0.00392638
6.94005e-06
0.0039586
-7.45015e-05
0.00399197
-5.24959e-05
0.00404428
-0.000103566
0.00410002
-9.86314e-05
0.00416539
-0.000123279
0.00423207
-0.000122204
0.00429852
-0.000121682
0.00436397
-0.000122265
0.00442166
-0.000102054
0.00447904
-0.000109486
0.00452473
-7.66521e-05
0.00457392
-9.7492e-05
0.00460772
-5.01021e-05
0.00465498
-0.000100318
0.00468206
-3.12413e-05
0.00473713
-0.00012466
0.00476236
-1.68501e-05
0.00483892
-0.000182103
0.00486736
-2.85678e-06
0.00498844
-0.00029488
0.00501388
4.07979e-05
0.00521626
-0.00049505
0.000129707
0.00899296
-0.00569526
0.00972954
0.00100074
0.0103032
-0.00126833
0.0103428
-0.000221078
0.010259
0.000140774
0.0101612
0.000249542
0.0100552
0.000325673
0.00993441
0.000398602
0.00980897
0.000406132
0.00967252
0.000439038
0.00953064
0.0004464
0.0093783
0.00047918
0.0092204
0.00048836
0.00905267
0.000517285
0.0088814
0.000516999
0.00870319
0.000534253
0.00852877
0.000507493
0.00835167
0.000515574
0.00818591
0.000465689
0.00802059
0.000470379
0.00787179
0.000406274
0.00772214
0.000422361
0.00759399
0.000340414
0.00745851
0.000386847
0.00734932
0.000282428
0.00722498
0.000362711
0.00713348
0.000227622
0.00701672
0.000351217
0.0069445
0.000164103
0.00683113
0.000356273
0.00678014
8.96629e-05
0.00666755
0.000375676
0.00664296
-3.12758e-06
0.00652568
0.000416545
0.00653208
-0.000119198
0.0064032
0.000485479
0.00644874
-0.000270321
0.00629838
0.000596549
0.00639322
-0.000465935
0.00621081
0.000753723
0.00636728
-0.000714232
0.00613937
0.000968749
0.0063703
-0.00102014
0.00607869
0.00125808
0.00639024
-0.00136665
0.00600587
0.00165665
0.00639435
-0.00173418
0.00590536
0.00211453
0.00639001
-0.00219865
0.00587006
0.00239269
0.00650388
-0.0028673
0.0064682
0.00123357
0.00840018
-0.0068685
0.00652925
0.00748048
0.00557734
0.00140628
0.00462244
0.00314684
0.00463517
-0.00096435
0.00437587
0.00134264
0.00448176
-0.00100799
0.00432855
0.000988606
0.00442156
-0.000815758
0.00430728
0.000764749
0.00436352
-0.000577122
0.0042708
0.000585852
0.00429985
-0.000389474
0.00423083
0.000418408
0.00424496
-0.000258281
0.00419463
0.000292089
0.00419879
-0.000162299
0.00416062
0.000207001
0.00415837
-9.45502e-05
0.00413139
0.000139724
0.00413016
-6.15463e-05
0.00411822
7.39407e-05
0.00412797
-6.60839e-05
0.00413869
-3.78371e-06
0.00416986
-0.000105666
0.00420895
-9.15871e-05
0.00426384
-0.000158459
0.00432556
-0.000160352
0.00439553
-0.000193243
0.00446782
-0.000194493
0.00453982
-0.000193682
0.00461002
-0.000192464
0.00467368
-0.000165718
0.00473463
-0.000170432
0.00478654
-0.000128565
0.00483781
-0.000148764
0.0048786
-9.08898e-05
0.00492573
-0.000147447
0.00496137
-6.68845e-05
0.00501312
-0.000176413
0.00505014
-5.38653e-05
0.00511852
-0.00025049
0.00516513
-4.94686e-05
0.0052698
-0.000399548
0.00532489
-1.42918e-05
0.00549618
-0.000666339
8.25679e-05
0.00890883
-0.00702833
0.00947535
0.000434217
0.0101011
-0.00189409
0.0102334
-0.000353365
0.0102237
0.000150476
0.010164
0.000309198
0.0100807
0.000409002
0.00998164
0.000497685
0.00987679
0.000510976
0.00976246
0.000553367
0.00964167
0.000567195
0.0095107
0.000610154
0.0093725
0.000626552
0.00922441
0.000665375
0.00907079
0.000670622
0.0089098
0.000695243
0.00874944
0.000667858
0.0085857
0.000679309
0.0084291
0.000622289
0.00827244
0.000627038
0.00812785
0.000550868
0.00798316
0.000567055
0.00785528
0.000468294
0.00772302
0.000519106
0.0076118
0.000393646
0.00749056
0.000483955
0.00739578
0.000322398
0.00728313
0.000463872
0.00720638
0.000240848
0.00709891
0.000463744
0.00704178
0.000146789
0.00693684
0.000480623
0.00690376
2.99528e-05
0.00679682
0.000523486
0.00679205
-0.00011443
0.00667673
0.000600798
0.00670742
-0.000301012
0.00657464
0.000729334
0.00665005
-0.000541347
0.00648999
0.000913787
0.00662168
-0.000845924
0.00642181
0.00116862
0.00662196
-0.00122029
0.00636496
0.00151508
0.00663938
-0.00164107
0.00629706
0.00199896
0.00664096
-0.00207808
0.00620268
0.0025528
0.00662939
-0.00262536
0.00617618
0.0028459
0.00672369
-0.00341481
0.00679135
0.00116591
0.00851448
-0.00859164
0.00696441
0.00903054
0.00599443
0.00237627
0.00499576
0.00414551
0.00489261
-0.000861204
0.00463845
0.00159679
0.00468022
-0.00104975
0.00455129
0.00111753
0.00460025
-0.000864719
0.00450945
0.000855548
0.00453381
-0.000601482
0.00445863
0.000661039
0.00446423
-0.000395074
0.00440645
0.000476182
0.00440353
-0.000255358
0.00435997
0.000335644
0.00435202
-0.000154341
0.00431785
0.000241169
0.00430729
-8.39884e-05
0.00428272
0.000164294
0.00427633
-5.51615e-05
0.00426644
8.38343e-05
0.00427412
-7.37641e-05
0.00428761
-1.72697e-05
0.00431952
-0.000137581
0.00436229
-0.00013435
0.00441983
-0.000216004
0.00448558
-0.0002261
0.00455899
-0.000266655
0.00463503
-0.000270533
0.00471064
-0.000269289
0.00478401
-0.000265837
0.00485123
-0.000232938
0.00491469
-0.000233885
0.00497011
-0.000183986
0.00502319
-0.000201852
0.00506778
-0.000135474
0.00511579
-0.000195462
0.00515593
-0.000107021
0.00520731
-0.000227795
0.00525032
-9.68796e-05
0.00531659
-0.000316755
0.00537218
-0.000105066
0.00547141
-0.000498777
0.00554024
-8.31221e-05
0.00569849
-0.000824591
1.73061e-05
0.00893964
-0.00839221
0.00949811
-0.000124253
0.00992377
-0.00231976
0.0100587
-0.000488327
0.0100962
0.000113033
0.0100757
0.000329659
0.0100221
0.000462641
0.00994707
0.000572691
0.00986119
0.000596858
0.00976405
0.000650501
0.00965845
0.000672798
0.00954217
0.000726437
0.00941737
0.000751349
0.00928262
0.000800123
0.00914125
0.000811993
0.00899268
0.000843816
0.00884311
0.000817427
0.00869041
0.000832004
0.00854242
0.000770277
0.00839464
0.00077482
0.00825592
0.000689587
0.00811799
0.000704985
0.00799327
0.000593016
0.00786655
0.000645827
0.00775653
0.000503662
0.00764058
0.000599911
0.00754574
0.000417234
0.00743903
0.000570587
0.00736099
0.00031889
0.00726084
0.000563888
0.00720094
0.000206692
0.00710488
0.000576685
0.00706682
6.8005e-05
0.00697085
0.000619457
0.00695862
-0.000102198
0.00685681
0.000702609
0.00687683
-0.000321033
0.00676057
0.000845597
0.00682146
-0.000602238
0.00668127
0.00105398
0.00679419
-0.00095884
0.00661796
0.00134485
0.00679482
-0.00139716
0.00656577
0.00174413
0.0068124
-0.0018877
0.00650329
0.00230808
0.00681439
-0.00238918
0.00641641
0.00295078
0.00679873
-0.00300767
0.00640043
0.00324421
0.00687111
-0.00388549
0.00701128
0.00102574
0.00850458
-0.0100849
0.00730716
0.010228
0.00633656
0.00334688
0.00531653
0.00516554
0.00512839
-0.000673064
0.00485871
0.00186647
0.00485588
-0.00104692
0.00473208
0.00124133
0.00475355
-0.000886187
0.00467139
0.0009377
0.00467704
-0.000607126
0.0046089
0.000729179
0.00460101
-0.000387187
0.0045475
0.000529692
0.00453469
-0.00024255
0.00449332
0.000377013
0.00447822
-0.000139236
0.00444507
0.000274321
0.00442955
-6.84707e-05
0.00440552
0.000188321
0.00439619
-4.5833e-05
0.00438724
9.2792e-05
0.00439419
-8.07176e-05
0.00440968
-3.27623e-05
0.00444291
-0.000170806
0.0044886
-0.000180042
0.00454865
-0.000276057
0.00461757
-0.000295019
0.00469379
-0.000342869
0.00477266
-0.000349409
0.00485091
-0.000347536
0.00492659
-0.000341517
0.00499622
-0.000302566
0.00506149
-0.000299152
0.00511918
-0.000241685
0.00517368
-0.000256352
0.0052207
-0.000182494
0.0052697
-0.000244456
0.00531271
-0.000150034
0.00536455
-0.000279635
0.00541142
-0.000143756
0.00547755
-0.000382877
0.0055389
-0.000166415
0.00563639
-0.000596269
0.00571332
-0.000160054
0.00586465
-0.000975922
-5.76488e-05
0.00873557
-0.00955203
0.00946086
-0.000849534
0.00979566
-0.00265456
0.00992397
-0.000616636
0.00998089
5.61109e-05
0.00998243
0.000328119
0.00994975
0.000495323
0.00989347
0.000628965
0.00982286
0.000667467
0.00973909
0.000734277
0.0096449
0.000766985
0.00953911
0.00083223
0.00942356
0.000866896
0.00929767
0.000926014
0.00916426
0.000945401
0.00902364
0.000984444
0.008881
0.000960062
0.00873552
0.000977487
0.00859336
0.000912436
0.00845188
0.000916304
0.00831768
0.000823787
0.00818518
0.000837479
0.00806355
0.000714651
0.00794184
0.000767537
0.00783373
0.000611763
0.00772285
0.000710798
0.00762901
0.00051107
0.007528
0.000671602
0.00744994
0.00039695
0.00735674
0.000657087
0.00729553
0.000267908
0.00720801
0.000664203
0.00716669
0.000109321
0.00708135
0.000704797
0.0070634
-8.42453e-05
0.00697487
0.000791135
0.00698601
-0.000332172
0.00688623
0.00094538
0.00693438
-0.000650383
0.00681414
0.00117421
0.00691001
-0.00105471
0.00675738
0.00149748
0.00691273
-0.00155251
0.00671116
0.0019457
0.00693195
-0.00210849
0.00665522
0.0025848
0.00693556
-0.00266952
0.00657774
0.0033086
0.00691618
-0.00334611
0.00657368
0.00358671
0.00696194
-0.00427374
0.00716331
0.000824364
0.00844385
-0.0113655
0.00756081
0.011111
0.00660286
0.00430483
0.00559765
0.00617075
0.00534729
-0.000422702
0.00505593
0.00215784
0.00501737
-0.00100836
0.00489063
0.00136806
0.00489171
-0.000887271
0.00481191
0.0010175
0.00480451
-0.000599721
0.00473906
0.000794622
0.00472203
-0.000370156
0.00467001
0.000581714
0.00465047
-0.000223013
0.00460954
0.000417944
0.00458949
-0.000119182
0.00455625
0.000307563
0.00453727
-4.9489e-05
0.00451313
0.000212459
0.00450186
-3.45673e-05
0.00449347
0.000101185
0.00450031
-8.75561e-05
0.00451753
-4.99836e-05
0.00455228
-0.000205552
0.00460053
-0.000228297
0.00466293
-0.000338455
0.00473453
-0.00036662
0.00481311
-0.000421454
0.00489427
-0.000430563
0.00497456
-0.000427832
0.00505201
-0.00041896
0.00512338
-0.000373942
0.00519
-0.00036577
0.0052493
-0.00030098
0.00530489
-0.000311944
0.00535362
-0.00023123
0.00540351
-0.000294341
0.00544859
-0.000195112
0.00550114
-0.000332191
0.00555087
-0.00019348
0.00561764
-0.000449651
0.00568326
-0.000232032
0.00578053
-0.000693539
0.00586297
-0.000242494
0.0060099
-0.00112285
-0.000138373
0.00862125
-0.0105975
0.00939641
-0.0016247
0.00969113
-0.00294927
0.00981681
-0.000742313
0.00988322
-1.03009e-05
0.00989726
0.000314079
0.00987862
0.000513957
0.00983631
0.000671277
0.00977789
0.000725887
0.00970494
0.00080723
0.00961998
0.000851942
0.0095224
0.000929806
0.00941392
0.000975383
0.00929449
0.00104544
0.00916671
0.00107318
0.00903149
0.00111966
0.00889348
0.00109807
0.00875274
0.00111823
0.00861443
0.00105074
0.00847718
0.00105356
0.00834614
0.000954818
0.00821756
0.000966059
0.00809838
0.00083384
0.00798054
0.000885369
0.00787425
0.000718058
0.00776745
0.0008176
0.00767483
0.00060369
0.00757844
0.00076799
0.0075008
0.000474589
0.00741324
0.000744647
0.00735137
0.000329777
0.00727092
0.000744657
0.0072273
0.00015294
0.007151
0.000781098
0.00712845
-6.16998e-05
0.00705168
0.000867903
0.00705512
-0.000335611
0.00697067
0.00102984
0.00700706
-0.000686781
0.00690636
0.00127491
0.00698565
-0.00113401
0.00685723
0.00162591
0.00699062
-0.0016859
0.0068184
0.00211792
0.00701154
-0.00230163
0.00677065
0.0028257
0.00701631
-0.00291518
0.00670457
0.00362033
0.00699126
-0.0036328
0.0067111
0.00386687
0.00701042
-0.00457306
0.00726833
0.000566452
0.0083864
-0.0124835
0.00773057
0.0117668
0.00679752
0.00523788
0.00584275
0.00712551
0.00555036
-0.000130309
0.00523761
0.00247058
0.00516871
-0.000939458
0.00503534
0.00150144
0.00501975
-0.000871682
0.00493921
0.00109804
0.00492167
-0.00058218
0.00485681
0.00085948
0.00483289
-0.000346242
0.00478107
0.000633541
0.00475648
-0.00019842
0.00471521
0.000459212
0.00469138
-9.53556e-05
0.00465758
0.000341363
0.00463595
-2.78582e-05
0.00461144
0.00023697
0.0045988
-2.19232e-05
0.00459084
0.000109142
0.0045979
-9.46194e-05
0.00461673
-6.88104e-05
0.00465308
-0.000241903
0.00470368
-0.000278891
0.00476826
-0.00040304
0.0048422
-0.000440562
0.00492284
-0.00050209
0.00500588
-0.000513604
0.00508783
-0.000509775
0.00516665
-0.000497781
0.00523933
-0.000446631
0.00530697
-0.000433406
0.00536743
-0.000361437
0.00542387
-0.000368385
0.00547387
-0.000281236
0.00552453
-0.000344999
0.00557119
-0.000241775
0.00562453
-0.000385533
0.00567654
-0.000245485
0.0057443
-0.000517416
0.00581336
-0.000301094
0.00591108
-0.000791252
0.00599757
-0.000328985
0.00614126
-0.00126655
-0.000222753
0.0085471
-0.0115689
0.00932466
-0.00240226
0.0096004
-0.00322502
0.00972653
-0.000868442
0.00979856
-8.23341e-05
0.00982046
0.000292179
0.00981165
0.000522772
0.00977993
0.000702997
0.00973137
0.000774444
0.00966742
0.000871178
0.00959025
0.000929118
0.00949951
0.00102054
0.0093968
0.00107809
0.00928248
0.00115976
0.00915904
0.00119663
0.00902781
0.00125089
0.00889314
0.00123274
0.00875571
0.00125566
0.00862013
0.00118633
0.00848583
0.00118785
0.00835713
0.00108352
0.00823143
0.00109175
0.00811421
0.00095106
0.00799937
0.00100021
0.00789471
0.000822717
0.00779112
0.000921193
0.00769974
0.000695072
0.00760696
0.000860769
0.00752995
0.000551592
0.00744673
0.000827868
0.00738463
0.000391877
0.00730962
0.000819665
0.00726443
0.00019813
0.00719521
0.000850325
0.00716912
-3.56068e-05
0.00710184
0.00093518
0.0070989
-0.000332674
0.00702741
0.00110133
0.00705346
-0.000712839
0.00697028
0.0013581
0.00703407
-0.0011978
0.0069288
0.00173118
0.00704033
-0.00179743
0.0068981
0.00226015
0.0070618
-0.00246533
0.0068599
0.0030276
0.00706595
-0.00312124
0.00680613
0.00388016
0.00703302
-0.0038597
0.0068186
0.0040813
0.00703368
-0.00478814
0.00733932
0.000260809
0.00834636
-0.0134906
0.00783803
0.0122752
0.00693466
0.00614125
0.00605355
0.00800662
0.00573707
0.000186172
0.00540678
0.00280088
0.00531182
-0.000844503
0.00517025
0.00164302
0.0051403
-0.000841733
0.00505741
0.00118093
0.00503146
-0.000556229
0.00496607
0.000924872
0.00493662
-0.000316791
0.00488433
0.000685826
0.00485569
-0.000169783
0.00481372
0.000501183
0.00478685
-6.84819e-05
0.00475228
0.000375928
0.00472851
-4.08213e-06
0.00470353
0.000261944
0.00468987
-8.25981e-06
0.00468232
0.000116696
0.00468982
-0.000102122
0.00471019
-8.91777e-05
0.00474818
-0.000279894
0.00480094
-0.000331647
0.00486756
-0.000469665
0.00494358
-0.000516579
0.005026
-0.000584516
0.00511063
-0.000598232
0.00519391
-0.000593056
0.00527382
-0.000577687
0.0053475
-0.000520315
0.00541591
-0.00050181
0.00547722
-0.000422753
0.00553431
-0.000425478
0.00558529
-0.000332215
0.00563661
-0.000396316
0.00568454
-0.000289703
0.00573866
-0.000439655
0.00579257
-0.000299397
0.00586146
-0.000586309
0.00593343
-0.000373057
0.00603186
-0.000889687
0.00612145
-0.00041857
0.00626246
-0.00140757
-0.000309471
0.00848941
-0.0124825
0.00925344
-0.00316629
0.00951885
-0.00349042
0.00964706
-0.000996652
0.0097231
-0.000158378
0.00975057
0.000264707
0.00974905
0.000524298
0.00972563
0.000726419
0.00968519
0.00081488
0.00962888
0.000927492
0.00955841
0.000999585
0.00947355
0.0011054
0.00937578
0.00117587
0.00926571
0.00126983
0.00914579
0.00131654
0.0090177
0.00137898
0.00888561
0.00136484
0.00875068
0.00139059
0.00861714
0.00131986
0.00848509
0.00131991
0.00835821
0.0012104
0.00823478
0.00121519
0.00811924
0.0010666
0.00800682
0.00111263
0.00790368
0.000925863
0.00780269
0.00102218
0.00771255
0.000785213
0.00762266
0.000950658
0.00754643
0.00062782
0.00746659
0.000907711
0.00740458
0.000453887
0.00733373
0.000890515
0.00728758
0.000244284
0.00722374
0.000914167
0.00719508
-6.94642e-06
0.00713511
0.000995149
0.00712721
-0.000324778
0.00706598
0.00116256
0.00708356
-0.000730418
0.00701487
0.00142679
0.00706524
-0.00124818
0.00698025
0.00181618
0.0070717
-0.00188889
0.00695745
0.0023744
0.0070923
-0.00260018
0.00692907
0.00319084
0.00709395
-0.00328613
0.00688649
0.00408762
0.00705307
-0.00402628
0.00689916
0.00423521
0.00704547
-0.00493445
0.00738655
-8.02676e-05
0.00831982
-0.0144239
0.00790493
0.0126901
0.00703209
0.00701408
0.0062322
0.00880652
0.00590657
0.000511796
0.00556455
0.0031429
0.00544755
-0.000727509
0.00529746
0.00179311
0.00525486
-0.000799131
0.0051688
0.00126698
0.0051356
-0.000523033
0.00506907
0.000991405
0.00503497
-0.000282695
0.00498189
0.00073891
0.00494989
-0.000137782
0.00490704
0.000544028
0.00487762
-3.90557e-05
0.00484221
0.000411338
0.00481664
2.14846e-05
0.00479119
0.000287399
0.00477676
6.16759e-06
0.00476962
0.000123837
0.00477771
-0.000110209
0.00479957
-0.000111043
0.0048392
-0.000319518
0.00489397
-0.000386424
0.00496249
-0.000538181
0.00504036
-0.000594448
0.00512435
-0.000668504
0.00521031
-0.000684191
0.00529467
-0.000677423
0.00537543
-0.000658444
0.00544986
-0.000594749
0.00551884
-0.000570784
0.00558078
-0.000484701
0.00563838
-0.000483069
0.00569011
-0.000383948
0.00574198
-0.000448189
0.00579094
-0.000338667
0.0058458
-0.000494514
0.00590135
-0.000354948
0.00597142
-0.000656374
0.00604587
-0.000447514
0.00614511
-0.000988919
0.00623707
-0.000510539
0.00637564
-0.00154613
-0.000397659
0.00844043
-0.0133472
0.00918479
-0.00391065
0.00944381
-0.00374944
0.00957493
-0.00112778
0.00965431
-0.000237756
0.00968619
0.000232833
0.00969042
0.000520066
0.00967372
0.000743116
0.00964011
0.000848493
0.00959036
0.000977242
0.00952575
0.00106419
0.00944604
0.00118512
0.00935256
0.00126934
0.00924615
0.00137624
0.00912921
0.00143348
0.0090037
0.00150449
0.00887369
0.00149484
0.00874073
0.00152355
0.00860884
0.00145175
0.00847858
0.00145017
0.00835325
0.00133573
0.00823171
0.00133673
0.0081177
0.00118061
0.00800735
0.00122298
0.00790565
0.00102756
0.00780689
0.00112093
0.007718
0.000874101
0.00763051
0.00103815
0.00755517
0.000703165
0.00747805
0.00098483
0.00741638
0.000515555
0.00734879
0.000958109
0.00730215
0.000290921
0.00724244
0.000973877
0.00721203
2.34638e-05
0.00715763
0.00104955
0.00714608
-0.000313221
0.00709274
0.0012159
0.00710375
-0.000741427
0.00704648
0.00148407
0.00708599
-0.00128769
0.00701758
0.00188459
0.00709202
-0.00196332
0.00700179
0.00246463
0.00711096
-0.00270935
0.00698232
0.00331947
0.00710925
-0.00341306
0.00694829
0.00424859
0.00706239
-0.00414038
0.00695691
0.00434069
0.007053
-0.00503055
0.00741825
-0.000445515
0.00830147
-0.0153071
0.00794698
0.0130445
0.00710342
0.00785765
0.00638157
0.00952836
0.00605832
0.000835046
0.00571121
0.00349001
0.0055762
-0.000592499
0.00541809
0.00195122
0.00536427
-0.000745316
0.00527471
0.00135654
0.00523515
-0.000483469
0.00516717
0.00105939
0.00512908
-0.000244608
0.00507504
0.000792952
0.00504017
-0.000102919
0.00499639
0.000587809
0.00496478
-7.44458e-06
0.00492852
0.000447604
0.00490143
4.85751e-05
0.00487551
0.000313317
0.00486051
2.11632e-05
0.00485381
0.000130539
0.00486259
-0.000118986
0.00488592
-0.000134372
0.00492715
-0.000360747
0.00498381
-0.000443089
0.00505408
-0.000608445
0.00513359
-0.000673966
0.00521894
-0.00075385
0.00530602
-0.000771266
0.00539125
-0.000762659
0.00547266
-0.00073985
0.00554764
-0.000669734
0.00561702
-0.000640159
0.00567942
-0.0005471
0.00573738
-0.000541031
0.00578969
-0.000436259
0.00584203
-0.000500524
0.00589185
-0.000388487
0.00594739
-0.000550059
0.00600437
-0.000411926
0.00607557
-0.000727581
0.00615219
-0.000524124
0.00625217
-0.0010889
0.00634595
-0.000604322
0.00648214
-0.00168232
-0.000486673
0.00839683
-0.0141683
0.00911892
-0.00463274
0.00937364
-0.00400415
0.00950814
-0.00126228
0.00959056
-0.000320176
0.00962621
0.000197176
0.00963525
0.000511028
0.00962419
0.00075418
0.00959641
0.00087627
0.00955237
0.00102128
0.00949294
0.00112363
0.00941777
0.00126029
0.00932809
0.00135901
0.00922486
0.00147948
0.0091105
0.00154784
0.00898716
0.00162783
0.0088589
0.00162311
0.00872756
0.00165489
0.00859706
0.00158225
0.00846832
0.00157891
0.00834437
0.00145968
0.00822449
0.00145661
0.0081119
0.0012932
0.00800341
0.00133148
0.00790312
0.00112785
0.00780634
0.00121771
0.00771871
0.000961725
0.00763332
0.00112354
0.00755893
0.000777552
0.00748411
0.00105966
0.00742296
0.000576699
0.00735801
0.00102306
0.00731125
0.000337687
0.0072548
0.00103032
0.00722328
5.49914e-05
0.0071732
0.00109963
0.00715902
-0.000299043
0.00711176
0.00126316
0.00711783
-0.000747504
0.0070694
0.0015325
0.0071005
-0.00131878
0.00704518
0.0019399
0.007106
-0.00202414
0.00703524
0.00253539
0.00712321
-0.00279733
0.00702317
0.00341952
0.00711842
-0.00350831
0.0069947
0.00437231
0.00706773
-0.00421341
0.00699738
0.00441104
0.00705904
-0.00509221
0.00744009
-0.00082656
0.00828793
-0.0161549
0.00797424
0.0133582
0.00715711
0.00867478
0.00650516
0.0101803
0.00619232
0.00114788
0.00584674
0.00383559
0.00569776
-0.000443521
0.00553272
0.00211627
0.00546904
-0.000681634
0.00537596
0.00144962
0.00533076
-0.000438271
0.00526121
0.00112894
0.00521966
-0.00020305
0.00516461
0.000848003
0.00512728
-6.5589e-05
0.00508256
0.000632521
0.00504906
2.60597e-05
0.00501196
0.000484704
0.00498356
7.69738e-05
0.00495723
0.000339651
0.00494182
3.65684e-05
0.00493559
0.000136768
0.00494514
-0.000128527
0.00496989
-0.000159129
0.00501269
-0.000403541
0.00507111
-0.00050151
0.00514298
-0.000680315
0.00522396
-0.000754945
0.00531047
-0.000840366
0.00539847
-0.000859261
0.00548439
-0.000848576
0.00556627
-0.000821731
0.00564163
-0.000745099
0.00571127
-0.000709795
0.00577397
-0.000609805
0.00583219
-0.00059925
0.00588495
-0.000489015
0.00593766
-0.000553238
0.00598819
-0.000439015
0.00604435
-0.000606224
0.00610258
-0.00047015
0.00617486
-0.000799869
0.00625333
-0.000602587
0.00635394
-0.00118952
0.00644904
-0.000699424
0.00658283
-0.00181611
-0.000576039
0.00835693
-0.0149494
0.00905573
-0.00533154
0.00930732
-0.00425575
0.0094454
-0.00140035
0.00953073
-0.000405508
0.00956984
0.000158066
0.00958307
0.000497802
0.00957687
0.000760378
0.00955418
0.000898958
0.00951517
0.00106029
0.00946032
0.00117848
0.00938919
0.00133142
0.0093029
0.00144531
0.00920247
0.0015799
0.00909035
0.00165996
0.00896889
0.00174929
0.00884212
0.00174989
0.00871216
0.00178484
0.00858287
0.00171154
0.00845547
0.00170631
0.00833278
0.00158236
0.00821444
0.00157495
0.00810322
0.00140442
0.00799644
0.00143826
0.00789754
0.00122675
0.00780258
0.00131267
0.00771623
0.00104807
0.00763272
0.00120705
0.00755936
0.000850914
0.00748653
0.00113248
0.00742605
0.00063718
0.00736334
0.00108578
0.0073167
0.000384322
0.00726292
0.0010841
0.00723075
8.7164e-05
0.0071841
0.00114628
0.0071681
-0.000283044
0.00712558
0.00130568
0.00712803
-0.000749949
0.00708646
0.00157406
0.00711116
-0.00134348
0.00706607
0.00198499
0.00711634
-0.00207441
0.00706094
0.00259079
0.00713224
-0.00286862
0.00705471
0.00349705
0.00712515
-0.00357875
0.0070293
0.00446815
0.00707197
-0.00425608
0.00702586
0.00445715
0.00706446
-0.0051308
0.00745566
-0.00121776
0.00827727
-0.0169765
0.00799266
0.0136428
0.00719851
0.00946894
0.00660675
0.0107721
0.00630924
0.00144539
0.00597111
0.00417373
0.00581214
-0.000284557
0.00564163
0.00228678
0.0055694
-0.00060941
0.00547304
0.00154599
0.00542287
-0.000388103
0.00535177
0.00120003
0.00530719
-0.000158469
0.00525115
0.000904039
0.00521169
-2.61235e-05
0.00516609
0.000678121
0.00513094
6.12111e-05
0.00509306
0.000522583
0.00506354
0.000106496
0.00503684
0.000366345
0.00502116
5.2251e-05
0.00501544
0.000142487
0.0050258
-0.000138889
0.00505195
-0.000185279
0.00509626
-0.000447844
0.00515631
-0.000561564
0.00522964
-0.000753644
0.0053119
-0.000837209
0.00539941
-0.000927872
0.00548814
-0.000947991
0.00557456
-0.000935
0.00565676
-0.000903931
0.00573236
-0.000820694
0.00580213
-0.000779569
0.00586502
-0.000672689
0.0059234
-0.000657631
0.00597648
-0.000542098
0.00602949
-0.000606246
0.0060806
-0.000490128
0.00613731
-0.000662936
0.00619662
-0.00052946
0.0062699
-0.000873144
0.00634993
-0.00068262
0.00645102
-0.00129061
0.006547
-0.000795405
0.00667829
-0.0019474
-0.000665367
0.00831982
-0.0156935
0.00899503
-0.00600675
0.00924419
-0.0045049
0.00938591
-0.00154207
0.00947408
-0.000493683
0.00951645
0.000115695
0.00953347
0.000480785
0.00953158
0.000762268
0.0095134
0.00091714
0.00947886
0.00109482
0.00942811
0.00122923
0.00936059
0.00139894
0.00927731
0.00152859
0.00917936
0.00167785
0.00906921
0.0017701
0.00894938
0.00186913
0.00882389
0.00187537
0.00869514
0.00191359
0.00856693
0.00183975
0.00844075
0.0018325
0.00831926
0.00170384
0.00820236
0.00169186
0.00809249
0.00151429
0.00798733
0.00154341
0.00788982
0.00132426
0.00779657
0.00140592
0.00771151
0.00113314
0.00762974
0.00128882
0.00755744
0.000923213
0.00748642
0.00120351
0.0074267
0.000696902
0.00736593
0.00114654
0.00731962
0.00043063
0.0072681
0.00113562
0.00723563
0.000119634
0.00719179
0.00119012
0.00717456
-0.000265813
0.00713584
0.0013444
0.00713563
-0.000749745
0.00709948
0.00161021
0.00711937
-0.00136338
0.00708231
0.00202206
0.00712452
-0.00211662
0.00708118
0.00263412
0.00713967
-0.00292711
0.00707948
0.00355724
0.00713105
-0.00363032
0.00705537
0.00454383
0.00707596
-0.00427667
0.00704637
0.00448673
0.00706945
-0.00515388
0.00746715
-0.00161546
0.00826838
-0.0177778
0.00800566
0.0139056
0.00723127
0.0102433
0.00669012
0.0113132
0.00641031
0.0017252
0.00608439
0.00449966
0.0059192
-0.000119372
0.00574494
0.00246104
0.00566551
-0.000529977
0.00556625
0.00164525
0.00551174
-0.000333598
0.00543922
0.00127256
0.00539201
-0.000111267
0.00533507
0.000960982
0.00529376
1.51837e-05
0.00524735
0.000724535
0.00521077
9.77936e-05
0.00517218
0.000561173
0.00514169
0.000136983
0.0051147
0.000393335
0.00509886
6.80914e-05
0.00509369
0.00014766
0.00510491
-0.00015011
0.00513241
-0.00021278
0.00517815
-0.000493588
0.00523971
-0.000623123
0.00531436
-0.000828289
0.00539774
-0.000920588
0.00548606
-0.0010162
0.00557536
-0.00103729
0.00566213
-0.00102177
0.00574451
-0.000986306
0.0058202
-0.000896387
0.00589
-0.000849367
0.00595295
-0.000735642
0.00601141