/*--------------------------------*- C++ -*----------------------------------*\
| =========                 |                                                 |
| \\      /  F ield         | OpenFOAM: The Open Source CFD Toolbox           |
|  \\    /   O peration     | Version:  2412                                  |
|   \\  /    A nd           | Website:  www.openfoam.com                      |
|    \\/     M anipulation  |                                                 |
\*---------------------------------------------------------------------------*/
FoamFile
{
    version     2.0;
    format      ascii;
    arch        "LSB;label=32;scalar=64";
    class       volScalarField;
    location    "0.6";
    object      epsilon;
}
// * * * * * * * * * * * * * * * * * * * * * * * * * * * * * * * * * * * * * //

dimensions      [0 2 -3 0 0 0 0];

internalField   nonuniform List<scalar> 
13079
(
416.306
479.747
592.365
773.726
1013.31
1261.4
1462.51
1585.35
1628.35
1608.7
1546.92
1459.23
1353.57
1234.64
1117.7
1030.62
987.896
983.467
1002.62
1034.65
1072.69
1115.19
1160.43
1210.41
1264.15
1325.32
1392.13
1470.36
1556.3
1659.27
1772.05
1910.18
2059.37
2246.73
2444.87
2704.1
2971.82
3341.79
3718.72
4296.92
4934.52
6040.21
7360.01
9661.87
12291.9
16503
20356.8
25554.8
28717
36110.1
45526
67288.4
177381
212193
203109
198521
182590
166419
150204
141979
132715
126896
116529
108785
98371.7
91002.9
82137.7
75203.4
66963.5
59732.7
51633.2
43961.3
35843.9
28480.5
22040.2
17116.6
13473.4
415.549
477.984
589.291
769.417
1008.53
1257.34
1460
1584.41
1628.41
1609.01
1546.84
1458.25
1351.16
1230.5
1112.47
1025.48
983.482
979.795
999.474
1031.87
1070.19
1112.93
1158.41
1208.61
1262.56
1323.91
1390.86
1469.18
1555.13
1658.02
1770.64
1908.45
2057.21
2243.92
2441.29
2699.36
2965.8
3333.75
3708.64
4283.79
4918.89
6019.8
7333.46
9618.64
12218.7
16357.8
20097.4
25109.3
28154.5
35462.1
44786.8
66111.9
174216
209319
198706
192163
175838
159556
143256
134277
124133
117344
106511
98512.9
88330.2
81230.8
72914
66510.2
59007.9
52491.9
45204.4
38313.2
31091.4
24654
19134.1
14966.9
11895.4
414.812
476.265
586.288
765.204
1003.86
1253.37
1457.57
1583.54
1628.56
1609.47
1547
1457.63
1349.2
1226.9
1107.85
1020.94
979.641
976.638
996.798
1029.52
1068.09
1111.04
1156.74
1207.15
1261.29
1322.81
1389.9
1468.28
1554.26
1657.08
1769.55
1907.08
2055.47
2241.58
2438.27
2695.29
2960.59
3326.72
3699.82
4272.25
4905.21
6001.83
7309.89
9579.3
12150.6
16220.9
19851.7
24689.4
27629.5
34859.5
44095.8
64985.3
171106
206519
194542
186216
169528
153109
136671
126933
115956
108278
97083.3
88913.7
79029.2
72230.9
64476.5
58592.7
51802.6
45959.4
39440.3
33294.4
26930.9
21357.4
16660.7
13146.5
10557.9
414.092
474.586
583.357
761.085
999.288
1249.48
1455.19
1582.71
1628.77
1610.06
1547.38
1457.31
1347.63
1223.78
1103.76
1016.96
976.316
973.945
994.542
1027.55
1066.34
1109.5
1155.39
1205.99
1260.32
1321.99
1389.2
1467.66
1553.66
1656.42
1768.77
1906.05
2054.1
2239.68
2435.76
2691.85
2956.13
3320.63
3692.16
4262.19
4893.32
5986.12
7289.04
9543.56
12087.5
16091.7
19618.9
24293.8
27139.4
34299
43449.2
63904.7
168048
203783
190594
180644
163623
147043
130424
119935
108182
99704
88254.3
79999.9
70477.8
64010.2
56826.9
51448.9
45339.3
40124
34326.1
28884.3
23327.5
18541.2
14566.3
11608.1
9424.09
413.391
472.949
580.495
757.06
994.809
1245.66
1452.86
1581.92
1629.04
1610.74
1547.95
1457.27
1346.42
1221.08
1100.17
1013.48
973.461
971.675
992.667
1025.94
1064.92
1108.26
1154.33
1205.1
1259.6
1321.41
1388.74
1467.27
1553.3
1656.02
1768.26
1905.32
2053.08
2238.19
2433.73
2688.98
2952.37
3315.42
3685.56
4253.49
4883.1
5972.5
7270.74
9511.15
12028.9
15969.8
19398.6
23921.1
26682.1
33777.6
42843.8
62867.2
165038
201099
186840
175415
158087
141328
124496
113272
100808
91626.9
80031.1
71777.9
62676.3
56565.1
49954.4
45063.7
39596.9
34962.1
29834.5
25049.3
20235.4
16151.5
12798.9
10309.1
8462.22
7099.79
6088.48
5302.46
4663.61
4128.65
3673.12
3281.06
2947.66
2664.8
2429.69
2234.22
2073.69
1941.92
1833.45
1748.59
1678.54
1635.97
1602.46
1617.92
1640.39
1782.02
1882.92
412.706
471.35
577.699
753.123
990.421
1241.92
1450.57
1581.15
1629.35
1611.52
1548.67
1457.47
1345.53
1218.78
1097.03
1010.47
971.034
969.788
991.138
1024.64
1063.8
1107.3
1153.54
1204.47
1259.11
1321.07
1388.5
1467.1
1553.16
1655.85
1768
1904.87
2052.38
2237.07
2432.14
2686.66
2949.25
3311.02
3679.98
4246.08
4874.45
5960.85
7254.8
9481.87
11974.5
15854.7
19190.1
23570.3
26255.7
33292.5
42276.6
61870.1
162074
198457
183265
170502
152888
135936
118867
106933
93831.5
84049.1
72415.4
64246.7
55615.3
49880
43834.9
39408.5
34541.2
30438
25926.6
21745
17602.1
14133.3
11310.1
9211.84
7644.94
6474.48
5591.76
4895.22
4321.59
3836.68
3421.72
3064.65
2761.69
2506.11
2294.39
2119.44
1975.83
1858.64
1761.69
1686.67
1624.02
1587.8
1558.79
1577.87
1602.72
1744.11
1843.2
412.038
469.789
574.969
749.272
986.119
1238.25
1448.32
1580.41
1629.68
1612.36
1549.53
1457.89
1344.92
1216.83
1094.3
1007.87
969
968.253
989.926
1023.63
1062.95
1106.6
1152.98
1204.06
1258.85
1320.93
1388.47
1467.14
1553.24
1655.9
1767.98
1904.69
2051.97
2236.3
2430.96
2684.84
2946.75
3307.38
3675.34
4239.88
4867.25
5951.03
7241.07
9455.51
11924.1
15746.3
18992.9
23240.4
25858.3
32841.3
41745
60911
159154
195850
179849
165877
147999
130842
113521
100911
87248.3
76970.5
65403.6
57396.8
49274.1
43927
38431.8
34442.4
30127.2
26505.8
22554.5
18919.7
15372.1
12433.9
10056.5
8283.92
6949.05
5938.45
5163.41
4542.31
4024.19
3582.32
3202.54
2875.93
2599.47
2367.55
2176.09
2018.87
1889.84
1785.23
1698.21
1631.69
1575.44
1544.7
1519.58
1541.74
1568.62
1709.48
1806.69
411.385
468.265
572.3
745.501
981.897
1234.63
1446.1
1579.67
1630.03
1613.25
1550.5
1458.49
1344.56
1215.2
1091.94
1005.67
967.325
967.039
989.002
1022.89
1062.35
1106.13
1152.64
1203.86
1258.78
1320.98
1388.62
1467.37
1553.5
1656.15
1768.18
1904.75
2051.85
2235.87
2430.18
2683.49
2944.82
3304.47
3671.59
4234.81
4861.42
5942.92
7229.41
9431.88
11877.6
15644.1
18806.5
22930.4
25488.2
32421.8
41246.6
59987.6
156275
193271
176579
161515
143394
126025
108443
95194.6
81054
70387.7
58985.9
51209.8
43622
38667.1
33698
30114.5
26301.5
23112.8
19664.9
16518.2
13490.8
11004.9
9000.21
7497.59
6354.99
5477.52
4792.89
4235.58
3764.89
3360.15
3010.95
2710.91
2457.56
2246.23
2072.35
1930.48
1814.08
1720.34
1641.92
1582.76
1532.04
1506.06
1484.3
1509.09
1537.68
1677.76
1773.04
410.748
466.776
569.691
741.808
977.75
1231.06
1443.89
1578.93
1630.38
1614.18
1551.57
1459.26
1344.43
1213.87
1089.94
1003.82
965.98
966.117
988.341
1022.39
1061.97
1105.87
1152.51
1203.85
1258.89
1321.21
1388.94
1467.76
1553.94
1656.59
1768.58
1905.04
2051.98
2235.74
2429.75
2682.59
2943.43
3302.23
3668.67
4230.79
4856.87
5936.41
7219.66
9410.8
11834.6
15547.8
18630.5
22639.3
25144
32031.8
40779.2
59098.1
153436
190711
173440
157395
139048
121462
103619
89777.3
75242.6
64293.8
53146.1
45659.2
38619.2
34052.4
29578.7
26367.6
23006
20202.5
17202.1
14485.8
11907.2
9803.08
8108.64
6829.54
5846.43
5079.97
4471.45
3968.28
3538.23
3165.63
2843.08
2566.27
2333.12
2139.74
1981.15
1852.61
1747.17
1662.87
1591.89
1539.12
1493.2
1471.35
1452.51
1479.52
1509.55
1648.64
1741.96
410.127
465.321
567.139
738.19
973.673
1227.54
1441.7
1578.18
1630.72
1615.14
1552.72
1460.16
1344.51
1212.8
1088.25
1002.3
964.935
965.464
987.922
1022.11
1061.8
1105.8
1152.55
1204.01
1259.17
1321.59
1389.42
1468.32
1554.54
1657.21
1769.17
1905.55
2052.36
2235.89
2429.67
2682.1
2942.54
3300.63
3666.53
4227.77
4853.52
5931.39
7211.71
9392.12
11794.9
15457.3
18464.5
22366.3
24824.1
31669.3
40340.5
58240.3
150636
188166
170418
153496
134940
117136
99036.5
84650
69806.6
58678.1
47862.4
40711
34219
30028.8
26014.6
23141.1
20181.2
17717.8
15111.4
12770.2
10575.1
8791.27
7354.29
6260.3
5409.71
4736.06
4191.8
3734.75
3339.65
2994.96
2695.69
2439.23
2223.76
2046.05
1900.8
1783.87
1687.95
1611.85
1547.35
1500.13
1458.39
1440.13
1423.81
1452.7
1483.92
1621.86
1713.18
409.519
463.899
564.642
734.642
969.663
1224.06
1439.51
1577.41
1631.04
1616.1
1553.94
1461.19
1344.76
1211.98
1086.86
1001.08
964.166
965.055
987.722
1022.03
1061.82
1105.91
1152.77
1204.33
1259.6
1322.13
1390.05
1469.02
1555.29
1657.98
1769.93
1906.25
2052.96
2236.32
2429.91
2682.01
2942.12
3299.61
3665.12
4225.68
4851.28
5927.75
7205.42
9375.66
11758.4
15372.1
18307.9
22110.4
24527
31332.5
39928.7
57412.6
147873
185631
167502
149798
131050
113031
94682.9
79804.2
64736.8
53526.3
43107.5
36325.4
30369.8
26538.7
22944.7
20374.3
17768.7
15603.5
13341.1
11324
9453.92
7937.69
6714.2
5773.71
5033.51
4437.69
3947.87
3530.22
3165.28
2844.88
2566.01
2327.41
2127.45
1963.47
1829.87
1723.06
1635.44
1566.5
1507.63
1465.25
1427.14
1411.99
1397.87
1428.34
1460.54
1597.16
1686.47
408.926
462.508
562.199
731.161
965.715
1220.61
1437.32
1576.61
1631.34
1617.06
1555.2
1462.32
1345.17
1211.37
1085.73
1000.13
963.65
964.87
987.722
1022.14
1062.01
1106.18
1153.13
1204.8
1260.17
1322.79
1390.81
1469.85
1556.18
1658.9
1770.86
1907.13
2053.77
2237
2430.44
2682.27
2942.14
3299.15
3664.39
4224.44
4850.08
5925.41
7200.68
9361.28
11724.8
15292
18160.5
21870.9
24251.4
31019.6
39541.9
56613.4
145147
183100
164680
146283
127361
109129
90547.2
75231.3
60022.7
48820.8
38849.9
32458.3
27018.2
23523.8
20309.6
18008.8
15713.3
13808.3
11844
10104.8
8508.89
7215.72
6169.32
5356.38
4708.42
4178.07
3734.52
3350.67
3011.85
2712.65
2451.69
2228.79
2042.48
1890.54
1767.14
1669.18
1588.81
1526.11
1472.15
1433.99
1399.05
1386.62
1374.39
1406.17
1439.18
1574.35
1661.62
408.346
461.149
559.806
727.745
961.824
1217.19
1435.13
1575.78
1631.6
1618.02
1556.49
1463.54
1345.72
1210.96
1084.84
999.434
963.363
964.889
987.906
1022.41
1062.35
1106.6
1153.63
1205.39
1260.86
1323.58
1391.69
1470.81
1557.2
1659.96
1771.93
1908.19
2054.78
2237.9
2431.24
2682.87
2942.56
3299.2
3664.29
4224.02
4849.85
5924.26
7197.37
9348.85
11694.1
15216.9
18021.8
21646.8
23996
30729
39178.4
55841
142457
180569
161942
142936
123855
105418
86618.8
70922.3
55652.2
44540.8
35055
29063.4
24110.3
20927.4
18052.8
15990.1
13964.5
12285.4
10578.1
9076.1
7710.55
6603.17
5703.88
4997.23
4426.6
3951.54
3547.45
3192.69
2876.56
2595.94
2350.73
2141.68
1967.37
1826.01
1711.56
1621.36
1547.34
1490.09
1440.43
1405.95
1373.77
1363.7
1353.11
1385.98
1419.61
1553.22
1638.45
407.779
459.819
557.463
724.39
957.988
1213.8
1432.93
1574.92
1631.81
1618.95
1557.8
1464.82
1346.38
1210.73
1084.18
998.969
963.288
965.095
988.256
1022.84
1062.84
1107.16
1154.26
1206.11
1261.67
1324.49
1392.68
1471.88
1558.34
1661.15
1773.15
1909.4
2055.97
2239.02
2432.3
2683.78
2943.36
3299.73
3664.78
4224.35
4850.51
5924.22
7195.4
9338.22
11665.9
15146.4
17891.3
21437.5
23759.6
30459.2
38836.5
55094.1
139803
178036
159278
139742
120518
101884
82887.7
66868.1
51611.6
40663.2
31685.8
26093.9
21594.1
18695.9
16122.6
14268.9
12477.3
10993.6
9506.85
8206.51
7034.27
6081.71
5304.92
4687.11
4181.54
3753.35
3383.04
3053.4
2757.04
2492.73
2261.42
2064.59
1900.88
1768.84
1662.26
1578.87
1510.4
1457.93
1412.02
1380.77
1351
1342.98
1333.8
1367.55
1401.67
1533.62
1616.8
407.225
458.518
555.167
721.094
954.202
1210.44
1430.71
1574
1631.98
1619.85
1559.12
1466.15
1347.14
1210.65
1083.72
998.715
963.405
965.47
988.758
1023.41
1063.45
1107.83
1155.01
1206.94
1262.58
1325.49
1393.77
1473.05
1559.58
1662.45
1774.49
1910.75
2057.33
2240.35
2433.59
2684.98
2944.51
3300.7
3665.82
4225.37
4852
5925.21
7194.65
9329.28
11640.3
15080.3
17768.8
21242.2
23541
30208.7
38514.9
54371.3
137183
175498
156680
136686
117335
98516
79344.5
63059.4
47886.4
37162.7
28705
23503.8
19420.9
16780.1
14472.2
12801.2
11211.8
9896.87
8599.04
7469.71
6459.59
5636.25
4961.74
4418.46
3967.84
3579.51
3238.21
2930.35
2651.27
2401.32
2182.29
1996.28
1841.94
1718.12
1618.47
1541.06
1477.47
1429.19
1386.56
1358.13
1330.46
1324.22
1316.26
1350.71
1385.18
1515.39
1596.52
406.684
457.244
552.916
717.854
950.464
1207.09
1428.46
1573.05
1632.09
1620.71
1560.44
1467.53
1347.99
1210.72
1083.44
998.653
963.698
966
989.399
1024.1
1064.19
1108.62
1155.85
1207.86
1263.59
1326.59
1394.95
1474.32
1560.92
1663.86
1775.94
1912.24
2058.84
2241.85
2435.11
2686.45
2945.99
3302.09
3667.37
4227.04
4854.27
5927.15
7195.04
9321.9
11616.9
15018.5
17653.9
21060.1
23339.2
29976.2
38211.9
53671.4
134597
172951
154140
133756
114294
95302
75980.3
59486.6
44460.8
34012.9
26075
21249.1
17545.7
15136
13060.5
11548.9
10133.9
8964.47
7828.09
6843.68
5969.61
5254.35
4665.52
4185
3780.94
3426.65
3110.36
2821.44
2557.51
2320.23
2112.09
1935.66
1789.61
1673.06
1579.52
1507.38
1448.08
1403.47
1363.72
1337.76
1311.92
1307.22
1300.3
1335.3
1370.01
1498.39
1577.47
406.154
455.998
550.71
714.667
946.77
1203.75
1426.2
1572.03
1632.14
1621.53
1561.75
1468.93
1348.91
1210.91
1083.33
998.766
964.152
966.672
990.166
1024.91
1065.03
1109.5
1156.8
1208.88
1264.69
1327.77
1396.22
1475.67
1562.35
1665.36
1777.51
1913.86
2060.49
2243.53
2436.82
2688.17
2947.77
3303.86
3669.39
4229.32
4857.24
5929.96
7196.48
9315.97
11595.8
14960.6
17546.3
20890.5
23153.1
29760.4
37926.5
52993.3
132046
170395
151651
130941
111384
92232.4
72786.4
56139.7
41318.3
31186.9
23759.8
19289.2
15928
13724.3
11851.8
10478.8
9214.13
8170.19
7171.73
6310.14
5550.41
4925.79
4408.98
3981.5
3617.06
3291.94
2997.28
2724.87
2474.27
2248.2
2049.72
1881.81
1743.11
1632.99
1544.84
1477.35
1421.82
1380.44
1343.21
1319.41
1295.16
1291.81
1285.78
1321.18
1356.01
1482.5
1559.53
405.636
454.777
548.546
711.532
943.116
1200.43
1423.91
1570.97
1632.12
1622.29
1563.03
1470.35
1349.89
1211.21
1083.38
999.04
964.752
967.472
991.048
1025.82
1065.97
1110.48
1157.83
1209.98
1265.86
1329.03
1397.56
1477.1
1563.86
1666.96
1779.17
1915.58
2062.27
2245.36
2438.73
2690.12
2949.83
3305.98
3671.84
4232.14
4860.88
5933.58
7198.89
9311.39
11576.6
14906.6
17445.5
20732.9
22981.7
29560.2
37657.2
52335.7
129530
167828
149205
128230
108594
89297.9
69754.8
53009
38442
28657.5
21724.8
17586.6
14532
12511
10815.3
9562.86
8427.79
7492
6611.38
5853.95
5190.52
4642.15
4186.11
3803.62
3473.01
3172.97
2897.07
2639.12
2400.27
2184.15
1994.25
1833.91
1701.74
1597.32
1513.95
1450.56
1398.34
1359.81
1324.78
1302.87
1280.01
1277.81
1272.53
1308.21
1343.07
1467.62
1542.6
405.129
453.582
546.422
708.446
939.502
1197.11
1421.58
1569.84
1632.04
1623
1564.29
1471.77
1350.91
1211.6
1083.55
999.459
965.485
968.39
992.034
1026.83
1067
1111.54
1158.94
1211.15
1267.11
1330.36
1398.97
1478.61
1565.45
1668.63
1780.92
1917.41
2064.17
2247.34
2440.8
2692.29
2952.15
3308.43
3674.7
4235.48
4865.11
5937.94
7202.17
9308.05
11559.4
14856.1
17351.3
20586.4
22824.1
29374.5
37403
51697.9
127048
165249
146798
125613
105914
86490
66877.5
50084.1
35814.6
26398.3
19938.2
16107.6
13326.3
11466.8
9924.8
8777.16
7753.9
6911.43
6131.56
5462.61
4880.49
4396.49
3991.9
3647.71
3346.09
3067.7
2808.12
2562.86
2334.4
2127.11
1944.87
1791.27
1664.91
1565.55
1486.41
1426.64
1377.35
1341.3
1308.21
1287.95
1266.3
1265.08
1260.44
1296.28
1331.08
1453.65
1526.59
404.633
452.411
544.339
705.406
935.923
1193.8
1419.23
1568.64
1631.88
1623.64
1565.51
1473.18
1351.97
1212.08
1083.86
1000.01
966.34
969.414
993.116
1027.93
1068.1
1112.68
1160.12
1212.4
1268.42
1331.76
1400.45
1480.17
1567.11
1670.38
1782.76
1919.34
2066.18
2249.44
2443.03
2694.64
2954.7
3311.18
3677.94
4239.28
4869.9
5942.97
7206.27
9305.86
11544
14809.1
17263.3
20450.6
22679.4
29202.2
37162.9
51078.7
124600
162658
144423
123082
103336
83800.8
64147
47355
33418.9
24383.6
18370.6
14822.4
12283.5
10566.4
9158.04
8101.59
7174.91
6413.07
5719.47
5125.82
4612.53
4183.05
3822.19
3510.73
3234.03
2974.37
2729.05
2494.96
2275.7
2076.29
1900.87
1753.29
1632.11
1537.24
1461.84
1405.27
1358.55
1324.71
1293.3
1274.49
1253.88
1253.51
1249.38
1285.28
1319.96
1440.49
1511.4
404.148
451.264
542.293
702.412
932.378
1190.49
1416.83
1567.38
1631.64
1624.22
1566.68
1474.58
1353.05
1212.63
1084.27
1000.68
967.305
970.536
994.285
1029.11
1069.29
1113.88
1161.36
1213.7
1269.79
1333.21
1401.98
1481.8
1568.82
1672.2
1784.67
1921.35
2068.3
2251.67
2445.4
2697.17
2957.46
3314.21
3681.51
4243.52
4875.19
5948.63
7211.11
9304.74
11530.2
14765.4
17181.3
20324.9
22546.8
29042.3
36935.8
50477.4
122187
160054
142077
120628
100851
81223.1
61556.2
44811.5
31237.9
22589.2
16995.2
13704.7
11380.3
9788.52
8496.27
7519.25
6676.15
5984.08
5364.46
4835.04
4380.21
3997.06
3673.49
3390.11
3134.89
2891.51
2658.66
2434.42
2223.34
2030.95
1861.64
1719.44
1602.87
1512
1439.92
1386.18
1341.73
1309.81
1279.88
1262.33
1242.62
1242.96
1239.27
1275.14
1309.6
1428.07
1496.95
403.673
450.14
540.283
699.46
928.863
1187.18
1414.4
1566.05
1631.32
1624.72
1567.81
1475.96
1354.14
1213.24
1084.78
1001.47
968.371
971.746
995.532
1030.36
1070.54
1115.15
1162.66
1215.06
1271.21
1334.71
1403.57
1483.48
1570.6
1674.08
1786.65
1923.44
2070.5
2254.01
2447.91
2699.87
2960.43
3317.49
3685.39
4248.16
4880.95
5954.85
7216.63
9304.6
11518
14724.7
17105
20208.6
22425.6
28894
36720.7
49893.1
119809
157437
139755
118244
98452.5
78749.9
59098.2
42443.3
29254.9
20992.5
15788.3
12731.5
10596.5
9114.95
7923.72
7015.99
6245.35
5613.75
5057.72
4583.21
4178.18
3834.55
3542.9
3283.65
3047.04
2817.81
2595.92
2380.41
2176.61
1990.5
1826.64
1689.25
1576.8
1489.5
1420.36
1369.12
1326.67
1296.44
1267.79
1251.34
1232.4
1233.35
1229.99
1265.75
1299.95
1416.31
1483.18
403.208
449.038
538.31
696.549
925.378
1183.87
1411.93
1564.65
1630.91
1625.15
1568.88
1477.31
1355.24
1213.91
1085.39
1002.35
969.529
973.037
996.851
1031.67
1071.84
1116.47
1164.02
1216.46
1272.68
1336.26
1405.2
1485.21
1572.42
1676.01
1788.69
1925.6
2072.78
2256.45
2450.53
2702.72
2963.57
3321.01
3689.56
4253.16
4887.13
5961.58
7222.76
9305.36
11507.3
14687
17034
20101.2
22314.8
28756.4
36516.9
49325.1
117465
154808
137452
115923
96133.4
76375.2
56766.2
40240.6
27453.9
19572.3
14728.7
11883.1
9915.05
8530.39
7427.13
6579.95
5872.26
5293.19
4791.92
4364.49
4002.01
3692.19
3427.94
3189.53
2969.05
2752.19
2539.94
2332.16
2134.85
1954.37
1795.41
1662.33
1553.56
1469.42
1402.9
1353.88
1313.17
1284.43
1256.9
1241.4
1223.13
1224.57
1221.48
1257.05
1290.92
1405.16
1470.03
402.753
447.958
536.37
693.678
921.92
1180.56
1409.41
1563.17
1630.42
1625.49
1569.89
1478.63
1356.33
1214.62
1086.07
1003.32
970.77
974.4
998.235
1033.04
1073.21
1117.85
1165.42
1217.92
1274.19
1337.85
1406.88
1486.98
1574.29
1678
1790.78
1927.82
2075.14
2258.98
2453.27
2705.7
2966.88
3324.73
3693.99
4258.49
4893.69
5968.78
7229.45
9306.95
11498
14652
16968.1
20002.2
22214
28628.7
36323.5
48772.6
115158
152167
135167
113660
93887.7
74093
54553.9
38193.3
25819.7
18309.5
13797.6
11142.4
9321.34
8021.9
6995.36
6201.19
5548.33
5014.97
4560.96
4174
3847.99
3567.19
3326.55
3106.17
2899.72
2693.69
2489.94
2289.03
2097.53
1922.09
1767.53
1638.31
1532.83
1451.53
1387.32
1340.25
1301.09
1273.64
1247.09
1232.41
1214.7
1216.55
1213.65
1248.97
1282.45
1394.55
1457.42
402.307
446.898
534.463
690.844
918.486
1177.24
1406.85
1561.62
1629.84
1625.76
1570.84
1479.9
1357.42
1215.37
1086.83
1004.38
972.087
975.83
999.678
1034.47
1074.62
1119.27
1166.87
1219.41
1275.75
1339.48
1408.59
1488.79
1576.2
1680.02
1792.92
1930.11
2077.57
2261.59
2456.1
2708.8
2970.34
3328.65
3698.66
4264.12
4900.6
5976.39
7236.64
9309.3
11489.9
14619.6
16907
19911.1
22122.3
28510.1
36139.7
48235
112886
149517
132896
111448
91709.8
71898.1
52455.2
36291.9
24337.7
17186.5
12978.6
10494.5
8803.03
7578.57
6619.04
5871.38
5266.37
4772.87
4359.77
4007.67
3713.01
3457.2
3236.95
3032.21
2838
2641.47
2445.24
2250.46
2064.16
1893.25
1742.64
1616.89
1514.35
1435.57
1373.42
1328.08
1290.27
1263.96
1238.25
1224.27
1207.03
1209.21
1206.44
1241.45
1274.5
1384.43
1445.32
401.871
445.859
532.589
688.046
915.076
1173.91
1404.24
1559.99
1629.17
1625.94
1571.72
1481.13
1358.49
1216.14
1087.65
1005.5
973.472
977.321
1001.17
1035.94
1076.08
1120.73
1168.35
1220.94
1277.33
1341.14
1410.33
1490.64
1578.15
1682.09
1795.11
1932.44
2080.06
2264.27
2459.02
2712.01
2973.94
3332.74
3703.55
4270.02
4907.82
5984.39
7244.29
9312.34
11483
14589.7
16850.5
19827.5
22039.3
28400
35964.9
47711.7
110650
146857
130637
109283
89594.5
69785.2
50464.1
34527.1
22994.4
16187.7
12257.6
9926.91
8349.62
7191.19
6290.31
5583.53
5020.38
4561.72
4184.08
3862.1
3594.47
3360.23
3157.64
2966.5
2782.99
2594.82
2405.25
2215.93
2034.3
1867.48
1720.43
1597.79
1497.89
1421.35
1361.02
1317.21
1280.58
1255.26
1230.27
1216.9
1200.05
1202.48
1199.79
1234.43
1267
1374.75
1433.68
401.443
444.839
530.745
685.282
911.687
1170.57
1401.58
1558.29
1628.41
1626.04
1572.53
1482.31
1359.54
1216.94
1088.52
1006.7
974.92
978.866
1002.72
1037.46
1077.57
1122.23
1169.87
1222.5
1278.95
1342.84
1412.11
1492.52
1580.13
1684.2
1797.34
1934.82
2082.6
2267.03
2462.02
2715.32
2977.65
3336.99
3708.63
4276.17
4915.33
5992.72
7252.34
9316.02
11477.2
14562.2
16798.3
19750.8
21964.2
28297.8
35798.4
47202.2
108450
144189
128387
107161
87537.4
67749.9
48575.1
32889.8
21777.2
15298.9
11621.9
9428.83
7952.2
6851.98
6002.53
5331.76
4805.3
4377.14
4030.32
3734.43
3490.16
3274.59
3087.33
2908.06
2733.91
2553.11
2369.45
2185.02
2007.59
1844.44
1700.6
1580.76
1483.22
1408.69
1349.97
1307.51
1271.91
1247.45
1223.08
1210.21
1193.69
1196.3
1193.64
1227.87
1259.91
1365.47
1422.45
401.024
443.839
528.93
682.552
908.319
1167.23
1398.88
1556.5
1627.56
1626.04
1573.26
1483.43
1360.57
1217.75
1089.45
1007.96
976.424
980.461
1004.31
1039.02
1079.11
1123.76
1171.42
1224.09
1280.6
1344.56
1413.91
1494.42
1582.14
1686.33
1799.61
1937.24
2085.19
2269.84
2465.09
2718.72
2981.48
3341.38
3713.88
4282.54
4923.08
6001.36
7260.76
9320.28
11472.5
14536.8
16750.2
19680.7
21896.5
28202.8
35639.6
46705.7
106287
141515
126146
105077
85534
65787.9
46782.7
31371.3
20674.2
14507.5
11060.8
8991
7603.19
6554.36
5750.08
5111.08
4616.87
4215.46
3895.49
3622.23
3398.2
3198.84
3024.92
2856.01
2690.08
2515.78
2337.39
2157.34
1983.68
1823.86
1682.9
1565.59
1470.17
1397.42
1340.14
1298.85
1264.15
1240.43
1216.59
1204.15
1187.89
1190.62
1187.94
1221.71
1253.19
1356.55
1411.6
400.614
442.857
527.145
679.854
904.969
1163.87
1396.13
1554.64
1626.62
1625.96
1573.92
1484.49
1361.57
1218.57
1090.42
1009.27
977.979
982.101
1005.94
1040.61
1080.67
1125.32
1173
1225.71
1282.27
1346.3
1415.74
1496.35
1584.17
1688.49
1801.9
1939.7
2087.82
2272.7
2468.22
2722.2
2985.4
3345.9
3719.3
4289.12
4931.07
6010.26
7269.51
9325.07
11468.7
14513.5
16706
19616.8
21835.7
28114.4
35487.9
46222
104162
138837
123911
103028
83580.7
63894.9
45081.7
29963.4
19674.7
13802.4
10564.9
8605.5
7296.16
6292.73
5528.22
4917.32
4451.48
4073.59
3777.04
3523.46
3317.01
3131.74
2969.46
2809.61
2650.91
2482.35
2308.65
2132.54
1962.29
1805.46
1667.12
1552.08
1458.56
1387.4
1331.38
1291.13
1257.21
1234.13
1210.74
1198.65
1182.59
1185.39
1182.65
1215.91
1246.8
1347.96
1401.08
400.211
441.893
525.388
677.186
901.636
1160.49
1393.32
1552.7
1625.58
1625.79
1574.5
1485.49
1362.53
1219.41
1091.43
1010.62
979.581
983.782
1007.6
1042.24
1082.27
1126.91
1174.6
1227.35
1283.96
1348.07
1417.58
1498.3
1586.23
1690.68
1804.22
1942.19
2090.49
2275.61
2471.41
2725.76
2989.41
3350.54
3724.85
4295.87
4939.25
6019.41
7278.54
9330.33
11465.8
14492.2
16665.4
19558.6
21781.3
28032.2
35342.7
45750.4
102073
136157
121682
101010
81673.9
62067.5
43467.4
28658.2
18768.7
13173.6
10126
8265.56
7025.6
6062.36
5332.91
4746.89
4306.09
3948.88
3672.8
3436.39
3245.23
3072.24
2920.11
2768.2
2615.86
2452.4
2282.89
2110.32
1943.15
1789.04
1653.06
1540.07
1448.24
1378.51
1323.6
1284.26
1251.01
1228.48
1205.46
1193.66
1177.75
1180.57
1177.73
1210.45
1240.71
1339.66
1390.88
399.817
440.946
523.657
674.547
898.319
1157.11
1390.47
1550.67
1624.45
1625.52
1575
1486.43
1363.45
1220.24
1092.47
1012.03
981.224
985.499
1009.3
1043.89
1083.89
1128.52
1176.22
1229.01
1285.67
1349.85
1419.44
1500.26
1588.3
1692.89
1806.57
1944.71
2093.2
2278.56
2474.64
2729.37
2993.5
3355.28
3730.53
4302.78
4947.61
6028.76
7287.82
9336.02
11463.7
14472.7
16628.2
19505.7
21732.9
27955.6
35203.7
45290.5
100022
133476
119459
99021.2
79810.6
60302
41934.8
27448.2
17947.3
12612.3
9737.14
7965.34
6786.82
5859.18
5160.72
4596.77
4178.08
3839.11
3580.95
3359.51
3181.69
3019.41
2876.17
2731.23
2584.5
2425.56
2259.79
2090.4
1926.02
1774.37
1640.53
1529.39
1439.09
1370.62
1316.7
1278.15
1245.47
1223.4
1200.69
1189.12
1173.31
1176.1
1173.13
1205.28
1234.89
1331.63
1380.97
399.43
440.017
521.953
671.937
895.017
1153.7
1387.56
1548.57
1623.22
1625.17
1575.42
1487.3
1364.33
1221.07
1093.54
1013.47
982.906
987.251
1011.03
1045.58
1085.54
1130.16
1177.86
1230.68
1287.39
1351.65
1421.32
1502.24
1590.39
1695.12
1808.93
1947.25
2095.93
2281.55
2477.92
2733.04
2997.65
3360.1
3736.33
4309.82
4956.12
6038.29
7297.33
9342.1
11462.3
14455
16594.2
19458
21690
27884.3
35070.4
44842
98009.4
130797
117240
97058.7
77987.8
58595.3
40479.6
26326.4
17202.2
12111
9392.18
7699.86
6575.8
5679.75
5008.71
4464.36
4065.25
3742.35
3499.91
3291.56
3125.39
2972.47
2837.01
2698.19
2556.41
2401.48
2239.07
2072.55
1910.7
1761.29
1629.39
1519.92
1430.99
1363.64
1310.58
1272.71
1240.53
1218.85
1196.38
1184.99
1169.24
1171.97
1168.84
1200.38
1229.3
1323.85
1371.31
399.051
439.104
520.274
669.354
891.728
1150.29
1384.6
1546.39
1621.91
1624.72
1575.76
1488.1
1365.18
1221.9
1094.64
1014.95
984.622
989.032
1012.78
1047.28
1087.2
1131.81
1179.52
1232.38
1289.13
1353.46
1423.22
1504.24
1592.5
1697.36
1811.31
1949.81
2098.69
2284.56
2481.24
2736.76
3001.87
3365.01
3742.22
4317
4964.77
6047.98
7307.03
9348.53
11461.7
14438.8
16563.3
19414.9
21652.2
27817.7
34942.3
44404.4
96034.7
128122
115025
95120.5
76203
56944.5
39097.6
25286.2
16526
11662.7
9085.81
7464.79
6389.08
5521.1
4874.35
4347.46
3965.67
3656.99
3428.34
3231.45
3075.45
2930.73
2802.09
2668.65
2531.23
2379.88
2220.48
2056.56
1897
1749.62
1619.48
1511.52
1423.82
1357.47
1305.16
1267.89
1236.13
1214.77
1192.49
1181.23
1165.51
1168.13
1164.8
1195.72
1223.93
1316.27
1361.88
398.679
438.207
518.62
666.796
888.452
1146.85
1381.59
1544.12
1620.5
1624.18
1576.01
1488.84
1365.97
1222.72
1095.76
1016.46
986.369
990.841
1014.56
1049.01
1088.89
1133.48
1181.2
1234.08
1290.89
1355.28
1425.12
1506.25
1594.61
1699.61
1813.71
1952.39
2101.46
2287.6
2484.59
2740.52
3006.13
3369.99
3748.2
4324.28
4973.53
6057.81
7316.9
9355.27
11461.7
14424.2
16535.2
19376.1
21619.1
27755.5
34819
43977.4
94098.3
125454
112816
93204.6
74453.9
55346.7
37784.6
24321.4
15911.8
11261.4
8813.43
7256.43
6223.69
5380.67
4755.49
4244.13
3877.73
3581.6
3365.07
3178.22
3031.13
2893.59
2770.92
2642.22
2508.67
2360.5
2203.79
2042.23
1884.75
1739.23
1610.69
1504.09
1417.49
1352.03
1300.39
1263.63
1232.2
1211.1
1188.97
1177.79
1162.07
1164.56
1161.01
1191.27
1218.75
1308.9
1352.68
398.315
437.326
516.989
664.264
885.188
1143.4
1378.53
1541.78
1618.99
1623.55
1576.19
1489.5
1366.72
1223.52
1096.89
1018
988.144
992.675
1016.36
1050.76
1090.59
1135.17
1182.89
1235.8
1292.65
1357.12
1427.03
1508.26
1596.74
1701.88
1816.12
1954.99
2104.26
2290.67
2487.97
2744.31
3010.45
3375.03
3754.25
4331.65
4982.39
6067.75
7326.9
9362.29
11462.3
14411
16509.8
19341.5
21590.3
27697.3
34700.2
43560.6
92200.5
122794
110611
91309.5
72738.6
53799.4
36536.9
23426.2
15353.7
10902
8571.02
7071.55
6077.05
5256.26
4650.26
4152.76
3800
3514.98
3309.11
3131.06
2991.78
2860.52
2743.1
2618.57
2488.43
2343.09
2188.82
2029.39
1873.81
1729.98
1602.9
1497.54
1411.92
1347.25
1296.18
1259.85
1228.72
1207.82
1185.79
1174.66
1158.9
1161.22
1157.44
1187.02
1213.75
1301.71
1343.67
397.957
436.46
515.381
661.756
881.935
1139.93
1375.42
1539.36
1617.4
1622.83
1576.27
1490.09
1367.42
1224.32
1098.05
1019.56
989.944
994.531
1018.18
1052.52
1092.31
1136.87
1184.59
1237.53
1294.42
1358.96
1428.95
1510.29
1598.87
1704.15
1818.54
1957.59
2107.06
2293.75
2491.37
2748.13
3014.8
3380.12
3760.37
4339.11
4991.34
6077.78
7337.03
9369.56
11463.5
14399.1
16486.9
19310.7
21565.6
27642.8
34585.6
43153.7
90341.2
120145
108411
89433.8
71055.1
52300.3
35350.9
22595.2
14846.1
10579.7
8355.1
6907.37
5946.94
5145.97
4557.04
4071.9
3731.27
3456.07
3259.59
3089.26
2956.82
2831.06
2718.26
2597.39
2470.27
2327.46
2175.38
2017.89
1864.05
1721.76
1596
1491.76
1407.03
1343.05
1292.48
1256.52
1225.62
1204.88
1182.92
1171.8
1155.97
1158.1
1154.05
1182.93
1208.89
1294.68
1334.84
397.606
435.608
513.796
659.271
878.692
1136.44
1372.25
1536.86
1615.71
1622.02
1576.28
1490.6
1368.08
1225.1
1099.21
1021.15
991.767
996.408
1020.02
1054.3
1094.04
1138.58
1186.3
1239.27
1296.2
1360.81
1430.88
1512.32
1601.01
1706.43
1820.96
1960.21
2109.88
2296.85
2494.78
2751.98
3019.18
3385.25
3766.54
4346.63
5000.36
6087.9
7347.25
9377.04
11465.1
14388.5
16466.3
19283.3
21544.5
27591.6
34474.8
42756.3
88520.7
117510
106217
87576.6
69402
50847.3
34223.1
21823.5
14384.1
10290.4
8162.61
6761.47
5831.43
5048.14
4474.43
4000.32
3670.48
3403.97
3215.74
3052.19
2925.75
2804.82
2696.06
2578.41
2453.98
2313.42
2163.32
2007.59
1855.33
1714.46
1589.91
1486.69
1402.76
1339.39
1289.24
1253.6
1222.87
1202.25
1180.31
1169.17
1153.25
1155.17
1150.84
1179
1204.18
1287.79
1326.18
397.262
434.771
512.233
656.809
875.458
1132.94
1369.03
1534.28
1613.93
1621.12
1576.2
1491.05
1368.68
1225.87
1100.38
1022.76
993.611
998.302
1021.87
1056.09
1095.79
1140.3
1188.02
1241.01
1297.99
1362.66
1432.81
1514.35
1603.15
1708.72
1823.39
1962.83
2112.71
2299.96
2498.21
2755.85
3023.58
3390.42
3772.76
4354.22
5009.43
6098.07
7357.55
9384.72
11467.2
14379.1
16448
19259.3
21526.9
27543.6
34367.6
42368.2
86738.8
114890
104030
85736.8
67777.7
49438.2
33150.3
21106.4
13963.2
10030.5
7990.88
6631.73
5728.83
4961.34
4401.2
3936.96
3616.71
3357.89
3176.92
3019.32
2898.13
2781.44
2676.22
2561.42
2439.35
2300.81
2152.49
1998.37
1847.56
1707.98
1584.55
1482.25
1399.03
1336.2
1286.42
1251.03
1220.43
1199.89
1177.95
1166.77
1150.73
1152.41
1147.78
1175.21
1199.59
1281.05
1317.68
396.924
433.948
510.69
654.368
872.233
1129.41
1365.76
1531.62
1612.07
1620.13
1576.04
1491.42
1369.23
1226.62
1101.57
1024.39
995.473
1000.21
1023.74
1057.9
1097.54
1142.03
1189.74
1242.76
1299.78
1364.52
1434.74
1516.39
1605.3
1711
1825.82
1965.46
2115.54
2303.07
2501.66
2759.74
3028.01
3395.63
3779.02
4361.85
5018.55
6108.29
7367.92
9392.57
11469.8
14370.7
16431.6
19238.3
21512.4
27498.4