/*--------------------------------*- C++ -*----------------------------------*\
| =========                 |                                                 |
| \\      /  F ield         | OpenFOAM: The Open Source CFD Toolbox           |
|  \\    /   O peration     | Version:  2412                                  |
|   \\  /    A nd           | Website:  www.openfoam.com                      |
|    \\/     M anipulation  |                                                 |
\*---------------------------------------------------------------------------*/
FoamFile
{
    version     2.0;
    format      ascii;
    arch        "LSB;label=32;scalar=64";
    class       volScalarField;
    location    "0.6";
    object      k;
}
// * * * * * * * * * * * * * * * * * * * * * * * * * * * * * * * * * * * * * //

dimensions      [0 2 -2 0 0 0 0];

internalField   nonuniform List<scalar> 
13079
(
40.0951
44.2199
50.5773
59.0145
67.8818
74.7463
78.1101
77.9336
75.1699
71.0778
66.7528
63.0423
60.4689
59.129
58.7496
59.0819
59.9361
61.1332
62.4827
63.9088
65.3538
66.859
68.401
70.0586
71.7898
73.7085
75.731
78.0294
80.4487
83.2566
86.1823
89.6524
93.189
97.5009
101.77
107.205
112.389
119.372
125.939
135.819
145.807
161.936
178.667
203.998
227.232
257.585
277.866
305.467
325.21
379.836
442.321
557.04
948.322
1001.07
832.431
693.306
586.927
503.945
440.431
391.963
348.669
312.408
277.858
250.369
225.348
205.925
188.13
173.819
160.59
149.738
139.795
131.134
123.02
116.09
110.559
106.448
103.231
40.0496
44.1226
50.4297
58.841
67.7251
74.6441
78.0748
77.9514
75.2189
71.1407
66.822
63.1163
60.5421
59.1902
58.7974
59.1275
59.987
61.1891
62.5407
63.9676
65.4133
66.9199
68.4638
70.124
71.8582
73.7806
75.8069
78.1098
80.5339
83.3475
86.2792
89.7565
93.3008
97.6221
101.902
107.35
112.548
119.552
126.142
136.062
146.103
162.318
179.134
204.581
227.861
258.235
278.316
305.735
325.382
380.175
442.412
555.322
941.923
997.044
828.243
687.98
581.601
498.524
434.578
385.055
340.734
303.673
268.964
241.619
217.138
198.242
181.144
167.488
155.058
144.953
135.767
127.761
120.34
114.097
109.204
105.527
102.539
40.0051
44.0273
50.2851
58.6708
67.5713
74.544
78.0408
77.9705
75.2698
71.2067
66.896
63.1961
60.6208
59.2558
58.8488
59.1761
60.0404
61.2467
62.5999
64.0273
65.4735
66.9813
68.527
70.1898
71.9269
73.8528
75.8829
78.1904
80.6192
83.4385
86.3762
89.8607
93.4126
97.7436
102.034
107.495
112.709
119.732
126.346
136.306
146.399
162.698
179.596
205.153
228.473
258.863
278.748
305.994
325.559
380.506
442.481
553.557
935.405
992.834
824.042
682.779
576.423
493.225
428.813
378.236
332.943
295.16
260.402
233.283
209.411
191.072
174.69
161.684
150.035
140.635
132.157
124.766
118.005
112.403
108.073
104.753
101.94
39.9617
43.9342
50.1436
58.504
67.4205
74.446
78.008
77.9904
75.3221
71.2753
66.9739
63.2808
60.7041
59.3252
58.9035
59.2275
60.0957
61.3057
62.66
64.0876
65.5341
67.0431
68.5904
70.2557
71.9956
73.925
75.9589
78.2708
80.7043
83.5293
86.4729
89.9646
93.5243
97.8648
102.165
107.641
112.869
119.913
126.551
136.551
146.696
163.076
180.054
205.715
229.07
259.467
279.16
306.244
325.74
380.827
442.527
551.743
928.77
988.433
819.815
677.685
571.374
488.032
423.133
371.512
325.315
286.895
252.207
225.394
202.198
184.438
168.782
156.412
145.516
136.771
128.948
122.13
115.992
110.974
107.131
104.1
101.419
39.9192
43.843
50.005
58.3406
67.2725
74.3498
77.9762
78.0109
75.3753
71.346
67.0553
63.3697
60.7916
59.3979
58.9609
59.2813
60.1529
61.3658
62.7209
64.1484
65.5951
67.1051
68.654
70.3216
72.0643
73.9971
76.0346
78.3509
80.7892
83.6197
86.5693
90.0681
93.6354
97.9856
102.297
107.786
113.029
120.093
126.756
136.796
146.992
163.451
180.505
206.264
229.65
260.049
279.554
306.485
325.925
381.137
442.549
549.884
922.024
983.834
815.551
672.682
566.438
482.936
417.537
364.893
317.87
278.909
244.41
217.985
195.522
178.355
163.425
151.67
141.487
133.343
126.121
119.832
114.274
109.778
106.348
103.548
100.965
98.098
94.946
91.4407
87.7584
84.0752
80.6049
77.5263
74.9221
72.8681
71.2582
70.1099
69.2034
68.6416
68.1362
68.0066
67.8262
68.3123
68.694
70.4946
72.1624
76.9627
79.4636
39.8778
43.7539
49.8693
58.1803
67.1272
74.2553
77.9451
78.0317
75.4292
71.4184
67.1396
63.4625
60.8826
59.4736
59.021
59.3373
60.2117
61.427
62.7824
64.2096
65.6564
67.1672
68.7176
70.3875
72.1328
74.069
76.1101
78.4307
80.8736
83.7097
86.6651
90.1711
93.7461
98.1058
102.428
107.93
113.188
120.273
126.96
137.041
147.287
163.823
180.95
206.801
230.213
260.608
279.93
306.717
326.113
381.435
442.548
547.981
915.172
979.033
811.24
667.757
561.602
477.927
412.026
358.389
310.626
271.228
237.039
211.08
189.396
172.828
158.613
147.441
137.925
130.323
123.648
117.847
112.82
108.783
105.698
103.079
100.566
97.7031
94.525
90.9938
87.302
83.6335
80.2005
77.1799
74.6411
72.6547
71.1016
70.0016
69.1278
68.5922
68.099
67.9809
67.8002
68.2917
68.668
70.4707
72.1349
76.9118
79.374
39.8372
43.6667
49.7364
58.0231
66.9845
74.1624
77.9145
78.0526
75.4835
71.4921
67.2265
63.5585
60.9767
59.552
59.0834
59.3953
60.2719
61.4891
62.8444
64.2712
65.7178
67.2295
68.7812
70.4533
72.2012
74.1407
76.1853
78.5102
80.9576
83.7992
86.7605
90.2735
93.8562
98.2254
102.558
108.074
113.347
120.453
127.165
137.285
147.581
164.192
181.389
207.325
230.759
261.145
280.289
306.942
326.304
381.721
442.524
546.037
908.22
974.025
806.871
662.897
556.852
472.999
406.6
352.011
303.603
263.877
230.118
204.694
183.824
167.85
154.329
143.702
134.797
127.681
121.501
116.145
111.598
107.958
105.159
102.68
100.215
97.3483
94.144
90.5897
86.8912
83.2389
79.8425
76.8764
74.3976
72.472
70.9689
69.9114
69.0657
68.5524
68.0689
67.9601
67.7778
68.2733
68.6437
70.4467
72.1063
76.8564
79.2793
39.7976
43.5813
49.6061
57.8688
66.8441
74.0707
77.8843
78.0733
75.5378
71.5668
67.3155
63.6574
61.0737
59.6327
59.148
59.4552
60.3335
61.552
62.907
64.3331
65.7795
67.2918
68.8449
70.5191
72.2694
74.2121
76.2601
78.5892
81.0411
83.8882
86.8553
90.3753
93.9656
98.3443
102.688
108.217
113.506
120.632
127.369
137.528
147.874
164.557
181.821
207.837
231.288
261.66
280.631
307.16
326.499
381.994
442.477
544.054
901.175
968.807
802.436
658.089
552.178
468.145
401.262
345.771
296.818
256.879
223.665
198.834
178.796
163.403
150.543
140.418
132.069
125.382
119.648
114.696
110.577
107.276
104.71
102.338
99.905
97.0287
93.7989
90.2241
86.5214
82.8865
79.5256
76.6106
74.1865
72.3155
70.8568
69.8365
69.0148
68.5206
68.0445
67.9432
67.7584
68.2565
68.6205
70.4222
72.0762
76.7964
79.1793
39.7589
43.4977
49.4785
57.7173
66.7059
73.9803
77.8542
78.0937
75.5921
71.6422
67.4064
63.7589
61.1731
59.7154
59.2145
59.5168
60.3963
61.6157
62.97
64.3952
65.8413
67.3542
68.9084
70.5847
72.3375
74.2832
76.3347
78.6679
81.1242
83.9767
86.9495
90.4764
94.0743
98.4625
102.816
108.36
113.663
120.81
127.572
137.77
148.165
164.917
182.245
208.336
231.801
262.154
280.958
307.372
326.696
382.256
442.408
542.036
894.043
963.378
797.928
653.324
547.569
463.361
396.015
339.677
290.288
250.252
217.687
193.499
174.295
159.46
147.221
137.551
129.701
123.392
118.058
113.468
109.727
106.712
104.335
102.044
99.6301
96.7404
93.4863
89.8934
86.1889
82.5719
79.2453
76.3778
74.0037
72.1818
70.7623
69.7746
68.9734
68.4955
68.0248
67.9294
67.7412
68.241
68.598
70.3967
72.0443
76.7314
79.0738
39.721
43.4159
49.3533
57.5686
66.5699
73.8909
77.824
78.1136
75.646
71.7182
67.4988
63.8625
61.2745
59.8001
59.2828
59.58
60.4603
61.68
63.0333
64.4576
65.9032
67.4165
68.972
70.6502
72.4053
74.3541
76.4088
78.7461
81.2068
84.0646
87.043
90.5769
94.1823
98.5799
102.944
108.501
113.82
120.987
127.774
138.011
148.454
165.274
182.662
208.822
232.297
262.628
281.27
307.579
326.896
382.505
442.317
539.984
886.831
957.736
793.339
648.589
543.016
458.642
390.861
333.74
284.027
244.011
212.188
188.676
170.295
155.986
144.322
135.059
127.653
121.675
116.7
112.433
109.021
106.245
104.021
101.789
99.3855
96.48
93.203
89.5946
85.89
82.2914
78.9976
76.1744
73.8457
72.0679
70.683
69.7239
68.9402
68.476
68.0092
67.9181
67.7259
68.2262
68.5759
70.3701
72.0102
76.6614
78.9627
39.684
43.3357
49.2306
57.4224
66.4358
73.8023
77.7937
78.1327
75.6993
71.7943
67.5925
63.968
61.3778
59.8864
59.3528
59.6446
60.5252
61.745
63.0971
64.5201
65.9651
67.4789
69.0354
70.7155
72.4728
74.4246
76.4826
78.824
81.289
84.152
87.136
90.6767
94.2895
98.6965
103.072
108.642
113.976
121.163
127.976
138.251
148.741
165.626
183.072
209.295
232.777
263.082
281.569
307.781
327.099
382.741
442.206
537.903
879.545
951.881
788.662
643.876
538.511
453.984
385.803
327.969
278.047
238.164
207.161
184.344
166.761
152.942
141.803
132.902
125.886
120.198
115.543
111.563
108.437
105.859
103.757
101.568
99.1674
96.2447
92.9464
89.3248
85.6217
82.0416
78.7792
75.9969
73.7096
71.9712
70.6169
69.6829
68.9139
68.4613
67.9968
67.9089
67.712
68.2118
68.5538
70.3421
71.9737
76.5863
78.8458
39.6477
43.2572
49.1102
57.2787
66.3036
73.7145
77.763
78.1509
75.752
71.8705
67.6871
64.075
61.4827
59.9741
59.4243
59.7106
60.5911
61.8105
63.1611
64.5828
66.0272
67.5413
69.0988
70.7806
72.5402
74.4949
76.5561
78.9013
81.3706
84.2388
87.2283
90.7757
94.3959
98.8122
103.198
108.781
114.13
121.338
128.176
138.489
149.025
165.973
183.474
209.756
233.241
263.516
281.855
307.979
327.305
382.965
442.074
535.793
872.194
945.814
783.891
639.175
534.046
449.384
380.844
322.372
272.356
232.715
202.593
180.477
163.655
150.285
139.621
131.037
124.366
118.93
114.561
110.833
107.953
105.539
103.534
101.376
98.9725
96.0318
92.714
89.0813
85.3811
81.8196
78.5868
75.8425
73.5926
71.8897
70.5623
69.6502
68.8936
68.4505
67.9873
67.9014
67.6992
68.1977
68.5316
70.3125
71.9346
76.5061
78.7231
39.6123
43.1803
48.992
57.1373
66.173
73.6273
77.7319
78.1681
75.8037
71.9465
67.7825
64.1833
61.5889
60.0632
59.4972
59.7778
60.6579
61.8766
63.2254
64.6457
66.0893
67.6037
69.162
70.8456
72.6073
74.5648
76.6291
78.9783
81.4517
84.325
87.3199
90.8741
94.5015
98.927
103.323
108.92
114.284
121.512
128.375
138.726
149.307
166.315
183.869
210.204
233.689
263.933
282.129
308.174
327.514
383.177
441.922
533.658
864.782
939.536
779.021
634.478
529.614
444.84
375.985
316.956
266.961
227.664
198.467
177.044
160.937
147.974
137.735
129.427
123.058
117.843
113.728
110.222
107.552
105.273
103.345
101.207
98.7978
95.8393
92.5037
88.8619
85.1658
81.6226
78.4179
75.7086
73.4927
71.8214
70.5177
69.6247
68.8784
68.4432
67.98
67.8951
67.6872
68.1836
68.509
70.2812
71.8928
76.4206
78.5947
39.5776
43.1049
48.876
56.9982
66.0441
73.5405
77.7001
78.1842
75.8544
72.0221
67.8783
64.2927
61.6961
60.1533
59.5713
59.8462
60.7255
61.9431
63.29
64.7086
66.1514
67.6659
69.2251
70.9104
72.6741
74.6344
76.7018
79.0547
81.5322
84.4106
87.4109
90.9716
94.6062
99.0409
103.447
109.057
114.436
121.684
128.573
138.961
149.587
166.652
184.255
210.64
234.122
264.331
282.392
308.365
327.725
383.376
441.751
531.501
857.319
933.049
774.046
629.777
525.209
440.349
371.23
311.728
261.866
223.002
194.758
174.007
158.566
145.967
136.107
128.037
121.933
116.912
113.024
109.711
107.221
105.052
103.184
101.059
98.6411
95.6651
92.3135
88.6645
84.9734
81.4482
78.2699
75.5929
73.4077
71.7648
70.4818
69.6054
68.8676
68.4387
67.9746
67.8898
67.6757
68.1693
68.4858
70.2479
71.8482
76.33
78.4604
39.5437
43.031
48.7621
56.8612
65.9166
73.4541
77.6677
78.199
75.904
72.0972
67.9744
64.4028
61.8042
60.2445
59.6466
59.9156
60.7937
62.0099
63.3547
64.7717
66.2135
67.7282
69.2881
70.9749
72.7407
74.7037
76.774
79.1307
81.6122
84.4956
87.5011
91.0684
94.7101
99.1538
103.57
109.193
114.587
121.855
128.77
139.194
149.863
166.985
184.634
211.063
234.54
264.712
282.644
308.554
327.938
383.562
441.561
529.324
849.81
926.356
768.962
625.065
520.826
435.91
366.58
306.691
257.071
218.721
191.439
171.333
156.503
144.227
134.701
126.838
120.965
116.115
112.428
109.283
106.947
104.867
103.047
100.928
98.5004
95.5075
92.1416
88.487
84.8017
81.2941
78.1407
75.4934
73.3359
71.7184
70.4535
69.5915
68.8605
68.4365
67.9707
67.8853
67.6647
68.1546
68.4619
70.2127
71.8006
76.2342
78.3204
39.5104
42.9585
48.6502
56.7263
65.7905
73.368
77.6344
78.2124
75.9522
72.1716
68.0706
64.5135
61.913
60.3365
59.723
59.9861
60.8627
62.0772
63.4197
64.8348
66.2757
67.7903
69.351
71.0393
72.8069
74.7726
76.8459
79.2063
81.6917
84.5799
87.5907
91.1643
94.8131
99.2657
103.692
109.328
114.737
122.025
128.965
139.424
150.137
167.311
185.005
211.474
234.943
265.076
282.886
308.74
328.153
383.736
441.353
527.129
842.262
919.461
763.767
620.337
516.46
431.521
362.038
301.851
252.574
214.806
188.481
168.983
154.71
142.718
133.487
125.801
120.133
115.432
111.925
108.926
106.72
104.713
102.929
100.813
98.3738
95.3649
91.9865
88.3277
84.6489
81.1585
78.0284
75.4084
73.2759
71.6809
70.432
69.5823
68.8566
68.4364
67.9681
67.8812
67.6538
68.1394
68.4372
70.1754
71.7499
76.1334
78.1747
39.4779
42.8875
48.5403
56.5933
65.6656
73.282
77.6002
78.2243
75.999
72.2452
68.1668
64.6246
62.0223
60.4292
59.8004
60.0574
60.9322
62.1447
63.4847
64.898
66.3378
67.8524
69.4136
71.1034
72.8729
74.8412
76.9173
79.2813
81.7706
84.6637
87.6795
91.2595
94.9152
99.3766
103.813
109.461
114.885
122.193
129.158
139.653
150.408
167.633
185.368
211.873
235.331
265.425
283.12
308.925
328.371
383.898
441.127
524.918
834.683
912.368
758.457
615.585
512.107
427.181
357.605
297.208
248.37
211.239
185.852
166.922
153.153
141.409
132.438
124.904
119.416
114.848
111.5
108.627
106.532
104.584
102.828
100.71
98.2599
95.2361
91.8466
88.185
84.5133
81.0394
77.9312
75.3362
73.2263
71.6514
70.4162
69.5771
68.8555
68.4378
67.9664
67.8775
67.643
68.1236
68.4115
70.136
71.6961
76.0274
78.0235
39.446
42.8178
48.4322
56.4623
65.542
73.196
77.565
78.2346
76.0443
72.3179
68.2627
64.7359
62.132
60.5225
59.8786
60.1296
61.0023
62.2126
63.55
64.9612
66.3998
67.9143
69.4762
71.1674
72.9387
74.9094
76.9883
79.3559
81.849
84.7467
87.7676
91.3539
95.0163
99.4865
103.933
109.594
115.032
122.36
129.35
139.88
150.675
167.949
185.723
212.26
235.706
265.758
283.344
309.108
328.589
384.047
440.885
522.694
827.079
905.082
753.029
610.806
507.763
422.889
353.281
292.765
244.453
208
183.522
165.117
151.802
140.273
131.529
124.127
118.799
114.347
111.142
108.378
106.376
104.475
102.741
100.62
98.1574
95.1197
91.7207
88.0575
84.3932
80.9354
77.8476
75.2756
73.1859
71.629
70.4056
69.5755
68.8567
68.4406
67.9655
67.8739
67.632
68.107
68.3847
70.0943
71.6391
75.9165
77.8667
39.4148
42.7494
48.326
56.333
65.4194
73.11
77.5286
78.2433
76.088
72.3895
68.3582
64.8472
62.2419
60.6164
59.9577
60.2025
61.0729
62.2807
63.6153
65.0244
66.4619
67.9762
69.5385
71.231
73.0041
74.9773
77.0589
79.4299
81.9268
84.8292
87.855
91.4474
95.1165
99.5953
104.052
109.725
115.178
122.525
129.54
140.104
150.939
168.26
186.07
212.635
236.067
266.076
283.561
309.29
328.81
384.185
440.626
520.46
819.457
897.609
747.482
605.995
503.425
418.644
349.069
288.521
240.813
205.067
181.462
163.538
150.628
139.286
130.741
123.453
118.266
113.919
110.84
108.171
106.247
104.384
102.666
100.539
98.0651
95.0146
91.6074
87.9438
84.2872
80.8449
77.7761
75.2252
73.1538
71.6127
70.3995
69.5768
68.8599
68.4445
67.9652
67.8704
67.6208
68.0896
68.3568
70.0504
71.5789
75.8006
77.7045
39.3842
42.6823
48.2215
56.2054
65.2978
73.0239
77.4912
78.2503
76.13
72.4599
68.4532
64.9585
62.3519
60.7106
60.0375
60.2762
61.144
62.3491
63.6808
65.0877
66.5238
68.0379
69.6007
71.2945
73.0692
75.0448
77.1291
79.5035
82.004
84.911
87.9416
91.5401
95.2158
99.7031
104.169
109.855
115.322
122.689
129.729
140.326
151.2
168.566
186.409
212.999
236.414
266.38
283.77
309.47
329.031
384.31
440.351
518.217
811.824
889.954
741.815
601.147
499.09
414.446
344.968
284.475
237.44
202.419
179.642
162.157
149.608
138.428
130.057
122.867
117.807
113.553
110.586
107.998
106.141
104.308
102.601
100.468
97.982
94.9199
91.5058
87.8426
84.194
80.7666
77.7156
75.184
73.1289
71.6018
70.3974
69.5808
68.8647
68.4492
67.9652
67.8667
67.6093
68.0713
68.3277
70.0041
71.5154
75.68
77.537
39.3543
42.6164
48.1187
56.0794
65.1771
72.9376
77.4524
78.2554
76.1703
72.529
68.5476
65.0695
62.4618
60.8052
60.118
60.3505
61.2155
62.4177
63.7463
65.1509
66.5857
68.0995
69.6627
71.3577
73.134
75.1119
77.1988
79.5766
82.0807
84.9922
88.0275
91.6319
95.3141
99.8098
104.285
109.983
115.465
122.851
129.915
140.546
151.457
168.866
186.74
213.352
236.749
266.67
283.972
309.649
329.254
384.423
440.062
515.967
804.187
882.125
736.027
596.26
494.756
410.294
340.979
280.624
234.321
200.033
178.037
160.948
148.721
137.679
129.462
122.358
117.411
113.239
110.372
107.854
106.054
104.244
102.545
100.404
97.9071
94.8345
91.4148
87.7529
84.1125
80.6993
77.665
75.151
73.1106
71.5958
70.3986
69.587
68.8709
68.4546
67.9655
67.8628
67.5973
68.052
68.2973
69.9556
71.4488
75.5547
77.3644
39.3249
42.5518
48.0176
55.9551
65.0572
72.851
77.4124
78.2587
76.2087
72.5969
68.6413
65.1801
62.5717
60.9001
60.1991
60.4255
61.2873
62.4865
63.8119
65.2142
66.6475
68.161
69.7244
71.4206
73.1985
75.1787
77.2681
79.6492
82.1567
85.0727
88.1126
91.7229
95.4115
99.9155
104.4
110.11
115.606
123.011
130.1
140.763
151.711
169.16
187.064
213.693
237.071
266.948
284.168
309.827
329.477
384.524
439.757
513.713
796.552
874.128
730.118
591.33
490.422
406.187
337.101
276.966
231.443
197.886
176.621
159.89
147.949
137.026
128.945
121.914
117.069
112.971
110.193
107.735
105.983
104.19
102.496
100.347
97.8397
94.7576
91.3334
87.6735
84.0415
80.642
77.6232
75.1253
73.098
71.5941
70.4029
69.5952
68.8783
68.4605
67.9659
67.8586
67.5849
68.0316
68.2656
69.9048
71.3789
75.4248
77.1868
39.2962
42.4883
47.918
55.8321
64.9381
72.7641
77.371
78.2602
76.2453
72.6633
68.7341
65.2903
62.6813
60.9951
60.2807
60.501
61.3596
62.5554
63.8775
65.2774
66.7093
68.2223
69.786
71.4833
73.2626
75.2451
77.337
79.7213
82.2322
85.1525
88.1969
91.813
95.5079
100.02
104.514
110.236
115.746
123.169
130.282
140.977
151.962
169.449
187.38
214.024
237.38
267.213
284.358
310.005
329.701
384.614
439.439
511.457
788.926
865.972
724.09
586.356
486.084
402.126
333.333
273.496
228.793
195.958
175.374
158.964
147.276
136.455
128.493
121.528
116.775
112.743
110.043
107.636
105.924
104.145
102.454
100.297
97.779
94.6886
91.2607
87.6037
83.98
80.5937
77.5893
75.1062
73.0906
71.5961
70.4098
69.6049
68.8866
68.4667
67.9664
67.8539
67.5719
68.0103
68.2325
69.8517
71.3059
75.2904
77.0044
39.268
42.4259
47.8199
55.7107
64.8197
72.6768
77.3282
78.2596
76.28
72.7283
68.8261
65.4
62.7906
61.0903
60.3629
60.577
61.4322
62.6245
63.9432
65.3406
66.7709
68.2835
69.8474
71.5457
73.3265
75.3111
77.4054
79.7929
82.3072
85.2317
88.2806
91.9023
95.6033
100.124
104.627
110.36
115.884
123.326
130.463
141.189
152.209
169.733
187.688
214.344
237.678
267.466
284.543
310.181
329.925
384.692
439.107
509.199
781.314
857.663
717.943
581.335
481.743
398.11
329.676
270.209
226.357
194.227
174.274
158.152
146.688
135.956
128.1
121.191
116.521
112.548
109.919
107.556
105.877
104.108
102.418
100.251
97.7245
94.6265
91.1961
87.5424
83.9271
80.5534
77.5625
75.0929
73.0877
71.6014
70.419
69.6161
68.8957
68.4731
67.9667
67.8489
67.5583
67.9878
68.198
69.7962
71.2297
75.1518
76.8174
39.2403
42.3646
47.7233
55.5905
64.7019
72.589
77.284
78.2571
76.3127
72.7918
68.9171
65.509
62.8995
61.1855
60.4455
60.6535
61.505
62.6937
64.0089
65.4037
66.8325
68.3445
69.9086
71.6079
73.39
75.3767
77.4734
79.864
82.3815
85.3102
88.3634
91.9908
95.6978
100.226
104.738
110.483
116.021
123.481
130.642
141.399
152.452
170.011
187.989
214.654
237.965
267.708
284.722
310.357
330.149
384.759
438.762
506.943
773.723
849.212
711.679
576.266
477.398
394.139
326.128
267.099
224.119
192.674
173.305
157.44
146.176
135.519
127.757
120.899
116.304
112.384
109.816
107.49
105.839
104.078
102.386
100.211
97.6754
94.5709
91.1387
87.4888
83.882
80.5204
77.5421
75.0848
73.0889
71.6097
70.4302
69.6284
68.9053
68.4796
67.9669
67.8433
67.544
67.9641
68.162
69.7385
71.1504
75.0091
76.6259
39.2132
42.3044
47.6281
55.4717
64.5847
72.5007
77.2382
78.2526
76.3435
72.8538
69.007
65.6173
63.008
61.2808
60.5286
60.7305
61.5782
62.7631
64.0747
65.4668
66.894
68.4053
69.9695
71.6698
73.4533
75.442
77.541
79.9345
82.4553
85.3881
88.4456
92.0784
95.7914
100.327
104.848
110.604
116.156
123.635
130.819
141.606
152.692
170.284
188.283
214.954
238.24
267.94
284.896
310.532
330.373
384.815
438.405
504.69
766.159
840.625
705.3
571.149
473.047
390.213
322.687
264.16
222.067
191.282
172.451
156.815
145.728
135.136
127.457
120.644
116.117
112.244
109.732
107.437
105.81
104.052
102.359
100.175
97.6312
94.5211
91.0879
87.4423
83.844
80.494
77.5275
75.0814
73.0937
71.6205
70.4431
69.6417
68.9154
68.4861
67.9668
67.8371
67.529
67.9394
68.1247
69.6786
71.068
74.8623
76.4302
39.1866
42.2452
47.5343
55.3541
64.468
72.4118
77.1909
78.2461
76.3722
72.9141
69.0959
65.7248
63.1159
61.376
60.612
60.8078
61.6516
62.8325
64.1404
65.5299
66.9553
68.466
70.0303
71.7314
73.5162
75.5069
77.6081
80.0046
82.5285
85.4653
88.527
92.1652
95.8839
100.428
104.957
110.725
116.289
123.786
130.993
141.81
152.929
170.551
188.57
215.244
238.505
268.16
285.066
310.707
330.596
384.86
438.037
502.442
758.628
831.913
698.809
565.982
468.69
386.331
319.352
261.386
220.185
190.035
171.698
156.267
145.337
134.801
127.196
120.422
115.958
112.127
109.663
107.395
105.787
104.032
102.335
100.144
97.5915
94.4765
91.043
87.4021
83.8122
80.4734
77.5179
75.0822
73.1017
71.6336
70.4575
69.6558
68.9259
68.4926
67.9664
67.8304
67.5133
67.9134
68.0859
69.6164
70.9827
74.7117
76.2304
39.1606
42.1871
47.4419
55.2377
64.3517
72.3223
77.1421
78.2375
76.399
72.9729
69.1836
65.8314
63.2233
61.4712
60.6957
60.8856
61.7252
62.9021
64.2062
65.5929
67.0165
68.5266
70.0908
71.7927
73.5787
75.5714
77.6748
80.0742
82.6011
85.5419
88.6076
92.2511
95.9756
100.527
105.065
110.843
116.421
123.936
131.166
142.012
153.161
170.814
188.849
215.525
238.76
268.372
285.232
310.881
330.819
384.895
437.657
500.199
751.134
823.085
692.208
560.766
464.328
382.493
316.122
258.768
218.462
188.917
171.033
155.785
144.995
134.507
126.969
120.231
115.823
112.029
109.608
107.363
105.77
104.015
102.315
100.115
97.5558
94.4366
91.0035
87.3677
83.7862
80.458
77.5129
75.0866
73.1125
71.6486
70.4731
69.6706
68.9366
68.4988
67.9657
67.823
67.4968
67.8863
68.0457
69.5521
70.8944
74.5575
76.0267
39.135
42.1299
47.3507
55.1224
64.2358
72.2322
77.0917
78.2269
76.4237
73.03
69.2701
65.9372
63.3301
61.5662
60.7797
60.9636
61.799
62.9717
64.2719
65.6558
67.0777
68.587
70.1511
71.8538
73.641
75.6356
77.741
80.1433
82.6732
85.6178
88.6875
92.3362
96.0663
100.625
105.171
110.961
116.552
124.084
131.337
142.211
153.391
171.071
189.122
215.796
239.005
268.573
285.394
311.054
331.041
384.919
437.267
497.964
743.683
814.15
685.503
555.5
459.959
378.701
312.992
256.301
216.884
187.914
170.447
155.362
144.696
134.25
126.772
120.065
115.708
111.949
109.565
107.338
105.757
104.002
102.298
100.089
97.5236
94.401
90.9689
87.3384
83.7652
80.4473
77.5119
75.0943
73.1258
71.6654
70.4899
69.6858
68.9474
68.5049
67.9646
67.815
67.4795
67.858
68.004
69.4857
70.8033
74.3997
75.8194
39.1099
42.0737
47.2607
55.0081
64.1203
72.1414
77.0396
78.2141
76.4464
73.0855
69.3555
66.042
63.4362
61.6611
60.864
61.042
61.873
63.0414
64.3377
65.7187
67.1387
68.6472
70.2112
71.9146
73.7029
75.6993
77.8068
80.2119
82.7447
85.6931
88.7667
92.4205
96.156
100.722
105.277
111.077
116.681
124.231
131.506
142.408
153.617
171.323
189.388
216.059
239.241
268.766
285.552
311.226
331.262
384.933
436.868
495.739
736.28
805.117
678.695
550.186
455.586
374.952
309.963
253.976
215.44
187.016
169.93
154.99
144.435
134.026
126.601
119.923
115.613
111.883
109.532
107.32
105.749
103.992
102.283
100.067
97.4947
94.3693
90.9385
87.3137
83.7488
80.4408
77.5145
75.1049
73.1413
71.6836
70.5075
69.7015
68.9582
68.5107
67.9631
67.8063
67.4614
67.8285
67.9609
69.4171
70.7094
74.2386
75.6086
39.0853
42.0183
47.172
54.8949
64.005
72.0498
76.986
78.1993
76.4671
73.1394
69.4395
66.1458
63.5416
61.7558
60.9485
61.1207
61.9472
63.1111
64.4034
65.7815
67.1995
68.7072
70.2711
71.9752
73.7645
75.7627
77.8722
80.28
82.8157
85.7678
88.8452
92.504
96.2449
100.818
105.381
111.192
116.808
124.376
131.673
142.602
153.839
171.57
189.647
216.314
239.467
268.951
285.707
311.398
331.482
384.937
436.458
493.524
728.93
795.997
671.791
544.825
451.208
371.249
307.031
251.786
214.117
186.21
169.473
154.663
144.208
133.83
126.454
119.802
115.534
111.83
109.508
107.308
105.745
103.984
102.27
100.046
97.4686
94.3409
90.9121
87.2931
83.7364
80.4381
77.5204
75.1181
73.1587
71.7032
70.5259
69.7174
68.9691
68.5162
67.9611
67.7969
67.4426
67.7979
67.9164
69.3466
70.6129
74.0743
75.3946
39.0611
41.9639
47.0844
54.7826
63.89
71.9575
76.9307
78.1825
76.4857
73.1915
69.5224
66.2486
63.6463
61.8503
61.0332
61.1996
62.0215
63.1809
64.4691
65.8442
67.2603
68.767
70.3307
72.0354
73.8258
75.8257
77.9372
80.3476
82.886
85.8418
88.9229
92.5866
96.3328
100.913
105.484
111.305
116.934
124.519
131.838
142.794
154.058
171.813
189.901
216.56
239.685
269.128
285.859
311.569
331.7
384.932
436.04
491.32
721.638
786.8
664.794
539.417
446.826
367.59
304.194
249.723
212.906
185.487
169.07
154.377
144.01
133.66
126.328
119.699
115.469
111.788
109.492
107.301
105.743
103.979
102.259
100.028
97.445
94.3156
90.8891
87.2761
83.7277
80.4386
77.5291
75.1335
73.1777
71.7238
70.5449
69.7335
68.9798
68.5213
67.9587
67.7868
67.4229
67.7661
67.8705
69.2741
70.5138
73.9071
75.1775
39.0374
41.9104
46.9979
54.6713
63.7753
71.8645
76.8737
78.1635
76.5023
73.242
69.6039
66.3504
63.7503
61.9445
61.1181
61.2788
62.096
63.2507
64.5348
65.9068
67.3209
68.8267
70.3901
72.0954
73.8868
75.8884
78.0017
80.4148
82.9559
85.9152
88.9999
92.6685
96.4199
101.007
105.586
111.417
117.059
124.66
132.001
142.983
154.274
172.05
190.147
216.798
239.894
269.297
286.008
311.739
331.916
384.917
435.614
489.13
714.407
777.535
657.709
533.965
442.44
363.976
301.449
247.782
211.797
184.838
168.714
154.125
143.839
133.512
126.221
119.612
115.418
111.757
109.482
107.299
105.745
103.976
102.249
100.011
97.4237
94.2931
90.8693
87.2625
83.7222
80.4421
77.5403
75.1508
73.1983
71.7453
70.5645
69.7498
68.9905
68.526
67.9557
67.776
67.4024
67.7332
67.8232
69.1997
70.4122
73.737
74.9577
39.0141
41.8577
46.9125
54.5609
63.6607
71.7706
76.8151
78.1425
76.5169
73.2909
69.6842
66.4511
63.8534
62.0385
61.2032
61.3582
62.1706
63.3206
64.6004
65.9694
67.3814
68.8862
70.4493
72.1551
73.9474
75.9507
78.0658
80.4815
83.0252
85.988
89.0763
92.7496
96.5061
101.1
105.687
111.528
117.182
124.8
132.162
143.17
154.486
172.283
190.388
217.029
240.096
269.459
286.154
311.908
332.131
384.893
435.18
486.953
707.242
768.213
650.543
528.469
438.053
360.407
298.795
245.953
210.78
184.255
168.4
153.905
143.691
133.385
126.13
119.541
115.377
111.734
109.477
107.3
105.748
103.974
102.241
99.9963
97.4044
94.2729
90.8521
87.2517
83.7195
80.4481
77.5537
75.17
73.22
71.7676
70.5844
69.766
69.0009
68.5303
67.9522
67.7645
67.3811
67.6992
67.7746
69.1234
70.3082
73.5643
74.7351
38.9913
41.8058
46.8281
54.4513
63.5462
71.6759
76.7549
78.1194
76.5295
73.3381
69.7631
66.5507
63.9558
62.1323
61.2883
61.4378
62.2453
63.3904
64.666
66.0318
67.4417
68.9455
70.5083
72.2146
74.0077
76.0126
78.1295
80.5477
83.094
86.0602
89.152
92.83
96.5914
101.192
105.786
111.638
117.304
124.938
132.321
143.354
154.696
172.512
190.623
217.252
240.289
269.614
286.297
312.076
332.344
384.861
434.739
484.792
700.146
758.843
643.299
522.933
433.664
356.883
296.227
244.231
209.848
183.732
168.123
153.713
143.563
133.276
126.055
119.482
115.348
111.719
109.478
107.305
105.753
103.973
102.234
99.9828
97.3867
94.2548
90.8374
87.2434
83.7192
80.4564
77.569
75.1906
73.2429
71.7906
70.6046
69.7823
69.0111
68.5342
67.9482
67.7522
67.359
67.6641
67.7247
69.0454
70.2019
73.3891
74.5102
38.9688
41.7547
46.7448
54.3425
63.4318
71.5803
76.6929
78.0942
76.5401
73.3836
69.8408
66.6493
64.0574
62.2257
61.3736
61.5176
62.3201
63.4603
64.7315
66.0942
67.5019
69.0046
70.567
72.2737
74.0677
76.0741
78.1928
80.6134
83.1622
86.1318
89.227
92.9095
96.6758
101.283
105.885
111.746
117.424
125.075
132.479
143.536
154.902
172.736
190.853
217.468
240.476
269.762
286.438
312.244
332.556
384.821
434.291
482.647
693.124
749.435
635.985
517.359
429.277
353.405
293.744
242.609
208.992
183.262
167.88
153.546
143.454
133.184
125.993
119.436
115.327
111.711
109.483
107.312
105.76
103.974
102.228
99.9703
97.3706
94.2386
90.8248
87.2374
83.7212
80.4666
77.586
75.2125
73.2667
71.8141
70.6251
69.7985
69.0211
68.5377
67.9437
67.7393
67.3361
67.6279
67.6735
68.9657
70.0934
73.2117
74.2831
38.9467
41.7044
46.6624
54.2345
63.3175
71.4838
76.6293
78.067
76.5487
73.4276
69.9171
66.7467
64.1582
62.3189
61.459
61.5975
62.395
63.5302
64.797
66.1565
67.562
69.0635
70.6255
72.3326
74.1274
76.1353
78.2557
80.6786
83.2299
86.2029
89.3013
92.9884
96.7594
101.374
105.982
111.853
117.543
125.21
132.634
143.715
155.105
172.956
191.077
217.677
240.656
269.905
286.577
312.41
332.765
384.773
433.837
480.518
686.178
740
628.606
511.749
424.891
349.973
291.343
241.081
208.206
182.839
167.665
153.4
143.362
133.106
125.943
119.4
115.314
111.709
109.492
107.321
105.768
103.975
102.223
99.9589
97.3558
94.224
90.814
87.2333
83.7251
80.4786
77.6045
75.2355
73.2913
71.8381
70.6456
69.8146
69.0307
68.5407
67.9386
67.7257
67.3125
67.5906
67.6211
68.8843
69.9828
73.032
74.0539
38.9251
41.6549
46.581
54.1272
63.2033
71.3865
76.564
78.0378
76.5553
73.4699
69.9922
66.843
64.2582
62.4117
61.5444
61.6776
62.4699
63.6001
64.8625
66.2186
67.6219
69.1223
70.6838
72.3912
74.1868
76.1961
78.3182
80.7434
83.2971
86.2733
89.375
93.0665
96.8422
101.463
106.079
111.959
117.66
125.343
132.788
143.893
155.305
173.171
191.296
217.88
240.829
270.042
286.714
312.576
332.972
384.717
433.378
478.408
679.311
730.546
621.168
506.106
420.51
346.588
289.022
239.639
207.484
182.458
167.477
153.274
143.284
133.042
125.904
119.374
115.308
111.712
109.504
107.333
105.777
103.977
102.219
99.9484
97.3422
94.2109
90.8049
87.2309
83.7306
80.492
77.6242
75.2595
73.3165
71.8623
70.6663
69.8305
69.0401
68.5433
67.933
67.7114
67.288
67.5523
67.5675
68.8014
69.8703
72.8505
73.823
38.9038
41.6061
46.5006
54.0205
63.0891
71.2883
76.497
78.0065
76.5601
73.5106
70.066
66.9382
64.3573
62.5042
61.6299
61.7578
62.545
63.67
64.9279