/*--------------------------------*- C++ -*----------------------------------*\
| =========                 |                                                 |
| \\      /  F ield         | OpenFOAM: The Open Source CFD Toolbox           |
|  \\    /   O peration     | Version:  2412                                  |
|   \\  /    A nd           | Website:  www.openfoam.com                      |
|    \\/     M anipulation  |                                                 |
\*---------------------------------------------------------------------------*/
FoamFile
{
    version     2.0;
    format      ascii;
    arch        "LSB;label=32;scalar=64";
    class       volScalarField;
    location    "0.6";
    object      nut;
}
// * * * * * * * * * * * * * * * * * * * * * * * * * * * * * * * * * * * * * //

dimensions      [0 2 -1 0 0 0 0];

internalField   nonuniform List<scalar> 
13079
(
0.347547
0.366832
0.388654
0.40511
0.409269
0.398631
0.375456
0.344799
0.312307
0.282641
0.259248
0.245122
0.243123
0.254861
0.277924
0.304825
0.327272
0.342008
0.350452
0.355278
0.35835
0.360758
0.362867
0.36495
0.36692
0.368941
0.370774
0.372678
0.374271
0.375979
0.377226
0.378697
0.379523
0.38081
0.381264
0.382515
0.382531
0.38377
0.383859
0.386371
0.387752
0.39073
0.390348
0.387642
0.378061
0.361845
0.341352
0.328623
0.331461
0.359588
0.386776
0.415026
0.456296
0.425052
0.30705
0.217915
0.169798
0.137342
0.116229
0.097389
0.0824421
0.0692211
0.0596287
0.0518601
0.0464602
0.0419377
0.0387809
0.0361577
0.0346611
0.0337826
0.034064
0.0352046
0.0379994
0.0425877
0.0499128
0.0595802
0.0711844
0.347389
0.366564
0.388405
0.404986
0.409309
0.398824
0.375759
0.345161
0.312703
0.283086
0.259799
0.245863
0.244147
0.256247
0.279685
0.306828
0.3293
0.343919
0.352206
0.356892
0.359843
0.362149
0.364168
0.366176
0.368081
0.370055
0.371856
0.373749
0.375347
0.377084
0.378377
0.379921
0.380832
0.382236
0.382812
0.384225
0.384397
0.385854
0.386142
0.388944
0.390563
0.393905
0.393811
0.391614
0.382434
0.3669
0.346881
0.335041
0.338439
0.366813
0.39332
0.41981
0.458338
0.427429
0.310703
0.221679
0.173133
0.140185
0.118649
0.0993775
0.0841757
0.0707287
0.0611273
0.0533349
0.04804
0.0435426
0.0405024
0.0379598
0.036671
0.0360249
0.0366986
0.0383436
0.04192
0.0475233
0.0560938
0.0669641
0.0795497
0.347235
0.366302
0.388159
0.404864
0.409349
0.399016
0.376061
0.345521
0.313099
0.283532
0.260346
0.24659
0.245137
0.257569
0.281344
0.308699
0.331179
0.34568
0.353821
0.358375
0.361216
0.363429
0.365367
0.367307
0.369155
0.371089
0.372862
0.374747
0.376353
0.378122
0.37946
0.381077
0.382069
0.383587
0.38428
0.385848
0.38617
0.387836
0.388317
0.391397
0.393244
0.396938
0.397124
0.395427
0.386647
0.371797
0.352265
0.341317
0.345246
0.373804
0.399608
0.424377
0.460231
0.429571
0.314143
0.225313
0.176393
0.142999
0.121089
0.101436
0.0860377
0.0724131
0.062862
0.0550856
0.0499406
0.0454897
0.0425966
0.0401544
0.0391091
0.0387304
0.0398548
0.0420786
0.0465364
0.0532412
0.063093
0.0751216
0.0885836
0.347083
0.366043
0.387917
0.404744
0.409389
0.399206
0.376359
0.345879
0.313492
0.283975
0.260889
0.247305
0.246097
0.258832
0.28291
0.310446
0.33292
0.347303
0.355304
0.359738
0.362477
0.364606
0.366471
0.368351
0.370148
0.372047
0.373797
0.375679
0.377295
0.379096
0.380479
0.382166
0.383238
0.384865
0.38567
0.387388
0.387853
0.38972
0.390385
0.393733
0.395798
0.399832
0.400291
0.399083
0.3907
0.376535
0.357499
0.347442
0.351872
0.380554
0.405639
0.42873
0.461982
0.431489
0.31737
0.22881
0.179572
0.145779
0.123549
0.103571
0.0880432
0.0742981
0.0648665
0.0571531
0.052209
0.0478291
0.0451169
0.0427966
0.0420331
0.0419591
0.0435963
0.0464754
0.0519079
0.0597787
0.070912
0.08402
0.0982297
0.346934
0.365788
0.387678
0.404626
0.409429
0.399394
0.376655
0.346234
0.313884
0.284417
0.261428
0.248008
0.247029
0.26004
0.284388
0.312077
0.334532
0.348798
0.356667
0.360989
0.363636
0.365689
0.367487
0.369314
0.371066
0.372935
0.374667
0.376548
0.378176
0.38001
0.381438
0.383192
0.384342
0.386074
0.386986
0.388846
0.389449
0.391509
0.39235
0.395954
0.398229
0.40259
0.403314
0.402583
0.394594
0.381113
0.36258
0.35341
0.358309
0.387057
0.411413
0.432873
0.463598
0.433189
0.320386
0.232164
0.182664
0.148523
0.126032
0.105791
0.0902079
0.076409
0.067177
0.0595808
0.0548948
0.0506131
0.0481179
0.0459424
0.0455005
0.0457701
0.0479839
0.0515932
0.0580802
0.0671526
0.0795298
0.0936063
0.108417
0.121988
0.133256
0.14192
0.148627
0.154089
0.159195
0.164864
0.17139
0.17933
0.188088
0.198005
0.207852
0.218366
0.227892
0.238043
0.246663
0.256723
0.265029
0.276438
0.285705
0.299151
0.30182
0.346788
0.365538
0.387442
0.404509
0.409468
0.399579
0.376947
0.346586
0.314273
0.284857
0.261964
0.2487
0.247934
0.261197
0.285785
0.3136
0.336023
0.350174
0.357918
0.362136
0.364699
0.366683
0.368423
0.370202
0.371915
0.373758
0.375475
0.377358
0.378999
0.380867
0.382338
0.384159
0.385383
0.387215
0.388231
0.390227
0.390961
0.393205
0.394215
0.398065
0.400541
0.405216
0.406196
0.405931
0.398331
0.38553
0.367506
0.359214
0.364549
0.393311
0.41693
0.43681
0.465086
0.43468
0.323193
0.235369
0.185663
0.151227
0.128538
0.108103
0.0925484
0.0787729
0.0698315
0.0624144
0.0580486
0.0538943
0.0516538
0.0496466
0.0495665
0.0502189
0.0530725
0.0574803
0.0650808
0.0753569
0.0889027
0.10381
0.119061
0.132695
0.143809
0.152228
0.158726
0.164077
0.169181
0.174932
0.181561
0.189571
0.198305
0.208083
0.21767
0.227823
0.236917
0.246596
0.254749
0.264352
0.272247
0.283262
0.292196
0.305249
0.307629
0.346644
0.365291
0.38721
0.404394
0.409507
0.399763
0.377237
0.346935
0.314661
0.285296
0.262497
0.249382
0.248814
0.262305
0.287104
0.315023
0.337403
0.351438
0.359065
0.363188
0.365675
0.367597
0.369284
0.37102
0.372699
0.374521
0.376226
0.378114
0.37977
0.38167
0.383185
0.385069
0.386364
0.388293
0.389407
0.391534
0.392393
0.394813
0.395984
0.400068
0.402737
0.407713
0.408941
0.40913
0.401912
0.389786
0.372273
0.364847
0.370586
0.399313
0.422193
0.440545
0.466452
0.435971
0.325793
0.238423
0.188566
0.153891
0.131069
0.110515
0.0950816
0.081418
0.0728691
0.0656998
0.06172
0.0577235
0.0557756
0.05396
0.0542808
0.0553545
0.058907
0.0641698
0.0729164
0.0843621
0.0989663
0.114546
0.130072
0.143624
0.154487
0.162601
0.168855
0.174073
0.17915
0.184949
0.191635
0.199657
0.208307
0.217887
0.227165
0.236916
0.245555
0.254749
0.262432
0.271581
0.279074
0.289702
0.298311
0.310985
0.313097
0.346504
0.365049
0.386981
0.404281
0.409546
0.399945
0.377524
0.347282
0.315048
0.285735
0.263027
0.250056
0.249672
0.263368
0.288352
0.31635
0.338678
0.3526
0.360116
0.364152
0.366569
0.368436
0.370075
0.371775
0.373424
0.375228
0.376925
0.378818
0.380489
0.382423
0.383979
0.385925
0.387289
0.38931
0.390518
0.392768
0.393748
0.396335
0.397661
0.401968
0.404821
0.410085
0.411553
0.412182
0.405341
0.393882
0.376881
0.370305
0.376413
0.40506
0.427203
0.444084
0.467704
0.43707
0.328189
0.241323
0.191368
0.156512
0.133628
0.113033
0.0978247
0.0843728
0.0763289
0.069482
0.0659557
0.0621472
0.0605283
0.0589264
0.059685
0.0612158
0.0655185
0.0716761
0.0815705
0.0941159
0.109639
0.125717
0.141352
0.154689
0.165212
0.172971
0.178953
0.184014
0.18904
0.194852
0.201552
0.209533
0.218044
0.227375
0.236304
0.245624
0.253791
0.262494
0.269711
0.278413
0.285514
0.295765
0.304061
0.316369
0.318234
0.346366
0.36481
0.386755
0.404169
0.409585
0.400125
0.377808
0.347626
0.315433
0.286172
0.263556
0.250722
0.250509
0.26439
0.289532
0.31759
0.339857
0.353667
0.361079
0.365034
0.367388
0.369206
0.370803
0.37247
0.374094
0.375884
0.377574
0.379474
0.381162
0.383128
0.384726
0.386731
0.38816
0.390269
0.391566
0.393935
0.395028
0.397775
0.399249
0.403768
0.406796
0.412337
0.414035
0.415091
0.40862
0.397819
0.381329
0.375584
0.382028
0.410553
0.431966
0.44743
0.468847
0.437985
0.330386
0.244066
0.194069
0.159089
0.136215
0.115667
0.100795
0.0876657
0.0802484
0.0738026
0.0707964
0.0672045
0.0659479
0.06458
0.0658092
0.0678287
0.0729213
0.0799927
0.0910035
0.104546
0.120824
0.137222
0.152803
0.165805
0.17591
0.183272
0.188955
0.193841
0.198793
0.204585
0.211257
0.219148
0.227473
0.236512
0.24506
0.253927
0.261616
0.269827
0.276586
0.28485
0.291573
0.301458
0.309453
0.321412
0.32305
0.346231
0.364575
0.386533
0.40406
0.409624
0.400303
0.37809
0.347969
0.315817
0.28661
0.264083
0.251382
0.251327
0.265373
0.29065
0.318747
0.340945
0.354647
0.36196
0.365841
0.368139
0.369912
0.371473
0.373111
0.374713
0.376491
0.378177
0.380086
0.381791
0.383788
0.385426
0.387488
0.38898
0.391172
0.392555
0.395035
0.396238
0.399136
0.400751
0.405472
0.408667
0.414471
0.416392
0.41786
0.411752
0.401598
0.385614
0.380681
0.387426
0.415793
0.436484
0.45059
0.469889
0.438725
0.332387
0.246652
0.196665
0.161621
0.138833
0.118422
0.104008
0.0913242
0.084662
0.0786977
0.0762745
0.072925
0.0720591
0.0709428
0.0726701
0.0752036
0.0811108
0.0890908
0.101154
0.115561
0.132417
0.148954
0.164329
0.176889
0.18651
0.193439
0.198805
0.203498
0.208353
0.214096
0.220701
0.228459
0.236557
0.24527
0.253413
0.261815
0.269023
0.276748
0.28306
0.2909
0.297258
0.306792
0.314499
0.326125
0.327554
0.346098
0.364344
0.386313
0.403952
0.409663
0.40048
0.378369
0.348309
0.3162
0.287048
0.26461
0.252035
0.252128
0.26632
0.291711
0.319829
0.341951
0.355545
0.362766
0.366579
0.368826
0.37056
0.372088
0.373702
0.375285
0.377053
0.378737
0.380656
0.382378
0.384407
0.386083
0.388199
0.389752
0.392023
0.393487
0.396074
0.397379
0.400422
0.402171
0.407083
0.410437
0.416493
0.418627
0.420494
0.414739
0.40522
0.389738
0.385593
0.392606
0.420783
0.440763
0.453568
0.470835
0.439297
0.334198
0.249081
0.199156
0.164107
0.141482
0.121306
0.10748
0.0953736
0.0895992
0.0841958
0.0824116
0.0793259
0.0788733
0.0780225
0.0802685
0.0833329
0.0900617
0.0989197
0.11194
0.12706
0.144305
0.160807
0.175837
0.187862
0.196945
0.203416
0.208448
0.212935
0.217674
0.223338
0.229843
0.23743
0.245268
0.253626
0.261349
0.269279
0.27601
0.28326
0.289139
0.296571
0.30258
0.311776
0.319209
0.330519
0.331758
0.345967
0.364116
0.386097
0.403845
0.409701
0.400656
0.378646
0.348647
0.316582
0.287486
0.265136
0.252684
0.252913
0.267235
0.292718
0.320841
0.34288
0.356368
0.363502
0.367254
0.369455
0.371154
0.372653
0.374246
0.375813
0.377575
0.379258
0.381187
0.382927
0.384986
0.386699
0.388867
0.390477
0.392824
0.394365
0.397052
0.398456
0.401636
0.403512
0.408606
0.412111
0.418406
0.420745
0.422996
0.417585
0.408689
0.393701
0.390318
0.397568
0.425525
0.444809
0.456371
0.471693
0.43971
0.335825
0.251354
0.201541
0.166547
0.144165
0.124325
0.111224
0.0998362
0.0950829
0.0903154
0.0892165
0.0864104
0.0863861
0.0858112
0.0885883
0.092191
0.0997284
0.109409
0.123264
0.138929
0.156376
0.172679
0.187239
0.198654
0.207156
0.21315
0.217838
0.222107
0.226713
0.232273
0.238646
0.246032
0.253582
0.261568
0.268861
0.27632
0.282582
0.28937
0.294832
0.301874
0.30755
0.316424
0.323597
0.334606
0.335672
0.345839
0.363892
0.385883
0.403741
0.40974
0.40083
0.378921
0.348984
0.316965
0.287925
0.265663
0.253328
0.253684
0.268119
0.293676
0.321787
0.343738
0.357123
0.364175
0.36787
0.37003
0.371699
0.373173
0.374748
0.376302
0.378058
0.379742
0.381682
0.38344
0.385528
0.387277
0.389495
0.391159
0.393578
0.395192
0.397974
0.399472
0.402782
0.404778
0.410045
0.413692
0.420215
0.42275
0.425371
0.420295
0.412005
0.397504
0.394856
0.402312
0.430023
0.448628
0.459004
0.472467
0.439972
0.337273
0.253473
0.20382
0.16894
0.146883
0.127485
0.115254
0.10473
0.101128
0.0970634
0.0966835
0.0941665
0.0945776
0.0942844
0.0975962
0.101733
0.110046
0.12047
0.13502
0.151053
0.168519
0.184473
0.198457
0.209201
0.217092
0.222596
0.226934
0.230977
0.235434
0.240868
0.247084
0.254242
0.261484
0.269084
0.275945
0.282938
0.288744
0.295086
0.300151
0.30682
0.31218
0.320748
0.327675
0.3384
0.339308
0.345714
0.363671
0.385672
0.403638
0.409779
0.401002
0.379195
0.34932
0.317347
0.288365
0.26619
0.25397
0.254443
0.268977
0.294588
0.322674
0.344531
0.357814
0.36479
0.368433
0.370556
0.372198
0.373651
0.37521
0.376753
0.378506
0.380193
0.382144
0.383919
0.386036
0.387819
0.390084
0.3918
0.394287
0.39597
0.398842
0.400428
0.403861
0.405973
0.411402
0.415185
0.421924
0.424646
0.427622
0.42287
0.415173
0.401147
0.399207
0.406838
0.434284
0.452227
0.461473
0.473165
0.440091
0.338548
0.25544
0.205995
0.171288
0.149637
0.13079
0.119578
0.110068
0.107738
0.104433
0.104792
0.102566
0.103412
0.103401
0.107242
0.111898
0.120933
0.132002
0.14709
0.163315
0.180629
0.196103
0.209422
0.219447
0.226707
0.231717
0.235703
0.239513
0.243809
0.249098
0.255135
0.262045
0.268966
0.276174
0.282604
0.28914
0.294506
0.300421
0.305108
0.311423
0.316485
0.324762
0.331458
0.341913
0.342679
0.34559
0.363454
0.385464
0.403536
0.409818
0.401174
0.379466
0.349654
0.317729
0.288806
0.266718
0.254608
0.255191
0.26981
0.295459
0.323505
0.345264
0.358448
0.365351
0.368947
0.371038
0.372656
0.37409
0.375636
0.37717
0.378921
0.380611
0.382574
0.384367
0.386511
0.388326
0.390637
0.392402
0.394953
0.396702
0.399659
0.401329
0.404879
0.407099
0.412682
0.416594
0.423537
0.426438
0.429754
0.425317
0.418195
0.404634
0.403372
0.41115
0.438311
0.455612
0.463784
0.473791
0.440075
0.339656
0.257258
0.208066
0.173592
0.152428
0.134244
0.124204
0.115856
0.114907
0.112405
0.113506
0.111567
0.112837
0.113107
0.11746
0.122608
0.132295
0.143895
0.159358
0.175603
0.192609
0.207489
0.220072
0.229347
0.235966
0.240481
0.244117
0.247691
0.251816
0.256944
0.262785
0.269433
0.276022
0.282837
0.288844
0.294937
0.29988
0.305388
0.309717
0.315698
0.320479
0.328481
0.334958
0.345159
0.345795
0.345469
0.36324
0.385259
0.403436
0.409858
0.401344
0.379736
0.349987
0.318111
0.289248
0.267248
0.255245
0.255928
0.27062
0.296292
0.324287
0.345942
0.359029
0.365863
0.369416
0.371478
0.373076
0.374493
0.376029
0.377556
0.379307
0.381
0.382975
0.384785
0.386956
0.388802
0.391156
0.392968
0.39558
0.39739
0.400428
0.402177
0.405837
0.408161
0.413889
0.417921
0.425058
0.428129
0.43177
0.427637
0.421074
0.407967
0.407352
0.415251
0.442111
0.458792
0.465943
0.474352
0.439932
0.340603
0.25893
0.210035
0.175851
0.155257
0.13785
0.129134
0.122093
0.122618
0.120944
0.122775
0.121112
0.12279
0.123331
0.128172
0.133774
0.144026
0.156033
0.171706
0.187812
0.20437
0.218563
0.230357
0.238864
0.244839
0.248866
0.252155
0.255493
0.259439
0.264394
0.270026
0.276401
0.282656
0.28908
0.294674
0.30034
0.304879
0.310002
0.313993
0.319661
0.324177
0.331919
0.338191
0.348152
0.348671
0.34535
0.363029
0.385057
0.403338
0.409897
0.401513
0.380004
0.350319
0.318493
0.289692
0.267779
0.255881
0.256658
0.27141
0.29709
0.325021
0.34657
0.359561
0.366331
0.369844
0.37188
0.37346
0.374865
0.376392
0.377913
0.379664
0.381363
0.383349
0.385176
0.387372
0.389249
0.391642
0.393499
0.396168
0.398037
0.401151
0.402975
0.406739
0.409161
0.415025
0.419172
0.426491
0.429724
0.433677
0.429836
0.423814
0.411147
0.411149
0.419143
0.445692
0.461773
0.467956
0.474853
0.439668
0.341397
0.260461
0.211905
0.178067
0.158124
0.14161
0.134369
0.128771
0.130839
0.130004
0.132536
0.131132
0.133193
0.133994
0.139288
0.145297
0.156016
0.1683
0.184024
0.199845
0.215837
0.229268
0.240237
0.247967
0.253304
0.256854
0.259803
0.262905
0.266668
0.271441
0.276855
0.28295
0.288871
0.294912
0.300107
0.305363
0.30952
0.314278
0.317953
0.323325
0.327594
0.335091
0.34117
0.350903
0.351317
0.345233
0.362821
0.384857
0.403241
0.409936
0.401681
0.38027
0.35065
0.318876
0.290138
0.268312
0.256515
0.25738
0.272182
0.297856
0.325714
0.347152
0.360049
0.366757
0.370235
0.372248
0.373813
0.375206
0.376726
0.378244
0.379996
0.3817
0.383698
0.385541
0.387761
0.389667
0.392099
0.393997
0.396721
0.398645
0.40183
0.403725
0.407588
0.410102
0.416095
0.420349
0.427841
0.431227
0.435477
0.431918
0.426419
0.414179
0.414767
0.422832
0.44906
0.464563
0.469829
0.475299
0.439292
0.342044
0.261854
0.213678
0.180241
0.161031
0.145523
0.139903
0.135872
0.139529
0.139524
0.142716
0.141547
0.143961
0.145007
0.150714
0.157072
0.168153
0.180584
0.196209
0.211616
0.226944
0.239559
0.24968
0.256636
0.261348
0.264433
0.267053
0.269922
0.273498
0.278082
0.283272
0.289086
0.294677
0.300345
0.305155
0.310023
0.313817
0.318234
0.321612
0.326708
0.330745
0.338012
0.34391
0.353428
0.353746
0.345118
0.362616
0.384659
0.403145
0.409975
0.401848
0.380535
0.35098
0.31926
0.290586
0.268848
0.25715
0.258096
0.272937
0.298594
0.326368
0.347691
0.360496
0.367146
0.370591
0.372584
0.374137
0.37552
0.377035
0.37855
0.380305
0.382014
0.384024
0.385882
0.388126
0.390058
0.392527
0.394465
0.397239
0.399216
0.402468
0.404431
0.408386
0.410988
0.417102
0.421457
0.429111
0.432643
0.437174
0.433887
0.428891
0.417065
0.418208
0.426323
0.452222
0.467171
0.471568
0.475695
0.438811
0.34255
0.263114
0.215357
0.182375
0.163978
0.149588
0.145728
0.143371
0.148637
0.149435
0.153231
0.152271
0.155005
0.156276
0.162347
0.168993
0.180328
0.192779
0.208169
0.223051
0.237637
0.249398
0.258663
0.264857
0.26896
0.271599
0.273899
0.276539
0.279927
0.28432
0.289284
0.294818
0.300085
0.305392
0.309836
0.314335
0.317789
0.321886
0.324987
0.329825
0.333646
0.340695
0.346423
0.355738
0.355969
0.345005
0.362414
0.384463
0.40305
0.410014
0.402014
0.380798
0.35131
0.319644
0.291037
0.269386
0.257785
0.258807
0.273679
0.299306
0.326986
0.348193
0.360906
0.367501
0.370916
0.372892
0.374434
0.375809
0.37732
0.378833
0.380591
0.382306
0.384328
0.386201
0.388468
0.390426
0.392929
0.394904
0.397727
0.399752
0.403068
0.405094
0.409137
0.411822
0.418049
0.422499
0.430305
0.433975
0.438775
0.435746
0.431237
0.419808
0.421476
0.429621
0.455187
0.469604
0.473179
0.476046
0.438231
0.342922
0.264246
0.216945
0.184472
0.166964
0.153803
0.15183
0.151234
0.158102
0.15966
0.163995
0.163215
0.16623
0.167704
0.174088
0.180955
0.192435
0.204789
0.219823
0.23409
0.247875
0.25876
0.267172
0.272622
0.276139
0.278349
0.280343
0.28276
0.285962
0.290161
0.294898
0.300157
0.305109
0.310071
0.314166
0.318317
0.321453
0.325252
0.328095
0.332692
0.33631
0.343155
0.348724
0.357845
0.357999
0.344894
0.362214
0.38427
0.402956
0.410053
0.402179
0.381061
0.351639
0.320029
0.291489
0.269927
0.258421
0.259513
0.274408
0.299995
0.327573
0.348659
0.361282
0.367825
0.371213
0.373173
0.374706
0.376076
0.377584
0.379096
0.380857
0.382579
0.384612
0.3865
0.388788
0.39077
0.393305
0.395316
0.398184
0.400256
0.403631
0.405717
0.409843
0.412606
0.418939
0.423479
0.431428
0.435227
0.440281
0.437501
0.433458
0.422414
0.424575
0.432732
0.457963
0.47187
0.474668
0.476357
0.43756
0.343167
0.265256
0.218447
0.186532
0.169991
0.158163
0.158191
0.15942
0.167855
0.170117
0.174918
0.174286
0.177542
0.179197
0.185837
0.192858
0.204378
0.216527
0.231101
0.244682
0.257626
0.267627
0.2752
0.279931
0.282887
0.284688
0.286389
0.288591
0.291607
0.295614
0.300127
0.305116
0.309765
0.314397
0.318162
0.321988
0.324827
0.328347
0.330951
0.335325
0.338754
0.345407
0.350826
0.359763
0.359846
0.344785
0.362018
0.384079
0.402864
0.410092
0.402342
0.381322
0.351968
0.320416
0.291944
0.270471
0.259058
0.260216
0.275125
0.300662
0.32813
0.349094
0.361628
0.368121
0.371483
0.373431
0.374956
0.376321
0.377827
0.37934
0.381105
0.382833
0.384878
0.38678
0.389087
0.391093
0.393659
0.395703
0.398613
0.400728
0.40416
0.406303
0.410506
0.413343
0.419776
0.424399
0.432482
0.436403
0.441698
0.439156
0.43556
0.424885
0.42751
0.435662
0.460556
0.473977
0.47604
0.476632
0.436804
0.343291
0.266148
0.219865
0.188558
0.173056
0.162662
0.164791
0.167884
0.177825
0.18072
0.18591
0.185394
0.188851
0.190661
0.197502
0.204609
0.21607
0.22792
0.241949
0.25479
0.266869
0.275991
0.282745
0.286786
0.289208
0.290622
0.292045
0.294038
0.296874
0.300691
0.304984
0.309711
0.314069
0.318389
0.321844
0.325365
0.327927
0.33119
0.333572
0.337737
0.340991
0.347462
0.352741
0.361503
0.361521
0.344678
0.361824
0.38389
0.402772
0.410131
0.402505
0.381581
0.352296
0.320803
0.292402
0.271018
0.259697
0.260917
0.275833
0.30131
0.328661
0.3495
0.361946
0.36839
0.37173
0.373666
0.375186
0.376547
0.378053
0.379567
0.381336
0.38307
0.385126
0.387041
0.389368
0.391395
0.39399
0.396066
0.399017
0.401173
0.404657
0.406853
0.411129
0.414036
0.420562
0.425263
0.433471
0.437507
0.44303
0.440715
0.437548
0.427226
0.430287
0.438419
0.462976
0.475932
0.477301
0.476876
0.435971
0.343301
0.266928
0.221203
0.190553
0.176161
0.167294
0.171603
0.176573
0.187935
0.191386
0.196884
0.196451
0.200071
0.20201
0.208995
0.216124
0.227437
0.238905
0.252322
0.264387
0.275592
0.283849
0.289812
0.293196
0.295112
0.296162
0.297321
0.299115
0.301775
0.305406
0.309484
0.31396
0.318041
0.322065
0.325229
0.328467
0.330772
0.333796
0.335972
0.339944
0.343035
0.349335
0.354482
0.363075
0.363035
0.344572
0.361632
0.383703
0.402681
0.41017
0.402667
0.38184
0.352624
0.321192
0.292863
0.271568
0.260339
0.261616
0.276533
0.301942
0.329168
0.349879
0.362238
0.368637
0.371956
0.373882
0.375397
0.376756
0.378262
0.379777
0.381551
0.383292
0.385358
0.387286
0.389631
0.391679
0.394302
0.396406
0.399395
0.40159
0.405123
0.40737
0.411715
0.414688
0.4213
0.426075
0.434398
0.438542
0.44428
0.442181
0.439424
0.429442
0.432909
0.441008
0.465231
0.477744
0.478456
0.477091
0.435066
0.343203
0.267601
0.222467
0.192518
0.179305
0.17205
0.178599
0.185432
0.19811
0.20203
0.207757
0.207378
0.211121
0.213163
0.220238
0.227328
0.238413
0.249434
0.262188
0.273456
0.28379
0.291205
0.296411
0.299172
0.300612
0.30132
0.30223
0.303834
0.306323
0.309773
0.313644
0.317878
0.321696
0.325443
0.328336
0.33131
0.333378
0.336181
0.338167
0.34196
0.344898
0.351037
0.356059
0.364492
0.364398
0.344469
0.361444
0.383518
0.402591
0.410208
0.402827
0.382098
0.352951
0.321582
0.293326
0.272123
0.260982
0.262314
0.277226
0.302559
0.329654
0.350234
0.362507
0.368862
0.372161
0.374079
0.375591
0.376949
0.378455
0.379973
0.381751
0.383499
0.385576
0.387516
0.389878
0.391946
0.394594
0.396726
0.39975
0.401981
0.405561
0.407855
0.412265
0.4153
0.421994
0.426836
0.435268
0.439513
0.445454
0.44356
0.441194
0.431536
0.435382
0.443437
0.467328
0.47942
0.479511
0.477282
0.434095
0.343003
0.268173
0.22366
0.194457
0.182487
0.17692
0.185746
0.194402
0.208275
0.212575
0.218455
0.218101
0.221929
0.22405
0.231163
0.23816
0.248949
0.259469
0.271526
0.281989
0.291466
0.298069
0.302552
0.304727
0.305722
0.30611
0.306787
0.308209
0.310534
0.313809
0.317481
0.321486
0.325056
0.328542
0.331183
0.333913
0.33576
0.33836
0.340171
0.343797
0.346594
0.35258
0.357485
0.365763
0.365619
0.344367
0.361257
0.383335
0.402502
0.410246
0.402987
0.382354
0.353279
0.321973
0.293793
0.272681
0.261629
0.263012
0.277912
0.303162
0.33012
0.350568
0.362755
0.369067
0.372349
0.37426
0.37577
0.377127
0.378635
0.380155
0.381939
0.383692
0.385779
0.387732
0.39011
0.392196
0.394868
0.397027
0.400084
0.402349
0.405972
0.408312
0.412783
0.415876
0.422645
0.42755
0.436083
0.440422
0.446553
0.444854
0.442862
0.433514
0.437712
0.445712
0.469275
0.480967
0.480471
0.477453
0.433066
0.342708
0.26865
0.224786
0.196373
0.185705
0.181894
0.193013
0.203426
0.218359
0.222949
0.228908
0.228553
0.232434
0.234608
0.241712
0.248566
0.259004
0.268985
0.280323
0.289986
0.298628
0.304453
0.308254
0.309879
0.310458
0.310548
0.311007
0.312258
0.314425
0.317532
0.321013
0.3248
0.328136
0.33138
0.333787
0.336291
0.337936
0.340349
0.341997
0.345469
0.348133
0.353976
0.358769
0.366898
0.366708
0.344266
0.361073
0.383153
0.402413
0.410284
0.403146
0.38261
0.353606
0.322366
0.294263
0.273243
0.262278
0.26371
0.278594
0.303753
0.330569
0.350883
0.362985
0.369255
0.372521
0.374426
0.375934
0.377292
0.378802
0.380324
0.382113
0.383874
0.38597
0.387934
0.390328
0.392431
0.395126
0.397309
0.400398
0.402694
0.406358
0.40874
0.413269
0.416417
0.423256
0.42822
0.436846
0.441273
0.447583
0.446069
0.444432
0.43538
0.439905
0.447841
0.471081
0.482393
0.48134
0.477606
0.431983
0.342324
0.269036
0.22585
0.198268
0.18896
0.186958
0.200363
0.212446
0.228294
0.233087
0.239059
0.238678
0.242581
0.244786
0.251839
0.258508
0.268549
0.277964
0.288576
0.297452
0.305288
0.310374
0.313532
0.314645
0.314839
0.314652
0.314907
0.315996
0.318013
0.320959
0.324258
0.327839
0.330957
0.333974
0.336164
0.33846
0.33992
0.34216
0.343659
0.346987
0.349529
0.355235
0.359922
0.367907
0.367673
0.344168
0.360891
0.382972
0.402325
0.410322
0.403304
0.382864
0.353934
0.322761
0.294736
0.273809
0.262931
0.264409
0.279272
0.304334
0.331001
0.351179
0.363197
0.369427
0.372678
0.374578
0.376086
0.377444
0.378957
0.380483
0.382277
0.384044
0.386149
0.388124
0.390533
0.392651
0.395368
0.397574
0.400692
0.403019
0.406721
0.409143
0.413725
0.416926
0.42383
0.428849
0.437561
0.44207
0.448547
0.447208
0.445909
0.437138
0.441966
0.449831
0.472753
0.483703
0.482124
0.477744
0.430852
0.341856
0.269338
0.226857
0.200145
0.19225
0.192102
0.207763
0.221406
0.238023
0.242933
0.248857
0.24843
0.252328
0.254543
0.261506
0.267955
0.277567
0.286399
0.296289
0.304399
0.311464
0.31585
0.318407
0.319044
0.318881
0.318438
0.318504
0.319441
0.321315
0.324108
0.327234
0.330621
0.333535
0.336343
0.338332
0.340437
0.341725
0.343807
0.345169
0.348364
0.350791
0.356366
0.360952
0.368797
0.368523
0.344071
0.360711
0.382794
0.402237
0.410359
0.40346
0.383118
0.354262
0.323157
0.295213
0.27438
0.263588
0.265108
0.279946
0.304906
0.33142
0.35146
0.363394
0.369585
0.372821
0.374717
0.376226
0.377586
0.379101
0.380631
0.38243
0.384203
0.386318
0.388302
0.390725
0.392859
0.395596
0.397823
0.400969
0.403324
0.407063
0.409522
0.414155
0.417404
0.424369
0.429438
0.438229
0.442814
0.449448
0.448274
0.447296
0.438793
0.4439
0.451688
0.474298
0.484906
0.482826
0.477871
0.42968
0.341311
0.269561
0.227811
0.202008
0.195573
0.197311
0.215175
0.230255
0.24749
0.252438
0.258262
0.25777
0.26164
0.263846
0.270687
0.276887
0.286047
0.294293
0.303471
0.310843
0.317173
0.320903
0.3229
0.323097
0.322604
0.321926
0.321815
0.322609
0.324348
0.326995
0.329959
0.333164
0.335887
0.338501
0.340306
0.342235
0.343366
0.345303
0.346538
0.349609
0.351928
0.35738
0.36187
0.369579
0.369266
0.343975
0.360534
0.382616
0.40215
0.410395
0.403616
0.383371
0.35459
0.323555
0.295693
0.274955
0.264248
0.26581
0.280619
0.30547
0.331826
0.351726
0.363576
0.369729
0.372953
0.374846
0.376355
0.377717
0.379236
0.380769
0.382574
0.384353
0.386476
0.38847
0.390906
0.393055
0.39581
0.398058
0.40123
0.403611
0.407383
0.409878
0.414559
0.417854
0.424875
0.42999
0.438855
0.443509
0.450289
0.449272
0.448598
0.440351
0.445715
0.45342
0.475724
0.486006
0.483452
0.477988
0.428471
0.340694
0.26971
0.228718
0.203859
0.19893
0.202571
0.222567
0.238944
0.256651
0.261563
0.267242
0.266671
0.270493
0.272672
0.279365
0.285295
0.293988
0.30165
0.310136
0.316802
0.322439
0.325554
0.327031
0.326822
0.326027
0.325132
0.324858
0.325519
0.32713
0.329639
0.33245
0.335485
0.33803
0.340466
0.342101
0.343869
0.344856
0.346659
0.347777
0.350733
0.352952
0.358286
0.362683
0.370259
0.369909
0.343881
0.360358
0.38244
0.402063
0.410431
0.403771
0.383623
0.354918
0.323956
0.296177
0.275534
0.264913
0.266513
0.281289
0.306026
0.332221
0.35198
0.363746
0.369862
0.373073
0.374964
0.376475
0.377839
0.379362
0.380898
0.382709
0.384494
0.386625
0.388629
0.391077
0.393239
0.396012
0.398279
0.401475
0.403882
0.407685
0.410214
0.414939
0.418278
0.42535
0.430508
0.43944
0.444159
0.451075
0.450205
0.44982
0.441814
0.447415
0.455033
0.477037
0.487012
0.484006
0.478099
0.427231
0.340011
0.269792
0.229581
0.205703
0.202317
0.207869
0.229904
0.24743
0.265467
0.270279
0.275775
0.275113
0.278869
0.281007
0.28753
0.293175
0.301396
0.308484
0.316303
0.322298
0.327282
0.329827
0.330823
0.330241
0.329168
0.328074
0.32765
0.328187
0.329678
0.332057
0.334723
0.337599
0.339981
0.342251
0.34373
0.34535
0.346206
0.347886
0.348897
0.351746
0.353871
0.359091
0.363399
0.370846
0.370459
0.343788
0.360185
0.382265
0.401976
0.410467
0.403925
0.383875
0.355247
0.324358
0.296665
0.276118
0.265581
0.267219
0.281959
0.306577
0.332605
0.352221
0.363904
0.369984
0.373183
0.375072
0.376586
0.377953
0.379479
0.38102
0.382836
0.384626
0.386766
0.388778
0.391238
0.393412
0.396202
0.398487
0.401706
0.404136
0.407969
0.410529
0.415297
0.418676
0.425797
0.430994
0.439986
0.444765
0.451808
0.451077
0.450964
0.443189
0.449007
0.456534
0.478245
0.487927
0.484492
0.478204
0.425964
0.339267
0.26981
0.230405
0.207542
0.205735
0.213191
0.237156
0.255676
0.27391
0.278563
0.283845
0.283083
0.286759
0.288843
0.295181
0.300531
0.308281
0.314812
0.321993
0.327354
0.331729
0.333743
0.334297
0.333373
0.332047
0.330771
0.330209
0.330629
0.332007
0.334264
0.336795
0.339523
0.341752
0.34387
0.345206
0.346692
0.347427
0.348995
0.349907
0.352656
0.354692
0.359803
0.364026
0.371345
0.370923
0.343697
0.360013
0.382091
0.401889
0.410501
0.404078
0.384126
0.355576
0.324762
0.297156
0.276707
0.266254
0.267928
0.282627
0.307122
0.33298
0.352452
0.364052
0.370096
0.373284
0.375172
0.376688
0.378059
0.379589
0.381134
0.382955
0.384752
0.386899
0.388919
0.391389
0.393576
0.396382
0.398684
0.401924
0.404376
0.408236
0.410827
0.415634
0.419051
0.426216
0.431449
0.440497
0.445331
0.452491
0.451891
0.452036
0.444479
0.450495
0.457929
0.479353
0.488759
0.484913
0.478306
0.424676
0.338467
0.26977
0.231196
0.20938
0.209181
0.218523
0.244295
0.26365
0.281955
0.2864
0.291445
0.290575
0.294163
0.296182
0.302322
0.307373
0.31466
0.320654
0.327228
0.331994
0.335801
0.337325
0.337473
0.336238
0.33468
0.333239
0.332549
0.332862
0.334135
0.336276
0.33868
0.341271
0.34336
0.345338
0.346543
0.347905
0.34853
0.349995
0.350816
0.353471
0.355424
0.360431
0.36457
0.371764
0.371308
0.343607
0.359843
0.381918
0.401802
0.410536
0.40423
0.384376
0.355905
0.325169
0.297651
0.277301
0.266932
0.268639
0.283296
0.307664
0.333348
0.352674
0.36419
0.370199
0.373377
0.375265
0.376784
0.378158
0.379693
0.381241
0.383068
0.38487
0.387024
0.389052
0.391533
0.39373
0.396551
0.398869
0.402129
0.404602
0.408488
0.411107
0.415951
0.419405
0.42661
0.431876
0.440974
0.445858
0.453127
0.45265
0.453038
0.445688
0.451885
0.459225
0.480369
0.489513
0.485275
0.478406
0.423371
0.337617
0.269678
0.231957
0.211221
0.212654
0.223851
0.251294
0.271325
0.289589
0.293783
0.298574
0.297592
0.301082
0.303029
0.308963
0.313715
0.320551
0.326031
0.332033
0.336243
0.339524