/*--------------------------------*- C++ -*----------------------------------*\
| =========                 |                                                 |
| \\      /  F ield         | OpenFOAM: The Open Source CFD Toolbox           |
|  \\    /   O peration     | Version:  2412                                  |
|   \\  /    A nd           | Website:  www.openfoam.com                      |
|    \\/     M anipulation  |                                                 |
\*---------------------------------------------------------------------------*/
FoamFile
{
    version     2.0;
    format      ascii;
    arch        "LSB;label=32;scalar=64";
    class       volScalarField;
    location    "0.6";
    object      p;
}
// * * * * * * * * * * * * * * * * * * * * * * * * * * * * * * * * * * * * * //

dimensions      [0 2 -2 0 0 0 0];

internalField   nonuniform List<scalar> 
13079
(
108162
107994
107880
107614
107433
107129
106905
106616
106403
106160
105977
105765
105593
105371
105174
104899
104659
104321
104047
103638
103332
102832
102497
101875
101514
100729
100351
99341.4
98966.7
97644.3
97309.7
95544.1
95314.4
92911.4
92897.8
89563.5
89952.7
85233.8
86337.3
79524.4
81856.5
71834.3
76304.7
61378.5
69703.8
47248.8
62420.6
27626.8
53642.6
-3416.96
38901.4
-57526.4
13558.8
-157331
-11328.3
-76003.4
6163.96
-33668.9
16531.5
-8657.26
23320.3
9250.47
30552.2
23440.6
37569.5
34489.2
44009.2
43305.9
49898.6
50445.9
55069.5
56105.4
59326.8
60424.3
62670.6
63687.1
65296.6
108143
107978
107865
107602
107423
107121
106898
106611
106399
106157
105975
105763
105591
105368
105171
104895
104655
104316
104043
103632
103328
102826
102491
101869
101508
100721
100345
99333.3
98959.9
97634.9
97302.3
95533.1
95306.3
92898.4
92889
89548
89943.2
85215.1
86327.1
79502
81845.8
71808
76294.6
61348.3
69692.5
47210.7
62398.3
27571.5
53596.1
-3486.52
38839.1
-57537.3
13565.2
-156807
-11175.7
-75981.2
6187.09
-33677.8
16542.1
-8669.65
23322.5
9234.73
30551.3
23426.8
37567.8
34477.3
44007
43296.5
49897.2
50439.8
55069.7
56102.6
59329
60424.8
62674.8
63690.2
65302
108125
107962
107850
107590
107412
107113
106892
106606
106396
106155
105973
105761
105588
105365
105167
104890
104651
104312
104038
103628
103323
102821
102486
101862
101503
100714
100339
99325.3
98953.2
97625.7
97295
95522.3
95298.3
92885.6
92880.4
89532.7
89933.8
85196.7
86317
79479.9
81835.4
71782.1
76284.6
61318.4
69681.4
47173
62376.5
27516.8
53550.5
-3554.81
38778.4
-57546.3
13572.8
-156287
-11024.6
-75958.8
6210.19
-33686.6
16552.9
-8681.68
23325.1
9219.49
30551
23413.6
37566.8
34465.9
44005.4
43287.6
49896.5
50434.3
55070.5
56100.4
59331.8
60425.8
62679.7
63693.9
65307.9
108107
107947
107835
107578
107401
107105
106885
106602
106392
106152
105971
105759
105586
105362
105163
104886
104646
104307
104034
103623
103318
102815
102481
101856
101497
100708
100333
99317.4
98946.6
97616.5
97287.8
95511.5
95290.5
92872.8
92871.8
89517.5
89924.6
85178.4
86307.1
79457.9
81825.2
71756.3
76274.8
61288.7
69670.5
47135.6
62355.1
27462.7
53505.6
-3621.88
38719.2
-57553.4
13581.6
-155770
-10875.1
-75936.3
6233.22
-33695.2
16563.9
-8693.34
23328.3
9204.82
30551.3
23401.1
37566.5
34455.3
44004.5
43279.4
49896.3
50429.3
55072
56098.7
59335.3
60427.5
62685.2
63698
65314.2
108089
107931
107820
107566
107391
107096
106878
106597
106388
106149
105969
105757
105584
105359
105160
104882
104642
104303
104030
103618
103314
102810
102476
101850
101492
100701
100327
99309.5
98940.1
97607.4
97280.6
95500.8
95282.7
92860.2
92863.4
89502.4
89915.4
85160.3
86297.3
79436.2
81815.2
71730.9
76265.3
61259.5
69660
47098.7
62334.1
27409
53461.4
-3687.88
38661.4
-57558.9
13591.4
-155257
-10727
-75913.7
6255.94
-33703.9
16575.1
-8704.59
23332
9190.84
30552.4
23389.4
37567.1
34445.4
44004.5
43271.9
49897
50425
55074.1
56097.7
59339.5
60429.8
62691.3
63702.7
65320.8
66233
67439.3
68280
69235.9
70049.6
70852
71673.5
72363.9
73210.7
73783.1
74660.4
75071.9
75993.6
76183.6
77201.6
77088.9
78316
77764.6
79409.8
78162.5
80619.1
78186.9
108071
107915
107806
107554
107380
107088
106872
106592
106385
106147
105967
105755
105582
105356
105156
104878
104638
104299
104025
103613
103309
102805
102471
101844
101486
100694
100321
99301.7
98933.6
97598.3
97273.5
95490.2
95274.9
92847.7
92855
89487.4
89906.4
85142.4
86287.7
79414.7
81805.3
71705.8
76256.1
61230.6
69649.9
47062.4
62313.6
27355.9
53417.8
-3752.82
38605.1
-57562.9
13602.1
-154747
-10580.3
-75891.1
6278.31
-33712.7
16586.4
-8715.41
23336.3
9177.62
30554.4
23378.5
37568.6
34436.4
44005.3
43265.2
49898.4
50421.4
55077
56097.4
59344.3
60432.8
62697.9
63707.7
65327.7
66238.3
67445.5
68285.1
69241.2
70054.5
70856.7
71678.3
72367.9
73215.3
73786.2
74664.6
75073.7
75997.4
76184
77205.6
77087.9
78320.9
77762.3
79416.5
78159
80627.7
78182.6
108053
107900
107791
107542
107370
107080
106865
106587
106381
106144
105965
105753
105579
105353
105153
104874
104634
104294
104021
103608
103304
102799
102466
101839
101481
100687
100315
99294
98927.1
97589.3
97266.5
95479.7
95267.3
92835.2
92846.7
89472.6
89897.5
85124.6
86278.2
79393.3
81795.7
71681
76247.2
61202.2
69640.2
47026.5
62293.6
27303.3
53375.1
-3816.67
38550.1
-57565.2
13613.7
-154241
-10435
-75868.4
6300.31
-33721.7
16597.7
-8725.79
23341.4
9165.23
30557.4
23368.5
37571.1
34428.3
44007.1
43259.3
49900.7
50418.5
55080.6
56097.8
59349.9
60436.3
62705
63713
65334.8
66243.8
67451.6
68290.2
69246.6
70059.4
70861.4
71683.1
72371.9
73219.8
73789.1
74668.6
75075.3
76001.1
76184.1
77209.5
77086.7
78325.6
77759.8
79423
78155.3
80636.1
78178.3
108036
107885
107777
107531
107359
107072
106859
106582
106377
106141
105963
105751
105577
105350
105149
104870
104630
104290
104017
103604
103300
102794
102461
101833
101475
100681
100309
99286.3
98920.7
97580.3
97259.5
95469.2
95259.7
92822.8
92838.5
89457.8
89888.7
85106.9
86268.8
79372.2
81786.2
71656.4
76238.5
61174.1
69630.9
46991.2
62274.1
27251.4
53333
-3879.4
38496.5
-57566.1
13626.2
-153738
-10291.1
-75845.7
6321.94
-33730.8
16609.2
-8735.72
23347.2
9153.76
30561.4
23359.6
37574.7
34421.2
44009.9
43254.4
49903.8
50416.5
55085
56098.9
59356
60440.3
62712.4
63718.5
65342
66249.3
67457.8
68295.4
69251.9
70064.4
70866.1
71687.9
72375.8
73224.3
73792
74672.5
75076.7
76004.7
76184.1
77213.1
77085.4
78330.2
77757.2
79429.4
78151.5
80644.2
78173.9
108019
107869
107762
107519
107349
107064
106852
106577
106374
106138
105961
105749
105575
105347
105146
104866
104627
104286
104013
103599
103296
102789
102457
101827
101470
100674
100303
99278.6
98914.3
97571.5
97252.5
95458.8
95252.1
92810.5
92830.3
89443.2
89879.9
85089.4
86259.6
79351.3
81777
71632.1
76230.1
61146.5
69621.9
46956.3
62255.2
27200
53291.8
-3941.02
38444.2
-57565.5
13639.6
-153239
-10148.5
-75823
6343.2
-33740.1
16620.8
-8745.16
23353.7
9143.25
30566.5
23351.8
37579.4
34415.2
44013.8
43250.4
49907.9
50415.2
55090.2
56100.7
59362.8
60444.8
62720.1
63724.2
65349.2
66254.8
67464
68300.5
69257.2
70069.3
70870.8
71692.7
72379.8
73228.7
73794.7
74676.4
75078
76008
76184
77216.6
77083.9
78334.7
77754.5
79435.6
78147.7
80652.1
78169.5
108001
107854
107748
107507
107338
107056
106846
106572
106370
106136
105958
105747
105573
105344
105142
104862
104623
104282
104009
103595
103291
102784
102452
101821
101465
100667
100297
99271
98908
97562.6
97245.6
95448.4
95244.6
92798.3
92822.2
89428.7
89871.3
85072
86250.5
79330.6
81767.9
71608.1
76221.9
61119.2
69613.3
46921.9
62236.7
27149.2
53251.3
-4001.5
38393.3
-57563.4
13653.6
-152743
-10007.4
-75800.3
6364.07
-33749.4
16632.5
-8754.1
23361.2
9133.8
30572.8
23345.2
37585.4
34410.4
44018.9
43247.4
49913
50414.8
55096.2
56103.1
59370.1
60449.6
62728
63729.8
65356.3
66260.1
67470
68305.5
69262.5
70074.3
70875.5
71697.4
72383.6
73233
73797.3
74680
75079.1
76011.2
76183.6
77220
77082.2
78338.9
77751.6
79441.6
78143.8
80659.9
78165.2
107984
107839
107734
107496
107328
107048
106839
106568
106367
106133
105956
105745
105570
105341
105139
104859
104619
104277
104005
103590
103287
102779
102447
101815
101460
100661
100292
99263.5
98901.7
97553.8
97238.8
95438.1
95237.2
92786.2
92814.2
89414.2
89862.7
85054.7
86241.5
79310
81758.9
71584.3
76214
61092.2
69605.1
46888
62218.7
27099
53211.6
-4060.87
38343.8
-57560
13668.4
-152251
-9867.69
-75777.7
6384.56
-33759
16644.3
-8762.53
23369.5
9125.47
30580.4
23339.9
37592.7
34406.7
44025
43245.4
49919
50415.2
55102.9
56106
59377.9
60454.6
62736
63735.4
65363.3
66265.3
67475.9
68310.4
69267.6
70079.1
70880
71702.1
72387.3
73237.2
73799.8
74683.5
75080.1
76014.3
76183
77223.1
77080.3
78343
77748.6
79447.5
78139.8
80667.5
78160.9
107968
107825
107720
107485
107318
107040
106833
106563
106363
106130
105954
105743
105568
105338
105135
104855
104615
104273
104001
103586
103282
102774
102442
101810
101454
100654
100286
99255.9
98895.5
97545.1
97231.9
95427.9
95229.8
92774.1
92806.3
89399.9
89854.3
85037.6
86232.6
79289.7
81750.1
71560.8
76206.3
61065.7
69597.2
46854.6
62201.2
27049.5
53172.7
-4119.1
38295.5
-57555.2
13683.9
-151762
-9729.32
-75755.1
6404.66
-33768.6
16656.2
-8770.43
23378.7
9118.3
30589.4
23335.8
37601.3
34404.2
44032.3
43244.4
49925.9
50416.3
55110.3
56109.5
59385.9
60459.8
62743.9
63740.9
65370.1
66270.3
67481.5
68315.1
69272.6
70083.8
70884.5
71706.7
72391
73241.3
73802.1
74686.9
75080.8
76017.1
76182.3
77226.1
77078.3
78347
77745.5
79453.2
78135.7
80674.9
78156.7
107951
107810
107706
107473
107308
107032
106826
106558
106360
106128
105952
105741
105566
105335
105132
104851
104611
104269
103997
103581
103278
102769
102438
101804
101449
100648
100280
99248.5
98889.2
97536.4
97225.2
95417.7
95222.4
92762.1
92798.4
89385.7
89845.9
85020.6
86223.8
79269.5
81741.5
71537.6
76198.8
61039.4
69589.6
46821.6
62184.2
27000.6
53134.6
-4176.23
38248.6
-57549
13700.1
-151277
-9592.32
-75732.5
6424.38
-33778.4
16668.2
-8777.8
23388.9
9112.36
30599.7
23333.1
37611.2
34402.9
44040.7
43244.4
49933.6
50418.2
55118.2
56113.4
59394.2
60465
62751.7
63746
65376.5
66274.9
67486.9
68319.6
69277.5
70088.3
70888.8
71711.1
72394.4
73245.2
73804.2
74690
75081.4
76019.8
76181.4
77229
77076.2
78350.8
77742.2
79458.8
78131.6
80682.2
78152.5
107934
107795
107692
107462
107298
107025
106820
106554
106356
106125
105950
105739
105564
105332
105129
104847
104608
104265
103993
103577
103274
102764
102433
101798
101444
100641
100274
99241
98883.1
97527.8
97218.4
95407.6
95215.2
92750.2
92790.6
89371.5
89837.5
85003.7
86215.1
79249.5
81733
71514.6
76191.6
61013.5
69582.4
46789.1
62167.6
26952.4
53097.4
-4232.25
38202.9
-57541.6
13716.8
-150795
-9456.66
-75709.9
6443.72
-33788.3
16680.3
-8784.61
23400.1
9107.67
30611.4
23331.7
37622.3
34402.7
44050.2
43245.3
49942.2
50420.7
55126.7
56117.6
59402.6
60470.1
62759.2
63750.9
65382.7
66279.3
67492
68323.9
69282.1
70092.7
70893
71715.4
72397.7
73248.9
73806.2
74693
75081.8
76022.3
76180.4
77231.7
77073.9
78354.5
77738.9
79464.3
78127.5
80689.3
78148.4
107918
107781
107679
107451
107288
107017
106814
106549
106353
106123
105948
105736
105562
105330
105125
104844
104604
104261
103989
103572
103270
102759
102428
101793
101439
100635
100269
99233.7
98876.9
97519.2
97211.7
95397.6
95207.9
92738.4
92782.8
89357.5
89829.3
84987
86206.6
79229.7
81724.7
71491.8
76184.5
60988
69575.4
46757.1
62151.6
26904.8
53060.9
-4287.18
38158.4
-57533
13734.1
-150316
-9322.33
-75687.4
6462.68
-33798.4
16692.5
-8790.87
23412.2
9104.26
30624.4
23331.5
37634.7
34403.6
44060.7
43247
49951.5
50423.7
55135.5
56121.9
59411
60474.9
62766.4
63755.4
65388.4
66283.3
67496.8
68327.9
69286.5
70096.9
70897
71719.5
72400.9
73252.5
73808
74695.9
75082
76024.6
76179.1
77234.2
77071.4
78358.1
77735.4
79469.6
78123.3
80696.2
78144.2
107902
107767
107665
107440
107278
107009
106808
106544
106349
106120
105946
105734
105559
105327
105122
104840
104600
104257
103985
103568
103265
102754
102424
101787
101434
100629
100263
99226.3
98870.8
97510.7
97205.1
95387.6
95200.7
92726.6
92775.1
89343.5
89821.1
84970.4
86198.1
79210
81716.5
71469.3
76177.7
60962.7
69568.8
46725.5
62136
26857.9
53025.3
-4341.03
38115.1
-57523.2
13751.9
-149841
-9189.31
-75664.9
6481.29
-33808.6
16704.9
-8796.57
23425.4
9102.13
30638.8
23332.6
37648.2
34405.5
44072
43249.4
49961.4
50427.2
55144.6
56126.3
59419.2
60479.5
62773.2
63759.4
65393.7
66286.9
67501.3
68331.7
69290.7
70100.9
70900.8
71723.4
72403.9
73255.9
73809.6
74698.5
75082
76026.8
76177.7
77236.6
77068.9
78361.5
77731.9
79474.8
78119
80703
78140.2
107886
107752
107652
107429
107268
107002
106801
106540
106346
106117
105944
105732
105557
105324
105119
104836
104597
104253
103981
103564
103261
102749
102419
101782
101429
100622
100258
99219
98864.8
97502.2
97198.5
95377.7
95193.6
92714.9
92767.4
89329.6
89813.1
84953.9
86189.7
79190.5
81708.5
71447
76171
60937.8
69562.4
46694.4
62120.9
26811.6
52990.4
-4393.84
38073
-57512.2
13770.2
-149369
-9057.59
-75642.5
6499.54
-33818.9
16717.3
-8801.71
23439.7
9101.26
30654.5
23334.7
37662.7
34408.3
44084.2
43252.5
49971.8
50431.1
55153.9
56130.6
59427.2
60483.7
62779.5
63763
65398.6
66290.1
67505.4
68335.1
69294.6
70104.7
70904.4
71727.2
72406.7
73259.2
73811
74701
75081.9
76028.8
76176.2
77238.8
77066.2
78364.8
77728.2
79479.9
78114.8
80709.6
78136.2
107870
107738
107638
107418
107259
106994
106795
106535
106342
106115
105942
105730
105555
105321
105116
104833
104593
104249
103977
103559
103257
102744
102415
101776
101424
100616
100252
99211.7
98858.7
97493.7
97191.9
95367.8
95186.5
92703.3
92759.8
89315.9
89805
84937.5
86181.5
79171.2
81700.6
71424.9
76164.5
60913.1
69556.3
46663.6
62106.2
26766
52956.3
-4445.61
38032
-57500.1
13789
-148901
-8927.14
-75620
6517.46
-33829.3
16729.8
-8806.29
23454.9
9101.61
30671.3
23338
37678.1
34411.8
44097
43256.2
49982.6
50435.1
55163.2
56134.8
59434.8
60487.4
62785.3
63766
65402.9
66292.9
67509.2
68338.2
69298.2
70108.2
70907.8
71730.8
72409.3
73262.2
73812.3
74703.3
75081.6
76030.7
76174.5
77240.9
77063.4
78367.9
77724.5
79484.8
78110.5
80716.1
78132.2
107854
107724
107625
107407
107249
106987
106789
106531
106339
106112
105939
105728
105553
105318
105112
104829
104589
104245
103973
103555
103253
102740
102410
101771
101419
100610
100247
99204.5
98852.7
97485.3
97185.4
95357.9
95179.4
92691.7
92752.3
89302.2
89797.1
84921.2
86173.3
79152
81692.8
71403
76158.2
60888.8
69550.5
46633.3
62092
26721
52922.9
-4496.38
37992
-57486.9
13808.2
-148436
-8797.95
-75597.6
6535.04
-33839.8
16742.4
-8810.33
23471.1
9103.13
30689.3
23342.1
37694.2
34416
44110.4
43260.2
49993.7
50439.2
55172.4
56138.7
59442
60490.6
62790.6
63768.5
65406.8
66295.2
67512.6
68341.1
69301.6
70111.6
70911
71734.1
72411.7
73265.1
73813.4
74705.5
75081.1
76032.4
76172.7
77242.9
77060.5
78371
77720.7
79489.6
78106.1
80722.4
78128.3
107838
107710
107612
107396
107239
106979
106783
106526
106335
106110
105937
105726
105550
105315
105109
104825
104586
104241
103970
103551
103249
102735
102406
101765
101414
100604
100241
99197.3
98846.8
97476.9
97178.9
95348.2
95172.4
92680.2
92744.8
89288.5
89789.2
84905.1
86165.2
79132.9
81685.1
71381.3
76152.1
60864.7
69544.9
46603.4
62078.1
26676.7
52890.3
-4546.17
37953.2
-57472.7
13827.8
-147974
-8670.01
-75575.2
6552.31
-33850.5
16755
-8813.84
23488.2
9105.75
30708.2
23347
37711
34420.7
44124.1
43264.6
50005
50443.3
55181.4
56142.2
59448.7
60493.2
62795.2
63770.4
65410.1
66297.2
67515.6
68343.6
69304.7
70114.7
70913.9
71737.3
72413.9
73267.8
73814.3
74707.5
75080.5
76034
76170.7
77244.8
77057.4
78373.9
77716.9
79494.3
78101.8
80728.6
78124.5
107823
107697
107599
107386
107230
106972
106777
106522
106332
106107
105935
105724
105548
105312
105106
104822
104582
104238
103966
103546
103245
102730
102401
101760
101409
100597
100236
99190.1
98840.8
97468.6
97172.4
95338.4
95165.4
92668.8
92737.4
89275
89781.4
84889
86157.2
79114
81677.5
71359.8
76146.1
60840.9
69539.5
46573.9
62064.7
26632.9
52858.5
-4595
37915.3
-57457.5
13847.7
-147515
-8543.28
-75552.8
6569.28
-33861.2
16767.8
-8816.84
23506.3
9109.38
30728
23352.6
37728.3
34425.8
44138.2
43269.1
50016.2
50447.3
55190.1
56145.3
59454.8
60495.2
62799.2
63771.8
65413
66298.6
67518.3
68345.8
69307.6
70117.5
70916.7
71740.3
72416
73270.4
73815
74709.3
75079.8
76035.5
76168.6
77246.5
77054.3
78376.8
77712.9
79498.9
78097.4
80734.6
78120.7
107807
107683
107586
107375
107220
106964
106771
106517
106328
106104
105933
105722
105546
105310
105103
104818
104579
104234
103962
103542
103241
102725
102397
101755
101404
100591
100231
99183
98834.9
97460.4
97166
95328.8
95158.5
92657.4
92730
89261.6
89773.6
84873.1
86149.2
79095.3
81670.1
71338.5
76140.2
60817.3
69534.4
46544.8
62051.7
26589.8
52827.3
-4642.9
37878.4
-57441.4
13867.9
-147060
-8417.75
-75530.3
6585.97
-33872
16780.6
-8819.34
23525.1
9113.91
30748.5
23358.6
37745.9
34431.1
44152.4
43273.6
50027.4
50451.1
55198.4
56147.8
59460.3
60496.5
62802.7
63772.6
65415.4
66299.7
67520.6
68347.7
69310.2
70120.2
70919.3
71743.2
72417.9
73272.8
73815.6
74711
75078.9
76036.8
76166.5
77248.1
77051.1
78379.5
77709
79503.4
78093
80740.5
78116.9
107792
107669
107573
107365
107211
106957
106765
106513
106325
106102
105931
105720
105544
105307
105100
104815
104575
104230
103958
103538
103237
102721
102392
101749
101399
100585
100225
99175.9
98829
97452.1
97159.6
95319.2
95151.6
92646.1
92722.6
89248.2
89765.9
84857.2
86141.4
79076.6
81662.7
71317.4
76134.5
60794
69529.5
46516
62039.1
26547.3
52796.9
-4689.9
37842.5
-57424.4
13888.5
-146608
-8293.4
-75507.9
6602.38
-33882.9
16793.5
-8821.37
23544.8
9119.22
30769.4
23364.9
37763.6
34436.6
44166.5
43278.1
50038.4
50454.5
55206.3
56149.8
59465.2
60497.3
62805.4
63772.8
65417.2
66300.4
67522.5
68349.3
69312.5
70122.6
70921.7
71745.8
72419.6
73275
73816.1
74712.6
75077.9
76038
76164.2
77249.7
77047.9
78382.2
77704.9
79507.8
78088.6
80746.3
78113.3
107777
107656
107561
107354
107201
106950
106759
106508
106322
106099
105929
105718
105541
105304
105097
104811
104572
104226
103955
103534
103233
102716
102388
101744
101394
100579
100220
99168.9
98823.2
97443.9
97153.2
95309.6
95144.7
92634.8
92715.3
89234.9
89758.2
84841.5
86133.6
79058.2
81655.4
71296.5
76129
60771
69524.8
46487.6
62026.9
26505.4
52767.1
-4736.02
37807.5
-57406.5
13909.3
-146159
-8170.21
-75485.4
6618.55
-33893.9
16806.4
-8822.97
23565.1
9125.19
30790.8
23371.5
37781.3
34442
44180.6
43282.5
50049.1
50457.6
55213.6
56151.1
59469.4
60497.3
62807.6
63772.5
65418.6
66300.7
67524.1
68350.7
69314.6
70124.8
70923.8
71748.3
72421.1
73277.1
73816.4
74714
75076.8
76039.1
76161.8
77251.2
77044.5
78384.8
77700.9
79512.1
78084.2
80752
78109.6
107762
107643
107548
107344
107192
106942
106753
106504
106318
106097
105927
105716
105539
105301
105094
104808
104568
104222
103951
103530
103229
102711
102383
101739
101390
100573
100214
99161.8
98817.3
97435.8
97146.9
95300.1
95137.9
92623.6
92708
89221.7
89750.6
84825.8
86125.9
79039.8
81648.3
71275.7
76123.5
60748.2
69520.3
46459.6
62015
26464.1
52737.9
-4781.31
37773.3
-57387.7
13930.4
-145714
-8048.17
-75462.8
6634.47
-33904.9
16819.4
-8824.16
23586
9131.7
30812.4
23378
37799
34447.2
44194.5
43286.5
50059.4
50460.1
55220.3
56151.9
59472.9
60496.7
62809.2
63771.7
65419.6
66300.5
67525.4
68351.8
69316.5
70126.8
70925.8
71750.6
72422.5
73279.1
73816.6
74715.3
75075.5
76040.1
76159.4
77252.5
77041.1
78387.2
77696.7
79516.3
78079.8
80757.5
78106.1
107747
107629
107535
107333
107183
106935
106747
106499
106315
106094
105925
105714
105537
105299
105091
104805
104565
104219
103947
103526
103225
102707
102379
101733
101385
100567
100209
99154.8
98811.5
97427.7
97140.6
95290.6
95131.1
92612.5
92700.8
89208.5
89743.1
84810.3
86118.2
79021.6
81641.2
71255.1
76118.2
60725.6
69515.9
46431.9
62003.4
26423.3
52709.4
-4825.77
37740
-57368.2
13951.7
-145272
-7927.24
-75440.2
6650.18
-33916
16832.4
-8824.99
23607.4
9138.59
30834
23384.5
37816.4
34452.3
44208.1
43290.3
50069.3
50462.2
55226.4
56151.9
59475.8
60495.5
62810.2
63770.4
65420.1
66300.1
67526.4
68352.6
69318.1
70128.6
70927.6
71752.7
72423.8
73280.9
73816.6
74716.6
75074.2
76041
76156.8
77253.8
77037.7
78389.7
77692.6
79520.4
78075.3
80762.9
78102.6
107733
107616
107523
107323
107174
106928
106741
106495
106312
106092
105923
105712
105535
105296
105088
104801
104562
104215
103944
103521
103221
102702
102375
101728
101380
100561
100204
99147.9
98805.8
97419.6
97134.3
95281.1
95124.4
92601.4
92693.7
89195.5
89735.6
84794.8
86110.6
79003.5
81634.2
71234.7
76113
60703.2
69511.8
46404.5
61992.2
26383
52681.4
-4869.44
37707.5
-57347.9
13973.1
-144833
-7807.41
-75417.6
6665.69
-33927.1
16845.4
-8825.49
23629.3
9145.76
30855.6
23390.8
37833.5
34457
44221.3
43293.6
50078.7
50463.7
55231.9
56151.3
59477.9
60493.7
62810.6
63768.6
65420.2
66299.3
67527.1
68353.1
69319.5
70130.2
70929.3
71754.7
72424.9
73282.6
73816.6
74717.7
75072.8
76041.9
76154.2
77255
77034.2
78392
77688.4
79524.4
78070.9
80768.1
78099.1
107718
107603
107511
107313
107165
106921
106735
106491
106308
106089
105921
105710
105532
105293
105085
104798
104558
104211
103940
103517
103217
102697
102370
101723
101375
100555
100199
99141
98800
97411.5
97128
95271.8
95117.7
92590.4
92686.5
89182.5
89728.1
84779.4
86103.1
78985.5
81627.3
71214.5
76107.9
60681.1
69507.8
46377.4
61981.3
26343.3
52654.1
-4912.35
37675.8
-57326.8
13994.8
-144397
-7688.66
-75394.9
6681.01
-33938.3
16858.5
-8825.71
23651.4
9153.06
30877
23396.7
37850.1
34461.3
44234.1
43296.5
50087.6
50464.6
55236.7
56150
59479.4
60491.2
62810.5
63766.3
65419.9
66298.1
67527.5
68353.4
69320.7
70131.7
70930.8
71756.5
72425.9
73284.1
73816.4
74718.7
75071.3
76042.6
76151.6
77256.2
77030.6
78394.3
77684.2
79528.3
78066.5
80773.3
78095.7
107704
107590
107499
107303
107156
106914
106730
106487
106305
106087
105919
105708
105530
105290
105082
104794
104555
104208
103936
103513
103213
102693
102366
101718
101370
100549
100193
99134.1
98794.3
97403.5
97121.8
95262.4
95111
92579.5
92679.4
89169.5
89720.7
84764.2
86095.7
78967.7
81620.5
71194.4
76102.9
60659.1
69503.9
46350.6
61970.7
26304.1
52627.3
-4954.52
37644.8
-57305.1
14016.6
-143964
-7570.97
-75372
6696.16
-33949.4
16871.6
-8825.68
23673.7
9160.37
30898.1
23402.3
37866.3
34465.2
44246.4
43298.9
50095.9
50464.9
55240.8
56148.1
59480.3
60488.2
62809.9
63763.6
65419.2
66296.7
67527.6
68353.5
69321.7
70132.9
70932.1
71758.2
72426.7
73285.6
73816.1
74719.6
75069.7
76043.3
76148.8
77257.3
77027
78396.5
77680
79532.2
78062.1
80778.3
78092.4
107689
107578
107486
107293
107147
106907
106724
106482
106302
106084
105916
105706
105528
105288
105079
104791
104552
104204
103933
103509
103209
102688
102362
101713
101366
100543
100188
99127.2
98788.6
97395.6
97115.7
95253.1
95104.3
92568.6
92672.4
89156.7
89713.4
84749
86088.3
78949.9
81613.8
71174.4
76098.1
60637.4
69500.2
46324.2
61960.4
26265.4
52601.1
-4995.99
37614.6
-57282.7
14038.6
-143534
-7454.32
-75349.1
6711.16
-33960.6
16884.7
-8825.46
23696.2
9167.59
30918.7
23407.3
37881.9
34468.6
44258.1
43300.8
50103.6
50464.6
55244.3
56145.5
59480.6
60484.7
62808.7
63760.5
65418.2
66294.9
67527.5
68353.4
69322.6
70134.1
70933.3
71759.8
72427.5
73286.9
73815.8
74720.5
75068
76043.9
76146
77258.3
77023.4
78398.6
77675.8
79535.9
78057.7
80783.3
78089.2
107675
107565
107475
107283
107138
106900
106718
106478
106298
106082
105914
105704
105526
105285
105076
104788
104548
104200
103929
103505
103205
102684
102357
101707
101361
100537
100183
99120.4
98783
97387.6
97109.5
95243.9
95097.7
92557.7
92665.4
89143.9
89706.1
84733.9
86080.9
78932.3
81607.1
71154.6
76093.3
60615.8
69496.7
46298
61950.4
26227.2
52575.3
-5036.77
37585
-57259.7
14060.6
-143108
-7338.7
-75326.1
6726.03
-33971.8
16897.8
-8825.08
23718.7
9174.62
30938.9
23411.9
37896.9
34471.4
44269.2
43302.1
50110.7
50463.6
55247.2
56142.4
59480.3
60480.6
62807.2
63757.1
65416.9
66292.9
67527.2
68353.1
69323.2
70135
70934.3
71761.3
72428.1
73288.2
73815.3
74721.2
75066.3
76044.5
76143.2
77259.3
77019.7
78400.7
77671.5
79539.6
78053.4
80788.1
78086
107661
107552
107463
107273
107129
106893
106712
106474
106295
106079
105912
105702
105524
105282
105073
104784
104545
104197
103926
103501
103201
102679
102353
101702
101356
100531
100178
99113.6
98777.3
97379.8
97103.4
95234.7
95091.1
92546.9
92658.4
89131.2
89698.8
84718.9
86073.6
78914.8
81600.5
71135
76088.5
60594.5
69493.2
46272
61940.6
26189.4
52550.1
-5076.89
37556.1
-57236
14082.8
-142685
-7224.07
-75303
6740.78
-33983
16910.9
-8824.59
23741.1
9181.35
30958.5
23415.8
37911.3
34473.6
44279.8
43302.9
50117.2
50462.1
55249.4
56138.6
59479.4
60476.1
62805.2
63753.3
65415.2
66290.7
67526.6
68352.7
69323.7
70135.8
70935.3
71762.6
72428.6
73289.4
73814.8
74721.9
75064.5
76045
76140.4
77260.3
77016
78402.8
77667.2
79543.3
78049
80792.8
78082.8
107647
107540
107451
107263
107120
106886
106707
106470
106292
106077
105910
105700
105521
105280
105070
104781
104542
104193
103922
103497
103197
102675
102349
101697
101352
100525
100173
99106.8
98771.7
97371.9
97097.3
95225.5
95084.6
92536.2
92651.4
89118.5
89691.6
84703.9
86066.4
78897.4
81594
71115.5
76083.9
60573.3
69489.9
46246.4
61931.1
26152.1
52525.3
-5116.38
37527.8
-57211.8
14105.1
-142264
-7110.43
-75279.7
6755.43
-33994.1
16924
-8824.05
23763.3
9187.71
30977.4
23419.1
37924.9
34475.3
44289.8
43303.1
50123.1
50460
55251.1
56134.3
59478.1
60471.1
62802.8
63749.1
65413.3
66288.2
67525.9
68352
69324.1
70136.5
70936.1
71763.8
72429.1
73290.4
73814.2
74722.5
75062.7
76045.5
76137.4
77261.1
77012.3
78404.8
77663
79546.8
78044.7
80797.4
78079.7
107633
107528
107439
107254
107111
106879
106701
106465
106289
106074
105908
105698
105519
105277
105067
104778
104539
104189
103919
103493
103193
102670
102345
101692
101347
100519
100168
99100.1
98766.1
97364.1
97091.2
95216.4
95078.1
92525.5
92644.5
89105.9
89684.5
84689.1
86059.2
78880.1
81587.5
71096.1
76079.4
60552.2
69486.7
46220.9
61921.8
26115.2
52501
-5155.25
37500.1
-57187
14127.5
-141847
-6997.75
-75256.4
6770
-34005.2
16937.1
-8823.47
23785.4
9193.64
30995.7
23421.8
37938
34476.4
44299.1
43302.7
50128.3
50457.3
55252.1
56129.5
59476.2
60465.7
62800.1
63744.7
65411.1
66285.5
67525
68351.2
69324.3
70137.1
70936.7
71765
72429.4
73291.4
73813.6
74723.1
75060.8
76045.9
76134.5
77262
77008.6
78406.7
77658.7
79550.3
78040.4
80801.9
78076.7
107620
107515
107427
107244
107103
106873
106696
106461
106285
106072
105906
105696
105517
105274
105064
104775
104535
104186
103915
103489
103190
102666
102341
101687
101342
100514
100163
99093.4
98760.6
97356.3
97085.2
95207.3
95071.6
92514.8
92637.7
89093.4
89677.3
84674.3
86052.1
78862.9
81581.1
71076.9
76074.9
60531.4
69483.6
46195.8
61912.7
26078.8
52477.1
-5193.54
37473.1
-57161.7
14149.9
-141433
-6886.01
-75232.8
6784.5
-34016.3
16950.2
-8822.92
23807.1
9199.09
31013.3
23423.8
37950.3
34476.9
44307.9
43301.8
50133.1
50454.1
55252.6
56124.2
59473.9
60459.9
62797
63739.9
65408.7
66282.7
67523.9
68350.3
69324.4
70137.5
70937.3
71766
72429.7
73292.4
73812.9
74723.6
75058.9
76046.2
76131.5
77262.8
77004.8
78408.6
77654.4
79553.8
78036.1
80806.4
78073.8
107606
107503
107416
107234
107094
106866
106690
106457
106282
106069
105904
105694
105515
105272
105061
104772
104532
104182
103912
103485
103186
102661
102336
101682
101338
100508
100158
99086.7
98755
97348.6
97079.2
95198.3
95065.1
92504.2
92630.8
89080.9
89670.2
84659.7
86045
78845.8
81574.8
71057.7
76070.5
60510.7
69480.6
46170.8
61903.9
26042.7
52453.6
-5231.26
37446.5
-57135.9
14172.4
-141022
-6775.2
-75209.1
6798.95
-34027.3
16963.2
-8822.43
23828.5
9204
31030.2
23425.2
37962
34476.9
44316.1
43300.4
50137.2
50450.3
55252.7
56118.4
59471.2
60453.8
62793.6
63735
65406.1
66279.6
67522.6
68349.2
69324.3
70137.9
70937.8
71767
72429.9
73293.2
73812.1
74724.1
75056.9
76046.6
76128.6
77263.6
77001.1
78410.5
77650.2
79557.1
78031.8
80810.7
78070.9
107593
107491
107405
107225
107085
106859
106684
106453
106279
106067
105902
105692
105513
105269
105058
104768
104529
104179
103908
103481
103182
102657
102332
101677
101333
100502
100152
99080.1
98749.5
97340.8
97073.2
95189.3
95058.7
92493.7
92624
89068.5
89663.2
84645
86038
78828.8
81568.5
71038.8
76066.1
60490.1
69477.6
46146.1
61895.2
26007.1
52430.6
-5268.43
37420.6
-57109.6
14195
-140614
-6665.3
-75185.3
6813.36
-34038.2
16976.2
-8822.03
23849.5
9208.35
31046.4
23425.9
37973
34476.3
44323.8
43298.4
50140.9
50446.1
55252.2
56112.2
59468
60447.3
62790
63729.8
65403.3
66276.4
67521.2
68348
69324.2
70138.1
70938.2
71767.9
72430
73294
73811.2
74724.5
75054.9
76046.9
76125.6
77264.3
76997.3
78412.3
77645.9
79560.4
78027.6
80814.9
78068
107579
107479
107393
107215
107077
106852
106679
106449
106276
106064
105900
105689
105510
105266
105055
104765
104526
104175
103905
103477
103178
102653
102328
101672
101329
100496
100147
99073.4
98744
97333.2
97067.2
95180.3
95052.3
92483.2
92617.3
89056.2
89656.2
84630.5
86031
78812
81562.3
71019.9
76061.8
60469.7
69474.8
46121.6
61886.7
25971.8
52407.9
-5305.07
37395.1
-57082.8
14217.5
-140209
-6556.29
-75161.3
6827.75
-34049.1
16989.1
-8821.76
23870.1
9212.11
31061.9
23426
37983.4
34475.1
44330.8
43296
50144
50441.5
55251.3
56105.7
59464.6
60440.6
62786.1
63724.4
65400.3
66273.1
67519.7
68346.7
69323.9
70138.3
70938.6
71768.7
72430
73294.8
73810.4
74724.9
75052.9
76047.1
76122.5
77265.1
76993.5
78414.1
77641.6
79563.7
78023.3
80819
78065.3
107566
107467
107382
107206
107069
106846
106673
106445
106272
106062
105898
105687
105508
105264
105052
104762
104523
104172
103901
103474
103174
102648
102324
101667
101324
100491
100142
99066.9
98738.5
97325.5
97061.3
95171.4
95045.9
92472.8
92610.5
89043.9
89649.2
84616.1
86024.1
78795.2
81556.1
71001.2
76057.6
60449.5
69472
46097.3
61878.4
25936.9
52385.5
-5341.21
37370.1
-57055.6
14240.2
-139807
-6448.15
-75137.1
6842.14
-34059.8
17002
-8821.65
23890.1
9215.28
31076.6
23425.5
37993.2
34473.5
44337.4
43293.1
50146.7
50436.4
55250
56098.8
59460.8
60433.6
62781.9
63718.8
65397.2
66269.6
67518.1
68345.3
69323.6
70138.4
70938.8
71769.4
72430
73295.5
73809.5
74725.3
75050.9
76047.4
76119.5
77265.7
76989.8
78415.9
77637.4
79566.9
78019.2
80823.1
78062.6
107553
107455
107371
107197
107060
106839
106668
106441
106269
106059
105896
105685
105506
105261
105050
104759
104519
104168
103898
103470
103171
102644
102320
101662
101320
100485
100137
99060.3
98733.1
97317.9