/*--------------------------------*- C++ -*----------------------------------*\
| =========                 |                                                 |
| \\      /  F ield         | OpenFOAM: The Open Source CFD Toolbox           |
|  \\    /   O peration     | Version:  2412                                  |
|   \\  /    A nd           | Website:  www.openfoam.com                      |
|    \\/     M anipulation  |                                                 |
\*---------------------------------------------------------------------------*/
FoamFile
{
    version     2.0;
    format      ascii;
    arch        "LSB;label=32;scalar=64";
    class       surfaceScalarField;
    location    "0.6";
    object      phi;
}
// * * * * * * * * * * * * * * * * * * * * * * * * * * * * * * * * * * * * * //

dimensions      [0 3 -1 0 0 0 0];

oriented        oriented;

internalField   nonuniform List<scalar> 
25926
(
0.00749632
-0.0253294
0.00745578
-0.0208907
0.00744643
-0.0171477
0.00745027
-0.0141953
0.00745424
-0.010934
0.00744563
-0.00708591
0.007418
-0.00248085
0.00737153
0.00233047
0.00731077
0.00682044
0.00724471
0.0105111
0.00718517
0.0130288
0.00714687
0.0141451
0.00713955
0.013708
0.00715852
0.0121297
0.00718637
0.0101674
0.00720979
0.00860146
0.00722649
0.00746162
0.00724005
0.00671247
0.00725241
0.00601252
0.00726464
0.00549775
0.0072761
0.00491034
0.00728725
0.00451406
0.00729705
0.00395125
0.00730648
0.00366973
0.00731414
0.00310876
0.00732156
0.0029249
0.00732684
0.00233833
0.00733222
0.00226849
0.00733499
0.0016057
0.00733854
0.0017099
0.00733887
0.000922768
0.00734089
0.0012286
0.00733877
0.00024888
0.00733963
0.000847745
0.00733493
-0.000402733
0.00733483
0.000577892
0.00732708
-0.00107044
0.00732621
0.000448279
0.00731433
-0.00176056
0.0073112
0.0004783
0.0072921
-0.00224223
0.00728564
0.00123863
0.00726172
-0.00160469
0.00726079
0.00357793
0.00724732
0.000643322
0.00727183
0.00681626
0.00729177
0.00214061
0.00735197
0.0058821
0.00738461
-0.00266589
0.0074399
-0.00375115
0.00748095
-0.0131488
0.0075626
-0.0348237
0.00763475
-0.0625835
0.00775102
0.0165792
0.00779906
0.0481509
0.00784246
0.0300597
0.00783506
0.00813302
0.00782436
0.00332093
0.00778379
-0.00679387
0.00773282
-0.00427103
0.00767202
-0.00677823
0.0076184
-0.0016032
0.00757802
-0.00287361
0.00754638
0.000770852
0.00752589
-0.000562598
0.00750257
0.00208791
0.00748525
0.00110172
0.00746433
0.00292052
0.00745478
0.00185864
0.00745127
0.00265446
0.00746517
0.00128705
0.00748704
0.00116815
0.00751589
-0.0004016
0.00753889
-0.00101262
0.00755246
-0.00243905
0.00755334
-0.00305903
-0.00403427
0.00749594
-0.0252495
0.00745465
-0.0208494
0.00744423
-0.0171373
0.00744692
-0.014198
0.00744988
-0.0109369
0.00744057
-0.0070766
0.00741272
-0.002453
0.00736655
0.00237664
0.00730663
0.00688036
0.00724192
0.0105758
0.00718422
0.0130865
0.00714803
0.0141813
0.00714252
0.0137135
0.00716245
0.0121098
0.00719044
0.0101394
0.00721371
0.00857819
0.00723034
0.00744499
0.00724393
0.00669887
0.00725637
0.00600009
0.00726866
0.00548545
0.00728016
0.00489884
0.00729134
0.00450288
0.00730117
0.00394143
0.00731061
0.00366028
0.00731829
0.00310108
0.00732572
0.00291747
0.007331
0.00233305
0.00733638
0.0022631
0.00733915
0.00160293
0.00734269
0.00170636
0.007343
0.000922456
0.007345
0.0012266
0.00734286
0.000251022
0.00734368
0.000846925
0.00733894
-0.000397991
0.00733878
0.000578043
0.00733099
-0.00106265
0.00733004
0.000449228
0.00731809
-0.00174861
0.00731487
0.000481523
0.00729573
-0.00222309
0.00728931
0.00124505
0.00726562
-0.001581
0.00726508
0.00357848
0.00725222
0.000656175
0.00727737
0.00679111
0.00729771
0.00212027
0.00735756
0.00582225
0.00738918
-0.00269751
0.0074435
-0.00380546
0.00748378
-0.0131891
0.00756328
-0.0349032
0.00763239
-0.0626526
0.00774964
0.016462
0.00780042
0.0481001
0.0078439
0.0300162
0.00783444
0.00814248
0.00782082
0.00333456
0.00777695
-0.00675
0.0077237
-0.00421778
0.00766161
-0.00671613
0.00760826
-0.00154986
0.00756859
-0.00283394
0.00753843
0.000801007
0.00751904
-0.000543212
0.00749755
0.00210941
0.0074819
0.00111737
0.00746381
0.00293861
0.00745695
0.0018655
0.00745664
0.00265476
0.00747229
0.0012714
0.00749477
0.00114568
0.00752188
-0.000428709
0.00754226
-0.001033
0.00755267
-0.00244946
0.00755122
-0.00305759
-0.00402288
0.00749557
-0.0251694
0.00745354
-0.0208073
0.00744207
-0.0171258
0.00744363
-0.0141995
0.00744559
-0.0109389
0.0074356
-0.00706661
0.00740754
-0.00242494
0.00736169
0.0024225
0.00730261
0.00693944
0.00723926
0.0106391
0.00718339
0.0131423
0.00714927
0.0142154
0.00714552
0.0137173
0.00716635
0.012089
0.00719447
0.0101113
0.00721759
0.00855506
0.00723416
0.00742842
0.0072478
0.00668522
0.00726031
0.00598758
0.00727267
0.00547309
0.00728422
0.00488729
0.00729544
0.00449167
0.00730529
0.00393157
0.00731475
0.00365082
0.00732245
0.00309339
0.00732988
0.00291004
0.00733517
0.00232776
0.00734055
0.00225772
0.00734332
0.00160017
0.00734685
0.00170282
0.00734715
0.000922155
0.00734913
0.00122462
0.00734697
0.000253186
0.00734775
0.000846139
0.00734298
-0.000393215
0.00734278
0.000578241
0.00733494
-0.00105481
0.00733393
0.000450242
0.0073219
-0.00173658
0.00731859
0.000484834
0.00729942
-0.00220392
0.00729305
0.00125142
0.0072696
-0.00155755
0.00726943
0.00357865
0.00725717
0.000668435
0.00728293
0.00676535
0.0073036
0.0020996
0.00736308
0.00576277
0.00739371
-0.00272814
0.0074471
-0.00385884
0.00748664
-0.0132286
0.00756398
-0.0349805
0.00762997
-0.0627186
0.00774811
0.0163439
0.00780154
0.0480466
0.0078451
0.0299726
0.00783366
0.00815391
0.00781724
0.00335098
0.00777021
-0.00670296
0.00771484
-0.00416241
0.00765159
-0.00665288
0.00759868
-0.00149695
0.00755981
-0.00279507
0.00753125
0.000829575
0.00751298
-0.00052495
0.00749338
0.00212901
0.00747941
0.00113134
0.00746417
0.00295385
0.00745987
0.00186981
0.00746251
0.00265212
0.0074795
0.00125441
0.00750217
0.00112301
0.0075273
-0.000453846
0.0075451
-0.0010508
0.00755265
-0.00245701
0.00754919
-0.00305413
-0.00401007
0.00749521
-0.0250888
0.00745245
-0.0207646
0.00743995
-0.0171133
0.00744039
-0.0142
0.00744137
-0.0109399
0.00743072
-0.00705595
0.00740247
-0.00239669
0.00735693
0.00246803
0.0072987
0.00699767
0.00723671
0.0107011
0.00718267
0.0131964
0.00715059
0.0142475
0.00714855
0.0137193
0.00717024
0.0120673
0.00719846
0.0100831
0.00722145
0.00853207
0.00723797
0.0074119
0.00725167
0.00667153
0.00726425
0.005975
0.00727668
0.00546067
0.00728828
0.00487569
0.00729953
0.00448042
0.00730941
0.00392169
0.00731889
0.00364133
0.00732661
0.00308568
0.00733405
0.0029026
0.00733935
0.00232246
0.00734473
0.00225233
0.0073475
0.0015974
0.00735103
0.0016993
0.00735132
0.00092186
0.00735329
0.00122265
0.0073511
0.000255369
0.00735186
0.000845382
0.00734705
-0.000388408
0.00734681
0.00057848
0.00733893
-0.00104693
0.00733786
0.000451318
0.00732576
-0.00172448
0.00732237
0.000488225
0.00730317
-0.00218472
0.00729685
0.00125774
0.00727364
-0.00153434
0.00727384
0.00357845
0.00726215
0.000680123
0.00728848
0.00673901
0.00730946
0.00207862
0.00736855
0.00570368
0.00739822
-0.00275781
0.0074507
-0.00391133
0.00748952
-0.0132674
0.00756468
-0.0350557
0.00762751
-0.0627814
0.00774641
0.016225
0.00780243
0.0479906
0.00784607
0.029929
0.00783274
0.00816724
0.00781362
0.00337009
0.00776356
-0.0066529
0.00770622
-0.00410507
0.00764196
-0.00658862
0.00758965
-0.00144465
0.00755169
-0.00275711
0.00752481
0.000856456
0.00750768
-0.000507821
0.00749003
0.00214666
0.00747771
0.00114367
0.0074653
0.00296626
0.00746339
0.00187172
0.00746871
0.00264681
0.00748665
0.00123647
0.00750915
0.00110052
0.00753217
-0.000476873
0.00754749
-0.00106611
0.00755248
-0.002462
0.00754728
-0.00304894
-0.00399607
0.00749485
-0.0250079
0.00745138
-0.0207211
0.00743786
-0.0170998
0.00743721
-0.0141993
0.00743723
-0.0109399
0.00742592
-0.00704465
0.00739749
-0.00236826
0.00735228
0.00251324
0.0072949
0.00705505
0.00723427
0.0107617
0.00718204
0.0132486
0.00715198
0.0142776
0.00715161
0.0137197
0.00717412
0.0120448
0.00720243
0.0100548
0.00722529
0.00850922
0.00724177
0.00739542
0.00725552
0.00665777
0.00726819
0.00596233
0.00728068
0.00544817
0.00729233
0.00486404
0.00730362
0.00446913
0.00731353
0.00391178
0.00732304
0.00363182
0.00733077
0.00307795
0.00733823
0.00289514
0.00734354
0.00231716
0.00734893
0.00224693
0.0073517
0.00159463
0.00735522
0.00169578
0.00735551
0.000921572
0.00735746
0.0012207
0.00735526
0.000257568
0.00735599
0.000844653
0.00735115
-0.000383574
0.00735088
0.000578759
0.00734296
-0.00103901
0.00734182
0.000452452
0.00732966
-0.00171232
0.0073262
0.000491692
0.00730698
-0.00216551
0.00730072
0.001264
0.00727774
-0.00151135
0.0072783
0.00357789
0.00726716
0.000691257
0.00729404
0.00671213
0.00731529
0.00205738
0.00737397
0.00564499
0.0074027
-0.00278654
0.00745431
-0.00396294
0.00749243
-0.0133055
0.00756538
-0.0351286
0.007625
-0.062841
0.00774458
0.0161054
0.00780311
0.0479321
0.00784682
0.0298853
0.00783168
0.00818238
0.00780998
0.00339179
0.00775703
-0.00659994
0.00769785
-0.0040459
0.00763273
-0.0065235
0.0075812
-0.00139312
0.00754424
-0.00272015
0.00751913
0.000881567
0.00750313
-0.000491822
0.00748746
0.00216233
0.00747675
0.00115438
0.0074671
0.0029759
0.0074674
0.00187142
0.00747507
0.00263913
0.00749361
0.00121793
0.00751564
0.00107849
0.00753651
-0.000497739
0.0075495
-0.0010791
0.00755221
-0.00246471
0.00754552
-0.00304225
0.00753053
-0.00398107
0.00751006
-0.00428963
0.00748549
-0.00464239
0.00745913
-0.00454368
0.00743218
-0.00438706
0.00740656
-0.00401585
0.00738342
-0.00355841
0.00736393
-0.00315904
0.00734874
-0.00266372
0.00733753
-0.00247742
0.00732981
-0.00212062
0.0073236
-0.00224174
0.00731827
-0.00197749
0.00731083
-0.00240216
0.00730246
-0.0020994
0.00728877
-0.00273424
0.00727434
-0.00221655
0.00725049
-0.0029909
0.00722822
-0.00209798
0.00718827
-0.00286072
0.00715588
-0.00138779
0.00708755
-0.0016963
0.00180409
0.00749451
-0.0249267
0.00745034
-0.0206769
0.00743581
-0.0170853
0.00743408
-0.0141976
0.00743315
-0.010939
0.0074212
-0.0070327
0.0073926
-0.00233966
0.00734773
0.00255812
0.00729121
0.00711157
0.00723194
0.010821
0.00718151
0.013299
0.00715344
0.0143056
0.00715468
0.0137184
0.00717798
0.0120215
0.00720636
0.0100264
0.0072291
0.00848648
0.00724555
0.00737897
0.00725937
0.00664396
0.00727212
0.00594958
0.00728468
0.00543561
0.00729638
0.00485234
0.00730771
0.0044578
0.00731765
0.00390184
0.00732719
0.00362229
0.00733494
0.0030702
0.00734241
0.00288766
0.00734773
0.00231184
0.00735313
0.00224153
0.00735591
0.00159186
0.00735943
0.00169226
0.00735971
0.000921288
0.00736165
0.00121876
0.00735944
0.000259781
0.00736014
0.000843947
0.00735528
-0.000378715
0.00735497
0.000579074
0.00734702
-0.00103106
0.00734583
0.00045364
0.00733361
-0.00170011
0.00733008
0.000495228
0.00731085
-0.00214628
0.00730465
0.0012702
0.0072819
-0.0014886
0.00728281
0.00357699
0.00727221
0.000701856
0.0072996
0.00668474
0.00732108
0.0020359
0.00737934
0.00558674
0.00740716
-0.00281436
0.00745794
-0.00401372
0.00749535
-0.0133429
0.0075661
-0.0351994
0.00762245
-0.0628974
0.00774259
0.0159852
0.00780357
0.0478711
0.00784738
0.0298415
0.0078305
0.00819927
0.00780633
0.00341595
0.00775062
-0.00654423
0.00768977
-0.00398504
0.00762394
-0.00645767
0.00757333
-0.00134251
0.00753745
-0.00268427
0.00751418
0.000904844
0.00749929
-0.00047694
0.00748561
0.00217602
0.00747645
0.00116353
0.00746947
0.00298288
0.00747176
0.00186914
0.00748147
0.00262942
0.00750028
0.00119913
0.00752162
0.00105715
0.00754035
-0.000516465
0.00755119
-0.00108994
0.0075519
-0.00246542
0.00754393
-0.00303429
0.0075281
-0.00396524
0.00750723
-0.00426876
0.00748252
-0.00461768
0.00745629
-0.00451745
0.0074297
-0.00436046
0.00740463
-0.00399078
0.0073822
-0.00353599
0.00736349
-0.00314033
0.00734907
-0.0026493
0.00733848
-0.00246683
0.0073312
-0.00211333
0.00732518
-0.00223572
0.00731989
-0.00197221
0.00731234
-0.00239461
0.00730385
-0.0020909
0.00728995
-0.00272035
0.00727539
-0.00220198
0.00725138
-0.00296689
0.00722903
-0.00207563
0.00718905
-0.00282074
0.00715666
-0.00135539
0.00708891
-0.00162855
0.00185086
0.00749417
-0.0248451
0.00744931
-0.0206321
0.0074338
-0.0170698
0.007431
-0.0141948
0.00742914
-0.0109371
0.00741657
-0.00702013
0.00738781
-0.00231091
0.00734328
0.00260265
0.00728761
0.00716724
0.0072297
0.0108789
0.00718107
0.0133477
0.00715496
0.0143318
0.00715777
0.0137156
0.00718181
0.0119974
0.00721026
0.00999797
0.00723289
0.00846385
0.00724932
0.00736253
0.00726321
0.00663007
0.00727604
0.00593675
0.00728868
0.00542298
0.00730043
0.00484058
0.0073118
0.00444643
0.00732177
0.00389187
0.00733134
0.00361273
0.00733911
0.00306243
0.0073466
0.00288017
0.00735193
0.0023065
0.00735734
0.00223612
0.00736012
0.00158908
0.00736364
0.00168874
0.00736393
0.000921004
0.00736586
0.00121683
0.00736363
0.000262005
0.00736432
0.000843263
0.00735944
-0.000373836
0.00735909
0.000579422
0.00735111
-0.00102308
0.00734987
0.000454879
0.0073376
-0.00168784
0.007334
0.000498828
0.00731478
-0.00212706
0.00730864
0.00127634
0.00728612
-0.00146608
0.00728737
0.00357574
0.00727728
0.000711939
0.00730516
0.00665686
0.00732684
0.00201422
0.00738466
0.00552892
0.0074116
-0.0028413
0.00746157
-0.00406368
0.0074983
-0.0133797
0.00756682
-0.0352679
0.00761985
-0.0629504
0.00774047
0.0158646
0.00780383
0.0478077
0.00784774
0.0297976
0.00782921
0.0082178
0.00780269
0.00344248
0.00774436
-0.0064859
0.00768197
-0.00392265
0.00761558
-0.00639128
0.00756606
-0.00129298
0.00753134
-0.00264956
0.00750994
0.000926244
0.00749615
-0.000463148
0.00748442
0.00218776
0.00747675
0.0011712
0.0074723
0.00298733
0.00747634
0.0018651
0.00748779
0.00261797
0.00750659
0.00118033
0.00752708
0.00103666
0.00754374
-0.000533127
0.00755263
-0.00109883
0.00755159
-0.00246437
0.00754252
-0.00302522
0.00752598
-0.0039487
0.00750479
-0.00424757
0.00747998
-0.00459287
0.0074539
-0.00449137
0.00742765
-0.00433422
0.00740312
-0.00396625
0.00738137
-0.00351424
0.00736339
-0.00312235
0.00734967
-0.00263558
0.00733963
-0.0024568
0.00733272
-0.00210642
0.00732686
-0.00222986
0.0073216
-0.00196695
0.00731393
-0.00238694
0.0073053
-0.00208228
0.00729122
-0.00270627
0.00727654
-0.00218729
0.00725239
-0.00294274
0.00722999
-0.00205323
0.00719001
-0.00278077
0.00715762
-0.001323
0.0070905
-0.00156142
0.00189676
0.00749384
-0.0247632
0.0074483
-0.0205865
0.00743181
-0.0170533
0.00742797
-0.0141909
0.00742519
-0.0109343
0.00741201
-0.00700696
0.00738311
-0.002282
0.00733893
0.00264683
0.00728412
0.00722204
0.00722756
0.0109355
0.00718072
0.0133945
0.00715654
0.0143559
0.00716088
0.0137113
0.00718563
0.0119727
0.00721414
0.00996946
0.00723666
0.00844133
0.00725308
0.00734611
0.00726704
0.00661611
0.00727996
0.00592383
0.00729267
0.00541027
0.00730447
0.00482877
0.00731589
0.00443501
0.0073259
0.00388186
0.00733548
0.00360314
0.00734328
0.00305464
0.00735079
0.00287266
0.00735614
0.00230115
0.00736156
0.0022307
0.00736435
0.00158629
0.00736787
0.00168522
0.00736816
0.00092072
0.00737008
0.00121491
0.00736785
0.000264236
0.00736851
0.000842598
0.00736362
-0.000368939
0.00736324
0.000579799
0.00735523
-0.00101507
0.00735394
0.000456165
0.00734163
-0.00167552
0.00733797
0.000502486
0.00731875
-0.00210783
0.00731268
0.00128241
0.00729039
-0.0014438
0.00729197
0.00357416
0.00728238
0.000721524
0.00731072
0.00662853
0.00733257
0.00199237
0.00738993
0.00547155
0.00741603
-0.0028674
0.00746521
-0.00411287
0.00750127
-0.0134157
0.00756754
-0.0353342
0.00761721
-0.0630001
0.00773821
0.0157436
0.0078039
0.0477421
0.00784793
0.0297536
0.00782783
0.0082379
0.00779906
0.00347125
0.00773825
-0.00642508
0.00767448
-0.00385889
0.00760769
-0.0063245
0.00755939
-0.00124468
0.0075259
-0.00261607
0.00750639
0.000945752
0.00749365
-0.000450408
0.00748382
0.00219759
0.00747757
0.00117745
0.00747547
0.00298943
0.00748106
0.00185952
0.00749393
0.00260511
0.00751251
0.00116174
0.00753204
0.00101713
0.00754676
-0.000547839
0.00755389
-0.00110596
0.00755132
-0.0024618
0.00754131
-0.00301521
0.00752416
-0.00393155
0.0075027
-0.00422611
0.00747782
-0.004568
0.0074519
-0.00446544
0.007426
-0.00430832
0.00740198
-0.00394223
0.00738086
-0.00349312
0.00736356
-0.00310505
0.00735048
-0.00262249
0.00734093
-0.00244725
0.00733435
-0.00209984
0.00732861
-0.00222413
0.00732336
-0.0019617
0.00731558
-0.00237916
0.00730683
-0.00207352
0.00729258
-0.00269202
0.00727778
-0.0021725
0.00725352
-0.00291847
0.00723107
-0.00203078
0.00719113
-0.00274082
0.00715877
-0.00129065
0.00709228
-0.00149494
0.00194177
0.00749352
-0.0246809
0.00744731
-0.0205403
0.00742986
-0.0170358
0.00742499
-0.0141861
0.00742131
-0.0109306
0.00740754
-0.00699319
0.0073785
-0.00225296
0.00733467
0.00269066
0.00728073
0.00727598
0.00722552
0.0109907
0.00718044
0.0134396
0.00715817
0.0143782
0.007164
0.0137054
0.00718942
0.0119473
0.00721798
0.0099409
0.0072404
0.00841891
0.00725683
0.00732968
0.00727087
0.00660207
0.00728387
0.00591083
0.00729665
0.0053975
0.00730852
0.00481691
0.00731997
0.00442356
0.00733002
0.00387182
0.00733964
0.00359352
0.00734746
0.00304682
0.00735498
0.00286513
0.00736035
0.00229578
0.00736579
0.00222527
0.00736858
0.00158349
0.00737211
0.00168169
0.0073724
0.000920432
0.00737431
0.00121299
0.00737208
0.000266472
0.00737273
0.000841949
0.00736782
-0.000364027
0.00736741
0.000580202
0.00735938
-0.00100704
0.00735805
0.000457494
0.00734569
-0.00166317
0.00734198
0.000506196
0.00732277
-0.00208862
0.00731677
0.0012884
0.00729472
-0.00142174
0.00729662
0.00357226
0.00728751
0.000730629
0.00731627
0.00659977
0.00733826
0.00197038
0.00739517
0.00541464
0.00742044
-0.00289267
0.00746887
-0.00416129
0.00750426
-0.0134511
0.00756826
-0.0353982
0.00761453
-0.0630464
0.00773582
0.0156223
0.00780378
0.0476741
0.00784795
0.0297094
0.00782637
0.00825948
0.00779546
0.00350215
0.0077323
-0.00636192
0.00766731
-0.00379389
0.00760028
-0.00625747
0.00755333
-0.00119774
0.00752111
-0.00258385
0.00750349
0.000963375
0.00749175
-0.000438671
0.00748375
0.00220559
0.00747882
0.00118238
0.0074789
0.00298935
0.00748581
0.0018526
0.00749983
0.00259109
0.00751803
0.00114355
0.00753655
0.000998606
0.00754944
-0.000560737
0.007555
-0.00111152
0.00755111
-0.0024579
0.00754028
-0.00300438
0.00752261
-0.00391389
0.00750092
-0.00420442
0.00747601
-0.00454308
0.00745025
-0.00443969
0.00742469
-0.00428276
0.00740117
-0.00391871
0.00738065
-0.00347261
0.00736398
-0.00308838
0.00735148
-0.00260999
0.00734237
-0.00243815
0.00733608
-0.00209354
0.00733044
-0.00221849
0.00732518
-0.00195644
0.00731728
-0.00237126
0.00730841
-0.00206465
0.00729401
-0.00267761
0.00727911
-0.0021576
0.00725475
-0.0028941
0.00723228
-0.00200831
0.00719238
-0.00270093
0.00716008
-0.00125834
0.00709425
-0.00142911
0.00198593
0.0074932
-0.0245984
0.00744634
-0.0204935
0.00742795
-0.0170174
0.00742206
-0.0141802
0.00741749
-0.0109261
0.00740314
-0.00697884
0.00737397
-0.00222379
0.00733051
0.00273413
0.00727743
0.00732905
0.00722357
0.0110445
0.00718025
0.0134829
0.00715984
0.0143986
0.00716712
0.0136982
0.0071932
0.0119212
0.0072218
0.00991229
0.00724413
0.00839658
0.00726057
0.00731325
0.00727468
0.00658796
0.00728778
0.00589774
0.00730063
0.00538465
0.00731255
0.00480499
0.00732406
0.00441205
0.00733414
0.00386173
0.00734378
0.00358387
0.00735163
0.00303897
0.00735918
0.00285758
0.00736457
0.0022904
0.00737001
0.00221982
0.00737282
0.00158068
0.00737636
0.00167815
0.00737665
0.00092014
0.00737856
0.00121108
0.00737632
0.000268713
0.00737696
0.000841313
0.00737204
-0.000359103
0.00737161
0.000580629
0.00736356
-0.000998992
0.00736219
0.000458863
0.0073498
-0.00165077
0.00734604
0.000509953
0.00732684
-0.00206942
0.00732092
0.00129433
0.00729909
-0.00139991
0.0073013
0.00357005
0.00729266
0.000739272
0.00732182
0.00657062
0.00734392
0.00194827
0.00740036
0.0053582
0.00742485
-0.00291715
0.00747253
-0.00420898
0.00750726
-0.0134859
0.007569
-0.0354599
0.00761181
-0.0630892
0.0077333
0.0155008
0.00780348
0.0476039
0.00784781
0.0296651
0.00782483
0.00828246
0.0077919
0.00353507
0.00772653
-0.00629655
0.00766047
-0.00372783
0.00759334
-0.00619034
0.00754788
-0.00115228
0.00751696
-0.00255293
0.00750119
0.000979148
0.0074904
-0.000427883
0.00748413
0.00221186
0.00748042
0.00118609
0.00748249
0.00298728
0.00749053
0.00184456
0.00750545
0.00257618
0.00752314
0.00112585
0.00754063
0.000981114
0.00755186
-0.000571966
0.00755602
-0.00111569
0.00755097
-0.00245285
0.00753943
-0.00299285
0.00752133
-0.00389578
0.00749945
-0.00418254
0.00747451
-0.00451814
0.00744893
-0.0044141
0.0074237
-0.00425753
0.00740065
-0.00389567
0.0073807
-0.00345266
0.00736462
-0.00307229
0.00735265
-0.00259802
0.00734394
-0.00242944
0.00733789
-0.00208749
0.00733233
-0.00221293
0.00732705
-0.00195116
0.00731904
-0.00236325
0.00731005
-0.00205567
0.0072955
-0.00266307
0.00728053
-0.00214263
0.00725608
-0.00286966
0.0072336
-0.00198583
0.00719378
-0.00266111
0.00716154
-0.0012261
0.0070964
-0.00136397
0.00202924
0.00749289
-0.0245155
0.00744539
-0.020446
0.00742606
-0.0169981
0.00741918
-0.0141733
0.00741373
-0.0109206
0.00739882
-0.00696392
0.00736953
-0.0021945
0.00732643
0.00277722
0.00727423
0.00738126
0.00722171
0.0110971
0.00718013
0.0135245
0.00716157
0.0144172
0.00717026
0.0136895
0.00719695
0.0118945
0.00722559
0.00988365
0.00724784
0.00837433
0.00726429
0.0072968
0.0072785
0.00657375
0.00729168
0.00588455
0.0073046
0.00537172
0.00731659
0.004793
0.00732813
0.00440051
0.00733825
0.00385161
0.00734794
0.00357419
0.00735581
0.0030311
0.00736338
0.00285
0.00736879
0.00228499
0.00737425
0.00221436
0.00737707
0.00157786
0.00738061
0.00167461
0.00738091
0.000919839
0.00738283
0.00120916
0.00738058
0.000270956
0.00738121
0.000840689
0.00737628
-0.000354171
0.00737583
0.000581077
0.00736776
-0.000990925
0.00736636
0.000460268
0.00735393
-0.00163835
0.00735013
0.000513753
0.00733095
-0.00205025
0.00732511
0.00130017
0.00730351
-0.00137831
0.00730603
0.00356753
0.00729783
0.00074747
0.00732736
0.00654109
0.00734955
0.00192608
0.00740552
0.00530223
0.00742924
-0.00294087
0.00747621
-0.00425595
0.00751029
-0.0135199
0.00756973
-0.0355194
0.00760905
-0.0631285
0.00773067
0.0153792
0.00780301
0.0475316
0.00784752
0.0296206
0.00782323
0.00830675
0.00778839
0.0035699
0.00772095
-0.0062291
0.00765397
-0.00366085
0.0075869
-0.00612327
0.00754301
-0.00110839
0.00751341
-0.00252333
0.00749943
0.000993126
0.00748954
-0.000417983
0.00748489
0.00221651
0.00748232
0.00118866
0.00748618
0.00298342
0.00749516
0.00183558
0.00751077
0.00256057
0.00752787
0.00110875
0.00754435
0.00096464
0.00755406
-0.000581677
0.00755698
-0.00111861
0.00755092
-0.00244679
0.00753878
-0.0029807
0.00752029
-0.00387729
0.00749825
-0.00416051
0.00747332
-0.00449321
0.00744791
-0.00438869
0.00742301
-0.00423263
0.00740041
-0.00387307
0.007381
-0.00343325
0.00736546
-0.00305675
0.00735397
-0.00258654
0.00734562
-0.00242109
0.00733978
-0.00208165
0.00733427
-0.00220742
0.00732897
-0.00194585
0.00732084
-0.00235512
0.00731175
-0.00204658
0.00729707
-0.00264839
0.00728203
-0.00212758
0.00725751
-0.00284514
0.00723503
-0.00196335
0.00719531
-0.00262139
0.00716316
-0.00119396
0.00709871
-0.00129952
0.0020717
0.00749259
-0.0244323
0.00744445
-0.0203978
0.00742421
-0.0169779
0.00741634
-0.0141654
0.00741004
-0.0109143
0.00739457
-0.00694845
0.00736517
-0.00216511
0.00732245
0.00281995
0.00727111
0.00743259
0.00721993
0.0111482
0.00718008
0.0135644
0.00716333
0.0144339
0.00717339
0.0136794
0.00720067
0.0118672
0.00722935
0.00985497
0.00725153
0.00835215
0.00726801
0.00728032
0.0072823
0.00655946
0.00729557
0.00587127
0.00730857
0.00535873
0.00732061
0.00478096
0.00733221
0.00438891
0.00734237
0.00384146
0.00735208
0.00356448
0.00735998
0.0030232
0.00736758
0.00284241
0.00737301
0.00227957
0.00737848
0.00220889
0.00738132
0.00157502
0.00738487
0.00167106
0.00738518
0.000919531
0.0073871
0.00120725
0.00738486
0.000273196
0.00738547
0.000840074
0.00738053
-0.000349232
0.00738007
0.000581543
0.00737199
-0.000982845
0.00737055
0.000461707
0.0073581
-0.00162589
0.00735426
0.00051759
0.00733511
-0.0020311
0.00732935
0.00130594
0.00730797
-0.00135694
0.00731079
0.00356472
0.00730302
0.00075524
0.00733289
0.00651121
0.00735516
0.00190382
0.00741065
0.00524674
0.00743363
-0.00296386
0.00747991
-0.00430223
0.00751333
-0.0135534
0.00757047
-0.0355765
0.00760626
-0.0631643
0.00772791
0.0152576
0.00780238
0.0474571
0.00784709
0.0295759
0.00782157
0.00833227
0.00778494
0.00360653
0.00771556
-0.00615972
0.00764782
-0.0035931
0.00758094
-0.0060564
0.00753872
-0.00106617
0.00751044
-0.00249505
0.00749818
0.00100539
0.0074891
-0.000408907
0.00748597
0.00221964
0.00748443
0.0011902
0.0074899
0.00297795
0.00749967
0.00182581
0.00751578
0.00254446
0.00753225
0.00109228
0.00754774
0.000949152
0.00755608
-0.000590013
0.00755791
-0.00112044
0.00755097
-0.00243985
0.0075383
-0.00296803
0.00751947
-0.00385847
0.00749731
-0.00413835
0.0074724
-0.00446829
0.00744717
-0.00436346
0.00742258
-0.00420804
0.00740042
-0.00385091
0.00738151
-0.00341434
0.00736647
-0.00304171
0.00735543
-0.0025755
0.00734739
-0.00241304
0.00734173
-0.002076
0.00733626
-0.00220195
0.00733092
-0.00194051
0.00732269
-0.00234688
0.0073135
-0.00203739
0.0072987
-0.0026336
0.0072836
-0.00211248
0.00725904
-0.00282058
0.00723657
-0.00194088
0.00719696
-0.00258177
0.00716492
-0.00116192
0.00710119
-0.00123579
0.00211332
0.00749229
-0.0243489
0.00744353
-0.0203491
0.00742238
-0.0169567
0.00741355
-0.0141566
0.0074064
-0.0109072
0.00739039
-0.00693243
0.0073609
-0.00213561
0.00731855
0.00286229
0.00726809
0.00748306
0.00721824
0.0111981
0.0071801
0.0136025
0.00716513
0.0144489
0.00717653
0.013668
0.00720438
0.0118394
0.00723309
0.00982627
0.00725521
0.00833003
0.00727171
0.00726382
0.00728609
0.00654508
0.00729946
0.0058579
0.00731254
0.00534565
0.00732464
0.00476886
0.00733628
0.00437727
0.00734648
0.00383126
0.00735623
0.00355473
0.00736416
0.00301527
0.00737178
0.00283478
0.00737723
0.00227411
0.00738273
0.00220339
0.00738558
0.00157217
0.00738914
0.0016675
0.00738946
0.000919213
0.00739138
0.00120533
0.00738914
0.000275433
0.00738975
0.000839465
0.00738481
-0.00034429
0.00738433
0.000582025
0.00737624
-0.000974756
0.00737477
0.000463176
0.00736229
-0.00161342
0.00735842
0.000521459
0.00733931
-0.00201198
0.00733362
0.00131162
0.00731248
-0.00133579
0.00731558
0.00356162
0.00730822
0.000762597
0.00733842
0.00648101
0.00736073
0.00188151
0.00741574
0.00519173
0.00743802
-0.00298613
0.00748362
-0.00434783
0.00751638
-0.0135861
0.00757121
-0.0356313
0.00760344
-0.0631965
0.00772505
0.015136
0.00780158
0.0473806
0.00784652
0.0295309
0.00781987
0.00835892
0.00778155
0.00364484
0.00771038
-0.00608855
0.00764202
-0.00352474
0.00757548
-0.00598986
0.00753498
-0.00102567
0.007508
-0.00246806
0.00749736
0.00101602
0.00748905
-0.00040059
0.00748731
0.00222137
0.00748672
0.00119079
0.00749362
0.00297105
0.00750403
0.0018154
0.0075205
0.00252799
0.00753631
0.00107647
0.00755086
0.000934602
0.00755796
-0.000597111
0.00755882
-0.0011213
0.00755112
-0.00243215
0.00753798
-0.00295489
0.00751888
-0.00383937
0.00749662
-0.00411609
0.00747173
-0.00444341
0.00744668
-0.00433841
0.00742241
-0.00418377
0.00740066
-0.00382916
0.00738222
-0.0033959
0.00736764
-0.00302714
0.00735701
-0.00256486
0.00734924
-0.00240528
0.00734374
-0.0020705
0.0073383
-0.00219651
0.00733292
-0.00193513
0.00732457
-0.00233854
0.00731529
-0.00202811
0.00730039
-0.0026187
0.00728524
-0.00209732
0.00726065
-0.00279599
0.00723821
-0.00191845
0.00719872
-0.00254229
0.00716681
-0.00113001
0.00710381
-0.0011728
0.00215412
0.00749201
-0.0242651
0.00744263
-0.0202997
0.00742058
-0.0169347
0.0074108
-0.0141468
0.00740283
-0.0108992
0.00738628
-0.00691589
0.0073567
-0.00210603
0.00731475
0.00290425
0.00726515
0.00753266
0.00721663
0.0112466
0.00718018
0.0136389
0.00716697
0.0144621
0.00717967
0.0136553
0.00720806
0.011811
0.0072368
0.00979753
0.00725886
0.00830797
0.0072754
0.00724728
0.00728988
0.0065306
0.00730334
0.00584444
0.00731649
0.0053325
0.00732865
0.0047567
0.00734035
0.00436557
0.00735059
0.00382102
0.00736037
0.00354495
0.00736833
0.00300731
0.00737598
0.00282714
0.00738146
0.00226864
0.00738697
0.00219788
0.00738984
0.00156929
0.00739341
0.00166393
0.00739375
0.000918882
0.00739567
0.0012034
0.00739344
0.000277664
0.00739404
0.000838861
0.0073891
-0.000339347
0.0073886
0.000582519
0.00738051
-0.000966659
0.00737901
0.000464672
0.00736652
-0.00160092
0.00736262
0.000525355
0.00734354
-0.0019929
0.00733794
0.00131721
0.00731702
-0.00131487
0.0073204
0.00355824
0.00731344
0.000769559
0.00734394
0.00645051
0.00736627
0.00185918
0.0074208
0.0051372
0.0074424
-0.00300773
0.00748734
-0.00439277
0.00751945
-0.0136182
0.00757195
-0.0356838
0.00760058
-0.0632251
0.00772208
0.0150145
0.00780064
0.047302
0.00784584
0.0294857
0.00781812
0.00838664
0.00777823
0.00368473
0.0077054
-0.00601571
0.00763657
-0.00345592
0.0075705
-0.00592379
0.00753177
-0.000986941
0.00750605
-0.00244235
0.00749694
0.00102513
0.00748932
-0.00039297
0.00748886
0.00222183
0.00748914
0.00119052
0.0074973
0.00296289
0.00750823
0.00180447
0.00752493
0.00251129
0.00754008
0.00106132
0.00755375
0.000920937
0.00755973
-0.000603098
0.00755974
-0.00112131
0.00755138
-0.00242378
0.00753784
-0.00294135
0.00751849
-0.00382002
0.00749614
-0.00409374
0.0074713
-0.00441857
0.00744644
-0.00431355
0.00742246
-0.00415979
0.0074011
-0.00380781
0.00738311
-0.0033779
0.00736896
-0.00301299
0.00735869
-0.00255458
0.00735117
-0.00239776
0.0073458
-0.00206513
0.00734037
-0.00219109
0.00733495
-0.0019297
0.0073265
-0.0023301
0.00731714
-0.00201874
0.00730215
-0.00260371
0.00728695
-0.00208213
0.00726234
-0.00277138
0.00723994
-0.00189605
0.0072006
-0.00250295
0.00716883
-0.00109823
0.00710658
-0.00111054
0.00219409
0.00749172
-0.0241811
0.00744174
-0.0202497
0.00741882
-0.0169118
0.0074081
-0.0141361
0.00739931
-0.0108904
0.00738225
-0.00689883
0.00735259
-0.00207637
0.00731102
0.00294582
0.00726229
0.00758139
0.00721509
0.0112938
0.00718033
0.0136737
0.00716884
0.0144736
0.0071828
0.0136414
0.00721172
0.011782
0.00724048
0.00976876
0.0072625
0.00828595
0.00727908
0.00723069
0.00729366
0.00651603
0.00730721
0.00583088
0.00732044
0.00531927