/*--------------------------------*- C++ -*----------------------------------*\
| =========                 |                                                 |
| \\      /  F ield         | OpenFOAM: The Open Source CFD Toolbox           |
|  \\    /   O peration     | Version:  2412                                  |
|   \\  /    A nd           | Website:  www.openfoam.com                      |
|    \\/     M anipulation  |                                                 |
\*---------------------------------------------------------------------------*/
FoamFile
{
    version     2.0;
    format      ascii;
    arch        "LSB;label=32;scalar=64";
    class       volVectorField;
    location    "0.6";
    object      U;
}
// * * * * * * * * * * * * * * * * * * * * * * * * * * * * * * * * * * * * * //

dimensions      [0 1 -1 0 0 0 0];

internalField   nonuniform List<vector> 
13079
(
(100.035 1.83945 0)
(100.688 4.99231 -8.24646e-17)
(101.864 7.77901 -1.09218e-20)
(103.43 10.1179 0)
(105.085 12.6721 0)
(106.755 15.6249 0)
(108.175 19.029 0)
(109.391 22.5343 0)
(110.358 25.7891 -8.66341e-17)
(111.222 28.4952 9.36103e-17)
(112.108 30.4387 0)
(113.245 31.5038 0)
(114.902 31.647 0)
(117.159 31.1498 9.57121e-17)
(119.855 30.4791 0)
(122.612 30.0875 0)
(125.392 29.9938 -7.04148e-17)
(128.148 30.152 -6.59367e-17)
(131.068 30.3831 -2.77064e-21)
(134.031 30.7484 -6.06243e-17)
(137.229 31.1131 0)
(140.445 31.6214 -5.67906e-17)
(143.956 32.0866 5.5052e-17)
(147.444 32.7289 0)
(151.313 33.2785 0)
(155.097 34.0634 0)
(159.39 34.6894 4.79698e-17)
(163.504 35.6391 -4.60467e-17)
(168.314 36.3374 -3.06799e-21)
(172.8 37.4864 0)
(178.248 38.2541 0)
(183.154 39.6517 0)
(189.409 40.4821 0)
(194.789 42.1913 0)
(202.075 43.0741 3.42939e-17)
(207.976 45.1766 -3.186e-17)
(216.594 46.1013 -3.0893e-17)
(223.06 48.6951 -2.81399e-17)
(233.42 49.6626 2.74219e-17)
(240.462 52.8895 -2.41288e-17)
(253.059 54.0328 0)
(260.623 58.234 -1.97939e-17)
(276.228 59.9902 -2.00974e-17)
(284.596 65.5705 -3.10258e-17)
(304.779 68.3163 3.43511e-17)
(315.043 75.017 0)
(342.455 78.2923 -1.52432e-17)
(356.733 84.3164 0)
(394.077 87.2949 0)
(412.428 91.0721 0)
(461.194 96.1869 -6.38208e-18)
(488.739 88.2633 0)
(556.898 93.4998 0)
(610.945 1.82325 0)
(566.647 -46.0513 3.80709e-18)
(549.913 -59.1263 0)
(509.982 -67.4315 7.92826e-21)
(492.153 -68.021 -1.49699e-17)
(458.733 -69.8624 5.76459e-21)
(441.135 -65.7075 -5.95154e-18)
(412.585 -63.2626 -1.98576e-17)
(396.59 -57.6186 0)
(373.977 -55.224 0)
(360.869 -50.9748 -2.16277e-20)
(343.328 -49.3474 6.66525e-17)
(332.068 -46.0102 7.00175e-17)
(317.691 -44.6081 -1.00018e-16)
(307.493 -41.9657 -1.08557e-16)
(295.555 -40.944 1.34864e-16)
(286.751 -39.176 -1.43856e-16)
(277.358 -38.723 1.60886e-16)
(270.297 -37.7895 9.21834e-21)
(262.95 -37.7633 0)
(256.811 -37.2842 0)
(250.104 -37.2592 1.3985e-16)
(243.85 -36.7724 1.22563e-16)
(237.151 -36.4551 -1.08244e-16)
(100.034 1.82128 0)
(100.679 4.94624 8.25113e-17)
(101.842 7.7089 -1.53922e-16)
(103.391 10.0343 0)
(105.03 12.5839 0)
(106.685 15.5406 0)
(108.099 18.9543 0)
(109.313 22.4704 0)
(110.288 25.7348 -8.65297e-17)
(111.166 28.4462 0)
(112.077 30.3889 0)
(113.247 31.4448 0)
(114.938 31.5727 0)
(117.22 31.0612 0)
(119.924 30.3842 0)
(122.68 29.993 0)
(125.459 29.9011 2.87606e-21)
(128.216 30.0591 6.55853e-17)
(131.139 30.289 -6.26532e-17)
(134.105 30.6523 0)
(137.305 31.0152 -5.84588e-17)
(140.524 31.5214 5.65777e-17)
(144.037 31.9848 0)
(147.527 32.6247 -5.30069e-17)
(151.398 33.1726 0)
(155.185 33.9548 0)
(159.481 34.579 -2.94239e-21)
(163.597 35.5254 4.59232e-17)
(168.409 36.2216 -4.43736e-17)
(172.897 37.3666 0)
(178.348 38.1322 4.09456e-17)
(183.257 39.5247 0)
(189.515 40.3529 0)
(194.897 42.0558 0)
(202.186 42.9365 -3.2077e-21)
(208.09 45.0311 3.1724e-17)
(216.71 45.9538 0)
(223.179 48.5378 0)
(233.54 49.5037 2.72585e-17)
(240.586 52.719 -2.39602e-17)
(253.183 53.8619 2.35552e-17)
(260.755 58.0495 1.96238e-17)
(276.366 59.8048 2.65495e-21)
(284.76 65.3676 7.53825e-21)
(304.962 68.1082 -1.6981e-17)
(315.28 74.7859 1.13471e-17)
(342.717 78.0459 0)
(357.041 84.0404 6.44737e-18)
(394.336 86.9938 0)
(412.672 90.7351 -6.56499e-19)
(461.37 95.801 6.27747e-18)
(488.925 87.8277 8.01606e-18)
(556.809 92.9158 -1.5691e-18)
(610.672 1.78577 0)
(566.709 -45.798 -2.5108e-20)
(550.052 -58.8756 -1.86991e-17)
(510.031 -67.1568 7.734e-21)
(492.031 -67.7293 0)
(458.416 -69.5414 -1.78719e-17)
(440.666 -65.3682 0)
(412.039 -62.9215 0)
(396.045 -57.2916 -9.60373e-18)
(373.488 -54.9257 0)
(360.453 -50.7002 -3.49221e-17)
(342.99 -49.1001 -6.44478e-17)
(331.803 -45.7779 0)
(317.509 -44.3989 4.39124e-21)
(307.407 -41.7738 1.03408e-16)
(295.586 -40.7822 1.27478e-16)
(286.901 -39.0399 -1.34925e-16)
(277.604 -38.6162 -2.98814e-16)
(270.583 -37.6972 1.50009e-16)
(263.205 -37.6741 1.49553e-16)
(256.977 -37.1817 -1.38106e-16)
(250.159 -37.1382 8.67845e-21)
(243.812 -36.634 -1.09296e-16)
(237.052 -36.3051 9.70849e-17)
(100.033 1.80337 0)
(100.67 4.90071 -8.25818e-17)
(101.821 7.63961 7.70137e-17)
(103.353 9.95173 0)
(104.976 12.4966 0)
(106.617 15.4571 0)
(108.023 18.88 0)
(109.237 22.4067 0)
(110.219 25.6803 8.64298e-17)
(111.113 28.3967 9.33312e-17)
(112.048 30.3382 0)
(113.249 31.3847 0)
(114.975 31.4974 -1.01422e-16)
(117.28 30.9719 0)
(119.993 30.289 -8.51881e-17)
(122.747 29.8984 7.61643e-17)
(125.525 29.8082 6.96141e-17)
(128.284 29.9661 0)
(131.21 30.1947 -6.23757e-17)
(134.179 30.556 0)
(137.382 30.9172 5.82485e-17)
(140.603 31.4212 -1.12776e-16)
(144.119 31.8829 0)
(147.61 32.5205 5.28537e-17)
(151.484 33.0666 -5.11931e-17)
(155.273 33.846 4.93247e-17)
(159.571 34.4684 -4.77156e-17)
(163.69 35.4115 0)
(168.505 36.1058 0)
(172.995 37.2467 0)
(178.449 38.0102 -4.08359e-17)
(183.361 39.3977 0)
(189.621 40.2238 -3.74361e-17)
(195.006 41.9203 0)
(202.297 42.7988 -3.4034e-17)
(208.204 44.8856 -3.15854e-17)
(216.827 45.8063 3.06038e-17)
(223.299 48.3806 2.78371e-17)
(233.662 49.345 -2.71111e-17)
(240.711 52.5488 2.38145e-17)
(253.309 53.6913 -2.33993e-17)
(260.89 57.8652 -1.94777e-17)
(276.506 59.6196 2.57957e-21)
(284.927 65.1647 3.03975e-17)
(305.147 67.8999 1.67939e-17)
(315.518 74.5541 -1.12001e-17)
(342.98 77.7987 0)
(357.346 83.7634 -1.26482e-17)
(394.593 86.6922 1.1395e-17)
(412.914 90.3983 1.30118e-18)
(461.548 95.4158 0)
(489.113 87.3935 -7.93184e-18)
(556.72 92.334 1.56304e-18)
(610.391 1.74778 1.13269e-18)
(566.753 -45.5442 -1.8239e-18)
(550.172 -58.6221 3.67982e-17)
(510.066 -66.8787 7.57881e-21)
(491.902 -67.4347 -1.43939e-17)
(458.102 -69.219 8.76062e-18)
(440.207 -65.0293 -5.74056e-18)
(411.51 -62.5828 1.90406e-17)
(395.524 -56.9689 9.38054e-18)
(373.03 -54.6329 -3.71036e-17)
(360.072 -50.4317 0)
(342.689 -48.859 0)
(331.574 -45.5521 6.44645e-17)
(317.364 -44.196 9.10238e-17)
(307.358 -41.5889 0)
(295.651 -40.6267 -1.19559e-16)
(287.076 -38.9093 1.34553e-20)
(277.861 -38.5117 2.75336e-16)
(270.865 -37.6042 0)
(263.442 -37.5808 -1.34854e-16)
(257.121 -37.0744 1.23467e-16)
(250.2 -37.0135 -1.11105e-16)
(243.772 -36.494 0)
(236.961 -36.1553 0)
(100.032 1.78571 0)
(100.661 4.8557 0)
(101.8 7.57109 0)
(103.315 9.87005 0)
(104.923 12.4102 0)
(106.551 15.3743 0)
(107.949 18.8063 0)
(109.162 22.3432 0)
(110.152 25.6258 0)
(111.062 28.3468 -9.31955e-17)
(112.021 30.2868 -9.92659e-17)
(113.254 31.3236 0)
(115.013 31.4209 1.01046e-16)
(117.341 30.8819 9.42971e-17)
(120.061 30.1935 2.86628e-21)
(122.814 29.8036 -2.96252e-21)
(125.591 29.7151 0)
(128.352 29.8728 6.49672e-17)
(131.28 30.1002 1.24254e-16)
(134.252 30.4595 5.98988e-17)
(137.458 30.819 0)
(140.681 31.3208 1.12428e-16)
(144.2 31.7809 5.45312e-17)
(147.694 32.416 0)
(151.57 32.9604 5.10651e-17)
(155.361 33.7371 -4.92065e-17)
(159.662 34.3577 4.7599e-17)
(163.783 35.2975 0)
(168.601 35.9899 0)
(173.094 37.1267 -4.21782e-17)
(178.55 37.8882 0)
(183.464 39.2707 0)
(189.728 40.0945 3.73284e-17)
(195.116 41.7848 0)
(202.41 42.6612 -3.39112e-17)
(208.32 44.7401 3.14656e-17)
(216.945 45.6589 -3.04766e-17)
(223.421 48.2235 -5.54094e-17)
(233.785 49.1865 -2.69665e-17)
(240.838 52.3788 0)
(253.436 53.5209 2.32471e-17)
(261.027 57.6813 1.93266e-17)
(276.65 59.4346 1.9605e-17)
(285.096 64.9619 -3.01106e-17)
(305.335 67.6914 -2.56581e-21)
(315.757 74.3218 0)
(343.241 77.5508 0)
(357.649 83.4855 6.20794e-18)
(394.847 86.3903 -2.23566e-17)
(413.156 90.0614 -6.45311e-19)
(461.728 95.031 0)
(489.303 86.9607 0)
(556.63 91.7545 -1.55946e-18)
(610.103 1.70933 -1.12772e-18)
(566.782 -45.2899 0)
(550.275 -58.3661 -1.81194e-17)
(510.088 -66.5975 -1.99172e-18)
(491.766 -67.1378 -3.6468e-21)
(457.789 -68.8952 0)
(439.758 -64.6908 5.62315e-18)
(411 -62.2464 -1.86099e-17)
(395.028 -56.6504 -9.11341e-18)
(372.603 -54.3453 -6.78237e-22)
(359.724 -50.1695 3.25195e-17)
(342.423 -48.6238 0)
(331.379 -45.3325 -6.13058e-17)
(317.253 -43.9991 0)
(307.342 -41.4104 0)
(295.745 -40.4768 0)
(287.271 -38.783 2.31964e-16)
(278.124 -38.4084 -1.25957e-16)
(271.136 -37.5094 0)
(263.659 -37.4833 -1.21058e-16)
(257.246 -36.9626 1.10156e-16)
(250.231 -36.8855 9.90855e-17)
(243.732 -36.3529 8.75232e-17)
(236.877 -36.0059 -7.89934e-17)
(100.031 1.7683 0)
(100.653 4.81123 0)
(101.78 7.50336 0)
(103.278 9.78927 0)
(104.871 12.3247 0)
(106.485 15.2923 7.16097e-17)
(107.876 18.7331 0)
(109.089 22.2799 0)
(110.086 25.5711 0)
(111.012 28.2964 -9.30561e-17)
(111.995 30.2344 1.98145e-16)
(113.26 31.2614 1.02246e-16)
(115.051 31.3435 -1.00681e-16)
(117.402 30.7912 -9.38805e-17)
(120.128 30.0977 8.43141e-17)
(122.88 29.7087 -7.53732e-17)
(125.657 29.6219 0)
(128.419 29.7794 -2.71972e-21)
(131.351 30.0055 -6.19014e-17)
(134.325 30.3629 -2.74556e-21)
(137.534 30.7206 0)
(140.76 31.2203 -5.60568e-17)
(144.281 31.6787 -2.64432e-21)
(147.777 32.3115 0)
(151.656 32.8541 0)
(155.449 33.6281 4.90915e-17)
(159.753 34.2468 -4.74969e-17)
(163.877 35.1834 0)
(168.697 35.8739 0)
(173.193 37.0067 4.20841e-17)
(178.652 37.7661 -4.06293e-17)
(183.569 39.1435 -3.85554e-17)
(189.835 39.9652 -3.72216e-17)
(195.226 41.6493 -3.49915e-17)
(202.523 42.5235 3.06455e-21)
(208.436 44.5947 3.13426e-17)
(217.064 45.5116 0)
(223.543 48.0666 2.75802e-17)
(233.91 49.028 2.68366e-17)
(240.967 52.209 0)
(253.566 53.3507 -2.81879e-21)
(261.166 57.4975 -1.91979e-17)
(276.795 59.2497 1.94571e-17)
(285.268 64.759 1.49238e-17)
(305.525 67.4826 -2.44768e-21)
(315.997 74.0888 -1.09054e-17)
(343.502 77.302 0)
(357.948 83.2067 6.08076e-18)
(395.098 86.0881 1.09754e-17)
(413.397 89.7245 0)
(461.909 94.6468 0)
(489.493 86.5293 0)
(556.541 91.1772 1.55441e-18)
(609.807 1.6705 -1.11596e-18)
(566.796 -45.0352 0)
(550.362 -58.1077 0)
(510.098 -66.3134 0)
(491.625 -66.8385 2.77368e-17)
(457.479 -68.5702 8.4373e-18)
(439.318 -64.3531 0)
(410.507 -61.9125 0)
(394.557 -56.3365 1.77097e-17)
(372.207 -54.0633 3.47167e-17)
(359.41 -49.9135 -3.11871e-17)
(342.191 -48.3945 0)
(331.218 -45.1192 0)
(317.175 -43.8079 0)
(307.355 -41.238 0)
(295.863 -40.3316 0)
(287.48 -38.66 -8.70581e-21)
(278.386 -38.3053 1.14557e-16)
(271.394 -37.4123 0)
(263.856 -37.3813 -7.83895e-21)
(257.354 -36.8468 3.97629e-21)
(250.254 -36.7549 8.72056e-21)
(243.694 -36.2111 -7.87266e-17)
(236.802 -35.8572 7.17136e-17)
(230.364 -35.1451 0)
(223.851 -34.4687 6.36402e-17)
(217.779 -33.5542 4.55011e-21)
(211.779 -32.6097 4.62806e-21)
(206.23 -31.5879 1.23242e-16)
(200.832 -30.531 1.23521e-16)
(195.907 -29.5779 6.17194e-17)
(191.145 -28.585 6.13e-17)
(186.867 -27.8615 1.2116e-16)
(182.667 -27.0283 5.94768e-17)
(178.934 -26.5917 -5.83808e-17)
(175.092 -25.8798 1.4145e-21)
(171.737 -25.6859 5.61207e-17)
(168.026 -24.9679 -1.10001e-16)
(164.956 -24.9519 -5.43877e-17)
(161.185 -24.0854 6.11177e-22)
(158.426 -24.2052 -5.31161e-17)
(154.362 -23.0445 -1.04111e-16)
(152.066 -23.232 5.18668e-17)
(147.286 -21.5996 5.03108e-17)
(145.795 -21.6013 -5.04222e-17)
(139.446 -18.4236 -4.9316e-17)
(100.03 1.75112 8.81028e-17)
(100.645 4.76726 0)
(101.76 7.43639 7.71418e-17)
(103.242 9.70937 0)
(104.82 12.2401 -7.0945e-17)
(106.42 15.211 -7.15864e-17)
(107.805 18.6603 0)
(109.017 22.2168 0)
(110.023 25.5162 0)
(110.964 28.2454 9.29223e-17)
(111.971 30.1813 -1.9776e-16)
(113.267 31.1981 -1.01977e-16)
(115.09 31.2651 2.11289e-21)
(117.463 30.6999 -9.34806e-17)
(120.195 30.0017 0)
(122.946 29.6137 0)
(125.722 29.5286 0)
(128.487 29.6858 -2.68212e-21)
(131.421 29.9106 0)
(134.399 30.266 -5.95229e-17)
(137.61 30.6221 5.77155e-17)
(140.839 31.1197 5.59094e-17)
(144.362 31.5763 -2.61535e-21)
(147.861 32.2068 5.2457e-17)
(151.742 32.7477 0)
(155.538 33.5189 -9.79807e-17)
(159.845 34.1359 -4.73973e-17)
(163.97 35.0691 0)
(168.794 35.7577 0)
(173.292 36.8866 -4.19889e-17)
(178.754 37.6439 2.95076e-21)
(183.674 39.0164 3.8465e-17)
(189.943 39.8359 3.71275e-17)
(195.337 41.5137 6.97843e-17)
(202.637 42.3859 3.36965e-17)
(208.553 44.4493 -3.12373e-17)
(217.184 45.3642 0)
(223.667 47.9096 -2.74546e-17)
(234.036 48.8697 -2.67086e-17)
(241.097 52.0394 0)
(253.698 53.1808 -2.2978e-17)
(261.307 57.3139 0)
(276.943 59.0649 -1.93229e-17)
(285.442 64.5561 0)
(305.717 67.2736 -3.26095e-17)
(316.238 73.8553 2.15572e-17)
(343.763 77.0526 0)
(358.245 82.927 -5.98392e-18)
(395.348 85.7856 1.07724e-17)
(413.638 89.3878 0)
(462.092 94.2631 0)
(489.684 86.0992 0)
(556.451 90.6023 1.55222e-18)
(609.504 1.63133 1.11219e-18)
(566.796 -44.7801 0)
(550.433 -57.8471 0)
(510.097 -66.0266 0)
(491.479 -66.537 -1.36242e-17)
(457.173 -68.2442 -8.2744e-18)
(438.889 -64.0161 5.40978e-18)
(410.034 -61.5813 0)
(394.112 -56.0273 -1.71527e-17)
(371.844 -53.7869 0)
(359.13 -49.6637 0)
(341.993 -48.1708 -5.32971e-17)
(331.089 -44.9117 0)
(317.127 -43.6221 -7.50714e-17)
(307.395 -41.071 0)
(296 -40.1902 9.44892e-17)
(287.696 -38.5393 -6.55364e-21)
(278.643 -38.2014 -1.03686e-16)
(271.635 -37.3123 0)
(264.033 -37.275 9.68344e-17)
(257.447 -36.7274 -8.77015e-17)
(250.271 -36.6222 8.45987e-21)
(243.659 -36.0689 0)
(236.735 -35.7092 -6.54358e-17)
(230.281 -34.9951 0)
(223.762 -34.3188 5.90583e-17)
(217.693 -33.407 -5.79566e-17)
(211.701 -32.4666 -5.77767e-17)
(206.167 -31.4509 -1.15858e-16)
(200.789 -30.4013 -5.81687e-17)
(195.886 -29.4562 -5.82243e-17)
(191.145 -28.4716 0)
(186.885 -27.7557 -5.7354e-17)
(182.697 -26.9288 0)
(178.972 -26.4961 5.55925e-17)
(175.131 -25.787 -5.45548e-17)
(171.775 -25.5933 5.38298e-17)
(168.059 -24.8761 5.29351e-17)
(164.986 -24.8577 5.25286e-17)
(161.209 -23.992 5.17597e-17)
(158.448 -24.1068 5.16057e-17)
(154.38 -22.9489 5.06937e-17)
(152.082 -23.1258 -5.06358e-17)
(147.304 -21.5012 -4.92088e-17)
(145.808 -21.4799 4.94301e-17)
(139.49 -18.3234 4.83958e-17)
(100.029 1.73417 -8.81539e-17)
(100.636 4.7238 -8.27956e-17)
(101.74 7.37018 -7.71974e-17)
(103.206 9.63035 0)
(104.769 12.1563 7.09472e-17)
(106.357 15.1305 0)
(107.734 18.588 -7.471e-17)
(108.947 22.1538 0)
(109.96 25.4612 0)
(110.917 28.194 0)
(111.949 30.1272 9.86905e-17)
(113.276 31.1338 -1.0171e-16)
(115.13 31.1858 2.10687e-21)
(117.523 30.608 9.31063e-17)
(120.262 29.9054 0)
(123.011 29.5186 0)
(125.787 29.4352 0)
(128.554 29.5921 -1.28474e-16)
(131.492 29.8156 6.15051e-17)
(134.472 30.169 0)
(137.686 30.5234 -1.15142e-16)
(140.917 31.0189 -5.57807e-17)
(144.443 31.4738 -5.41404e-17)
(147.944 32.1019 -5.23506e-17)
(151.829 32.6411 0)
(155.626 33.4096 4.88974e-17)
(159.936 34.0248 2.77083e-21)
(164.064 34.9548 0)
(168.891 35.6415 4.38775e-17)
(173.391 36.7663 8.38116e-17)
(178.857 37.5216 4.04549e-17)
(183.779 38.8891 0)
(190.052 39.7065 -3.70335e-17)
(195.448 41.3781 -6.95933e-17)
(202.751 42.2482 0)
(208.671 44.3039 0)
(217.305 45.2169 3.01284e-17)
(223.792 47.7527 5.46899e-17)
(234.162 48.7115 2.65943e-17)
(241.229 51.8699 2.3284e-17)
(253.831 53.0109 2.28518e-17)
(261.451 57.1305 -1.8944e-17)
(277.093 58.8802 0)
(285.618 64.3531 0)
(305.91 67.0642 1.61614e-17)
(316.479 73.6211 -1.06591e-17)
(344.023 76.8024 0)
(358.539 82.6465 5.87028e-18)
(395.595 85.4828 -1.05993e-17)
(413.879 89.0511 0)
(462.276 93.8799 0)
(489.877 85.6706 7.65161e-18)
(556.361 90.0297 -1.54804e-18)
(609.195 1.5919 -1.1017e-18)
(566.781 -44.5248 0)
(550.489 -57.5844 1.73792e-17)
(510.086 -65.7372 1.9252e-18)
(491.33 -66.2337 0)
(456.872 -67.9174 0)
(438.472 -63.6803 -1.05912e-17)
(409.582 -61.253 -1.72521e-17)
(393.694 -55.723 1.09177e-20)
(371.514 -53.5162 0)
(358.883 -49.42 2.8233e-17)
(341.828 -47.9525 -3.72447e-21)
(330.99 -44.7098 0)
(317.106 -43.441 6.95429e-17)
(307.457 -40.9087 0)
(296.152 -40.0521 4.34172e-21)
(287.916 -38.4202 -8.81734e-17)
(278.89 -38.0962 -9.35398e-17)
(271.859 -37.2091 9.01572e-17)
(264.192 -37.1647 -8.65778e-17)
(257.528 -36.6049 7.849e-17)
(250.285 -36.4879 -7.14504e-17)
(243.627 -35.9266 -6.45982e-17)
(236.676 -35.562 5.9998e-17)
(230.21 -34.8465 0)
(223.686 -34.1708 -1.101e-16)
(217.62 -33.2617 -5.43294e-17)
(211.637 -32.3257 0)
(206.117 -31.3161 -3.84522e-21)
(200.756 -30.2736 5.49882e-17)
(195.873 -29.3364 5.51181e-17)
(191.151 -28.3599 5.49223e-17)
(186.909 -27.651 -5.45063e-17)
(182.731 -26.83 5.37906e-17)
(179.012 -26.4009 0)
(175.172 -25.6944 0)
(171.814 -25.5008 -5.17958e-17)
(168.094 -24.7843 5.1102e-17)
(165.017 -24.7636 -5.08793e-17)
(161.235 -23.8988 0)
(158.471 -24.0087 -5.02603e-17)
(154.4 -22.8536 -4.94698e-17)
(152.101 -23.0202 0)
(147.325 -21.4033 0)
(145.825 -21.3594 0)
(139.538 -18.2244 0)
(100.029 1.71745 0)
(100.628 4.68084 1.65712e-16)
(101.721 7.3047 0)
(103.171 9.55219 -7.2881e-17)
(104.72 12.0734 0)
(106.294 15.0506 -7.15245e-17)
(107.665 18.5161 7.46645e-17)
(108.878 22.091 7.96475e-17)
(109.899 25.4059 8.59233e-17)
(110.872 28.1419 0)
(111.928 30.0723 0)
(113.285 31.0683 1.01452e-16)
(115.171 31.1054 9.96686e-17)
(117.584 30.5155 0)
(120.328 29.8089 0)
(123.076 29.4234 0)
(125.852 29.3416 0)
(128.621 29.4981 1.28071e-16)
(131.562 29.7203 -6.13374e-17)
(134.545 30.0719 0)
(137.762 30.4246 1.14877e-16)
(140.995 30.9179 0)
(144.524 31.3712 5.4029e-17)
(148.028 31.9969 -5.22475e-17)
(151.915 32.5344 0)
(155.715 33.3002 -4.88072e-17)
(160.027 33.9136 4.72284e-17)
(164.158 34.8403 0)
(168.988 35.5251 -4.38019e-17)
(173.491 36.646 -4.18285e-17)
(178.96 37.3992 0)
(183.884 38.7617 0)
(190.16 39.577 3.69513e-17)
(195.56 41.2424 3.47095e-17)
(202.866 42.1104 0)
(208.789 44.1584 0)
(217.426 45.0696 -3.00302e-17)
(223.918 47.5959 -5.44783e-17)
(234.291 48.5533 0)
(241.362 51.7005 -4.63504e-17)
(253.966 52.8413 -2.27386e-17)
(261.596 56.9471 1.8838e-17)
(277.246 58.6956 0)
(285.796 64.15 0)
(306.105 66.8546 -1.60234e-17)
(316.72 73.3864 -1.05346e-17)
(344.282 76.5515 1.37894e-17)
(358.831 82.3653 -5.78509e-18)
(395.841 85.1798 -1.04211e-17)
(414.12 88.7145 -6.61483e-19)
(462.462 93.4972 -5.72854e-18)
(490.07 85.2433 -7.59246e-18)
(556.271 89.4595 1.54706e-18)
(608.879 1.55224 3.57419e-21)
(566.752 -44.2691 -1.60933e-18)
(550.531 -57.3197 -1.71739e-17)
(510.064 -65.4455 -1.8973e-18)
(491.179 -65.9287 -1.31785e-17)
(456.576 -67.59 0)
(438.068 -63.3457 1.03684e-17)
(409.15 -60.9279 1.67702e-17)
(393.304 -55.4238 7.99001e-18)
(371.216 -53.2511 -3.05594e-17)
(358.669 -49.1824 -2.66928e-17)
(341.693 -47.7393 4.69082e-17)
(330.918 -44.5131 0)
(317.109 -43.2642 0)
(307.538 -40.7506 6.67332e-17)
(296.313 -39.9162 -7.86124e-17)
(288.135 -38.3017 0)
(279.126 -37.9891 -7.025e-21)
(272.065 -37.1026 -1.61672e-16)
(264.333 -37.0507 7.75152e-17)
(257.598 -36.4798 -7.04801e-17)
(250.297 -36.3522 0)
(243.599 -35.7843 5.8959e-17)
(236.625 -35.4155 0)
(230.148 -34.6993 0)
(223.62 -34.0243 5.15399e-17)
(217.558 -33.1183 5.1126e-17)
(211.584 -32.1866 0)
(206.078 -31.1831 5.17531e-17)
(200.733 -30.1476 3.44758e-21)
(195.869 -29.2183 0)
(191.165 -28.2495 -5.22597e-17)
(186.937 -27.5473 5.19753e-17)
(182.769 -26.7319 -5.14242e-17)
(179.055 -26.3061 0)
(175.214 -25.6021 0)
(171.855 -25.4084 0)
(168.13 -24.6927 -4.94692e-17)
(165.05 -24.6696 -2.3277e-21)
(161.263 -23.8058 4.89302e-17)
(158.498 -23.9107 4.90471e-17)
(154.423 -22.7586 4.83716e-17)
(152.123 -22.9149 0)
(147.35 -21.3059 4.73114e-17)
(145.846 -21.2399 -4.77362e-17)
(139.59 -18.1265 0)
(100.028 1.70096 0)
(100.621 4.63836 -1.16226e-20)
(101.702 7.23996 -7.72761e-17)
(103.137 9.47487 7.29099e-17)
(104.671 11.9912 -7.09312e-17)
(106.233 14.9714 5.35797e-21)
(107.598 18.4446 -7.46105e-17)
(108.81 22.0283 -7.95774e-17)
(109.84 25.3505 -8.58275e-17)
(110.829 28.0894 0)
(111.908 30.0165 0)
(113.296 31.0018 -1.01194e-16)
(115.212 31.0241 0)
(117.644 30.4224 9.24046e-17)
(120.393 29.7121 0)
(123.14 29.328 0)
(125.917 29.2478 0)
(128.688 29.404 -1.27705e-16)
(131.632 29.6249 0)
(134.618 29.9745 0)
(137.838 30.3256 -5.73196e-17)
(141.074 30.8168 5.55491e-17)
(144.605 31.2684 -2.53702e-21)
(148.111 31.8918 2.96336e-21)
(152.001 32.4276 -5.05547e-17)
(155.804 33.1907 4.87304e-17)
(160.119 33.8023 0)
(164.252 34.7257 0)
(169.085 35.4086 0)
(173.591 36.5255 4.17509e-17)
(179.063 37.2767 0)
(183.99 38.6342 -3.8212e-17)
(190.27 39.4474 0)
(195.672 41.1067 0)
(202.982 41.9726 -3.34152e-17)
(208.908 44.0129 3.09392e-17)
(217.549 44.9223 -2.99324e-17)
(224.044 47.439 5.42796e-17)
(234.42 48.3952 2.63781e-17)
(241.496 51.5312 2.3073e-17)
(254.102 52.6717 2.26273e-17)
(261.743 56.7639 0)
(277.4 58.5109 1.89595e-17)
(285.975 63.9468 0)
(306.302 66.6446 2.0194e-21)
(316.963 73.151 7.69925e-21)
(344.541 76.2999 -1.36314e-17)
(359.12 82.0833 0)
(396.085 84.8765 1.02702e-17)
(414.36 88.378 1.3158e-18)
(462.649 93.1149 5.66673e-18)
(490.264 84.8174 -7.53734e-18)
(556.181 88.8917 -1.54365e-18)
(608.556 1.51243 1.09317e-18)
(566.71 -44.0132 1.59888e-18)
(550.559 -57.0532 0)
(510.035 -65.1516 -1.88392e-18)
(491.025 -65.6221 2.59372e-17)
(456.285 -67.2622 0)
(437.677 -63.0125 -5.06964e-18)
(408.74 -60.606 0)
(392.943 -55.1298 0)
(370.951 -52.9916 2.90661e-17)
(358.487 -48.9506 0)
(341.587 -47.531 0)
(330.872 -44.3212 0)
(317.133 -43.0912 0)
(307.634 -40.5959 -1.21892e-16)
(296.481 -39.7821 7.13822e-17)
(288.35 -38.1833 0)
(279.349 -37.8798 7.57686e-17)
(272.253 -36.993 7.25428e-17)
(264.46 -36.9333 0)
(257.66 -36.3524 0)
(250.307 -36.2156 0)
(243.576 -35.6421 -5.41108e-17)
(236.582 -35.2699 -5.12413e-17)
(230.096 -34.5533 0)
(223.565 -33.8793 4.84671e-17)
(217.506 -32.9764 0)
(211.54 -32.0493 -4.8688e-17)
(206.047 -31.0518 0)
(200.719 -30.0234 -4.96376e-17)
(195.872 -29.1015 -4.99142e-17)
(191.184 -28.1402 0)
(186.97 -27.4445 -4.97346e-17)
(182.81 -26.6344 0)
(179.099 -26.2116 -4.90176e-17)
(175.258 -25.5098 -4.85502e-17)
(171.897 -25.316 0)
(168.168 -24.6011 -4.80126e-17)
(165.085 -24.5757 4.80832e-17)
(161.293 -23.713 -4.77333e-17)
(158.526 -23.813 -4.79624e-17)
(154.448 -22.664 0)
(152.149 -22.8101 0)
(147.378 -21.2089 -4.65003e-17)
(145.871 -21.1213 4.70002e-17)
(139.645 -18.0295 4.6106e-17)
(100.027 1.68468 0)
(100.613 4.59636 -1.15382e-20)
(101.683 7.17593 7.733e-17)
(103.103 9.39838 0)
(104.623 11.9099 7.09335e-17)
(106.172 14.8928 7.14749e-17)
(107.531 18.3736 7.45662e-17)
(108.744 21.9657 0)
(109.782 25.2948 0)
(110.787 28.0362 -9.23828e-17)
(111.89 29.9598 -9.81266e-17)
(113.308 30.9343 1.00945e-16)
(115.253 30.9418 0)
(117.704 30.3288 -2.54359e-21)
(120.458 29.6151 0)
(123.204 29.2326 7.38609e-17)
(125.981 29.154 0)
(128.755 29.3097 1.27372e-16)
(131.702 29.5293 0)
(134.691 29.877 -5.89507e-17)
(137.914 30.2264 5.7208e-17)
(141.152 30.7155 -5.54527e-17)
(144.686 31.1654 -5.38419e-17)
(148.194 31.7865 5.20753e-17)
(152.087 32.3206 5.04797e-17)
(155.892 33.081 4.86536e-17)
(160.211 33.6908 0)
(164.346 34.611 4.51881e-17)
(169.182 35.292 0)
(173.691 36.4049 -4.1686e-17)
(179.166 37.1541 -4.02284e-17)
(184.096 38.5067 3.81438e-17)
(190.379 39.3178 0)
(195.785 40.9708 -3.45423e-17)
(203.098 41.8348 3.33368e-17)
(209.028 43.8674 -3.08584e-17)
(217.672 44.7749 2.98464e-17)
(224.172 47.2822 -2.70493e-17)
(234.55 48.2372 -2.62841e-17)
(241.632 51.3619 2.29682e-17)
(254.24 52.5022 -2.49977e-21)
(261.892 56.5808 0)
(277.557 58.3263 -2.00981e-21)
(286.157 63.7435 0)
(306.5 66.4344 1.92395e-21)
(317.205 72.915 7.52157e-21)
(344.799 76.0476 0)
(359.407 81.8006 0)
(396.328 84.573 0)
(414.601 88.0417 -6.54807e-19)
(462.838 92.733 0)
(490.459 84.3929 7.48623e-18)
(556.091 88.3263 -1.54373e-18)
(608.228 1.4725 0)
(566.654 -43.7571 0)
(550.574 -56.785 0)
(509.996 -64.8557 1.85932e-18)
(490.87 -65.3141 3.58718e-21)
(456.002 -66.9341 0)
(437.3 -62.6809 4.96254e-18)
(408.353 -60.2876 0)
(392.61 -54.8411 7.35635e-18)
(370.718 -52.7376 0)
(358.334 -48.7243 2.35435e-17)
(341.508 -47.327 0)
(330.847 -44.1334 -4.02036e-17)
(317.175 -42.9215 0)
(307.741 -40.4441 5.55345e-17)
(296.652 -39.649 6.84813e-21)
(288.558 -38.0645 0)
(279.558 -37.7681 6.82272e-17)
(272.425 -36.8803 -6.52392e-17)
(264.574 -36.813 0)
(257.716 -36.2233 0)
(250.318 -36.0783 0)
(243.557 -35.5001 9.98475e-17)
(236.546 -35.1251 4.77092e-17)
(230.052 -34.4084 4.61712e-17)
(223.52 -33.7356 -4.57583e-17)
(217.464 -32.8361 0)
(211.506 -31.9135 4.63136e-17)
(206.026 -30.922 0)
(200.712 -29.9005 0)
(195.882 -28.9861 4.77296e-17)
(191.208 -28.032 0)
(187.006 -27.3424 9.5478e-17)
(182.853 -26.5373 0)
(179.146 -26.1174 -2.30704e-21)
(175.303 -25.4177 -6.80223e-22)
(171.94 -25.2237 0)
(168.207 -24.5096 4.67114e-17)
(165.12 -24.4818 0)
(161.324 -23.6203 0)
(158.556 -23.7155 4.69815e-17)
(154.476 -22.5695 0)
(152.177 -22.7056 0)
(147.408 -21.1124 0)
(145.9 -21.0036 0)
(139.704 -17.9335 -4.54811e-17)
(100.027 1.66861 -8.82816e-17)
(100.605 4.55483 -8.30219e-17)
(101.664 7.11261 0)
(103.069 9.3227 0)
(104.576 11.8294 0)
(106.113 14.8149 0)
(107.466 18.3029 0)
(108.679 21.9031 0)
(109.726 25.2389 8.56288e-17)
(110.746 27.9825 1.84502e-16)
(111.873 29.9023 1.95885e-16)
(113.321 30.8656 0)
(115.295 30.8586 0)
(117.764 30.2346 -2.52607e-21)
(120.522 29.5179 0)
(123.267 29.137 -7.36264e-17)
(126.045 29.0599 0)
(128.821 29.2152 -6.35357e-17)
(131.772 29.4334 0)
(134.764 29.7792 5.88424e-17)
(137.989 30.127 -2.40613e-21)
(141.23 30.614 0)
(144.767 31.0623 -5.37569e-17)
(148.278 31.681 5.19959e-17)
(152.174 32.2134 0)
(155.981 32.9711 -4.85891e-17)
(160.302 33.5791 -4.7015e-17)
(164.441 34.4961 -4.51279e-17)
(169.279 35.1752 0)
(173.791 36.2841 4.16183e-17)
(179.269 37.0313 2.82496e-21)
(184.203 38.379 -3.8072e-17)
(190.489 39.188 3.67248e-17)
(195.898 40.8349 6.89419e-17)
(203.215 41.6968 3.32578e-17)
(209.149 43.7218 0)
(217.796 44.6275 0)
(224.3 47.1254 0)
(234.681 48.0791 0)
(241.768 51.1928 -5.90488e-21)
(254.38 52.3327 -2.24326e-17)
(262.042 56.3977 1.85336e-17)
(277.715 58.1417 -1.87568e-17)
(286.34 63.54 0)
(306.7 66.2237 1.83284e-21)
(317.448 72.6784 1.02313e-17)
(345.056 75.7947 0)
(359.691 81.5172 0)
(396.569 84.2694 0)
(414.842 87.7055 0)
(463.028 92.3516 5.53438e-18)
(490.654 83.9696 0)
(556.001 87.7635 -1.68983e-21)
(607.894 1.43252 0)
(566.587 -43.5009 0)
(550.577 -56.5151 0)
(509.951 -64.5579 0)
(490.714 -65.0049 3.58469e-21)
(455.725 -66.6059 7.55515e-18)
(436.937 -62.3511 -4.84506e-18)
(407.989 -59.9727 -1.52875e-17)
(392.306 -54.5576 -7.04365e-18)
(370.515 -52.4889 -2.60515e-17)
(358.21 -48.5032 -4.4012e-17)
(341.452 -47.1269 0)
(330.842 -43.9495 3.60166e-21)
(317.231 -42.7546 -4.9316e-17)
(307.857 -40.2946 0)
(296.823 -39.5166 -5.86642e-17)
(288.758 -37.945 0)
(279.753 -37.6541 -1.23072e-16)
(272.582 -36.7648 -3.23094e-21)
(264.678 -36.6902 5.67766e-17)
(257.767 -36.0927 0)
(250.33 -35.9404 0)
(243.543 -35.3584 -4.63076e-17)
(236.518 -34.981 -4.46493e-17)
(230.017 -34.2647 -4.35191e-17)
(223.483 -33.5932 0)
(217.431 -32.6971 -4.36036e-17)
(211.481 -31.7791 0)
(206.013 -30.7938 0)
(200.713 -29.7791 -4.54033e-17)
(195.898 -28.8719 0)
(191.237 -27.9248 0)
(187.045 -27.241 -4.59633e-17)
(182.898 -26.4406 0)
(179.194 -26.0233 4.57616e-17)
(175.35 -25.3257 9.11413e-17)
(171.984 -25.1314 0)
(168.246 -24.4181 4.55469e-17)
(165.158 -24.3881 -4.58455e-17)
(161.357 -23.5277 0)
(158.589 -23.6182 0)
(154.506 -22.4754 0)
(152.207 -22.6015 0)
(147.442 -21.0162 -4.50957e-17)
(145.932 -20.8868 -4.57417e-17)
(139.766 -17.8385 0)
(100.026 1.65275 8.83296e-17)
(100.598 4.51376 8.30624e-17)
(101.646 7.04998 0)
(103.036 9.24783 0)
(104.529 11.7496 -7.09179e-17)
(106.055 14.7377 7.14159e-17)
(107.402 18.2327 -7.44654e-17)
(108.616 21.8407 0)
(109.67 25.1827 -8.55345e-17)
(110.707 27.9282 -9.21195e-17)
(111.858 29.8438 -9.77597e-17)
(113.335 30.7959 1.0045e-16)
(115.338 30.7744 0)
(117.823 30.1398 -9.14737e-17)
(120.586 29.4205 0)
(123.331 29.0413 0)
(126.109 28.9657 -6.7342e-17)
(128.888 29.1205 0)
(131.841 29.3374 0)
(134.836 29.6813 0)
(138.065 30.0275 -1.1404e-16)
(141.308 30.5123 0)
(144.848 30.959 5.36843e-17)
(148.361 31.5754 -5.19289e-17)
(152.26 32.1061 0)
(156.07 32.8611 0)
(160.394 33.4674 4.69581e-17)
(164.535 34.3811 0)
(169.377 35.0583 0)
(173.891 36.1633 -3.70822e-21)
(179.373 36.9085 8.02099e-17)
(184.309 38.2512 4.05962e-21)
(190.599 39.0581 -3.66626e-17)
(196.012 40.6989 -3.44042e-17)
(203.332 41.5588 -2.83472e-21)
(209.269 43.5761 -3.06974e-17)
(217.92 44.48 0)
(224.429 46.9685 0)
(234.813 47.921 0)
(241.906 51.0236 -2.27943e-17)
(254.521 52.1634 2.23409e-17)
(262.194 56.2147 -1.84522e-17)
(277.875 57.957 1.86621e-17)
(286.525 63.3364 0)
(306.901 66.0128 1.74598e-21)
(317.691 72.4412 0)
(345.313 75.5411 0)
(359.973 81.2332 -5.44266e-18)
(396.809 83.9656 -9.84588e-18)
(415.084 87.3694 0)
(463.22 91.9706 -6.83389e-21)
(490.85 83.5477 0)
(555.91 87.2032 1.54022e-18)
(607.554 1.39253 1.07504e-18)
(566.507 -43.2445 0)
(550.568 -56.2438 0)
(509.898 -64.2584 0)
(490.557 -64.6946 -1.24013e-17)
(455.455 -66.2777 -7.4157e-18)
(436.59 -62.0232 -4.73659e-18)
(407.648 -59.6615 1.47743e-17)
(392.031 -54.2795 6.71765e-18)
(370.342 -52.2453 2.45517e-17)
(358.111 -48.2869 3.26134e-21)
(341.417 -46.9304 3.47425e-17)
(330.853 -43.769 3.39709e-17)
(317.299 -42.59 4.5064e-17)
(307.978 -40.1469 0)
(296.993 -39.3844 0)
(288.949 -37.8245 0)
(279.935 -37.5377 1.11311e-16)
(272.727 -36.6468 5.32848e-17)
(264.772 -36.5651 -5.1635e-17)
(257.815 -35.9608 0)
(250.343 -35.8022 0)
(243.534 -35.2171 0)
(236.496 -34.8376 8.39557e-17)
(229.989 -34.1219 0)
(223.454 -33.4519 -4.12806e-17)
(217.406 -32.5594 4.16438e-17)
(211.463 -31.646 0)
(206.006 -30.6668 -4.30174e-17)
(200.719 -29.6588 -2.70864e-21)
(195.918 -28.7587 0)
(191.269 -27.8184 4.42602e-17)
(187.087 -27.1401 -4.43853e-17)
(182.945 -26.3443 0)
(179.243 -25.9294 0)
(175.397 -25.2338 -4.43174e-17)
(172.029 -25.0392 4.45301e-17)
(168.287 -24.3266 -4.45046e-17)