/*--------------------------------*- C++ -*----------------------------------*\
| =========                 |                                                 |
| \\      /  F ield         | OpenFOAM: The Open Source CFD Toolbox           |
|  \\    /   O peration     | Version:  2412                                  |
|   \\  /    A nd           | Website:  www.openfoam.com                      |
|    \\/     M anipulation  |                                                 |
\*---------------------------------------------------------------------------*/
FoamFile
{
    version     2.0;
    format      ascii;
    arch        "LSB;label=32;scalar=64";
    class       volScalarField;
    location    "1";
    object      epsilon;
}
// * * * * * * * * * * * * * * * * * * * * * * * * * * * * * * * * * * * * * //

dimensions      [0 2 -3 0 0 0 0];

internalField   nonuniform List<scalar> 
78408
(
4.35946e+06
4.7635e+06
3.58328e+06
2.88821e+06
2.58637e+06
2.45129e+06
2.39615e+06
2.3882e+06
2.41575e+06
2.46925e+06
2.54184e+06
2.6251e+06
2.71511e+06
2.80749e+06
2.90255e+06
2.99818e+06
3.09877e+06
3.20176e+06
3.31356e+06
3.43087e+06
3.56358e+06
3.70566e+06
3.87401e+06
4.05482e+06
4.27396e+06
4.50735e+06
4.79606e+06
5.09725e+06
5.4822e+06
5.87133e+06
6.39042e+06
6.89657e+06
7.60336e+06
8.27634e+06
9.26579e+06
1.01753e+07
1.16088e+07
1.28566e+07
1.50082e+07
1.67586e+07
2.01304e+07
2.26444e+07
2.81858e+07
3.19155e+07
4.1533e+07
4.72228e+07
6.47552e+07
7.36134e+07
1.07672e+08
1.22265e+08
2.00296e+08
2.28713e+08
6.2007e+08
7.23613e+08
4.2992e+08
2.65857e+08
1.92177e+08
1.46959e+08
1.17673e+08
9.49095e+07
7.84914e+07
6.48993e+07
5.48469e+07
4.62778e+07
3.99346e+07
3.4461e+07
3.04501e+07
2.69193e+07
2.42609e+07
2.17896e+07
1.97723e+07
1.78259e+07
1.61475e+07
1.45493e+07
1.3156e+07
1.1871e+07
1.07539e+07
9.75035e+06
8.87833e+06
8.10435e+06
7.42662e+06
6.82846e+06
6.29331e+06
5.81972e+06
5.38302e+06
4.99544e+06
4.62739e+06
4.30315e+06
3.98521e+06
3.71336e+06
3.43737e+06
3.21326e+06
2.9724e+06
2.7945e+06
2.58187e+06
2.45105e+06
2.25725e+06
2.17816e+06
2.00946e+06
1.6973e+07
9.54015e+06
3.54303e+06
1.62554e+06
969606
731924
653327
646073
670480
711296
757813
808374
859898
914422
969676
1.02816e+06
1.08548e+06
1.14612e+06
1.20368e+06
1.26536e+06
1.32262e+06
1.38734e+06
1.44605e+06
1.52008e+06
1.58662e+06
1.67916e+06
1.76029e+06
1.88264e+06
1.98324e+06
2.15047e+06
2.27579e+06
2.50842e+06
2.68e+06
3.00934e+06
3.24118e+06
3.71832e+06
4.03099e+06
4.74678e+06
5.17319e+06
6.28467e+06
6.87599e+06
8.67113e+06
9.51451e+06
1.25353e+07
1.37986e+07
1.91311e+07
2.11704e+07
3.08966e+07
3.4576e+07
5.24287e+07
6.15995e+07
8.97625e+07
1.2354e+08
3.43191e+08
3.09297e+08
1.83065e+08
1.07807e+08
7.77539e+07
5.75965e+07
4.63377e+07
3.63158e+07
3.02282e+07
2.45492e+07
2.09215e+07
1.75235e+07
1.52494e+07
1.31626e+07
1.16871e+07
1.03409e+07
9.30094e+06
8.32899e+06
7.51248e+06
6.74421e+06
6.07735e+06
5.4624e+06
4.92714e+06
4.44612e+06
4.0275e+06
3.65924e+06
3.33697e+06
3.05661e+06
2.81015e+06
2.59231e+06
2.39846e+06
2.22299e+06
2.06442e+06
1.91763e+06
1.78369e+06
1.65794e+06
1.54354e+06
1.43534e+06
1.338e+06
1.24742e+06
1.16469e+06
1.09088e+06
1.02073e+06
963295
905333
858691
2.14378e+06
2.49979e+06
1.22023e+06
659688
411896
299883
252330
238532
242547
257015
276744
299790
324375
350703
378074
407337
437341
469334
501464
535545
569039
604948
639505
678132
715328
759589
802381
856789
908623
979085
1.04442e+06
1.13888e+06
1.22308e+06
1.35526e+06
1.46723e+06
1.65767e+06
1.80681e+06
2.09052e+06
2.29151e+06
2.72944e+06
3.00314e+06
3.70753e+06
4.08658e+06
5.27221e+06
5.81361e+06
7.92228e+06
8.75689e+06
1.26888e+07
1.41021e+07
2.15503e+07
2.43928e+07
3.76288e+07
3.5144e+07
1.13805e+08
1.83981e+08
1.32732e+08
8.33866e+07
5.69521e+07
4.23825e+07
3.27716e+07
2.59429e+07
2.1038e+07
1.72612e+07
1.44721e+07
1.2244e+07
1.05613e+07
9.194e+06
8.12828e+06
7.23403e+06
6.49136e+06
5.83354e+06
5.25395e+06
4.72628e+06
4.25449e+06
3.82821e+06
3.45036e+06
3.11501e+06
2.82035e+06
2.56267e+06
2.33699e+06
2.14079e+06
1.96845e+06
1.81668e+06
1.68124e+06
1.55925e+06
1.44812e+06
1.34592e+06
1.25135e+06
1.16369e+06
1.08218e+06
1.00676e+06
936634
872876
813089
760539
709656
667494
625561
589177
272086
522913
374503
274988
210660
171005
148958
139335
137863
141973
149439
159201
170271
182556
195655
209941
224934
241318
258239
276689
295324
315729
335698
358151
379652
405082
429104
459539
487595
526167
560459
611708
653872
724942
779795
881484
952707
1.10384e+06
1.19676e+06
1.42943e+06
1.55047e+06
1.92299e+06
2.08055e+06
2.70393e+06
2.91122e+06
4.0149e+06
4.31234e+06
6.38345e+06
6.86294e+06
1.08561e+07
1.16404e+07
1.94072e+07
1.42728e+07
4.451e+07
1.1349e+08
1.05086e+08
7.18758e+07
4.88563e+07
3.63066e+07
2.7559e+07
2.1822e+07
1.74761e+07
1.4369e+07
1.1958e+07
1.01525e+07
8.72853e+06
7.62841e+06
6.73793e+06
6.01551e+06
5.39664e+06
4.85969e+06
4.3763e+06
3.94167e+06
3.54774e+06
3.19455e+06
2.87886e+06
2.59997e+06
2.35393e+06
2.13921e+06
1.95117e+06
1.78771e+06
1.64418e+06
1.51791e+06
1.4051e+06
1.30358e+06
1.21076e+06
1.1255e+06
1.04614e+06
972803
904089
840849
781478
727722
676980
632230
589106
552563
517033
485047
61007.6
139861
145689
142581
132248
120012
110075
104042
101672
102369
105193
109568
114907
121065
127774
135177
143022
151679
160723
170730
180996
192442
203810
216818
229333
244316
258324
276269
292371
314998
334202
364195
387175
428562
457561
516775
553458
641680
687823
824105
880964
1.09956e+06
1.16732e+06
1.53285e+06
1.61042e+06
2.25642e+06
2.35143e+06
3.56888e+06
3.70591e+06
6.08169e+06
6.22395e+06
1.10182e+07
7.56237e+06
2.03167e+07
6.88996e+07
8.37124e+07
6.3539e+07
4.42984e+07
3.30538e+07
2.49261e+07
1.97104e+07
1.569e+07
1.28972e+07
1.06943e+07
9.09019e+06
7.80555e+06
6.83537e+06
6.03795e+06
5.40038e+06
4.84623e+06
4.3694e+06
3.93556e+06
3.54743e+06
3.19327e+06
2.87671e+06
2.59261e+06
2.3421e+06
2.12068e+06
1.9276e+06
1.75857e+06
1.61163e+06
1.48262e+06
1.36914e+06
1.26766e+06
1.1763e+06
1.0926e+06
1.01566e+06
943870
877506
815170
757825
703860
654946
608765
567805
528595
494761
462480
432806
25159
62544.5
80494.9
90893.4
94219.8
92500
88893.1
85694.2
83826.9
83546
84573.5
86650.4
89432.7
92799.5
96559.9
100763
105248
110215
115426
121216
127196
133915
140655
148444
156006
165118
173662
184627
194395
208169
219622
237776
251227
276136
292603
328201
348569
401691
426484
508909
537875
670765
702011
925047
954138
1.34937e+06
1.3738e+06
2.12286e+06
2.14491e+06
3.62098e+06
3.58934e+06
6.54509e+06
4.74156e+06
1.09338e+07
4.07244e+07
6.53859e+07
5.58835e+07
4.08109e+07
3.08367e+07
2.33008e+07
1.84274e+07
1.46387e+07
1.20288e+07
9.95928e+06
8.47012e+06
7.27158e+06
6.376e+06
5.63512e+06
5.04651e+06
4.531e+06
4.08878e+06
3.68404e+06
3.32263e+06
2.99159e+06
2.69605e+06
2.43021e+06
2.19596e+06
1.98873e+06
1.80807e+06
1.64994e+06
1.51247e+06
1.39175e+06
1.28551e+06
1.19042e+06
1.10472e+06
1.02611e+06
953747
886138
823575
764773
710622
659676
613387
569771
530872
493872
461488
431054
402705
15793.9
39683.8
55030.2
66153.8
72826.5
75246.2
75005.1
73823.1
72754.7
72357.2
72695
73717.2
75244.6
77202
79457.6
82025.7
84794.2
87879.1
91128.5
94749.2
98506.1
102742
107025
111994
116867
122736
128284
135351
141669
150474
157774
169235
177670
193219
203249
225320
237505
270298
284750
335624
351839
434100
450181
588832
600639
847660
850917
1.32266e+06
1.31381e+06
2.25082e+06
2.19561e+06
3.99983e+06
3.34809e+06
6.98895e+06
2.40643e+07
4.9853e+07
4.83294e+07
3.7555e+07
2.89851e+07
2.21004e+07
1.75251e+07
1.39361e+07
1.14561e+07
9.48543e+06
8.0723e+06
6.93357e+06
6.08646e+06
5.38371e+06
4.82664e+06
4.33651e+06
3.91626e+06
3.53018e+06
3.18552e+06
2.86904e+06
2.58657e+06
2.3321e+06
2.10791e+06
1.90945e+06
1.73644e+06
1.585e+06
1.45331e+06
1.33762e+06
1.23572e+06
1.14443e+06
1.06203e+06
986361
916610
851398
790978
734203
681848
632653
587846
545734
507998
472310
440728
411395
383842
11923.4
29806.2
42260.3
52194.9
59406
63461.3
65026
65211.2
64896.8
64688.2
64810.1
65340.3
66213
67400.2
68817.1
70469.9
72278.9
74317.2
76480.8
78905.3
81437.5
84303.4
87225.7
90622.2
93985.9
98021
101870
106711
111073
117030
121997
129618
135270
145442
151979
166253
174098
195067
204213
236522
246572
298650
308246
396032
402287
559296
559041
861073
851333
1.45426e+06
1.42126e+06
2.54023e+06
2.59095e+06
5.12915e+06
1.49295e+07
3.73295e+07
4.09495e+07
3.42543e+07
2.72163e+07
2.1067e+07
1.67999e+07
1.34079e+07
1.10386e+07
9.15169e+06
7.79636e+06
6.70401e+06
5.89207e+06
5.21757e+06
4.68278e+06
4.21077e+06
3.80561e+06
3.43235e+06
3.09891e+06
2.79215e+06
2.51827e+06
2.27124e+06
2.05355e+06
1.86075e+06
1.69263e+06
1.54545e+06
1.41739e+06
1.30482e+06
1.20555e+06
1.11652e+06
1.03603e+06
962033
893734
829858
770610
714971
663602
615408
571422
530192
493100
458198
427056
398377
371307
9900.21
24429.7
34704.8
43344.8
50291
54927.6
57458.2
58549.9
58857.8
58929.9
59049.8
59367.5
59894.1
60641.4
61563.2
62668.8
63902.8
65316.3
66835.2
68554.1
70367
72430.7
74555.7
77028.3
79500.8
82447.9
85283
88795.1
91985
96241
99822.3
105161
109175
116169
120719
130382
135778
149782
156021
177354
184200
218281
224913
282045
286801
388923
390371
587620
585423
979826
977335
1.71456e+06
2.15075e+06
4.12951e+06
1.00882e+07
2.77572e+07
3.40484e+07
3.08735e+07
2.54159e+07
2.00773e+07
1.61485e+07
1.29649e+07
1.07033e+07
8.8955e+06
7.59002e+06
6.53753e+06
5.7539e+06
5.1023e+06
4.58472e+06
4.12672e+06
3.73273e+06
3.36888e+06
3.04341e+06
2.74348e+06
2.47548e+06
2.2335e+06
2.02015e+06
1.8311e+06
1.66617e+06
1.52173e+06
1.39596e+06
1.2853e+06
1.18757e+06
1.09981e+06
1.02034e+06
947214
879628
816413
757724
702656
651767
604102
560529
519787
483023
448576
417649
389347
362573
8652.42
21018.3
29702.6
37246.2
43714.4
48470.8
51503.4
53187.6
53981
54340.3
54553.7
54805.8
55157.1
55651.2
56272.2
57037.3
57910.3
58931.7
60047.3
61327.6
62695.5
64264.6
65898.3
67800.1
69718.5
71986.4
74183.3
76859.7
79307.9
82495.9
85203.3
89121.3
92112.2
97148.2
100489
107332
111253
121038
125568
140281
145313
168543
173655
212231
216671
285307
289115
421744
427194
692560
714969
1.24511e+06
1.88066e+06
3.53156e+06
7.45727e+06
2.07496e+07
2.78956e+07
2.74835e+07
2.35546e+07
1.90736e+07
1.55163e+07
1.25583e+07
1.04093e+07
8.68154e+06
7.42352e+06
6.40828e+06
5.64969e+06
5.01826e+06
4.51515e+06
4.06884e+06
3.68378e+06
3.32733e+06
3.00787e+06
2.71299e+06
2.44921e+06
2.21078e+06
2.00041e+06
1.81388e+06
1.65104e+06
1.50834e+06
1.38397e+06
1.27442e+06
1.17751e+06
1.09036e+06
1.01131e+06
938500
871134
808126
749593
694721
643982
596534
553111
512602
475963
441757
410904
382799
356204
7781.81
18610.2
26114
32775.8
38741.7
43413.5
46685.9
48750.8
49911.9
50532
50876.9
51141.8
51417.5
51770.3
52208.5
52758.1
53398.8
54166.2
55021.1
56018.9
57101.3
58353.6
59672.3
61206.3
62764.8
64589.1
66364.4
68489.3
70443.3
72927.1
75053.3
78043.1
80359
84131.4
86689.1
91735.3
94714.3
101842
105299
115887
119805
136325
140545
167695
172065
220073
225637
318286
329170
515211
553988
969053
1.70775e+06
3.14536e+06
5.93645e+06
1.57686e+07
2.26536e+07
2.41921e+07
2.16481e+07
1.80344e+07
1.48754e+07
1.21603e+07
1.01324e+07
8.48864e+06
7.27879e+06
6.30052e+06
5.56581e+06
4.95338e+06
4.46341e+06
4.02759e+06
3.65021e+06
3.3e+06
2.98539e+06
2.69449e+06
2.43389e+06
2.19806e+06
1.98978e+06
1.80497e+06
1.64349e+06
1.50188e+06
1.3783e+06
1.2693e+06
1.17271e+06
1.08571e+06
1.00666e+06
933786
866297
803185
744532
689601
638793
591354
547909
507461
470816
436709
405840
377813
351321
7116.97
16775.6
23381.3
29339.5
34839.5
39339.4
42701.3
45004.3
46438.2
47281.9
47767.8
48086.8
48346
48627.7
48958.2
49372.5
49863
50464.1
51147.8
51960
52855.4
53899.8
55011.2
56300.7
57617.3
59140.4
60625.8
62371.2
63981
65979.6
67700.8
70056.5
71905
74825.4
76848.3
80699.9
83043.6
88428.3
91170.7
99089.8
102272
114503
118134
138050
142354
177382
184010
251561
265733
402646
450942
799012
1.59356e+06
2.88216e+06
4.99435e+06
1.22826e+07
1.83618e+07
2.11034e+07
1.97342e+07
1.69588e+07
1.42136e+07
1.17557e+07
9.85829e+06
8.30371e+06
7.14443e+06
6.20422e+06
5.49351e+06
4.89989e+06
4.42259e+06
3.99677e+06
3.62646e+06
3.28192e+06
2.97149e+06
2.68395e+06
2.42588e+06
2.19206e+06
1.98531e+06
1.8017e+06
1.6411e+06
1.50011e+06
1.3769e+06
1.26807e+06
1.17143e+06
1.08425e+06
1.0049e+06
931694
863842
800407
741444
686280
635256
587685
544104
503604
466871
432769
401828
373800
347366
6575.13
15297.5
21203
26596.8
31683.6
35979.8
39344.8
41789.5
43422.3
44451.7
45073.6
45466.8
45745
46000.4
46273.1
46605.4
47000.7
47493.7
48065.3
48755.4
49527.8
50434.4
51407.4
52531
53680.7
54993.1
56272.4
57747.2
59108.4
60759.7
62187.3
64092.6
65603.7
67926.5
69567.3
72593.1
74488.4
78684.7
80926.5
87052
89719.7
99106.7
102315
117498
121703
148325
155519
206921
222890
328710
382159
689065
1.51662e+06
2.6959e+06
4.37384e+06
9.84911e+06
1.49572e+07
1.82962e+07
1.78601e+07
1.58582e+07
1.35285e+07
1.1337e+07
9.5785e+06
8.11861e+06
7.0131e+06
6.11279e+06
5.42695e+06
4.85258e+06
4.38803e+06
3.97219e+06
3.60878e+06
3.26966e+06
2.9631e+06
2.67859e+06
2.42269e+06
2.19054e+06
1.98497e+06
1.80223e+06
1.64217e+06
1.5015e+06
1.37837e+06
1.26942e+06
1.17248e+06
1.08488e+06
1.00502e+06
931281
862897
798986
739585
684069
632731
584936
541147
500523
463650
429492
398448
370369
343963
6112.64
14056.6
19403.7
24340.5
29066.8
33154.3
36473.1
38994.3
40769.3
41949.5
42695.9
43171.1
43489.1
43747.3
43995.8
44282.9
44621.1
45046.2
45546.4
46157.7
46850.6
47666.3
48547.1
49556.7
50589.6
51751.1
52879.9
54155.9
55331.6
56726.2
57933.9
59508.3
60767.3
62656.1
64013.5
66448
68014.5
71371.2
73247.6
78124
80414.8
87849.8
90737.3
102716
106802
127805
135258
175950
192811
278363
334484
614815
1.46428e+06
2.5606e+06
3.94425e+06
8.13613e+06
1.23156e+07
1.58155e+07
1.60703e+07
1.47502e+07
1.28235e+07
1.09017e+07
9.28867e+06
7.92842e+06
6.88013e+06
6.02187e+06
5.3622e+06
4.80788e+06
4.35652e+06
3.95095e+06
3.59452e+06
3.26084e+06
2.95808e+06
2.67647e+06
2.42258e+06
2.19191e+06
1.98732e+06
1.80523e+06
1.64552e+06
1.50496e+06
1.3817e+06
1.27243e+06
1.17501e+06
1.08681e+06
1.00629e+06
931881
862846
798356
738431
682486
630773
582696
538657
497863
460823
426573
395413
367252
340861
5705.04
12983
17875.6
22437.8
26851.5
30737.6
33983.2
36537
38410.9
39711.5
40568.4
41126.2
41495.4
41775.2
42022.3
42290.1
42598.2
42984.1
43441.9
44005
44648.7
45406.4
46226.8
47158.2
48108.4
49159.8
50176.3
51302.7
52336.6
53536.2
54574.4
55898.5
56963.6
58527.6
59668.3
61666.2
62983.4
65728
67328.7
71306.8
73311.3
79362.4
81997.4
91738.3
95697.6
112826
120362
153728
170971
242893
300372
562912
1.42873e+06
2.46055e+06
3.63496e+06
6.91135e+06
1.02916e+07
1.36737e+07
1.43994e+07
1.36543e+07
1.21061e+07
1.04507e+07
8.98711e+06
7.73042e+06
6.74261e+06
5.92857e+06
5.29656e+06
4.76331e+06
4.32581e+06
3.93096e+06
3.5818e+06
3.25376e+06
2.95486e+06
2.67618e+06
2.42426e+06
2.19501e+06
1.9913e+06
1.80977e+06
1.65027e+06
1.50969e+06
1.38615e+06
1.27644e+06
1.17839e+06
1.08948e+06
1.00818e+06
933011
863247
798110
737607
681186
629066
580674
536364
495377
458159
423799
392520
364263
337881
5337.95
12033.6
16549.1
20800.4
24942.8
28640.4
31799.1
34355.8
36295.9
37691.2
38643.9
39281
39706.9
40020.1
40281.5
40548.4
40846
41213.7
41650.1
42187.3
42803.8
43526.8
44309.4
45187.9
46079.6
47049.6
47980.9
48992.3
49915.4
50963.2
51867.8
52997.8
53910
55224.6
56195
57861.9
58985
61271
62657.4
65971.1
67751.8
72793
75224.2
83355.8
87192.4
101572
109096
137301
154655
217143
275327
525668
1.40493e+06
2.38575e+06
3.40533e+06
6.0184e+06
8.74713e+06
1.18583e+07
1.28708e+07
1.25893e+07
1.1386e+07
9.98704e+06
8.6741e+06
7.52342e+06
6.59885e+06
5.83106e+06
5.22826e+06
4.71716e+06
4.29429e+06
3.91075e+06
3.56926e+06
3.24715e+06
2.9523e+06
2.67667e+06
2.42679e+06
2.19898e+06
1.99613e+06
1.81511e+06
1.65577e+06
1.51508e+06
1.39119e+06
1.28092e+06
1.18216e+06
1.09245e+06
1.01031e+06
934313
863772
797948
736841
679921
627379
578659
534075
492888
455494
421019
389629
361271
334902
5002.58
11180.9
15377.7
19367.5
23273.6
26797.7
29863.6
32403.4
34385.1
35853.6
36888.1
37599
38083.2
38436.9
38723.4
39002.5
39304
39668.8
40099.7
40627.2
41232.8
41938.1
42699.3
43543.1
44393.7
45303.3
46169.1
47090.5
47925.3
48852.8
49649.8
50626.1
51415.2
52533.9
53367.7
54777.6
55745.9
57680.2
58895.9
61705.9
63307.1
67592.5
69856.1
76800.9
80524.3
92904
100370
124841
142174
197971
256563
498434
1.3895e+06
2.32951e+06
3.23073e+06
5.35383e+06
7.56558e+06
1.03401e+07
1.14971e+07
1.15714e+07
1.06729e+07
9.51508e+06
8.35114e+06
7.30733e+06
6.44809e+06
5.72828e+06
5.15612e+06
4.66826e+06
4.26085e+06
3.88923e+06
3.5559e+06
3.24007e+06
2.94955e+06
2.67717e+06
2.42944e+06
2.20315e+06
2.00122e+06
1.82072e+06
1.66151e+06
1.52068e+06
1.39638e+06
1.2855e+06
1.18597e+06
1.09541e+06
1.01237e+06
935520
864178
797649
735930
678507
625546
576501
531650
490269
452710
418125
386639
358186
331837
4693.38
10406.5
14329.5
18096.3
21795.3
25160.7
28132.9
30642.9
32647.6
34171.7
35275.2
36053.2
36594.9
36992.9
37311.6
37612.2
37928.2
38301.7
38738.8
39269.2
39875.8
40576.2
41328.2
42150.7
42973.2
43837.5
44652.4
45502.5
46265.8
47096.3
47805.2
48657.4
49345.6
50307.5
51029.5
52235.9
53078.2
54737
55814
58233.7
59688
63395.1
65518.8
71568.9
75191.1
86082.8
93471.2
115179
132438
183395
242291
478269
1.38008e+06
2.28721e+06
3.09545e+06
4.84925e+06
6.6551e+06
9.08189e+06
1.02806e+07
1.06133e+07
9.97597e+06
9.03985e+06
8.0205e+06
7.08284e+06
6.29022e+06
5.61969e+06
5.07946e+06
4.61584e+06
4.22469e+06
3.86566e+06
3.54098e+06
3.23185e+06
2.94596e+06
2.67706e+06
2.43167e+06
2.20704e+06
2.00609e+06
1.82616e+06
1.66711e+06
1.52614e+06
1.40139e+06
1.28988e+06
1.18955e+06
1.0981e+06
1.01416e+06
936429
864281
797049
734727
676810
623446
574090
528991
487430
449726
415044
383481
354943
328628
4406.68
9697.73
13381.8
16955.6
20471.9
23692.8
26573.1
29044.9
31058.7
32624
33784.9
34623.2
35220
35664.1
36019.4
36348
36686.2
37077.1
37529.5
38072
38689
39393.9
40145.7
40956.9
41760.9
42591.5
43366.4
44159.2
44864
45615
46250.6
47001.3
47605.4
48439.7
49068.8
50111.2
50849.4
52288.2
53250.5
55361.9
56693.9
59949.6
61955.2
67317.9
70851.5
80615.6
87922.7
107547
124719
172127
231322
463237
1.37503e+06
2.25554e+06
2.98907e+06
4.45898e+06
5.94643e+06
8.04435e+06
9.2163e+06
9.72361e+06
9.30344e+06
8.56658e+06
7.68496e+06
6.8512e+06
6.12565e+06
5.50522e+06
4.99794e+06
4.55943e+06
4.18532e+06
3.83949e+06
3.52399e+06
3.22198e+06
2.94104e+06
2.67591e+06
2.43306e+06
2.21024e+06
2.0104e+06
1.83112e+06
1.67227e+06
1.53116e+06
1.40598e+06
1.29382e+06
1.19268e+06
1.10034e+06
1.01548e+06
936887
863945
796026
733122
674735
620993
571349
526028
484309
446484
411725
380107
351503
325235
4139.93
9045.59
12518
15922.5
19276.3
22365.8
25157.5
27586
29598.5
31193.1
32401.3
33293
33941.8
34431.9
34826.3
35187.6
35553.6
35968.5
36443
37004.8
37639
38355.7
39114.3
39921.7
40714.4
41520
42263.5
43009.7
43665.8
44350.9
44924.9
45591.2
46124.3
46853.2
47403.9
48312.1
48963.3
50223.4
51089.1
52953
54181.5
57079
58983.8
63809.8
67267
76163.3
83393.7
101423
118519
163301
222839
452021
1.37311e+06
2.23207e+06
2.90443e+06
4.15208e+06
5.38848e+06
7.19034e+06
8.29353e+06
8.90734e+06
8.66202e+06
8.10029e+06
7.34754e+06
6.61398e+06
5.95509e+06
5.38507e+06
4.91151e+06
4.49882e+06
4.14243e+06
3.81038e+06
3.50454e+06
3.21007e+06
2.93445e+06
2.67336e+06
2.43329e+06
2.21246e+06
2.01387e+06
1.83532e+06
1.67673e+06
1.53554e+06
1.40994e+06
1.29715e+06
1.1952e+06
1.10198e+06
1.01623e+06
936779
863069
794491
731037
672210
618125
568224
522712
480863
442946
408133
376488
347837
321634
3891.3
8443.41
11725.9
14979.6
18187.7
21157.6
23864.5
26247
28250.5
29865
31111.6
32050.1
32747.1
33282.1
33717
34113.8
34511.7
34955.4
35457.2
36043.9
36700.7
37434.6
38205.1
39014.4
39801.3
40588.6
41307.1
42015.2
42630.6
43260.3
43781.9
44377.2
44849.7
45490.4
45974.2
46771
47348.3
48461.2
49244.7
50906.6
52046.5
54655.3
56473.3
60874.6
64267.1
72487.1
79649.5
96441.7
113486
156322
216268
443696
1.37342e+06
2.21497e+06
2.83646e+06
3.90715e+06
4.94397e+06
6.48682e+06
7.49872e+06
8.16599e+06
8.05682e+06
7.64554e+06
7.0113e+06
6.37302e+06
5.77956e+06
5.2597e+06
4.82032e+06
4.43396e+06
4.09585e+06
3.77809e+06
3.48241e+06
3.19588e+06
2.92592e+06
2.66917e+06
2.4321e+06
2.21347e+06
2.01626e+06
1.83857e+06
1.68032e+06
1.53909e+06
1.41312e+06
1.29971e+06
1.19698e+06
1.10291e+06
1.01628e+06
936020
861577
792380
728416
669190
614801
564680
519014
477067
439090
404250
372605
343931
317812
3659.35
7886.09
10996.1
14113.7
17190
20050.6
22677.2
25012.3
27001.1
28627.7
29905.1
30884.2
31625.4
32203.8
32679.3
33113.3
33546
34022.1
34555
35170.6
35854.1
36609.4
37395.6
38211.2
38996.5
39770.6
40469.3
41146
41726.7
42309.6
42786.1
43321.1
43741.3
44307.4
44733.5
45436.8
45950.4
46940.8
47653.2
49148.3
50211.1
52584.1
54326.9
58388.2
61726.6
69414.4
76519.9
92345.2
109368
150765
211191
437595
1.37527e+06
2.20285e+06
2.78148e+06
3.70914e+06
4.5857e+06
5.90566e+06
6.81705e+06
7.49836e+06
7.49126e+06
7.2063e+06
6.6792e+06
6.13023e+06
5.60019e+06
5.12975e+06
4.72467e+06
4.36494e+06
4.04558e+06
3.74254e+06
3.45742e+06
3.17921e+06
2.91525e+06
2.66313e+06
2.42932e+06
2.21307e+06
2.01742e+06
1.84071e+06
1.68289e+06
1.54168e+06
1.41538e+06
1.3014e+06
1.19793e+06
1.10304e+06
1.01558e+06
934546
859419
789649
725224
665644
610995
560696
514915
472906
434903
400066
368451
339781
313766
3442.92
7369.55
10321.3
13314.5
16270.5
19030.7
21581.5
23868.9
25839
27471.4
28772.9
29787
30568.4
31187.9
31703.5
32175.6
32644.9
33155.9
33722.9
34370.6
35083.7
35863.5
36668.4
37493.4
38280.3
39045.3
39728.2
40378.6
40929.9
41472.7
41910.1
42393.4
42768
43270.4
43646.1
44270.1
44728.4
45615.4
46265.6
47621.2
48616.3
50794.4
52471.7
56258.4
59552.3
66818.3
73878.9
88944.3
105976
146326
207303
433225
1.37815e+06
2.1946e+06
2.73674e+06
3.54721e+06
4.29373e+06
5.42361e+06
6.23373e+06
6.90124e+06
6.96722e+06
6.78578e+06
6.35393e+06
5.88752e+06
5.41822e+06
4.99596e+06
4.62498e+06
4.29198e+06
3.99167e+06
3.7037e+06
3.42951e+06
3.15997e+06
2.90233e+06
2.65511e+06
2.4248e+06
2.21114e+06
2.0172e+06
1.8416e+06
1.68431e+06
1.54321e+06
1.41664e+06
1.30214e+06
1.19796e+06
1.1023e+06
1.01407e+06
932316
856558
786269
721436
661554
606694
556262
510409
468375
430383
395580
364026
335386
309495
3240.99
6890.42
9695.81
12573.7
15419.1
18086.7
20565.8
22806
24754.4
26387.7
27707.5
28751.5
29569.1
30227.2
30781.9
31292.3
31799.3
32347
32950
33632.1
34377.1
35183.6
36009.2
36846
37637
38395.9
39066.2
39694.6
40220.5
40728.8
41132
41570.6
41905.3
42352.7
42684.2
43240.2
43649.8
44448.8
45044.1
46281.6
47216.6
49232
50851.8
54415.2
57673.3
64603.5
71631.3
86098.5
103170
142776
204370
430215
1.38162e+06
2.18937e+06
2.70017e+06
3.41347e+06
4.05334e+06
5.02175e+06
5.73492e+06
6.37004e+06
6.48523e+06
6.38643e+06
6.03786e+06
5.64674e+06
5.23494e+06
4.85917e+06
4.52178e+06
4.21537e+06
3.93428e+06
3.66162e+06
3.39868e+06
3.1381e+06
2.88707e+06
2.64502e+06
2.41845e+06
2.20758e+06
2.01552e+06
1.84115e+06
1.6845e+06
1.54358e+06
1.41681e+06
1.30185e+06
1.19704e+06
1.10066e+06
1.01172e+06
929300
852974
782226
717044
656914
601895
551377
505495
463478
425532
390797
359334
330753
305008
3052.67
6445.84
9114.79
11884.9
14627.7
17209.4
19620.9
21814.7
23739.2
25369.3
26702.6
27771.7
28621.7
29315.8
29908.2
30456.6
31001.7
31587.2
32227.7
32945.7
33724
34558.9
35406.7
36257.1
37053.9
37809.2
38469.4
39079.3
39583.1
40061.4
40434.5
40834.2
41133.5
41533.3
41825.6
42322.8
42689.1
43412.5
43958.8
45095.5
45976.4
47854.7
49423.9
52804.5
56035
62697.5
69704.2
83701.8
100843
139945
202215
428278
1.38539e+06
2.18646e+06
2.67015e+06
3.30201e+06
3.85352e+06
4.68487e+06
5.30806e+06
5.89937e+06
6.0447e+06
6.00996e+06
5.73302e+06
5.40961e+06
5.0516e+06
4.72022e+06
4.41562e+06
4.13546e+06
3.87362e+06
3.6164e+06
3.36495e+06
3.11359e+06
2.86944e+06
2.6328e+06
2.41019e+06
2.20231e+06
2.01229e+06
1.8393e+06
1.68339e+06
1.54274e+06
1.41585e+06
1.3005e+06
1.19511e+06
1.09809e+06
1.0085e+06
925485
848656
777515
712046
651726
596602
546047
500183
458221
420360
385725
354386
325892
300314
2877.12
6033.26
8574.31
11242.7
13889.5
16391.1
18738.7
20887.2
22786.5
24410
25752.6
26842.5
27721.3
28448.8
29077.2
29662.9
30246
30869.9
31548.7
32303.7
33116.4
33980.6
34851.5
35716.7
36520.6
37274.2
37926.3
38520.4
39005
39457.1
39803.6
40169.1
40437
40795
41052.3
41498.3
41826
42483.7
42985.9
44035.5
44867.6
46629.2
48153.6
51384.5
54594.6
61044
68041
81672.5
98911.7
137700
200697
427191
1.38918e+06
2.1853e+06
2.64542e+06
3.20838e+06
3.68598e+06
4.40082e+06
4.94218e+06
5.48349e+06
5.64417e+06
5.65737e+06
5.44099e+06
5.17765e+06
4.8694e+06
4.58002e+06
4.30712e+06
4.05266e+06
3.80995e+06
3.56822e+06
3.32841e+06
3.08647e+06
2.84943e+06
2.61844e+06
2.4e+06
2.19528e+06
2.00747e+06
1.83598e+06
1.68093e+06
1.54065e+06
1.41371e+06
1.29804e+06
1.19216e+06
1.09456e+06
1.0044e+06
920864
843605
772139
706448
645998
590825
540284
494483
452619
414880
380379
349193
320816
295427
2713.56
5650.43
8071.02
10642.6
13199.1
15625.6
17912.5
20017
21890.1
23504.4
24852.6
25959.7
26863.9
27622.1
28284.5
28906.5
29527.4
30189.7
30907.3
31699.8
32547.4
33441.5
34336.1
35216.9
36028.8
36782
37427.7
38008.3
38475.9
38905
39227.7
39563
39802.9
40124.1
40350
40751
41043.8
41644
42106.2
43079.9
43867.4
45529.1
47013.8
50121.8
53318
59598.8
66597
79947
97309.8
135940
199708
426778
1.39281e+06
2.18544e+06
2.62497e+06
3.12916e+06
3.54437e+06
4.15991e+06
4.62778e+06
5.11664e+06
5.28154e+06
5.32904e+06
5.163e+06
4.95222e+06
4.68948e+06
4.4394e+06
4.1969e+06
3.96739e+06
3.74356e+06
3.51724e+06
3.28918e+06
3.05682e+06
2.82708e+06
2.60192e+06
2.38784e+06
2.18647e+06
2.00103e+06
1.83117e+06
1.67709e+06
1.53727e+06
1.41038e+06
1.29447e+06
1.18817e+06
1.09008e+06
999413
915441
837828
766108
700262
639744
584579
534102
488411
446686
409108
374774
343773
315541
290361
2561.24
5295.27
7602.01
10080.9
12551.8
14907.5
17136.9
19198.6
21044.9
22647.9
23998.6
25119.4
26045.7
26831.9
27526.6
28183.6
28841.6
29542.1
30298.5
31128.7
32011.4
32935.6
33854.1
34750.9
35571.4
36325.2
36965.7
37534.7
37987.2
38396
38697.4
39006
39220.6
39509.2
39706.8
40067.9
40329
40878.5
41303.9
42211.1
42957.4
44532.9
45982.5
48989.8
52178.3
58327.1
65336.8
78475.1
95985
134583
199156
426895
1.39611e+06
2.18649e+06
2.608e+06
3.06167e+06
3.42379e+06
3.95439e+06
4.35682e+06
4.79332e+06
4.95434e+06
5.02484e+06
4.89986e+06
4.73442e+06
4.51285e+06
4.29921e+06
4.08558e+06
3.88012e+06
3.67476e+06
3.46369e+06
3.2474e+06
3.0247e+06
2.80242e+06
2.58328e+06
2.37374e+06
2.17587e+06
1.99294e+06
1.82485e+06
1.67184e+06
1.53259e+06
1.40583e+06
1.28977e+06
1.18313e+06
1.08463e+06
993559
909226
831338
759438
693506
632982
577882
527522
481986
440442
403060
368927
338140
310083
285132
2419.47
4965.87
7164.69
9554.5
11943.9
14232.5
16406.9
18427.2
20246.3
21836.2
23186.8
24318.2
25263.7
26075.4
26800.3
27490.9
28185.1
28923.4
29718.2
30585.9
31503.5
32457.8
33400.1
34313
35142.4
35897.7
36533.9
37092.7
37531.9
37922.5
38204.8
38489.6
38681.3
38940.9
39112.7
39438.4
39670.4
40174.9
40566.2
41414.4
42122.5
43623.3
45041.8
47966.9
51153.5
57200.6
64231.5
77216.5
94894.8
133563
198969
427426
1.39896e+06
2.18813e+06
2.59384e+06
3.00381e+06
3.32042e+06
3.77807e+06
4.12249e+06
4.50837e+06
4.65985e+06
4.7442e+06
4.65206e+06
4.52517e+06
4.3404e+06
4.16021e+06
3.97376e+06
3.79128e+06
3.60389e+06
3.4078e+06
3.20322e+06
2.99024e+06
2.77554e+06
2.56254e+06
2.35771e+06
2.1635e+06
1.98321e+06
1.81701e+06
1.66519e+06
1.5266e+06
1.40006e+06
1.28395e+06
1.17706e+06
1.07824e+06
986843
902236
824153
752149
686200
625735
570757
520563
475229
433906
396758
362857
332314
304459
279758
2287.56
4660.43
6756.79
9060.59
11372
13596.6
15718.6
17698.6
19490.3
21065.7
22413.9
23553.1
24515.1
25349.8
26103
26825.6
27554.9
28330.2
29163
30067.8
31020
32003.9
32969.7
33898.6
34737
35494.1
36126.8
36676.9
37103.9
37478.4
37743.3
38006.7
38177.7
38411.3
38559.5
38853.5
39058.7
39522.8
39882.4
40677.9
41350.3
42785.9
44177
47035.7
50225.6
56196.8
63257.9
76138.9
94004.5
132827
199088
428276
1.40126e+06
2.19011e+06
2.58196e+06
2.9539e+06
3.23121e+06
3.62596e+06
3.91911e+06
4.25709e+06
4.39528e+06
4.48625e+06
4.41976e+06
4.32513e+06
4.17291e+06
4.0231e+06
3.86202e+06
3.70134e+06
3.53127e+06
3.34982e+06
3.15684e+06
2.95356e+06
2.74652e+06
2.53978e+06
2.33977e+06
2.14936e+06
1.97185e+06
1.80765e+06
1.65713e+06
1.5193e+06
1.39309e+06
1.27701e+06
1.16997e+06
1.07092e+06
979287
894492
816297
744265
678369
618025
563225
513249
468162
427099
390220
356585
326313
298688
274257
2164.87
4377.28
6376.21
8596.79
10833.2
12996.7
15068.2
17009.2
18773.5
20333.3
21677
22821.6
23797.4
24652.9
25432.2
26185.4
26948.6
27760
28630
29571.2
30557.2
31570.3
32559
33503.6
34350.9
35110.3
35740.1
36282.2
36698.4
37058.3
37307.4
37551.6
37703.6
37913.8
38040.4
38305.8
38486
38913.6
39243.5
39991.5
40630.4
42008.8
43375.9
46181.7
49379.9
55296.9
62396.8
75215.6
93285.4
132332
199460
429365
1.40293e+06
2.1922e+06
2.5719e+06
2.91059e+06
3.15377e+06
3.49404e+06
3.74191e+06
4.03526e+06
4.15784e+06
4.24986e+06
4.20287e+06
4.13479e+06
4.01101e+06
3.88853e+06
3.75091e+06
3.61073e+06
3.45727e+06
3.29001e+06
3.10843e+06
2.91479e+06
2.71544e+06
2.51505e+06
2.31999e+06
2.13348e+06
1.95887e+06
1.7968e+06
1.64768e+06
1.51071e+06
1.38491e+06
1.26896e+06
1.16187e+06
1.06269e+06
970912
886018
807794
735811
670039
609878
555312
505604
460807
420045
383469
350130
320157
292788
268644
2050.78
4114.86
6021.07
8160.98
10325.1
12429.8
14452.8
16355.8
18092.9
19636
20973.4
22121.2
23108.6
23982.5
24786.1
25568.2
26363.9
27210.3
28116.6
29093.4
30112.5
31153.8
32164.8
33124.6
33980.6
34742.4
35369.6
35904.7
36310.9
36657.6
36892.4
37119.2
37253.8
37442.9
37549.4
37788.9
37945.8
38340.2
38641.9
39346.8
39953.9
41282.2
42628.5
45393.1
48604.3
54485.7
61632.4
74424.9
92713.6
132041
200045
430627
1.40393e+06
2.19421e+06
2.56329e+06
2.87277e+06
3.08614e+06
3.37904e+06
3.58694e+06
3.83913e+06
3.94489e+06
4.03374e+06
4.00107e+06
3.95443e+06
3.85521e+06
3.75705e+06
3.64092e+06
3.51988e+06
3.3822e+06
3.22861e+06
3.05819e+06
2.87409e+06
2.68243e+06
2.48844e+06
2.29842e+06
2.11592e+06
1.94431e+06
1.78446e+06
1.63685e+06
1.50084e+06
1.37556e+06
1.25983e+06
1.15279e+06
1.05356e+06
961745
876842
798674