/*--------------------------------*- C++ -*----------------------------------*\
| =========                 |                                                 |
| \\      /  F ield         | OpenFOAM: The Open Source CFD Toolbox           |
|  \\    /   O peration     | Version:  2412                                  |
|   \\  /    A nd           | Website:  www.openfoam.com                      |
|    \\/     M anipulation  |                                                 |
\*---------------------------------------------------------------------------*/
FoamFile
{
    version     2.0;
    format      ascii;
    arch        "LSB;label=32;scalar=64";
    class       volScalarField;
    location    "1";
    object      p;
}
// * * * * * * * * * * * * * * * * * * * * * * * * * * * * * * * * * * * * * //

dimensions      [0 2 -2 0 0 0 0];

internalField   nonuniform List<scalar> 
78408
(
117558
109515
108532
107853
107044
106456
105981
105524
105117
104716
104339
103960
103602
103243
102908
102569
102257
101922
101617
101268
100949
100554
100200
99717.2
99314
98716.3
98254.2
97507.3
96991.7
96035.4
95485.8
94239.5
93677.1
92006
91490.7
89188.7
88832
85551.2
85580.2
80753.4
81554.1
74241.5
76527
65121
70170.7
51909.7
62183.2
32364.9
52335.9
2218.95
39523.7
-51714.4
9481.64
-269252
-40206.9
-68305.5
1306.6
-31564.8
15382.1
-4704.49
24969.8
13518
32368.1
26523.7
38744.2
36327.7
44484.5
44012.2
49650.3
50197.4
54227.4
55263.6
58215.4
59423.5
61637.5
62848.5
64550.2
65689.8
67029.9
68072.7
69165.4
70109.3
71019
71876.1
72644.5
73426.9
74079.1
74797.4
75344.8
76022.3
76463.6
77117.8
77446.6
78106
78297.2
79006.7
79005.8
79837.3
79562.3
115604
108944
108405
107825
107031
106444
105971
105515
105109
104708
104332
103953
103596
103236
102902
102563
102252
101916
101612
101262
100944
100549
100195
99711
99307.6
98709.3
98247
97499.4
96983.6
96026.6
95476.7
94229.4
93666.6
91994.5
91478.7
89175.4
88818.1
85535.8
85563.6
80735.2
81534.1
74219.8
76502.4
65094.7
70139.6
51877.8
62143.1
32326.4
52283.2
2171.64
39445.8
-51795.3
9417.98
-268171
-40081
-68432
1272.32
-31579.1
15361.8
-4716.31
24955.1
13508.6
32356.9
26515.5
38735.1
36320.4
44476.7
44005.5
49643.4
50191.4
54221.4
55258.1
58210.1
59418.6
61632.8
62844.1
64546
65685.9
67026.1
68069.1
69161.8
70105.9
71015.7
71873
72641.3
73423.8
74076.1
74794.5
75342
76019.6
76460.9
77115.3
77444
78103.7
78294.6
79004.6
79003.3
79835.5
79560.1
115252
109077
108449
107825
107021
106435
105964
105509
105103
104703
104326
103947
103590
103231
102897
102558
102247
101912
101608
101258
100939
100544
100190
99705.5
99301.8
98703
98240.6
97492.1
96976.3
96018.3
95468.4
94219.8
93657.2
91983.3
91467.8
89162.3
88805.2
85520.2
85548.2
80716.5
81515.3
74197.2
76478.8
65066.9
70109.2
51843.6
62103.2
32284.8
52229.1
2119.96
39362.2
-51887.5
9390.25
-266877
-39973.6
-68587.1
1235.75
-31599.9
15334.2
-4732.18
24935.1
13496
32341.6
26504.6
38722.7
36310.5
44466.2
43996.6
49634.2
50183.2
54213.2
55250.7
58202.8
59412
61626.4
62838.2
64540.3
65680.5
67021
68064.2
69157.2
70101.4
71011.3
71868.8
72637.2
73419.9
74072.1
74790.9
75338.3
76016.2
76457.4
77112.3
77440.6
78101.1
78291.3
79002.6
79000
79834
79557
115193
109168
108446
107805
107008
106426
105957
105502
105097
104697
104321
103942
103585
103226
102892
102554
102243
101907
101603
101253
100935
100539
100185
99700.3
99296.6
98697
98234.7
97485.3
96969.7
96010.5
95461
94210.8
93648.8
91972.9
91458.3
89150
88794.2
85505.8
85535.1
80699.3
81499.5
74176.4
76459.1
65041.3
70083.9
51812.3
62069.9
32247.1
52183.9
2073.73
39291.3
-51969.5
9396.6
-265627
-39848.3
-68731.1
1208.41
-31619
15311.1
-4746.33
24918.2
13484.7
32328.6
26494.9
38712.1
36301.8
44457.3
43988.6
49626.3
50176
54206.1
55244.2
58196.5
59406.1
61620.8
62833
64535.3
65675.8
67016.6
68059.9
69153
70097.4
71007.4
71865
72633.4
73416.3
74068.5
74787.6
75334.8
76013.2
76454.1
77109.7
77437.5
78098.9
78288.2
79000.9
78996.7
79833
79553.7
114863
109135
108424
107786
106997
106417
105949
105495
105091
104691
104315
103936
103579
103221
102887
102549
102238
101903
101599
101249
100931
100534
100180
99694.9
99291.3
98690.9
98228.8
97478.3
96963.1
96002.6
95453.6
94201.6
93640.6
91962.3
91449
89137.5
88783.6
85491.1
85522.8
80681.7
81484.8
74155
76441.1
65015
70061
51780.2
62039.8
32208.3
52143
2026.4
39226.7
-52051.2
9403.59
-264356
-39678
-68877.7
1186.06
-31636.9
15291.8
-4759.46
24904
13474.4
32317.6
26486
38703.2
36293.9
44449.6
43981.6
49619.6
50169.7
54200.1
55238.4
58191.1
59401
61616
62828.4
64531
65671.7
67012.6
68056.1
69149.3
70093.9
71003.9
71861.6
72630
73413.1
74065.3
74784.7
75331.7
76010.5
76451.1
77107.3
77434.6
78096.9
78285.2
78999.4
78993.6
79832.3
79550.4
114546
109108
108419
107765
106984
106407
105940
105487
105084
104684
104308
103930
103574
103215
102882
102543
102233
101898
101594
101244
100926
100529
100175
99689.3
99285.7
98684.5
98222.7
97470.9
96956.4
95994.3
95446.1
94192
93632.2
91951.2
91439.7
89124.5
88773.1
85475.7
85510.6
80663.3
81470.6
74132.7
76423.7
64987.4
70039.1
51746.3
62011.2
32167.1
52104.2
1976.19
39164.9
-52135.9
9396.42
-263051
-39475.8
-69033.1
1165.44
-31655.2
15274
-4772.8
24890.7
13463.9
32307.2
26477
38694.6
36286.1
44442.4
43974.6
49613.1
50163.5
54194.3
55232.8
58185.9
59396
61611.3
62823.9
64526.8
65667.6
67008.8
68052.4
69145.7
70090.4
71000.4
71858.3
72626.7
73410
74062
74781.7
75328.6
76007.8
76448.2
77104.9
77431.7
78094.9
78282.3
78998
78990.4
79831.7
79547.1
114282
109081
108415
107741
106971
106397
105932
105479
105077
104677
104302
103923
103568
103209
102876
102538
102228
101893
101589
101239
100921
100524
100170
99683.5
99280
98677.9
98216.4
97463.4
96949.4
95985.7
95438.4
94182.1
93623.6
91939.7
91430.2
89111.1
88762.5
85459.9
85498.5
80644.2
81456.5
74109.5
76406.8
64958.8
70018
51710.9
61983.8
32124.2
52067.1
1923.75
39105
-52223.4
9373.66
-261736
-39255.8
-69193.6
1146.05
-31674.3
15256.9
-4786.53
24877.8
13453.1
32297
26467.8
38686.2
36278.1
44435.1
43967.6
49606.7
50157.2
54188.5
55227.2
58180.7
59390.9
61606.6
62819.4
64522.5
65663.5
67004.9
68048.7
69142
70086.9
70996.9
71854.9
72623.3
73406.8
74058.8
74778.8
75325.5
76005.1
76445.2
77102.5
77428.8
78092.9
78279.3
78996.6
78987.3
79831.3
79543.6
114027
109045
108409
107716
106957
106386
105923
105471
105070
104670
104295
103917
103561
103203
102871
102533
102222
101887
101585
101234
100916
100518
100165
99677.6
99274.2
98671.1
98210
97455.6
96942.3
95976.9
95430.5
94171.9
93614.9
91927.9
91420.6
89097.2
88751.8
85443.5
85486.3
80624.5
81442.4
74085.6
76390.1
64929.2
69997.4
51674.3
61957.2
32079.6
52031
1869.41
39046.1
-52314.2
9339.07
-260423
-39025.2
-69354.7
1127.77
-31694.1
15240.5
-4800.6
24865.2
13442.1
32287
26458.4
38677.9
36269.9
44428
43960.4
49600.4
50150.9
54182.7
55221.5
58175.5
59385.8
61601.9
62814.8
64518.3
65659.4
67001.1
68044.9
69138.4
70083.3
70993.4
71851.6
72619.9
73403.6
74055.5
74775.9
75322.4
76002.4
76442.2
77100.2
77425.8
78090.9
78276.3
78995.3
78984.1
79831
79540
113779
109007
108401
107691
106943
106375
105913
105463
105062
104663
104289
103910
103555
103197
102865
102527
102217
101882
101580
101229
100912
100513
100159
99671.6
99268.4
98664.2
98203.5
97447.7
96935
95967.9
95422.5
94161.5
93606
91915.8
91410.8
89082.9
88740.9
85426.6
85474
80604.2
81428.3
74060.9
76373.5
64898.6
69976.8
51636.6
61930.8
32033.5
51995.1
1813.12
38986.7
-52409.5
9297.81
-259117
-38788.4
-69513.7
1110.43
-31714.7
15225
-4814.99
24853.1
13430.9
32277.2
26448.8
38669.6
36261.6
44420.9
43953.2
49594
50144.5
54177
55215.8
58170.3
59380.7
61597.2
62810.3
64514.1
65655.3
66997.2
68041.1
69134.7
70079.7
70989.9
71848.2
72616.5
73400.4
74052.2
74772.9
75319.2
75999.7
76439.1
77097.8
77422.9
78089
78273.3
78994
78980.8
79830.8
79536.3
113542
108969
108392
107666
106930
106364
105904
105455
105055
104656
104282
103904
103549
103191
102860
102521
102212
101877
101575
101224
100907
100508
100154
99665.6
99262.5
98657.3
98197
97439.7
96927.8
95958.8
95414.4
94151
93597.1
91903.6
91400.9
89068.5
88729.9
85409.4
85461.5
80583.5
81414.1
74035.6
76356.7
64867.1
69956.3
51597.6
61904.2
31985.9
51958.8
1754.74
38925.9
-52509.7
9254.02
-257818
-38547.6
-69669
1094.04
-31736.1
15210.1
-4829.71
24841.4
13419.4
32267.6
26439.1
38661.5
36253.2
44413.9
43945.9
49587.7
50138
54171.2
55210
58165.1
59375.6
61592.5
62805.7
64509.8
65651.1
66993.3
68037.3
69131
70076.1
70986.3
71844.8
72613.1
73397.2
74048.9
74769.9
75316
75997
76436.1
77095.4
77419.9
78087.1
78270.3
78992.7
78977.6
79830.8
79532.4
113315
108932
108381
107640
106916
106353
105895
105446
105047
104649
104275
103897
103543
103185
102854
102516
102207
101872
101570
101219
100902
100502
100149
99659.6
99256.7
98650.4
98190.5
97431.8
96920.6
95949.7
95406.4
94140.3
93588.2
91891.2
91391.1
89053.8
88718.9
85392
85449.1
80562.4
81399.8
74009.7
76339.9
64834.9
69935.6
51557.5
61877.4
31936.8
51922
1694.21
38863.5
-52614
9210.22
-256528
-38303.8
-69820.2
1078.76
-31758.2
15195.9
-4844.76
24830
13407.7
32258.2
26429.2
38653.5
36244.7
44406.9
43938.4
49581.4
50131.5
54165.5
55204.2
58159.9
59370.4
61587.8
62801
64505.5
65646.9
66989.4
68033.4
69127.3
70072.5
70982.7
71841.3
72609.6
73393.9
74045.5
74767
75312.8
75994.3
76433
77093.1
77416.9
78085.1
78267.2
78991.5
78974.3
79830.8
79528.5
113099
108896
108369
107615
106903
106342
105885
105438
105040
104642
104269
103891
103537
103179
102848
102510
102202
101867
101565
101214
100897
100497
100144
99653.6
99250.9
98643.5
98184
97423.8
96913.3
95940.6
95398.4
94129.7
93579.3
91878.8
91381.2
89039.1
88707.9
85374.4
85436.6
80541
81385.6
73983.5
76323.1
64802.1
69914.8
51516.5
61850.4
31886.3
51884.6
1631.64
38799.8
-52721
9167.81
-255245
-38057.9
-69967.4
1064.72
-31781
15182.3
-4860.15
24819
13395.8
32249
26419.1
38645.5
36236
44399.9
43931
49575.2
50125
54159.7
55198.3
58154.6
59365.1
61583.1
62796.4
64501.2
65642.7
66985.4
68029.5
69123.5
70068.9
70979.1
71837.9
72606.1
73390.6
74042.2
74764
75309.6
75991.6
76430
77090.7
77413.9
78083.2
78264.2
78990.3
78970.9
79830.9
79524.5
112891
108859
108356
107590
106889
106331
105876
105429
105032
104634
104262
103884
103531
103173
102843
102505
102196
101862
101560
101209
100892
100491
100138
99647.7
99245.1
98636.6
98177.6
97415.8
96906.1
95931.5
95390.4
94119
93570.4
91866.3
91371.4
89024.3
88697
85356.7
85424.2
80519.5
81371.4
73957
76306.3
64768.8
69894.1
51474.8
61823.2
31834.6
51846.8
1567.27
38735.3
-52829.3
9127.52
-253972
-37810.4
-70110.7
1052.01
-31804.3
15169.3
-4875.88
24808.3
13383.7
32239.9
26408.9
38637.6
36227.3
44393
43923.4
49568.9
50118.4
54154
55192.4
58149.4
59359.9
61578.3
62791.7
64496.9
65638.5
66981.4
68025.6
69119.7
70065.2
70975.5
71834.4
72602.6
73387.4
74038.8
74761
75306.4
75988.9
76426.9
77088.3
77410.8
78081.3
78261.1
78989.1
78967.6
79831.1
79520.4
112691
108823
108341
107564
106875
106320
105867
105421
105025
104627
104255
103878
103524
103167
102837
102499
102191
101857
101556
101204
100888
100486
100133
99641.7
99239.3
98629.8
98171.2
97407.9
96899
95922.4
95382.4
94108.4
93561.6
91853.9
91361.7
89009.4
88686.1
85338.9
85411.9
80497.8
81357.4
73930.2
76289.7
64735.2
69873.4
51432.4
61795.9
31781.9
51808.7
1501.45
38670.4
-52937.7
9089.75
-252707
-37562.4
-70250.5
1040.61
-31827.9
15156.9
-4891.92
24797.9
13371.4
32230.9
26398.5
38629.8
36218.4
44386.1
43915.8
49562.6
50111.7
54148.2
55186.4
58144.1
59354.6
61573.6
62787
64492.5
65634.2
66977.5
68021.7
69115.9
70061.5
70971.9
71830.9
72599.1
73384.1
74035.4
74757.9
75303.1
75986.1
76423.7
77085.9
77407.8
78079.4
78258
78987.9
78964.2
79831.4
79516.2
112499
108788
108326
107539
106862
106308
105857
105412
105017
104620
104248
103871
103518
103161
102831
102494
102186
101851
101551
101199
100883
100481
100128
99635.8
99233.6
98623
98164.8
97400
96891.9
95913.3
95374.6
94097.8
93552.9
91841.4
91352
88994.6
88675.3
85321.2
85399.7
80476.1
81343.4
73903.4
76273.2
64701.3
69852.8
51389.5
61768.6
31728.4
51770.4
1434.49
38605.3
-53045.4
9054.65
-251451
-37314.4
-70386.9
1030.43
-31851.8
15144.9
-4908.28
24787.8
13358.9
32222.2
26388
38622.1
36209.4
44379.2
43908
49556.4
50105
54142.5
55180.4
58138.9
59349.2
61568.8
62782.2
64488.2
65629.9
66973.5
68017.8
69112.1
70057.8
70968.2
71827.4
72595.5
73380.7
74032
74754.9
75299.9
75983.4
76420.6
77083.6
77404.7
78077.5
78254.8
78986.8
78960.8
79831.8
79511.9
112314
108752
108309
107514
106848
106297
105847
105403
105010
104612
104241
103864
103512
103155
102826
102488
102181
101846
101546
101194
100878
100476
100123
99630
99228
98616.2
98158.5
97392.1
96884.9
95904.3
95366.7
94087.2
93544.2
91829
91342.4
88979.8
88664.6
85303.4
85387.6
80454.4
81329.6
73876.4
76256.8
64667.1
69832.3
51346.2
61741.3
31674.2
51732
1366.7
38540.4
-53151.8
9022.27
-250204
-37066.9
-70520.3
1021.34
-31875.8
15133.4
-4924.91
24777.9
13346.1
32213.5
26377.3
38614.4
36200.3
44372.4
43900.2
49550.2
50098.2
54136.7
55174.4
58133.6
59343.9
61564
62777.4
64483.8
65625.6
66969.4
68013.8
69108.3
70054.1
70964.5
71823.8
72592
73377.4
74028.5
74751.8
75296.6
75980.6
76417.5
77081.2
77401.7
78075.6
78251.7
78985.7
78957.3
79832.3
79507.5
112136
108717
108291
107488
106834
106285
105838
105395
105002
104605
104234
103857
103505
103149
102820
102483
102176
101841
101541
101189
100874
100470
100118
99624.2
99222.4
98609.5
98152.3
97384.3
96877.9
95895.3
95359
94076.7
93535.6
91816.7
91332.9
88965.1
88654
85285.6
85375.6
80432.6
81315.9
73849.3
76240.5
64632.9
69811.8
51302.6
61714
31619.5
51693.7
1298.31
38475.6
-53256.5
8992.57
-248967
-36820.3
-70651.1
1013.19
-31899.9
15122.4
-4941.81
24768.4
13333.2
32205.1
26366.4
38606.8
36191.1
44365.6
43892.4
49544
50091.4
54131
55168.3
58128.3
59338.4
61559.2
62772.6
64479.4
65621.2
66965.4
68009.8
69104.4
70050.3
70960.8
71820.3
72588.4
73374.1
74025.1
74748.8
75293.3
75977.8
76414.3
77078.8
77398.6
78073.7
78248.5
78984.6
78953.9
79832.8
79503
111964
108682
108272
107463
106820
106273
105828
105386
104994
104598
104227
103851
103499
103142
102814
102477
102171
101836
101537
101184
100869
100465
100113
99618.4
99216.9
98602.8
98146.1
97376.6
96871.1
95886.4
95351.3
94066.2
93527.1
91804.4
91323.5
88950.4
88643.5
85267.9
85363.7
80410.9
81302.3
73822.3
76224.4
64598.5
69791.5
51258.6
61686.8
31564.4
51655.5
1229.54
38411.3
-53359.1
8965.45
-247739
-36574.8
-70779.4
1005.82
-31923.9
15111.9
-4958.94
24759.1
13320
32196.7
26355.4
38599.3
36181.8
44358.8
43884.4
49537.7
50084.5
54125.2
55162.2
58123
59333
61554.4
62767.8
64475
65616.9
66961.3
68005.8
69100.6
70046.5
70957
71816.7
72584.8
73370.7
74021.6
74745.7
75290
75975.1
76411.1
77076.4
77395.4
78071.9
78245.3
78983.5
78950.4
79833.4
79498.5
111798
108647
108252
107438
106807
106261
105819
105377
104986
104590
104220
103844
103493
103136
102808
102472
102165
101831
101532
101179
100864
100460
100108
99612.7
99211.4
98596.2
98140
97368.9
96864.2
95877.5
95343.7
94055.8
93518.7
91792.1
91314.1
88935.7
88633.2
85250.2
85352
80389.1
81288.8
73795.2
76208.4
64564
69771.3
51214.5
61659.6
31509
51617.3
1160.56
38347.5
-53459.3
8940.81
-246520
-36330.7
-70905.5
999.106
-31948
15101.8
-4976.27
24750.1
13306.7
32188.5
26344.3
38591.8
36172.4
44352.1
43876.4
49531.5
50077.5
54119.4
55156
58117.7
59327.6
61549.5
62763
64470.6
65612.5
66957.3
68001.8
69096.7
70042.7
70953.3
71813.1
72581.2
73367.3
74018.1
74742.6
75286.6
75972.3
76407.9
77074
77392.3
78070
78242.1
78982.5
78946.9
79834.1
79493.8
111638
108612
108231
107413
106793
106249
105809
105369
104979
104583
104213
103837
103486
103130
102803
102466
102160
101826
101527
101174
100860
100455
100103
99607.1
99206
98589.6
98133.9
97361.3
96857.5
95868.7
95336.2
94045.5
93510.4
91779.9
91304.9
88921.1
88622.9
85232.6
85340.4
80367.5
81275.5
73768.1
76192.5
64529.4
69751.2
51170.1
61632.5
31453.3
51579.3
1091.52
38284.2
-53557.2
8918.52
-245310
-36088
-71029.7
992.906
-31972
15092.1
-4993.78
24741.3
13293.2
32180.4
26333
38584.4
36162.9
44345.4
43868.4
49525.3
50070.5
54113.6
55149.8
58112.4
59322.1
61544.7
62758.1
64466.2
65608.1
66953.2
67997.7
69092.8
70038.9
70949.5
71809.5
72577.5
73363.9
74014.6
74739.6
75283.3
75969.5
76404.7
77071.7
77389.2
78068.1
78238.9
78981.4
78943.3
79834.9
79489.1
111484
108577
108210
107389
106779
106237
105799
105360
104971
104575
104206
103830
103480
103124
102797
102461
102155
101821
101523
101170
100855
100450
100098
99601.4
99200.6
98583.1
98127.9
97353.7
96850.8
95860
95328.8
94035.2
93502.1
91767.8
91295.8
88906.6
88612.7
85215
85328.8
80345.8
81262.4
73741.1
76176.8
64494.8
69731.2
51125.6
61605.5
31397.4
51541.6
1022.54
38221.6
-53652.6
8898.48
-244109
-35846.9
-71151.9
987.118
-31996
15082.8
-5011.44
24732.7
13279.6
32172.4
26321.6
38577.1
36153.3
44338.7
43860.2
49519.2
50063.5
54107.8
55143.6
58107
59316.5
61539.8
62753.2
64461.8
65603.7
66949.1
67993.7
69088.9
70035.1
70945.8
71805.9
72573.9
73360.6
74011.1
74736.5
75279.9
75966.7
76401.5
77069.3
77386
78066.3
78235.7
78980.4
78939.8
79835.8
79484.3
111334
108542
108187
107364
106765
106225
105789
105351
104963
104568
104199
103824
103473
103118
102791
102455
102150
101816
101518
101165
100851
100445
100094
99595.9
99195.3
98576.7
98122
97346.2
96844.1
95851.3
95321.4
94025
93493.9
91755.8
91286.7
88892.2
88602.6
85197.5
85317.4
80324.2
81249.3
73714
76161.2
64460.1
69711.2
51081
61578.6
31341.3
51504
953.722
38159.6
-53745.4
8880.56
-242918
-35607.2
-71272.5
981.651
-32020.1
15073.9
-5029.22
24724.4
13265.7
32164.6
26310.1
38569.8
36143.6
44332.1
43852
49513
50056.4
54102.1
55137.3
58101.7
59311
61535
62748.3
64457.3
65599.3
66945
67989.6
69085
70031.3
70942
71802.3
72570.2
73357.2
74007.6
74733.4
75276.5
75963.9
76398.2
77066.9
77382.8
78064.4
78232.4
78979.5
78936.2
79836.7
79479.4
111190
108508
108164
107339
106751
106213
105780
105342
104955
104560
104192
103817
103467
103112
102786
102450
102145
101811
101514
101160
100847
100440
100089
99590.4
99190
98570.3
98116.1
97338.7
96837.6
95842.7
95314.1
94014.9
93485.8
91743.8
91277.8
88877.8
88592.7
85180.1
85306.2
80302.7
81236.4
73687
76145.7
64425.4
69691.4
51036.2
61551.7
31285.2
51466.7
885.142
38098.4
-53835.6
8864.64
-241735
-35369.1
-71391.3
976.431
-32044.2
15065.2
-5047.12
24716.3
13251.8
32156.9
26298.4
38562.6
36133.8
44325.5
43843.7
49506.8
50049.3
54096.3
55131
58096.3
59305.4
61530.1
62743.4
64452.9
65594.8
66940.9
67985.5
69081
70027.4
70938.2
71798.6
72566.6
73353.7
74004
74730.3
75273.2
75961.1
76395
77064.5
77379.7
78062.6
78229.2
78978.5
78932.6
79837.7
79474.4
111050
108473
108140
107315
106737
106201
105770
105333
104947
104553
104185
103810
103461
103106
102780
102444
102140
101807
101509
101156
100842
100435
100084
99584.9
99184.8
98563.9
98110.3
97331.3
96831.1
95834.1
95306.9
94004.8
93477.8
91731.9
91268.9
88863.5
88582.8
85162.7
85295
80281.2
81223.6
73660.1
76130.4
64390.6
69671.6
50991.3
61525
31229
51429.7
816.87
38038
-53923.3
8850.61
-240562
-35132.6
-71508.5
971.4
-32068.5
15056.7
-5065.12
24708.3
13237.7
32149.3
26286.6
38555.4
36123.9
44318.9
43835.3
49500.6
50042
54090.5
55124.6
58091
59299.8
61525.2
62738.4
64448.4
65590.4
66936.8
67981.4
69077.1
70023.6
70934.4
71795
72562.9
73350.3
74000.5
74727.2
75269.8
75958.4
76391.7
77062.1
77376.5
78060.8
78225.9
78977.6
78928.9
79838.8
79469.4
110915
108438
108116
107290
106722
106188
105760
105324
104940
104545
104178
103803
103454
103099
102775
102439
102135
101802
101505
101151
100838
100430
100080
99579.5
99179.7
98557.6
98104.6
97324
96824.7
95825.6
95299.7
93994.8
93469.9
91720.1
91260.1
88849.2
88573
85145.4
85283.9
80259.8
81210.9
73633.1
76115.1
64355.9
69651.9
50946.3
61498.4
31172.7
51392.9
748.959
37978.2
-54008.4
8838.37
-239398
-34897.7
-71624.2
966.51
-32092.9
15048.5
-5083.22
24700.6
13223.4
32141.7
26274.7
38548.3
36113.9
44312.3
43826.9
49494.4
50034.8
54084.6
55118.2
58085.6
59294.2
61520.3
62733.4
64443.9
65585.9
66932.6
67977.3
69073.1
70019.7
70930.6
71791.3
72559.2
73346.9
73996.9
74724
75266.3
75955.6
76388.4
77059.8
77373.2
78059
78222.6
78976.7
78925.3
79839.9
79464.3
110784
108404
108091
107266
106708
106176
105750
105315
104932
104538
104171
103796
103448
103093
102769
102433
102130
101797
101500
101146
100834
100426
100075
99574.1
99174.6
98551.4
98098.9
97316.7
96818.3
95817.2
95292.6
93984.9
93462
91708.3
91251.4
88835
88563.3
85128.2
85273
80238.5
81198.3
73606.2
76099.9
64321.1
69632.3
50901.3
61471.8
31116.5
51356.5
681.451
37919.3
-54091
8827.83
-238242
-34664.2
-71738.3
961.728
-32117.4
15040.5
-5101.41
24693
13209
32134.3
26262.6
38541.2
36103.8
44305.7
43818.4
49488.2
50027.5
54078.8
55111.8
58080.2
59288.5
61515.4
62728.4
64439.4
65581.4
66928.5
67973.2
69069.2
70015.8
70926.7
71787.7
72555.5
73343.5
73993.4
74720.9
75262.9
75952.8
76385.1
77057.4
77370
78057.2
78219.3
78975.8
78921.6
79841.1
79459.1
110658
108369
108066
107241
106694
106164
105740
105306
104924
104530
104164
103789
103442
103087
102763
102428
102125
101792
101496
101142
100830
100421
100071
99568.8
99169.5
98545.2
98093.2
97309.5
96812
95808.8
95285.6
93975
93454.3
91696.6
91242.8
88820.9
88553.8
85111
85262.1
80217.2
81185.8
73579.3
76084.8
64286.2
69612.7
50856.1
61445.4
31060.3
51320.4
614.379
37861.1
-54171.1
8818.88
-237096
-34432.3
-71850.9
957.026
-32142.1
15032.5
-5119.7
24685.5
13194.6
32127
26250.4
38534.2
36093.6
44299.2
43809.8
49482
50020.1
54073
55105.3
58074.8
59282.8
61510.5
62723.4
64435
65576.9
66924.3
67969
69065.2
70012
70922.9
71784
72551.8
73340
73989.8
74717.8
75259.5
75950
76381.8
77055
77366.8
78055.4
78216
78974.9
78917.9
79842.4
79453.8
110535
108335
108040
107217
106679
106151
105730
105297
104916
104522
104157
103783
103435
103081
102758
102423
102121
101787
101492
101137
100825
100416
100066
99563.6
99164.6
98539.1
98087.6
97302.3
96805.8
95800.5
95278.7
93965.2
93446.6
91685
91234.3
88806.9
88544.3
85093.9
85251.4
80196
81173.5
73552.4
76069.8
64251.4
69593.1
50810.9
61419.1
31004.2
51284.5
547.771
37803.6
-54248.9
8811.45
-235958
-34202
-71962
952.386
-32167
15024.7
-5138.08
24678.2
13179.9
32119.8
26238.1
38527.2
36083.3
44292.6
43801.1
49475.8
50012.7
54067.1
55098.8
58069.4
59277.1
61505.6
62718.4
64430.5
65572.4
66920.2
67964.9
69061.2
70008.1
70919
71780.3
72548.1
73336.6
73986.2
74714.7
75256
75947.1
76378.5
77052.7
77363.5
78053.6
78212.6
78974.1
78914.2
79843.8
79448.4
110416
108301
108013
107193
106665
106138
105720
105288
104908
104515
104150
103776
103429
103075
102752
102417
102116
101783
101487
101133
100821
100412
100062
99558.4
99159.6
98533
98082.1
97295.2
96799.6
95792.3
95271.8
93955.5
93438.9
91673.4
91225.9
88792.9
88534.8
85076.9
85240.7
80174.8
81161.2
73525.6
76054.9
64216.5
69573.6
50765.7
61392.8
30948.1
51249
481.646
37746.9
-54324.3
8805.44
-234829
-33973
-72071.5
947.796
-32192.1
15017
-5156.57
24671.1
13165.2
32112.6
26225.8
38520.2
36072.9
44286.1
43792.4
49469.6
50005.2
54061.3
55092.2
58064
59271.4
61500.6
62713.4
64426
65567.9
66916
67960.7
69057.2
70004.2
70915.2
71776.6
72544.3
73333.2
73982.6
74711.5
75252.6
75944.3
76375.2
77050.3
77360.3
78051.8
78209.3
78973.3
78910.4
79845.2
79443
110301
108266
107987
107169
106650
106126
105710
105279
104900
104507
104143
103769
103423
103069
102747
102412
102111
101778
101483
101129
100817
100407
100057
99553.2
99154.8
98527
98076.7
97288.2
96793.5
95784.1
95265
93945.8
93431.4
91661.9
91217.5
88779.1
88525.5
85060
85230.1
80153.6
81149
73498.8
76040
64181.5
69554.2
50720.3
61366.7
30892.1
51213.8
416.019
37691
-54397.3
8800.79
-233709
-33745.6
-72179.6
943.249
-32217.5
15009.3
-5175.16
24664
13150.4
32105.6
26213.3
38513.3
36062.5
44279.6
43783.6
49463.4
49997.6
54055.4
55085.6
58058.5
59265.6
61495.7
62708.3
64421.5
65563.3
66911.8
67956.6
69053.2
70000.3
70911.4
71773
72540.6
73329.7
73979
74708.4
75249.1
75941.5
76371.9
77047.9
77357
78050
78205.9
78972.5
78906.7
79846.7
79437.5
110190
108232
107959
107145
106636
106113
105700
105270
104892
104500
104136
103762
103416
103063
102741
102407
102106
101773
101479
101124
100813
100402
100053
99548.1
99150
98521
98071.2
97281.2
96787.4
95776
95258.3
93936.2
93423.9
91650.5
91209.2
88765.2
88516.3
85043.1
85219.6
80132.6
81136.8
73472
76025.1
64146.5
69534.7
50674.9
61340.7
30836.3
51179
350.899
37635.7
-54468.2
8797.42
-232598
-33519.5
-72286.2
938.741
-32243
15001.6
-5193.87
24657
13135.5
32098.6
26200.6
38506.4
36051.9
44273
43774.7
49457.2
49990
54049.5
55079
58053.1
59259.8
61490.7
62703.2
64416.9
65558.8
66907.7
67952.4
69049.2
69996.4
70907.5
71769.3
72536.9
73326.3
73975.3
74705.2
75245.6
75938.7
76368.5
77045.6
77353.7
78048.3
78202.5
78971.8
78902.9
79848.2
79432
110082
108198
107932
107122
106621
106100
105690
105261
104884
104492
104129
103755
103410
103057
102736
102401
102101
101769
101475
101120
100809
100398
100049
99543.1
99145.2
98515.1
98065.9
97274.3
96781.5
95767.9
95251.6
93926.7
93416.5
91639.1
91201
88751.5
88507.1
85026.2
85209.2
80111.6
81124.8
73445.2
76010.3
64111.5
69515.3
50629.5
61314.8
30780.5
51144.4
286.293
37581.2
-54536.8
8795.26
-231495
-33294.9
-72391.2
934.272
-32268.7
14994
-5212.69
24650.2
13120.5
32091.6
26187.9
38499.6
36041.2
44266.5
43765.7
49451
49982.4
54043.6
55072.3
58047.6
59254
61485.8
62698.1
64412.4
65554.2
66903.5
67948.3
69045.3
69992.5
70903.6
71765.6
72533.1
73322.8
73971.7
74702.1
75242.2
75935.9
76365.2
77043.2
77350.4
78046.6
78199.2
78971
78899.1
79849.8
79426.3
109977
108164
107904
107098
106606
106087
105679
105252
104876
104484
104122
103748
103404
103051
102730
102396
102097
101764
101471
101116
100805
100394
100045
99538.1
99140.5
98509.3
98060.6
97267.4
96775.5
95759.9
95245
93917.2
93409.1
91627.8
91192.8
88737.8
88498
85009.4
85198.9
80090.6
81112.8
73418.4
75995.6
64076.4
69495.9
50584
61289
30724.9
51110.2
222.206
37527.4
-54603.3
8794.23
-230401
-33071.6
-72494.8
929.844
-32294.7
14986.4
-5231.64
24643.3
13105.4
32084.7
26175.1
38492.7
36030.5
44260
43756.7
49444.7
49974.6
54037.6
55065.6
58042.1
59248.1
61480.8
62693
64407.9
65549.7
66899.3
67944.1
69041.3
69988.6
70899.8
71761.9
72529.4
73319.4
73968.1
74699
75238.7
75933.1
76361.8
77040.9
77347.1
78044.8
78195.7
78970.3
78895.2
79851.5
79420.6
109876
108130
107876
107075
106592
106075
105669
105243
104868
104477
104115
103742
103397
103045
102725
102391
102092
101760
101467
101112
100802
100389
100041
99533.1
99135.8
98503.5
98055.3
97260.6
96769.6
95751.9
95238.4
93907.8
93401.8
91616.6
91184.7
88724.2
88489
84992.7
85188.6
80069.6
81100.8
73391.6
75980.8
64041.2
69476.4
50538.5
61263.3
30669.3
51076.3
158.637
37474.2
-54667.7
8794.29
-229316
-32849.7
-72596.8
925.461
-32320.8
14978.7
-5250.7
24636.5
13090.2
32077.9
26162.2
38485.9
36019.6
44253.5
43747.5
49438.4
49966.9
54031.7
55058.8
58036.7
59242.2
61475.8
62687.9
64403.4
65545.1
66895.1
67939.9
69037.3
69984.7
70895.9
71758.2
72525.7
73315.9
73964.5
74695.8
75235.2
75930.3
76358.4
77038.5
77343.8
78043.1
78192.3
78969.6
78891.4
79853.2
79414.9
109778
108096
107848
107051
106577
106062
105659
105233
104860
104469
104108
103735
103391
103039
102719
102386
102087
101755
101463
101107
100798
100385
100036
99528.2
99131.2
98497.7
98050.1
97253.9
96763.8
95744
95231.9
93898.4
93394.6
91605.4
91176.7
88710.6
88480
84976.1
85178.4
80048.7
81088.9
73364.8
75966
64006
69457
50493
61237.7
30614
51042.7
95.5856
37421.7
-54730.1
8795.36
-228239
-32629.2
-72697.3
921.129
-32347.1
14971.1
-5269.9
24629.8
13074.9
32071.1
26149.2
38479.1
36008.7
44246.9
43738.3
49432.2
49959
54025.7
55052
58031.2
59236.3
61470.8
62682.7
64398.8
65540.5
66891
67935.7
69033.3
69980.7
70892.1
71754.5
72521.9
73312.5
73960.8
74692.7
75231.7
75927.5
76355
77036.2
77340.5
78041.4
78188.9
78969
78887.5
79855
79409.1
109682
108063
107819
107028
106562
106049
105649
105224
104852
104461
104100
103728
103385
103033
102714
102381
102083
101751
101459
101103
100794
100381
100032
99523.4
99126.6
98492
98045
97247.1
96758.1
95736.2
95225.4
93889.1
93387.4
91594.3
91168.7
88697.1
88471.1
84959.4
85168.3
80027.9
81077.1
73338
75951.3
63970.7
69437.6
50447.4
61212.3
30558.8
51009.5
33.0496
37369.9
-54790.6
8797.39
-227170
-32409.9
-72796.3
916.853
-32373.7
14963.4
-5289.22
24623.1
13059.4
32064.4
26136.1
38472.3
35997.6
44240.4
43729
49425.9
49951.1
54019.7
55045.1
58025.6
59230.4
61465.8
62677.6
64394.3
65535.9
66886.8
67931.5
69029.3
69976.8
70888.2
71750.9
72518.2
73309
73957.2
74689.5
75228.2
75924.7
76351.6
77033.9
77337.1
78039.7
78185.5
78968.4
78883.6
79856.8
79403.2
109590
108029
107791
107005
106547
106036
105638
105215
104844
104453
104093
103721
103378
103027
102709
102376
102078
101746
101455
101099
100790
100376
100028
99518.5
99122.1
98486.4
98039.9
97240.5
96752.3
95728.4
95219.1
93879.8
93380.3
91583.2
91160.9
88683.6
88462.3
84942.9
85158.2
80007
81065.3
73311.1
75936.5
63935.3
69418.2
50401.8
61186.9
30503.7
50976.5
-28.9755
37318.6
-54849.1
8800.32
-226110
-32192
-72893.7
912.64
-32400.3
14955.7
-5308.66
24616.4
13043.9
32057.6
26122.9
38465.5
35986.5
44233.8
43719.7
49419.5
49943.1
54013.7
55038.2
58020.1
59224.4
61460.8
62672.4
64389.8
65531.3
66882.6
67927.4
69025.3
69972.9
70884.4
71747.2
72514.4
73305.6
73953.5
74686.4
75224.6
75921.9
76348.2
77031.6
77333.8
78038.1
78182
78967.8
78879.7
79858.7
79397.2
109500
107996
107762
106982
106532
106022
105628
105205
104835
104446
104086
103714
103372
103021
102703
102371
102074
101742
101451
101095
100787
100372
100024
99513.8
99117.7
98480.8
98034.9
97233.9
96746.7
95720.7
95212.7
93870.7
93373.3
91572.2
91153
88670.2
88453.5
84926.4
85148.2
79986.2
81053.5
73284.2
75921.8
63899.9
69398.8
50356.2
61161.7
30448.9
50943.8
-90.4949
37268
-54905.7
8804.09
-225058
-31975.3
-72989.6
908.498
-32427.2
14947.9
-5328.23
24609.7
13028.3
32050.9
26109.6
38458.8
35975.3
44227.3
43710.3
49413.2
49935.1
54007.7
55031.3
58014.6
59218.4
61455.8
62667.2
64385.2
65526.7
66878.4
67923.2
69021.3
69969.1
70880.5
71743.5
72510.7
73302.1
73949.9
74683.3
75221.1
75919.1
76344.8
77029.2
77330.4
78036.4
78178.5
78967.2
78875.8
79860.7
79391.3
109413
107962
107733
106959
106517
106009
105618
105196
104827
104438
104079
103708
103366
103015
102698
102365
102069
101738
101447
101091
100783
100368
100021
99509.1
99113.3
98475.2
98029.9
97227.4
96741.1
95713
95206.5
93861.5
93366.3