/*--------------------------------*- C++ -*----------------------------------*\
| =========                 |                                                 |
| \\      /  F ield         | OpenFOAM: The Open Source CFD Toolbox           |
|  \\    /   O peration     | Version:  2412                                  |
|   \\  /    A nd           | Website:  www.openfoam.com                      |
|    \\/     M anipulation  |                                                 |
\*---------------------------------------------------------------------------*/
FoamFile
{
    version     2.0;
    format      ascii;
    arch        "LSB;label=32;scalar=64";
    class       surfaceScalarField;
    location    "1";
    object      phi;
}
// * * * * * * * * * * * * * * * * * * * * * * * * * * * * * * * * * * * * * //

dimensions      [0 3 -1 0 0 0 0];

oriented        oriented;

internalField   nonuniform List<scalar> 
155925
(
0.00839075
-0.000814987
0.00770075
0.000689992
0.00844717
-0.000746415
0.00867378
-0.00022661
0.00866386
9.91615e-06
0.00856029
0.000103572
0.00841433
0.000145962
0.00824949
0.000164843
0.00810277
0.000146721
0.00795851
0.000144258
0.00782456
0.000133953
0.00768463
0.000139923
0.00754757
0.000137063
0.00740132
0.000146254
0.00725767
0.000143647
0.00710602
0.000151651
0.00696414
0.000141882
0.00681339
0.000150748
0.00667958
0.000133803
0.00653686
0.000142728
0.00641798
0.000118879
0.00628707
0.000130912
0.00619013
9.6932e-05
0.00606854
0.000121593
0.00599293
7.5607e-05
0.00587703
0.000115904
0.00582152
5.55079e-05
0.00570521
0.000116315
0.00567312
3.20849e-05
0.00554774
0.000125384
0.00554412
3.6151e-06
0.00539964
0.00014449
0.00543142
-3.17847e-05
0.00525894
0.000172478
0.00533856
-7.96218e-05
0.00512532
0.000213246
0.0052699
-0.000144578
0.00499573
0.000274166
0.00522777
-0.000232033
0.00487004
0.000357726
0.00521608
-0.000346043
0.00474655
0.000469538
0.00523877
-0.000492223
0.0046256
0.000613169
0.00529653
-0.000670933
0.0044986
0.000797935
0.00537353
-0.000874927
0.00435793
0.0010156
0.00546391
-0.00110598
0.00425275
0.00121116
0.00566076
-0.00140801
0.0046807
0.000980057
0.00746136
-0.00278066
0.00407525
0.00338612
0.00438655
-0.00031131
0.00314942
0.00123713
0.00388612
-0.0007367
0.00312834
0.000757781
0.00376925
-0.00064091
0.00315489
0.000614367
0.00366633
-0.000511441
0.00319197
0.000474354
0.00357441
-0.000382441
0.00321401
0.000360399
0.00348297
-0.000268962
0.00321912
0.000263853
0.00340294
-0.000183815
0.00322032
0.000182617
0.00334547
-0.000125157
0.00322359
0.000121879
0.0033062
-8.25998e-05
0.00322585
8.03469e-05
0.00327837
-5.25225e-05
0.0032263
5.20699e-05
0.00325949
-3.31869e-05
0.00322847
3.10206e-05
0.00325075
-2.22796e-05
0.0032372
1.35459e-05
0.00325418
-1.69786e-05
0.00325386
3.24504e-07
0.00326912
-1.52684e-05
0.00328056
-1.1438e-05
0.00329683
-1.6269e-05
0.00331945
-2.2614e-05
0.00333701
-1.75654e-05
0.00336958
-3.25653e-05
0.00338721
-1.76338e-05
0.00342845
-4.124e-05
0.00344071
-1.22608e-05
0.00349205
-5.1337e-05
0.0034944
-2.3525e-06
0.00355844
-6.40443e-05
0.00354345
1.49956e-05
0.0036297
-8.62527e-05
0.00358575
4.395e-05
0.00371463
-0.000128884
0.00361575
9.88827e-05
0.00383681
-0.000221066
0.000160541
0.0110388
-0.00427801
0.00999125
0.00173752
0.00993847
-0.000693643
0.00988937
-0.000177503
0.00983357
6.57159e-05
0.0097709
0.000166237
0.00967933
0.000237533
0.00954949
0.000294683
0.00940579
0.000290421
0.00924908
0.000300973
0.0090937
0.000289327
0.00893427
0.000299352
0.00877765
0.000293683
0.00861565
0.00030826
0.00845475
0.000304543
0.00828695
0.000319447
0.00812438
0.000304453
0.00795514
0.000319992
0.0077967
0.000292244
0.00763325
0.000306181
0.00748702
0.000265102
0.00733542
0.00028252
0.00720982
0.000222528
0.00707215
0.000259268
0.00696819
0.000179559
0.00684227
0.000241832
0.00675859
0.000139184
0.00663903
0.000235871
0.00657651
9.4608e-05
0.00645676
0.000245136
0.00641695
4.34245e-05
0.00629386
0.000267584
0.00628207
-2.0001e-05
0.0061477
0.000306854
0.00616973
-0.000101656
0.00601593
0.000367046
0.0060821
-0.000210748
0.00589727
0.000459004
0.0060203
-0.000355064
0.00579186
0.000586167
0.00598689
-0.000541076
0.00569933
0.000757095
0.005984
-0.000776887
0.00562017
0.000976996
0.00601088
-0.00106164
0.00554605
0.00126276
0.00604825
-0.00137713
0.0054642
0.00159965
0.00608425
-0.00172602
0.00542035
0.00187505
0.00619833
-0.00218599
0.00592752
0.00125087
0.00809118
-0.00494432
0.005834
0.0056433
0.00503588
0.000486815
0.00408763
0.00218538
0.00427905
-0.000928123
0.00392949
0.00110734
0.00413174
-0.000843159
0.00387243
0.000873679
0.00403438
-0.000673397
0.00383989
0.000668848
0.003955
-0.000497551
0.0038028
0.000512596
0.00387286
-0.000339019
0.00375542
0.000381294
0.00379515
-0.000223548
0.00371117
0.000266595
0.00373518
-0.000149165
0.00367832
0.000178736
0.00369217
-9.64504e-05
0.00365384
0.000118679
0.00366102
-5.97006e-05
0.00363554
7.75451e-05
0.00363975
-3.73931e-05
0.00362504
4.57296e-05
0.00362984
-2.70833e-05
0.00362572
1.76652e-05
0.00363365
-2.49054e-05
0.00363867
-4.69679e-06
0.00365166
-2.82585e-05
0.00366633
-2.61085e-05
0.00368542
-3.53545e-05
0.00370963
-4.68278e-05
0.00373447
-4.24037e-05
0.00376689
-6.49825e-05
0.00379586
-4.6603e-05
0.00383419
-7.95683e-05
0.00386279
-4.08684e-05
0.00390594
-9.44849e-05
0.00393154
-2.79537e-05
0.00398032
-0.000112825
0.00399983
-4.51326e-06
0.00405808
-0.000144506
0.00406778
3.42571e-05
0.0041464
-0.000207504
0.00413554
0.000109736
0.0042669
-0.000352422
0.000185541
0.00899295
-0.0056952
0.00972946
0.00100102
0.0103027
-0.00126689
0.0103408
-0.000215581
0.0102538
0.000152748
0.0101505
0.000269519
0.0100372
0.000350804
0.00990854
0.000423342
0.00977671
0.000422252
0.00963749
0.000440194
0.00949825
0.000428567
0.00935454
0.000443058
0.00921087
0.000437361
0.00906154
0.00045759
0.00891084
0.000455243
0.00875317
0.000477111
0.00859708
0.000460547
0.00843439
0.000482685
0.00827797
0.000448662
0.00811708
0.000467065
0.00796846
0.00041372
0.00781646
0.00043452
0.00768456
0.000354434
0.00754531
0.000398514
0.00743262
0.000292253
0.00730563
0.000368822
0.00721171
0.000233106
0.00709316
0.000354415
0.00701864
0.000169132
0.0069033
0.000360475
0.00684902
9.77084e-05
0.00673349
0.000383115
0.00670387
9.61603e-06
0.00658251
0.00042821
0.00658204
-0.000101179
0.00644801
0.00050107
0.00648483
-0.000247569
0.00632852
0.000615316
0.00641308
-0.000439624
0.00622415
0.000775102
0.00636926
-0.000686189
0.0061348
0.00099156
0.00635558
-0.00099767
0.00606106
0.00127151
0.00637159
-0.00137217
0.00599488
0.00163948
0.00639821
-0.00178046
0.0059227
0.00207516
0.00642158
-0.00222491
0.00588999
0.00240665
0.00651943
-0.00281543
0.00642781
0.00134249
0.00841419
-0.0069307
0.00648299
0.0075745
0.00552094
0.00144887
0.00456254
0.00314378
0.00456724
-0.000932821
0.00429152
0.00138306
0.00436785
-0.000919486
0.00418791
0.00105361
0.00425323
-0.000738714
0.0041246
0.000797473
0.00416675
-0.000539698
0.00406443
0.000614916
0.00408046
-0.000355046
0.00399754
0.000464209
0.00399798
-0.000223985
0.00393624
0.000328334
0.00393232
-0.000145246
0.00388935
0.000221707
0.00388395
-9.10528e-05
0.00385417
0.000148462
0.00384849
-5.40257e-05
0.00382826
9.77833e-05
0.00382421
-3.33506e-05
0.00381269
5.72511e-05
0.00381261
-2.70017e-05
0.00381043
1.98441e-05
0.00381606
-3.05362e-05
0.00382254
-1.11789e-05
0.00383529
-4.10002e-05
0.00385144
-4.22632e-05
0.00387216
-5.607e-05
0.00389792
-7.25941e-05
0.00392597
-7.04527e-05
0.00395977
-9.87836e-05
0.00399323
-8.00614e-05
0.00403231
-0.000118642
0.00406684
-7.54004e-05
0.00410924
-0.000136889
0.00414267
-6.13816e-05
0.00418815
-0.000158303
0.0042186
-3.49704e-05
0.00426936
-0.000195256
0.00429547
8.14685e-06
0.00435896
-0.000271002
0.00437468
9.40143e-05
0.0044775
-0.000455233
0.000173929
0.00890882
-0.00702826
0.00947526
0.000434576
0.0101007
-0.00189229
0.0102316
-0.000346499
0.0102188
0.000165564
0.0101537
0.000334565
0.0100632
0.000441358
0.00995624
0.000530257
0.00984503
0.000533466
0.00972775
0.000557474
0.00960899
0.000547324
0.0094856
0.000566449
0.0093602
0.000562759
0.00922896
0.00058883
0.00909455
0.000589659
0.00895327
0.00061839
0.00881113
0.000602681
0.00866264
0.000631183
0.00851704
0.000594259
0.00836713
0.000616974
0.00822534
0.000555507
0.00808082
0.000579048
0.00795135
0.0004839
0.00781683
0.000533031
0.00770305
0.000406035
0.00757936
0.000492517
0.00748197
0.000330489
0.00736684
0.000469545
0.00728699
0.000248981
0.00717655
0.000470919
0.00711514
0.000159122
0.00700639
0.000491859
0.00696731
4.87007e-05
0.00685577
0.000539753
0.00684315
-8.85649e-05
0.00672264
0.000621586
0.00674356
-0.000268492
0.00660527
0.000753601
0.00666911
-0.000503464
0.00650348
0.00094073
0.00662216
-0.000804869
0.00641714
0.00119658
0.00660501
-0.00118554
0.00634685
0.00152967
0.00661752
-0.00164284
0.00628488
0.00197212
0.00664128
-0.00213686
0.00621754
0.0024989
0.00666078
-0.00266815
0.00618953
0.0028779
0.00674902
-0.00337492
0.0067475
0.00134401
0.00856028
-0.00874349
0.00690952
0.00922526
0.00594357
0.00241482
0.00493585
0.00415149
0.0048249
-0.00082187
0.00455292
0.00165504
0.00456502
-0.000931582
0.00440665
0.00121199
0.00442687
-0.000758941
0.00431905
0.000905291
0.00432855
-0.000549192
0.00424272
0.000700743
0.00423503
-0.000347362
0.00416332
0.000535923
0.00414649
-0.000207153
0.00409139
0.000383431
0.00407499
-0.000128847
0.00403565
0.000261045
0.00402148
-7.68738e-05
0.00399359
0.000176344
0.00398194
-4.23731e-05
0.0039627
0.000117024
0.00395477
-2.54232e-05
0.00394382
6.82013e-05
0.00394145
-2.46338e-05
0.00393972
2.15815e-05
0.00394439
-3.52128e-05
0.00395153
-1.8318e-05
0.00396449
-5.39606e-05
0.00398173
-5.95001e-05
0.00400377
-7.8107e-05
0.00403098
-9.98106e-05
0.00406121
-0.000100683
0.00409658
-0.000134145
0.00413279
-0.000116275
0.00417322
-0.000159073
0.00421105
-0.000113233
0.00425418
-0.000180021
0.00429158
-9.87764e-05
0.0043367
-0.000203427
0.00437226
-7.05311e-05
0.00442093
-0.000243923
0.00445423
-2.51553e-05
0.0045125
-0.000329275
0.00453953
6.69899e-05
0.0046309
-0.000546606
0.000146668
0.00893963
-0.00839213
0.009498
-0.000123788
0.00992326
-0.00231755
0.0100568
-0.000480037
0.010091
0.000131334
0.0100651
0.000360535
0.010004
0.000502377
0.00992108
0.000613212
0.00982875
0.000625797
0.00972863
0.000657597
0.00962498
0.000650973
0.00951611
0.00067532
0.0094038
0.00067506
0.00928551
0.000707123
0.00916294
0.000712232
0.00903378
0.000747545
0.00890244
0.000734029
0.00876537
0.000768249
0.00862929
0.000730344
0.00848959
0.000756665
0.00835538
0.000689727
0.00821937
0.000715054
0.00809472
0.000608548
0.00796701
0.000660746
0.0078553
0.000517746
0.00773718
0.000610632
0.00763968
0.000427994
0.00752994
0.00057928
0.00744811
0.000330816
0.00734402
0.000575008
0.00727888
0.000224258
0.00717803
0.000592713
0.00713303
9.37051e-05
0.00703169
0.000641094
0.00701067
-6.75542e-05
0.00690333
0.000728934
0.0069126
-0.00027776
0.00679107
0.000875125
0.00683919
-0.000551581
0.00669434
0.00108558
0.00679263
-0.000903163
0.00661282
0.00137639
0.00677519
-0.0013479
0.00654706
0.00175781
0.00678693
-0.00188271
0.00648979
0.00226926
0.00681024
-0.00245732
0.00642767
0.00288147
0.0068286
-0.00306907
0.00640471
0.00330178
0.0069094
-0.0038796
0.00697207
0.00128134
0.00857359
-0.010345
0.00725081
0.010548
0.00629814
0.00336748
0.00525965
0.00518997
0.00506283
-0.000625041
0.00477384
0.00194403
0.00474104
-0.000898781
0.00458574
0.00136728
0.00457741
-0.000750615
0.00447606
0.00100664
0.00446599
-0.000539114
0.00438615
0.000780576
0.0043647
-0.000325907
0.00429706
0.000603562
0.00427026
-0.000180351
0.00421723
0.000436458
0.00419351
-0.000105121
0.0041549
0.000299654
0.00413543
-5.74067e-05
0.0041076
0.000204169
0.00409226
-2.70304e-05
0.00407286
0.000136426
0.0040625
-1.50653e-05
0.00405141
7.92931e-05
0.00404763
-2.08547e-05
0.00404593
2.32841e-05
0.00405011
-3.93947e-05
0.00405769
-2.58973e-05
0.00407103
-6.73017e-05
0.00408922
-7.76907e-05
0.00411246
-0.000101348
0.00414104
-0.000128395
0.00417307
-0.000132708
0.00420996
-0.000171032
0.00424828
-0.000154602
0.00429013
-0.000200923
0.00433031
-0.000153412
0.0043745
-0.000224204
0.00441449
-0.000138773
0.00446005
-0.000248986
0.0044987
-0.000109179
0.00454686
-0.000292083
0.00458422
-6.25163e-05
0.00464032
-0.000385376
0.00467348
3.38357e-05
0.004759
-0.000632128
0.000111146
0.00873556
-0.00955194
0.00946074
-0.000848963
0.0097951
-0.00265191
0.0099219
-0.00060684
0.00997546
7.77741e-05
0.0099713
0.000364696
0.00993101
0.000542662
0.0098666
0.000677627
0.00978941
0.000702981
0.00970263
0.000744378
0.00961048
0.000743122
0.00951226
0.000773539
0.00940941
0.000777915
0.00930018
0.000816354
0.00918578
0.000826628
0.00906481
0.000868519
0.00894072
0.000858118
0.00881132
0.000897654
0.00868171
0.000859944
0.00854914
0.000889241
0.00842042
0.000818444
0.00829084
0.000844635
0.00817021
0.000729181
0.00804821
0.000782743
0.00793887
0.000627083
0.00782596
0.000723544
0.00772934
0.000524617
0.0076249
0.000683714
0.00754252
0.000413203
0.00744465
0.000672877
0.00737747
0.000291432
0.00728433
0.000685858
0.00723533
0.000142706
0.00714384
0.000732583
0.00711639
-4.01058e-05
0.00702177
0.000823555
0.00702142
-0.000277409
0.00691624
0.000980305
0.00695069
-0.000586034
0.00682629
0.00120998
0.00690622
-0.000983084
0.00675129
0.00153131
0.00689013
-0.00148674
0.00669151
0.00195643
0.00690253
-0.00209373
0.00664008
0.0025317
0.00692643
-0.00274366
0.0065843
0.0032236
0.00694455
-0.00342932
0.00656805
0.00367828
0.00701628
-0.00432784
0.00713298
0.00116464
0.00851263
-0.0117247
0.00751978
0.0115409
0.00658191
0.00430535
0.00554665
0.00622524
0.0052857
-0.000364093
0.00497322
0.00225651
0.00490415
-0.000829715
0.00474419
0.00152725
0.00471439
-0.000720821
0.00461352
0.00110751
0.00458947
-0.000515057
0.0045113
0.000858739
0.00448035
-0.000294951
0.00441394
0.000669966
0.00438034
-0.000146751
0.00432765
0.000489149
0.00429886
-7.63284e-05
0.00425992
0.000338589
0.0042367
-3.41842e-05
0.00420828
0.000232584
0.00419026
-9.00715e-06
0.00417029
0.000156395
0.00415815
-2.91871e-06
0.00414667
9.0768e-05
0.00414187
-1.60526e-05
0.00414007
2.50811e-05
0.00414397
-4.32943e-05
0.00415193
-3.38532e-05
0.00416573
-8.11029e-05
0.00418482
-9.67856e-05
0.00420921
-0.000125732
0.0042391
-0.000158292
0.00427273
-0.000166336
0.00431109
-0.000209385
0.00435121
-0.000194724
0.00439444
-0.000244156
0.00443651
-0.000195481
0.0044818
-0.000269497
0.00452377
-0.000180741
0.00457001
-0.00029523
0.00461084
-0.000150008
0.00465908
-0.000340319
0.00469912
-0.00010256
0.00475424
-0.000440496
0.00479129
-3.21122e-06
0.00487327
-0.00071411
7.05957e-05
0.00862123
-0.0105974
0.00939629
-0.00162402
0.00969052
-0.00294614
0.00981461
-0.000730928
0.00987751
1.48753e-05
0.00988563
0.000356574
0.00985913
0.000569159
0.00980845
0.00072831
0.00974331
0.000768125
0.00966735
0.000820338
0.00958458
0.000825884
0.00949489
0.000863237
0.0093995
0.000873298
0.00929721
0.000918647
0.00918895
0.000934889
0.0090739
0.000983573
0.00895496
0.000977055
0.00883082
0.00102179
0.00870564
0.000985124
0.00857785
0.00101703
0.00845287
0.000943429
0.00832768
0.000969817
0.00820989
0.000846972
0.00809201
0.00090062
0.00798456
0.000734536
0.00787566
0.00083245
0.00778001
0.000620259
0.00767986
0.000783866
0.00759746
0.000495606
0.00750472
0.000765617
0.00743638
0.000359775
0.00734969
0.000772542
0.00729789
0.000194505
0.0072148
0.000815677
0.00718231
-7.61767e-06
0.00709883
0.000907035
0.00709038
-0.000268957
0.00700006
0.00107063
0.0070223
-0.000608276
0.00691734
0.00131494
0.00697994
-0.00104568
0.00684976
0.00166149
0.0069653
-0.00160228
0.00679727
0.00212446
0.00697838
-0.00227484
0.00675326
0.00275682
0.0070025
-0.00299291
0.00670555
0.00352054
0.00701952
-0.00374328
0.00669807
0.00399973
0.00707819
-0.00470795
0.00725052
0.000992303
0.0084403
-0.0129144
0.00770947
0.0122717
0.00679247
0.00522235
0.0057997
0.00721801
0.00549442
-5.88145e-05
0.00515837
0.00259257
0.00505821
-0.000729561
0.00489002
0.00169543
0.00484245
-0.00067325
0.00473915
0.00121081
0.00470398
-0.00047989
0.0046254
0.000937325
0.00458714
-0.000256691
0.00452063
0.000736472
0.00448189
-0.000108006
0.00442875
0.000542281
0.00439609
-4.3662e-05
0.00435638
0.000378292
0.00433023
-8.02908e-06
0.00430096
0.000261854
0.0042808
1.11557e-05
0.0042601
0.000177086
0.00424652
1.067e-05
0.00423457
0.000102716
0.00422895
-1.04406e-05
0.00422703
2.70107e-05
0.00423076
-4.70309e-05
0.00423908
-4.21676e-05
0.00425339
-9.54145e-05
0.00427337
-0.000116765
0.00429887
-0.00015123
0.00433003
-0.00018946
0.00436515
-0.00020145
0.00440491
-0.000249143
0.00444663
-0.000236452
0.00449119
-0.000288716
0.00453488
-0.000239171
0.00458127
-0.000315883
0.00462485
-0.000224322
0.00467186
-0.000342236
0.00471438
-0.00019253
0.00476293
-0.00038887
0.00480494
-0.000144567
0.00485962
-0.000495176
0.0048994
-4.2994e-05
0.00497898
-0.000793686
2.6699e-05
0.00854708
-0.0115687
0.00932451
-0.00240145
0.00959974
-0.00322137
0.00972421
-0.000855391
0.00979258
-5.34946e-05
0.00980833
0.000340819
0.00979138
0.000586112
0.00975103
0.000768653
0.0096956
0.000823559
0.00962866
0.00088728
0.00955388
0.000900662
0.00947141
0.000945707
0.00938233
0.000962375
0.00928576
0.00101522
0.00918249
0.00103817
0.00907207
0.00109399
0.00895709
0.00109203
0.00883683
0.00114205
0.00871487
0.00110709
0.00859044
0.00114146
0.00846809
0.00106578
0.00834597
0.00109194
0.0082302
0.000962742
0.00811525
0.00101557
0.00800926
0.000840532
0.00790332
0.000938386
0.00780859
0.000714987
0.00771172
0.000880742
0.00762957
0.000577756
0.00754078
0.000854402
0.00747183
0.00042873
0.00739016
0.000854206
0.00733647
0.000248201
0.00725997
0.000892178
0.00722368
2.86691e-05
0.00714914
0.000981579
0.00713417
-0.000253992
0.0070562
0.0011486
0.00706805
-0.000620122
0.00698004
0.00140294
0.00702704
-0.00109268
0.0069197
0.00176883
0.00701301
-0.00169559
0.006875
0.00226248
0.00702576
-0.0024256
0.00683953
0.00294305
0.00704869
-0.00320207
0.00680143
0.00376781
0.00706264
-0.00400449
0.00680373
0.00425864
0.00710659
-0.00501081
0.00733646
0.000762431
0.00838627
-0.0139642
0.00783103
0.012827
0.00693856
0.00611482
0.00601935
0.00813722
0.00568812
0.000272414
0.00533214
0.00294855
0.005205
-0.000602417
0.00502709
0.00187334
0.00496404
-0.000610207
0.00485681
0.00131805
0.00481224
-0.000435315
0.00473212
0.00101745
0.00468785
-0.000212423
0.00462054
0.000803775
0.00457764
-6.51027e-05
0.00452369
0.000596232
0.00448787
-7.84595e-06
0.0044472
0.000418965
0.00441861
2.05614e-05
0.00438838
0.000292086
0.00436641
3.31249e-05
0.00434493
0.000198562
0.00433012
2.54853e-05
0.00431767
0.000115169
0.00431138
-4.15794e-06
0.00430931
2.90853e-05
0.00431297
-5.0689e-05
0.00432164
-5.0842e-05
0.0043365
-0.000110273
0.00435736
-0.000137621
0.00438395
-0.000177821
0.00441636
-0.000221868
0.00445288
-0.000237973
0.00449399
-0.000290252
0.00453719
-0.000279656
0.00458301
-0.00033454
0.00462815
-0.000284306
0.00467559
-0.000363322
0.00472056
-0.000269289
0.00476834
-0.000390018
0.00481225
-0.00023644
0.00486122
-0.000437842
0.00490476
-0.000188104
0.00495928
-0.000549695
0.00500111
-8.48332e-05
0.00507891
-0.000871485
-1.95789e-05
0.00848938
-0.0124824
0.00925329
-0.00316535
0.00951814
-0.00348623
0.00964461
-0.000981859
0.00971684
-0.000125725
0.00973793
0.000319726
0.00972798
0.000596066
0.00969567
0.000800961
0.0096482
0.000871024
0.00958893
0.000946555
0.00952111
0.000968483
0.00944496
0.00102185
0.00936142
0.00104592
0.0092698
0.00110684
0.00917078
0.00113718
0.00906422
0.00120056
0.00895247
0.00120378
0.00883526
0.00125927
0.00871579
0.00122656
0.00859389
0.00126336
0.0084735
0.00118617
0.00835362
0.00121182
0.00823938
0.00107698
0.0081266
0.00112834
0.00802179
0.000945342
0.00791813
0.00104205
0.00782427
0.000808847
0.00772994
0.000975069
0.00764821
0.000659481
0.00756249
0.000940123
0.00749333
0.000497893
0.00741551
0.000932028
0.00736062
0.000303089
0.00728914
0.000963654
0.00725015
6.76643e-05
0.00718246
0.00104927
0.00716254
-0.000234072
0.00709424
0.0012169
0.00709778
-0.000623662
0.00702351
0.00147721
0.00705743
-0.0011266
0.00696949
0.00185677
0.00704316
-0.00176926
0.0069321
0.00237354
0.00705451
-0.00254801
0.00690528
0.00309228
0.00707479
-0.00337158
0.00687712
0.00396548
0.00708396
-0.00421133
0.00688832
0.00445428
0.00711648
-0.00523898
0.00739746
0.00048145
0.00835028
-0.0149171
0.00790517
0.0132721
0.00703873
0.00698126
0.00620663
0.00896932
0.00586547
0.00061357
0.00549548
0.00331853
0.00534526
-0.000452192
0.00515734
0.00206126
0.00508053
-0.000533393
0.00496862
0.00142995
0.00491579
-0.000382481
0.00483353
0.00109971
0.00478411
-0.000162998
0.00471563
0.000872247
0.00466922
-1.8691e-05
0.00461426
0.000651189
0.00457578
3.06374e-05
0.00453405
0.000460694
0.00450337
5.12472e-05
0.00447213
0.000323318
0.00444859
5.66729e-05
0.00442631
0.00022084
0.00441042
4.1378e-05
0.00439746
0.00012813
0.0043906
2.69968e-06
0.00438839
3.12923e-05
0.00439203
-5.43275e-05
0.00440108
-5.98896e-05
0.00441651
-0.000125707
0.00443824
-0.000159349
0.00446591
-0.000205489
0.00449953
-0.000255487
0.00453739
-0.000275841
0.00457981
-0.000332664
0.00462439
-0.000324235
0.00467142
-0.00038157
0.00471787
-0.000330755
0.00476631
-0.000411766
0.0048125
-0.000315476
0.00486104
-0.000438559
0.00490613
-0.000281529
0.00495557
-0.000487281
0.00500035
-0.000232884
0.00505485
-0.000604204
0.00509831
-0.000128288
0.0051747
-0.00094788
-6.76164e-05
0.0084404
-0.013347
0.00918461
-0.00390957
0.00944305
-0.00374466
0.00957235
-0.00111117
0.00964776
-0.000201135
0.00967302
0.000294474
0.00966853
0.000600556
0.00964268
0.000826808
0.00960189
0.00091181
0.00954924
0.00099921
0.00948756
0.00103016
0.00941706
0.00109236
0.00933848
0.0011245
0.00925125
0.00119406
0.009156
0.00123244
0.00905275
0.0013038
0.00894377
0.00131276
0.00882906
0.00137397
0.00871162
0.001344
0.00859171
0.00138327
0.00847287
0.001305
0.00835473
0.00132997
0.00824172
0.00118999
0.00813065
0.00123941
0.00802687
0.00104912
0.00792503
0.00114389
0.00783203
0.000901849
0.00773976
0.00106733
0.0076586
0.000740647
0.00757532
0.0010234
0.00750625
0.000566965
0.00743143
0.00100685
0.00737588
0.000358636
0.00730826
0.00103128
0.00726743
0.000108494
0.00720495
0.00111175
0.00718142
-0.000210539
0.00712049
0.00127782
0.00711771
-0.000620879
0.00705412
0.0015408
0.00707769
-0.00115017
0.00700529
0.00192918
0.00706279
-0.00182677
0.00697419
0.00246214
0.00707224
-0.00264606
0.00695515
0.00320937
0.00708925
-0.00350568
0.00693592
0.00411881
0.00709323
-0.00436864
0.00695373
0.00459379
0.00711958
-0.00540484
0.00743942
0.000161607
0.0083258
-0.0158034
0.00794964
0.0136482
0.00710965
0.00782126
0.00636361
0.00971536
0.00602532
0.00095186
0.00564845
0.00369541
0.00547917
-0.000282915
0.00528181
0.00225862
0.00519267
-0.000444258
0.00507581
0.00154681
0.00501558
-0.000322259
0.00493088
0.00118441
0.00487692
-0.000109037
0.00480708
0.000942082
0.00475763
3.07604e-05
0.00470159
0.000707234
0.00466079
7.1438e-05
0.00461798
0.0005035
0.00458545
8.37803e-05
0.00455321
0.000355555
0.00452825
8.16308e-05
0.00450518
0.000243912
0.00448832
5.82361e-05
0.00447486
0.000141588
0.0044675
1.00585e-05
0.00446518
3.36152e-05
0.00446885
-5.79974e-05
0.00447829
-6.93238e-05
0.00449432
-0.000141741
0.00451692
-0.000181949
0.00454565
-0.000234219
0.00458045
-0.00029029
0.00461961
-0.000315002
0.00466328
-0.00037633
0.00470915
-0.00037011
0.00475733
-0.00042975
0.00480499
-0.00037841
0.00485439
-0.000461166
0.00490167
-0.000362758
0.00495094
-0.000487831
0.00499706
-0.000327644
0.00504697
-0.000537193
0.00509279
-0.000278704
0.00514737
-0.000658783
0.00519214
-0.000173056
0.00526737
-0.00102311
-0.000117004
0.0083968
-0.014168
0.00911873
-0.0046315
0.00937283
-0.00399875
0.00950542
-0.00124376
0.00958372
-0.00027943
0.0096125
0.000265686
0.00961252
0.00060054
0.00959204
0.000847287
0.00955696
0.000946892
0.0095101
0.00104607
0.00945392
0.00108634
0.0093885
0.00115778
0.00931442
0.00119858
0.00923117
0.00127731
0.0091393
0.00132431
0.009039
0.0014041
0.00893242
0.00141934
0.00881986
0.00148652
0.00870413
0.00145973
0.00858584
0.00150156
0.0084683
0.00142255
0.00835156
0.00144671
0.0082396
0.00130195
0.00812995
0.00134906
0.00802711
0.00115195
0.00792683
0.00124418
0.00783469
0.000993989
0.00774418
0.00115784
0.00766367
0.000821158
0.00758243
0.00110464
0.00751366
0.00063573
0.00744127
0.00107924
0.00738545
0.000414459
0.00732086
0.00109586
0.00727885
0.000150504
0.0072204
0.0011702
0.00719429
-0.000184435
0.00713902
0.0013331
0.00713154
-0.000613396
0.00707614
0.00159619
0.0070918
-0.00116583
0.00703149
0.00198949
0.0070763
-0.00187157
0.00700555
0.00253288
0.00708398
-0.00272448
0.00699302
0.00330033
0.00709796
-0.00361063
0.00698096
0.00423581
0.00709746
-0.00448514
0.0070028
0.00468845
0.00712145
-0.00552349
0.0074681
-0.00018504
0.00830806
-0.0166434
0.00797662
0.0139797
0.0071615
0.00863637
0.0064933
0.0103836
0.00616705
0.00127811
0.00579075
0.0040717
0.00560662
-9.87833e-05
0.00540096
0.00246429
0.00530087
-0.000344169
0.00517909
0.0016686
0.00511221
-0.00025538
0.00502494
0.00127168
0.00496693
-5.10304e-05
0.00489565
0.00101336
0.00484353
8.28874e-05
0.00478637
0.000764387
0.00474353
0.000114284
0.00469965
0.000547376
0.00466547
0.000117966
0.00463225
0.000388773
0.00460602
0.000107865
0.00458217
0.00026776
0.00456443
7.59696e-05
0.0045505
0.000155526
0.0045427
1.7854e-05
0.00454028
3.60374e-05
0.00454402
-6.1742e-05
0.00455386
-7.9159e-05
0.00457051
-0.000158392
0.00459398
-0.000205421
0.00462376
-0.000263997
0.00465972
-0.00032625
0.00470012
-0.000355407
0.004745
-0.000421202
0.00479209
-0.000417206
0.00484137
-0.000479022
0.00489014
-0.000427184
0.00494044
-0.000511471
0.00498872
-0.000411031
0.00503869
-0.000537799
0.0050857
-0.000374663
0.00513608
-0.000587572
0.00518279
-0.000325408
0.00523748
-0.000713477
0.00528334
-0.000218911
0.00535757
-0.00109734
-0.000167434
0.0083569
-0.0149492
0.00905552
-0.00533013
0.00930645
-0.00424969
0.00944254
-0.00137985
0.00952358
-0.000360474
0.00955557
0.000233698
0.00955947
0.000596639
0.0095436
0.000863161
0.00951349
0.000977
0.00947177
0.00108779
0.00942054
0.00113758
0.00935975
0.00121857
0.00928979
0.00126854
0.00921017
0.00135693
0.00912137
0.00141311
0.00902371
0.00150176
0.00891929
0.00152377
0.00880859
0.00159722
0.00869434
0.00157398
0.00857743
0.00161847
0.00846099
0.00153899
0.00834545
0.00156225
0.00823441
0.00141299
0.00812599
0.00145748
0.00802406
0.00125388
0.00792515
0.00134308
0.00783389
0.00108525
0.00774494
0.0012468
0.00766516
0.000900931
0.00758569
0.00118412
0.00751739
0.00070403
0.00744703
0.0011496
0.00739121
0.00047028
0.0073291
0.00115797
0.00728639
0.000193218
0.00723112
0.00122547
0.00720323
-0.000156545
0.00715236
0.00138397
0.00714143
-0.000602472
0.00709237
0.00164526
0.00710207
-0.00117554
0.00705111
0.00204046
0.00708619
-0.00190666
0.00702937
0.0025897
0.00709254
-0.00278765
0.00702208
0.00337079
0.00710424
-0.00369278
0.00701543
0.00432462
0.00710033
-0.00457004
0.00703917
0.00474962
0.00712378
-0.00560811
0.00748801
-0.000549265
0.00829429
-0.0174497
0.00799349
0.0142805
0.0072003
0.00942956
0.00659928
0.0109846
0.00629081
0.00158659
0.00592207
0.00444044
0.00572734
9.59445e-05
0.00551499
0.00267663
0.00540532
-0.000234495
0.00527888
0.00179504
0.00520601
-0.00018251
0.0051162
0.0013615
0.00505456
1.06006e-05
0.00498185
0.00108607
0.00492735
0.000137388
0.00486911
0.000822626
0.00482444
0.00015895
0.00477953
0.000592286
0.00474385
0.000153641
0.00470969
0.000422939
0.00468229
0.000135265
0.00465769
0.000292355
0.00463916
9.4502e-05
0.00462477
0.000169919
0.00461659
2.60339e-05
0.00461409
3.85317e-05
0.00461795
-6.55955e-05
0.0046282
-8.94141e-05
0.00464549
-0.000175678
0.00466982
-0.000229757
0.00470063
-0.000294806
0.00473772
-0.000363339
0.00477933
-0.000397012
0.00482536
-0.000467235
0.00487361
-0.00046546
0.00492393
-0.000529334
0.00497374
-0.000476997
0.00502489
-0.000562625
0.00507407
-0.000460207
0.00512469
-0.000588424
0.00517252
-0.000422484
0.00522334
-0.000638399
0.00527081
-0.000372874
0.00532564
-0.000768304
0.00537241
-0.000265681
0.00544575
-0.00117068
-0.000218692
0.00831978
-0.0156932
0.0089948
-0.00600515
0.00924326
-0.00449814
0.0093829
-0.00151949
0.00946662
-0.000444192
0.00950161
0.000198708
0.00950899
0.000589252
0.00949717
0.000874981
0.00947148
0.0010027
0.00943437
0.00112489
0.00938763
0.00118432
0.00933108
0.00127512
0.00926491
0.00133471
0.00918862
0.00143322
0.00910264
0.00149909
0.00900738
0.00159701
0.00890489
0.00162627
0.00879584
0.00170626
0.0086829
0.00168693
0.00856718
0.00173418
0.00845171
0.00165447
0.0083372
0.00167675
0.00822703
0.00152317
0.00811972
0.00156479
0.00801867
0.00135492
0.00792103
0.00144072
0.00783066
0.00117562
0.00774313
0.00133433
0.00766415
0.000979909
0.00758626
0.00126201
0.00751854
0.000771754
0.00744996
0.00121817
0.00739434
0.000525896
0.00733432
0.00121799
0.00729125
0.000236288
0.00723859
0.00127813
0.00720949
-0.00012744
0.00716212
0.00143134
0.00714869
-0.000589041
0.0071046
0.00168935
0.00710984
-0.00118078
0.00706617
0.00208413
0.00709386
-0.00193435
0.0070479
0.00263566
0.00709942
-0.00283918
0.00704484
0.00342538
0.00710962
-0.00375756
0.00704212
0.00439211
0.00710325
-0.00463117
0.0070663
0.00478657
0.00712676
-0.00566856
0.00750218
-0.000924689
0.00828294
-0.0182304
0.0080044
0.014559
0.00723004
0.0102039
0.00668538
0.0115292
0.00639753
0.00187444
0.00604221
0.00479575
0.00584104
0.000297121
0.00562394
0.00289373
0.00550608
-0.000116641
0.00537544
0.00192568
0.00529722
-0.00010429
0.00520497
0.00145374
0.0051401
7.54756e-05
0.00506599
0.00116018
0.00500939
0.000193996
0.00495011
0.000881901
0.00490382
0.000205241
0.00485792
0.000638182
0.00482089
0.000190669
0.00478582
0.000458012
0.00475736
0.00016373
0.00473205
0.000317664
0.00471279
0.000113766
0.00469797
0.000184738
0.00468945
3.45513e-05
0.0046869
4.10747e-05
0.0046909
-6.95924e-05
0.00470159
-0.000100105
0.00471952
-0.000193609
0.00474472
-0.000254958
0.00477655
-0.00032663
0.00481474
-0.000401528
0.0048575
-0.000439772
0.00490464
-0.000514381
0.00495399
-0.000514809
0.00500529
-0.000580631
0.00505607
-0.000527779
0.00510803
-0.000614582
0.00515803