/*--------------------------------*- C++ -*----------------------------------*\
| =========                 |                                                 |
| \\      /  F ield         | OpenFOAM: The Open Source CFD Toolbox           |
|  \\    /   O peration     | Version:  2412                                  |
|   \\  /    A nd           | Website:  www.openfoam.com                      |
|    \\/     M anipulation  |                                                 |
\*---------------------------------------------------------------------------*/
FoamFile
{
    version     2.0;
    format      ascii;
    arch        "LSB;label=32;scalar=64";
    class       volVectorField;
    location    "1";
    object      U;
}
// * * * * * * * * * * * * * * * * * * * * * * * * * * * * * * * * * * * * * //

dimensions      [0 1 -1 0 0 0 0];

internalField   nonuniform List<vector> 
78408
(
(79.1803 -82.4456 -1.5445e-14)
(101.178 -24.8549 -4.62351e-17)
(113.033 14.7424 0)
(119.141 28.7582 0)
(122.668 32.9836 -2.05689e-14)
(123.653 34.173 -1.10658e-18)
(123.537 34.4631 0)
(123.109 34.5468 4.22336e-14)
(122.818 34.6607 4.23963e-14)
(122.659 34.8108 0)
(122.652 35.0022 0)
(122.641 35.1903 2.12718e-14)
(122.648 35.3793 -2.13353e-14)
(122.562 35.5445 6.69173e-19)
(122.475 35.6984 0)
(122.279 35.8293 2.16379e-14)
(122.178 35.9753 0)
(122.002 36.0976 -2.19049e-14)
(122.01 36.25 5.80461e-19)
(121.97 36.3933 0)
(122.242 36.5903 0)
(122.446 36.7924 -2.23998e-14)
(123.145 37.0979 0)
(123.673 37.3854 -2.25403e-14)
(124.84 37.8136 0)
(125.665 38.2026 0)
(127.346 38.7662 0)
(128.397 39.2515 0)
(130.687 39.9802 -2.24995e-14)
(131.897 40.5416 0)
(134.913 41.4621 0)
(136.217 42.1067 -1.17028e-18)
(140.038 43.2282 -2.17787e-14)
(141.432 43.9678 -2.12516e-14)
(146.347 45.3501 2.11035e-14)
(147.738 46.1925 2.04001e-14)
(154.192 47.9406 0)
(155.384 48.8623 0)
(163.947 51.1156 -1.90282e-14)
(164.697 52.1131 -1.77127e-14)
(176.233 55.0627 1.75857e-14)
(176.143 56.1012 -1.57325e-14)
(191.858 60.0231 0)
(190.4 61.0783 0)
(212.002 66.3861 0)
(208.249 67.3302 9.92076e-15)
(237.732 74.5571 0)
(230.356 75.1959 0)
(270.949 85.1191 8.95607e-15)
(259.022 85.3051 0)
(320.438 100.301 0)
(305.776 99.6639 -1.52984e-14)
(469.519 149.464 4.09577e-18)
(477.06 10.6692 1.81563e-15)
(303.048 -67.7119 2.18486e-15)
(246.843 -57.234 0)
(227.995 -51.884 0)
(220.389 -48.0223 1.95141e-15)
(202.522 -45.7465 6.26855e-19)
(196.548 -42.7825 0)
(182.774 -41.0295 4.87061e-19)
(177.761 -38.6975 0)
(166.802 -37.2754 2.27471e-15)
(161.802 -35.2962 2.99451e-19)
(152.762 -34.0271 -2.86017e-15)
(147.843 -32.3373 2.76516e-15)
(140.474 -31.2063 6.76858e-15)
(136.043 -29.8204 3.40879e-15)
(130.151 -28.8341 3.83508e-15)
(126.31 -27.7196 -3.92675e-15)
(121.479 -26.8616 -4.2478e-15)
(118.048 -25.9237 -2.16726e-19)
(113.988 -25.1596 -9.32352e-15)
(110.878 -24.3542 1.99755e-19)
(107.422 -23.6729 -5.08438e-15)
(104.652 -22.985 5.27879e-15)
(101.716 -22.3862 5.5032e-15)
(99.3233 -21.8036 -1.73177e-19)
(96.8604 -21.2911 0)
(94.812 -20.814 -6.09377e-15)
(92.7336 -20.3698 0)
(91.0089 -19.974 0)
(89.2928 -19.6024 -6.63304e-15)
(87.882 -19.2843 0)
(86.4709 -18.9743 -6.97839e-15)
(85.3288 -18.7215 -7.14898e-15)
(84.1421 -18.4497 7.32602e-15)
(83.2284 -18.2551 0)
(82.1358 -18.0094 -7.68315e-15)
(81.3813 -17.848 0)
(80.3243 -17.6031 -8.04551e-15)
(79.7364 -17.4826 -8.20432e-15)
(78.5794 -17.2097 -8.40134e-15)
(78.2528 -17.1519 0)
(76.8787 -16.8165 8.74072e-15)
(77.0037 -16.8697 -8.85261e-15)
(75.2789 -16.4441 0)
(75.9188 -16.6386 -9.08817e-15)
(74.807 -16.233 0)
(129.35 45.2833 1.04816e-14)
(138.394 49.9394 -2.1559e-14)
(136.512 43.6046 0)
(137.015 40.0454 0)
(138.902 39.3173 1.48279e-14)
(140.451 39.7712 -2.9515e-14)
(141.515 40.3236 0)
(142.158 40.7592 -1.41634e-14)
(142.414 41.0432 -1.39174e-14)
(142.497 41.2565 0)
(142.512 41.441 -1.36318e-14)
(142.537 41.6312 -8.1308e-19)
(142.564 41.8191 0)
(142.584 42.0147 1.35875e-14)
(142.58 42.1889 0)
(142.526 42.3655 1.36763e-14)
(142.464 42.529 0)
(142.402 42.696 0)
(142.383 42.8497 6.71311e-19)
(142.421 43.0392 -1.38838e-14)
(142.602 43.2278 0)
(142.89 43.4959 1.39463e-14)
(143.441 43.7929 0)
(144.147 44.1874 0)
(145.156 44.6101 1.39809e-14)
(146.308 45.1659 0)
(147.823 45.7221 0)
(149.401 46.4486 0)
(151.457 47.1503 0)
(153.473 48.0471 0)
(156.106 48.8956 0)
(158.568 50.0051 -1.3338e-14)
(162.021 51.0582 2.66343e-14)
(164.904 52.3845 1.29332e-14)
(169.375 53.6719 0)
(172.654 55.2517 -1.2375e-14)
(178.504 56.8581 1.22428e-14)
(182.159 58.7177 -1.16244e-14)
(189.848 60.7589 2.14229e-18)
(193.828 62.9615 1.06487e-14)
(204.094 65.5961 0)
(208.259 68.1836 9.39883e-15)
(222.153 71.6624 9.42854e-15)
(226.283 74.7032 -7.81639e-15)
(245.343 79.4235 8.15373e-15)
(248.927 82.8693 0)
(274.932 89.3547 0)
(276.921 93.0325 0)
(313.003 102.146 0)
(312.325 105.782 1.9976e-16)
(369.204 120.694 0)
(363.668 122.734 8.76177e-15)
(530.768 179.425 7.43176e-16)
(591.513 -5.51042 -1.05349e-15)
(380.8 -82.0101 0)
(304.504 -65.4888 0)
(268.566 -58.7916 -2.90826e-17)
(259.498 -55.2339 -7.77738e-16)
(234.727 -51.3746 7.3037e-16)
(229.048 -48.7451 0)
(210.261 -45.8704 6.22923e-16)
(205.577 -43.7983 3.59311e-16)
(190.921 -41.5433 0)
(186.058 -39.707 7.34231e-16)
(174.191 -37.8097 1.06056e-15)
(169.117 -36.1596 0)
(159.565 -34.5611 -2.47603e-15)
(154.752 -33.1469 -2.20922e-19)
(147.216 -31.8218 0)
(142.916 -30.6523 2.81799e-15)
(136.875 -29.5516 1.51123e-15)
(132.999 -28.5523 -1.55961e-15)
(128.048 -27.6156 1.64928e-15)
(124.537 -26.7521 1.71281e-15)
(120.418 -25.9474 1.79772e-15)
(117.288 -25.2066 -1.86962e-15)
(113.859 -24.5196 0)
(111.139 -23.8874 -1.43725e-19)
(108.32 -23.3154 0)
(105.979 -22.7932 2.1767e-15)
(103.654 -22.3085 0)
(101.714 -21.8834 2.32297e-15)
(99.8187 -21.4822 2.39625e-15)
(98.2522 -21.1467 0)
(96.7165 -20.8149 5.09644e-15)
(95.4645 -20.5544 2.62758e-15)
(94.1919 -20.2638 -2.71147e-15)
(93.1965 -20.0714 0)
(92.0437 -19.8049 1.25784e-19)
(91.2195 -19.6521 0)
(90.1158 -19.3818 3.07675e-15)
(89.4568 -19.2795 3.16535e-15)
(88.3278 -18.9838 6.54531e-15)
(87.8776 -18.9516 0)
(86.6538 -18.5956 -6.93653e-15)
(86.5484 -18.6898 3.53699e-15)
(85.2033 -18.2494 3.66159e-15)
(85.4323 -18.5129 3.69145e-15)
(84.8406 -18.0983 3.84682e-15)
(96.4178 37.6886 0)
(131.738 40.8288 -1.19991e-17)
(140.965 38.5534 -1.21813e-14)
(143.564 39.305 0)
(145.21 40.5197 0)
(146.148 41.3807 1.12523e-14)
(146.838 41.9002 0)
(147.429 42.317 -9.8288e-15)
(147.907 42.6594 9.46433e-15)
(148.324 42.9801 0)
(148.714 43.2825 9.22996e-15)
(149.096 43.5889 -9.25815e-15)
(149.474 43.8873 0)
(149.824 44.1916 0)
(150.151 44.4712 0)
(150.408 44.7537 -1.948e-14)
(150.656 45.0183 0)
(150.862 45.2802 -1.00262e-14)
(151.108 45.5202 1.01596e-14)
(151.356 45.7893 1.02649e-14)
(151.75 46.0467 -1.0364e-14)
(152.192 46.3797 1.04262e-14)
(152.918 46.7332 0)
(153.729 47.1806 0)
(154.909 47.6549 -1.05438e-14)
(156.143 48.2642 0)
(157.855 48.8755 0)
(159.512 49.6638 0)
(161.821 50.4321 0)
(163.912 51.4008 0)
(166.883 52.3331 0)
(169.406 53.5267 0)
(173.253 54.6676 -9.7973e-19)
(176.228 56.11 -1.00228e-14)
(181.174 57.491 -9.99302e-15)
(184.574 59.227 9.68192e-15)
(190.989 60.9293 -1.9193e-14)
(194.79 62.9915 9.18704e-15)
(203.161 65.1313 9.06666e-15)
(207.315 67.598 0)
(218.406 70.3311 0)
(222.793 73.2628 7.57818e-15)
(237.688 76.8417 -2.13831e-18)
(242.121 80.3335 6.37113e-15)
(262.403 85.1625 -6.58724e-15)
(266.435 89.1896 0)
(293.937 95.8181 0)
(296.585 100.22 2.76326e-15)
(334.479 109.556 0)
(334.728 114.033 -1.65944e-16)
(393.928 129.459 0)
(389.737 132.383 -7.18307e-15)
(557.753 190.538 0)
(632.613 -9.92214 9.5538e-16)
(426.656 -89.6692 0)
(337.264 -70.9118 0)
(292.812 -63.4511 3.65968e-17)
(279.342 -58.9029 4.78887e-16)
(252.209 -54.6763 -2.18258e-16)
(244.614 -51.6241 -7.09937e-17)
(224.514 -48.5567 0)
(218.612 -46.2103 -2.06362e-16)
(203.098 -43.8279 0)
(197.358 -41.7878 4.14575e-16)
(184.847 -39.793 -5.94883e-16)
(179.063 -37.9807 -5.7155e-16)
(168.968 -36.3 6.84667e-16)
(163.56 -34.7553 -6.82626e-16)
(155.558 -33.3585 0)
(150.77 -32.0864 -1.52911e-15)
(144.348 -30.925 -1.15134e-19)
(140.085 -29.8468 0)
(134.829 -28.8607 0)
(131.015 -27.9377 0)
(126.654 -27.0939 0)
(123.288 -26.3088 8.88279e-20)
(119.666 -25.5911 0)
(116.761 -24.9266 -1.08457e-15)
(113.791 -24.3305 1.12606e-15)
(111.312 -23.786 0)
(108.872 -23.2835 0)
(106.834 -22.845 -1.24807e-15)
(104.862 -22.4322 0)
(103.229 -22.0907 0)
(101.647 -21.7514 -1.37818e-15)
(100.35 -21.4897 0)
(99.0495 -21.1928 0)
(98.02 -21.0023 0)
(96.8513 -20.7279 1.58311e-15)
(95.9941 -20.58 -1.63852e-15)
(94.8812 -20.2986 0)
(94.1837 -20.2052 0)
(93.05 -19.8917 -1.82157e-15)
(92.5576 -19.8782 0)
(91.3354 -19.4925 3.89485e-15)
(91.1799 -19.6247 0)
(89.8433 -19.1296 -2.07398e-15)
(90.025 -19.4782 0)
(89.3763 -18.9658 -2.19711e-15)
(99.006 17.5211 0)
(127.178 30.0773 2.44259e-14)
(137.007 36.0131 2.06211e-14)
(141.419 39.2377 0)
(144.373 40.6435 0)
(146.005 41.4286 7.57629e-15)
(147.083 41.995 -6.81471e-15)
(147.984 42.5051 6.31686e-15)
(148.785 42.9406 -1.20849e-14)
(149.545 43.3625 5.93117e-15)
(150.29 43.7659 0)
(151.023 44.176 0)
(151.747 44.5751 0)
(152.436 44.982 0)
(153.098 45.3622 0)
(153.689 45.7485 6.67659e-15)
(154.267 46.1134 6.88332e-15)
(154.796 46.4777 7.08912e-15)
(155.351 46.8115 -7.28851e-15)
(155.89 47.1749 0)
(156.553 47.5126 3.30348e-19)
(157.237 47.9267 -3.71366e-19)
(158.181 48.3432 0)
(159.182 48.8585 -7.98568e-15)
(160.536 49.3801 8.06964e-15)
(161.926 50.0511 -8.11439e-15)
(163.792 50.7007 0)
(165.595 51.5532 0)
(168.06 52.3563 0)
(170.305 53.3992 8.2234e-15)
(173.454 54.3657 -8.27527e-15)
(176.152 55.6509 8.21514e-15)
(180.189 56.8183 -7.33818e-19)
(183.379 58.3801 0)
(188.542 59.7779 8.18489e-15)
(192.213 61.673 7.99671e-15)
(198.869 63.3748 9.7019e-19)
(203.007 65.6464 0)
(211.639 67.7587 0)
(216.213 70.5025 0)
(227.584 73.1675 -7.1738e-15)
(232.504 76.4668 -6.57005e-15)
(247.696 79.9225 -1.30964e-14)
(252.822 83.9041 5.6022e-15)
(273.415 88.5401 5.76372e-15)
(278.377 93.2205 4.27431e-15)
(306.218 99.5818 0)
(310.131 104.844 -2.49678e-15)
(348.371 113.83 0)
(350.315 119.376 0)
(409.725 134.38 0)
(408.25 138.493 -5.04033e-18)
(570.175 195.51 0)
(657.469 -8.9198 -9.14672e-16)
(462.205 -95.4778 0)
(364.88 -75.887 9.30567e-16)
(312.859 -67.4099 -1.41378e-17)
(295.038 -61.8462 -3.59325e-16)
(265.615 -57.3006 -1.60471e-16)
(256.258 -53.8083 5.11343e-17)
(235.013 -50.5977 -2.57894e-16)
(228.081 -47.9844 -1.45163e-16)
(211.863 -45.5168 -3.40169e-16)
(205.434 -43.2941 -2.88206e-16)
(192.426 -41.2373 0)
(186.121 -39.2913 3.93396e-16)
(175.626 -37.5583 0)
(169.792 -35.9123 -4.65774e-16)
(161.453 -34.4686 0)
(156.319 -33.1182 6.96807e-20)
(149.621 -31.9157 -1.10683e-15)
(145.082 -30.7775 0)
(139.604 -29.7568 5.98441e-16)
(135.574 -28.7887 6.19262e-16)
(131.038 -27.9172 0)
(127.502 -27.0988 6.74383e-16)
(123.743 -26.3594 0)
(120.708 -25.6711 0)
(117.63 -25.0584 -1.51722e-15)
(115.056 -24.4981 0)
(112.539 -23.9846 0)
(110.434 -23.5372 0)
(108.414 -23.1184 -8.7124e-16)
(106.74 -22.7734 0)
(105.13 -22.431 0)
(103.807 -22.1688 -9.67483e-16)
(102.491 -21.8692 1.00324e-15)
(101.439 -21.6791 0)
(100.262 -21.4008 0)
(99.3816 -21.254 1.12098e-15)
(98.2628 -20.9665 0)
(97.5371 -20.8758 -1.20595e-15)
(96.4001 -20.5529 0)
(95.8739 -20.546 0)
(94.6538 -20.1458 -2.68743e-15)
(94.455 -20.2939 1.37977e-15)
(93.1285 -19.7714 0)
(93.2633 -20.167 -1.45794e-15)
(92.5755 -19.5931 0)
(103.847 22.5955 0)
(126.971 34.128 -1.58205e-14)
(134.693 36.1548 -6.46685e-15)
(138.843 38.4569 -6.0461e-15)
(142.27 39.9591 0)
(144.483 40.967 -4.9035e-15)
(146.042 41.6969 4.4791e-15)
(147.312 42.3169 -4.19082e-15)
(148.413 42.8349 4.02505e-15)
(149.439 43.3329 -2.46006e-19)
(150.431 43.8065 0)
(151.4 44.2862 0)
(152.352 44.7521 0)
(153.265 45.2272 0)
(154.15 45.6741 0)
(154.964 46.1301 4.5723e-15)
(155.767 46.5631 -2.27622e-19)
(156.522 46.9993 -4.943e-15)
(157.303 47.4008 5.13259e-15)
(158.066 47.8358 0)
(158.944 48.237 5.49054e-15)
(159.839 48.719 -2.81725e-19)
(160.974 49.1899 5.7899e-15)
(162.159 49.767 1.18202e-14)
(163.675 50.3319 -6.01944e-15)
(165.226 51.0609 6.10626e-15)
(167.232 51.7446 0)
(169.187 52.6568 0)
(171.784 53.4877 -6.33944e-15)
(174.19 54.5992 -1.27719e-14)
(177.476 55.5888 6.46986e-15)
(180.36 56.959 -6.49022e-15)
(184.535 58.1403 -6.58177e-15)
(187.946 59.8108 0)
(193.254 61.2089 0)
(197.198 63.2487 -1.31216e-14)
(204.002 64.9291 6.60037e-15)
(208.479 67.3935 6.45852e-15)
(217.255 69.45 -6.45247e-15)
(222.252 72.4519 0)
(233.749 75.0097 6.16981e-15)
(239.205 78.6551 0)
(254.49 81.9322 1.32553e-18)
(260.31 86.3795 -4.97128e-15)
(280.943 90.7433 -1.63682e-18)
(286.832 96.0523 -7.70168e-15)
(314.656 102.034 4.33584e-15)
(319.835 108.135 0)
(357.964 116.617 0)
(361.619 123.218 0)
(420.553 137.558 0)
(421.92 142.862 -4.58581e-18)
(576.592 198.081 0)
(671.678 -7.81682 -7.5737e-16)
(490.004 -100.078 6.66636e-16)
(389.178 -80.1763 -8.26273e-16)
(330.888 -70.916 0)
(308.88 -64.4129 0)
(277.231 -59.5657 1.311e-16)
(266.153 -55.6453 -4.11167e-17)
(243.856 -52.3092 2.05483e-16)
(235.963 -49.4458 2.27965e-16)
(219.128 -46.9085 2.67036e-16)
(212.086 -44.5213 2.23832e-16)
(198.661 -42.4164 3.2073e-16)
(191.913 -40.3553 -3.03383e-16)
(181.093 -38.5831 -3.62807e-16)
(174.909 -36.8528 5.68774e-20)
(166.299 -35.3739 0)
(160.882 -33.9593 3.96381e-16)
(153.959 -32.7249 4.61579e-20)
(149.194 -31.5375 0)
(143.535 -30.4893 -9.13405e-16)
(139.326 -29.4841 -4.72022e-16)
(134.645 -28.5903 0)
(130.971 -27.7448 0)
(127.098 -26.9882 0)
(123.955 -26.2807 0)
(120.791 -25.6553 3.34864e-20)
(118.139 -25.0827 0)
(115.561 -24.5615 0)
(113.405 -24.1079 0)
(111.348 -23.6857 1.33123e-15)
(109.643 -23.3389 0)
(108.013 -22.9952 0)
(106.67 -22.7332 3.21211e-20)
(105.342 -22.4324 -7.70062e-16)
(104.274 -22.2423 0)
(103.088 -21.9614 -8.31463e-16)
(102.189 -21.8145 0)
(101.064 -21.5227 0)
(100.314 -21.4321 2.89273e-20)
(99.1713 -21.1029 0)
(98.6157 -21.0982 0)
(97.3936 -20.6887 3.91981e-20)
(97.157 -20.8449 -1.07032e-15)
(95.8341 -20.3048 0)
(95.9285 -20.7323 8.97394e-21)
(95.2004 -20.1125 0)
(103.63 22.5866 0)
(125.852 33.9216 8.4974e-15)
(133.061 35.2794 0)
(136.969 37.7965 3.77737e-15)
(140.488 39.3982 0)
(142.977 40.493 3.35727e-15)
(144.841 41.3176 0)
(146.385 42.022 3.00255e-15)
(147.721 42.6085 -2.90512e-15)
(148.949 43.1671 -2.86082e-15)
(150.125 43.6938 -2.86108e-15)
(151.263 44.2241 0)
(152.373 44.7373 0)
(153.438 45.2593 0)
(154.469 45.7513 0)
(155.428 46.2532 -3.28622e-15)
(156.375 46.7302 -3.42146e-15)
(157.273 47.2126 3.5651e-15)
(158.198 47.6573 3.71175e-15)
(159.106 48.1386 0)
(160.126 48.5811 0)
(161.163 49.1083 -8.26787e-15)
(162.431 49.6162 -8.51238e-15)
(163.749 50.2371 -4.36729e-15)
(165.386 50.8331 0)
(167.062 51.6054 4.55888e-15)
(169.178 52.3149 0)
(171.258 53.2733 0)
(173.96 54.1257 4.81176e-15)
(176.5 55.2914 4.88568e-15)
(179.895 56.2985 -4.9756e-15)
(182.935 57.7372 0)
(187.22 58.9288 0)
(190.818 60.6878 0)
(196.238 62.0842 0)
(200.416 64.2431 5.2807e-15)
(207.327 65.9023 0)
(212.102 68.5284 -5.31016e-15)
(220.973 70.5318 7.57835e-19)
(226.348 73.7543 5.21258e-15)
(237.912 76.2098 -5.21302e-15)
(243.85 80.1557 0)
(259.157 83.26 4.93939e-15)
(265.597 88.1161 0)
(286.184 92.2135 -1.37614e-18)
(292.895 98.0781 3.4503e-15)
(320.591 103.684 -3.85312e-15)
(326.894 110.53 0)
(364.771 118.512 3.0292e-15)
(369.961 126.053 0)
(428.213 139.739 1.98876e-15)
(432.159 146.078 2.51264e-15)
(580.278 199.263 -1.83994e-16)
(677.925 -7.28916 5.42762e-16)
(510.82 -103.26 -3.31876e-18)
(410.492 -83.7728 0)
(347.498 -74.0639 0)
(321.644 -66.7303 0)
(287.853 -61.5972 0)
(275.089 -57.2738 3.49505e-17)
(251.795 -53.8173 1.73981e-16)
(242.98 -50.7235 -1.90841e-16)
(225.577 -48.1209 0)
(217.963 -45.5858 -3.71664e-16)
(204.167 -43.4375 -2.66297e-16)
(197.019 -41.2757 5.00745e-16)
(185.918 -39.4698 2.9943e-16)
(179.427 -37.6677 4.6829e-20)
(170.583 -36.1589 0)
(164.917 -34.6899 -3.24833e-16)
(157.801 -33.4282 3.4689e-16)
(152.836 -32.199 0)
(147.019 -31.127 3.34304e-20)
(142.652 -30.0903 0)
(137.844 -29.1772 0)
(134.046 -28.3087 -4.20246e-16)
(130.073 -27.5373 0)
(126.836 -26.8138 0)
(123.595 -26.1779 4.73237e-16)
(120.876 -25.5955 0)
(118.246 -25.0685 0)
(116.047 -24.6106 0)
(113.959 -24.1864 -5.459e-16)
(112.229 -23.8389 0)
(110.583 -23.4951 0)
(109.224 -23.2337 6.10065e-16)
(107.885 -22.9323 6.33937e-16)
(106.802 -22.7421 0)
(105.608 -22.4592 6.8586e-16)
(104.692 -22.3117 0)
(103.558 -22.0162 0)
(102.787 -21.9249 7.70644e-16)
(101.636 -21.5904 0)
(101.053 -21.5863 0)
(99.8261 -21.1695 8.61151e-16)
(99.5552 -21.3306 0)
(98.2304 -20.7766 0)
(98.2894 -21.2297 9.41289e-16)
(97.5184 -20.5713 0)
(103.56 21.6605 0)
(124.695 33.2383 -2.52352e-15)
(131.634 34.6033 0)
(135.492 37.258 0)
(139.033 38.8933 0)
(141.65 40.0402 -2.44118e-19)
(143.697 40.9299 2.37495e-15)
(145.431 41.6981 2.29592e-15)
(146.945 42.3399 2.23967e-15)
(148.335 42.9484 0)
(149.656 43.5186 2.2087e-15)
(150.927 44.0895 0)
(152.16 44.6399 0)
(153.337 45.1978 2.3355e-15)
(154.476 45.7235 2.41133e-15)
(155.537 46.2587 0)
(156.582 46.7663 0)
(157.576 47.2799 0)
(158.594 47.7529 -2.80844e-15)
(159.596 48.2638 0)
(160.707 48.7322 0)
(161.836 49.2878 6.24475e-15)
(163.191 49.8182 6.43055e-15)
(164.598 50.4671 0)
(166.317 51.0826 0)
(168.08 51.8836 -2.34886e-19)
(170.274 52.6099 0)
(172.444 53.6002 0)
(175.224 54.467 0)
(177.864 55.6712 0)
(181.34 56.6901 3.8317e-15)
(184.499 58.1786 0)
(188.868 59.3769 0)
(192.61 61.2018 4.057e-15)
(198.113 62.5958 0)
(202.473 64.8446 0)
(209.464 66.4857 0)
(214.473 69.2374 4.2862e-15)
(223.412 71.1963 8.66132e-15)
(229.093 74.5948 -4.29113e-15)
(240.699 76.9637 4.30575e-15)
(247.038 81.1552 0)
(262.34 84.1107 0)
(269.309 89.3072 0)
(289.819 93.1713 -1.14273e-18)
(297.239 99.5048 0)
(324.765 104.777 3.32586e-15)
(332.045 112.257 -1.83569e-15)
(369.612 119.794 -5.23761e-15)
(376.152 128.129 0)
(433.652 141.241 -1.67427e-15)
(439.692 148.359 0)
(582.481 199.548 1.26393e-16)
(679.598 -6.85084 3.55183e-16)
(525.155 -104.959 -5.36451e-16)
(428.764 -86.7153 0)
(362.808 -76.8923 -9.35935e-18)
(333.616 -68.8553 0)
(297.807 -63.4626 0)
(283.41 -58.7624 0)
(259.16 -55.1905 -7.84334e-20)
(249.458 -51.8824 1.6642e-16)
(231.518 -49.2171 -1.94763e-16)
(223.361 -46.5465 3.21818e-16)
(209.221 -44.3574 2.30481e-16)
(201.703 -42.1053 -4.31376e-16)
(190.347 -40.2687 -2.57865e-16)
(183.576 -38.4032 5.04215e-16)
(174.524 -36.8678 0)
(168.632 -35.3511 3.49422e-20)
(161.341 -34.065 0)
(156.194 -32.7988 -3.03157e-16)
(150.232 -31.7054 3.20135e-16)
(145.721 -30.6408 -3.30342e-16)
(140.797 -29.7104 -3.4676e-16)
(136.886 -28.8216 2.59131e-20)
(132.821 -28.0372 0)
(129.497 -27.2998 3.89595e-16)
(126.188 -26.6548 0)
(123.408 -26.0642 0)
(120.731 -25.5327 0)
(118.493 -25.0716 0)
(116.379 -24.6466 0)
(114.626 -24.2992 0)
(112.966 -23.9557 0)
(111.592 -23.6952 0)
(110.244 -23.3936 -5.45646e-16)
(109.147 -23.2033 0)
(107.944 -22.9185 0)
(107.012 -22.77 0)
(105.868 -22.4711 0)
(105.076 -22.3785 0)
(103.916 -22.0391 0)
(103.307 -22.0346 0)
(102.072 -21.6116 0)
(101.769 -21.7758 0)
(100.438 -21.21 0)
(100.465 -21.6849 0)
(99.6493 -20.9922 0)
(103.467 20.9284 0)
(123.63 32.494 -1.71735e-15)
(130.369 34.0008 0)
(134.246 36.7607 0)
(137.795 38.4265 1.927e-15)
(140.479 39.6158 -3.82763e-15)
(142.64 40.5533 -1.87985e-15)
(144.508 41.3707 -1.42857e-19)
(146.159 42.0574 0)
(147.679 42.7075 0)
(149.122 43.3148 -1.78956e-15)
(150.503 43.9203 -1.80418e-15)
(151.837 44.5021 1.83387e-15)
(153.107 45.0899 -1.87701e-15)
(154.33 45.643 -1.93143e-15)
(155.47 46.2044 0)
(156.588 46.7354 0)
(157.652 47.2719 0)
(158.736 47.7646 0)
(159.8 48.2955 0)
(160.973 48.7805 0)
(162.162 49.354 -1.31218e-19)
(163.575 49.8979 -2.51748e-15)
(165.041 50.5641 0)
(166.817 51.191 -2.64058e-15)
(168.639 52.0104 -5.397e-15)
(170.889 52.7468 -2.75503e-15)
(173.123 53.7582 -2.81318e-15)
(175.96 54.6336 -2.87284e-15)
(178.673 55.8645 2.93521e-15)
(182.21 56.8902 -3.00187e-15)
(185.455 58.4135 -3.06776e-15)
(189.888 59.6151 -3.14105e-15)
(193.734 61.4868 -6.40852e-15)
(199.301 62.8771 0)
(203.792 65.1909 3.33395e-15)
(210.845 66.816 0)
(216.024 69.6606 -3.43962e-15)
(225.015 71.5828 -3.48459e-15)
(230.924 75.1146 0)
(242.56 77.4132 3.50292e-15)
(249.207 81.7957 0)
(264.5 84.6297 0)
(271.888 90.0975 0)
(292.322 93.7691 -3.19269e-15)
(300.32 100.483 0)
(327.678 105.478 -5.55591e-15)
(335.775 113.476 2.23049e-18)
(373.02 120.639 4.34237e-15)
(380.706 129.618 -8.33853e-17)
(437.456 142.251 0)
(444.993 149.842 -1.60877e-15)
(583.809 199.286 9.01105e-17)
(679.493 -6.438 -2.37679e-16)
(534.096 -105.461 -4.21088e-16)
(443.949 -89.0284 0)
(376.763 -79.4023 8.74529e-18)
(344.885 -70.808 0)
(307.235 -65.1934 0)
(291.286 -60.145 2.81873e-17)
(266.12 -56.4644 -2.76888e-16)
(255.561 -52.9561 -6.17055e-20)
(237.109 -50.2308 5.34735e-20)
(228.433 -47.4345 -1.43399e-16)
(213.969 -45.2067 -2.05336e-16)
(206.103 -42.8719 1.91349e-16)
(194.511 -41.007 4.57393e-16)
(187.479 -39.0843 -3.64748e-20)
(178.234 -37.5246 0)
(172.134 -35.9649 2.45693e-16)
(164.68 -34.6563 2.62408e-16)
(159.364 -33.3568 5.3491e-16)
(153.267 -32.2437 -2.82443e-16)
(148.621 -31.1538 2.91393e-16)
(143.588 -30.2075 2.32693e-20)
(139.571 -29.3002 3.1717e-16)
(135.42 -28.504 0)
(132.016 -27.7542 -6.87556e-16)
(128.642 -27.1013 0)
(125.806 -26.5038 3.70801e-16)
(123.086 -25.9687 0)
(120.813 -25.5054 0)
(118.675 -25.0801 -4.14156e-16)
(116.902 -24.7333 0)
(115.228 -24.3906 0)
(113.841 -24.1311 4.65098e-16)
(112.483 -23.8294 -4.84051e-16)
(111.373 -23.6388 0)
(110.161 -23.3521 -5.25251e-16)
(109.211 -23.2024 0)
(108.057 -22.9001 0)
(107.244 -22.8057 0)
(106.073 -22.4618 0)
(105.439 -22.4562 0)
(104.194 -22.0275 6.63447e-16)
(103.86 -22.1937 6.85766e-16)
(102.52 -21.6173 0)
(102.518 -22.1114 -7.28318e-16)
(101.655 -21.3874 0)
(103.351 20.2391 0)
(122.651 31.7073 2.58114e-15)
(129.22 33.4298 0)
(133.143 36.2906 0)
(136.699 37.9893 -1.5331e-15)
(139.425 39.2166 1.54998e-15)
(141.663 40.1918 -1.54419e-15)
(143.63 41.0481 -1.20022e-19)
(145.389 41.7718 0)
(147.017 42.4575 0)
(148.562 43.0971 1.50147e-15)
(150.038 43.7331 1.512e-15)
(151.459 44.3426 -1.53356e-15)
(152.808 44.9565 0)
(154.102 45.5333 -1.60567e-15)
(155.307 46.1168 0)
(156.483 46.6667 0)
(157.6 47.2211 0)
(158.732 47.7287 0)
(159.843 48.2738 -1.88053e-15)
(161.058 48.7699 0)
(162.29 49.3551 -3.98095e-15)
(163.744 49.9069 -2.03986e-15)
(165.251 50.5839 2.08634e-15)
(167.066 51.2172 2.13024e-15)
(168.931 52.0482 2.17338e-15)
(171.223 52.7903 4.433e-15)
(173.504 53.8158 2.26161e-15)
(176.386 54.696 4.61712e-15)
(179.152 55.9451 -2.35845e-15)
(182.738 56.9743 4.82366e-15)
(186.045 58.5219 2.46578e-15)
(190.528 59.724 2.3967e-19)
(194.45 61.6288 2.57795e-15)
(200.068 63.0143 -2.6426e-15)
(204.652 65.3745 -5.37291e-15)
(211.753 66.9849 0)
(217.054 69.8968 0)
(226.087 71.7883 2.81878e-15)
(232.157 75.4186 2.82716e-15)
(243.819 77.66 -2.84671e-15)
(250.689 82.1864 -2.78912e-15)
(265.978 84.923 0)
(273.677 90.5994 0)
(294.054 94.1172 0)
(302.494 101.129 0)
(329.713 105.902 2.26089e-15)
(338.454 114.309 1.30958e-15)
(375.409 121.169 -1.73924e-15)
(384.004 130.642 1.34381e-16)
(440.084 142.885 0)
(448.595 150.68 2.37123e-15)
(584.611 198.703 -1.35671e-16)
(678.871 -6.08205 1.66454e-16)
(539.319 -105.248 1.94632e-18)
(456.189 -90.7589 0)
(389.27 -81.5838 0)
(355.447 -72.5911 0)
(316.192 -66.8026 -8.59112e-17)
(298.799 -61.4382 -2.5961e-17)
(272.762 -57.6578 1.27361e-16)
(261.384 -53.9629 -1.36283e-16)
(242.44 -51.181 4.78723e-20)
(233.266 -48.2673 0)
(218.494 -46.003 -1.86609e-16)
(210.297 -43.5916 -1.73284e-16)
(198.484 -41.7003 -2.07101e-16)
(191.206 -39.7252 -2.01414e-16)
(181.782 -38.143 2.21991e-16)
(175.484 -36.5439 0)
(167.879 -35.2145 -4.73449e-16)
(162.402 -33.8844 -4.82261e-16)
(156.179 -32.7528 2.54703e-16)
(151.404 -31.6396 0)
(146.267 -30.6784 2.7585e-16)
(142.15 -29.7543 0)
(137.917 -28.9472 0)
(134.437 -28.1862 1.95802e-20)
(131.001 -27.5262 0)
(128.112 -26.9227 -1.87178e-20)
(125.353 -26.3849 0)
(123.047 -25.9201 -3.60574e-16)
(120.886 -25.495 3.74459e-16)
(119.094 -25.1491 -3.89152e-16)
(117.408 -24.8074 0)
(116.008 -24.549 -4.21431e-16)
(114.64 -24.2471 1.95754e-20)
(113.516 -24.0562 0)
(112.293 -23.7675 9.53678e-16)
(111.327 -23.6163 -4.97126e-16)
(110.161 -23.3105 0)
(109.327 -23.214 -5.39025e-16)
(108.143 -22.8657 -5.60407e-16)
(107.485 -22.8585 0)
(106.228 -22.4244 -6.03809e-16)
(105.865 -22.5918 -1.01654e-20)
(104.513 -22.0056 0)
(104.483 -22.5167 6.63921e-16)
(103.573 -21.7636 -6.87861e-16)
(103.229 19.5668 0)
(121.737 30.914 -3.54833e-19)
(128.156 32.8816 0)
(132.136 35.8414 0)
(135.703 37.5745 0)
(138.46 38.8379 0)
(140.755 39.8447 1.1425e-19)
(142.798 40.733 -1.30257e-15)
(144.643 41.4879 -1.296e-15)
(146.361 42.2043 0)
(147.995 42.8725 0)
(149.555 43.5358 0)
(151.053 44.1705 -1.31739e-15)
(152.471 44.8079 1.34178e-15)
(153.827 45.4059 1.37321e-15)
(155.086 46.0088 0)
(156.311 46.575 0)
(157.47 47.1442 0)
(158.641 47.6635 0)
(159.786 48.2193 7.9353e-20)
(161.034 48.7231 1.62628e-15)
(162.297 49.316 3.33192e-15)
(163.78 49.8723 8.96086e-20)
(165.316 50.5561 -3.47339e-15)
(167.162 51.1926 1.76932e-15)
(169.06 52.0311 0)
(171.385 52.7762 -3.66996e-15)
(173.703 53.8112 1.86969e-15)
(176.62 54.6938 -1.42572e-19)
(179.429 55.9556 0)
(183.053 56.9861 -1.98937e-15)
(186.409 58.5509 0)
(190.933 59.7518 2.07956e-15)
(194.911 61.6802 -2.12123e-15)
(200.571 63.0601 2.17303e-15)
(205.223 65.4536 2.20765e-15)
(212.364 67.0506 0)
(217.752 70.0114 0)
(226.821 71.8765 -4.62841e-15)
(233.006 75.5791 -2.31829e-15)
(244.693 77.7735 2.33475e-15)
(251.721 82.4071 7.90167e-19)
(267.013 85.0652 2.28817e-15)
(274.935 90.8989 0)
(295.277 94.2948 2.1285e-15)
(304.042 101.534 1.73974e-15)
(331.162 106.133 -1.81768e-15)
(340.385 114.851 0)
(377.109 121.473 0)
(386.371 131.303 -1.02618e-16)
(441.906 143.234 0)
(451.049 151.051 -1.73473e-15)
(585.091 197.935 5.34759e-17)
(678.135 -5.77443 -1.2496e-16)
(542.382 -104.711 2.35836e-16)
(465.806 -91.9812 0)
(400.257 -83.4321 0)
(365.265 -74.2013 0)
(324.689 -68.2944 8.05897e-17)
(305.987 -62.6501 0)
(279.134 -58.7813 1.18591e-16)
(266.979 -54.9136 1.26277e-16)
(247.565 -52.0789 1.47806e-16)
(237.914 -49.0556 0)
(222.849 -46.7568 1.7223e-16)
(214.336 -44.2742 1.5945e-16)
(202.313 -42.3583 0)
(194.802 -40.3346 1.8482e-16)
(185.208 -38.7315 -2.58493e-20)
(178.723 -37.0961 0)
(170.974 -35.7472 2.29916e-20)
(165.344 -34.3886 4.41903e-16)
(158.999 -33.2397 2.33406e-16)
(154.101 -32.1048 -2.40689e-16)
(148.866 -31.1297 0)
(144.652 -30.1899 0)
(140.341 -29.3726 0)
(136.787 -28.6014 2.84317e-16)
(133.294 -27.9351 0)
(130.354 -27.3264 -3.07091e-16)
(127.557 -26.7864 -3.18992e-16)
(125.22 -26.3206 3.31205e-16)
(123.037 -25.8962 0)
(121.227 -25.5515 3.57923e-16)
(119.528 -25.2109 0)
(118.115 -24.9535 3.88111e-16)
(116.737 -24.6514 4.04458e-16)
(115.599 -24.4599 -4.21951e-16)
(114.365 -24.1692 -4.39949e-16)
(113.382 -24.0162 4.58958e-16)
(112.202 -23.7068 -4.781e-16)
(111.348 -23.608 4.98111e-16)
(110.15 -23.255 5.17964e-16)
(109.467 -23.2459 0)
(108.197 -22.8065 0)
(107.805 -22.9745 -5.78097e-16)
(106.439 -22.3791 0)
(106.382 -22.9057 0)
(105.423 -22.1253 6.36278e-16)
(103.108 18.9163 0)
(120.873 30.1336 -1.73996e-15)
(127.157 32.3527 0)
(131.199 35.4081 0)
(134.779 37.1768 0)
(137.564 38.4754 0)
(139.905 39.5103 2.25483e-15)
(142.008 40.426 0)
(143.924 41.2076 8.03832e-20)
(145.72 41.951 0)
(147.431 42.6447 0)
(149.065 43.3329 0)
(150.632 43.9907 1.1553e-15)
(152.112 44.6497 -1.17492e-15)
(153.522 45.2672 1.19998e-15)
(154.83 45.8876 1.22953e-15)
(156.095 46.4682 0)
(157.29 47.0501 0)
(158.492 47.5791 0)
(159.664 48.1433 1.36607e-15)
(160.937 48.6526 -1.39853e-15)
(162.223 49.2507 -2.85691e-15)
(163.729 49.8093 2.91208e-15)
(165.289 50.4972 1.48167e-15)
(167.159 51.1351 -3.01305e-15)
(169.082 51.9784 0)
(171.435 52.7248 3.11482e-15)
(173.783 53.7662 -1.58476e-15)
(176.731 54.6497 -1.61491e-15)
(179.574 55.9206 0)
(183.231 56.9512 -1.68094e-15)
(186.626 58.5283 0)
(191.186 59.727 1.75328e-15)
(195.209 61.6726 1.7859e-15)
(200.904 63.0465 0)
(205.609 65.4644 0)
(212.784 67.0488 1.89176e-15)
(218.238 70.0458 0)
(227.338 71.8878 1.93544e-15)
(233.607 75.644 -1.93052e-15)
(245.319 77.7988 -3.89076e-15)
(252.459 82.5125 1.89599e-15)
(267.763 85.1064 -1.89682e-15)
(275.844 91.0585 1.74924e-15)
(296.172 94.3572 -1.74736e-15)
(305.171 101.769 -1.41714e-15)
(332.23 106.232 1.46546e-15)
(341.802 115.182 0)
(378.357 121.617 0)
(388.085 131.694 7.6868e-17)
(443.202 143.378 0)
(452.783 151.113 6.46294e-16)
(585.364 197.056 4.35249e-17)
(677.394 -5.49971 0)
(544.294 -104.054 0)
(473.226 -92.786 4.8136e-16)
(409.715 -84.9541 6.67127e-18)
(374.293 -75.6347 0)
(332.716 -69.6692 7.59265e-17)
(312.866 -63.7844 -2.29619e-17)
(285.263 -59.8406 -2.23089e-16)
(272.376 -55.8144 -5.91428e-17)
(252.515 -52.9314 1.38419e-16)
(242.411 -49.8061 0)
(227.064 -47.4751 0)
(218.249 -44.9262 -1.484e-16)
(206.028 -42.9871 1.77158e-16)
(198.295 -40.9185 -1.71724e-16)
(188.539 -39.2959 -1.89195e-16)
(181.876 -37.6266 -1.88519e-16)
(173.988 -36.2593 2.01416e-16)
(168.212 -34.8741 -4.10012e-16)
(161.751 -33.7088 -2.1662e-16)
(156.735 -32.5536 2.23359e-16)
(151.403 -31.5653 0)
(147.096 -30.6109 0)
(142.71 -29.7842 0)
(139.085 -29.0036 2.63995e-16)
(135.536 -28.3315 0)
(132.548 -27.7183 0)
(129.715 -27.1767 2.96592e-16)
(127.348 -26.7104 3.08084e-16)
(125.145 -26.2869 0)
(123.317 -25.9436 0)
(121.605 -25.6041 0)
(120.179 -25.3477 -7.23964e-16)
(118.789 -25.0454 -3.77422e-16)
(117.637 -24.853 7.88035e-16)
(116.391 -24.56 0)
(115.39 -24.4051 4.28995e-16)
(114.196 -24.0919 4.47072e-16)
(113.321 -23.9904 0)
(112.107 -23.6329 0)
(111.4 -23.6214 0)
(110.115 -23.1769 0)
(109.694 -23.3449 0)
(108.313 -22.7408 0)
(108.23 -23.2815 0)
(107.222 -22.475 5.95891e-16)
(102.991 18.2907 0)
(120.051 29.3727 1.50847e-15)
(126.21 31.8402 0)
(130.316 34.9869 8.8485e-16)
(133.912 36.7923 -9.3653e-16)
(136.723 38.1261 0)
(139.103 39.1868 -8.79807e-20)
(141.256 40.1267 0)
(143.233 40.9317 7.17979e-20)
(145.095 41.6991 -1.00674e-15)
(146.875 42.4159 -1.01041e-15)
(148.576 43.1269 0)
(150.205 43.8061 1.02935e-15)
(151.74 44.4853 0)
(153.199 45.1209 -1.06663e-15)
(154.549 45.7574 -1.0909e-15)
(155.851 46.3511 -1.11759e-15)
(157.075 46.9443 0)