/*--------------------------------*- C++ -*----------------------------------*\
| =========                 |                                                 |
| \\      /  F ield         | OpenFOAM: The Open Source CFD Toolbox           |
|  \\    /   O peration     | Version:  2412                                  |
|   \\  /    A nd           | Website:  www.openfoam.com                      |
|    \\/     M anipulation  |                                                 |
\*---------------------------------------------------------------------------*/
FoamFile
{
    version     2.0;
    format      ascii;
    arch        "LSB;label=32;scalar=64";
    class       volScalarField;
    location    "0.7";
    object      epsilon;
}
// * * * * * * * * * * * * * * * * * * * * * * * * * * * * * * * * * * * * * //

dimensions      [0 2 -3 0 0 0 0];

internalField   nonuniform List<scalar> 
13079
(
416.402
471.353
556.682
691.092
880.858
1101.95
1313.89
1482.66
1592.89
1648.11
1660.95
1646.41
1616.06
1576.06
1523.5
1452.45
1370.83
1304.88
1272.89
1275.44
1301.64
1342.86
1392
1448.38
1509.73
1579.72
1656.6
1746.94
1847.38
1968.34
2103.11
2268.63
2451.41
2680.25
2928.78
3249.25
3590.86
4051.68
4535.64
5240.21
6010.44
7279.11
8790.09
11416.9
14548.2
19773.9
25289.1
33559
39835.7
50314.6
62158.3
87725.3
208536
251211
256815
268168
261534
247149
224531
211469
202399
200967
197235
194838
187838
181698
172663
164671
154485
144508
132520
120301
106854
93587.4
80078.9
67246.6
55044.4
415.628
469.555
553.512
686.349
874.791
1095.42
1308.01
1478.07
1589.57
1645.48
1658.21
1642.82
1611.02
1569.04
1513.87
1440
1356.7
1290.87
1260.13
1264.09
1291.49
1333.63
1383.55
1440.62
1502.63
1573.25
1650.72
1741.57
1842.44
1963.66
2098.57
2263.97
2446.45
2674.61
2922.22
3241.2
3581.01
4039.03
4519.81
5219.67
5985.51
7247.66
8752.22
11364.7
14471.7
19636.8
25041.2
33085.7
39122.7
49361.4
61047.3
86139.4
204769
246855
250361
259113
251453
236847
215001
202285
193170
191129
186686
183625
176240
169935
160986
153220
143410
133897
122483
110909
98183.5
85663.5
72923
60856.7
49465.9
414.874
467.803
550.425
681.73
868.885
1089.08
1302.33
1473.7
1586.5
1643.17
1655.91
1639.8
1606.71
1562.89
1505.22
1428.64
1343.77
1278.1
1248.56
1253.86
1282.35
1325.35
1375.98
1433.69
1496.31
1567.51
1645.52
1736.84
1838.1
1959.57
2094.6
2259.89
2442.08
2669.61
2916.37
3233.96
3572.1
4027.53
4505.38
5200.92
5962.78
7219
8717.72
11316.6
14400.5
19506.8
24803.7
32631.7
38443.9
48460.8
59997.4
84617.9
201086
242670
244251
250578
241980
227173
206008
193536
184283
181582
176416
172694
164943
158486
149633
142091
132655
123597
112753
101820
89815.5
78040.2
66074.5
54791.6
44241
414.138
466.095
547.417
677.232
863.136
1082.92
1296.85
1469.55
1583.68
1641.16
1653.99
1637.29
1603.06
1557.54
1497.46
1418.28
1331.94
1266.48
1238.09
1244.64
1274.16
1317.93
1369.21
1427.51
1490.7
1562.42
1640.94
1732.69
1834.31
1956.01
2091.14
2256.33
2438.26
2665.19
2911.16
3227.47
3564.08
4017.11
4492.27
5183.84
5942.12
7192.95
8686.37
11272.5
14334.1
19383.3
24576.1
32196.1
37797.8
47609.6
59004.7
83157
197480
238639
238457
242528
233072
218082
197512
185192
175722
172322
166432
162063
153972
147378
138634
131315
122252
113642
103367
93069.3
81785.7
70754.2
59571
49088.8
39400.4
413.42
464.429
544.486
672.85
857.539
1076.93
1291.55
1465.59
1581.08
1639.42
1652.43
1635.27
1600.04
1552.93
1490.54
1408.85
1321.12
1255.9
1228.63
1236.36
1266.82
1311.31
1363.19
1422.02
1485.73
1557.94
1636.93
1729.07
1831.03
1952.93
2088.17
2253.26
2434.93
2661.33
2906.57
3221.69
3556.88
4007.7
4480.41
5168.34
5923.41
7169.37
8658.01
11232.1
14272.3
19266.1
24358.1
31778.5
37183.2
46805.4
58066
81753.1
193948
234748
232958
234931
224693
209533
189479
177225
167472
163348
156742
151747
143350
136637
128021
120926
112238
104069
94360.9
84695.3
74131.6
63842.4
53449.1
43781.9
34966.2
27569.6
21838.6
17640.1
14597.2
12363.5
10673.3
9324.83
8221.1
7262.95
6437.49
5693.07
5052.24
4476.66
3996.24
3576.38
3239.33
2958.93
2743.55
2594.71
2491.96
2514.57
2548.24
412.72
462.804
541.629
668.581
852.087
1071.11
1286.43
1461.81
1578.68
1637.93
1651.2
1633.69
1597.58
1549
1484.37
1400.27
1311.26
1246.3
1220.1
1228.94
1260.26
1305.42
1357.84
1417.17
1481.36
1554.02
1633.44
1725.95
1828.21
1950.31
2085.63
2250.64
2432.08
2657.98
2902.54
3216.58
3550.48
3999.26
4469.73
5154.34
5906.57
7148.14
8632.46
11195.3
14214.9
19154.9
24149.3
31378.3
36599
46045.7
57178.1
80403.2
190486
230983
227730
227759
216808
201489
181874
169614
159523
154660
147356
141764
133099
126293
117825
110958
102647
94915.4
85773.6
76734.9
66889
57339.7
47741.5
38896.8
30949.7
24401.2
19385.5
15735
13086.9
11130.3
9636.73
8435.35
7445.98
6585.88
5845.4
5181.29
4611.91
4104.3
3681.57
3314.55
3019.42
2776.34
2588.73
2464.16
2378.46
2414.36
2454.21
412.036
461.218
538.844
664.42
846.774
1065.45
1281.47
1458.2
1576.46
1636.67
1650.28
1632.51
1595.65
1545.69
1478.92
1392.49
1302.28
1237.61
1212.44
1222.31
1254.44
1300.19
1353.12
1412.9
1477.53
1550.61
1630.42
1723.27
1825.82
1948.1
2083.51
2248.44
2429.68
2655.11
2899.07
3212.1
3544.82
3991.73
4460.17
5141.78
5891.5
7129.14
8609.59
11161.7
14161.5
19049.4
23949.3
30995.1
36044
45328.4
56338.3
79104.5
187091
227333
222755
220984
209383
193913
174669
162337
151865
146257
138284
132132
123245
116373
108076
101442
93514.7
86216
77640.1
69222.6
60090.5
51276.5
42474
34449.3
27350.1
21598.2
17234
14068.7
11764.9
10049
8726.65
7654.27
6766
5993.08
5328.29
4735.41
4229
3780.75
3408.05
3086.56
2827.45
2616.33
2452.51
2348.67
2277.55
2324.59
2369.44
411.369
459.671
536.128
660.363
841.594
1059.94
1276.66
1454.74
1574.41
1635.61
1649.62
1631.71
1594.2
1542.97
1474.12
1385.45
1294.12
1229.75
1205.57
1216.41
1249.28
1295.59
1348.97
1409.17
1474.21
1547.67
1627.86
1721.02
1823.84
1946.28
2081.78
2246.64
2427.68
2652.7
2896.1
3208.22
3539.88
3985.09
4451.69
5130.58
5878.11
7112.26
8589.24
11131.3
14112
18949.3
23758
30628.5
35517.3
44651.5
55544.1
77854.4
183759
223784
218013
214580
202387
186772
167835
155376
144490
138142
129537
122869
113809
106904
98802.8
92410.2
84871.8
78003.3
69991.8
62188.2
53763.2
45676.3
37662.7
30443.5
24155.4
19137
15356.1
12615.5
10609.8
9102.1
7928.42
6968.94
6169.85
5474.24
4876.67
4346.74
3895.66
3499.13
3169.78
2887.54
2659.39
2475.69
2332.28
2246.19
2187.58
2243.95
2292.82
410.717
458.16
533.479
656.405
836.541
1054.57
1271.99
1451.42
1572.51
1634.73
1649.22
1631.26
1593.2
1540.77
1469.92
1379.1
1286.72
1222.68
1199.44
1211.19
1244.74
1291.55
1345.36
1405.93
1471.35
1545.17
1625.7
1719.16
1822.22
1944.83
2080.41
2245.2
2426.08
2650.73
2893.62
3204.92
3535.61
3979.27
4444.23
5120.69
5866.32
7097.39
8571.29
11103.8
14066.2
18854.5
23575.1
30277.9
35017.6
44012.8
54792.8
76650.6
180487
220329
213486
208522
195791
180035
161348
148714
137392
130318
121125
113991
104812
97908.4
90031
83888.6
76746.1
70305
62855.1
55655.6
47926.7
40553.7
33313.3
26871.8
21344.5
16989.3
13723.1
11350.8
9601.87
8273.53
7228.72
6367.89
5647.35
5020.16
4482.11
4007.66
3605.1
3253.57
2961.79
2713.37
2511.87
2351.75
2225.88
2155.03
2107.17
2171.32
2223.39
410.081
456.686
530.894
652.543
831.609
1049.33
1267.46
1448.23
1570.75
1634.02
1649.04
1631.11
1592.61
1539.07
1466.28
1373.39
1280.04
1216.33
1193.99
1206.59
1240.76
1288.04
1342.23
1403.16
1468.92
1543.08
1623.92
1717.66
1820.95
1943.71
2079.37
2244.12
2424.85
2649.16
2891.6
3202.16
3531.98
3974.25
4437.75
5112.03
5856.06
7084.43
8555.61
11079.2
14023.9
18764.6
23400.1
29943
34544.1
43410.5
54082.2
75490.6
177274
216955
209158
202786
189566
173674
155184
142335
130565
122786
113058
105515
96273.3
89408.7
81782.4
75900.3
69159.9
63142.9
56249
49640.6
42591.9
35913.2
29420.2
23716.2
18889
15124.2
12306.9
10251.6
8722.82
7548.73
6615.49
5840.8
5189.38
4622.62
4137.16
3711.52
3351.44
3039.06
2779.81
2560.6
2382.08
2242.25
2131.5
2073.73
2035.13
2105.75
2160.32
409.459
455.246
528.371
648.774
826.793
1044.22
1263.04
1445.15
1569.1
1633.46
1649.07
1631.25
1592.39
1537.82
1463.15
1368.28
1274.02
1210.66
1189.18
1202.56
1237.31
1285.01
1339.55
1400.8
1466.88
1541.35
1622.49
1716.48
1820
1942.91
2078.64
2243.36
2423.96
2647.97
2890.02
3199.91
3528.96
3969.98
4432.18
5104.55
5847.24
7073.27
8542.06
11057.2
13984.9
18679.6
23233
29623.3
34095.8
42842.8
53410
74372.3
174116
213656
205014
197351
183687
167660
149322
136225
124002
115550
105345
97453.4
88209.1
81421.7
74073.7
68462
62128.7
56531.1
50184.3
44149.9
37759.6
31748.8
25967.4
20950.4
16756.5
13510.4
11080.7
9296.8
7956.24
6914.62
6077.92
5378.43
4787.79
4274.36
3835.31
3452.56
3129.62
2851.28
2620.24
2426.27
2267.59
2145.27
2047.56
2001.06
1970.43
2046.43
2102.92
408.851
453.839
525.907
645.092
822.087
1039.22
1258.74
1442.18
1567.57
1633.03
1649.27
1631.65
1592.51
1536.97
1460.5
1363.72
1268.62
1205.6
1184.94
1199.06
1234.35
1282.43
1337.29
1398.84
1465.21
1539.97
1621.38
1715.62
1819.34
1942.39
2078.21
2242.9
2423.4
2647.15
2888.85
3198.15
3526.52
3966.42
4427.5
5098.19
5839.79
7063.82
8530.54
11037.7
13949.1
18599.1
23073.5
29318.4
33671.6
42307.8
52774.1
73293.6
171012
210422
201038
192195
178129
161969
143740
130372
117700
108612
97993.7
89818.7
80631.5
73959.7
66915.7
61583.8
55660.3
50475.3
44662.3
39180.7
33420.9
28044.6
22930
18542.4
14912.7
12117.2
10020
8467.37
7287.45
6359.55
5606.41
4972.58
4435.38
3968.97
3570.84
3225.74
2935.29
2686.58
2480.01
2307.88
2166.36
2059.19
1972.76
1935.97
1912.22
1992.64
2050.55
408.258
452.465
523.502
641.496
817.486
1034.34
1254.54
1439.3
1566.12
1632.71
1649.65
1632.28
1592.95
1536.5
1458.28
1359.67
1263.79
1201.13
1181.25
1196.05
1231.82
1280.25
1335.41
1397.23
1463.88
1538.9
1620.57
1715.04
1818.95
1942.14
2078.04
2242.73
2423.14
2646.67
2888.06
3196.84
3524.62
3963.54
4423.65
5092.88
5833.64
7055.99
8520.93
11020.6
13916.2
18522.9
22921.3
29027.8
33270.6
41803.9
52172.5
72252.7
167961
207247
197217
187298
172867
156578
138422
124764
111654
101974
91010.7
82619.7
73548.5
67029.9
60312.6
55268.2
49754
44972.2
39675.1
34720.4
29557.6
24776.1
20276.7
16456.8
13323.2
10916
9102.21
7746.38
6703.48
5873.24
5192.47
4616.01
4125.8
3700.85
3338.78
3026.74
2764.71
2541.79
2356.49
2203.3
2076.66
1982.6
1905.94
1877.55
1859.74
1943.77
2002.68
407.677
451.122
521.151
637.981
812.987
1029.56
1250.44
1436.51
1564.76
1632.5
1650.16
1633.12
1593.67
1536.38
1456.46
1356.09
1259.5
1197.2
1178.05
1193.5
1229.71
1278.46
1333.88
1395.95
1462.85
1538.12
1620.03
1714.72
1818.82
1942.15
2078.13
2242.82
2423.16
2646.5
2887.64
3195.97
3523.24
3961.3
4420.58
5088.58
5828.72
7049.68
8513.11
11005.7
13886.1
18451
22776.2
28751.2
32891.8
41329.4
51603.3
71247.7
164959
204122
193539
182641
167882
151463
133351
119391
105861
95638.8
84400.8
75862.2
66963.7
60633.1
54261.2
49509.7
44400.5
40009.2
35205.6
30747.8
26143.3
21912.1
17972.3
14657.4
11955.6
9880.58
8307.7
7118.98
6192.96
5446.67
4828.67
4302.38
3853.53
3465.14
3134.85
2851.83
2614.68
2414.26
2247.46
2110.73
1997
1914.32
1846.15
1825
1812.32
1899.26
1958.82
407.11
449.81
518.855
634.545
808.583
1024.89
1246.43
1433.79
1563.47
1632.37
1650.8
1634.16
1594.64
1536.56
1455.01
1352.96
1255.7
1193.76
1175.32
1191.35
1227.97
1277.01
1332.67
1394.98
1462.11
1537.61
1619.75
1714.64
1818.92
1942.38
2078.45
2243.16
2423.46
2646.64
2887.56
3195.51
3522.35
3959.67
4418.26
5085.24
5824.95
7044.81
8506.98
10992.9
13858.7
18383.1
22637.9
28488
32534.3
40882.9
51064.6
70276.8
162007
201043
189991
178208
163151
146607
128511
114243
100317
89606.1
78166.7
69548.7
60875.2
54764
48751.3
44294.9
39582.2
35565.6
31228.6
27234.4
23146
19417.2
15979.7
13109.1
10779.9
8987.71
7619.06
6572.24
5746.02
5071.99
4508.5
4026.15
3613.72
3257.59
2955.33
2697.82
2482.46
2301.68
2151.01
2028.6
1926.11
1853.33
1792.53
1777.64
1769.4
1858.66
1918.55
406.555
448.527
516.611
631.184
804.272
1020.3
1242.5
1431.14
1562.23
1632.31
1651.56
1635.36
1595.84
1537.02
1453.89
1350.23
1252.36
1190.79
1173.01
1189.59
1226.58
1275.88
1331.76
1394.28
1461.63
1537.35
1619.7
1714.79
1819.24
1942.84
2078.99
2243.72
2424
2647.05
2887.8
3195.43
3521.92
3958.6
4416.65
5082.78
5822.29
7041.3
8502.43
10982.1
13833.7
18319
22506.3
28237.8
32197.3
40462.8
50554.7
69338.5
159102
198004
186562
173981
158657
141988
123887
109311
95017.4
83876.6
72308.8
63677.8
55276.2
49411.1
43765.7
39603.1
35274.1
31613.4
27712.7
24146.4
20529.3
17254.1
14262.3
11778.7
9768.92
8216.89
7021.24
6094.98
5354.09
4742.38
4226.34
3782.52
3402.2
3074.56
2797.02
2561.94
2365.7
2202.1
2065.51
1955.6
1862.9
1798.74
1744.35
1734.9
1730.48
1821.54
1881.51
406.013
447.272
514.416
627.896
800.048
1015.81
1238.64
1428.54
1561.05
1632.32
1652.41
1636.7
1597.25
1537.74
1453.08
1347.88
1249.46
1188.24
1171.1
1188.19
1225.52
1275.05
1331.13
1393.84
1461.39
1537.32
1619.86
1715.14
1819.75
1943.49
2079.74
2244.51
2424.77
2647.73
2888.35
3195.72
3521.92
3958.08
4415.7
5081.18
5820.65
7039.06
8499.38
10973.1
13811.2
18258.6
22381.2
28000.2
31879.8
40067.7
50072.1
68431.1
156244
194998
183242
169944
154382
137592
119467
104588
89959.6
78449.3
66825.2
58244.1
50154.7
44556.7
39281.1
35407.3
31445.4
28119
24621.9
21446.4
18255.4
15385.2
12785
10636
8898.93
7550.39
6501.29
5677.58
5009.79
4451.95
3977.27
3567.3
3215.34
2912.87
2657.16
2441.85
2262.4
2113.84
1989.58
1890.58
1806.43
1749.8
1701
1696.24
1695.12
1787.53
1847.37
405.482
446.045
512.271
624.678
795.909
1011.4
1234.86
1425.99
1559.91
1632.37
1653.34
1638.18
1598.84
1538.68
1452.54
1345.88
1246.95
1186.09
1169.54
1187.11
1224.74
1274.48
1330.74
1393.63
1461.37
1537.49
1620.22
1715.68
1820.45
1944.32
2080.67
2245.49
2425.76
2648.66
2889.18
3196.35
3522.33
3958.06
4415.38
5080.38
5819.98
7038.01
8497.72
10965.8
13790.9
18201.7
22262.2
27774.9
31581
39696.2
49615.1
67553.3
153431
192023
180021
166084
150309
133401
115240
100065
85139.5
73322.3
61711.4
53238.4
45494
40178.2
35268.9
31675.6
28060.7
25045.2
21917.7
19095.7
16286.1
13774.3
11515.6
9654.34
8149.2
6972.96
6048.11
5311.79
4706.77
4195.6
3757.07
3376.9
3049.99
2769.8
2533.4
2335.5
2170.83
2035.48
1922.01
1832.56
1755.9
1705.84
1661.92
1661.22
1662.95
1756.32
1815.83
404.963
444.845
510.172
621.527
791.849
1007.07
1231.13
1423.49
1558.8
1632.47
1654.34
1639.78
1600.59
1539.83
1452.27
1344.21
1244.8
1184.31
1168.33
1186.33
1224.24
1274.17
1330.59
1393.65
1461.56
1537.85
1620.77
1716.39
1821.33
1945.33
2081.78
2246.66
2426.96
2649.82
2890.28
3197.29
3523.12
3958.52
4415.64
5080.33
5820.23
7038.1
8497.36
10960.2
13772.7
18148.2
22149.2
27561.3
31300.1
39347.2
49182.3
66703.7
150663
189075
176891
162387
146423
129400
111193
95735
80552.9
68492.1
56960.5
48647.9
41273
36248.6
31696.8
28372.5
25082
22353
19560.5
17055.8
14584.8
12387.7
10424.8
8809.99
7501.9
6471.61
5652.24
4990.58
4439.59
3968.94
3562.07
3208.17
2903.46
2643
2423.7
2241.17
2089.51
1965.77
1861.78
1780.71
1710.6
1666.29
1626.64
1629.45
1633.62
1727.62
1786.63
404.455
443.671
508.118
618.441
787.867
1002.81
1227.46
1421.03
1557.71
1632.59
1655.39
1641.46
1602.48
1541.15
1452.22
1342.82
1243
1182.86
1167.42
1185.82
1223.98
1274.08
1330.65
1393.86
1461.93
1538.39
1621.48
1717.27
1822.35
1946.49
2083.05
2248.01
2428.34
2651.2
2891.63
3198.54
3524.27
3959.44
4416.47
5080.99
5821.34
7039.23
8498.23
10956.1
13756.5
18097.9
22042.1
27359
31036.2
39019.2
48772.2
65881
147938
186148
173842
158840
142710
125577
107317
91592.5
76195.5
63954.1
52562.9
44456.3
37467.2
32737.4
28529.9
25460.5
22470.4
20002.9
17511.8
15289.7
13117.1
11194.8
9487
8082.64
6941.83
6035.28
5305.65
4707.9
4203.54
3768.18
3389.11
3058.42
2773.38
2530.44
2326.29
2157.36
2017.19
1903.67
1808.01
1734.3
1669.93
1630.66
1594.74
1600.57
1606.84
1701.17
1759.55
403.958
442.522
506.108
615.417
783.957
998.621
1223.85
1418.59
1556.64
1632.73
1656.49
1643.24
1604.5
1542.64
1452.37
1341.72
1241.52
1181.73
1166.8
1185.57
1223.95
1274.21
1330.91
1394.25
1462.47
1539.1
1622.34
1718.3
1823.53
1947.8
2084.47
2249.51
2429.9
2652.78
2893.21
3200.06
3525.76
3960.77
4417.81
5082.31
5823.25
7041.35
8500.23
10953.4
13742.1
18050.7
21940.5
27167.7
30788.6
38711.3
48383.7
65083.9
145257
183241
170867
155432
139156
121919
103603
87630.7
72062.6
59702.5
48507
40644.6
34049.8
29612.4
25732.2
22902
20187.2
17956.7
15734.8
13762.7
11851.8
10168.2
8679.7
7454.82
6456.06
5654.59
5001.5
4458.61
3994.61
3590.06
3235.46
2925.31
2657.75
2430.37
2239.66
2082.78
1952.76
1848.25
1759.93
1692.69
1633.37
1598.52
1565.85
1574.29
1582.34
1676.75
1734.37
403.472
441.398
504.14
612.454
780.118
994.498
1220.28
1416.18
1555.58
1632.88
1657.62
1645.08
1606.62
1544.26
1452.72
1340.86
1240.32
1180.89
1166.44
1185.55
1224.14
1274.53
1331.35
1394.82
1463.17
1539.95
1623.35
1719.46
1824.83
1949.24
2086.03
2251.16
2431.62
2654.54
2895.01
3201.85
3527.56
3962.5
4419.65
5084.26
5825.91
7044.39
8503.3
10952
13729.5
18006.4
21844.4
26986.9
30556.5
38422.2
48015.3
64311.3
142618
180351
167959
152151
135750
118415
100041
83843.6
68149.1
55730.1
44779.1
37191.2
30991.8
26840.2
23267.6
20659.6
18195.4
16178.1
14195.2
12443.4
10760.9
9283.9
7983.56
6911.7
6033.67
5321.63
4733.96
4238.31
3809.34
3431.77
3098.74
2806.81
2554.8
2341.27
2162.51
2016.31
1895.27
1798.73
1716.89
1655.35
1600.46
1569.48
1539.65
1550.34
1559.9
1654.16
1710.91
402.996
440.297
502.214
609.548
776.346
990.438
1216.75
1413.78
1554.52
1633.04
1658.77
1646.97
1608.83
1546
1453.23
1340.23
1239.4
1180.32
1166.32
1185.75
1224.51
1275.02
1331.95
1395.53
1464.01
1540.94
1624.48
1720.74
1826.26
1950.81
2087.71
2252.95
2433.5
2656.48
2897.01
3203.89
3529.66
3964.6
4421.94
5086.79
5829.28
7048.28
8507.35
10951.9
13718.6
17964.9
21753.4
26816.3
30339.2
38150.8
47666
63562.2
140021
177476
165112
148987
132481
115053
96624.7
80225.6
64449.4
52028.3
41363.6
34073.2
28263.9
24387.6
21101.3
18697.9
16460
14633.5
12861.9
11303.4
9819.69
8521.15
7382.05
6440.69
5665.45
5029.69
4498.11
4043.25
3644.76
3290.86
2976.91
2701.18
2463.01
2261.82
2093.71
1956.99
1843.92
1754.42
1678.29
1621.78
1570.79
1543.22
1515.87
1528.47
1539.31
1633.21
1689.01
402.529
439.219
500.327
606.698
772.638
986.436
1213.26
1411.4
1553.46
1633.19
1659.93
1648.91
1611.11
1547.85
1453.89
1339.81
1238.73
1179.99
1166.43
1186.14
1225.07
1275.68
1332.7
1396.39
1464.99
1542.05
1625.73
1722.14
1827.8
1952.49
2089.51
2254.87
2435.51
2658.58
2899.2
3206.15
3532.04
3967.05
4424.66
5089.87
5833.3
7052.98
8512.32
10952.9
13709.3
17926.2
21667.5
26655.3
30136
37896.2
47334.6
62835.4
137466
174614
162320
145930
129337
111825
93345.7
76771
60957.6
48587.7
38243.7
31266.4
25836.5
22222.3
19199.9
16983.7
14949.1
13292.7
11707.1
10317.8
9006.63
7862.05
6861.14
6031.17
5343.61
4773.08
4289.73
3870.19
3498.32
3165.25
2868.2
2606.89
2381.08
2190.9
2032.27
1903.99
1797.99
1714.73
1643.65
1591.58
1544.02
1519.43
1494.25
1508.48
1520.38
1613.75
1668.53
402.073
438.164
498.479
603.902
768.991
982.488
1209.81
1409.03
1552.39
1633.34
1661.1
1650.88
1613.45
1549.78
1454.68
1339.59
1238.28
1179.89
1166.74
1186.72
1225.79
1276.49
1333.59
1397.38
1466.09
1543.27
1627.1
1723.65
1829.45
1954.27
2091.43
2256.91
2437.66
2660.84
2901.57
3208.63
3534.67
3969.82
4427.77
5093.46
5837.93
7058.41
8518.13
10955
13701.4
17890
21586.4
26503.8
29946.1
37657.4
47020.1
62130.1
134953
171762
159577
142973
126310
108721
90197.5
73474.7
57667.5
45397.7
35401.6
28746.2
23680.9
20313.4
17532.7
15486.7
13633.8
12128.5
10706.2
9464.69
8303.19
7291.36
6408.92
5674.19
5061.58
4547.01
4105.24
3716.37
3367.8
3053.11
2771.06
2522.61
2307.86
2127.52
1977.35
1856.59
1756.86
1679.14
1612.53
1564.37
1519.84
1497.87
1474.57
1490.18
1502.95
1595.64
1649.31
401.625
437.13
496.667
601.158
765.404
978.592
1206.38
1406.67
1551.3
1633.46
1662.27
1652.87
1615.84
1551.79
1455.59
1339.54
1238.05
1180
1167.24
1187.46
1226.65
1277.43
1334.6
1398.48
1467.3
1544.6
1628.56
1725.25
1831.18
1956.15
2093.44
2259.06
2439.92
2663.23
2904.1
3211.3
3537.53
3972.88
4431.27
5097.53
5843.14
7064.54
8524.74
10958.1
13694.9
17856.3
21510
26361.2
29769
37433.5
46721.3
61445.3
132480
168922
156878
140106
123390
105733
87173.7
70331.2
54572.3
42447
32818.9
26488.3
21769.4
18632.1
16071.4
14179.3
12488.3
11116.8
9837.8
8725.24
7693.44
6796.1
6015.35
5362.19
4813.83
4347.37
3941.57
3579.43
3251.3
2952.87
2684.17
2447.21
2242.35
2070.81
1928.21
1814.14
1720
1647.19
1584.54
1539.84
1497.97
1478.29
1456.64
1473.4
1486.87
1578.75
1631.26
401.187
436.118
494.892
598.463
761.872
974.744
1202.98
1404.3
1550.2
1633.56
1663.42
1654.87
1618.26
1553.85
1456.61
1339.65
1238.01
1180.31
1167.91
1188.36
1227.66
1278.5
1335.73
1399.69
1468.6
1546.03
1630.11
1726.94
1833.01
1958.12
2095.54
2261.3
2442.3
2665.75
2906.77
3214.16
3540.62
3976.23
4435.1
5102.03
5848.87
7071.3
8532.07
10962.1
13689.7
17824.9
21438.1
26227.2
29603.9
37223.6
46437.5
60780.1
130048
166090
154219
137323
120570
102853
84268.5
67335.5
51665.1
39723.7
30477.1
24468.9
20076.3
17152.2
14790.5
13037
11490
10236.8
9083.26
8083.19
7163.83
6365.3
5671.95
5088.82
4595.66
4170.71
3796.1
3457.3
3147.16
2863.14
2606.35
2379.67
2183.67
2020.03
1884.19
1776.1
1686.94
1618.49
1559.34
1517.71
1478.18
1460.51
1440.28
1457.99
1472.01
1562.95
1614.25
400.758
435.126
493.152
595.818
758.395
970.941
1199.6
1401.93
1549.07
1633.63
1664.56
1656.88
1620.71
1555.96
1457.71
1339.91
1238.15
1180.79
1168.74
1189.4
1228.79
1279.68
1336.97
1401
1470.01
1547.54
1631.74
1728.7
1834.91
1960.17
2097.73
2263.64
2444.78
2668.39
2909.59
3217.19
3543.92
3979.84
4439.27
5106.95
5855.09
7078.65
8540.07
10966.9
13685.7
17795.7
21370.4
26101.4
29450.3
37026.8
46167.7
60133.8
127657
163267
151596
134616
117841
100075
81476.4
64482.5
48938.4
37215.2
28357.5
22665.2
18577.4
15849.4
13667.2
12038.2
10618.8
9470.15
8426.55
7524.64
6702.82
5989.67
5371.59
4848.7
4403.11
4014.06
3666.58
3348.22
3053.95
2782.74
2536.58
2319.12
2131.08
1974.52
1844.74
1741.99
1657.26
1592.7
1536.65
1497.72
1460.26
1444.34
1425.33
1443.82
1458.26
1548.15
1598.19
400.338
434.154
491.446
593.218
754.969
967.181
1196.25
1399.56
1547.92
1633.67
1665.67
1658.87
1623.17
1558.11
1458.89
1340.3
1238.46
1181.44
1169.72
1190.56
1230.03
1280.97
1338.31
1402.4
1471.49
1549.14
1633.45
1730.55
1836.89
1962.3
2100
2266.06
2447.35
2671.14
2912.54
3220.37
3547.4
3983.69
4443.72
5112.26
5861.77
7086.55
8548.68
10972.6
13682.8
17768.7
21306.9
25983.5
29307.6
36842.4
45911
59505.5
125307
160453
149004
131979
115198
97392.7
78792.3
61767.2
46384.8
34908.8
26442.1
21055.8
17250.7
14702.3
12681.3
11163.9
9857.54
8801.24
7853.94
7037.74
6300.61
5661.36
5108.22
4637.29
4232.79
3874.88
3551.07
3250.66
2970.43
2710.61
2473.97
2264.8
2083.91
1933.7
1809.35
1711.38
1630.6
1569.49
1516.2
1479.66
1444
1429.61
1411.66
1430.77
1445.5
1534.25
1583
399.926
433.201
489.772
590.664
751.592
963.461
1192.91
1397.17
1546.74
1633.67
1666.76
1660.86
1625.63
1560.28
1460.13
1340.81
1238.91
1182.23
1170.84
1191.85
1231.38
1282.36
1339.73
1403.89
1473.05
1550.8
1635.22
1732.45
1838.93
1964.49
2102.33
2268.56
2450.01
2673.99
2915.61
3223.7
3551.06
3987.77
4448.46
5117.91
5868.86
7094.95
8557.86
10979
13681
17743.7
21247.4
25873.1
29175.2
36669.7
45666.6
58894.5
122996
157648
146442
129407
112633
94799.4
76211.3
59184.7
43996.4
32791.9
24713.4
19620.7
16076.5
13691.7
11815.1
10397.6
9191.3
8216.56
7353.68
6612.38
5948.92
5373.72
4876.74
4450.75
4081.85
3751.02
3447.9
3163.29
2895.5
2645.86
2417.75
2216.02
2041.56
1897.07
1777.59
1683.9
1606.65
1548.61
1497.75
1463.33
1429.25
1416.19
1399.15
1418.73
1433.64
1521.17
1568.59
399.522
432.267
488.13
588.153
748.263
959.779
1189.58
1394.77
1545.52
1633.63
1667.8
1662.82
1628.09
1562.46
1461.43
1341.43
1239.51
1183.17
1172.08
1193.24
1232.83
1283.83
1341.23
1405.45
1474.68
1552.53
1637.06
1734.42
1841.03
1966.74
2104.73
2271.13
2452.75
2676.94
2918.78
3227.16
3554.88
3992.05
4453.45
5123.89
5876.34
7103.8
8567.55
10986
13680.2
17720.7
21191.7
25769.9
29052.5
36507.8
45433.8
58300.2
120727
154851
143906
126893
110140
92290.1
73729.1
56730
41765.5
30851.6
23154.7
18341.5
15036.8
12800.5
11053.1
9724.84
8607.2
7704.54
6915.74
6240.01
5640.7
5121.15
4672.84
4285.79
3947.81
3640.59
3355.61
3084.95
2828.21
2587.67
2367.23
2172.2
2003.54
1864.19
1749.08
1659.22
1585.12
1529.81
1481.11
1448.55
1415.86
1403.95
1387.67
1407.6
1422.6
1508.83
1554.89
399.126
431.351
486.52
585.685
744.979
956.131
1186.27
1392.35
1544.26
1633.55
1668.81
1664.76
1630.53
1564.65
1462.78
1342.14
1240.23
1184.23
1173.43
1194.73
1234.36
1285.39
1342.81
1407.07
1476.38
1554.32
1638.96
1736.45
1843.19
1969.05
2107.19
2273.76
2455.56
2679.97
2922.05
3230.74
3558.85
3996.51
4458.68
5130.18
5884.17
7113.08
8577.72
10993.7
13680.3
17699.5
21139.6
25673.6
28939
36356.1
45211.8
57721.9
118497
152064
141394
124433
107716
89859.8
71341.4
54398.4
39684.1
29075.5
21750.4
17201.3
14115.6
12013.8
10381.9
9133.34
8094.21
7255.29
6531.59
5913.34
5370.01
4898.89
4492.85
4139.63
3828.57
3542.01
3272.97
3014.64
2767.74
2535.34
2321.79
2132.81
1969.38
1834.66
1723.48
1637.05
1565.76
1512.88
1466.09
1435.17
1403.7
1392.77
1377.14
1397.3
1412.29
1497.16
1541.84
398.738
430.454
484.939
583.257
741.739
952.517
1182.96
1389.92
1542.96
1633.41
1669.77
1666.67
1632.95
1566.83
1464.16
1342.94
1241.07
1185.41
1174.88
1196.31
1235.98
1287.01
1344.46
1408.76
1478.13
1556.16
1640.91
1738.52
1845.39
1971.4
2109.7
2276.45
2458.44
2683.07
2925.42
3234.44
3562.96
4001.16
4464.12
5136.74
5892.33
7122.74
8588.31
11001.9
13681.3
17680
21091
25583.7
28834.2
36214.1
45000
57158.9
116307
149286
138903
122023
105354
87504.2
69044.3
52185
37744.2
27451.5
20485.8
16184.8
13298.8
11318.6
9789.81
8612.4
7642.85
6860.37
6193.95
5626.16
5131.77
4702.88
4333.65
4009.91
3722.34
3453.87
3198.87
2951.47
2713.34
2488.25
2280.91
2097.39
1938.68
1808.13
1700.49
1617.14
1548.35
1497.63
1452.52
1423.05
1392.63
1382.56
1367.45
1387.75
1402.66
1486.1
1529.38
398.358
429.573
483.387
580.868
738.541
948.934
1179.67
1387.46
1541.62
1633.23
1670.69
1668.54
1635.35
1569
1465.57
1343.82
1242.01
1186.7
1176.43
1197.98
1237.67
1288.71
1346.16
1410.51
1479.94
1558.05
1642.9
1740.64
1847.64
1973.81
2112.26
2279.2
2461.37
2686.25
2928.86
3238.24
3567.19
4005.96
4469.77
5143.56
5900.79
7132.75
8599.3
11010.6
13683.1
17662.2
21045.7
25500.1
28737.7
36081
44797.8
56610.8
114158
146519
136431
119659
103050
85219
66834
50085.1
35938
25967.8
19347.3
15278.3
12574
10703.4
9266.66
8152.83
7245
6512.54
5896.62
5373.2
4921.67
4529.7
4192.58
3894.56
3627.55
3374.96
3132.36
2894.67
2664.38
2445.86
2244.12
2065.53
1911.08
1784.31
1679.84
1599.24
1532.69
1483.89
1440.28
1412.07
1382.57
1373.21
1358.54
1378.88
1393.63
1475.6
1517.46
397.985
428.71
481.863
578.517
735.383
945.38
1176.37
1384.99
1540.24
1632.98
1671.55
1670.36
1637.71
1571.15
1467
1344.76
1243.05
1188.08
1178.07
1199.72
1239.43
1290.46
1347.92
1412.3
1481.79
1559.99
1644.93
1742.8
1849.93
1976.25
2114.86
2281.99
2464.36
2689.48
2932.38
3242.13
3571.53
4010.91
4475.59
5150.61
5909.52
7143.08
8610.63
11019.9
13685.6
17646
21003.6
25422.4
28648.9
35956.3
44604.5
56076.9
112048
143763
133978
117336
100801
83000.5
64707.1
48094
34257.8
24613.4
18322.6
14469.5
11930.1
10158.4
8803.75
7746.71
6893.68
6205.64
5634.28
5149.97
4736.06
4376.4
4067.36
3791.85
3542.86
3304.25
3072.6
2843.55
2620.29
2407.67
2211
2036.87
1886.28
1762.91
1661.3
1583.17
1518.61
1471.52
1429.21
1402.12
1373.4
1364.65
1350.32
1370.62
1385.15
1465.6
1506.02
397.619
427.863
480.367
576.203
732.264
941.853
1173.08
1382.49
1538.81
1632.69
1672.36
1672.14
1640.03
1573.28
1468.44
1345.77
1244.18
1189.55
1179.79
1201.53
1241.25
1292.27
1349.73
1414.14
1483.68
1561.97
1647.01
1744.99
1852.25
1978.73
2117.5
2284.82
2467.4
2692.78
2935.97
3246.1
3575.97
4015.99
4481.58
5157.87
5918.49
7153.7
8622.29
11029.5
13688.8
17631.3
20964.6
25350.3
28567.4
35839.5
44419.6
55556.7
109979
141020
131542
115052
98601.8
80845.1
62660.2
46207
32696
23377.5
17400.1
13747.4
11357.5
9674.79
8393.5
7387.25
6582.94
5934.36
5402.43
4952.63
4571.79
4240.49
3956.04
3700.26
3467.09
3240.81
3018.86
2797.52
2580.55
2373.27
2181.18
2011.09
1863.99
1743.69
1644.65
1568.74
1505.95
1460.37
1419.22
1393.09
1365.05
1356.8
1342.74
1362.91
1377.16
1456.05
1495.03
397.26
427.031
478.898
573.924
729.182
938.352
1169.8
1379.96
1537.33
1632.33
1673.11
1673.87
1642.3
1575.38
1469.88
1346.83
1245.39
1191.11
1181.58
1203.4
1243.12
1294.13
1351.59
1416.03
1485.62
1563.98
1649.11
1747.22
1854.61
1981.25
2120.18
2287.69
2470.48
2696.13
2939.62
3250.15
3580.51
4021.19
4487.73
5165.32
5927.69
7164.57
8634.22
11039.6
13692.7
17618
20928.4
25283.6
28492.8
35730.1
44242.5
55049.7
107949
138291
129122
112804
96450.2
78749.8
60690.2
44419.7
31245.1
22250.4
16569.5
13102.3
10847.7
9245.19
8029.41
7068.58
6307.64
5694.19
5197.17
4777.89
4426.17
4119.79
3856.94
3618.48
3399.24
3183.84
2970.51
2756.04
2544.73
2342.26
2154.32
1987.89
1843.96
1726.43
1629.71
1555.78
1494.58
1450.34
1410.19
1384.9
1357.43
1349.59
1335.73
1355.72
1369.62
1446.92
1484.44
396.908
426.216
477.454
571.68
726.135
934.874
1166.51
1377.4
1535.8
1631.91
1673.8
1675.54
1644.53
1577.44
1471.33
1347.94
1246.67
1192.74
1183.44
1205.33
1245.04
1296.04
1353.49
1417.95
1487.58
1566.02
1651.25
1749.47
1856.99
1983.79
2122.88
2290.6
2473.59
2699.52
2943.33
3254.27
3585.14
4026.5
4494.01
5172.96
5937.09
7175.68
8646.42
11049.9
13697.2
17606.1
20895
25221.9
28424.7
35627.5
44072.8
54555.4
105958
135576
126717
110590
94343
76711.6
58794.2
42727.5
29898.2
21222.8
15821.6
12525.6
10393.4
8863.05
7705.81
6785.66
6063.37
5481.23
5015.19
4622.93
4296.9
4012.47
3768.59
3545.37
3338.41
3132.64
2926.97
2718.65
2512.42
2314.31
2130.13
1967.03
1825.97
1710.95
1616.31
1544.16
1484.36
1441.3
1402.03
1377.47
1350.48
1342.96
1329.23
1348.97
1362.49
1438.16
1474.22
396.563
425.416
476.036
569.47
723.123
931.419
1163.22
1374.82
1534.22
1631.43
1674.43
1677.15
1646.7
1579.46
1472.78
1349.09
1248.02
1194.44
1185.35
1207.32
1247.02
1297.98
1355.43
1419.91
1489.58
1568.09
1653.41
1751.75
1859.4
1986.36
2125.62
2293.54
2476.75
2702.96
2947.09
3258.46
3589.84
4031.92
4500.41
5180.75
5946.67
7187
8658.83
11060.7
13702.2
17595.4
20864.2
25165
28362.7
35531.3
43909.9
54073.4
104008
132878
124326
108406
92277.5
74728
56969.3
41126
28648.3
20285.9
15147.7
12009.6
9988.1
8522.7
7417.83