/*--------------------------------*- C++ -*----------------------------------*\
| =========                 |                                                 |
| \\      /  F ield         | OpenFOAM: The Open Source CFD Toolbox           |
|  \\    /   O peration     | Version:  2412                                  |
|   \\  /    A nd           | Website:  www.openfoam.com                      |
|    \\/     M anipulation  |                                                 |
\*---------------------------------------------------------------------------*/
FoamFile
{
    version     2.0;
    format      ascii;
    arch        "LSB;label=32;scalar=64";
    class       volScalarField;
    location    "0.7";
    object      k;
}
// * * * * * * * * * * * * * * * * * * * * * * * * * * * * * * * * * * * * * //

dimensions      [0 2 -2 0 0 0 0];

internalField   nonuniform List<scalar> 
13079
(
40.0935
43.7577
48.9565
55.9889
64.1678
71.7132
76.9839
79.2954
78.9
76.6238
73.3797
69.9774
67.0561
65.0978
64.2594
64.2792
64.7514
65.5652
66.7284
68.2008
69.8436
71.606
73.4228
75.3517
77.3574
79.5501
81.8629
84.4623
87.2163
90.3788
93.7135
97.62
101.676
106.532
111.461
117.56
123.576
131.379
138.936
149.604
160.365
176.99
194.439
220.913
246.634
281.656
309.575
347.194
374.796
432.249
498.546
618.357
1009.53
1055.64
906.646
784.797
684.563
599.608
530.419
481.203
443.437
414.017
385.129
359.347
333.093
310.433
288.484
269.609
251.116
234.372
217.564
201.796
186.269
171.896
158.332
146.152
135.301
40.046
43.654
48.7927
55.777
63.9389
71.5085
76.836
79.2112
78.8665
76.6199
73.3876
69.9889
67.0726
65.1234
64.2895
64.3019
64.7672
65.5871
66.7643
68.2495
69.9006
71.6683
73.489
75.4222
77.4322
79.63
81.948
84.5533
87.3132
90.4825
93.8239
97.7383
101.802
106.668
111.606
117.719
123.748
131.571
139.147
149.851
160.66
177.374
194.928
221.563
247.401
282.555
310.376
347.817
375.122
432.604
498.748
616.979
1003.75
1051.03
901.517
778.207
677.638
592.85
524.229
475.045
436.815
406.576
376.882
350.529
323.998
301.314
279.523
260.919
242.781
226.457
210.151
194.956
180.084
166.412
153.584
142.133
132.02
39.9997
43.5526
48.6324
55.5697
63.7149
71.3089
76.6932
79.1321
78.8386
76.6226
73.404
70.0109
67.1011
65.1612
64.3297
64.3325
64.7895
65.6145
66.8046
68.3015
69.9598
71.7323
73.5566
75.4936
77.5077
79.7104
82.0334
84.6446
87.4102
90.5862
93.9342
97.8565
101.928
106.804
111.752
117.879
123.921
131.764
139.361
150.1
160.957
177.76
195.416
222.207
248.157
283.434
311.152
348.412
375.437
432.949
498.928
615.547
997.85
1046.34
896.44
771.783
670.94
586.329
518.211
468.975
430.214
399.122
368.628
341.725
314.955
292.277
270.674
252.358
234.596
218.709
202.927
188.329
174.139
161.185
149.104
138.388
129.013
39.9544
43.4535
48.4757
55.3668
63.4959
71.1142
76.555
79.0576
78.8157
76.6314
73.428
70.0424
67.1406
65.21
64.3792
64.37
64.8175
65.6468
66.8487
68.3562
70.021
71.7976
73.6251
75.5657
77.5837
79.791
82.1189
84.7357
87.507
90.6896
94.0442
97.9743
102.054
106.94
111.898
118.038
124.095
131.957
139.574
150.351
161.256
178.145
195.902
222.843
248.901
284.29
311.902
348.981
375.741
433.283
499.085
614.062
991.843
1041.55
891.402
765.51
664.455
580.024
512.349
462.985
423.634
391.664
360.385
332.959
305.993
283.352
261.967
243.958
226.593
211.159
195.927
181.947
168.461
156.237
144.911
134.93
126.285
39.9101
43.3565
48.3224
55.1683
63.2816
70.9243
76.4213
78.9874
78.7973
76.6456
73.459
70.0827
67.1904
65.2688
64.4369
64.4138
64.8505
65.6835
66.8963
68.4134
70.0839
71.864
73.6943
75.6383
77.6599
79.8718
82.2044
84.8267
87.6035
90.7925
94.1537
98.0915
102.179
107.075
112.044
118.197
124.268
132.149
139.789
150.602
161.555
178.53
196.385
223.472
249.631
285.124
312.625
349.523
376.034
433.606
499.217
612.523
985.728
1036.67
886.393
759.38
658.166
573.919
506.628
457.065
417.076
384.212
352.171
324.255
297.14
274.57
253.437
235.754
218.807
203.844
189.186
175.845
163.08
151.594
141.021
131.768
123.837
117.414
112.454
108.451
104.88
101.356
97.7766
94.1295
90.5492
87.1212
83.9833
81.206
78.8336
76.9129
75.3535
74.2795
73.4453
73.2473
73.1783
74.2791
75.4025
79.1296
81.4338
39.8669
43.2617
48.1725
54.9741
63.072
70.7389
76.2918
78.9212
78.7832
76.6648
73.4964
70.1311
67.2495
65.337
64.502
64.4631
64.8883
65.7242
66.947
68.4727
70.1482
71.9314
73.7642
75.7114
77.7364
79.9526
82.2897
84.9173
87.6996
90.895
94.2626
98.2081
102.304
107.209
112.188
118.355
124.441
132.342
140.003
150.853
161.855
178.915
196.866
224.093
250.348
285.934
313.323
350.04
376.317
433.916
499.324
610.934
979.511
1031.67
881.4
753.379
652.061
567.998
501.036
451.211
410.546
376.779
344.007
315.64
288.429
265.967
245.12
227.781
211.275
196.8
182.738
170.052
158.021
147.272
137.446
128.907
121.662
115.826
111.261
107.452
103.929
100.383
96.7649
93.1012
89.5362
86.1681
83.1194
80.4632
78.214
76.4234
74.9698
73.9956
73.228
73.0954
73.0599
74.2043
75.344
79.0969
81.377
39.8246
43.1689
48.0257
54.784
62.8668
70.5579
76.1662
78.8586
78.7728
76.6886
73.5397
70.1871
67.3172
65.4135
64.5739
64.5175
64.9303
65.7686
67.0006
68.534
70.2137
71.9996
73.8347
75.7847
77.813
80.0334
82.3749
85.0076
87.7952
90.9969
94.3709
98.324
102.427
107.343
112.333
118.513
124.613
132.534
140.218
151.105
162.155
179.298
197.343
224.705
251.05
286.722
313.995
350.533
376.59
434.215
499.408
609.296
973.194
1026.56
876.417
747.5
646.127
562.248
495.562
445.419
404.049
369.38
335.916
307.143
279.893
257.576
237.051
220.076
204.034
190.064
176.618
164.599
153.307
143.286
134.192
126.345
119.748
114.441
110.209
106.548
103.051
99.4774
95.8258
92.1539
88.6121
85.3085
82.3493
79.8092
77.6742
76.0013
74.6412
73.7543
73.0435
72.9672
72.9591
74.1409
75.2933
79.0658
81.32
39.7833
43.0782
47.8821
54.5979
62.666
70.381
76.0443
78.7993
78.7659
76.7165
73.5884
70.2499
67.3931
65.4978
64.652
64.5765
64.9762
65.8163
67.0567
68.597
70.2804
72.0685
73.9056
75.8583
77.8897
80.114
82.4598
85.0976
87.8904
91.0982
94.4785
98.4392
102.55
107.476
112.476
118.67
124.785
132.726
140.432
151.356
162.455
179.679
197.816
225.308
251.738
287.487
314.643
351.002
376.854
434.502
499.468
607.611
966.783
1021.32
871.432
741.73
640.35
556.653
490.196
439.687
397.591
362.028
327.921
298.793
271.566
249.434
229.267
212.674
197.118
183.667
170.855
159.509
148.951
139.644
131.259
124.073
118.078
113.237
109.281
105.728
102.24
98.6371
94.9571
91.2843
87.7719
84.5356
81.6646
79.2343
77.2045
75.6375
74.3597
73.5491
72.8865
72.8588
72.8729
74.0865
75.2486
79.0352
81.2621
39.7429
42.9893
47.7415
54.4156
62.4693
70.208
75.9258
78.7431
78.7621
76.7482
73.642
70.3192
67.4762
65.5892
64.7355
64.6397
65.0258
65.8672
67.1152
68.6616
70.3481
72.1381
73.9768
75.932
77.9664
80.1946
82.5444
85.1872
87.9851
91.199
94.5856
98.5538
102.673
107.608
112.619
118.827
124.956
132.918
140.647
151.607
162.755
180.059
198.286
225.901
252.41
288.23
315.266
351.45
377.111
434.777
499.505
605.882
960.283
1015.95
866.438
736.061
634.718
551.202
484.929
434.013
391.18
354.742
320.046
290.62
263.48
241.576
221.803
205.61
190.56
177.64
165.472
154.798
144.964
136.346
128.641
122.077
116.632
112.192
108.46
104.984
101.493
97.8591
94.1559
90.4886
87.0103
83.8425
81.0572
78.7299
76.7961
75.3242
74.1186
73.3745
72.7529
72.767
72.7988
74.0395
75.2085
79.004
81.2023
39.7033
42.9024
47.6039
54.237
62.2765
70.0388
75.8105
78.6896
78.761
76.7832
73.7001
70.3943
67.5662
65.687
64.8241
64.7067
65.0787
65.9209
67.1758
68.7276
70.4166
72.2082
74.0484
76.0059
78.0431
80.275
82.6288
85.2764
88.0793
91.2992
94.6919
98.6676
102.795
107.739
112.761
118.982
125.127
133.109
140.86
151.858
163.054
180.437
198.75
226.485
253.068
288.949
315.865
351.877
377.36
435.041
499.52
604.111
953.698
1010.45
861.427
730.482
629.219
545.882
479.755
428.397
384.825
347.537
312.315
282.655
255.67
234.034
214.691
198.915
184.388
172.008
160.49
150.478
141.346
133.387
126.325
120.34
115.387
111.288
107.732
104.308
100.803
97.1404
93.4192
89.7626
86.3219
83.2226
80.5194
78.2881
76.4415
75.0545
73.9121
73.2261
72.6389
72.6891
72.7347
73.9982
75.1718
78.9716
81.1401
39.6647
42.8173
47.4691
54.062
62.0876
69.8731
75.6982
78.6386
78.7624
76.8212
73.7624
70.4748
67.6624
65.7906
64.9171
64.7771
65.1346
65.9773
67.2384
68.7949
70.4859
72.2787
74.1202
76.0799
78.1198
80.3552
82.7129
85.3652
88.173
91.3988
94.7976
98.7807
102.915
107.87
112.902
119.137
125.297
133.299
141.074
152.109
163.353
180.812
199.21
227.058
253.711
289.646
316.441
352.284
377.604
435.293
499.512
602.3
947.034
1004.81
856.39
724.983
623.84
540.681
474.666
422.839
378.535
340.431
304.755
274.926
248.166
226.839
207.959
192.615
178.624
166.788
155.917
146.549
138.091
130.754
124.294
118.838
114.319
110.504
107.085
103.691
100.167
96.4779
92.7434
89.1019
85.701
82.6691
80.0441
77.9014
76.1337
74.8225
73.7352
73.0999
72.5416
72.6227
72.679
73.9615
75.1375
78.9371
81.075
39.6268
42.734
47.3372
53.8906
61.9023
69.7107
75.5885
78.5899
78.7659
76.8618
73.8283
70.5602
67.7643
65.8996
65.0142
64.8507
65.1934
66.0362
67.3028
68.8633
70.5559
72.3497
74.1923
76.1539
78.1963
80.4352
82.7967
85.4536
88.2662
91.4978
94.9027
98.893
103.035
108
113.042
119.291
125.466
133.488
141.287
152.358
163.65
181.185
199.665
227.621
254.339
290.32
316.994
352.673
377.842
435.534
499.483
600.452
940.295
999.034
851.32
719.556
618.572
535.589
469.656
417.341
372.321
333.443
297.388
267.462
240.997
220.019
201.631
186.729
173.285
161.99
151.755
143.007
135.186
128.43
122.526
117.548
113.406
109.825
106.509
103.129
99.5824
95.8683
92.1249
88.5019
85.1422
82.1759
79.6245
77.5635
75.8669
74.6232
73.5839
72.9926
72.4585
72.5661
72.6301
73.9282
75.1047
78.9002
81.0064
39.5898
42.6525
47.2078
53.7225
61.7205
69.5515
75.4814
78.5432
78.7713
76.9049
73.8975
70.6502
67.8713
66.0132
65.1148
64.9271
65.2548
66.0973
67.3688
68.9327
70.6266
72.421
74.2645
76.228
78.2728
80.515
82.8802
85.5415
88.3589
91.5962
95.007
99.0046
103.155
108.129
113.182
119.444
125.634
133.677
141.499
152.607
163.947
181.556
200.115
228.174
254.951
290.973
317.526
353.045
378.075
435.764
499.433
598.569
933.486
993.11
846.209
714.19
613.402
530.595
464.721
411.906
366.191
326.588
290.239
260.29
234.188
213.596
195.724
181.273
168.379
157.616
147.999
139.838
132.614
126.394
120.999
116.445
112.627
109.233
105.992
102.615
99.0443
95.3083
91.5599
87.9581
84.6401
81.737
79.2545
77.2685
75.6357
74.4519
73.4543
72.9015
72.3874
72.5175
72.587
73.8974
75.0729
78.8603
80.9341
39.5536
42.5726
47.0811
53.5576
61.5422
69.3953
75.3767
78.4982
78.7784
76.9499
73.9697
70.7441
67.983
66.1312
65.2187
65.0061
65.3187
66.1605
67.4363
69.0031
70.6977
72.4925
74.3368
76.3021
78.3492
80.5945
82.9633
85.629
88.451
91.6939
95.1106
99.1154
103.273
108.257
113.32
119.597
125.801
133.864
141.71
152.855
164.242
181.923
200.559
228.716
255.548
291.604
318.037
353.401
378.304
435.983
499.362
596.652
926.614
987.039
841.052
708.876
608.321
525.691
459.857
406.535
360.157
319.886
283.329
253.433
227.76
207.586
190.251
176.251
163.904
153.659
144.635
137.023
130.351
124.622
119.686
115.506
111.961
108.717
105.529
102.146
98.5496
94.7948
91.0446
87.4661
84.1896
81.3469
78.9286
77.0111
75.4356
74.305
73.3436
72.8241
72.3264
72.4757
72.5484
73.8685
75.0412
78.8171
80.8577
39.5181
42.4943
46.957
53.3959
61.367
69.2419
75.2741
78.4548
78.7869
76.9968
74.0445
70.8417
68.0989
66.2529
65.3254
65.0874
65.3848
66.2257
67.5051
69.0742
70.7693
72.5644
74.4092
76.3761
78.4254
80.6738
83.046
85.716
88.5426
91.7911
95.2135
99.2254
103.391
108.384
113.458
119.748
125.968
134.051
141.921
153.102
164.536
182.287
200.998
229.248
256.13
292.214
318.527
353.741
378.529
436.191
499.272
594.705
919.684
980.82
835.842
703.607
603.318
520.869
455.06
401.232
354.229
313.352
276.68
246.913
221.728
202
185.214
171.663
159.854
150.106
141.642
134.538
128.373
123.087
118.563
114.708
111.392
108.264
105.111
101.716
98.0951
94.3244
90.5755
87.0215
83.786
81.0006
78.6419
76.7868
75.2625
74.1792
73.2491
72.7584
72.2741
72.4394
72.5135
73.8407
75.0093
78.7703
80.777
39.4834
42.4177
46.8353
53.2372
61.195
69.0912
75.1734
78.4128
78.7965
77.0451
74.1217
70.9426
68.2187
66.3781
65.4346
65.1708
65.453
66.2926
67.5752
69.1462
70.8413
72.6364
74.4817
76.45
78.5014
80.7528
83.1284
85.8026
88.6336
91.8875
95.3157
99.3346
103.507
108.51
113.595
119.898
126.133
134.236
142.13
153.348
164.828
182.647
201.43
229.769
256.697
292.803
318.999
354.067
378.751
436.388
499.162
592.73
912.7
974.451
830.572
698.373
598.384
516.119
450.327
396.001
348.418
307.004
270.309
240.745
216.104
196.843
180.61
167.5
156.212
146.937
138.995
132.357
126.651
121.765
117.605
114.031
110.904
107.866
104.734
101.323
97.678
93.894
90.1488
86.6203
83.4248
80.6936
78.39
76.5916
75.1131
74.0715
73.1684
72.7028
72.229
72.4078
72.4817
73.8136
74.9767
78.7196
80.6918
39.4494
42.3426
46.7159
53.0814
61.0259
68.9431
75.0745
78.3719
78.807
77.0947
74.2008
71.0465
68.3418
66.5062
65.546
65.2562
65.5231
66.3612
67.6465
69.2187
70.9137
72.7085
74.5542
76.5239
78.5772
80.8315
83.2103
85.8887
88.7241
91.9833
95.4172
99.443
103.623
108.635
113.73
120.047
126.297
134.421
142.339
153.592
165.118
183.005
201.857
230.278
257.249
293.371
319.451
354.38
378.971
436.575
499.033
590.728
905.669
967.933
825.238
693.167
593.512
511.436
445.656
390.845
342.733
300.856
264.233
234.943
210.892
192.11
176.428
163.747
152.959
144.126
136.668
130.451
125.16
120.629
116.791
113.456
110.485
107.515
104.393
100.962
97.2953
93.5007
89.7613
86.2587
83.1019
80.4217
78.1688
76.4219
74.9842
73.9796
73.0997
72.6557
72.1901
72.3799
72.4521
73.7866
74.943
78.6649
80.6018
39.4161
42.269
46.5989
52.9285
60.8597
68.7973
74.9773
78.3321
78.8183
77.1453
74.2817
71.1529
68.468
66.637
65.6594
65.3433
65.5951
66.4314
67.7187
69.2919
70.9864
72.7808
74.6267
76.5976
78.6528
80.9099
83.2919
85.9743
88.814
92.0785
95.518
99.5506
103.738
108.76
113.865
120.195
126.46
134.604
142.546
153.835
165.407
183.358
202.277
230.777
257.785
293.919
319.885
354.681
379.187
436.752
498.885
588.702
898.595
961.266
819.834
687.982
588.691
506.813
441.045
385.77
337.185
294.923
258.463
229.513
206.089
187.792
172.653
160.381
150.067
141.644
134.629
128.791
123.872
119.657
116.1
112.968
110.123
107.203
104.083
100.632
96.9445
93.1418
89.4098
85.9332
82.8137
80.1812
77.9749
76.2747
74.8732
73.9014
73.0413
72.6158
72.1564
72.355
72.4243
73.7593
74.9079
78.606
80.5071
39.3835
42.1968
46.4841
52.7783
60.6963
68.6538
74.8815
78.293
78.8302
77.1967
74.3641
71.2617
68.5968
66.7701
65.7745
65.432
65.6687
66.503
67.792
69.3656
71.0593
72.8532
74.6992
76.6712
78.7282
80.988
83.3731
86.0594
88.9033
92.173
95.618
99.6574
103.852
108.883
113.998
120.342
126.622
134.786
142.752
154.076
165.693
183.708
202.691
231.265
258.307
294.448
320.302
354.97
379.402
436.918
498.72
586.654
891.486
954.45
814.357
682.809
583.916
502.244
436.494
380.778
331.782
289.215
253.01
224.46
201.688
183.876
169.262
157.379
147.509
139.462
132.848
127.35
122.762
118.827
115.515
112.553
109.81
106.925
103.801
100.33
96.6231
92.8144
89.0913
85.6407
82.5567
79.9689
77.8051
76.1472
74.778
73.8351
72.9919
72.5822
72.127
72.3326
72.3979
73.7315
74.8711
78.5427
80.4075
39.3515
42.1261
46.3715
52.6308
60.5354
68.5124
74.787
78.2545
78.8424
77.2487
74.4478
71.3724
68.728
66.9051
65.891
65.5221
65.7439
66.5759
67.8661
69.4398
71.1324
72.9256
74.7716
76.7447
78.8034
81.0658
83.4539
86.144
88.992
92.2669
95.7172
99.7633
103.965
109.005
114.131
120.487
126.783
134.966
142.956
154.316
165.977
184.053
203.098
231.742
258.814
294.957
320.703
355.249
379.615
437.073
498.537
584.586
884.345
947.487
808.802
677.643
579.178
497.724
432.001
375.874
326.533
283.744
247.879
219.78
197.676
180.341
166.23
154.711
145.254
137.549
131.298
126.101
121.808
118.118
115.019
112.2
109.538
106.676
103.544
100.052
96.3289
92.5163
88.803
85.378
82.3279
79.7816
77.6569
76.0372
74.6965
73.779
72.9501
72.5538
72.1013
72.312
72.3723
73.7029
74.8324
78.475
80.3029
39.3202
42.0568
46.261
52.4858
60.3771
68.373
74.6938
78.2166
78.8547
77.3011
74.5324
71.4848
68.8612
67.0418
66.0088
65.6136
65.8205
66.65
67.941
69.5144
71.2057
72.9981
74.8439
76.818
78.8783
81.1432
83.5342
86.2281
89.0802
92.3601
95.8157
99.8685
104.078
109.126
114.262
120.632
126.942
135.145
143.16
154.554
166.259
184.395
203.499
232.208
259.307
295.448
321.088
355.517
379.826
437.219
498.338
582.501
877.18
940.38
803.166
672.478
574.472
493.249
427.566
371.062
321.445
278.518
243.072
215.467
194.038
177.165
163.531
152.349
143.271
135.876
129.95
125.02
120.989
117.514
114.598
111.899
109.301
106.453
103.31
99.7982
96.0598
92.245
88.5425
85.1425
82.1245
79.6168
77.5277
75.9425
74.627
73.7319
72.9149
72.5298
72.0786
72.2929
72.3473
73.6731
74.7916
78.4028
80.1933
39.2895
41.9888
46.1526
52.3433
60.2212
68.2354
74.6015
78.179
78.8672
77.3537
74.6179
71.5988
68.9961
67.18
66.1277
65.7062
65.8984
66.7253
68.0166
69.5893
71.2792
73.0705
74.9162
76.8911
78.9529
81.2203
83.6141
86.3117
89.1677
92.4526
95.9135
99.9728
104.189
109.247
114.393
120.775
127.1
135.323
143.361
154.791
166.539
184.732
203.893
232.663
259.785
295.921
321.457
355.777
380.036
437.354
498.122
580.399
869.994
933.13
797.445
667.307
569.792
488.814
423.189
366.347
316.525
273.544
238.588
211.511
190.751
174.321
161.134
150.263
141.532
134.414
128.778
124.086
120.286
117
114.241
111.641
109.093
106.253
103.096
99.5654
95.814
91.9985
88.3074
84.9318
81.9441
79.4722
77.4155
75.8613
74.5681
73.6926
72.8854
72.5096
72.0584
72.2749
72.3226
73.6421
74.7485
78.3262
80.0786
39.2595
41.9221
46.0461
52.2032
60.0676
68.0996
74.5102
78.1416
78.8795
77.4064
74.7039
71.7139
69.1325
67.3193
66.2474
65.7999
65.9776
66.8016
68.0928
69.6646
71.3528
73.143
74.9883
76.9641
79.0273
81.2971
83.6936
86.3948
89.2547
92.5445
96.0105
100.076
104.299
109.366
114.522
120.917
127.257
135.499
143.562
155.025
166.816
185.065
204.281
233.108
260.25
296.376
321.812
356.027
380.245
437.48
497.891
578.284
862.794
925.741
791.638
662.125
565.132
484.417
418.87
361.733
311.78
268.824
234.423
207.897
187.794
171.782
159.013
148.424
140.008
133.138
127.762
123.278
119.684
116.561
113.939
111.419
108.91
106.072
102.901
99.3522
95.5895
91.7748
88.0956
84.7435
81.7843
79.3455
77.3183
75.7921
74.5185
73.6601
72.8608
72.4926
72.0402
72.2576
72.2978
73.6097
74.703
78.245
79.959
39.23
41.8567
45.9416
52.0653
59.9161
67.9654
74.4197
78.1044
78.8916
77.4589
74.7904
71.8301
69.2701
67.4595
66.3679
65.8945
66.058
66.8788
68.1697
69.7402
71.4265
73.2155
75.0604
77.0368
79.1014
81.3734
83.7727
86.4773
89.3411
92.6356
96.1067
100.179
104.409
109.484
114.65
121.058
127.412
135.674
143.76
155.258
167.09
185.394
204.662
233.541
260.7
296.814
322.154
356.27
380.452
437.596
497.644
576.156
855.585
918.216
785.742
656.927
560.488
480.054
414.609
357.223
307.213
264.362
230.568
204.608
185.142
169.523
157.137
146.805
138.674
132.024
126.879
122.58
119.168
116.188
113.682
111.229
108.749
105.908
102.722
99.1571
95.3848
91.572
87.905
84.5756
81.6432
79.235
77.2345
75.7335
74.477
73.6334
72.8404
72.4783
72.0237
72.2408
72.2729
73.5756
74.655
78.1593
79.8344
39.2011
41.7925
45.8389
51.9297
59.7668
67.8328
74.3299
78.0671
78.9033
77.5113
74.8771
71.947
69.4087
67.6005
66.4889
65.99
66.1395
66.957
68.2471
69.816
71.5003
73.2879
75.1323
77.1094
79.1752
81.4495
83.8513
86.5594
89.4269
92.7262
96.2022
100.281
104.517
109.601
114.777
121.198
127.566
135.847
143.957
155.488
167.362
185.718
205.036
233.964
261.137
297.235
322.482
356.505
380.659
437.702
497.382
574.019
848.373
910.56
779.755
651.71
555.854
475.723
410.407
352.82
302.828
260.156
227.014
201.624
182.77
167.515
155.482
145.38
137.506
131.052
126.112
121.977
118.726
115.871
113.463
111.064
108.605
105.76
102.559
98.9786
95.1983
91.3885
87.7338
84.4262
81.519
79.139
77.1627
75.6842
74.4426
73.6119
72.8237
72.4661
72.0086
72.2241
72.2475
73.5399
74.6045
78.0692
79.7048
39.1728
41.7296
45.7381
51.7963
59.6196
67.7016
74.2407
78.0296
78.9145
77.5632
74.964
72.0646
69.5481
67.742
66.6103
66.0863
66.2219
67.036
68.325
69.892
71.5741
73.3602
75.2041
77.1817
79.2488
81.5251
83.9295
86.641
89.5121
92.816
96.297
100.381
104.625
109.718
114.903
121.336
127.719
136.019
144.153
155.717
167.631
186.038
205.403
234.377
261.56
297.641
322.798
356.734
380.865
437.799
497.106
571.873
841.162
902.777
773.677
646.469
551.228
471.421
406.265
348.528
298.628
256.204
223.747
198.927
180.653
165.734
154.022
144.127
136.483
130.203
125.447
121.456
118.347
115.6
113.277
110.922
108.478
105.625
102.409
98.8155
95.0286
91.2228
87.5804
84.2937
81.41
79.056
77.1016
75.6432
74.4145
73.5948
72.8101
72.4558
71.9945
72.2075
72.2216
73.5024
74.5513
77.9746
79.5703
39.145
41.6678
45.639
51.6649
59.4742
67.5717
74.152
77.9919
78.9251
77.6147
75.0507
72.1826
69.688
67.8838
66.7321
66.1832
66.3053
67.1158
68.4034
69.9683
71.6479
73.4325
75.2757
77.2538
79.322
81.6004
84.0073
86.722
89.5968
92.9052
96.391
100.482
104.732
109.833
115.027
121.473
127.87
136.189
144.346
155.943
167.898
186.353
205.764
234.779
261.971
298.03
323.102
356.956
381.07
437.887
496.817
569.72
833.958
894.872
767.507
641.2
546.606
467.147
402.182
344.35
294.613
252.502
220.754
196.493
178.768
164.155
152.734
143.023
135.587
129.461
124.868
121.006
118.022
115.37
113.119
110.799
108.365
105.503
102.273
98.6666
94.8745
91.0733
87.4433
84.1766
81.3148
78.9846
77.0499
75.6095
74.392
73.5815
72.7991
72.447
71.9811
72.1907
72.195
73.463
74.4954
77.8757
79.4311
39.1178
41.6071
45.5416
51.5355
59.3307
67.4431
74.0636
77.9539
78.935
77.6655
75.1373
72.3008
69.8283
68.0258
66.8541
66.2807
66.3895
67.1963
68.4821
70.0447
71.7218
73.5047
75.3472
77.3256
79.395
81.6753
84.0846
86.8025
89.6808
92.9937
96.4842
100.581
104.837
109.947
115.151
121.608
128.02
136.358
144.539
156.168
168.161
186.664
206.118
235.171
262.369
298.405
323.394
357.172
381.275
437.965
496.514
567.563
826.765
886.85
761.245
635.901
541.985
462.899
398.161
340.287
290.785
249.043
218.019
194.303
177.09
162.756
151.598
142.052
134.801
128.812
124.365
120.616
117.745
115.174
112.984
110.692
108.264
105.391
102.148
98.5307
94.7347
90.9388
87.321
84.0734
81.232
78.9237
77.0068
75.5823
74.3743
73.5716
72.7904
72.4393
71.9683
72.1736
72.1676
73.4217
74.4367
77.7724
79.2871
39.0911
41.5476
45.4459
51.4081
59.189
67.3156
73.9756
77.9155
78.9441
77.7156
75.2236
72.4192
69.9688
68.1678
66.9761
66.3788
66.4746
67.2775
68.5613
70.1212
71.7956
73.5768
75.4185
77.3973
79.4676
81.7499
84.1614
86.8826
89.7643
93.0816
96.5767
100.679
104.942
110.06
115.273
121.743
128.168
136.525
144.729
156.39
168.422
186.971
206.465
235.553
262.754
298.766
323.676
357.383
381.479
438.034
496.199
565.403
819.59
878.718
754.892
630.569
537.362
458.676
394.201
336.342
287.141
245.82
215.526
192.335
175.599
161.517
150.597
141.196
134.112
128.244
123.928
120.28
117.507
115.007
112.869
110.598
108.173
105.29
102.034
98.407
94.6081
90.8181
87.2123
83.9828
81.1605
78.8722
76.9712
75.5609
74.3608
73.5646
72.7835
72.4326
71.9558
72.156
72.1392
73.3784
74.3754
77.665
79.1384
39.0649
41.4891
45.3518
51.2826
59.049
67.1892
73.8877
77.8765
78.9524
77.7649
75.3094
72.5375
70.1094
68.3097
67.0982
66.4774
66.5604
67.3593
68.6407
70.1978
71.8695
73.6488
75.4896
77.4687
79.5399
81.8241
84.2379
86.9621
89.8471
93.1688
96.6685
100.777
105.046
110.172
115.394
121.876
128.315
136.69
144.917
156.61
168.679
187.273
206.806
235.925
263.127
299.112
323.948
357.589
381.682
438.094
495.871
563.241
812.436
870.48
748.447
625.202
532.735
454.478
390.304
332.517
283.68
242.823
213.258
190.569
174.274
160.419
149.713
140.442
133.506
127.746
123.547
119.989
117.304
114.865
112.772
110.517
108.092
105.198
101.929
98.2944
94.4937
90.71
87.1161
83.9037
81.0991
78.8292
76.9424
75.5446
74.3511
73.5601
72.7783
72.4267
71.9436
72.1379
72.1099
73.3331
74.3112
77.5534
78.9853
39.0392
41.4317
45.2592
51.1588
58.9106
67.0638
73.8001
77.837
78.9597
77.8134
75.3947
72.6557
70.2499
68.4514
67.2202
66.5763
66.6468
67.4416
68.7205
70.2746
71.9433
73.7207
75.5605
77.5398
79.6119
81.8979
84.3138
87.0411
89.9294
93.2553
96.7595
100.873
105.149
110.283
115.514
122.008
128.46
136.854
145.104
156.828
168.934
187.57
207.14
236.288
263.489
299.445
324.21
357.79
381.885
438.145
495.531
561.079
805.308
862.144
741.913
619.798
528.103
450.303
386.47
328.811
280.4
240.044
211.199
188.986
173.098
159.447
148.932
139.776
132.974
127.31
123.217
119.738
117.131
114.745
112.688
110.445
108.019
105.114
101.834
98.1921
94.3906
90.6135
87.0312
83.8351
81.0468
78.7937
76.9197
75.5328
74.3448
73.5577
72.7745
72.4212
71.9314
72.1191
72.0795
73.2859
74.2444
77.4378
78.8278
39.014
41.3753
45.1682
51.0368
58.7737
66.9393
73.7124
77.7968
78.966
77.8609
75.4794
72.7736
70.3902
68.5927
67.342
66.6756
66.7339
67.5244
68.8005
70.3514
72.0171
73.7925
75.6313
77.6107
79.6836
81.9713
84.3894
87.1196
90.0112
93.3412
96.8498
100.969
105.251
110.393
115.633
122.138
128.604
137.016
145.289
157.044
169.186
187.863
207.468
236.641
263.839
299.765
324.463
357.986
382.086
438.188
495.181
558.919
798.211
853.716
735.29
614.356
523.464
446.152
382.701
325.226
277.295
237.472
209.333
187.569
172.054
158.585
148.242
139.188
132.507
126.928
122.929
119.522
116.984
114.643
112.617
110.383
107.953
105.038
101.747
98.0993
94.2977
90.5276
86.9566
83.776
81.0029
78.7651
76.9024
75.525
74.3412
73.5572
72.7717
72.4161
71.9191
72.0995
72.048
73.2366
74.1748
77.3182
78.666
38.9892
41.32
45.0787
50.9165
58.6383
66.8157
73.6248
77.7559
78.9713
77.9073
75.5634
72.8911
70.5301
68.7336
67.4636
66.7752
66.8216
67.6077
68.8808
70.4283
72.0908
73.8641
75.7019
77.6813
79.755
82.0443
84.4645
87.1976
90.0923
93.4265
96.9393
101.065
105.352
110.501
115.751
122.267
128.747
137.177
145.472
157.257
169.435
188.151
207.789
236.985
264.178
300.073
324.708
358.179
382.288
438.222
494.819
556.761
791.149
845.203
728.582
608.875
518.817
442.024
378.997
321.762
274.362
235.095
207.643
186.301
171.128
157.821
147.633
138.669
132.095
126.593
122.679
119.335
116.859
114.557
112.557
110.328
107.894
104.968
101.668
98.0152
94.2144
90.4514
86.8915
83.7255
80.9665
78.7427
76.8899
75.5208
74.3402
73.5582
72.7699
72.4113
71.9066
72.0792
72.0154
73.1853
74.1025
77.1949
78.5001
38.9649
41.2656
44.9906
50.7978
58.5043
66.6928
73.5371
77.7142
78.9754
77.9527
75.6466
73.0081
70.6696
68.874
67.5849
66.8751
66.9098
67.6915
68.9612
70.5052
72.1645
73.9357
75.7723
77.7517
79.8261
82.117
84.5392
87.2751
90.1729
93.5111
97.0282
101.159
105.452
110.609
115.867
122.395
128.888
137.336
145.654
157.469
169.681
188.435
208.104
237.32
264.506
300.369
324.944
358.368
382.488
438.248
494.447
554.608
784.126
836.612
721.79
603.355
514.161
437.919
375.36
318.419
271.596
232.901
206.115
185.166
170.306
157.144
147.094
138.209
131.733
126.3
122.463
119.175
116.753
114.485
112.506
110.28
107.841
104.905
101.597
97.9393
94.1397
90.3842
86.835
83.6829
80.9369
78.7257
76.8817
75.5197
74.3415
73.5605
72.7687
72.4065
71.8939
72.058
71.9816
73.132
74.0276
77.0679
78.3302
38.9411
41.2121
44.9039
50.6808
58.3717
66.5706
73.4493
77.6717
78.9783
77.9969
75.729
73.1246
70.8085
69.0137
67.7058
66.9752
66.9985
67.7756
69.0419
70.5822
72.2381
74.0071
75.8424
77.8219
79.8968
82.1893
84.6134
87.3521
90.2529
93.5951
97.1163
101.252
105.551
110.716
115.982
122.522
129.028
137.493
145.833
157.678
169.924
188.715
208.413
237.646
264.824
300.653
325.173
358.553
382.688
438.266
494.066
552.46
777.146
827.95
714.918
597.794
509.497
433.839
371.789
315.196
268.991
230.881
204.735
184.152
169.576
156.543
146.617
137.803
131.415
126.043
122.275
119.038
116.665
114.425
112.462
110.238
107.792
104.847
101.531
97.8707
94.0731
90.3251
86.7864
83.6474
80.9134
78.7137
76.8774
75.5214
74.3446
73.5639
72.7682
72.4017
71.8809
72.0359
71.9465
73.0768
73.95
76.9373
78.1565
38.9177
41.1596
44.8186
50.5652
58.2404
66.4491
73.3612
77.6283
78.98
78.04
75.8105
73.2404
70.9468
69.1527
67.8264
67.0754
67.0877
67.8601
69.1227
70.6591
72.3116
74.0783
75.9124
77.8917
79.9673
82.2612
84.6872
87.4286
90.3324
93.6784
97.2037
101.345
105.649
110.822
116.097
122.647
129.166
137.649
146.011
157.885
170.164
188.99
208.716
237.963
265.132
300.926
325.394
358.735
382.886
438.276
493.675
550.319
770.214
819.225
707.967
592.195
504.824
429.783
368.286
312.092
266.54
229.022
203.488
183.245
168.929
156.01
146.196
137.445
131.135
125.818
122.114
118.922
116.59
114.375
112.426
110.201
107.749
104.795
101.472
97.8089
94.0138
90.2734
86.7449
83.6183
80.8955
78.7062
76.8766
75.5255
74.3494
73.5683
72.768
72.3968
71.8674
72.0129
71.9103
73.0196
73.8699
76.8033
77.9791
38.8947
41.108
44.7346
50.4511
58.1103
66.3282
73.273
77.584
78.9804
78.0818
75.891
73.3556
71.0843
69.2909
67.9465
67.1758
67.1773
67.945
69.2037
70.7361
72.3851
74.1494
75.9822
77.9613
80.0374
82.3328
84.7606
87.5047
90.4113
93.7611
97.2904
101.437
105.747
110.927
116.21
122.771
129.303
137.804
146.187
158.089
170.401
189.261
209.012
238.272
265.43
301.189
325.609
358.914
383.084
438.278
493.275
548.186
763.332
810.444
700.943
586.556
500.142
425.752
364.851
309.105
264.237
227.313
202.363
182.435
168.354
155.538
145.823
137.128
130.89
125.622
121.974
118.823
116.529
114.333
112.395
110.169
107.71
104.747
101.418
97.7534
93.9613
90.2285
86.7099
83.595
80.8825
78.7027
76.8788
75.5318
74.3556
73.5734
72.7682
72.3917
71.8535
71.9889
71.8728
72.9605
73.7873
76.666
77.7982
38.8721
41.0572
44.6519
50.3385
57.9814
66.2078
73.1844
77.5387
78.9795
78.1223
75.9705
73.4699
71.2211
69.4282
68.0661
67.2762
67.2673
68.0301
69.2848
70.8131
72.4584
74.2203
76.0518
78.0307
80.1072
82.404
84.8335
87.5802
90.4897
93.8433
97.3764
101.528
105.843
111.031
116.322
122.894
129.439
137.956
146.362
158.292
170.635
189.527
209.303
238.573
265.719
301.442
325.817
359.089
383.281
438.273
492.867
546.062
756.504
801.615
693.848
580.879
495.451
421.747
361.484
306.233
262.076
225.743
201.349
181.712
167.845
155.119
145.494
136.848
130.675
125.452
121.855
118.739
116.478
114.3
112.37
110.14
107.675
104.703
101.369
97.7037
93.9149
90.1899
86.6808
83.577
80.874
78.7027
76.8837
75.5399
74.363
73.5791
72.7685
72.3864
71.839
71.964
71.8341
72.8995
73.7022
76.5255
77.6139
38.85
41.0073
44.5704
50.2273
57.8536
66.0879
73.0956
77.4924
78.9772
78.1615
76.049
73.5834
71.357
69.5647
68.1852
67.3768