/*--------------------------------*- C++ -*----------------------------------*\
| =========                 |                                                 |
| \\      /  F ield         | OpenFOAM: The Open Source CFD Toolbox           |
|  \\    /   O peration     | Version:  2412                                  |
|   \\  /    A nd           | Website:  www.openfoam.com                      |
|    \\/     M anipulation  |                                                 |
\*---------------------------------------------------------------------------*/
FoamFile
{
    version     2.0;
    format      ascii;
    arch        "LSB;label=32;scalar=64";
    class       volScalarField;
    location    "0.7";
    object      nut;
}
// * * * * * * * * * * * * * * * * * * * * * * * * * * * * * * * * * * * * * //

dimensions      [0 2 -1 0 0 0 0];

internalField   nonuniform List<scalar> 
13079
(
0.347438
0.365599
0.387485
0.408235
0.420699
0.420028
0.405959
0.381678
0.351731
0.320615
0.291768
0.267683
0.250417
0.241992
0.243935
0.256025
0.275269
0.296496
0.314827
0.328217
0.33729
0.343645
0.34855
0.352814
0.356736
0.360532
0.364082
0.367528
0.370579
0.373487
0.375823
0.378057
0.379544
0.381094
0.381766
0.382807
0.382745
0.383409
0.38303
0.384395
0.385082
0.387312
0.387095
0.384712
0.376304
0.361068
0.341068
0.32328
0.317366
0.334208
0.359877
0.39228
0.439849
0.399243
0.288069
0.206705
0.161266
0.130924
0.112773
0.0985492
0.0874378
0.0767634
0.0676819
0.0596482
0.0531606
0.047734
0.0433795
0.0397278
0.036737
0.0342106
0.0321467
0.030465
0.0292236
0.0284157
0.028175
0.0285878
0.0299318
0.347261
0.365261
0.387101
0.407951
0.420599
0.420123
0.40622
0.382051
0.352167
0.321095
0.292313
0.268356
0.251323
0.243266
0.245716
0.258421
0.278272
0.299914
0.318358
0.331636
0.340498
0.346626
0.351313
0.355379
0.359114
0.362742
0.366138
0.369456
0.372399
0.375236
0.377524
0.379752
0.381258
0.382872
0.383625
0.384797
0.384871
0.385733
0.385543
0.387186
0.388111
0.390684
0.390726
0.388758
0.38065
0.365914
0.34623
0.329081
0.323713
0.341221
0.366724
0.397724
0.44282
0.402747
0.292162
0.21035
0.164354
0.133556
0.115039
0.100403
0.0888989
0.0778393
0.0684764
0.0602225
0.0536072
0.0480837
0.0436807
0.0399887
0.0369907
0.0344701
0.032451
0.0308424
0.0297273
0.029095
0.029112
0.0298761
0.0317114
0.347088
0.364928
0.38672
0.407667
0.420496
0.420214
0.406476
0.382417
0.352597
0.321569
0.292851
0.26902
0.252212
0.244507
0.247438
0.260723
0.281143
0.303163
0.321696
0.334852
0.343504
0.349415
0.353895
0.357774
0.361334
0.364807
0.368061
0.371263
0.374108
0.376882
0.379131
0.381359
0.382887
0.384567
0.385402
0.386704
0.386911
0.387968
0.387963
0.389876
0.391033
0.393942
0.394238
0.39268
0.384875
0.370647
0.351295
0.334804
0.329982
0.348117
0.37341
0.402998
0.445648
0.406043
0.296107
0.213939
0.167429
0.136197
0.11732
0.102277
0.0903909
0.0789552
0.0693237
0.0608581
0.0541259
0.0485111
0.0440664
0.0403377
0.037339
0.034831
0.0328696
0.0313504
0.0303866
0.029962
0.0302824
0.0314576
0.0338597
0.346918
0.3646
0.386343
0.407384
0.420392
0.420301
0.406725
0.382777
0.35302
0.322036
0.293382
0.269674
0.253083
0.245714
0.249102
0.262934
0.283885
0.306248
0.324845
0.337873
0.34632
0.352021
0.356305
0.36001
0.363407
0.366735
0.369858
0.372954
0.375712
0.378431
0.380647
0.382881
0.384434
0.386182
0.387099
0.388529
0.388868
0.390114
0.390291
0.392467
0.39385
0.397085
0.397632
0.396479
0.388978
0.375265
0.356258
0.340441
0.336166
0.354889
0.37993
0.408101
0.448337
0.409133
0.299902
0.217462
0.170484
0.13884
0.119614
0.104173
0.0919175
0.0801175
0.0702327
0.061566
0.0547296
0.0490302
0.0445518
0.0407904
0.037799
0.0353121
0.0334235
0.032013
0.0312294
0.0310499
0.0317258
0.0333792
0.036429
0.346751
0.364277
0.38597
0.407103
0.420285
0.420382
0.406968
0.38313
0.353437
0.322498
0.293906
0.270318
0.253937
0.246889
0.250708
0.265055
0.286501
0.309171
0.327813
0.340705
0.348952
0.354454
0.358554
0.362094
0.365339
0.368535
0.371537
0.374537
0.377216
0.379888
0.382078
0.384321
0.385904
0.38772
0.388719
0.390275
0.390742
0.392173
0.392527
0.394959
0.396562
0.400115
0.400906
0.400155
0.392958
0.379765
0.361117
0.345988
0.342255
0.361524
0.386277
0.413032
0.45089
0.412021
0.303541
0.220912
0.17351
0.141478
0.121916
0.10609
0.0934829
0.0813335
0.0712139
0.0623586
0.055433
0.049657
0.0451546
0.0413655
0.0383908
0.035935
0.0341372
0.032858
0.0322879
0.0323963
0.0334866
0.0356918
0.0394724
0.0450041
0.0521159
0.0600083
0.0678195
0.0747824
0.0806145
0.0855171
0.0897599
0.094054
0.098608
0.104249
0.110709
0.118929
0.127878
0.138847
0.149871
0.163189
0.175669
0.191375
0.205339
0.224108
0.234214
0.346587
0.363959
0.385601
0.406822
0.420177
0.42046
0.407205
0.383476
0.353847
0.322953
0.294424
0.270954
0.254776
0.248033
0.252259
0.267087
0.288992
0.311939
0.330604
0.343358
0.35141
0.356723
0.360649
0.364036
0.36714
0.370213
0.373105
0.376017
0.378627
0.381258
0.383427
0.385684
0.387298
0.389184
0.390265
0.391944
0.392537
0.394148
0.394673
0.397355
0.399171
0.403033
0.404063
0.403706
0.396814
0.384145
0.365867
0.351438
0.348241
0.368015
0.392444
0.41779
0.453312
0.414709
0.307021
0.224282
0.1765
0.144107
0.124225
0.108029
0.0950921
0.0826113
0.0722786
0.0632501
0.0562529
0.05041
0.0458947
0.0420841
0.0391374
0.0367247
0.0350387
0.0339168
0.0335984
0.0340429
0.0356132
0.0384487
0.0430422
0.049482
0.0574715
0.0660391
0.0742813
0.0814805
0.0874477
0.0924804
0.0968987
0.101466
0.106373
0.11246
0.11938
0.128072
0.137399
0.148672
0.159836
0.173201
0.185572
0.201109
0.214805
0.233217
0.242848
0.346426
0.363646
0.385236
0.406544
0.420067
0.420533
0.407436
0.383817
0.354251
0.323403
0.294937
0.271581
0.255599
0.249146
0.253754
0.269033
0.291362
0.314555
0.333227
0.345838
0.353702
0.358836
0.362599
0.365843
0.368817
0.371776
0.374569
0.377402
0.379949
0.382546
0.3847
0.386973
0.388621
0.390576
0.391738
0.393537
0.394253
0.39604
0.396732
0.399655
0.401678
0.40584
0.407103
0.407134
0.400547
0.388405
0.370506
0.356784
0.354116
0.374353
0.398428
0.422374
0.455606
0.417201
0.310339
0.227564
0.179447
0.146721
0.126539
0.109992
0.0967504
0.0839598
0.0734396
0.0642562
0.0572082
0.0513098
0.0467948
0.0429702
0.040065
0.0377096
0.0361599
0.0352249
0.0352012
0.0360357
0.038157
0.0417038
0.0471867
0.0545742
0.0634296
0.072623
0.0812381
0.0886274
0.0947022
0.0998541
0.104447
0.109289
0.114544
0.121057
0.128398
0.137501
0.147128
0.158614
0.169829
0.18315
0.19534
0.210638
0.22402
0.242032
0.251184
0.346268
0.363337
0.384875
0.406267
0.419956
0.420603
0.407663
0.384151
0.35465
0.323848
0.295445
0.272201
0.256407
0.25023
0.255196
0.270895
0.293615
0.317024
0.335687
0.348155
0.355837
0.360801
0.364412
0.367524
0.370377
0.373233
0.375933
0.378696
0.381188
0.383757
0.385899
0.388192
0.389875
0.3919
0.393141
0.395058
0.395894
0.39785
0.398705
0.401861
0.404084
0.408537
0.410027
0.41044
0.404157
0.392542
0.375031
0.362023
0.359873
0.380531
0.404222
0.426786
0.457776
0.419502
0.313493
0.230752
0.182345
0.149314
0.128854
0.111981
0.0984637
0.0853888
0.074711
0.0653944
0.05832
0.0523795
0.0478804
0.0440506
0.0412031
0.0389216
0.037536
0.0368216
0.0371403
0.0384234
0.041171
0.0455094
0.0519477
0.0603034
0.0699922
0.0797479
0.0886707
0.0962014
0.102355
0.107614
0.112377
0.117489
0.12308
0.129989
0.137704
0.147149
0.156996
0.168605
0.179786
0.192979
0.204924
0.219925
0.232956
0.250536
0.259208
0.346113
0.363033
0.384519
0.405991
0.419844
0.42067
0.407884
0.38448
0.355044
0.324289
0.295948
0.272815
0.257202
0.251286
0.256587
0.272675
0.295753
0.319351
0.337991
0.350315
0.357823
0.362628
0.366097
0.369086
0.371828
0.374589
0.377206
0.379905
0.382349
0.384894
0.387029
0.389344
0.391064
0.393157
0.394477
0.396509
0.397461
0.399582
0.400594
0.403975
0.406391
0.411125
0.412837
0.413624
0.407643
0.396556
0.37944
0.36715
0.365505
0.386542
0.409826
0.431026
0.459828
0.421616
0.316482
0.23384
0.185187
0.151882
0.13117
0.113998
0.100238
0.0869087
0.0761081
0.0666841
0.0596113
0.0536449
0.0491797
0.0453555
0.0425841
0.040396
0.0392061
0.0387494
0.0394624
0.0412569
0.0447078
0.0499134
0.0573577
0.0666799
0.0771488
0.0873905
0.0965506
0.104173
0.110376
0.115727
0.120653
0.126024
0.13193
0.139198
0.147233
0.156946
0.166934
0.178576
0.189646
0.202638
0.214283
0.228937
0.241589
0.258713
0.26691
0.345961
0.362734
0.384167
0.405718
0.419732
0.420734
0.408102
0.384804
0.355433
0.324726
0.296448
0.273423
0.257984
0.252315
0.257929
0.274376
0.297781
0.321542
0.340147
0.352327
0.359669
0.364323
0.36766
0.370536
0.373176
0.37585
0.378392
0.381035
0.383436
0.385962
0.388094
0.390432
0.392191
0.394352
0.395749
0.397892
0.398956
0.401236
0.4024
0.406
0.408602
0.413608
0.415535
0.416688
0.411007
0.400447
0.38373
0.372159
0.371006
0.39238
0.415235
0.435094
0.461764
0.423548
0.319304
0.236822
0.187968
0.154421
0.133485
0.116044
0.102081
0.0885309
0.0776474
0.0681461
0.0611076
0.055134
0.0507235
0.0469175
0.0442437
0.0421711
0.0412119
0.0410534
0.0422163
0.0445874
0.0488175
0.0549561
0.0634373
0.0736999
0.0848763
0.0955173
0.104841
0.112504
0.118728
0.124154
0.129231
0.134846
0.14104
0.148621
0.156917
0.166824
0.176872
0.188466
0.199354
0.212079
0.223379
0.237648
0.249897
0.266549
0.27428
0.345812
0.36244
0.383819
0.405447
0.419619
0.420796
0.408315
0.385124
0.355818
0.325159
0.296944
0.274025
0.258755
0.253318
0.259222
0.276002
0.299702
0.323602
0.342161
0.3542
0.361383
0.365896
0.369111
0.371882
0.374428
0.377024
0.379497
0.382089
0.384453
0.386965
0.389097
0.39146
0.393258
0.395485
0.396958
0.399209
0.400383
0.402816
0.404127
0.407936
0.410718
0.415987
0.418123
0.419634
0.414249
0.404213
0.387901
0.377047
0.37637
0.398041
0.420448
0.438993
0.46359
0.425303
0.32196
0.239695
0.190682
0.156926
0.135799
0.118123
0.103998
0.0902674
0.0793467
0.0698034
0.0628366
0.0568772
0.0525451
0.0487721
0.0462202
0.0442878
0.0435973
0.0437803
0.0454511
0.0484644
0.0535445
0.060668
0.0701934
0.0813458
0.0931397
0.104086
0.113498
0.121152
0.127366
0.13285
0.138064
0.143899
0.150349
0.158195
0.166688
0.176712
0.186746
0.198216
0.208859
0.221261
0.232179
0.246033
0.257866
0.274036
0.281315
0.345665
0.36215
0.383475
0.405178
0.419506
0.420856
0.408524
0.38544
0.356199
0.325589
0.297437
0.274623
0.259514
0.254297
0.26047
0.277554
0.301522
0.325538
0.344042
0.35594
0.362971
0.367353
0.370454
0.37313
0.37559
0.378114
0.380526
0.383074
0.385406
0.387907
0.390042
0.392431
0.394267
0.396561
0.398107
0.400462
0.401742
0.404324
0.405777
0.409788
0.412742
0.418263
0.420602
0.422463
0.417372
0.407856
0.39195
0.38181
0.381592
0.403521
0.425464
0.442724
0.46531
0.426885
0.324451
0.242454
0.193325
0.159394
0.13811
0.120238
0.105999
0.092131
0.0812252
0.0716804
0.0648275
0.0589071
0.0546799
0.0509566
0.0485536
0.0467884
0.0464075
0.0469768
0.0492141
0.0529329
0.0589249
0.0670665
0.0776178
0.0895859
0.101893
0.113046
0.122471
0.130067
0.136242
0.141764
0.147096
0.153128
0.159796
0.167853
0.176481
0.186548
0.196496
0.207772
0.218117
0.230152
0.240659
0.254076
0.265484
0.28117
0.288012
0.345521
0.361864
0.383136
0.404912
0.419393
0.420913
0.408731
0.385751
0.356577
0.326017
0.297928
0.275216
0.260263
0.255253
0.261675
0.279037
0.303245
0.327355
0.345795
0.357555
0.364443
0.368702
0.371699
0.374286
0.376669
0.379128
0.381484
0.383993
0.386298
0.388791
0.39093
0.393348
0.395223
0.397581
0.399199
0.401655
0.403037
0.405761
0.407351
0.411556
0.414676
0.42044
0.422975
0.425177
0.420375
0.411376
0.395878
0.386446
0.386668
0.408817
0.430284
0.446289
0.466929
0.428301
0.326778
0.245096
0.195893
0.161823
0.140418
0.12239
0.108089
0.0941351
0.0833029
0.073803
0.0671114
0.0612575
0.0571643
0.0535097
0.0512849
0.0497161
0.0496869
0.0506881
0.0535492
0.0580314
0.064984
0.0741549
0.0856872
0.0983759
0.111082
0.12234
0.131705
0.139196
0.145305
0.150844
0.156274
0.162472
0.169318
0.17753
0.186229
0.19627
0.206069
0.21709
0.227092
0.238722
0.2488
0.261764
0.272745
0.287949
0.294371
0.34538
0.361583
0.382801
0.404648
0.41928
0.420968
0.408934
0.386059
0.356952
0.326442
0.298417
0.275806
0.261003
0.256187
0.262838
0.280454
0.304874
0.32906
0.347428
0.359053
0.365806
0.36995
0.37285
0.375357
0.377669
0.380069
0.382376
0.38485
0.387132
0.38962
0.391767
0.394213
0.396127
0.398548
0.400235
0.402789
0.404269
0.407131
0.408852
0.413243
0.416522
0.42252
0.425245
0.427778
0.423262
0.414773
0.399683
0.390951
0.391595
0.413925
0.434907
0.449691
0.46845
0.429557
0.328942
0.247619
0.198383
0.164209
0.142722
0.124585
0.110278
0.0962938
0.0856008
0.0761981
0.0697199
0.063963
0.0600353
0.0564699
0.0544547
0.0531128
0.053478
0.0549558
0.0584943
0.063789
0.0717337
0.0819206
0.0943632
0.10766
0.120643
0.131906
0.141141
0.148484
0.154498
0.160034
0.165539
0.171871
0.178852
0.187165
0.195874
0.205824
0.215415
0.226131
0.235753
0.246952
0.256585
0.269091
0.279645
0.294373
0.300394
0.345241
0.361306
0.38247
0.404386
0.419168
0.421022
0.409134
0.386364
0.357323
0.326866
0.298905
0.276393
0.261734
0.2571
0.263962
0.281807
0.306415
0.330657
0.348947
0.360441
0.367065
0.371104
0.373915
0.376349
0.378596
0.380943
0.383206
0.38565
0.387912
0.390398
0.392554
0.395029
0.396982
0.399464
0.401219
0.403866
0.405441
0.408435
0.410282
0.414851
0.418284
0.424506
0.427414
0.430269
0.426033
0.418048
0.403366
0.395323
0.396369
0.418846
0.439336
0.452933
0.469878
0.430657
0.330946
0.250021
0.200791
0.16655
0.145024
0.126825
0.112574
0.0986213
0.0881405
0.0788933
0.0726851
0.0670581
0.0633291
0.0598749
0.0581017
0.0570177
0.0578192
0.0598155
0.0640787
0.0702232
0.0791712
0.090335
0.103594
0.117372
0.130509
0.14168
0.15072
0.157875
0.163769
0.16928
0.174836
0.181269
0.188341
0.196699
0.205361
0.21516
0.224494
0.234862
0.244077
0.254824
0.264007
0.276051
0.286185
0.300447
0.306086
0.345105
0.361034
0.382142
0.404126
0.419055
0.421075
0.409331
0.386666
0.357693
0.327288
0.299391
0.276978
0.262457
0.257995
0.265049
0.2831
0.307872
0.332154
0.350361
0.361726
0.368229
0.37217
0.3749
0.377266
0.379455
0.381755
0.383978
0.386397
0.388642
0.391129
0.393295
0.395799
0.39779
0.400331
0.402152
0.404889
0.406556
0.409676
0.411644
0.416385
0.419963
0.4264
0.429485
0.432653
0.428691
0.421202
0.406926
0.399562
0.400988
0.423578
0.443571
0.456018
0.471218
0.431608
0.332792
0.2523
0.203115
0.168845
0.147324
0.129113
0.114985
0.101132
0.0909437
0.0819161
0.0760382
0.0705759
0.0670796
0.0637596
0.0622611
0.0614657
0.0627429
0.0652954
0.0703214
0.0773379
0.087278
0.0993547
0.113316
0.12744
0.140607
0.151595
0.16038
0.16731
0.173061
0.178526
0.184108
0.190607
0.197728
0.20608
0.214642
0.224238
0.233271
0.243257
0.252044
0.262328
0.271059
0.282645
0.292367
0.306176
0.311454
0.344971
0.360766
0.381819
0.403869
0.418943
0.421126
0.409526
0.386965
0.35806
0.327708
0.299877
0.27756
0.263174
0.258871
0.266101
0.284337
0.30925
0.333555
0.351674
0.362915
0.369304
0.373153
0.375809
0.378115
0.38025
0.382509
0.384697
0.387093
0.389325
0.391814
0.393992
0.396524
0.398554
0.401153
0.403037
0.40586
0.407615
0.410856
0.412941
0.417844
0.421562
0.428205
0.431461
0.434931
0.431239
0.424238
0.410363
0.403664
0.40545
0.428121
0.447615
0.458948
0.472474
0.432416
0.334484
0.254456
0.205355
0.171093
0.149621
0.131454
0.117519
0.103842
0.0940319
0.0852933
0.0798087
0.0745465
0.0713172
0.0681545
0.0669627
0.0664851
0.0682735
0.0714134
0.0772291
0.0851226
0.0960198
0.108922
0.123455
0.137787
0.150863
0.161584
0.170062
0.176735
0.18232
0.187719
0.193303
0.199834
0.206962
0.215258
0.223673
0.233021
0.24172
0.251297
0.259643
0.269458
0.277741
0.288875
0.298197
0.311566
0.316504
0.34484
0.360501
0.3815
0.403614
0.418831
0.421176
0.409719
0.387261
0.358425
0.328127
0.300362
0.278141
0.263884
0.259731
0.26712
0.28552
0.310554
0.334866
0.352893
0.364014
0.370296
0.374061
0.376649
0.3789
0.380987
0.383208
0.385366
0.387742
0.389964
0.392456
0.394647
0.397209
0.399275
0.40193
0.403875
0.406782
0.40862
0.411978
0.414174
0.419233
0.423085
0.429924
0.433344
0.437106
0.433678
0.427156
0.413679
0.407631
0.409755
0.432476
0.451471
0.461729
0.47365
0.433087
0.336025
0.256488
0.207507
0.173292
0.151917
0.13385
0.120184
0.106763
0.0974259
0.0890499
0.0840228
0.0789965
0.076067
0.0730844
0.0722294
0.0720963
0.0744257
0.0781764
0.0847948
0.0935514
0.105348
0.118968
0.133932
0.148332
0.161206
0.171584
0.179707
0.186096
0.191497
0.19681
0.202371
0.208901
0.215997
0.224194
0.232418
0.24148
0.249818
0.258968
0.266866
0.276212
0.284054
0.294747
0.303682
0.316628
0.321245
0.344711
0.360241
0.381185
0.403361
0.41872
0.421224
0.409909
0.387555
0.358788
0.328546
0.300847
0.278721
0.264588
0.260576
0.268109
0.286653
0.311787
0.336094
0.354025
0.365029
0.37121
0.374898
0.377423
0.379625
0.38167
0.383857
0.385988
0.388348
0.390562
0.393059
0.395264
0.397854
0.399957
0.402665
0.40467
0.407656
0.409575
0.413043
0.415347
0.420555
0.424533
0.43156
0.435137
0.439182
0.436011
0.429958
0.416873
0.41146
0.413901
0.436644
0.455143
0.464362
0.47475
0.433626
0.337418
0.258398
0.209572
0.175443
0.154213
0.136306
0.122989
0.109912
0.101145
0.0932086
0.0887026
0.0839465
0.0813475
0.0785664
0.0780755
0.0783101
0.0812034
0.0855785
0.0929975
0.102584
0.115199
0.129415
0.144663
0.158996
0.171564
0.181531
0.189261
0.195344
0.200544
0.205753
0.211267
0.217764
0.224792
0.232849
0.240849
0.249594
0.25755
0.266262
0.27371
0.282592
0.290003
0.300268
0.30883
0.32137
0.325687
0.344584
0.359985
0.380874
0.403111
0.418609
0.421272
0.410097
0.387846
0.359149
0.328964
0.301332
0.2793
0.265287
0.261406
0.269069
0.28774
0.312954
0.337243
0.355076
0.365966
0.372052
0.375669
0.378138
0.380295
0.382302
0.384459
0.386567
0.388914
0.391121
0.393625
0.395843
0.398462
0.400601
0.403361
0.405422
0.408484
0.410481
0.414055
0.416461
0.42181
0.42591
0.433116
0.436844
0.441161
0.438241
0.432646
0.419948
0.415152
0.417888
0.440628
0.458633
0.466853
0.47578
0.434041
0.338667
0.260186
0.21155
0.177545
0.156511
0.138825
0.125941
0.1133
0.105206
0.0977879
0.0938644
0.0894105
0.087169
0.0846092
0.0845055
0.0851263
0.0885983
0.0936008
0.101802
0.112165
0.125502
0.140177
0.155561
0.169699
0.181868
0.191368
0.198674
0.204431
0.209417
0.214505
0.219951
0.226387
0.233313
0.241197
0.248941
0.257346
0.264906
0.273173
0.280175
0.288602
0.295596
0.305447
0.313653
0.325804
0.329841
0.344459
0.359732
0.380566
0.402862
0.418499
0.421319
0.410284
0.388136
0.359509
0.329382
0.301818
0.279879
0.265982
0.262223
0.270003
0.288782
0.314059
0.338317
0.35605
0.36683
0.372828
0.376379
0.378797
0.380914
0.382887
0.385018
0.387105
0.389441
0.391645
0.394155
0.396388
0.399035
0.401208
0.404019
0.406134
0.409269
0.411339
0.415015
0.417518
0.423003
0.427218
0.434594
0.438467
0.443047
0.440369
0.435222
0.422905
0.418708
0.421718
0.444429
0.461946
0.469204
0.476741
0.434336
0.339778
0.261854
0.213441
0.179598
0.15881
0.14141
0.129046
0.116939
0.109625
0.102802
0.0995178
0.0953943
0.093533
0.0912114
0.0915131
0.0925336
0.0965898
0.102211
0.11116
0.12223
0.136173
0.151166
0.166542
0.180367
0.192056
0.201043
0.207899
0.213318
0.218078
0.22303
0.228389
0.234736
0.241532
0.249212
0.256677
0.264724
0.271881
0.279703
0.286266
0.294249
0.300841
0.310296
0.318161
0.329942
0.333716
0.344336
0.359484
0.380262
0.402616
0.418389
0.421365
0.410468
0.388423
0.359867
0.329799
0.302304
0.280458
0.266673
0.263028
0.270912
0.289783
0.315107
0.339323
0.356952
0.367627
0.373541
0.377032
0.379405
0.381486
0.383428
0.385537
0.387606
0.389933
0.392134
0.394653
0.396901
0.399575
0.401782
0.404641
0.406808
0.410012
0.412153
0.415926
0.418522
0.424135
0.42846
0.435997
0.440009
0.444841
0.4424
0.43769
0.425745
0.422128
0.425391
0.448051
0.465087
0.471421
0.47764
0.434518
0.340753
0.263402
0.215246
0.181603
0.161114
0.144065
0.132312
0.120839
0.114411
0.10826
0.105665
0.101895
0.100431
0.0983614
0.0990814
0.100509
0.105145
0.111365
0.121011
0.132703
0.147127
0.162294
0.177523
0.190931
0.202071
0.210507
0.216895
0.221966
0.226492
0.231297
0.236549
0.242785
0.249425
0.256878
0.264045
0.271722
0.278472
0.285855
0.291989
0.299544
0.30575
0.314825
0.322366
0.333795
0.337325
0.344216
0.359239
0.379962
0.402373
0.41828
0.42141
0.410651
0.388709
0.360225
0.330217
0.302792
0.281037
0.267361
0.263822
0.271798
0.290746
0.3161
0.340265
0.357789
0.368362
0.374198
0.377634
0.379965
0.382014
0.38393
0.386018
0.388072
0.390393
0.392592
0.39512
0.397383
0.400084
0.402324
0.405229
0.407445
0.410716
0.412925
0.416789
0.419475
0.425209
0.429638
0.437329
0.441473
0.446547
0.444336
0.44005
0.42847
0.425413
0.428908
0.451497
0.46806
0.473506
0.478479
0.434592
0.341599
0.264835
0.216965
0.183562
0.163423
0.146793
0.135744
0.125009
0.119571
0.114163
0.112299
0.1089
0.107844
0.106037
0.107182
0.109017
0.114219
0.121006
0.131286
0.143501
0.158273
0.173472
0.188427
0.201326
0.211861
0.219719
0.225628
0.230345
0.234631
0.239277
0.244408
0.250512
0.256975
0.264181
0.271037
0.278338
0.284684
0.291634
0.297354
0.304496
0.310335
0.319048
0.326281
0.337375
0.340678
0.344098
0.358997
0.379665
0.402131
0.418171
0.421454
0.410832
0.388993
0.360582
0.330634
0.30328
0.281617
0.268046
0.264607
0.272663
0.291674
0.317043
0.341147
0.358565
0.369038
0.374801
0.378187
0.380481
0.382501
0.384394
0.386465
0.388506
0.390821
0.393021
0.395559
0.397837
0.400564
0.402835
0.405784
0.408049
0.411382
0.413656
0.417608
0.420378
0.426228
0.430756
0.438592
0.442862
0.448168
0.44618
0.442306
0.431082
0.428565
0.432273
0.454772
0.47087
0.475465
0.479262
0.434565
0.342318
0.266153
0.218601
0.185475
0.16574
0.149597
0.139346
0.129454
0.125107
0.120506
0.119404
0.116388
0.115745
0.114206
0.115776
0.118014
0.123758
0.131068
0.141905
0.154537
0.169522
0.184618
0.199184
0.211495
0.221381
0.228643
0.234067
0.238429
0.242471
0.246951
0.251947
0.257901
0.26417
0.271115
0.277651
0.284575
0.290521
0.297051
0.302371
0.309119
0.314608
0.322977
0.32992
0.340696
0.343787
0.343981
0.358759
0.379371
0.401891
0.418063
0.421497
0.411012
0.389275
0.360937
0.331052
0.30377
0.282198
0.268729
0.265382
0.273509
0.292569
0.31794
0.341974
0.359284
0.369662
0.375356
0.378696
0.380956
0.382951
0.384823
0.38688
0.38891
0.391222
0.393423
0.39597
0.398263
0.401016
0.403317
0.406309
0.408619
0.412013
0.414348
0.418383
0.421235
0.427194
0.431815
0.439789
0.444179
0.449708
0.447934
0.44446
0.433583
0.431586
0.435487
0.457878
0.473522
0.477301
0.479993
0.434442
0.342917
0.26736
0.220154
0.187343
0.168065
0.15248
0.143121
0.134176
0.131016
0.127277
0.126956
0.124328
0.124094
0.122827
0.124816
0.127445
0.133697
0.14148
0.152787
0.165722
0.180787
0.195654
0.20973
0.221389
0.230595
0.23725
0.242189
0.246197
0.249994
0.2543
0.25915
0.264941
0.271002
0.277676
0.283889
0.290437
0.295993
0.302115
0.307053
0.313425
0.318583
0.326626
0.333294
0.343769
0.346664
0.343867
0.358525
0.379081
0.401653
0.417955
0.42154
0.41119
0.389556
0.361292
0.331471
0.304261
0.28278
0.269411
0.26615
0.274338
0.293433
0.318793
0.34275
0.359951
0.370236
0.375866
0.379163
0.381394
0.383367
0.385221
0.387265
0.389287
0.391596
0.393799
0.396356
0.398664
0.401442
0.403772
0.406805
0.409158
0.41261
0.415003
0.419118
0.422047
0.428109
0.432819
0.440923
0.445427
0.451168
0.449602
0.446515
0.435976
0.434477
0.438552
0.46082
0.476021
0.479019
0.480675
0.434229
0.3434
0.26846
0.221628
0.189169
0.170402
0.155443
0.147072
0.139177
0.137288
0.134454
0.134923
0.132679
0.132847
0.131848
0.134245
0.137247
0.143967
0.152161
0.163845
0.176969
0.191985
0.206508
0.220008
0.230966
0.239471
0.245516
0.249974
0.253633
0.257185
0.261314
0.266009
0.271626
0.277469
0.283865
0.289754
0.295932
0.301109
0.30684
0.311413
0.317429
0.322273
0.330009
0.336418
0.346606
0.349319
0.343755
0.358294
0.378794
0.401417
0.417848
0.421582
0.411367
0.389836
0.361647
0.33189
0.304754
0.283363
0.270091
0.26691
0.27515
0.29427
0.319606
0.343477
0.360569
0.370764
0.376334
0.379593
0.381797
0.383751
0.385589
0.387623
0.389637
0.391945
0.394151
0.396719
0.399042
0.401843
0.404202
0.407273
0.409668
0.413174
0.415623
0.419813
0.422816
0.428976
0.43377
0.441996
0.446609
0.452553
0.451186
0.448474
0.438263
0.437241
0.441473
0.463604
0.478372
0.480623
0.481311
0.433931
0.343771
0.269455
0.223025
0.190955
0.172752
0.158489
0.1512
0.144451
0.143908
0.142012
0.143264
0.141394
0.141948
0.141214
0.143999
0.147352
0.154491
0.163031
0.174995
0.188194
0.20304
0.217118
0.229971
0.240193
0.247984
0.253423
0.257409
0.260725
0.264036
0.267983
0.272517
0.277952
0.283571
0.289686
0.295253
0.301071
0.305881
0.311239
0.315465
0.321145
0.325694
0.333139
0.339305
0.349222
0.351765
0.343644
0.358066
0.378511
0.401183
0.417741
0.421623
0.411542
0.390114
0.362001
0.332311
0.305249
0.283948
0.27077
0.267664
0.275948
0.295081
0.320382
0.344161
0.361142
0.37125
0.376763
0.379988
0.382168
0.384105
0.385931
0.387955
0.389964
0.392271
0.394481
0.397059
0.399397
0.402222
0.404607
0.407716
0.41015
0.413708
0.41621
0.420472
0.423544
0.429797
0.43467
0.443011
0.447727
0.453864
0.45269
0.450339
0.440447
0.43988
0.444252
0.466234
0.480582
0.482117
0.481905
0.433554
0.344037
0.270348
0.224347
0.192703
0.175117
0.161619
0.155502
0.149993
0.150856
0.149914
0.151931
0.150419
0.151339
0.15086
0.154013
0.157688
0.165193
0.174008
0.186152
0.199317
0.213883
0.227429
0.239579
0.249041
0.256118
0.260959
0.264484
0.267467
0.27054
0.274306
0.278674
0.28392
0.289312
0.295146
0.300398
0.305865
0.310324
0.315326
0.319224
0.324587
0.32886
0.33603
0.341967
0.351626
0.354012
0.343535
0.357841
0.37823
0.400951
0.417634
0.421664
0.411716
0.390391
0.362355
0.332732
0.305746
0.284535
0.271449
0.268413
0.276732
0.295869
0.321124
0.344804
0.361674
0.371697
0.377157
0.380351
0.38251
0.384433
0.386247
0.388264
0.390268
0.392577
0.39479
0.39738
0.399732
0.402579
0.40499
0.408134
0.410606
0.414213
0.416765
0.421095
0.424234
0.430574
0.435522
0.443972
0.448784
0.455105
0.454116
0.452114
0.442531
0.442398
0.446893
0.468716
0.482655
0.483506
0.48246
0.433104
0.344201
0.271145
0.225597
0.194414
0.177498
0.164834
0.159977
0.15579
0.158105
0.15812
0.160871
0.159695
0.160957
0.160721
0.164214
0.168179
0.175992
0.18501
0.197237
0.210266
0.224453
0.237396
0.248802
0.25749
0.263858
0.268116
0.271195
0.273855
0.276696
0.280281
0.284481
0.289535
0.294698
0.300255
0.305198
0.310328
0.314452
0.319116
0.322706
0.32777
0.331783
0.338696
0.344416
0.353832
0.356071
0.343429
0.35762
0.377952
0.40072
0.417527
0.421704
0.411889
0.390667
0.362708
0.333154
0.306245
0.285125
0.272128
0.269157
0.277505
0.296636
0.321835
0.345409
0.362167
0.372109
0.377519
0.380684
0.382824
0.384735
0.38654
0.388552
0.390553
0.392862
0.395081
0.39768
0.400047
0.402915
0.405351
0.408528
0.411037
0.41469
0.417291
0.421685
0.424887
0.43131
0.436327
0.444879
0.449784
0.456279
0.455467
0.453801
0.444516
0.444797
0.4494
0.471054
0.484597
0.484793
0.482979
0.432585
0.344269
0.271848
0.226778
0.196093
0.179899
0.168136
0.16462
0.161829
0.165624
0.166583
0.170026
0.16916
0.170735
0.170727
0.17453
0.178752
0.186812
0.19596
0.208177
0.220976
0.234699
0.246982
0.257615
0.265528
0.271198
0.274891
0.27754
0.27989
0.282506
0.285911
0.289942
0.294803
0.299738
0.305023
0.309668
0.314474
0.318279
0.322624
0.325924
0.33071
0.334479
0.341149
0.346666
0.35585
0.357953
0.343323
0.357401
0.377678
0.400491
0.417421
0.421743
0.412061
0.390942
0.363062
0.333577
0.306746
0.285716
0.272807
0.269898
0.278267
0.297383
0.322517
0.34598
0.362626
0.372488
0.377851
0.38099
0.383114
0.385015
0.386812
0.388819
0.390818
0.39313
0.395353
0.397963
0.400343
0.403232
0.405692
0.408902
0.411444
0.415141
0.417788
0.422244
0.425506
0.432006
0.437089
0.445737
0.450728
0.457389
0.456747
0.455404
0.446407
0.44708
0.451777
0.473253
0.486414
0.485982
0.483464
0.432004
0.344246
0.272462
0.227894
0.197741
0.182321
0.171523
0.169426
0.168092
0.173376
0.175254
0.179338
0.178751
0.180607
0.180811
0.184891
0.189332
0.197579
0.206786
0.218904
0.231389
0.244578
0.256157
0.266002
0.273145
0.278137
0.281285
0.283523
0.285575
0.287973
0.291203
0.295065
0.299734
0.304444
0.309463
0.31382
0.318318
0.321821
0.325867
0.328895
0.333419
0.336961
0.343403
0.348729
0.357691
0.359667
0.34322
0.357186
0.377406
0.400263
0.417315
0.421781
0.412231
0.391216
0.363415
0.334002
0.307251
0.286311
0.273488
0.270634
0.27902
0.298112
0.323172
0.34652
0.363052
0.372837
0.378155
0.381271
0.383381
0.385273
0.387064
0.389068
0.391066
0.39338
0.395609
0.39823
0.400623
0.403531
0.406014
0.409254
0.411829
0.415568
0.418258
0.422772
0.426091
0.432665
0.43781
0.446547
0.451619
0.458437
0.457958
0.456925
0.448206
0.449252
0.454028
0.47532
0.48811
0.487078
0.483917
0.431364
0.344136
0.27299
0.228948
0.199362
0.184765
0.174996
0.174386
0.174558
0.181322
0.184079
0.188744
0.188402
0.190506
0.190905
0.195228
0.19985
0.208225
0.217422
0.229361
0.241459
0.254056
0.264901
0.273953
0.280339
0.284674
0.287302
0.289148
0.290917
0.293106
0.296163
0.299858
0.304337
0.308827
0.313589
0.317671
0.321876
0.325093
0.328859
0.331633
0.335913
0.339242
0.345469
0.350614
0.359367
0.361224
0.343118
0.356973
0.377137
0.400037
0.417209
0.421819
0.412401
0.391489
0.363769
0.334429
0.307757
0.286908
0.274169
0.271369
0.279765
0.298825
0.323803
0.34703
0.363449
0.373158
0.378435
0.381528
0.383627
0.385512
0.387298
0.3893
0.391297
0.393615
0.395849
0.39848
0.400886
0.403814
0.406318
0.409587
0.412193
0.415972
0.418703
0.423272
0.426646
0.433288
0.438491
0.447311
0.45246
0.459427
0.459103
0.458367
0.449916
0.451314
0.456157
0.477259
0.489691
0.488085
0.484342
0.430671
0.343945
0.273437
0.229943
0.200958
0.187235
0.178553
0.179491
0.181202
0.18942
0.193003
0.198185
0.198053
0.200371
0.200944
0.205476
0.21024
0.218684
0.227808
0.239497
0.251146
0.263107
0.2732
0.281462
0.287112
0.290816
0.292948
0.294423
0.295923
0.297912
0.300802
0.304333
0.308626
0.312901
0.317416
0.321234
0.325162
0.328112
0.331615
0.334152
0.338204
0.341335
0.34736
0.352335
0.360887
0.362632
0.343018
0.356764
0.37687
0.399812
0.417104
0.421856
0.412569
0.391761
0.364122
0.334857
0.308267
0.287508
0.274851
0.272101
0.280502
0.299524
0.324412
0.347513
0.363819
0.373454
0.378691
0.381765
0.383854
0.385734
0.387515
0.389517
0.391514
0.393836
0.396075
0.398716
0.401135
0.404081
0.406606
0.409902
0.412537
0.416354
0.419125
0.423746
0.42717
0.433877
0.439134
0.448032
0.453253
0.46036
0.460185
0.459734
0.451541
0.453271
0.45817
0.479076
0.491163
0.489007
0.48474