/*--------------------------------*- C++ -*----------------------------------*\
| =========                 |                                                 |
| \\      /  F ield         | OpenFOAM: The Open Source CFD Toolbox           |
|  \\    /   O peration     | Version:  2412                                  |
|   \\  /    A nd           | Website:  www.openfoam.com                      |
|    \\/     M anipulation  |                                                 |
\*---------------------------------------------------------------------------*/
FoamFile
{
    version     2.0;
    format      ascii;
    arch        "LSB;label=32;scalar=64";
    class       volScalarField;
    location    "0.7";
    object      p;
}
// * * * * * * * * * * * * * * * * * * * * * * * * * * * * * * * * * * * * * //

dimensions      [0 2 -2 0 0 0 0];

internalField   nonuniform List<scalar> 
13079
(
107277
107107
106995
106731
106556
106254
106024
105717
105474
105197
104979
104736
104542
104310
104116
103855
103624
103294
103016
102609
102296
101799
101454
100842
100469
99701.4
99309.1
98328.1
97933.9
96655.4
96293.4
94592.9
94322.8
92014.3
91939.8
88741.5
89037.3
84513.2
85472.3
78939.3
81043
71418.1
75490.6
61092.9
68650.6
46897.8
60662.6
27123.3
51201.3
-3289.69
36740.2
-56522.1
12058.7
-155744
-13071.6
-76128.7
4268.04
-33724.8
16204.4
-7620.08
23765.6
10035.1
30675.6
23685.3
37460.1
34396.1
43688.2
42892
49310.3
49746.4
54276.2
55290.7
58549.8
59759.2
62141.7
63328.7
65081.4
107258
107091
106979
106718
106544
106245
106016
105711
105470
105193
104976
104734
104541
104308
104113
103852
103620
103289
103011
102604
102290
101794
101449
100836
100463
99694.3
99302.8
98320
97927.1
96646.1
96286
94582
94314.6
92001.5
91930.8
88726.1
89027.4
84494.6
85461.3
78916.6
81030.8
71390.8
75477.9
61061
68636.9
46859.2
60642.2
27071.6
51161.7
-3356.64
36680.3
-56537.1
12059
-155229
-12921.8
-76105.4
4290.26
-33735.4
16212.9
-7632.71
23767.4
10019.1
30672.9
23670.1
37456.2
34382.8
43683.6
42880.8
49306.1
49737.9
54273.1
55285
58548
59755.6
62140.9
63326.8
65081.4
107239
107074
106964
106705
106533
106236
106009
105705
105466
105190
104974
104732
104539
104306
104111
103848
103616
103284
103006
102599
102285
101788
101443
100829
100458
99687.3
99296.6
98312
97920.3
96636.9
96278.6
94571.3
94306.6
91988.8
91922
88710.9
89017.7
84476.2
85450.5
78894.2
81018.9
71363.8
75465.3
61029.2
68623.3
46820.9
60621.9
27020.2
51122.6
-3422.85
36621.5
-56550.5
12060.6
-154717
-12773.2
-76081.7
4312.65
-33745.7
16221.7
-7645.12
23769.4
10003.3
30670.4
23655.1
37452.5
34369.7
43679.2
42869.8
49302
49729.6
54270.3
55279.3
58546.4
59752.2
62140.4
63325.1
65081.8
107221
107058
106948
106693
106522
106227
106001
105699
105461
105187
104972
104730
104537
104304
104108
103845
103612
103280
103002
102594
102281
101782
101438
100823
100452
99680.4
99290.5
98304.1
97913.7
96627.8
96271.4
94560.7
94298.7
91976.3
91913.3
88695.8
89008.1
84457.9
85439.8
78871.9
81007.2
71336.9
75452.9
60997.7
68609.9
46782.9
60602
26969.2
51083.9
-3488.31
36563.7
-56562.4
12063.2
-154209
-12625.8
-76057.6
4335.18
-33755.8
16230.6
-7657.32
23771.7
9987.6
30668.1
23640.2
37449.1
34356.8
43675.1
42858.9
49298.2
49721.5
54267.7
55273.9
58545
59748.9
62140.1
63323.7
65082.4
107202
107042
106933
106680
106510
106218
105994
105693
105456
105183
104969
104728
104535
104303
104106
103841
103608
103275
102997
102589
102276
101777
101433
100817
100446
99673.5
99284.4
98296.4
97907.1
96618.8
96264.2
94550.2
94290.8
91963.8
91904.7
88680.8
88998.6
84439.7
85429.3
78849.8
80995.6
71310.4
75440.8
60966.5
68596.8
46745.2
60582.3
26918.5
51045.5
-3553.17
36507
-56572.9
12066.7
-153704
-12479.5
-76033.1
4357.71
-33765.8
16239.5
-7669.37
23774.1
9972.21
30666
23625.6
37445.8
34344.1
43671.1
42848.2
49294.5
49713.5
54265.2
55268.6
58543.9
59746
62140.1
63322.6
65083.4
66143.7
67447.9
68374.9
69370.5
70209.2
71006.5
71807.2
72467.2
73264.6
73802
74620
75015.3
75884.4
76094.1
77068.8
77016.4
78193.7
77743.3
79305.7
78207.5
80516.2
78295.8
107184
107026
106918
106668
106499
106209
105986
105687
105452
105180
104966
104726
104534
104301
104104
103838
103604
103271
102993
102584
102271
101772
101428
100811
100441
99666.8
99278.5
98288.7
97900.6
96609.9
96257.1
94539.7
94283
91951.4
91896.1
88666
88989.1
84421.7
85418.8
78827.8
80984.2
71284
75429
60935.7
68584.1
46708
60563
26868.2
51007.6
-3617.39
36451.2
-56582
12071.2
-153203
-12334.4
-76008.2
4380.2
-33775.9
16248.5
-7681.28
23776.8
9957.09
30664.2
23611.3
37442.9
34331.6
43667.4
42837.7
49291.1
49705.7
54263
55263.6
58543
59743.2
62140.4
63321.8
65084.8
66144.4
67450
68376.6
69372.7
70211.2
71008.4
71809.4
72468.8
73267.2
73803.5
74623.2
75016.8
75888.4
76095.1
77073.7
77016.5
78199.7
77741.9
79313.3
78204
80525.6
78290.3
107166
107011
106903
106656
106488
106200
105978
105681
105447
105176
104964
104724
104532
104299
104101
103835
103600
103266
102989
102579
102266
101766
101423
100805
100436
99660.1
99272.6
98281
97894.2
96601.1
96250.1
94529.4
94275.3
91939.1
91887.7
88651.2
88979.8
84403.9
85408.5
78806.1
80973
71258
75417.3
60905.3
68571.7
46671.1
60544.1
26818.2
50970
-3680.93
36396.5
-56589.9
12076.5
-152705
-12190.6
-75983
4402.64
-33785.9
16257.5
-7693.04
23779.7
9942.27
30662.7
23597.2
37440.2
34319.5
43664
42827.5
49288
49698.2
54261.1
55258.9
58542.5
59740.8
62141.1
63321.4
65086.6
66145.6
67452.5
68378.7
69375.2
70213.5
71010.6
71811.8
72470.7
73270
73805.3
74626.6
75018.4
75892.6
76096.2
77078.7
77016.5
78205.7
77740.4
79320.9
78200.4
80535
78284.8
107148
106995
106888
106643
106477
106191
105971
105676
105443
105173
104961
104722
104530
104297
104099
103831
103597
103262
102984
102574
102262
101761
101418
100800
100430
99653.5
99266.7
98273.4
97887.8
96592.3
96243.1
94519.1
94267.7
91926.9
91879.3
88636.5
88970.6
84386.1
85398.4
78784.5
80961.9
71232.2
75405.9
60875.1
68559.6
46634.7
60525.6
26768.7
50933
-3743.74
36342.9
-56596.3
12082.6
-152211
-12047.9
-75957.4
4424.99
-33796
16266.4
-7704.64
23782.8
9927.77
30661.6
23583.5
37437.9
34307.6
43660.9
42817.6
49285.2
49691
54259.6
55254.4
58542.3
59738.8
62142.2
63321.3
65088.9
66147.2
67455.4
68381.2
69378.1
70216.1
71013.1
71814.6
72472.9
73273
73807.3
74630.2
75020.2
75896.9
76097.4
77083.7
77016.6
78211.7
77738.8
79328.4
78196.8
80544.3
78279.2
107131
106979
106874
106631
106466
106182
105963
105670
105438
105170
104959
104720
104529
104295
104096
103828
103593
103258
102980
102569
102257
101756
101413
100794
100425
99646.9
99260.9
98265.9
97881.5
96583.6
96236.2
94508.8
94260.1
91914.8
91871
88622
88961.4
84368.5
85388.3
78763.1
80951
71206.6
75394.7
60845.3
68547.8
46598.7
60507.5
26719.6
50896.4
-3805.8
36290.3
-56601.5
12089.6
-151721
-11906.5
-75931.7
4447.24
-33806.1
16275.4
-7716.09
23786.2
9913.62
30660.8
23570.2
37436
34296.1
43658.2
42808
49282.7
49684.1
54258.4
55250.3
58542.5
59737.1
62143.7
63321.8
65091.6
66149.3
67458.8
68384
69381.3
70219.1
71015.9
71817.6
72475.3
73276.4
73809.5
74634
75022.1
75901.3
76098.6
77088.7
77016.6
78217.6
77737.1
79335.9
78193.1
80553.4
78273.6
107113
106964
106859
106619
106455
106173
105956
105664
105434
105166
104957
104719
104527
104293
104094
103825
103589
103253
102976
102565
102253
101751
101408
100788
100420
99640.5
99255.2
98258.5
97875.3
96575
96229.3
94498.7
94252.6
91902.7
91862.7
88607.5
88952.4
84351
85378.3
78741.9
80940.3
71181.3
75383.8
60815.9
68536.3
46563.1
60489.7
26670.9
50860.4
-3867.06
36238.9
-56605.3
12097.4
-151233
-11766.3
-75905.6
4469.36
-33816.2
16284.4
-7727.37
23789.9
9899.86
30660.5
23557.3
37434.5
34285.1
43656
42798.8
49280.7
49677.6
54257.6
55246.6
58543.1
59735.8
62145.6
63322.7
65094.8
66151.8
67462.5
68387.1
69384.7
70222.3
71018.9
71820.9
72478
73279.9
73811.9
74638
75024.1
75905.7
76099.8
77093.7
77016.6
78223.5
77735.4
79343.3
78189.3
80562.4
78268.1
107096
106949
106844
106607
106444
106165
105949
105658
105429
105163
104954
104717
104525
104291
104091
103822
103585
103249
102972
102560
102248
101746
101403
100782
100414
99634
99249.5
98251.1
97869.1
96566.4
96222.5
94488.6
94245.1
91890.7
91854.6
88593.2
88943.4
84333.7
85368.5
78720.9
80929.7
71156.2
75373.1
60786.7
68525.1
46528
60472.3
26622.7
50824.8
-3927.51
36188.5
-56607.9
12105.9
-150749
-11627.3
-75879.4
4491.33
-33826.4
16293.3
-7738.48
23793.9
9886.5
30660.6
23544.9
37433.6
34274.5
43654.2
42790.1
49279.1
49671.5
54257.2
55243.3
58544.2
59735
62148.1
63324
65098.4
66154.7
67466.6
68390.5
69388.5
70225.7
71022.2
71824.4
72480.9
73283.6
73814.5
74642.1
75026.1
75910.3
76101.1
77098.8
77016.5
78229.3
77733.5
79350.5
78185.5
80571.3
78262.5
107079
106934
106830
106595
106433
106156
105941
105653
105425
105160
104952
104715
104524
104289
104089
103818
103582
103245
102967
102555
102244
101741
101399
100777
100409
99627.6
99243.9
98243.8
97862.9
96557.9
96215.8
94478.6
94237.7
91878.9
91846.4
88578.9
88934.5
84316.4
85358.8
78700
80919.3
71131.3
75362.6
60757.9
68514.3
46493.2
60455.4
26575
50789.9
-3987.12
36139.3
-56609.2
12115.2
-150269
-11489.6
-75853
4513.14
-33836.7
16302.2
-7749.42
23798.3
9873.59
30661.2
23533
37433.1
34264.4
43653
42781.8
49278.1
49665.8
54257.4
55240.5
58545.8
59734.7
62151.1
63325.9
65102.5
66157.9
67471
68394.2
69392.4
70229.4
71025.6
71828.1
72483.9
73287.5
73817.2
74646.3
75028.2
75914.8
76102.2
77103.7
77016.3
78235
77731.5
79357.7
78181.5
80580
78257
107062
106918
106816
106584
106422
106147
105934
105647
105421
105156
104949
104713
104522
104287
104087
103815
103578
103241
102963
102551
102240
101736
101394
100771
100404
99621.3
99238.3
98236.5
97856.8
96549.4
96209.1
94468.6
94230.4
91867.1
91838.4
88564.8
88925.7
84299.4
85349.2
78679.3
80909
71106.7
75352.3
60729.5
68503.7
46458.9
60438.8
26527.7
50755.5
-4045.86
36091.2
-56609.2
12125.2
-149792
-11353
-75826.4
4534.76
-33847
16311.1
-7760.16
23802.9
9861.15
30662.3
23521.7
37433.3
34254.9
43652.4
42774.1
49277.6
49660.7
54258.1
55238.2
58547.9
59734.9
62154.6
63328.2
65107.1
66161.5
67475.6
68398.1
69396.6
70233.2
71029.2
71831.9
72487.1
73291.5
73819.9
74650.6
75030.4
75919.3
76103.3
77108.6
77015.9
78240.7
77729.4
79364.7
78177.5
80588.6
78251.5
107045
106904
106801
106572
106412
106139
105927
105641
105416
105153
104947
104711
104520
104285
104084
103812
103574
103237
102959
102547
102235
101731
101389
100766
100399
99615.1
99232.8
98229.3
97850.7
96541
96202.4
94458.8
94223.1
91855.3
91830.4
88550.7
88917
84282.4
85339.6
78658.8
80898.9
71082.4
75342.2
60701.3
68493.4
46424.9
60422.6
26481
50721.7
-4103.73
36044.1
-56607.9
12135.9
-149318
-11217.8
-75799.7
4556.18
-33857.4
16319.9
-7770.72
23808
9849.22
30664.1
23511.1
37434.2
34246.1
43652.4
42767
49277.7
49656.2
54259.3
55236.5
58550.6
59735.7
62158.6
63331
65112
66165.5
67480.5
68402.1
69400.9
70237.2
71033
71835.9
72490.4
73295.7
73822.7
74654.9
75032.5
75923.8
76104.3
77113.4
77015.5
78246.2
77727.2
79371.6
78173.5
80597.1
78246
107028
106889
106787
106560
106401
106130
105920
105636
105412
105150
104944
104709
104519
104283
104082
103809
103571
103233
102955
102542
102231
101726
101385
100760
100394
99608.8
99227.3
98222.1
97844.7
96532.6
96195.8
94448.9
94215.9
91843.7
91822.5
88536.8
88908.4
84265.5
85330.2
78638.5
80888.9
71058.2
75332.4
60673.5
68483.4
46391.4
60406.8
26434.7
50688.5
-4160.71
35998.2
-56605.5
12147.2
-148848
-11083.7
-75772.9
4577.4
-33867.9
16328.8
-7781.07
23813.4
9837.84
30666.5
23501.1
37435.8
34237.9
43653.1
42760.6
49278.5
49652.3
54261.2
55235.3
58553.9
59737
62163.2
63334.3
65117.3
66169.6
67485.5
68406.3
69405.2
70241.2
71036.8
71840
72493.8
73299.8
73825.6
74659.2
75034.5
75928.2
76105.3
77118.1
77014.9
78251.6
77724.9
79378.4
78169.3
80605.4
78240.6
107011
106874
106773
106549
106391
106122
105912
105630
105408
105147
104942
104707
104517
104281
104079
103805
103567
103229
102951
102538
102227
101721
101380
100755
100389
99602.7
99221.9
98215
97838.8
96524.3
96189.3
94439.2
94208.7
91832.1
91814.7
88522.9
88899.8
84248.8
85320.9
78618.3
80879.1
71034.3
75322.7
60645.9
68473.7
46358.3
60391.3
26389
50655.8
-4216.79
35953.4
-56601.8
12159.2
-148381
-10950.9
-75745.9
4598.4
-33878.5
16337.6
-7791.22
23819.2
9827.05
30669.6
23491.8
37438.1
34230.5
43654.6
42754.9
49280
49649
54263.8
55234.7
58557.7
59738.8
62168.3
63337.9
65122.9
66173.9
67490.6
68410.5
69409.6
70245.3
71040.7
71844.1
72497.2
73304
73828.4
74663.4
75036.5
75932.6
76106
77122.7
77014.1
78256.8
77722.4
79385
78165.1
80613.5
78235.1
106995
106859
106759
106537
106380
106113
105905
105625
105403
105144
104940
104705
104515
104279
104077
103802
103564
103225
102948
102533
102223
101716
101376
100749
100384
99596.5
99216.5
98207.9
97832.8
96516.1
96182.8
94429.5
94201.6
91820.6
91806.9
88509.1
88891.3
84232.2
85311.7
78598.2
80869.4
71010.6
75313.2
60618.7
68464.3
46325.6
60376.3
26343.8
50623.9
-4271.97
35909.7
-56597
12171.7
-147917
-10819.3
-75718.9
4619.17
-33889.1
16346.4
-7801.16
23825.4
9816.87
30673.4
23483.4
37441.3
34223.9
43657
42749.9
49282.3
49646.4
54267
55234.7
58562.2
59741.2
62173.8
63341.9
65128.6
66178.4
67495.8
68414.8
69414.1
70249.4
71044.6
71848.2
72500.6
73308.2
73831.2
74667.6
75038.4
75936.8
76106.7
77127.1
77013.3
78261.9
77719.8
79391.5
78160.7
80621.5
78229.7
106979
106845
106746
106526
106370
106105
105898
105619
105399
105140
104937
104703
104513
104277
104075
103799
103560
103221
102944
102529
102219
101712
101371
100744
100379
99590.5
99211.2
98200.9
97827
96507.9
96176.3
94419.9
94194.5
91809.1
91799.1
88495.4
88882.9
84215.7
85302.6
78578.3
80859.8
70987.1
75303.9
60591.8
68455.1
46293.3
60361.6
26299.1
50592.5
-4326.23
35867.1
-56591
12184.9
-147457
-10689
-75691.8
4639.7
-33899.9
16355.1
-7810.87
23832.1
9807.35
30678.1
23475.7
37445.4
34218.2
43660.2
42745.7
49285.3
49644.5
54270.9
55235.4
58567.3
59744
62179.7
63346.2
65134.6
66182.8
67500.9
68419
69418.4
70253.5
71048.4
71852.3
72504
73312.4
73833.9
74671.8
75040.2
75941
76107.2
77131.4
77012.2
78266.9
77717.1
79397.9
78156.3
80629.3
78224.2
106962
106830
106732
106514
106359
106096
105891
105614
105395
105137
104935
104701
104512
104275
104072
103796
103557
103217
102940
102525
102214
101707
101367
100739
100375
99584.4
99205.9
98193.9
97821.1
96499.8
96169.9
94410.3
94187.5
91797.8
91791.5
88481.8
88874.6
84199.3
85293.6
78558.6
80850.4
70963.9
75294.8
60565.1
68446.2
46261.3
60347.4
26255
50561.7
-4379.59
35825.5
-56584
12198.6
-147000
-10559.8
-75664.6
4660
-33910.7
16363.9
-7820.35
23839.3
9798.53
30683.6
23469
37450.5
34213.3
43664.2
42742.4
49289.1
49643.3
54275.5
55236.6
58572.9
59747.4
62186
63350.7
65140.6
66187.3
67506
68423.1
69422.7
70257.5
71052.2
71856.4
72507.3
73316.5
73836.6
74675.8
75041.8
75945
76107.6
77135.6
77011.1
78271.8
77714.2
79404.1
78151.9
80637
78218.8
106946
106816
106718
106503
106349
106088
105884
105609
105391
105134
104933
104699
104510
104273
104070
103793
103553
103213
102936
102521
102210
101702
101363
100734
100370
99578.4
99200.6
98187
97815.3
96491.7
96163.5
94400.8
94180.5
91786.5
91783.9
88468.3
88866.3
84183
85284.7
78539
80841.1
70940.8
75285.9
60538.8
68437.5
46229.8
60333.4
26211.4
50531.6
-4432.04
35785
-56575.8
12212.8
-146546
-10431.8
-75637.3
4680.06
-33921.7
16372.6
-7829.61
23846.9
9790.42
30689.9
23463.3
37456.4
34209.4
43669.2
42739.8
49293.7
49642.9
54280.7
55238.5
58579
59751.1
62192.6
63355.3
65146.7
66191.7
67510.9
68427
69426.9
70261.4
71055.9
71860.4
72510.6
73320.5
73839.1
74679.8
75043.3
75948.8
76107.8
77139.6
77009.7
78276.5
77711.2
79410.2
78147.3
80644.6
78213.5
106931
106802
106705
106492
106339
106080
105877
105603
105386
105131
104930
104698
104508
104271
104067
103790
103550
103209
102932
102517
102206
101698
101358
100728
100365
99572.5
99195.3
98180.1
97809.6
96483.7
96157.2
94391.3
94173.5
91775.2
91776.3
88454.9
88858.1
84166.9
85275.8
78519.6
80831.9
70917.9
75277.1
60512.7
68429.1
46198.6
60319.9
26168.3
50502.1
-4483.58
35745.5
-56566.6
12227.5
-146095
-10305
-75610
4699.87
-33932.7
16381.3
-7838.62
23855.1
9783.08
30697.2
23458.4
37463.4
34206.3
43675.1
42738.1
49299.1
49643.1
54286.6
55240.8
58585.5
59755.1
62199.3
63359.9
65152.6
66195.9
67515.7
68430.8
69430.9
70265.2
71059.6
71864.3
72513.8
73324.4
73841.5
74683.6
75044.7
75952.6
76107.9
77143.5
77008.3
78281
77708.1
79416.1
78142.7
80652
78208.1
106915
106788
106692
106481
106329
106072
105870
105598
105382
105128
104928
104696
104507
104269
104065
103787
103547
103206
102929
102512
102202
101693
101354
100723
100360
99566.6
99190.1
98173.2
97803.8
96475.7
96150.9
94381.9
94166.6
91764.1
91768.8
88441.5
88849.9
84150.8
85267.1
78500.3
80822.8
70895.3
75268.5
60486.9
68420.9
46167.8
60306.7
26125.8
50473.3
-4534.23
35707.1
-56556.3
12242.7
-145648
-10179.3
-75582.7
4719.44
-33943.8
16389.9
-7847.38
23863.7
9776.5
30705.5
23454.6
37471.4
34204.3
43681.9
42737.2
49305.3
49644
54293.1
55243.7
58592.5
59759.4
62206.2
63364.5
65158.5
66200
67520.3
68434.4
69434.8
70268.8
71063
71868.1
72516.8
73328.2
73843.8
74687.2
75046
75956.1
76107.8
77147.3
77006.7
78285.5
77704.9
79421.9
78138.1
80659.2
78202.8
106899
106774
106678
106470
106319
106064
105863
105592
105378
105125
104926
104694
104505
104267
104063
103784
103543
103202
102925
102508
102199
101689
101350
100718
100356
99560.7
99185
98166.4
97798.1
96467.7
96144.6
94372.5
94159.8
91753
91761.3
88428.2
88841.9
84134.9
85258.4
78481.2
80813.9
70872.8
75260.1
60461.3
68413
46137.4
60293.9
26083.8
50445
-4584
35669.6
-56545.1
12258.3
-145204
-10054.9
-75555.3
4738.77
-33955
16398.6
-7855.9
23872.9
9770.73
30714.7
23451.8
37480.4
34203.1
43689.6
42737.1
49312.2
49645.5
54300.1
55247
58599.8
59763.9
62213.1
63369.1
65164.1
66203.8
67524.6
68437.8
69438.4
70272.3
71066.4
71871.7
72519.7
73331.9
73846
74690.8
75047
75959.6
76107.5
77150.9
77004.9
78289.8
77701.6
79427.6
78133.4
80666.3
78197.5
106884
106760
106665
106459
106309
106056
105856
105587
105374
105122
104924
104692
104503
104265
104060
103781
103540
103198
102921
102504
102195
101684
101345
100713
100351
99554.8
99179.8
98159.7
97792.5
96459.8
96138.4
94363.2
94153
91741.9
91753.9
88415
88833.8
84119
85249.8
78462.2
80805
70850.6
75251.8
60436
68405.3
46107.4
60281.4
26042.3
50417.4
-4632.88
35633.1
-56532.8
12274.3
-144762
-9931.5
-75527.8
4757.86
-33966.2
16407.3
-7864.16
23882.6
9765.78
30724.9
23449.9
37490.3
34202.8
43698.1
42737.8
49319.8
49647.6
54307.7
55250.6
58607.3
59768.4
62220
63373.4
65169.5
66207.3
67528.6
68440.9
69441.8
70275.5
71069.5
71875.2
72522.5
73335.4
73848
74694.2
75048
75962.9
76107.1
77154.4
77003
78294
77698.2
79433.2
78128.6
80673.3
78192.3
106868
106746
106652
106448
106299
106048
105850
105582
105370
105119
104921
104690
104502
104263
104058
103778
103537
103195
102918
102500
102191
101680
101341
100708
100346
99549
99174.7
98152.9
97786.8
96451.9
96132.2
94354
94146.2
91731
91746.5
88401.9
88825.9
84103.3
85241.3
78443.3
80796.3
70828.5
75243.7
60411
68397.8
46077.6
60269.3
26001.3
50390.3
-4680.91
35597.5
-56519.7
12290.8
-144324
-9809.27
-75500.3
4776.72
-33977.6
16415.9
-7872.17
23892.9
9761.64
30736
23449
37501.1
34203.4
43707.3
42739.1
49328
49650.2
54315.6
55254.5
58615
59773
62226.7
63377.5
65174.6
66210.5
67532.4
68443.8
69444.9
70278.6
71072.5
71878.5
72525.1
73338.8
73849.8
74697.4
75048.7
75966
76106.6
77157.7
77001
78298
77694.7
79438.6
78123.8
80680.1
78187.1
106853
106733
106639
106437
106289
106040
105843
105577
105366
105116
104919
104688
104500
104261
104056
103775
103534
103191
102914
102496
102187
101675
101337
100703
100342
99543.3
99169.6
98146.3
97781.2
96444.1
96126
94344.8
94139.5
91720.1
91739.2
88388.9
88818
84087.6
85232.9
78424.6
80787.7
70806.6
75235.7
60386.2
68390.4
46048.3
60257.5
25960.9
50363.9
-4728.08
35562.9
-56505.6
12307.6
-143890
-9688.15
-75472.8
4795.36
-33988.9
16424.5
-7879.91
23903.7
9758.33
30748.1
23449
37512.8
34204.7
43717.4
42741.1
49336.8
49653.2
54323.8
55258.7
58622.8
59777.5
62233.3
63381.3
65179.3
66213.3
67535.7
68446.3
69447.9
70281.4
71075.2
71881.7
72527.5
73342
73851.5
74700.5
75049.3
75969
76105.9
77160.9
76998.9
78302
77691.1
79443.9
78119
80686.8
78181.9
106838
106719
106626
106426
106279
106032
105836
105572
105362
105113
104917
104686
104498
104259
104053
103772
103530
103187
102911
102492
102183
101671
101333
100698
100337
99537.5
99164.6
98139.6
97775.7
96436.3
96119.9
94335.6
94132.8
91709.2
91732
88375.9
88810.2
84072.1
85224.6
78406
80779.2
70784.9
75227.9
60361.7
68383.3
46019.2
60246
25921
50338
-4774.42
35529.2
-56490.6
12324.8
-143458
-9568.11
-75445.3
4813.77
-34000.4
16433.1
-7887.4
23915.1
9755.83
30761.2
23449.9
37525.3
34206.7
43728
42743.6
49346
49656.6
54332.4
55262.9
58630.6
59781.9
62239.5
63384.8
65183.7
66215.8
67538.8
68448.5
69450.5
70284
71077.8
71884.7
72529.8
73345
73853
74703.4
75049.8
75971.9
76105.1
77164
76996.7
78305.8
77687.4
79449.1
78114.1
80693.4
78176.8
106823
106706
106614
106415
106269
106024
105830
105566
105358
105110
104914
104685
104497
104258
104051
103769
103527
103184
102907
102488
102179
101666
101329
100693
100333
99531.8
99159.6
98133
97770.2
96428.6
96113.8
94326.5
94126.2
91698.4
91724.8
88363.1
88802.4
84056.6
85216.3
78387.6
80770.7
70763.3
75220.2
60337.4
68376.4
45990.5
60234.8
25881.6
50312.7
-4819.94
35496.3
-56474.8
12342.3
-143029
-9449.16
-75417.7
4831.97
-34011.9
16441.8
-7894.62
23926.9
9754.12
30775.1
23451.7
37538.6
34209.4
43739.2
42746.6
49355.6
49660.3
54341
55267.2
58638.2
59786
62245.5
63387.9
65187.6
66217.8
67541.4
68450.4
69452.9
70286.4
71080.2
71887.5
72531.8
73347.9
73854.4
74706.2
75050.1
75974.6
76104.1
77166.9
76994.3
78309.5
77683.7
79454.2
78109.2
80699.8
78171.7
106808
106693
106601
106405
106259
106016
105823
105561
105354
105107
104912
104683
104495
104256
104049
103766
103524
103180
102904
102485
102176
101662
101325
100688
100328
99526.1
99154.6
98126.4
97764.7
96420.9
96107.8
94317.4
94119.5
91687.7
91717.6
88350.2
88794.7
84041.3
85208.1
78369.2
80762.4
70742
75212.6
60313.3
68369.7
45962.1
60223.9
25842.7
50288
-4864.66
35464.4
-56458.2
12360.1
-142603
-9331.26
-75390
4849.96
-34023.4
16450.4
-7901.59
23939.4
9753.19
30789.8
23454.1
37552.4
34212.6
43750.9
42750
49365.5
49664.1
54349.8
55271.5
58645.7
59789.9
62251.1
63390.6
65191.1
66219.5
67543.8
68452.1
69454.9
70288.5
71082.3
71890.1
72533.8
73350.7
73855.6
74708.8
75050.3
75977.2
76103
77169.7
76991.9
78313.1
77679.9
79459.2
78104.3
80706.1
78166.7
106793
106679
106588
106394
106250
106008
105816
105556
105350
105104
104910
104681
104494
104254
104046
103763
103521
103177
102900
102481
102172
101658
101320
100683
100324
99520.5
99149.6
98119.8
97759.2
96413.3
96101.8
94308.4
94113
91677
91710.4
88337.5
88787
84026
85199.9
78351
80754.2
70720.8
75205.1
60289.4
68363.1
45934.1
60213.3
25804.3
50263.9
-4908.59
35433.2
-56440.8
12378.2
-142181
-9214.41
-75362.3
4867.75
-34035
16459
-7908.3
23952.3
9752.99
30805.2
23457.3
37566.8
34216.3
43762.9
42753.7
49375.6
49668.1
54358.6
55275.6
58653
59793.4
62256.2
63392.8
65194.2
66220.7
67545.7
68453.3
69456.8
70290.4
71084.3
71892.5
72535.5
73353.3
73856.7
74711.3
75050.3
75979.6
76101.8
77172.5
76989.4
78316.6
77676
79464.1
78099.4
80712.3
78161.7
106779
106666
106576
106384
106240
106000
105810
105551
105346
105101
104908
104679
104492
104252
104044
103760
103518
103173
102897
102477
102168
101653
101316
100678
100319
99514.9
99144.7
98113.3
97753.7
96405.7
96095.8
94299.5
94106.4
91666.4
91703.4
88324.8
88779.4
84010.9
85191.9
78332.9
80746
70699.7
75197.8
60265.8
68356.7
45906.3
60203.1
25766.4
50240.2
-4951.77
35402.8
-56422.6
12396.6
-141761
-9098.59
-75334.6
4885.36
-34046.5
16467.7
-7914.76
23965.7
9753.49
30821.4
23461
37581.7
34220.3
43775.3
42757.6
49385.9
49672.1
54367.2
55279.5
58660
59796.5
62261
63394.6
65196.8
66221.6
67547.3
68454.3
69458.3
70292.1
71086
71894.7
72537.1
73355.7
73857.6
74713.7
75050.2
75982
76100.5
77175.1
76986.7
78320
77672
79468.9
78094.4
80718.4
78156.8
106764
106653
106564
106373
106231
105993
105803
105546
105342
105098
104906
104677
104490
104250
104042
103757
103515
103170
102894
102473
102164
101649
101312
100673
100315
99509.3
99139.8
98106.9
97748.3
96398.1
96089.8
94290.6
94099.9
91655.8
91696.3
88312.3
88771.8
83995.8
85183.9
78315
80738
70678.8
75190.6
60242.4
68350.5
45878.8
60193
25729
50217.1
-4994.19
35373.2
-56403.6
12415.3
-141345
-8983.77
-75306.8
4902.79
-34058.1
16476.3
-7920.97
23979.6
9754.63
30838.1
23465.2
37596.8
34224.6
43787.8
42761.6
49396.2
49676.1
54375.8
55283.2
58666.6
59799.2
62265.2
63395.8
65199
66222
67548.5
68455
69459.6
70293.5
71087.5
71896.8
72538.5
73357.9
73858.3
74715.9
75049.9
75984.2
76099.1
77177.6
76984
78323.3
77668.1
79473.6
78089.4
80724.3
78151.9
106750
106640
106551
106363
106221
105985
105797
105541
105338
105095
104903
104676
104489
104248
104040
103754
103512
103166
102890
102469
102161
101645
101308
100668
100310
99503.7
99134.9
98100.4
97742.9
96390.5
96083.9
94281.7
94093.5
91645.3
91689.3
88299.7
88764.3
83980.8
85175.9
78297.1
80730
70658.1
75183.5
60219.2
68344.4
45851.6
60183.3
25692
50194.5
-5035.89
35344.4
-56384
12434.2
-140931
-8869.95
-75278.9
4920.05
-34069.7
16485
-7926.94
23994
9756.36
30855.4
23469.7
37612.2
34229
43800.3
42765.6
49406.4
49679.9
54384
55286.6
58672.8
59801.5
62269
63396.6
65200.7
66222
67549.3
68455.3
69460.6
70294.7
71088.9
71898.6
72539.7
73360.1
73858.9
74718
75049.6
75986.3
76097.6
77180
76981.2
78326.6
77664
79478.2
78084.4
80730.2
78147.1
106736
106627
106539
106353
106212
105978
105790
105536
105334
105092
104901
104674
104487
104246
104037
103751
103509
103163
102887
102465
102157
101641
101304
100664
100306
99498.2
99130
98094
97737.6
96383
96078
94272.9
94087
91634.8
91682.3
88287.3
88756.8
83965.9
85168
78279.4
80722.1
70637.5
75176.5
60196.1
68338.5
45824.8
60173.8
25655.5
50172.4
-5076.88
35316.3
-56363.7
12453.3
-140521
-8757.1
-75251
4937.15
-34081.3
16493.7
-7932.68
24008.7
9758.61
30873
23474.6
37627.7
34233.5
43812.9
42769.7
49416.5
49683.5
54392.1
55289.6
58678.5
59803.3
62272.2
63396.9
65201.9
66221.7
67549.9
68455.4
69461.4
70295.7
71090
71900.3
72540.8
73362
73859.4
74719.9
75049.1
75988.3
76096
77182.3
76978.4
78329.7
77659.9
79482.7
78079.4
80735.9
78142.3
106722
106615
106527
106342
106203
105970
105784
105531
105330
105089
104899
104672
104485
104244
104035
103749
103506
103160
102883
102462
102154
101636
101300
100659
100301
99492.7
99125.2
98087.6
97732.2
96375.6
96072.2
94264.1
94080.6
91624.4
91675.4
88274.9
88749.4
83951.1
85160.2
78261.8
80714.3
70617.1
75169.6
60173.3
68332.7
45798.1
60164.6
25619.4
50150.8
-5117.18
35288.9
-56342.7
12472.6
-140113
-8645.22
-75223
4954.11
-34092.9
16502.4
-7938.2
24023.8
9761.31
30891
23479.6
37643.3
34238
43825.4
42773.6
49426.4
49686.9
54399.7
55292.2
58683.8
59804.5
62275
63396.8
65202.8
66220.9
67550.1
68455.2
69461.9
70296.5
71090.9
71901.9
72541.7
73363.9
73859.8
74721.8
75048.5
75990.2
76094.3
77184.6
76975.5
78332.8
77655.8
79487.1
78074.5
80741.5
78137.6
106708
106602
106515
106332
106193
105962
105777
105526
105326
105086
104897
104670
104484
104242
104033
103746
103503
103156
102880
102458
102150
101632
101297
100654
100297
99487.2
99120.4
98081.3
97726.9
96368.1
96066.3
94255.3
94074.3
91614.1
91668.5
88262.6
88742
83936.4
85152.5
78244.2
80706.5
70596.8
75162.7
60150.7
68327.1
45771.8
60155.6
25583.8
50129.6
-5156.81
35262.2
-56321.1
12492.1
-139709
-8534.28
-75195
4970.94
-34104.4
16511.1
-7943.51
24039.3
9764.4
30909.2
23484.6
37658.7
34242.4
43837.7
42777.3
49436.1
49690
54407
55294.4
58688.6
59805.3
62277.2
63396.2
65203.2
66219.8
67549.9
68454.7
69462.2
70297.1
71091.7
71903.3
72542.5
73365.6
73860
74723.5
75047.8
75992
76092.5
77186.7
76972.5
78335.8
77651.7
79491.5
78069.5
80747
78132.9
106694
106590
106503
106322
106184
105955
105771
105521
105323
105084
104895
104668
104482
104240
104031
103743
103500
103153
102877
102454
102146
101628
101293
100649
100293
99481.8
99115.6
98074.9
97721.6
96360.8
96060.5
94246.6
94067.9
91603.8
91661.7
88250.3
88734.7
83921.7
85144.8
78226.8
80698.9
70576.7
75156
60128.2
68321.5
45745.7
60146.8
25548.6
50108.9
-5195.8
35236.1
-56298.9
12511.8
-139307
-8424.26
-75166.9
4987.64
-34115.9
16519.9
-7948.62
24055
9767.79
30927.5
23489.7
37674
34246.6
43849.8
42780.8
49445.5
49692.7
54413.9
55296.1
58693
59805.6
62279
63395.1
65203.1
66218.3
67549.5
68454
69462.2
70297.5
71092.3
71904.5
72543.1
73367.1
73860.1
74725.1
75047.1
75993.7
76090.7
77188.8
76969.5
78338.7
77647.5
79495.7
78064.5
80752.5
78128.3
106680
106577
106491
106312
106175
105948
105765
105517
105319
105081
104893
104667
104480
104238
104028
103740
103497
103150
102874
102451
102143
101624
101289
100645
100288
99476.4
99110.8
98068.6
97716.4
96353.4
96054.7
94238
94061.6
91593.6
91654.9
88238.1
88727.4
83907.2
85137.1
78209.6
80691.3
70556.7
75149.4
60106
68316.2
45719.8
60138.2
25513.8
50088.6
-5234.15
35210.7
-56276.1
12531.7
-138908
-8315.15
-75138.7
5004.23
-34127.4
16528.7
-7953.54
24071
9771.42
30945.8
23494.7
37689.1
34250.5
43861.6
42783.9
49454.5
49695.1
54420.3
55297.3
58696.8
59805.3
62280.3
63393.6
65202.8
66216.6
67548.8
68453
69462.1
70297.7
71092.8
71905.6
72543.6
73368.6
73860.1
74726.7
75046.2
75995.3
76088.7
77190.9
76966.4
78341.6
77643.3
79499.9
78059.5
80757.8
78123.8
106666
106565
106480
106302
106166
105940
105759
105512
105315
105078
104890
104665
104479
104236
104026
103738
103494
103146
102870
102447
102139
101620
101285
100640
100284
99471
99106.1
98062.4
97711.1
96346.1
96049
94229.4
94055.4
91583.4
91648.1
88226
88720.1
83892.7
85129.5
78192.4
80683.7
70536.9
75142.9
60083.9
68310.9
45694.2
60129.9
25479.4
50068.7
-5271.89
35185.8
-56252.7
12551.8
-138512
-8206.94
-75110.4
5020.72
-34138.8
16537.6
-7958.3
24087.1
9775.2
30964
23499.4
37703.8
34254.2
43873.1
42786.8
49463.1
49697
54426.2
55298.1
58700.1
59804.6
62281.1
63391.6
65202
66214.5
67547.8
68451.9
69461.8
70297.7
71093.1
71906.5
72544
73369.9
73860
74728.1
75045.2
75996.9
76086.8
77192.8
76963.3
78344.4
77639.1
79504.1
78054.6
80763
78119.3
106653
106553
106468
106292
106157
105933
105752
105507
105311
105075
104888
104663
104477
104235
104024
103735
103491
103143
102867
102443
102136
101616
101281
100635
100280
99465.6
99101.4